/*--------------------------------*- C++ -*----------------------------------*\
| =========                 |                                                 |
| \\      /  F ield         | OpenFOAM: The Open Source CFD Toolbox           |
|  \\    /   O peration     | Version:  2506                                  |
|   \\  /    A nd           | Website:  www.openfoam.com                      |
|    \\/     M anipulation  |                                                 |
\*---------------------------------------------------------------------------*/
FoamFile
{
    version     2.0;
    format      ascii;
    arch        "LSB;label=32;scalar=64";
    class       volScalarField;
    location    "0.0817324";
    object      p;
}
// * * * * * * * * * * * * * * * * * * * * * * * * * * * * * * * * * * * * * //

dimensions      [0 2 -2 0 0 0 0];

internalField   nonuniform List<scalar> 
3946
(
0.147665
0.508612
-4.26842
0.379785
0.699702
-4.58423
0.606235
0.449885
0.258201
0.400967
1.06683
0.408855
-7.01386
-0.0208184
0.153578
-0.0701498
0.180271
0.665078
0.153005
0.668343
-0.20869
-0.225666
-0.0733514
0.31903
-1.30089
0.649515
0.241553
0.135797
0.63044
0.453035
1.22425
0.14396
0.553789
0.0976671
-0.576233
0.287144
0.846385
0.337094
0.234897
0.0765499
0.332508
0.625383
0.545529
-1.14169
0.634768
0.458159
0.605057
0.938879
0.0974647
0.345622
0.533727
0.322646
0.327776
0.47472
0.61465
0.909319
0.720429
0.695176
0.677877
0.403847
1.33464
-30.8136
0.83015
0.583816
1.55418
-30.5735
-30.7731
-30.5656
-30.5764
-4.45487
0.749379
0.493177
-31.0059
0.559036
-3.14352
0.408449
0.413261
0.378603
0.498159
-0.365719
-30.6568
-14.1211
0.793218
0.695385
0.643589
-30.5978
-17.9895
-30.7573
-31.3727
-31.1929
-36.3371
-30.7602
-0.680993
0.446589
0.540765
0.47893
0.100673
0.610451
-1.7001
0.67596
-1.35638
0.51429
0.438041
-31.4746
0.388855
0.599829
-13.6931
1.74139
0.23333
-0.0777665
-9.09634
-0.00856327
0.172006
0.0949877
-0.137255
0.0354738
-14.2078
-2.84096
-30.4458
-31.3197
-0.857997
0.546934
0.86348
-0.193689
0.243439
-1.30137
-29.5423
-13.0972
0.896762
1.44133
-0.060742
-31.5663
-0.0285464
-1.15912
-1.67024
-11.1057
-0.116672
-30.7317
1.68182
-42.7368
-22.1066
-30.4965
-39.1078
0.206961
-8.75155
0.78901
0.970584
0.338457
0.295485
0.249549
0.321537
0.349578
0.812717
0.516106
0.363687
0.667806
0.784932
0.948272
0.864025
-0.921104
-0.675474
-2.73905
-34.1065
0.713142
0.957467
0.552718
0.351111
0.359266
0.245727
-31.5647
-0.490991
-24.8111
0.298232
0.351221
0.228751
0.355542
0.503245
0.523027
-5.60545
0.181565
0.609527
0.732156
0.663253
-0.188748
-0.969099
-0.890427
0.818643
0.394958
0.46183
0.830194
-8.23975
-0.225794
-31.2246
0.423506
-30.3634
-30.3487
-30.2296
1.81165
0.930389
0.778749
0.659778
-0.00758108
0.859135
0.824872
1.14553
-0.032049
-0.719134
-3.19161
0.174962
-0.493471
-0.93903
-1.18673
-0.293984
3.90465
-2.11894
0.558012
1.92736
0.532702
1.77508
1.37343
-32.8082
-30.3176
-0.33976
0.96134
-0.745553
-30.2723
-30.0547
-5.49747
-1.17361
-29.7725
-8.03884
-2.13335
0.596714
-12.0838
0.640053
0.0518562
0.20606
0.192531
0.0274686
0.209193
0.642067
-30.6444
-29.9444
-39.3582
0.483678
0.235624
0.119313
0.338756
-4.23455
0.379578
0.29528
-39.2511
-1.42263
-1.57307
0.286721
-1.42598
-0.110497
-2.90552
0.207672
0.260556
-3.65606
-30.241
-32.9324
0.4216
0.28527
0.604241
0.682345
0.513985
0.355492
0.649556
0.292267
0.262987
0.333858
-1.26642
-1.45608
-1.83511
-1.76956
-1.64779
-1.50728
0.412593
0.439894
0.346774
0.084819
-0.184203
-0.0374744
0.0504679
-0.48464
0.118931
-0.0179129
-0.293231
-0.157749
-0.294745
2.74674
-0.0669089
0.265277
0.412418
0.347987
0.451409
0.33042
-30.471
1.32904
-30.4509
-30.4031
-30.4538
0.82863
-2.52386
-32.4975
-21.2254
0.634933
-37.0599
-36.1104
-30.7889
-30.8901
-30.8664
0.489864
-29.8135
-0.442979
-0.755158
-0.834887
-33.499
0.422604
-32.7936
0.560756
0.389652
0.306084
-0.564893
0.0740925
-3.45502
-9.60296
0.353496
0.265052
0.791709
0.65966
-30.8478
-45.1291
0.5406
-5.33715
-37.3698
-30.5234
-31.1118
0.662638
-30.4489
-30.4943
-2.88493
-34.7539
-24.1927
-6.77042
0.699273
-25.264
-36.2648
-30.8096
-9.14731
-31.2048
-0.62072
-30.6525
-29.8553
-25.5299
0.834715
-30.8013
-30.2451
-21.4013
-29.2
-0.996275
-15.4955
-43.5727
-36.6674
-13.8103
-33.2725
-36.4495
-32.6111
-32.2508
-37.2165
-0.554712
-1.03241
-0.397073
0.799053
0.277051
0.811345
-7.18397
-24.6842
-2.62412
-11.9058
-1.71829
-0.673623
-6.52077
-2.42403
-15.6716
-6.16689
-1.49932
-1.716
-33.2488
-1.4861
-1.05525
-38.9592
-6.47081
-29.9842
-0.834779
-17.9041
-2.2687
-0.808886
-3.49789
1.43808
-1.3236
-0.12905
0.965038
0.424803
-18.3268
-1.05715
0.542297
-1.61833
-3.69276
-0.762683
-3.54384
-0.946879
-1.55843
-1.8972
0.765641
0.400802
-9.57052
-8.15218
0.409461
-11.922
0.749864
-37.1572
0.0242725
0.175918
1.04051
0.593456
0.353142
0.412093
1.40819
-0.010831
0.481996
0.415691
-9.35609
0.0385211
0.460671
0.488044
-2.1619
-2.4585
-1.89491
-1.30339
-2.12168
-2.61324
-1.83284
-32.4007
-36.7863
-3.07305
-1.65696
0.236489
0.132158
-0.892808
-0.0835419
0.0461504
-0.484827
-0.948347
-2.25075
-0.658597
-0.275429
0.0745486
-8.36192
-4.56314
-30.7087
-23.8767
-29.5443
-26.7317
0.742087
-14.1973
-36.5988
-14.9912
-9.67354
-1.41039
0.738919
0.822288
0.98905
0.886148
-4.41336
-1.29174
-3.7548
-1.72704
-33.4343
-30.3344
-29.5627
-1.91012
0.439688
0.677845
-5.37779
0.159512
-0.00347449
-0.761641
-0.0201571
1.09664
-2.84848
0.446867
-0.0371261
-0.772282
0.795596
-1.3556
0.523486
0.792343
-2.65613
-1.72234
0.688377
0.727203
0.839549
-2.5608
-2.55924
-34.4057
-30.4645
0.552569
-30.6307
-30.706
0.519738
-8.25334
-10.5741
-39.8755
-8.01343
-5.01857
-4.37178
0.848032
0.0595087
-2.32313
-1.94471
-1.42982
-2.60195
-1.27412
-0.190683
-0.338965
-5.50008
-42.3821
-34.2569
-25.6675
-1.22394
-27.3788
-32.0171
-30.4244
0.805233
0.460326
-1.45321
0.605634
-1.11198
-0.543272
-10.676
0.562077
0.224677
0.1933
-1.62783
0.815007
0.286299
0.916172
0.493488
0.396498
0.67015
0.778823
0.398644
0.517692
0.434399
-2.84505
0.945963
0.558025
0.522087
0.408717
-0.414234
0.337265
0.480811
0.440881
-7.53197
0.508398
0.386006
-40.6189
0.767464
0.800605
0.286237
0.49625
0.452414
1.05418
0.540678
0.846925
0.399066
1.00737
1.33229
1.00567
0.77036
1.12893
0.756771
0.796279
0.625464
1.09013
0.406687
0.226855
0.505643
0.603369
0.744237
0.700527
1.26346
-0.272352
0.847831
-0.667383
0.837006
-13.4183
0.632741
0.621241
0.900305
-34.3063
0.916189
0.539798
-1.76168
0.189669
-1.97325
0.378329
0.673869
-3.86956
-0.740522
1.75361
-2.08049
0.310495
0.814862
0.103348
0.400418
0.222988
0.410313
-35.3475
-35.5002
-31.9344
-0.441115
-1.37836
2.63069
0.514224
0.850469
1.6225
0.628549
0.45111
-11.1911
-15.2436
-15.424
-17.3075
0.472903
-14.4233
0.263047
-12.2168
0.379307
-11.1834
0.383556
0.0251132
-0.738235
0.279946
0.714934
-0.352567
-3.72802
0.0672214
0.431928
0.55622
0.606696
0.333616
0.0139321
0.635179
0.796657
0.474223
0.610103
0.0855117
0.0968044
-4.31667
0.0420254
0.472113
0.646655
0.601239
-4.52018
-11.743
-1.39809
0.703217
-2.50445
-0.00679232
0.377799
-30.328
-31.0189
-31.1089
0.296079
-1.81304
0.291267
1.26658
-12.4147
-31.1925
0.568775
-31.2365
0.318704
0.351965
-2.69357
-0.0312583
-0.175347
-0.228788
0.385114
0.531147
1.48576
0.663594
1.23835
1.73616
-45.3236
-36.3746
0.553925
-28.3883
-30.319
-0.189211
0.0393056
0.459769
0.347455
0.545095
0.145257
0.509669
-0.0518969
-1.30582
-0.35759
-2.25932
0.196253
0.574598
-0.354343
0.462757
0.950342
0.353651
0.783855
-0.331736
-0.311046
0.778996
0.654846
0.349191
-3.06844
-0.264531
0.336224
-7.14774
0.397848
1.28467
0.563404
1.82171
0.812666
1.92898
0.213322
0.469924
0.828946
-4.22601
0.614348
0.782147
0.866031
0.439526
0.490932
-3.93776
-1.6522
0.498842
-0.919776
-2.15237
-0.999562
-1.90188
-30.6964
-32.163
0.410123
-34.4467
-41.132
-32.0139
-32.6411
-2.36337
-31.0229
-32.085
-39.4111
-17.2171
-2.95999
0.676504
-4.87907
0.0381314
-30.6521
-6.99454
-13.8645
-12.6251
-7.59188
-1.26318
-3.56002
-30.5494
-30.6827
-30.9068
-30.5726
-31.2894
-38.934
-1.76559
-4.9151
0.801422
-2.30925
-1.61771
0.176631
0.167259
0.035961
0.347757
0.211021
-0.493606
-28.047
0.421129
0.969144
-1.45733
1.3319
0.431344
0.628484
0.568752
-2.73891
-0.779752
-1.3108
-0.572106
-2.40112
-1.06518
-2.03921
-0.21022
-0.288763
-0.529242
-2.21087
-5.59432
0.59432
0.623706
-0.733283
-2.74902
-1.89968
1.46425
0.620131
-18.0817
-26.2499
-2.96882
-13.8119
-6.09825
-5.91333
-2.48415
-6.18564
1.10701
-8.17421
-3.63048
-1.26324
-5.32792
-1.48924
0.57754
0.860151
0.579644
-3.67975
0.780846
-30.9323
0.650779
-4.55765
-0.175102
-38.2149
-1.17126
-0.66165
-22.9639
-2.21365
-28.4585
-31.5413
-25.7055
-22.9381
-10.0564
-35.7822
-24.9666
-14.9182
-3.11143
-30.9394
-36.1573
2.80682
-9.64751
-0.198771
0.0731669
-3.90765
-1.90878
-2.46887
-2.50025
-1.28574
-0.727248
-0.717559
2.3092
-5.60402
0.472291
-2.32133
-2.61262
-2.69079
-4.85663
0.153481
-2.29111
1.79037
-1.22796
0.0579471
0.218783
0.43919
0.454098
-0.592065
0.536045
-2.78521
-2.00612
-2.5576
0.326482
-0.113186
-0.163614
0.999863
-0.104335
-0.574106
0.350456
0.127975
-1.85078
0.548931
0.493467
1.13685
-1.98116
0.364783
-1.00813
1.09167
1.56077
1.08269
0.946173
0.517338
-17.2333
-30.5127
0.875121
-24.8444
-30.639
-2.02337
-2.9964
1.77578
-6.41547
-1.3456
-33.5308
-2.11408
-30.2132
-31.0815
-32.9843
-30.2362
0.60013
0.600671
0.667212
-35.1407
0.752525
0.602724
1.08097
-23.8776
-30.2914
-41.6991
-48.7004
-45.4603
-31.1236
-0.0537864
-34.9436
-31.2418
-1.88751
-31.111
-33.0335
-33.4087
-20.1141
-30.5218
-31.4059
-0.153447
-35.6124
-8.26975
-28.974
-30.9912
0.0820188
-36.4206
-33.8564
-40.7118
0.581838
-24.6859
-33.2527
0.686792
-2.40666
-1.19798
-41.9445
-33.6184
-3.9985
-0.251907
0.964089
0.653788
-0.740361
-5.1774
-7.4841
0.540326
-3.79142
-0.204555
-3.12586
-39.8408
-34.5031
-36.0364
-31.5376
-35.3533
-46.0137
-1.40295
-3.58708
0.509411
-20.3816
-21.5812
-5.93703
-2.80291
-0.703151
-31.0404
-1.52052
0.547526
-1.01475
-1.80683
0.428154
-5.48856
0.745248
-2.87671
-2.52559
-3.03126
-4.16537
-1.65769
-0.928873
0.984983
-2.73427
0.251934
-0.983104
0.120758
0.685624
-62.7295
-32.2796
-0.918617
-9.21994
0.231865
0.416634
-0.109727
-9.71653
0.606041
0.600422
1.1908
0.101612
-13.1266
-1.34417
-13.2236
-11.351
-0.380578
-20.0017
0.288433
0.338199
0.386355
0.327253
0.326473
0.124529
0.842693
0.813809
0.823522
-5.05726
0.231181
-1.53856
-1.68654
0.933722
-5.32239
-1.43651
1.18439
-4.72006
0.874556
0.770562
-23.9374
-26.2572
0.0448745
-14.7253
-30.6882
-32.6068
-40.1105
-8.91698
-45.3506
-18.743
-32.9583
-1.95894
-6.67195
0.724492
-0.27702
-3.20039
-2.76296
-36.0481
-25.1285
-2.96939
-3.78357
-0.586541
0.131459
0.747449
1.9689
1.80962
0.916313
1.8874
0.6285
0.897406
0.752134
0.890404
-0.425854
-0.70215
1.5257
-14.9467
0.896707
0.857755
-4.77904
0.941683
0.730856
-1.25823
-1.91372
-1.70042
-2.58542
0.965773
1.10172
0.751272
1.06706
0.954391
0.882982
0.774824
-1.80503
-35.0471
-25.087
-18.11
0.690405
-7.42908
-6.61741
-1.87813
0.819018
0.833896
1.35929
1.06184
1.31457
-0.18756
0.582449
0.757435
0.53908
-7.24768
-30.7191
-26.8784
-30.9775
-33.7271
-27.0687
0.548669
1.382
0.711503
0.624129
1.20429
0.873281
0.816885
0.645679
-1.29303
0.383342
0.187671
0.529548
0.491533
1.68681
0.601038
0.900076
0.726394
0.560585
0.714156
0.645549
-15.0812
-10.8194
-6.30919
-6.0341
-1.60004
-12.2513
0.396344
0.703577
0.717784
0.240852
0.541462
0.831137
1.28738
1.2969
0.0560114
-1.79338
1.01754
0.0569331
0.416475
0.491628
0.638022
0.559919
0.709543
0.398567
0.498194
0.363596
0.391757
0.151079
0.763995
0.507399
1.22332
0.329248
0.338113
0.25121
0.364798
0.485557
0.892937
0.430438
0.733258
0.0163878
0.515964
0.863316
0.418134
0.679923
0.520944
0.340205
0.172559
0.451187
-0.0226276
0.0447963
0.225008
0.54978
0.158729
0.0716188
0.569109
0.668922
0.760524
0.925641
0.627337
0.668536
1.11106
0.44061
0.583535
-1.5697
0.181563
-0.633553
0.783357
0.0443455
0.805959
0.510884
0.418009
1.40995
0.598666
0.814939
0.692761
0.662166
-2.42931
0.519878
0.686251
0.98045
0.654624
0.953097
0.017096
0.372369
-3.55597
0.228019
-0.336505
-0.0627528
1.01094
0.580948
0.795932
0.773055
0.483779
-34.6674
0.846842
0.480678
0.532843
1.45647
0.817613
0.448737
0.481245
-0.978473
-0.902096
-0.52463
-0.583356
-0.496069
0.504801
0.286274
0.272705
0.324404
0.820221
-1.4809
0.87014
0.420503
0.366303
0.380935
0.496827
0.638948
0.492992
0.486096
0.573877
0.44113
-20.6465
0.375994
0.608607
0.320671
-0.193507
0.659485
0.528735
0.778329
0.779525
0.680802
-1.51708
-1.61475
-2.12913
-1.41779
-0.28463
0.348011
0.45019
-1.0881
-1.58782
-1.948
0.721818
0.178873
-0.230059
-1.71792
0.715933
-0.372669
0.0114616
0.20321
0.571726
-0.111305
-2.11699
0.0105754
3.11214
-0.941076
0.19401
-0.0707109
0.274626
-0.27112
0.365128
0.0973353
-0.227608
3.06629
2.62105
-0.586303
-0.474855
0.829225
-0.379375
0.5838
0.519342
0.17295
-0.0147794
-0.0336213
0.467328
0.0192628
-0.00617124
0.371791
-2.59388
-14.5123
0.880599
1.26772
-0.627783
1.4843
0.665773
0.691479
0.808032
0.792762
2.47469
0.903512
0.632596
0.486681
0.309918
-30.1253
1.28444
-2.3856
-4.96407
1.53699
0.916855
0.934754
0.683447
0.812564
0.585988
0.528824
0.780693
0.64518
-16.0239
-2.43518
-0.158572
0.919346
1.17291
0.717598
0.023426
0.308699
-3.00206
0.741575
0.610223
0.727543
-9.97163
0.655539
0.958718
0.685946
0.356336
0.102783
-30.1883
0.530014
-30.1074
0.793393
0.896856
1.03008
3.02844
3.83611
-0.317339
0.556359
0.715039
0.922161
1.18059
-13.9784
0.541403
0.228375
-0.168247
0.385646
-31.4388
0.40811
0.607923
0.35244
0.435075
0.544735
1.24228
1.41735
-1.06651
-1.97301
0.561988
1.30783
-3.90463
-1.61347
0.476593
0.502279
-1.02021
0.542169
0.772312
-1.5944
-1.13539
0.729065
0.536503
0.644273
0.479049
0.519152
0.761727
0.953697
0.931542
0.861517
0.345287
0.52846
0.826063
0.552789
0.664979
0.50473
0.427091
0.651129
-22.0818
1.43393
0.678721
1.11282
0.957247
0.58643
1.08238
0.546196
0.561254
-30.3873
0.701269
0.568317
-30.3254
-32.9238
0.614841
-24.5768
-31.279
-33.0346
-31.7176
-34.1301
0.629783
0.539363
-37.4547
-25.4463
0.61241
-30.1129
-30.8343
-32.1846
-30.6316
0.606637
-17.9682
-30.6197
-32.5457
-27.5039
-14.712
-2.54745
0.57233
-36.0324
-30.8565
-32.7747
0.250058
0.563772
0.461275
-32.9966
0.473248
-30.7061
-2.25935
0.710384
-2.23849
0.615693
0.0834593
0.525663
0.116958
1.4523
-1.60025
-1.47854
-4.04373
0.65308
0.699944
0.481443
-2.92552
-1.0459
-1.79751
-1.15186
-1.62491
-1.86401
0.244471
1.06592
0.622519
0.483601
0.617899
-2.05989
0.493539
0.633833
1.00858
-1.69376
0.644134
-2.18032
0.706336
-0.0464462
-3.57625
-22.0502
2.35654
-18.0061
0.474249
0.796996
0.27461
0.506699
0.615453
0.925544
-0.000812115
0.2005
0.546538
0.765466
-0.582835
0.100054
0.498677
0.158339
0.279817
0.578553
0.59993
0.629352
0.725998
1.50044
1.09938
-2.31859
-0.367153
-6.89911
0.306476
0.907749
0.97979
0.788511
0.690744
0.487636
0.877488
0.581255
1.12302
1.07185
1.15485
-35.752
0.658044
0.882505
0.701522
1.00257
-1.0341
0.598941
-1.14196
-32.1848
-31.7906
-2.13317
-9.80268
0.270337
0.149726
0.155013
0.337882
0.221926
-1.27488
0.997165
-1.99503
-1.56697
0.947623
-1.45329
-42.9593
-1.3152
-1.61962
-3.78706
-2.82862
-31.4821
-30.0834
-5.45471
-1.50326
-38.1328
-1.1633
0.633682
0.0560246
-3.5512
1.79544
0.559939
0.500972
0.588505
0.678913
0.704553
1.27016
0.627312
0.351758
0.650035
-0.17803
-0.121779
0.282406
-0.854348
-0.0561088
-0.719915
0.527076
-0.193909
0.60488
0.346452
0.470931
0.579004
0.303372
0.540015
0.485562
0.555067
0.341215
0.912856
0.302692
0.242738
0.720552
0.68228
0.524017
0.979565
0.683904
1.05228
1.02041
0.720802
3.18224
-2.02536
-1.9246
-1.88258
-1.72333
-2.01945
0.411211
0.307438
0.332146
0.329981
0.385952
-2.67621
-3.62431
0.400876
-0.0693886
0.233291
0.260448
0.23115
-31.5162
0.958143
1.07851
0.280252
0.72054
0.298869
0.117422
0.671284
0.856198
0.99062
-1.4989
0.862208
-0.766217
-0.602488
1.17353
0.431042
0.321104
0.438671
0.459463
0.525119
0.27396
0.250402
-6.59176
-7.15932
-8.13631
-7.54708
-0.0289958
-13.9285
-9.33441
-0.209818
0.943494
-7.67761
-8.62269
-5.44289
0.771298
0.790686
0.684529
-31.5482
-29.886
-32.0117
0.276039
0.442517
-11.8349
-4.11904
-4.16003
-5.3895
-9.55333
-2.68022
0.139235
-26.2157
-15.2483
-28.4413
-27.0798
0.723801
0.865106
0.592615
0.68145
-29.9663
-30.5499
-34.3363
-5.7896
-33.3
-22.1784
-14.1685
-35.8515
-3.31268
-44.0709
-34.5473
-34.8996
0.525181
-0.0349626
0.0618768
0.199153
0.0100024
-8.04561
-10.6467
-29.5989
-2.88496
-2.80811
-3.36762
-31.0628
-36.5329
-40.8078
-15.4485
-31.2942
-44.6191
0.589356
0.501144
-3.86025
-3.67713
-9.83853
-1.88586
0.497684
0.626426
0.994202
-58.6885
-38.6658
-2.88909
-2.72343
-2.20862
-2.50723
-2.10379
-1.73432
-0.370654
0.777846
-1.24627
1.04543
-1.88165
-1.2863
-1.7068
-41.6445
-1.92305
0.377935
-0.0247892
0.280017
0.275905
-0.99053
0.0994205
-0.0420224
0.0817548
-44.0666
-14.2356
-1.91012
-1.53185
-9.3595
-5.28854
-1.29534
0.289097
-0.287885
-3.39836
-4.52788
-3.89511
-2.19155
-10.6729
0.988319
-1.13841
-5.23963
-9.26724
-6.19808
-5.74749
-1.99161
-3.0348
-0.575146
-1.98368
-1.20301
-0.230014
0.31964
0.434849
-1.09987
-1.39766
-0.966346
-5.03945
-2.25565
-4.12361
0.702763
-1.41795
0.671372
0.516389
0.388067
0.558534
0.394045
0.821217
0.165992
0.0906713
-13.0878
-14.4107
-12.9996
0.966306
0.792549
0.765275
0.825694
-0.0992671
0.286974
0.502558
1.512
0.986186
0.517342
1.42583
1.32466
0.54348
0.814133
0.379289
3.20533
0.26464
0.140886
-3.05065
3.07158
1.29831
-0.502724
-4.26989
0.941429
0.791764
1.27109
1.29183
-0.845321
-3.21816
0.710833
0.782174
0.456083
0.791803
-4.0822
0.464191
0.962489
0.863253
0.822731
-3.97308
-0.106641
0.851315
0.904702
1.03436
1.08199
0.845081
0.844183
1.09746
0.461855
0.752286
0.677638
-0.0328913
2.20268
0.250027
0.000475186
0.542451
-31.92
0.187644
0.309238
0.723786
0.519448
0.638328
-1.36793
0.299138
0.677173
0.524893
0.283727
-2.13436
-27.9374
-30.3362
0.607116
0.650608
0.617498
0.426912
1.16228
0.740093
1.09442
-1.44905
-33.5922
0.741742
0.727044
1.21572
0.411254
0.3558
0.468765
0.237413
0.286984
0.473475
0.730175
0.57878
0.485467
0.514173
0.379797
0.466824
0.425151
0.463542
0.480528
0.454843
0.55151
0.45752
-18.419
0.733539
-3.15389
0.614844
0.648823
0.579974
0.215405
-22.2988
-23.0651
-32.6007
-35.524
-36.5838
-6.37814
-44.7851
-32.1186
-33.7886
-31.2038
-3.08712
-2.33789
-1.02961
-32.7292
-31.1946
-1.97681
0.534995
-8.45926
-30.9486
0.706639
-2.91106
0.447925
0.573965
0.628157
0.415543
0.232647
0.528972
-0.541309
0.404556
0.661356
0.723279
0.451989
1.32575
0.709977
0.524833
0.425935
0.307534
0.611861
0.562745
0.385419
1.04391
0.379783
0.582408
0.260844
1.02985
0.452134
0.0357946
0.488127
0.296199
0.641753
-11.9302
-1.14247
0.757187
0.339462
0.474506
0.774578
0.785446
0.673063
-30.0485
-30.245
1.36077
0.199337
1.01937
0.717349
0.489576
0.639659
0.560919
0.622607
-5.79839
0.781893
0.96538
1.03795
-0.442167
0.920345
1.04
0.783352
0.741049
0.839438
2.2415
-0.199231
0.79979
0.656243
0.276847
0.745475
-0.484759
-0.981174
-5.98924
-6.00211
0.778266
-1.13417
0.692996
0.599314
0.569041
-0.214011
-0.0807228
-7.37324
0.50582
0.503107
0.429887
0.58792
0.556847
0.464599
1.06884
0.683255
0.337463
-0.04323
-0.138807
-32.4743
0.269502
-0.220776
0.41053
0.976407
0.252018
-1.19928
-0.88826
-20.2214
0.467266
-2.40294
0.224206
-1.2086
-2.12163
-2.65115
0.400462
-0.921343
0.639528
-0.218878
-0.123092
0.438019
0.278116
0.443436
-2.17359
-5.17591
0.656095
0.413422
0.162224
0.248578
-1.29427
-2.7073
-3.08597
-0.321506
-1.22326
-1.87431
-0.136462
0.0691321
-4.89631
0.780848
1.56243
0.477811
0.476321
-0.0830716
0.359977
1.13671
0.6942
0.722165
0.534449
1.14889
0.735518
0.445675
0.441224
0.811128
0.642854
0.537641
-9.86004
-10.2305
1.57003
1.02369
0.948136
0.714431
0.790504
0.886565
0.22334
0.278069
0.454999
0.395421
0.479117
0.800834
0.928326
0.941045
0.786303
-0.799719
0.879289
1.10589
-1.47172
0.421928
0.59456
-31.3672
0.782489
-0.0752611
-5.37718
-0.662701
-0.59442
0.658745
1.08447
0.731872
0.860841
1.14924
-1.06647
0.774814
0.71908
0.803581
0.94423
0.623448
0.377507
0.191291
0.530909
0.770423
0.311081
-30.1429
-31.4887
-31.5919
-32.5128
-30.4541
-41.3052
-31.2195
-31.1841
-30.4109
-31.0833
-31.0409
-30.7054
-30.0903
-30.656
-31.025
-31.5722
-30.6786
-31.0616
-30.0295
-29.952
-31.232
-31.2321
-33.0516
-30.8962
-31.5956
-30.9071
-31.3513
-1.8874
-1.48892
-0.475579
0.499749
0.196902
0.396425
0.60327
0.227287
-1.49673
0.197462
0.414628
0.558178
0.344173
-0.310255
-0.0045741
0.119176
-0.338262
-1.39243
-1.12022
-22.4499
0.179509
0.0938976
0.322834
0.709702
0.570785
0.50617
0.328795
0.389618
0.472773
-9.48298
0.312123
-1.91876
-3.55474
0.927416
0.396714
-8.47352
-4.96907
-0.811002
-2.2287
-0.487803
-0.0191655
-0.510776
-4.60259
-10.805
-3.44182
-10.1883
0.662349
-0.801525
0.58865
0.0267936
-0.560799
-2.56538
-32.5447
-0.849563
-0.3166
-1.74946
-3.41985
-4.51663
-6.19787
-17.356
-0.587093
0.963672
-18.5361
-1.54238
0.536662
0.52034
0.468066
0.453524
-31.5613
0.671483
-30.9564
0.967056
-38.2209
-42.022
-39.0989
-39.9459
-39.9483
-25.7833
-24.4813
-28.5762
-27.5179
0.47909
-2.33185
-2.29543
0.508925
0.15649
0.816168
0.92364
0.674825
0.306574
1.10946
1.8205
-0.566253
-0.489033
0.416194
-0.355113
-1.51016
-30.9071
1.88314
-3.96026
-34.8491
-31.5887
-34.2689
0.825638
0.363411
0.917655
-35.752
0.616439
-33.3444
0.64687
-5.65989
-15.1685
-2.67263
-13.2221
-31.1672
-31.6438
-12.519
-1.65218
-3.10001
-12.0652
-24.5521
-15.9781
-30.5985
-30.3955
-30.3528
-29.9835
0.18685
0.243983
1.65229
-1.84227
-13.9859
-37.5523
-39.8226
0.243966
-39.3946
-30.4145
-24.5743
-36.4643
-11.4927
-41.3876
-20.9711
-19.5756
-28.5768
-36.3178
-33.4597
-30.5188
0.823846
2.01246
-18.9082
-2.17047
-17.9161
-1.35266
-2.51691
-8.42945
0.962203
-0.763178
0.10402
-0.495522
1.20626
-5.38031
-4.38856
-2.98345
-2.78166
-26.4948
-4.45655
-4.80121
-6.22065
-1.45122
-3.23866
-9.90678
-10.7171
-5.76711
-3.2509
0.132101
-3.67408
-4.0977
1.20564
-5.84715
-2.1446
0.0776274
0.161754
0.120803
-1.13154
0.556759
0.066394
0.292291
-1.56083
-2.3947
-0.544246
-0.687588
-1.43179
-0.8535
-6.92304
-1.6185
-45.2988
-3.19535
-5.43855
-0.816972
-0.417786
-0.157174
0.886271
-1.13351
-16.7865
-3.62247
-2.46719
-3.03734
-1.68397
-1.78748
-1.83311
-3.02367
-2.09038
-2.90949
-2.19999
-2.47591
-1.21322
-1.64547
-1.41086
-2.16113
-1.76526
-0.340662
-0.62296
-0.772941
1.0422
1.05772
-0.472438
-0.301399
-0.477799
0.230007
-26.1119
0.758435
0.601392
-1.71163
-33.6642
-3.36253
0.522193
2.02633
-32.1456
-30.8762
-33.5061
-39.5604
-32.2989
-30.4167
-31.1595
-4.36793
-30.6351
-32.7239
-1.87227
-1.51027
-1.80772
-2.87104
-0.500548
-1.4946
0.393228
-2.25652
-2.27614
-1.12013
-0.82835
0.0864247
-0.630645
-33.8932
-30.9209
-30.7624
-30.6307
-35.6014
-28.4627
-0.695985
-37.8407
1.07308
-6.00499
-35.6153
0.402717
-17.9609
-30.7338
-22.7564
-30.5843
-31.0494
-29.7343
-35.1549
-32.9423
-33.8122
-32.9028
0.434438
0.28588
1.6727
-0.0528455
0.333023
-0.0770291
0.408799
0.479756
0.485259
0.703241
0.505406
1.83958
0.617986
0.329643
0.573043
0.0860878
0.862327
0.838696
0.689809
0.663997
0.710609
0.578199
0.650141
0.761443
1.16378
0.704625
-32.2738
0.161449
0.675373
0.924373
-0.277677
0.507625
0.164969
0.381564
0.4763
0.479783
0.455905
0.499109
0.613615
0.945627
0.753733
1.0111
0.755234
0.87787
0.855477
0.675838
0.60605
1.2042
0.444095
1.0784
0.654873
0.632216
0.862752
0.8744
0.093778
1.16501
0.240794
1.08346
1.67447
1.48689
0.654912
1.19842
0.399272
0.892588
-10.4656
-28.7092
-0.189727
-0.765544
-26.9116
-36.5353
-7.80648
-26.4181
-35.2297
-36.484
-29.1268
0.528056
-1.16903
0.235561
-1.36826
-1.17057
-1.20958
-2.08146
0.503024
-0.244927
-0.353916
-0.0731614
-0.929005
-0.875598
-0.902641
-0.759129
0.371083
0.0818374
-1.93651
0.738763
0.53589
0.526563
-0.649746
-0.401821
-7.71875
0.448861
0.380049
0.391241
0.373596
-0.464073
-0.423971
-2.89321
-1.518
0.251699
-2.01018
-0.267016
0.956052
-2.30765
1.1115
0.610214
0.74048
1.259
0.403907
0.83399
1.68801
0.758777
0.489026
0.606877
0.34769
-0.161877
1.82009
0.913157
-0.0346432
0.326571
0.288567
0.882459
-1.35527
-0.95159
-29.8662
-31.7239
-30.1532
-1.50771
-1.03739
0.696565
1.19965
0.526162
-0.644975
-4.40874
-3.43578
-0.346729
0.669157
0.631228
0.742858
0.776168
0.778826
0.550431
0.444211
0.100161
-6.95589
0.832386
0.753007
0.490962
-0.117816
0.733997
0.142906
0.316528
0.556707
-5.40284
1.2197
0.680054
-2.39669
0.935098
0.18101
0.225717
0.230642
0.43185
0.317839
0.262623
0.390657
0.458479
0.539634
0.373192
-0.324283
-1.04349
1.68227
1.55459
0.414038
1.65311
0.314779
0.483021
1.17831
1.31993
0.971536
-1.14643
0.374031
0.554556
0.307066
0.633931
0.461954
0.615876
-0.311947
0.59985
0.690606
0.790438
0.805951
0.813686
-1.33774
0.727735
-0.862803
0.530117
0.728019
-30.3988
-30.7953
-30.3584
-32.3041
0.191603
-30.5294
1.20875
0.824206
0.442185
-31.0464
0.996789
0.906362
0.629339
1.00952
1.01223
0.517774
-28.975
-29.2862
-28.1979
-30.6165
0.527471
-0.296029
0.649402
-5.06261
-2.78667
0.851836
0.314988
1.05961
1.23817
0.557096
0.593955
1.30341
0.219144
0.428584
-1.29806
2.18148
0.712726
-2.14404
1.06038
-5.29506
-2.11519
-43.1591
0.567894
1.17696
0.699118
-65.6692
-35.5144
1.02344
1.13418
-31.4238
-31.0579
-30.3616
1.54158
1.2641
-34.3138
-16.113
-15.9672
-20.6823
-18.0378
0.814825
-36.6099
0.503885
0.947451
0.115809
1.58845
1.06978
0.720651
-0.143881
-30.6358
1.07477
-32.8422
-0.561284
-0.444177
-1.27837
-7.54146
-3.37731
0.553725
0.695321
0.639239
0.501226
0.36543
0.208496
0.26876
0.415975
-1.01062
-0.660878
0.348271
0.477293
0.32829
-0.0044823
0.352234
0.885047
0.788468
0.901074
0.715271
0.568992
-3.32798
0.60288
0.555391
0.211211
0.880277
0.732578
-2.51814
-19.233
0.714428
-15.6826
1.11863
0.889359
1.0943
0.849853
-3.25232
-12.6531
0.780138
0.801257
0.683189
0.881655
0.76553
0.887227
1.04509
0.574424
0.0854823
0.984314
-6.5332
-24.1497
-23.843
-11.8438
-16.0242
-1.5384
-0.680724
-2.00221
-2.97213
1.13769
-5.23451
-0.955402
-3.98574
0.397394
-16.9442
-15.7938
-27.9508
-21.4583
-4.73522
-8.4913
1.81946
-1.11398
-36.9021
-35.1835
-5.72448
-2.0573
-0.887892
-0.670818
-14.7588
-8.51234
1.1506
0.42944
-1.35865
-2.0591
0.172305
0.749898
0.53563
0.549752
1.18496
0.417693
1.01658
-0.367468
0.384269
-0.327778
0.8367
0.647953
0.428651
0.81643
0.753086
1.30267
-30.7922
-27.2379
-3.08335
1.58528
0.497771
1.73922
-18.1763
-30.6852
1.65382
-3.73146
-24.0586
-4.28201
-26.413
-36.634
-10.47
-14.4693
-29.7818
1.59663
-30.9125
-32.5964
-3.97524
-6.26974
-0.0409452
0.461458
-2.13551
-1.64531
-8.36877
-1.91254
0.82034
2.64238
-3.62616
-3.51409
-4.63198
-1.47189
0.335454
-36.6109
-31.9854
-35.1649
-36.6261
-28.6364
-31.1371
0.817361
2.1895
-0.859615
-16.2516
-25.7163
-33.9561
-11.2737
-25.4954
-30.785
-35.8377
-31.2658
-2.58265
-46.9595
-36.2293
-17.0151
-2.59076
-3.58859
-31.7172
-6.87433
-1.80663
0.287649
-0.140127
-1.71872
-1.83628
-0.168684
-0.547045
0.259244
-3.12135
1.02507
0.848388
-11.5916
-2.47912
0.648781
-0.524794
-30.6324
0.820966
-0.770824
-1.46801
-0.316921
-4.29655
-1.39626
-1.60307
0.190666
-31.4404
0.320129
-1.28045
-0.670614
-0.882053
-1.25469
-0.973394
0.563721
1.16937
-0.431804
0.250284
-2.02772
-1.91861
-1.33738
-2.24243
-0.584193
-1.71501
-1.58828
0.521774
0.454585
0.413939
0.671609
0.485501
0.368
-32.3448
-33.1231
-32.2006
-1.54864
-42.9228
-36.8426
-3.5967
-14.711
-36.3799
-32.1843
-35.877
-37.7963
-30.4904
-31.3592
-30.6342
-30.8466
-30.6278
-27.8907
-26.1813
-36.4351
-41.7297
-0.097344
-41.7165
-2.78226
-1.9422
-1.74683
-2.52029
-2.31064
-2.53311
-2.58403
-1.65128
-1.28047
-1.32751
-0.798808
-36.192
-35.4993
-30.0342
-0.520646
-3.28531
-6.21036
-0.750296
-0.965904
-0.52011
-1.06797
-5.739
-7.20716
-8.18682
-0.0286388
-26.4428
-33.528
-39.6421
-1.90363
-1.88123
-0.472796
-40.1344
0.497094
0.33443
0.560567
1.01732
1.80313
-0.10719
0.562746
0.444332
1.32069
0.483967
0.435363
0.3753
0.481819
0.486428
0.646572
0.417223
0.709672
0.473936
-0.300683
0.232194
0.217883
0.460795
0.549475
0.463796
0.579172
0.632465
-1.992
0.953418
0.753658
0.564224
0.552084
-2.93892
0.638471
0.820804
0.750692
2.03499
0.243073
-4.27114
-2.82384
0.618981
-0.834275
0.546424
0.381358
0.0608175
-1.63495
-0.501461
0.932867
-2.28997
0.987653
0.737065
1.3168
-20.4593
-0.0400463
1.57457
-0.307185
1.06424
1.4748
1.00624
0.484422
0.486155
0.54387
0.728997
0.340439
0.344024
0.281881
0.321658
0.445741
0.483175
-8.53858
0.515497
0.803678
0.823604
0.0943094
0.441963
-0.223206
-0.817541
-1.60331
0.709744
-15.5626
-9.45722
0.421778
-1.10175
-1.62184
-0.568203
0.0840088
-0.0592377
0.906116
1.40497
0.911055
-0.0128484
0.304235
-3.85686
-1.418
-0.969483
-1.41712
-4.78622
-0.184735
0.290591
0.309967
0.517225
0.462662
0.564851
-0.0568088
0.688631
0.796861
0.294907
1.09209
-5.94265
-4.19557
0.239363
-0.0455403
-0.106097
0.191765
0.280573
0.198009
0.67976
0.542707
0.511531
-0.00744833
-4.8043
0.311756
0.90159
0.416142
0.0365376
0.928716
1.07387
0.926067
0.699919
0.707285
0.740213
0.809713
0.667507
0.668286
0.439423
0.426847
0.84305
0.0898893
0.163963
0.47176
0.863726
0.388269
0.493174
-1.78764
-2.19753
0.28952
-1.2033
-1.3869
-1.52419
-1.41342
0.940176
0.451432
0.33643
0.525687
0.52727
0.303792
-1.02712
0.65937
-0.409296
-1.44768
-0.013801
-9.27412
-0.0347216
0.197063
-1.03871
-2.02339
-2.00073
0.892019
0.786455
0.847842
0.848589
0.971104
0.61466
0.833336
-8.33263
-0.0106501
-3.01315
-6.73695
-0.237773
-0.176728
-40.006
-40.6931
-30.4821
0.398783
0.370079
-30.715
0.293
-29.5253
-36.6027
-6.90355
-30.6745
0.951501
1.18884
-15.9637
-4.04215
0.77156
0.876142
0.655854
-3.14802
-0.466595
0.386551
0.376832
0.467317
0.397106
-0.262023
-0.554454
-28.8197
-0.704447
-1.94765
-1.95077
-31.9645
-33.0306
-20.2181
-31.0838
-32.3471
-1.92884
-32.9112
0.25775
-0.464568
-30.315
-32.047
-30.9324
-30.8294
-0.286491
-0.646819
-0.230513
-0.78062
-0.390336
0.388608
0.241551
0.607015
0.0709461
0.429345
0.485228
0.549398
0.395034
-1.64079
-4.08104
0.518088
0.308978
-29.0849
-0.74921
0.0440849
0.536953
0.305266
0.598523
-0.42728
0.949848
1.2981
0.511331
1.40296
-30.7544
0.356067
-31.1633
-8.63453
-17.3512
-30.6482
-31.0955
0.800359
-31.004
-1.56934
0.619278
-33.3674
0.622675
0.468045
0.632583
0.496312
0.381007
0.381875
-0.0247168
0.425365
-3.40176
-32.2422
-31.8997
-31.0191
-30.8623
1.96537
-11.7614
-10.1089
-2.38999
-0.106438
-30.1934
-0.202843
-2.05539
-9.39888
-17.81