/*--------------------------------*- C++ -*----------------------------------*\
| =========                 |                                                 |
| \\      /  F ield         | OpenFOAM: The Open Source CFD Toolbox           |
|  \\    /   O peration     | Version:  2506                                  |
|   \\  /    A nd           | Website:  www.openfoam.com                      |
|    \\/     M anipulation  |                                                 |
\*---------------------------------------------------------------------------*/
FoamFile
{
    version     2.0;
    format      ascii;
    arch        "LSB;label=32;scalar=64";
    class       volScalarField;
    location    "0.0563527";
    object      k;
}
// * * * * * * * * * * * * * * * * * * * * * * * * * * * * * * * * * * * * * //

dimensions      [0 2 -2 0 0 0 0];

internalField   nonuniform List<scalar> 
3946
(
0.310048
0.343309
0.31512
0.32409
0.366492
0.470732
0.355427
0.313808
0.373376
0.311371
0.317691
0.308128
0.538187
0.382891
0.367777
0.308977
0.315425
0.312045
0.323511
0.365044
0.354149
0.324656
0.328959
0.355722
0.334562
0.330917
0.358359
0.354958
0.306755
0.30668
0.337692
0.310293
0.317309
0.315698
0.354407
0.308028
0.36745
0.341047
0.350001
0.344017
0.310202
0.309746
0.333367
0.328518
0.352792
0.309723
0.311683
0.359539
0.338972
0.328314
0.314127
0.353438
0.308971
0.310618
0.314038
0.319541
0.303024
0.314123
0.348496
0.317295
0.322984
0.285318
0.314189
0.326501
0.320209
0.236415
0.331884
0.216942
0.235396
0.377244
0.313536
0.360246
0.791528
0.31138
0.564881
0.320293
0.306374
0.333507
0.308821
0.339848
0.282828
0.343078
0.311743
0.352803
0.330071
0.477018
0.589128
0.308714
0.312774
0.32624
1.25833
0.489178
0.306972
0.373726
0.394602
0.37564
0.37069
0.334806
0.33288
0.312943
0.336923
0.355696
0.353694
2.66852
0.364223
0.372408
1.33907
0.355796
0.3599
0.385286
0.416456
0.362535
0.31963
0.402712
0.383141
0.326463
0.476641
0.311175
0.342297
0.386962
0.359774
0.344803
0.314797
0.499997
0.308141
0.360374
1.00625
0.416032
0.358872
0.322716
0.355403
0.927555
0.321702
0.336957
0.348159
0.949575
0.350591
0.921076
0.33049
1.94565
0.764589
0.968813
0.55397
0.309575
0.374418
0.35787
0.331039
0.332417
0.360275
0.324955
0.366677
0.379586
0.366704
0.308924
0.327793
0.312735
0.313411
0.318988
0.313512
0.322381
0.316054
0.334868
0.6283
0.343992
0.318238
0.347633
0.335004
0.353949
0.36116
1.3101
0.360563
1.25283
0.343278
0.37535
0.30954
0.302436
0.327638
0.312958
0.393772
0.368663
0.312541
0.316753
0.314555
0.308073
0.362823
0.370339
0.359869
0.309782
0.328686
0.334523
0.645862
0.336596
0.463462
0.343302
0.350056
0.331765
0.303207
0.32702
0.33288
0.311157
0.311616
0.342308
0.31561
0.314353
0.324867
0.368126
0.338698
0.338568
0.338003
0.375935
0.362196
0.350933
0.464679
0.481982
0.745828
0.399569
0.435541
0.359079
0.338642
0.329853
0.442834
0.252021
0.358309
0.32229
0.305966
0.233552
0.222724
0.523224
0.36647
0.201119
0.34478
0.322291
0.34037
0.537014
0.308064
0.394539
0.324383
0.362244
0.405884
0.328071
0.31195
0.374554
0.414924
1.41455
0.348343
0.325389
0.380924
0.353821
0.310864
0.356139
0.32914
1.72698
0.361903
0.40301
0.353321
0.330264
0.334944
0.308895
0.361155
0.345214
1.1323
0.459984
0.704715
0.35633
0.389262
0.328353
0.357351
0.354937
0.39314
0.31808
0.369114
0.377952
0.331515
0.313037
0.318156
0.319062
0.317302
0.367273
0.380689
0.377093
0.383785
0.35763
0.349488
0.363809
0.34719
0.379089
0.365049
0.3419
0.375698
0.358512
0.376478
0.358862
0.363126
0.338878
0.314012
0.37285
0.367241
0.374092
0.36892
0.233034
0.323575
0.245076
0.230631
0.309723
0.360981
0.314708
1.78346
1.25711
0.349444
0.49325
0.699842
0.296352
0.319622
0.282492
0.308808
0.812828
0.362666
0.373922
0.354651
1.57018
0.355926
1.11641
0.348872
0.364337
0.327489
0.356317
0.308489
0.394114
0.549659
0.368404
0.357941
0.312287
0.322997
1.17031
0.93361
0.311391
0.385334
0.653945
0.259391
0.527039
0.367651
0.412637
0.41371
0.301682
0.993333
0.675166
0.42289
0.419861
1.47641
0.848249
0.42857
0.554755
0.662434
0.471163
0.517037
0.20147
3.053
0.325127
1.45981
0.249856
1.10646
0.456309
0.31726
0.354211
0.882116
0.944963
0.457832
0.673991
0.819353
0.675676
0.608634
0.775525
0.339364
0.465275
0.323508
0.470386
0.381419
0.317061
0.480049
1.58485
0.313532
0.350749
0.303198
0.346776
0.399633
0.310308
0.744691
0.464488
0.733346
0.330801
1.30978
0.316751
0.310706
0.73402
0.374045
0.374846
0.306788
0.662393
0.745911
0.319501
0.457487
0.321441
0.301474
0.329408
0.311669
0.309073
0.963595
0.417302
0.372799
0.314877
1.07564
0.366992
0.605436
0.308466
0.312845
0.304045
0.309944
0.350236
1.4972
0.367096
0.319249
1.37712
0.312573
1.70896
0.316355
0.347966
0.378523
0.341973
0.308863
0.31033
0.352616
0.52005
0.311437
0.321984
0.408003
0.359562
0.351454
0.341748
0.315541
0.334279
0.343135
0.341572
0.343706
0.329445
0.340269
0.79033
1.52227
0.580864
0.342234
0.30907
0.327063
0.326461
0.323775
0.31186
0.340376
0.322407
0.31888
0.331261
0.349009
0.33377
0.521391
0.384809
0.300728
0.847445
1.30537
1.65337
0.33727
0.4919
1.28963
0.463175
0.616792
1.1203
0.363803
0.316619
0.311925
0.315021
0.591504
0.32062
0.343738
0.346918
0.701465
1.04384
0.996471
0.441147
0.363758
0.313097
0.380235
0.309257
0.386085
0.421075
0.483787
0.339996
0.467254
0.319332
0.334822
0.377648
0.31097
0.30708
0.348517
0.36582
0.319885
0.302973
0.348948
0.333558
0.338277
0.317809
0.315992
1.54895
0.30876
0.324081
0.345627
0.574278
0.31354
0.70551
0.372211
1.47058
0.472722
0.55684
0.31313
0.341073
0.327428
0.309312
0.355056
0.30967
0.316398
0.314159
0.348649
0.373956
0.555646
2.21218
0.895016
1.81109
0.313535
0.992273
0.502019
2.20297
0.327229
0.318174
0.393021
0.310232
0.306203
0.310916
0.360261
0.316011
0.30962
0.318255
0.361391
0.314451
0.369782
0.32284
0.308713
0.307354
0.334598
0.311325
0.308634
0.31945
0.307547
0.297161
0.32687
0.347085
0.314277
0.348224
0.511148
0.309555
0.312941
0.312144
0.769086
0.330021
0.308247
1.28627
0.327863
0.310157
0.308869
0.310409
0.330245
0.319498
0.312701
0.31209
0.310182
0.31826
0.320993
0.314158
0.332657
0.345273
0.365452
0.315771
0.311693
0.315769
0.352543
0.316318
0.31485
0.310954
0.33601
0.313376
0.313239
0.419553
0.31138
0.369573
0.310136
0.41557
0.310367
0.346015
0.333523
0.638879
0.337531
0.34541
0.319774
0.310546
0.303599
0.312107
0.333767
0.510929
0.370721
0.363424
0.63486
0.339306
0.311763
0.311538
0.371316
0.329622
0.384877
1.30162
1.16586
0.919317
0.342304
0.338215
0.345809
0.306627
0.372248
0.320283
0.328244
0.378109
0.609705
0.646988
1.48261
1.07646
0.312008
0.880524
0.304392
0.637231
0.37872
0.557202
0.310832
0.313309
0.31184
0.318859
0.311748
0.690445
0.311173
0.373223
0.313598
0.337424
0.328468
0.344461
0.395043
0.341336
0.343845
0.310203
0.338367
0.319777
0.333279
0.341171
0.34317
0.309112
0.361705
0.370754
0.404932
0.375075
0.310427
0.351733
0.328144
0.323898
0.308198
0.595207
0.571152
0.460296
0.309428
0.428922
0.365252
0.317275
1.01006
0.561514
0.310113
0.504009
0.369439
0.362471
0.370347
0.481114
0.412089
0.328438
0.318124
0.324694
0.321475
0.340461
0.318002
0.320857
0.741334
1.27865
0.343876
2.16484
1.81495
0.371207
0.394156
0.345968
0.31198
0.309437
0.352966
0.334819
0.348272
0.30741
0.370263
0.533099
0.348789
0.31264
0.360745
0.355314
0.314894
0.337073
0.343235
0.370221
0.369837
0.322632
0.316375
0.310051
0.347737
0.309088
0.375747
0.396205
0.366001
0.324238
0.311389
0.332321
0.309048
0.350021
0.384508
0.337648
0.316798
0.388615
0.308277
0.318499
0.340828
0.310252
0.308659
0.385651
0.365603
0.309894
0.375159
0.306456
0.375788
0.704956
0.400454
0.804627
0.316328
1.28625
1.03014
1.54809
0.905692
0.360675
0.52315
0.567462
0.775475
1.83972
0.405847
0.311171
0.338483
0.310693
0.282237
0.393338
0.44733
0.539249
0.495218
0.384411
0.360862
0.848769
0.377738
0.914756
0.355198
0.516231
0.843254
0.384001
0.319499
0.313865
0.36734
0.334035
0.308855
0.312716
0.302023
0.361524
0.367507
0.310868
0.908473
0.340307
0.329589
0.375269
0.32719
0.424352
0.313044
0.339978
0.333846
0.354066
0.415807
0.300872
0.335165
0.335685
0.447825
0.309533
0.330635
0.528452
0.609613
0.363178
0.319601
0.311095
0.697204
0.373313
0.366906
0.320249
0.370656
1.25998
1.39747
0.806383
1.48705
0.347844
0.338851
0.31315
0.341583
0.411447
0.393694
0.482134
0.535122
0.394161
0.390212
0.315154
0.31765
0.34142
0.375968
0.309214
0.383544
0.349456
0.36326
0.366546
1.27235
0.356929
0.313427
0.805057
0.346484
1.03864
0.423824
1.01815
0.975732
0.347428
1.27783
0.724493
0.83587
0.511574
0.383505
0.717674
0.634882
0.876712
0.471957
0.328602
0.386291
0.379225
0.413459
0.31777
0.370548
0.369288
0.337592
0.403594
0.555168
0.310922
0.312016
0.320946
0.901514
0.794184
0.351026
0.397199
0.486331
0.354804
0.31388
0.311647
0.308308
0.31011
0.345915
0.309184
0.342182
0.415059
0.33737
0.331457
0.348035
0.334231
0.326016
0.356898
0.309613
0.332478
0.315436
0.425626
0.313628
0.319894
0.590133
0.80315
0.522605
0.362072
0.316775
0.307235
0.309551
0.353565
0.332166
0.696302
1.17894
0.348787
1.55819
0.356045
0.380543
0.946754
0.411297
0.613765
0.562584
0.687807
0.34058
0.460547
1.12329
1.00566
0.384135
0.346449
0.31297
0.303254
1.08729
0.307379
0.305511
0.341658
1.68062
0.301202
0.77669
1.52499
1.67372
0.33255
0.463211
1.02552
1.51661
0.463818
0.979008
0.831075
0.661007
2.25117
0.412951
0.415473
0.351167
0.90104
0.40301
0.703459
0.713727
0.434296
2.10461
0.677956
0.794602
0.31262
0.988371
0.655842
0.355679
0.318575
0.344243
1.27339
0.794947
0.321748
0.418821
0.494974
0.366733
0.33799
0.396196
1.12509
0.785596
0.392116
0.500381
0.350762
1.02104
0.985636
1.5901
1.15938
1.25864
1.20885
0.309769
0.825285
0.323201
0.709877
0.643425
0.365032
0.809987
0.611087
1.38297
0.313551
0.318079
0.333041
0.362765
0.308488
0.760333
0.757835
0.312141
0.341804
0.342982
0.300059
0.403032
0.327193
0.331918
0.331784
0.328214
0.317848
0.365902
0.304411
0.744609
0.747733
0.310776
0.383313
0.34533
0.342213
0.315825
0.39397
0.313788
0.317277
0.324946
0.310927
0.643686
0.349647
0.414688
0.400912
0.349977
0.603046
0.379972
0.370659
0.321227
0.378891
0.364715
0.32496
0.312334
0.311512
0.311292
0.472984
0.496634
0.421752
0.383807
0.314985
0.347594
0.564756
0.327765
0.331777
0.314291
0.32969
0.818878
1.38282
0.367519
0.41058
0.514518
0.729827
0.837974
0.349538
0.852241
0.646383
1.65766
0.403897
0.349849
0.311214
0.347253
0.3258
0.319576
0.94718
1.76618
0.330206
0.33573
0.33733
0.325616
0.314453
0.332336
0.333127
0.347969
0.412285
0.3424
0.333472
0.356636
0.312238
0.420079
0.411044
0.317928
1.29041
0.316711
0.314218
0.755003
0.313848
0.313585
0.30674
0.334569
0.344367
0.312345
0.310806
0.312434
0.313866
0.309621
0.314285
0.308115
0.320072
0.305516
1.07439
0.705702
1.4053
0.311841
0.602615
0.335049
0.319145
0.311488
0.312683
0.314472
0.312427
0.480369
0.383229
0.305202
0.311179
0.312122
0.355994
0.451546
1.18229
0.729455
0.629839
1.47741
0.317329
0.549092
0.312138
0.313806
0.315475
0.310305
0.312407
0.310992
0.402578
0.304048
0.346076
0.313612
0.310055
0.329657
0.310997
0.316469
0.38403
0.322892
0.310327
0.310995
1.57188
0.368843
0.911586
0.848098
0.377082
0.441079
0.309216
0.358603
0.343147
0.358336
0.311377
0.310935
0.320247
0.321943
0.34378
0.307457
0.347587
0.441273
0.308401
0.307636
0.31327
0.311773
0.31264
0.364131
0.31068
0.332841
0.308713
0.335836
0.322631
0.335484
0.311676
0.309258
0.321379
0.308168
0.308899
0.309635
0.340941
0.309986
0.32963
0.334201
0.305831
0.315827
0.316548
0.317076
0.324213
0.308977
0.312106
0.311845
0.314517
0.307407
0.304061
0.310667
0.311982
0.334483
0.311696
0.344433
0.312068
0.367731
0.310302
0.31189
0.340343
0.314887
0.324786
0.475582
0.327612
0.371727
0.317309
0.314286
0.326682
0.310658
0.348735
0.33042
0.356597
0.334346
0.311546
0.309787
0.333711
0.313889
0.313647
0.368972
0.313098
0.342346
0.310668
0.308358
0.378414
0.343216
0.308247
0.328099
0.319038
0.332836
0.349151
0.324567
0.312421
1.75262
0.311333
0.308911
0.309736
0.323692
0.322189
0.355181
0.309836
0.314839
0.309466
0.306097
0.30348
0.304036
0.344245
0.310763
0.345915
0.354118
0.345747
0.363954
0.356869
0.373187
0.310293
0.360032
0.310622
0.314117
0.309636
0.30954
0.309599
0.309701
0.721179
0.312284
0.311176
0.311273
0.342796
0.341455
0.344047
0.332765
0.31018
0.310617
0.310284
0.380047
0.312184
0.301479
0.306025
0.315683
0.325393
0.344221
0.34751
0.314959
0.332299
0.376954
0.341614
0.350715
0.313147
0.331641
0.310377
0.312638
0.344309
0.301386
0.441622
0.310079
0.715277
0.677838
0.310551
0.309823
0.312472
0.373801
0.40024
0.310763
0.510775
0.364807
0.382152
0.380991
0.358584
0.416366
0.348562
0.308073
0.314814
0.384832
0.308877
0.349825
0.310993
0.324132
0.346622
0.30792
0.53465
2.04767
0.3731
0.325756
0.413097
0.33708
0.361595
0.312079
0.313798
0.310729
0.336253
0.312733
0.315881
0.363228
0.364486
1.6281
0.347742
0.32479
0.328407
0.363065
0.31385
0.315964
0.311305
0.311325
0.310386
0.352346
0.310318
0.360276
0.692686
0.360011
0.339826
0.317951
0.312317
0.322875
0.324521
0.338568
0.383172
0.352459
0.31018
0.318992
0.369748
0.310801
0.355233
0.311422
0.388335
0.346984
0.224333
0.308459
0.244016
0.316334
0.312197
0.312897
0.383842
0.359848
0.319988
0.310975
0.363607
0.316928
0.321267
1.50395
0.312975
0.352488
0.311069
0.312331
0.42069
0.355328
0.308937
0.347246
0.337286
0.33412
0.315456
0.321802
0.447114
0.322379
0.334548
0.326279
0.405776
0.409722
0.342939
0.328672
0.378828
0.327137
0.353786
0.316949
0.354275
0.315426
0.349273
0.309006
0.309587
0.310903
0.311066
0.317619
0.354336
0.325683
0.319581
0.3092
0.314843
0.339526
0.309499
0.339126
0.319946
0.352021
1.91855
0.345798
0.313246
0.325578
0.312386
0.321401
0.325735
0.382741
0.30843
0.427854
0.310152
0.313752
0.338225
0.678844
0.33544
1.28533
0.533531
1.13421
0.937085
0.763214
0.323558
0.360142
1.13618
0.648931
0.311311
0.598271
0.515722
0.613504
0.310962
0.355191
0.503742
0.81812
0.63143
1.50315
0.412687
0.61442
0.310463
0.858282
0.355939
0.827221
0.320671
0.310108
0.310857
1.62522
0.311913
0.548681
0.336823
0.311901
0.650514
0.314271
0.473164
0.325403
0.466514
0.359294
0.324265
0.317976
0.3285
0.333324
0.326519
0.314201
0.497545
0.312941
0.316291
0.331379
0.364652
0.342996
0.308407
0.345913
0.330511
0.321062
0.338145
0.480381
0.319614
0.317186
0.322654
0.830739
0.325047
0.379835
0.58577
0.672007
0.907077
1.78726
0.407121
0.501067
0.308969
0.31537
0.312466
0.344119
0.308784
0.310849
0.346372
0.313773
0.363059
0.314713
0.594669
0.339472
0.303815
0.310928
0.395141
0.311058
0.310184
0.30753
0.314231
0.333877
0.306233
0.880148
0.315132
0.898517
0.31119
0.328085
0.31338
0.315519
0.316418
0.315507
0.310223
0.310729
0.317595
0.318182
0.317087
1.86185
0.313041
0.367906
0.326571
0.318208
0.367683
0.333294
0.306461
0.541665
0.498006
0.370179
0.483582
0.328879
0.335066
0.341548
0.328272
0.324414
0.315843
0.324604
0.318567
0.375321
0.310673
0.334064
0.799873
0.310364
0.304599
0.339604
0.323533
1.47065
0.740334
0.871079
0.368489
0.760692
0.336923
0.310747
0.351797
0.915251
0.565313
0.357497
0.345193
0.307961
0.308678
0.319663
0.31019
0.31961
0.31114
0.320813
0.339561
0.309063
0.323504
0.328911
0.31391
0.325715
0.309787
0.363175
0.334505
0.336199
0.315869
0.311245
0.369768
0.3497
0.332215
0.343634
0.30945
0.350741
0.312865
0.340891
0.309426
0.335328
0.313916
0.308709
0.350667
0.313823
0.317327
0.324097
0.329128
0.319038
0.318314
0.308016
0.380274
0.368937
0.354834
0.338732
0.311403
0.332041
0.344645
0.664773
0.371696
0.345013
0.359345
0.348762
0.357023
0.367348
1.40477
0.312927
0.312657
0.361312
0.313562
0.367347
0.380773
0.348008
0.342902
0.370942
0.348527
0.335345
0.37485
0.366398
0.342859
0.366405
0.34834
0.330773
0.343263
0.353703
0.38662
0.378978
0.391598
0.387647
0.452148
0.394101
0.354974
0.566164
0.445937
0.318476
0.310627
0.408295
0.392674
0.372522
0.310668
0.323756
0.355952
0.650687
0.790703
0.424498
0.308627
0.317872
0.77479
0.760224
0.703076
0.34709
0.715377
0.453604
0.844065
0.668362
0.620697
1.70908
1.11127
0.330697
0.324887
0.36632
0.357691
0.341633
0.504433
0.908342
1.22545
1.5597
0.492232
1.56561
0.841909
0.833104
0.775224
0.772571
0.696341
0.335885
0.318862
0.342904
0.332072
0.322306
0.545499
0.379183
0.767865
0.314664
0.337982
0.335613
0.420039
0.978811
0.914566
2.15587
0.453019
1.04856
0.335478
0.325959
0.3751
0.369193
0.370413
0.331062
0.370059
0.318982
0.310847
0.72756
1.03105
0.34357
0.310487
0.3066
0.317346
0.340137
0.32412
0.324432
0.317038
0.309674
0.366168
0.325142
0.30623
0.339592
0.971586
0.338728
0.307825
0.32615
0.30868
0.344316
0.544622
0.38419
0.376131
0.385359
1.0459
2.05946
0.308483
0.332204
0.478267
0.596192
0.344871
0.353522
0.367788
0.29855
0.819641
0.749645
0.739227
0.48244
0.324942
0.315325
0.930889
0.388365
0.388215
0.500805
0.453292
0.376173
0.427694
0.323982
0.358533
0.352326
0.308943
0.325317
0.379722
0.322337
0.349468
0.465157
0.355107
0.337018
0.345603
0.30372
0.34322
0.353627
0.332488
0.317038
0.335213
0.305183
0.377326
0.311168
0.5484
0.795089
1.48606
0.312113
0.311439
0.310978
0.313746
0.368152
0.36036
0.308381
0.321435
0.316809
0.357339
0.331681
0.310155
0.340057
0.310793
0.31118
0.489132
0.333375
0.316399
0.30809
0.497276
0.458606
0.320804
0.312288
0.339347
0.364152
0.437279
0.476817
0.374913
0.447124
0.312231
0.312217
0.31291
0.313552
0.338654
0.356214
0.312896
0.31146
0.323692
0.352588
0.329168
0.312214
0.315903
0.312487
0.31072
0.30816
0.31722
0.352536
0.359962
0.310973
0.310768
0.409348
0.410915
0.358274
0.311855
0.308694
0.480203
0.384002
0.37666
0.313228
0.312994
0.312955
0.316478
0.309231
0.314231
0.346209
0.336407
0.36226
1.55751
0.533067
0.30988
0.317094
0.311051
0.31097
0.338959
0.349275
0.323853
0.313642
1.03558
0.363203
0.37226
0.352463
0.331538
0.309663
0.319878
0.339632
0.308878
0.309913
0.311165
0.311349
0.308681
0.311049
0.308873
0.308933
0.308303
0.361318
0.311328
0.304101
0.308866
0.309068
0.605623
0.352526
0.337725
0.330984
0.320122
0.31887
0.352178
0.829021
0.751943
0.350301
0.724851
1.65617
1.28884
1.62018
2.12447
0.79926
0.480066
0.340463
0.34507
0.306524
0.59905
0.427389
0.309519
0.355439
0.605685
0.503492
0.30325
0.368574
0.315084
0.311433
0.315049
0.328962
0.304779
0.314044
0.310695
0.310663
0.353591
0.315666
0.327217
0.346736
0.310356
0.35209
0.325106
0.332262
0.30942
0.31309
0.311839
0.316332
0.308299
0.313763
0.311723
0.314228
0.308403
0.405352
0.3552
0.310492
0.307313
0.383902
0.337973
0.319307
0.318515
0.327227
0.419919
0.312405
0.312058
0.297435
0.266062
0.319924
0.320162
0.332304
0.303518
0.306532
0.311597
0.316511
0.349809
0.367559
0.313221
0.358455
0.311255
0.349871
0.313793
0.367215
0.351179
0.312603
0.362977
0.409009
0.341038
0.358618
0.31458
0.438526
0.366571
0.334795
0.547344
0.361765
0.393497
0.313137
0.465722
0.322963
0.306735
0.345298
0.348916
0.370996
0.334806
0.342348
0.312679
0.346014
0.332582
0.324182
0.335235
0.313984
0.349505
0.321538
0.326746
0.380973
0.60456
0.338117
0.311044
0.330943
0.312858
0.313804
0.305564
0.307843
0.516255
0.330493
0.322907
0.321675
0.323281
0.328537
0.305112
0.322941
0.303022
0.310393
0.308246
0.337811
0.376919
0.37195
0.356066
0.308564
0.30414
0.312158
0.326316
0.369568
0.3053
0.30911
0.31496
0.323683
0.331049
0.326312
0.348541
0.325828
0.336389
0.377169
0.307769
0.357699
0.31112
0.307396
0.309506
0.308481
0.315344
0.330117
0.320817
0.361961
0.355071
0.367256
0.348966
0.306506
0.370978
0.352731
0.315952
0.832815
1.25549
0.343716
0.312736
0.312849
0.314977
0.313506
0.313896
0.377184
0.338222
0.311366
0.309202
0.337483
0.363423
0.339263
0.311944
0.351106
0.362011
0.346434
0.335237
0.34557
0.320226
0.314994
0.753549
0.322178
0.352649
1.06005
0.332435
0.350216
0.316103
0.377562
0.347246
0.312386
0.327787
0.3453
0.324274
0.30959
0.317882
0.311392
0.310473
0.520424
0.311107
0.338966
0.35711
0.616249
0.292444
0.506098
0.715528
1.11098
0.271203
0.839985
0.742338
0.849193
0.319431
0.517081
0.397198
0.369651
0.442524
0.595843
0.34554
0.521284
0.308897
0.68691
0.436045
0.238944
0.34536
0.783847
0.907792
0.459668
0.537625
0.498056
0.764829
0.305157
0.306181
0.298743
0.306898
0.312025
0.318265
0.368464
0.325415
0.314192
0.310394
0.325968
0.312592
0.308318
0.349142
0.308965
0.320144
0.311793
0.313696
0.364309
0.969437
0.312809
0.334583
0.328164
0.344575
0.320401
0.32729
0.3423
0.317853
0.32548
0.356167
0.364733
0.375848
0.376544
0.3231
0.335118
0.913189
0.332198
0.415598
0.366504
0.399791
0.3242
0.33939
0.388467
1.24443
0.482952
0.400672
0.310475
0.339871
0.337843
0.321167
0.340408
0.312967
0.742936
0.348854
0.320408
0.349138
0.347164
0.502492
0.391441
0.408931
0.51642
0.666608
0.454842
0.566716
0.340057
0.341576
0.319837
0.334577
0.582863
0.327828
0.483446
0.318768
1.58901
0.964257
1.31156
1.44791
1.71537
1.21641
1.26241
1.18491
0.534455
0.335172
0.349917
0.554549
0.626618
0.309663
0.331739
0.320892
0.316675
0.320841
0.301683
0.376487
0.375437
0.326201
0.359854
0.334966
0.331629
0.363837
0.443447
0.359708
1.47124
0.787013
0.93269
0.357481
0.385825
0.383464
1.08735
0.370842
1.29525
0.312211
0.392896
1.07768
0.336265
0.869769
1.50497
1.06188
0.583973
0.583527
0.429075
0.420316
1.42165
0.34322
0.763967
0.279182
0.462521
0.228402
0.475101
0.310775
0.492018
0.793041
1.83887
2.27703
1.42639
0.309511
0.837186
0.24887
1.79263
0.960074
0.376278
2.50293
1.16465
1.12017
1.34939
1.04404
1.4915
0.408212
0.396845
0.36093
0.598115
0.307828
0.466524
0.314141
0.345205
0.440806
0.745259
0.307011
0.334986
0.468982
0.831792
0.35285
0.345563
0.34817
0.52555
0.504003
0.355791
0.349412
0.40462
0.313791
0.385583
0.494743
1.00043
0.408287
0.342445
0.414084
0.330979
0.353537
0.727523
0.345685
0.312749
0.340632
0.361366
0.366304
0.3546
0.396236
0.344021
0.418802
0.367445
0.316779
0.307747
0.330278
0.319026
0.305885
0.414364
0.311832
1.70192
0.378565
0.353138
0.329689
0.339363
0.307425
0.324404
0.306026
0.804766
0.415358
0.312609
0.312186
0.312165
0.324017
0.386967
0.392482
0.31735
0.326292
0.385287
0.343393
0.331819
0.316836
0.310573
0.315234
0.310061
0.315045
0.345536
0.313647
0.312107
0.360434
0.345496
0.378542
0.312305
0.309826
0.744287
0.346173
0.327513
0.318893
0.526063
0.380214
0.418423
0.378836
0.487815
0.401078
0.738551
0.880771
0.688935
0.461429
1.26265
0.538801
0.57053
0.837372
0.380385
0.470113
0.362646
0.371885
0.545322
0.507186
0.306548
0.319782
0.315498
0.320197
0.325181
0.317735
0.321899
0.757971
0.477705
0.349579
0.279649
0.594318
1.04843
0.43092
1.19175
0.313242
0.389416
1.57926
0.345194
0.614246
0.443483
0.89516
0.502659
1.41942
3.26021
1.18045
1.5157
0.918689
1.00973
0.500574
0.58034
0.360889
0.432103
0.308928
0.391661
0.353917
0.308574
0.302071
0.311543
0.333095
0.408079
0.311574
0.356997
0.314359
0.346249
0.318559
0.313813
0.343908
0.313076
0.351713
0.352768
0.310344
0.310272
0.313817
0.315799
0.688701
0.320962
0.312578
0.303528
0.357613
0.328729
0.336233
0.3088
0.370177
0.379956
0.346131
0.310061
0.332049
0.306505
0.309757
0.313391
0.312009
0.361961
0.308109
0.314398
0.310109
0.313929
0.362948
0.313708
0.312463
0.320232
0.322282
0.341121
0.322001
0.315965
0.327839
0.324877
0.351716
0.321808
0.318396
0.327184
0.309922
0.310091
2.45668
2.35508
0.333355
0.340017
1.68182
1.19698
0.399958
2.56967
0.785645
0.704546
1.19833
0.372851
0.323551
0.353554
0.344623
0.329178
0.312708
0.317431
0.338301
0.312541
0.310339
0.311855
0.312822
0.315471
0.314654
0.312268
0.339231
0.357283
0.349041
0.309464
0.309678
0.340546
0.322372
0.367359
0.594274
0.317698
0.366085
0.344845
0.30755
0.346738
0.311999
0.742189
0.358114
0.385881
0.367539
0.366694
0.317492
0.330621
0.383263
0.32012
0.337455
0.34339
0.350402
0.35154
0.350679
0.330066
0.326537
0.343804
0.362016
0.333909
0.350802
0.327966
0.373103
0.304891
0.354434
0.327563
0.306454
0.310096
0.813578
0.560977
0.931816
0.313665
0.333825
0.321596
0.326008
0.325121
0.3872
0.358416
0.355096
0.329069
0.310705
0.329415
0.354238
0.316137
0.329582
0.308151
0.341095
0.345042
0.366708
0.312872
0.316348
0.309455
0.371773
0.319073
0.314208
0.356927
0.343662
0.477879
0.35196
0.452796
0.49087
0.311381
0.367985
0.357657
0.344938
0.356395
0.316604
0.338523
0.317682
0.321801
0.325651
0.363453
0.349092
0.308964
0.379026
0.339645
0.372991
0.354157
0.353927
0.327827
0.375006
0.428026
0.334137
0.312727
0.303212
0.345179
0.329115
0.309045
0.307053
0.385979
0.431082
0.31091
0.348628
0.346783
0.312297
0.31718
0.302109
0.312399
0.317669
0.338994
0.31242
0.330496
0.507519
0.470639
1.26393
0.31024
0.499179
0.342874
0.33982
0.324818
1.34886
0.342254
0.309239
0.331185
0.318578
0.353564
0.340174
0.831732
0.605735
1.00896
1.14163
0.353669
0.348028
0.328433
0.539913
0.583676
0.362173
0.321325
0.325379
0.333765
0.333186
0.312243
0.338331
0.343579
0.325938
0.612596
0.642707
0.365986
0.365331
0.340931
0.469105
0.391409
1.28091
0.314129
0.312744
0.333148
0.736415
0.84597
0.311593
0.329281
0.49087
0.493035
0.291876
0.349851
0.317249
0.454581
0.444553
0.434878
0.561065
0.507585
0.313589
0.753911
0.33263
0.313869
0.33108
0.333008
0.316151
0.316419
0.360077
0.28834
0.347489
0.341117
0.314621
0.476037
0.343757
0.989814
0.319078
0.315919
0.320108
0.317409
0.311635
0.343788
0.326372
0.365342
0.322373
0.349293
0.321986
0.320403
0.310808
0.356757
0.35825
0.309477
0.331266
0.31081
0.303391
0.325986
0.320934
0.507944
0.311481
0.311094
0.374825
0.316716
0.311781
0.476036
0.741038
0.309849
0.470487
0.311766
0.349499
0.342705
0.321992
0.680705
0.434269
0.375168
0.337232
0.337496
0.322056
0.311574
0.310796
0.312368
0.344174
0.558008
0.49353
1.53317
1.01798
2.78845
0.357645
0.415744
0.315623
0.321056
0.325315
0.359166
0.509855
0.631152
0.395907
0.408974
0.511102
1.24184
0.66241
2.40703
1.58765
0.944016
1.15497
0.335387
0.366582
0.706569
0.978766
0.346463
0.302232
0.342359
0.415713
0.539154
0.340087
0.302332
0.441695
0.964636
0.317668
0.330442
0.389876
0.339805
0.314188
0.3237
0.338807
0.314192
0.386814
0.358174
0.316539
0.310911
0.309954
0.312676
0.330851
0.344881
0.457603
1.08069
1.10458
0.710409
0.399097
0.345639
0.341294
0.646435
0.899494
0.331567
0.379393
0.712593
0.547112
2.00328
1.25013
0.528709
0.653562
2.55452
0.488988
0.921525
0.670327
0.511553
0.338064
0.311283
0.332354
0.484913
0.53543
0.34622
0.791344
0.33678
0.400103
0.459588
0.528898
0.44302
0.385298
0.329008
0.919908
0.96002
1.85422
1.8982
2.374
0.411846
0.365407
0.398423
0.626272
1.2693
0.80884
0.553654
1.53295
0.739554
0.718209
1.40109
1.42853
0.537575
0.735961
0.726449
0.87501
0.385168
0.484808
1.17791
1.00619
0.305739
0.323735
0.324868
0.335622
0.38986
0.330196
0.400965
0.33968
0.404557
0.309669
0.381363
0.847145
0.323411
0.314039
0.336396
0.344171
0.331709
0.440642
0.478533
0.35072
0.419528
0.45797
0.32338
0.355409
1.03489
0.329617
0.509684
0.312543
0.310735
0.305831
0.379922
0.360818
0.607604
0.33451
0.367426
0.317891
0.398227
0.3233
0.3211
0.329745
0.302879
0.313595
0.337729
0.308908
0.353717
0.309665
0.309259
0.308679
0.589388
0.68584
0.857255
0.47465
1.31726
1.49479
0.380683
0.448374
1.09526
0.619
0.434775
0.708555
0.615788
0.662535
0.699058
0.595381
0.767267
1.70105
3.96322
0.778083
1.37392
0.315013
1.11794
1.173
0.310174
0.329728
0.301648
0.311013
0.299721
0.306167
0.387541
0.316082
0.346711
0.311862
0.896232
1.58507
0.289763
0.367598
0.371928
0.754006
0.692404
0.386821
0.383348
0.403059
0.416749
0.512523
0.416534
0.488375
0.947804
0.546761
1.03644
0.368291
0.435602
0.419485
1.40381
0.329036
0.367161
0.301165
0.325966
0.336941
0.312177
0.309946
0.308822
0.346819
0.317833
0.343171
0.372318
0.308015
0.308961
0.370089
0.30976
0.310788
0.31226
0.34412
0.308922
0.365215
0.311309
0.309515
0.307301
0.309863
0.321808
0.314269
0.321663
0.309565
0.353993
0.312335
0.339141
0.306955
0.314071
0.313346
0.322161
0.353705
0.423355
0.327515
0.336326
0.551378
0.315928
0.318528
0.66991
0.41964
0.536538
0.315621
0.398694
0.31389
0.324397
0.319786
0.425359
0.369707
0.327338
0.349272
0.315453
0.375266
0.349618
0.318119
0.317807
0.365599
0.313509
0.357562
0.319005
0.344038
0.308345
0.310488
0.30879
0.387388
0.333434
0.311963
0.357978
0.456923
0.310064
0.324275
0.333778
0.388928
0.351459
0.615563
0.419915
0.308839
0.30568
0.367542
0.311794
0.361329
0.370471
0.319248
0.341343
0.377827
0.360227
0.372698
0.315012
0.307004
0.339328
0.302334
0.309988
0.312865
0.335321
0.305605
0.361876
0.313728
0.315013
0.320846
0.329117
0.30814
0.354616
0.359606
0.482413
0.397035
0.312668
0.307102
0.349771
0.3677
0.360569
0.357914
0.311114
0.337554
0.330327
0.306445
0.578876
0.339838
0.314626
0.313328
0.314562
0.314406
0.314437
0.313366
0.311157
0.313296
0.361809
0.310202
0.324033
0.309265
0.304231
0.310103
0.320637
0.32756
0.337566
0.310424
0.318631
0.33119
0.366994
0.313152
0.318786
0.366708
0.330899
0.309219
0.374703
0.309334
0.328512
0.308544
0.313166
0.309795
0.320423
0.310505
0.334854
0.312544
0.322226
0.639158
0.337859
0.783858
0.313321
0.372345
0.317436
0.337217
0.551974
0.313371
0.336211
0.352244
0.357526
0.316592
0.33854
0.343749
0.357771
0.345921
0.396119
0.35439
0.308705
0.30316
0.709808
0.658348
0.435464
0.307608
0.342684
0.624928
0.320062
2.41334
0.811006
0.339226
2.20451
0.312916
0.313656
0.51004
0.838814
0.313383
0.320333
0.508403
0.493457
0.460202
0.31029
0.305131
0.313267
0.307727
0.321638
0.319022
1.01405
0.31481
0.347035
0.304685
1.84847
1.97527
0.72769
0.343199
0.394845
0.308265
0.565864
0.311006
0.35107
0.242038
0.433604
0.548163
0.386942
0.309268
0.329344
0.311863
0.344571
0.302351
0.351822
0.319645
0.312599
0.307848
0.308782
0.346596
0.309578
0.309375
0.732922
0.341586
0.308561
0.307964
0.912442
0.359557
0.314756
0.312461
0.459109
0.326269
0.340536
0.314204
0.390493
0.312709
0.327612
0.332567
0.309615
0.58031
0.492036
1.85439
1.27418
0.384231
0.311118
0.36439
0.570408
0.332826
0.700402
0.315436
0.319859
0.320593
0.319486
0.346943
0.36818
0.344331
0.343688
0.458715
0.5879
0.587578
0.488376
0.271033
0.318873
0.456068
0.373513
0.353325
0.387626
0.314086
0.372215
0.311831
0.372434
0.706001
0.654565
1.49526
1.75691
0.445644
2.42494
0.303009
0.333453
0.489905
0.316991
0.336797
0.334787
0.313099
0.365855
1.11949
1.25189
1.24022
1.02303
0.790785
1.17309
0.343929
0.380431
1.36555
0.560749
0.995307
1.11851
0.477002
1.37381
0.368153
0.44405
2.53114
1.27675
0.536101
0.485672
0.809847
0.4756
0.344356
0.490737
0.31265
0.324694
0.328315
0.309445
0.309332
0.312195
0.310329
0.346545
0.310792
0.310669
0.438452
0.311639
0.318612