/*--------------------------------*- C++ -*----------------------------------*\
| =========                 |                                                 |
| \\      /  F ield         | OpenFOAM: The Open Source CFD Toolbox           |
|  \\    /   O peration     | Version:  2506                                  |
|   \\  /    A nd           | Website:  www.openfoam.com                      |
|    \\/     M anipulation  |                                                 |
\*---------------------------------------------------------------------------*/
FoamFile
{
    version     2.0;
    format      ascii;
    arch        "LSB;label=32;scalar=64";
    class       volScalarField;
    location    "0.0563527";
    object      nut;
}
// * * * * * * * * * * * * * * * * * * * * * * * * * * * * * * * * * * * * * //

dimensions      [0 2 -1 0 0 0 0];

internalField   nonuniform List<scalar> 
3946
(
0.00529477
0.00508518
0.00327563
0.00432353
0.00506768
0.00469093
0.00337261
0.00397276
0.00328223
0.00696919
0.00664335
0.00599309
0.00451371
0.00259676
0.00188393
0.00585674
0.00357232
0.00647813
0.00345155
0.00662801
0.00227651
0.00407881
0.00384659
0.00336169
0.00346086
0.00389728
0.0038569
0.00489197
0.00644458
0.00552277
0.00652389
0.00489404
0.00337223
0.00459116
0.0039291
0.00536539
0.00404103
0.00385659
0.00470989
0.00418266
0.00497064
0.00691353
0.00422654
0.00668798
0.00407342
0.00715012
0.00690947
0.00399727
0.0038472
0.00404891
0.0038964
0.00419809
0.00566488
0.0064213
0.00718627
0.0057094
0.00534471
0.006335
0.00431168
0.0043584
0.00642255
0.000717901
0.00568532
0.00481424
0.0051834
0.000470532
0.000939491
0.000326115
0.00034014
0.0063924
0.00668267
0.00468286
0.00270381
0.00706156
0.00391406
0.00416558
0.00555331
0.00407792
0.0067593
0.00424472
0.000662607
0.0032868
0.00579226
0.00311128
0.00582992
0.00133975
0.00349689
0.000724025
0.000854943
0.000659962
0.00351428
0.00196503
0.00564218
0.00179488
0.00177947
0.00173614
0.00414063
0.00385999
0.00321403
0.00457276
0.00320687
0.00357191
0.00391667
0.00769202
0.00392248
0.00398035
0.00620092
0.00480615
0.00367177
0.00351806
0.00274104
0.00316439
0.00359981
0.00169078
0.00164913
0.00359514
0.00381005
0.00457696
0.000649206
0.000922735
0.00417277
0.00225356
0.00554425
0.00490696
0.00601583
0.0040571
0.00282545
0.00417622
0.00347173
0.00563645
0.00340259
0.00232624
0.00561031
0.00385474
0.00336774
0.00473349
0.00308419
0.00321222
0.00609598
0.00483691
0.00314979
0.00345443
0.000752637
0.00613508
0.0029505
0.0041124
0.00533968
0.00641905
0.00395057
0.0048723
0.00443308
0.00451042
0.00394966
0.0066445
0.0047696
0.00718202
0.00532051
0.00552014
0.00464043
0.00403118
0.00433227
0.00724867
0.00229939
0.00406587
0.00469796
0.00263956
0.00390269
0.0051639
0.00384339
0.003206
0.00396751
0.00403533
0.0039042
0.00224939
0.00549494
0.0052351
0.00549876
0.00644438
0.00497092
0.00377564
0.0068324
0.00583641
0.00672087
0.00616348
0.00424907
0.00429287
0.00502166
0.00393053
0.00671236
0.003643
0.00450291
0.00427671
0.00106323
0.00386937
0.00117544
0.00110792
0.000694887
0.00665436
0.00388146
0.00489981
0.00689412
0.00382558
0.00574712
0.00525217
0.00455686
0.0037058
0.00315822
0.00383068
0.00327161
0.00476648
0.00410828
0.00314461
0.00544655
0.00436443
0.00441769
0.00583457
0.00443777
0.00456024
0.00633799
0.0058526
0.000452212
0.000769166
0.00435548
0.00471354
0.00534492
0.000751254
0.000693771
0.0039878
0.00384935
0.000627603
0.00347189
0.00639477
0.00404575
0.00428231
0.00658155
0.00263598
0.00512293
0.00281249
0.00267363
0.00327968
0.00718888
0.00081554
0.000525704
0.00147709
0.00265083
0.00502205
0.0023517
0.00268552
0.0043416
0.0038787
0.00502494
0.00322261
0.00292813
0.00271041
0.0036961
0.00347961
0.00412711
0.00517377
0.00428562
0.00219533
0.00595276
0.00055494
0.00108648
0.00310319
0.0029511
0.00384195
0.00230168
0.00315599
0.00178182
0.00356896
0.00371498
0.0031551
0.00485114
0.00469799
0.00444347
0.00450327
0.0046339
0.00276761
0.00255056
0.00395666
0.00399164
0.00381826
0.0039054
0.00314195
0.00281441
0.00418749
0.00474099
0.00375301
0.00311966
0.00417759
0.0034776
0.00400393
0.00385725
0.00429745
0.00480838
0.00447023
0.00451648
0.00391415
0.00641814
0.000610099
0.00604802
0.000648763
0.000606948
0.000588287
0.00423186
0.00301295
0.00597444
0.00446638
0.00455551
0.000791517
0.00145942
0.000692603
0.000724532
0.000420229
0.00680228
0.00179803
0.00416997
0.00320476
0.00426158
0.00551572
0.00341809
0.00307995
0.00245109
0.00345826
0.00646916
0.00366129
0.00469358
0.00397169
0.00441198
0.00287093
0.00347623
0.00706728
0.00460455
0.00420515
0.00249895
0.00649171
0.00423152
0.000594022
0.000528355
0.00102779
0.00480024
0.00165617
0.00139555
0.00384057
0.00313816
0.00261598
0.00456773
0.00577899
0.00430576
0.00158497
0.00108825
0.00475822
0.00306072
0.0035703
0.00158744
0.000438536
0.00854069
0.00511829
0.00490797
0.00054581
0.00416063
0.00202763
0.00653997
0.00355289
0.0025113
0.00246843
0.0042557
0.00195035
0.00210655
0.00198993
0.0013342
0.00204323
0.00438251
0.00391411
0.00570956
0.00511531
0.00205086
0.00671704
0.00384812
0.00612863
0.00623536
0.00357837
0.00378679
0.00549097
0.00606062
0.00465758
0.00336014
0.00492214
0.00504108
0.00352661
0.00471309
0.00664237
0.00355595
0.00148342
0.00703465
0.000560539
0.00524434
0.00311889
0.00419463
0.00531036
0.00535013
0.00479984
0.00448344
0.00444697
0.00532866
0.00678584
0.00469152
0.00619521
0.00576872
0.0060019
0.00525165
0.00596041
0.00424132
0.00568583
0.00597165
0.00531346
0.00635613
0.00313486
0.00503209
0.00381804
0.00599465
0.0042468
0.00711326
0.00543571
0.00541921
0.00417442
0.0041768
0.00392181
0.00602003
0.00556656
0.00433621
0.00381095
0.00688443
0.00624755
0.00431644
0.00366241
0.00250954
0.00342361
0.00487385
0.00606812
0.00617898
0.00621669
0.00519304
0.00490667
0.0047708
0.00251734
0.00506178
0.00381158
0.00527117
0.00469593
0.00462241
0.00643635
0.00641457
0.00446199
0.00453301
0.00354099
0.00478806
0.00447189
0.00609551
0.00628312
0.00440417
0.00397143
0.00097279
0.00352534
0.00495118
0.00572278
0.00658759
0.00416044
0.00454072
0.00379958
0.00351367
0.00453236
0.00449734
0.00594098
0.00689272
0.00607424
0.00464992
0.00306312
0.00704988
0.00251449
0.00168375
0.00341055
0.00173483
0.00585093
0.00323965
0.00693126
0.0028653
0.00464995
0.00564818
0.00551014
0.00526541
0.00410787
0.0055305
0.00693613
0.00631905
0.00588819
0.00582283
0.00521236
0.00387291
0.00396788
0.00678973
0.00383703
0.00356313
0.00348362
0.00350821
0.0057416
0.00561993
0.00475177
0.000680984
0.00494939
0.00120513
0.00220065
0.00640906
0.00445646
0.00395806
0.0044402
0.00428452
0.00485735
0.00321694
0.00542949
0.0045881
0.00549382
0.00364904
0.00556138
0.00418177
0.003662
0.00484033
0.00468684
0.00448336
0.00598928
0.00176711
0.00636624
0.00346614
0.0027404
0.000939002
0.00415381
0.00521827
0.00428359
0.00259156
0.00551292
0.00529546
0.00614435
0.00330494
0.00650154
0.00596544
0.00509684
0.00345102
0.00534101
0.00391809
0.00462873
0.00528521
0.00452743
0.00415063
0.00655166
0.00530528
0.00405233
0.00663135
0.00331182
0.00406891
0.00356799
0.00389999
0.00420333
0.00389992
0.00639878
0.00575418
0.00665203
0.00396892
0.00453505
0.00658737
0.00315166
0.00523928
0.00606883
0.00610107
0.00639079
0.00451012
0.00441347
0.00723145
0.00699551
0.00684405
0.00598259
0.00631254
0.0049114
0.00618144
0.00653515
0.00380785
0.006338
0.00410141
0.00621034
0.00637944
0.00643992
0.00600239
0.0070795
0.00449384
0.0069334
0.00624526
0.00564128
0.00677299
0.00348986
0.0067418
0.00422724
0.00668239
0.00397522
0.00494312
0.00246759
0.0049409
0.00315675
0.00386791
0.00561342
0.00567569
0.00666583
0.00430752
0.00497519
0.00352274
0.00609691
0.00510999
0.00418325
0.00673576
0.00638865
0.00329126
0.00450374
0.00350169
0.00455576
0.00389939
0.0034413
0.00460091
0.00540369
0.00491897
0.00461185
0.00510736
0.00555134
0.00442908
0.00294015
0.0038629
0.00363583
0.00603035
0.00428478
0.0050992
0.00462717
0.0050754
0.00383194
0.00456375
0.00388697
0.00655159
0.00531616
0.00363513
0.00670169
0.00632482
0.00325804
0.0033056
0.00423593
0.00525035
0.00616507
0.00482964
0.00304563
0.0027232
0.00377779
0.00362606
0.0046933
0.00364765
0.00450654
0.00359764
0.00374013
0.00417752
0.00703345
0.00454364
0.00383421
0.00501048
0.00400197
0.00390951
0.00478731
0.00671798
0.00421854
0.00678335
0.00256567
0.00256236
0.00178698
0.00622946
0.00371836
0.0046221
0.00681853
0.00455583
0.00212447
0.00725822
0.0020503
0.00479
0.00358687
0.00368426
0.00570646
0.00615531
0.00621574
0.00384491
0.00560224
0.00613797
0.00426167
0.00673522
0.0051186
0.00204205
0.00330566
0.00561859
0.00556875
0.00589611
0.00310084
0.00566754
0.0048962
0.0071271
0.00416073
0.00423674
0.00484764
0.00388508
0.00437553
0.0028402
0.00377862
0.00358442
0.00699263
0.00378693
0.00341503
0.00500875
0.00388754
0.00427896
0.0042132
0.00401842
0.00486417
0.00399134
0.00682377
0.00384663
0.00561858
0.00345991
0.00598622
0.0038211
0.00451803
0.00696073
0.0067668
0.00691099
0.0048268
0.00365683
0.0032537
0.00481172
0.00567693
0.00542358
0.00498542
0.0043851
0.00658251
0.00632997
0.00425973
0.00532301
0.00711144
0.00298294
0.00557354
0.00371989
0.00439592
0.00110008
0.00294399
0.00467886
0.00317594
0.00172392
0.00525966
0.0028715
0.00374173
0.00227992
0.00187691
0.00201982
0.00505917
0.00666464
0.00713808
0.00712249
0.0048144
0.000639
0.00397981
0.00381224
0.00372919
0.0037071
0.00570956
0.00471287
0.00269496
0.00120268
0.00271522
0.00112813
0.00187151
0.00140156
0.00641794
0.00284127
0.00707274
0.00268021
0.0028596
0.00425035
0.00548796
0.00452083
0.00287478
0.0035749
0.0034214
0.00102128
0.00363323
0.0052247
0.00486066
0.00391461
0.00636349
0.00705636
0.00497663
0.00727326
0.00337556
0.00613361
0.003992
0.00695866
0.00317618
0.00537932
0.00424394
0.00634142
0.00551415
0.00466554
0.00716455
0.00489853
0.00705277
0.00317986
0.003414
0.00651146
0.00421883
0.00378546
0.00476715
0.00392539
0.00567904
0.00648424
0.00330723
0.00321749
0.00543795
0.00313641
0.00384625
0.00486408
0.0048485
0.0046253
0.00463704
0.00266701
0.00544205
0.00598543
0.00446864
0.00502377
0.00601599
0.00145134
0.00483078
0.00657625
0.00308141
0.0037524
0.00540306
0.0040548
0.00319493
0.00730023
0.00216754
0.00180751
0.00254909
0.00392961
0.0034055
0.00345435
0.00330171
0.00411362
0.00469309
0.00105275
0.000833193
0.00331407
0.00477256
0.00365198
0.00663152
0.00487325
0.00524903
0.00641668
0.00665906
0.00409766
0.00472412
0.00451654
0.00592709
0.00508231
0.00669995
0.00606902
0.0041363
0.00568395
0.00586393
0.00333407
0.00382174
0.00617461
0.0028725
0.00494089
0.00486514
0.00540593
0.0069682
0.00388175
0.00639889
0.00344738
0.00402443
0.00334403
0.00394262
0.00364047
0.00399846
0.00604099
0.00304055
0.00326941
0.0032396
0.0051523
0.00543216
0.00694282
0.00511808
0.00332807
0.00491232
0.00454549
0.00354802
0.00499675
0.00429366
0.00571736
0.00371999
0.00412021
0.0030663
0.00451721
0.0034226
0.00577601
0.000701819
0.00489459
0.004123
0.00391012
0.00501727
0.00576967
0.00247872
0.00308213
0.00165795
0.00263996
0.00239422
0.00135325
0.00371747
0.00403549
0.00570221
0.00174677
0.00464792
0.00477863
0.00365019
0.00501536
0.000809433
0.00190509
0.00447771
0.00459713
0.000900119
0.00527903
0.00235777
0.00475751
0.00419561
0.00260032
0.00201177
0.00256821
0.00751639
0.00142876
0.000790453
0.00401101
0.00268565
0.00239165
0.00212949
0.0030443
0.00387649
0.00612981
0.000930381
0.00151447
0.00718131
0.00323848
0.00146236
0.00418453
0.0066826
0.00316612
0.00327821
0.00168267
0.0025951
0.0056441
0.00471945
0.005758
0.00538759
0.00637603
0.00615878
0.00366966
0.00636671
0.0051702
0.00437677
0.00211125
0.00254053
0.00319323
0.00292511
0.00337823
0.00164892
0.00527218
0.00448369
0.00466513
0.00277042
0.00325781
0.00371545
0.0058012
0.0033554
0.00435352
0.0061162
0.00434053
0.0031462
0.00276448
0.00509827
0.00551292
0.00340869
0.00441288
0.00713817
0.00715424
0.00359953
0.00621791
0.00392229
0.00432744
0.00707091
0.00359788
0.00431154
0.00396623
0.0045346
0.000660127
0.00184542
0.00598349
0.00397082
0.00423025
0.0041708
0.00449034
0.00356941
0.0067464
0.00545155
0.00420738
0.00668066
0.00421408
0.0032617
0.0042357
0.00421911
0.00489233
0.00419002
0.00345908
0.00341642
0.00347244
0.00291152
0.00338893
0.00374444
0.00714092
0.00705607
0.00692286
0.00392744
0.00365905
0.00366916
0.00434901
0.00696756
0.0034008
0.00355653
0.00688526
0.00409258
0.00595286
0.00432325
0.00192678
0.00367392
0.00555549
0.00456085
0.0011824
0.0023443
0.00210572
0.0047659
0.00198314
0.00352312
0.00542561
0.00404231
0.00334548
0.00577233
0.00491598
0.0061744
0.00604464
0.0020566
0.00592155
0.00334788
0.00326609
0.00477194
0.00422168
0.00422693
0.0058904
0.00532135
0.00510918
0.00489056
0.00468292
0.00535932
0.0039173
0.00620777
0.00447626
0.00471606
0.00650317
0.004038
0.00673855
0.00644104
0.0040526
0.00722754
0.00697024
0.0052827
0.00720446
0.00709465
0.00535622
0.00438793
0.00631081
0.00682749
0.00586937
0.00650876
0.00445821
0.00602657
0.00506478
0.00267012
0.00255097
0.00421693
0.00725947
0.00401574
0.00324715
0.00688327
0.00676452
0.0070442
0.00687335
0.00686493
0.00603982
0.0064049
0.00489717
0.00683068
0.00656092
0.00307527
0.00140236
0.00268492
0.00334165
0.00157404
0.0050175
0.00593909
0.00523169
0.00717816
0.00721721
0.00688259
0.00671105
0.00704745
0.00700538
0.00470255
0.00456709
0.00415411
0.00679329
0.0038972
0.00676919
0.00448741
0.00631421
0.00519625
0.00523921
0.00645231
0.00611785
0.00608647
0.00323149
0.0056016
0.00530946
0.00259614
0.00431162
0.00509727
0.00392854
0.00429572
0.00476567
0.0070163
0.0059935
0.00629369
0.00566145
0.00481855
0.00345117
0.00327429
0.00413185
0.00509309
0.00519146
0.00632389
0.00684839
0.00729193
0.00511588
0.00705594
0.00355347
0.00530079
0.00470793
0.00466926
0.00532205
0.00502257
0.00594536
0.0046025
0.00607053
0.00609436
0.00661829
0.00588497
0.00690064
0.00412411
0.00412255
0.00517744
0.00432938
0.00534085
0.00572157
0.00554025
0.00636559
0.00500763
0.00676467
0.00470094
0.00493023
0.00541303
0.00717369
0.0048384
0.00492109
0.00694976
0.00379394
0.00714813
0.00473125
0.00708691
0.00705221
0.0060994
0.00575486
0.00519853
0.00547433
0.00670482
0.00564863
0.0051431
0.00514388
0.00481445
0.00693565
0.00411599
0.00493362
0.0041621
0.00462092
0.00695769
0.00680362
0.00342953
0.00600707
0.00648567
0.00352026
0.00712588
0.00439491
0.00667727
0.00622574
0.00431536
0.00619686
0.00410657
0.00447147
0.00694617
0.0049241
0.00440344
0.00520619
0.00683819
0.00462326
0.00721225
0.00668707
0.00690276
0.0054108
0.00480301
0.0032318
0.00711421
0.00319708
0.00322097
0.00388411
0.0040074
0.00414928
0.00395077
0.0050421
0.00409046
0.00468953
0.00480629
0.00455625
0.00523658
0.00321959
0.00676785
0.00324072
0.00671156
0.00710729
0.00636532
0.00633357
0.00649564
0.00654505
0.00255986
0.00463172
0.00700527
0.00682601
0.00273261
0.00463273
0.00419326
0.00436253
0.00620021
0.00673348
0.00503709
0.0025927
0.00614997
0.00381583
0.00331138
0.00465641
0.00426646
0.00276703
0.00292619
0.00590963
0.0050092
0.0036206
0.00653893
0.00298511
0.00695688
0.00437432
0.00566678
0.00486418
0.00403383
0.00440888
0.00565898
0.00581804
0.00415371
0.00441992
0.00668389
0.00559903
0.00688626
0.00549007
0.00568414
0.00659588
0.00517093
0.0052407
0.00631187
0.00627964
0.00569859
0.00621774
0.00428855
0.00577317
0.0059078
0.00365827
0.00471772
0.00439997
0.00650362
0.00462789
0.00334642
0.00491427
0.00396706
0.00754298
0.00382144
0.00454185
0.00551954
0.00547662
0.00340185
0.00718598
0.00700656
0.00660039
0.00498026
0.00619654
0.00606461
0.00474952
0.0047578
0.0050486
0.00458024
0.00280854
0.00343191
0.00597636
0.00666642
0.00678815
0.00686836
0.00584797
0.00719469
0.00393529
0.00595009
0.00367837
0.00309663
0.00427878
0.00420412
0.00494409
0.00701681
0.00562584
0.00654981
0.0036214
0.00329347
0.00381064
0.00593561
0.00440463
0.00401138
0.00592434
0.00528122
0.00700182
0.0020822
0.00359473
0.000516895
0.00503279
0.000590354
0.00663127
0.00606442
0.00609589
0.00523661
0.00499191
0.00423402
0.00482391
0.00315856
0.00492845
0.00495344
0.00657711
0.00518958
0.00423387
0.0065993
0.00664543
0.000787773
0.00281941
0.0066759
0.00281739
0.00475521
0.00668535
0.00695176
0.00644847
0.00613228
0.0069649
0.00365303
0.00560695
0.00372308
0.00626759
0.00247342
0.00486248
0.00414321
0.00440321
0.00311564
0.00360783
0.00311941
0.00690072
0.00468549
0.00654922
0.00688246
0.00693244
0.00635232
0.00684068
0.0057326
0.00417444
0.00471245
0.00464932
0.00643315
0.00430745
0.00501645
0.00465421
0.0053744
0.00332227
0.00662371
0.00484052
0.00714394
0.00679272
0.00546949
0.00622255
0.00430695
0.00373866
0.00641786
0.0011969
0.00672169
0.00713939
0.000797798
0.00149905
0.00330543
0.00377811
0.000966313
0.00375447
0.00385757
0.00133753
0.00372282
0.00453857
0.00249922
0.00298828
0.00498334
0.000502348
0.00134497
0.00191585
0.000666197
0.00359486
0.00364909
0.00356284
0.00246672
0.00525965
0.00454062
0.00400762
0.00659284
0.00177309
0.00101086
0.00298841
0.00497952
0.00696199
0.00703429
0.00543634
0.00613655
0.00219342
0.00725023
0.0071242
0.00552239
0.00615045
0.00600393
0.00469436
0.00504873
0.00499647
0.00319322
0.00356764
0.00535421
0.00548271
0.00517487
0.00459179
0.00503307
0.00334155
0.00339789
0.00698935
0.0025897
0.00266141
0.00499132
0.00640118
0.00552463
0.00555134
0.00397033
0.00531911
0.00588559
0.00529483
0.00699611
0.00328458
0.00523059
0.00464969
0.00553521
0.00524968
0.00487983
0.00683087
0.00501531
0.00341625
0.00667623
0.00662847
0.00520999
0.00348555
0.00587726
0.0069642
0.0044724
0.00622297
0.00395302
0.00626797
0.00478139
0.00331172
0.00511401
0.00483666
0.00322607
0.00708598
0.00524819
0.00470773
0.00537918
0.00674618
0.0039986
0.00446473
0.00431802
0.00558812
0.00691304
0.00603862
0.00703692
0.00716119
0.00603483
0.00609103
0.00418638
0.0065893
0.00697015
0.00643703
0.00549166
0.00527088
0.00728086
0.00379469
0.00375061
0.00438089
0.00383615
0.00453451
0.00502077
0.0016856
0.00157473
0.00653987
0.00465991
0.00449862
0.00527516
0.00405191
0.00451925
0.00491965
0.00657566
0.00441862
0.00320591
0.00367976
0.00690165
0.00259707
0.00186661
0.00553923
0.00396018
0.00736594
0.00703691
0.00467318
0.00240861
0.0039708
0.00273403
0.0021953
0.00304185
0.00722521
0.00373952
0.00486683
0.00515714
0.00605964
0.00481065
0.00481904
0.00657501
0.0046906
0.00661675
0.00412536
0.00656415
0.00397097
0.00385059
0.00615051
0.0042652
0.00404119
0.00634749
0.00470053
0.0059111
0.00299977
0.00402245
0.0042028
0.00433161
0.00718006
0.00366063
0.00382817
0.00373118
0.00443324
0.00668378
0.00343209
0.00574715
0.00471435
0.00648431
0.00360036
0.0056235
0.00641879
0.00331586
0.00591412
0.00520241
0.00477403
0.00447035
0.00409786
0.00470389
0.00578711
0.00277743
0.00672747
0.00427014
0.00572133
0.0069499
0.00532105
0.00331337
0.00606112
0.00367135
0.00421059
0.00311484
0.00380488
0.00364638
0.00369875
0.00435511
0.00621504
0.00632899
0.00422217
0.00727035
0.00226475
0.0023058
0.00553079
0.00502267
0.00454128
0.00482209
0.00483227
0.00523292
0.00457144
0.00457165
0.00421099
0.00410578
0.0041135
0.00379342
0.00319455
0.00319108
0.00315933
0.0036716
0.00359586
0.0044382
0.00328507
0.00418506
0.00425301
0.00447384
0.00629471
0.00683196
0.00442415
0.00411702
0.00393691
0.00636107
0.0044455
0.00370951
0.00266456
0.00211256
0.00193542
0.00634406
0.00458544
0.00444139
0.00582295
0.00401786
0.00328381
0.00453532
0.00541568
0.00487096
0.00267414
0.00434966
0.00512331
0.00304062
0.00547465
0.00463306
0.00391379
0.00380752
0.00112121
0.00117041
0.0030721
0.00609545
0.00500649
0.00354967
0.00640112
0.0023864
0.00401003
0.000682092
0.00204364
0.00103229
0.00449602
0.00445066
0.00357643
0.00351944
0.00445171
0.00449343
0.00371448
0.00274464
0.00363544
0.00351649
0.00334266
0.00108362
0.00265281
0.00226251
0.00587112
0.00104079
0.000826763
0.00334853
0.00356437
0.00467217
0.00359668
0.0040206
0.0039437
0.00231292
0.00442536
0.00644849
0.000371125
0.00243659
0.00228254
0.00574685
0.00546705
0.00297284
0.00265032
0.0031322
0.00655799
0.00690392
0.0058947
0.00565946
0.00277509
0.00508017
0.00271406
0.00226785
0.0027106
0.00563647
0.00437183
0.00673868
0.00322833
0.00504027
0.00390825
0.00386701
0.00422201
0.00197907
0.005868
0.00604001
0.0031746
0.00391446
0.00439118
0.00663146
0.00401727
0.00343721
0.00320341
0.00581707
0.0055117
0.00594841
0.00378559
0.00642558
0.00347287
0.00433664
0.00303183
0.00326189
0.00442263
0.00529729
0.00436669
0.00585709
0.00320872
0.00378811
0.00403671
0.00560554
0.00363383
0.00601821
0.00697514
0.00487365
0.00442995
0.00478156
0.00345693
0.00365515
0.00550196
0.00395911
0.00401873
0.00466299
0.00420166
0.00463731
0.004202
0.0036225
0.00658466
0.00355521
0.00417588
0.0061511
0.0071483
0.00717681
0.00713442
0.00716464
0.0043679
0.00373285
0.00638769
0.00686696
0.00679697
0.00425802
0.00616704
0.00563173
0.00482329
0.00647186
0.0070565
0.00535217
0.0041999
0.00466768
0.00333878
0.0051088
0.00522882
0.0062073
0.00331569
0.00538017
0.00550622
0.0054701
0.00558412
0.00507162
0.00579255
0.00719311
0.00718976
0.00701916
0.00713895
0.00330433
0.00470347
0.00647701
0.00596064
0.00434198
0.00279929
0.00343928
0.00618828
0.00496642
0.00505723
0.00707888
0.00549661
0.00503643
0.0039931
0.00441432
0.00716647
0.00710645
0.00595175
0.00604754
0.00474809
0.00562776
0.00658117
0.000830884
0.00385343
0.00381639
0.00681421
0.00699606
0.00608849
0.00655115
0.00663764
0.00719715
0.00444113
0.00467995
0.00432123
0.00540475
0.000983289
0.00636152
0.00610518
0.00721626
0.00723372
0.00592691
0.00670332
0.00644112
0.00625858
0.00322853
0.0037269
0.00377311
0.00482287
0.00402019
0.00674762
0.00468122
0.00413344
0.00625977
0.00700427
0.00714584
0.0071645
0.00613729
0.00716411
0.00663174
0.00670947
0.00628123
0.00453707
0.00627453
0.00466236
0.00700368
0.00706126
0.00349527
0.0044815
0.00732639
0.00461168
0.00568177
0.00491214
0.00463016
0.0008261
0.00118237
0.00139707
0.0022785
0.00507952
0.00417522
0.00277963
0.00574791
0.00211438
0.000984729
0.00715997
0.00688163
0.00360145
0.000657853
0.000866083
0.00342728
0.0047687
0.0047294
0.0019477
0.00427482
0.00375922
0.00609071
0.00723079
0.00588456
0.00490378
0.00421648
0.00443987
0.00410533
0.00656894
0.00391209
0.00656437
0.0065327
0.0050443
0.0070991
0.00658367
0.00413651
0.00406985
0.00597023
0.0068453
0.0051921
0.00470257
0.00547836
0.00481991
0.00582031
0.00703129
0.00635017
0.00275853
0.00512331
0.00628917
0.00521505
0.0041072
0.00383494
0.00550184
0.00601952
0.00565173
0.00410023
0.00513204
0.00721155
0.000984907
0.000697251
0.0065559
0.00455171
0.00533105
0.00516112
0.00443943
0.00705115
0.00714957
0.00370883
0.00673867
0.00684265
0.00454973
0.00709772
0.00461507
0.00661046
0.00425646
0.00445122
0.0068954
0.00456327
0.00631774
0.00434435
0.0032804
0.00723481
0.00403714
0.0045858
0.00315332
0.00439046
0.00717035
0.00392314
0.00678898
0.00397511
0.00435145
0.00451919
0.00404163
0.00300621
0.00261158
0.00336859
0.00297165
0.00686825
0.00390167
0.00467399
0.00457482
0.0038404
0.00522694
0.0059938
0.00442896
0.00437731
0.00288101
0.00166155
0.00379573
0.00441598
0.00388968
0.0070437
0.00518535
0.00479033
0.00569344
0.00363217
0.00300905
0.00349446
0.00504521
0.00356279
0.00346678
0.00340267
0.00549731
0.00382934
0.00660957
0.00519414
0.00491535
0.0043775
0.00309761
0.00333078
0.00611341
0.00256448
0.00687631
0.00342749
0.00433526
0.00529311
0.00489652
0.00460764
0.00270567
0.00470873
0.00336221
0.00299477
0.00646488
0.00456018
0.00343164
0.00410625
0.00574533
0.00695077
0.00509557
0.00563717
0.00480006
0.00693532
0.00407805
0.00444074
0.00378844
0.00420384
0.00403991
0.0036766
0.0054104
0.0039959
0.00369272
0.00485649
0.00468602
0.00511576
0.00672064
0.00565115
0.00644557
0.00719873
0.00683431
0.00672649
0.00441163
0.00374691
0.00707609
0.00446459
0.00388454
0.00377152
0.00416396
0.00525805
0.004904
0.00315312
0.00368224
0.00439711
0.00686938
0.00360983
0.00554215
0.00265968
0.00384553
0.00371578
0.00418645
0.00406284
0.00391015
0.00626077
0.00398598
0.00371173
0.00676844
0.00642253
0.00374679
0.00437579
0.00498883
0.00477802
0.00610502
0.00675157
0.00335066
0.0070164
0.00326005
0.00373856
0.00409184
0.000563753
0.000673668
0.00287076
0.00357304
0.000621761
0.00185085
0.00283204
0.00269663
0.000617815
0.00098418
0.00104717
0.00104477
0.00142332
0.00256946
0.000720446
0.00174611
0.000859191
0.00265695
0.00155065
0.000673956
0.00120906
0.00306588
0.00301989
0.000898348
0.00160816
0.000611273
0.00340441
0.00548476
0.00521742
0.00406518
0.00385419
0.00654824
0.00456506
0.00458593
0.00428511
0.00624148
0.00649708
0.00382514
0.00436788
0.00629175
0.00409132
0.00525174
0.00614141
0.00500585
0.00322491
0.00316329
0.00356706
0.00648901
0.00449986
0.00391052
0.00511903
0.00468749
0.00495679
0.00288146
0.00505397
0.00564961
0.00320123
0.00493256
0.00523991
0.00524469
0.004854
0.0060873
0.00458047
0.00338806
0.00591674
0.00451427
0.00632065
0.00503501
0.00385706
0.00411796
0.00634426
0.00409293
0.00418944
0.00640045
0.00443035
0.00577696
0.0051778
0.00411554
0.00465047
0.00225606
0.00292521
0.00355068
0.0050114
0.00229447
0.0046911
0.00632397
0.00396016
0.00364845
0.00321597
0.00414425
0.00386477
0.00472619
0.00374223
0.00455399
0.00367371
0.00197653
0.0062277
0.000794719
0.00489194
0.00313129
0.000931662
0.000706645
0.00300933
0.00280134
0.0034721
0.00386136
0.00366806
0.00239163
0.0053353
0.00378616
0.00391189
0.00427304
0.00615869
0.00417449
0.00484537
0.00587362
0.00551355
0.00407099
0.0057872
0.00638897
0.0064149
0.00543113
0.00643534
0.00683381
0.00157135
0.00549944
0.00297577
0.00317062
0.00332877
0.0015355
0.00362879
0.00450498
0.00514883
0.00152067
0.00400245
0.00374014
0.0071677
0.00462971
0.00454337
0.00385351
0.00415924
0.00386236
0.00311825
0.00374612
0.0040264
0.00387266
0.00389195
0.00538846
0.00321542
0.0033337
0.000638235
0.00150544
0.000521464
0.00595175
0.00379546
0.00457676
0.0044238
0.00492238
0.00495629
0.00433179
0.00630794
0.000511883
0.000595407
0.00641247
0.00196903
0.00414654
0.00646868
0.00448024
0.00420746
0.00398677
0.00275796
0.00476474
0.0014173
0.00563112
0.00582852
0.00305935
0.00597321
0.00393836
0.00604786
0.00419491
0.00444185
0.00400685
0.00381843
0.00395232
0.00402349
0.00434616
0.00730771
0.00719257
0.00733063
0.00481915
0.0034366
0.00263772
0.00378318
0.00384331
0.00614626
0.00701051
0.0038798
0.00451538
0.00368543
0.00378995
0.00459498
0.00355098
0.00229726
0.00394546
0.00474874
0.00567792
0.00504492
0.00591675
0.00394198
0.00454229
0.00542134
0.0061941
0.00521454
0.00254933
0.00358308
0.00416177
0.00382145
0.00649472
0.00536379
0.0052385
0.00503271
0.00496151
0.00626697
0.00257826
0.00418249
0.00403359
0.00533269
0.00539765
0.00513222
0.00305824
0.00636786
0.00611836
0.00588454
0.00496373
0.00701024
0.00664701
0.00639532
0.00673028
0.00662417
0.00678891
0.00527716
0.00618612
0.00590288
0.0033038
0.00646617
0.005653
0.00642127
0.0045495
0.00507915
0.00662381
0.00646898
0.00661075
0.0056081
0.00487497
0.00541946
0.0028631
0.00567274
0.00486897
0.00315551
0.000954722
0.00470397
0.00455575
0.00384842
0.00086667
0.000576204
0.00161464
0.0027544
0.00190101
0.00171319
0.00430074
0.00419802
0.00124494
0.00165722
0.00509424
0.00525037
0.00538963
0.00527179
0.00492423
0.00485541
0.00565994
0.00675642
0.00642609
0.00665014
0.00675208
0.00539685
0.00673915
0.00263741
0.000945743
0.00058283
0.000548829
0.000916978
0.00242429
0.00382995
0.00302297
0.00652596
0.00563894
0.00536177
0.00545069
0.00301144
0.00176061
0.00267897
0.0019708
0.00514309
0.00842217
0.00412782
0.00536143
0.00320123
0.00360908
0.00506886
0.00412077
0.00566702
0.00576629
0.00566702
0.00292117
0.00327305
0.00593219
0.00515758
0.00678372
0.00344166
0.00633058
0.00580471
0.00506547
0.00715828
0.00478043
0.00504288
0.00713834
0.00331748
0.00637279
0.00407055
0.00338979
0.00587758
0.00680163
0.00690974
0.00704677
0.00207357
0.00665629
0.00604158
0.00544033
0.0043439
0.00554494
0.00449841
0.00647611
0.00433813
0.00376191
0.00371588
0.0066936
0.0044991
0.00532037
0.00521456
0.00705512
0.00702397
0.00527381
0.00653447
0.00633055
0.00684516
0.00711913
0.00429553
0.00705583
0.00712908
0.00661579
0.00549311
0.00480954
0.00488692
0.00687416
0.00445086
0.00646157
0.00490406
0.00517407
0.00712469
0.00686582
0.00719695
0.00534212
0.0072205
0.00731425
0.00488283
0.00327796
0.00408282
0.00341456
0.00360146
0.00408796
0.00220263
0.0024712
0.0035188
0.00204023
0.00290394
0.00432338
0.00263784
0.00312606
0.00612767
0.00665263
0.00486871
0.00423043
0.00493511
0.00514495
0.00601879
0.00643362
0.0064866
0.00610582
0.00360668
0.00339753
0.00364888
0.00644476
0.00680061
0.0051249
0.0036745
0.00382161
0.00405193
0.00429052
0.00332897
0.00425652
0.00514033
0.00457735
0.00613575
0.00542396
0.00444444
0.00307204
0.00295266
0.00480817
0.00680218
0.00706836
0.00604062
0.00667863
0.00653324
0.00383977
0.00543147
0.00362109
0.00629014
0.00571004
0.00499234
0.00505535
0.0050932
0.00555387
0.00598839
0.0062879
0.00318185
0.00489401
0.00302367
0.00492642
0.0047475
0.00566112
0.000830361
0.00103949
0.0039235
0.00389078
0.00684582
0.00540908
0.00543682
0.00529952
0.00615825
0.00389489
0.00304606
0.00383036
0.00717182
0.00560985
0.00522916
0.00553424
0.00456386
0.00642931
0.00461774
0.00477203
0.00342076
0.00703971
0.00650818
0.00511435
0.00634675
0.00638472
0.00458695
0.0046613
0.00483271
0.00478476
0.00642052
0.00402633
0.0058312
0.00663241
0.00390839
0.00295394
0.00246446
0.00336942
0.0046275
0.00295494
0.00393506
0.00389878
0.0044116
0.00374876
0.00437396
0.00561814
0.00483201
0.00435189
0.00336022
0.00416516
0.00293
0.0034954
0.00431792
0.00409713
0.0041334
0.00622453
0.00445447
0.00336594
0.00511142
0.00618432
0.00655055
0.00649798
0.00528755
0.00602541
0.00509652
0.00398642
0.00697478
0.00516243
0.00352338
0.00679118
0.00339012
0.00303421
0.00709678
0.00110267
0.00201243
0.00167567
0.00467252
0.00635925
0.00212893
0.00445233
0.00337824
0.00319127
0.00417266
0.0041503
0.00501082
0.0045625
0.00486543
0.00656706
0.00406517
0.00106136
0.0025728
0.000710735
0.00431268
0.00475666
0.00471867
0.00477673
0.00488954
0.00599571
0.00348757
0.00419296
0.00465477
0.00386286
0.00460359
0.00443759
0.00510255
0.00452677
0.00319676
0.00527843
0.0038554
0.00624434
0.0038808