/*--------------------------------*- C++ -*----------------------------------*\
| =========                 |                                                 |
| \\      /  F ield         | OpenFOAM: The Open Source CFD Toolbox           |
|  \\    /   O peration     | Version:  2506                                  |
|   \\  /    A nd           | Website:  www.openfoam.com                      |
|    \\/     M anipulation  |                                                 |
\*---------------------------------------------------------------------------*/
FoamFile
{
    version     2.0;
    format      ascii;
    arch        "LSB;label=32;scalar=64";
    class       volVectorField;
    location    "0.0563527";
    object      U;
}
// * * * * * * * * * * * * * * * * * * * * * * * * * * * * * * * * * * * * * //

dimensions      [0 1 -1 0 0 0 0];

internalField   nonuniform List<vector> 
3946
(
(10.1754 0.156139 -0.00405125)
(10.0371 -0.142521 0.00333767)
(11.0285 0.311039 -0.132236)
(10.0292 0.0400784 -0.00144272)
(9.8676 0.0919155 0.00595818)
(9.42543 0.278287 -1.12658)
(9.99204 0.0686285 0.0179226)
(10.0636 -0.0286301 -0.01057)
(10.0004 0.015494 -0.00937682)
(10.1866 -0.123921 0.0349517)
(9.83058 -0.00473208 0.100455)
(10.1414 0.0772878 -0.0217181)
(11.0033 0.544486 -1.74235)
(10.06 -0.054378 0.0140104)
(10.0254 -0.0064023 0.00832267)
(10.2516 -0.263911 -0.00644997)
(10.1583 -0.0220353 0.0101503)
(10.0965 0.180771 0.0425251)
(10.1128 -0.0514215 0.00463086)
(9.30245 -0.0747431 -0.0426979)
(10.2324 -0.0196153 0.00280428)
(10.3106 -0.0488684 0.00181282)
(10.1566 -0.083995 0.00163749)
(9.96885 -0.0054505 0.00487447)
(10.3828 0.471734 -0.0359607)
(9.97042 0.0500302 0.00205388)
(10.0486 -0.0398997 0.0253245)
(10.2001 -0.0315376 0.0408828)
(10.0435 -0.0966543 0.0100185)
(10.0956 0.129705 0.0397695)
(9.67078 0.150281 0.0964514)
(10.2247 -0.14287 0.018536)
(10.0082 -0.0179916 0.0337316)
(10.2697 -0.0552131 0.00796661)
(10.1055 -0.482922 -0.087397)
(10.1779 0.13995 -0.0112846)
(9.87172 -0.165359 0.0110292)
(10.0429 0.148865 0.0175016)
(10.1574 -0.129937 0.0190227)
(10.2079 -0.0253132 0.0119999)
(10.0931 0.0591156 0.00437338)
(10.0949 0.0581094 0.000711457)
(10.0644 -0.00683641 -0.00736823)
(10.5525 0.491488 -0.0325364)
(9.94201 -0.00908691 0.00904846)
(10.0602 0.052921 0.0198116)
(10.1342 -0.209388 -0.0134936)
(9.86128 -0.175798 0.009215)
(10.1151 0.116216 0.00537873)
(10.0607 0.00632643 0.0230308)
(10.0784 0.104066 0.011501)
(10.0639 0.00163461 0.0402186)
(10.2546 -0.0588854 0.039938)
(10.0781 -0.088102 0.0199957)
(9.9781 0.0477424 0.0109757)
(9.87588 0.091823 0.00533464)
(10.0692 -0.130307 0.031739)
(9.96147 -0.0937923 0.0162315)
(9.9047 -0.00481063 0.0173509)
(10.0928 0.114654 0.0138566)
(9.79156 0.0767508 0.153179)
(-0.249469 2.01783 0.746367)
(9.93248 0.0733114 0.122578)
(10.0221 -0.0455189 0.0195232)
(9.8152 0.0622299 -0.0233777)
(-0.132877 1.82729 0.495939)
(-0.716743 1.72311 0.761973)
(0.0357288 1.92897 0.478186)
(0.0129579 1.96139 0.717574)
(11.0315 0.719751 -0.507545)
(9.98416 0.140216 0.0319103)
(9.89176 0.171987 -0.0152167)
(7.22067 0.54753 2.11259)
(10.1155 -0.0952167 -0.0132327)
(8.41421 0.14656 0.278633)
(10.0525 0.0229121 -0.00950879)
(10.1316 -0.129284 0.0361361)
(10.0941 0.00139102 0.0132729)
(10.0584 0.0242235 -0.00109842)
(10.2697 0.0481376 0.0233062)
(-0.369062 1.84112 1.26838)
(11.3017 -0.0405072 0.548984)
(9.99727 -0.024979 0.0187113)
(9.93774 0.114196 0.0486743)
(10.1544 -0.0380956 0.0162862)
(-1.13876 1.12008 0.346127)
(10.9405 -0.662248 -1.62072)
(-0.418422 2.0111 0.69329)
(-0.340511 1.95178 1.48973)
(-0.481474 2.1785 1.45854)
(-1.29113 0.164636 2.45794)
(-0.885768 1.69728 1.51869)
(10.4473 0.181235 0.0564018)
(9.9458 0.00282847 0.0215939)
(9.92827 0.000752368 0.0138901)
(9.94528 -0.0025458 0.00938948)
(10.1585 0.115838 -0.0197351)
(10.0266 -0.00457497 0.0323948)
(10.6909 0.0382298 0.0379847)
(9.99898 0.0960959 0.0154831)
(10.4587 0.188789 0.0156465)
(9.97171 -0.0104188 0.0102123)
(9.97996 -0.0127951 0.00450267)
(1.12147 1.70605 -0.634203)
(9.97385 -0.00941017 -1.74791e-05)
(9.84133 -0.0552274 -0.0427784)
(4.7328 0.846077 -1.30357)
(10.0561 0.209262 -0.237589)
(10.0864 0.0394213 0.0131224)
(10.0852 0.0355528 0.01069)
(12.3899 -0.204004 0.00286778)
(10.1359 -0.0101194 -0.000567793)
(10.1827 -0.0140925 0.00955651)
(10.0166 -0.00223176 0.0065095)
(10.0731 -0.00778651 0.00166207)
(10.2015 -0.0241247 0.0137424)
(10.6254 0.0927965 1.18104)
(10.7449 0.507556 -0.132438)
(-0.332833 1.81754 0.476015)
(-0.603942 1.94288 0.735599)
(9.89344 -0.278237 -0.0851559)
(10.004 -0.00649653 0.0403082)
(9.88273 0.0748179 -0.0394919)
(10.042 1.40259 -0.457494)
(10.2057 -0.226061 -0.01734)
(10.0798 -0.225977 -0.451952)
(3.79361 0.94807 1.73767)
(11.9642 -0.292881 -0.856242)
(10.0545 -0.0946903 0.0328934)
(9.92136 -0.136349 0.164786)
(10.3216 -0.00824032 0.0553475)
(8.77742 -1.05449 2.58717)
(9.93954 -0.175265 0.144632)
(10.3842 -0.0343957 0.187817)
(10.4172 -0.0177691 0.111689)
(6.12013 0.0213816 -1.27219)
(10.2516 -0.0239844 0.00146494)
(-0.894838 0.657598 -0.199319)
(9.81239 -0.413799 -0.139335)
(-3.15835 3.5743 2.45591)
(10.8695 -0.162179 1.24758)
(-0.214334 1.10274 1.90037)
(-1.5911 0.470817 0.256121)
(10.1842 0.144972 0.0343184)
(12.2957 -0.415968 0.0508309)
(9.93574 -0.0206926 -0.0163507)
(9.92008 0.0660768 0.00748991)
(9.86061 0.342762 -0.0597611)
(9.92537 -0.0121891 -0.00645976)
(10.0595 -0.0130526 -0.00856573)
(9.91565 -0.00217351 -0.0057306)
(9.91251 0.0160642 -0.00572816)
(9.93641 -0.028424 -0.0100162)
(10.0049 0.0303389 -0.00417821)
(10.1502 0.130028 0.0194177)
(10.0058 0.0434834 0.0116872)
(10.0036 -0.0442096 0.026514)
(10.0124 0.111936 0.0269366)
(9.83033 -0.0985113 -0.183876)
(10.5225 0.0765482 0.0121862)
(10.3871 0.214124 0.0904722)
(10.8004 0.423742 0.0466714)
(9.93289 0.0904643 1.8952)
(9.99888 0.0192415 0.0111646)
(9.94318 0.0610306 0.0120464)
(9.98454 0.0202712 0.0126184)
(10.0201 0.0170812 0.0120533)
(9.95796 0.0723995 0.0117749)
(10.0393 0.0431621 0.0111816)
(-1.2496 0.348875 3.20532)
(10.2147 0.0100619 0.0243236)
(4.0475 1.43532 0.705385)
(10.0415 0.0298624 0.00830974)
(9.98817 0.0361176 0.00473389)
(10.2106 -0.0865526 0.0247368)
(10.0186 0.0379468 -0.0208421)
(10.0065 0.0535729 -0.00341098)
(10.0186 0.0458849 0.0466101)
(10.9922 0.154708 -0.436842)
(10.083 -0.182205 -0.0125425)
(9.97163 -0.00128433 0.0253414)
(9.90996 0.0615248 0.00827329)
(9.87681 0.0925506 0.0415408)
(10.3979 -0.15507 0.0165104)
(10.4334 0.0541755 0.0255433)
(10.3785 0.0542745 0.0200439)
(9.86594 0.11127 0.00612257)
(10.1238 -0.0354203 0.00379952)
(9.78921 0.259196 -0.0137754)
(9.9515 -0.0855056 0.0114095)
(8.68538 0.375316 -1.6724)
(10.2725 -0.108268 -0.00803265)
(-1.27761 1.85253 0.390783)
(10.0112 0.159983 0.0111719)
(-0.420444 1.45093 0.889014)
(-0.317693 1.38916 0.993731)
(-0.175823 1.44481 1.28989)
(9.76913 0.100659 0.117425)
(9.96443 0.060627 0.0755602)
(9.98343 0.115823 0.0514541)
(9.95777 -0.00248984 -0.0143795)
(10.1494 0.146153 0.118547)
(9.92367 0.0875514 0.135507)
(9.97934 0.136464 0.127443)
(9.92606 0.0366272 0.0648315)
(10.1733 -0.251901 0.00032034)
(10.3515 0.148336 0.0774405)
(10.5687 0.0743323 0.111329)
(10.1173 0.1755 0.0269212)
(10.3147 0.0647177 0.0057199)
(10.4037 0.0719986 0.0121976)
(10.3795 0.14751 0.0742086)
(8.70825 -0.263136 -0.193515)
(8.77436 -0.268597 0.258289)
(6.51324 0.151857 -0.294713)
(9.57412 0.676123 -0.361351)
(9.07215 -0.280723 0.270669)
(10.0407 0.0856068 -0.417286)
(9.60644 -0.111833 0.110534)
(9.75828 -0.0202961 0.196755)
(-1.0056 -0.0916749 0.449956)
(-0.233841 1.45849 0.456911)
(10.2827 0.0402979 0.0338123)
(10.0759 0.0515215 0.132247)
(10.4552 0.175093 0.0482457)
(-0.173389 1.66208 0.438496)
(-0.190977 1.14219 0.387972)
(9.68135 0.0881426 0.234111)
(10.0973 0.193752 0.261489)
(-0.0551189 0.523743 0.394331)
(10.9187 -0.00133579 0.32785)
(10.7505 0.437556 -0.0725052)
(10.1042 0.00511272 0.256993)
(10.8725 -0.312859 -1.58945)
(10.0701 -0.114974 0.00851423)
(10.0181 -0.0462291 0.0167359)
(10.197 -0.0800027 0.0326635)
(9.98973 -0.0289092 0.00529707)
(9.96351 -0.0321461 0.00997555)
(10.1545 -0.0680561 0.0194817)
(10.0072 -0.0271384 0.0363145)
(-0.425949 2.12251 0.787464)
(-0.529136 1.6718 0.519411)
(-1.65971 2.06016 -0.872711)
(10.0185 -0.0119399 0.00490866)
(10.0904 -0.0691414 -0.0115772)
(9.98615 0.000994392 0.00909385)
(10.0378 -0.0536206 -0.00659803)
(11.1017 0.298387 -0.158307)
(9.99148 -0.0173962 0.00677006)
(10.104 -0.0662797 -0.00353802)
(-1.62198 2.16098 1.7431)
(10.525 0.0508138 -0.000627942)
(10.5327 0.0297325 -0.0019244)
(10.1225 -0.147215 -0.00665771)
(10.5178 0.102628 0.113189)
(10.2387 -0.0327015 0.00925877)
(10.8082 0.272237 0.161038)
(10.1321 -0.0217742 -0.0110199)
(10.0442 -0.0623582 0.00166561)
(4.53156 1.57248 -1.01404)
(-0.727524 1.51974 0.315962)
(-1.86747 1.08954 0.555647)
(9.92827 0.02646 -0.00522602)
(9.91256 0.0145436 0.00446402)
(10.0374 -0.00219844 0.0451734)
(9.91393 -0.0146059 0.0084797)
(9.99788 -0.0153236 0.0414529)
(9.9326 0.00542397 0.025192)
(10.0554 -0.0152438 0.0561368)
(10.0094 0.0838988 -0.0168182)
(9.96571 0.070292 -0.010507)
(10.0923 0.0338493 0.00214033)
(10.5838 0.0850937 0.0199255)
(10.6283 0.0915278 0.00116209)
(10.6807 0.0851238 0.00650142)
(10.7107 0.0724739 0.0012997)
(10.6295 0.0447531 0.0110604)
(10.5672 0.0433642 0.0204718)
(9.94395 -0.0275572 0.0132141)
(9.92729 -0.0349332 0.011203)
(9.93211 0.0004997 -0.00254119)
(10.0027 -0.395369 -0.0393849)
(10.186 -0.0199265 -0.000349024)
(10.2803 -0.0764424 -0.00741162)
(10.2202 0.0860503 -0.0238859)
(10.2983 0.0768978 0.000947403)
(10.2695 -0.465717 -0.22495)
(10.1369 -0.0671458 -0.0140189)
(10.1978 0.0420358 0.00926657)
(10.1225 0.0366143 0.0130681)
(10.1187 0.0159421 0.0170723)
(9.94064 -0.17383 0.207085)
(10.3 -0.0381731 -0.00136502)
(10.2615 -0.134487 0.0137931)
(9.91985 0.00852901 -0.00559186)
(9.9203 0.0132253 0.00705451)
(9.90987 0.011097 0.0124799)
(9.54703 -0.351184 -0.163034)
(-0.152954 1.82863 0.637055)
(9.88712 0.190644 0.1116)
(-0.228275 1.76809 0.555908)
(-0.0979345 1.88321 0.496455)
(-0.278156 1.52801 1.309)
(9.89811 -0.0930803 0.0107274)
(10.7356 0.398541 -0.107419)
(-1.51523 0.896659 1.29636)
(4.41018 1.90217 -2.12598)
(9.81384 -0.145014 -0.0814632)
(-1.0454 -0.819088 0.577162)
(-0.794171 -0.191693 1.39569)
(-0.380801 1.81732 0.864554)
(-0.524497 1.97311 0.161056)
(-0.357972 1.99642 0.0110596)
(10.0829 0.0473077 -0.0076732)
(4.69575 0.92025 1.29072)
(10.2838 0.0571649 0.0166125)
(10.2935 0.0274723 0.0530229)
(10.3378 0.065251 0.0130516)
(-2.61231 1.19534 1.78872)
(9.96514 0.00230029 0.0124334)
(-0.0718808 0.751908 -2.20904)
(9.9818 0.000668322 -0.00522716)
(9.96427 -0.0021961 0.00678582)
(10.2167 0.384686 0.106876)
(10.3149 0.10194 0.0714733)
(10.2703 -0.308084 -0.0110623)
(10.1757 0.0385285 0.315201)
(9.81625 0.16788 -1.48833)
(9.95045 0.00758262 -0.00310484)
(9.96585 -0.000331511 -0.00208835)
(9.99259 0.0106356 -0.0118678)
(10.0668 -0.00861678 -0.00384212)
(-1.51374 0.868077 -0.153868)
(-2.65931 1.8373 1.20141)
(10.0516 -0.0623126 0.0172603)
(10.7207 0.25556 -0.879848)
(-2.46958 1.50747 1.11016)
(-0.343163 1.70667 0.110079)
(-1.36859 1.84373 0.363245)
(10.1729 0.248857 -0.357509)
(0.126042 1.09995 1.72368)
(-1.1014 1.48856 0.827254)
(10.7826 0.205677 0.0951858)
(-2.75073 2.14264 1.46015)
(8.11139 0.505952 2.1996)
(10.7379 0.276367 -1.17967)
(9.77339 0.82526 -0.510752)
(-0.0832974 5.1005 -0.332552)
(-3.00955 2.65237 0.315223)
(-1.23464 1.36107 0.314975)
(9.47735 0.00423017 -1.72504)
(-0.053652 1.60465 1.57176)
(9.07995 1.01453 0.0184289)
(-1.27725 1.16759 0.488404)
(-0.162744 0.633169 0.14899)
(-0.708742 1.12911 0.782487)
(9.78597 0.0834707 -0.0235165)
(-2.69681 1.21047 1.25375)
(-0.139493 1.33754 0.154954)
(9.70825 -0.638154 0.332389)
(1.17384 0.830966 1.89331)
(10.5248 0.29246 0.0807248)
(11.3111 0.000562701 0.460626)
(-1.90425 0.429181 1.62093)
(-3.09004 2.93987 0.268879)
(11.4532 -0.228469 -1.30335)
(-2.01579 2.23527 0.604941)
(-3.57587 2.84264 0.510799)
(-1.60473 1.80437 1.55731)
(-1.8325 2.10028 0.51679)
(-3.64017 2.69205 0.452869)
(10.283 0.0488453 0.0351465)
(8.79719 0.839613 -0.124311)
(10.2487 0.317785 0.129688)
(9.0083 0.866747 -0.460621)
(9.95803 -0.00578722 -0.00966228)
(9.91234 0.0846381 0.0876904)
(10.0359 0.229794 0.598599)
(-1.26647 -0.558696 1.99583)
(10.8707 0.176353 0.066665)
(11.0536 0.0454476 0.380024)
(10.6888 0.1072 0.0240664)
(10.4 0.65089 -0.316454)
(11.1349 0.752064 -0.595179)
(10.6283 0.514484 -0.139911)
(7.37193 0.120346 1.81489)
(10.5225 0.636671 -1.24236)
(8.44781 2.07872 -1.41247)
(10.5107 0.0499303 0.127189)
(-0.91643 -0.236413 1.9271)
(10.6306 0.347621 -0.00954446)
(10.595 0.246166 -0.00664434)
(-1.8386 1.53781 1.02808)
(11.2162 0.692543 -0.412529)
(-0.410177 1.43589 1.92417)
(10.4986 0.188844 0.0429333)
(8.32453 0.617574 1.78663)
(8.47157 2.52086 -1.77724)
(10.4332 0.522443 -0.101822)
(10.5083 1.18645 -0.531062)
(10.125 -0.151895 0.0885682)
(10.6214 0.134712 -0.0097752)
(10.2462 0.0875705 0.0179181)
(9.95341 0.139298 0.00945519)
(10.077 0.0418359 -0.00633671)
(7.45078 0.244903 -1.57899)
(10.4517 0.958442 -0.0170772)
(10.0267 0.719567 -0.15296)
(10.6315 0.264799 0.103621)
(4.95642 2.56268 -1.40239)
(10.1961 0.607244 0.0900225)
(7.96527 0.127527 0.0229525)
(10.5252 0.213848 0.0549246)
(10.6705 0.225799 0.040491)
(10.7806 0.10293 0.00959506)
(10.0008 0.0984704 0.0430962)
(10.0291 -0.0210248 0.0460831)
(1.60162 4.35681 -0.463884)
(11.6863 0.0252948 -0.506817)
(10.0991 -0.0419784 0.0118102)
(1.61052 4.51446 -0.849871)
(10.0184 0.113946 0.0180804)
(-2.52469 3.12929 0.732208)
(10.0555 -0.413243 -0.0708606)
(10.0024 -0.255155 0.00207951)
(9.4224 -0.445867 -0.00968513)
(9.97234 -0.0425705 0.00955401)
(10.1746 -0.203487 0.0452768)
(10.2688 -0.0677155 0.036997)
(9.80138 0.068116 0.292859)
(9.26011 0.195077 0.108819)
(10.2058 -0.140128 0.0379777)
(10.1687 -0.419153 0.01182)
(11.418 0.0909433 -1.05233)
(10.2099 -0.250689 -0.00248132)
(9.96345 -0.0305656 -0.00563734)
(9.95143 -0.0119581 0.0273399)
(10.7795 0.0566783 0.00470197)
(10.6801 0.359106 0.27826)
(10.6013 0.405097 0.298281)
(10.5624 0.402001 0.308229)
(10.5911 0.354346 0.327897)
(10.6779 0.348519 0.267938)
(10.5072 0.281402 0.274374)
(-0.168366 1.06371 2.26116)
(-3.66854 2.77484 1.22125)
(9.50827 1.596 0.368799)
(10.5633 0.344823 0.311026)
(10.0946 0.387178 -0.101832)
(10.0862 0.356909 -0.045802)
(10.1239 0.476446 -0.0350335)
(10.2504 0.479185 -0.0158686)
(10.1714 0.467161 -0.11103)
(10.1455 0.40885 -0.0380527)
(10.3077 0.474531 -0.0381552)
(10.7974 0.0455839 -0.00800707)
(10.2234 0.442631 -0.0508473)
(10.1834 0.51414 0.171148)
(10.2088 0.422681 0.147588)
(10.0761 0.00870393 -1.61147)
(10.4767 -0.0282482 -0.669227)
(-0.287849 1.63296 1.41623)
(10.3197 0.0374006 0.0156664)
(-0.722275 0.829308 1.93234)
(-1.43527 0.353327 1.48655)
(9.69296 0.198228 0.0679444)
(11.4722 -0.342986 -1.02081)
(-2.6647 0.919785 1.33333)
(10.9039 0.185684 1.27355)
(8.82243 0.438657 1.24392)
(4.56071 2.28978 -0.910626)
(9.90647 -0.0480602 -0.0216174)
(9.96291 -0.0900018 0.0168942)
(9.95192 -0.0869233 0.0481039)
(9.93279 -0.115634 0.00909915)
(9.93166 1.27673 -1.38873)
(10.5329 0.334806 -0.0115507)
(10.9858 0.584024 -0.136151)
(10.728 0.100778 0.00225085)
(-2.51553 2.26257 0.586876)
(-0.0958947 1.78644 1.06403)
(2.36871 0.89267 1.89533)
(10.4903 1.12808 -0.131666)
(10.011 0.0140499 -0.00645491)
(9.90926 -0.120839 0.0474178)
(10.8191 -0.0807738 -0.298282)
(10.227 0.355429 -0.0222677)
(10.0597 0.805903 -0.225449)
(10.0019 0.961569 -0.241027)
(9.72337 1.12499 -0.60144)
(9.83435 -0.248381 -0.0368988)
(9.84643 0.861699 -0.819588)
(9.85495 -0.203497 0.0221638)
(9.93638 0.401678 0.0191317)
(10.2485 0.671107 0.110268)
(10.0477 -0.210957 0.0382817)
(10.6213 0.200532 0.0403879)
(9.82264 -0.221732 -0.0231843)
(9.7748 -0.189012 -0.0225837)
(10.7989 0.249352 0.0801442)
(10.7154 0.0992916 0.0259241)
(9.82729 0.0717655 -0.0112318)
(9.86859 0.0438188 -0.0345484)
(9.83958 0.0868276 -0.00673234)
(10.6925 0.311937 0.180849)
(10.7604 0.308895 0.181568)
(-2.96865 0.791688 0.996816)
(-0.217064 1.68043 1.72791)
(10.005 -0.0767299 -0.00542132)
(0.132123 1.2755 1.85682)
(-1.18139 1.25411 0.620268)
(10.0865 -0.112533 -0.0145708)
(8.60626 0.0978044 -1.71803)
(12.3662 -0.267056 -0.355131)
(-4.21754 4.20596 1.76888)
(10.6908 0.187657 -1.55837)
(9.56213 1.0476 -1.44115)
(11.1907 0.338968 -0.338375)
(9.87808 -0.0199986 -0.0176328)
(10.2023 0.0318835 0.00106514)
(10.8158 0.094064 -0.00224307)
(10.6635 0.121119 0.0052039)
(10.6161 0.13413 0.0341541)
(10.7408 0.15172 0.0299591)
(10.4579 0.223287 0.116274)
(10.3276 0.266142 0.330279)
(10.2538 0.271277 0.458122)
(10.7523 0.903557 -1.70022)
(-0.266044 2.14798 -0.805555)
(-2.20052 2.39999 0.0131893)
(0.0362012 2.70408 0.354912)
(10.4571 0.444248 -0.049675)
(4.22259 0.854916 1.70586)
(-1.48171 2.08876 0.505979)
(3.307 1.20889 2.36459)
(9.85732 0.0894308 0.00184108)
(10.0418 0.0142691 0.0118442)
(10.4983 0.0536938 0.0132365)
(10.06 0.124252 0.0328563)
(10.5499 0.191543 0.049951)
(10.4128 0.210562 0.0617114)
(10.9067 0.0150469 0.157788)
(10.0199 0.0562158 0.0111209)
(10.1298 0.0688815 0.0155098)
(10.2028 -0.0468615 0.0300296)
(10.4077 -0.0770631 0.0864796)
(9.95664 0.0159454 0.0139138)
(9.95991 -0.0274618 0.00905031)
(9.93514 0.0721198 0.0132355)
(10.0352 0.0192464 -0.0259585)
(10.0122 0.0200668 -0.00795176)
(10.0123 0.0321866 0.0132845)
(9.92876 -0.0212448 0.0389079)
(10.0491 -0.0220634 0.0249663)
(10.056 0.0755942 2.97559e-05)
(10.0405 0.0247475 -0.00148254)
(10.6382 0.188027 0.205655)
(9.93903 0.108385 0.0207116)
(10.0031 0.0455752 0.0121273)
(10.1362 -0.0342462 0.00331049)
(10.0847 -0.167213 0.0335027)
(8.59993 0.111691 0.21369)
(10.2389 -0.107816 0.0477846)
(10.0849 -0.0805481 0.0246724)
(10.0993 -0.055581 0.0145009)
(7.3785 0.738222 0.344891)
(10.0153 -0.0353789 0.0120496)
(10.0687 0.0280518 -0.0140656)
(-2.3091 0.578864 2.44655)
(9.87777 0.0685297 -0.00489705)
(9.96981 -0.0881492 0.0259116)
(10.2256 -0.149497 0.0277298)
(10.0899 -0.106107 0.0226528)
(10.1313 -0.0058808 0.0120401)
(9.92495 0.0491547 0.0532028)
(10.0093 0.0379218 0.0100177)
(9.97565 0.0117086 -0.00770754)
(10.1255 0.115707 0.00249059)
(9.91993 -0.165922 0.109257)
(9.77562 0.155888 0.00695825)
(9.9204 0.00833174 0.109127)
(9.68881 0.0680841 0.179889)
(9.56424 -0.168274 -0.0172357)
(9.85353 -0.0417701 0.0260023)
(9.94707 -0.0254361 -0.0323409)
(10.1036 -0.163298 0.0284973)
(9.93686 -0.149066 0.0889488)
(9.44972 0.084426 0.122165)
(10.1501 0.243455 0.0668497)
(9.93875 0.0395399 -0.00229088)
(10.066 0.120722 0.00802924)
(9.91492 0.0899263 0.00757239)
(9.99094 0.064388 0.00944788)
(9.81306 0.0684649 -0.0260125)
(9.5862 0.805543 -0.417398)
(9.94385 -0.0117427 0.00459142)
(10.324 -0.0890254 0.0494546)
(10.0091 0.0524842 0.0210985)
(12.4643 -0.392345 -0.270248)
(9.99523 0.0379025 0.00894407)
(9.99205 -0.0305921 -0.00160476)
(9.76581 -0.221909 -0.199306)
(10.562 0.0677577 1.65278)
(9.91741 -0.0822626 0.0298351)
(10.0009 0.0426618 0.0109717)
(10.8001 0.134521 -0.0238774)
(10.1299 0.226666 0.0832828)
(10.7616 0.200978 -0.0453608)
(10.0546 0.205381 -0.00372352)
(9.83903 0.0388203 -0.0386556)
(9.30508 0.651484 -1.45007)
(10.1033 0.232012 -0.257116)
(9.56909 0.450767 -0.22596)
(7.51395 0.639895 -0.375276)
(10.1039 -0.0301877 0.00308359)
(10.054 -0.202781 0.0440688)
(10.2656 0.193313 0.0361879)
(9.85872 -0.0153114 0.0119942)
(10.0664 0.0194593 0.0214423)
(9.88067 -0.0113836 0.0257312)
(-3.85463 1.6919 1.14513)
(-3.10103 2.11334 0.860131)
(-2.26442 1.45793 0.731369)
(10.2955 0.136818 -0.00487089)
(10.5188 0.569204 -0.185917)
(9.72269 0.0064847 0.259072)
(10.0364 0.0366591 0.00176552)
(9.8653 0.0872342 0.0115098)
(9.75857 -0.17892 -0.0615208)
(9.91809 -0.0036067 -0.0207698)
(9.85862 -0.00450849 0.015308)
(9.16882 0.422221 -1.93718)
(9.53539 -0.172911 -2.15876)
(4.06477 0.817912 -0.785284)
(7.70567 -0.739954 -1.177)
(10.0818 0.012276 -0.0165907)
(7.1595 0.772879 -1.51873)
(10.0225 0.0254249 -0.0151882)
(9.4225 0.152047 -2.00847)
(9.90508 0.0210111 0.00348176)
(10.418 0.211706 -1.79834)
(10.1347 -0.0920408 0.0204191)
(10.3306 -0.0875321 0.0288724)
(10.4235 0.0955494 0.0512938)
(10.1441 0.302808 0.0457036)
(9.95641 -0.0284859 0.0153538)
(8.4635 1.96356 0.401455)
(10.9192 0.388248 -0.154473)
(10.0748 0.0268613 -0.00407143)
(10.175 -0.0214157 0.0227667)
(10.0036 0.0806169 -0.000851183)
(10.0577 -0.0893081 -0.0133589)
(9.97065 -0.0484056 -0.00259949)
(10.0278 -0.0269755 0.0245352)
(9.9826 0.068741 0.00905503)
(9.99198 0.111571 -0.0100991)
(10.0936 -0.388161 -0.0491528)
(9.93791 -0.0872328 -0.00299106)
(10.3109 -0.183617 0.014642)
(10.1962 -0.169726 0.00142713)
(10.8637 0.357782 -0.563398)
(10.1799 -0.0194789 -0.00286878)
(10.0764 0.0648251 0.0166212)
(9.90016 0.0788245 0.00886319)
(9.85019 -0.221513 -0.00612726)
(10.6503 0.588479 -0.822058)
(12.6078 -0.353304 -0.245933)
(10.6575 0.153871 -0.0254348)
(9.89718 -0.0534752 0.0071784)
(10.7939 0.471532 -0.0764253)
(10.2585 0.0428317 0.0149128)
(10.0798 0.0618954 0.0104048)
(-0.835521 1.61016 1.29391)
(-0.534027 1.76219 1.57074)
(-0.816551 1.57342 1.73715)
(10.1737 0.11754 0.0289065)
(9.84886 0.0927544 0.504634)
(9.95855 0.112174 -0.02807)
(9.84573 0.0898702 0.0456653)
(2.66236 0.756839 1.01463)
(-0.998271 1.5869 1.73527)
(10.0072 -0.117122 0.00994348)
(-0.624325 1.49283 1.94236)
(9.98006 -0.147628 0.0109341)
(9.96682 -0.0128005 0.00800828)
(10.2151 0.149266 0.257001)
(8.83482 0.477696 -0.920084)
(10.4543 1.07218 -0.109115)
(10.3395 0.527703 -0.0446074)
(10.1338 0.0133095 0.0220323)
(10.0238 -0.137746 0.0288482)
(9.84873 0.0626171 0.153199)
(9.91093 0.00196332 0.0159804)
(9.82565 -0.0830632 0.0703785)
(10.06 -0.0915592 0.111269)
(9.8283 0.0226122 2.75599)
(-1.66774 0.684699 1.19537)
(9.93725 0.137979 -0.000734692)
(-1.80734 2.80445 2.66429)
(-2.57703 0.511982 1.55436)
(10.1382 -0.0819949 -0.00884643)
(9.89831 0.710145 -0.5344)
(9.98811 0.0996281 -0.00806781)
(10.139 -0.16925 -0.025754)
(10.0925 -0.139889 0.0255269)
(10.1715 -0.0241524 0.00386701)
(10.1028 -0.0181351 0.0379576)
(10.1229 -0.367475 -0.0249061)
(10.6014 0.128231 0.00963348)
(10.0743 0.0143793 0.00746897)
(9.23753 0.157511 0.271141)
(10.048 0.0204811 0.0909503)
(9.97045 0.105585 0.0647436)
(10.1645 0.0410675 0.0198266)
(9.97302 0.00134206 -0.0034854)
(9.9036 -0.0157233 0.0575907)
(10.0657 0.00588968 0.000152054)
(9.89759 -0.0283075 -0.00681573)
(10.238 0.0484435 0.0136121)
(10.1414 0.0195191 0.0273739)
(10.0076 0.109699 0.0183669)
(9.99961 -0.0946843 0.00162464)
(10.1366 -0.16805 -0.029735)
(10.5651 0.0959466 0.0991206)
(10.3331 0.175831 0.0250799)
(9.89869 -0.00861151 0.0127505)
(11.2381 0.714347 -0.644683)
(9.98437 -0.0633322 0.0131226)
(10.0952 -0.0619987 0.164751)
(10.1331 -0.0865266 0.0152082)
(9.67429 -0.113948 0.0297714)
(9.99361 -0.0957625 0.0168299)
(9.72962 0.325494 0.123969)
(10.0387 0.101124 -0.0281856)
(10.0428 -0.127332 0.0185644)
(9.93868 0.0104893 0.138187)
(11.1515 0.584114 -0.729132)
(9.97661 -0.0556312 0.0272005)
(10.0077 0.101891 0.0196002)
(9.97726 -0.0577141 0.0297565)
(10.0673 -0.0856943 0.0195686)
(10.0281 0.0873431 0.0194288)
(10.8236 -0.0521534 -0.382074)
(10.6255 0.706474 -0.439918)
(10.1214 0.099913 0.00414272)
(10.192 0.519105 -0.069523)
(10.796 0.134633 0.00298061)
(9.95737 -0.0772328 0.214412)
(7.24114 0.688313 -0.0778122)
(-1.17017 1.35568 0.505991)
(-1.61156 1.25453 -0.330491)
(10.0269 0.0165943 -0.00154405)
(-1.20663 0.527116 0.490036)
(-0.175201 0.840707 -2.52321)
(-3.21768 1.13692 0.934664)
(-1.49326 1.76797 -0.076877)
(10.3827 -0.108325 -0.463511)
(-0.581321 1.77114 1.56443)
(-1.60306 1.90961 0.614746)
(-3.96541 2.703 0.774234)
(4.57072 1.33494 1.4553)
(10.7959 0.999092 -0.0771522)
(9.9458 0.0274044 -0.0325843)
(11.1225 0.449744 -0.128885)
(10.2346 -0.0973508 0.0140335)
(-0.489778 1.80466 0.184209)
(10.4983 0.0748253 0.441528)
(10.4919 0.164469 0.964409)
(9.71006 0.328152 1.02419)
(9.52068 -0.00612408 0.820311)
(10.2815 0.647412 0.246555)
(10.7398 0.662546 -0.508631)
(0.472468 0.762377 -0.244938)
(-0.814304 1.5921 0.883621)
(0.69743 0.640269 2.57307)
(-0.638831 1.62595 0.924877)
(-1.33724 1.53619 0.511518)
(-1.52635 0.175182 1.73581)
(10.4712 0.747264 0.080867)
(10.7615 0.00377803 0.240144)
(9.93986 0.104706 0.0495894)
(10.3974 0.10213 0.0684174)
(10.7123 0.03205 0.0635406)
(10.2267 0.178489 0.0505003)
(10.143 0.245097 0.0942961)
(10.2565 0.171487 0.00240901)
(9.94038 0.00069621 0.0015062)
(10.1069 0.103922 -0.0264994)
(10.327 0.209842 0.101981)
(5.39184 -0.554213 2.83794)
(10.0326 0.0210145 -0.00876975)
(9.83301 0.127522 0.00478111)
(10.0745 0.0432772 -0.275499)
(9.94957 0.055456 0.0788234)
(9.20201 -0.242267 -0.467687)
(10.0081 0.0611464 0.0215253)
(9.81155 0.157007 -0.00232606)
(10.8438 0.402509 0.0823753)
(10.2488 0.0250163 0.0411841)
(10.4903 1.09855 -0.144301)
(10.4303 0.232752 0.0118841)
(10.7083 0.413334 0.169511)
(10.4559 0.0504579 0.00681605)
(10.2439 1.04857 -0.425807)
(10.2577 0.0718311 0.0276634)
(10.3105 0.361264 0.158807)
(9.27827 0.963487 -1.17497)
(9.6254 1.5854 -0.952048)
(11.1904 0.610586 -0.179547)
(10.0803 -0.0119708 0.000232298)
(9.95623 -0.0873329 0.0312462)
(7.34276 1.4646 0.455042)
(10.4462 -0.380638 -0.118784)
(10.552 0.738349 -0.154354)
(10.0958 0.154214 0.144222)
(9.93235 -0.116008 0.0297814)
(4.21519 0.469514 2.07688)
(0.426584 0.306324 2.90568)
(6.26999 1.07623 -0.877509)
(2.34295 1.01224 -0.228397)
(10.625 -0.0808598 0.136341)
(10.6671 0.0174777 0.153408)
(10.8285 0.208242 0.0816894)
(10.7599 -0.0737332 0.166173)
(9.67171 -0.1376 0.313489)
(11.5904 0.123051 -0.821928)
(10.6079 1.30736 -0.86483)
(10.0286 1.57963 -0.665059)
(10.844 -0.10558 -0.474784)
(10.5845 0.0408494 0.000125759)
(9.99061 -0.0526042 -0.0107604)
(9.89067 -0.0766701 0.111342)
(9.99506 0.177591 0.00968757)
(10.871 0.641887 -0.612199)
(9.98125 -0.122221 0.0313335)
(-0.392481 1.52279 1.87456)
(9.92021 0.0554212 0.00195846)
(11.0729 0.639221 -0.356323)
(10.1844 -0.0642816 -0.0200089)
(-3.38984 1.76839 1.38893)
(10.4656 0.683839 -0.401181)
(10.388 0.0970699 0.0235867)
(6.87693 0.209408 1.8644)
(10.7526 0.555151 0.0181708)
(4.03607 1.05094 1.13424)
(-0.366994 1.74753 1.94666)
(8.54733 -0.957498 2.12079)
(9.64575 -0.605322 -0.0273941)
(11.0855 -0.00458273 0.448973)
(-1.9392 2.65212 0.171965)
(11.3009 -1.69384 0.0101985)
(8.58742 -0.219779 -1.70805)
(10.3451 1.38901 -0.741385)
(-0.921264 1.69171 0.515271)
(-3.24236 1.92922 0.39892)
(8.07002 1.75407 -0.194912)
(6.0523 -0.0125176 -1.43811)
(8.85847 0.853836 -0.0639854)
(10.2751 0.406893 0.0714012)
(10.9518 0.556967 -0.794892)
(9.90288 0.604958 -0.590963)
(10.623 1.00935 -0.112842)
(10.8386 0.312731 -0.0412817)
(10.4666 0.0426855 0.00558624)
(10.3505 0.0649398 0.010166)
(10.395 0.161278 0.00239671)
(9.16465 0.31425 -0.242012)
(9.04846 0.0392926 -1.66948)
(10.102 -0.052153 0.0274615)
(10.7809 0.173875 0.0439265)
(10.8017 0.133913 0.0245533)
(5.40829 0.811757 -0.570911)
(6.71949 0.342819 -1.43525)
(10.0341 0.167307 0.0219523)
(10.0952 0.107565 0.347453)
(8.73042 -0.251543 -0.832055)
(10.4837 0.0577795 0.0178931)
(10.1949 0.0618357 0.0182907)
(10.1148 0.0503584 0.00233324)
(10.0941 0.111624 0.0286914)
(10.1217 0.118532 -0.00712667)
(10.2104 -0.520759 -0.120149)
(10.0551 0.118225 0.0283071)
(10.4186 -0.0181419 0.201868)
(9.97278 0.0101206 0.355975)
(10.4934 -0.0727366 0.137648)
(10.1854 -0.149875 0.132227)
(10.2528 -0.103068 0.0812679)
(10.1688 -0.0950747 0.200289)
(9.79663 -0.145284 0.144467)
(10.2267 -0.068256 -0.0184795)
(10.3594 0.13343 0.126961)
(10.1806 0.168169 0.0588876)
(10.1174 0.249117 0.140025)
(10.1441 0.930728 -0.364425)
(10.019 0.0365699 0.0067285)
(10.002 0.216744 0.123749)
(8.34667 1.54406 -0.107742)
(7.94211 2.37507 -1.63119)
(9.26744 1.41063 -0.459997)
(10.2394 -0.314122 -0.224158)
(10.0337 -0.0666743 0.0552688)
(10.0662 -0.189284 0.114992)
(9.84234 -0.156132 0.00602348)
(9.84603 -0.0388252 0.0133652)
(9.99347 0.118619 0.0193546)
(11.2468 0.00894773 0.561913)
(0.256245 1.60448 1.30205)
(10.115 -0.103282 0.0519763)
(0.0469926 1.07194 3.01044)
(-0.950745 1.19306 0.358864)
(10.2624 0.298801 -0.2735)
(5.63837 1.57787 -0.60288)
(9.62253 0.188047 0.33016)
(8.43914 0.476042 -1.63219)
(8.1632 -0.0526441 -0.796223)
(7.88431 0.127118 2.2062)
(10.5409 0.0363381 0.0885293)
(-0.460162 0.774015 0.928983)
(-0.0558462 0.67033 -1.84345)
(5.04334 -0.509927 2.40479)
(-0.238354 1.18508 1.19865)
(9.99551 -0.0704344 0.011891)
(9.99885 -0.081988 0.00239971)
(10.0246 -0.105906 0.00483335)
(3.6137 1.10164 1.95744)
(10.0127 -0.0850407 -0.000663048)
(10.0053 -0.0757642 -0.0100483)
(10.1736 0.035852 0.160486)
(4.16403 1.21966 0.602021)
(-0.102132 1.36837 1.69358)
(-3.70081 3.2055 0.945148)
(-2.67367 0.398206 1.24891)
(-2.97375 2.40595 0.0964697)
(-0.620834 1.82231 0.828666)
(10.0654 0.82097 -0.905156)
(2.74631 0.253726 3.24423)
(-1.87863 0.579466 0.215704)
(9.74157 0.879008 0.438929)
(3.2615 0.520065 2.04931)
(-0.250495 1.72845 -1.21874)
(9.32542 -0.221797 2.30328)
(-0.119727 3.21897 1.86883)
(-0.698044 1.56057 1.18182)
(-1.04062 2.12228 0.424059)
(10.0097 0.228129 0.125863)
(-2.2745 2.30989 0.151514)
(11.8781 -0.0565126 -0.0858709)
(1.90834 0.984861 1.79689)
(-0.620097 1.1803 0.847744)
(9.54594 0.153294 0.393852)
(0.468384 -1.03129 1.60198)
(-2.71623 2.23069 0.473103)
(-3.08469 2.1261 1.24703)
(10.0292 0.0913795 0.0143756)
(5.83822 1.11583 2.3964)
(-2.1801 2.33647 0.26768)
(9.93612 -0.0605697 0.0182313)
(10.8313 0.212301 0.0653686)
(10.5069 0.143566 0.00824651)
(-2.81073 3.73642 0.519206)
(8.17434 0.139772 1.82205)
(10.6737 0.00411679 0.160482)
(10.1656 0.98883 -0.20582)
(9.93738 1.40926 -0.247814)
(9.91565 0.686594 -0.11848)
(10.221 0.599138 -0.171993)
(10.8424 0.867429 -0.363662)
(4.3097 1.02267 -0.288221)
(8.36597 2.79124 -0.639408)
(10.8049 0.773337 -0.438487)
(9.76355 1.16897 -0.686051)
(10.598 0.116822 0.353442)
(3.19367 0.914314 2.48862)
(5.48152 0.591404 2.68928)
(2.17729 1.47657 2.59276)
(4.14925 0.615721 2.70506)
(-1.0599 2.25373 -0.401468)
(-0.631903 1.21979 0.184051)
(10.6465 0.421786 -0.0477549)
(6.31896 0.504924 0.364338)
(10.0843 -0.00120742 0.0402903)
(7.7252 0.796666 2.03317)
(9.08295 0.432675 1.75281)
(11.3944 0.121658 -0.466263)
(6.5914 0.631226 -1.21096)
(8.42383 1.55269 0.171027)