/*--------------------------------*- C++ -*----------------------------------*\
| =========                 |                                                 |
| \\      /  F ield         | OpenFOAM: The Open Source CFD Toolbox           |
|  \\    /   O peration     | Version:  2506                                  |
|   \\  /    A nd           | Website:  www.openfoam.com                      |
|    \\/     M anipulation  |                                                 |
\*---------------------------------------------------------------------------*/
FoamFile
{
    version     2.0;
    format      ascii;
    arch        "LSB;label=32;scalar=64";
    class       volScalarField;
    location    "0.01535";
    object      k;
}
// * * * * * * * * * * * * * * * * * * * * * * * * * * * * * * * * * * * * * //

dimensions      [0 2 -2 0 0 0 0];

internalField   nonuniform List<scalar> 
3975
(
0.397339
0.37086
0.372557
0.370905
0.370468
0.397759
0.379914
0.379252
0.373126
0.374206
0.375031
0.37967
0.371646
0.379864
0.373151
0.371875
0.370528
0.373321
0.378836
0.368598
0.402728
0.378432
0.37762
0.389752
0.390802
0.375581
0.584989
0.37025
0.378412
0.359503
0.377688
0.394582
0.391552
0.368955
0.363414
0.416308
0.37463
0.37194
0.372129
0.374428
0.376145
0.379365
0.378762
0.376869
0.392972
0.379509
0.376017
0.378093
0.436299
0.392109
0.365851
0.383078
0.392645
0.464665
0.468311
0.48071
0.47233
0.453382
0.439914
0.430193
0.412372
0.682868
0.456048
0.409631
0.367555
0.47662
0.396081
0.370661
0.487084
0.711974
0.692617
0.637448
0.70961
0.377004
0.389924
0.411725
0.389782
0.401675
0.412399
0.39638
0.374067
0.369483
0.371446
0.379122
0.382769
0.444849
0.41141
0.385619
0.368101
0.392442
0.375982
0.370896
0.378715
0.377959
0.804218
0.383091
0.377288
0.638473
0.391086
0.602001
0.380393
0.578942
0.398047
0.410906
0.377752
0.398725
0.390601
0.394358
0.396022
0.40158
0.384657
0.370919
0.372112
0.371893
0.37328
0.393573
0.404228
0.408754
0.497201
0.423718
0.375509
0.510655
0.374074
0.472159
0.453183
0.493622
0.38584
0.397237
0.378489
0.397474
0.395858
0.378578
0.380348
0.372492
0.383695
0.38104
0.394029
0.378204
0.362339
0.382364
0.378093
0.374544
0.381722
0.376121
0.505882
0.370152
0.375449
0.387659
0.378924
0.388199
0.398772
0.398315
0.368494
0.406471
0.61372
0.410978
0.385864
0.36779
0.380342
0.377576
0.378459
0.379677
0.425651
0.400176
0.373231
0.431605
0.426513
0.832889
0.392145
0.373564
0.382703
0.382585
0.373994
0.404468
0.83833
0.381597
0.405083
0.388544
0.457162
0.36135
0.378181
0.372805
0.484955
0.485264
0.372519
0.37673
0.438769
0.42967
0.411378
0.45419
0.409179
0.371677
0.399014
0.366639
0.408516
0.363563
0.390787
0.376029
0.377813
0.372948
0.391972
0.375789
0.365825
0.370823
0.375152
0.376558
0.377852
0.689955
0.384518
0.596982
0.376966
0.455843
0.39327
0.410239
0.378188
0.378219
0.382987
0.372257
0.371016
0.412685
0.370576
0.423411
0.378415
0.420212
0.402191
0.417582
0.603201
0.370052
0.48586
0.3828
0.402148
0.376806
0.381447
0.377575
0.372396
0.382418
0.408207
0.405513
0.539094
0.427733
0.375314
0.482592
0.38199
0.450962
0.366419
0.769821
0.41335
0.432085
0.744562
0.378743
0.379979
0.371278
0.432184
0.770809
0.371168
0.3641
0.443232
0.492276
0.617247
0.696668
0.469324
0.562146
0.376574
0.399797
0.462491
0.401182
0.773422
0.369557
0.392376
0.375601
0.402755
0.393462
0.404784
0.378369
0.386486
0.370355
0.378583
0.39072
0.7018
0.586877
0.661405
0.39171
0.392606
0.373516
0.373401
0.367991
0.503176
0.368059
0.69246
0.388333
0.376732
0.40501
0.375092
0.450154
0.39012
0.397819
0.407819
0.395215
0.419924
0.397953
0.431075
0.417964
0.373329
0.427082
0.439764
0.418268
0.452611
0.473238
0.468407
0.410581
0.376129
0.376596
0.386524
0.371643
0.372005
0.454145
0.398545
0.414305
0.377691
0.377655
0.376312
0.358601
0.367675
0.371018
0.540401
0.383039
0.378198
0.370155
0.39311
0.450427
0.395373
0.396339
0.388729
0.388843
0.468742
0.433614
0.416417
0.457614
0.494128
0.491659
0.444446
0.459517
0.418964
0.450549
0.440605
0.368657
0.375018
0.381745
0.380845
0.374696
0.457846
0.413853
0.425107
0.423357
0.397626
0.385526
0.373072
0.465185
0.385562
0.375476
0.393058
0.804352
0.415939
0.375908
0.376271
0.376362
0.419098
0.377204
0.371631
0.375346
0.373278
0.501027
0.391147
0.393338
0.381041
0.439346
0.375439
0.905023
0.527122
0.431173
0.595922
0.4863
0.370999
0.498644
0.48475
0.481774
0.391853
0.519882
0.484244
0.461743
0.374211
0.374407
0.46943
0.391602
0.368324
0.377222
0.378758
0.435508
0.38027
0.383268
0.376319
0.383638
0.372988
0.372409
0.392141
0.372018
0.41487
0.390154
0.391928
0.395058
0.381388
0.394626
0.580281
0.611275
0.369568
0.606501
0.386277
0.3779
0.449008
0.386463
0.375582
0.385176
0.373306
0.507109
0.49979
0.509548
0.384401
0.479799
0.377257
0.492089
0.460019
0.382459
0.383244
0.555953
0.42087
0.367292
0.380477
0.371327
0.504312
0.381099
0.364618
0.397607
0.538691
0.683685
0.700596
0.384124
0.378763
0.451967
0.779491
0.378369
0.373164
0.375916
0.371603
0.378162
0.458744
0.376808
0.404374
0.376427
0.38222
0.380862
0.368992
0.52194
0.377414
0.375427
0.459504
0.378324
0.37937
0.38006
0.371965
0.374974
0.458224
0.376206
0.383377
0.414533
0.389663
0.636416
0.380965
0.382437
0.382843
0.376737
0.365016
0.377445
0.371817
0.379086
0.371633
0.458356
0.468444
0.656972
0.677486
0.453419
0.39452
0.384463
0.372785
0.515136
0.368536
0.373764
0.378034
0.380821
0.422135
0.497875
0.752797
0.372811
0.383878
0.382835
0.371604
0.380875
0.396711
0.662252
0.383272
0.393664
0.43178
0.386392
0.40236
0.766398
0.372023
0.366365
0.375515
0.408833
0.376597
0.366524
0.412982
0.369226
0.44377
0.603914
0.641799
0.473474
0.452373
0.833337
0.388749
0.386326
0.385645
0.405649
0.379221
0.378976
0.430496
0.406066
0.403453
0.397658
0.827079
0.413594
0.38422
0.382181
0.370909
0.470519
0.518265
0.741738
0.409772
0.805091
0.545185
0.408667
0.466
0.381576
0.425079
0.394472
0.473148
0.475165
0.377765
0.376584
0.374041
0.384325
0.374193
0.412064
0.51581
0.650329
0.614515
0.803809
0.566008
0.533119
0.866895
0.668098
0.370639
0.383792
0.372741
0.372558
0.384494
0.375613
0.374028
0.392193
0.370754
0.36884
0.371567
0.390468
0.440888
0.361941
0.378299
0.380666
0.379019
0.379522
0.392856
0.405399
0.387764
0.383487
0.387908
0.49128
0.369536
0.37322
0.383516
0.366178
0.371899
0.383776
0.377687
0.374365
0.748873
0.48554
0.425898
0.447901
0.367647
0.39959
0.41223
0.42585
0.433044
0.416891
0.371671
0.374662
0.364153
0.367361
0.389138
0.37352
0.368198
0.377059
0.376032
0.37424
0.379566
0.373186
0.374408
0.372491
0.424974
0.381031
0.369515
0.379315
0.36628
0.373184
0.389255
0.385236
0.371025
0.370255
0.376347
0.368593
0.394174
0.372944
0.379304
0.362786
0.360376
0.385068
0.38405
0.468868
0.371649
0.373554
0.493879
0.460467
0.391192
0.380027
0.574613
0.63545
0.423543
0.645706
0.49443
0.550315
0.476887
0.604264
0.611368
0.747389
0.401163
0.773386
0.756723
0.73045
0.625375
0.77682
0.396052
0.396529
0.409421
0.412057
0.409852
0.400663
0.366436
0.530776
0.384328
0.380006
0.380524
0.385348
0.366704
0.368713
0.382714
0.381179
0.376496
0.377059
0.373706
0.371564
0.372415
0.375412
0.375183
0.46266
0.397696
0.39022
0.382502
0.373729
0.501289
0.412941
0.379087
0.388762
0.523542
0.37798
0.405529
0.621285
0.37696
0.442263
0.401219
0.377811
0.376083
0.586167
0.385133
0.372556
0.377332
0.372695
0.392761
0.377355
0.374725
0.358586
0.424301
0.394688
0.372658
0.394864
0.374105
0.380361
0.383336
0.377874
0.388438
0.36998
0.374983
0.374375
0.403984
0.409553
0.392966
0.401852
0.417121
0.407058
0.410311
0.381209
0.713277
0.381996
0.66267
0.408106
0.467409
0.434034
0.811913
0.40141
0.390178
0.374276
0.444535
0.376419
0.542717
0.396207
0.363956
0.382122
0.56196
0.369069
0.379738
0.392441
0.38331
0.37925
0.373239
0.381127
0.385648
0.385752
0.379168
0.37347
0.378511
0.377324
0.365358
0.382291
0.482411
0.378179
0.371435
0.371742
0.395742
0.376978
0.37684
0.372452
0.374757
0.381941
0.38435
0.585337
0.472633
0.368986
0.373286
0.375327
0.425729
0.382448
0.407133
0.372297
0.408563
0.415469
0.822893
0.383445
0.457181
0.48372
0.405856
0.427736
0.373194
0.415843
0.409037
0.406799
0.392068
0.416239
0.80189
0.371842
0.387565
0.371413
0.742346
0.368723
0.422187
0.39351
0.385159
0.49646
0.525964
0.44965
0.812061
0.454861
0.484356
0.648019
0.425499
0.408227
0.429861
0.400606
0.45486
0.626777
0.617682
0.395549
0.702056
0.597125
0.609031
0.676831
0.801047
0.59182
0.790279
0.568626
0.473448
0.473888
0.596428
0.656061
0.566803
0.754454
0.702097
0.469023
0.496338
0.376096
0.4448
0.482024
0.498342
0.416235
0.395453
0.486882
0.480747
0.579711
0.569542
0.434943
0.384987
0.592335
0.597396
0.403614
0.361752
0.370614
0.441157
0.417653
0.422473
0.414269
0.39409
0.396845
0.389406
0.377025
0.36801
0.368629
0.400394
0.373545
0.387734
0.38246
0.373953
0.378139
0.394984
0.393404
0.473143
0.378139
0.374279
0.371867
0.399053
0.382909
0.37836
0.415779
0.387441
0.413081
0.42449
0.43435
0.428198
0.427415
0.422474
0.444992
0.382946
0.380471
0.373258
0.389209
0.515428
0.58054
0.40625
0.562599
0.562197
0.575889
0.424103
0.440259
0.436228
0.432331
0.410746
0.389638
0.384859
0.383875
0.390479
0.391715
0.38566
0.409047
0.441076
0.496443
0.677083
0.375305
0.378172
0.378101
0.379658
0.378974
0.376568
0.394223
0.388448
0.446359
0.498977
0.483638
0.461687
0.480123
0.427945
0.761755
0.424601
0.408868
0.442507
0.444007
0.457867
0.469172
0.389392
0.392645
0.378692
0.364552
0.435012
0.429193
0.432561
0.445578
0.43557
0.375438
0.363339
0.371323
0.373827
0.374254
0.379002
0.379119
0.383493
0.378192
0.372785
0.374074
0.373048
0.375866
0.375053
0.375802
0.373824
0.377763
0.383308
0.382723
0.381709
0.378391
0.382804
0.371875
0.374057
0.37313
0.370729
0.373375
0.373676
0.367993
0.508813
0.539164
0.419273
0.416243
0.381992
0.491117
0.428463
0.601752
0.477092
0.395361
0.367679
0.37977
0.456626
0.381525
0.39134
0.36967
0.443802
0.480802
0.379059
0.398852
0.423296
0.397698
0.373334
0.375545
0.374115
0.376411
0.379226
0.527677
0.600207
0.40145
0.941523
0.382601
0.370675
0.366036
0.396591
0.375524
0.373881
0.376325
0.395685
0.367686
0.383829
0.386542
0.397852
0.412198
0.431257
0.420948
0.374113
0.374456
0.377236
0.371402
0.719333
0.428653
0.38665
0.419178
0.448934
0.447289
0.47089
0.455324
0.416508
0.385353
0.409085
0.386885
0.36633
0.39334
0.390947
0.391514
0.415094
0.367394
0.379867
0.364809
0.384797
0.373458
0.3823
0.367299
0.384703
0.37422
0.37559
0.409691
0.420633
0.4739
0.381728
0.370957
0.368238
0.465194
0.435561
0.380541
0.395293
0.385615
0.381514
0.396507
0.390845
0.376514
0.371772
0.368287
0.367301
0.373993
0.396293
0.401763
0.405768
0.412902
0.375728
0.480771
0.437403
0.371753
0.504432
0.66296
0.432138
0.371421
0.383594
0.37627
0.414806
0.401028
0.371118
0.375013
0.40824
0.375096
0.376716
0.374838
0.472692
0.395477
0.419063
0.380456
0.777871
0.476083
0.388071
0.530558
0.442289
0.385937
0.37544
0.375947
0.376794
0.377781
0.369833
0.375695
0.373767
0.374601
0.374278
0.415742
0.375199
0.380575
0.368835
0.377907
0.383428
0.417567
0.521595
0.396967
0.633733
0.798958
0.781369
0.772378
0.789276
0.372934
0.457428
0.385526
0.429318
0.388544
0.705029
0.45984
0.532395
0.750532
0.597313
0.562907
0.770433
0.649251
0.382049
0.435599
0.402452
0.372671
0.393287
0.384075
0.38654
0.390065
0.379146
0.499868
0.787241
0.513144
0.407834
0.398103
0.591001
0.653856
0.420085
0.371852
0.37508
0.378141
0.379734
0.377483
0.375342
0.374531
0.376799
0.372424
0.374287
0.384316
0.376618
0.375153
0.371978
0.387633
0.423345
0.398146
0.375368
0.469587
0.380695
0.58881
0.37472
0.381411
0.403929
0.769173
0.709143
0.412206
0.391244
0.382234
0.371459
0.367048
0.407519
0.393156
0.589826
0.381696
0.376542
0.38047
0.383565
0.383175
0.429883
0.404973
0.414684
0.376577
0.423756
0.375998
0.374446
0.372771
0.374908
0.372162
0.376513
0.373754
0.382264
0.367919
0.371094
0.436082
0.3778
0.367978
0.370522
0.384016
0.372563
0.37741
0.368203
0.376855
0.357343
0.375806
0.376382
0.472818
0.594708
0.365836
0.380483
0.372574
0.376436
0.372476
0.682848
0.387851
0.627895
0.574857
0.498891
0.585487
0.36494
0.621011
0.394996
0.379782
0.379429
0.635535
0.379202
0.516762
0.717413
0.774159
0.471783
0.684017
0.521766
0.805379
0.406424
0.377178
0.372919
0.385363
0.787637
0.775677
0.724944
0.670413
0.668394
0.596828
0.532942
0.380566
0.37407
0.367695
0.373722
0.399837
0.420444
0.388006
0.390619
0.37817
0.375509
0.442757
0.373263
0.383975
0.48526
0.37627
0.762913
0.362631
0.375896
0.392275
0.389188
0.387998
0.397198
0.36762
0.399156
0.397987
0.366739
0.384416
0.375301
0.380677
0.371
0.378001
0.397543
0.379614
0.374874
0.376987
0.365421
0.381413
0.395495
0.499358
0.395347
0.477667
0.395068
0.645439
0.666539
0.414341
0.373691
0.366452
0.376137
0.365063
0.391991
0.367262
0.367934
0.362557
0.374472
0.381193
0.3712
0.398564
0.39101
0.362353
0.368679
0.374049
0.415973
0.394325
0.480697
0.462668
0.412585
0.365076
0.474061
0.359709
0.370918
0.373187
0.443414
0.372025
0.375756
0.375137
0.372562
0.376748
0.375005
0.38639
0.377137
0.374161
0.378418
0.39834
0.408129
0.373925
0.375281
0.378309
0.379809
0.403783
0.381278
0.377256
0.392903
0.491152
0.665728
0.520468
0.402539
0.765441
0.759247
0.407587
0.394587
0.361461
0.386866
0.366664
0.373776
0.367254
0.39081
0.432699
0.41968
0.373358
0.375249
0.783032
0.426891
0.545954
0.410337
0.699492
0.401416
0.437727
0.424072
0.385587
0.365925
0.374725
0.564927
0.36637
0.388251
0.40187
0.379386
0.393038
0.391565
0.7838
0.713086
0.371155
0.417121
0.385392
0.371182
0.398038
0.402387
0.429117
0.359595
0.378041
0.395613
0.500987
0.492991
0.515798
0.50961
0.583578
0.608612
0.580408
0.621754
0.374092
0.377032
0.374804
0.37713
0.364778
0.41557
0.544018
0.497013
0.542244
0.37307
0.406717
0.380364
0.395161
0.374443
0.388159
0.406103
0.368856
0.393579
0.380708
0.381806
0.474762
0.547138
0.384303
0.787901
0.424181
0.428312
0.457877
0.401434
0.411157
0.37623
0.483674
0.373401
0.465076
0.37486
0.441444
0.442899
0.369791
0.374538
0.405224
0.382513
0.371557
0.368883
0.373776
0.368583
0.378376
0.411561
0.506346
0.4026
0.483206
0.493092
0.375719
0.449627
0.44317
0.769127
0.394388
0.376333
0.376106
0.395237
0.509153
0.401912
0.744404
0.383999
0.373958
0.381016
0.741638
0.377344
0.692849
0.741647
0.713823
0.440085
0.444561
0.414738
0.421854
0.429128
0.652034
0.392482
0.708852
0.482156
0.567203
0.368506
0.398215
0.390571
0.380634
0.388621
0.395673
0.406775
0.391583
0.430152
0.422571
0.434095
0.381224
0.480118
0.372924
0.372845
0.402863
0.431656
0.376939
0.366374
0.362613
0.416922
0.489421
0.442063
0.384525
0.371991
0.372839
0.374618
0.461218
0.373917
0.369583
0.386829
0.393862
0.385908
0.531094
0.382062
0.414857
0.486842
0.392694
0.372976
0.377742
0.38453
0.376832
0.373849
0.407986
0.404607
0.463102
0.471822
0.375744
0.368972
0.374736
0.441559
0.401076
0.385585
0.376546
0.380845
0.373491
0.450756
0.384177
0.401271
0.406424
0.505465
0.374037
0.403909
0.734996
0.730763
0.775281
0.395907
0.388957
0.375345
0.378986
0.386754
0.417172
0.366635
0.362673
0.382052
0.480477
0.405365
0.621092
0.67665
0.381119
0.371618
0.402669
0.490958
0.410618
0.442107
0.411064
0.427128
0.611734
0.4028
0.396743
0.401947
0.443423
0.401138
0.739199
0.419177
0.784033
0.469527
0.447633
0.718166
0.510948
0.63301
0.592596
0.455482
0.446311
0.399712
0.42137
0.403429
0.575586
0.42106
0.420275
0.436113
0.658546
0.721342
0.667816
0.451437
0.6087
0.467636
0.428827
0.804067
0.419462
0.43447
0.410421
0.400623
0.416771
0.651954
0.836501
0.792739
0.386488
0.374364
0.428422
0.447392
0.370631
0.370668
0.395876
0.400647
0.465592
0.40673
0.391268
0.422069
0.375254
0.379108
0.379049
0.389557
0.507167
0.419999
0.383028
0.38266
0.416731
0.380247
0.382044
0.416166
0.412623
0.832995
0.41394
0.367435
0.37505
0.382518
0.372665
0.391685
0.562993
0.375448
0.375626
0.375629
0.372586
0.376208
0.426456
0.531896
0.481412
0.385027
0.385238
0.401749
0.380601
0.381739
0.448389
0.380142
0.410157
0.4353
0.383984
0.61979
0.679675
0.567741
0.375215
0.433551
0.398912
0.381211
0.41414
0.39663
0.399367
0.411157
0.403585
0.396925
0.382098
0.405986
0.379367
0.398063
0.369674
0.384786
0.368188
0.372427
0.368033
0.371437
0.622086
0.377456
0.372685
0.368033
0.368839
0.364773
0.369688
0.37461
0.561075
0.61417
0.483926
0.381019
0.38418
0.380317
0.3694
0.382976
0.38092
0.374206
0.379246
0.371558
0.378279
0.388597
0.424983
0.457712
0.502385
0.709622
0.510921
0.392381
0.392601
0.400958
0.373673
0.399945
0.370399
0.376551
0.371266
0.370746
0.372537
0.390315
0.373466
0.375545
0.36599
0.373704
0.361704
0.369388
0.39905
0.376842
0.405333
0.694046
0.381191
0.37717
0.379492
0.385591
0.373989
0.374587
0.427959
0.381369
0.406365
0.381222
0.740632
0.762582
0.401338
0.878693
0.74077
0.593908
0.69968
0.792853
0.572771
0.401443
0.407854
0.672728
0.379767
0.438245
0.372742
0.545533
0.671454
0.544496
0.367974
0.589506
0.612554
0.414708
0.403064
0.884345
0.738178
0.774464
0.664671
0.798358
0.711628
0.727812
0.411916
0.591657
0.412815
0.432208
0.389399
0.381547
0.377268
0.369827
0.377328
0.371843
0.37599
0.40639
0.384878
0.400833
0.378722
0.403067
0.386707
0.384445
0.382492
0.369032
0.399478
0.368498
0.499628
0.385433
0.368356
0.380893
0.385289
0.381075
0.386108
0.387807
0.383816
0.387553
0.390488
0.379364
0.459922
0.502474
0.385958
0.376669
0.366108
0.376552
0.399404
0.527641
0.386395
0.386541
0.374817
0.374513
0.420365
0.365445
0.452612
0.369346
0.471837
0.372283
0.379868
0.418966
0.371864
0.362912
0.364485
0.369177
0.420128
0.383742
0.373042
0.397199
0.374188
0.38619
0.378105
0.369914
0.377557
0.747298
0.584924
0.700607
0.464141
0.37931
0.37935
0.372711
0.377977
0.375169
0.373745
0.38451
0.632257
0.619206
0.389106
0.376181
0.380623
0.411577
0.374603
0.365906
0.380989
0.379681
0.409379
0.753612
0.391417
0.453482
0.408719
0.406979
0.442202
0.377371
0.378166
0.379646
0.615764
0.37889
0.383243
0.64349
0.488354
0.414021
0.433374
0.709595
0.804737
0.374706
0.376404
0.381211
0.377026
0.427989
0.758942
0.379136
0.380163
0.380513
0.372867
0.391623
0.644559
0.382592
0.380064
0.378783
0.382462
0.386732
0.418976
0.420009
0.400697
0.408218
0.446639
0.40366
0.420601
0.364059
0.377548
0.375785
0.392366
0.376404
0.37375
0.371413
0.386134
0.373775
0.370921
0.370084
0.369545
0.410305
0.43139
0.399505
0.389524
0.38971
0.384227
0.493683
0.377612
0.382089
0.465118
0.372255
0.583188
0.388212
0.447755
0.576222
0.863657
0.776694
0.730638
0.368595
0.50155
0.372289
0.515615
0.632713
0.469717
0.725925
0.464482
0.638744
0.573799
0.416849
0.754654
0.477064
0.405923
0.586457
0.763191
0.713674
0.416983
0.36522
0.389594
0.404795
0.661119
0.493403
0.512066
0.513914
0.464071
0.498746
0.369062
0.416678
0.444894
0.371847
0.391522
0.440879
0.37325
0.391817
0.44272
0.401991
0.435384
0.403217
0.407272
0.495282
0.41333
0.371659
0.427331
0.416649
0.450777
0.451264
0.382516
0.476466
0.381415
0.47729
0.41466
0.421826
0.37866
0.410341
0.380944
0.400699
0.375159
0.367274
0.414535
0.417669
0.468698
0.419798
0.415797
0.393661
0.46718
0.372514
0.440257
0.474946
0.400573
0.393305
0.392447
0.371063
0.372941
0.374914
0.360478
0.368084
0.37083
0.429015
0.421098
0.567985
0.431836
0.379666
0.390522
0.403014
0.385195
0.385694
0.382142
0.395649
0.392714
0.389607
0.415584
0.424731
0.41678
0.402063
0.388581
0.41791
0.411923
0.408442
0.424655
0.473194
0.376967
0.438034
0.379092
0.377392
0.39722
0.398284
0.39038
0.396292
0.359263
0.373417
0.420942
0.381255
0.412581
0.362983
0.402287
0.372694
0.374535
0.374172
0.371171
0.396644
0.38897
0.385197
0.440023
0.46759
0.474959
0.395736
0.382828
0.383957
0.467692
0.446552
0.370207
0.384645
0.413721
0.389601
0.444194
0.442984
0.46251
0.406534
0.441275
0.368641
0.364887
0.378165
0.371971
0.372462
0.373786
0.372006
0.373415
0.372933
0.374893
0.498982
0.383302
0.44111
0.401209
0.564521
0.630767
0.422626
0.472779
0.470661
0.444932
0.459598
0.61126
0.577874
0.376685
0.36826
0.376586
0.370201
0.373509
0.467793
0.371618
0.394986
0.405589
0.43541
0.386016
0.395228
0.421942
0.443299
0.373566
0.372925
0.370921
0.375318
0.414764
0.397337
0.463003
0.403729
0.756868
0.431089
0.442907
0.376224
0.393143
0.422229
0.407724
0.377598
0.400267
0.613007
0.368193
0.392946
0.374854
0.379207
0.470376
0.465237
0.41829
0.401573
0.425137
0.43633
0.49428
0.3927
0.412735
0.404933
0.374993
0.37711
0.374644
0.372244
0.394468
0.380352
0.374643
0.376184
0.41798
0.375056
0.376799
0.418574
0.637825
0.421115
0.407698
0.537908
0.409121
0.386488
0.396336
0.375559
0.472126
0.370339
0.381743
0.37513
0.372421
0.404965
0.372253
0.372527
0.35721
0.374426
0.37151
0.390986
0.382252
0.360526
0.38456
0.37389
0.361222
0.372051
0.37114
0.373406
0.392838
0.375258
0.376494
0.36923
0.451792
0.402033
0.402344
0.38563
0.428237
0.400053
0.4293
0.418964
0.500061
0.472099
0.386657
0.491526
0.441794
0.535585
0.372355
0.421072
0.391899
0.377104
0.374474
0.377896
0.376523
0.374215
0.382362
0.379003
0.425723
0.39237
0.419702
0.410284
0.382214
0.37613
0.414488
0.372511
0.40642
0.431302
0.407257
0.400541
0.359395
0.639298
0.439834
0.496427
0.7793
0.416478
0.38886
0.373237
0.37011
0.388991
0.386082
0.388583
0.379076
0.372131
0.368018
0.372428
0.415078
0.412576
0.402978
0.37103
0.414921
0.527847
0.374645
0.38973
0.535258
0.404512
0.396347
0.418945
0.395814
0.478717
0.386767
0.404282
0.441069
0.555648
0.782307
0.46781
0.417605
0.562916
0.422375
0.386328
0.381135
0.381709
0.570283
0.737794
0.418997
0.422935
0.396082
0.432399
0.597201
0.379592
0.391477
0.562452
0.434663
0.415033
0.812893
0.410517
0.372404
0.375129
0.374982
0.371453
0.382144
0.381231
0.375887
0.418804
0.381833
0.403272
0.373025
0.420524
0.411188
0.391024
0.397614
0.406482
0.386607
0.440645
0.375148
0.398264
0.391314
0.44631
0.445981
0.384878
0.400732
0.819157
0.661833
0.402142
0.432075
0.391339
0.380598
0.389091
0.382844
0.37951
0.399201
0.370729
0.374054
0.378551
0.37512
0.387604
0.379308
0.381525
0.373956
0.374902
0.389456
0.375
0.377271
0.380108
0.367226
0.397453
0.37861
0.388934
0.373026
0.374849
0.374661
0.371241
0.368336
0.474038
0.47046
0.459979
0.377908
0.371894
0.376967
0.383133
0.387916
0.464765
0.415731
0.707797
0.784175
0.768061
0.375298
0.436998
0.687611
0.406169
0.392812
0.420693
0.665031
0.368181
0.689874
0.372078
0.370555
0.377999
0.372856
0.369898
0.37144
0.374522
0.450957
0.543603
0.634129
0.377132
0.367381
0.376591
0.371446
0.384293
0.364716
0.610242
0.368706
0.384535
0.519108
0.372331
0.37571
0.376903
0.379408
0.539398
0.377829
0.377534
0.45303
0.385772
0.373472
0.374929
0.375471
0.376449
0.376373
0.409247
0.373554
0.368833
0.402046
0.37154
0.386491
0.416279
0.408826
0.447052
0.389891
0.535455
0.424368
0.377838
0.370821
0.438908
0.442155
0.376482
0.462663
0.404645
0.376867
0.368376
0.378526
0.363348
0.406355
0.395335
0.388758
0.425394
0.382365
0.37619
0.581546
0.481086
0.39233
0.373794
0.376902
0.380143
0.399357
0.42152
0.373356
0.390482
0.374504
0.569445
0.380965
0.491092
0.444394
0.37702
0.375261
0.387195
0.390255
0.384768
0.36102
0.369056
0.397583
0.379357
0.382376
0.369009
0.368462
0.373315
0.371097
0.396796
0.477364
0.381918
0.389142
0.397784
0.387683
0.374702
0.37451
0.370187
0.374214
0.372076
0.373516
0.383841
0.429569
0.41195
0.392085
0.452978
0.376405
0.410216
0.406286
0.385003
0.682533
0.427766
0.500848
0.427296
0.437791
0.386734
0.784106
0.467608
0.372223
0.63044
0.725307
0.422248
0.42917
0.422934
0.412769
0.378203
0.684322
0.465178
0.475275
0.45509
0.397019
0.812055
0.434404
0.380144
0.374608
0.396326
0.385043
0.400316
0.407871
0.42916
0.400984
0.483188
0.437968
0.395814
0.507046
0.572054
0.786208
0.794227
0.5968
0.783539
0.710738
0.649529
0.511626
0.38718
0.440096
0.448443
0.423027
0.450431
0.453671
0.717388
0.7644
0.657108
0.504799
0.698374
0.584496
0.638093
0.445314
0.443369
0.386128
0.383187
0.377889
0.379746
0.376874
0.376325
0.377742
0.376944
0.624223
0.571895
0.419071
0.376155
0.407335
0.374713
0.406135
0.380322
0.389055
0.381935
0.494077
0.406543
0.402125
0.414678
0.356751
0.373078
0.376397
0.366162
0.373948
0.376779
0.367149
0.453725
0.372886
0.384454
0.371278
0.427267
0.374362
0.489093
0.457417
0.742494
0.45988
0.456754
0.45916
0.476332
0.381486
0.370023
0.370478
0.416657
0.380901
0.386582
0.37009
0.383027
0.455229
0.652178
0.43567
0.439024
0.416569
0.388649
0.429487
0.528515
0.781869
0.430414
0.378659
0.448832
0.386458
0.394734
0.450476
0.539185
0.402447
0.380317
0.372114
0.394951
0.486499
0.46121
0.55345
0.371577
0.844084
0.370685
0.37693
0.382326
0.383781
0.376891
0.376432
0.370042
0.418565
0.386702
0.395008
0.418328
0.385517
0.388883
0.396845
0.420422
0.376065
0.449282
0.380725
0.358958
0.464738
0.395821
0.377333
0.375042
0.383346
0.383034
0.374602
0.411793
0.451713
0.432888
0.466407
0.553018
0.389577
0.405547
0.367204
0.380059
0.38379
0.387804
0.402299
0.439184
0.522033
0.525576
0.385444
0.77751
0.511297
0.614604
0.618233
0.370569
0.371206
0.387281
0.366081
0.377566
0.380837
0.372985
0.374013
0.38021
0.372313
0.375259
0.419759
0.500462
0.424396
0.447073
0.438227
0.443427
0.417663
0.37195
0.384103
0.372123
0.372491
0.373723
0.382377
0.428267
0.409378
0.395379
0.416435
0.404399
0.364255
0.3741
0.375559
0.400655
0.361399
0.361496
0.381902
0.389272
0.383174
0.365484
0.36914
0.370538
0.360684
0.382869
0.387593
0.374536
0.375239
0.383344
0.369945
0.392402
0.413766
0.396148
0.393937
0.393598
0.489481
0.494089
0.398868
0.374904
0.385788
0.369222
0.442592
0.378576
0.371732
0.452089
0.469308
0.410818
0.380599
0.43572
0.383269
0.389242
0.472238
0.490848
0.373065
0.422403
0.420077
0.381783
0.368843
0.442059
0.449067
0.479657
0.407784
0.372267
0.376095
0.372431
0.373266
0.371207
0.376418
0.382197
0.394811
0.383196
0.376898
0.372668
0.373272
0.371224
0.370418
0.37957
0.412001
0.417577
0.420625
0.377289
0.457352
0.469014
0.417654
0.374505
0.392178
0.403197
0.37528
0.639225
0.375595
0.421224
0.408243
0.371411
0.364695
0.390691
0.39059
0.389722
0.427738
0.361563
0.372701
0.365852
0.36831
0.3812
0.403366
0.372724
0.368016
0.376233
0.382331
0.375011
0.381068
0.380696
0.459851
0.464414
0.427544
0.500086
0.406968
0.403398
0.500963
0.433911
0.604457
0.656833
0.762357
0.585005
0.511361
0.372217
0.370105
0.390461
0.382955
0.456593
0.421626
0.376057
0.382621
0.378891
0.815539
0.693829
0.374778
0.37421
0.547631
0.378849
0.372496
0.415321
0.383991
0.520408
0.369338
0.370291
0.373978
0.766543
0.719818
0.671159
0.714233
0.396937
0.378687
0.372279
0.375808
0.368463
0.560704
0.375417
0.373519
0.374842
0.367389
0.375363
0.395241
0.375505
0.376325
0.379244
0.374981
0.422243
0.386462
0.538315
0.784865
0.746752
0.383507
0.680544
0.792844
0.384519
0.417925
0.800105
0.651479
0.808587
0.473901
0.448426
0.412615
0.66599
0.575689
0.434269
0.375225
0.371897
0.699915
0.693539
0.400587
0.394276
0.41522
0.392981
0.375633
0.395773
0.381729
0.381993
0.382175
0.381065
0.381268
0.415427
0.383421
0.377727
0.37237
0.37844
0.375278
0.372321
0.391546
0.368735
0.38295
0.381883
0.381224
0.37855
0.387185
0.365068
0.370293
0.370363
0.374281
0.397644
0.387648
0.369625
0.379412
0.374105
0.370787
0.486427
0.378951
0.380246
0.380068
0.388013
0.396085
0.596771
0.488566
0.38076
0.372167
0.38119
0.397993
0.375569
0.377616
0.380881
0.386433
0.372026
0.380284
0.379439
0.383228
0.386821
0.737912
0.391133
0.418169
0.396173
0.391883
0.374236
0.406991
0.401014
0.406184
0.406298
0.372469
0.419288
0.39304
0.454653
0.390655
0.618458
0.389567
0.381791
0.378993
0.44445
0.37194
0.404932
0.361508
0.386748
0.380523
0.379999
0.399761
0.384955
0.378276
0.378782
0.396037
0.366943
0.368095
0.368808
0.379348
0.384992
0.389307
0.374604
0.379274
0.37473
0.37405
0.376606
0.376673
0.463906
0.370206
0.378232
0.373694
0.370915
0.367436
0.36618
0.367153
0.370097
0.362199
0.359267
0.372451
0.372623
0.375842
0.372799
0.392307
0.366884
0.382367
0.364667
0.383166
0.365235
0.364926
0.374937
0.37197
0.743282
0.370896
0.370526
0.444679
0.43677
0.454406
0.425433
0.370145
0.374103
0.369529
0.384334
0.381922
0.370773
0.388049
0.374394
0.380213
0.37523
0.374196
0.386004
0.375502
0.373206
0.3964
0.374009
0.389112
0.370727
0.370109
0.38287
0.385359
0.385471
0.380669
0.381269
0.376212
0.379931
0.375535
0.379434
0.380394
0.392713
0.393019
0.400128
0.404276
0.400259
0.404566
0.403157
0.375869
0.37095
0.388045
0.37276
0.371718
0.366525
0.395792
0.365749
0.366175
0.618157
0.368444
0.755756
0.707394
0.368088
0.727845
0.367692
0.372963
0.368918
0.778397
0.374853
0.387507
0.44147
0.441419
0.395521
0.388596
0.398362
0.394439
0.391563
0.807711
0.581144
0.362793
0.404194
0.777668
0.495992
0.377642
0.410594
0.412024
0.402248
0.467032
0.656792
0.641708
0.384594
0.414892
0.484484
0.389884
0.441837
0.817128
0.523914
0.619324
0.431315
0.604471
0.657052
0.372568
0.777826
0.798321
0.379651
0.392328
0.375078
0.372476
0.38703
0.377334
0.392447
0.390875
0.391848
0.38023
0.37526
0.376454
0.375077
0.375174
0.405733
0.400631
0.415444
0.608161
0.64187
0.75463
0.376107
0.371949
0.369885
0.369595
0.392177
0.462753
0.383511
0.393681
0.389729
0.378046
0.392632
0.388882
0.38131
0.396353
0.389696
0.409481
0.389755
0.373091
0.376259
0.369786
0.4304
0.50551
0.410911
0.427398
0.593388
0.728036
0.49346
0.400868
0.384644
0.378971
0.393501
0.359083
0.367753
0.395552
0.374523
0.377821
0.370579
0.458912
0.403507
0.372941
0.372779
0.370939
0.420374
0.424349
0.377455
0.376888
0.408415
0.381986
0.388039
0.385837
0.448479
0.409804
0.392125
0.386722
0.406518
0.383196
0.386778
0.448568
0.369591
0.38237
0.383265
0.379434
0.379514
0.377331
0.382345
0.374928
0.372158
0.379529
0.366689
0.390902
0.373364
0.727725
0.372919
0.400873
0.372748
0.437235
0.794052
0.38959
0.441072
0.390234
0.375378
0.380636
0.3719
0.394473
0.377549
0.377384
0.387534
0.409497
0.430349
0.385076
0.395239
0.386413
0.381154
0.37586
0.384443
0.372082
0.497915
0.460729
0.438163
0.394789
0.429008
0.47171
0.460546
0.407235
0.387735
0.405704
0.401564
0.392649
0.387232
0.380414
0.377554
0.365089
0.390499
0.363756
0.363502
0.384854
0.37396
0.415024
0.480588
0.401499
0.383992
0.378812
0.387247
0.378159
0.386886
0.386079
0.378686
0.75151
0.38125
0.37841
0.36994
0.380728
0.379116
0.383407
0.416832
0.404924
0.383085
0.374554
0.408515
0.392666
0.368628
0.753236
0.703258
0.384158
0.855186
0.382431
0.388349
0.372247
0.373752
0.374544
0.391384
0.374991
0.381976
0.38288
0.374963
0.382586
0.378648
0.373857
0.372438
0.370569
0.373691
0.369032
0.371928
0.37773
0.376844
0.558441