/*--------------------------------*- C++ -*----------------------------------*\
| =========                 |                                                 |
| \\      /  F ield         | OpenFOAM: The Open Source CFD Toolbox           |
|  \\    /   O peration     | Version:  2506                                  |
|   \\  /    A nd           | Website:  www.openfoam.com                      |
|    \\/     M anipulation  |                                                 |
\*---------------------------------------------------------------------------*/
FoamFile
{
    version     2.0;
    format      ascii;
    arch        "LSB;label=32;scalar=64";
    class       volScalarField;
    location    "0.0263738";
    object      omega;
}
// * * * * * * * * * * * * * * * * * * * * * * * * * * * * * * * * * * * * * //

dimensions      [0 0 -1 0 0 0 0];

internalField   nonuniform List<scalar> 
3991
(
83.741
104.022
50.1025
102.738
122.747
114.757
743.285
663.938
66.1127
54.0742
58.1589
56.8674
127.511
56.6052
669.072
125.079
54.5249
188.957
75.0261
1114.49
79.76
723.074
106.343
100.825
64.2869
134.625
152.296
76.8704
54.5547
48.632
237.704
58.4144
834.882
52.1801
82.9205
127.569
905.325
1020.34
56.0728
59.7757
1005.09
131.217
59.9214
129.843
108.55
935.534
1013.98
49.5715
60.9599
133.065
80.4462
867.201
899.714
110.495
96.5296
56.307
50.6708
70.54
156.399
109.022
132.291
165.601
80.816
74.5249
74.5427
60.1661
53.6799
74.1982
745.169
61.5502
68.0111
53.9486
305.702
87.9653
101.079
68.1065
309.885
71.8852
55.1819
523.902
53.5499
55.8729
243.747
52.761
117.613
173.768
88.3677
116.71
268.352
66.3638
60.3664
56.4319
68.0716
318.29
71.7285
143.764
202.416
88.5113
548.032
51.0818
58.3428
61.1302
546.591
48.7929
63.7654
448.042
57.8145
2013.5
1508.5
175.601
1463.48
67.7823
524.971
51.4395
55.9435
1868.14
1922.55
442.011
49.3768
58.7879
609.073
125.404
63.7493
56.882
359.037
62.9233
56.4422
140.342
184.056
254.208
61.3209
72.2038
52.9588
56.2389
57.9703
55.1263
54.0188
60.8852
63.1826
98.4937
60.5346
121.019
322.549
119.676
52.566
62.3047
65.2323
151.316
556.247
102.562
86.7006
524.42
1060.3
556.15
469.239
319.473
113.331
431.152
707.53
129.599
62.5812
152.362
83.9054
156.415
732.983
163.742
54.8323
185.281
234.659
159.857
81.9783
73.7808
789.43
366.064
609.992
767.212
210.107
56.6241
52.0129
207.908
76.9659
67.597
105.237
461.75
100.106
49.3599
51.5999
51.3064
52.9822
1382.98
382.765
179.325
1025.16
875.368
103.29
984.325
71.2262
74.7208
1410.33
59.2908
104.847
112.477
112.109
53.2057
58.3935
91.313
78.7605
245.469
55.2464
104.682
303.452
55.7144
75.0101
245.766
51.5749
72.6585
70.0989
562.001
722.232
647.161
64.7438
388.889
67.4794
276.003
78.9804
146.329
199.419
61.552
50.312
214.869
66.7596
62.3885
211.67
234.648
56.0638
145.453
62.884
177.79
54.1259
828.577
332.123
205.352
929.857
79.5996
1526.14
56.0025
51.8099
54.2353
65.9038
92.8432
106.007
67.4691
63.9499
65.19
63.7245
54.0184
83.5584
207.656
65.5338
227.514
808.993
249.394
1681.41
775.604
78.3528
1866.71
1100.25
57.8812
224.296
119.11
1478.45
126.101
58.7164
318.27
1469.68
87.5806
61.8008
81.7752
54.7174
56.6279
88.1588
267.501
55.8692
727.675
56.5964
249.112
67.3018
428.395
1178.04
59.3205
581.255
515.215
53.5243
316.581
51.6872
51.6906
58.2479
50.0522
53.5223
51.5304
57.5578
50.7236
83.8276
52.2261
113.359
195.278
51.273
1606.37
63.8971
114.535
54.8716
53.526
51.4153
55.8171
206.26
117.76
523.589
68.5207
77.7537
138
63.2893
54.0125
55.3311
57.8635
74.9998
124.825
54.0171
63.6156
137.014
622.623
1170.16
586.676
60.3131
58.5095
305.851
115.326
207.747
53.7917
111.005
58.5395
211.209
50.7135
83.4957
69.8031
48.4839
58.6014
63.6562
161.439
161.719
152.309
104.506
57.2331
53.3375
889.884
128.855
950.053
65.6383
50.8432
918.129
297.328
129.94
75.8071
60.9215
717.957
60.9832
64.1499
64.0046
67.442
75.1643
161.959
125.928
60.201
217.699
1170.49
58.0176
125.558
98.0029
66.3733
104.699
58.5072
1398.03
1335.08
294.575
52.1023
59.986
56.7447
199.479
1086.68
1574.95
132.26
165.571
1226.1
138.133
65.1444
57.6206
1085.94
64.455
51.3255
825.142
662.759
56.2326
295.946
992.146
157.71
643.324
74.6649
1107.86
821.124
1141.69
54.3581
64.9516
572.989
578.7
850.426
179.135
199.647
101.905
594.192
117.18
125.004
158.624
494.441
169.542
56.7756
48.3929
120.116
113.077
877.638
690.034
66.5853
898.867
145.889
344.902
54.6147
55.9887
52.8442
59.5947
53.8062
131.723
205.317
166.546
140.729
175.161
211.206
98.9204
60.8174
74.4285
70.889
161.774
67.9839
155
172.172
279.928
69.7737
69.667
84.4763
89.3668
58.8717
66.8722
63.0169
73.8153
62.0075
74.7946
101.712
106.451
79.8185
121.701
69.9199
70.931
184.88
223.864
91.2485
83.6532
68.354
91.0596
73.7447
57.5877
59.3774
61.0965
60.2177
66.302
1788.82
1927.76
694.844
735.011
611.068
288.635
136.255
488.234
107.851
76.4653
60.0299
75.5113
322.976
710.075
154.784
311.058
412.926
58.2702
58.7063
50.0575
52.0489
118.504
52.7035
49.2949
48.6068
150.27
48.5994
57.3459
84.2359
60.2715
57.3425
61.0096
48.9837
49.0489
48.9625
114.102
57.2408
57.621
62.0306
55.4092
71.7027
55.5322
53.6001
55.0647
79.4149
87.3173
59.6128
70.5415
74.0559
89.0435
67.6805
59.0259
60.3398
231.969
94.9112
200.596
121.308
141.578
166.373
331.366
1043.07
842.902
455.107
500.41
172.332
54.7291
645.589
257.722
180.427
212.44
68.0733
68.9918
52.784
52.9155
57.337
54.7471
53.1644
54.8062
53.5222
57.1521
189.611
193.321
186.822
258.918
164.616
284.733
329.213
69.9073
426.068
63.0655
1166.07
324.496
503.243
233.488
1158.98
73.6552
82.9596
56.9135
86.7189
289.103
829.109
1157.42
632.513
1323.3
103.667
119.646
1414.29
467.028
994.996
54.3202
207.278
193.834
240.969
117.223
591.337
49.8049
128.508
707.743
54.7853
1749.61
541.515
57.0551
765.977
183.772
48.7615
99.4018
169.459
90.6784
197.47
252.795
52.9002
56.6226
51.9382
144.273
1742.72
795.305
1921.69
53.8692
53.2678
203.357
82.3876
140.133
99.401
50.5214
220.599
56.528
77.3444
61.3742
59.3518
175.612
56.7974
66.7137
50.518
75.8479
129.397
258.82
582.763
304.096
55.5447
56.9707
53.1597
137.295
855.059
385.411
1232
130.652
55.6492
74.6506
255.989
857.869
526.107
74.2638
169.098
369.104
184.988
54.8982
147.982
53.2161
56.8155
55.8839
92.9516
83.0248
108.85
60.7935
502.54
53.2714
52.1858
125.042
668.105
122.089
117.14
151.902
69.6498
131.957
85.548
72.1576
210.799
1350.09
83.461
459.274
785
1143.56
80.6853
105.317
1697.03
262.384
967.472
1237.46
769.996
750.168
53.3865
1369.78
51.6811
173.51
286.89
76.8387
113.54
49.1222
132.76
75.1682
48.2695
58.6205
58.2922
730.475
696.622
741.698
711.873
110.614
54.2873
575.931
67.7738
903.675
70.8537
56.3349
71.6409
53.8393
240.826
187.408
117.282
115.928
53.8168
1156.47
161.021
173.157
239.465
225.866
69.8415
1121.4
112.616
1516.63
1158.33
943.192
875.728
1045.76
1151.02
571.271
598.108
1919.37
1864.24
742.132
69.0418
304.86
197.63
543.019
722.048
61.2649
264.492
120.094
250.041
164.258
241.154
81.2397
113.373
141.017
79.5028
656.548
103.881
167.408
93.0892
110.314
69.4126
77.1049
64.0406
61.8376
82.7771
1007.89
466.529
720.054
231.143
627.688
78.7324
82.3344
109.656
1122.54
71.499
56.0014
98.6787
73.1717
61.5291
52.5172
55.6784
51.8202
55.7989
53.0537
49.9117
50.4567
49.3332
48.1076
48.5978
50.4578
49.1392
69.6216
49.2053
49.3884
58.2849
50.5906
52.0231
102.142
197.369
1055.36
819.496
258.063
187.861
352.367
120.488
126.888
142.681
207.723
174.2
60.9271
53.7287
63.2342
59.0245
52.5962
56.7812
60.9715
54.9027
53.0468
54.6034
284.819
257.11
177.19
223.311
184.784
99.4065
49.7277
54.0273
62.6396
65.3575
72.4539
62.6771
61.5271
106.917
121.251
58.4575
61.9339
60.0029
64.6344
62.7384
54.2957
119.9
275.238
265.919
216.056
52.8853
86.806
60.5364
59.7466
216.568
119.356
436.017
63.1305
97.1124
681.762
57.5772
374.672
1298.59
643.762
61.6332
1118.95
244.666
381.633
66.444
97.5359
76.1768
213.074
108.317
62.6214
123.673
105.466
63.073
56.0325
261.245
60.8097
64.2435
341.638
99.4349
103.777
62.9675
716.855
712.21
100.948
121.261
210.35
234.566
629.154
204.404
73.8197
563.483
571.673
54.4368
161.729
171.384
321.794
550.276
532.396
543.914
1354.3
1589.63
63.1978
56.6085
142.38
56.7205
1507.84
550.581
1616.45
59.9661
238.645
53.3473
62.9592
78.3967
50.1762
1956.54
66.3688
57.4456
99.8041
681.137
53.2239
352.768
59.9007
104.047
80.5277
57.4503
137.256
60.5548
77.0154
58.7377
1101.27
53.8688
59.0065
54.2435
62.2163
54.8469
705.047
99.8628
749.574
510.672
197.563
407.031
403.424
53.2489
150.901
1043.96
521.136
57.4287
74.9115
183.947
122.76
1720.07
656.666
168.4
186.018
366.755
151.391
87.3095
62.7453
2095.7
105.476
56.2891
1465
83.9716
94.5996
55.8702
83.5779
61.5046
60.3226
52.4918
63.4786
116.802
802.62
1155.53
50.7209
62.7413
63.0247
128.187
135.321
1041.06
419
51.6174
556.399
124.542
107.687
53.7043
51.6543
52.8481
49.1583
66.7861
64.9276
175.652
51.126
50.4381
49.624
50.4831
69.2569
71.1576
109.705
51.6671
53.0842
52.796
61.5673
83.6052
80.213
57.2673
55.8087
126.545
87.0077
78.087
55.0659
52.8366
149.799
97.5985
112.089
102.368
73.4842
61.3887
320.141
994.934
51.9498
59.7401
64.8203
68.7201
56.1916
59.7981
57.6782
55.0719
48.6212
71.6004
1363.24
360.422
578.359
209.66
59.8377
54.5404
51.1382
68.2997
61.5811
71.0211
167.168
81.9578
53.8229
889.179
56.4683
1388.53
83.2435
123.411
69.2249
284.906
91.7603
88.9796
370.701
93.5396
252.534
78.7966
66.1542
52.4801
264.608
73.9084
80.4575
110.564
60.3498
1311.47
1122.71
109.939
222.597
78.5645
116.464
85.9769
72.2943
50.6215
50.9778
50.9151
56.3278
52.6004
111.491
94.3628
63.0221
252.947
66.0176
330.06
136.738
1567.02
2427.93
1343.6
952.043
1936.74
341.221
127.286
1260.66
309.344
1258.35
63.3549
770.688
797.937
102.238
128.178
96.0788
120.409
635.819
49.7453
49.5352
66.608
65.7155
441.691
74.342
708.57
998.183
65.3802
688.679
70.5126
295.889
177.437
82.2464
989.446
205.528
60.1937
2547.33
93.0445
2248.19
603.732
1111.65
1876.29
780.671
588.842
599.054
1276.77
1412.35
81.3785
54.7398
75.4282
105.413
99.1898
59.1523
50.8389
110.947
110.836
173.693
62.2136
155.544
56.2687
83.9547
989.398
59.2263
816.93
62.1828
1074.57
1099.84
835.554
150.957
195.827
471.184
611.162
1074.36
960.861
775.897
795.096
118.786
124.533
313.42
289.197
557.422
219.625
681.925
297.026
154.414
51.0447
54.8865
57.2921
56.8174
58.282
52.0255
52.6017
54.3893
1778.38
1668.8
1823.88
1689.31
1903.67
1341.59
584.597
596.434
557.363
514.252
192.779
212.239
144.598
259.263
184.479
385.829
282.14
82.876
102.261
764.221
188.397
79.4094
525.522
213.364
488.329
397.898
139.101
1070.34
316.69
54.1494
52.2506
69.0988
74.0139
63.6628
1134.25
193.614
807.7
183.617
508.764
296.827
62.6067
78.2818
93.774
72.2682
64.6609
78.272
81.6109
68.5849
169.477
188.112
175.878
60.3626
60.1829
1213.49
57.265
68.6461
76.0268
92.277
79.5596
958.634
994.505
60.301
432.349
51.18
520.942
462.336
514.342
635.268
1050.21
561.832
101.906
111.87
167.19
70.7843
63.4408
68.8689
78.8728
68.0748
67.8787
691.11
356.674
186.547
161.449
306.186
371.383
559.476
467.152
49.3966
49.0076
48.4407
295.109
50.2606
50.367
63.4811
53.5911
52.5059
56.9422
163.849
110.231
55.6173
54.7581
205.486
52.8075
52.0331
57.5937
125.678
73.2538
62.0649
55.1658
58.8535
224.409
419.811
187.624
147.434
175.526
251.794
60.9439
60.5083
53.8959
106.723
55.7772
53.6926
54.7473
63.6509
87.0232
146.352
56.5639
51.0917
861.641
63.2227
60.2435
1716.14
79.6171
50.6738
122.864
49.0826
110.263
125.145
74.5898
53.4109
51.1565
155.568
148.643
50.2521
54.9028
90.0823
49.9703
58.6323
149.465
71.679
48.1781
74.8523
61.2527
78.9561
56.0748
86.8574
52.073
50.5661
51.5136
58.0558
400.06
122.581
154.187
73.8952
618.782
226.644
55.5275
479.059
65.5419
57.5548
72.5174
340.283
51.2286
343.16
95.6303
56.2836
58.4128
66.8273
118.23
71.1669
103.044
171.426
49.5537
143.707
54.3018
63.9812
103.872
82.9954
255.219
83.2981
60.0516
640.519
53.1889
72.0992
342.863
105.988
61.1961
937.581
84.7024
704.244
1021.68
50.3654
206.099
915.577
69.7734
54.9582
57.9921
51.0604
53.1153
63.4592
58.7267
560.366
1075.74
1382.69
1172.03
49.2034
53.8186
50.4835
56.4742
52.8389
50.4966
64.0726
431.466
91.195
50.9772
58.2216
55.4789
49.2268
74.7361
433.424
1111.45
671.963
119.267
94.6183
75.5935
72.1563
99.1705
48.1874
51.2704
61.0781
58.6963
68.3793
57.1262
62.3606
59.0029
223.166
904.65
116.728
157.527
63.4129
63.6009
187.186
118.592
146.58
99.5406
135.745
57.9273
58.1376
67.1129
499.339
185.496
136.047
70.0872
176.759
475.759
570.692
258.636
106.714
211.095
696.13
66.2405
74.0995
155.65
242.04
54.3395
88.6989
119.186
161.926
58.069
67.8603
87.0769
60.5152
52.2565
59.7782
59.4418
62.1495
206.346
109.877
125.663
207.297
57.1488
426.084
213.165
465.79
194.466
744.984
585.813
464.078
50.9219
238.607
634.447
699.083
788.266
754.391
68.0161
185.627
70.9447
80.1364
172.317
67.3134
102.504
475.206
248.074
676.129
115.319
597.471
211.743
838.481
689.427
1161.81
736.649
100.095
75.8782
72.9718
72.1095
77.9584
262.526
671.046
63.2377
113.366
1210.63
78.0407
77.6918
85.9479
69.5153
131.606
668.3
71.836
569.327
1220.31
69.2848
72.2406
56.4018
68.2996
92.0668
59.7387
102.809
120.954
50.4297
134.432
100.742
172.926
224.152
361.817
70.0617
211.522
502.567
646.807
60.4279
63.4153
138.427
54.061
57.6657
51.4276
81.5479
134.284
863.69
1064.55
54.5147
943.141
1644.66
2459.77
1064.26
1517.44
72.5097
104.66
86.7945
68.9715
104.678
91.018
74.0607
92.527
1335.71
1410.87
1339.82
967.228
1096.87
754.268
689.985
606.315
642.083
807.402
318.688
804.118
720.257
446.3
1489.99
1021.13
1852.29
995.98
1431.27
677.796
293.961
252.172
561.576
518.211
72.2277
344.422
1258.35
441.652
76.1947
828.579
65.3594
115.047
57.6823
94.3176
106.548
67.786
127.008
86.0747
82.1503
178.332
56.4354
59.3257
104.6
206.825
56.9879
965.587
1046.58
1885.67
89.4068
632.72
324.085
709.055
61.2803
139.417
919.579
135.129
587.335
58.1649
385.891
311.43
90.7933
98.6303
89.2629
61.9418
52.8529
95.0497
237.803
142.147
340.434
246.354
81.6521
70.243
88.8049
124.728
162.364
88.5747
59.1699
71.1824
73.7854
80.7998
138.017
494.972
174.93
130.455
1125.49
613.929
1806.95
89.3125
1241.5
206.24
142.507
1896.51
168.129
172.913
106.813
65.8751
61.5659
49.5096
54.1727
104.176
61.4051
53.8695
48.561
49.5088
54.5189
54.2742
588.816
55.2737
64.4224
1105.62
52.4372
69.3674
51.6991
406.45
71.1025
61.426
62.0938
93.8754
55.1246
71.7784
959.06
73.6381
316.624
49.4967
52.1433
60.7068
144.552
830.056
63.4418
99.0469
67.09
115.638
573.606
63.8982
122.636
553.533
851.744
350.487
119.016
86.5467
74.643
963.474
114.301
688.23
1951.15
52.1823
61.9971
216.63
56.8607
81.6237
1327.34
1028.14
916.431
73.8194
147.742
64.0748
55.1983
90.3473
109.494
73.5633
117.602
81.4875
136.59
66.4141
52.1389
173.493
69.0295
58.0466
49.1656
89.6418
76.1812
1079.47
1606.1
301.237
128.47
1720
118.726
175.318
347.929
1300.4
767.468
554.268
600.377
903.763
1077.86
256.972
199.314
102.642
64.4534
71.9662
881.833
61.0794
503.788
1703.03
108.399
364.372
1178.18
77.8873
50.3875
79.0898
873.498
75.5242
490.776
1267.66
511.579
57.1452
54.5015
58.5284
789.379
1051.75
104.725
772.324
1779.59
1418.28
1985.04
1202.01
261.143
319.746
268.331
909.272
251.812
655.363
838.912
896.181
952.39
911.341
93.8989
53.2601
50.8079
50.9115
92.6333
275.12
52.2275
56.1512
180.069
624.004
306.204
115.122
175.51
1054.22
159.515
82.2343
74.5166
58.0515
282.88
59.1777
73.8028
81.3752
393.036
74.9251
100.947
683.289
259.136
726.617
108.783
380.678
1794.84
72.4376
801.279
144.828
247.098
57.9572
97.6303
54.0213
453.053
455.038
59.0131
232.709
120.706
54.4871
114.716
503.428
532.679
269.411
159.763
187.239
103.637
131.014
155.391
193.857
230.767
278.455
407.677
651.865
200.519
60.4854
117.911
259.858
56.7683
61.9205
59.7313
990.638
250.64
70.7095
1059.54
122.768
118.283
245.661
676.283
123.324
66.6386
502.067
53.6655
65.6606
54.9968
60.7745
54.6649
117.868
63.4442
79.9101
120.6
59.2692
114.788
53.2598
67.3327
170.353
220.965
178.959
184.145
168.037
109.979
85.2077
129.891
181.777
219.758
67.5781
427.314
1162.64
711.533
152.332
154.615
140.948
152.674
114.612
113.104
59.9651
66.4009
50.5661
94.717
54.0369
52.1888
54.6954
78.0189
54.8884
53.421
56.0764
56.6103
70.3206
97.8858
96.3174
75.2615
760.819
112.043
105.264
106.315
63.9981
59.7708
71.732
68.4343
57.6415
51.7694
53.0445
53.1111
49.5404
49.9159
69.1519
60.8094
71.1714
215.095
378.602
59.5716
69.7495
81.4116
59.0813
50.7306
55.4274
1518.68
51.5491
54.2465
55.3646
58.703
72.3595
69.085
60.6891
58.372
83.7473
65.1495
77.16
149.897
79.7528
65.4968
142.484
51.3405
52.9909
61.9658
76.1316
167.439
81.7139
138.787
52.7186
195.169
61.4426
66.4004
58.499
66.9532
59.6841
70.5755
60.365
70.007
77.7205
110.593
69.4527
207.086
93.7583
165.722
77.9594
49.8001
50.0399
51.46
54.6271
48.7242
302.187
1491.41
1094.6
1047.25
614.902
149.482
102.829
102.962
173.472
59.0818
87.859
168.558
566.237
85.6912
58.943
187.631
107.566
805.512
174.107
952.052
873.017
1901.49
560.066
244.967
483.011
238.935
142.046
1536.02
1301.74
1642.13
1390.53
1492.64
112.769
815.48
58.4263
1046.89
814.775
71.5265
228.577
634.585
1205.28
281.895
1939.44
1371.93
686.347
1114.38
316.24
355.751
76.2734
113.818
174.914
719.105
420.274
1400.09
1378.55
1316.96
1079.1
136.391
767.655
329.026
777.498
1787.5
735.418
92.2455
723.011
540.222
58.861
768.833
753.112
1214.11
1395.31
1445.04
1524.65
71.9029
156.173
334.064
221.872
262.85
144.748
58.4217
101.126
221.455
484.614
125.188
89.6249
73.2254
91.5978
363.339
802.201
1038.53
101.487
294.036
610.752
2055.51
407.617
51.5907
298.073
52.6834
1247.57
151.284
63.4289
102.552
490.159
56.5304
63.5006
89.0993
285.156
85.9787
127.714
131.661
600.004
868.862
48.5019
48.6199
115.073
1747.48
1105.95
56.0457
54.7807
84.9592
142.755
61.5682
60.4537
116.427
120.723
557.463
154.251
308.884
52.4959
177.61
511.432
541.473
72.7761
706.393
77.3964
169.526
1003.98
61.269
58.8
61.0292
98.4088
92.0665
79.0891
63.4449
58.4645
53.8604
90.3908
49.0777
66.2118
59.5535
80.1049
87.0336
268.362
1123.44
74.4079
79.5613
79.1871
150.435
62.4964
73.5001
59.7873
80.9425
1065.62
100.544
54.9141
51.2861
58.2613
67.0244
52.0778
50.115
54.8772
187.253
51.7786
79.4164
52.059
1733.68
765.322
54.2282
113.431
1502.48
2332.14
676.034
299.039
71.0311
53.7036
74.5574
104.537
63.3792
335.533
1134.7
832.062
65.5617
50.2725
54.8583
131.892
75.4927
58.289
80.795
227.085
252.464
995.095
457.745
88.9297
843.659
50.5059
72.3343
1036.32
71.1654
68.0322
993.139
830.921
619.87
1117.18
141.578
103.2
62.5421
52.6025
81.1956
56.3615
61.0397
560.752
55.5708
52.9019
73.3686
74.1973
1643.78
1239.55
52.1477
101.862
305.147
286.628
74.0327
55.3247
122.012
136.065
188.491
143.168
443.548
1777.87
175.408
55.0951
160.661
175.336
253.329
235.925
1148.46
1355.57
225.026
117.871
76.2604
282.353
80.051
847.693
229.438
57.9009
52.4318
69.3047
54.2237
146.792
71.838
50.3665
1840.56
51.1119
57.5763
52.4617
79.7894
90.2662
93.6477
49.609
55.3917
53.7467
59.4203
238.476
178.474
1076.7
74.339
63.6207
58.2035
51.3211
72.2841
58.6002
55.4073
55.036
56.6287
60.3942
61.1405
66.9963
59.9705
55.8954
1133.64
1039.97
631.01
68.8742
54.5162
850.884
59.6598
628.694
648.235
57.1465
1292.91
1275.16
153.881
322.336
1418.29
1026.19
1037.98
67.1216
68.4491
112.889
61.1898
109.039
89.6782
771.432
81.1725
65.1581
70.9546
93.4575
56.4094
109.172
58.9724
115.968
54.8072
60.579
59.7119
112.036
58.1954
55.1337
1233.74
49.8157
57.6664
530.62
99.8475
127.648
229.122
132.397
54.1637
59.4351
81.8462
70.7939
86.5855
85.3193
398.916
68.5661
927.248
111.833
217.657
115.014
59.1382
59.6459
56.9273
60.0453
49.4981
157.656
1155.8
49.2657
51.8385
53.5868
68.4207
144.296
946.185
112.379
248.009
104.294
139.327
76.4509
62.4786
59.3987
1264.67
187.313
382.118
75.4073
56.4471
72.1273
390.615
359.482
78.0766
943.615
90.2016
237.81
81.3521
62.6947
416.734
929.584
58.153
379.844
222.565
593.334
70.404
450.354
1218.6
325.995
78.9219
366.115
893.894
997.356
606.201
76.1087
59.8609
230.037
61.6443
57.7972
54.9478
148.469
58.1931
114.043
52.592
52.4029
56.6233
54.8137
75.9678
56.6143
52.5746
80.8305
125.271
49.0522
61.3528
51.5631
61.3891
57.0618
780.53
241.96
319.613
630.542
91.4332
54.9812
82.9825
736.588
60.86
58.0956
59.4741
63.7708
61.6965
126.498
71.8801
331.954
60.0191
143.258
78.5013
52.1948
109.043
98.5908
509.84
1924.9
2270
2420.1
239.465
1227.99
139.455
276.58
107.198
252.35
939.776
90.6492
1294.45
128.971
70.788
88.666
130.769
122.659
64.3915
253.706
76.2435
96.9949
1095.24
486.901
273.986
684.797
1311.93
1644.68
53.0801
52.964
58.1578
58.9248
50.0015
50.9994
53.5265
56.0632
50.4159
55.5202
72.0227
108.952
59.0277
211.418
62.4475
50.2362
52.1032
93.9962
373.918
72.7106
51.6842
48.1639
52.1087
53.9115
51.4742
50.9179
56.1932
97.5996
69.2258
69.1924
51.9251
57.1817
55.6308
92.9917
876.687
1126.61
122.084
74.0688
53.0877
1519.84
114.482
1581.79
48.5421
49.7488
56.2482
184.193
67.6555
52.4809
53.8391
67.8134
88.4211
170.311
105.927
54.2232
106.624
57.8219
108.332
75.0383
292.861
120.252
204.738
77.278
164.432
1143.03
1168.21
941.217
1175.54
826.594
84.2261
64.1613
68.7473
62.289
822.577
187.299
109.558
871.797
641.948
159.85
1120.78
50.4347
52.7816
56.7562
57.6103
330.523
103.002
1681.73
1475.18
1110.47
1060.35
716.811
63.277
83.3632
2039.56
53.5334
1192.8
255.759
65.1299
876.126
1336.26
1529.13
224.739
937.503
71.7788
86.3314
64.8378
1231.1
69.6761
166.535
778.484
1545.6
295.989
77.7874
66.6279
980.333
175.095
88.3223
626.298
237.75
59.2244
60.4779
573.546
844.733
65.1712
61.0304
74.9277
66.3333
57.7604
303.25
618.829
156.279
63.6316
57.9328
56.6847
58.3929
55.8899
56.9745
56.3251
73.6893
101.089
56.3382
51.3108
49.8581
167.083
124.871
48.7135
53.2877
52.1895
52.5265
52.285
52.5228
49.9462
49.4184
143.626
110.017
140.436
117.235
147.258
61.7015
82.8805
73.9925
1714.69
370.191
1030.99
53.6689
179.62
154.471
893.182
417.233
448.594
508.587
56.8258
207.516
1008.94
2416.15
957.213
1832.91
73.1113
1942.71
702.38
1017.88
221.659
114.989
130.16
99.7356
910.912
286.4
966.821
1740.18
217.754
251.222
1246.07
301.896
1390.76
273.616
643.225
268.43
54.3662
328.416
403.49
459.458
60.6912
71.1194
69.2855
57.62
726.341
221.006
94.8964
1304.05
1209.26
1006.78
1316.42
1668.84
1061.76
88.6883
76.0096
118.98
90.2138
65.237
71.3299
182.725
65.3074
49.1897
63.7004
387.008
741.923
72.834
57.5007
55.4438
54.2157
110.409
73.3553
72.8294
563.388
843.73
66.5024
320.17
54.107
50.746
1410.51
75.2325
125.353
939.46
150.505
176.831
148.65
116.344
99.9238
576.383
105.291
60.0916
67.6543
133.534
82.5784
69.1999
304.447
62.9391
61.3892
56.1541
58.3889
74.305
91.3991
93.3244
105.174
77.4201
241.574
50.9222
179.912
49.7668
64.9872
49.4722
55.3176
57.2608
123.987
54.3477
69.1672
146.759
55.6649
76.9562
60.9963
774.776
248.599
188.607
87.4215
108.027
353.868
148.333
191.803
186.56
2299.96
55.9913
54.8842
316.575
371.464
71.1712
62.4301
64.3206
68.4152
66.0896
60.7828
130.215
55.3076
57.0346
85.7242
495.508
52.7925
50.1576
53.2686
53.9987
108.213
72.1801
51.4005
60.0951
102.629
234.339
1765.24
345.868
1429.94
430.42
1449.57
107.925
57.605
667.622
112.95
57.3361
1711.13
65.2849
193.133
232.748
57.7538
627.063
58.815
61.0087
614.818
194.999
117.612
189.746
1168.11
1733.05
66.5042
80.4133
455.919
54.6486
559.27
69.3696
1344.73
243.811
177.325
94.6358
59.8144
1002.6
629.327
733.793
54.7465
59.7054
146.791
62.3895
95.3362
69.7691
63.9092
58.2146
102.268
84.468
213.219
52.6694
64.5411
81.413
101.645
67.4025
56.5127
52.189
102.919
139.777
288.894
135.721
262.889
92.3308
50.6237
1332.79
71.374
97.7495
67.1245
60.9774
59.9695
58.7539
65.8947
67.0157
58.8752
62.5731
78.3996
61.868
68.0779
121.504
140.302
341.513
135.665
51.9196
50.9178
55.4325
83.4158
246.315
137.636
60.6325
58.6123
57.6738
54.6478
51.8847
52.2076
56.3913
52.7088
55.1054
49.2483
66.1134
51.6721
59.9697
50.5335
50.3577
80.8792
75.2409
69.722
76.2244
114.443
124.43
94.8321
148.931
139.009
75.5868
311.861
203.913
55.2106
68.1118
215.296
100.949
63.9871
366.52
732.756
207.981
79.0033
72.7562
81.1713
64.3782
121.736
175.028
529.61
73.6232
432.641
96.8416
119.584
159.974
356.067
77.3833
211.199
74.9341
69.9323
129.87
90.5755
55.9616
56.0302
58.7636
56.7043
932.194
315.431
93.8488
137.679
861.914
55.0506
63.0855
55.2844
58.5923
71.6398
59.813
51.574
50.2899
54.1747
52.7517
56.0511
93.2021
52.1667
81.4454
118.299
48.6511
85.1816
78.3129
95.467
352.078
54.6035
97.2401
52.0896
559.041
87.904
59.8383
109.509
1043.83
1218.5
336.209
116.121
303.401
111.231
53.5014
56.5494
64.2181
59.3224
70.284
169.405
555.895
994.004
972.128
409.546
639.32
1028.35
908.223
1381.54
53.3339
58.3856
55.2928
54.9009
52.2567
61.2522
60.4516
105.792
97.8929
63.2992
59.79
53.8002
102.129
240.558
54.4675
53.091
55.4166
53.7109
212.587
61.1246
71.7053
148.273
116.172
64.512
158.706
83.8564
153.641
53.5181
50.9266
54.7333
87.5266
1204.07
107.926
55.4062
65.5329
51.5104
59.8358
76.2439
101.921
56.7487
54.8286
51.083
68.4795
74.1739
58.3391
112.624
222.319
55.8183
268.417
672.318
72.7957
1003.08
1957.26
1536.11
999.228
292.062
1163.55
2426.46
80.3606
50.3381
54.9821
110.774
115.634
79.4144
49.8583
55.2646
103.841
62.7154
86.3953
55.6891
56.6328
64.1155
72.9664
60.2604
50.9331
49.4685
55.0383
51.0451
158.449
52.773
51.8528
54.2827
51.5548
51.7664
58.9855
74.9244
51.4984
50.5344
267.361
672.254
205.144
60.4116
74.3352
470.258
194.054
128.532
1088.96
544.208
268.902
98.3723
94.7057
245.593
1292
132.272
888.989
116.401
106.083
53.3961
74.7064
56.5401
60.0545
138.881
55.441
57.7289
55.9092
70.7282
268.011
91.2931
792.535
60.6324
125.875
64.4917
59.5366
94.2665
57.3125
52.8049
54.9371
51.8692
51.5107
56.8354
65.0057
110.903
50.8548
60.5378
783.815
478.404
58.6357
82.0751
257.154
829.33
62.2407
63.0584
83.799
71.7963
50.0365
62.0508
200.362
282.308
2310.39
1032.24
1573.82
323.462
1026.34
1242.12
111.41
71.9098
124.115
267.538
79.7497
105.015
639.068
654.007
598.935
275.473
89.1372
658.261
1831.45
1417.87
1167.87
1315.41
1292.5
1195.95
877.558
178.46
824.527
1125.6
1024.08
1078.03
55.1222
55.8001
57.3383
51.2635
52.4762
51.9996
49.7178
74.0049
97.229
142.678
303.803
81.4386
101.737
69.0793
109.715
61.0667
61.2253
59.8755
60.8393
58.609
156.464
95.8533
211.817
201.981
84.0033
280.649
209.606
259.353
233.484
65.5626
57.279
54.3778
51.9505
49.3898
50.6188
52.4027
203.935
100.768
88.4296
158.353
177.3
221.32
161.386
154.056
92.1867
121.325
69.0455
71.1174
71.2929
55.7142
62.8044
93.7922
151.105
114.561
106.007
203.811
168.877
128.434
142.353
183.885
249.761
207.713
49.8296
49.8108
1651.24
49.479
50.2233
50.0952
1361.48
935.758
1443.43
791.511
52.0378
54.409
55.5329
74.1184
56.8085
170.595
561.349
642.451
151.208
1023.42
1462.77
1189.46
53.089
115.181
275.133
469.165
165.705
422.119
219.634
143.119
603.683
102.814
193.824
171.958
114.879
109.983
50.8241
1642.85
1612.48
1085.3
614.484
1220.88
1374.94
761.822
987.053
70.2488
62.9592
62.5257
83.9785
74.56
66.5041
85.3733
160.293
60.6835
61.2149
62.5032
62.7964
1246.2
2367.6
1196.72
959.522
60.1114
66.0154
58.2871
52.6064
193.123
718.872
603.697
236.9
261.236
426.052
1088.79
1117.89
311.106
989.336
353.767
541.697
938.866
241.476
62.9451
306.985
114.131
1378.67
975.006
958.426
348.076
1559.23
134.711
85.2193
49.9017
49.3418
50.8354
97.8459
70.8134
84.3403
49.4095
754.962
575.382
150.271
541.917
110.501
1128.76
75.6374
87.9394
72.4647
59.0538
59.5717
66.7021
613.278
882.918
84.0593
853.662
303.07
68.4597
66.1121
61.4055
61.0828
572.927
60.406
57.7544
61.1754
61.8016
58.132
57.2022
139.22
48.0639
249.166
53.5857
56.2887
55.0084
53.8328
56.3064
56.2129
206.906
91.7709
66.0361
378.451
205.647
508.296
60.7975
60.1291
54.812
52.6742
57.0284
70.9665
70.5602
1788.79
61.0724
70.3122
52.3592
97.6382
49.4544
60.3569
52.1734
55.8726
50.916
55.9289
55.095
53.5716
51.3728
50.6398
86.4825
59.618
59.3847
1865.24
1120.57
951.03
975.669
190.651
207.174
666.882
676.539
170.993
71.714
118.597
111.68
266.869
109.439
97.5829
60.1448
69.5317
55.8863
69.3433
187.404
903.403
150.952
74.6902
61.7978
242.311
728.342
79.5681
63.1682
58.5893
52.1826
627.455
856.08
61.7941
51.8261
66.2542
1157.77
175.229
372.043
590.142
740.026
899.745
628.139
669.152
90.857
299.377
189.6
92.3183
86.1145
79.578
89.5454
74.8867
92.1193
79.3638
102.889
82.38
56.1372
52.234
115.736
62.2819
110.84
112.181
61.8137
54.9639
63.5519
92.5905
1136.87
1065.08
156.838
678.907
71.7926
595.867
1123.48
208.538
87.0287
810.103
144.784
493.984
736.6
208.872
1141.99
282.039
188.781
58.6151
60.2383
82.6413
58.7966
176.503
74.2274
59.9156
114.555
146.539
63.7434
314.114
191.997
124.434
56.2316
106.378
108.418
248.694
109.357
259.498
138.283
1912.49
699.344
664.503
625.132
203.786
1492.4
323.784
1650.41
1136.1
1190.4
444.177
146.798
62.2856
63.9169
60.1689
51.2475
646.605
84.3593
138.157
69.9629
54.0867
101.335
57.2478
79.3767
97.1137
1961.16
1517.4
547.445
1573.34
1442.62
132.521
277
877.406
220.468
1201.52
213.482
241.092
125.789
203.139
64.3032
104.896
107.005
171.94
352.43
138.35
250.774
272.283
106.411
89.689
2088.35
208.632
1946.76
83.6436
63.8643
49.8603
59.8816
49.8628
60.9386
51.3522
68.9952
51.6827
51.3401
52.853
51.4044
54.3961
50.3639
56.7275
50.5154
54.7115
50.3845
51.1382
66.1584
69.373
59.4689
357.091
54.0016
159.689
57.7745
101.626
215.333
64.362
48.2659
54.0923
67.1555
51.8307
55.8653
62.8268
65.2032
81.4902
74.1338
178.931
68.9814
79.3244
114.132
108.558
70.1008
653.995
159.215
89.6683
128.795
57.7307
356.008
55.769
52.4122
58.6661
55.4931
49.9816
83.6764
732.193
254.601
138.405
98.59
572.456
579.771
845.697
1298.63
322.47
267.337
261.582
61.2414
56.6875
385.993
87.9659
836.497
1147.29
321.281
53.034
53.6053
221.587
953.787
56.6709
68.0399
54.1385
60.1809
262.246
211.483
316.08
724.046
53.5665
138.905
739.428
185.438
66.0256
95.1621
95.2864
67.743
72.5474
58.2342
93.9166
63.536
383.232
67.4143
58.1247
638.642
139.683
64.7301
1113.52
2318.39
662.792
149.209
324.924
294.382
112.453
1308.21
1305.28
1350.03
1244.99
1289.08
1085.5
1148.3
54.9287
73.7301
52.4516
56.9229
64.8731
86.5033
62.4813
81.6369
91.3507
92.6353
60.507
380.914
185.701
72.3167
1057.22
264.83
523.732
308.043
452.542
1160.44
49.602
55.6211
51.9346
940.429
1060.45
1336.62
549.977
229.155
556.066
182.459
543.07
731.842
74.3884
66.5275
67.3137
75.1508
73.2888
111.785
551.782
807.639
409.076
798.243
623.229
66.8672
70.4458
243.685
196.475
195.08
146.997
137.349
113.765
60.2328
115.402
63.0399
116.565