/*--------------------------------*- C++ -*----------------------------------*\
| =========                 |                                                 |
| \\      /  F ield         | OpenFOAM: The Open Source CFD Toolbox           |
|  \\    /   O peration     | Version:  2506                                  |
|   \\  /    A nd           | Website:  www.openfoam.com                      |
|    \\/     M anipulation  |                                                 |
\*---------------------------------------------------------------------------*/
FoamFile
{
    version     2.0;
    format      ascii;
    arch        "LSB;label=32;scalar=64";
    class       volScalarField;
    location    "0.0263738";
    object      p;
}
// * * * * * * * * * * * * * * * * * * * * * * * * * * * * * * * * * * * * * //

dimensions      [0 2 -2 0 0 0 0];

internalField   nonuniform List<scalar> 
3991
(
-14.1179
47.5157
2.54718
-5.70761
32.1264
-5.07352
-68.2046
40.4733
-11.6182
15.173
17.1317
2.48753
7.27155
0.323558
-41.7606
3.3264
13.2528
1.71993
-10.2686
-60.421
-11.6767
-58.5111
-14.6498
-21.5991
23.5152
25.2251
41.4673
22.7201
13.3031
8.55917
-32.814
19.2069
-71.9667
13.6385
-18.9185
-12.0992
-78.0891
-22.2576
2.0874
14.3046
-92.5821
-5.66046
1.7627
-4.74173
-5.96453
25.0077
29.9808
6.13589
-0.036905
43.8548
34.5707
-80.0936
-91.4391
-13.903
-8.20833
7.25795
-0.259604
-5.61949
4.94724
7.97548
36.6959
42.8972
32.6989
32.6761
-14.3601
-9.26949
6.12657
-15.3852
-69.2877
-4.82605
25.984
-5.0072
56.5611
4.21047
35.6142
-14.0274
51.206
25.7638
-3.93053
-40.5903
-3.45986
6.78028
53.1155
12.7517
35.883
35.8753
0.258874
9.26856
42.2865
-4.5087
-8.95282
19.3244
25.8559
-7.25282
-7.67113
13.7668
21.2124
39.7728
60.8859
1.26008
1.48458
2.93823
-46.2945
3.86437
3.94207
2.04407
-6.83857
-87.6906
33.503
-28.4718
-70.0125
-8.02003
53.6083
-2.31326
3.60465
-70.374
-73.9177
-33.7367
2.14616
23.4351
39.5055
-21.7384
-6.70697
12.0389
-35.2103
6.18151
17.4741
-2.41242
-23.8093
-35.9923
-3.35176
12.8477
18.0136
-3.13567
-7.61622
0.789212
-1.83668
-1.82656
0.659905
29.4211
5.79336
46.5663
36.1911
45.7925
11.3073
30.4577
-9.87597
39.3045
60.0151
27.5993
0.201834
14.5505
39.3113
31.8599
-48.6917
-25.7248
44.2136
19.9956
27.6181
41.6974
13.1905
22.1944
-4.14085
53.3836
20.6439
-18.5155
26.2348
-23.8452
-41.3007
-4.38234
-7.6671
-11.3509
-39.51
40.8605
41.4963
41.2548
-33.229
-0.687943
1.36939
-29.0486
-5.87259
21.264
21.9251
-34.9549
2.43268
6.48546
-1.4407
6.96609
-3.54662
-81.8905
-40.2283
-4.19538
-177.711
-89.1277
-2.56327
-56.9719
-10.6301
-1.35902
-79.6761
-6.61655
2.46384
-18.848
29.7707
16.6014
-0.857756
42.1214
36.3136
-1.41629
17.629
31.6576
34.7642
13.1546
20.1456
54.5801
19.2306
-13.3734
-2.98487
47.373
-26.186
-91.0977
17.5792
54.5268
29.9987
59.1877
8.4264
-17.8402
-33.5415
-3.68834
17.3051
34.2226
11.2209
-9.2815
44.0328
53.5398
11.447
-20.9776
-5.11018
-0.283625
-1.83778
38.2593
-38.4761
-8.75734
-75.8742
-11.1284
-89.2785
-3.36199
-2.01901
-5.75686
-13.2597
-18.6925
8.53261
-5.22994
-9.48114
-2.21668
10.3917
-4.53058
-18.2011
29.6459
18.2351
-27.6427
-28.1086
42.1285
-92.3545
57.8601
2.95868
-73.5908
-60.0962
-6.17209
-38.6992
-22.364
-72.6492
-15.1189
-7.85007
-27.5742
14.4423
-14.6594
9.98366
-13.5931
-1.9509
10.6525
30.36
-15.7988
-3.88569
-79.4881
-6.49345
-34.0161
-5.54412
52.6906
-60.47
17.1466
52.6631
-38.8335
-4.3951
-11.2545
6.32218
-1.6143
16.8102
17.0757
22.7759
20.0346
11.3371
9.60956
-10.233
17.7898
-25.4182
-28.6175
-0.505279
17.8244
-10.708
38.0568
2.81562
10.0511
10.4793
11.0573
32.8611
2.10284
-34.1825
3.33217
36.6301
5.72282
22.6897
14.6415
-1.76397
-7.2094
-17.2247
-1.30637
0.576387
-11.4984
-23.4445
-50.2792
-81.6745
52.2781
-8.50777
10.0165
-46.1603
-1.11123
18.0322
-4.11117
-17.4263
23.3386
-33.0188
15.0671
-18.1279
-12.959
7.09176
3.92399
-6.78331
26.1216
-11.8661
-1.65919
-10.0665
-1.07781
14.5749
43.3359
-9.88833
45.2667
-10.6927
-0.409181
-65.8992
-35.5413
-23.804
-13.3307
17.8727
56.8656
6.5381
11.3152
31.6528
28.9277
-2.38506
-31.7578
28.9766
20.2109
27.8098
-61.9858
-4.09484
35.9093
-21.6661
-10.884
-11.5934
-4.65375
-90.7254
-89.7427
19.6609
0.408921
12.1704
17.8866
-31.2449
-55.9151
-91.157
-27.9993
-26.5212
-65.9134
-26.551
-9.03197
-0.459506
-85.7912
-6.74787
1.76746
-89.0915
-87.6039
3.85854
-35.2977
-78.8746
-16.0144
-87.9961
-4.21992
23.5847
31.0615
-67.5462
22.0357
9.84348
-66.5585
-38.2349
-47.4837
5.06413
-1.06149
-2.39108
-51.3855
-5.82949
3.25099
0.537528
-71.1396
3.55681
1.52656
4.88493
-20.8435
-24.4004
-73.554
-72.5954
-3.933
-76.3284
-19.971
-29.4115
-4.75878
-2.75325
-1.43533
1.22573
-2.80135
-23.4534
-29.0265
-31.8367
-25.7966
-22.0036
-29.6527
-5.73778
-7.43957
-6.47726
-11.7265
-27.3411
-3.60243
-23.7755
-22.2364
53.01
-12.2288
-12.752
-16.4927
-18.3556
-7.93195
-12.9524
-10.2632
-9.83468
-9.79872
-14.0624
-19.9257
-19.8088
-17.0088
-25.9771
-10.0241
-14.1412
-25.2516
-28.843
12.5978
-9.43568
-4.74239
-9.56376
-4.68248
-7.13192
-6.2546
-8.30695
17.9991
20.8047
-61.1002
-64.5699
-40.505
-46.504
-47.4156
22.3094
22.6982
8.0002
1.76078
20.8884
-2.46959
11.0899
3.51938
-42.1968
-18.9845
0.29423
-6.2416
-4.61066
-5.61156
13.6577
20.1137
1.30781
18.2532
3.65266
7.89608
2.86336
8.34738
4.59869
6.2294
4.95307
5.77495
6.18245
4.11853
5.13294
5.09528
5.92807
6.41115
2.64542
8.31035
11.0157
21.7115
17.286
12.2323
13.3535
7.46284
-3.2915
15.5755
9.09207
5.08992
-9.36572
13.6246
-5.94908
-6.84635
45.8335
43.0783
54.49
49.4598
49.9502
48.6463
-8.48561
-79.2909
-4.92585
-42.1584
-34.6589
-10.3324
-1.34536
-39.9158
-33.7317
-20.5224
-21.1958
2.22791
1.52943
-1.9975
-1.87804
-1.7845
-1.39843
0.191359
0.150051
0.493439
0.227202
-14.8284
-30.3177
-19.9941
-34.1228
-14.6892
-34.2835
-17.0044
-4.26227
-53.7761
0.58511
-68.9991
-39.8301
24.2286
30.2006
-60.0922
-15.3169
-19.1762
-0.113048
-9.23096
-28.082
-87.4952
-56.7633
-49.0992
-84.2998
-22.6641
-8.45963
-19.2091
41.9906
-91.6462
1.62463
-34.8133
-29.3332
33.5526
44.7616
42.8476
1.43055
-8.62255
43.1555
-4.48858
-74.3291
-38.7694
-4.02934
58.3915
-12.8766
6.99077
2.22569
48.8285
40.2305
48.9856
50.3509
9.93635
11.4406
10.8167
-29.6269
-89.8314
-52.5303
-82.3503
20.7849
22.4061
-2.62199
2.08676
2.83999
-4.18822
0.97359
44.3439
10.663
3.35647
-5.95853
-5.76984
-5.04508
2.35935
-10.7185
16.3518
3.11056
-24.8705
62.3605
-50.7784
-17.3273
2.82995
-6.52851
3.6112
34.0745
21.1633
40.0614
-91.0388
-23.383
9.16209
-0.0396772
36.0062
-62.2305
61.8168
-13.8095
-28.6325
-17.367
47.7058
11.3404
2.37339
12.9583
-5.38039
26.2906
31.2692
27.8441
-18.8014
10.2896
-57.435
12.4585
13.0068
51.7001
30.9993
-23.9449
32.7352
-0.0697618
-0.225989
23.5641
5.42037
-6.06959
-2.32561
-85.0988
-17.9481
-31.9617
-55.644
-76.1495
-12.9388
7.13519
-85.8165
-38.2182
-66.0255
-132.982
-39.315
-63.2652
-2.06909
-52.6036
14.3185
0.786573
-18.6002
14.6221
10.0104
9.53398
-6.18525
-16.5802
7.65157
-6.86913
-1.62637
-67.7468
-42.3204
48.9938
-57.5917
-12.927
-2.69144
-52.0214
-2.68376
-62.7038
-4.45037
-2.19808
-13.1597
2.6204
-34.694
-10.3049
23.3445
-21.9548
11.0873
-75.8759
-20.8765
-21.7713
-28.2931
-25.2171
38.3018
-91.1778
-25.2763
-85.3238
-79.6231
-65.6584
-50.4138
-69.1406
-62.8674
-53.6994
29.703
-85.1379
-85.4818
-38.1111
25.4697
-39.652
38.8925
39.6841
55.0369
26.2769
30.4986
44.3433
35.6886
20.9762
60.4319
16.335
16.1297
19.7947
15.8826
-18.1105
14.9658
22.3277
24.4509
23.5742
28.5665
39.2674
-6.02241
30.9113
43.5503
8.5943
49.4479
-93.1034
-42.5763
-60.6978
-11.2811
-10.4905
-20.1022
-79.5809
3.69986
4.04707
2.42627
3.96804
-9.81287
7.60555
9.73279
5.50461
7.20952
10.6683
4.10528
5.63472
6.20034
6.38715
7.10818
5.40409
5.81605
6.08228
12.5126
14.4285
28.6564
11.0778
10.7823
-1.23825
-26.6034
-90.3279
-51.1085
49.8017
53.2809
52.0514
51.7033
51.7429
54.9483
56.2139
57.4829
33.0675
21.3164
26.8869
25.1518
22.9141
23.8451
16.7732
15.3825
15.5489
22.7329
46.3372
48.7227
45.8499
46.8893
52.4561
40.0392
6.11184
5.72476
2.66741
4.44959
3.35284
-4.91735
-8.26753
46.9054
47.3583
9.97512
6.76904
9.89534
12.9115
18.5102
11.2397
0.276564
-32.3016
-32.8663
-17.664
12.1505
-16.5647
-2.82264
-2.91139
-32.2826
-4.86379
-49.9612
-10.5743
-21.3056
-68.8123
-1.49628
55.0415
-85.5352
-76.6282
-4.5212
-73.0562
-24.746
-35.4688
-11.9023
-18.7292
-7.00825
-35.3083
-1.38057
-5.42821
28.6481
38.1805
32.1046
21.542
-32.276
-8.95181
2.59319
-35.2747
47.3174
14.0888
10.458
-85.1299
-83.5586
-24.0964
-26.229
-32.4617
-37.727
-47.7449
-4.35401
-11.7261
-79.1228
-124.265
29.7155
-26.8158
-23.3309
-28.7557
-33.2097
-45.6976
-56.2826
-83.9546
-89.7682
-11.7761
-6.74234
-21.3453
-1.44167
44.5979
-68.4021
-87.2271
-8.55804
-40.0191
11.2732
-10.3242
12.4784
4.29073
-79.869
-10.4513
-2.76961
-19.1976
-46.4034
4.73244
-35.3493
-8.49627
20.0381
-15.7656
3.75205
-8.48029
-6.05028
-13.0956
-7.31873
-50.1801
1.36772
9.20021
-5.34692
3.52445
-4.49802
-63.0382
0.903548
-90.693
-54.3766
-28.0074
9.73933
15.3838
-2.28182
-3.92481
-64.5333
50.1738
1.93403
20.0072
-24.098
7.97939
-85.5379
-58.1144
-27.9932
-25.4886
-38.5444
-30.666
12.726
-0.394193
-71.4099
4.8369
-6.25326
-80.0196
-14.3675
-12.722
24.5965
30.8721
-6.32906
3.48843
14.9239
-7.53964
-20.6221
-83.5364
-67.583
18.5315
23.6181
4.43772
-21.2284
24.3134
-90.7546
-42.4235
6.956
-58.2886
-27.6239
-21.33
18.9971
9.65914
-0.221444
9.36281
6.10093
6.99955
-16.7437
4.39223
7.08489
16.4743
4.86598
26.25
22.454
40.5864
16.6943
17.1963
13.311
6.59609
-14.7768
27.2799
5.79124
9.4736
39.5149
32.2776
-16.6118
-4.70295
4.97978
5.07746
0.0527215
-4.48072
-22.0222
-11.1028
2.50733
-23.412
32.2036
0.766089
8.95775
5.64041
0.947502
-0.763996
-1.06782
0.896131
1.25234
5.90442
-9.29612
-141.712
42.9587
50.5374
52.4429
30.6219
-4.59257
0.632195
-12.6317
13.9469
-8.68788
-29.0785
-16.2625
0.231423
-33.2498
1.13346
-169.513
18.5008
23.2078
3.73941
-31.7306
21.6452
-4.15472
30.3537
25.2323
16.2094
16.1869
35.2801
6.51248
-37.7106
8.05242
34.8805
37.8863
27.2226
-26.1577
34.4592
-19.8981
28.7506
-5.12227
1.05937
3.02519
2.9957
16.1036
13.8308
15.7479
12.724
14.516
17.1562
9.94651
-5.96116
-31.788
-11.4648
-37.7784
31.9606
-105.936
-165.143
-70.8687
-169.476
-174.731
-42.2254
-19.0116
-93.8094
-35.0476
-90.0428
-11.95
-57.4109
-90.7904
-18.9503
-18.7939
-15.2621
-23.9391
-58.227
7.42732
6.37532
-2.2711
-8.94372
-33.234
-16.6438
-89.8645
-92.8425
-5.46613
-56.2558
-4.9346
-37.4654
-15.1489
-16.3958
-94.7265
-24.4482
-3.98353
-147.262
-13.0633
-114.15
-46.4827
-103.751
-89.9247
-81.3556
-70.2029
-88.4774
-65.5353
-86.7778
0.473539
10.9869
1.59647
-4.90917
-3.24189
33.2434
2.79764
-2.23709
-22.5014
1.57701
-11.1796
-2.81276
1.79918
3.10218
-91.3621
25.0913
61.6297
13.5692
-67.8932
-76.2126
-57.5465
-25.1721
-30.3299
-36.3883
-47.0051
-67.9904
-65.6911
-49.9634
-51.397
-22.5692
-24.2026
55.5628
30.5641
61.9732
-37.6267
-5.66989
-44.1072
-27.8595
-1.03669
-0.616939
-1.50928
0.165498
1.06064
-2.40935
-2.43496
-3.52964
-90.514
-89.5157
-92.1596
-86.0992
-87.8426
-90.2276
-46.6013
-52.9471
-45.6081
-41.5021
-33.4048
-29.2135
-25.6235
-34.9326
-30.0743
27.0827
3.57027
5.98998
13.2969
-54.4868
49.5591
16.0239
-37.3748
47.5239
45.3116
55.0552
13.7675
-90.1922
42.9073
-4.23399
0.146129
-13.9026
-13.7683
-8.67214
-77.0871
-12.7013
27.1873
-10.4899
-33.8089
-3.62853
15.9848
14.8545
22.9611
14.452
17.5424
-3.50277
18.3341
16.6658
2.49607
-13.606
-19.4624
10.764
7.696
-79.8713
11.0197
-12.7986
-15.7428
-19.4216
-16.6116
16.6896
37.8562
14.7447
51.2117
20.2036
46.6168
-4.63197
-21.743
-17.6473
-12.4257
-0.802696
11.3506
8.76172
-2.09255
-7.17046
-2.40128
-2.45295
-7.0912
-4.46488
-3.45153
-47.9351
-38.3482
-26.4099
-23.8105
-43.0182
-48.2469
33.9657
47.4917
10.2091
10.2528
8.78531
54.9942
9.70149
8.26797
29.1909
23.8045
23.3023
2.57332
-0.870355
-0.167663
8.15349
24.0749
-1.82792
7.2365
9.73252
30.9172
-20.1268
-10.7973
-2.27383
4.1695
5.51562
44.7512
47.7871
48.6346
16.7582
31.7045
20.7147
2.78673
1.41626
2.45206
30.8624
-0.423968
0.568965
23.3215
18.9618
-0.726795
29.8698
1.60339
1.90665
-69.781
-10.5572
-9.99601
-131.184
-4.44116
0.360356
-3.00005
3.65878
-22.0637
4.041
2.01851
3.32952
17.3159
11.9839
17.897
4.88634
-4.88587
-13.075
15.3547
19.8458
46.8661
6.47886
7.091
3.61532
-6.89183
-2.74393
-3.53031
-13.4008
13.1002
11.8622
11.6156
29.9541
-48.6045
15.7234
32.1431
18.9101
3.07354
34.8564
-4.70187
47.4462
-0.0648391
2.61365
-4.78383
54.6759
13.5773
57.2133
3.6459
0.988596
6.5623
-4.6144
-1.83319
-1.4929
-15.0422
-0.327474
5.16755
8.5605
25.4512
-9.676
27.7412
35.7254
36.7361
45.0926
23.7631
-93.4895
15.1044
3.87149
28.8439
36.0247
19.3006
-135.805
32.7352
60.2751
-6.28918
0.304474
-31.4863
-89.3552
-7.00136
-4.53445
7.0845
1.14913
-2.02402
14.766
-6.16563
33.2309
13.8625
-90.086
-77.3743
11.0394
21.9768
12.8195
4.3876
-3.96206
14.1754
-0.165731
44.7722
25.4371
6.19739
6.87917
4.6383
3.32514
-7.75408
31.6572
41.2214
36.0977
-5.08355
30.5813
15.7153
-11.7442
-9.80641
5.12508
2.03793
-9.04249
-5.33407
-7.26535
3.99036
-10.9171
8.3819
-35.9023
-90.6228
-20.9418
5.72991
-7.62055
-7.34437
-10.994
6.74559
-5.07523
3.08758
2.13073
17.4233
19.0635
19.4884
-23.7449
55.9774
52.4576
37.0985
45.0554
52.382
56.4074
45.1446
42.6707
-6.36441
-76.9151
-4.5196
-16.2336
37.9375
-9.47699
23.6397
5.47217
-3.33992
-9.41749
3.23593
5.43132
7.78085
-7.0594
19.7281
-1.80343
-3.1079
22.1601
6.78974
5.09404
7.6232
6.43492
2.78464
-30.5476
-19.2888
-15.3472
-10.0318
33.8711
45.0955
41.6468
0.734098
-16.8759
-77.7438
-75.2322
-78.1121
-80.4629
1.88427
-22.6361
-12.0965
-8.36468
-4.38566
-2.48004
3.32646
-59.0867
-45.7443
-63.5744
-8.20286
-25.991
11.0712
-59.5265
-62.1287
18.7165
34.1672
-19.0501
-11.9191
-7.90361
-6.79239
-14.4704
-49.3256
-91.6191
0.281576
-21.137
-69.7149
-6.04185
-14.5364
-14.8969
7.84111
-21.0649
-47.5339
-9.61823
38.4754
-87.6884
-4.54672
2.69533
-5.94711
4.60393
18.8901
18.4795
35.9977
3.44799
5.84299
5.82651
13.3054
4.48745
-23.4741
-57.1722
-0.710542
-32.3987
-46.2049
-90.0864
30.7211
24.0466
32.9496
19.2129
25.6931
20.2196
39.2113
30.7594
58.1248
31.6667
13.5929
-76.6754
-79.6695
-83.8672
-72.9043
-75.5164
-11.1326
-18.1321
-16.053
-8.39782
-20.0789
-20.0602
-14.7769
-18.9928
-80.1885
-74.5618
-76.3492
-91.4679
-91.0229
-80.7796
-60.5047
-47.2338
-84.0587
-76.8789
-46.958
-69.112
-62.992
-63.3108
-75.8987
-90.7137
-87.4144
-92.6797
-81.2276
-89.4207
48.6989
-34.2218
-54.6095
-6.90874
-10.9853
-25.2892
-83.5028
-46.3988
-14.0639
-55.3282
-9.00657
-13.1339
-5.29063
0.854229
-5.53609
-0.737655
-12.8646
-17.0753
-16.6716
-23.6635
-3.12134
-5.27581
-2.94741
-29.6255
-5.9916
-55.4076
-65.8813
-81.3927
-14.1996
-35.9661
-35.8195
-73.4613
-8.68734
-25.7515
-59.6454
-19.554
-53.0797
-7.51393
-40.4577
-11.742
-16.6078
-20.5238
19.4605
-8.36666
14.6569
18.4889
-31.4784
6.52678
-36.8215
-31.958
-1.13794
-13.564
-6.79418
-23.2312
-26.3365
-11.1693
-3.94068
29.7887
-8.28364
5.3259
-25.1968
-54.355
-21.397
-20.041
-66.3522
-12.0206
-90.625
3.05786
-52.0929
-10.4552
-22.4129
-90.9627
29.2672
-5.22434
23.4467
33.3123
25.3418
6.18481
0.623108
6.60939
-2.70527
2.6455
4.90823
11.6084
19.0153
3.39392
-52.1224
14.2575
4.3166
-65.11
16.9738
11.395
21.6145
48.5425
38.0969
-10.395
-6.05382
-19.6635
12.9988
-12.6357
-60.9862
20.055
44.6885
5.41806
3.75934
-2.63542
-23.8992
-48.2339
-9.7736
5.52281
-1.10695
-1.83334
15.26
34.419
46.3483
44.0995
-6.90729
-41.9344
-18.774
-17.9243
19.887
-78.6011
-16.6984
-47.2943
-169.048
-0.722911
6.25702
1.90333
2.57237
1.55944
-74.3615
-94.5752
-91.4748
-11.1506
-2.74666
-3.31024
7.52103
-16.6881
-13.0937
-2.80579
-24.8099
-9.82518
-16.424
18.4415
16.8987
38.3524
29.3774
27.0661
9.15603
32.7172
-12.4832
-91.0726
-75.4497
34.4228
31.141
-72.6344
-17.3247
-21.1401
-42.3517
-88.9717
-58.5266
-41.3926
-51.2745
-51.2127
-92.9944
-37.8514
-29.3344
-17.3266
-12.4961
-8.21139
-72.2233
-2.74454
-53.2115
-71.549
-8.42376
-39.4269
-74.6398
0.527101
7.76304
-14.1044
-52.1232
-10.4773
-25.7306
-70.3182
-48.1978
0.286923
-5.30705
-4.80269
-82.525
-60.8046
-23.4496
-58.8298
-119.684
-74.3702
-83.3741
-62.6932
-41.1933
-31.6124
-29.2609
-54.7537
-34.4859
15.428
-16.4988
-41.1554
16.6152
-73.7203
0.676334
-2.90944
-0.411942
3.21725
1.52335
-38.0562
-0.269596
-6.8158
-29.6334
-41.9882
-39.046
-25.1048
-28.0133
-63.6713
-24.6767
-14.0631
-13.0876
7.03903
-44.3306
-3.35682
-12.6179
-6.54908
-50.662
-13.0133
-22.8765
-53.2797
-35.183
-50.0854
-22.0328
-42.8804
-118.214
-9.41791
-93.6076
-24.7741
-26.837
-5.85343
-17.1086
-4.55999
-44.3511
-48.3016
-7.57375
-34.0693
-23.1738
-4.7759
-17.8187
-57.0607
-50.2338
-34.0963
-0.755698
1.86754
5.13279
2.21669
6.07249
36.8025
33.5339
47.8336
46.3859
48.0586
43.98
4.25748
12.938
28.1056
22.1144
22.7915
8.6655
-84.708
-29.3587
0.377071
-69.6122
-9.66179
-9.88171
-33.5677
-50.8806
-9.28384
6.79381
-43.8692
20.2854
-9.8116
-4.34463
-5.62922
-3.70832
13.6182
-2.39922
-9.74169
-9.83422
1.47221
27.2613
22.1818
9.51804
-21.5876
-25.1812
38.2117
32.8576
-16.1663
35.899
14.4288
31.4132
41.099
43.8557
8.26146
12.1512
-16.4551
0.0974043
41.3785
17.4909
12.7549
15.7796
15.4241
20.208
-0.902779
-8.0635
8.95034
3.32583
5.28502
4.8952
7.98287
-8.28875
4.29627
4.97596
-3.09213
-5.5508
31.6264
42.3548
-3.72702
34.4936
-27.65
39.6695
47.9267
43.5605
17.6686
18.4191
34.4794
18.7263
13.5193
13.1509
11.8896
6.31358
5.57104
5.73694
27.0217
19.6594
21.0844
-18.8926
-20.5204
2.97377
1.26706
-2.84727
2.06498
17.336
22.1553
-92.3641
16.9317
14.429
13.2659
-6.44499
27.0365
35.0877
-7.23081
-5.60146
-18.3671
-13.1572
-15.429
-25.8902
-12.5914
-10.4153
-21.0337
12.4734
14.202
19.2854
11.5408
-13.6194
13.6807
14.7005
5.44689
0.650319
1.5681
13.0989
13.2278
20.7605
12.8096
9.81968
8.77584
5.72758
16.3451
-10.5227
6.08612
-15.4003
10.2304
6.72576
-1.33408
2.3903
2.36215
2.73255
2.01751
6.40868
-34.8392
-79.9745
-52.4757
-67.8707
-52.6733
-25.03
-22.7227
-2.16902
-0.534947
-7.25846
-1.37678
-31.1746
-52.4232
-17.719
-6.30177
-29.5167
-17.7475
41.0518
-26.1561
-90.7129
-90.7217
-88.2961
-41.7922
-39.3176
-42.265
-29.7916
-26.5393
-72.6278
-77.4934
-78.0831
-89.3556
-89.0484
29.0115
33.7327
7.67242
-90.8711
-81.8635
35.0057
15.3599
-48.6483
-60.9804
26.6309
-133.93
-90.5426
31.4539
47.674
16.9762
37.7978
26.8788
34.1113
51.59
54.691
34.3999
-89.1923
-89.7491
-82.6418
-62.8167
-19.6161
49.874
-24.2174
-90.0708
-90.8744
-90.0151
36.6701
10.4075
30.8881
12.1361
40.0694
27.8605
-0.0345776
-34.4589
-107.578
-91.1853
-4.11694
-24.2196
54.6425
52.4196
53.8357
25.9205
8.86671
9.44178
-29.7559
57.5897
19.8045
21.8185
13.3016
8.87211
60.1478
61.2526
-68.5145
7.8856
60.7048
-18.1493
-86.4932
59.7019
19.5706
-37.938
15.9511
-89.9407
30.119
31.2352
-1.42705
42.0722
20.8946
-9.81026
-3.0173
-33.5406
7.66983
-20.8676
43.3637
-64.6163
51.5977
4.97883
6.02586
-23.023
-85.474
-78.1398
29.7621
0.188715
-16.2587
-2.4695
-8.38757
9.41989
-27.3836
-20.8456
-41.1849
54.3211
62.1163
16.2887
35.2649
-43.9324
11.5505
28.6978
54.7631
18.3168
44.0577
50.749
25.1692
24.6531
18.0712
35.5895
32.3535
35.5471
31.0789
23.4281
25.0283
28.329
15.0716
23.9918
16.3087
19.2644
15.5567
44.7294
46.8809
-13.1848
-2.43677
-7.45611
-4.45338
-9.74674
-8.36015
-8.01127
-14.4998
-20.4292
-19.4467
12.2285
10.4356
-4.49045
-8.52054
2.17586
7.80319
7.5151
-12.4538
-1.34411
-1.37761
11.583
-90.4144
6.04616
-4.32726
-22.1723
-109.91
-84.0909
-36.6976
-41.7337
-2.58602
18.5789
-13.3034
-0.193413
3.23365
48.7062
-48.9795
48.0076
15.7651
11.3626
12.0322
-24.1196
19.7309
25.1054
40.734
17.8703
38.2175
49.1546
37.5666
-19.2596
-32.9331
13.4206
-1.86936
43.2192
2.90392
3.59288
45.4016
43.6494
43.8743
48.4917
41.2862
39.4138
7.48701
0.411038
0.0309613
-2.67366
-4.6724
50.7879
-6.16809
-1.40736
25.6204
-14.595
-86.4606
-89.9923
-2.4435
29.1642
26.114
17.5961
16.6708
12.0719
-13.7173
15.5188
20.7804
20.6879
-32.4326
5.89882
8.59887
-4.03487
16.2833
16.3589
21.3761
6.35931
-89.5629
-87.5795
-29.3474
-22.4331
29.0845
1.6596
-15.5287
23.5317
16.1741
-6.48122
-3.44231
-9.52185
-5.48829
-22.6403
-13.0214
0.584374
-88.2121
1.05583
-0.159337
-0.422962
-14.202
0.767671
-19.9157
7.97177
-3.39095
-3.64084
-5.9635
-4.4331
2.41686
-90.244
21.5418
18.8582
18.7693
-2.43488
6.38243
21.2716
9.06374
4.71668
2.07007
-6.70259
-8.17203
-12.4638
-6.76304
0.0631492
-81.2835
-55.6716
-44.6459
-7.21765
15.1662
-60.3395
13.6274
-50.6223
-51.7545
-8.07851
-65.4069
-76.6203
37.6517
30.1357
-88.7519
-75.6231
-97.4387
0.267226
16.184
-23.2041
4.88737
35.7405
21.4478
-1.03612
-9.18401
-5.9776
-13.895
-17.4318
-2.10428
-19.1117
0.854127
-26.2285
-6.4442
-1.51406
-7.47996
-20.0153
-8.0769
17.1821
-64.9964
3.83662
14.5512
-46.5997
-2.31588
-29.7966
2.26829
22.7047
15.3822
-9.09169
-12.8138
19.9378
13.8299
-5.41163
30.6593
13.1131
-65.6391
-10.6154
13.21
23.1827
0.00356832
1.84753
4.10858
5.08686
5.22294
-32.2192
-88.0214
5.22254
0.737284
6.90107
13.9189
-12.7793
-104.971
-20.0549
44.0409
-16.5935
-14.7894
-15.1272
-4.83552
-6.24918
-77.6143
-24.7328
-47.6002
-10.6263
-4.72678
28.6249
-54.0739
-33.4758
-15.4808
53.841
-19.6811
27.703
-17.7047
-10.7821
-56.1651
29.6605
-7.2074
-38.7265
-30.1782
-62.6485
-14.1152
-41.7313
-82.2111
-30.7348
-15.1687
-31.7766
-89.8701
-91.196
-91.6448
-14.4979
-7.76855
-41.0496
2.01491
-7.01807
-4.80095
-24.2957
-5.23457
-19.0162
1.47253
-1.74184
-7.37469
-1.85239
-14.5347
-6.83064
-3.84872
-2.06936
-15.6485
8.88169
8.65543
-0.579294
-3.51204
5.06936
-59.2395
-22.9888
-29.3519
-32.486
-15.2155
-0.384175
19.3707
36.3477
-0.233023
-0.784377
2.64469
-6.91292
0.967228
-26.4896
-14.5985
-41.0314
10.0753
-24.3712
-14.2909
-2.70364
-14.3531
-11.9903
-42.1658
-79.4193
-84.8684
-120.382
22.0808
-86.4878
26.7223
61.0174
26.4391
30.5739
16.0242
27.8108
21.5754
-25.661
25.2145
-1.59161
-27.222
-26.5428
-6.01865
-35.8809
-5.09316
-7.06905
-71.2006
23.8277
8.09057
-42.6329
-60.2018
-86.0733
12.8829
3.38219
3.2875
2.56123
3.16608
13.8935
18.9713
-0.153501
2.09348
1.91701
20.3583
29.4519
11.9099
-17.7996
18.9645
1.93659
8.90164
-9.05787
47.5266
-8.9804
1.05542
5.38301
-0.859963
2.16926
-2.13852
12.0015
-5.76072
30.187
32.7269
21.227
8.07662
9.8916
9.44655
-3.02606
-77.6794
-75.9774
-22.4535
-13.2341
1.13218
-28.7227
-6.12646
11.0449
4.53717
6.5971
8.02313
-0.820862
-12.2975
-1.00579
9.04723
7.10327
-8.38629
-6.66609
-5.37559
11.2881
-8.3059
-1.22757
-2.06561
-0.827967
15.1933
13.0501
33.7646
29.3252
35.9904
28.392
18.7656
-123.384
33.0001
21.7542
33.5074
27.8594
17.1836
21.7784
-62.4705
3.05826
24.6705
35.235
-42.4584
-8.88869
-89.4732
4.12319
-2.8163
-5.91186
-7.27573
-38.7167
-19.3245
-85.3355
-77.4609
-90.3823
-55.4338
-54.2428
-11.7721
-13.3276
-91.9256
-3.07457
-68.4368
-23.3965
-11.3838
-48.6949
-89.058
-90.1111
-22.3992
-90.865
-12.4626
-13.4357
-10.5503
-90.5646
-7.43171
-26.9858
26.8327
-88.3515
-16.0443
-13.2155
-3.64029
-85.9764
-19.5749
16.4791
-86.666
-32.0676
-5.68288
-8.03768
-46.8109
-63.206
-11.5155
-6.46562
-11.6095
-11.6715
-3.81828
-3.01624
46.8542
-6.53956
-7.77202
-3.15594
-1.27061
1.72569
4.82464
5.68309
-1.97616
2.25492
3.61154
8.19898
4.58163
4.65949
-21.0951
-17.4514
3.99578
-1.83545
-1.26578
-3.03822
0.473388
0.350355
12.6962
7.42787
1.72509
3.6173
4.8272
2.07609
3.77348
-2.28224
10.7271
15.3987
-90.2401
-33.981
-93.9935
-0.152084
50.2247
52.9396
64.3518
61.0354
62.8533
-37.8862
23.0789
-0.701286
-44.8009
-89.3334
51.2116
-109.978
-13.1918
-126.072
38.9308
33.2775
18.3861
3.71472
-8.27076
6.9215
8.12067
6.00145
-36.4348
-170.083
-28.46
-11.0937
-30.9385
31.6811
14.7224
-36.6512
-38.2802
26.4017
15.2033
-45.0581
-49.797
-53.0144
-1.43457
0.0296846
2.38826
3.26148
-58.7632
17.8675
33.0452
3.71914
-43.2486
-84.5516
-89.2926
-116.259
-88.2285
26.4147
27.6713
53.6094
2.13321
-4.92526
-13.4742
2.78275
8.14649
7.95126
7.84348
59.7573
-55.87
-6.44028
6.36975
-1.04471
9.38986
-1.62715
5.33961
-2.61496
51.3946
54.7223
-8.96309
-12.3777
1.81052
13.3848
-79.5346
-13.3448
-4.12197
-90.5245
-3.27806
-3.47611
-3.09518
-3.53567
-19.933
-52.3731
-5.65804
5.36926
30.3593
6.41416
13.8895
0.875649
-36.1966
34.6263
4.70601
6.99785
16.3772
29.7353
23.498
39.7148
37.9471
26.8161
-38.8215
19.5931
12.9583
12.9535
8.92632
14.5487
16.8308
-4.91129
-8.20315
2.13871
-11.8536
-26.1789
9.97565
21.7433
30.3925
-85.8716
39.2651
37.4781
28.0554
31.0292
53.8571
32.657
37.7377
-28.3099
-98.6502
-7.31165
-4.07231
-37.6791
-43.4385
0.503286
-8.09754
-4.8686
-1.45729
32.3207
21.2868
17.9747
22.6206
22.3961
32.3472
36.9694
21.7092
15.935
8.17682
10.4723
3.73432
0.0182639
9.91538
12.7745
19.7445
26.0944
23.2765
30.4617
-35.5823
-25.0792
-78.7917
-17.078
-6.07532
-43.1781
-19.9223
-1.54944
-117.596
-5.80001
-24.7985
-37.9666
-4.73647
-68.83
-7.84808
-6.30794
-78.5889
-36.641
-16.9613
-29.5083
-89.4196
-90.3634
7.46325
8.67258
-50.57
13.6829
10.7058
21.7011
-90.6406
36.697
24.4463
18.7948
30.2518
59.0904
-4.73258
36.4011
20.7486
3.19665
-33.3104
-7.9804
29.7132
-0.866634
13.0756
23.4133
31.6049
34.3281
48.7428
17.2936
16.577
-9.11803
-14.0635
-0.336977
-0.861313
19.3937
22.6316
15.1504
-24.7823
19.3352
22.1823
21.4748
17.1263
-86.2307
-2.04877
-2.92233
1.75536
2.38904
-5.00824
-4.49674
-7.46319
-9.8319
4.96017
-2.93306
-10.0432
-4.28451
-4.25999
-14.3518
-18.9538
-19.5578
-21.5604
2.31929
2.67553
1.34546
21.5
17.0791
21.5844
9.9559
2.3369
2.13119
7.89947
10.8739
9.39808
4.54098
7.93816
7.38434
7.88838
8.00792
17.1039
16.0848
13.4718
14.6693
26.3721
27.7321
32.4508
34.037
31.6262
28.6288
28.2636
-29.2485
-23.9385
1.52999
-37.6395
-20.8125
-6.88319
3.20531
-22.7311
-1.65558
-2.2725
4.7415
-13.3503
-25.3768
-5.92091
-10.5637
-6.61879
-10.1584
-13.4039
40.0484
52.1378
37.3117
58.3083
35.6862
47.173
36.8926
51.9472
32.1199
40.0789
-5.56667
31.3961
45.1304
40.2303
30.4115
28.7387
32.1615
28.3968
-60.7388
-27.9422
7.62079
-1.50302
-71.2919
-0.683097
-9.3701
0.851387
-8.2841
-7.18211
-2.34324
22.2703
18.5017
18.5403
-2.05652
-6.37477
0.19457
-1.51768
-17.7019
-27.886
5.68163
29.6478
18.4127
19.7382
-2.34964
-4.85073
1.01183
7.27603
-39.2076
20.4555
14.545
32.2764
-92.1807
-61.2097
18.7869
44.1674
45.4795
45.6857
11.2078
13.0187
26.5911
14.7985
13.0888
1.28186
-70.9159
-69.1671
-91.3864
-61.0596
-75.0973
-89.0843
-84.6946
-90.222
-4.40492
-7.24034
-5.77613
-3.63745
-0.548045
-7.4596
-9.34872
-22.9035
-0.0147327
-9.16457
-8.65983
-3.76956
2.95644
1.29239
10.04
-1.30234
-1.30219
-3.54707
-28.923
-5.06016
2.02938
-7.51643
-5.77996
14.9128
-24.2554
-6.11136
15.3837
19.546
7.81189
10.0782
-16.8927
-66.8639
3.87456
20.5968
6.31063
1.70028
-5.9544
-12.9799
40.3893
11.489
3.38768
11.0489
0.0426739
22.6041
11.3641
24.6756
25.3719
12.4501
-33.7087
-34.9509
2.17095
-50.9072
-139.383
-103.835
41.3341
17.5376
-26.7542
-126.988
4.73135
13.5047
0.0809695
44.4636
7.36755
17.67
11.3748
18.0896
-2.93917
23.9009
22.964
10.4019
10.3752
14.0979
-1.88331
21.1676
6.01527
9.94029
7.91157
5.68228
3.54086
8.92631
2.1462
1.49446
3.84598
8.65626
-8.62018
0.771138
0.768298
0.363543
58.9745
-144.755
29.1
0.465865
12.9988
-10.9815
-30.1263
9.55359
-17.3403
-32.7041
2.07279
-8.40811
11.6157
-24.6073
-76.3074
3.88856
30.8313
21.1512
24.4864
-2.99633
0.718702
-3.13424
-1.81844
-13.5974
-2.4556
-4.71312
4.98163
6.73146
-23.3355
-11.9411
-69.8597
-8.51307
-29.1069
-10.6157
-6.37735
-19.4142
-6.37964
7.14855
13.578
1.45127
18.0937
27.1034
9.4726
21.5228
8.02133
32.8208
-52.2006
-48.345
-8.58749
-14.9356
-25.8272
-56.5172
-5.69778
1.4633
-15.6841
-13.703
2.08586
-9.10062
-14.2834
-33.9776
-176.781
-62.965
-87.3989
-42.6338
-78.8094
-89.2363
-17.8973
-12.4668
-1.58662
-11.1648
-5.57681
-7.19352
-17.3355
-63.5539
-77.973
-45.7016
-16.1956
-89.1041
-81.0131
-91.7626
-119.721
-76.1287
-78.8717
-80.8775
34.7929
24.3391
-51.0204
-93.487
-87.6749
-77.99
10.0122
8.33888
7.87005
22.6047
26.1772
22.6905
5.61889
-11.92
-17.1601
-20.4807
-34.1513
-6.94633
-3.99688
-4.15925
-1.42343
-9.82609
-10.0542
-6.06427
-8.87636
-5.38659
-1.01915
-1.30765
1.6767
0.928252
3.85531
-37.8904
-35.8431
-37.2449
-34.1503
33.8691
31.4433
27.3593
16.2304
7.94919
22.838
23.9469
52.3721
40.6536
39.7686
48.1762
57.3723
54.5172
50.414
53.1487
-17.0969
-26.775
-13.7785
-2.04833
1.49948
6.87043
5.66617
34.453
37.4552
37.8994
28.8254
45.5787
-22.8097
-17.431
-18.1961
31.5557
29.5844
30.1232
10.2571
9.19342
-90.7133
9.59679
10.1551
9.00586
-88.0207
-177.728
31.7716
-90.4079
6.18741
5.81876
3.25734
-12.1712
8.74453
3.04645
35.1581
-58.4656
26.2097
21.7369
17.1079
-100.324
5.15394
10.2742
2.15912
-22.9194
49.4335
53.8699
0.954515
1.14139
34.4205
14.9221
8.12407
18.4673
19.9247
42.2346
-0.845998
-48.7709
-3.38123
-46.4835
-41.0082
2.81931
28.8236
-90.9707
48.7294
-12.6519
8.29384
-5.90131
-14.2431
-13.7477
-11.9084
-9.03823
-23.7781
-4.07523
-3.75714
-4.64676
-5.16394
-90.4067
-84.1026
-90.4343
44.9436
15.6372
15.7833
14.6058
16.1595
6.69614
55.0948
48.0512
49.7433
34.7857
53.7976
57.2877
39.1806
45.9423
51.1747
34.8336
46.1244
45.7148
-40.6689
4.26112
-27.9155
-23.4692
-24.4442
-12.9967
-23.4609
-0.667025
-63.0739
-30.8743
-18.8321
1.8596
7.24119
11.4783
-16.486
-13.0228
4.07678
3.69048
-49.673
-46.0562
46.4626
-40.6333
-21.7926
53.1592
-8.26487
-12.9065
-7.46658
-6.89954
-5.43899
9.06926
47.7362
55.2642
41.4687
58.9191
39.5523
-2.22871
-1.61228
-4.02557
-4.86932
-92.7736
-7.20438
-1.90831
11.797
8.62319
-3.46913
6.49677
46.9435
6.56872
48.3412
23.2967
29.446
23.4849
27.0884
26.2732
9.57339
-0.674002
30.9848
32.0297
51.0577
28.3166
-67.1778
5.44207
-0.453075
-3.51343
-2.72178
-4.595
-3.43401
-13.5308
-132.186
17.9258
-8.14656
8.04338
-1.85005
9.0282
-3.80932
4.74426
-3.73846
4.56686
-0.891925
8.60723
2.27528
11.5609
7.01014
-10.2341
-2.90083
2.65836
-73.3261
29.8995
-133.601
-126.677
-25.2772
-30.0624
-77.6884
-80.3191
-6.9745
-11.3132
-11.5377
-19.6216
-38.4843
-23.027
40.8724
15.8712
19.2362
18.7898
24.5591
34.1462
41.3037
44.2417
-12.6028
-9.42974
49.5219
54.473
11.5709
24.8688
27.9797
24.3596
63.4519
-4.12387
30.9211
22.5418
13.8092
-82.1693
19.0789
19.8504
34.8558
30.9926
43.4128
40.3342
-52.5863
27.5742
37.3937
32.6025
32.9578
28.9958
-12.7095
-13.7345
-10.7308
-15.1248
6.19462
6.47562
8.31388
-5.18062
-0.216338
-12.9392
-1.01515
-22.0846
-21.718
13.2915
13.9019
-5.23911
9.79183
-112.98
-57.2337
-22.2664
-56.9249
25.4988
62.6414
51.4834
49.4771
42.5767
-84.9509
-23.5952
-47.9895