/*--------------------------------*- C++ -*----------------------------------*\
| =========                 |                                                 |
| \\      /  F ield         | OpenFOAM: The Open Source CFD Toolbox           |
|  \\    /   O peration     | Version:  2506                                  |
|   \\  /    A nd           | Website:  www.openfoam.com                      |
|    \\/     M anipulation  |                                                 |
\*---------------------------------------------------------------------------*/
FoamFile
{
    version     2.0;
    format      ascii;
    arch        "LSB;label=32;scalar=64";
    class       surfaceScalarField;
    location    "0.0263738";
    object      phi;
}
// * * * * * * * * * * * * * * * * * * * * * * * * * * * * * * * * * * * * * //

dimensions      [0 3 -1 0 0 0 0];

oriented        oriented;

internalField   nonuniform List<scalar> 
7683
(
-0.00163831
-0.0159496
0.00662378
0.0109641
0.00156812
-0.00027849
0.000796345
-0.00208597
0.00307545
0.00595142
0.00246439
-0.0114913
-0.0315888
0.00682941
0.0154382
0.00932125
0.000331479
-0.00090436
8.72171e-05
0.000485664
-0.0101839
0.0288412
-0.00740504
-0.0112523
0.00227771
-0.00137654
0.000823352
-0.00172452
-6.21589e-05
-0.000920749
0.000582655
-0.00441564
3.33163e-05
0.00315694
0.00122538
-0.00175506
0.000657887
-0.00210684
0.00320401
0.000452052
-0.00116041
0.00204849
-0.00134013
0.00865653
-0.00229979
0.00613395
-0.0124907
0.0278391
0.00924034
-0.00627169
-0.0308077
-0.00023696
-0.00596698
0.00745394
-0.00125
-0.0001844
9.02717e-05
0.00078586
-0.000691731
0.0220955
0.0225469
-0.0336675
-0.010975
-0.00513445
-0.00536441
0.00612585
0.00437301
0.0281315
-0.00330537
-0.0248261
0.00121408
-4.32007e-05
0.000907
-0.00207788
-0.000112202
0.000753016
-0.000850782
0.000209968
-0.00105236
-0.00475873
0.00156655
0.00424455
0.000357142
-0.000219995
0.00214056
0.000384081
-0.00142675
0.00276841
-0.00172574
-0.0035037
0.00134105
0.00127106
0.000891593
-0.00626055
0.00200653
-0.00748754
0.0117416
-0.00088621
0.000197171
-0.000505894
0.00119493
-0.000856001
0.00154044
-0.000645273
-3.91658e-05
0.000471382
-0.00420174
0.00334624
0.000384126
0.0142262
-0.00508794
-0.00456439
-0.00457384
0.00216521
-0.000134904
-0.00740583
0.00537552
0.000369906
-0.000317247
-0.00283653
0.00278387
-0.00040013
0.00176283
-0.000362048
-0.00100065
-0.00182949
0.00194334
0.000783366
-0.000897213
-0.000407887
0.00268741
0.000511809
-0.00279133
-0.0128905
0.00284934
0.00235815
0.00768299
0.000149272
0.00260325
-0.00192702
-0.000825505
0.000996081
-0.000381927
0.000191705
-0.000805859
0.000391483
-0.00135445
-0.000883669
0.00504081
-0.0153051
0.0122179
-0.00195361
-0.00372049
-0.00319772
-0.0101381
0.0170563
-0.000136688
-1.65648e-05
-0.000188517
-0.0499809
0.0142859
0.00204461
-0.00262095
0.000172122
0.00040422
-0.0290637
-0.0209173
0.0403973
-0.0206775
0.0113392
-0.0310591
0.001036
-0.000540497
0.00038383
-0.000879336
-0.000296936
-0.000669166
0.000966103
0.0154632
-0.00524844
-0.00689396
0.000919673
-0.000485074
0.00161001
-0.00111564
-0.00047509
-7.04378e-05
0.00166117
-0.00279042
8.06698e-05
0.00305694
-0.000347184
0.000729446
-0.000387325
0.000653959
2.17271e-05
8.27806e-05
0.00306455
-0.00146639
0.000170446
-0.00127351
0.000558526
0.000544536
0.00730061
0.0161029
-0.0212343
-0.00216919
0.00356871
0.00818635
-0.00349542
-0.00825964
0.00669953
0.00587787
-0.0122316
-0.0003458
0.0244595
0.00337956
-0.0242325
0.000536259
0.0329366
3.33138e-05
0.00138668
-0.0010911
-0.000328893
-0.000198713
0.000909843
-0.000677816
-0.00246254
-0.000674906
0.00118963
0.00194782
0.000227217
-0.00290328
0.000213517
0.00229501
0.014179
-0.022899
0.00642495
0.00140913
0.00169929
-0.00420078
0.00109237
-0.00109777
-0.00379063
0.00229136
0.00259704
0.000877903
0.00193743
-0.00348986
0.00067453
-0.000254411
-0.000881218
-0.000292009
0.00142764
-0.0110822
-0.00254463
-0.00187206
-0.00115407
0.000977984
0.00204815
0.00480667
-0.00379576
-0.00387935
0.00286844
0.00057555
0.000579831
-0.000831217
-0.000324165
-0.0073816
0.0124585
-0.0136378
0.00856093
0.00116692
0.000346756
-0.000857105
-0.000656566
0.000827708
0.00393944
-0.00051578
-0.00425136
-0.000443335
0.000338264
0.000485324
-0.000380253
-0.000196777
-0.00179303
0.00173193
0.00025788
0.00302331
-0.00786222
-0.00269186
0.00753077
0.00348739
-0.000422788
-0.00117451
-0.00189009
-0.0018278
-0.00120449
0.0108299
-0.00779763
-0.00208006
0.00194943
-0.0019497
0.00208032
0.00221703
-0.0018906
0.00268184
-0.00300827
-0.0105922
0.00184465
0.0036131
0.0013451
-0.00111373
-0.00129559
0.00106422
-0.0011733
0.00226973
-0.001457
0.00036058
0.00481427
0.00242833
0.00942741
-0.01667
0.0301109
-0.0033617
0.00389094
0.000156829
-0.000356668
-0.000617569
0.000817409
-0.00700518
0.000897834
-0.00122002
0.00732736
-0.00120413
0.00134442
0.00159063
-0.00173092
0.00206604
-0.00143918
-0.001027
0.0021467
0.00119208
-0.000814951
-0.00252383
-0.00243596
-0.00142669
0.00268944
0.00117321
0.00252232
-0.00291279
0.00394236
-0.00355189
-0.00243647
-0.00115715
0.00276449
0.000829135
-0.000613435
0.000750422
0.000473997
-0.000610984
0.000999419
0.000491937
0.00162352
-0.00311488
6.0229e-06
0.000782514
-7.77321e-05
-0.000710804
0.00174926
-0.00472444
0.00202014
0.000955044
0.0104713
-0.00889075
-0.00181749
-0.00459852
0.010739
0.012472
-0.0186125
-9.60573e-05
0.000611683
-0.00176571
0.00125008
-7.24398e-06
-0.0073515
-0.00115415
0.0122001
0.000841029
0.00476712
-0.0178083
-0.000602928
-8.85506e-05
0.000211743
0.000479736
-0.00117649
-0.00198893
-0.00149457
0.00466
0.000257864
-0.000156792
-4.95204e-05
-5.15516e-05
0.00023932
-0.000557207
0.000317888
-0.00321396
0.00147941
0.00241539
-0.000680847
-0.00102254
0.0006113
0.000182508
0.000228736
0.00208162
0.000405817
-0.00611655
0.00362911
-0.000657733
0.00148123
0.000291626
-0.00111512
0.0033095
-0.00357789
-0.00314847
0.0087894
0.0229574
-0.00664145
0.000491889
-0.000636764
3.26731e-05
-0.000148828
-3.63319e-05
0.000677049
-0.00222201
0.00299051
-0.000398584
0.00726663
-0.00596888
-0.00498331
0.00368555
-0.000399495
0.00195782
-0.00205113
0.000492806
0.000414088
-0.000791362
0.000444224
-6.69496e-05
0.00123796
-0.000473921
0.000408876
-0.00117292
0.0187363
-0.00566436
-0.0105063
-0.00256571
0.00467559
-0.000310253
-0.000578311
-0.00378702
0.000481831
-0.00311961
0.00310119
-0.000463405
-0.000873643
0.00280397
-0.00327762
0.0013473
-0.000234417
0.000557785
0.00234592
-0.00266929
-0.04143
-0.0290839
0.0261185
0.000498671
0.000658411
-0.000494397
-0.000662684
0.000609766
0.00112556
-0.00148971
-0.000245615
0.00121733
0.00828774
0.00224114
-0.0117462
-1.12799e-05
0.00116847
-0.00667212
0.00551492
-0.00289644
-0.00121156
0.00467288
-0.000564882
-0.0142711
-0.00724032
0.0175586
0.00395276
-0.00253898
0.00529095
-0.00343354
0.000681572
-0.00364835
-0.0025187
-0.000385809
0.00655286
0.00194932
-0.00890109
-0.00589782
0.0128496
0.0120817
-0.00280329
-0.0163843
-0.00424895
0.00427615
0.0133067
-0.0133339
-0.000217459
-0.00179139
0.00136809
0.000640752
-0.000959172
0.00277765
0.00071273
-0.00253121
-0.00217846
0.00119661
0.00198128
-0.000407875
-2.56704e-05
-0.000313821
0.000747366
-0.000754798
0.000762843
-0.00112369
-0.00438529
0.000486441
9.81959e-05
0.00324145
-0.00343335
-0.000113259
0.000305159
0.000813102
0.0003564
-0.00998804
0.00881854
-0.000795576
0.001109
0.00103168
0.00105884
0.000245505
-0.00130434
0.0021802
-0.000110863
0.00110981
-0.00317915
-0.000441101
-0.00079316
-0.00191655
0.00315081
0.00198759
-0.000648491
-0.00183147
0.000492374
-0.000180753
0.00102771
-0.000846961
-0.00049973
0.00129621
-0.000855933
5.94492e-05
-0.00181897
0.00209855
7.75692e-05
0.00292099
-0.00310889
0.000104095
8.38073e-05
-0.00169355
0.000410329
0.000528423
-0.00140806
0.00116701
-0.000183348
0.0004244
0.00144601
-0.000480212
-0.00030372
-0.000662076
-0.000366686
-0.00146275
0.00163072
-0.0160232
0.0193483
-0.00704564
-0.000614494
0.000687532
0.000326408
-0.000399446
-0.00775609
-0.0029112
0.014173
-0.00350573
-0.00165538
-0.0034881
0.00323298
0.0019105
-0.000361578
-0.000831944
0.000825843
0.000367679
0.000799447
-0.00373196
0.00445049
-0.00151797
0.00360816
0.00511624
-0.00842669
-0.000297707
-0.00403581
0.00460353
0.000113845
-0.000681562
-0.00503392
-0.00116175
0.00542571
0.000769964
-0.021355
-0.0178925
-0.0137415
0.00556074
0.0016276
0.00655318
0.00250117
0.000729553
0.000901816
-0.00413254
-0.000769732
0.00256367
-0.00102681
-0.000767126
-0.00153077
0.00451058
-0.0029798
-0.00152486
-0.00227673
0.00380158
-0.00515806
9.10286e-05
0.00525022
-0.000183194
0.0180973
-0.006481
-0.00966697
-0.00466314
-0.00455567
0.00131705
0.00790176
0.0015403
-0.00221893
0.000344196
0.000334431
-0.000507601
0.00130748
-0.00209771
0.00129783
-0.000220027
0.00156266
-0.00145014
0.000107503
-0.000252886
-0.000274873
-0.000943089
0.00147085
0.000621085
-0.00385435
0.00139463
0.00183864
0.00169977
-0.00697199
0.0307593
-0.0254871
-0.00708027
0.00765747
-0.00532303
0.000696607
-0.00578047
0.00316855
-0.000404585
-0.00605534
0.00539502
0.0010649
-0.00212791
-0.00162172
0.00705913
-0.000459129
-0.00100186
0.00081999
0.000640996
0.00353145
-0.0038575
0.000295489
-0.0320431
0.00559496
0.0264481
0.000126314
-0.0014702
-0.000118467
-0.000264957
0.000233727
0.000149697
0.000678114
-0.00119285
0.00131847
-0.000803734
-0.00080219
-0.000676155
0.000451305
-0.00386571
-0.00463638
0.0030531
0.00880917
0.00478053
-0.00877543
-0.000391533
0.000552407
-3.14565e-05
0.00433021
-0.00580437
0.00288329
0.0172238
0.00107399
-0.0173921
-0.000905682
0.00098964
0.000256975
0.000341665
-0.00158828
-0.00176238
-0.000665077
0.00125416
-8.63292e-05
-0.00537104
0.00370232
-0.00117692
-0.00240506
-0.00113893
0.00472092
-0.00216351
0.000772014
0.000561804
0.000829697
0.00142186
0.00182862
-0.00307398
-0.000176506
0.00022823
-0.00171487
0.000514515
0.000972124
0.00121287
-0.0008335
-0.00237632
0.00199696
0.000857778
-0.00220817
-0.000411995
-0.00113934
0.000844348
0.000384652
-8.96626e-05
0.000433137
0.00218889
0.00204621
-0.00466824
-0.000879098
0.00204261
-0.00243805
0.00127454
0.000797389
-7.50226e-05
0.000442586
-0.00116495
-0.00436792
0.00530979
-0.00383831
0.0029052
0.000193382
-0.00232105
-0.000777534
0.0174462
0.0115387
-0.0202357
-0.00874921
0.000552818
-0.000821063
-0.000207412
0.000475657
0.0012475
-0.00208531
0.00128188
-0.000444073
-0.000593224
0.000517259
0.000193412
-0.00211715
0.00159338
-0.000295567
0.000819335
0.00283609
0.000439769
-0.000702871
0.00324602
0.000761331
-0.00330448
-0.000726612
0.00043452
0.000568737
-0.000276645
-0.00317035
0.00157075
0.000985861
0.000613738
0.00120132
-0.000888352
0.000185703
0.000714194
-0.00169403
-0.00115461
0.00213445
0.00287507
-0.0105429
0.0042514
0.00341646
0.00743669
0.00389161
0.00529395
-0.000550305
0.000473909
-0.00286287
0.00570636
-0.00907991
0.00623642
-0.00385803
0.00774836
0.00190804
-0.00579837
0.000668999
-0.00141328
0.000379806
0.000364477
-0.000455319
0.000736591
-0.000101512
-0.00017976
-0.00809882
-0.0236138
0.0289436
0.00276902
0.00021009
0.0034935
-0.00373116
2.75623e-05
0.0157302
0.00788099
-0.0048748
-9.43642e-05
0.0206734
0.00171223
-0.0222913
-0.00333441
0.00325747
0.0014274
-0.00135047
0.00033618
0.000317591
-0.000239684
2.02527e-05
0.00160392
0.00129682
0.000269624
-0.000858731
0.000240171
0.000348935
-0.00155988
0.00018544
-0.000455051
0.0105827
-0.00265726
-0.013016
0.00509057
0.000771697
0.000129003
-0.000544732
-0.000355968
-0.00186334
0.00106888
-0.00175077
0.00254523
-0.011234
0.0060267
-0.00200989
0.000473475
-0.00107815
0.00541135
0.00428272
-0.00316289
-8.60379e-05
-0.00103379
0.00373097
-0.00146696
-0.000820409
-0.00144361
-0.00556774
0.0114461
0.0138457
0.000890493
-0.00300801
-0.0117282
-0.000977329
-0.0063753
0.00293699
-0.00721421
0.0248801
-0.00558417
0.0165319
-0.000237616
0.00413302
0.00262469
-0.000266018
-0.00270887
0.000350194
-0.00120158
-0.00269769
0.00237096
0.00152831
-0.00142386
0.000535179
0.000275241
-0.00322386
0.00368358
0.00036489
-0.000824614
0.00127662
-0.000655307
0.000496112
-0.00111742
0.0021789
0.000626952
-0.00037702
-0.00242883
-0.00203429
0.0010498
0.000593578
0.000390913
-0.000220874
0.00012736
-0.000163274
0.000256788
-0.000405391
0.000804907
-0.000399516
0.00496658
-0.00661466
0.0138482
-0.000140416
-0.000156383
0.00072937
-0.00043257
0.000607091
-0.000261867
0.000746792
-0.00109202
0.00302178
0.000227335
-0.000434523
-0.0028146
0.00524089
0.00267967
-0.00226602
-0.00565454
0.00280229
-0.00268177
0.00086259
-0.000983108
0.000787184
-0.000743613
-0.000271878
0.000228307
0.000460637
0.000290627
-0.000349819
-0.000401446
0.00467895
-0.00079737
-0.00340811
0.00014042
0.000209562
0.000155422
-0.000505404
0.000967382
6.86218e-05
0.00205401
0.000895346
-0.000685769
-0.00226358
-0.00034586
-0.00301871
0.0198965
0.00387805
0.00765494
-0.0027982
-0.00873479
-0.00222665
-0.00723477
0.000560317
0.00108347
-0.00378821
0.0022501
0.000454647
-0.00195233
0.0013827
0.00035217
0.000196987
0.000182037
9.88821e-05
-0.000477906
-0.00199584
0.00425913
-0.00412663
0.00159183
-0.00244048
0.000852144
-3.49522e-06
0.00433478
-6.40554e-05
-0.000187649
-0.00408308
0.00164409
-0.000116368
-0.000813534
-0.00509022
-0.0101501
0.018365
-0.00312463
-0.000152941
0.00043725
0.000547316
-0.000831625
0.000987946
-0.000126321
5.39978e-05
-0.000915624
-0.00810671
-0.0119358
0.00401936
0.00130532
-0.0023989
-0.00217016
0.00234705
0.00353785
0.00104436
-0.00195752
-0.000171609
-0.000497108
0.000314526
0.000354191
-0.00797574
-0.000213031
0.00529794
-0.00507719
-0.0006812
0.00184724
0.00391115
-0.000803365
0.0019133
-0.00144181
0.00498769
0.00246746
0.000475532
-0.00401946
0.00508802
-0.00154409
0.00555342
0.00433111
0.00221489
0.0137317
0.0032061
-0.000733833
-0.00348122
0.0218572
0.00087625
0.000656771
0.000304828
-0.00183785
0.0125717
-0.00941671
-0.00722136
0.00406635
0.00169129
-0.000558359
0.00359902
-0.00473195
-0.00093457
-0.000361253
0.00178814
-0.000492319
9.38613e-05
0.00358619
0.00160359
-0.00528363
-0.000320774
0.000645014
-0.000324241
0.000258842
-0.00413173
-0.000407588
0.00428048
-0.0011039
0.00110434
0.00116647
-0.00902813
0.0102943
-0.0108399
0.00957374
-0.00988972
0.00126218
0.00265887
0.00596867
-0.00489134
-0.0139473
0.00285701
0.0159816
-0.000832475
-0.00115246
0.014708
-0.012723
0.00076812
-0.000164413
-0.000629377
9.01266e-05
-0.00124925
-0.00266162
0.00382074
0.00140256
0.000783818
-0.00228244
0.0162053
-0.0175176
-0.00543142
0.00674376
-0.005547
-0.00279556
0.00452491
0.00381765
-0.00202008
0.0357524
0.00263234
-0.00015176
0.00255121
-0.00503178
-0.00227268
0.00447874
-0.000993191
0.00124746
-0.00421159
0.00447535
-0.00151122
-0.00399039
0.000191137
0.00175872
0.00204054
0.000521185
0.00361586
-0.00175739
-0.00237966
0.00345802
-0.00116176
-0.00273736
0.00337715
0.00495891
-0.00593601
-0.00240005
-0.00284955
0.00221231
0.00130164
-0.000664405
0.00160024
-0.000951581
-0.00295044
0.00230178
-0.00397102
0.00083115
0.000475533
0.00266434
0.0007707
-0.000765609
-0.00129598
-0.00065333
0.000405779
-0.000520494
0.000768045
-0.00454322
-0.00177003
0.00657872
-0.000265479
0.00197466
-0.000401146
0.00310207
-0.00334763
0.000592444
-0.000154082
0.00290927
0.0011692
0.0183442
-0.0196077
-0.00132449
-0.000761627
-5.87628e-05
0.00214488
-0.00330655
0.000756841
0.000753577
0.00179613
-0.00374752
0.00233424
0.00203477
-0.000621486
-0.00376083
0.00227077
-0.00363825
0.00512831
0.000635024
-0.000721343
-0.00207556
0.00216188
-5.04901e-05
0.00152104
0.00382048
-0.00529102
0.00597692
-0.00295529
0.00174221
-0.00476384
-0.00203769
0.005794
-0.0028538
-0.000902514
0.00861823
-0.0034281
-0.00428137
-0.000908764
-0.002301
-0.000309016
-1.09309e-05
0.00136806
-0.00209203
0.00186007
-0.00113611
-9.38134e-05
0.000401443
-0.000532871
0.000225241
0.000697656
0.000338151
-0.00130855
0.000272741
-0.0016102
0.00156914
0.0231817
-0.0231406
0.000561755
-0.000231431
-0.000902576
0.000572252
-0.00544645
-0.00200739
0.00498832
0.00246553
0.0244353
-0.0140351
-0.000836126
-0.00956407
-0.000107431
-0.00112901
0.00123644
0.000176295
-0.00238089
0.000781324
0.00142327
0.000371126
0.000382534
-0.00075366
-0.001257
0.0034284
-0.00156287
-0.000608526
-0.0050803
0.000903985
-0.000585909
-0.000458492
0.00162952
0.000329317
-0.000418541
0.00420773
0.000458716
-0.00263462
-0.00203183
-0.00214945
0.000401208
-0.000458975
0.00220722
-0.00126634
-0.00192976
0.00107894
-0.000919916
0.000680253
0.000239662
0.0028193
-0.0033193
-0.000143477
0.000643484
0.000447407
-0.00197002
0.00349728
-0.000941878
0.00194645
0.00223688
0.00236419
0.000871631
-0.00391073
-0.000646744
0.00986797
-0.000412059
-0.00204561
0.00278465
0.00165154
-0.00239058
0.00135338
-0.0017316
-0.000110435
0.000488662
-0.00316992
-0.0011178
0.00198772
0.00230001
0.00105918
-0.000283985
0.00149453
-0.000233156
0.000296293
-0.000973078
0.000909942
0.00275259
-0.00528554
0.00540802
-0.00113135
0.000401647
-0.00024195
0.000971653
-0.0023722
4.91533e-05
-0.00118066
0.00249213
-0.000908308
-0.00284083
0.00281054
-0.000702177
-0.00361434
0.00150598
0.00112033
-0.00065632
0.00284122
-0.00330523
-0.000157706
5.42054e-05
-8.4402e-05
0.000187902
0.000174147
3.46398e-05
-0.000208786
9.20744e-05
-0.000272078
0.000734265
-0.000554262
0.00411615
-0.00316192
0.00266663
-0.00362086
-0.00349914
0.0011117
0.0019863
0.000226461
-0.0023491
0.00188822
-5.47108e-05
0.000671601
4.15208e-05
-0.00060417
0.00168778
0.000163893
-0.000106923
-4.6162e-07
-0.000113489
-0.00133885
0.000642979
-0.00101311
0.00170899
-0.00302872
0.000305187
0.0033333
-0.00112261
-0.000342765
0.000116508
0.00134886
-0.00279118
0.00126851
-0.00354746
0.00688996
-0.00232972
-0.00101278
0.00688075
-0.00185593
-0.000424405
-0.000210634
0.000635039
-0.00954081
0.0111501
0.00898686
-0.00394329
-0.00883146
0.00378789
0.00134689
-0.000309868
-0.000717059
-0.000319968
0.0020013
-0.00143153
-0.00127191
0.00346925
0.00327022
0.000623467
-0.00736293
-0.00083692
6.6912e-06
0.000775518
3.4811e-05
0.000420993
-0.00201569
-0.00346903
-0.0016444
0.00229419
-0.000278059
0.00432551
-0.00941095
-0.00423218
0.00931761
-0.000432078
0.000269415
0.000401983
-0.000219646
0.000123748
-0.00122976
0.000209001
0.000288219
0.000732535
-0.00444773
-0.000365671
-0.000758347
0.00557175
0.00622559
0.0102599
-0.0023482
-0.00157839
-0.000578053
0.00450464
-0.000118779
0.00318882
-0.00258821
0.00245152
-0.00207396
0.00180135
-0.00728602
0.00464906
-0.0202144
0.0228514
0.0235237
-0.0028502
0.0235075
-0.0444669
-0.00231656
-0.00117087
-0.00105769
0.000350144
0.00187842
0.0144194
0.0287077
-0.0112935
0.00465353
0.0176652
-0.0110252
-0.0202317
0.00684086
-0.00383242
0.0172233
-0.00128714
-0.00209089
-5.65199e-05
0.00343455
-0.00523328
0.0172537
-0.0233139
0.00455911
-0.00705684
0.00327701
-0.0108138
0.00623104
0.000770924
-0.00235626
0.00438763
0.0017247
0.00138772
-0.0023334
-0.000779019
0.00117092
-0.000202913
-0.000699852
-0.000268155
-0.000660174
0.00170284
-0.00129708
-0.0045975
-0.00306965
0.00551975
0.00214739
0.000128819
7.75833e-05
-9.55473e-05
0.00396152
-0.00394356
-0.00374274
-0.00133285
-0.000121221
-0.00491474
-0.005946
0.00889229
0.00196845
-0.00736365
-0.00978304
0.00287562
-0.00270511
-0.00950814
0.00840506
0.00380819
0.0143604
-0.0119229
0.00260336
-0.00339422
0.00700793
-0.00268554
-0.000928176
-0.00180313
0.00179029
-0.00266893
0.00335531
-0.000182109
0.00058489
-0.00375809
-0.00340281
0.00127285
0.000326825
-0.000148883
0.00383268
-0.00400104
-0.00289138
-0.00202088
0.000939809
0.00397245
-0.00147163
-0.000775078
-0.00204823
0.00429493
0.00454519
0.0117855
-0.000406618
-0.0159241
0.00717122
0.00231693
-0.0113917
0.00190359
0.0156782
0.00271269
-0.00834139
-0.00352158
0.0119435
-8.05588e-05
-0.00224439
0.000142961
-0.00130138
-0.00282628
0.00116134
0.00115734
7.0216e-06
-0.00050743
0.00128546
-0.000785048
-0.000412277
0.00104019
-0.000434987
-0.000192928
-0.00034678
0.000732263
0.000411906
0.00299775
-0.000492393
-0.00325587
0.000750514
0.00332896
-7.2373e-05
0.00253237
-0.00317387
0.00014911
0.00117179
-0.00101162
-0.000124262
0.00394852
-0.00183729
-0.00198697
0.00181527
0.00160919
0.000858256
0.000222596
-0.000122283
-0.00294986
0.00333677
0.000308
-0.00178193
-0.00186284
-1.92939e-05
0.00370963
-0.00147802
0.00126777
0.0029469
-0.000923496
0.00353719
0.000177508
-0.0027912
0.000890761
0.00237085
-0.000493205
0.00093105
-0.00236318
-0.00128421
0.00271635
-0.00254686
0.00318066
-0.00184895
0.00121515
0.00681768
-0.00675653
-0.00125352
0.00119236
0.00105093
0.00175249
0.00401426
0.00264486
0.00142526
-0.000605409
-0.00346471
0.00154262
0.00286444
-0.0017622
0.00097195
0.000330742
-0.00196984
0.000667148
-0.00181651
-2.30939e-05
0.00270816
-0.000868558
-0.000122899
-0.00213928
0.000445672
-0.00178087
-0.000941295
0.00269907
-0.00230116
0.00039739
0.00106188
-0.00115864
-0.00389363
-0.0015023
-0.000365415
0.00126408
0.000603639
0.00299951
0.000179899
-0.00211753
0.000102572
-0.00147011
0.00293022
-0.00156268
-0.00278036
0.00150213
0.000462753
0.000815482
0.000523383
-0.000433241
0.000141946
-0.000232089
-2.64198e-06
-0.000110739
-0.000500877
-0.000571186
0.000107717
0.000964346
0.00109518
-0.000104741
-0.000170701
-0.000819738
0.000289434
0.00118126
-0.000375516
0.00109858
0.000524155
-0.000222259
-0.00140048
-0.000984362
-0.00109389
0.0018165
0.000261751
0.000330649
-0.00164033
0.00282969
-0.00152
-0.00211166
0.0021279
0.000774576
-0.000790815
-0.00257817
0.00109688
0.00054879
0.0009325
-0.021361
0.00707813
-0.00182443
0.000391698
-0.00173762
5.07384e-06
-0.000995721
0.000552929
0.000437718
0.000112889
-0.00062733
0.000830484
-0.000316043
0.000594738
-0.000996318
0.00094953
-0.00054795
0.000557169
0.000478336
-0.0004942
-0.000541305
0.000329737
5.58229e-05
0.00070811
-0.00265123
-0.000688237
0.00263136
0.00295391
-0.000604404
-0.0016414
0.00440868
-0.00597143
-0.00336749
0.00493024
0.00636702
-0.00526133
0.0161363
-0.000665999
-0.016234
0.000763634
0.00155472
0.00592055
-0.00110825
-0.0111379
-0.00205632
0.0131869
0.00233103
0.00831309
-0.0084789
0.00296606
0.0164651
-0.00989327
-0.00953785
0.00375534
0.0041789
0.00351834
-0.000914695
-0.01399
0.0115281
0.00337657
0.0302937
-0.00372683
0.012522
-0.0170221
0.0123082
0.00379924
-0.00409764
-0.0102587
0.000366343
0.00322698
-0.00372495
-0.0165242
-0.0117255
-0.00303807
0.00362573
-0.00198154
-0.00495912
-0.000922525
0.00786319
-0.00944169
-0.00426536
0.00112661
0.0216456
-0.0300582
0.00286291
-0.000355557
-0.00346652
0.00330982
0.0003321
-0.000779008
0.000901592
0.00239296
-0.0022743
-0.00102026
-0.00184274
0.00200021
-0.000698175
0.000540708
-0.00127927
-0.00119633
-0.00246869
-0.00104256
0.00309542
0.000415834
0.00201468
0.00189482
-0.00347636
0.000760783
-0.000588849
-0.00356883
0.00139869
0.00240337
-0.00023323
-0.000915724
0.000885995
-0.00133486
0.00136458
0.00355372
-0.00302495
-0.000839019
-0.00309642
0.00241816
-0.000344911
0.00102317
-0.000292314
-0.00245146
0.000419443
0.00232434
-0.00479883
0.00128606
-0.000868891
-0.00119517
-0.00206784
0.000166584
0.00254743
-0.0032957
0.00290409
-0.00215581
0.000725126
0.00172156
0.000100736
-0.00114968
-0.000156558
0.000494582
0.000811655
0.00242818
0.000139037
-0.000294863
-0.00227236
0.00111775
0.00113126
-4.06743e-05
-0.00220834
-0.00107996
-0.00280161
0.00246678
0.00141478
0.00118125
-0.0014384
-0.000895363
0.00115251
0.000359433
0.000605525
0.000216292
0.00243397
0.000434097
-0.00224111
-8.26735e-05
0.00130049
-0.00100007
-0.000217744
-0.000353056
-0.000669414
0.00031552
0.00070695
-0.000586635
-0.000348213
0.000478996
0.000455851
-5.63501e-05
-0.000343099
-0.000187186
0.000592618
-0.000940626
0.000617632
-0.00401145
-0.00190461
0.00391413
0.00200192
-0.000271147
7.22738e-06
0.00105166
-0.000787743
-0.00110709
-0.000414007
0.00124995
0.00113958
-0.000673556
0.000749268
-0.00121529
0.00142046
-0.000105838
-0.000175044
0.0143693
-0.00059062
0.00242663
-0.00204149
0.0181105
-0.0058827
-0.00340934
0.00278843
-0.00303178
0.0043595
0.00139941
-0.00199548
0.00186137
-0.0012653
0.00389401
0.000293838
-0.000187548
0.00067595
0.00260948
-0.00309788
0.000479886
0.00186773
-0.00253516
-3.24611e-05
-0.00232337
-0.00154806
0.000243642
-0.000904613
0.00108346
-0.000422487
-0.000284047
-0.00063782
0.000266119
0.000655748
0.000772107
0.000249168
-0.000426537
0.000153417
-0.000266019
0.000871304
-0.000758702
-0.000584264
-0.000168412
-0.000570614
-9.80077e-05
0.00185681
0.000675164
-0.00198961
-0.00197457
-0.000441885
0.00440607
-0.00155843
-0.000440939
0.000180395
-0.00111423
-0.00205231
0.00016211
0.00028474
-0.000838383
-0.000976839
-0.00275884
0.00217725
0.000216289
-0.000597889
0.000235079
0.000146521
-0.000963296
0.00124032
0.000566288
-0.000843314
0.000264414
-0.00161788
0.00151558
-0.000122363
0.00223945
0.000788112
0.00203709
-0.00189535
-0.000999928
0.00085819
-0.00335336
-0.000784778
0.000486786
0.00365135
0.00112908
-0.00086423
0.000284628
-0.000549478
-0.00504962
0.000978753
0.00103862
0.00101887
-0.00071172
-0.00134576
-0.000288503
0.000834789
-0.00451731
0.000633506
-0.000219432
0.000359911
-0.000773985
0.000850912
0.00222724
-0.00188036
-0.00119779
-0.000541527
0.00107431
2.89725e-05
1.94982e-05
-0.000778571
-0.00011889
0.000877962
0.000829708
0.000393159
-0.00105941
-0.000163457
0.000280669
-0.000136383
-4.29942e-05
-0.00274938
-0.0026908
0.00303511
0.00640109
-0.00815018
0.00593385
-0.00418477
0.000143734
-0.000826396
0.000398615
-0.000986048
0.00141935
-8.85927e-05
-0.000344711
0.000208745
0.000135249
-0.00144789
-4.3702e-05
-0.000241907
-0.00055256
0.000838169
0.00552171
0.000195272
0.00230223
0.00133209
0.000579738
-0.0001697
0.00034626
-0.000756297
0.00151739
0.00142881
0.000616907
-0.0035631
-0.00036617
0.000310743
-1.73458e-05
7.27731e-05
-0.00291347
-0.00027268
-0.000960488
-0.0024448
-0.00106312
-0.00382844
-0.00044042
0.00410761
0.000161243
0.0055736
-0.000670068
-0.00119808
-0.00289428
0.00418248
0.00142763
-0.000353445
-0.000311342
0.00152005
-0.0021518
0.000766177
0.000586431
0.00032605
0.00122593
-0.0007858
-0.00562889
0.00010023
0.00674299
-0.00121434
0.00291716
-0.00414259
3.02602e-05
-0.00137078
-0.00694893
0.00269083
0.00111601
0.0014905
1.56695e-05
-0.00262219
-0.000307637
0.000224307
-0.00021712
0.00030045
5.07466e-05
-0.0022764
0.00164992
0.000575736
0.000186234
-0.000507723
-1.78572e-05
0.000339347
-0.0180782
0.0118941
-0.00859574
-0.00047507
-0.0087684
0.00303052
0.0204931
0.0023106
-0.0203601
0.0174589
-0.00809852
0.0212173
0.0113407
-0.0105653
0.0125958
0.00445184
-0.0122455
0.00623135
0.00156233
-0.000232301
-0.000789789
-0.0010122
-0.00727382
-0.003935
0.0080111
0.000342711
-0.0014592
0.00105587
6.06179e-05
0.00654904
-0.00891863
0.0136708
-0.0140181
-0.00531712
-0.00918012
-0.022863
-0.00052507
-0.00188412
-0.000944169
-0.00197212
0.00197234
0.00115362
-0.00115384
-0.00478393
-0.0011232
0.00469558
0.0168369
0.00597016
-0.00908452
-0.0137225
-0.0189891
0.00784767
-0.000314071
-0.000900905
0.0009482
0.000266776
-0.00211477
0.000911402
-0.00122996
0.00243333
-0.00119883
-0.000610184
-0.00129988
-0.00232308
0.00506823
-0.00197011
0.00106605
0.00242145
-0.0048127
0.00162035
0.00385138
-0.000659026
0.000520898
0.00172356
0.000200389
0.000965052
0.000280567
0.000459365
0.000430351
2.60135e-05
-0.00091573
5.66898e-05
-0.000147273
0.000375201
-0.000284618
0.00208802
-0.00155686
0.0012845
-0.00181565
0.00130528
-0.00349558
0.00175661
0.000433688
-0.0068424
0.0039458
0.00532493
-0.000607442
-0.000337646
-0.00019425
0.00104944
-0.00127081
0.000397684
2.7592e-05
0.00228853
-0.00211918
-0.00324595
0.0030766
-0.000598705
-0.00222159
0.00239762
0.000422681
-2.90345e-06
-1.81759e-05
0.000570065
-0.000548986
0.000213355
-0.00115429
0.00682501
0.00420946
0.00319171
-0.0024843
-0.00120091
0.00124325
-0.00081419
-0.00237397
0.00194492
0.00213666
0.000464514
-0.00120537
-0.00139581
0.00350078
-0.0029273
-0.00407056
0.00349708
-0.000618941
-0.0020604
0.000471175
0.000692619
-0.00198371
-0.00134956
0.00268005
-0.000809306
0.023392
-0.00388742
0.00269174
0.00049244
-0.000356005
-0.00282817
0.00337703
0.000344977
-0.00509279
-0.000777701
0.000999393
0.00372362
-0.00394531
-0.00424536
0.00151003
0.000152059
-0.000875022
0.00127237
-0.000549407
0.00220043
-0.0014573
-0.00278874
-0.00145923
-0.000492797
0.00241559
0.000816735
0.00146806
6.68065e-05
-0.0023516
-0.0160744
-0.0114284
-0.00365157
0.0033193
-0.000108563
-0.00275297
-0.000457759
0.0296397
-0.00136611
0.00704802
0.014508
0.0200034
-0.0216136
-0.000296176
-9.74842e-05
0.000222932
0.000170729
0.00448342
-0.00179327
-0.00191922
-0.000231898
-0.000243349
-0.00229751
-0.000129397
-0.00020509
-0.00100427
0.00133876
-0.000735428
-0.00104143
0.000220284
0.000819438
-0.00983186
0.0214515
0.0275282
-0.0125392
8.04228e-05
-0.00068099
0.000336729
0.000263838
0.0010779
-0.00124335
9.61139e-05
6.93345e-05
2.22082e-05
-0.000371803
0.00151734
-0.00116775
0.000449901
0.000129585
-0.000652406
0.000295263
-0.000158381
-0.00052377
0.000704359
-0.00805827
0.00459868
-8.94765e-05
0.000531613
0.000225907
-0.000668043
-0.00775174
0.00418963
-0.00703009
0.0145026
-0.00253894
-0.000924395
-0.0110393
-0.00417269
0.0064069
-0.00143477
-0.00105262
0.00088141
0.00119434
-0.00102314
-0.00131259
0.00269018
-7.01127e-05
-0.00130748
0.000919467
-0.00315661
0.0127841
-0.0213058
-0.018613
-0.00400438
0.00295852
0.000204139
0.00297053
0.00655671
0.00203658
-0.0002868
0.0143807
-0.00364705
-0.0021199
-0.000188161
0.00201956
0.000141476
-9.11619e-05
0.00246328
-0.00251359
-0.00048676
-0.000410122
-2.71128e-05
0.000923994
-0.00180454
-0.00193097
-0.00274456
0.00269329
-0.00114755
0.00568905
-0.00749052
-0.00205249
-0.00151681
0.00120622
0.00236309
-0.00451731
0.00229266
0.000700644
-0.00169321
3.54452e-05
0.000957125
0.000404461
-0.0128267
0.000190666
0.00167884
0.00169588
-0.001507
-0.00249576
-0.000729394
0.00249973
0.000725422
0.00732047
-0.00804994
-0.00159361
-0.00221944
-0.000722092
0.0012475
0.000369553
-0.0042741
7.61091e-05
0.00279329
-0.00665023
0.00464092
-0.000783982
-0.0222299
0.0071555
0.0230497
-0.00671327
-0.00141456
0.00166276
0.000452449
0.00114967
0.000236005
-0.00102344
-0.000362231
0.00015921
0.000849475
0.000140981
0.000411711
0.00102785
-0.00128035
0.00140075