/*--------------------------------*- C++ -*----------------------------------*\
| =========                 |                                                 |
| \\      /  F ield         | OpenFOAM: The Open Source CFD Toolbox           |
|  \\    /   O peration     | Version:  2506                                  |
|   \\  /    A nd           | Website:  www.openfoam.com                      |
|    \\/     M anipulation  |                                                 |
\*---------------------------------------------------------------------------*/
FoamFile
{
    version     2.0;
    format      ascii;
    arch        "LSB;label=32;scalar=64";
    class       volScalarField;
    location    "0.0948794";
    object      k;
}
// * * * * * * * * * * * * * * * * * * * * * * * * * * * * * * * * * * * * * //

dimensions      [0 2 -2 0 0 0 0];

internalField   nonuniform List<scalar> 
47425
(
0.26865
0.299859
0.287983
0.294411
0.431352
0.289456
0.390939
0.29665
0.366887
1.51014
0.30628
0.322245
0.336462
0.288583
0.280059
0.310628
0.283591
0.303532
1.02922
0.486129
0.291646
0.282702
0.292803
0.287837
0.290658
0.267553
0.271646
0.761566
0.269467
0.274032
0.283548
0.315622
0.356124
0.273298
0.263781
0.283802
0.277993
0.363339
0.280362
0.289788
0.343876
1.00213
1.10888
0.3784
1.71208
0.314383
0.307206
0.350645
0.278125
0.269243
0.720857
0.571433
0.267366
0.932928
0.344625
0.346084
0.271962
0.27097
0.366588
0.281911
0.866988
0.805585
0.942585
0.292342
0.364462
0.272433
0.341093
0.33809
0.898254
0.285524
0.281589
0.264941
0.267461
0.286917
0.991205
0.368709
0.982038
0.28387
0.818303
0.489057
0.992626
0.289285
0.280451
0.348596
0.360823
0.294004
0.265055
0.26124
0.483037
0.539321
0.280482
0.314511
0.270393
0.362378
0.373613
0.354233
0.269043
0.272929
0.29042
0.345962
0.334343
0.389932
0.284358
0.404857
0.277669
0.341534
0.295796
0.301292
0.489306
0.306585
1.46587
0.318146
0.396636
0.339055
0.29873
0.751217
0.294328
0.578945
0.314791
0.30441
0.302982
0.362698
0.342883
0.316982
0.334977
0.360796
0.294863
0.364887
0.337688
0.270136
0.278679
0.300407
0.453803
0.324682
0.732771
0.313597
0.280376
0.366404
0.289727
0.283831
0.354005
0.326357
0.30836
0.42814
0.306103
0.366223
0.401477
0.339848
0.341228
0.361576
0.432987
0.734587
0.360297
0.740685
0.297172
0.294997
0.306086
0.858047
0.321962
0.29989
0.305406
0.268458
0.262226
0.283708
0.716732
0.77361
0.337722
0.990931
0.317454
0.814827
1.16773
0.322515
0.353841
0.285685
0.318133
0.34216
0.779317
0.268151
0.269741
0.27024
0.782526
0.26466
0.267454
0.267883
0.26926
0.336702
0.289023
0.375246
0.332083
0.275307
0.357974
0.275074
0.372676
0.365297
0.269337
0.286642
0.360532
0.294526
0.299545
0.266737
0.306319
0.358069
0.440887
0.288801
0.301063
0.364807
0.26667
0.284222
0.346484
0.361897
0.270537
0.280288
0.352098
0.29623
0.279324
0.27373
0.28647
0.568716
0.303288
0.352903
0.4898
0.27252
0.623633
0.278659
0.384123
0.471042
0.27054
0.291542
0.31713
0.351694
0.286361
0.288095
0.31533
0.36937
0.353439
0.302048
0.530763
0.304134
0.493359
0.350896
0.319865
0.265014
0.268469
0.277352
0.274097
0.362565
0.282395
0.35755
0.268017
0.280267
0.271995
0.462144
0.277523
0.365695
0.291564
0.269376
0.286641
0.3497
0.286122
0.357613
0.366043
0.352128
0.297477
0.348345
0.344515
0.330628
0.270372
0.342536
0.272503
0.310406
0.302629
0.482158
0.533195
0.275833
0.47197
0.361803
0.47388
0.404948
0.518509
0.487546
0.847533
0.265395
0.928425
0.344479
0.286155
0.279769
0.333702
0.301762
0.350562
0.314093
0.71023
0.287394
0.371308
0.272557
0.284119
0.299684
0.289927
0.276276
0.307893
0.326609
0.304654
0.264744
0.299062
0.277121
0.845607
0.76589
0.719062
0.269219
0.267834
0.276401
0.292899
0.730294
0.297212
0.307819
0.558976
0.311255
0.327899
0.356322
0.294841
0.621261
0.520269
0.290718
0.297686
0.264651
0.308002
0.269442
0.29771
0.267659
0.269229
0.275784
0.281596
0.995881
0.291998
0.277983
0.383803
0.269451
0.906552
0.310263
0.265983
0.27502
0.285949
0.285598
0.265541
0.284803
0.263646
0.273953
0.272772
0.278645
0.282001
0.307799
0.289238
0.272533
0.29803
0.28962
0.293074
0.305839
0.295204
0.280878
0.296773
0.360263
0.315778
0.302946
0.290328
0.294804
0.274945
0.29092
0.348761
0.358444
0.314305
0.282291
0.33992
1.07797
0.280768
0.284885
0.385664
0.283318
0.491933
0.355638
0.364437
0.279176
0.357607
0.283696
0.269295
0.355244
0.321557
0.364513
0.291275
0.284794
0.349718
0.291067
0.287693
0.288476
0.298587
0.278274
0.277826
0.285876
0.316486
0.28933
0.360556
0.266932
0.589767
0.268026
1.06727
0.300445
0.338419
0.326734
0.269881
0.330354
0.269484
0.304567
0.285963
0.509995
0.770419
0.266739
0.30287
0.286236
0.286373
0.294097
0.280806
0.28238
0.338779
0.298055
0.275773
0.289316
0.294614
0.27078
0.411282
0.285505
0.287997
0.447838
0.34979
0.278561
0.564254
0.368986
0.346437
0.363194
0.663287
0.269656
0.285151
0.285892
0.285189
0.574367
0.299247
0.266386
0.271776
0.290092
0.290479
0.295106
0.276182
0.682487
0.55509
0.458365
0.356379
0.357234
0.445999
0.268748
0.28325
0.325155
0.282467
0.355172
0.363124
0.377802
0.284215
0.369613
0.288116
0.291244
0.302795
0.287572
0.287119
0.282772
0.348575
0.357669
0.367332
0.30564
0.30581
0.314648
0.283685
0.853175
0.360523
0.360088
0.344928
0.316876
0.693944
0.298074
0.267868
0.300763
0.350141
0.326964
0.298787
0.312967
0.276849
0.293654
0.26992
0.298019
0.400302
0.26539
0.312616
0.316615
0.32298
0.269191
0.269174
0.271546
0.278007
0.279168
0.297981
0.277083
0.271401
0.283098
0.292477
0.29431
0.308605
0.296126
0.269494
0.305459
0.267143
0.269487
0.279502
0.303395
0.309685
0.302404
0.363305
0.375393
0.689582
0.284571
0.278567
0.323497
0.365735
0.416744
0.418126
0.308888
0.279342
0.3152
0.398575
0.315878
0.424034
0.362381
1.48502
0.307612
0.310025
0.273929
0.416613
0.27043
0.280108
0.284248
0.388171
0.269423
0.264635
0.986293
0.273866
0.32685
0.26882
0.398776
0.2629
0.272909
0.381667
0.369954
0.285699
0.267345
0.248658
0.268205
0.286402
0.268249
0.267681
0.265085
0.342447
0.414304
0.286732
0.33358
0.285715
0.269556
0.488634
0.280889
0.331026
0.171908
0.28586
0.270064
0.22799
0.70717
0.294675
0.181988
0.200947
0.271288
0.346964
0.265931
0.275555
0.361926
0.308296
0.950054
0.284053
0.312454
0.268181
0.421969
0.337809
0.369484
0.292484
0.77939
1.92058
0.281283
0.301402
0.321114
0.289977
0.343176
0.354312
0.317718
0.308057
0.378946
0.27726
0.359111
0.432636
0.307868
0.279196
0.43706
0.328784
0.28201
0.297544
0.320005
0.272788
0.361918
0.331559
0.320177
0.343278
0.272832
0.297168
0.900229
0.28839
0.365198
0.782573
0.746212
0.270585
0.35436
0.668936
0.321802
0.378889
0.803698
0.376793
0.722471
0.268346
0.266546
0.354825
0.466723
0.381506
0.375569
0.266248
0.350996
0.27419
0.294923
0.263778
0.315113
0.283834
0.803544
0.645751
0.311081
0.301694
0.319912
0.285692
0.374336
0.351686
0.35241
0.360589
0.342619
0.287746
0.308841
0.354472
0.275769
0.343912
0.33324
0.912
0.520104
0.308884
0.280209
0.347347
0.268932
0.863805
0.281178
1.49105
0.325856
0.40655
0.315095
0.294169
0.313731
0.274171
0.318262
0.286401
0.266819
0.380704
0.345644
0.368556
0.355652
0.344773
0.926814
0.315496
0.363243
0.338505
0.363677
0.270262
0.321713
0.307935
0.354262
0.341378
0.298241
0.327453
0.29201
0.313912
0.283583
0.277655
0.431359
0.497766
0.279425
0.397448
0.27769
0.296616
0.285613
0.270054
0.582177
0.267299
0.29129
0.287035
0.268097
0.600478
0.888422
0.290209
0.333928
0.271004
0.318045
0.269295
0.296843
0.297398
0.509125
0.295381
0.268964
0.289221
0.27224
0.288412
0.281443
0.26445
0.292227
0.269442
0.264338
0.291955
0.491763
0.268612
0.241857
0.60071
0.512947
0.252724
0.299489
0.80453
0.320412
0.302941
0.456094
0.241149
0.74793
0.310171
0.276182
0.440421
0.307982
0.508645
0.29106
0.321644
0.277313
0.274168
0.397596
0.347817
0.288205
0.314307
0.300928
0.338711
0.34833
0.37843
0.442978
0.422118
0.778869
0.924994
0.831086
0.556024
0.583369
0.363099
0.341571
0.276696
0.269154
0.31695
0.278191
0.301787
0.312423
0.329591
0.270363
0.309517
0.345964
0.270254
0.359977
0.300426
0.269413
0.345002
0.269889
0.278405
0.281623
0.31872
0.381578
0.272696
0.269224
0.279093
0.339692
0.330465
0.467953
0.395447
0.269212
0.317069
0.265231
0.274417
0.276286
0.321713
0.338534
0.480398
0.290599
0.27667
0.278344
0.358697
0.855111
0.287865
0.287807
0.354118
0.314331
0.342929
0.310691
0.295934
0.3768
2.43761
0.402438
0.841625
0.366857
0.354122
0.264859
0.364532
0.275631
0.309253
0.303202
0.276961
1.78892
0.385563
0.327288
0.757326
0.335759
0.262961
0.292064
0.366202
0.276645
0.315055
0.197001
0.273599
0.350809
0.353578
0.37353
0.677649
0.355518
0.334273
0.446013
0.278289
0.283676
0.396664
0.480795
0.308956
0.3703
0.400295
0.313506
0.282478
0.277634
0.301954
0.336523
0.335133
4.26293
0.637484
0.327922
0.518413
0.477506
1.11526
1.39724
0.46228
0.345722
0.360762
0.373541
0.340078
3.15958
0.277046
0.296452
0.372761
0.221182
0.303582
0.367186
0.339026
0.271447
0.365951
0.425403
0.363484
1.55601
0.265239
0.342121
0.376584
0.365703
0.357266
0.34985
0.37481
0.407369
0.311327
0.326759
0.415128
0.291864
0.279753
0.303848
0.375402
0.273714
0.371403
0.34346
0.337182
0.591247
0.829109
0.277812
0.3635
0.286962
0.36189
0.347957
0.606632
0.512327
1.17601
0.279638
0.329636
0.292132
0.800763
0.293183
1.86169
0.388749
0.368915
0.441906
0.529486
0.299303
0.280988
0.283653
0.292025
0.412002
0.291897
0.35908
1.29259
0.341605
0.271936
0.277285
0.61318
1.12312
0.456758
0.498932
0.886246
0.379631
0.326115
0.349673
0.288368
0.421945
0.348857
0.36494
0.975855
0.295943
0.275243
0.280476
0.357108
0.347479
0.365896
0.30299
0.28411
0.416575
0.278943
0.316161
0.283926
0.352838
0.343061
0.339278
0.308505
0.299418
0.284333
0.35694
0.29227
0.291925
0.30174
0.284833
0.338063
0.401923
0.314963
0.331691
0.27945
1.59797
0.362091
0.346244
0.309615
0.859521
0.76883
1.33569
0.301765
0.31398
0.30115
0.721016
0.326728
0.304411
0.341052
0.336782
0.363508
0.869419
0.344835
0.283606
0.34119
0.317559
0.267589
0.522601
0.938399
0.289882
0.98003
0.322196
0.597053
0.508415
0.30574
0.329725
0.353778
0.590312
0.324037
0.301426
0.302101
0.66913
0.463436
0.575259
0.294235
0.306787
0.274487
0.286577
1.61968
1.51801
0.326554
0.324218
0.354231
0.882185
0.277975
0.27074
2.4654
1.38953
0.355627
0.282516
0.814113
1.54996
1.25721
0.360198
0.809554
1.52921
1.03199
0.306558
0.400953
0.398644
0.302785
0.303763
1.62789
1.28032
0.32101
0.328603
0.345079
0.28576
0.303286
0.314502
0.422849
0.326887
0.366938
0.277103
0.381886
1.59246
0.940414
0.287622
0.517066
0.396966
0.307568
0.452973
0.271289
0.324286
0.288763
0.304459
0.375826
0.277605
0.709526
0.288177
0.784632
0.514034
1.00131
0.390891
0.417353
0.321616
0.351001
0.364307
0.495893
1.0268
0.341588
1.07031
0.460544
0.681567
0.427196
0.808774
0.651834
0.298797
0.378051
0.919739
0.327754
0.279286
0.28437
0.795911
0.669406
0.287928
0.301824
0.588565
0.359122
1.12107
0.741815
0.338057
0.406322
0.988214
0.334263
0.291079
0.860634
0.282411
0.802829
0.744269
0.280664
0.27684
0.295812
0.27169
0.35649
0.289004
0.283908
0.348121
0.35394
0.423156
0.301759
0.28846
0.46662
2.08844
0.734158
0.317211
0.305055
0.50879
0.283287
0.931955
0.321589
0.319737
0.348664
2.18112
0.327141
2.10985
0.37541
0.451358
0.304251
0.749734
0.559675
0.592028
0.38821
0.486548
0.33158
0.363526
0.346321
0.537984
0.318018
0.41517
0.737357
0.388158
0.405912
0.902737
0.313645
0.287715
0.638135
1.6177
0.369977
0.306896
0.359329
0.379488
1.12828
1.14802
0.272423
0.290288
0.359141
0.802944
0.355932
0.529596
0.33554
0.346816
0.352531
0.434506
0.317834
0.54426
0.575151
0.31157
0.340176
0.392336
0.304152
0.839134
2.04384
0.307005
0.783001
0.810553
0.376772
0.695404
0.360611
0.326488
1.01169
0.329577
1.1804
3.00523
0.29517
0.332269
0.399365
0.365345
0.353173
0.352326
0.456715
0.357994
0.30165
0.350674
0.302641
0.712446
0.352791
0.325923
0.349557
0.598802
0.283259
0.767795
0.694276
0.325811
0.810794
2.09105
0.27807
0.415878
0.415733
0.337829
0.308856
0.474292
0.895226
0.451749
1.19554
0.2834
0.700491
0.410577
0.270872
0.342649
0.345526
0.445657
0.303375
0.346326
0.520855
0.272141
0.523029
0.336385
1.41201
0.358687
0.271935
0.331732
0.476104
0.321155
0.736631
0.403633
0.289726
0.619937
0.280015
0.310967
1.29405
0.268106
0.350663
0.652514
0.310042
1.12612
1.10922
0.347374
0.356752
0.279176
0.831315
0.471181
0.926577
0.749573
0.370507
0.306561
0.384046
0.9706
0.951103
1.33823
0.335648
0.357545
0.324232
0.29028
0.364276
0.664799
0.347173
0.329935
0.311764
0.274136
0.293284
0.353073
0.283036
0.348864
0.346098
0.380512
0.278756
0.344847
0.528747
0.298965
0.276603
0.355268
0.320566
0.359399
0.273361
0.307737
0.316636
0.286572
0.375958
0.514076
0.33686
0.288072
0.276472
0.269683
0.479018
0.301633
0.298416
0.464522
0.999397
0.656534
0.285824
0.455769
0.424742
0.371752
0.409466
0.379904
0.389902
0.344561
0.287577
0.344949
0.348035
0.287899
0.351184
0.363519
0.331712
0.285493
0.290087
0.340418
0.459127
0.33172
0.371779
0.760086
0.346477
0.633152
0.362817
0.811596
0.265865
0.346899
0.317103
0.279531
0.288745
0.365881
0.272726
1.24022
0.515274
0.762906
0.334452
0.866664
0.28221
0.305679
0.48631
0.294345
0.741468
0.383234
0.569721
0.332368
0.933075
0.893901
0.285882
0.268902
0.881162
0.293434
0.908086
0.31807
0.338221
0.283722
0.278884
0.278008
0.294317
0.311701
0.652499
0.360981
0.385254
0.301069
0.326606
0.267562
0.355009
1.25809
0.346872
1.36309
0.58742
0.286638
0.356323
0.30235
0.308325
0.301929
0.326893
0.328178
0.362906
0.312113
0.275774
0.310143
0.341142
1.25961
1.42638
0.309008
0.323913
2.12576
0.31955
0.274157
0.27442
0.270606
0.312613
0.35572
0.400063
0.377934
0.30272
0.28426
0.355123
0.269235
0.265559
0.287659
0.664167
0.382665
0.764632
0.701674
0.758859
0.284847
0.277171
0.277517
0.272512
0.272342
0.585457
0.298658
0.265732
0.292806
0.344156
0.288745
0.394663
0.284855
0.357588
0.405616
0.299766
0.274095
0.283274
0.301569
0.304988
0.282464
0.312005
0.296496
0.46268
0.299315
0.350193
0.386462
0.297502
0.30108
0.278986
0.305572
0.290206
0.3387
0.37402
0.286484
0.26475
0.292235
0.293674
0.289152
0.328069
0.270771
0.319737
0.283179
0.290836
0.779356
0.2888
0.37925
0.263177
0.275832
0.604582
0.289663
0.343148
0.269823
0.280451
0.323896
0.350288
0.686156
0.36622
1.42179
0.272939
0.281421
0.341406
0.269538
0.26436
0.374442
0.304301
0.265166
0.267037
0.948702
0.385927
0.607273
0.336625
0.490996
0.36206
0.283819
0.381954
1.63257
0.337745
0.288828
0.28642
0.727587
0.280592
0.292349
0.302552
0.301507
0.394509
0.715104
0.283952
0.298852
0.347456
0.299359
0.325679
0.826895
0.73846
0.281192
0.2756
0.270331
0.325754
0.31357
0.269061
0.733287
1.24691
0.277473
0.32792
0.800663
0.285726
2.02433
0.405183
0.269038
0.280491
0.275851
0.286483
0.532396
0.303354
0.303665
0.288017
0.32223
0.29093
0.361543
0.56953
0.362926
0.441926
0.455565
0.412916
0.535881
0.32727
0.387718
0.359536
0.379195
0.316137
0.289357
0.750219
0.538174
0.377901
0.319013
0.360539
0.319369
0.309688
0.234116
0.267592
0.267947
0.357061
0.349904
0.445169
0.372401
0.781048
0.656436
0.296846
0.37789
0.283947
0.286068
0.365123
0.274953
0.294835
0.274049
0.268529
0.218822
0.217841
0.269594
0.405519
0.656754
0.985241
0.310784
0.268405
0.430163
0.454964
0.766696
0.296378
0.77075
0.864648
0.991344
0.84779
0.361597
0.270738
0.267328
0.360613
0.791973
0.269084
0.372716
0.315269
0.269496
0.454001
0.414488
0.396322
0.304516
1.22833
0.271754
0.280184
0.304307
0.308869
0.533461
0.620631
0.292421
0.428522
0.276252
0.329844
0.305911
0.831089
0.353672
0.80262
0.371896
0.798181
0.352732
0.445789
0.707932
0.475534
0.380213
0.38269
0.670198
0.352511
0.353862
0.351907
0.34393
0.360715
0.340958
1.20327
0.466572
0.303384
0.543234
0.535598
0.53795
0.285136
0.278887
0.612643
0.601461
0.773414
0.297703
1.06931
0.283635
0.976461
0.614037
0.489453
0.663721
0.277949
0.321369
0.279406
0.326759
0.325339
0.469211
0.390926
0.276965
0.299079
0.338541
0.302256
0.276864
0.268387
0.421709
0.271351
0.266412
0.305745
0.377364
0.389347
0.304541
0.337117
0.346294
0.351681
0.511111
0.389704
0.287719
0.286602
0.441442
0.513546
0.290544
1.97388
0.313244
0.378274
0.967901
0.349613
0.289204
0.272785
0.444436
0.296126
0.266726
0.34354
0.292049
0.279822
0.290244
0.276326
0.346406
0.304713
0.3049
0.280123
0.333954
0.617098
0.28322
0.297161
0.286569
0.294787
0.376805
1.12865
0.293832
0.278818
0.30696
0.522543
0.259874
0.319865
0.302327
0.780245
0.327076
0.366573
0.350842
0.362556
0.330679
0.336133
0.290735
0.461408
0.353102
0.33948
1.33622
0.295998
0.370104
0.327091
0.319205
0.353471
0.390778
0.292881
0.336519
0.276293
0.314315
0.304703
0.326698
2.97236
0.282401
0.374012
0.375972
0.343895
0.587865
0.323791
0.682809
0.351978
0.517299
0.630732
0.307863
0.276367
0.387471
0.347992
0.307054
0.277055
0.718261
0.410901
0.332786
0.915813
0.605169
0.286482
0.445279
0.352722
1.21734
0.833137
0.354129
0.37563
0.464993
0.559344
0.429703
0.877299
0.212281
0.583095
0.296793
0.525902
0.354503
0.362327
0.382755
0.34832
0.304305
0.338337
0.545363
0.295804
0.347327
0.34656
0.449217
0.699023
0.375807
0.682475
0.312467
0.987903
0.373325
0.374643
0.789397
0.520531
0.6693
0.572033
0.598956
0.497967
0.450707
0.414847
0.328229
0.347005
0.348787
0.703841
0.325679
0.324879
0.290534
0.448451
0.341234
0.283427
0.784327
0.457799
0.466176
0.150368
0.383566
0.308417
0.334318
0.322003
0.34111
0.328222
0.263356
0.311671
0.358333
0.151524
0.144701
0.442268
0.317517
0.392349
0.374569
0.41229
0.359652
0.342965
0.324006
0.125291
0.328373
0.35956
0.129989
0.360141
0.81479
0.550239
0.315197
1.55123
0.376863
0.425539
1.02612
0.382236
0.366036
0.280607
0.538263
0.270094
0.278345
0.319632
0.35169
0.345873
0.309777
0.587697
0.353609
0.425156
0.288871
0.376399
0.359554
0.268525
2.32009
0.462704
1.08533
0.409882
0.28369
0.868557
0.441814
0.276671
2.28427
0.278572
0.274231
0.43627
0.417631
0.92222
1.06721
0.311254
0.621909
0.870462
0.379845
0.600013
0.92816
1.07959
2.31047
0.337422
0.330304
0.529173
0.595611
0.386426
0.889483
0.322186
0.296947
0.46825
0.319744
0.278701
0.369791
0.696771
0.627222
0.269862
0.459123
0.283671
0.379544
0.307203
0.376391
0.554494
0.382096
0.733178
0.351377
0.360678
0.676323
0.278957
0.285787
0.400321
0.278476
0.320319
1.07293
0.29749
0.823372
0.748117
0.752779
0.796644
0.376378
0.350451
0.277234
0.271477
0.372601
0.282183
0.289874
0.384187
0.290176
0.362927
0.880125
0.278617
0.47108
0.276549
0.421084
0.328873
0.780827
0.345029
0.417827
0.282901
0.303244
0.394811
0.275538
0.299866
0.294014
0.278804
0.471946
0.297545
0.34879
0.319343
0.285542
0.338651
0.305583
0.349408
1.00341
0.298616
0.285591
0.282384
0.345015
0.126152
0.566016
0.422162
0.623184
0.970685
0.194281
0.38033
0.0678623
0.161452
1.20646
0.360764
0.489382
0.22033
0.660823
0.645276
1.13993
0.319404
0.297288
0.49234
1.26749
0.30637
0.343288
0.403345
0.371819
0.366893
0.354186
0.895873
1.46734
0.160257
0.332249
0.12803
0.330821
1.35311
0.292395
0.322217
0.295787
0.283058
0.394936
0.294044
0.523206
0.401954
0.317993
0.367259
0.294084
0.493343
0.60174
0.2919
0.384932
0.322394
0.776178
0.403632
0.339904
0.487155
0.464721
0.272073
0.273973
0.33816
0.285713
0.656681
0.277862
0.386845
0.537776
0.29898
0.304252
0.294597
0.293925
0.548118
0.366717
0.465738
0.285398
0.291524
0.407261
0.546531
0.290431
0.318081
0.288763
0.282296
0.556448
0.396965
0.70528
0.303329
0.283832
0.389376
0.349184
0.307392
0.292433
0.342979
0.358841
0.491676
0.278057
2.01295
0.360757
0.360047
0.280422
0.356027
0.793407
0.924064
0.347205
0.807464
0.335134
0.945803
0.369626
0.630664
0.416138
0.493486
0.377135
0.299266
0.332014
0.367157
0.498602
0.337096
0.321942
0.880464
0.374529
1.76444
0.373238
0.305178
0.359598
0.54539
0.379228
0.280402
1.09724
0.280293
0.304438
0.281137
0.342
0.69365
0.424215
0.326628
0.449257
0.345902
0.302979
0.297056
0.325249
0.366706
0.386618
0.357018
0.312172
0.310818
0.353265
0.307285
0.27359
0.339977
0.311811
6.68191
0.334078
0.403266
0.305235
0.351836
0.319746
0.362353
0.27712
0.336564
0.312567
0.309615
0.347344
0.745311
0.269735
0.837431
0.423963
0.391241
0.379797
0.309358
0.382507
0.392504
0.71563
0.289499
0.307359
0.311867
0.441023
0.331309
0.27582
1.16033
1.61986
0.620596
0.274973
0.282252
0.454411
0.35297
0.353593
0.441271
0.364427
0.299146
0.319202
1.65895
0.276778
0.498708
0.272541
0.297197
0.368915
0.292629
0.371101
0.401617
0.278516
0.533382
0.351269
0.344828
0.387579
0.88133
0.29177
0.35995
0.328283
0.347966
0.315443
0.326555
0.27301
0.262858
0.374465
0.522308
0.357921
0.327547
1.43507
0.361052
0.54489
0.358353
0.383028
0.346039
0.323489
0.774858
0.307544
0.469145
0.329476
0.355007
0.315226
0.343417
0.509247
0.405111
0.294237
0.562571
0.376929
0.564735
0.683501
1.53458
0.285039
0.396911
0.377687
0.23019
0.34371
0.226821
0.388491
0.214631
0.341628
0.817993
0.350346
0.553495
0.598581
0.325564
0.197916
0.372871
1.08083
0.446723
0.594348
2.07775
1.31224
0.656669
0.721024
0.283069
0.336261
0.680399
0.342642
0.90827
0.329013
0.737519
0.694516
0.302247
0.34979
0.299981
0.268239
0.33542
0.271046
0.636935
0.372367
0.342186
0.490235
0.302286
0.338322
0.284609
0.294102
0.331551
0.312653
0.371921
0.271665
0.360546
0.817015
0.282196
0.28313
0.307894
0.280587
0.847284
1.1542
0.349785
0.389887
0.471895
0.277839
0.265944
0.300402
0.315155
0.297178
0.302169
0.30119
0.285826
0.558124
0.292631
0.317215
0.295976
0.274333
0.277548
0.872372
0.294002
0.312647
0.304899
0.389935
0.344169
0.307912
0.591372
0.356885
0.295381
0.340877
0.336156
0.331379
0.38048
0.355886
0.288858
0.365767
0.346636
0.291779
0.307733
0.328646
0.392776
0.402074
0.29716
0.311481
0.353083
0.382561
0.418954
0.527342
0.894151
0.839196
0.312253
0.277806
1.21942
0.465253
0.51143
0.284713
0.280095
0.294505
0.271922
0.292197
0.277596
0.285425
0.304088
0.283255
0.284227
0.294991
0.284063
0.276084
0.48667
0.32659
0.308096
0.287368
0.298858
0.539002
0.282468
0.292589
0.359188
0.997915
0.459998
0.374181
0.362234
0.281924
0.312209
0.419835
0.610567
0.348446
0.293
0.351503
0.292786
0.300099
0.318768
0.37774
0.339564
0.294449
0.348369
0.37658
0.557241
0.342624
0.707888
0.537013
0.360681
0.348888
0.305975
0.304104
0.350559
0.273019
0.297971
0.533111
0.285643
0.318459
0.671508
0.326744
0.347354
0.383738
0.339215
0.296817
0.326197
0.281338
0.323157
0.666088
0.331741
0.379581
5.23888
0.520545
0.915251
0.751477
0.297933
0.297671
0.461988
0.277878
0.487234
0.435512
0.627511
0.369858
0.272953
0.754404
0.274059
0.476206
0.36573
0.294243
0.651644
0.985729
0.278638
0.28133
0.807827
0.27712
0.286638
0.283133
0.276506
0.340085
0.529618
0.520958
0.305251
0.722673
0.303586
0.294303
0.301509
0.776329
0.297865
0.817219
0.277848
0.314632
0.282223
0.376996
0.334769
0.437294
0.282125
0.622315
0.421281
0.424311
0.636474
0.303755
0.297717
0.912023
0.398182
0.314478
0.373557
0.990396
0.303002
0.378916
0.318727
0.523776
0.355099
0.284406
0.276097
0.407039
0.2963
0.342438
0.306366
0.279341
0.301911
0.287198
0.288421
0.325358
0.743461
0.309727
0.288729
0.287973
0.296785
0.309951
0.343422
0.270949
0.351409
0.390806
0.371867
0.364874
0.29404
0.328597
0.285334
0.337382
0.868244
0.354097
0.661408
0.299473
3.64313
0.318727
0.41998
0.359607
0.308393
0.366579
0.282459
0.287666
0.325358
0.341153
0.266592
0.291119
0.2754
0.585807
0.275127
0.292269
0.322768
0.657107
0.100777
0.29423
0.721959
0.795786
0.536273
0.514072
0.7914
0.114058
0.362639
0.140188
0.326132
0.450864
4.08462
0.347118
0.330613
0.272687
0.277181
0.69495
0.304677
0.344954
0.949039
0.353158
0.582528
0.340913
0.530894
0.282098
0.348681
0.332136
0.271196
0.364419
0.268699
0.315011
0.98602
0.891724
1.07896
0.399041
0.897124
0.289713
0.267952
0.283664
0.345181
0.27381
0.324369
0.281948
0.36278
0.359448
0.273867
0.280971
0.343631
0.274754
0.306107
0.338376
0.310282
0.336224
0.438572
0.293276
0.324086
0.756792
0.325199
0.723494
0.72452
0.327055
0.365506
0.279818
0.417411
0.307244
0.323153
0.71318
0.279772
0.330897
0.307288
0.317399
0.294207
0.286886
0.435877
0.453872
0.3755
0.311743
0.734993
0.333346
0.582613
0.541397
0.360507
1.05123
0.398769
0.32897
0.300906
0.351536
0.340412
0.307041
0.281818
0.328207
0.164719
0.521167
0.174292
0.283907
0.311399
0.376621
0.124949
1.16744
0.328231
0.357639
0.343542
0.139515
0.34742
1.25925
2.88088
0.34111
0.281874
0.365532
0.449659
0.288143
0.327375
0.361166
0.290678
0.349585
0.299883
0.925582
0.324448
1.64003
0.386048
0.832601
0.334549
1.81126
1.04956
0.805011
0.301465
0.319887
0.392317
0.359933
0.286139
0.342607
0.30239
0.737054
0.27941
0.405908
0.66625
0.27776
0.275216
0.293359
0.317327
0.329542
0.360466
0.340215
0.372012
0.371664
0.301395
0.377445
0.308067
0.397078
0.302316
0.350033
0.2851
2.62514
1.55838
0.336955
0.399664
0.268871
1.71957
0.270307
0.270866
0.338258
0.269529
0.356804
0.342057
0.263583
0.267213
0.334469
1.96444
0.519204
0.370891
0.735583
0.278032
0.361218
0.30499
0.35956
0.729876
0.361064
0.747692
0.266336
0.297745
0.703892
0.789599
0.302834
0.312284
0.553082
0.377036
0.313812
0.424024
0.338311
0.348204
0.36201
0.352123
0.264243
0.363319
0.337634
0.419246
0.276536
0.344264
0.268536
0.318344
0.80077
0.848843
0.288039
0.423994
0.304421
0.338492
0.293781
0.467675
0.290218
0.301936
0.315251
0.330297
0.386166
0.3478
0.425348
0.323273
0.271098
0.322388
0.278893
0.331087
0.279396
0.462412
0.397912
0.317991
0.519877
0.308393
0.273547
0.336488
0.282881
0.357209
0.560095
0.296753
0.375621
0.354927
1.12923
0.347392
0.33161
0.361224
0.6408
0.362012
0.46921
0.332745
0.351654
0.482679
0.365959
0.334458
0.73873
0.393662
0.363187
0.301642
0.284068
0.48386
0.295732
0.980362
1.42407
0.375887
0.369598
0.357432
0.419433
0.389989
0.334323
0.74324
0.417383
0.567232
0.278352
0.377015
1.17144
0.422901
0.308129
0.411097
0.291985
1.26047
0.334474
0.342737
0.292287
0.270285
0.279744
0.315189
0.28571
5.01556
0.277409
0.610247
0.273643
0.371272
0.331586
0.459588
0.311325
0.316379
0.301571
0.632075
0.408705
0.441244
0.285023
0.281882
0.395544
0.324346
0.311217
0.278471
0.275558
0.272286
0.296555
0.27366
0.33111
0.275948
0.504034
0.376831
1.43101
0.679021
0.515875
0.488438
0.339815
0.347442
0.271578
0.512341
0.288486
0.291959
0.287661
0.401576
0.436582
0.289718
0.366469
0.699571
0.434477
0.278811
0.282396
1.65198
0.72807
0.335918
0.771615
0.7675
0.557895
0.687095
0.497495
0.680608
0.353156
0.550877
0.679079
0.275128
0.28108
0.268813
0.414832
0.53797
0.289706
0.273218
0.350809
0.319495
0.375796
0.680937
0.417487
0.896291
0.33641
0.285351
0.30074
0.285353
0.321049
0.636201
0.966885
0.86275
0.712902
0.313904
1.36267
0.513279
0.306978
0.486427
0.417243
0.682845
0.365364
0.419949
0.684516
0.669783
0.416375
0.809666
0.437007
0.785081
0.34517
0.292356
0.359709
1.10741
0.704612
0.339615
0.301909
0.480739
0.388002
0.517911
0.31439
0.335937
1.06229
1.37514
0.165807
0.391208
0.155098
0.276211
0.160138
0.323581
0.411438
0.523448
0.145205
0.378226
0.436266
0.109134
0.404767
1.21141
0.356781
0.328488
0.794034
0.289336
0.430515
0.282068
0.271781
0.286779
0.29403
0.792189
0.627061
2.13398
0.337908
0.335396
0.575121
0.323312
0.349154
0.35512
0.314493
0.295211
0.507584
0.379922
0.341781
0.283742
0.365528
0.351301
0.665733
0.401878
0.716608
0.902798
0.692274
0.373698
0.349056
0.673514
0.238106
0.475343
0.312375
0.335864
0.282704
0.72018
0.562501
0.608784
0.624897
0.53722
0.280548
0.371817
0.812355
0.725387
0.334976
0.355731
0.398643
2.00885
0.304691
0.279002
0.36169
0.308789
0.80397
0.368956
0.535073
0.607655
0.959373
2.13998
0.472363
0.39509
0.733367
1.10539
0.782275
0.512427
0.869563
0.876609
0.461943
0.328048
0.390886
0.356454
0.268132
0.294811
0.373257
0.448263
1.76448
0.335798
0.380665
0.396888
0.365412
0.41751
0.49384
0.424411
0.346416
0.371999
1.01941
0.990228
0.137806
0.345144
0.307454
0.323433
1.68778
0.838164
0.361476
0.526711
0.295633
0.377469
0.410272
0.491968
0.294049
0.293921
0.292717
0.340456
0.845526
0.398695
0.315121
0.749562
0.282338
0.897455
0.661166
0.412331
0.643017
0.32203
0.278759
0.310588
0.279549
0.344783
0.343547
0.29347
0.309032
0.294971
0.278881
0.437403
0.474424
0.658691
0.283257
0.412915
0.31332
0.341626
0.301598
0.454396
0.307314
0.297819
0.292831
0.281381
0.284847
0.285775
0.400573
0.27682
0.316679
0.32057
0.539517
0.28515
0.337646
0.440403
0.717575
0.964837
0.336033
0.757625
0.38667
0.324014
0.300645
0.470397
0.302397
4.43
0.362523
0.288554
0.373069
0.36632
0.355639
0.396044
0.650355
0.927592
0.385119
0.790913
0.297516
0.27093
0.342347
0.280976
0.276241
0.357173
0.276707
0.284734
0.516773
0.286767
0.173643
2.45337
0.512209
0.27718
0.279207
0.511805
0.29803
0.289668
0.517072
0.292907
0.681905
0.345912
0.730304
0.277535
0.479868
0.385198
0.589774
0.281242
0.382513
0.283804
0.977512
0.364327
0.27687
1.29924
0.37408
0.448144
0.307963
0.332309
0.373675
0.274735
0.442629
0.27488
0.286415
0.28583
0.392615
0.550243
0.290199
0.282615
0.285379
0.28195
0.292931
3.76785
0.277609
0.398776
0.276258
0.501856
0.315793
0.319414
0.318445
0.411674
0.296666
0.3642
0.269742
0.300027
0.294202
0.304511
0.277704
0.382741
0.353278
1.05088
0.930128
0.716715
0.345211
0.297827
0.296719
0.275738
0.28193
0.969124
0.564343
0.347343
0.321828
0.272003
0.291718
0.266573
0.281746
0.462926
0.459415
0.685427
0.870333
0.321428
0.361892
0.348403
0.278017
0.503571
0.340044
0.403233
0.348301
0.312362
1.00401
0.363759
0.270242
0.297225
0.353331
0.292751
0.430564
0.277324
0.53252
0.326307
0.827335
0.435513
0.688146
0.284916
0.294151
0.308885
0.374405
0.317045
0.358234
0.287427
0.278538
0.281254
0.287555
0.354883
0.523518
0.323539
0.774055
0.366637
0.3148
0.455554
0.381689
0.36145
0.222709
0.965299
0.790649
0.201317
0.275173
0.282174
0.775244
0.309674
0.359564
0.330429
0.319069
0.240886
0.343377
0.345245
0.280175
0.367027
0.297432
0.918972
0.468591
0.384298
0.263773
0.348087
0.351719
0.304882
0.28315
0.818265
0.795079
0.332751
0.695828
0.294346
0.277514
0.346859
0.291682
0.822821
0.273757
0.274833
0.279332
0.590191
0.276492
0.31228
0.400715
0.404761
0.275321
0.295487
0.295765
0.300663
0.288245
0.331133
0.318195
0.522791
0.378
0.351784
0.51188
0.343331
0.548393
0.31666
0.794993
0.392781
0.210947
0.574461
0.106492
0.380253
0.461338
0.5173
0.3443
0.277596
0.279198
0.280214
0.340786
0.741453
0.358395
0.275255
0.332782
0.326459
0.265237
0.426254
0.29794
0.353735
0.407991
0.295146
0.285416
0.308053
0.299223
3.04088
0.893814
0.336958
0.341127
0.37235
0.336903
0.728906
0.84964
0.909174
0.703145
0.328048
0.294157
0.300491