/*--------------------------------*- C++ -*----------------------------------*\
| =========                 |                                                 |
| \\      /  F ield         | OpenFOAM: The Open Source CFD Toolbox           |
|  \\    /   O peration     | Version:  2506                                  |
|   \\  /    A nd           | Website:  www.openfoam.com                      |
|    \\/     M anipulation  |                                                 |
\*---------------------------------------------------------------------------*/
FoamFile
{
    version     2.0;
    format      ascii;
    arch        "LSB;label=32;scalar=64";
    class       volScalarField;
    location    "0.0948794";
    object      nut;
}
// * * * * * * * * * * * * * * * * * * * * * * * * * * * * * * * * * * * * * //

dimensions      [0 2 -1 0 0 0 0];

internalField   nonuniform List<scalar> 
47425
(
0.00454351
0.0045463
0.00411982
0.00188969
0.0028626
0.00420271
0.00392108
0.00302909
0.00742777
0.00302132
0.00231722
0.00738801
0.00467286
0.00373573
0.00298887
0.00362907
0.00424739
0.00216423
0.000228549
0.00243692
0.00355554
0.0066287
0.00291305
0.00472842
0.00661145
0.00624922
0.00360753
0.000450095
0.00396249
0.00512383
0.0068259
0.00714134
0.00745914
0.00408833
0.00477157
0.00440233
0.00660538
0.0053783
0.00433001
0.003992
0.00490911
0.00671095
0.00514004
0.00260976
0.000966676
0.00317181
0.00331249
0.00451852
0.0036234
0.00587531
0.000590838
0.00233804
0.00560582
0.00137161
0.00315324
0.00287615
0.00618536
0.00479091
0.00241568
0.00475366
0.00107924
0.000646231
0.00138892
0.00263526
0.0073849
0.00619327
0.00555491
0.00386233
0.00115364
0.00476948
0.00366302
0.00510804
0.00551046
0.00325977
0.00184567
0.00746319
0.00139046
0.00361719
0.000206992
0.00167803
0.00175899
0.00456209
0.00673728
0.00742906
0.00513635
0.00370111
0.00491131
0.00479501
0.00370672
0.00131673
0.00667742
0.00426459
0.00684618
0.00319386
0.00256514
0.00184404
0.00586915
0.00524541
0.00335899
0.00447589
0.00556459
0.000872086
0.0055809
0.000882979
0.00570559
0.00650196
0.0053625
0.00327869
0.00547213
0.00704608
0.00398997
0.00515288
0.00498416
0.00221447
0.00706172
0.000313878
0.00707896
0.00067929
0.00416717
0.00500931
0.00384968
0.0074714
0.00590229
0.00227638
0.00353135
0.00605861
0.00356218
0.0074179
0.00327345
0.00675336
0.00638205
0.00327942
0.000923932
0.00280542
0.00564726
0.00400002
0.00594781
0.00580661
0.00429909
0.00301581
0.00499002
0.002471
0.00451327
0.00421368
0.00608828
0.00742414
0.00321051
0.00542152
0.00233008
0.00499667
0.0041769
0.000519572
0.00738985
0.000391326
0.00257979
0.0036177
0.0025795
0.000282084
0.00365575
0.00436074
0.00713485
0.00629898
0.0053597
0.00639364
0.00112207
0.000377886
0.00743189
0.00178706
0.00304996
0.00074422
0.00189304
0.00392656
0.00479059
0.00289347
0.00463124
0.0011377
0.000361998
0.00393396
0.00526431
0.00659697
0.000294062
0.00519302
0.00456418
0.00604105
0.00606398
0.0069605
0.00522001
0.000993419
0.0022771
0.00470463
0.00746955
0.00392154
0.00459203
0.00474278
0.00614488
0.00696811
0.00582732
0.004251
0.00712523
0.00325693
0.0047432
0.00292893
0.00509865
0.00695498
0.00215682
0.002329
0.00516623
0.00686931
0.00400369
0.00747105
0.00438531
0.00433073
0.00745915
0.00322265
0.00441575
0.00436414
0.00381383
0.00206694
0.00292521
0.0037994
0.00160459
0.00231616
0.00415492
0.00295279
0.00234179
0.00154914
0.00622769
0.00231719
0.00675439
0.0036997
0.00405733
0.00412969
0.00318715
0.00748889
0.00218277
0.00335926
0.00150074
0.00284123
0.00166763
0.00197647
0.00391659
0.00452914
0.00666189
0.00280736
0.00629616
0.00733162
0.00421299
0.00590012
0.0063473
0.00374162
0.00656136
0.00193338
0.00426695
0.00742026
0.0032524
0.00669092
0.00661643
0.00296849
0.0031133
0.00739659
0.00299095
0.00745955
0.00384188
0.00261926
0.00475334
0.00379494
0.0064181
0.00407402
0.00441437
0.00385964
0.00384659
0.00186231
0.00158144
0.00580007
0.00193054
0.0020498
0.00193386
0.0005002
0.00161785
0.000540157
0.00105926
0.00452012
0.00108819
0.002876
0.0036996
0.00341074
0.00328965
0.00340233
0.0039473
0.00715651
0.000682385
0.00448826
0.00737543
0.00495726
0.00430367
0.00317915
0.00269267
0.00608252
0.00476881
0.00461085
0.00364504
0.00613241
0.00364942
0.00470124
0.00086676
0.000773665
0.000498819
0.00670594
0.00569061
0.00657733
0.00305312
0.000760505
0.00355171
0.00273087
0.0017441
0.00444154
0.00320567
0.00297734
0.00322663
0.00133113
0.00187884
0.00692699
0.00503875
0.00574146
0.0039576
0.00648937
0.00389918
0.00427174
0.00517909
0.00395158
0.00345707
0.000957349
0.00338133
0.00386098
0.00297232
0.00665765
0.000786341
0.00630671
0.00596214
0.00536311
0.00670085
0.00663789
0.00575803
0.00563209
0.00516239
0.00563083
0.00474105
0.00619098
0.00345397
0.00386692
0.00661581
0.00616632
0.00494854
0.00641602
0.00650401
0.00232741
0.00380333
0.00676468
0.00635483
0.00385731
0.00179123
0.00506165
0.00394425
0.00319831
0.00582881
0.00607668
0.00273331
0.00743424
0.0047682
0.00659664
0.00269841
0.00133266
0.00366709
0.00681991
0.00192608
0.00678345
0.00426512
0.00382727
0.00502325
0.00660252
0.00563152
0.00665936
0.0064346
0.00481452
0.00388892
0.00439932
0.0036318
0.00556224
0.00717396
0.0036645
0.00529812
0.00540379
0.00386753
0.00496382
0.00437954
0.0059307
0.00515354
0.00340706
0.00321162
0.00557251
0.00108055
0.0061796
0.00235237
0.00451274
0.00333746
0.00331069
0.00600001
0.00232303
0.00608921
0.00338353
0.00588205
0.00116296
0.000913198
0.00627001
0.00232252
0.00368882
0.00344458
0.00363815
0.00389701
0.00359726
0.00390398
0.00461318
0.0058391
0.0029598
0.00424602
0.00582833
0.00373801
0.00376725
0.00562063
0.000808619
0.000324507
0.00639212
0.000443556
0.000413528
0.00392405
0.000397964
0.000979842
0.00583344
0.00367506
0.0038918
0.00372221
0.000987752
0.00361469
0.00546463
0.00579037
0.00398894
0.00375263
0.00382297
0.00352423
0.00126713
0.000729851
0.00113891
0.00543752
0.000882006
0.00350318
0.00470921
0.00667444
0.00479701
0.00672845
0.00422912
0.00478994
0.00284693
0.00416287
0.0074896
0.00364943
0.00497054
0.00410936
0.0068355
0.00453029
0.00434154
0.00523082
0.00562931
0.00338505
0.00266594
0.00498902
0.00396088
0.00675018
0.00140206
0.00277628
0.00179007
0.00744304
0.00246533
0.00271634
0.00263397
0.00648156
0.00349237
0.00740266
0.00486014
0.00253359
0.00312033
0.00334675
0.00283517
0.00493588
0.00218777
0.000783069
0.00575502
0.00141376
0.0055817
0.00142079
0.00545885
0.00541785
0.00629794
0.00414217
0.00472943
0.00279956
0.00462339
0.00610901
0.00616761
0.00532929
0.00411968
0.00252454
0.00323202
0.00672524
0.00520461
0.00425821
0.00466074
0.00481308
0.00458725
0.00433502
0.0022195
0.00472292
0.00372038
0.00061064
0.00482636
0.00416058
0.00618894
0.00741179
0.00158189
0.00213713
0.00423608
0.00528209
0.00410052
0.00362443
0.00683679
0.00201483
0.00747828
0.00586108
0.00211998
0.00253025
0.00481361
0.00266124
0.00691343
0.00396845
0.0039984
0.00490734
0.00654756
0.00521982
0.000902149
0.00447073
0.00233589
0.00618833
0.00185948
0.00569587
0.00475418
0.00183921
0.00222182
0.00424966
0.00618355
0.000675634
0.00497484
0.00500207
0.00487281
0.00573228
0.00616472
0.00198951
0.00286357
0.00558306
0.00433848
0.00432122
0.00650945
0.0017085
0.00653293
0.00482256
0.000387176
0.00413505
0.00667642
0.000728034
0.00118088
0.00705348
0.000297746
0.000313435
0.00397242
0.00744585
0.00524973
0.00646924
0.00425997
0.0036649
0.00131663
0.00681361
0.00258814
0.00559023
0.00183152
0.00210156
0.00433117
0.00452471
0.00173268
0.00656432
0.0055507
0.0032728
0.00322676
0.00224051
0.00290292
0.00291677
0.00667281
0.00323912
0.00285124
0.00285425
0.00532506
0.0027965
0.00291869
0.00596955
0.00238013
0.00358789
0.00371489
0.00259235
0.0032688
0.00408284
0.00492954
0.00523017
0.00148227
0.00507646
0.00598175
0.00548812
0.000267711
0.00367846
0.00437652
0.000476827
0.000728684
0.00670729
0.00464489
0.000137281
0.00198409
0.000697309
0.00246731
0.00315409
0.000800545
0.00459987
0.00567188
0.00590922
0.00263953
0.00335451
0.0033283
0.00589921
0.00305037
0.00414643
0.00363953
0.00554005
0.00410093
0.00349988
0.00171045
0.000899237
0.00265249
0.00262153
0.00384915
0.00511793
0.00341998
0.00741649
0.00605395
0.00567844
0.00526681
0.00497026
0.00183759
0.00469469
0.00593847
0.00171215
0.00186222
0.00141483
0.00107358
0.00373266
0.00675863
0.00473985
0.00647459
0.00139664
0.00416014
0.00138216
0.00403488
0.00346104
0.00457676
0.00443411
0.00544357
0.00319086
0.00166051
0.00330633
0.00473109
0.00186601
0.00381509
0.00748587
0.00401038
0.00392005
0.00201313
0.00459075
0.00182266
0.00322025
0.00747321
0.00618279
0.00238221
0.00389291
0.00331105
0.00743286
0.00488194
0.00388565
0.00420792
0.0039462
0.00368165
0.00438534
0.000800827
0.000553786
0.00403776
0.000713985
0.00422921
0.00273417
0.00324812
0.00576741
0.00402201
0.00444207
0.00378788
0.00381461
0.00611061
0.000517621
0.0021253
0.00318523
0.00506625
0.00599464
0.00360196
0.00486806
0.0022859
0.00701036
0.00163647
0.00383769
0.00637144
0.00390289
0.00601583
0.00503458
0.00416988
0.00536206
0.00337868
0.00671378
0.00578067
0.00329882
0.000910651
0.0066886
0.00074811
0.0019993
0.00189249
0.000702558
0.00398018
0.00343128
0.00187535
0.00299935
0.000731893
0.000795425
0.000852039
0.00299715
0.00446256
0.00297543
0.00279266
0.00076781
0.00236258
0.00350537
0.00498895
0.00401676
0.00366463
0.00308964
0.00529477
0.00402405
0.00116776
0.00176549
0.00555477
0.00246468
0.000984932
0.000634947
0.00423137
0.000626334
0.00176412
0.000606501
0.000777318
0.00449993
0.0029412
0.00649857
0.00605792
0.00460768
0.000686758
0.0011259
0.00455381
0.00466969
0.00671551
0.000875429
0.000848028
0.00670713
0.00219165
0.00347872
0.00668395
0.00214555
0.00672192
0.00676124
0.00399942
0.00457148
0.00141118
0.00593235
0.00661841
0.00468853
0.00506594
0.00503524
0.000919484
0.00183673
0.00652409
0.00112514
0.00563116
0.00601477
0.00595277
0.0017116
0.00440099
0.00262411
0.00248855
0.00519003
0.00658089
0.00114214
0.000598157
0.00419421
0.00364273
0.00183735
0.00504391
0.00560953
0.00284904
0.00259926
0.00294507
0.00824153
0.00247297
0.00101858
0.0074237
0.000982512
0.00472568
0.00382682
0.00624294
0.00192861
0.00253171
0.00640311
0.00490355
0.00111582
0.00296484
0.00235737
0.00430357
0.0048623
0.00431993
0.00367689
0.00412023
0.00289089
0.000642406
0.00423412
0.00242356
0.00174479
0.00173128
0.00097944
0.00168897
0.00393188
0.000509757
0.00645081
0.00622218
0.00361726
0.0024249
0.00364884
0.00125853
0.00119543
0.00310205
0.00408503
0.00407764
0.00303594
0.00347357
0.00380791
0.0109829
0.00147299
0.00371493
0.00309558
0.00232192
0.00189239
0.0059131
0.000518355
0.00382157
0.00537178
0.00386731
0.0038036
0.0123292
0.00617661
0.00299729
0.00386327
0.000633625
0.00260285
0.00467198
0.00354259
0.0051872
0.00342861
0.000702288
0.00462404
0.00292444
0.00499769
0.00164566
0.00286743
0.00376013
0.0054609
0.00528974
0.00357869
0.00235136
0.00360337
0.00149015
0.000700808
0.00489778
0.00644646
0.00441015
0.000932667
0.00484599
0.00258819
0.0065108
0.00161723
0.00139181
0.0031111
0.00283773
0.0043428
0.00638339
0.00514763
0.00309884
0.00124453
0.00196469
0.00121398
0.00587111
0.00202743
0.00218581
0.00275025
0.00338267
0.00614154
0.00166118
0.00161819
0.0032632
0.000801916
0.00339077
0.00336433
0.00400098
0.0045006
0.00315164
0.00440981
0.0010986
0.00487211
0.00447584
0.00396255
0.00555623
0.000712893
0.0030374
0.000637078
0.00143455
0.000763072
0.00203051
0.0037184
0.00116561
0.0032917
0.00114421
0.0019423
0.0019908
0.00225514
0.00267909
0.00475563
0.0039883
0.00746824
0.00129346
0.00365687
0.00327048
0.00400112
0.0012107
0.00540976
0.00420868
0.00572555
0.00746033
0.00284019
0.00162636
0.0028237
0.00286269
0.00475586
0.00226254
0.006482
0.0030314
0.00296503
0.00601604
0.00212374
0.00209493
0.00402124
0.00183403
0.00356767
0.00365599
0.00200925
0.00285183
0.00297735
0.000202416
0.000712708
0.00234853
0.000715477
0.00318857
0.00303092
0.000549542
0.000863222
0.0043125
0.000936963
0.00323878
0.00419439
0.000571391
0.00255272
0.00646117
0.00309427
0.00128981
0.00539918
0.00062382
0.000320024
0.00214348
0.000775993
0.00216269
0.000860296
0.000809342
0.00509457
0.00438868
0.00270168
0.00163499
0.00359171
0.00682275
0.00187036
0.000658714
0.00360653
0.0015082
0.00411129
0.00195458
0.00588248
0.00554068
0.0035033
0.00311919
0.0040716
0.00160357
0.00460183
0.0014828
0.00654314
0.00530124
0.00576236
0.00306929
0.004899
0.006643
0.000726966
0.00245583
0.00226275
0.00366072
0.0025333
0.00316422
0.00128316
0.00389507
0.00100991
0.00297938
0.00479642
0.00293393
0.00353133
0.000798321
0.00179842
0.0015818
0.00587657
0.00436634
0.00183091
0.00391339
0.00292229
0.00499023
0.00740451
0.00590725
0.00383872
0.0036809
0.000766777
0.00352143
0.000471602
0.00366359
0.00430437
0.00290562
0.004784
0.00364318
0.00387483
0.00419164
0.00191513
0.0052922
0.00131966
0.00685519
0.00034264
0.0013611
0.0015113
0.00195317
0.00413015
0.00523686
0.00343374
0.00457377
0.00058524
0.000718682
0.00333575
0.00213581
0.000974464
0.000849378
0.00226522
0.00109939
0.000705175
0.00338606
0.00432878
0.00053378
0.00373885
0.0041432
0.00398613
0.00104696
0.000453659
0.00371364
0.00324465
0.00119971
0.0023787
0.00220708
0.000708365
0.00319413
0.0010185
0.00113348
0.00309538
0.00413639
0.0012709
0.00531813
0.0022577
0.000222353
0.00676794
0.00406347
0.00362668
0.00481436
0.00295164
0.00292245
0.00686289
0.00291677
0.00404145
0.000746939
0.0014639
0.0041749
0.00136465
0.0088612
0.000370358
0.00641328
0.00334363
0.00208268
0.00474357
0.000934083
0.00379844
0.00294532
0.00232884
0.00526464
0.00383282
0.00663777
0.00209024
0.000630781
0.00538015
0.00172488
0.000650415
0.00255491
0.00339361
0.000917427
0.00154903
0.00478134
0.00463534
0.000959897
0.00174879
0.0023465
0.000777026
0.00258599
0.000845283
0.00324151
0.00266476
0.00207018
0.000949478
0.00740295
0.00474507
0.00204057
0.00428484
0.00255693
0.00368053
0.0021084
0.0047002
0.00326102
0.00575603
0.00146777
0.00560387
0.000589379
0.0021428
0.00556557
0.00739773
0.00185029
0.00151083
0.000802486
0.00173736
0.00182212
0.00101154
0.000802495
0.00389262
0.000894012
0.00527169
0.00272266
0.000376498
0.00141841
0.00308877
0.00327477
0.00561305
0.00132844
0.00133853
0.00142949
0.003533
0.00815639
0.0067042
0.00162051
0.00317014
0.00379484
0.00627768
0.000939381
0.00258753
0.0014998
0.0039566
0.00140726
0.0038513
0.00270655
0.00101244
0.00177116
0.00232338
0.00227108
0.00523584
0.00038437
0.00157909
0.00140847
0.00136257
0.00821872
0.00497574
0.000957906
0.000737058
0.00159522
0.00249256
0.00248577
0.00176712
0.0021312
0.00164209
0.0050761
0.00120879
0.00122594
0.005015
0.0010802
0.00327883
0.00229128
0.00262075
0.00115835
0.00239072
0.00529211
0.00062092
0.00323515
0.000606594
0.0025648
0.00342832
0.00292114
0.00172112
0.00116122
0.00241345
0.00349698
0.00277116
0.00113436
0.00365808
0.00403404
0.000657788
0.00627603
0.00352712
0.000786447
0.00319531
0.00331451
0.00301426
0.0023453
0.00107975
0.00342794
0.000145764
0.00242404
0.000769192
0.00366116
0.00103907
0.0024706
0.000840108
0.00140682
0.00153758
0.0043018
0.00388211
0.00741052
0.00388514
0.00344086
0.00284971
0.000666999
0.00375522
0.00595155
0.00381658
0.00455618
0.00271414
0.00415361
0.00668147
0.00745235
0.00293428
0.000884789
0.00631545
0.00274289
0.00212544
0.00507476
0.00600032
0.00278403
0.00200007
0.00747109
0.00511734
0.0032055
0.00344497
0.005194
0.00387981
0.001116
0.00384974
0.00303778
0.00512242
0.00645302
0.00187673
0.00457876
0.00574594
0.000829877
0.00248028
0.000908091
0.00592998
0.000834089
0.000399932
0.00484428
0.000383455
0.000735176
0.000480885
0.00385476
0.0043523
0.00423725
0.00127526
0.00673067
0.00433838
0.00441393
0.00375654
0.00258812
0.00333755
0.00336649
0.000959835
0.00422987
0.00262062
0.000759045
0.00400481
0.000293761
0.00152806
0.00117546
0.00571074
0.0029817
0.0018625
0.00553446
0.00435713
0.00192708
0.00633011
0.00293383
0.00150413
0.000506373
0.00666116
0.00141841
0.00467727
0.00289875
0.00205463
0.00474941
0.00126631
0.004216
0.00195503
0.00425621
0.00124887
0.000269839
0.00367036
0.00647087
0.00213195
0.00445977
0.0010261
0.00374053
0.00364755
0.00414489
0.00392453
0.00506634
0.00691638
0.0035722
0.00207421
0.0047577
0.00218338
0.00380359
0.0037598
0.00664313
0.00229567
0.00416347
0.00393854
0.00586936
0.0041819
0.00414695
0.00302938
0.00400114
0.00425741
0.00557388
0.00226143
0.00255352
0.0074721
0.00373577
0.00342478
0.00483368
0.00373427
0.00474235
0.00425677
0.00392396
0.00376047
0.00616978
0.00374115
0.00535343
0.0043868
0.00590037
0.00196891
0.00218972
0.00196174
0.00361907
0.00449135
0.00388812
0.00110459
0.00477251
0.00457257
0.00508968
0.00137695
0.00296437
0.00117519
0.00118969
0.00121425
0.00285439
0.00421957
0.00380684
0.00392556
0.00577816
0.00116054
0.00372149
0.00581439
0.00388445
0.00309267
0.00377444
0.00159057
0.00376648
0.00232269
0.00265258
0.00323623
0.0057116
0.00415685
0.00353421
0.00362118
0.00427746
0.00288256
0.0031011
0.0024407
0.00352853
0.00508198
0.00492457
0.00204739
0.00183808
0.00438032
0.00396771
0.00222562
0.00361883
0.00224563
0.00544783
0.00470701
0.00221665
0.00436194
0.00531138
0.00448727
0.00636234
0.00556652
0.00327
0.00408961
0.00217431
0.00416704
0.00213625
0.00529333
0.00405253
0.00102404
0.00379751
0.00413227
0.00459929
0.0047779
0.00383051
0.00417505
0.000296288
0.00344387
0.00525464
0.00546616
0.00478886
0.00489152
0.00665718
0.0055907
0.00348233
0.00391602
0.00559039
0.00610892
0.00294814
0.000948555
0.00119133
0.00291294
0.00172734
0.00348397
0.00366898
0.00351711
0.00347629
0.00189898
0.00310036
0.00377918
0.000794508
0.00451031
0.00378192
0.00367064
0.0038133
0.00502811
0.000276794
0.00438306
0.00344339
0.00743038
0.00252437
0.00225944
0.000391656
0.000210401
0.00433831
0.00528012
0.00645014
0.00378384
0.00350319
0.00452771
0.000190793
0.00218129
0.00444156
0.00245339
0.00112817
0.00453369
0.00938748
0.00324406
0.00642827
0.00468492
0.00598478
0.00401608
0.00248742
0.00370126
0.00405009
0.00466848
0.00170071
0.00402901
0.00743715
0.00156847
0.00571891
0.00300789
0.0025519
0.000997629
0.00148136
0.00332934
0.00287962
0.00466372
0.00284778
0.00276145
0.00537953
0.000565101
0.00147189
0.00287974
0.00367929
0.00339963
0.0036977
0.00367509
0.00110156
0.0066167
0.00605369
0.00574165
0.00538212
0.000780763
0.00115916
0.00117323
0.00170574
0.00272559
0.0028797
0.00677532
0.00615719
0.00454909
0.00461114
0.00480395
0.00515989
0.00663967
0.00104125
0.000687813
0.00659986
0.00505989
0.00230823
0.00285066
0.00260185
0.00649785
0.0040772
0.00189206
0.000855352
0.00327738
0.00195094
0.00263327
0.00161748
0.00053371
0.00307652
0.00561206
0.00647451
0.00617171
0.00085432
0.00483384
0.00435008
0.0040164
0.00672595
0.000759557
0.000418359
0.000408895
0.001597
0.00528362
0.00554253
0.00630226
0.00195008
0.00344306
0.000850961
0.000838307
0.000756599
0.000530269
0.000761386
0.00152612
0.0064484
0.000721678
0.00739758
0.000317641
0.00390475
0.000735448
0.00444161
0.00155929
0.0056819
0.00280528
0.00224757
0.00225489
0.0041456
0.00559501
0.00398866
0.000819592
0.000953893
0.00500266
0.00516251
0.000451429
0.000494075
0.00339518
0.00146036
0.000833343
0.00147447
0.00430369
0.00635776
0.000944648
0.000870079
0.0013765
0.0070309
0.00139276
0.00579227
0.00091465
0.00113513
0.000635847
0.00221063
0.00535818
0.00134478
0.00621833
0.00459615
0.00364599
0.00201908
0.00480732
0.00332455
0.00387803
0.00368463
0.00395444
0.00561408
0.00583407
0.00303596
0.00622071
0.00526746
0.00402599
0.00379379
0.00139237
0.00364707
0.00229656
0.00392578
0.00437268
0.00414618
0.000879335
0.00329105
0.00318388
0.00174648
0.000529641
0.00403306
0.00517972
0.00278178
0.000879193
0.00190257
0.00116138
0.00425013
0.0059159
0.00385734
0.00322458
0.00502468
0.00323776
0.00299503
0.00345335
0.00631862
0.00426824
0.00408607
0.00422029
0.00303318
0.00390296
0.00352951
0.000603731
0.00327619
0.00383051
0.00394428
0.0027661
0.0010022
0.00317338
0.00338127
0.00425337
0.00298695
0.0010982
0.00109315
0.00364536
0.00309411
0.000348104
0.00145775
0.00200676
0.00396161
0.00144085
0.00306257
0.00390324
0.00237318
0.00102355
0.00461942
0.0039695
0.00321626
0.00604617
0.00230392
0.00261288
0.00299925
0.00332887
0.00194431
0.00385394
0.00584153
0.00645964
0.00159963
0.00313609
0.00357925
0.00618647
0.00461878
0.000740904
0.00293936
0.00332158
0.00041263
0.00158387
0.00551108
0.0033707
0.000933178
0.00150783
0.00220403
0.0065819
0.00287924
0.000942897
0.00426178
0.00668008
0.000628501
0.00164352
0.00121572
0.00215096
0.00465449
0.00426749
0.00144387
0.000542661
0.000728869
0.00461076
0.00492002
0.000556817
0.00449797
0.00183419
0.00292867
0.00144916
0.000935485
0.00470985
0.0032405
0.00107694
0.00393299
0.00509365
0.00442611
0.00353255
0.0051947
0.000806446
0.000273131
0.00310168
0.00350026
0.000662443
0.000476209
0.000628988
0.00185347
0.00100875
0.00179201
0.000489157
0.00352553
0.00353175
0.000846294
0.00204696
0.00209058
0.00114932
0.000940924
0.000418377
0.00516554
0.00477967
0.000706695
0.00621833
0.0041599
0.000740854
0.00492473
0.00318933
0.00383547
0.0026241
0.00491917
0.00578808
0.000430542
0.000657563
0.00237644
0.000603893
0.00234547
0.00339
0.00420429
0.00404196
0.00313762
0.00412575
0.00467079
0.00368665
0.00405338
0.000604023
0.00055803
0.00364822
0.00153117
0.00371576
0.00418621
0.00247657
0.00346545
0.00357327
0.00416858
0.000379953
0.000992579
0.00413978
0.000538109
0.00276704
0.00134818
0.00264108
0.00326332
0.00137608
0.00276872
0.000980666
0.00267943
0.00287609
0.00287669
0.00571259
0.00110796
0.00659135
0.0050296
0.00214423
0.00417836
0.00136881
0.00317847
0.00226201
0.00337962
0.000773276
0.00369914
0.00340569
0.00362503
0.00645226
0.00652236
0.00280433
0.00192765
0.000415999
0.00266605
0.000743254
0.00277934
0.00408423
0.00521854
0.00421183
0.00456611
0.00389939
0.00315671
0.00111362
0.00211151
0.00108201
0.000563659
0.00246177
0.00396276
0.000154928
0.000753437
0.00645798
0.00686444
0.00111473
0.00373704
0.000648829
0.000420036
0.002653
0.000668152
0.00119762
0.00258137
0.000675988
0.00151686
0.00509087
0.00348345
0.000930589
0.00119347
0.00532825
0.000869297
0.00582431
0.00262925
0.00390353
0.0026183
0.00165075
0.00074736
0.000904927
0.00589204
0.00568904
0.000218547
0.00649697
0.00431358
0.00109037
0.00523812
0.00268318
0.00400998
0.00284525
0.000501578
0.00124335
0.000897765
0.00159193
0.00315235
0.000995826
0.00534235
0.00445523
0.000911758
0.00624999
0.00350887
0.00260121
0.00480749
0.00116469
0.00059011
0.00613699
0.00212119
0.00640197
0.000672347
0.00366291
0.00053357
0.00273324
0.00337531
0.00491131
0.00240701
0.00263694
0.00571724
0.00377542
0.00309183
0.00627722
0.00137884
0.00313923
0.00340765
0.00584005
0.0034917
0.0033961
0.00218298
0.00280482
0.00210355
0.00283293
0.0031059
0.00332553
0.0012931
0.00050805
0.00072101
0.000647217
0.00104017
0.000776463
0.000792975
0.00246453
0.000178647
0.000579174
0.00195857
0.00159451
0.00229348
0.000869228
0.000904899
0.00198382
0.00148869
0.00194488
0.00559102
0.00230129
0.00208572
0.00361499
0.000844681
0.00323144
0.000646636
0.0017259
0.001051
0.00132841
0.00142231
0.000637872
0.00163962
0.000544566
0.00256521
0.00358875
0.00356722
0.00146178
0.00473486
0.00514192
0.000838938
0.00315468
0.000906616
0.00169769
0.00502196
0.00230912
0.00378019
0.00139501
0.00105545
0.00581084
0.00451416
0.00147217
0.000930013
0.00360303
0.00262474
0.00130086
0.000996902
0.00387483
0.00638646
0.00377954
0.00386075
0.000644919
0.00661589
0.000812543
0.000345248
0.00474251
0.00221696
0.00390217
0.00294208
0.000829121
0.00271229
0.000747306
0.00307289
0.00405546
0.000458985
0.00100286
0.00493806
0.0022641
0.00489823
0.00613059
0.00125024
0.00374503
0.000690122
0.00348036
0.00582587
0.00262828
0.0057189
0.00459295
0.00489566
0.00440614
0.00267993
0.00175813
0.00132265
0.00534104
0.000981467
0.00492258
0.00607086
0.00211737
0.00114348
0.00074377
0.000784358
0.00198286
0.00190542
0.000979949
0.000824662
0.000807422
0.000774962
0.00265584
0.00295444
0.00379228
0.00132438
0.00466694
0.00247478
0.00301809
0.00120054
0.000480535
0.00348142
0.00252085
0.00347541
0.00392746
0.00332949
0.00301445
0.00523551
0.0042263
0.00263401
0.00274187
0.0025741
0.00503021
0.00281211
0.00157729
0.000688901
0.00413919
0.000519818
0.00744377
0.00254282
0.00684115
0.00437906
0.000806277
0.00265472
0.001039
0.00347408
0.00327635
0.00303639
0.00419118
0.00439097
0.00404216
0.00299052
0.015137
0.0069087
0.000702036
0.00265032
0.0010913
0.00270184
0.00103337
0.00529655
0.00438229
0.0032366
0.00368031
0.00281621
0.00088341
0.00593618
0.00445778
0.00107032
0.00246714
0.00243077
0.00230097
0.00243943
0.00212984
0.00199129
0.0043605
0.00709924
0.00603149
0.00188173
0.00132472
0.00428551
0.00046182
0.00702517
0.0015907
0.00624974
0.00569126
0.00166252
0.00435067
0.00635539
0.000857382
0.00742105
0.00390027
0.00125164
0.0042438
0.00634475
0.00114316
0.00616965
0.007007
0.000966857
0.00252644
0.00283386
0.000679995
0.0067424
0.00167293
0.00117765
0.00151744
0.0008352
0.00109122
0.00384385
0.00582479
0.00271157
0.00550363
0.00162651
0.00276242
0.00465209
0.00516528
0.00348112
0.0011076
0.00291045
0.00408132
0.00403353
0.0033535
0.00225097
0.00738817
0.00209993
0.000986429
0.00349497
0.00312392
0.00412355
0.00340665
0.00259319
0.00432331
0.00209773
0.00303344
0.000559484
0.00350607
0.00689533
0.00088653
0.00286875
0.000630917
0.000903846
0.00666104
0.00317954
0.00108834
0.00309252
0.000638547
0.00128467
0.000543453
0.00129679
0.000616421
0.00294798
0.00133108
0.00148333
0.00049233
0.00102111
0.00275825
0.000613583
0.000671146
0.00317619
0.000314652
0.00109056
0.00517786
0.00324505
0.00140827
0.000836091
0.00681096
0.00358341
0.000869879
0.000656635
0.00101406
0.00114742
0.00141845
0.000729486
0.00265757
0.00355813
0.0040819
0.0061853
0.00298636
0.00588875
0.000896685
0.00288633
0.0041989
0.000609453
0.00361602
0.00223877
0.00402509
0.00549925
0.00305024
0.0038915
0.00173303
0.0057858
0.0015811
0.000559078
0.00436129
0.00563025
0.00308949
0.00443291
0.000993374
0.00406276
0.00478057
0.00506066
0.000506502
0.00574159
0.00314797
0.00591195
0.0014948
0.00291432
0.0041047
0.00556833
0.00472518
0.00162026
0.00335703
0.00235538
0.00699539
0.00632619
0.00617129
0.00432905
0.00423188
0.00338178
0.00573601
0.00318843
0.00353277
0.0021089
0.00110861
0.000986014
0.00287139
0.00157578
0.00409218
0.00252115
0.00344511
0.00364667
0.00586387
0.00310375
0.00417248
0.0057674
0.0019357
0.00441038
0.00283948
0.0009522
0.0045046
0.00261107
0.00104443
0.0033956
0.00101434
0.00163714
0.00108928
0.000297491
0.00264454
0.00472525
0.00238136
0.000405031
0.00212995
0.00644453
0.0056254
0.00445408
0.00308828
0.00417653
0.00657968
0.00677385
0.00323872
0.00263545
0.00687255
0.00632459
0.00683465
0.00474828
0.00254443
0.00154306
0.0028248
0.00565626
0.00314238
0.000841262
0.00488961
0.00556025
0.00418623
0.00056566
0.000562451
0.0037487
0.00539698
0.00415443
0.00258247
0.00359606
0.00106594
0.00153044
0.00446917
0.00394041
0.00507077
0.00323917
0.00162287
0.00436062
0.00311392
0.00328748
0.00116058
0.0018968
0.0015225
0.000838725
0.000190093
0.00188216
0.00185629
0.00401293
0.00368514
0.00316419
0.00313647
0.00512633
0.0040819
0.000441568
0.00568979
0.00171494
0.000472373
0.00318843
0.0028718
0.000676344
0.00188895
0.00381591
0.00366781
0.00679948
0.00284
0.000991782
0.00369193
0.00133268
0.00904868
0.00232669
0.000708131
0.000774259
0.00304489
0.00268773
0.000946436
0.00420474
0.000605719
0.000527802
0.00111283
0.00741959
0.00604274
0.000313479
0.00523174
0.000476084
0.00177413
0.00291896
0.000993466
0.00160969
0.00571296
0.00668506
0.000888128
0.00572526
0.00551348
0.00438389
0.00591355
0.00420726
0.00314221
0.00188627
0.00506945
0.000330462
0.00298963
0.003294
0.00361823
0.000280059
0.00390151
0.000512389
0.00435472
0.00266504
0.0033659
0.000979185
0.00559033
0.00371654
0.00445324
0.00093801
0.00167829
0.00165668
0.00120235
0.00255289
0.00565103
0.000748268
0.00324085
0.00308068
0.00328188
0.0052837
0.00291962
0.00386101
0.0071794
0.000331263
0.00112281
0.00405736
0.00441144
0.00306267
0.00354571
0.00254375
0.0024656
0.00412318
0.00214772
0.00397791
0.00445361
0.00408121
0.00147645
0.00431904
0.00404943
0.00414705
0.0032951
0.0067548
0.00536789
0.00427565
0.00270522
0.00365265
0.00266313
0.00249699
0.00335023
0.000802333
0.0045181
0.00236371
0.00178992
0.00104272
0.00139504
0.00346038
0.00948327
0.00164122
0.000819859
0.00386381
0.00112112
0.00390109
0.00646159
0.00257663
0.00167747
0.00371064
0.00383086
0.00634193
0.0044004
0.000322481
0.00438335
0.00598923
0.00213372
0.000482046
0.000412602
0.00308414
0.000278706
0.00146167
0.00110427
0.0019393
0.00139134
0.000460504
0.00428461
0.000604974
0.0037727
0.00431572
0.00887457
0.000425911
0.00186224
0.00622418
0.00521087
0.000931397
0.0034741
0.00042455
0.00594305
0.00281666
0.00365248
0.00281007
0.000591254
0.00676192
0.00307593
0.00274688
0.00486361
0.00356639
0.00506827
0.00271313
0.000423019
0.000409005
0.000768814
0.00128365
0.00122982
0.00514391
0.00553614
0.00470283
0.00352436
0.00624809
0.00126975
0.00681607
0.000781261
0.00407746
0.00586813
0.00523494
0.00459779
0.00595575
0.00311496
0.00286904
0.00720361
0.00299347
0.000787079
0.00464068
0.000912983
0.000889444
0.00587647
0.000314524
0.000508188
0.00267114
0.00282386
0.00338651
0.00110753
0.00452946
0.00177843
0.00109914
0.00486636
0.00146085
0.00656771
0.00181773
0.00383425
0.00213834
0.00225562
0.000841479
0.00332799
0.0035094
0.000575645
0.00116478
0.0017744
0.00129423
0.00566128
0.00305683
0.00375807
0.00165531
0.00307662
0.00612335
0.00116081
0.00239617
0.00224049
0.00646354
0.00055201
0.000751865
0.000519818
0.00503118
0.0035018
0.00077542
0.000474151
0.00229604
0.00349481
0.00246316
0.000937873
0.000559487
0.00156357
0.00632952
0.00764094
0.00414966
0.00431929
0.00399027
0.000508877
0.00470955
0.00151639
0.00305869
0.00623558
0.00255766
0.00247631
0.00571051
0.00385085
0.00623268
0.002272
0.00242519
0.00468797
0.0071683
0.00234933
0.0025519
0.00259161
0.00188023
0.00193083
0.00353446
0.00536427
0.00523589
0.00487604
0.000680628
0.00331859
0.00083726
0.0019162
0.00342167
0.00445464
0.0031022
0.00703478
0.00237126
0.00747109
0.00186065
0.00230195
0.00358892
0.00390367