/*--------------------------------*- C++ -*----------------------------------*\
| =========                 |                                                 |
| \\      /  F ield         | OpenFOAM: The Open Source CFD Toolbox           |
|  \\    /   O peration     | Version:  2506                                  |
|   \\  /    A nd           | Website:  www.openfoam.com                      |
|    \\/     M anipulation  |                                                 |
\*---------------------------------------------------------------------------*/
FoamFile
{
    version     2.0;
    format      ascii;
    arch        "LSB;label=32;scalar=64";
    class       volScalarField;
    location    "0.0948794";
    object      omega;
}
// * * * * * * * * * * * * * * * * * * * * * * * * * * * * * * * * * * * * * //

dimensions      [0 0 -1 0 0 0 0];

internalField   nonuniform List<scalar> 
47425
(
59.1284
65.9567
69.9017
155.799
150.686
68.8736
99.702
97.9338
49.394
499.827
132.176
43.6173
72.0033
77.2495
93.7004
85.5943
66.7684
46.6555
1365.92
199.485
82.0259
42.6482
100.514
60.8738
43.9628
42.8138
75.2998
678.54
68.0043
53.4819
41.5401
44.1964
47.7433
66.8482
55.2818
64.4664
42.0859
67.5565
64.7486
72.5921
70.0486
149.327
215.734
144.994
1700.94
99.1178
92.7418
77.6018
76.7579
45.8262
563.397
244.407
47.6944
680.169
109.292
120.329
43.9687
56.5592
76.5521
59.3041
803.333
1246.59
678.647
42.8224
49.3524
43.9885
61.404
87.5351
778.629
43.2741
76.8735
51.8674
48.5369
88.0175
537.043
49.4036
706.268
78.4779
1321.84
291.447
564.315
63.4107
41.6268
46.9233
70.2489
79.4366
53.9682
54.4816
130.314
409.59
42.0046
73.7494
39.4955
113.461
145.65
192.096
45.8402
52.032
86.4607
77.2945
60.084
90.6254
50.9519
94.5444
48.6661
52.5279
55.16
91.8938
89.4178
43.5113
313.43
61.7414
79.5794
153.109
42.3028
857.969
41.5778
224.443
75.5408
60.7689
78.703
48.5449
58.0933
62.0095
94.858
59.5509
82.7758
49.1901
103.16
40.0003
43.666
91.6039
122.89
115.734
129.757
67.8642
47.1394
63.1012
67.3926
94.1146
70.9426
124.214
68.3229
101.607
50.2774
49.3287
125.051
62.685
146.445
72.3635
103.662
493.134
48.7557
677.367
45.5102
81.5427
58.5076
861.898
88.0699
68.7704
42.8048
42.6192
48.9255
44.3735
434.61
783.921
45.4423
554.502
104.085
714.243
616.854
82.1368
73.8617
44.9209
68.6927
65.4542
714.437
68.1632
51.2395
40.9643
958.214
50.9645
58.5985
44.3438
44.4031
48.3732
55.3682
73.8004
145.836
58.5183
47.9245
70.1444
81.1571
77.0217
43.8311
41.1363
61.8693
69.2839
42.04
81.8983
64.5807
122.253
86.4715
41.5243
48.5185
156.637
51.6178
41.3756
86.5413
48.44
61.6917
64.7207
47.2035
91.9211
63.2563
62.7224
75.1134
271.295
45.7489
92.8838
305.249
117.66
150.095
94.3715
164.029
258.903
43.4415
125.817
46.9517
62.0089
70.5787
69.7619
98.938
49.3224
161.923
89.9151
353.668
107.043
295.845
177.537
81.6691
58.5131
40.2993
98.7943
43.534
49.4523
67.0296
60.6005
42.2253
74.9053
41.4541
239.034
65.0401
49.2833
89.6455
40.26
43.3226
117.804
91.9032
48.3484
122.383
47.205
77.43
132.994
72.4786
87.1234
42.1266
72.5289
61.731
80.4236
78.6745
258.903
337.159
47.5569
244.476
176.506
245.044
107.5
320.493
180.199
800.12
58.7141
773.548
119.777
77.3476
82.026
101.44
88.6929
88.8105
43.8891
618.088
42.1135
50.3438
54.9815
66.0179
94.2653
107.672
45.4214
64.5638
54.8214
83.5804
43.1712
81.9479
58.9464
845.182
989.95
645.252
40.1463
47.0659
42.0234
95.9344
668.765
83.6816
112.718
320.495
70.0783
102.287
119.678
91.3772
466.718
276.91
41.9689
59.0794
46.0948
77.8256
41.5205
76.3518
62.658
51.9838
69.7909
81.4552
746.215
55.1982
71.9981
129.126
40.4724
741.143
49.1957
44.6119
51.28
42.6736
43.0254
46.1167
50.5679
51.0706
48.6523
57.5341
45.0082
81.6454
79.5979
43.7192
44.197
60.2258
45.1402
45.0605
45.318
77.6171
41.5212
46.7003
93.3977
53.1678
59.8512
73.6079
92.1747
47.1699
47.8749
127.597
48.2153
65.9168
42.7931
125.97
808.885
76.5643
41.7725
200.232
41.766
115.339
92.9223
72.5499
42.2832
63.5009
42.6011
41.851
73.786
82.6855
82.8567
80.2011
51.2013
48.7482
79.4288
47.198
45.3853
77.2035
56.0604
63.4371
47.2803
61.4114
84.9207
69.8918
47.9015
491.905
43.3727
453.701
66.5769
101.4
98.6906
44.9802
142.208
44.256
90.0144
45.1191
438.533
360.426
42.5421
48.6817
77.5956
83.1374
80.8371
72.0568
78.4985
86.7777
64.6095
47.2288
97.7485
69.386
46.4592
100.077
75.7861
51.2393
146.204
1077.91
43.5789
280.735
892.289
88.2856
912.631
676.933
46.2259
77.5909
73.4601
76.6183
578.795
82.7862
48.7474
46.9359
72.7241
73.086
77.1928
78.3665
538.607
635.843
153.848
65.5408
72.0297
127.313
57.0687
42.438
67.7829
41.981
83.9824
75.8097
132.705
68.2738
49.3502
78.9481
58.5941
73.6843
42.0704
63.3777
65.1319
66.6387
63.5369
108.516
114.646
61.2967
79.4388
42.0262
608.517
129.858
75.1722
46.3423
128.533
255.47
45.4502
41.3277
45.6096
47.2993
67.2745
47.9629
100.299
82.7218
46.3732
54.6852
136.22
97.4409
46.1145
48.5407
56.7237
52.3811
49.3129
49.6828
43.1166
67.1163
59.0277
106.438
59.9307
44.4265
45.9007
41.7924
71.44
122.242
43.063
40.072
58.6901
62.7361
57.8205
58.0714
66.1387
71.4381
50.4727
76.9238
100.902
422.196
58.9619
66.9538
52.2702
49.345
139.552
136.894
72.9182
52.8848
76.8685
109.969
46.2027
148.248
48.4578
253.369
46.0688
49.5287
56.9071
132.214
39.1166
70.5837
71.0903
79.1
41.1487
50.6982
1093.27
61.2576
139.925
43.4398
102.53
46.1563
57.404
87.1613
72.8337
67.2287
43.2349
368.036
53.9123
57.2567
55.0502
46.6972
43.0003
56.881
124.054
47.862
76.8887
66.1191
41.41
286.001
42.9958
68.6412
444.005
69.1309
40.4504
313.158
598.852
41.7773
611.217
641.113
68.2928
46.5983
50.656
42.5946
84.9598
84.1212
721.582
41.6891
120.725
47.9731
121.897
55.5575
85.308
64.6413
449.817
292.579
50.6753
92.0928
99.516
82.6786
118.218
121.474
47.6139
95.1052
132.906
97.1394
67.4378
141.841
50.0551
46.77
141.948
91.6374
75.9136
114.778
97.8968
66.8135
73.4181
63.3936
52.6084
67.6216
45.6107
54.1476
1278.76
61.2204
79.6301
1042.86
1024.05
40.342
76.2904
1546.8
162.191
94.9281
325.739
119.462
759.901
58.3378
46.9943
60.046
176.82
113.729
112.841
45.1329
115.067
66.1267
81.0332
47.6129
76.8394
57.7361
469.785
718.11
117.279
48.0158
83.1122
41.63
109.456
47.4195
58.2115
63.5013
65.0524
43.2788
168.069
75.5049
46.4378
65.4087
178.948
517.869
241.842
82.7519
41.4594
73.2823
41.5365
618.49
67.5886
682.398
80.7597
117.465
65.6248
66.3423
57.6334
85.9237
53.4577
86.6221
56.3969
204.021
90.5991
49.2336
72.7581
87.951
376.941
65.6458
199.293
69.189
48.664
43.712
135.048
79.1014
72.6275
45.9282
61.0906
67.1208
69.3953
79.548
77.0263
63.3144
124.598
193.884
69.2029
97.2981
65.6601
108.485
87.9318
46.8242
144.748
60.1744
76.9005
75.2462
43.8741
291.77
418.021
91.1107
65.9122
45.2077
88.2977
55.3188
129.858
42.4227
297.56
76.9684
42.2139
74.1043
45.2539
57.2861
67.4941
49.3187
86.4915
40.1328
45.7279
48.0347
163.105
40.1597
323.29
300.46
271.043
359.719
75.2452
234.47
59.092
45.2391
141.236
303.169
400.047
103.489
61.8887
148.019
110.283
166.295
123.196
91.7575
55.5854
68.256
108.496
112.575
54.4321
78.1073
257.696
55.9073
62.7082
153.541
117.17
113.056
184.07
758.546
471.106
216.626
239.219
80.6899
116.133
42.578
44.4301
68.7873
405.079
168.802
68.607
70.581
40.2595
353.56
407.963
40.2935
164.249
86.361
40.3075
160.799
40.1505
41.1767
70.416
69.7194
81.915
45.9677
40.6781
59.5267
67.0541
65.6305
135.077
108.001
41.2643
235.012
47.1007
45.6239
46.4131
187.961
76.9222
183.071
116.775
53.308
42.2958
66.6152
1429.58
68.634
79.0086
68.3161
62.3189
61.1333
109.051
113.853
127.943
295.771
100.04
826.277
49.4171
64.113
56.0466
66.581
44.1508
160.351
119.762
43.2541
282.145
91.5854
71.4238
225.955
78.0187
54.0816
67.6086
70.3418
67.1432
108.982
306.662
64.6176
73.7227
202.648
215.753
691.873
210.494
85.0161
166.912
43.1401
45.5911
109.659
198.274
84.6723
81.9745
89.1406
101.064
47.6121
68.087
99.4598
96.881
88.0096
346.514
432.783
88.2715
167.469
205.651
589.342
236.295
197.375
90.4658
67.1588
96.5893
89.4094
256.268
44.854
46.9678
96.4885
349.074
116.635
78.5933
95.6999
52.3302
106.735
125.123
78.6074
532.071
53.0723
64.9242
131.331
97.2582
65.4225
66.1374
104.734
107.888
86.3989
56.1557
119.388
43.3931
43.3964
43.5748
77.6434
56.4826
143.499
52.7523
208.494
277.164
266.5
97.8992
83.7017
43.5
70.3023
112.286
487.439
260.767
697.176
44.1985
57.5839
54.2356
291.16
86.6722
303.131
234.02
227.981
135.421
214.637
88.2702
83.5197
70.8958
45.5154
130.726
66.1926
75.4021
265.304
68.0941
68.6266
49.9052
264.421
369.763
149.762
210.06
641.111
186.963
87.7032
65.9265
87.6045
101.243
179.61
183.314
322.998
45.1462
57.8773
70.3248
47.817
61.2012
100.057
92.6437
54.0606
123.462
51.5628
75.1213
49.5893
47.2952
120.788
67.8255
109.256
42.9538
44.1951
157.76
45.0895
96.3005
101.766
42.9892
62.4351
93.8617
78.3249
68.773
78.3285
437.084
180.212
121.411
103.99
1834.11
1078.74
568.735
421.768
98.4705
48.9649
1312.03
378.499
52.755
62.4351
103.984
86.6651
393.925
135.086
43.8939
110.265
58.9402
49.561
198.571
944.596
135.239
1262.94
148.98
249.998
628.183
60.0129
75.1308
130.948
361.049
90.2181
44.1795
44.9138
735.665
128.499
381.42
71.5676
156.958
46.6618
51.7223
462.33
486.667
80.2027
50.5541
76.9761
594.946
42.4835
51.071
404.26
452.722
72.5917
42.5284
1019.27
631.135
555.613
98.3955
319.564
483.28
676.825
78.704
86.1675
111.207
63.1273
103.535
460.985
1289.42
63.9482
60.249
58.7212
50.9576
45.6141
80.3656
118.332
65.5053
49.5561
46.9091
99.4827
432.629
1226.45
49.7503
224.119
107.284
71.4548
155.895
56.7077
89.0117
74.5226
45.1412
196.24
52.4555
537.658
42.0377
770.751
377.661
662.552
200.131
101.05
61.4139
102.221
79.6512
220.981
1428.73
102.402
395.867
173.916
518.325
163.449
735.654
641.257
88.2433
87.3341
1723.07
87.6615
48.495
71.3398
705.922
1137.4
77.5326
51.4233
490.591
75.1233
507.941
751.754
105.837
109.756
816.015
101.299
43.0808
632.442
49.9963
355.596
963.107
41.4697
68.1289
81.5655
56.4333
120.777
98.8908
41.3686
119.352
87.5774
115.208
57.3628
41.4858
211.097
235.684
569.749
49.4616
91.2348
244.295
44.3325
843.709
84.6634
108.558
149.716
414.297
85.3525
317.855
179.601
144.685
56.5507
434.658
220.437
231.722
89.0746
161.045
61.8515
76.0302
74.7132
353.989
181.851
112.754
700.355
150.1
108.068
235.347
117.701
138.981
672.091
218.521
77.9707
150.397
83.8606
148.415
306.555
542.874
57.9598
44.7145
62.3938
418.233
63.5153
287.852
57.5524
62.3146
47.6539
162.823
53.7388
200.755
331.05
53.0327
59.043
89.6692
78.1356
938.616
387.7
112.759
745.553
354.248
121.981
212.352
64.2451
55.3983
644.52
55.5278
334.108
368.45
44.0277
57.4606
125.977
96.2743
56.2585
69.9914
176.506
70.4685
76.2396
64.9827
78.5816
263.23
65.1502
184.017
150.452
263.664
54.0999
711.93
439.668
53.3188
595.046
254.426
55.8851
102.447
564.043
211.775
45.1377
190.803
506.601
211.969
608.548
55.8302
579.499
119.786
54.0123
68.7248
105.381
194.501
115.759
64.0297
217.866
51.424
232.384
103.978
1355.33
139.85
79.3201
113.563
276.625
54.7899
305.218
115.423
104.55
546.508
76.5469
77.0857
1218
42.7191
99.4191
370.952
60.9718
339.756
367.992
148.115
68.3703
81.4412
914.08
194.378
513.909
204.736
76.4371
69.5343
98.7245
689.923
618.573
311.087
86.4603
48.2483
83.4542
84.3625
127.829
319.055
92.4508
55.4369
61.3076
60.168
43.8483
85.004
42.3614
46.8127
117.95
78.0383
44.1387
125.724
248.771
58.9122
46.0981
127.609
63.3897
48.1053
53.4185
96.0026
91.9127
48.1401
96.9013
460.643
87.502
48.0937
53.9729
41.7918
255.24
65.8765
51.9351
559.748
402.937
290.032
46.1246
546.427
146.439
76.7404
830.578
89.2959
810.801
89.3858
66.0747
81.4087
66.4462
42.7741
80.9482
82.3572
88.3025
110.309
86.9164
101.119
166.128
78.4231
83.4725
437.753
86.5153
1458.83
71.1705
690.448
46.5552
116.343
170.256
50.5074
66.2695
189.863
43.084
422.729
342.572
1074.4
50.2093
611.009
60.3365
105.452
187.025
61.9751
585.532
90.8999
291.413
78.09
747.133
677.573
77.8894
41.5557
413.313
65.7958
419.571
85.0334
92.7254
68.451
71.0619
54.8736
42.5536
87.2573
314.578
75.873
176.449
79.1538
86.8679
40.2765
154.643
284.222
88.0713
232.238
140.467
69.1203
117.622
75.5661
72.4209
54.1685
144.551
128.52
48.5681
83.5472
80.5231
64.163
91.3544
265.609
274.978
77.6263
86.1364
344.543
85.4149
51.2116
62.556
45.8626
158.775
162.45
203.932
104.428
67.4007
73.1098
62.9747
56.4138
58.0764
56.518
482.348
129.088
650.645
512.954
624.963
57.8461
65.6869
72.8995
69.4199
47.133
324.716
80.2522
45.7025
75.3789
111.281
76.5002
248.126
75.629
153.954
118.562
92.628
47.9892
68.1463
85.3286
84.2233
66.0354
108.239
95.61
189.568
84.8271
68.9088
78.4762
145.308
163.801
63.6908
77.0147
130.394
93.5936
166.555
52.5869
56.2458
131.836
67.3264
54.44
73.1111
42.5584
57.4393
86.5991
71.1157
357.911
69.3059
88.7668
49.7186
68.0641
586.856
76.2772
83.0411
58.6662
58.6977
84.5569
83.9005
897.621
106.34
270.578
49.9324
58.7658
69.7956
40.4884
47.2857
107.526
77.7067
47.4324
43.7127
321.797
106.345
509.746
115.562
269.761
103.922
77.3564
108.599
469.629
177.856
93.1595
75.7888
915.77
62.2112
77.3017
82.4248
79.0672
78.4607
900.937
64.7838
86.7899
46.7615
118.588
54.1779
872.21
963.447
64.816
52.1957
41.9108
86.0907
89.5098
59.4253
1125.51
571.638
62.472
133.66
489.278
63.0229
215.641
124.9
41.8524
59.8711
46.0921
71.334
214.036
81.9596
74.9774
43.4435
54.7682
72.2087
48.6131
363.111
63.4607
146.923
178.52
413.897
361.748
98.2985
134.642
77.0922
133.154
114.482
41.8978
588.326
365.636
131.227
86.7049
106.053
86.3695
84.2666
212.532
40.442
44.2618
62.188
65.0123
135.09
72.0682
346.068
384.838
44.0669
131.226
41.909
41.6787
80.2628
59.6279
61.3735
53.1115
40.4432
210.152
316.716
40.8484
80.1439
284.527
345.619
47.0389
41.3067
105.504
184.669
896.352
90.4314
395.065
328.355
612.896
388.998
72.3144
48.2422
41.2892
58.43
927.022
55.6667
85.6803
78.4954
40.0681
597.717
990.747
969.249
190.681
232.478
49.0308
44.4577
53.1942
82.3115
626.893
521.713
386.494
531.421
362.828
52.9951
47.4399
830.903
47.8091
871.62
95.242
869.215
79.4152
151.131
124.594
169.514
169.166
169.716
161.665
63.0045
88.7169
67.9339
64.4188
72.1045
66.0451
1276.79
693.841
89.3572
371.986
567.848
364.844
66.2538
43.8656
533.795
493.968
534.35
42.3422
767.767
48.9678
981.883
540.94
648.423
300.241
51.8737
62.1512
44.9326
71.0941
89.232
173.278
81.319
83.309
77.1213
91.8792
76.4345
49.3159
46.0034
124.44
43.6206
50.577
75.9428
99.469
96.8612
83.5028
146.792
88.2101
80.427
123.273
95.4147
87.4244
90.0167
148.006
969.612
58.5639
311.654
68.3575
87.4937
508.734
62.8703
57.1155
46.1105
115.218
91.8338
53.0833
106.104
97.5113
81.0292
45.4893
64.74
84.7772
72.2019
100.522
71.772
94.6177
273.158
86.448
77.5774
72.6543
106.571
76.1621
355.663
42.9213
65.5521
102.767
336.727
237.731
87.7457
97.7102
912.876
224.37
182.669
88.5604
71.5424
107.974
86.1163
53.7705
125.946
76.4385
85.522
415.457
48.9563
160.641
125.184
106.428
106.184
200.985
75.9951
57.6081
42.7722
52.7241
97.1601
77.9935
376.224
61.1419
91.9492
127.91
103.533
833.383
56.0772
123.897
104.423
267.944
418.304
139.682
41.989
134.574
64.2431
44.6824
41.4749
539.552
99.1715
56.4671
425.77
130.018
67.1311
142.922
637.593
1099.63
180.694
71.9771
674.602
103.378
283.323
146.723
605.386
226.921
123.803
91.5884
488.331
90.1358
71.133
86.4767
98.6029
53.3125
61.8216
338.555
43.5182
99.2289
523.155
154.5
560.734
88.9558
436.233
47.7491
1136.81
105.892
106.079
659.597
254.295
320.151
471.066
469.919
258.978
87.2525
86.7942
424.446
55.8035
83.845
321.647
66.1313
55.8888
75.7492
170.897
69.3682
48.9673
723.503
474.794
196.165
248.998
163.535
90.9786
79.5183
79.6652
108.716
79.5546
56.3837
84.5403
64.1266
250.858
259.307
121.229
53.9264
105.59
83.0934
128.913
103.782
95.981
77.7256
253.598
58.0998
68.2106
241.566
130.154
604.363
208.338
96.5876
634.695
136.114
111.294
382.963
132.901
127.242
49.1209
485.816
40.977
55.3414
49.8698
84.1694
66.9938
97.4611
259.812
104.63
119.698
78.0914
110.52
99.1865
41.6171
355.714
164.996
563.031
985.295
106.408
386.218
158.964
67.7412
378.419
66.1403
60.0579
111.882
132.3
693.421
505.427
53.5355
316.233
353.592
95.8537
1908.66
394.278
167.172
336.586
61.2527
88.3866
239.884
333.149
145.656
716.405
52.7479
51.2779
154.386
49.8199
47.6158
106.157
322.409
525.544
50.6474
136.525
42.5518
144.354
61.9994
143.754
335.903
93.2703
328.146
59.6358
63.3987
751.454
42.9366
52.9552
102.499
53.1633
119.38
267.566
45.5008
921.402
543.402
838.504
500.425
119.396
66.0635
51.8937
60.9345
85.2128
45.1493
82.6119
147.696
60.3592
68.7597
645.983
44.8121
170.043
43.1974
136.837
71.1802
717.682
126.235
123.789
44.3979
125.984
149.723
48.1942
59.1142
95.094
44.4152
195.329
94.7828
102.355
54.6816
44.1916
99.7178
45.4339
124.574
477.01
42.9733
74.2392
49.9955
61.9568
248.307
213.127
121.77
459.993
859.549
245.003
82.8724
379.868
278.763
615.993
74.4016
213.38
253.478
338.255
325.269
765.728
53.5225
43.799
213.94
607.698
52.83
406.412
124.819
422.874
80.1074
64.2117
674.395
623.665
251.238
56.4419
235.104
128.964
328.596
43.3084
195.969
62.47
55.049
93.736
93.2086
286.06
98.1163
63.3204
159.047
77.7961
289.334
450.974
42.567
85.2723
52.7712
834.588
101.523
129.5
239.212
136.391
70.2157
42.899
89.4714
74.0047
536.161
41.9992
104.004
309.818
63.0426
49.209
75.4958
71.9944
661.083
135.205
209.687
92.8761
71.8843
887.307
501.199
58.8149
140.489
58.9524
46.0471
423.629
100.863
534.524
55.9754
48.7192
92.5099
61.058
46.1769
59.7331
70.9536
133.899
279.658
210.226
334.592
68.0859
69.2302
46.1914
168.146
611.839
933.558
66.1186
353.987
175.885
687.449
75.2734
338.9
107.683
185.812
127.65
78.9145
250.694
78.6719
191.221
111.692
59.1739
997.199
107.579
398.299
107.394
77.7037
108.004
180.926
72.4339
66.3469
416.567
102.227
118.27
55.8897
121.617
439.774
122.97
78.9111
153.715
46.4687
62.4639
43.4219
74.2736
75.5982
145.634
67.7831
89.8574
94.8674
74.0296
73.3172
62.3073
71.636
59.5365
428.946
48.3562
105.647
47.5313
66.0237
118.344
71.0023
52.3208
76.801
96.5725
84.1273
123.337
339.426
45.4392
187.859
396.107
158.58
156.245
49.8006
156.801
91.9313
359.379
63.275
43.2946
51.7066
182.201
53.7606
64.3612
845.785
230.58
390.141
43.9975
49.5939
194.328
81.1299
55.6368
133.855
49.1072
76.6988
53.5587
390.91
43.6231
152.372
44.1745
42.4143
73.8975
65.8569
130.952
105.9
41.3081
318.831
62.3457
65.8275
87.0825
807.657
63.617
61.7962
121.067
63.2249
56.4341
118.213
58.6855
50.8895
107.57
210.255
122.978
80.2552
355.784
107.664
242.069
48.5037
182.4
62.522
92.5586
248.04
48.8269
137.714
65.4273
82.1147
150.27
70.2445
553.062
115.546
42.6719
509.424
131.392
895.101
306.587
230.382
84.1539
91.0374
122.129
360.491
58.6723
417.371
91.3754
348.188
64.583
440.043
61.2589
249.062
215.425
118.033
322.559
492.74
340.291
1060.47
544.994
318.456
404.383
421.933
321.818
41.5609
93.8383
339.449
67.8779
667.025
57.2338
519.947
606.3
113.731
98.3071
73.4905
43.3672
112.317
46.0278
247.215
129.01
81.4942
184.721
83.5964
151.119
70.7088
53.4804
108.697
47.9486
214.607
46.9537
67.3582
689.527
64.7047
42.0731
99.6588
63.2963
852.935
284.093
73.1681
77.0427
169.906
48.3907
84.481
48.8492
49.4502
101.972
73.6154
54.0898
60.4899
344.466
87.1697
53.3236
42.3102
43.3646
44.9741
201.516
69.4732
92.4504
53.1552
85.2739
97.4219
54.0862
214.511
71.0418
47.1433
58.3576
82.1457
131.44
110.441
97.5921
49.2606
117.847
83.0768
50.591
50.5699
74.5166
88.7358
100.618
65.9681
119.292
64.7006
93.1674
113.372
322.112
776.769
1105.27
118.075
58.7918
512.067
166.397
240.114
44.179
49.7911
42.1877
88.0498
69.9617
42.1899
42.1363
43.7991
107.479
41.3568
46.6419
41.5621
58.1441
191.269
51.0246
109.068
50.8053
95.1056
231.645
57.769
52.6216
67.5345
1086.95
817.845
99.8161
67.1178
67.8611
58.668
116.748
489.713
61.5867
65.5602
89.2046
41.7695
92.6468
48.7037
86.6253
109.047
89.5668
60.8794
198.534
283.672
62.0117
2025.29
285.318
194.303
61.9143
83.0295
96.1082
111.769
53.2581
72.9982
292.624
44.5799
185.697
658.401
102.478
120.953
567.371
62.863
77.784
88.9351
41.3765
113.788
398.397
89.8558
91.3872
430.922
223.728
1001.58
617.149
97.847
47.0434
136.73
66.0869
184.366
150.854
563.89
49.8488
45.1703
631.696
52.3838
186.961
78.8743
100.804
655.93
612.373
48.773
42.0834
909.584
48.403
51.9887
64.5849
46.7581
80.8329
168.55
276.185
60.2138
568.741
101.546
50.9564
83.3307
714.217
76.346
597.152
63.8039
60.8404
83.8477
82.8057
59.8835
117.662
63.3526
548.649
116.708
121.772
529.356
118.985
52.6837
756.507
120.11
102.081
86.9139
187.444
103.781
82.5329
44.3946
264.419
72.0704
70.0964
62.5867
132.904
83.5656
58.8764
44.5175
67.7489
140.573
72.1984
64.7612
79.721
503.546
71.7121
71.301
69.4405
90.0688
45.8861
63.977
63.3701
129.901
106.992
139.635
146.126
87.7672
409.552
63.1535
55.7597
395.63
339.589
474.114
86.5433
347.908
51.4536
512.259
93.0705
275.076
93.9683
43.3965
111.644
193.958
91.9391
69.5907
42.2584
62.5853
407.621
62.7662
48.7991
53.0613
1363.16
244.247
43.7564
1420.66
544.435
320.047
265.081
568.805
247.681
78.601
231.726
86.4452
104.47
376.883
815.001
61.6988
43.8109
53.1929
480.708
44.0826
812.515
159.689
125.382
159.488
121.318
328.428
41.7185
113.358
120.914
55.7603
102.181
53.016
116.106
1946.77
1735.41
824.512
95.8604
729.476
42.0058
48.4005
60.3178
97.9413
43.823
54.6275
41.3652
73.1685
88.155
46.6702
53.6723
74.7383
46.1326
98.2698
117.94
43.0731
112.319
117.573
42.6145
51.7337
850.86
55.3392
840.073
586.979
122.44
129.435
82.6272
121.203
67.8324
50.6871
648.854
57.4909
56.0612
46.7878
49.178
76.7314
134.163
143.391
172.087
112.831
45.7812
579.73
60.3799
328.343
418.315
63.6793
316.157
87.9577
52.7465
60.5232
57.4091
61.3721
45.3517
125.784
50.7781
298.399
216.223
335.294
56.4296
56.257
81.3237
263.521
508.458
93.9195
145.195
63.5388
249.363
63.2883
198.949
377.033
82.2018
56.0771
91.6057
883.631
61.1827
58.7566
118.079
46.616
136.682
121.101
162.084
84.2537
263.133
169.916
343.313
71.3634
252.677
446.748
315.455
52.8851
170.132
86.7945
101.835
53.3415
65.4343
62.0154
484.632
84.1954
96.5093
347.694
81.1767
61.7819
94.5646
45.1082
138.973
48.248
63.5506
161.607
103.559
77.2082
162.782
94.7101
96.7357
78.952
123.899
42.8335
268.171
231.368
102.528
105.992
43.7063
232.038
58.579
42.4718
83.4242
45.3263
105.393
87.5694
49.8655
54.9615
98.1682
294.336
206.809
49.6423
792.003
42.533
97.5323
93.2352
48.1617
742.119
144.258
651.358
50.005
66.7668
529.342
666.077
84.1047
99.1523
184.512
127.983
48.318
106.396
63.2351
141.668
81.8073
130.642
49.8591
132.333
98.9917
104.336
59.3233
86.4448
41.6656
59.5183
611.534
446.039
102.629
107.122
97.212
84.6107
83.5978
161.222
43.0242
48.6288
59.1719
84.505
78.9102
66.6352
109.218
50.8439
57.0904
51.7908
70.4645
57.2515
68.1822
211.02
92.4016
67.6759
886.037
75.7387
63.1419
76.8984
42.4502
81.6395
203.108
44.9907
73.6504
80.1428
314.231
64.2062
63.0394
93.5003
1402.98
94.0192
154.688
115.463
64.0692
94.5914
80.1325
62.0241
848.829
92.1666
68.32
61.8381
41.8356
288.089
45.4161
283.961
414.555
112.119
71.5925
59.3156
118.593
85.82
55.06
446.213
117.464
287.018
42.557
136.107
413.881
117.692
47.7869
97.3789
52.7377
391.408
54.5669
55.8666
87.2511
40.7878
59.2222
86.6004
50.1965
415.994
41.778
402.208
44.5291
71.2688
66.0755
144.996
84.0673
121.924
110.099
571.969
110.756
115.575
73.0058
43.7861
103.704
57.6464
51.7182
78.0323
73.8888
61.792
118.355
45.9344
65.4943
46.6954
306.91
86.0021
494.541
548.805
331.593
152.779
67.1627
69.9029
59.5704
188.139
86.911
42.4237
41.265
110.945
156.171
45.4262
69.7361
999.89
139.708
64.3909
73.2159
333.949
819.66
58.7445
547.857
537.176
198.307
367.701
157.987
554.83
71.1136
213.161
735.799
72.7932
41.2152
60.3327
109.117
311.17
42.2629
43.792
69.9429
137.335
152.166
800.283
106.257
1055.21
118.082
68.0433
81.2675
74.8832
76.4305
444.873
197.9
433.089
489.558
66.3915
315.455
1017.88
65.5054
195.719
127.792
400.39
150.041
130.356
681.058
993.492
108.529
641.27
122.311
450.477
79.2529
42.8079
148.792
817.971
699.788
61.7819
98.6841
142.348
98.5935
259.972
48.3821
72.0724
962.374
328.993
322.765
89.4478
294.274
65.0257
317.28
54.8613
119.14
181.88
263.711
85.9342
122.384
256.429
104.86
753.345
70.2578
58.7732
414.205
45.8094
141.43
44.0921
53.9977
41.6713
79.5749
414.769
424.845
325.471
57.2524
62.856
319.023
56.2355
478.027
71.7604
52.3217
78.3772
196.607
153.844
579.758
49.0845
70.9068
62.0991
269.306
97.6896
568.068
904.117
415.643
104.578
59.0518
431.165
318.893
146.066
45.562
61.1679
41.3155
666.778
285.324
383.2
1065.06
237.873
91.7566
77.5716
752.497
406.17
62.2159
87.483
99.311
422.171
60.0739
46.5792
88.2125
79.1454
764.985
237.597
220.382
214.945
306.403
304.711
158.726
87.6944
809.433
362.302
698.581
199.619
393.697
669.117
148.937
57.1462
108.109
58.1486
58.5545
77.9407
79.9156
133.147
261.924
83.0722
176.55
180.269
144.699
114.829
188.714
114.792
104.241
127.278
772.084
1101.09
377.886
68.6243
115.113
81.5678
235.447
605.85
155.386
519.539
78.5923
464.298
362.535
171.787
46.5798
42.3488
67.8241
62.9981
709.646
94.9237
57.3964
431.173
69.9966
854.371
477.347
107.212
475.678
62.743
43.4571
45.6339
41.7026
96.3378
59.3015
87.5542
125.651
70.9802
43.544
138.328
558.806
544.876
42.971
103.969
46.6627
61.0904
56.0048
580.709
47.2444
53.2892
52.7163
102.188
44.2256
54.558
98.8873
54.3027
57.472
51.9505
236.705
43.0299
54.9487
133.669
402.743
372.373
63.6369
420.999
621.783
53.2139
51.6815
163.131
77.0479
341.087
70.4534
87.9682
83.198
205.216
66.6631
88.7764
984.984
494.701
81.5328
610.883
45.4368
45.7921
60.4526
43.6816
46.2196
69.9052
52.2141
78.3195
216.239
86.704
289.514
244.401
180.005
78.7989
41.7085
485.632
125.043
80.0677
524.01
98.9341
672.981
59.8214
418.753
43.1895
182.066
84.1491
220.975
45.2462
83.4055
74.5247
475.947
49.0445
41.5312
197.216
79.8198
140.678
59.8428
73.24
91.5374
46.4212
139.252
47.5304
61.9437
142.706
92.6954
406.684
67.1706
44.5705
59.8586
42.2073
50.3805
324.956
41.3557
95.4642
42.124
215.935
110.921
47.932
106.485
109.501
54.8551
69.3874
74.5981
123.46
142.53
50.4057
47.6435
89.3113
65.3235
308.169
635.036
497.826
58.5987
43.3229
58.5242
63.3507
86.9071
925.131
233.367
61.9252
51.8678
76.4991
44.6656
47.0228
73.9533
150.676
208.036
506.22
324.441
55.9751
78.9237
69.8465
41.4644
219.076
71.5091
123.505
111.39
48.2643
973.552
76.7025
56.0799
68.9747
72.6318
155.271
582.681
43.8575
409.594
53.4455
709.705
124.467
528.026
67.3892
42.5037
59.8563
104.677
47.5729
48.5082
121.634
42.9969
41.8975
53.7119
60.9065
233.361
51.5932
734.943
69.2904
59.8674
154.568
171.477
48.3928
366.727
932.366
725.736
441.653
405.583
54.137
385.955
292.965
71.0404
56.2975
52.0885
621.937
88.2139
94.2584
46.8638
77.556
239.216
788.755
157.581
84.6649
46.5004
64.2103
184.645
44.3093
54.5961
618.579
459.681
205.753
746.958
72.3805
45.2677
69.524
79.2541
1107.58
49.9656
44.7138
41.8706
261.636
45.0598
49.1013
88.806
98.9445
43.5014
109.344
44.8908
138.991
84.0757
138.518
48.3228
233.641
85.9724
109.629
157.231
108.304
169.96
47.1738
614.509
92.4988
248.446
288.981
260.404
84.1771
129.15
205.934
64.4231
43.2485
50.6693
52.3007
84.3071
563.073
114.229
44.8995
80.7777
64.1022
47.6186
118.13
61.4196
131.841
101.87
45.9745
94.5806
47.8036
77.3514
297.268
602.725
71.0909
97.6105
78.449
101.311
508.004
232.368
422.428
810.665
138.763
45.8246
47.4222
43.7168
102.658
798.89
78.0539
732.549
108.908
43.6806
116.457
397.667
45.1893
45.5986
54.3166
72.5399
59.6129
190.929
73.9227
88.2651
319.541
53.834
95.2969
65.1136
127.578
220.526
50.2473
691.278
80.5249
105.979
54.3179
142.488
44.7986
140.576
123.23
93.6681
87.88
78.8845
65.5728
69.1813
49.3365
221.168
61.209
49.5163
112.522
201.939
225.242
178.207
96.665
106.917
191.994
69.1373
240.731
139.952
129.736
97.6501
104.98
132.405
70.9744
183.322
263.098
95.9998
51.8939
48.3301
241.597
86.4207
98.2492
48.3635
97.4276
86.8987
47.5114
90.7417
406.651
100.112
69.4198
84.0468
652.989
76.9071
86.0502
144.613
57.9248
150.631
45.8
789.488
84.2735
75.7355
79.4817
53.2569
109.103
53.3112
403.051
41.5587
73.9724
657.841
59.034
105.251
192.148
96.4769
48.9931
603.313
58.3514
42.6996
101.486
126.095
60.645
339.191
43.2428
341.684
95.5059
42.131
68.6527
113.65
709.766
179.745
70.672
42.8617
128.563
404.725
443.432
114.834
121.806
946.391
209.315
215.016
125.454
78.3737
100.61
59.7945
505.13
1032.48
152.996
158.032
100.196
1235.37
428.986
522.742
380.766
182.35
64.5243
49.055
152.802
73.7491
539.446
302.311
71.0909
981.074
104.146
134.682
69.7491
50.2635
102.818
85.3486
88.723
79.3408
146.916
184.326
853.221
57.3932
119.105
628.889
603.007
182.268
174.862
60.1583
601.595
46.724
65.8885
336.373
148.443
42.0153
323.728
419.428
72.0951
120.502
47.5562
91.4696
53.4373
80.9276
172.057
79.8333
593.781
47.4014
49.5768
84.049
463.789
171.724
120.696
158.33
231.111
119.124
77.0808
429.905
105.736
66.8557
186.84
782.536
212.868
59.073
320.953
160.407
93.2752
64.8055
125.613
46.3077
103.079
78.5926
72.6925
62.2425
60.0814
84.5248
42.6624
41.8267
49.4743
100.246
49.2293
160.565
387.562
715.652
92.8206
91.3944
58.7501
47.2696
101.167
634.527
51.33
140.686
71.7574
246.455
65.8257
156.624
210.605
447.798
48.139
56.8058
279.793
52.5138
67.8204
158.886
99.0072
410.935
85.9801
202.712
486.25
173.647
624.564
194.614
378.988
105.613
187.975
144.061
53.2778
503.587
155.408
82.1953
179.562
111.078
99.0525
42.2721
50.3946
48.6346
42.991
87.1932
354.413
40.8191
946.738
106.663
352.136
111.171
385.29
974.524
54.6
243.559
767.027
176.747
355.023
75.6956
69.2218
739.991
972.625
290.255
165.633
50.6508
486.518
100.968
649.353
52.2713
52.1996
238.485
989.715
60.9867
85.2159
50.1302
252.835
501.947
47.4906
410.264
202.135
523.301
708.775
49.3912
325.994
73.322
598.218
272.426
199.692
448.003
250.138
474.778
335.27
227.681
81.1875
78.0799
72.2585
48.0967
53.4117
1422.42
74.6622
112.402
80.142
77.6636
155.625
1209.13
166.829
184.995
284.359
170.782
208.018
123.197
41.8613
77.4686
1083
658.016
272.475
187.975
261.203
88.8053
491.661
59.291
270.777
400.061
58.2938
555.932
87.8745
341.776
304.63
201.65
296.99
300.185
184.484
48.3463
131.374
59.2573
576.575
71.0861
192.021
84.309
271.444
53.9373
67.0116
319.382
116.576
263.427
44.3467
1426.87
46.1327
58.9017
56.7212
53.3357
107.948
516.612
208.529
111.72
653.584
72.117
49.4242
55.4937
866.801
100.728
101.068
830.702
350.565
906.11
538.905
202.6
291.398
156.158
182.838
706.238
65.5717
425.247
154.671
65.5692
178.312
63.5543
176.525
83.9655
625.524
479.791
591.589
390.659
336.336
245.284
52.4326