/*--------------------------------*- C++ -*----------------------------------*\
| =========                 |                                                 |
| \\      /  F ield         | OpenFOAM: The Open Source CFD Toolbox           |
|  \\    /   O peration     | Version:  2506                                  |
|   \\  /    A nd           | Website:  www.openfoam.com                      |
|    \\/     M anipulation  |                                                 |
\*---------------------------------------------------------------------------*/
FoamFile
{
    version     2.0;
    format      ascii;
    arch        "LSB;label=32;scalar=64";
    class       volScalarField;
    location    "0.0948794";
    object      p;
}
// * * * * * * * * * * * * * * * * * * * * * * * * * * * * * * * * * * * * * //

dimensions      [0 2 -2 0 0 0 0];

internalField   nonuniform List<scalar> 
47425
(
-0.0284531
0.366583
0.0866687
-8.26049
-25.6776
0.0486289
-23.5762
0.0380872
11.101
-41.1538
0.0086888
11.5521
-18.7364
0.0188554
-4.70184
10.3508
0.0627376
22.4382
-117.456
-40.5796
0.744549
13.724
-0.0346114
0.530914
12.4954
0.451534
0.0134753
-48.6256
0.0408623
0.180767
13.8544
10.4777
11.743
0.266879
0.123653
0.0278072
14.5151
11.5334
4.82269
0.256474
0.566767
-4.23539
-2.07787
11.444
-43.354
0.555316
0.0494371
11.3388
0.337761
0.271736
42.8228
-3.43689
0.160547
-38.4064
0.186852
6.66755
0.261479
0.0980781
-11.119
0.0490949
-40.2695
-37.7623
-50.9728
19.1117
10.9439
0.934861
11.8232
-5.5501
-44.915
20.9052
1.60421
0.402141
-1.24099
1.46651
-46.7747
10.7821
-50.9415
0.12415
-54.6932
-26.0233
-48.4296
8.50856
19.0046
10.6647
1.03859
-0.264698
-1.37024
0.275511
-7.37193
-31.4301
13.0436
-0.14704
0.335392
-0.254261
-0.235655
-0.0343055
0.187231
-0.356455
0.0155029
9.60987
10.5367
19.9522
7.32048
43.9772
7.36108
-1.90121
0.540975
-0.0365416
0.0151473
11.8101
-32.8078
11.4412
-2.25543
-0.477513
-3.63754
31.5696
-3.20136
44.4072
6.18706
-6.65031
-0.512576
11.768
11.3233
-11.5604
9.28358
-4.07493
-0.27551
10.8408
0.222239
0.461241
19.5468
-1.72908
52.6647
6.0906
-5.36365
-14.2815
0.870005
-3.95572
9.28274
-3.25817
11.8137
-6.37512
4.02333
-3.95878
9.32598
10.9037
-24.2573
11.066
4.03973
11.6915
-3.37068
36.2954
11.1332
-7.81929
19.5175
0.618854
-0.427262
-122.976
0.124126
0.0707565
-5.11928
0.623791
0.319578
9.01267
-50.848
-93.8362
11.1136
-47.5379
0.495664
-47.7281
-47.6718
0.388286
10.9008
16.6609
-0.0301356
12.1729
25.2371
-0.0145892
0.108082
0.19716
18.7047
0.606305
0.018856
0.155248
0.234965
10.5173
8.27986
47.3971
0.172128
0.309335
11.6489
0.172044
-14.7461
11.8717
0.291417
-4.20251
11.8562
0.337798
-4.94625
-0.120722
0.160775
-1.04768
0.970502
-3.95021
7.11897
-0.213731
0.0219657
-3.46739
10.4086
10.7835
-0.0778283
-4.27013
10.8612
0.484658
-0.926622
-5.39806
-0.299566
-30.4285
19.6092
11.6555
-28.628
-7.40046
1.03036
-0.60281
0.198147
-26.4617
0.298586
-5.14564
-7.87045
-12.206
0.0758447
0.10217
-0.937275
11.4753
0.0741736
10.6356
-31.0183
0.357043
-28.1524
0.0801723
-0.00352639
0.258268
0.293918
-8.37201
6.41002
10.7932
-0.127427
10.6816
0.473798
0.0587746
0.565562
-24.5028
-0.00883622
11.837
0.20058
0.0016546
13.0889
0.111178
5.63902
10.7207
0.151342
11.369
8.00981
7.90182
-15.024
-1.03358
0.0785635
-14.6757
0.262111
7.95932
8.428
-28.2623
-30.6689
8.35236
-26.0471
8.57182
-27.212
32.637
-29.3436
30.4927
-37.5458
0.133592
-41.3236
0.302408
0.228454
-5.99571
0.263794
0.0434657
0.801396
-3.3913
53.2973
17.9968
10.978
0.10944
0.0762336
8.96883
-6.82041
8.77457
11.202
-12.2837
0.179358
0.426102
0.0683247
-0.000105929
-44.1341
-55.979
32.6288
0.209081
0.315009
9.56132
9.01909
45.4313
0.0126656
-0.0198768
-22.7256
0.0565743
0.32198
0.144239
0.0896951
-32.5605
-21.1545
10.1839
9.75193
0.029089
-0.0898914
-0.0328668
10.0138
0.219748
0.291412
0.09762
-9.27504
-51.2128
3.366
0.0866086
11.6929
-0.00601439
-50.3788
11.4413
0.327232
0.543311
10.1101
9.89702
0.575603
11.7266
0.329717
0.00643277
0.142784
14.3212
0.0218009
0.156062
10.394
5.59186
10.5224
11.3657
10.7311
-3.57601
0.299505
18.3571
11.1912
11.0821
16.045
-6.89746
0.466498
0.0469518
6.69846
-1.60896
0.0562265
11.101
11.4018
8.26858
0.0104647
-43.4229
-1.43512
9.41762
10.9172
9.24882
-5.33517
10.4079
10.7859
14.1108
10.7046
9.18889
0.556115
11.2817
0.574768
11.2995
0.0225648
8.47121
11.7534
0.0353547
4.7191
6.18349
0.0729924
5.19645
0.33708
5.28352
11.7428
0.0344098
-15.2974
0.101695
-32.9911
0.180567
-37.1429
0.153679
0.674635
0.165204
0.0393328
0.141081
-0.0484172
0.0739127
6.10905
-50.5988
55.2649
0.392854
5.77925
2.87412
1.32416
0.29651
0.0291786
0.247497
0.10632
0.405031
0.522236
1.23221
0.022707
0.00675607
-11.126
-7.03875
-3.51836
14.8761
-49.721
-1.14853
24.9287
-49.2171
0.824543
-50.7755
-35.2597
0.521767
-1.7844
-0.730356
-4.87225
-51.4914
-0.0734395
0.467686
0.288931
-5.38676
-3.01386
0.255349
0.435486
-30.5705
-50.0568
-27.4755
11.5818
17.5045
-6.21699
0.491539
-0.896297
-15.6224
-0.731549
11.5526
11.8129
11.8323
5.45291
11.7482
0.473447
9.09634
0.120888
-2.98197
0.40724
0.297666
11.6193
11.7389
10.6057
6.52524
9.77605
0.199477
-2.00903
-30.7406
10.6791
-14.8711
11.7738
-3.56735
-17.3152
11.7656
0.430569
10.24
11.1115
10.6937
8.07008
0.301868
-2.36304
10.3359
0.188473
6.66232
20.1468
0.474911
12.8991
10.6038
14.3569
0.403553
0.169853
0.761709
-0.0134464
2.36482
-0.00346933
-0.0407406
0.406818
0.600185
-1.85219
0.0570352
0.033357
22.285
0.000561433
1.01056
0.638066
0.419789
0.100486
0.149807
9.78631
6.4622
10.8752
10.8767
42.8438
0.115221
0.00833941
11.1059
11.3301
-21.6083
-25.3253
0.185345
0.690239
0.690724
-13.6546
10.4121
-28.7983
11.7404
-33.3016
25.4791
17.8254
0.0130318
-22.8076
0.203822
0.254986
0.13208
1.37882
-0.0427544
0.401205
-50.5938
0.121626
-0.0389543
0.191747
-19.7323
0.368688
0.0334687
-20.1619
-16.7212
0.123574
0.139275
-31.5582
0.251104
-2.39342
0.0513836
0.353232
0.30308
-12.0354
-15.5639
17.9467
0.765249
0.532626
0.0262785
-28.8902
17.257
1.62645
-31.3476
0.119311
0.152609
-31.5116
-42.5185
12.4172
-31.325
-31.3731
0.0408697
11.6938
0.0980952
15.5752
10.6556
-0.0122379
-43.4705
10.1555
-0.0144425
0.294597
-17.7843
-11.1242
11.7359
5.26397
-47.2384
-27.0306
0.507303
0.176654
-0.897962
2.15347
0.230982
0.296406
10.6522
6.71165
11.733
-4.30017
10.8633
-30.3233
4.83481
2.65086
-32.1021
9.40128
0.294944
6.03473
8.86474
0.334209
11.1264
-5.13754
28.0702
10.8872
-2.89726
0.756393
-73.491
7.86721
-15.1853
-44.5134
-45.0549
0.157426
0.172847
-47.5577
-0.0294466
2.79409
-31.2432
11.1819
-41.0471
-0.0385603
0.179909
10.9969
-36.6846
11.8373
11.9081
0.463637
0.104336
0.438836
-0.00443545
0.341145
0.760283
-0.103864
-35.0894
-25.5929
0.63229
13.2778
0.0660314
16.8519
10.2072
11.8142
11.8135
11.8713
11.7995
18.4492
1.31504
11.7447
8.39458
-5.30413
0.0104813
-53.3338
-31.3052
-0.00582615
17.1904
3.34319
0.0849611
-53.6159
0.0141934
-49.5171
0.222017
-17.0287
-16.3734
0.526165
12.2353
8.29155
24.9565
0.0628704
0.318887
-0.592164
-20.9463
11.6757
-19.3123
-0.730524
-50.7361
-14.6865
-0.678095
-17.359
11.7621
0.503105
4.51297
-0.541395
-18.3969
11.6367
10.3359
-17.7455
0.0674106
-0.769101
-0.0784594
0.297571
27.8135
26.3787
14.2495
14.9361
0.00953051
-0.0666858
1.10421
-0.397361
-4.81943
0.0160597
0.323249
0.0319129
0.48616
29.9688
-17.4652
-0.0534813
10.5949
0.415728
0.47538
0.28266
-0.0210026
-5.14645
-28.202
0.248574
0.101579
-0.0335571
0.539499
13.7231
0.0774991
-1.15495
0.374564
0.374224
0.452752
17.267
34.6402
0.547831
-31.2688
-15.24
-36.0626
-31.1974
-0.687173
-14.2583
3.70268
-0.222422
41.514
-31.4866
53.5698
-15.396
-0.440791
-24.3335
0.222754
55.5168
1.58429
-1.13813
0.826633
0.106701
-14.9827
0.713923
0.595765
0.369038
-31.2178
24.854
11.045
11.3177
43.6722
40.062
-17.8746
-42.1478
-32.6466
45.2536
42.3641
11.2039
0.312732
16.6227
0.237779
5.21689
-31.5389
0.94823
4.43223
5.70325
0.282325
-32.0611
-32.0241
0.0628459
4.52081
0.477369
0.273388
5.75806
0.241983
14.8667
-0.00963104
0.39024
30.6214
0.0487439
0.0694767
0.078739
0.237596
0.19436
50.466
-21.3053
0.0523982
4.32742
0.448171
14.4924
14.9194
-17.2846
0.269812
-31.4277
-18.9
4.89334
1.12181
23.3079
-41.77
-0.00567461
-0.0368615
-7.17062
0.429033
11.3931
2.5247
-0.0010248
11.907
-35.0595
-19.6809
-42.3883
11.8762
25.5642
0.11006
-13.7192
16.1888
-18.3939
-0.0533675
17.7418
-37.4335
-8.30534
-19.5098
-31.7231
-19.0359
-1.01922
0.0270227
-15.2078
-0.027068
-19.9
-30.8924
-0.0096823
-20.2737
0.376351
0.460715
-38.5586
0.394592
-0.135097
15.8588
14.5372
10.857
-26.4787
-10.3679
0.530894
-12.302
46.0963
-2.03889
13.1547
0.620695
-1.68334
0.430719
0.309556
-30.4284
-51.5779
-11.2501
-2.3473
-21.5217
-24.656
-30.258
6.63515
0.256806
11.4502
11.6446
0.668043
-13.8329
15.3319
22.1194
11.5139
-31.0394
-19.1771
0.98435
0.0731523
0.282286
-0.270985
31.5466
11.2152
-25.8491
0.034086
2.38884
11.3226
11.3071
11.2079
11.0165
11.5445
-20.8307
-5.33766
22.6227
26.8546
16.4204
6.00834
-2.45808
34.2512
-1.0343
-8.68763
-2.24632
-17.943
-14.8336
-19.1634
-2.28641
11.5503
14.3883
11.3526
-0.251005
-34.1031
-33.3601
-42.9695
9.54543
-10.8888
4.61829
-24.5026
-0.0176388
-38.0561
-0.105736
-0.362837
-14.6862
6.59822
-0.181947
8.88075
0.223039
4.28086
-15.6651
0.567827
-3.9033
-26.6415
-8.42058
-3.28455
15.6615
49.0392
-50.2225
39.6202
-29.6847
-57.6088
0.17996
0.431469
23.2815
0.205179
50.1398
0.224808
0.18154
-50.0405
13.9427
0.941871
0.299157
11.1327
21.4267
9.71479
0.307268
12.2464
-21.0824
8.66698
12.0646
12.2764
11.7672
0.320998
-15.9151
-9.01217
27.6073
13.3276
0.309595
9.34766
0.33511
0.304311
7.13604
-12.096
-7.14864
-13.8908
-12.5683
9.86188
-43.6769
0.282066
0.317142
0.27295
-44.1722
-45.0948
-31.2993
-31.2729
-0.911909
-1.57086
-40.552
-31.9961
-7.45948
11.1607
0.246518
-1.77264
-41.6439
2.71222
-3.61582
0.433233
8.1904
-0.762426
31.3193
-109.781
-18.05
-34.0542
0.500289
53.051
-50.0436
0.967845
9.61618
0.998232
-34.332
9.65502
-7.64258
16.8227
-29.9168
-0.561206
-31.1271
0.960384
-12.9786
-0.391785
5.90982
-36.878
-34.454
9.03756
18.1076
-15.028
-45.6318
8.51693
0.0208009
-35.1002
-41.5855
10.4013
7.89047
-62.1918
-50.5263
-43.8461
9.20835
-13.2462
-28.3632
-43.0865
8.60594
22.9312
-22.563
-11.3532
-9.05941
-34.2357
-40.7315
-6.12338
7.37199
10.9855
11.6015
13.0651
8.96647
-6.10722
11.7425
11.6991
12.6438
-2.19188
-31.7723
-38.7025
9.92101
40.6386
-22.5633
10.143
-21.1619
4.45004
8.99016
-11.8223
-4.07365
9.1339
8.10497
-56.2448
12.1147
-36.2633
-50.7892
-36.5762
8.71141
-12.5749
10.6486
0.822941
1.44586
-20.137
-41.04
-0.683936
-34.1107
-19.8528
57.8349
-24.5236
-45.5439
-33.3542
-0.0566129
-0.276751
-42.4768
-1.72701
13.9464
-0.0164423
-44.6327
-41.5635
-0.00974696
-0.647465
-36.007
-14.2011
-42.7778
44.3106
0.162981
-4.76604
-44.3504
-2.67343
21.2258
-35.2046
13.9416
-53.4868
-18.5837
9.88329
0.25178
0.135771
-0.693163
0.183741
-0.79735
-1.73177
0.190473
6.07757
33.6648
13.9212
23.54
-20.3102
-10.9356
28.5267
-6.50278
2.14306
-16.4767
12.1215
-67.6483
0.483853
-0.358664
0.567723
-40.9942
0.369798
-55.6924
0.379627
6.27575
5.37167
-50.8988
49.6879
-32.3059
-26.2765
33.6688
-4.78522
11.226
-12.2386
-27.1063
-31.7258
-27.5111
43.7304
11.0752
-19.1593
-30.682
-7.75651
-7.18185
-39.8178
-29.179
1.27129
-18.5806
10.9631
11.2306
-26.778
-44.5628
-3.37333
9.13707
11.1157
-50.3939
11.2432
-10.3627
-14.2763
11.2276
11.4786
-24.8469
3.31236
48.9566
-24.9868
2.93378
29.1083
26.4405
8.48384
-85.537
-38.9761
-19.1064
-117.714
60.0958
11.5457
-23.778
11.5496
22.5663
-52.3016
2.09647
-52.6791
-29.2568
-5.60251
20.0169
-11.0722
11.3969
11.4503
14.2921
-24.0735
1.04214
0.0866616
25.2514
0.107778
-20.5137
12.7815
-14.7148
-2.96887
-27.5759
14.3958
-56.6693
-42.489
5.26504
-38.503
-32.0377
0.083188
46.7707
-38.6516
-7.02209
28.1151
-15.2029
-22.9072
-27.1547
-37.1003
6.13518
-47.3407
-24.0542
4.56445
-2.24409
0.360507
-27.2341
-6.09117
23.9989
-19.5364
-0.00258162
22.0527
0.396132
-64.0626
-0.00842413
0.0952177
-8.87964
-26.8811
20.2361
-12.8912
-17.0989
-10.02
-52.7874
0.0176346
-15.8272
-64.4021
0.513075
-9.15542
56.1287
-8.71861
-32.3251
-48.4393
0.109774
8.3989
0.0206162
-128.185
-30.8026
-25.0855
-30.4737
19.008
-6.98342
-0.841755
-40.3501
-48.7798
-19.7553
0.300462
11.28
0.82848
0.416107
0.726632
51.6326
11.6772
10.9885
-10.1416
0.38022
14.7728
11.8811
20.982
11.4286
0.222388
19.7043
12.3651
9.0777
-22.281
0.939079
10.8042
8.58163
-12.742
10.8245
0.338324
0.494578
9.3238
11.8698
11.5695
-50.4871
10.7575
17.0447
0.570736
0.216325
-27.1191
12.5059
11.9701
-48.7825
-47.0891
56.9688
13.6793
-49.6945
22.8043
-0.189948
-47.5248
9.22332
-48.7392
0.182562
0.144762
11.3127
17.9218
9.53379
0.217992
0.289992
0.871479
5.26692
7.60369
0.506913
-21.0118
0.370034
-16.0981
56.7607
10.7945
-45.8803
-13.1403
-71.0752
0.456819
9.57504
0.0263851
12.225
0.171689
10.8539
0.696364
-42.461
-27.9049
-39.6279
-7.12628
-16.4913
0.868182
0.69214
-32.0453
0.913025
-52.4457
-3.79811
-47.1673
0.431865
-57.3955
-85.9695
-1.28225
0.0147955
-30.0108
0.196755
-29.5877
10.5382
-0.235697
0.721787
-1.03166
-2.14506
-3.16975
-16.1391
-32.3181
-10.936
10.5663
0.651536
10.6559
0.326464
10.5095
-29.7702
8.45574
-29.6263
-1.06292
1.03198
8.06528
0.335316
8.42883
7.66675
0.106593
0.43679
11.3861
0.22015
-6.34839
0.241234
0.0900525
-30.6864
-29.3001
-4.52027
-0.755042
-26.7737
0.148836
0.255457
0.264562
0.279014
0.0605331
0.196138
10.7375
10.4548
0.508175
0.355042
40.036
0.0764944
0.303585
0.475889
-49.34
-1.01992
-51.7853
-37.1277
-46.0206
8.11718
0.188286
-0.736633
0.0503521
0.478622
-42.9418
-13.8422
0.417238
0.32004
-0.822887
-0.819908
-30.4693
-0.879694
-0.00322272
-19.8389
0.463624
0.406747
0.155364
0.319674
0.107796
0.208406
0.335488
-14.1014
-21.2935
0.0388314
10.6434
-5.81598
-12.1648
-10.9071
0.332158
0.472981
-14.1814
-0.0200554
-0.053964
0.566444
0.335431
-13.355
0.0509453
0.632477
0.40737
0.332293
0.559946
-9.13305
-0.0345945
-43.5382
0.341946
-17.9558
-0.475803
0.0460612
-44.9346
-0.030138
-1.27861
0.0773969
0.456225
0.542025
-1.21447
49.5359
-1.00114
-29.4837
0.359032
0.0991293
0.707011
0.382501
0.180576
-0.7324
0.219524
0.365518
0.106993
-26.0894
-11.3018
-41.9463
9.21263
-18.1648
-0.771115
0.265406
-0.741638
-36.566
0.0607457
0.0495426
-0.0160527
-59.67
0.0218326
-0.117978
-0.00417677
0.212821
0.0501065
-148.672
0.0210918
0.838878
10.7671
-0.00308672
-8.63729
29.5953
23.8556
0.03435
5.80846
-0.00903682
0.494629
0.321759
0.152138
-58.4386
-47.2422
0.0018442
0.293298
-43.7886
0.0525639
-6.0689
-25.1945
0.0573779
0.494017
3.789
0.0635418
-14.3302
-0.0279525
-0.511775
18.158
1.94628
0.0505531
10.7607
-29.6087
10.8155
-30.2639
-26.8924
-31.8434
-28.2714
0.410454
10.7469
-21.3118
10.8927
-1.93265
15.187
-34.9097
-29.7817
11.1987
-11.3584
11.1903
0.252512
0.269653
-31.2461
0.406978
0.414258
11.0179
11.0457
39.5923
42.2733
60.571
-21.4563
26.4024
11.2138
13.511
21.2774
11.0767
0.359255
-0.0105058
0.258396
0.163226
-31.2679
-31.1978
0.404507
1.72636
-8.82361
-49.9433
-3.13426
0.335702
-3.06351
-24.0107
-59.4958
0.379177
-36.268
-16.7403
-32.4976
-42.2168
-14.6264
0.266275
0.335921
11.6847
-61.2761
0.0852355
11.7858
0.28002
0.152182
-47.0504
-47.1938
-48.8215
-1.34507
-29.3843
14.8567
8.47871
0.282462
-16.815
-50.5601
-49.5827
-31.5295
58.4223
-31.5829
32.4534
10.6337
-45.3964
11.3432
-64.3113
10.7327
-60.1688
10.6301
-29.3359
0.264073
-22.1953
11.215
11.1429
-0.774667
11.0073
10.8872
32.3416
2.01505
11.1209
10.8923
-71.4121
-43.5606
-16.4584
-28.7864
-44.0687
-28.8622
0.5153
13.4329
-39.4171
-33.6281
-39.4215
12.2665
-48.0872
4.69908
-49.6042
-50.9666
-39.6281
-27.1539
13.6555
2.02324
7.88038
11.0838
0.78098
-34.4287
-4.55135
-1.83263
0.726036
0.0340616
0.106081
0.685452
0.254316
-28.3137
0.275712
0.133602
0.456854
-0.692281
-23.1887
0.638415
-0.0417781
0.122636
0.659997
-10.5077
-7.85376
0.430921
11.8524
-33.8609
-50.5007
-3.61516
-45.8983
-12.7205
-2.17742
-28.0996
35.1981
7.49902
7.09193
-10.8965
-0.0180235
0.0169806
-6.51097
-0.0533336
0.0237864
-2.34448
0.0530435
0.691057
1.25978
9.98466
-7.38089
-0.318466
41.7941
0.0334148
11.1392
0.0242631
-0.0372782
41.3002
-44.02
22.8664
0.0777737
-1.09432
-29.7677
-31.1046
-4.10102
-0.0396408
10.2962
-14.7255
0.0939522
0.103168
-14.8635
10.9247
0.0920261
12.0483
53.0812
-0.810064
-1.27365
-22.9181
-4.26547
0.315296
0.275969
-1.57199
10.8775
10.8562
8.80794
10.9785
11.463
3.07253
1.40357
-8.68437
-50.5893
3.65527
-7.58917
10.9124
10.8188
58.4387
2.03698
0.0179521
-0.967213
-20.5321
-40.1731
3.8705
14.6122
-1.1015
28.1455
-7.47391
13.5513
-34.6096
45.8202
28.5863
-26.2867
3.67648
2.96312
-21.6139
-49.35
-80.6824
-4.50451
-14.7796
-49.9925
-0.157454
-20.386
-11.6262
-40.1061
-31.623
1.71236
13.9316
-50.7754
9.00357
-11.2553
-0.367231
9.31026
-2.37016
15.6107
3.04162
13.3667
8.41833
-38.5364
2.53806
55.5063
-22.4295
53.3631
30.5038
-76.3889
11.8905
11.9314
-62.7813
-18.477
-5.97455
-34.0719
-29.1246
0.526886
1.95554
1.57311
-34.6391
-6.22565
5.31838
56.6876
-11.7024
10.4976
-9.62824
-23.4547
6.13635
6.45972
-37.4907
-33.0464
-29.742
-31.1711
0.194195
-19.0131
-0.647637
-20.0069
-11.3607
0.847838
-1.08367
-18.0587
-8.37135
-31.1147
-30.9585
-7.30998
5.79961
-2.10547
-15.5396
-25.5083
7.6095
7.39198
-18.5602
-30.7083
8.28886
-11.5502
-30.5989
-0.334446
-39.6101
-3.45294
-9.75771
-45.871
-0.158005
50.5231
-16.1133
-1.01513
-1.0881
-2.6133
-50.4969
0.390808
0.512048
-4.87746
0.265526
10.4246
0.374454
-31.5004
9.99856
33.6891
10.5347
10.1681
9.9058
0.41814
-24.3585
-16.7841
-16.8297
-48.6743
-4.50983
-39.9184
-16.1845
0.0355642
-54.154
0.00256502
0.38432
-2.402
-12.7216
-55.372
-32.2312
9.96661
36.4478
-20.6033
0.692873
-36.3814
-42.1434
-10.4657
-43.9055
32.2737
10.7249
-12.8348
41.2621
10.7522
-71.2291
18.9864
9.62214
46.9786
32.6766
10.7995
10.9198
58.3955
-40.3951
0.58252
52.1071
6.06664
10.8832
-12.4626
10.7698
-33.6914
6.90828
57.91
10.9819
11.1263
35.7241
9.21455
15.9376
-5.15815
-4.64818
13.7482
-29.9185
22.7298
-23.262
-55.6736
-72.2217
-30.4947
11.2155
35.052
12.8238
3.10387
6.32969
10.4412
10.8382
-0.147255
0.0308436
39.1493
-46.044
11.4768
-30.6386
0.194155
5.81998
-20.1655
-71.9524
0.0347699
-19.3448
12.2641
4.24324
-0.142427
9.17559
-10.5534
0.0529656
0.6463
-23.902
0.77068
0.372695
-10.0437
9.43103
0.348776
21.1384
0.387712
-26.4885
25.8737
0.776705
14.8251
35.3527
-30.253
55.0882
39.8352
-33.8698
-65.2087
-30.4723
-29.0209
-30.2749
-30.3415
-33.8616
-25.4462
-35.7482
-30.5464
56.9685
-7.36007
-47.4366
9.99797
-1.35887
-40.1182
-44.7417
-5.72397
-31.4915
-19.9954
-30.9321
-17.01
39.6579
-48.7757
-35.5454
-30.2656
22.7494
-30.2217
0.339064
-48.0233
21.9849
5.02451
0.0901347
-4.09085
43.865
7.45988
-18.819
-10.0697
11.6169
-0.0589783
-9.27146
-29.2817
-34.168
-3.2962
-8.44942
17.8043
-32.3453
-11.8808
0.130482
-26.8766
44.7002
-4.69267
4.15805
0.231844
1.14938
-39.7156
9.13063
7.54907
2.14743
0.129993
3.93888
-3.90206
-4.48821
60.9519
1.71203
-16.0186
-9.02299
0.446394
-49.8029
-48.9934
7.79887
7.92854
7.11831
10.1013
-27.6607
-13.6432
54.5551
-9.96324
9.86149
-18.0015
-6.62083
-7.15721
7.59754
-15.5181
7.55762
-24.8875
-30.7585
-35.1635
30.5143
-14.6932
16.2763
7.80974
-55.4721
-70.5079
31.6317
-48.0814
8.3234
-60.7136
31.7048
-5.88475
18.6885
-24.0726
-1.32594
0.213984
-8.29463
-16.5557
-40.3356
-1.47908
8.53363
-91.0541
11.7318
-29.9857
11.5856
-3.90949
9.17957
-1.05192
-2.98943
0.137226
-13.8908
6.69216
0.00952633
14.1211
-1.79849
-45.8988
33.8634
10.109
39.9403
11.0239
-0.836919
10.0436
11.8076
29.9735
-1.95676
29.8471
0.107678
-2.11596
-20.6667
0.449544
0.110813
-16.0891
-9.93837
-24.5432
-6.81985
32.2187
6.35749
26.438
0.303818
16.6081
13.737
0.327453
0.34753
0.266528
0.571924
56.1236
0.260449
-11.3669
-32.209
11.1
11.4492
14.0098
11.3015
-22.9085
-27.8466
-2.1642
-6.44663
-6.50066
-18.7596
32.9399
0.21659
-60.9603
-13.7752
-37.442
-1.74786
7.62578
-25.1514
11.1922
11.3417
-21.3268
11.4305
-0.296841
6.02761
-41.7853
16.1245
53.5801
-1.48209
-2.26121
33.0544
5.76738
-0.758409
33.1233
6.86472
-19.1568
36.0189
-11.5382
37.9313
-43.2229
0.704018
11.8129
-2.18794
-10.5557
-1.73002
0.476262
-3.3457
0.14959
11.8164
-34.8732
3.2197
0.0541116
-32.9906
-0.946446
4.28169
11.2644
11.3917
24.063
2.7898
-2.52119
-7.26051
-3.55088
-14.6509
11.0598
0.0694213
-21.6432
58.3508
-23.8837
-0.788673
57.0471
11.2945
-48.063
52.993
-5.23155
3.9885
34.9742
11.4272
-31.1028
36.3069
-31.2154
-5.74631
-31.0514
-15.5994
-33.0772
32.9876
-6.25832
59.0539
0.356579
-31.1785
-31.227
-52.3332
-46.1275
-37.4608
-53.7814
-38.4678
-33.2956
55.9693
8.71725
9.24372
49.0976
22.9687
-48.7688
6.40957
-50.5474
43.4276
0.535829
9.58073
0.0416956
0.483792
0.411693
0.433746
57.3274
0.244859
0.374177
10.8181
0.536833
0.610154
9.82123
-7.51477
0.466202
-9.43861
0.284887
5.94096
25.493
-47.7759
-1.7072
0.805901
-8.28188
-1.92516
-38.9125
-26.2717
-24.1795
-2.80245
36.7544
12.6361
-4.14106
-6.75011
7.62532
2.81732
0.476923
10.5654
10.0802
-32.5646
0.590682
16.3202
-4.83229
1.50426
10.7729
-6.0117
6.89769
10.5866
10.3438
-15.7941
10.1039
7.80158
50.7812
23.9946
12.4754
21.6675
9.79336
-3.21377
10.1741
0.141941
-5.28972
0.118701
3.99049
0.0711128
20.8867
9.73711
-19.4483
22.425
0.0266775
8.62783
26.9344
-17.1074
32.6967
-29.1955
-54.5306
-36.8877
-1.5851
0.0869186
-31.9815
34.9121
-13.741
-4.08452
7.98214
0.798855
-0.871159
0.0532295
8.46254
11.6858
27.8461
7.67143
0.283411
10.4735
10.5788
0.0181779
-34.8344
33.8476
0.0332539
6.69292
-14.4917
41.6157
11.6728
9.13581
-12.4466
-50.0151
-47.0552
10.7612
10.6942
-5.31638
-9.00012
-12.1513
-32.9222
30.8728
0.168184
-0.763902
-2.48231
0.282555
18.326
-17.6508
0.366824
0.307236
29.2077
0.270436
-13.4202
25.4911
-37.4959
-28.1372
0.258518
-13.7177
12.6754
-0.0670802
0.311253
11.3034
8.19028
-1.54521
19.715
2.77762
-44.8361
0.399717
0.379819
-36.7923
-3.4169
12.4566
0.393129
6.94147
10.9232
58.8363
0.36061
-11.9028
-36.8411
-41.3556
-96.575
-61.738
0.374383
15.5057
45.2413
0.008798
6.65041
8.66217
-40.1281
11.9309
5.11052
-39.5469
11.915
24.0519
-18.907
8.12549
-40.611
-50.7204
13.4572
17.7032
-42.528
13.7651
9.73279
1.27985
13.0377
11.1961
-0.823311
-37.688
-8.9305
6.45562
12.8574
10.9083
11.5821
0.0769289
-0.0374424
33.7218
-0.00327968
-9.58109
-1.27524
35.259
11.3157
-14.4
3.32829
56.34
-25.7955
-31.0136
-41.1455
1.85367
-7.1165
-58.3425
-21.4463
13.185
-17.7364
-9.49513
-0.0319899
-12.5396
10.6076
3.84427
2.04392
-0.00407907
0.159498
-21.8853
-7.52945
-13.3382
0.313674
-1.62203
0.17724
-1.82136
-7.88371
11.9071
-46.6899
12.2774
-2.20714
-2.14348
10.3145
10.0529
11.0337
0.452166
-1.98641
-14.499
2.65252
-1.86649
-1.9173
-31.4382
2.60316
-8.60914
-39.8375
-32.0595
-27.5761
13.0567
-34.568
17.2948
-32.8948
0.311911
-31.1701
0.330053
1.64305
-1.41517
-6.97802
0.235152
2.5843
-3.4024
11.0982
10.3359
12.6029
-6.74287
-6.67525
-46.1011
-30.4773
22.3156
36.3021
-33.9908
-25.7813
-30.6967
-49.1109
-30.3334
-11.6508
-30.521
-0.389434
-0.612987
-49.01
-51.7409
-5.97554
-1.89757
10.7701
51.6155
-4.26825
-51.2885
-4.4259
3.50835
-5.57451
-1.91857
-28.3639
-0.636404
-0.455193
-0.316266
0.8198
5.60157
-1.18006
0.506495
-42.9212
-43.6937
-42.2792
21.388
-36.2663
11.7522
0.474317
13.1201
5.04069
2.96507
20.4837
10.7839
21.7118
-0.183201
2.39554
3.9691
-0.782448
0.667331
-14.5279
7.52334
12.1663
7.54663
41.0738
0.675251
22.8093
-58.7878
-7.38566
-49.2125
40.4263
9.19479
8.02455
5.19973
-15.0055
-10.7217
11.5756
-35.5707
6.31545
8.38889
-6.87971
17.2848
8.29067
-7.22027
-19.6235
-14.2439
11.8173
-2.34434
-61.46
-0.778379
-43.9928
-30.1631
11.7015
-52.4951
-10.4423
31.8788
-2.17203
11.6776
14.1463
16.4055
-8.61303
10.9195
-30.9961
-14.6467
-30.954
-5.92238
-8.91272
15.9997
-30.4228
-28.8001
-0.493724
-0.855884
14.9835
-30.7632
6.33144
-7.11922
-45.0002
0.23588
-0.377452
10.3756
-49.7183
-7.77045
-2.26662
-0.276927
-2.83872
10.0522
9.75435
-4.8263
10.1223
-31.0513
10.0933
-51.4348
10.3696
-32.458
-33.434
-11.7522
9.43378
-10.3421
-1.39895
9.71185
-3.60286
-1.37557
-10.0032
50.5715
0.126587
33.0197
-13.9522
0.187649
-4.93081
0.164621
11.2762
9.92964
11.0309
-8.95823
0.151766
10.591
-3.00042
0.164409
0.447994
-26.7224
0.105158
0.0770129
11.3908
-28.6026
-33.395
0.120794
-8.88098
0.413846
-28.5702
0.266653
0.162514
-0.560828
0.302709
-0.38874
-0.553307
0.0557498
0.502845
10.0128
-23.8202
-20.2108
11.3171
44.0322
14.7274
11.0723
0.0556293
11.758
36.5602
0.0292504
32.5374
-1.19681
0.105436
-0.427183
24.581
0.441545
-0.0874585
53.3672
11.8456
26.497
-12.304
-15.8418
-0.0181258
-4.07987
-0.0357725
0.364817
0.423573
0.337368
48.1547
0.49348
0.298657
0.253786
10.6458
-40.824
-27.8897
-6.57359
2.34028
-0.877631
0.263148
13.2085
-30.2224
23.9127
15.6194
2.05598
0.246111
41.2075
-15.6645
39.2561
29.6718
10.6905
11.1967
0.225567
-6.60882
0.0846891
-18.0086
-15.6949
11.2076
-47.1576
-0.347764
0.0412261
0.499914
9.49007
0.315086
46.8224
-6.26764
43.974
0.282699
-52.2349
-10.2717
-16.0801
0.294212
-43.5743
0.427042
27.9956
10.8515
31.1017
-0.268285
-20.0051
3.64576
-48.6373
29.5836
10.7285
10.3669
-2.61783
-27.2646
10.7451
-52.8017
-38.0684
10.7944
32.6484
10.6543
-24.1477
41.7998
6.86076
-10.6579
41.7927
36.8958
-0.144278
1.4093
-50.7237
41.7514
9.1504
38.57
-7.3626
-51.1245
28.4341
-4.78006
0.0381544
0.156004
0.0987733
-0.88907
12.5781
-32.0745
-2.18082
-37.0407
15.0512
37.1004
-12.509
35.204
0.0597695
-0.0343174
-17.3933
56.2973
-19.9658
46.4717
14.5871
3.01745
23.3074
3.41613
15.7223
0.00710129
0.062701
0.0123706
-0.0143014
7.54193
-16.5997
12.072
-33.477
3.27801
-42.9754
8.18738
-26.3575
43.6717
-4.0111
-3.16069
0.0886719
37.5581
0.0293171
21.5112
-3.47081
8.28023
-12.499
-0.833197
30.4818
34.1162
-17.9348
0.162275
-1.40891
-31.4067
-62.8553
-8.57073
50.2359
25.4355
53.3468
56.8261
42.8984
-36.7261
-2.0425
42.8244
-43.1961
0.000420576
4.29848
0.0380842
-29.3676
-13.3858
-2.76625
0.175302
-10.1455
-0.0662827
10.0814
-37.5233
40.3939
-46.5107
10.0382
-3.23807
8.74259
-0.015975
-8.95714
-52.7403
-1.53966
-30.48
-21.0144
10.3996
-51.6077
-43.2913
10.382
-16.4748
-17.0715
22.2868
10.4082
-15.2163
25.7569
-53.4016
-32.7556
-44.9382
38.5326
-32.96
3.38494
24.1006
2.8551
-56.7366
-48.2722
-0.824739
-1.88325
48.0771
-4.00747
-39.3031
-4.35315
-18.9437
-65.6563
-31.2704
-31.2634
1.31008
-31.2377
0.19581
-31.1879
13.3285
-23.9781
48.476
-30.7601
19.3837
-32.5338
-30.2139
-19.8505
-44.9144
31.9302
29.7415
-30.5126
9.77602
25.2561
15.8229
4.7059
12.5159
-3.64896
-31.8861
-88.9567
-32.3144
14.9163
18.5684
-40.5368
22.8288
-32.9304
-16.3724
5.33061
4.23883
-30.0465
11.4038
-31.8598
13.1006
29.5305
31.4579
58.5508
28.2294
-28.6714
-60.7006
42.4008
11.3876
35.4437
-48.5496
-31.3481
49.6192
28.6571
-4.66993
20.6644
24.1097
-42.3597
-33.5081
-44.2999
15.0909
9.71016
34.4409
-59.1515
42.9564
27.3834
11.7379
35.6469
-33.4409
1.63733
1.18975
11.6917
-14.186
-48.6298
-31.7283
43.3048
-14.5907
-21.9959
-47.1831
41.1061
44.65
37.1182
-33.0868
-97.7396
43.0033
-32.486
-54.9761
44.4574
-2.5004
-10.894
11.2387
-0.476765
-0.804612
-11.1416
42.0881
-30.5142
0.910965
-0.53284
-0.722692
-0.288619
-2.35483
3.86281
-32.808
-10.127
-0.892771
-52.6764
-68.5384
-30.2805
-20.3452
-2.2971
-18.0313
-28.9261
-41.7989
-0.770939
-36.357
-2.52108
-36.4533
-31.9722
41.2394
18.2816
25.1172
0.0807558
4.42859
-71.1251
-24.9868
-11.0322
-45.0416
0.010956
-62.386
-44.7652
-26.617
-44.9773
-5.92162
14.7965
10.7459
14.2014
9.87992
41.36
0.0225565
-0.0106007
-0.00786315
13.6824
-9.37964
-47.1347
-56.9844
15.18
36.2757
23.563
28.6533
-0.948823
-47.4313
-6.83934
11.6881
2.87014
-2.9703
18.0898
6.33946
-15.7064
13.7002
-12.7556
-10.8166
-7.86063
16.3999
35.0682
-31.6373
51.5848
-31.2054
18.1827
-53.0238
-44.9532
-11.6856
12.7702
32.9599
-10.5219
-31.8418
4.44759
13.4945
-18.4263
-30.7187
15.7319
45.4383
57.6399
-28.8434
-4.03114
-55.2988
13.7759
-0.322331
-10.4174
9.89415
6.1364
-16.2587
2.27722
7.55982
-44.0191
-11.4288
-30.6037
-14.7385
-32.0135
-0.0400607
11.023
-52.6771
-19.1897
-0.0333739
58.1304
10.9788
44.7735
8.76189
-28.6838
15.9808
-0.82826
32.6132
54.1085
14.5571
32.8056
0.0462381
-44.8007
11.4643
11.348
-6.7889
6.13392
-39.0541
-5.08542
-11.7343
11.6332
2.66017
-22.7578
4.00216
8.50955
-9.0141
-12.8806
-28.0275
0.0237476
13.0997
0.0138092
13.2836
0.0811937
-20.988
11.3926
-23.7188
10.7954
-27.5709
0.00367687
32.0809
-9.83876
34.2202
0.04798
6.02511
0.0954779
0.00812391
-5.66982
6.6219
15.9005
32.7214
28.3209
-33.4485
-50.3185
41.2671
23.3632
20.5307
4.38735
0.0179526
0.0604807
-75.109
42.0593
17.671
13.7036
0.0802018
17.6793
0.122071
0.023148
-22.3383
-25.742
-38.3191
-34.344
6.14886
-0.251968
-7.20504
11.2364
40.697
9.67243
-20.9168
9.53431
-8.21445
-76.0604
-16.9819
0.129191
2.91185
-10.592
-9.34275
-36.8272
11.7573
-36.0986
22.4965
-76.1311
-31.2169
-29.0243
0.158335
20.6547
2.18238
11.5329
33.134
11.5922
-12.6386
9.59598
10.6679
7.64924
11.4903
-40.3136
15.7897
3.78334
41.3475
10.9079
-23.2767
11.6828
11.6001
-31.5567
-77.924
-28.7496
-31.0975
-31.6087
8.58443
56.3024
-33.8018
-4.32488
11.0731
18.577
-31.5858
0.339041
0.117443
9.63698
-23.4234
-31.0681
-50.2593
30.0532
-2.85483
0.437841
2.02583
-31.0757
26.5678
8.46657
-54.6484
-32.5979
-31.6205
58.078
12.8148
9.32804
1.70307
12.925
-50.2761
15.7308
9.95578
17.7722
-5.8132
15.8311
21.6992
42.7142
34.5724
9.35511
-19.5057
21.0573
-10.644
0.301716
0.338104
29.734
-31.8493
-13.0795
0.254233
53.5056
0.337605
-31.2099
28.4976
19.0465
37.5799
-30.7293
-20.5894
-30.5042
30.2196
-14.6305
-33.5743
-6.02791
10.0829
0.517767
12.773
-0.708815
13.3876
-1.06591
10.16
-1.15385
-13.1988
0.0758441
33.3378
1.95451
2.94823
-25.634
8.05902
-0.224029
9.70526
-6.69371
-33.083
-44.5859
-21.1489
3.17052
35.1547
0.30943
56.5869
-31.4625
56.4623
50.6114
0.449352
3.513
5.55978
0.374933
0.283637
-89.6072
10.2498
-23.8151
-14.3583
3.44212
-0.568114
-31.5636
5.79805
5.72728
8.34629
5.3103
0.422612
-30.6368
-5.92853
-0.120996
-27.6314
-0.0188439
-1.03488
-0.254548
-0.151857
-9.6393
6.97366
-55.2585
-0.801946
-0.233298
-13.7323
-18.3284
21.1836
-20.2308
10.8857
10.7701
-0.0238771
0.077792
-12.4277
-17.0974
8.84995
0.0522681
-3.16885
9.67242
0.0196075
54.7032
-0.0236152
-1.43851
0.0634638
-0.0300376
-30.3646
-0.00563605
-30.9132
-8.24283
50.4295
3.17313
-5.28793
-6.30442
-2.71912
-7.24486
-32.8384
0.429216
0.0421009
6.13053
-31.0678
-0.0392991
5.96462
25.5724