/*--------------------------------*- C++ -*----------------------------------*\
| =========                 |                                                 |
| \\      /  F ield         | OpenFOAM: The Open Source CFD Toolbox           |
|  \\    /   O peration     | Version:  2506                                  |
|   \\  /    A nd           | Website:  www.openfoam.com                      |
|    \\/     M anipulation  |                                                 |
\*---------------------------------------------------------------------------*/
FoamFile
{
    version     2.0;
    format      ascii;
    arch        "LSB;label=32;scalar=64";
    class       surfaceScalarField;
    location    "0.0948794";
    object      phi;
}
// * * * * * * * * * * * * * * * * * * * * * * * * * * * * * * * * * * * * * //

dimensions      [0 3 -1 0 0 0 0];

oriented        oriented;

internalField   nonuniform List<scalar> 
92401
(
0.150717
-0.099743
-0.00666907
-0.0443044
-0.0647044
0.061587
0.0414377
-0.0383204
0.0221301
-0.0395647
0.0429023
-0.0254677
0.00660922
-0.0132141
0.0130447
-0.00643987
0.00144736
-0.000575526
-0.00604502
0.00517318
0.0193836
0.0096807
-0.0252791
-0.00378529
0.00592426
-0.00479814
0.000321243
0.0321831
-0.0255049
0.0127054
0.0480777
-0.0386434
0.032458
-0.0418923
0.000327238
-0.000521801
0.000272138
-7.75748e-05
0.00467868
-0.0414432
0.0385977
0.0243189
0.0243103
-0.0872269
-0.0177337
0.0112257
-4.38702e-05
0.00655178
-0.034338
-0.0399113
-0.0157218
-0.0215383
0.0598329
-0.0225729
0.00206984
-0.0664412
0.0643714
-0.00252715
-0.00776733
0.00204466
0.00349906
0.00222361
-0.000946032
0.00154199
0.000210109
-0.000806071
-0.00499655
0.0109612
-0.00012527
-0.00583939
0.0165331
-0.00576681
-0.00503614
-0.00573016
-0.0406857
0.00833177
0.0369452
-0.00459127
-0.0394911
0.0110278
-0.0547821
-0.0540117
-0.00259035
0.0548056
0.00179649
0.0906722
-0.0892149
0.0220068
-0.0234641
0.0502745
0.0601383
-0.0719781
-0.0384347
-0.0326028
0.0511442
-0.0580325
-0.00275183
-0.000988428
0.0040087
-0.000268448
0.0314199
-0.0636491
-0.000373581
0.0609673
-0.0601946
-0.0322574
0.0314847
0.0124735
-0.0172702
0.00137791
0.00341879
-0.0362497
0.106872
0.0618362
-0.132458
-0.0846935
0.107527
0.00896908
-0.0318027
-0.131128
0.0325502
0.0294817
0.0690959
0.0148254
-0.0621727
0.0375363
0.00981095
0.0602711
0.00927268
-0.0547184
-0.0441144
0.0100961
0.00240984
0.0316084
-0.0504177
-0.0411728
0.0654829
0.0261076
-0.0331899
0.0406811
-0.0136999
0.00620873
-0.0204589
-0.103545
0.0666271
0.0573769
-0.085711
0.0873932
-0.00168228
0.0286595
0.00269787
-0.0677526
0.0363953
-0.00525157
0.0306458
-0.0183623
-0.0070319
0.0268843
-0.0503976
0.0235133
0.000135545
2.90445e-05
-0.000136319
-2.82707e-05
0.00130714
-0.0588226
0.0575154
-0.0683652
0.0428577
0.0621364
-0.0366288
0.0901228
-0.0254237
-0.0128097
-0.0518895
-0.000566435
0.0713572
0.00111634
-0.0719071
-0.047496
0.0733751
0.0395503
-0.0654295
0.000567879
0.0010977
-0.000400512
-0.00126507
-0.0019782
-0.0036345
-2.27912e-05
0.00563549
-0.0383149
0.0840467
-0.0462329
0.000501024
0.000311793
-0.000663276
-0.000414528
0.000766011
-0.0553045
0.0543871
0.000917429
0.0752676
-0.00771769
-0.0187366
-0.0488132
-0.100761
0.0929846
0.00441648
0.00336026
-0.0547913
0.0273748
0.0109624
0.0164542
-0.00267051
-0.0148757
0.00752534
0.0100209
-0.0124616
0.0257471
0.0374251
-0.0507105
0.000739648
-0.000307421
-0.000120435
7.41835e-05
-0.000108099
0.000800624
-0.000766708
0.000247735
0.000101605
-0.000146125
-0.000203215
0.00413641
-0.00916234
0.00502193
4.00669e-06
0.0679094
0.00506344
-0.0172014
-0.0557715
-0.0149767
-0.00481417
0.0107987
0.00899221
-0.0409689
-0.0528813
-0.0547718
0.148622
0.00366067
-0.0356517
-0.00268135
0.0346723
-0.000224868
0.000428738
0.0002971
-0.000500969
0.00424174
0.0045033
-0.0278526
0.0191076
0.0189307
-0.0063897
-0.0096838
-0.00285724
0.0418967
-0.0765802
-0.0278472
0.0625307
-0.0293819
-0.00300189
0.0102412
0.0221426
0.0121793
0.00836528
0.0129885
-0.033533
-0.000232879
-0.000259555
9.08021e-05
0.000401632
0.02523
-0.00973276
0.0365654
-0.000229865
0.000183383
-0.000308506
0.000354987
0.0443489
-0.0330269
-0.0681335
0.0568115
0.000258357
-0.000168792
-8.95645e-05
-0.00113682
3.98043e-05
0.000544208
0.000552805
0.000562986
-0.000241911
0.000168749
-0.000489823
0.0225935
-0.0230847
-0.0622557
0.0627469
0.0010727
-0.0126902
0.00290753
0.00871001
0.0430078
0.0585939
0.0185156
-0.120117
-0.105343
0.0211074
0.120082
-0.035847
-0.00546952
-0.0450472
0.00373306
0.0467837
0.0556961
-0.0310672
0.0266553
-0.0512843
0.027727
-0.00312543
-0.15582
0.131219
0.00959658
0.0146612
-0.0286058
0.00434807
0.000686009
-0.000166567
-0.000766811
0.000247368
0.0381264
0.0123132
-0.00128948
-0.0491501
-0.00256074
0.085327
-0.0868423
0.00407607
-0.0180506
0.0494766
-0.116151
0.0847246
0.0427056
0.00540072
-0.0535758
0.0428256
-0.000119991
-0.00232944
-0.0295481
0.0421038
-0.0102263
0.0708827
0.0169854
-0.0315856
-0.0562824
0.133654
-0.148069
-0.0304284
0.0448434
-0.0152183
-0.0462337
0.0591225
-0.0824307
-0.000810841
0.0832415
0.00106687
-0.0978436
0.163124
-0.0663472
-0.00255024
0.00336562
-0.000614344
-0.000201035
0.0899272
-0.149294
0.030357
0.0290101
0.00155482
-0.00045987
0.000912635
-0.00200758
-0.087217
0.142862
-0.10422
0.0485753
0.031083
0.00263377
-0.0419939
0.00827706
0.0860456
-0.0147463
-0.0847563
0.0134569
0.00579851
0.0321537
-0.0531705
0.0212808
0.025026
-0.108177
0.0618703
0.0871099
0.113393
-0.079983
-0.12052
0.000336899
-0.000257102
-0.000101299
2.1502e-05
-0.0936089
-0.0284601
0.110593
0.0114758
0.0015462
-0.00574106
0.0159724
-0.0117775
-0.0141425
-0.0343811
0.0589551
-0.0104315
-0.00559957
0.0177833
-0.014828
0.00264421
0.000415781
-0.000681248
-0.000613352
0.00087882
0.0227655
-0.0266984
-0.00166668
-0.00186212
-0.000701905
0.00153303
0.001031
-0.0576457
0.0604563
-0.00281061
-0.00259772
-0.00643883
-0.00227865
0.0113152
-0.037177
0.0288232
-0.00578869
0.0183405
-0.0472367
-0.0557974
-0.0513002
0.0415507
0.0983363
-0.0885868
-0.00766005
-0.00184983
0.00522298
0.0042869
0.0467722
0.0111939
0.00209809
-0.0600642
0.000619155
-0.00968294
0.00722793
0.00183586
-0.0406797
-0.0545986
0.0115799
0.0836985
0.0647087
-0.0388776
0.0266255
-0.0524566
-0.00959798
0.0599047
-0.0589589
0.00865213
-0.059163
-0.0340978
0.00787758
0.0853832
0.0162629
0.00482929
-0.0329106
0.0118185
0.0648886
-0.063474
-0.00141454
0.0018814
0.00178288
-0.0015681
-0.00209617
0.0407652
-0.0443225
0.00355732
-0.0538933
-0.0405005
0.105059
-0.0106654
0.000824303
-0.00998445
0.00993389
-0.000773751
0.00267708
0.00584548
0.00282345
-0.011346
0.00161461
0.00694518
-0.00794064
-0.0247078
-0.0578134
-0.00911505
0.0916363
0.0255686
-0.00821339
0.0191065
-0.0364617
-0.0840042
0.0925689
-0.101283
0.0927181
0.0758115
-0.0489418
-0.0268697
0.00163871
-0.0346741
-0.0101406
0.043176
0.00801194
-0.00560539
-0.00966623
0.00725967
0.0461409
-0.0698518
-0.0618651
0.085576
0.0740262
-0.0647103
0.0293642
-0.0386801
-0.0135703
-0.0100457
0.034117
-0.010501
-0.0581677
-0.086759
0.0573002
0.0876265
-0.0416154
0.0543455
-0.0110914
0.0976984
-0.0482768
-0.0494216
-0.00488639
0.0156989
-0.00280055
0.000988587
0.000677163
-0.000703613
-0.000962137
0.0473397
-0.0157943
-0.00524905
-0.0262964
0.00358694
-0.00187106
-0.000428052
-0.00128782
0.00534662
-0.0101625
0.00869514
-0.00387926
0.0724377
-0.0427984
0.0262572
-0.0558965
0.00899426
-0.000521778
-0.00682437
-0.00164811
0.00164275
-0.000599163
-0.00104359
-0.0664463
0.0657912
0.000655095
0.0117777
0.00586866
-0.0965312
0.0788848
-0.012153
0.0144527
-0.0102626
0.00796286
-0.0734466
0.0168087
0.0834448
-0.0268069
0.0187873
-0.097962
0.0759032
0.00327155
-0.0526901
0.0429633
-0.00843757
0.0181644
0.00856791
-0.00183024
-0.00293271
-0.00380495
7.81268e-05
-0.00064016
0.000562033
0.0282656
0.17091
-0.245639
0.0464633
0.000233051
9.7056e-05
-0.024798
0.0600988
-0.0524395
0.0171387
2.71146e-05
0.0051418
-0.00444287
-0.000726044
-0.000207581
0.00112837
-0.0011627
-0.0707587
0.000564895
0.0701938
-0.0323859
0.113778
-0.0477401
-0.0336525
0.000547734
0.000471175
0.00944202
-0.0104609
0.00038776
0.0928615
-0.0932493
0.00239937
-0.00161591
-0.00123478
0.000451322
0.00136918
0.000697725
-0.000708736
-0.00135817
-0.0367006
-0.00163368
0.0325259
0.0187046
-0.0636921
-0.0723386
-0.0163902
0.00639784
0.0823309
-0.000623227
0.0019924
-0.101899
-0.0413378
0.112598
0.030638
0.0272452
0.170991
-0.0854088
-0.0578705
-0.0277113
-0.0183547
0.119326
-0.0435445
-0.0574263
0.0397234
0.0299328
0.0386249
-0.108281
0.104768
-0.249116
0.109571
0.0347767
0.00164011
-0.00145449
-0.00138097
0.00119535
-0.0123392
-0.0353184
0.0553552
-0.00769754
0.0267951
0.040693
-0.0269597
-0.0405284
-0.035358
-0.0257996
-0.0197653
0.080923
-0.05337
-0.013903
0.0549338
0.00123111
-0.0119426
0.0092406
0.00147087
0.0553731
-0.0284452
-0.0508468
0.0239189
-0.0897601
0.105634
-0.0503135
0.0344394
0.017032
-0.0234561
0.00674912
-0.000325082
0.0517902
-0.0600551
0.0636379
-0.0574592
-0.0035239
-0.0136273
0.0746104
-0.00527727
-0.013418
0.00260089
0.0160944
0.000425799
0.0595522
-0.0589421
-0.00103592
0.135403
-0.0538573
-0.00242412
-0.0791212
0.0606917
-0.00783258
-0.0495822
-0.00327701
0.049029
-0.0234561
-0.0636793
0.0381064
-0.0101088
-0.00163692
0.0151964
-0.00345067
0.00542698
-0.00171063
-0.00473961
0.00102325
0.00253621
-0.0442571
0.0409278
0.000793059
-0.000741703
-0.0863563
0.00344709
0.0197694
-0.0128462
-0.0631127
0.0464928
0.01662
-0.059556
-0.0170383
0.0109784
0.0656159
-0.102456
-0.000922289
0.105718
-0.00233893
0.00373238
0.024132
-0.0129485
-0.0149159
-0.0713314
0.149755
-0.0659892
-0.0124343
-0.00474891
0.0135457
0.0223317
-0.0311285
-0.0528502
0.101075
0.0396923
-0.0879172
0.0294458
0.00112317
-0.0141765
-0.0163925
-0.0365085
0.0382068
0.000837927
-0.00463764
0.00752383
-0.0102333
0.00734715
-0.00024029
-0.00456596
0.0101529
0.0360494
0.0377804
-0.0738298
0.0010748
-0.00189085
8.79406e-06
0.000807256
0.0204463
0.0083842
-0.0194788
-0.00935172
0.022658
0.00889618
-0.000758284
-0.0307959
-0.0528692
-0.00246005
0.00729326
0.048036
-0.000204451
-0.0440527
-0.000982624
0.000497665
0.00155975
-0.0518321
0.0372942
0.0518069
-0.037269
-0.0444649
0.0300529
0.0169562
-0.00254434
0.00141029
-0.00376623
-0.0099614
0.0123173
-0.0101005
-0.00508587
-0.00275523
0.0179415
-0.0437517
-0.00493307
0.0121763
0.0722332
0.0393865
-0.0719727
-0.039647
-0.0463011
-7.66446e-05
0.0463777
0.0861904
-0.0486827
0.0595925
0.00368436
-0.00765595
-0.0373229
0.0412945
0.035824
0.0113086
-0.00532501
-0.0418075
-0.000455789
0.000338935
0.00101708
-0.000900229
-0.0168767
-0.0448907
0.0617674
-0.000201829
-0.00139078
-0.00416087
0.0308868
-0.0230415
0.00618464
0.0279123
-0.0417529
0.0978856
-0.0907258
-0.00215448
-0.00500536
-0.0214162
0.101598
-0.0184829
-0.061699
-0.031629
0.00676232
0.0132496
0.0116171
-0.0390247
0.0358951
0.0136753
-0.0105457
0.0325689
-0.0251267
0.00134386
-0.00878606
0.0193682
0.0734913
-0.124479
0.0316198
0.0762941
-0.0752766
-0.0243121
0.0232946
-0.14321
0.00196513
0.00380156
0.137443
0.0304709
0.0123563
-0.0411109
-0.00171631
0.0400425
-0.0571633
0.0204348
-0.00331402
0.00216412
-0.001195
0.000220548
-0.00118967
-0.0146733
-0.00112025
0.0733993
-0.0416415
0.0188073
-0.0505651
-0.0120846
0.0477327
0.000348671
-0.0359968
0.00511625
0.0964351
-0.0935883
-0.00796312
0.0495335
-0.0989863
0.0579339
-0.00848115
-0.0483849
-0.000471871
0.0367721
0.0151201
-0.00324383
0.00868996
-0.0205662
-0.0234251
0.0477888
-0.0133069
-0.0110568
-0.0483019
-8.29065e-05
-0.00559123
-0.12287
0.175901
-0.0474396
0.0100588
0.00977596
-0.0633694
0.0435347
0.0493815
0.0054271
-0.0447498
-0.0132585
0.00693109
-0.00382161
0.010149
-0.0610322
0.000932674
0.0600995
0.110807
0.0441715
-0.136996
-0.017983
-0.00959412
0.000338426
-0.00400277
0.0184538
-0.116205
-0.0226697
0.120421
0.0126911
0.0660531
-0.0689683
0.00278448
-0.0556733
-0.0104806
0.000523067
0.00196055
-0.00268544
0.00207914
-0.00178761
0.000231543
-0.0509943
0.0262236
0.0741638
-0.0493931
-0.00193985
0.00102351
0.000956144
-0.0341064
-0.007729
0.0446198
0.000277503
-0.000256806
0.000357626
-0.000890482
0.000122857
0.000409999
0.000256346
0.00210029
-0.00182285
0.00146127
0.00014821
0.00021337
0.000255999
-4.03902e-05
0.000524039
0.107723
0.124641
-0.0816473
0.00021256
-0.000539589
0.000583029
-0.0528753
0.0527435
0.000131737
-0.0104595
0.0762209
-0.0720097
0.00624836
0.00162867
-0.0198089
0.00538333
0.0127969
-0.0603003
-0.0030345
-0.0172195
0.00402975
0.0472778
-0.034088
-0.0628128
-0.00365169
0.0664645
-0.00737832
-0.0164966
-0.0128103
0.0366852
0.000341916
-0.000393285
-0.00054668
0.000598049
-0.00388885
-0.00736419
0.00912778
0.00212525
0.0549853
0.0439048
-0.0175071
0.0483307
0.0897064
-0.0381518
-0.0998853
-0.0126368
-0.0441474
-0.018872
0.0186218
-0.0537174
0.0539676
-0.0112265
0.0283065
-0.0054965
-0.0115835
-0.01507
-0.0134981
0.0133784
0.0151897
0.096322
-0.0946103
0.0186569
-0.0203686
0.00131121
-0.00443496
-0.00053708
0.00366082
0.001214
-0.0676532
0.0664392
-0.0727654
0.00342256
0.0671103
0.00223252
0.0390036
0.038276
-0.0772796
0.0190869
-0.0599126
0.0281888
0.00191603
-0.00106903
0.000406859
-0.00125386
0.000282232
-8.13352e-05
0.00090078
-0.00110168
-9.14405e-05
0.000444123
-0.00103047
0.000677785
0.0643752
0.0567331
-0.0396798
-0.0814285
0.00583542
-0.087335
0.0826721
-0.00117257
-0.0138045
0.000731845
0.0264757
-0.0134031
0.0535918
-0.0527304
0.0191341
-0.0199955
-0.000555705
0.00138797
-0.000695481
-0.000136781
0.0201926
0.0478607
-0.0489663
-0.0468502
-0.00163434
0.00105747
0.00143467
-0.000857807
0.00153645
0.0817188
-0.0832552
-0.0498493
-0.0150026
-0.0222429
0.0870948
-0.0499344
8.50815e-05
0.0116063
0.01674
0.0166777
-0.0450239
0.000576477
-0.00269081
0.000489263
0.00162507
-0.00181834
-0.000413106
0.000597111
-0.106561
-0.00941067
-0.0434038
0.159375
-0.00980015
0.00738537
0.136806
-0.134391
-0.0385775
0.0418793
-0.0648753
0.0615735
-0.0808008
0.0803006
0.000500261
0.00120131
-0.0499447
-0.0304952
0.0669057
0.0193376
-0.00595261
-0.0802907
0.050594
0.0959368
-0.158906
0.0123749
0.0416355
0.0157237
0.033476
-0.0908352
0.103858
-0.10834
0.043486
-0.00374265
0.0135498
-0.0122506
0.00244341
-0.00117293
-0.000209114
-0.000487872
0.00186992
-0.0028941
-0.00567678
0.00174301
0.00682787
0.0609073
-0.00622785
-0.0184938
-0.0361857
-0.0567444
0.0282164
0.028528
-0.0930431
-0.00752319
0.0117674
0.000762209
-0.000572902
-0.00136224
-0.118223
0.0264979
0.00512371
0.0866011
0.00120276
-0.0531658
-0.0102938
0.0622568
0.0457949
0.028598
-0.102045
0.0276517
0.0385883
-0.0435742
-0.0191431
0.0241289
0.0485846
-0.0602608
0.0502646
0.0324492
-0.0569588
0.0496653
-0.0251557
0.0347171
-0.036038
0.000318505
0.00100238
0.0162222
-0.142329
0.0914526
0.0346541
0.00138409
-0.061763
-0.00392203
0.0520026
0.000433185
-0.107227
-0.0339761
-0.00863264
0.0068616
0.0357471
-0.0484904
0.0443992
0.0499853
-0.0458941
-0.0423223
0.0818187
-0.0394963
0.0105148
-0.102419
0.0483299
-0.0170759
0.00736919
0.024769
-0.0150623
-0.0876982
0.0933039
0.0360682
-0.0416739
0.0588064
0.0329505
-0.0829804
-0.00877655
-0.046311
0.142088
0.00423393
-0.100011
-0.000551122
0.0028529
0.00370663
-0.00600841
0.05377
-0.0721131
0.0830658
-0.0647226
0.00776002
-0.0390342
-0.00821505
0.0394893
-0.0435013
0.0315334
0.103409
-0.091441
-0.0499883
-0.0264425
0.0528774
0.0235535
-0.00954791
-0.000541006
0.00621669
0.00387222
-0.0114844
0.024612
-0.0182885
0.00516093
-0.000267586
0.0749326
-0.074665
0.0148655
-0.0438949
-0.0194609
0.0481192
-0.0343345
-0.000576388
-0.0132083
0.00221052
-0.0269272
-0.0217652
0.0464819
0.0344367
-0.03437
-6.67799e-05
0.0611726
-0.0417193
0.0643208
-0.0837741
-0.098856
0.0968122
0.0983658
-5.02676e-05
-0.0107504
-0.0017872
0.0125879
0.0493022
-0.0002807
0.00011395
0.000333045
-0.000166294
-0.000631534
0.049187
-0.113282
0.0647267
-0.00850453
-0.000742794
0.00502865
0.00421868
0.0268861
0.00996048
-0.0368466
0.00128623
-0.000905741
-0.00888502
-0.0293251
-0.0435765
0.0190082
0.0572403
0.000990175
-0.0582304
0.0728487
-0.0441362
-0.0511907
0.0224781
0.00173578
-0.0251091
-0.020741
0.0693856
0.0430344
-0.0395712
-0.00800414
0.0092401
0.133348
-0.119534
0.0378281
-0.0516425
-0.045017
0.0364879
0.0218848
-0.0133557
-0.052974
0.0524479
0.000526123
-0.047776
0.0296433
0.0106806
-0.0465914
-0.0108167
0.0467274
-0.00216216
0.161167
-0.161082
0.00207758
0.107659
0.0159359
-0.0160677
0.0507739
0.00859651
-0.0511875
-0.00818296
-0.014538
0.00474284
0.0107876
-0.000992501
-0.00952021
-0.00546908
0.00467779
0.0103115
0.0661385
-0.0377859
-0.0526541
0.0243014
0.0295741
-0.0152627
0.0241588
-0.0384702
0.0268165
-0.0938096
0.0897055
-0.0227124
-0.0060021
0.000523557
-0.00905943
-0.0943194
0.106853
-0.0228103
0.0102766
-0.0114776
0.0482111
0.0140409
-0.0507743
-0.00395086
-0.000861264
0.00317124
0.00164088
0.0838859
-0.00456102
0.0510751
-0.1304
2.52279e-05
-0.00065753
-5.9306e-05
0.000691608
-0.067169
0.0589382
0.0742565
-0.0660257
0.00300863
0.000584134
-0.00205473
-0.00153803
-0.0774499
0.0753272
0.00212272
0.0640068
-0.0604123
-0.00359448
0.0603234
-0.000764261
-0.0595591
-0.0111273
0.123469
-0.000399069
-0.111942
0.00984038
-0.0310294
0.0327953
-0.0237337
-8.96729e-05
-0.0562307
-0.0675311
0.0114929
0.066317
-0.0102788
-0.0133726
-0.00214973
1.87724e-05
-0.000329782
3.43009e-05
0.000276709
0.00121425
-0.000100354
-0.000231083
-0.000882811
-0.0634896
0.00807196
-0.00164589
0.0570635
0.000322421
-0.00551551
0.0020162
0.00317689
0.0123761
-0.014784
-0.000102053
0.00250994
0.00827911
-0.00671623
0.0108132
0.0554594
-0.0094508
-0.022534
-0.0234746
0.0362441
-0.00535502
-0.0364307
0.00554167
8.40102e-05
0.0667098
-0.000195313
-0.0665985
0.00758085
-0.0709412
0.0190854
0.0442749
-0.0428139
-0.0318375
0.0416555
0.0329959
-0.0364091
0.0226736
-0.0922026
0.105938
-0.00105993
0.0154269
-0.00786452
-0.0065025
0.0489704
-0.0587968
0.0473444
-0.037518
-0.0626868
-0.00685378
-0.00794636
0.00107658
-0.000427589
0.00442306
-0.00507205
-0.0123242
-0.00275214
0.00184734
0.013229
-0.0082947
-0.00949731
0.0109393
0.00685273
-0.000150313
-0.00222504
0.00146552
0.00090984
-0.000245965
0.000296402
-5.0437e-05
0.00118236
-0.0749909
-0.0279186
0.101727
-0.000150222
-1.10642e-06
-0.00146595
0.00161728
7.53303e-05
-0.000259479
-6.18155e-05
0.00376802
-0.0665808
-5.17295e-05
-5.98384e-05
0.000407969
0.000572998
0.000215472
-0.000351284
-0.000437186
-0.0281167
0.0628348
0.0787555
-0.113474
-0.00933792
-0.00215069
0.00732304
0.00416557
-0.0147113
-0.000403596
0.00577694
-0.00549999
0.00554358
0.0134576
-0.0135011
-0.000293486
0.00043929
-0.000197534
-0.0675824
0.0685495
-0.000967104
0.0301465
0.0474882
-0.0602112
-0.0174235
0.0119097
-0.0754967
-0.0215724
0.0851594
-0.0137368
0.00270146
0.00553533
-0.00450782
-0.00654145
-0.00268752
-0.016561
0.0591354
0.0127538
-0.0553282
0.0699495
0.0050209
-0.0548866
-0.0200838
0.000272101
0.000392385
-0.000639534
-2.49511e-05
-6.50557e-05
-0.0001531
-0.00265551
-0.00116078
-0.0014176
0.00523389
0.0650891
-0.0459272
0.0120504
-0.0312123
-0.000849675
-0.0026847
0.00138252
0.00215186
-0.0181297
0.0110122
-0.00244927
0.00956675
0.000830711
-0.101668
0.101772
-0.000935293
0.00321116
0.000854027
-0.0106962
0.00663105
0.0104877
-0.011059
0.00158331
-0.00101203
0.00987464
0.00415203
-0.0108155
0.0367746
0.0562727
-0.0279582
-0.0272772
0.0548041
0.0281922
-0.0557191
0.0277534
-0.0550306
-0.00107002
0.000739613
-0.0328595
0.0124709
-0.0100476
0.0792196
0.0232466
0.00741491
0.069642
-0.0541002
0.0976675
-0.113209
0.00470708
0.0924126
-0.0971196
-0.00699849
-0.00737242
0.0137221
0.000648859
-0.0339702
-0.0871294
0.0274536
0.093646
0.0218508
0.0613601
-0.0244279
-0.058783
-0.0235274
0.113234
-0.0529325
-0.041847
0.0448965
0.0517545
-0.0558453
0.0558034
4.19525e-05
-0.0391644
0.0366713
0.00249301
0.0397038
-0.0779415
0.0724148
-0.0341771
0.0682803
-0.0848412
-0.0101605
-0.00808429
0.0112463
0.000608313
0.00057855
-0.000414575
-0.000772288
-0.00583506
-0.0426519
-0.00735835
0.0012253
0.00149866
-0.0026573
-6.66487e-05
-0.0574117
0.0518781
0.0855315
-0.0799979
0.0374385
-0.0336254
-0.00381312
0.0118125
0.023384
-0.0147766
-0.0204198
0.00421926
-0.000363113
0.00215334
-0.00600949
-0.0644701
-0.000806076
0.0199362
0.0453399
-0.0029578
0.00663695
0.000540108
0.0389711
-0.109392
0.104743
-0.0343225
0.0460808
0.0133202
-0.05937
-3.1014e-05
-0.00363333
0.00695855
0.00174743
-0.00507265
0.000220976
0.0607287
-0.0609497
0.0384372
0.00698697
0.0152001
-0.0606243
0.00436989
-0.00732379
0.00259079
-0.186298
0.0287797
0.16501
-0.00749217
0.0398585
-0.0109505
-0.028908
-0.00124916
-0.00149447
-0.0011974
0.00394103
-0.042659
0.0470263
0.125842
-0.130209
-0.00194056
0.000686172
-0.00187741
0.0031318
0.0913674
-0.00203454
-0.043252
0.000520312
-0.00126975
0.00204053
-0.0012911
-0.0194869
-0.117425
0.0157366
0.121176
0.00370398
0.0525074
-0.00407465
-0.0521367
0.0483762
-0.0694822
0.060059
-0.0389529
0.0319119
-0.036546
0.0486859
-0.0440518
0.00828028
-0.00143085
0.00553089
-0.0123803
0.0012389
-0.0443306
0.0533107
-0.053672
-0.0361846
0.0968925
0.01762
-0.02406
-0.0904524
0.046373
0.0192795
-0.13244
0.0667881
-0.001972
-0.00858722
0.0062812
0.00427802
0.0277554
-0.0497944
-0.00324
0.0287624
-0.0265119
0.00737305
-0.00588364
-1.66573e-05
-0.00147275
-0.0867034
0.00261055
0.000814869
0.0693846
-0.147863
0.077664
-0.0282385
-0.087689
0.0405462
0.0753812
-0.0731397
0.020299
0.00332679
0.049514
-0.04304
0.0290071
0.0102476
-0.0825549
0.095598
-0.0130431
-0.0208284
-0.0094047
0.117614
-0.0873812
-0.00367615
-0.0037721
0.00612362
0.00132463
-0.0258019
0.0591832
0.040645
-0.0721675
0.0280313
-0.000830046
-0.00038781
-0.00103201
0.00224987
0.0464915
-0.0489159
0.0544269
-0.037474
-0.00720122
-0.044716
-0.123314
0.0476049
0.0757092
-0.0429202
-0.0325216
0.0276658
0.00302075
-0.00222298
0.000913162
-0.00171093
0.00298174
-0.000480967
0.000519971
-0.0864153
0.0036322
0.0827831
0.0609798
0.011787
-0.121241
0.0484744
-0.0714859
0.000750018
0.0707359
0.00124773
-0.00166927
0.00883022
-0.00840868
0.0488476
0.156562
-0.226551
0.0211411
0.00192716
-0.00231638
0.00132383
-0.000934608
-0.0916405
0.0649476
0.0265239
0.000168917
-0.000190755
-8.42098e-05
0.0017835
-0.00150853
-0.00066683
0.00833145
-0.00849328
0.000828665
0.00753715
0.00787811
-0.0147235
-0.00069175
0.0407069
0.0124149
0.00305393
-0.00279756
0.00167079
-0.0986327
0.105623
0.00669555
-0.0136854
0.0127237
-0.0682344
-0.0238793
0.07939
0.00181287
-0.0042005
0.0874002
-0.0850125
-0.035384
-0.033169
0.0804403
-0.0118873
-0.0407538
0.0245646
0.0405959
-0.0244067
0.0537237
0.0206535
-0.0721327
-0.0022445
-0.00108762
0.00017208
0.00130084
-0.000385302
-0.123517
-0.0432034
0.0398524
0.126868
0.0482344
-0.0375538
-0.0319289
-0.0377048
-0.0311159
0.10075
-0.00180515
0.00422942
0.000513435
-0.00293771
-0.0310643
-0.0808455
0.0289148
0.082995
-0.0296449
-0.028412
0.0205828
-0.000674946
-0.00335318
-0.00163792
0.00300324
-0.00381888
0.00245356
-0.00571489
0.00561506
0.0253312
-0.077509
-0.0856722
0.13785
-0.000469481
-8.8841e-05
0.000268747
0.000289575
0.0571514
-0.0601487
0.0479794
-0.0449821
-0.0149251
0.0452732
-0.00806116
-0.022287
0.0870118
-0.0864952
-0.0187427
0.0182261
0.026633
0.0219052
-0.0633957
0.0148576
-0.127438
0.0739476
0.0183944
0.035096
-0.00534949
0.00333262
0.000100575
0.0019163
-0.00845294
0.00989771
-0.000197035
-0.0134406
-0.00372204
0.0178779
-0.000715293
-0.0600072
-0.00382581
0.0127955
0.0510375
-0.00759646
0.10335
-0.00495223
-0.0908017
0.00875764
-0.0475976
0.0809986
-0.0421586
-0.00138272
0.00413636
-0.00141665
-0.00133699
-0.0152724
0.000299172
-0.00200202
0.0169752
-0.107244
0.00744695
0.0127823
0.0870152
-5.77162e-05
-0.000264889
0.000470072
-0.000147468
0.037182
0.00811298
0.0269382
-0.00513672
0.04637
0.0529457
-0.0941789
-0.000217229
0.000328574
-0.000169061
-0.000494101
0.00218617
-0.00150503
-0.00018704
0.0170917
0.111427
-0.0477794
-0.0807388
-0.000228339
-3.65497e-05
0.000105297
-0.000333636
0.0618598
0.0170921
-0.0923502
0.0133984
-0.15717
0.0860105
0.077211
-0.0060516
-0.0181713
0.000197573
-0.0515195
0.0694932
0.0248685
-0.01449
0.0167354
-0.0271139
-0.0664597
-0.0230863
0.089546
-0.0778605
0.0386608
0.0391997
-0.00165761
-0.000416893
0.000851433
0.00122307
-0.0380089
0.0411842
0.00779815
-0.0109735
0.0465195
-0.0545466
0.00802708
-0.0602685
0.0335443
0.0450341
-0.01831
0.00452778
-0.00289136
-0.00146633
-0.000170089
-0.00326853
-0.0024301
0.000349149
-0.042212
-0.0417922
0.0472854
0.0142303
0.00252222
-0.0640379
0.00154664
0.000134646
-0.00135378
-0.000327509
0.00397264
0.00631541
0.00204925
-0.0123373
0.0072144
0.023101
-0.0412898
0.0109743
-0.0190592
-0.0154484
-0.00913659
0.0436442
-0.0758511
-0.011801
0.0314462
0.0562059
-0.00186065
0.0152092
-0.00827594
-0.00507256
-0.0529688
0.000657129
0.0332525
-0.000225299
0.0253557
-0.135666
0.126387
-0.0160771
0.0285702
-0.034443
-0.0517729
-0.0271125
0.0548658
-0.000669922
0.0415342
0.00387455
-0.0447389
-0.0551208
-0.0599562
0.115077
-0.00326393
-0.00107851
-0.0017297
0.00607215
0.00314383
-0.00480615
0.00172934
-6.70179e-05
0.0371161
-0.00637436
-0.0282099
-0.00253186
-0.00325277
-0.00236623
0.00235506
0.00353134
-0.0107819
0.0659018
-0.0586513
0.0764092
-0.000413666
0.0270412
0.00984684
-0.00686816
-0.0300199
0.0584838
-0.00077419
-0.0577096
-0.052858
0.113819
-0.0284236
0.0596856
0.0200908
-0.0513527
-0.0173759
-0.0250696
0.0181408
0.0243048
0.0030659
0.00375574
0.000866497
-0.00768814
-0.034208
-0.0379634
0.0993311
-0.0271597
0.0458979
-0.0371029
-0.000770567
-0.00802446
-0.0473259
0.117518
-0.053473
-0.016719
-0.00127613
0.00153757
-5.23901e-05
-0.000209044
-0.00054539
0.0213427
-0.00483441
-0.0159629
0.00308759
0.00394444
0.000266055
-0.00729809
-0.000301718
-4.07483e-05
4.43208e-05
0.000298146
4.24087e-05
-2.83258e-05
-0.000315801
-0.00909878
0.0229601
0.0702306
-0.0840918
0.0814742
-0.08377
0.00229585
0.000281429
-0.000258333
-2.30957e-05
-0.0126808
0.000964113
0.00230739
-0.00130862
-0.00196288
-0.00716379
-0.00689023
0.00463071
0.00942332
-0.0557561
0.0273325
0.000317199
0.000190756
-0.000776739
0.000268784
0.0334804
0.0552276
-0.0352492
-0.0534588
0.0119105
0.159653
-0.180038
0.00847531
0.0582883
0.0632936
-0.0618963
0.0017726
-0.013612
-0.00194061
0.01378
-0.0333999
-0.0301153
0.0635152
0.0311226
-0.0645224
-0.0544624
-0.0451901
-0.0656982
0.165351
0.0495735
-0.0553659
0.00579239
-0.0729532
0.135187
-0.0716846
0.0329272
-0.0299362
0.0862043
-0.00340464
-0.0691379
-0.0136618
0.0693693
-0.0695393
0.0117773
-0.0116073
0.000153447
-0.00622777
0.00711072
-0.0010364
0.000230144
-0.00418866
0.00664746
-0.00268894
-0.000249874
0.000242942
0.000623319
-0.000616387
0.0221749
0.0235191
-0.0337792
-0.0119149
-0.00542234
-0.00483493
0.00617771
0.00407956
-0.0109
0.0319843
-0.0425644
0.0214801
0.00113168
-0.00853802
0.0106593
-0.003253
0.0484764
-0.00414456
-0.0443319
0.0380449
0.0357472
-0.126568
0.0527763
-0.0979025
0.0599818
0.0759657
0.0329845
-0.0997644
-0.0469306
0.10788
-0.0370649
-0.0238843
0.00161202
0.00926988
-0.0124687
0.00158675
0.0270027
-0.00224376
-0.0247589
-0.0305203
0.0435716
-0.00387876
0.0203439
-0.0315351
0.000910415
-0.000204918
0.00111244
-0.00181794
0.011736
-0.0382479
-0.000309126
0.000139352
0.000229007
-5.92327e-05
0.00278789
-0.000445551
0.00110871
-0.00345105
-0.000728159
-0.00262438
-0.0780153
-0.0128356
0.0016042
-0.0118696
0.023101
0.0202936
-0.0907781
0.0207397
0.0497449
-0.00340239
0.0582877
-0.0819637
0.0270784
0.000536822
-0.000309825
0.000166424
-0.000393421
0.0790496
0.0125615
0.00226109
-0.0938722
-0.000193206
-0.000708713
0.000865451
3.64679e-05
0.00502419
-0.000908102
-0.0689531
0.0648371
0.00695065
-0.00120959
-0.00512901
-0.00061205
0.00660804
0.00460002
-0.00372121
-0.00748686
-0.110352
0.0964552
-0.087618
0.101515
-0.0540479
0.108965
-0.0549172
0.00228202
-0.0438105
0.00858472
0.0329437
0.00373286
-0.00351832
0.00068984
-0.000904377
0.0492149
-0.0026108
0.00112861
-0.129709
0.00251767
0.0743338
-0.03459
0.000208903
0.0024761
0.0326719
-0.0275579
-0.00759011
0.0781847
-0.0307718
0.0342041
0.00428648
-0.00516992
0.00010525
0.00077819
0.0346365
0.0241758
-0.0765227
0.0177104
1.71683e-05
0.00011976
-0.00018279
4.5862e-05
-0.00046708
0.0016015
0.00547362
4.65247e-05
-0.00817298
0.00661505
0.00584442
0.0746267
0.0407455
-0.0370564
-0.0783157
-0.131012
0.142863
-0.0097259
-0.00212482
0.0315147
-0.0327963
0.00128155
-0.0372877
0.0003196
0.00042669
-0.00325785
-0.00233876
0.0146443
0.206794
-0.158934
-0.062504
0.0291804
-0.0608286
-0.0180248
0.049673
-0.00314627
0.0389618
-0.000866149
-0.0852722
0.0471765
-0.0231764
0.0100646
-0.0379413
0.0476368
0.0461772
-0.0558727
-0.0669871
0.0899642
-0.152708
0.129731
-0.000208063
6.41641e-05
-0.00144983
0.00159373
0.00020003
0.00228037
-0.000609262
-0.00187114
0.043154
-0.0143124
0.0381313
-0.0669728
-0.00355923
0.000364738
0.00342414
-0.000229648
-0.0118337
0.0106149
-0.0367225
0.0121965
-0.0461464
0.0059577
-0.00331479
0.0186618
-0.0213047
-0.139686
0.0195436
0.131185
-0.0110427
0.031655
-0.0220199
-0.0113575
0.00172243
0.0343482
-0.0529978
0.00681595
0.00427791
0.0077841
0.0525794
-0.0646414
0.0247403
-0.00719967
-0.0251493
0.00760871
-0.0797897
-0.00807677
0.0144198
0.00124178
-0.00110552
6.37729e-05
-0.000601048
0.00310853
0.00251843
-0.00502591
0.018368
-0.0321323
0.0385046
0.017973
-0.143339
-0.0230053
0.148371
-0.114327
-0.0148652
0.0267089
0.102483
0.0570303
-0.0341935
0.0278485
-0.0506854
0.113306
-0.00615421
0.00297093
-0.110122
-0.017035
-0.0370608
-0.00431082
-0.0165025
0.00844476
0.0123685
-0.00127394
0.000439556
-4.35029e-05
0.000877887
0.0155726
-0.078485
0.0629123
0.108536
-0.00700552
-0.112657
-0.0262903
0.0555527
-0.0462973
0.0392642
-0.12218
0.0153422
0.0675734
-0.00401275
-0.0121594
-0.0268864
0.0430586
0.00369202
0.0509842
0.0867368
-0.136328
-0.00139277
0.0492695
-0.0830018
0.0891366
-0.0554043
-0.0959472
0.096126
-0.0074968
0.00731805
0.00324488
0.00424423
-0.0957934
0.0883043
-0.00176802
0.00361284
0.00611598
-0.00796081
0.000247384
-0.000954154
-0.00029733
0.0010041
0.0891698
0.000453434
-0.0170171
-0.0726062
-0.000602195
0.000633289
1.02602e-05
-4.13543e-05
0.000623702
0.00321695
-0.00221463
-0.00162602
-0.00181097
-0.000670117