/*--------------------------------*- C++ -*----------------------------------*\
| =========                 |                                                 |
| \\      /  F ield         | OpenFOAM: The Open Source CFD Toolbox           |
|  \\    /   O peration     | Version:  2506                                  |
|   \\  /    A nd           | Website:  www.openfoam.com                      |
|    \\/     M anipulation  |                                                 |
\*---------------------------------------------------------------------------*/
FoamFile
{
    version     2.0;
    format      ascii;
    arch        "LSB;label=32;scalar=64";
    class       volVectorField;
    location    "0.0948794";
    object      U;
}
// * * * * * * * * * * * * * * * * * * * * * * * * * * * * * * * * * * * * * //

dimensions      [0 1 -1 0 0 0 0];

internalField   nonuniform List<vector> 
47425
(
(10.4285 0.250752 -0.0012675)
(10.2422 -0.311237 -0.0050664)
(9.97789 0.00844793 -0.00517526)
(11.6562 -0.535111 -0.25256)
(12.7808 0.408026 0.561237)
(10.0167 0.00333106 -0.000328869)
(12.705 0.236044 0.571814)
(10.004 0.00241383 -0.00151902)
(10.0045 0.00866436 0.00587626)
(0.334506 2.66886 -2.66149)
(9.97545 0.00606909 -0.00434402)
(9.99202 0.0733623 -0.00981246)
(12.493 0.380704 0.137475)
(9.98207 0.00672631 -0.00701626)
(11.2673 -0.107763 -0.169894)
(10.0611 -0.214481 0.0059214)
(10.0001 0.00320647 -0.00292586)
(8.79442 -0.523947 -1.53254)
(8.64357 1.29824 -5.15167)
(13.7178 -0.575041 -1.21594)
(10.9698 -0.68764 -0.634856)
(9.78899 -0.0377993 -0.0126869)
(9.96216 0.00705046 -0.00417972)
(9.93324 0.0286502 0.0191653)
(9.8984 -0.0809293 0.000111827)
(10.0231 0.0770398 0.0242018)
(10.0076 0.0097064 -0.00220562)
(11.4704 -0.476052 -8.93496)
(10.0149 0.00687869 -0.000216614)
(9.99893 0.0212506 0.00956445)
(9.65896 0.766559 0.0033158)
(10.045 0.0818504 -0.00272786)
(10.0012 0.00610504 0.00593494)
(9.98098 0.020092 0.00962543)
(10.017 0.00289457 0.0114299)
(9.97624 0.00650131 0.00342306)
(9.7166 -0.0383934 -0.0868273)
(10.0007 0.0165339 0.00818986)
(10.5514 0.478902 -0.032061)
(10.1973 0.084326 0.014972)
(9.91166 0.310162 -0.0369602)
(8.49311 -0.0781196 -0.0844834)
(5.48141 -2.44351 0.76353)
(9.98348 0.0131309 0.00531207)
(0.183657 -1.79495 -0.401126)
(9.98386 0.153441 -0.0186169)
(9.93502 -0.00140959 -0.012005)
(9.99527 0.0294068 0.00585399)
(10.1975 -0.121855 0.00144777)
(10.0711 -0.0259052 -0.011152)
(2.13619 -0.733572 -5.83307)
(9.08656 1.54231 1.20948)
(10.0536 -0.00526538 0.00722943)
(5.26759 -3.84322 0.781379)
(10.0591 0.0897402 -0.00125066)
(10.1943 0.0185978 -0.0044525)
(10.4062 -0.227646 0.0247543)
(9.99172 -0.00642437 0.0244778)
(11.8998 1.30245 1.48093)
(9.99396 0.0132226 0.00714941)
(4.43332 -3.76004 0.32884)
(5.47347 -0.827609 1.9014)
(1.53753 -1.3063 -0.411167)
(9.00311 -1.18456 -0.0974723)
(10.0074 0.0105883 -0.00679229)
(10.8391 -0.414795 -0.0479207)
(9.98628 -0.0108191 -0.00662134)
(11.0412 0.43839 0.694293)
(6.16545 -2.63292 1.3127)
(8.96049 0.577765 0.290959)
(10.8548 -0.732346 0.118534)
(10.0778 0.038107 -0.00679042)
(11.0586 -0.22113 -0.0501241)
(10.8439 0.336588 -0.658974)
(2.35179 0.556473 -0.473677)
(9.9989 -0.00384267 0.000917006)
(1.56717 -1.10385 0.100077)
(9.95852 -0.00612438 0.00536652)
(4.05648 -1.25878 0.84241)
(12.0526 -0.127306 1.32147)
(2.94533 0.303709 -0.420583)
(10.2165 0.350438 -1.7609e-05)
(9.1737 0.139665 -0.357639)
(10.0134 0.0132 -0.00676462)
(9.08395 -0.0228725 -0.115104)
(10.4159 -0.0704645 0.0180274)
(10.9789 -0.0704373 -0.05577)
(10.2739 0.175482 0.0120308)
(11.0202 -0.446554 -1.53997)
(11.0519 -0.787921 1.74476)
(9.76453 0.440011 -0.0516874)
(10.8134 -0.000299106 -0.0349771)
(10.0399 -0.00985645 -0.000208383)
(10.2342 -0.0564765 0.014414)
(10.1841 -0.0500718 0.0211869)
(10.1881 -0.0125767 -0.00206897)
(10.0391 0.00575264 -0.0043603)
(10.5769 -0.318859 -0.023607)
(10.3335 -0.0589541 0.00179899)
(10.0465 0.0173717 0.013185)
(10.0202 0.0382414 0.00360525)
(8.67799 0.163516 -4.14189)
(10.3046 0.185321 -0.0106951)
(5.30661 1.94629 -0.842013)
(10.3146 0.17099 -0.0231658)
(10.928 -0.725509 -0.0746731)
(10.2815 0.389657 0.0870309)
(10.3082 -0.0919024 -0.00548473)
(8.05685 -0.188135 -0.445605)
(9.96786 0.0908398 -0.00727865)
(-0.214941 -0.247813 -0.561987)
(9.99318 -0.0792419 -0.0082295)
(10.8045 -0.936062 -0.0912549)
(10.4676 -0.0185518 -0.0320441)
(11.1793 -0.396166 -0.00815043)
(1.77324 -4.13124 -5.94549)
(11.1679 -0.343669 -0.0129335)
(4.03965 0.0617603 -4.35189)
(10.3681 0.175565 0.00834816)
(11.3825 0.423477 0.34211)
(10.5558 -0.0557062 -0.0289102)
(10.0002 0.00381001 0.00565901)
(9.99693 0.0521767 -0.00501342)
(11.9202 0.822108 -0.823057)
(10.0386 -0.030475 -0.00167644)
(11.1335 -0.755307 -0.0491185)
(10.395 -0.103788 -0.00429342)
(10.0072 0.00364949 -0.00691885)
(9.98641 0.0198288 0.0100087)
(10.0294 0.0337709 0.00399405)
(9.19095 -0.284909 0.275416)
(10.865 0.220762 -0.0667842)
(4.32046 0.0653969 0.518971)
(10.4492 -0.580182 0.0238716)
(9.57328 0.349713 -0.304446)
(12.2292 -0.544593 -0.977363)
(10.8358 0.969981 0.229542)
(11.1606 -0.831462 0.0731237)
(10.1526 -0.0749456 -0.00606251)
(11.1977 -0.132635 -0.0735802)
(9.98151 0.00676111 0.00212878)
(11.7423 0.312807 0.249387)
(10.5224 0.0406388 -0.0253629)
(10.7869 -1.20905 -0.0462331)
(10.1511 0.234394 -0.0174209)
(10.0045 0.00532438 0.00559918)
(12.6635 0.343826 0.343886)
(10.0106 -0.0304098 0.00720845)
(10.4671 0.0215498 -0.0093146)
(9.97606 -0.0173612 0.00639585)
(10.6686 -1.19636 -0.199757)
(2.89108 -0.407604 -6.77428)
(10.0072 0.0150108 -0.00994964)
(5.49035 0.142877 -11.3007)
(8.93122 -1.17849 -0.773091)
(10.0087 0.131073 0.0220234)
(11.0426 0.535603 -1.73568)
(7.2736 -3.89622 -2.67347)
(10.2394 -0.0708091 0.0128494)
(9.9683 0.0110275 -0.0028019)
(11.4115 -0.187584 -0.030809)
(10.0356 0.10613 0.0224366)
(10.0415 0.0197995 -0.00360688)
(10.1671 0.322061 -0.0324641)
(11.7816 0.258878 -0.671206)
(-1.31811 -1.53526 -2.00961)
(10.0156 -0.0299614 -0.00197216)
(2.89322 0.410904 -0.480502)
(9.90583 -0.00554495 0.0177272)
(12.0424 0.801803 -4.36328)
(3.66518 0.223199 -0.697148)
(9.96325 -0.0061913 0.000209375)
(10.0009 0.0246537 -0.00339338)
(9.41791 -0.989653 -0.678822)
(10.415 -0.0291349 0.0166051)
(9.22607 -3.05924 -1.45592)
(2.74609 0.974935 -7.63947)
(10.0139 0.00930156 -0.00183748)
(10.0355 -0.00122972 0.00524831)
(10.0557 -0.00457222 0.00677704)
(2.59453 0.437953 -10.9421)
(10.1024 -0.212949 0.0404192)
(10.029 0.00143853 0.00305589)
(10.0344 0.00474304 0.0119508)
(10.0417 -0.00398487 0.00545594)
(10.0268 0.0237066 0.00531341)
(10.2156 0.0834017 0.00824014)
(5.63517 -0.530601 -0.665164)
(9.81207 0.00643637 -0.00467481)
(10.2661 0.239769 0.0978559)
(10.0006 -0.0101628 -0.00332876)
(9.97956 0.000290107 -0.000490124)
(12.1883 -0.881309 -0.577429)
(9.99692 0.00176866 0.00382415)
(10.0272 0.00110491 0.0132703)
(11.2707 0.0835148 -0.0691817)
(10.0016 0.00116411 0.00748668)
(10.0581 -0.0274481 0.0180975)
(11.4388 0.179453 -0.0764656)
(10.4724 -0.283896 0.0665668)
(9.99624 0.0130673 0.00296567)
(10.5569 -0.0542882 0.00354812)
(8.49442 0.538881 -0.454274)
(11.2811 -0.0851938 -0.0568499)
(10.3064 -1.48742 -1.02711)
(10.7092 -0.0117971 -0.0382021)
(10.0057 -0.0121627 0.00633295)
(11.2316 0.0174536 -0.0611933)
(9.99481 0.0862806 -0.0138798)
(10.0026 0.0128227 -0.00272473)
(10.4836 -0.175487 -0.00882833)
(11.2804 0.156427 -0.0132122)
(10.007 0.0239553 -0.000253394)
(9.97231 -0.0515143 0.0131231)
(10.834 -0.0516932 -0.00523479)
(11.3856 0.294979 -0.162253)
(10.8678 0.0410808 -0.0608811)
(11.3249 0.29608 1.52036)
(8.65265 -1.29358 -0.697507)
(9.94377 -0.0441781 0.0102114)
(11.8431 -0.504873 1.21927)
(11.3931 0.22502 0.1657)
(9.72282 -0.531039 -1.18917)
(10.9628 0.217971 -0.0406867)
(10.679 -0.00382394 -0.0214922)
(11.9672 -0.727258 1.12184)
(10.0295 -0.00871322 0.00503702)
(11.2957 0.322336 -0.0570447)
(11.6105 0.140534 -0.041757)
(12.0568 -0.276015 -0.33349)
(10.8571 0.0390942 -0.0556097)
(9.97834 0.0123084 -0.00282238)
(10.6877 -0.0670911 -0.00937691)
(10.0009 -0.00450303 -0.000520152)
(9.8023 -0.00793999 -0.00825261)
(9.98342 0.260076 0.00738688)
(11.8057 -0.123171 1.35499)
(9.96111 0.0229913 0.00341688)
(12.1607 -0.017637 1.19412)
(9.78955 0.000239852 -0.0366105)
(9.87979 -0.0127708 -0.0132096)
(10.0071 0.00951839 0.00698745)
(10.0933 -0.0378639 -0.00653928)
(11.6567 0.900631 0.069131)
(10.389 0.498688 -0.0108054)
(10.0077 -0.00302762 0.0119653)
(10.5115 -0.077467 -0.0219562)
(10.0108 -0.000452836 0.00278053)
(10.0005 -0.0317347 0.0170786)
(9.93909 0.000467559 -0.00634163)
(9.97561 0.127761 0.0358907)
(12.0662 -0.435342 1.33189)
(9.97432 0.0100988 0.00346911)
(10.0032 0.00425135 0.00562934)
(9.91556 0.0122924 0.00285351)
(10.0439 0.000638175 -0.00451983)
(9.85163 0.0663009 -0.0292696)
(9.74505 0.0184242 0.0133708)
(10.4861 -0.74752 0.125432)
(10.0098 -7.36183e-05 -0.00680047)
(9.74252 0.0235543 0.0114479)
(9.9988 0.026112 -0.000575072)
(10.202 0.0494313 -0.00927299)
(10.1088 0.0106884 0.0019783)
(12.1478 0.0578758 0.741509)
(10.7191 -0.313359 -0.149072)
(10.042 -0.000758559 0.000545148)
(12.2147 0.0927756 0.566553)
(10.0147 -0.00179295 0.00432168)
(10.1899 0.0961982 -0.00324511)
(10.1717 0.0498074 -0.00415246)
(12.2664 0.131388 0.989674)
(11.7006 0.101179 1.22714)
(10.2228 -0.160118 -0.0160943)
(12.1489 -0.165741 1.34693)
(10.0398 0.00299969 -0.00615516)
(12.216 -0.00806527 1.18324)
(6.55193 3.33324 2.10142)
(11.6899 -0.0217153 1.30129)
(5.9192 1.30486 -5.27853)
(3.89197 -3.9512 0.210628)
(10.3967 0.206565 0.00579654)
(2.70434 -3.52704 -0.516979)
(9.87841 -0.0101522 0.00982009)
(10.0143 -0.0114892 0.0219573)
(11.4102 -0.168417 -0.0190625)
(9.89963 -0.00698443 0.0131282)
(9.9252 0.008094 -0.00488717)
(9.87002 -0.293736 -0.0371009)
(11.1919 -0.439045 -0.175209)
(1.39059 1.72024 -3.70574)
(9.19786 0.842144 -0.0272903)
(10.0028 -0.00171528 -0.00226085)
(10.0181 -0.00321786 -0.012272)
(9.97932 0.00691734 -0.00207568)
(10.1553 0.38218 0.411749)
(11.5724 0.955785 0.232682)
(10.2115 -0.719805 0.0968881)
(9.98944 -0.131172 -0.00610671)
(12.041 -0.187345 -0.0446548)
(10.2398 0.171945 0.0488677)
(10.1073 0.0555673 0.00292236)
(9.95733 -0.0195641 0.00429678)
(10.0083 0.00202296 -0.00510032)
(9.75955 4.16188 -0.607539)
(5.3955 1.77928 -0.694677)
(1.49908 1.2145 -6.3975)
(10.0578 -0.0185102 0.00164909)
(10.1204 -0.0451912 0.0102557)
(10.045 -0.63594 -0.0712936)
(10.1798 -0.506765 -0.159732)
(1.25185 -0.835193 -5.83968)
(9.9638 0.0015732 -0.0095983)
(9.93519 0.00278383 -0.00858039)
(10.7005 2.03587 0.40475)
(10.3723 -0.154022 0.0226342)
(9.84495 0.0111871 -0.00758136)
(9.80576 0.0126758 -0.000721343)
(9.89354 0.000901361 0.000605241)
(12.0684 2.74553 -1.14752)
(11.2076 1.74883 0.329893)
(10.0746 0.194943 -0.00652398)
(10.0982 0.124617 -0.00828591)
(10.0302 -0.0135154 0.00728722)
(10.4084 -0.0393792 0.00164965)
(10.054 -0.00487372 0.00577075)
(10.0588 0.226945 -0.00598571)
(10.2216 0.0651461 0.0222371)
(10.0533 -0.0191829 -0.000276174)
(9.9799 -0.0174545 -0.00100868)
(11.6645 -0.052538 0.214383)
(8.18847 0.712 -0.582268)
(10.6259 -0.732832 -1.40476)
(10.0098 0.0126799 0.00143496)
(9.96551 -0.00727794 0.00729787)
(10.0569 -0.00242829 0.00108318)
(8.48854 1.01825 -0.619148)
(9.97951 0.105292 -0.00419827)
(10.0243 0.0226399 -0.0045958)
(10.0282 -0.0720996 0.000547356)
(10.0392 0.264519 -0.0468614)
(10.0351 0.290153 -0.0490743)
(10.2155 0.150692 0.0264664)
(9.94126 0.269346 -0.0396807)
(10.0486 -0.0163547 -0.00511719)
(10.0499 -0.00119179 0.00442242)
(9.98567 -0.0068371 0.0224877)
(9.66804 0.452009 -0.21425)
(9.94651 0.000468529 -0.00340831)
(9.93586 -0.00905733 0.00349125)
(10.0252 0.237728 -0.0367121)
(10.4342 -0.477564 -0.104655)
(10.0448 0.258945 -0.0242281)
(9.96809 0.205433 -0.0208959)
(10.0271 0.195761 -0.0265331)
(11.1581 -1.46244 -0.316067)
(9.94641 0.00518764 -0.0067163)
(9.20343 0.234997 0.0441733)
(9.98334 0.158206 -0.0105977)
(9.99502 0.023141 -0.0081566)
(9.51555 0.309434 1.90201)
(11.5513 0.210981 -0.466141)
(10.1688 -0.0537012 0.0082234)
(9.91932 0.00209649 -0.00242416)
(10.3754 -0.443507 -0.0042153)
(10.9482 0.35852 -0.149794)
(9.76298 0.00385249 -0.00710798)
(10.0109 -0.00641584 -0.00890382)
(9.9708 -0.132028 -0.00213903)
(10.2274 0.778845 -0.169949)
(9.80174 0.000888189 -0.00642246)
(-0.456384 -2.54096 -0.667157)
(10.8571 -0.105531 0.00879304)
(10.0172 1.01648 -0.150162)
(9.97937 -0.00183851 0.0074353)
(10.0133 0.897523 -0.12408)
(10.8713 0.61725 -0.0885746)
(10.0097 -0.000571812 0.00111067)
(10.0034 0.00581144 0.00451378)
(9.74783 -0.0345644 -0.068717)
(10.011 0.00333307 0.00487831)
(10.0355 0.910217 -0.176845)
(10.1411 -0.149183 0.0173754)
(10.005 0.0235466 0.00675863)
(10.0095 -0.0631035 -0.00323229)
(10.0013 0.0182541 0.00594802)
(9.95372 -0.0123724 0.00667101)
(10.227 0.181507 -0.00895519)
(10.0001 0.0062066 0.00822851)
(9.97091 0.0104542 0.0075962)
(10.5721 0.971139 -0.387011)
(10.349 1.17785 -0.444817)
(9.96643 -0.00818905 -0.00284279)
(10.5286 -0.562 0.00469297)
(9.97966 -0.00662997 0.00462451)
(10.4952 0.910231 -0.344179)
(9.95505 -0.0716566 -9.57925e-05)
(9.9876 6.25792e-05 -0.000934007)
(12.1991 0.766684 -0.416725)
(10.0591 0.00692719 -0.00856245)
(10.6578 0.125461 1.02988)
(10.083 -0.00810542 -0.00386424)
(9.1868 1.57043 -1.96544)
(9.9222 0.00585109 -0.00398393)
(10.7874 0.159849 0.000771402)
(9.92287 0.000574452 -0.0153794)
(10.0333 0.0085636 0.00640218)
(9.80348 0.00539066 -0.00261173)
(10.0466 0.000821997 -0.000728823)
(9.97339 -0.00445025 -0.0191223)
(10.3487 1.056 -0.350489)
(0.829269 -1.68542 0.558263)
(2.04963 -0.761544 -2.58553)
(10.124 0.110106 0.0114124)
(10.365 1.58194 -1.00382)
(10.79 0.798511 -0.368903)
(10.8962 0.755129 -0.35638)
(9.97372 -0.0110258 0.0118734)
(9.99529 0.00263602 0.00904515)
(9.95863 0.0277395 0.00919532)
(9.83216 0.00451345 0.00958884)
(9.93786 -0.0239924 -0.0023548)
(10.2635 -0.31494 0.01422)
(10.9162 0.695379 -0.248411)
(9.9401 -0.0136963 0.000841652)
(10.0467 0.00750117 0.00433668)
(11.7082 -1.01367 -0.0466311)
(11.6738 0.573248 -0.282101)
(11.29 0.651995 -0.224891)
(8.04314 -1.3347 -5.20498)
(-0.00873596 3.10765 0.445217)
(10.8263 -0.313082 -0.0183406)
(7.38679 -0.982762 -5.74146)
(-0.0626578 2.98929 0.605513)
(9.91771 -0.313001 -0.049456)
(-0.12783 2.98578 0.579421)
(9.40286 -0.244336 0.81438)
(9.99398 -0.0873053 0.0209637)
(11.1621 0.708853 -0.392428)
(11.1013 0.767501 -0.419214)
(11.4154 0.67065 -0.388582)
(-0.79718 2.11526 0.85152)
(10.3619 0.157815 0.00205737)
(10.0286 0.06633 0.00650031)
(10.0131 -0.0319988 -0.00246913)
(11.487 0.706909 -0.508739)
(11.3487 0.749772 -0.570602)
(10.1753 0.0297529 0.0282153)
(10.2288 0.163389 0.0443968)
(9.23555 2.76705 1.41383)
(-0.660863 2.16954 0.85014)
(13.0155 -0.57633 -3.23972)
(10.0062 -0.0143462 0.00832644)
(8.81873 -0.757379 -3.37012)
(10.6373 0.749646 1.21793)
(10.024 -0.119757 0.0141668)
(11.0546 0.543257 -0.090749)
(12.2866 0.270722 0.158601)
(11.0306 0.454445 -0.0802376)
(9.99452 -0.0180476 0.0049201)
(9.99847 -0.00476496 0.00706549)
(9.98288 -0.00662778 0.000749848)
(10.4649 0.450881 -0.023512)
(9.9991 0.00199401 -0.000402452)
(9.96997 -0.0120165 0.00878866)
(10.1462 0.0778428 -0.00883499)
(9.93342 0.00661953 -0.0132616)
(11.2456 0.33155 -0.104004)
(10.0032 -0.0410505 -0.0120555)
(9.96226 0.0124871 -0.00427663)
(9.99584 -0.0196231 0.00208225)
(10.0053 -0.0071781 0.00900499)
(9.96315 -0.00363893 0.00431012)
(10.382 0.360126 -0.0154515)
(10.0882 0.0484702 -0.00683197)
(10.1715 0.0241857 0.0401923)
(11.1487 0.331341 -0.0917088)
(7.85316 2.96077 1.04979)
(9.97233 -0.00657271 -0.00168627)
(12.0633 1.57584 -1.64203)
(9.99695 -0.00834553 -0.00259713)
(11.0762 0.104371 -0.0388499)
(7.89404 -0.171838 2.23407)
(9.75168 1.49077 -0.686966)
(10.0269 0.057242 0.00778262)
(9.81827 1.57592 -0.765531)
(10.0078 0.0255087 0.00712333)
(10.0315 -0.0158825 -0.0101982)
(10.088 1.36181 -0.99168)
(10.0007 -0.00581323 0.026585)
(10.8909 -0.263501 0.00269706)
(9.9519 1.25399 -0.708416)
(10.4153 -0.0958324 0.0110079)
(10.6407 0.0875548 -0.289569)
(8.235 0.39281 -4.19384)
(10.1383 -0.0684988 0.014143)
(9.57568 1.95659 -0.721021)
(10.0496 -0.0222607 -0.00518772)
(9.00623 2.08112 -1.1422)
(10.2238 -0.203601 0.0463435)
(10.0228 -0.00588656 0.00658871)
(9.92681 0.0314968 0.0267393)
(9.98668 0.00661875 -0.0128477)
(10.6409 1.1379 0.831644)
(9.95581 0.00346196 -0.0212379)
(9.99161 0.00415962 -0.0136002)
(9.99549 -0.0463623 0.00986233)
(9.85049 0.205109 -0.0150135)
(11.1211 0.803137 -0.0561483)
(10.0104 0.00307843 0.00320231)
(9.98897 -0.000289199 -0.000837102)
(8.62511 0.337466 -0.660342)
(10.023 -0.00251921 -0.0102747)
(9.76354 0.19633 -0.132427)
(10.1607 -0.261967 0.0656747)
(10.1066 0.0612165 -0.00638985)
(10.0373 -0.00670754 -0.000196556)
(9.94701 0.00653026 0.0088795)
(10.0871 0.0304852 -0.0155808)
(10.3777 1.40211 -1.15502)
(10.0032 0.00998964 0.00677884)
(9.98894 0.0044976 0.00292416)
(3.01509 -0.627239 -5.8671)
(9.96029 -0.00972991 0.0136189)
(9.97666 -0.0129853 0.00693302)
(9.96932 0.13622 -0.00982952)
(10.0037 0.0113003 0.00694769)
(12.616 1.52712 -1.07917)
(12.7338 1.24921 -0.873123)
(9.95948 -0.0080848 -0.00218388)
(9.83785 -0.166025 -0.0578358)
(9.91846 0.051504 0.0297291)
(11.8805 0.186342 1.18938)
(10.0499 0.0604473 0.00142989)
(12.7832 1.28987 -0.908378)
(9.99928 0.00591595 -0.00301909)
(-1.92648 -0.260458 1.08399)
(8.14614 -0.524331 -0.764566)
(9.11213 -0.869662 1.74608)
(9.99847 0.00333979 0.0192612)
(12.7072 1.24834 -0.859683)
(10.0665 -0.0059841 0.00506916)
(10.2859 0.144682 0.038055)
(9.96335 0.00115716 -0.0108376)
(8.8802 0.259184 -0.168284)
(10.0514 -0.00497802 0.00158892)
(10.0148 0.0354776 -0.000317887)
(5.6803 -1.4992 -1.06782)
(9.98105 0.00149271 0.00199856)
(9.91 0.0034649 0.00421014)
(10.0308 0.003869 0.0212486)
(12.475 1.69915 -0.96675)
(10.0837 0.0391858 0.000702938)
(9.98841 -0.0147072 0.0113685)
(12.3316 1.59295 -0.983238)
(12.2918 1.13549 -0.489169)
(9.95929 -0.0123254 0.0131967)
(10.0674 -0.0098814 -0.00280413)
(-0.118611 1.68489 0.347614)
(10.0388 0.00164299 -0.00744965)
(10.9051 -0.430949 0.0733534)
(10.0191 -0.00176495 -0.00773151)
(10.0305 0.00717044 0.0144056)
(10.0578 -0.0276839 -0.00294805)
(11.9156 1.23307 -0.510532)
(11.7321 0.341277 1.37056)
(9.17151 0.740527 0.742214)
(9.46899 0.185031 -0.0371268)
(10.1136 -0.134493 0.0253117)
(10.0416 0.00379792 0.00365524)
(12.4975 -0.610287 -0.518454)
(9.30578 0.241581 -0.476684)
(9.71082 0.074281 -0.219566)
(-0.0457353 1.6089 0.236185)
(9.98457 0.00802004 -0.00219801)
(10.0476 -0.0102152 -0.0115632)
(-0.201913 1.52079 0.318279)
(12.1103 1.71128 -1.36576)
(9.91072 0.0944689 -0.0185825)
(0.00519312 1.68633 0.25175)
(0.00967603 1.70102 0.324434)
(10.0197 0.00131483 -0.00171915)
(9.99731 0.0152194 0.00148036)
(10.0236 -0.00784157 -0.00392872)
(9.60006 -0.3341 -0.0162297)
(9.9973 0.00321495 -0.00732786)
(9.94892 -0.0144497 0.0027831)
(9.63564 -0.529466 -0.602297)
(10.0684 0.28519 -0.00253141)
(9.94348 0.00335275 0.0061615)
(10.0253 0.0203308 -0.00488746)
(12.4928 1.58455 -0.500634)
(11.8168 1.48777 -0.507864)
(9.9692 0.00999848 -0.000617841)
(10.5253 0.389725 -0.0371286)
(-2.89721 -1.90848 -0.0175031)
(-2.35948 -3.05071 1.44917)
(10.9606 0.450616 -0.133084)
(9.93193 -0.0104974 0.00206571)
(10.3833 -0.267411 0.286974)
(11.0531 -0.0991217 -0.816882)
(9.86523 -0.0109404 0.00283979)
(9.86291 -0.0140151 0.011123)
(10.0512 -0.0392822 -0.00456632)
(10.3206 0.155089 0.0169931)
(9.97954 -0.0131184 0.00688822)
(11.0884 0.369227 0.304891)
(9.99938 0.00347777 0.000291916)
(13.2056 0.844722 -0.8162)
(10.3449 1.58579 -1.25649)
(10.8214 0.437869 -0.0904775)
(13.216 1.02379 -1.15686)
(10.0607 0.0390878 0.00540593)
(10.0068 -0.00694524 0.0148825)
(10.3416 0.8058 0.131915)
(10.1477 -0.092769 0.0314051)
(10.0214 -0.00829401 0.0131884)
(10.0039 0.00729668 -0.00318837)
(11.3115 0.271334 -0.638344)
(7.92575 -0.783364 -1.53377)
(10.0171 -0.00389927 -0.00802683)
(11.1287 0.121764 -0.0410878)
(9.98249 0.43023 -0.081443)
(10.7671 -5.19361 -2.76238)
(10.3783 -0.901385 0.851377)
(12.137 0.0512486 0.883214)
(6.61644 0.0220329 0.216579)
(6.38684 0.00678391 0.0598053)
(10.0555 0.00591138 0.00804451)
(10.1954 0.387967 -0.137591)
(4.28518 -0.0757692 -0.187565)
(9.94909 0.00800678 -0.00386239)
(10.001 -1.7619 -3.63347)
(7.99611 -0.454614 0.960996)
(9.98436 0.00159822 -0.00219275)
(9.97398 0.386239 0.184823)
(10.0219 0.00947827 -0.0112803)
(10.0388 0.00731088 0.0143934)
(10.0167 0.00213324 -0.000686502)
(13.3798 0.695761 -0.33951)
(9.97643 0.0099853 -0.00397181)
(9.98472 0.00401795 -0.00153132)
(10.0632 -0.0415293 -0.0116709)
(9.79227 0.00369203 -0.00763508)
(10.0819 -0.0204862 0.0200257)
(9.95916 0.00804431 -0.00823836)
(10.0581 0.025152 -0.00103346)
(9.80541 -0.0903631 0.00857277)
(10.9186 1.22886 0.688919)
(8.88779 -1.18826 -2.12386)
(12.0306 3.81621 2.09301)
(10.7797 0.623595 0.0156026)
(9.55398 1.50492 1.25719)
(9.96918 -0.00723131 0.00321531)
(9.25175 -0.997549 0.0613932)
(9.97239 0.0123265 -0.00149978)
(10.0005 0.00259931 -0.010878)
(10.0031 0.00382838 -0.00835303)
(9.99986 0.0012243 -0.00767579)
(9.98417 0.0173723 -0.00622042)
(9.20133 0.456261 -0.928428)
(11.0329 0.812172 0.201642)
(9.98663 0.0133436 -0.00552425)
(10.233 -0.587133 0.0704191)
(11.0926 1.68009 2.01317)
(9.96013 -0.00645406 -0.000909745)
(1.1136 0.711243 0.0103346)
(13.2874 -1.02625 -3.21031)
(9.94397 -0.0184904 0.00450448)
(9.32002 -0.546849 0.00115373)
(10.4831 0.0266138 0.0244087)
(10.0415 -0.00500343 -0.0059065)
(1.89316 1.21561 0.211884)
(9.98646 -0.0187378 -2.64703e-06)
(4.52023 -1.08588 -0.59673)
(9.96633 -0.00911679 0.00281658)
(12.1318 0.0261509 1.07288)
(12.2748 0.452679 -0.127547)
(9.94781 -0.0258846 0.00599741)
(9.8953 -0.00171653 -0.00202255)
(10.2021 0.649793 0.0460431)
(8.6507 -0.624168 -2.35871)
(9.92179 0.0132659 -6.66659e-05)
(10.0396 -0.0213026 0.00264481)
(10.4682 -0.0115953 -0.0242895)
(12.7689 -0.0455726 0.386022)
(10.0007 0.00353654 0.0019076)
(12.5392 0.373346 0.12456)
(10.6046 -0.0103298 -0.034609)
(-0.349994 0.14798 -0.985594)
(12.2318 0.371925 -0.0152859)
(10.5373 -0.0186953 -0.0295258)
(12.3785 0.371687 0.0777263)
(10.0006 -0.00334168 -0.00363435)
(10.1464 -0.200994 0.0133205)
(10.5333 0.456652 0.0186798)
(10.5937 -0.0516885 -0.0384516)
(12.5385 0.455662 -0.0550972)
(9.99916 -0.0223777 -1.08707e-05)
(10.0519 -0.2489 -0.023263)
(12.393 0.443776 -0.0745204)
(9.95334 -0.0248723 0.00310435)
(10.6283 -0.0475289 -0.0349131)
(9.98106 -0.0158678 -0.00616934)
(10.0635 -0.020446 0.0176778)
(6.87243 0.436188 -5.19881)
(6.6989 -0.0736078 -5.79022)
(9.67799 0.0772625 0.343019)
(8.83473 0.458572 -4.26098)
(9.99363 -0.0126378 -0.00552922)
(9.94543 -0.018148 -0.00941811)
(10.8863 0.687533 -0.289114)
(10.6345 -0.180427 -0.00365538)
(8.17016 0.0906018 1.57425)
(10.011 -0.0106621 -0.00603948)
(10.1185 0.0797779 -0.00258014)
(9.9929 -0.00214344 -0.00241767)
(10.0344 0.112403 0.0283984)
(5.28178 0.27694 -6.43198)
(3.89084 -1.74584 1.63702)
(9.98383 -0.00517429 -0.00266432)
(10.0175 0.0394622 -0.00673468)
(10.0519 -0.115699 0.00966151)
(9.85105 -0.100272 0.00703941)
(10.3292 -0.190777 0.0494606)
(9.96685 -0.0054201 -0.00294941)
(11.4212 0.0666091 -0.0630367)
(11.6753 -1.10973 0.797811)
(10.2236 0.0388087 0.0341459)
(10.0438 0.000195923 0.00642026)
(9.99179 -0.00162998 -0.000198041)
(9.99753 0.0989776 0.0178159)
(9.69636 0.192489 0.0260705)
(9.99809 0.00186986 -0.00495827)
(10.8933 -0.125776 -0.0475306)
(9.95875 0.00777133 0.00275361)
(10.0237 0.0320295 -0.00154702)
(10.1314 0.110972 0.0289475)
(9.25922 -0.875076 -1.32211)
(5.1445 0.747059 -4.85162)
(10.0675 -0.108336 0.011155)
(-0.136081 -1.64757 0.185671)
(9.71736 -2.34029 0.46184)
(13.2875 -1.20209 -1.26331)
(-0.13474 -1.60045 0.157374)
(10.5697 0.0477492 -0.0245817)
(6.28907 -0.29587 2.08991)
(10.6132 -0.512897 -2.68163)
(10.8429 -1.7259 0.326548)
(5.65855 0.348022 -3.85252)
(-0.114993 1.58706 0.549161)
(1.49363 0.639798 -3.64096)
(11.9982 -0.106589 0.639728)
(10.8944 -0.00728922 -0.0529912)
(11.8277 0.183368 0.847494)
(9.92486 0.00469281 -0.004915)
(3.71293 -0.340347 -0.384959)
(10.8486 0.0786768 -0.362038)
(10.7945 -0.0163775 -0.0330231)
(9.95488 -0.0737371 0.0654625)
(9.99721 0.00590904 -0.0124858)
(11.9406 0.190333 1.18071)
(9.882 0.165509 0.0144707)
(10.253 -0.0506021 0.0177526)
(9.98304 0.0270778 0.00361891)
(-0.358228 1.00178 0.0895915)
(8.08545 0.349144 -2.56747)
(10.0146 -0.00762353 0.008565)
(9.98443 -0.00482053 0.00442843)
(5.024 0.331705 -2.48097)
(5.90838 0.186859 -3.14877)
(10.4739 -1.69597 -0.951579)
(-1.57678 -2.35477 -1.25575)
(5.74091 0.120421 1.68239)
(4.04881 0.0539219 -3.95305)
(3.76779 0.000420552 -4.80402)
(10.0055 -0.00402428 0.0102677)
(9.81381 0.00383119 7.87144e-06)
(9.46927 -0.0272823 0.0222197)
(10.0238 -0.0162786 -0.00309669)
(10.4149 0.0437563 -0.00931624)
(-0.213215 1.64885 0.328995)
(10.9975 -0.0161054 -0.276108)
(10.4702 0.0356733 -0.0089656)
(10.332 0.0325721 -0.00411664)
(10.0519 -0.00699277 0.00674566)
(-0.199678 1.45256 0.706699)
(-0.37723 1.4815 0.694496)
(10.0608 0.00963654 -0.00626206)
(10.4107 -0.002141 -0.020132)
(9.93057 0.0405131 -0.0028785)
(10.0522 -0.0283205 -0.00242549)
(10.3582 0.0127976 -0.00549787)
(10.0503 -0.0274695 -0.00813313)
(9.67042 -0.0130022 -0.0691523)
(10.0004 0.00262099 -0.0137708)
(9.97496 -0.030874 -0.00283417)
(6.98012 -0.766431 -3.22244)
(10.0469 -0.00350815 0.00382744)
(10.0574 -0.00633409 -0.00126664)
(10.0045 0.00123236 -0.00632595)
(9.83719 0.00579633 -0.009804)
(9.85595 0.00521304 0.000342083)
(4.25158 -0.62255 -2.52383)
(12.6645 -1.25166 -0.915217)
(10.0465 -0.00561713 -0.000407721)
(10.8739 0.469436 -0.217545)
(10.0165 0.0321975 -0.00116262)
(9.67215 -0.323087 0.0944523)
(9.62576 -0.40722 0.148222)
(12.4526 -0.0453909 -0.0900262)
(9.83117 0.00449581 -0.00498318)
(-0.497953 -1.06059 0.822151)
(12.5477 -0.204383 -0.190797)
(10.5104 0.163731 -0.0182079)
(10.8628 0.45063 -0.0769246)
(8.0793 0.384826 -3.50324)
(10.1441 3.13742 1.69446)
(9.98941 0.0113069 0.00541208)
(9.9863 0.0121377 0.000229402)
(11.3789 1.72353 2.1446)
(10.0079 -0.113639 -0.0105067)
(9.99924 0.0340958 0.00532525)
(10.7503 0.791551 0.335328)
(9.96961 0.00888346 -0.000255183)
(9.98352 -0.0028395 0.00164189)
(-2.57093 0.856864 1.2222)
(12.5215 0.959828 -0.3397)
(10.0652 3.63271 -0.532728)
(10.0019 0.000772475 0.00491973)
(7.70955 0.646272 -2.7191)
(10.0136 0.00290282 0.0137532)
(12.1236 0.338416 -0.272645)
(9.47484 -0.384915 0.235638)
(12.5399 -0.0863304 -0.108292)
(9.93994 0.00531655 -0.000726967)
(9.28492 -0.412712 0.188611)
(-0.956904 -0.71044 0.588122)
(11.3429 1.84683 2.63576)
(12.6461 -0.469877 -0.964048)
(-1.12117 0.913422 0.453561)
(12.5302 0.353078 0.119417)
(10.7545 0.170219 -0.00964178)
(9.96054 0.0108375 0.00491882)
(12.2512 -0.476007 -0.278682)
(10.0022 0.00278933 0.00652559)
(12.7159 -0.0942331 -0.126374)
(-0.04378 -1.43337 0.536286)
(10.0034 0.00352039 0.00555243)
(12.8458 0.157177 -1.45915)
(9.91413 -0.00688516 -0.00425986)
(9.91277 -0.0187265 -0.00176817)
(10.9465 -1.18983 -0.811547)
(9.9622 -0.0183273 -0.0100224)
(10.4069 0.135311 -0.0151056)
(7.95153 -5.73933 -0.0712212)
(9.5131 0.45079 0.0230682)
(10.0295 -0.24591 -0.0191216)
(12.8789 -0.576983 -0.16977)
(10.7391 1.64276 0.866029)
(10.0733 -0.0333714 0.00807362)
(11.6735 -2.71951 -1.17775)
(5.25371 -0.89553 -0.231377)
(10.8099 0.0483478 -0.0126331)
(9.61412 -0.727136 -0.919918)
(10.1023 0.165557 0.0434257)
(10.7279 0.270055 -0.00176644)
(10.0196 -0.0185659 -0.0115608)
(10.0761 -0.0259458 0.0103489)
(-1.4594 1.09788 0.296383)
(0.636816 -4.21135 1.92408)
(11.9494 -0.888789 0.270804)
(9.95678 -1.1036 -0.93275)
(12.4058 -0.481909 -0.493685)
(0.722622 4.74633 0.401975)
(-1.71566 -0.256661 -1.3179)
(9.02637 -3.59014 4.18308)
(10.0863 -0.0199417 0.0158388)
(10.0024 0.0123597 -0.0103603)
(9.98844 0.0131937 -0.00444366)
(9.8925 -0.0241659 0.0063531)
(0.151795 1.3561 0.553897)
(9.59558 -0.53213 0.165352)
(8.92947 -0.642059 0.995452)
(9.98676 0.0206738 -0.0101012)
(-0.237253 -1.38646 0.0469047)
(12.6281 -0.0675942 -0.193765)
(10.9853 -0.190928 -0.213383)
(10.2443 0.0443403 0.00798932)
(10.0369 -0.0191881 -0.0134489)
(10.2536 0.0444051 0.0175838)
(6.19617 -1.86927 -3.3243)
(10.0048 -0.00298294 -0.00705876)
(2.56291 3.38527 -1.38131)
(10.0217 0.00339608 0.000681072)
(10.3389 -0.647116 -3.16113)
(9.98817 -0.00372316 -0.00297843)
(9.99887 -0.00628482 -0.00620237)
(10.0091 -0.0100493 -0.00746737)
(10.0141 -0.00999523 -0.0111672)
(9.98808 -0.0118512 0.00334026)
(12.5104 1.68716 0.677743)
(11.4865 0.362452 0.672155)
(8.86559 1.48289 2.31302)
(6.86028 4.01433 2.27876)
(9.29583 1.23449 0.39797)
(10.4316 0.594321 -0.106622)
(11.1216 1.3633 -0.0215143)
(6.63456 -0.451165 -2.9893)
(10.8009 -0.145917 0.00181515)
(12.0649 -0.47724 0.0915004)
(10.8857 -0.712086 -0.0869896)
(12.4291 0.0916915 -0.0656976)
(8.39931 -0.249834 4.38744)
(6.17637 -1.05141 2.28893)
(10.8379 -0.423332 0.174302)
(9.99934 -0.00946189 0.00495798)
(9.55532 0.978054 -0.375597)
(10.0041 -0.00553727 0.00980873)
(10.3451 -0.0225319 -0.0119822)
(12.4712 -2.41613 3.18919)
(12.5418 -0.389395 0.646862)
(-0.754031 3.49533 -0.528679)
(10.1059 -0.973554 0.188272)
(11.9447 -1.02067 -0.678408)
(10.5419 -1.06646 -1.22248)
(10.1734 -0.417749 0.862161)
(10.3884 -0.051125 -0.00196039)
(-3.44462 -2.11886 0.791025)
(10.1855 -0.0141552 0.00630683)
(10.2669 -0.0204496 -0.0025079)
(11.2986 -0.152497 1.42104)
(9.80264 -0.128679 4.62033)
(10.4252 -0.054779 0.00254345)
(10.3035 0.579877 -0.449373)
(9.97048 -0.00168204 0.00239983)
(10.4784 -1.4672 0.557606)
(11.6145 -0.177328 1.46179)
(9.94778 -0.0339066 0.00867398)
(11.1613 -0.44355 -3.1535)
(9.46744 2.09473 -1.7905)
(11.7792 0.462863 1.25239)
(11.1261 0.214903 -0.213828)
(9.48414 0.107348 0.257185)
(3.09928 0.963689 -3.83808)
(0.212644 3.24761 2.7231)
(5.20123 3.19055 0.602104)
(13.3103 -0.862799 -3.0489)
(3.82598 -0.715386 -0.376769)
(9.74391 -0.008006 0.00624408)
(9.89048 -0.0474531 -0.000478993)
(8.20684 1.7264 2.61332)
(9.93705 -0.00718908 0.00584792)
(4.52365 -0.828889 -0.309564)
(9.8047 -0.0102174 0.00193845)
(9.77382 -0.0122572 0.00237659)
(-0.126905 -2.08479 1.10379)
(9.46653 -1.32868 0.815483)
(10.9012 -0.68425 0.0840522)
(9.97094 -0.000382702 0.00599969)
(10.0016 0.0184649 -7.63898e-05)
(8.33322 0.430507 -2.88647)