/*--------------------------------*- C++ -*----------------------------------*\
| =========                 |                                                 |
| \\      /  F ield         | OpenFOAM: The Open Source CFD Toolbox           |
|  \\    /   O peration     | Version:  2506                                  |
|   \\  /    A nd           | Website:  www.openfoam.com                      |
|    \\/     M anipulation  |                                                 |
\*---------------------------------------------------------------------------*/
FoamFile
{
    version     2.0;
    format      ascii;
    arch        "LSB;label=32;scalar=64";
    class       volScalarField;
    location    "0.0626374";
    object      k;
}
// * * * * * * * * * * * * * * * * * * * * * * * * * * * * * * * * * * * * * //

dimensions      [0 2 -2 0 0 0 0];

internalField   nonuniform List<scalar> 
47425
(
0.301884
0.335786
0.313438
0.318844
0.470572
0.319816
0.426811
0.325699
0.366887
1.30352
0.333902
0.325683
0.36465
0.314246
0.308481
0.332238
0.310958
0.343098
1.10338
0.535543
0.320847
0.309771
0.323186
0.315493
0.309792
0.303105
0.301708
0.844802
0.299709
0.304471
0.316977
0.320769
0.356128
0.303321
0.301438
0.319505
0.309549
0.36334
0.309803
0.318025
0.361422
0.482001
0.940244
0.378401
1.56883
0.348628
0.331069
0.350678
0.306739
0.30287
0.795164
0.619031
0.301654
0.825642
0.368777
0.364657
0.303606
0.302999
0.423565
0.311945
0.866809
0.855282
0.906298
0.327287
0.364462
0.308668
0.341345
0.364519
0.790646
0.318616
0.308068
0.297529
0.303024
0.31397
0.917633
0.368709
0.929948
0.311984
0.832712
0.528775
0.927606
0.314894
0.31336
0.348637
0.316176
0.318403
0.299817
0.299539
0.529038
0.610661
0.313495
0.339812
0.306344
0.368549
0.380444
0.365285
0.305538
0.301918
0.310863
0.355322
0.335033
0.434066
0.313177
0.456888
0.306156
0.370521
0.305938
0.319639
0.387228
0.316726
1.22323
0.323464
0.427174
0.351437
0.331023
0.830279
0.326336
0.641409
0.337186
0.332515
0.3206
0.362699
0.343338
0.347482
0.349229
0.393525
0.323441
0.364887
0.353048
0.306842
0.314913
0.328201
0.504501
0.348285
0.471605
0.34788
0.31563
0.399349
0.311224
0.310515
0.354041
0.367084
0.333119
0.459343
0.330379
0.366223
0.438922
0.340154
0.361452
0.361599
0.462662
0.802092
0.360299
0.809999
0.334977
0.324892
0.346231
0.938742
0.351979
0.328648
0.335954
0.303712
0.301285
0.314253
0.75288
0.858725
0.338479
0.929908
0.336929
0.891534
1.00999
0.350253
0.35385
0.323083
0.348221
0.380724
0.856153
0.298844
0.301986
0.30622
0.85734
0.298489
0.29896
0.305451
0.304407
0.337129
0.310678
0.422967
0.352261
0.299256
0.357976
0.303547
0.427308
0.365297
0.30675
0.316801
0.360532
0.324583
0.330008
0.293913
0.333734
0.364702
0.347521
0.319061
0.337008
0.376694
0.298727
0.314545
0.348671
0.361899
0.303496
0.306159
0.352158
0.313603
0.307946
0.308188
0.305339
0.588241
0.340626
0.354506
0.540886
0.288899
0.583891
0.304063
0.398669
0.520808
0.30613
0.323277
0.355425
0.388109
0.30636
0.317318
0.343302
0.36937
0.368025
0.322551
0.570073
0.335711
0.532488
0.366943
0.337025
0.297576
0.303516
0.311807
0.307882
0.362569
0.309675
0.357566
0.302778
0.309884
0.306197
0.50791
0.312212
0.365695
0.316303
0.304335
0.31084
0.362919
0.308837
0.357615
0.379628
0.352215
0.314712
0.361895
0.374935
0.349871
0.305863
0.372335
0.303462
0.3268
0.318865
0.518994
0.568985
0.304578
0.508854
0.373914
0.510478
0.458379
0.55412
0.549579
0.924931
0.29959
0.904929
0.364772
0.316085
0.307077
0.353406
0.322622
0.363206
0.344705
0.78213
0.323929
0.371308
0.303944
0.309633
0.326887
0.326152
0.306209
0.318887
0.365729
0.333998
0.301243
0.328453
0.304796
0.880309
0.861217
0.810874
0.304997
0.301535
0.30881
0.324413
0.806761
0.321921
0.330747
0.582094
0.342944
0.344116
0.370429
0.318771
0.651959
0.556129
0.314039
0.310987
0.299072
0.337885
0.30314
0.314922
0.302492
0.301712
0.305347
0.304137
0.912838
0.330139
0.308449
0.383808
0.305191
0.86908
0.319584
0.300845
0.307209
0.315174
0.315412
0.30189
0.31146
0.298215
0.30548
0.305137
0.311832
0.310241
0.338852
0.316743
0.30747
0.322002
0.313228
0.317158
0.342567
0.324718
0.312355
0.31419
0.360276
0.354055
0.340991
0.32557
0.321491
0.304792
0.323517
0.36731
0.358447
0.326535
0.314205
0.361268
1.09481
0.305249
0.317991
0.385664
0.316095
0.425952
0.358968
0.364437
0.309555
0.357611
0.315255
0.303468
0.355249
0.347128
0.364514
0.323133
0.310479
0.349738
0.320386
0.317417
0.320398
0.327576
0.306153
0.309216
0.315406
0.321035
0.320183
0.398361
0.301999
0.652672
0.303087
0.903057
0.330796
0.365549
0.3543
0.304604
0.350239
0.301779
0.334872
0.317232
0.601761
0.866082
0.302359
0.337013
0.311265
0.310594
0.319364
0.314748
0.308314
0.358316
0.324008
0.303758
0.3126
0.319147
0.302242
0.446252
0.308094
0.315759
0.499535
0.530816
0.311093
0.630106
0.551835
0.355231
0.535846
0.757755
0.304693
0.30895
0.310257
0.308277
0.762701
0.331808
0.301032
0.305623
0.313679
0.314463
0.323144
0.306434
0.705059
0.745817
0.510707
0.356383
0.400822
0.488836
0.306773
0.313915
0.35293
0.313075
0.355183
0.363124
0.377802
0.31274
0.369613
0.313312
0.307702
0.336324
0.317395
0.315435
0.31259
0.348597
0.35767
0.36929
0.335705
0.31228
0.347507
0.313642
0.76288
0.361558
0.398273
0.344993
0.349246
0.815475
0.333847
0.304056
0.33667
0.350192
0.327888
0.3332
0.346904
0.300282
0.327501
0.301671
0.325662
0.450129
0.300728
0.350355
0.319793
0.362432
0.302482
0.304035
0.304805
0.311427
0.314976
0.331188
0.31098
0.302859
0.306183
0.325034
0.324752
0.33745
0.330977
0.304023
0.313107
0.294566
0.300469
0.311094
0.334184
0.315727
0.336149
0.363306
0.375393
0.771022
0.317027
0.309953
0.33294
0.365735
0.455963
0.458829
0.33734
0.306842
0.343034
0.4345
0.320708
0.466296
0.362382
0.929428
0.347596
0.348794
0.305122
0.458295
0.306905
0.310039
0.318163
0.323818
0.302824
0.297729
1.03989
0.306757
0.358462
0.306719
0.439035
0.299128
0.30496
0.419683
0.408572
0.317826
0.303328
0.283664
0.301496
0.315857
0.301133
0.302681
0.302956
0.379843
0.451985
0.320926
0.309346
0.319174
0.306067
0.52798
0.313989
0.316079
0.219393
0.31517
0.305006
0.308318
0.757756
0.314996
0.211085
0.230747
0.301714
0.347018
0.299882
0.309191
0.362909
0.341399
0.883763
0.312999
0.343466
0.30236
0.458657
0.375084
0.369513
0.320344
0.778959
2.40177
0.308971
0.325752
0.338105
0.318617
0.363693
0.375347
0.321383
0.328643
0.378947
0.294861
0.359312
0.473475
0.343023
0.309576
0.479525
0.340233
0.311547
0.325583
0.339354
0.303213
0.361921
0.370042
0.360424
0.343516
0.310207
0.306852
1.00104
0.319879
0.395186
0.846801
0.808207
0.306506
0.355611
0.743434
0.349361
0.422859
0.787037
0.376793
0.799071
0.304681
0.303002
0.354857
0.516761
0.381508
0.375569
0.300187
0.370342
0.307784
0.319271
0.301673
0.343237
0.320895
0.778931
0.708173
0.340679
0.340664
0.345392
0.319215
0.375021
0.351696
0.352419
0.360589
0.34276
0.323506
0.341872
0.354507
0.305246
0.39025
0.361639
0.875654
0.567291
0.341192
0.314032
0.360138
0.304229
0.87817
0.313166
1.03567
0.352138
0.441775
0.342113
0.324198
0.32515
0.298995
0.359061
0.311879
0.298743
0.391863
0.392344
0.368557
0.388681
0.355649
1.06437
0.34249
0.374279
0.368644
0.363677
0.304363
0.353768
0.326085
0.387006
0.341499
0.321819
0.355957
0.321434
0.332196
0.313195
0.309648
0.482897
0.558657
0.306924
0.445826
0.307498
0.326589
0.309068
0.30339
0.620569
0.297337
0.315513
0.316097
0.302954
0.676522
1.07175
0.31902
0.334425
0.304886
0.341692
0.299064
0.326778
0.327729
0.545137
0.327028
0.305121
0.319989
0.306678
0.315128
0.31118
0.300854
0.316382
0.30518
0.301127
0.33146
0.550007
0.303381
0.244253
0.615465
0.564378
0.261273
0.332082
0.957167
0.36178
0.33651
0.506603
0.27026
0.826096
0.337993
0.30442
0.467795
0.337155
0.563884
0.318249
0.345539
0.304726
0.309522
0.429677
0.347532
0.322084
0.341544
0.452271
0.379227
0.34836
0.37843
0.491753
0.469222
0.628328
0.874524
0.914577
0.620274
0.650809
0.3631
0.359313
0.309839
0.304027
0.342062
0.316175
0.329767
0.337716
0.349106
0.306972
0.322786
0.347443
0.305943
0.381328
0.327255
0.304989
0.365419
0.305533
0.310548
0.310894
0.345067
0.429759
0.306361
0.30507
0.306841
0.356868
0.348743
0.524637
0.440468
0.30282
0.343014
0.298985
0.307041
0.308714
0.345665
0.355286
0.476204
0.313953
0.307916
0.310229
0.400967
0.903676
0.321223
0.32124
0.402982
0.345139
0.342999
0.341875
0.329938
0.3768
1.76489
0.441448
0.870045
0.366857
0.398839
0.301558
0.397832
0.310327
0.333325
0.338797
0.312249
1.33004
0.437246
0.363348
0.490263
0.363945
0.298399
0.32704
0.404304
0.311139
0.345451
0.228446
0.308095
0.391531
0.369686
0.390363
0.717174
0.371636
0.364914
0.498188
0.310028
0.309501
0.441198
0.539385
0.329727
0.41221
0.452438
0.329502
0.320826
0.306041
0.329385
0.351956
0.350134
3.19019
0.674337
0.371066
0.544111
0.521703
1.33901
2.35019
0.515435
0.360691
0.360764
0.373542
0.367511
1.67738
0.309006
0.33326
0.372767
0.292643
0.331812
0.361323
0.356371
0.302976
0.382186
0.476092
0.363484
1.06477
0.303177
0.384891
0.376583
0.365703
0.357271
0.349874
0.374811
0.453539
0.351617
0.371097
0.469918
0.328866
0.31175
0.339459
0.422676
0.305284
0.412785
0.370427
0.364693
0.649099
1.03067
0.303829
0.3635
0.321779
0.361891
0.360069
0.673399
0.547628
1.5141
0.310457
0.368905
0.328698
0.952413
0.314844
1.65888
0.400176
0.380662
0.501162
0.591387
0.321601
0.307006
0.312467
0.324519
0.471715
0.322824
0.403172
1.02613
0.395331
0.304003
0.306583
0.688421
0.962664
0.512272
0.549368
0.942555
0.399531
0.353795
0.396909
0.312329
0.477987
0.369236
0.385291
1.13148
0.329082
0.304691
0.309345
0.357148
0.391401
0.371214
0.330195
0.319277
0.463327
0.308677
0.327256
0.305175
0.352845
0.364077
0.380326
0.346696
0.334512
0.315618
0.378939
0.309152
0.313216
0.324133
0.320193
0.378067
0.462341
0.339889
0.370128
0.308789
1.79314
0.379354
0.364117
0.333331
0.950092
0.665724
1.06547
0.349692
0.338381
0.335258
0.731119
0.389701
0.340869
0.377816
0.355091
0.359171
0.882512
0.363357
0.317371
0.360915
0.35776
0.30091
0.586185
1.01559
0.311868
0.998963
0.340542
0.664059
0.577809
0.308525
0.344595
0.371181
0.619078
0.338285
0.340402
0.336389
0.753319
0.501634
0.617982
0.315778
0.326537
0.304912
0.31607
1.24625
1.2688
0.344298
0.365795
0.385883
0.753518
0.311763
0.300575
1.66874
1.18526
0.355827
0.317588
0.888707
1.34835
0.983782
0.368841
0.710259
1.13355
0.795612
0.322042
0.447899
0.443224
0.329691
0.34185
1.27462
1.36097
0.3605
0.370209
0.345574
0.319277
0.341747
0.328276
0.487908
0.329526
0.366939
0.307483
0.365651
1.02561
0.987046
0.319934
0.575854
0.437492
0.318191
0.519759
0.300006
0.336966
0.311143
0.339244
0.386281
0.304948
0.765177
0.310366
0.866993
0.641286
0.838409
0.402802
0.416441
0.337042
0.353977
0.321428
0.552069
1.11807
0.352438
0.951408
0.517811
0.794793
0.474347
0.899133
0.700092
0.32677
0.320839
0.943722
0.33696
0.316543
0.314087
0.737958
0.711842
0.314091
0.334399
0.634642
0.410668
0.970713
0.800859
0.352116
0.460441
1.03903
0.34581
0.3271
0.822698
0.31569
0.79952
0.823999
0.313236
0.306753
0.32296
0.305382
0.370024
0.312632
0.314678
0.361659
0.371725
0.475371
0.342172
0.323095
0.505911
1.1124
0.816649
0.353149
0.34154
0.552012
0.3184
0.99144
0.336872
0.345023
0.359028
1.61354
0.34297
1.94888
0.384909
0.508242
0.342448
0.772275
0.631843
0.676076
0.42768
0.548232
0.374699
0.363526
0.392712
0.588656
0.421559
0.460818
0.803465
0.388159
0.457757
0.918649
0.350401
0.310419
0.738465
1.83046
0.337064
0.335738
0.359338
0.379488
1.18754
0.975859
0.303756
0.322245
0.359142
0.78031
0.35594
0.593239
0.376834
0.346896
0.352576
0.475498
0.359147
0.615675
0.618278
0.345949
0.379835
0.438293
0.325233
0.916036
2.07213
0.337881
0.864839
0.849129
0.376772
0.805801
0.360613
0.366403
1.04499
0.368034
0.969861
2.29078
0.326332
0.372389
0.432522
0.365346
0.353205
0.394176
0.501056
0.406102
0.325695
0.39376
0.328914
0.834415
0.398041
0.354559
0.371678
0.553494
0.311892
0.840627
0.733809
0.361824
0.827884
1.14826
0.306641
0.471167
0.535681
0.35682
0.343516
0.518455
0.731456
0.501143
0.828071
0.313003
0.770133
0.453973
0.301669
0.38346
0.365901
0.494988
0.338635
0.388888
0.606915
0.30164
0.580407
0.356301
1.39735
0.378611
0.300153
0.368197
0.529676
0.36177
0.674986
0.440795
0.325055
0.742981
0.309129
0.334241
1.17297
0.302546
0.374774
0.718192
0.339932
0.740865
1.34358
0.365696
0.403706
0.307785
0.903885
0.618646
0.870734
0.79569
0.413567
0.341315
0.426125
0.947176
0.969313
0.85725
0.352405
0.357552
0.352831
0.31976
0.377247
0.726446
0.348702
0.33174
0.342048
0.304578
0.325564
0.354546
0.320511
0.349046
0.361434
0.431091
0.310186
0.361073
0.570855
0.324275
0.307781
0.372993
0.351447
0.359413
0.304466
0.337709
0.334944
0.32044
0.375977
0.651987
0.339582
0.323627
0.309326
0.306226
0.527609
0.314673
0.314302
0.656018
1.14943
0.721021
0.320022
0.635696
0.471831
0.339039
0.597164
0.425651
0.57594
0.357997
0.318109
0.347259
0.390977
0.311615
0.364349
0.37667
0.360401
0.314654
0.313732
0.359075
0.510341
0.349542
0.414431
0.849352
0.34666
0.671395
0.400227
0.878614
0.301146
0.360508
0.351037
0.304021
0.320915
0.366074
0.304942
1.60193
0.57506
0.827729
0.371591
0.983988
0.306723
0.331333
0.521848
0.31246
0.801518
0.420741
0.626816
0.314279
0.975538
0.954471
0.314871
0.30317
1.07701
0.322487
0.921091
0.320241
0.360471
0.313361
0.309032
0.313123
0.3292
0.335176
0.625994
0.396615
0.386532
0.337428
0.32797
0.304982
0.357161
1.5069
0.361525
1.82663
0.561197
0.311671
0.37207
0.331521
0.327778
0.325822
0.35729
0.344698
0.362906
0.331385
0.297794
0.346984
0.357865
1.24766
1.50324
0.348068
0.353783
1.4779
0.339383
0.305606
0.306214
0.3043
0.344909
0.37227
0.400064
0.37809
0.332853
0.308292
0.397814
0.301404
0.295668
0.320759
0.732712
0.389093
0.837316
0.762517
0.828766
0.321895
0.309777
0.30081
0.302787
0.305632
0.642883
0.326687
0.302123
0.325206
0.354701
0.308746
0.470256
0.305402
0.372177
0.450741
0.334367
0.305941
0.311909
0.332907
0.33369
0.310692
0.340015
0.322371
0.502448
0.321952
0.350214
0.392721
0.321026
0.324657
0.308344
0.331928
0.312277
0.364104
0.388613
0.304974
0.299207
0.315078
0.319516
0.310051
0.354902
0.304228
0.308793
0.305264
0.322598
0.837838
0.319164
0.42332
0.299564
0.306366
0.72132
0.320693
0.3592
0.30216
0.312851
0.348043
0.36674
0.754849
0.372364
1.68201
0.305275
0.312739
0.354708
0.305831
0.303162
0.380199
0.333241
0.302077
0.303366
0.896937
0.430111
0.669956
0.362693
0.552293
0.367431
0.304839
0.38749
1.07056
0.356019
0.313538
0.314
0.793315
0.308889
0.318886
0.334034
0.330316
0.334318
0.789212
0.311937
0.327727
0.347531
0.328532
0.364922
0.911466
0.810776
0.312151
0.307111
0.305878
0.363799
0.341319
0.301833
0.802211
0.992457
0.307093
0.348864
0.807066
0.316179
0.713886
0.451554
0.303775
0.30949
0.310003
0.316755
0.607248
0.334132
0.330453
0.324307
0.363987
0.320093
0.361543
0.587772
0.362926
0.490382
0.502246
0.472146
0.58155
0.353354
0.38772
0.396355
0.379196
0.339656
0.324836
0.826614
0.587362
0.377901
0.36082
0.360546
0.350288
0.336697
0.320005
0.305419
0.302912
0.35707
0.349944
0.497574
0.420553
0.879526
0.713363
0.335233
0.377893
0.317117
0.318977
0.365124
0.305517
0.326107
0.304888
0.305065
0.304438
0.289773
0.30497
0.330726
0.642427
1.0122
0.347554
0.302976
0.467188
0.500776
0.840019
0.322924
0.797244
1.72942
0.76286
0.860206
0.399771
0.304993
0.301786
0.360614
0.870108
0.301803
0.372716
0.338754
0.305028
0.663588
0.606712
0.583133
0.329806
1.33386
0.302514
0.3109
0.341243
0.342175
0.722034
0.796994
0.351436
0.439477
0.322022
0.372332
0.314566
0.913656
0.353678
0.877495
0.371905
0.870466
0.353323
0.490717
0.511927
0.549773
0.380212
0.382699
0.622818
0.352566
0.353959
0.400512
0.383806
0.360719
0.341409
1.27754
0.641943
0.331876
0.599459
0.766903
0.58955
0.315712
0.309671
0.80773
0.680675
0.789951
0.311687
1.07696
0.312041
0.865705
0.669302
0.615164
0.689008
0.304529
0.362634
0.308847
0.329351
0.328015
0.516211
0.422007
0.305912
0.304476
0.358886
0.327617
0.303712
0.305413
0.464002
0.305373
0.299961
0.335148
0.355784
0.429264
0.333471
0.367456
0.366657
0.31225
0.45596
0.441698
0.312947
0.3146
0.48473
0.608975
0.325848
1.59148
0.350701
0.427629
0.77521
0.39529
0.326231
0.305038
0.500835
0.325277
0.299642
0.371515
0.321428
0.310719
0.325838
0.309866
0.311037
0.318681
0.333408
0.318092
0.362659
0.688318
0.316805
0.323512
0.31951
0.328293
0.420145
0.940005
0.329174
0.311656
0.331005
0.575286
0.34468
0.336287
0.331393
0.857698
0.349553
0.3821
0.366713
0.403078
0.338999
0.353077
0.329962
0.51912
0.372375
0.358019
0.988854
0.327973
0.392593
0.34833
0.342884
0.353637
0.390918
0.323387
0.336727
0.310078
0.351532
0.325979
0.348406
2.04246
0.312506
0.41621
0.37601
0.344187
0.672172
0.361712
0.510373
0.363326
0.575386
0.650149
0.337131
0.30998
0.394116
0.388604
0.342675
0.311046
0.796899
0.459816
0.375117
1.51105
0.527249
0.31801
0.504877
0.519474
1.28575
0.814005
0.392597
0.529592
0.423588
0.564582
0.478548
0.889576
0.284822
0.474318
0.322841
0.61728
0.366321
0.397998
0.365602
0.358096
0.342022
0.375389
0.608742
0.329917
0.363966
0.40903
0.502156
0.776009
0.417879
0.74692
0.352242
1.05565
0.373329
0.374644
0.840523
0.555771
0.713725
0.665231
0.649048
0.554558
0.348281
0.335018
0.330617
0.385042
0.364351
0.780345
0.356484
0.368335
0.315358
0.48557
0.356825
0.311706
0.868317
0.469209
0.512697
0.229244
0.405804
0.339377
0.353653
0.354951
0.385049
0.318759
0.297635
0.341825
0.398298
0.220166
0.208925
0.542472
0.355009
0.380663
0.419358
0.45723
0.374341
0.358651
0.357231
0.183019
0.366517
0.400429
0.211052
0.370231
0.831925
0.594583
0.340752
1.14284
0.387729
0.476132
1.8852
0.391353
0.374188
0.315391
0.640003
0.306514
0.307637
0.356839
0.368138
0.385177
0.338059
0.557869
0.355904
0.478377
0.316936
0.377357
0.363144
0.302582
1.26752
0.538405
1.03749
0.498567
0.303745
0.91838
0.48928
0.307645
2.63296
0.309415
0.305103
0.47348
0.468927
0.979593
0.759684
0.348659
0.689394
1.74576
0.345908
0.61162
0.988694
0.583615
1.56171
0.379045
0.331482
0.593052
0.664458
0.386882
0.961029
0.358784
0.332715
0.522644
0.358787
0.314175
0.369856
0.778481
0.730357
0.300116
0.515156
0.315943
0.37975
0.33944
0.376697
0.584977
0.428017
0.770724
0.3514
0.360679
0.746459
0.307142
0.319378
0.451478
0.310681
0.348511
1.088
0.335759
0.905128
0.819653
0.839333
0.792924
0.376378
0.392603
0.30246
0.300987
0.41807
0.308971
0.31733
0.391902
0.317576
0.409032
0.92425
0.308845
0.522437
0.31489
0.4693
0.364364
0.861479
0.358901
0.459906
0.313786
0.328405
0.403275
0.310366
0.331823
0.321441
0.304869
0.527922
0.318954
0.368124
0.358656
0.320144
0.357702
0.340426
0.368615
0.729065
0.334847
0.31586
0.321199
0.385768
0.19495
0.641858
0.473941
0.679253
1.02016
0.359155
0.425507
0.12033
0.276554
0.894016
0.404108
0.537764
0.368078
0.736126
0.703689
1.28841
0.359124
0.332072
0.537682
1.20967
0.344136
0.392383
0.450407
0.432205
0.409296
0.399873
0.88399
1.38798
0.25094
0.373864
0.195722
0.34505
1.1723
0.327917
0.348993
0.320319
0.312038
0.442193
0.320255
0.582262
0.463677
0.320988
0.378353
0.31558
0.542847
0.624684
0.327945
0.424701
0.359402
0.854678
0.448293
0.351465
0.528639
0.518309
0.303219
0.310048
0.352733
0.310405
0.658273
0.310614
0.430566
0.595646
0.324118
0.340635
0.318114
0.318139
0.602208
0.385876
0.514275
0.309502
0.312069
0.534922
0.682485
0.313582
0.335515
0.312776
0.311781
0.621735
0.43991
0.788807
0.34184
0.311715
0.441654
0.385099
0.343091
0.315197
0.376311
0.372935
0.539385
0.421812
1.87754
0.404199
0.41076
0.312768
0.369456
0.842964
0.989812
0.38855
0.852663
0.352656
0.981122
0.416433
0.715282
0.462974
0.520096
0.390534
0.326553
0.357597
0.410407
0.55306
0.353058
0.361026
0.964657
0.374529
1.34144
0.373242
0.340422
0.368258
0.579011
0.412631
0.311488
0.874693
0.307583
0.326237
0.308377
0.357703
0.797686
0.478304
0.329557
0.507649
0.34611
0.340011
0.31316
0.329425
0.413111
0.399621
0.40297
0.34676
0.327679
0.39431
0.3376
0.302851
0.394444
0.354265
3.00153
0.365373
0.453317
0.344442
0.396624
0.350781
0.411807
0.303872
0.354813
0.337463
0.336327
0.366909
0.823393
0.303299
0.682375
0.581589
0.391254
0.379798
0.347305
0.382511
0.438496
0.661419
0.315627
0.337949
0.343942
0.489889
0.375162
0.304847
1.24254
1.35439
0.645574
0.305921
0.312065
0.498074
0.353037
0.353623
0.496972
0.364427
0.328747
0.356562
1.28749
0.31106
0.564411
0.308073
0.329222
0.418041
0.326337
0.380826
0.447461
0.312499
0.58081
0.397972
0.391585
0.438543
0.930264
0.319032
0.359951
0.3601
0.38664
0.34926
0.356024
0.301595
0.299725
0.374466
0.579588
0.37267
0.355121
1.00337
0.371738
0.604038
0.35836
0.383028
0.388866
0.342329
0.77808
0.344765
0.506992
0.361063
0.355016
0.340037
0.385174
0.559673
0.443021
0.321898
0.616483
0.37693
0.671073
0.744745
1.25562
0.316954
0.448157
0.377688
0.230292
0.382981
0.245774
0.433232
0.218299
0.38691
0.768196
0.393939
0.617001
0.6768
0.35624
0.219838
0.460511
0.948247
0.515339
0.65819
1.72168
1.72903
0.715832
0.806423
0.316666
0.349363
0.740384
0.383843
0.921959
0.367182
0.777685
0.763858
0.332079
0.362247
0.327146
0.303969
0.35218
0.303587
0.715405
0.386083
0.359611
0.547207
0.323185
0.353851
0.305834
0.331545
0.350795
0.344973
0.389023
0.304557
0.403614
0.902882
0.308169
0.316519
0.343564
0.313873
0.769361
1.04383
0.389534
0.421676
0.53222
0.307282
0.296347
0.336315
0.355664
0.324624
0.331463
0.318703
0.312961
0.443808
0.313162
0.356326
0.327885
0.307032
0.30975
0.933976
0.322581
0.338955
0.311947
0.425125
0.351614
0.34265
0.682647
0.401266
0.333025
0.381683
0.341235
0.364844
0.385403
0.367539
0.317467
0.376349
0.361738
0.32407
0.344097
0.348194
0.429192
0.448064
0.328483
0.334402
0.395205
0.421911
0.471066
0.560567
0.914586
0.912876
0.337671
0.31114
0.970309
0.522601
0.546955
0.317953
0.306979
0.329309
0.302317
0.325094
0.310998
0.315081
0.341882
0.309317
0.315704
0.311759
0.317259
0.310172
0.532853
0.367318
0.34081
0.317052
0.320018
0.611074
0.308077
0.31301
0.393822
1.04791
0.534833
0.374182
0.362235
0.319528
0.35446
0.463239
0.660983
0.395068
0.325346
0.36238
0.324503
0.323987
0.359959
0.426111
0.359242
0.318661
0.390506
0.398247
0.606344
0.386697
0.746753
0.572399
0.381827
0.384259
0.325191
0.335064
0.370564
0.301662
0.323944
0.595515
0.320227
0.342722
0.707907
0.346447
0.365429
0.502472
0.385228
0.316027
0.348992
0.315311
0.347872
0.725371
0.348075
0.421086
3.25115
0.576488
1.05457
0.83182
0.325166
0.333701
0.521337
0.309562
0.547234
0.484646
0.684302
0.369858
0.306839
0.786926
0.305574
0.536494
0.407286
0.317626
0.711619
0.866117
0.305688
0.314622
0.884776
0.305036
0.312389
0.311658
0.307083
0.344064
0.564964
0.573116
0.334225
0.798399
0.32592
0.330121
0.317566
0.86004
0.329902
0.898525
0.308147
0.348226
0.310426
0.424419
0.335003
0.498225
0.309295
0.653136
0.465321
0.467007
0.694806
0.330788
0.326547
0.895151
0.437054
0.340393
0.40989
0.676424
0.333221
0.418614
0.323602
0.584235
0.397518
0.313899
0.304605
0.448751
0.321099
0.377569
0.344072
0.305961
0.332283
0.311528
0.314049
0.331949
0.746888
0.320866
0.312526
0.310936
0.324808
0.316123
0.343516
0.305515
0.36439
0.43302
0.382398
0.377818
0.31694
0.443065
0.321679
0.374746
0.906925
0.493726
0.742758
0.323717
2.12372
0.355473
0.539299
0.374301
0.323864
0.381302
0.316547
0.309717
0.345606
0.354835
0.298308
0.321229
0.306356
0.659688
0.305747
0.322273
0.362254
0.758211
0.181596
0.330847
0.792098
0.903177
0.598027
0.554607
0.950159
0.154344
0.397151
0.268189
0.344057
0.458611
2.49143
0.516352
0.375306
0.30561
0.309114
0.746965
0.340582
0.516494
0.623302
0.373824
0.584889
0.363831
0.589244
0.314129
0.3612
0.34448
0.303844
0.385046
0.299755
0.344749
1.09567
1.04521
1.09309
0.446167
0.840661
0.324175
0.300652
0.309482
0.365917
0.307821
0.364581
0.314552
0.406255
0.376746
0.305401
0.310171
0.361994
0.305908
0.327732
0.357555
0.316817
0.355416
0.498489
0.328824
0.365936
0.812755
0.358135
0.722776
0.804741
0.347998
0.384508
0.307229
0.468504
0.347824
0.363374
0.683976
0.309662
0.373794
0.340903
0.358443
0.316941
0.318763
0.475651
0.510365
0.3755
0.34802
0.786876
0.372581
0.634918
0.580003
0.360508
0.909895
0.434207
0.366918
0.342282
0.351549
0.387051
0.346143
0.30129
0.32937
0.207368
0.58128
0.20678
0.320206
0.351991
0.421842
0.183957
0.860838
0.341391
0.367009
0.386142
0.217092
0.390734
0.732275
2.05257
0.363
0.318165
0.365713
0.556225
0.317491
0.368812
0.373561
0.319793
0.351864
0.327169
0.619849
0.32669
1.46881
0.386899
0.950617
0.335295
1.41189
0.882035
1.03906
0.337037
0.340445
0.447117
0.365411
0.323309
0.372832
0.32962
0.81867
0.305581
0.460517
0.610892
0.30528
0.310471
0.317685
0.321882
0.351842
0.360474
0.382792
0.387699
0.371713
0.336007
0.395065
0.333922
0.438942
0.325463
0.364265
0.310101
2.46212
1.22521
0.368809
0.440651
0.302441
2.33714
0.302652
0.305435
0.355202
0.303252
0.373312
0.355559
0.302646
0.298357
0.338329
1.28777
0.601165
0.370891
0.806909
0.308911
0.361243
0.326062
0.35956
0.79792
0.382
0.827935
0.300708
0.326843
0.782378
0.874748
0.332535
0.335968
0.621494
0.377037
0.350046
0.476153
0.37722
0.369547
0.40335
0.3712
0.297945
0.381204
0.351698
0.468088
0.307652
0.358911
0.305398
0.330926
0.807724
0.701575
0.323354
0.382514
0.330903
0.353709
0.32167
0.52576
0.322026
0.338711
0.358957
0.34684
0.429317
0.388159
0.47288
0.361523
0.300305
0.32454
0.30867
0.367842
0.30241
0.514405
0.433898
0.321751
0.618884
0.333327
0.306898
0.35373
0.308493
0.37032
0.620908
0.327308
0.420674
0.365156
0.972069
0.384646
0.364103
0.370948
0.713656
0.372136
0.520151
0.359937
0.391733
0.391237
0.40003
0.372817
0.738427
0.443507
0.363187
0.32434
0.316596
0.540288
0.330774
0.925358
1.73458
0.375888
0.411052
0.357434
0.463186
0.439026
0.376095
0.882776
0.468954
0.642013
0.309537
0.389767
1.05809
0.47457
0.344615
0.456925
0.322231
1.11347
0.378199
0.374378
0.320775
0.306881
0.311134
0.337003
0.309264
2.82877
0.310284
0.630685
0.307504
0.413001
0.377367
0.51604
0.336439
0.341483
0.329224
0.604503
0.4539
0.494891
0.312224
0.312774
0.441819
0.360819
0.348086
0.308516
0.306171
0.306518
0.328099
0.305514
0.36262
0.311701
0.545043
0.420518
1.06076
0.749687
0.583075
0.548082
0.377662
0.385598
0.303934
0.575508
0.3193
0.329903
0.317416
0.448824
0.482973
0.31923
0.411183
0.769788
0.477034
0.309673
0.309846
1.59497
0.804709
0.372493
0.846765
0.855122
0.62855
0.744263
0.559074
0.727487
0.393629
0.619651
0.756352
0.305488
0.3144
0.299365
0.461541
0.598036
0.322697
0.306507
0.389203
0.352283
0.380994
0.796843
0.470449
0.953574
0.344052
0.309677
0.328352
0.309256
0.34864
0.797543
0.878847
0.728513
0.77294
0.31806
1.11099
0.647982
0.313119
0.521399
0.460707
0.758832
0.368832
0.464288
0.75615
0.77548
0.463198
0.841975
0.492136
0.78296
0.365733
0.330667
0.379691
1.10946
0.758591
0.380878
0.326215
0.540754
0.431677
0.570443
0.34581
0.364376
1.1152
1.05476
0.215974
0.325811
0.223927
0.308302
0.214789
0.367374
0.450421
0.589093
0.200308
0.424176
0.487558
0.140173
0.450562
1.49285
0.40162
0.370205
0.743778
0.32423
0.48595
0.316443
0.302045
0.320569
0.332087
0.843586
0.68766
1.90776
0.381725
0.377877
0.616593
0.363557
0.4579
0.398576
0.350337
0.325676
0.585816
0.379922
0.423732
0.317237
0.411723
0.394902
0.74149
0.452704
0.798912
0.955394
0.761472
0.373701
0.390767
0.731801
0.284085
0.541255
0.348539
0.375327
0.315065
0.791114
0.609202
0.653761
0.769996
0.601666
0.306977
0.419102
0.866305
0.806107
0.377383
0.356428
0.44955
1.27853
0.343928
0.309265
0.362045
0.331599
0.844843
0.319542
0.60087
1.01717
0.987527
1.80296
0.531381
0.446168
0.78836
1.37966
0.862115
0.572695
0.746534
0.924585
0.516895
0.366802
0.435321
0.35646
0.297787
0.314262
0.411271
0.503684
1.82428
0.356744
0.390671
0.404918
0.376978
0.459669
0.557661
0.472336
0.372085
0.379332
1.04072
1.08198
0.195002
0.387673
0.329195
0.356997
1.52824
0.822173
0.369843
0.667469
0.325416
0.434228
0.564014
0.553456
0.331463
0.328364
0.319918
0.382448
0.905747
0.445594
0.345905
0.75365
0.309688
0.94123
0.703472
0.462998
0.689184
0.356013
0.30965
0.318421
0.313826
0.353543
0.387636
0.321264
0.335706
0.321547
0.312093
0.497087
0.662123
0.719002
0.315292
0.466068
0.354414
0.381299
0.337544
0.638765
0.347405
0.331711
0.329053
0.30838
0.319768
0.323543
0.447827
0.303831
0.347631
0.360953
0.606972
0.317478
0.382758
0.492116
0.789086
0.861944
0.375923
0.917779
0.527545
0.363388
0.336967
0.525421
0.324626
2.35876
0.410209
0.314614
0.41457
0.485177
0.396944
0.447893
0.719669
0.927387
0.438588
0.839919
0.333273
0.303784
0.383618
0.31022
0.30961
0.398574
0.312177
0.311939
0.573382
0.308298
0.269377
1.34615
0.572331
0.307413
0.309253
0.67081
0.327026
0.320255
0.570713
0.318992
0.735169
0.391089
0.768112
0.310404
0.536146
0.436493
0.663337
0.315719
0.431307
0.314773
1.04419
0.364328
0.309568
1.05941
0.418341
0.493526
0.348029
0.361334
0.373676
0.31163
0.49607
0.310966
0.314959
0.305299
0.440349
0.543603
0.316932
0.316748
0.315679
0.312657
0.325161
1.517
0.309527
0.447336
0.308811
0.564174
0.345819
0.359455
0.352694
0.460289
0.328312
0.411875
0.299808
0.331278
0.328032
0.342094
0.309982
0.426973
0.399099
0.854076
0.945333
0.785746
0.386284
0.336894
0.334019
0.309031
0.310696
1.0369
0.630834
0.391802
0.36304
0.301727
0.328005
0.3009
0.315306
0.521176
0.501263
0.762086
0.949624
0.363301
0.351755
0.399194
0.309473
0.573227
0.350755
0.447091
0.360361
0.352724
1.0606
0.407
0.302416
0.328155
0.39327
0.312074
0.495561
0.307892
0.682567
0.364963
0.899921
0.484573
0.768668
0.315756
0.329532
0.347849
0.374407
0.352662
0.358239
0.310798
0.308226
0.313404
0.322226
0.354892
0.586319
0.363359
0.854994
0.407301
0.320018
0.510508
0.381689
0.361453
0.279857
1.05358
0.878225
0.276238
0.319249
0.315596
0.838571
0.307781
0.411077
0.370895
0.358131
0.280037
0.362126
0.358416
0.307821
0.412061
0.493411
0.951578
0.525392
0.432738
0.301094
0.393166
0.59095
0.341234
0.311184
0.861734
0.806305
0.372866
0.744157
0.314226
0.306851
0.389855
0.314386
0.875527
0.306919
0.307738
0.312016
0.653438
0.308831
0.349583
0.448775
0.457083
0.307836
0.324984
0.331113
0.327945
0.310778
0.349503
0.360606
0.58418
0.42157
0.367278
0.570426
0.359494
0.619002
0.353706
0.891058
0.437008
0.310568
0.667829
0.229135
0.424472
0.521468
0.578747
0.391075
0.307774
0.310267
0.303166
0.358966
0.830012
0.371122
0.307721
0.350854
0.368342
0.302559
0.476283
0.334353
0.368276
0.45444
0.327763
0.313559
0.341803
0.331996
1.76429
0.910649
0.376528
0.356778
0.418777
0.353179
0.797922
1.06502
1.05798
0.772799
0.345773