/*--------------------------------*- C++ -*----------------------------------*\
| =========                 |                                                 |
| \\      /  F ield         | OpenFOAM: The Open Source CFD Toolbox           |
|  \\    /   O peration     | Version:  2506                                  |
|   \\  /    A nd           | Website:  www.openfoam.com                      |
|    \\/     M anipulation  |                                                 |
\*---------------------------------------------------------------------------*/
FoamFile
{
    version     2.0;
    format      ascii;
    arch        "LSB;label=32;scalar=64";
    class       volScalarField;
    location    "0.0626374";
    object      p;
}
// * * * * * * * * * * * * * * * * * * * * * * * * * * * * * * * * * * * * * //

dimensions      [0 2 -2 0 0 0 0];

internalField   nonuniform List<scalar> 
47425
(
1.11899
1.34612
-0.00408465
-6.57094
-23.0194
0.067972
-20.8839
0.0476825
12.6422
-39.1212
0.0103064
13.1159
-16.2748
-0.0079475
-2.52925
11.7048
0.0237129
23.6197
-116.834
-38.9992
2.1643
15.2753
-0.0287855
1.05175
14.0318
1.04027
0.104783
-47.7603
0.0094876
0.194065
15.1624
11.9885
13.2976
0.404811
-0.0328264
0.0173434
15.9864
13.0678
6.26296
1.22222
1.46677
-1.35185
2.66974
12.9856
-40.5854
1.19347
0.161028
12.8781
1.12364
0.555149
43.8409
-0.360341
0.210379
-34.0934
0.987512
8.11545
1.17211
0.0161065
-10.7328
0.0643674
-35.8303
-35.0981
-63.2497
20.4155
12.4907
2.49377
13.3799
-2.71313
-47.9244
22.5326
3.08951
0.813752
0.567324
2.0451
-53.2718
12.3194
-62.1622
0.20403
-79.5612
-23.0368
-55.3694
9.94119
20.3807
12.2072
2.00464
1.05034
0.450466
1.4288
-5.27231
-28.8473
14.4533
1.52594
0.519056
1.0149
1.06409
1.13536
0.45319
1.06632
1.25916
11.1487
12.0779
20.146
8.84097
45.0936
8.83556
0.297771
1.44106
1.13169
1.83768
13.3633
-36.2818
12.9746
-0.160501
0.991424
-1.38179
33.6059
-0.982615
44.8558
7.53985
-3.9346
1.03817
13.3204
12.8463
-9.98448
10.8063
-1.38318
1.06095
12.3822
1.06259
0.604173
21.3529
0.35992
54.3201
7.61809
-0.52557
-12.8039
2.03278
-1.35347
10.8291
-1.22465
13.3623
-5.17195
5.54699
-1.05449
10.8127
12.4413
-21.5806
12.6197
5.54706
13.2472
-0.489525
35.7286
12.6829
-10.2302
20.806
1.19878
0.190147
-127.787
1.08738
0.33172
-2.79479
1.03617
0.728542
10.4832
-53.5999
-94.5107
12.6757
-53.5803
0.791228
-49.6245
-54.1269
0.547832
12.4338
17.9682
1.12231
12.9557
25.8849
0.0561378
0.0533387
0.370296
19.3771
1.26854
0.0756557
0.0786295
0.224494
12.072
9.89305
49.0992
0.405829
1.25979
13.2061
0.482347
-12.7496
13.4284
0.374466
-2.26399
13.4113
0.943748
-2.97563
1.1622
0.32364
0.649996
1.98806
-1.91673
8.28722
1.46027
0.0226189
-1.47263
11.955
12.329
1.11117
-2.44032
12.3987
1.01711
0.753867
-3.40707
1.36764
-26.3195
20.9039
13.2054
-25.4334
-4.53607
3.38889
1.13902
1.78205
-23.2592
0.476442
-3.14088
-5.19007
-9.8066
1.78617
0.16901
0.751015
13.0411
0.137709
12.0969
-28.271
0.606412
-25.5118
0.146184
0.142042
0.424844
0.573863
-7.06725
7.71087
12.3293
1.11764
12.2259
0.839873
0.0216295
1.10969
-21.1709
0.0556993
13.3885
0.252648
0.212343
14.567
0.341307
7.05172
12.2602
0.266294
12.9179
9.43217
9.32121
-11.7521
0.912849
0.0592343
-11.6692
0.254924
9.44184
9.96649
-25.6158
-28.1651
9.90402
-23.1824
10.0273
-24.3205
32.8333
-26.5473
31.6129
-33.2075
1.3233
-38.5258
0.690421
0.684051
-3.9375
0.64612
0.00306259
1.57935
-1.19483
54.6132
19.3265
12.5137
0.0235745
0.113648
11.3488
-5.62738
10.1707
12.7428
-10.253
1.2773
0.933761
0.224619
0.185475
-51.3326
-65.0645
34.245
0.440849
0.933007
10.99
10.3323
46.691
0.000152163
0.0454106
-16.8231
1.17148
0.527172
0.409939
0.158431
-35.1968
-16.2713
11.6175
11.2719
0.0807115
0.914485
0.103649
11.5312
1.15209
0.712134
0.215337
-6.71847
-58.2157
4.57135
0.0963957
13.2449
0.06994
-57.29
12.9476
0.756568
0.827112
11.5738
11.3262
1.26201
13.2
0.645617
0.0136632
0.134428
15.6457
-0.0551928
0.153457
11.8366
7.06742
11.978
12.8216
12.3016
-2.8524
0.441311
19.9563
12.6371
12.6101
18.9796
-4.66825
1.03971
0.154164
8.18664
0.536931
0.155242
12.6669
12.9298
9.51048
0.194472
-41.8697
0.444861
10.6148
12.4535
10.455
-2.92967
11.9701
12.323
15.5931
12.2442
10.4074
0.938267
12.8064
1.08128
12.8389
0.0787631
9.82471
13.2952
0.0850543
5.86166
7.22037
-0.0250797
6.65785
0.522521
6.44754
13.2742
0.0361603
-13.7604
0.34018
-30.4061
0.507398
-36.2489
0.202845
2.23282
0.304042
0.26207
0.0520027
0.129123
0.224628
7.26639
-60.0573
56.9231
0.958776
6.72056
4.13385
2.60789
0.929579
0.0262155
0.547982
0.145086
0.736159
1.40106
2.5397
0.0498491
0.0995088
-7.29694
-5.3423
-1.98427
16.1066
-58.2503
0.50204
26.2433
-57.4695
1.62506
-60.2456
-33.3388
0.789529
-0.379414
0.613153
-3.38737
-62.4471
1.07019
0.868908
0.547456
-3.94739
-1.64313
1.07011
1.22172
-25.3732
-59.9671
-27.5558
13.1314
18.71
-2.56897
1.02704
0.511798
-13.1559
0.748548
13.102
13.3679
13.3853
6.83204
13.3051
0.83535
10.4935
0.187221
-1.28138
0.582804
0.525863
13.1676
13.289
12.1715
7.99239
11.2531
1.01236
-0.375027
-25.3253
12.2423
-13.6058
13.3294
-1.53588
-5.3302
12.7864
0.900398
11.2104
12.6545
12.2553
9.1543
0.584921
-0.306959
11.3823
1.27568
7.15406
20.8427
0.903157
13.7381
12.163
15.2698
1.22327
0.347849
0.983796
0.165833
3.27058
0.0431013
0.165046
0.991757
1.26122
-0.589725
0.112304
0.0682946
23.6242
0.0275653
1.59264
1.36558
1.02976
0.00848438
0.17767
11.3328
7.50545
12.415
12.4139
44.155
0.0489529
0.0209962
12.6622
12.873
-20.9519
-24.7268
0.372699
1.36697
1.29022
-9.9739
11.9956
-27.6486
13.2953
-30.2499
26.8733
19.9139
0.105031
-21.6653
0.240929
1.20369
0.416044
2.00316
0.167508
0.821677
-59.2166
0.273037
-0.0121897
0.331697
-19.4561
0.913759
0.0992214
-19.6967
-15.8179
0.181429
0.240212
-28.7616
0.369344
-0.366155
0.147027
0.418296
0.285293
-11.2564
-11.5188
19.581
1.62169
1.22056
0.0718856
-28.2206
18.5064
1.66343
-28.5579
0.0588559
0.249648
-28.954
-40.7371
13.9697
-28.5242
-28.4335
0.252807
13.2401
0.114639
17.0859
12.2296
0.123667
-45.5439
11.6698
0.063997
0.74109
-17.2492
-10.536
13.2888
6.59365
-53.5286
-27.0393
1.98433
0.638861
0.773774
2.53553
0.609957
0.542022
12.2329
8.27766
13.2849
-1.61561
12.4279
-28.2285
5.75393
4.08583
-29.9814
10.9441
0.586549
7.50172
10.369
0.618728
12.6865
-2.18803
29.5065
12.447
-0.783204
1.45831
-82.8923
9.27073
-11.4904
-42.2405
-43.3976
0.216693
1.40898
-45.1502
0.0455968
4.07807
-24.9851
12.741
-39.458
0.233151
0.199053
12.5474
-36.6885
13.3919
13.4635
0.368061
0.155124
0.927416
-0.00806431
0.802287
1.02251
0.766603
-32.6039
-29.8923
2.15343
14.0468
0.269605
18.1989
11.7287
13.3727
13.3731
13.4323
13.3602
19.619
3.00411
13.2998
9.80634
-6.04473
0.129477
-63.3687
-29.5329
-0.014443
18.72
4.83453
0.191117
-65.1923
-0.0198737
-54.7224
0.319621
-13.3284
-14.2026
0.757646
13.7286
9.74917
26.1994
0.396938
0.63792
0.797652
-16.8812
13.228
-17.0336
0.867897
-63.2011
-12.4863
0.777901
-15.0294
13.3232
1.00757
6.03745
0.870207
-16.3184
13.1872
11.9034
-15.6634
0.302755
0.796468
0.158441
0.847058
28.5593
27.0437
16.3882
15.4612
0.148378
0.00177638
2.33718
0.969972
-0.606919
0.167491
1.15408
0.0883912
1.14573
30.6056
-11.0172
0.065461
12.1206
1.06712
0.947307
1.26025
0.0310764
-3.1305
-24.4967
1.14009
0.217456
0.124073
1.03272
15.2986
0.0616465
0.58106
0.786742
0.782221
1.1489
18.5446
35.5075
0.941331
-27.8134
-9.14831
-33.5784
-27.7253
0.838973
-2.2739
4.85252
0.341064
42.4365
-28.5912
54.7679
-10.5763
1.36461
-19.0997
0.443007
57.022
2.00905
0.642574
1.2657
0.195189
-10.982
1.50753
1.08673
0.994665
-29.7231
25.7081
12.6051
12.8739
44.7819
41.0761
-16.759
-51.1487
-24.9261
46.2155
43.1306
12.761
0.613796
18.2844
0.393671
6.70499
-28.5789
1.27857
5.87847
7.20471
0.288432
-29.4341
-29.3423
0.138136
5.99759
0.724748
0.408849
7.21906
0.320673
16.4169
0.0915038
0.650569
31.92
0.233866
0.0309146
0.155028
0.433186
0.262127
51.9161
-20.097
0.0523998
5.12954
0.677123
16.1132
16.5604
-16.078
0.449502
-27.7361
-17.321
6.41551
2.5764
23.9747
-46.9161
0.0888841
0.127333
-7.7273
1.1099
12.9302
4.28561
-0.0275216
13.4621
-33.0505
-18.2303
-48.0903
13.4332
26.5439
0.180913
-11.2493
17.8573
-16.6945
0.0559358
19.3751
-37.1354
-9.50078
-18.3072
-29.3261
-16.3952
0.757878
0.0908313
-12.8217
0.103055
-18.0169
-26.9559
0.033904
-20.8951
1.06424
1.04592
-39.2619
1.07091
1.05919
15.8339
16.1462
12.3952
-24.2996
-5.7754
1.10602
-12.3143
48.0784
-0.132887
14.4586
1.34384
0.11423
1.09437
1.07697
-30.4682
-61.3757
-10.3316
0.555801
-18.3414
-17.796
-27.053
5.36935
1.14925
12.9944
13.1859
1.27064
-13.1662
16.9483
24.1363
13.0492
-27.7937
-17.5526
3.07346
1.09909
0.473628
0.991194
33.1705
12.7838
-17.4195
0.325715
3.26905
12.89
12.8738
12.7719
12.5786
13.0967
-21.1989
-3.75755
23.8185
26.7105
17.6098
7.4034
-1.57262
35.4503
0.580663
-8.57773
0.0656232
-16.4882
-8.86319
-8.08521
-0.301206
13.1011
15.6006
12.9079
1.0335
-38.9415
-31.2281
-44.222
10.8155
-9.47249
5.94802
-22.7815
1.17983
-40.35
1.08238
0.998764
-8.40457
10.2313
1.15434
10.0617
0.386124
5.10996
-9.73595
0.917696
-2.94503
-26.6244
-6.69489
-0.980501
17.4885
50.1358
-56.3956
40.3803
-27.8385
-60.0833
0.240797
1.00515
23.7948
0.510751
52.1202
0.540927
0.394767
-61.4703
15.1187
2.42883
0.295359
12.6773
22.2791
11.1941
0.933588
13.5427
-19.7364
10.0419
13.5882
13.8044
13.3257
0.940785
-14.4162
-7.69913
29.2292
14.6159
1.00588
10.814
0.609468
0.621138
8.1974
-10.6002
-3.3219
-10.8665
-11.1118
10.6966
-42.2294
0.760852
0.663398
0.731834
-53.6319
-55.2791
-23.3126
-27.9559
0.624616
-0.881924
-39.5911
-29.2845
-5.85765
11.3338
0.819222
1.07414
-41.5829
4.24563
-1.51559
0.932506
9.3936
1.03397
31.9159
-113.484
-16.4491
-31.0198
0.942329
55.0637
-58.6521
1.56158
11.1744
2.63198
-34.2771
11.2144
-5.46407
17.8786
-27.2473
1.74381
-28.9626
2.49592
-11.415
0.993041
7.38532
-28.3357
-28.0617
10.4392
18.8242
-11.8716
-48.0107
9.798
1.27119
-29.7997
-39.1175
11.9593
9.09233
-60.5148
-57.7945
-42.3671
10.6243
-8.67751
-21.0854
-42.4351
10.0838
25.9214
-22.0134
-9.3163
-7.34226
-25.9962
-40.5232
-6.18624
8.0991
12.5358
12.7118
13.7377
10.4595
-3.42718
13.2833
13.2523
14.107
1.05464
-30.2495
-37.0798
11.0691
42.0003
-20.1991
11.5939
-17.244
6.01724
10.5029
-9.69769
-3.00635
10.6549
9.50423
-53.1603
13.6568
-35.6202
-61.4325
-37.4525
10.166
-12.1403
12.1722
1.55685
1.77751
-19.0077
-40.1427
0.876547
-29.4817
-21.7668
60.4455
-22.8946
-50.6993
-29.3794
0.0504671
1.26363
-43.6486
0.148341
14.9743
0.114914
-46.7239
-40.9929
0.0298304
0.45111
-34.6935
-14.3472
-44.3987
45.5042
0.443385
-6.28473
-51.7031
-0.19128
22.7541
-31.014
15.1023
-64.4644
-20.0884
11.208
0.352404
0.419203
0.780702
0.441241
1.11644
-0.201846
0.431198
7.57372
34.5777
15.1531
25.1142
-21.8388
-12.7312
28.5309
-3.70378
4.44541
-12.0049
13.3826
-72.0203
0.855943
0.911819
0.968716
-39.0301
0.876131
-64.98
0.962263
6.78869
7.46813
-60.2995
50.8859
-29.6013
-24.5872
34.5704
-4.62384
12.7657
-9.55071
-26.0213
-26.6349
-28.8018
43.9784
12.622
-18.7394
-32.1335
-6.4699
-6.25128
-39.3853
-30.5218
2.56652
-15.3771
12.4925
12.7732
-26.6258
-50.4789
-1.44684
10.163
12.6532
-59.1726
12.8059
-13.104
-13.2868
12.787
13.0417
-21.964
3.46903
50.5003
-19.9664
3.93523
29.9516
26.574
10.0175
-90.6696
-41.9813
-16.1036
-118.006
61.7732
13.1095
-23.6187
13.112
23.6933
-66.2209
2.75687
-61.7996
-35.5448
-3.40424
21.066
-7.40869
12.961
13.0098
15.4915
-22.1473
4.09944
0.148897
26.3891
0.322654
-7.55266
13.4724
-13.9768
-1.0539
-22.4468
16.1039
-62.1364
-42.9224
5.58378
-38.0144
-29.2565
0.162626
49.0317
-39.3189
-4.44779
29.7931
-10.7087
-16.4896
-24.3522
-32.0359
7.62067
-45.823
-22.4159
6.12301
-2.61083
0.526712
-24.6505
-4.76137
25.0935
-15.4449
1.11006
25.2549
0.733495
-60.5136
0.252976
0.249986
-7.91106
-23.9681
21.424
-6.18323
-13.4461
-8.5842
-63.6926
0.142085
-13.8748
-65.2527
1.01128
-9.4632
57.9961
-7.29819
-27.4492
-56.7829
0.229951
10.6728
-0.0326838
-129.455
-29.9322
-30.3829
-29.6108
19.4286
-6.36631
-1.90376
-41.8569
-54.9273
-14.7726
0.493295
12.8332
1.30618
0.522759
2.51134
53.8417
13.2452
12.5352
-8.66394
0.57793
15.8779
13.4048
22.3022
12.9888
0.513038
22.7369
13.8085
10.6282
-16.4225
1.5211
12.1967
10.1252
-11.1808
12.3478
0.530972
1.21643
10.847
13.0719
13.1111
-61.0695
12.3286
17.8406
1.06483
0.276438
-27.1321
14.0238
13.4983
-57.7216
-54.0889
59.3807
14.8808
-59.7514
22.9633
1.58573
-54.4106
9.13351
-57.1663
1.02672
1.07207
12.8611
19.1442
10.9796
1.07709
0.961275
1.40951
6.48702
9.16883
0.919069
-19.5963
0.881812
-13.1663
58.1728
12.3403
-46.7717
-13.0381
-73.5822
1.04982
11.0949
0.146899
13.7517
1.33306
12.4115
1.28674
-43.9302
-25.1068
-39.4854
-3.95157
-9.86387
1.36455
2.42848
-33.2705
1.62421
-54.2309
-1.28527
-48.7046
1.74984
-60.6212
-89.9397
0.492245
0.101959
-41.5189
0.254752
-41.7854
12.0881
1.45528
0.963895
0.71327
-0.465388
-0.895769
-12.8736
-31.3759
-7.76545
12.12
1.30162
12.1828
0.880641
12.0799
-42.1914
9.88384
-38.6889
1.49465
1.3467
9.63013
0.587429
9.8674
9.13919
0.199386
1.19054
12.9334
1.101
-3.80867
1.10823
1.13986
-27.9608
-38.3522
-2.96854
0.750104
-27.7668
0.952259
0.628344
0.485839
0.459431
0.100394
1.04902
12.2734
11.9909
1.00192
0.780727
41.6091
1.16774
1.0576
1.37067
-48.4134
0.669501
-55.6391
-39.9543
-49.658
9.3046
0.278038
0.759652
0.148811
1.06543
-45.8221
-12.1416
0.883364
0.889277
0.759265
0.795268
-27.804
0.794933
-0.020397
-16.8227
0.710388
0.524209
0.32926
0.521005
0.291492
0.384057
0.577127
-12.2667
-16.8075
-0.0159849
12.1669
-2.94064
-10.5054
-9.20698
0.668394
1.03548
-12.0291
1.26846
0.125922
1.47524
0.992184
-11.318
0.029954
1.38454
0.702093
0.646833
1.55446
-6.50448
0.0322308
-47.2641
0.715483
-16.7507
1.03279
0.0120161
-49.4247
0.0390073
0.411106
0.0425342
0.853007
0.884524
0.406962
50.4722
0.683959
-35.8792
0.904445
0.264967
1.5851
0.831179
0.600673
0.737888
0.499458
0.831168
0.28072
-14.5192
-11.0493
-39.9989
10.6373
-13.6477
0.748139
1.11107
0.637408
-29.9108
0.194291
0.239935
0.164243
-57.5782
0.115637
1.1791
-0.00289937
0.254871
1.57168
-147.122
0.103884
1.41735
12.2917
-0.00135702
-7.78491
28.7146
25.4119
0.0323936
7.25244
0.139319
1.0445
0.569263
0.240872
-56.1985
-54.4146
0.0618429
0.977966
-46.4677
-0.0851051
-6.82212
-23.3474
0.0771099
0.932052
5.07229
-0.0512382
-8.30962
0.0503352
1.0578
19.6049
1.92645
0.0523483
12.3064
-25.2367
12.3538
-29.4504
-26.0366
-29.4272
-24.935
0.513829
12.2806
-18.9892
12.4255
0.137987
16.4113
-37.3782
-26.6399
12.7388
-11.4424
12.7185
0.695858
1.31538
-28.6689
0.901711
0.506151
12.5536
12.5704
40.7215
44.0041
62.5112
-15.9931
28.0645
12.7543
14.7748
22.7978
12.6187
0.649957
0.196126
0.487025
-0.078721
-28.657
-28.2398
0.690287
2.21834
-3.41369
-58.7044
-2.41944
1.06238
-0.136421
-25.207
-57.4361
0.79054
-43.7143
-6.07142
-31.5752
-43.0671
-14.5046
0.26293
0.728409
13.2325
-58.8664
0.245231
13.3377
0.600825
0.174104
-53.7248
-53.0841
-56.6826
0.106082
-39.0482
16.2312
9.73975
1.61211
-16.6359
-60.5047
-59.3917
-27.6465
60.1665
-28.0093
33.8938
12.2174
-43.0358
12.8813
-61.6603
12.2706
-57.487
12.164
-27.5751
2.88621
-23.5953
12.7705
12.7002
2.13413
12.557
12.437
33.3529
2.58774
12.675
12.4484
-70.2919
-46.6885
-15.4274
-25.6361
-48.1943
-25.4092
1.17155
14.8483
-40.2072
-30.8943
-38.1735
13.8021
-55.5509
5.95198
-55.7168
-60.0034
-39.9666
-18.9196
15.0873
3.22823
9.33698
12.6014
1.87809
-32.5617
-1.54905
-0.113434
1.70972
0.15925
0.141677
1.25976
0.36296
-26.542
0.293675
0.13819
0.543895
1.42925
-21.612
1.16246
0.0609769
0.221833
1.75358
-12.7777
-8.96432
0.683859
13.2139
-31.8278
-59.3119
-2.62516
-48.8837
-12.7242
-3.48366
-22.8511
37.0664
9.09003
8.43484
-8.31191
-0.0158447
0.166825
-3.52184
-0.0320985
-0.0839395
-1.17845
-0.0224937
1.81623
1.86351
11.9338
-6.15305
1.12546
42.6165
-0.0752123
12.548
0.130918
-0.0019204
43.3257
-48.2255
24.1689
-0.0776791
0.749235
-26.4728
-27.3141
-1.15422
1.21517
11.6647
-13.0189
0.227242
0.167845
-14.5908
12.4893
0.117287
13.2268
54.6516
0.892465
0.384053
-15.9586
-1.79461
0.825836
0.754394
0.319762
12.4141
12.4094
10.9078
12.5447
12.8549
4.22791
3.16389
-5.13839
-55.5221
5.01081
-7.17241
12.4609
12.3584
61.9172
3.11032
0.551664
0.69593
-23.7207
-38.8245
5.26011
16.1331
0.487686
28.9082
-5.68234
14.9731
-35.2762
47.6889
29.7002
-18.2736
4.0241
4.36469
-22.805
-57.8374
-83.5761
1.33546
-11.8182
-59.3124
2.31497
-15.0046
-7.7508
-40.1005
-26.9382
2.3485
15.9034
-61.3876
10.5202
-7.90362
2.62005
10.812
-1.57659
15.8271
1.1371
14.4335
9.93414
-38.6845
3.73849
57.7845
-20.3796
55.6287
32.3561
-74.2534
13.4475
13.4909
-60.2645
-13.8104
-1.60863
-32.0063
-25.3905
-1.22812
2.35355
2.03308
-32.5765
-3.34945
6.88096
57.8908
-8.78853
13.3413
-7.03601
-19.6941
7.71585
7.7756
-35.88
-31.0784
-28.9634
-28.6877
0.602932
-17.8508
0.887709
-18.6573
-11.5106
1.69705
0.638448
-16.7544
-4.94221
-28.5293
-28.3387
-1.76929
6.93034
0.36101
-12.5837
-23.0081
9.21747
8.91754
-17.4998
-28.0501
9.2366
-8.36146
-28.0578
1.4145
-39.7711
-0.837499
-4.93744
-50.1379
1.55437
52.4792
-9.19737
0.669555
0.713259
-0.289226
-60.099
0.88931
0.920169
-4.35613
0.337987
11.1393
0.750377
-31.3877
11.501
36.4491
11.7595
11.6774
11.444
0.956567
-16.3302
-7.26786
-9.7702
-57.597
-1.94946
-43.285
-11.5822
-0.0374491
-59.3204
0.0359335
0.783996
0.1449
-8.8447
-56.9193
-26.3431
11.1186
38.0492
-12.8286
1.54783
-35.2849
-44.0552
-11.5449
-46.8679
33.7713
12.2882
-12.4113
42.5442
12.324
-70.2476
19.9421
11.0117
48.9091
34.3244
12.1179
12.4858
60.5789
-42.6864
1.14967
54.1972
7.28134
12.4507
-10.3622
12.3347
-31.7288
8.03492
59.9577
12.5396
12.6913
36.9374
10.6888
18.4468
-5.53858
-2.81852
15.4712
-31.7694
24.0972
-23.1545
-57.0578
-72.7002
-25.3755
12.7773
36.6545
14.2632
4.67648
7.40408
11.9826
12.065
1.07408
1.08701
40.7528
-43.4606
12.8234
-29.1218
1.77415
7.31667
-18.7181
-70.8321
1.19182
-16.3347
13.5188
5.89635
0.970037
10.5025
-8.69874
1.24897
1.24251
-26.741
2.57279
0.906622
-7.73283
10.6265
0.824881
22.2974
0.835071
-19.3459
27.7593
2.02033
15.9313
37.0843
-27.0209
57.0233
41.5996
-31.8531
-63.5687
-27.343
-27.8307
-27.0813
-27.2051
-28.3641
-24.1372
-34.7547
-27.557
59.0938
-2.52629
-52.0998
11.3439
-0.455529
-38.9392
-53.767
-4.96066
-28.3657
-17.0921
-27.2568
-15.2521
41.7976
-45.9589
-39.7313
-26.8944
24.0874
-26.6903
1.11778
-56.9845
23.188
6.02022
1.1265
-1.63183
45.6719
9.22089
-22.0508
-8.77509
13.1535
1.04035
-7.67901
-26.3774
-31.8339
-1.84699
-5.02482
18.6896
-28.297
-7.98907
1.13644
-23.1781
46.6549
-2.40694
5.56895
1.20406
2.45932
-39.1207
10.4644
8.18626
-0.0214136
1.28673
5.10245
-2.63895
-3.25808
62.7784
3.25758
-18.0395
-6.8146
2.11664
-59.5371
-58.3872
9.19802
9.45306
8.61703
11.5123
-24.1624
-10.0683
56.7845
-8.60568
11.2858
-17.857
-3.46911
-5.51669
9.02691
-12.6498
9.02929
-20.9081
-27.4934
-45.1644
31.5315
-14.4916
17.8824
9.29196
-57.6359
-70.2586
33.1945
-56.6449
9.77493
-62.6535
32.9699
-2.32344
18.83
-18.653
0.587117
0.381096
-7.92526
-13.8368
-40.6176
0.389985
8.67753
-96.0397
13.2942
-36.6418
13.147
-1.67962
10.6468
1.59619
-0.606397
0.24064
-7.10238
8.10878
1.68376
15.756
0.145291
-52.3405
34.7647
11.6219
40.9716
12.5595
-0.62815
11.5471
13.3486
30.9432
0.0999174
30.8535
1.30104
0.168423
-21.1037
0.907649
0.318466
-15.9386
-9.13777
-31.739
-3.97413
33.3158
6.85772
27.5708
0.898926
19.4194
15.179
1.0288
0.956275
0.444139
1.01998
57.1386
0.402563
-10.5074
-28.7455
12.6298
12.9892
15.0666
12.839
-23.3812
-34.1981
-0.811143
-3.98529
-3.95165
-14.91
34.1575
0.204412
-60.9555
-9.16353
-35.3844
0.059691
9.07407
-23.6949
12.7248
12.8801
-20.7682
12.9789
1.01609
6.91098
-45.3835
17.8169
55.0988
0.230802
-0.137746
34.193
6.6098
0.972967
34.4687
8.17997
-14.4902
37.3112
-12.1673
39.1253
-49.6907
1.87332
13.3755
-0.376367
-8.12513
-0.508529
1.00523
-1.09276
0.252133
13.3774
-36.0086
4.86957
1.14363
-39.3239
0.708311
9.41408
12.8284
12.9575
24.8409
4.34885
0.800949
-6.18142
-0.355123
-12.9942
12.6261
1.23107
-21.5949
59.6075
-20.807
0.857519
58.1575
12.8615
-56.8282
54.0625
-2.5719
5.40755
35.5855
12.9916
-27.5031
38.6538
-27.6812
-6.33314
-27.5047
-14.7222
-39.2046
33.7924
-6.6324
60.4987
0.892515
-27.6962
-27.3453
-61.8035
-54.8572
-36.3309
-62.1847
-40.9322
-31.5344
57.0455
9.95577
10.7539
49.8411
23.8475
-47.5498
7.29438
-49.8944
44.4273
1.07922
11.1343
0.0590441
1.10266
0.89929
0.834531
58.53
0.908802
0.915584
11.1116
1.0603
0.982896
11.2543
-5.84312
0.990305
-7.49493
0.958909
7.39892
26.3793
-48.085
0.101963
2.0894
-6.39592
0.109725
-41.0306
-26.289
-23.1566
0.251213
38.3473
14.0513
-2.15828
-5.17965
7.87657
4.39036
1.04908
12.053
11.5113
-27.0435
1.01253
19.1092
-2.91121
3.02149
12.1042
-0.613381
8.33432
12.1089
11.8881
-13.5351
11.629
8.97533
51.8571
25.043
13.2897
22.4681
11.2674
-1.08417
11.7322
1.20361
-3.46736
1.12277
5.56851
-0.0390013
23.5233
11.2711
-17.0579
22.9137
0.211761
10.1003
27.9238
-14.225
33.6841
-26.0928
-52.5714
-42.3936
0.136334
0.0236486
-25.2511
35.3646
-9.35236
-2.04123
9.2659
1.75333
0.332482
0.0630863
9.86139
13.2226
29.3763
9.07217
1.64361
12.0691
11.7852
0.0632634
-36.2217
35.3719
-0.0739691
8.07902
-12.011
42.0822
13.1438
10.5573
-9.9466
-47.9992
-55.7097
12.3009
12.2359
-4.32911
-8.4288
-9.03648
-29.7568
32.0541
1.26635
0.822027
-1.04831
0.519127
19.0788
-17.5717
0.478474
0.389406
30.2629
0.425345
-7.89209
26.0499
-35.0342
-25.5345
0.625437
-11.0084
14.0798
0.0178182
0.758526
12.7613
9.52029
-3.12275
20.8924
4.09828
-47.8879
0.850082
0.735256
-35.5071
-3.89459
13.8878
0.72734
8.15273
12.3588
60.0388
0.749134
-10.5707
-39.1654
-40.0087
-91.9602
-60.4544
0.772403
16.6294
46.4666
-0.0190057
7.78173
9.79098
-40.9583
13.4865
6.51934
-39.7569
13.2647
23.4507
-17.02
9.56951
-39.859
-60.7234
14.9188
18.9788
-46.1579
15.2181
11.1534
2.84984
14.5397
12.748
1.45231
-35.2288
-6.47971
6.3663
14.3124
11.8666
13.1293
1.72317
0.0481989
34.425
0.058261
-8.42605
0.466916
36.3792
12.87
-12.2927
4.86908
57.5628
-23.9535
-29.0426
-43.9551
3.40098
-5.34621
-54.1607
-18.8111
14.5742
-15.4509
-6.88224
0.0244333
-9.15985
12.1687
5.34699
3.18867
0.131626
0.317873
-19.2783
-4.66483
-11.5784
1.01264
0.366396
0.278038
0.0672042
-5.75983
13.4369
-43.6467
13.7972
-0.0412528
-0.0367133
11.5826
11.5455
12.5766
1.51464
-0.00307545
-9.32316
4.16963
0.100858
-0.290641
-26.5664
3.75095
-7.81935
-42.3186
-28.1993
-32.0135
14.4943
-29.7642
18.241
-29.5252
1.12514
-27.6606
0.916756
2.86087
0.0713689
-4.90532
1.08148
3.78883
-1.84916
12.0549
8.0087
13.5241
-4.79876
-6.36602
-54.5762
-27.7009
23.5388
35.5691
-36.7559
-27.5016
-30.622
-57.0217
-27.35
-8.44682
-27.6233
1.38805
1.29826
-50.9831
-61.1828
-5.86594
-0.104795
11.9793
52.4839
-3.2687
-60.7201
0.176062
5.03916
-2.91649
-0.0646958
-29.8365
0.89708
1.05221
0.914196
2.38454
7.16428
0.567347
1.0767
-48.9938
-50.4789
-41.1819
21.9811
-36.4288
12.8415
0.915802
14.6966
6.6294
4.40225
21.3468
12.2395
22.3629
1.06107
3.90638
5.47241
0.753375
2.24657
-12.478
9.11308
13.6988
9.07972
42.6052
1.58238
23.4532
-56.7755
-4.67464
-47.3484
40.3206
10.7483
9.57264
6.58665
-16.6518
-9.03056
12.0165
-36.5018
7.71599
8.26197
-4.37695
17.8732
9.8141
-5.13982
-15.7153
-16.6019
13.3674
-1.77281
-57.4937
-0.00420644
-45.7541
-32.2009
13.2502
-61.8367
-6.44947
34.0329
-1.56372
13.2196
14.5366
17.3744
-6.2687
12.4772
-27.4823
-15.2118
-27.2824
-4.51155
-8.00296
16.5099
-26.8754
-22.6603
1.78168
0.878462
15.5557
-27.2658
6.73951
-2.69953
-45.6645
0.718213
0.620635
11.9125
-57.8385
-5.4139
-2.27065
0.884017
-1.49867
11.5679
11.2225
-0.593735
11.6224
-23.709
11.6181
-62.4511
11.9051
-32.8208
-30.5162
-7.34434
11.2055
-8.20111
1.28814
11.2427
-2.44219
0.433054
-8.2121
51.7492
0.149056
34.0476
-8.86755
0.0881429
-3.21987
0.248262
12.788
11.4227
12.5636
-9.06186
0.154168
12.1318
-1.01467
0.0591267
0.745931
-24.4931
1.80833
0.338197
12.8831
-29.1379
-31.0127
0.139596
-4.29972
0.720421
-30.0981
0.462514
0.355376
0.848583
0.294698
1.00033
0.899045
0.0323914
0.688757
11.5309
-25.55
-18.2691
12.8729
44.9107
16.1237
12.6254
-0.0544784
13.3191
37.1961
0.0741577
33.0712
0.672972
0.199393
-1.03248
24.8423
0.882824
0.099746
54.6623
13.3987
27.7886
-9.62612
-13.6313
0.192212
-3.46619
-0.0215244
0.991697
2.23891
0.635405
49.5355
1.04303
0.608149
0.636491
12.1111
-41.2633
-22.319
-4.4132
3.04475
0.688527
0.492963
15.3455
-29.9798
25.742
16.6999
2.99499
0.496914
42.2464
-13.9589
40.0706
31.9847
12.047
12.7318
0.357699
-5.92667
1.71185
-13.6189
-12.3046
12.7326
-55.7496
1.05013
1.18486
0.975651
11.0505
1.06569
47.5824
-4.22395
45.6925
1.1173
-60.6446
-9.70077
-13.9602
0.933536
-44.6827
1.01959
27.9978
12.3288
31.8894
1.3298
-17.6219
4.24736
-46.5656
29.9704
12.2677
11.8927
-0.713807
-24.3949
11.8272
-63.9988
-29.7085
12.3292
33.5513
12.1918
-22.4329
43.1523
6.88593
-5.42225
42.9049
36.9404
1.42137
3.00956
-59.4677
42.8434
9.93818
39.4623
-4.96705
-56.9888
29.37
-2.2213
-0.0529318
0.299676
-0.0383194
0.7635
14.0635
-39.0334
-0.211632
-35.2325
16.4768
38.1955
-11.2128
36.343
-0.0497623
-0.0466973
-14.014
56.9912
-18.4812
47.3995
16.4082
4.3543
24.4278
4.4866
16.8815
0.0493112
-0.0414545
0.014435
-0.0154877
8.99771
-14.8051
13.4321
-32.2655
2.64524
-40.0671
9.73869
-22.0599
44.3403
-2.84422
-2.05284
0.182686
38.0266
0.0592638
22.8576
-1.74872
8.79932
-8.68453
0.421422
31.5566
35.6817
-13.9352
0.124285
0.370139
-44.6129
-61.7801
-8.00479
51.3774
27.0312
54.6188
57.9855
43.7824
-41.0123
-1.39045
43.5173
-44.014
-0.0134362
5.53807
0.0558506
-27.9574
-16.685
-1.38035
1.70801
-8.74052
-0.002862
11.6369
-36.6957
41.5143
-44.593
11.5779
-1.77366
10.1133
1.46093
-5.83525
-64.3306
1.79135
-36.0992
-15.0745
11.9449
-63.5693
-52.0918
11.9634
-11.6543
-13.3166
21.8645
12.0024
-13.6904
26.2387
-59.5654
-31.5331
-43.2845
39.5446
-38.7525
5.01782
25.585
4.42328
-56.7286
-47.4324
0.0147484
-0.130798
49.1022
-2.78712
-37.5575
-2.00293
-16.6913
-63.8543
-26.3573
-28.453
2.01266
-28.7036
0.3426
-28.5158
14.4382
-21.9514
49.3279
-27.1241
20.5282
-31.6901
-26.7632
-20.5642
-45.161
33.3684
31.1358
-36.951
11.0208
24.7486
17.1591
6.23008
13.7291
-2.57142
-31.1591
-77.5644
-31.3225
15.7646
19.6495
-40.6951
23.5414
-29.9489
-15.5513
6.24461
5.98404
-33.3287
12.9584
-29.7746
14.3035
30.4878
32.5941
60.2623
29.495
-29.237
-58.2358
43.1258
12.9392
37.0028
-49.3034
-28.1958
51.0578
30.6159
-3.82579
22.2716
23.4
-44.2851
-31.1694
-53.6497
15.5655
11.2171
35.8894
-57.0499
44.0878
28.7021
13.269
37.1091
-30.8246
2.01793
2.67496
13.2189
-12.5204
-57.6049
-27.1858
45.3227
-5.11978
-22.5641
-48.9774
42.1602
46.6604
38.3206
-37.4481
-96.8899
45.0294
-31.5258
-57.5242
46.387
-1.44401
-9.6296
12.7895
0.969785
0.883094
-8.04736
43.9936
-26.5337
1.32839
1.23995
0.899024
1.45427
0.126679
4.57861
-33.7112
-4.99599
0.781779
-55.2184
-74.0748
-27.064
-19.5726
-0.695676
-17.6737
-30.2132
-43.3568
0.802991
-35.8014
-1.89175
-34.7058
-28.1142
43.2028
19.2427
26.6601
-0.0176935
4.71742
-71.1284
-25.3748
-9.33696
-50.13
0.0166013
-60.4961
-43.1395
-25.9941
-42.8423
-4.78356
16.3586
12.202
15.529
11.4367
43.1248
0.0903482
-0.0285625
0.138315
15.1018
-11.0408
-53.9747
-54.4218
16.5843
37.3721
24.7307
29.4982
0.00505474
-54.6066
-5.308
12.7803
4.24419
-0.64443
19.3399
7.63483
-14.4845
15.0908
-10.8088
-9.20063
-7.11028
17.793
36.4022
-31.6453
52.7023
-27.3188
19.4192
-64.8439
-49.8653
-9.92333
15.4599
33.7964
-9.03132
-38.4903
7.60511
14.8271
-18.366
-27.7359
16.0958
46.9937
59.0311
-48.1448
-0.550532
-58.6439
14.9362
1.37759
-9.68109
11.3134
7.6259
-16.0458
3.77282
8.39877
-42.5645
-8.86313
-26.7865
-15.8714
-28.1298
0.130821
12.5198
-64.6519
-17.4592
0.0229357
60.2034
13.1677
45.7586
11.9024
-20.347
17.3157
0.469195
33.6855
55.2929
15.8335
33.7876
-0.0814846
-47.0911
13.0166
12.8419
-4.09723
6.18795
-37.1931
-4.52762
-8.34771
13.1751
4.09451
-22.7712
5.40858
10.0075
-6.98239
-12.9966
-27.1627
-0.0476841
14.3682
-0.00577533
14.7909
-0.0315004
-20.5329
12.8733
-23.5707
12.2374
-30.2906
-0.0487709
33.9776
-8.96596
35.2212
-0.0126615
8.91118
-0.0217634
-0.0242784
-4.49508
7.78146
17.408
33.6432
30.7296
-29.6449
-53.7145
41.4547
24.1232
21.7846
5.12635
0.00573031
0.189861
-75.3964
43.0168
18.5076
14.4383
0.0918164
18.8598
0.15369
0.0932309
-22.0664
-24.0695
-38.5595
-34.9085
6.94046
2.11239
-5.15463
12.7654
42.9335
11.2158
-15.8145
11.1507
-6.61795
-78.1085
-16.001
0.333172
3.78194
-9.45691
-6.53843
-36.6961
13.165
-35.5651
23.2131
-76.0155
-31.9823
-28.8243
0.287379
22.021
2.4124
13.0856
34.936
13.1433
-11.1695
11.1609
12.0073
8.62737
13.0408
-40.5507
18.7691
3.41392
42.7962
12.451
-23.2421
13.2357
13.1543
-28.8609
-77.7884
-30.3456
-28.1325
-28.8367
9.66733
58.3624
-27.2732
-3.69853
11.507
19.286
-28.8773
0.636788
0.61169
11.1276
-23.7513
-28.3024
-48.2305
30.8193
-2.38416
1.17217
2.6166
-28.4949
27.9269
9.97928
-56.642
-26.0217
-27.156
59.5004
14.2769
10.8109
1.82574
14.3688
-55.9309
16.8547
11.3696
19.1089
-1.29651
17.5212
22.5523
44.0462
35.6609
10.7699
-17.3676
22.1687
-10.074
0.691792
0.602784
31.114
-31.935
-13.698
0.582367
55.0004
0.604262
-28.5719
30.6241
19.8428
38.5475
-27.1749
-20.7548
-28.034
31.0741
-12.4445
-32.4355
-6.84363
11.5731
1.82553
14.2328
0.681741
14.0131
0.435295
11.602
0.572339
-12.7269
0.329604
34.2155
2.24846
4.39193
-26.7903
8.92393
1.18424
10.2619
-6.62419
-35.529
-48.4465
-21.2934
4.70539
36.3555
1.25076
57.8544
-37.2186
58.225
51.5866
1.13316
4.45444
6.25599
1.0016
1.16086
-91.3779
10.1051
-28.1737
-11.0468
4.8176
0.931107
-27.2241
6.71675
6.66756
9.44586
6.84098
1.04829
-34.3859
-4.39389
1.09177
-16.685
1.53617
0.838656
1.29301
1.0304
-9.21072
7.46314
-57.261
0.797454
1.06667
-11.734
-9.30113
23.1331
-18.6816
12.4197
12.3068
-0.0558935
0.26034
-10.434
-17.3901
9.24769
0.209474
-2.79835
10.2514
0.122072
56.4766
0.109361
1.84097
0.164504
0.00539919
-30.1096
0.0118712
-27.2849
-8.10091
52.1923
4.62838
-0.755089
-2.94176
0.457862
-7.04706
-40.8077
1.8569
0.130467
7.3502
-27.4438
0.113783
8.16107
27.8814
42.0011
-11.3022
9.60281
9.05018
-43.7771
-25.042
0.0303574
47.355
-60.2844
-22.5074
-8.28141
48.9543
-9.97335
-10.9607
31.7382
-66.9372
-3.23362
0.145528
0.0381555
-0.0363837
0.0100766
-0.00177529
-29.7563
17.4514
-0.00584847
-54.6612
-0.479768
0.102482
-10.2565
3.15544
15.107
-47.5997
5.78802
15.7589
-27.2331
1.62611
15.5605
58.6033
14.9665
-45.0889
40.6437
17.4603
32.5781
0.378738
42.7283
0.577566
5.13849
23.8667
0.197086
-44.1873
-24.4774
0.702441
0.740294