/*--------------------------------*- C++ -*----------------------------------*\
| =========                 |                                                 |
| \\      /  F ield         | OpenFOAM: The Open Source CFD Toolbox           |
|  \\    /   O peration     | Version:  2506                                  |
|   \\  /    A nd           | Website:  www.openfoam.com                      |
|    \\/     M anipulation  |                                                 |
\*---------------------------------------------------------------------------*/
FoamFile
{
    version     2.0;
    format      ascii;
    arch        "LSB;label=32;scalar=64";
    class       surfaceScalarField;
    location    "0.0626374";
    object      phi;
}
// * * * * * * * * * * * * * * * * * * * * * * * * * * * * * * * * * * * * * //

dimensions      [0 3 -1 0 0 0 0];

oriented        oriented;

internalField   nonuniform List<scalar> 
92401
(
0.147857
-0.0968684
-0.00698342
-0.0440051
-0.062968
0.0603463
0.0386153
-0.0359936
0.0222693
-0.0397809
0.0430392
-0.0255275
0.00656551
-0.01306
0.0128874
-0.00639292
0.00134146
-0.000516178
-0.00589355
0.00506827
0.0194545
0.00974053
-0.0253444
-0.00385062
0.0058172
-0.00479644
0.0003207
0.0323289
-0.0255983
0.0127239
0.0480794
-0.0386428
0.032457
-0.0418936
0.000351586
-0.000797507
5.54731e-05
0.000390448
0.00469741
-0.0416594
0.0385696
0.0241791
0.0243928
-0.0871415
-0.0172908
0.0109867
-0.000183035
0.00648709
-0.03447
-0.0401384
-0.0168798
-0.0189795
0.0594034
-0.0235441
0.00218071
-0.0667026
0.0645219
-0.00246018
-0.00774582
0.00204677
0.0034669
0.00223214
-0.000963389
0.00153836
0.000230545
-0.000805512
-0.00491466
0.0107861
1.33008e-05
-0.00588472
0.0164179
-0.0057833
-0.00497383
-0.00566074
-0.0408544
0.00838763
0.037015
-0.00454823
-0.0393328
0.010903
-0.0547668
-0.0541943
-0.00274323
0.0550701
0.00186739
0.0907639
-0.0894178
0.0220233
-0.0233694
0.05019
0.0601399
-0.0713249
-0.039005
-0.0325891
0.0511566
-0.0579004
-0.00272917
-0.00102901
0.00400772
-0.000249544
0.0315062
-0.0635784
-0.000516902
0.0612446
-0.0603129
-0.0324225
0.0314908
0.0125771
-0.0173611
0.00130075
0.00348325
-0.0359391
0.106529
0.061749
-0.132339
-0.0846926
0.107525
0.00897372
-0.0318064
-0.131119
0.0323102
0.0296201
0.0691891
0.0148655
-0.0620282
0.0372895
0.00987319
0.060155
0.00927984
-0.0545693
-0.0443387
0.0101822
0.00248424
0.0316722
-0.0504141
-0.0411775
0.0654842
0.0261074
-0.033236
0.0405492
-0.0138865
0.00657335
-0.0201204
-0.102096
0.0653879
0.056828
-0.085978
0.0863042
-0.000326173
0.0350342
-0.00726171
-0.0774488
0.0496764
0.00366012
0.0250603
-0.0213721
-0.0073483
0.0268851
-0.0503984
0.0235134
0.000163326
-2.39323e-05
-0.000101948
-3.74453e-05
0.000732578
-0.0584519
0.0577193
-0.0685799
0.0429074
0.0624039
-0.0367314
0.0901265
-0.0254276
-0.0128026
-0.0518963
-0.000279056
0.0705103
0.000483344
-0.0707145
-0.0477144
0.073117
0.0398765
-0.0652792
0.000548168
0.00110634
-0.000377367
-0.00127714
-0.00221326
-0.00348345
0.000247078
0.00544964
-0.0382259
0.0839181
-0.0462255
0.000533298
0.000333639
-0.000808028
-0.000601195
0.00107558
-0.0546677
0.0542587
0.000408984
0.0755554
-0.00790847
-0.0185046
-0.0491423
-0.0985975
0.0912331
0.00482562
0.00253881
-0.0550411
0.0274387
0.011105
0.0164974
-0.00292348
-0.0151529
0.00765988
0.0104165
-0.0125718
0.0259139
0.0374425
-0.0507846
0.000939831
-0.000359812
-0.00024638
9.91144e-05
-5.38768e-05
0.000753043
-0.000798281
0.000665255
0.000200776
-0.000547904
-0.000318127
0.0041729
-0.00923073
0.00509064
-3.28166e-05
0.0679084
0.00506115
-0.0171993
-0.0557702
-0.0150923
-0.00471505
0.0105939
0.00921348
-0.040981
-0.0528947
-0.0547637
0.148639
0.00334246
-0.0341487
-0.00360528
0.0344116
-0.000360965
0.000554552
0.000525577
-0.000719164
0.00442913
0.00447401
-0.0281079
0.0192047
0.0187946
-0.00657616
-0.00957044
-0.00264797
0.0416915
-0.0764838
-0.0273982
0.0621905
-0.0290939
-0.00317644
0.0103236
0.0219466
0.0122876
0.00817494
0.0130629
-0.0335254
-0.000475528
-0.000345707
8.32916e-06
0.000812905
0.0252308
-0.00973247
0.0365642
-0.000767202
0.000464645
-0.000860709
0.00116327
0.044207
-0.0330861
-0.0682333
0.0571125
0.000506369
-0.000295117
-0.000211252
-0.00111282
-2.7111e-06
0.000566972
0.000548564
0.000716499
-0.000204162
0.000408849
-0.000921186
0.0226892
-0.0229069
-0.0624324
0.0626501
0.00111779
-0.0126958
0.00282772
0.00875034
0.043012
0.0585772
0.0185155
-0.120105
-0.114437
0.0267337
0.126406
-0.0387019
-0.00548047
-0.0444295
0.00375094
0.046159
0.0544875
-0.0297778
0.0259038
-0.0506135
0.0255795
-0.00334507
-0.152566
0.130331
0.00805274
0.0168395
-0.028439
0.00354678
0.000691195
-0.000215375
-0.000737089
0.000261269
0.0380601
0.012493
-0.00138039
-0.0491728
-0.00256882
0.084108
-0.08553
0.00399083
-0.0181508
0.0497133
-0.11608
0.0845172
0.0423773
0.00530312
-0.0531609
0.0425022
-0.000124908
-0.00233358
-0.029165
0.0415926
-0.0100939
0.0709006
0.0171274
-0.0315086
-0.0565194
0.130314
-0.143767
-0.0291507
0.0426039
-0.0151675
-0.0454702
0.0583041
-0.0824577
-0.000592502
0.0830502
0.00109762
-0.0978673
0.163174
-0.0664045
-0.00253285
0.00339889
-0.000619933
-0.000246102
0.0895316
-0.148773
0.0306113
0.0286304
0.00153827
-0.000409177
0.000892649
-0.00202175
-0.0871343
0.142875
-0.103997
0.0482569
0.0307212
0.0029729
-0.0410063
0.00731214
0.0863691
-0.0153265
-0.0818716
0.010829
0.00573158
0.0315624
-0.0524615
0.026801
0.0269374
-0.12327
0.0695311
0.0870791
0.113093
-0.0800402
-0.120132
0.00124171
-1.53033e-05
-0.00163941
0.000413004
-0.0937099
-0.0289171
0.111093
0.0115342
0.00116826
-0.00602969
0.0160411
-0.0111797
-0.0140156
-0.0338772
0.0580013
-0.0101085
-0.00558851
0.0172253
-0.014475
0.00283823
0.000395402
-0.000684101
-0.000597004
0.000885703
0.0219433
-0.0261745
-0.00135733
-0.0018836
-0.000701832
0.00154329
0.00104214
-0.0576967
0.0603669
-0.00267014
-0.00258385
-0.00629476
-0.00207695
0.0109556
-0.0366869
0.0282047
-0.0055334
0.0183378
-0.047234
-0.0557964
-0.051322
0.041581
0.0983399
-0.0885988
-0.00762371
-0.00177314
0.00507156
0.0043253
0.046914
0.0109857
0.00234939
-0.0602491
0.000473116
-0.00947716
0.00694088
0.00206317
-0.0399226
-0.0538063
0.0115822
0.0821467
0.0647072
-0.0388768
0.0266298
-0.0524602
-0.00969502
0.0598889
-0.0587947
0.00860077
-0.0588545
-0.0339235
0.00778322
0.0849948
0.0162307
0.00500187
-0.0330131
0.0117805
0.0616604
-0.0623919
0.000731586
0.00185433
0.00178141
-0.00154363
-0.00209211
0.0405937
-0.0436237
0.00303006
-0.0584734
-0.0350484
0.106774
-0.0132527
0.000848274
-0.00991286
0.00979408
-0.000729497
0.00283831
0.00594616
0.00270219
-0.0114867
0.00179183
0.00652169
-0.0078404
-0.0246448
-0.0579625
-0.0088828
0.0914901
0.0259103
-0.00785459
0.0181749
-0.0362306
-0.0839989
0.0925503
-0.101271
0.0927191
0.0790256
-0.0513783
-0.0276473
0.00156872
-0.0346215
-0.0101558
0.0432086
0.00826782
-0.00562303
-0.0094831
0.0068383
0.0466365
-0.0703543
-0.0621803
0.0858981
0.0740253
-0.0647093
0.0293647
-0.0386806
-0.0136237
-0.00843721
0.0325888
-0.0105279
-0.0581739
-0.086777
0.0572297
0.0877212
-0.0416202
0.0543496
-0.0111607
0.0976973
-0.0482797
-0.0494176
-0.00458834
0.0153819
-0.00252575
0.00101102
0.000685319
-0.00071574
-0.000980595
0.0473412
-0.0157962
-0.00524632
-0.0262986
0.00366953
-0.00190195
-0.00047087
-0.00129671
0.00541474
-0.0102142
0.00875463
-0.0039552
0.0723667
-0.0423051
0.0257936
-0.0558553
0.00884667
-0.000389266
-0.00687338
-0.00158403
0.0016722
-0.000605229
-0.00106697
-0.065455
0.0649503
0.000504731
0.0121382
0.00545337
-0.0967568
0.0791653
-0.0117048
0.0143025
-0.0102941
0.00769645
-0.0727668
0.0161528
0.0834252
-0.0268112
0.0183594
-0.0973569
0.0755937
0.00340373
-0.0526889
0.0430615
-0.00835522
0.0179826
0.00884929
-0.00181953
-0.00301038
-0.00401938
8.48319e-05
-0.000844147
0.000759315
0.0284266
0.170711
-0.245533
0.0463954
0.000317445
-7.64735e-05
-0.0247837
0.060308
-0.0527907
0.0172664
-1.94467e-05
0.00525019
-0.00446909
-0.000761657
0.00016097
0.00153575
-0.00190088
-0.0709098
0.000666536
0.0702432
-0.0323763
0.11377
-0.0477428
-0.0336506
0.000511843
0.000520906
0.00950207
-0.0105348
0.000595638
0.0911229
-0.0917185
0.00240087
-0.00163694
-0.0012168
0.000452864
0.00137821
0.000697212
-0.000710343
-0.00136508
-0.036677
-0.00157945
0.0324128
0.0188356
-0.0638202
-0.0724457
-0.0163105
0.00662519
0.082131
-0.000623286
0.0020015
-0.10025
-0.0420514
0.112869
0.029433
0.0272419
0.170199
-0.0849016
-0.0577526
-0.0275449
-0.0182113
0.119119
-0.0434731
-0.057435
0.0397363
0.0299413
0.0385884
-0.108266
0.104718
-0.248914
0.10947
0.0347262
0.00164058
-0.00146339
-0.001388
0.00121081
-0.0122778
-0.035462
0.0555932
-0.00785341
0.0259038
0.0403598
-0.0261889
-0.0400746
-0.0353573
-0.0258005
-0.0197673
0.0809251
-0.0533665
-0.0139449
0.0550337
0.00110835
-0.0121126
0.00910341
0.00190086
0.0553718
-0.0284438
-0.0508465
0.0239186
-0.0893981
0.105364
-0.0501448
0.0341794
0.0166137
-0.0233153
0.00692003
-0.000218455
0.0517858
-0.0600541
0.06364
-0.0571218
-0.00348184
-0.0137727
0.0743763
-0.00536106
-0.0131093
0.00245516
0.0160152
0.000270208
0.0585732
-0.0580273
-0.000816173
0.135205
-0.0537662
-0.00254444
-0.0788947
0.0595614
-0.00750482
-0.0485994
-0.00345713
0.0513036
-0.0215302
-0.0720859
0.0423125
-0.00993935
-0.00181308
0.015021
-0.00326852
0.00539331
-0.00166634
-0.00478503
0.00105806
0.00257462
-0.0439968
0.0405796
0.000842633
-0.00080234
-0.0862233
0.00344139
0.0196087
-0.0129344
-0.0631755
0.046588
0.0165875
-0.0595489
-0.0170399
0.0109798
0.0656089
-0.100093
-0.000781455
0.10372
-0.00284565
0.00370142
0.0236512
-0.0127664
-0.0145861
-0.0713089
0.14977
-0.0659934
-0.012468
-0.00476509
0.0133259
0.0225727
-0.0311335
-0.0518725
0.0997019
0.0389652
-0.0867946
0.0290366
0.00165428
-0.0145795
-0.0161114
-0.0362287
0.0378804
0.000922889
-0.00489169
0.00743539
-0.0100458
0.00750212
-0.000291429
-0.00455203
0.0102582
0.0359545
0.0379055
-0.07386
0.00109658
-0.00190187
4.49671e-05
0.000760328
0.019778
0.00831977
-0.0190603
-0.00903749
0.0223985
0.0112759
-0.00204211
-0.0316323
-0.0523692
-0.00173369
0.0069618
0.047141
-0.000168501
-0.0438283
-0.000978387
0.000554248
0.00152072
-0.0517876
0.0369094
0.0520061
-0.0371279
-0.0449207
0.0302802
0.0180111
-0.00337063
0.00134924
-0.0035056
-0.00990562
0.012062
-0.00956907
-0.0050816
-0.00314632
0.017797
-0.0435564
-0.00485053
0.0121783
0.0724723
0.0396946
-0.0720844
-0.0400825
-0.045027
-0.000360222
0.0453872
0.0861934
-0.04868
0.0595869
0.00365106
-0.00767749
-0.0372339
0.0412603
0.0359916
0.0113569
-0.0053856
-0.0419629
-0.000480493
0.000330948
0.00101727
-0.000867726
-0.0168262
-0.044992
0.0618183
-0.000238369
-0.00135495
-0.00416449
0.030809
-0.0229935
0.00616578
0.0278613
-0.0417046
0.0978924
-0.0906673
-0.00202002
-0.00520503
-0.0214625
0.101356
-0.0186048
-0.0612882
-0.0322458
0.0068163
0.0142871
0.0111424
-0.039245
0.0360179
0.0140376
-0.0108105
0.0325698
-0.0251262
0.00134315
-0.00878677
0.0190676
0.0721854
-0.122085
0.0308325
0.0762974
-0.0752721
-0.0243139
0.0232885
-0.143386
0.00209731
0.00366508
0.137623
0.0305774
0.0123587
-0.0412722
-0.00166388
0.0398429
-0.057792
0.0204041
-0.00245499
0.00213713
-0.00122871
0.000246514
-0.00115494
-0.0145997
-0.00113662
0.073398
-0.0416422
0.0188071
-0.050563
-0.0118652
0.0477592
0.000407099
-0.0363011
0.00519385
0.0956585
-0.0930542
-0.00779823
0.0494421
-0.0989656
0.0580594
-0.00853595
-0.0483328
-0.000364844
0.0368325
0.0151088
-0.0035577
0.00864863
-0.0201997
-0.023422
0.0477925
-0.0133113
-0.0110592
-0.0483223
-1.04714e-05
-0.00553756
-0.122868
0.175876
-0.0474705
0.0101394
0.00976027
-0.0635809
0.0436812
0.0494849
0.00549352
-0.044839
-0.0129162
0.00673838
-0.00362223
0.00980001
-0.0567926
-0.000875373
0.057668
0.110451
0.0444552
-0.136762
-0.0181441
-0.0092752
0.000312001
-0.00395296
0.0185418
-0.11618
-0.0224916
0.12013
0.0126491
0.0666243
-0.0695131
0.00283571
-0.0558213
-0.0105953
0.000519766
0.00191421
-0.00267235
0.00203627
-0.0017923
0.000275799
-0.0506826
0.0260582
0.0738019
-0.0491775
-0.00193842
0.000974737
0.000960977
-0.034226
-0.00772542
0.0447872
0.000283046
-0.000307256
0.000353038
-0.00090483
0.000122806
0.000428987
0.000210109
0.00210921
-0.00180086
0.00144422
0.000132895
0.000223738
0.00038954
-0.000207364
0.000757655
0.105832
0.121755
-0.0797301
0.000133736
-0.000793125
0.00104893
-0.0528749
0.0527608
0.000114026
-0.0105933
0.0760776
-0.0713861
0.00590184
0.00174083
-0.01964
0.00525309
0.012646
-0.0603326
-0.00313554
-0.0172407
0.00400392
0.0475471
-0.0343103
-0.0633502
-0.00271081
0.066061
-0.00680244
-0.016692
-0.0127809
0.0362753
0.000327758
-0.000383404
-0.000534198
0.000589844
-0.00394099
-0.00742451
0.00909038
0.00227512
0.0549848
0.043906
-0.0175078
0.0482606
0.0895229
-0.0380643
-0.0997193
-0.0127086
-0.044313
-0.019261
0.0187589
-0.0542494
0.0547515
-0.0110388
0.0290313
-0.00615874
-0.0118337
-0.0150752
-0.0135197
0.0134951
0.0150998
0.096918
-0.094913
0.0189219
-0.0209269
0.00117233
-0.00437806
-0.000419159
0.00362489
0.00116246
-0.0665367
0.0653743
-0.07246
0.00338417
0.0666237
0.00245216
0.0389411
0.0383471
-0.0772882
0.0190948
-0.0600398
0.0282364
0.00202932
-0.00115863
0.0005079
-0.00137858
0.000223863
-0.000240259
0.00121085
-0.00119445
-8.45495e-05
0.000436485
-0.00100781
0.000655876
0.0637756
0.0565689
-0.0390614
-0.0812831
0.00586074
-0.086979
0.0824069
-0.0012887
-0.0137074
0.000569623
0.026557
-0.0134192
0.0535617
-0.0526969
0.019023
-0.0198878
-0.00052731
0.0013893
-0.000695431
-0.000166558
0.0203283
0.0478825
-0.049116
-0.0469631
-0.00172608
0.000973805
0.00151964
-0.000767362
0.00125403
0.0804145
-0.0816686
-0.049972
-0.0151722
-0.0222086
0.0873528
-0.0499979
2.58737e-05
0.0116593
0.016759
0.0167362
-0.0451545
0.000537944
-0.00276493
0.000405654
0.00182133
-0.00175841
-0.000571536
0.000603864
-0.10607
-0.00915264
-0.0429516
0.158174
-0.00968647
0.00715768
0.137143
-0.134615
-0.0386059
0.0419286
-0.0646889
0.0613662
-0.0793684
0.0791298
0.000238581
0.00128039
-0.0500014
-0.0305345
0.0671801
0.0193311
-0.00600257
-0.0805086
0.0506028
0.0947489
-0.156945
0.0115935
0.0415483
0.0159288
0.0331978
-0.0906749
0.104076
-0.108484
0.0433498
-0.00358831
0.0132241
-0.0119956
0.00235979
-0.00158251
-9.35925e-05
-0.000613405
0.00228951
-0.00288267
-0.00564522
0.00171802
0.00680987
0.0607237
-0.00611794
-0.0182868
-0.0363189
-0.056745
0.0282168
0.0285282
-0.0927808
-0.00774688
0.0120756
0.000629533
-0.000544944
-0.0016671
-0.11803
0.0265764
0.00513266
0.0863207
0.001331
-0.0535206
-0.0101993
0.0623889
0.0455135
0.0292631
-0.101438
0.026661
0.0383226
-0.0434811
-0.0190074
0.024166
0.0482481
-0.0600939
0.0501684
0.031403
-0.0561459
0.0496052
-0.0248623
0.0346873
-0.0360233
0.000219296
0.00111666
0.0161405
-0.142073
0.0912008
0.0347313
0.0014297
-0.0617093
-0.00384968
0.0522373
0.000317333
-0.107596
-0.0338894
-0.00873072
0.00681377
0.0358063
-0.0486576
0.044396
0.050057
-0.0457954
-0.0424644
0.082233
-0.0397686
0.0104197
-0.101963
0.0480619
-0.0170032
0.00751301
0.024569
-0.0150789
-0.0883503
0.0937822
0.0363411
-0.041773
0.0585981
0.0328194
-0.0828117
-0.00860585
-0.0462249
0.141517
0.00413672
-0.0994288
-0.00054593
0.00294802
0.00362803
-0.00603013
0.0536533
-0.0719667
0.0829392
-0.0646258
0.00796071
-0.0391484
-0.00827964
0.0394673
-0.0433722
0.0313881
0.103197
-0.0912127
-0.0499893
-0.0264435
0.0528674
0.0235654
-0.00964528
-0.000407302
0.00620941
0.00384317
-0.010896
0.0232689
-0.0183391
0.00596607
4.42827e-05
0.0739716
-0.0740159
0.014905
-0.0440704
-0.0194922
0.0481717
-0.0342104
-0.000724314
-0.0132371
0.00150814
-0.0262973
-0.0207198
0.0455089
0.034616
-0.0345509
-6.50278e-05
0.0611832
-0.0417158
0.0643042
-0.0837716
-0.0993037
0.0975311
0.0986906
4.76591e-05
-0.0108746
-0.00176769
0.0125946
0.0495209
-0.000216934
1.03844e-05
0.000203026
3.52409e-06
-0.000439066
0.0482412
-0.111334
0.063532
-0.00858958
-0.000626672
0.00498283
0.00423342
0.0268863
0.00996047
-0.0368468
0.00120533
-0.000938384
-0.00885653
-0.0333434
-0.0365209
0.011391
0.0572458
0.00100857
-0.0582544
0.0728443
-0.0441348
-0.0511889
0.0224795
0.00161045
-0.025207
-0.0207421
0.0693859
0.0430312
-0.0395728
-0.00805498
0.00930797
0.133585
-0.119524
0.0365005
-0.0505614
-0.0450177
0.0364889
0.0218892
-0.0133605
-0.0524852
0.0525015
-1.62777e-05
-0.0477776
0.029645
0.0107516
-0.0468833
-0.0108561
0.0469878
-0.0022688
0.161076
-0.160934
0.00212668
0.107652
0.015938
-0.016065
0.0507718
0.00859463
-0.051228
-0.00813846
-0.0145115
0.0046983
0.0107004
-0.000887216
-0.00956464
-0.00538522
0.00471209
0.0102378
0.0659202
-0.0376107
-0.0525872
0.0242778
0.0295933
-0.0154438
0.0240269
-0.0381763
0.0266925
-0.0934743
0.0895065
-0.0227247
-0.00588918
0.00045322
-0.00907549
-0.0943641
0.106988
-0.0230137
0.0103901
-0.0114331
0.0480386
0.0139796
-0.0505851
-0.00417367
-0.000564615
0.00324256
0.00149573
0.0839817
-0.00472585
0.0507262
-0.129982
4.25638e-05
-0.000692012
-2.73257e-05
0.000676774
-0.0669363
0.0588023
0.0741533
-0.0660193
0.0033383
0.00085084
-0.00226804
-0.0019211
-0.0778698
0.0756204
0.00224941
0.0631043
-0.0598379
-0.00326637
0.0605655
-0.000751691
-0.0598138
-0.010719
0.123544
-0.000610308
-0.112215
0.0099052
-0.0311373
0.0328914
-0.0238245
2.57855e-06
-0.0562038
-0.0675641
0.0115716
0.0664466
-0.010454
-0.0133009
-0.00215296
0.000176571
-0.000484978
-4.34914e-05
0.000351898
0.00121789
-9.89332e-05
-0.000264176
-0.000854779
-0.0634629
0.0077651
-0.00146757
0.0571654
0.000379497
-0.00547044
0.00192548
0.00316546
0.0122164
-0.0146936
-3.53281e-05
0.00251258
0.0082105
-0.00674393
0.0107498
0.0557234
-0.00947754
-0.0227272
-0.0235187
0.0361043
-0.00530933
-0.0363444
0.00554944
8.90048e-05
0.0669335
-0.000302904
-0.0667196
0.00763451
-0.0715593
0.0191978
0.044727
-0.0431803
-0.0317177
0.0416451
0.0332529
-0.0352853
0.021391
-0.0908869
0.104781
-0.00094937
0.0152624
-0.00783647
-0.00647656
0.0490505
-0.0588773
0.047339
-0.0375123
-0.0625701
-0.00679327
-0.00808425
0.000909501
-0.000276953
0.0043534
-0.00498595
-0.0120927
-0.00276472
0.00175383
0.0131036
-0.00817117
-0.00930944
0.0108399
0.00664068
-0.000140418
-0.00223438
0.00144614
0.000928653
-0.000324625
0.000407397
-8.27728e-05
0.00177453
-0.073582
-0.0273391
0.0991466
-0.000148628
-3.53906e-05
-0.00145274
0.00163676
0.000108194
-0.000328959
-0.00010386
0.00237596
-0.0657262
-7.25762e-05
-8.88893e-05
0.000568863
0.000608435
0.000160783
-0.000387618
-0.0003816
-0.0282258
0.063395
0.078362
-0.113531
-0.00918191
-0.00222154
0.00726343
0.00414002
-0.01461
-0.000309865
0.00573794
-0.00531508
0.00550009
0.0132017
-0.0133867
-0.000429474
0.000633605
-0.000276708
-0.0662545
0.066956
-0.000701495
0.0304141
0.0471476
-0.0600544
-0.0175073
0.0114134
-0.0754224
-0.0212491
0.0852581
-0.013576
0.00275514
0.00550576
-0.00456349
-0.00642698
-0.00258552
-0.0165974
0.0584735
0.0128982
-0.0547743
0.0690977
0.00481387
-0.0538165
-0.0200951
0.000212582
0.000419168
-0.000746093
0.000114342
-8.72616e-05
-0.000234018
-0.00267069
-0.00117688
-0.00135577
0.00520334
0.0650937
-0.0459298
0.0120489
-0.0312128
-0.000841099
-0.00268709
0.00139139
0.0021368
-0.0167676
0.0100561
-0.00307979
0.00979128
0.00148992
-0.101466
0.101204
-0.00122823
0.00314076
0.000788798
-0.0105977
0.00666815
0.0102809
-0.0107893
0.00157301
-0.00106459
0.00991088
0.00400367
-0.0107738
0.0367795
0.0562719
-0.0279577
-0.0272763
0.054804
0.0281912
-0.0557189
0.0277546
-0.0550309
-0.000700927
0.000519334
-0.0330544
0.0124734
-0.0100473
0.0792168
0.0233844
0.00755534
0.0695772
-0.0542491
0.0979896
-0.113318
0.00484057
0.0926652
-0.0975057
-0.00695559
-0.00717447
0.0135428
0.000587293
-0.0343056
-0.0868636
0.0275587
0.0936105
0.0218767
0.0616326
-0.0242473
-0.0592621
-0.0235266
0.113245
-0.0529391
-0.0418492
0.0448975
0.0517557
-0.0558031
0.055809
-5.8327e-06
-0.0390716
0.0367279
0.00234373
0.0396487
-0.0780721
0.0727685
-0.034345
0.0674769
-0.0840743
-0.00990821
-0.00811523
0.0110678
0.000808309
0.000635048
-0.000538802
-0.000904555
-0.00577386
-0.0426349
-0.00739434
0.0012439
0.00147511
-0.00260546
-0.000113548
-0.0574104
0.0518771
0.0855279
-0.0799946
0.0359811
-0.0335387
-0.00244236
0.012543
0.0177337
-0.0125006
-0.0177761
0.00420739
-0.000420843
0.00219487
-0.00598141
-0.0644039
-0.000646486
0.0200799
0.0449705
-0.00294009
0.00667905
0.000468421
0.0389976
-0.109391
0.104711
-0.0343178
0.0460353
0.0134462
-0.0593705
-0.00011099
-0.00364792
0.00696933
0.00168402
-0.00500544
0.000136718
0.0606013
-0.060738
0.0380424
0.00646191
0.0151422
-0.0596465
0.0042919
-0.00732949
0.00261674
-0.183526
0.028045
0.162951
-0.00747054
0.0397666
-0.0109903
-0.0287763
-0.00125693
-0.00152334
-0.00116253
0.0039428
-0.0419877
0.0459027
0.124851
-0.128766
-0.00190324
0.000687058
-0.00194357
0.00315974
0.0915631
-0.00228677
-0.043241
0.000498766
-0.00124745
0.00204889
-0.0013002
-0.0188845
-0.116469
0.0162434
0.11911
0.00374509
0.0524006
-0.00409594
-0.0520497
0.0487283
-0.0704083
0.060556
-0.038876
0.0319636
-0.0365306
0.0486306
-0.0440636
0.00837932
-0.00159155
0.00571619
-0.012504
0.00130801
-0.0443889
0.053317
-0.0537101
-0.0361374
0.0972701
0.0177332
-0.0244528
-0.0905505
0.046868
0.0184274
-0.134042
0.0687469
-0.0018439
-0.00865318
0.0063322
0.00416488
0.0278276
-0.0499285
-0.0032435
0.0289003
-0.026671
0.00736896
-0.00586979
5.5193e-05
-0.00155436
-0.0862554
0.00269158
-0.000154582
0.0717895
-0.149764
0.0781286
-0.0273496
-0.0875085
0.0411685
0.0736895
-0.0727373
0.0204607
0.00309226
0.0491843
-0.0432876
0.0290578
0.0103791
-0.0827633
0.0956753
-0.0129119
-0.0210598
-0.00948478
0.117868
-0.0873235
-0.00362108
-0.00384492
0.00610318
0.00136282
-0.0258026
0.0591813
0.0406465
-0.0721684
0.0280335
-0.00080669
-0.000416583
-0.00103481
0.00225808
0.0466963
-0.0491698
0.0547109
-0.0377119
-0.00716129
-0.0449793
-0.123715
0.0477838
0.0759316
-0.0429207
-0.0325212
0.0276643
0.00306089
-0.00220562
0.000821347
-0.00167662
0.00285293
-0.000419887
0.000627849
-0.0863888
0.00357672
0.0828121
0.0614493
0.012835
-0.12274
0.0484555
-0.0710165
0.000422912
0.0705935
0.00136123
-0.0016981
0.00839512
-0.00805825
0.0484872
0.156396
-0.226424
0.0215402
0.00185901
-0.00232923
0.00140947
-0.00093925
-0.0916435
0.0649412
0.0265321
0.000170186
-0.00097708
-0.000360345
0.00237071
-0.00103329
-0.000622082
0.00836433
-0.0085004
0.000758153
0.00773109
0.00789832
-0.0148625
-0.000766947
0.0408496
0.012503
0.00304323
-0.00277624
0.00159203
-0.098524
0.105197
0.00741337
-0.0140868
0.0121996
-0.0669696
-0.023228
0.0779979
0.00210624
-0.00478594
0.0878391
-0.0851594
-0.0406153
-0.0368351
0.0866001
-0.00914965
-0.0407126
0.0245812
0.0405838
-0.0244525
0.0535929
0.0206284
-0.0721045
-0.00211672
-0.00133636
0.000167186
0.00151024
-0.00034107
-0.123609
-0.0431705
0.0395465
0.127233
0.0484397
-0.0376881
-0.031882
-0.0376092
-0.0309596
0.100451
-0.00185497
0.00427576
0.000428891
-0.00284968
-0.0310418
-0.0803548
0.0285768
0.0828199
-0.029697
-0.028605
0.02059
-0.000754624
-0.00330596
-0.001648
0.00316644
-0.00379533
0.00227689
-0.00578005
0.005593
0.0253911
-0.0773193
-0.0853041
0.137232
-0.000520003
-0.000162836
0.000348592
0.000334247
0.0572642
-0.0603399
0.0480515
-0.0449758
-0.01503
0.0443497
-0.00770996
-0.0216097
0.0868248
-0.0862227
-0.0187455
0.0181434
0.0265347
0.0224143
-0.0635752
0.0146262
-0.1273
0.0738957
0.0183709
0.0350335
-0.00531118
0.00317661
8.86247e-05
0.00204594
-0.0080839
0.00960976
-0.000164632
-0.0134706
-0.00372663
0.0180378
-0.000840574
-0.0621015
-0.00495902
0.0143012
0.0527593
-0.00840161
0.103027
-0.00513131
-0.0894943
0.00904405
-0.0472835
0.0806654
-0.042426
-0.00150936
0.004187
-0.00154291
-0.00113473
-0.0151514
0.000329758
-0.00212483
0.0169465
-0.106238
0.00410579
0.0133048
0.088827
-3.25377e-05
-0.000310385
0.000566766
-0.000223843
0.0373471
0.00799622
0.0271289
-0.00498842
0.0463008
0.0527247
-0.0940371
-0.000192126
0.000462095
-0.000302507
-0.000530503
0.00218653
-0.00148372
-0.000172305
0.0173985
0.111146
-0.047887
-0.080657
-0.00025029
-6.00956e-05
0.000152686
-0.000402976
0.0618177
0.0169576
-0.0921389
0.0133636
-0.157169
0.0860344
0.0771905
-0.00605544
-0.018084
0.000184294
-0.051638
0.0695377
0.024908
-0.0146175
0.0167759
-0.0270665
-0.0664606
-0.0231232
0.0895838
-0.0780424
0.0386298
0.0394126
-0.00191724
-0.000368081
0.000653927
0.00163139
-0.0379456
0.0410147
0.00773893
-0.010808
0.0465362
-0.0544919
0.00795577
-0.0606286
0.0337071
0.0450407
-0.0181192
0.00452899
-0.00272776
-0.00163654
-0.000164694
-0.00325637
-0.00249174
0.000436924
-0.0422084
-0.0417905
0.0468033
0.0141432
0.00262246
-0.063569
0.00219886
-1.83959e-05
-0.0018519
-0.000328565
0.00413325
0.0043395
0.00152832
-0.0100011
0.00709005
0.0226396
-0.0406889
0.0109592
-0.019051
-0.0154924
-0.00924138
0.0437848
-0.075229
-0.00978629
0.029226
0.0557894
-0.00181042
0.0151364
-0.00830875
-0.0050172
-0.0529698
0.000575198
0.0333436
-0.000208962
0.0253119
-0.135774
0.126302
-0.01584
0.0285818
-0.0345392
-0.0517393
-0.0271119
0.0548665
-0.000191242
0.0403405
0.00349745
-0.0436467
-0.0551469
-0.0599624
0.115109
-0.00320126
-0.00102339
-0.00177557
0.00600022
0.00317238
-0.00477211
0.00170421
-0.00010448
0.0367556
-0.00629373
-0.0281223
-0.00233959
-0.00326497
-0.00229792
0.00236163
0.00364483
-0.0109358
0.0660145
-0.0587235
0.0761241
-0.000255451
0.027436
0.00969736
-0.00679424
-0.0303391
0.0586189
-0.000822521
-0.0577963
-0.0530695
0.113701
-0.0284237
0.0596887
0.020094
-0.0513589
-0.016508
-0.0256945
0.0176316
0.0245709
0.00310501
0.00376908
0.000853035
-0.00772713
-0.0342173
-0.0379716
0.0993388
-0.0271499
0.0448652
-0.0364576
-0.000458342
-0.00794928
-0.0500011
0.11579
-0.0510195
-0.0147695
-0.00136899
0.00164595
-0.000101328
-0.000175633
-0.000615046
0.0215376
-0.00480902
-0.0161135
0.00303844
0.00374839
0.000233403
-0.00702023
-0.000282435
-4.03126e-05
1.1466e-05
0.000311281
3.8409e-05
9.65424e-06
-0.000330498
-0.00918453
0.0230774
0.0702895
-0.0841823
0.0800336
-0.0806388
0.000605171
0.000298462
-0.000306748
8.28581e-06
-0.0127591
0.000976681
0.00230436
-0.00133816
-0.00194287
-0.00857361
-0.00578757
0.00659023
0.00777095
-0.0557579
0.0273342
0.000280072
0.00024349
-0.000794878
0.000271316
0.0336013
0.0550169
-0.0351114
-0.0535068
0.0118696
0.159255
-0.17979
0.00866558
0.0582986
0.0633036
-0.0619135
0.0019727
-0.0135757
-0.00181461
0.0134176
-0.0334041
-0.0301126
0.0635167
0.0311186
-0.0645227
-0.0543296
-0.044864
-0.0654807
0.164674
0.0498593
-0.055695
0.00583562
-0.0726916
0.13457
-0.0713563
0.032978
-0.0300772
0.0859252
-0.00358094
-0.0689789
-0.0133653
0.069864
-0.0703058
0.011488
-0.0110462
9.93135e-05
-0.00623474
0.00724323
-0.0011078
0.000993696
-0.00478898
0.00675874
-0.00296346
-0.000231862
0.000205746
0.00067356
-0.000647444
0.0222839
0.0232648
-0.0338729
-0.0116757
-0.00537873
-0.00498224
0.00623505
0.00412592
-0.0108199
0.032116
-0.0429358
0.0216397
0.00112235
-0.00860073
0.0107667
-0.00328832
0.0485486
-0.0041524
-0.0443962
0.0380503
0.0357332
-0.126565
0.0527812
-0.0978995
0.0599819
0.0759679
0.0329816
-0.0997625
-0.0469187
0.107887
-0.0370777
-0.0238907
0.00165557
0.00914946
-0.0124317
0.00162671
0.0275163
-0.00249942
-0.0250169
-0.0305182
0.0435814
-0.00381448
0.020226
-0.0314868
0.000976607
-0.000185271
0.0010904
-0.00188174
0.0117366
-0.0384076
-0.000728363
0.000188613
0.000397362
0.000142388
0.00278113
-0.00038814
0.00105897
-0.00345196
-0.000798891
-0.00244013
-0.0782841
-0.0127609
0.00146946
-0.0119059
0.0231973
0.0201177
-0.0903842
0.0207329
0.0495335
-0.00336586
0.0580368
-0.08184
0.027169
0.000825606
-0.000521345
0.000481823
-0.000786083
0.0792382
0.0125769
0.00229495
-0.0941101
-0.000502172
-0.000798733
0.00149131
-0.000190406
0.00491816
-0.000905602
-0.0691175
0.065105
0.00664237
-0.00109462
-0.00497905
-0.000568708
0.0064524
0.00460496
-0.00364749
-0.00740986
-0.110386
0.0964022
-0.0875333
0.101517
-0.0542301
0.109495
-0.0552651
0.00226035
-0.0437212
0.00875767
0.0327032
0.00370868
-0.00352733
0.000701588
-0.000882934
0.049363
-0.00285871
0.00125484
-0.129579
0.00254431
0.0739656
-0.0339388
6.15656e-05
0.00103037
0.0319926
-0.0256484
-0.00737452
0.078182
-0.0307737
0.0342087
0.00411929
-0.00507908
0.000121861
0.000837931
0.0341541
0.023649
-0.0755167
0.0177136
-1.3953e-06
-6.60218e-05
2.63219e-06
6.47849e-05
-0.000459304
0.00150009
0.00541161
0.000215389
-0.0080281
0.00649886
0.00564853
0.0746252
0.0407465
-0.0370561
-0.0783156
-0.131073
0.141475
-0.00906076
-0.0013413
0.031546
-0.0326166
0.00107054
-0.0366008
-2.46008e-05
0.000341679
-0.00319311
-0.00222765
0.014675
0.206748
-0.158935
-0.0624887
0.0293261
-0.0610493
-0.0179746
0.0496978
-0.00308146
0.0390461
-0.00101325
-0.0853466
0.0473138
-0.023114
0.0101622
-0.0380639
0.0476242
0.0462964
-0.0558567
-0.0667762
0.0891401
-0.151586
0.129222
-0.0001979
4.68672e-05
-0.00145322
0.00160426
0.000184717
0.00231083
-0.000627217
-0.00186833
0.0434485
-0.0146637
0.0381867
-0.0669714
-0.00355993
0.000330291
0.00343591
-0.000206274
-0.0118679
0.0105791
-0.036775
0.0121159
-0.0463037
0.00593272
-0.00323826
0.018499
-0.0211935
-0.136524
0.0185744
0.128647
-0.0106968
0.0325314
-0.0223288
-0.0152265
0.00502388
0.0345108
-0.0529688
0.00659009
0.00453961
0.00757781
0.0519446
-0.064062
0.0246986
-0.0070689
-0.0251225
0.0074928
-0.0793023
-0.00857192
0.0151074
0.00124821
-0.00111672
5.32208e-05
0.000132359
0.00259465
0.00155782
-0.00428483
0.0184076
-0.0320663
0.0383573
0.0179825
-0.143343
-0.0229744
0.148334
-0.113093
-0.0150167
0.0258609
0.102248
0.0571861
-0.0352964
0.0288583
-0.050748
0.111238
-0.00608104
0.00329802
-0.108455
-0.016967
-0.0370307
-0.00417832
-0.0162728
0.00814217
0.012309
-0.00133646
0.000475959
3.54607e-05
0.000825036
0.0152756
-0.0775495
0.0622739
0.108774
-0.00715441
-0.112338
-0.0263932
0.0558209
-0.0463947
0.0398487
-0.122209
0.0149502
0.0674097
-0.00395742
-0.0122722
-0.0269563
0.0431859
0.00388507
0.0498508
0.0854668
-0.133377
-0.00194034
0.0492166
-0.0829598
0.0890594
-0.0553162
-0.0960165
0.0958586
-0.00728057
0.00743848
0.0022687
0.00454443
-0.0946669
0.0878538
-0.0017537
0.00362503
0.00610106
-0.00797239
0.000248767
-0.000964391
-0.000288288
0.00100391
0.088968
0.000794303
-0.0175336
-0.0722287
-0.000815761
0.000760228
-2.68028e-06
5.82135e-05
0.000804764
0.00331858
-0.00233071
-0.00179264
-0.00182779