/*--------------------------------*- C++ -*----------------------------------*\
| =========                 |                                                 |
| \\      /  F ield         | OpenFOAM: The Open Source CFD Toolbox           |
|  \\    /   O peration     | Version:  2506                                  |
|   \\  /    A nd           | Website:  www.openfoam.com                      |
|    \\/     M anipulation  |                                                 |
\*---------------------------------------------------------------------------*/
FoamFile
{
    version     2.0;
    format      ascii;
    arch        "LSB;label=32;scalar=64";
    class       volScalarField;
    location    "0.0625936";
    object      omega;
}
// * * * * * * * * * * * * * * * * * * * * * * * * * * * * * * * * * * * * * //

dimensions      [0 0 -1 0 0 0 0];

internalField   nonuniform List<scalar> 
3991
(
80.5763
97.4667
47.8384
102.512
112.408
111.466
822.184
670.2
66.4817
50.6357
54.3838
59.045
119.965
57.9091
703.594
121.937
49.0652
176.863
67.3418
1372.7
70.8535
802.367
94.6493
103.421
57.9799
125.303
151.803
68.4025
54.2088
44.5702
321.244
53.327
743.838
47.6548
77.1952
114.265
845.693
1000.46
56.6286
57.6682
541.093
124.43
55.1483
122.323
109.065
911.621
1009.33
46.6957
56.192
135.247
72.559
796.698
614.509
98.9516
90.5553
56.5396
46.6321
73.1291
146.191
106.039
127.487
159.087
78.3164
70.859
74.5118
60.0344
49.1412
67.5722
804.606
61.8543
64.5848
49.9202
302.513
86.9422
94.0028
65.5749
327.402
69.4706
54.2833
772.073
49.8611
51.5366
233.692
48.0105
115.944
169.9
90.5438
111.739
242.258
68.6195
59.2484
51.3167
64.4303
301.998
64.6442
149.448
193.636
84.8122
567.144
46.7346
63.63
63.3569
495.104
44.4805
69.8057
422.67
54.1823
1482.83
1487.39
227.075
831.112
62.8605
491.04
46.041
55.8532
2009.34
1895.5
670.041
44.5191
54.2717
602.702
122.65
68.6133
53.1281
567.089
58.3695
51.426
140.522
176.305
364.96
60.8771
63.5881
47.6581
57.1152
56.8365
56.4216
53.9152
63.0495
59.731
94.29
57.5173
119.184
299.38
119.199
49.5935
57.5539
66.7566
148.014
559.289
103.746
87.1484
544.554
1048.71
549.077
540.632
314.949
109.235
408.897
701.999
125.586
56.4433
145.764
81.7916
152.826
696.681
144.19
49.317
301.099
221.027
149.629
73.5053
66.2709
768.935
345.741
629.256
767.647
228.584
57.9936
50.4983
260.478
70.9771
63.1889
99.3847
722.277
100.544
45.1156
46.8363
47.2408
47.7605
1150.56
544.181
170.757
1010.43
940.203
95.8705
793.17
74.1235
76.3472
1404.82
61.1249
102.114
108.869
107.432
48.859
55.0777
87.7375
73.4708
230.383
51.3678
101.489
296.072
50.2818
71.2287
220.273
46.5749
68.0642
69.257
549.924
661.928
543.294
61.9768
372.06
64.3411
256.028
73.0847
144.967
195.726
67.1989
47.5716
195.537
60.0682
62.7825
208.455
232.598
56.9681
211.758
68.5775
165.89
50.2832
849.308
321.111
190.986
784.438
83.8294
1064.74
54.3224
46.7648
50.0039
63.4209
118.575
102.928
69.4661
62.7534
69.0721
65.8409
50.2309
86.2643
198.877
59.4326
256.611
724.455
244.849
1240.47
774.623
82.5854
2231.69
1220.7
54.411
220.388
127.166
1542.7
115.948
55.1203
307.356
1458.21
81.2659
63.9106
77.004
55.9331
52.8543
82.6669
256.788
53.475
717.194
54.5311
270.936
72.0188
452.783
1381.76
53.7323
590.844
724.969
49.2959
305.026
47.795
47.2465
55.1433
45.6589
48.5952
46.5069
58.2301
49.1337
80.3798
48.0632
132.746
214.716
46.2036
1555.85
61.676
105.012
56.1605
51.0598
48.5901
55.6009
194.646
115.508
477.929
72.8191
68.6818
131.956
60.3579
50.07
56.7053
54.4941
73.1171
123.195
50.4882
60.4111
193.121
601.164
1119.92
596.048
59.2633
54.8987
341.47
111.07
200.767
49.4319
118.737
52.8041
307.338
46.1619
84.7577
66.0097
44.4055
53.811
58.9231
153.925
147.582
151.796
96.7506
61.4974
53.0894
886.512
123.584
957.451
62.8634
45.4981
973.444
449.711
185.334
75.5487
57.8226
740.716
57.4076
60.7107
59.2268
64.635
75.846
146.109
120.004
56.0699
215.465
1094.97
61.8682
122.258
101.308
63.8769
105.653
55.9335
643.023
1323.44
272.53
48.9634
56.6287
51.5891
215.474
987.811
1219.89
148.456
220.975
1290.97
158.177
64.7831
62.9351
1047.53
68.1287
48.9697
598.766
541.354
56.1104
337.471
772.161
246.713
566.976
81.479
1066.76
809.579
1282.96
48.8124
58.5546
592.174
843.836
750.369
168.351
188.224
98.7006
635.11
114.477
125.399
151.977
524.389
159.996
58.2818
43.7499
128.876
104.416
888.86
698.51
68.2447
920.048
225.558
539.271
52.7285
56.5641
50.7025
61.9587
50.906
140.353
301.408
172.527
170.687
233.753
311.572
97.0308
63.4988
76.699
68.8403
167.401
62.9144
155.148
164.439
247.36
67.3101
67.7325
79.9784
86.1201
55.7607
64.1631
59.6676
67.5573
59.8202
68.3638
95.0659
94.9916
75.5936
134.355
64.4601
65.126
170.442
202.531
87.0995
83.5208
66.0731
90.3103
70.9613
54.1793
56.5096
57.7186
54.0171
61.6013
1914.78
2061.56
704.337
808.579
714.542
265.052
127.889
449.353
98.2614
70.4664
65.1107
68.7791
285.378
691.497
149.461
290.57
376.178
59.1438
58.4552
45.4271
46.8024
116.721
47.3173
45.4484
44.4247
143.963
45.1537
59.3554
87.2274
65.0571
59.2788
65.423
45.4908
45.0472
45.6959
111.244
53.763
54.3782
58.7006
50.3797
66.1005
49.9202
48.6667
50.1676
77.2813
83.4509
56.0993
67.7014
71.2956
85.8317
64.5588
55.8773
57.0862
213.441
91.1376
194.995
115.229
140.702
162.952
334.969
1102.39
748.011
462.884
523.672
166.217
53.93
734.38
312.238
196.281
239.615
73.111
72.8516
50.7111
49.8967
52.9701
51.229
50.3086
51.1814
50.7338
52.7427
185.19
186.354
178.568
257.678
160.245
304.048
338.616
66.5326
495.93
59.8137
1162.35
348.504
456.868
226.949
1129.15
68.6662
79.7477
53.8106
84.1271
434.174
588.936
1054.77
610.98
1348.69
98.3669
110.611
1230.48
462.264
747.026
50.4739
194.127
191.876
256.865
105.929
589.633
44.7533
125.966
679.218
50.5126
1676.49
811.831
54.304
770.545
159.863
44.4549
97.6277
162.739
89.0736
189.53
241.77
49.4922
53.0259
48.3212
159.63
799.874
817.568
1883.8
48.9471
48.283
192.836
85.9429
133.129
102.202
46.0057
215.296
55.5159
72.0712
64.8608
62.7811
166.602
53.8279
61.8219
45.9764
78.5094
120.929
264.121
621.901
300.323
55.2456
53.0064
50.0089
132.194
840.253
367.953
546.203
114.799
51.5886
80.2473
255.399
715.205
564.01
73.5919
224.125
401.756
168.172
54.3173
139.582
49.2942
53.0802
50.5894
89.3697
79.6004
120.81
64.2769
622.293
49.5621
48.1311
121.779
680.703
110.961
118.033
139.283
71.631
117.812
91.7868
75.4809
199.388
1056.04
87.7545
718.796
1136.14
511.879
75.8074
102.13
888.028
346.835
1134.55
1048.11
769.287
969.23
49.3196
1228.37
47.2473
165.926
275.727
72.1987
112.507
44.8702
126.728
68.4188
44.3125
58.4942
60.0936
728.668
663.347
742.885
744.438
106.084
51.5183
689.54
69.5265
1097.13
73.0977
52.7727
69.3078
52.8709
237.379
165.373
108.79
120.536
53.7327
1401.71
171.766
182.042
262.843
249.731
63.2038
539.894
125.794
1047.21
533.998
915.284
913.346
761.593
1285.83
646.821
619.399
1634.35
1448.7
729.471
64.2528
336.162
183.751
532.973
723.076
57.8958
251.895
115.62
237.395
158.805
280.375
77.4958
109.074
144.878
77.7475
694.075
103.967
167.486
92.4618
110.661
66.503
68.587
70.8306
53.8071
76.1479
1021.96
470.12
494.274
225.303
648.997
82.6968
89.5222
113.531
1015.9
75.7569
56.5709
99.1765
77.0706
58.2137
49.0815
55.068
49.7204
55.9688
50.8795
46.0207
46.9848
46.0282
43.9751
45.3562
46.191
44.7899
67.3926
44.7358
44.8404
50.1496
46.2792
48.0707
104.246
294.311
617.201
891.148
261.418
187.251
351.805
112.698
116.074
131.482
184.388
161.06
54.7808
48.616
56.7702
53.4257
47.3564
50.9332
54.6468
50.5335
49.9792
50.4049
282.355
250.094
174.72
216.504
171.548
95.5244
45.6276
50.4415
59.1851
59.2169
66.0391
59.6125
61.4932
102.302
116.929
53.5124
56.0989
54.1128
59.5158
57.8513
49.3684
116.435
330.883
309.11
240.84
50.8454
87.6826
65.2016
63.5612
301.616
116.331
512.143
62.2831
88.6458
638.225
53.6516
368.874
498.864
551.619
66.1336
547.625
421.042
529.548
63.6762
134.097
70.1548
276.376
107.976
65.8981
123.36
105.575
57.4066
51.8965
291.833
56.8023
60.7334
489.75
89.5291
104.803
59.71
574.69
567.018
93.0555
125.403
229.618
230.705
616.47
190.972
74.9558
546.734
578.638
48.4961
150.086
155.823
310.426
507.922
501.182
506.113
1612.44
678.345
61.2453
55.1189
206.436
58.1973
1486.93
500.45
1565.94
56.5611
270.212
49.1669
61.0281
77.0261
47.968
1892.03
67.1704
58.7543
105.672
789.479
54.4277
470.752
59.7414
98.8041
84.5073
53.398
124.534
60.6228
77.1201
55.395
1017.68
53.8023
62.8864
48.5172
64.6303
53.419
741.926
101.194
592.614
506.333
319.648
383.967
371.836
49.0218
147.133
1119.56
487.565
58.6805
72.3014
183.637
119.67
1076.64
859.55
178.395
220.198
542.931
169.263
83.8447
68.2169
2102.07
98.3467
52.6153
1604.46
78.1205
91.2787
50.6904
77.9061
58.4182
65.8524
47.8384
59.0442
107.355
782.967
735.628
45.5824
57.307
65.7722
123.584
131.787
683.555
401.587
47.6864
512.08
138.253
116.816
48.3639
47.1624
49.181
44.9245
71.5871
69.3459
184.121
48.1607
46.1809
44.9189
48.9065
63.3025
67.4326
104.532
47.3071
48.7603
47.9478
65.1343
80.4099
74.8406
55.6892
55.889
117.422
81.0525
75.4833
51.0562
53.6208
143.574
97.4745
110.801
93.1131
71.4255
57.1719
361.634
993.705
49.0041
62.2945
70.1469
64.6159
52.6319
55.7734
58.6653
51.4854
44.4511
69.046
1303.06
342.427
614.589
204.014
54.5301
49.7434
46.6686
67.8763
59.0714
69.1227
210.104
85.2314
49.6067
846.109
52.9589
1307.33
79.7101
117.041
61.8676
301.646
88.2773
86.2367
345.917
88.4318
236.11
71.7342
61.0954
48.3986
307.748
70.6839
77.3922
99.0814
55.2951
1129.28
1126.6
113.865
208.03
82.629
110.701
85.0009
66.1031
46.815
47.0838
47.3818
58.0181
52.8764
109.397
89.4632
59.9138
305.791
63.1588
449.737
128.114
1448.19
2325.42
1400.6
934.792
1816.4
348.996
135.907
1162.04
431.415
1029.38
60.2408
809.715
690.773
107.804
137.767
112.848
130.227
646.129
47.8807
47.4017
67.8994
60.8217
659.507
67.4835
509.701
666.622
70.1299
741.511
77.9658
312.48
165.751
79.3224
622.7
320.24
64.9588
2537.07
87.5888
2414.41
569.04
1086.45
1374.99
552.149
587.352
501.059
1436.24
658.602
84.2417
54.4659
78.3964
103.712
101.447
51.7973
46.4287
118.13
103.015
164.975
63.257
153.691
52.2689
87.0275
773.42
54.1556
865.888
58.7912
977.646
1232.76
1051.04
226.332
316.167
747.95
868.894
1225
1106.8
934.197
862.689
130.863
145.489
283.035
293.548
557.11
230.936
719.7
333.135
161.301
46.4206
54.7731
58.8314
58.2278
60.5851
46.8412
47.342
54.3154
1193.86
1362.49
1914.44
1697.41
1724.36
1052.85
822.651
867.2
752.388
645.461
234.645
227.542
157.244
346.199
223.269
357.221
265.615
76.3285
94.5366
998.633
182.836
77.9202
513.11
216.068
458.323
455.111
124.293
1030.41
312.591
51.0761
50.5559
65.6424
70.9853
61.0044
1180.91
196.228
801.138
168.503
468.542
278.119
57.8967
75.7134
90.4692
66.7222
60.3308
83.3719
80.6122
63.4539
161.494
192.327
174.889
56.0089
55.1598
1247.38
52.8046
67.6079
78.8464
106.263
76.2598
960.097
993.602
55.1501
425.256
45.8826
545.277
449.215
497.325
612.254
1006.83
552.046
91.8623
103.863
149.286
64.4567
59.3944
62.8116
70.4883
62.1879
62.2377
677.352
352.186
175.753
153.556
336.897
430.93
518.154
443.882
45.3413
44.6901
44.4505
291.512
47.4872
48.0158
58.6287
48.0296
47.0961
59.2563
154.801
108.736
54.6441
49.4815
193.668
48.2418
47.3118
51.8912
111.957
72.5127
67.4253
55.0127
53.8996
203.523
395.815
168.037
133.795
162.726
229.067
63.0176
61.7284
53.3963
99.0203
51.8993
53.3139
48.9216
59.0015
84.8205
145.508
58.8992
49.0793
1083.79
59.7947
56.0532
1497.35
72.1833
45.7663
118.592
44.2188
123.349
123.424
72.5692
49.6798
46.7192
147.29
141.746
46.9405
50.8379
86.8098
45.3297
53.7044
143.522
68.6435
43.9156
76.0586
63.6104
76.7906
56.9954
96.4731
47.6211
45.6819
48.7205
52.7117
467.979
118.534
156.925
71.6578
649.242
230.257
56.2629
485.017
60.7019
55.4153
64.9862
335.656
48.0494
346.738
85.1228
59.8096
61.4688
74.2791
121.296
76.3253
97.0495
166.257
46.4798
135.043
49.382
62.7234
94.0499
79.0654
243.483
76.1536
54.8484
639.522
47.9913
68.5508
336.474
101.705
57.0467
904.979
77.1773
703.436
980.979
45.2187
242.48
626.446
73.8499
51.0055
52.7029
47.2091
49.3809
59.3727
54.3275
513.415
982.044
1306.38
781.495
44.8092
48.5608
46.4052
57.7954
49.202
47.089
61.4869
433.925
86.0239
48.5142
55.1207
55.5711
44.6072
70.5306
424.407
1132.95
629.951
110.721
90.0934
71.9669
65.8783
93.7284
43.9032
48.1155
57.7978
54.8531
66.8604
54.0877
60.2453
61.5926
217.815
825.579
123.049
150.923
67.6694
59.7675
178.842
115.562
138.285
97.7805
131.154
54.6097
53.9047
64.5849
458.376
186.301
123.798
64.1721
170.047
478.035
577.981
247.129
103.769
199
710.892
64.5627
73.7423
156.184
215.209
48.5977
84.2125
123.298
142.988
56.9415
62.0255
85.1895
58.1347
47.866
56.1073
55.8019
54.9632
193.496
107.775
121.246
194.293
59.3331
432.719
212.729
460.317
195.441
727.959
584.912
462.636
46.8054
222.185
616.792
669.234
760.394
821.808
62.1886
171.325
65.6575
88.8096
169.589
69.1711
97.8307
538.369
241.999
742.853
101.712
560.385
190.497
833.674
673.586
1166.59
734.012
92.4322
74.4198
78.3399
74.7713
75.022
255.313
567.561
60.4139
120.445
1242.05
81.5268
83.5951
92.6734
73.1531
155.343
717.637
72.6276
575.324
544.662
75.5457
73.9239
55.3261
70.8868
92.4116
56.2076
100.407
120.904
48.9967
129.918
99.2712
179.566
216.842
346.847
72.6253
225.098
668.572
534.172
55.1553
59.3862
139.252
48.6749
53.2196
48.131
77.4609
132.818
913.121
1056.46
56.8605
947.449
1729.94
2154.8
1098.76
1623.87
68.7993
94.7871
82.1495
66.4581
95.8804
85.5941
67.4019
86.3725
908.142
1161.56
1475.09
630.132
569.843
716.178
684.337
575.412
768.198
806.749
336.832
896.146
803.428
441.475
1513.23
623.721
1651.08
628.311
1231.77
567.898
290.504
237.643
511.567
476.979
66.8447
518.821
1113.07
523.051
74.5121
1077.37
64.7797
142.014
59.8918
95.3905
107.983
71.1957
111.608
81.9993
78.166
178.15
57.154
56.9661
112.776
261.905
55.3521
952.12
1304.79
1632.63
88.1936
632.441
464.689
767.03
57.8119
148.242
1090.08
125.352
850.287
55.7562
580.924
356.588
86.35
95.1163
86.1877
58.629
48.7733
92.0117
291.803
137.998
442.981
226.704
79.3557
69.1629
85.6727
121.19
197.157
86.1934
55.8853
65.2373
69.8995
78.557
126.451
447.383
178.319
115.9
1226.75
607.315
1434.26
82.8782
1142.29
194.531
142.523
2002.3
157.941
166.072
100.323
60.3482
56.8355
47.3403
53.1082
96.5468
63.2522
53.4245
44.801
45.1203
49.6274
50.3352
619.343
50.9772
59.2925
1185.51
47.4854
65.7744
47.1183
414.564
63.8489
58.0413
58.5727
108.06
51.2912
71.6653
1200.53
68.8252
295.422
45.0089
49.7257
57.4018
171.573
910.905
62.0242
88.2206
68.699
103.187
531.295
59.6095
120.983
505.431
830.72
440.369
113.533
89.6174
68.9675
1116.35
110.018
643.724
1902.75
49.5876
63.7087
205.568
57.775
85.4125
1183.64
961.659
820.535
72.7862
139.442
59.9908
53.8972
83.4594
104.583
71.6359
130.036
81.8957
210.73
63.1696
47.8148
171.36
65.1471
52.8787
45.1408
85.9606
72.9008
546.65
1274.46
280.13
115.527
1530.42
118.126
170.225
380.574
1243.27
785.746
819.607
887.358
1183.79
739.751
310.925
240.556
102.759
61.6748
67.0716
1107.28
58.5623
627.831
1900.68
103.958
392.062
1554.51
73.4806
46.1147
82.7815
1060.25
71.7282
456.532
1423.66
553.534
52.9069
49.9308
54.4074
745.212
1140
98.2104
1017.46
1584.83
1488.24
2134.08
1368.22
264.225
327.194
267.337
1000.42
254.491
642.204
774.481
853.971
940.477
1169.83
89.701
49.3397
45.7193
46.6155
87.8376
457.066
47.9716
51.9183
237.364
747.309
478.19
121.011
229.107
1133.02
161.208
84.3979
77.2595
61.8606
275.618
56.8563
73.1256
83.3948
445.592
75.8707
123.231
663.807
417.923
932.762
110.482
457.901
1486.49
65.6784
487.576
180.404
416.151
54.4558
126.661
48.6628
587.799
452.663
56.2204
310.208
136.383
50.036
122.964
618.202
654.268
346.387
150.438
173.986
98.6121
122.74
144.268
181.564
215.208
264.041
416.328
684.82
198.329
57.969
113.409
256.343
52.5623
57.2576
56.2589
1014.19
269.021
67.265
1005.86
116.512
111.856
254.602
669.058
114.416
62.9347
543.138
50.0481
61.5031
51.8109
56.3997
51.1872
115.056
58.6948
75.4385
123.898
54.4428
115.177
49.497
64.6463
169.079
205.187
159.637
168.682
165.906
106.009
82.0566
125.104
170.341
205.265
64.2399
389.241
1095.05
634.284
141.299
144.343
136.543
146.875
110.955
108.621
57.0998
61.8547
46.3464
95.5297
50.5134
48.1674
51.1575
73.9031
50.8114
49.4807
52.0867
52.6654
66.0717
93.8171
99.7401
72.0533
777.836
109.181
101.809
99.3373
61.176
56.6625
68.9208
66.291
54.0909
46.875
47.8645
53.8326
47.3456
46.5755
62.0335
55.6792
63.4493
200.894
350.993
56.5832
62.3897
73.4793
56.8609
45.7344
49.7541
868.72
47.1339
48.7512
50.7126
59.2124
67.5163
61.3948
58.7272
56.5242
80.5149
62.2955
78.1591
211.51
75.7998
62.7011
190.746
46.4838
47.8199
57.1401
70.9418
167.904
79.562
132.205
49.426
186.768
58.4613
62.5066
54.9237
61.9549
55.9093
63.066
53.8329
63.4671
69.7424
99.548
66.7319
207.254
90.4454
159.146
82.5909
47.0415
46.9521
49.6711
55.9122
45.5463
424.908
1301.27
1062.91
1095.23
725.368
169.705
103.44
105.097
165.964
57.2015
91.4468
175.134
688.289
89.4452
62.8671
193.009
100.49
785.049
166.798
777.205
634.95
1616.87
841.265
321.783
639.888
310.454
159.079
941.07
857.84
1059.09
1147.19
828.457
115.145
830
54.8723
974.45
772.272
64.8275
213.671
629.712
1143.57
261.816
1864.49
1169.23
687.573
1137.29
309.466
347.916
72.934
113.589
153.273
722.413
386.167
1106.3
1272.62
1096.01
1062.31
125.552
777.653
559.636
653.234
1630.36
575.676
89.5413
660.963
526.47
54.9888
783.806
757.216
1098.37
1283.49
1295.71
1331.89
73.2787
160.228
308.771
220.209
238.082
130.183
62.1806
94.8018
204.143
518.514
121.874
85.3964
71.0588
92.4765
377.43
854.015
1079.4
98.751
316.148
557.498
1620.1
421.374
47.389
358.405
48.4656
998.179
139.071
55.3105
100.962
495.368
51.7303
61.2943
86.1697
271.411
85.0611
119.554
130.454
566.933
876.969
43.9675
45.0309
131.833
871.7
1121.07
50.5503
54.8605
95.9429
135.225
57.5908
64.0916
104.246
122.28
728.552
141.855
292.015
49.369
169.269
698.413
501.271
67.6051
731.659
73.5498
167.063
993.956
57.3064
53.7073
56.434
91.6356
85.0989
73.5812
57.9048
54.1923
47.9284
87.9459
44.7515
61.4848
58.0951
76.5667
81.4724
237.943
1126.45
69.0229
84.2171
71.5813
147.313
61.3928
81.7993
56.0597
77.9365
925.089
104.035
50.7603
47.1337
54.5897
65.2082
47.7506
46.7986
56.0943
192.178
48.4631
77.715
47.5272
1553.99
709.127
49.9992
123.687
1257.04
1811.34
637.829
282.191
66.5042
49.1975
73.7054
100.644
60.9403
354.388
1016.07
828.614
61.0456
46.6222
50.9246
140.713
72.5059
55.0699
77.6708
243.499
234.577
1021.52
447.154
90.7005
796.979
45.9007
69.23
1052.07
64.1835
61.7206
1010.16
832.643
650.004
1132.79
126.975
94.3736
66.8167
50.7392
85.2191
52.4679
56.2636
562.753
50.9337
50.7112
64.3766
77.3948
643.176
610.832
47.3811
95.6953
282.804
266.72
71.6283
51.5128
127.477
133.291
184.161
138.063
442.645
1736.8
171.235
51.8435
153.263
165.905
238.029
225.443
892.602
1151.14
355.627
136.636
73.4363
265.242
82.0714
793.493
226.836
54.7872
47.4622
70.5779
49.6969
160.49
69.7192
45.4128
1080.72
46.4542
54.4394
48.2291
83.4788
93.3097
101.154
47.5009
51.626
49.2232
55.3036
229.905
172.642
930.513
70.1171
59.6051
52.3332
46.1491
67.0351
52.4706
56.318
51.0037
52.3423
58.8158
62.9457
65.1722
58.7762
51.9797
1176.67
1049.05
628.166
74.4147
50.5946
881.107
54.1801
623.522
934.517
52.5828
843.275
944.76
144.785
293.988
1111.03
931.635
965.527
61.249
62.3535
102.106
56.406
104.586
86.9358
697.441
75.997
60.2443
67.3779
92.5111
59.0815
98.0713
55.1173
106.137
50.5554
55.7265
60.6798
118.507
54.7226
50.3213
1397.67
45.298
52.0301
606.254
107.446
142.699
214.706
127.109
49.73
58.1264
85.7626
65.2181
82.4972
76.7293
367.889
62.6461
1010.33
98.0709
203.074
108.718
56.2255
56.9526
52.1522
63.3173
47.2273
166.486
980.602
45.3063
48.2433
49.757
66.1973
142.399
939.679
117.149
250.473
102.881
134.705
80.2585
66.2598
56.155
1275.21
286.597
465.489
77.7319
55.2166
67.332
388.336
577.43
74.4216
944.165
86.0159
236.353
73.212
61.2984
398.54
950.471
60.5893
562.164
335.523
557.899
66.5644
566.023
514.71
564.361
84.1518
532.702
656.001
759.46
501.514
74.3833
57.7255
265.335
64.5237
53.8009
50.1024
192.222
53.889
105.456
51.7358
47.5101
52.7889
51.7048
75.3075
53.0279
49.0619
86.0092
128.373
44.7591
57.1291
47.8962
65.5948
52.6159
979.922
225.773
553.773
595.83
89.1689
51.2233
78.1868
703.978
56.2999
60.1526
55.23
61.2013
61.093
121.842
69.4829
393.462
56.2096
161.951
75.2922
47.2668
112.398
98.1103
687.788
1781.39
1838.41
2344.64
225.24
1227.07
133.262
270.875
101.603
235.874
864.441
85.4977
1270.03
114.693
64.4376
83.5666
121.577
113.081
59.9889
259.323
69.9496
90.2317
968.402
445.814
252.316
659.073
1230.65
938.432
52.7693
49.0111
55.2121
53.9557
45.6581
46.7269
49.4506
59.6864
46.0833
56.1017
67.4755
104.488
62.9193
206.189
57.3746
45.9039
47.5095
92.2997
353.968
69.2281
48.8257
43.6558
49.2603
54.1562
46.5579
46.1323
53.7323
93.4527
65.7859
65.5136
49.3829
55.1215
55.3231
87.0027
846.733
1192.14
134.527
74.0829
49.1202
1466.9
103.119
1549.95
44.4948
47.9575
53.1643
173.562
65.6063
49.8366
54.0471
72.2849
85.4287
171.469
102.911
50.0408
107.527
55.1255
105.52
69.0308
282.225
114.025
192.63
72.2868
160.217
1151.54
1161.53
931.111
1176.04
785.296
78.7241
61.062
65.5339
58.1117
927.943
182.677
109.967
825.42
721.871
157.418
809.237
46.4177
47.5746
52.8408
53.6959
319.588
101.599
1724.55
1063.04
684.336
1013.02
953.704
60.4536
80.5588
1527.12
49.7026
1223.37
279.481
62.6388
813.35
811.778
1117.02
207.097
923.503
67.8448
87.0115
61.6119
1418.46
64.1844
163.024
726.678
1409.82
293.876
80.588
75.245
808.259
155.616
77.7657
546.269
270.014
61.4622
60.2833
868.654
1079.5
66.1224
62.3534
75.2771
62.0377
58.8546
314.172
614.357
151.7
61.357
55.3308
58.0182
61.2089
55.7732
59.1703
56.722
74.836
99.8314
51.6394
49.9766
47.9329
157.224
115.592
44.1042
48.9426
48.2831
48.1126
48.6391
48.3047
45.6993
45.3879
140.964
108.609
134.322
118.284
141.612
64.3287
82.6767
66.5313
1498.96
387.035
810.225
52.7402
171.517
137.773
926.495
464.966
507.578
768.702
53.3837
213.7
1020.74
2310.59
960.355
1795.65
76.6678
1884.21
721.835
1033.06
225.794
110.907
128.041
94.9443
859.046
275.067
887.659
1721.37
205.108
235.286
1147.16
271.478
1384.42
349.054
630.629
264.268
51.2546
387.566
561.239
650.294
62.2767
65.1708
68.5944
57.2947
754.994
207.049
88.9023
1227.49
1153.97
849.727
1266.54
1730.24
1035.76
84.8729
70.3398
110.302
91.4465
61.0613
65.3093
171.57
68.9834
45.9399
57.5503
374.062
758.767
78.0048
54.1777
55.0265
49.9805
102.355
65.0655
66.7052
569.962
859.482
65.3386
306.294
53.1868
47.5664
656.046
73.5933
119.398
821.187
149.396
167.74
142.559
119.467
119.376
639.257
105.146
57.1548
58.268
127.106
79.479
66.6253
336.42
56.3048
63.3618
56.0573
53.8038
69.644
85.4712
85.8926
99.0362
72.3916
233.049
46.177
186.351
45.1794
67.746
44.8463
50.2056
53.5161
116.743
50.7954
68.2921
146.24
49.9335
72.2623
56.3818
711.48
228.797
185.543
84.1055
106.479
370.732
151.03
194.271
210.426
2162.89
51.2621
51.2431
415.238
526.82
76.3314
64.1563
70.1378
70.4663
59.7613
55.0368
124.57
50.2481
52.0736
82.897
470.629
47.6802
45.5719
48.8283
48.6099
106.842
76.4553
46.6515
54.6035
98.4893
215.643
1725.53
322.84
1374.51
391.759
1600.51
105.319
53.9398
662.133
115.77
53.9526
1669.62
70.1434
227.099
225.296
60.7862
658.629
57.5565
60.8384
555.185
202.26
104.06
172.829
930.144
1188.66
62.9261
77.6672
448.83
51.594
572.391
67.1825
1450.87
246.795
181.234
94.553
54.8826
1012.25
649.226
748.82
50.4158
60.2491
146.37
63.3624
84.1976
68.9467
57.4696
54.9148
100.698
82.249
204.76
47.5427
60.0733
77.7371
96.2906
63.4002
52.4204
48.6509
100.089
133.229
298.307
129.896
256.635
88.4867
46.3609
873.515
73.852
96.3512
68.701
63.3807
61.634
60.4377
62.3776
63.3849
55.2891
62.1179
74.5693
61.1571
64.1693
112.898
131.575
331.891
130.795
49.9235
48.5058
55.819
78.9162
235.619
136.345
57.0504
56.0639
53.8775
50.6093
47.7846
48.8401
53.1877
52.6081
56.4203
46.6996
60.8378
46.8043
53.3302
45.965
45.7545
77.8565
71.4398
64.4931
71.767
112.327
123.075
93.698
161.712
156.29
67.4657
440.312
314.843
50.2288
63.8736
205.323
106.626
68.6267
371.105
700.6
192.145
76.9123
71.5568
79.7341
63.0641
112.246
168.857
507.152
67.4359
443.556
88.2061
110.512
149.778
342.971
70.4507
199.249
68.4167
61.112
118.626
83.4877
50.9544
48.8896
52.7911
50.545
873.56
344.106
90.9608
136.741
956.542
51.3965
60.3462
51.2808
55.0008
70.2571
55.165
46.5051
45.5917
49.1282
49.3826
50.963
95.5162
49.2729
76.6024
108.57
44.2288
82.0714
74.9344
93.0729
328.369
49.9531
98.3838
52.1071
565.763
87.8933
58.1563
106.433
870.802
1108.92
344.219
112.85
293.758
101.814
49.2337
52.4537
59.4556
55.1285
66.6529
162.783
572.077
636.638
599.216
454.037
631.578
1085.84
821.45
1336.59
47.7397
54.4863
50.2685
51.6151
50.6153
62.561
59.5009
112.339
100.177
63.1946
60.1993
50.3012
101.632
226.853
50.7967
49.4105
57.714
49.2536
210.509
58.5851
76.5586
136.835
104.153
58.232
171.073
75.3527
143.457
47.9688
48.5354
50.4729
91.6931
1223.34
98.3582
49.8954
60.245
48.238
56.9177
72.113
98.9294
57.1055
51.0503
46.5308
71.6205
66.4866
62.3426
105.929
208.219
57.566
241
652.233
68.2919
923.302
2244.92
1462.41
990.206
277.66
1068.14
2327.58
78.8225
46.0147
54.9263
108.694
112.218
77.0137
45.4476
49.4809
102.83
58.3008
82.9747
57.3612
52.8762
59.6004
69.1691
54.8989
46.6022
45.1197
51.3691
46.7632
149.976
48.8627
48.2679
50.6853
47.1955
47.7345
55.3021
78.1642
47.7377
45.9081
263.776
669.595
196.416
55.4375
70.5082
445.788
222.268
124.096
987.27
497.36
254.254
94.306
92.3126
269.876
1551.82
128.25
848.893
111.659
100.665
50.2627
71.0292
57.3597
55.7936
145.415
56.188
57.4554
51.3334
68.5228
266.559
90.8985
884.009
57.1586
114.88
61.6382
56.634
93.2025
59.4959
49.1184
51.2625
47.4857
46.9912
51.8732
61.6398
106.99
47.0137
55.6269
820.575
502.614
54.8758
82.3643
237.725
912.404
59.7276
59.8196
86.6442
69.0827
45.4051
58.8567
190.731
388.811
2197.75
1198.3
1328.28
352.641
866.366
833.446
116.389
66.1784
122.448
255.953
70.8081
92.5865
619.858
642.189
550.36
281.606
98.3248
609.191
1752.02
1210.83
1162.8
1291.09
1255.86
858.417
882.337
168.444
820.083
470.254
940.813
1068.87
56.7736
56.7041
57.3196
45.7319
46.849
46.8013
45.4463
77.2538
135.183
213.895
300.491
79.3693
100.308
71.2351
106.582
59.2171
60.7822
59.1139
60.7185
59.5128
151.045
97.7494
203.939
191.624
90.8629
273.953
210.877
290.777
245.282
59.0424
51.1502
47.3088
47.6198
45.1519
45.223
46.7335
203.096
97.5823
79.9248
156.702
181.918
218.753
164.451
160.938
85.5311
121.475
64.442
70.8212
71.0391
54.9876
59.6114
91.1759
153.404
114.076
106.908
203.668
246.013
149.745
177.757
176.604
239.885
203.564
45.4854
45.4864
800.901
45.1371
47.54
45.9841
1127.81
904.447
1419.69
711.647
49.4317
55.8171
52.1238
67.1818
51.683
151.369
551.257
731.271
140.537
974.835
1440.97
1260.36
49.4819
108.9
258.504
426.268
160.694
449.845
198.781
138.961
598.258
97.038
176.099
162.062
108.846
107.167
46.0067
1519.39
1561.7
969.427
646.685
1130.22
1374.38
593.646
1011.58
64.8887
59.4716
63.5138
78.5608
72.7297
67.1859
79.9122
146.524
61.8823
62.2642
62.2901
62.8169
875.37
2574.61
856.185
962.965
56.2681
63.3644
55.2946
53.6104
171.67
725.284
590.38
232.545
245.244
396.673
1104.06
1147.67
297.246
997.02
327.828
516.776
922.856
238.192
65.1692
288.596
106.004
1251.73
881.402
896.204
337.735
1362.59
131.665
88.0491
46.3561
45.0477
46.7273
126.979
70.2217
80.8968
45.1522
881.201
709.328
149.197
727.336
143.472
1141.26
72.0411
83.5599
65.4252
54.9895
58.8722
60.2828
628.49
889.148
77.4551
862.545
299.892
73.886
72.0531
64.2071
65.0688
580.399
60.5467
58.7494
65.3535
65.3223
60.1414
60.0769
135.724
43.623
238.05
48.2963
50.3883
49.2141
48.1946
50.5925
56.9551
192.931
87.65
60.8495
349.942
189.259
492
62.8076
57.021
53.4643
49.4226
60.0122
77.9533
67.1873
1761.21
57.2989
67.1
48.4406
94.7834
45.2603
57.2875
48.2954
51.9197
47.4461
52.6561
50.432
50.2432
46.8757
46.5147
77.3204
57.1433
64.5903
2021.47
1126.67
931.524
920.683
218.457
221.821
653.673
650.892
152.806
72.0954
109.469
103.589
259.97
111.557
88.2097
56.9362
66.5978
52.3561
65.7928
187.326
905.983
151.106
72.6224
62.7627
239.496
756.906
77.2329
59.9833
51.0686
46.4956
635.207
866.981
53.2233
46.7776
64.0139
1227.46
171.664
363.588
594.787
733.733
893.692
636.232
613.124
90.1028
307.75
193.257
91.4713
85.918
84.6486
112.74
83.6109
115.649
81.4904
100.682
86.6204
54.7582
50.3379
161.369
64.5565
115.578
100.611
58.2869
51.0318
65.949
91.4219
1169.02
1027.43
167.172
728.999
69.3853
622.373
1144.13
199.779
80.6373
731.174
204.182
658.523
990.884
250.285
1253.91
365.123
211.748
56.8663
56.814
89.2658
55.5564
287.024
73.7641
56.2154
119.145
132.13
56.78
302.431
185.786
108.078
53.8217
115.458
113.787
290.413
117.487
313.111
206.283
1736.96
719.504
891.347
828.045
248.272
1053.67
313.291
1739
1182.93
537.592
430.757
152.156
57.5814
60.7516
57.0606
47.7024
668.393
81.4027
143.716
68.8608
50.5744
95.8012
53.6183
76.3436
97.7942
2253.66
1304.64
578.137
1542.49
1282.48
119.767
268.83
837.149
280.309
794.541
210.874
231.024
126.503
192.045
56.9337
94.7217
96.6056
149.704
326.226
128.504
244.527
248.435
97.5132
80.0057
1989.1
222.796
1944.56
81.921
66.2387
45.2222
62.0186
48.1671
55.2405
46.5005
68.0557
46.6263
48.98
51.5988
47.3169
50.3924
46.3014
55.8213
45.8769
49.5142
45.6204
49.1763
61.1396
63.943
55.5733
345.091
49.7579
159.444
54.2125
100.656
210.272
67.5096
44.5053
53.5171
60.7249
49.294
52.3544
59.4437
59.8157
77.1341
70.0782
165.982
64.8443
73.537
125.098
112.832
68.822
615.378
149.106
85.2312
119.47
51.9841
334.123
52.0152
48.7416
61.2325
55.5324
47.8081
79.4281
757.64
294.834
156.961
90.0441
544.247
525.55
822.324
1178.03
335.601
247.017
245.894
61.3363
53.2933
352.565
82.584
748.132
1150.13
317.196
48.817
49.233
216.243
945.928
52.7784
63.9606
49.7824
56.2469
264.848
210.35
321.715
702.33
50.1634
138.875
722.242
181.152
70.5246
93.8919
93.1067
71.6931
72.6354
53.8672
102.219
60.9792
574.836
66.0237
53.7938
911.669
150.704
62.5939
1034.35
2192.08
609.312
168.386
350.626
292.263
115.131
1077.25
919.445
995.398
1050.72
1192.86
1088.02
1216.39
54.0631
72.4894
49.856
53.1962
66.9386
95.6372
60.4608
77.1847
86.9369
86.9429
60.5417
385.903
170.612
66.4855
1076.36
263.549
480.907
298.656
540.249
1157.89
45.5585
55.9617
49.8404
909.034
1108.03
1413.12
517.901
224.769
556.182
168.666
504.604
720.813
67.9539
61.8983
64.9772
85.5607
78.1137
102.776
684.667
778.886
384.863
716.652
641.377
67.7998
73.1414
230.148
184.466
184.871
138.314
128.436
111.482
57.4959