/*--------------------------------*- C++ -*----------------------------------*\
| =========                 |                                                 |
| \\      /  F ield         | OpenFOAM: The Open Source CFD Toolbox           |
|  \\    /   O peration     | Version:  2506                                  |
|   \\  /    A nd           | Website:  www.openfoam.com                      |
|    \\/     M anipulation  |                                                 |
\*---------------------------------------------------------------------------*/
FoamFile
{
    version     2.0;
    format      ascii;
    arch        "LSB;label=32;scalar=64";
    class       volScalarField;
    location    "0.0625936";
    object      p;
}
// * * * * * * * * * * * * * * * * * * * * * * * * * * * * * * * * * * * * * //

dimensions      [0 2 -2 0 0 0 0];

internalField   nonuniform List<scalar> 
3991
(
-11.0533
44.7762
1.71655
-7.36228
32.5033
-5.92044
-51.7138
33.8741
-14.0611
13.3762
14.897
2.97064
7.17914
0.466807
-30.1922
1.83126
13.7503
2.70567
-6.35005
-47.2483
-8.02242
-48.4748
-9.7982
-21.5039
23.5192
26.3866
40.0442
23.4888
13.2349
7.86884
-34.5949
18.4953
-58.1569
13.4258
-14.6683
-6.58438
-52.0814
-20.5754
0.470022
14.8487
-60.6771
-6.77481
3.17807
-5.06133
-8.88434
28.3898
24.9899
4.74401
1.64254
40.3913
33.0342
-55.9189
-60.3875
-9.26424
-3.76832
8.79474
-1.48233
-6.4458
4.96761
7.79865
34.4132
40.6167
30.5981
30.5111
-16.2508
-9.43892
6.55915
-12.4753
-50.0606
-8.41576
24.4909
-6.47834
53.7337
5.11032
35.2789
-15.0277
49.5105
23.4757
-6.14829
-41.3521
-5.48345
7.58
51.555
12.9908
33.3287
34.9552
0.0375363
8.75097
41.77
-4.63103
-8.72836
18.7647
25.7242
-3.53415
-4.20756
9.37802
23.0837
36.0717
57.251
0.677325
1.21687
3.45274
-32.3498
2.52743
3.48632
7.6822
-6.66186
-54.9567
35.2377
-30.9715
-57.3681
-6.16197
52.1775
-3.58758
2.06288
-49.3448
-50.825
-36.7491
1.25384
23.1309
39.9836
-16.9452
-9.30579
11.6791
-36.8132
7.96542
17.564
-5.42725
-16.8892
-32.5142
-1.87173
14.2304
17.0504
-4.80744
-8.29799
0.328565
-2.73632
-3.53
2.69353
29.6363
6.57034
42.5885
36.6191
42.4913
9.57905
29.0256
-11.5083
35.9249
56.6851
24.0434
2.28642
9.30118
35.2851
26.6153
-41.3943
-17.0252
41.1933
21.4626
25.8382
39.1778
14.1363
24.4298
-2.86756
50.7621
23.0002
-11.364
24.3881
-27.4827
-30.6191
-4.76568
-4.00213
-7.15389
-28.5244
41.0984
41.7612
42.1956
-30.4733
-1.75215
0.541029
-26.2666
-2.90149
19.2743
22.5274
-40.4072
0.981754
5.50252
-2.03711
6.5889
-4.81605
-54.5186
-45.6127
-6.58744
-154.965
-61.6442
1.68427
-54.8094
-14.3189
-1.37536
-57.9116
-7.40423
2.00104
-14.1129
28.8534
14.7994
-0.659113
40.0012
35.6161
6.05147
16.4808
30.3507
32.8662
13.6446
19.1109
50.9414
18.1629
-12.2547
-1.3015
43.1069
-14.6519
-62.2559
14.9398
52.8568
27.3297
55.0643
11.1014
-12.7462
-25.7678
-4.14967
16.7862
34.3643
13.3219
-9.76066
41.7752
50.5297
11.4932
-24.1585
-8.43536
-0.51156
-1.78547
39.1028
-28.3921
-3.22096
-59.0405
-14.114
-56.7346
-3.38455
-3.59834
-7.18349
-13.2085
-19.8574
8.01393
-5.70225
-11.9768
-4.35936
9.54459
-4.49997
-18.1193
30.1887
18.6153
-20.5362
-19.0221
42.1162
-59.7905
54.9445
2.48998
-50.1101
-39.4231
-5.06807
-29.8114
-21.685
-49.2559
-10.0485
-9.0329
-17.4862
20.6437
-10.5736
9.39109
-10.1846
-2.48477
11.0574
30.4224
-7.01666
-3.71571
-58.3823
-6.80474
-26.9029
-7.70094
50.1888
-46.9834
17.6345
51.4122
-41.2172
-5.05265
-2.60739
5.25576
-2.04729
14.6971
15.4062
21.4901
19.2764
10.3618
8.52217
-6.36396
17.5953
-25.6534
-22.2744
-1.68706
21.6929
-10.4745
37.9801
2.11713
10.2609
10.0331
10.5071
33.738
2.90645
-22.4532
1.85273
35.5004
4.37869
19.675
13.5982
-2.01573
-7.1309
-14.9493
0.999766
1.10676
-10.854
-24.7423
-34.5227
-59.065
48.7299
-9.49565
10.0045
-38.2345
-1.11732
19.5598
-3.94394
-14.8339
23.2764
-31.4291
14.5449
-18.3005
-13.2349
6.12927
4.94955
-4.27111
27.9308
-5.50223
-3.19188
-4.84912
-1.2286
14.6986
36.866
-4.67993
41.3233
-10.4743
-1.56316
-50.3664
-33.2966
-26.2566
-11.5749
15.0931
54.0015
6.69053
11.481
30.4612
26.8327
-2.4077
-24.7521
28.9098
19.175
27.6403
-40.1712
-4.72228
35.0723
-20.0548
-10.3951
-8.64323
-4.28667
-57.0751
-60.5671
22.498
0.281826
12.6412
17.7006
-22.7609
-37.0553
-60.6092
-21.9352
-25.7477
-52.1898
-27.8373
-10.7273
-0.713923
-61.0858
-8.45181
0.506114
-59.7551
-60.2558
4.18879
-24.8727
-56.9079
-22.8188
-60.8918
-5.62791
26.9889
33.1309
-47.9539
21.2791
11.7663
-47.8208
-41.8953
-33.9899
4.33552
-1.12074
-0.775779
-38.9893
-7.54626
1.87409
-0.0741398
-52.5478
2.26352
1.97926
3.63036
-21.299
-19.4507
-51.1507
-52.2938
-3.44661
-53.0828
-26.0244
-36.0166
-5.87257
-3.93299
-3.09956
-0.153882
-3.63024
-23.0271
-33.0135
-29.4068
-27.5197
-25.8837
-30.1034
-6.00417
-8.38608
-7.16595
-11.0984
-24.373
-1.21922
-15.7639
-14.7826
49.3886
-11.0774
-12.3527
-14.3097
-16.7982
-8.24807
-13.5547
-9.64704
-8.09099
-9.73619
-12.2436
-18.2574
-14.4201
-15.7028
-24.9035
-8.0024
-11.2573
-16.5712
-20.7654
15.1653
-7.16757
-2.93043
-6.74029
-2.46453
-6.46691
-5.23978
-7.19712
18.6902
21.5878
-37.3128
-43.0388
-27.4899
-33.3588
-34.864
25.0605
24.8641
13.3835
5.65265
21.7886
-5.40782
13.0878
10.4734
-28.0217
-11.8895
7.90024
2.67624
-4.29611
-5.25218
13.0384
19.4325
0.0182844
17.7146
2.63039
7.06811
2.13098
7.27279
4.5781
4.92274
4.54381
5.65549
5.67127
2.96175
4.18988
4.01239
5.24257
6.90561
3.54035
9.51937
11.6435
22.1634
17.3618
12.5063
13.7382
9.87593
0.784318
14.7654
9.06597
5.71231
-7.48188
13.0272
-4.58667
-5.55712
44.8508
41.0395
52.0792
47.4098
47.9152
46.6087
-4.79142
-57.4828
3.70878
-28.5994
-22.5351
-4.63438
-1.125
-30.1195
-25.0091
-13.5923
-14.0615
0.749613
-0.111303
-2.78911
-1.88837
-1.39358
-1.50742
0.591159
0.643957
0.83959
0.579694
-7.65678
-19.6648
-12.9351
-23.6756
-8.03405
-23.391
-11.8154
-3.27872
-42.7166
1.06399
-55.8875
-32.5029
26.7119
26.8866
-45.9934
-14.5374
-16.8776
0.668578
-4.65436
-33.4064
-60.6633
-34.9628
-33.5502
-57.4439
-20.883
-4.12103
-9.84859
41.1478
-58.3423
1.34672
-26.2256
-18.5862
29.5698
43.6646
38.8702
0.371928
-4.92733
42.3084
-4.71006
-52.0143
-45.2701
-4.17835
56.2456
-6.48915
6.06514
2.09748
45.0828
36.8254
44.6333
45.704
8.62707
10.6392
9.4679
-27.0596
-55.447
-52.8487
-54.3344
20.807
21.8645
-3.55405
1.09285
2.83439
-8.11525
0.334262
43.4822
11.4563
6.08612
-7.34887
-8.55517
-6.32557
2.8817
-9.03012
15.359
2.05057
-18.1433
58.8837
-40.0648
-10.2484
3.23827
-6.79578
4.0908
32.3179
19.7711
36.1672
-58.5231
-16.1559
9.83476
-0.600185
33.7155
-55.6236
58.7389
-13.1013
-25.1707
-6.93182
46.3939
11.6535
4.36808
12.8575
-4.93256
25.4615
29.8282
26.5038
-16.4618
9.68337
-47.0346
11.356
12.3463
49.0841
23.9115
-18.576
28.6695
5.55621
-1.86219
24.8567
4.20073
-7.30674
-3.89149
-56.8768
-18.2173
-38.0806
-46.1755
-59.5596
-9.44826
6.02736
-57.0619
-31.4968
-50.925
-85.3809
-25.2798
-50.1258
-2.5685
-35.8972
14.1472
-0.398706
-11.359
16.1899
9.21817
8.31327
-5.42646
-15.0397
6.46102
-6.66579
-2.93293
-52.3755
-30.7455
47.3306
-48.7772
-7.46582
-4.83858
-47.6439
-2.87352
-50.6041
-5.07761
-1.44344
-13.5228
2.7634
-25.8576
-3.50037
24.2681
-22.8217
11.3069
-55.8855
-14.021
-15.5353
-20.412
-18.1613
35.9136
-58.9426
-26.1151
-58.2816
-58.5497
-53.186
-53.9669
-54.7056
-46.2702
-39.6903
23.7643
-55.4804
-55.5545
-24.5615
23.4447
-29.0656
39.1585
35.3934
51.3791
23.5003
31.0913
41.3439
35.039
22.0564
57.463
15.5125
15.3319
15.3058
11.9131
-26.6932
11.6483
19.6572
21.7154
21.1029
25.2288
37.5716
-9.4818
29.7997
41.402
-0.255596
46.3724
-61.6433
-31.9402
-47.7469
-13.9005
-14.1864
-21.9356
-54.9829
2.39766
2.96178
1.8678
3.1675
-9.52853
7.80678
9.45702
5.07206
7.65171
10.5547
3.46635
5.31444
5.60764
5.11272
5.88427
4.90133
4.98193
7.13779
11.477
13.2068
27.4416
10.3501
10.3229
-1.61732
-28.4001
-58.4914
-52.2185
48.0986
50.8428
50.4556
48.5849
48.3038
51.3494
52.2974
53.8465
31.6987
20.5614
26.1762
24.5469
22.0799
22.9209
17.1682
15.656
13.2604
20.7632
44.0673
46.5203
43.4686
44.5979
49.0755
37.259
5.41624
5.9296
4.45534
6.55288
5.57144
-2.77869
-7.7397
44.4798
45.072
11.0196
8.37549
11.1065
13.8594
18.9797
11.5729
4.7613
-23.791
-24.7471
-9.32571
11.6893
-17.8836
-5.62032
-5.65743
-34.5316
-4.03928
-46.4134
-10.6145
-17.3684
-46.4548
-0.752851
51.3271
-59.1445
-58.1766
-6.19504
-59.9116
-31.3351
-39.3687
-11.9064
-20.8272
-4.84896
-35.2529
-2.29362
-6.22042
25.9852
34.6527
30.2126
19.6708
-30.3451
-10.3105
3.31286
-34.9838
43.9492
10.1054
8.90074
-58.7303
-61.4302
-20.4868
-22.8824
-29.0114
-30.2204
-34.1169
0.645066
-15.1113
-60.8174
-98.3285
28.0725
-17.6133
-13.9382
-19.5408
-22.5883
-31.4769
-39.7435
-60.9182
-56.3758
-11.7639
-7.45129
-25.0684
-1.44669
44.4471
-48.0506
-57.1392
-9.36933
-37.9301
11.2874
-10.1805
13.302
3.07256
-55.1766
-10.946
-2.69437
-19.8865
-49.4214
4.15777
-30.0796
-8.53133
21.7366
-15.0586
4.70766
-1.49358
-4.79783
-14.7484
-6.56202
-33.0144
0.214177
8.94986
-7.07434
2.20456
-6.6522
-45.3946
-0.669681
-60.6331
-36.4606
-30.6458
13.8017
18.8589
-2.36466
1.86398
-45.0998
49.6758
2.58703
20.803
-17.6995
11.7182
-55.0962
-41.9148
-22.1448
-21.2776
-37.5032
-29.2127
13.717
-0.791708
-42.9697
8.53606
-6.43204
-53.2127
-11.9124
-8.05967
23.0788
30.6244
-4.82152
3.07817
14.7402
-5.14092
-17.0933
-57.5322
-57.4032
17.657
23.0612
5.08199
-17.144
26.0155
-57.9951
-30.3199
6.59801
-40.4399
-25.0371
-17.7972
18.2403
9.60233
-0.0133632
8.62738
5.46338
6.48259
-9.36241
3.84848
6.72677
15.2633
3.65348
25.974
22.8378
38.6123
16.2815
16.4971
13.3046
6.73169
-12.1012
27.525
6.82562
10.0833
38.5901
31.3392
-17.2309
-7.19738
4.13039
4.2117
-0.590752
-5.37581
-18.3038
-8.43393
4.19462
-12.7367
33.2446
1.00018
8.44157
5.04669
3.22265
0.40622
0.176671
1.55456
1.61756
4.96132
-7.78849
-92.3283
42.774
48.4313
50.4503
29.6115
-5.41823
0.124604
-12.7359
11.76
-5.84988
-30.7418
-16.6835
0.534454
-20.498
2.02874
-106.424
18.6473
24.9413
5.88793
-20.44
22.8227
-3.15295
30.1756
25.4451
19.5301
17.6871
33.301
6.88052
-33.6788
9.9662
33.2422
37.3912
26.2821
-13.9219
35.1303
-15.8814
30.204
-9.61383
1.5296
4.48859
5.57885
15.7033
13.3608
15.3737
12.6069
14.2582
15.368
12.7434
-5.65457
-26.2169
-12.1231
-34.2649
32.1453
-73.2206
-116.73
-51.9585
-120.722
-105.67
-25.7742
-21.1258
-60.5719
-32.147
-56.418
-11.6542
-41.5741
-60.7364
-20.7786
-21.4385
-18.9417
-24.7963
-42.3526
6.40133
5.32968
-1.5333
-6.97554
-39.4097
-13.7909
-60.2155
-59.6191
-7.14016
-51.8732
-9.52226
-29.8441
-9.12876
-15.0095
-63.2794
-29.956
-6.9338
-105.379
-8.82474
-73.5702
-32.8362
-74.9629
-56.5885
-60.8329
-49.7778
-59.6847
-51.7766
-57.6593
-0.0282042
11.8413
0.651922
-6.15941
-4.00466
31.5166
2.311
-3.4371
-21.157
0.776085
-12.0092
-5.11381
2.7366
2.12611
-59.3998
24.4759
58.5023
13.0286
-52.3735
-54.7039
-46.1969
-26.4161
-33.5177
-39.1566
-46.9361
-55.621
-55.4534
-39.3611
-37.4984
-23.4374
-27.0745
50.5337
24.5087
58.6448
-30.3205
-11.6275
-34.81
-22.3293
-2.32057
-2.14301
-2.86484
-1.58476
-0.630475
-3.66308
-3.59053
-4.43866
-55.0874
-55.9266
-59.8667
-56.096
-51.5812
-56.1988
-40.8976
-48.0578
-39.0596
-33.4576
-28.417
-22.93
-20.033
-27.0393
-24.8636
29.2327
8.80058
9.07065
15.5759
-42.7695
47.9393
14.039
-23.5616
46.3047
45.121
52.5052
16.494
-62.7768
43.1697
-5.20506
-1.16112
-12.9307
-13.9244
-7.07526
-54.2329
-10.6823
23.0524
-3.98638
-21.5337
2.99594
16.3179
14.121
23.5529
15.3465
18.181
-4.39317
19.3713
17.2988
7.76573
-6.82015
-12.2138
11.7809
9.09972
-54.3577
11.6036
-12.1359
-15.4739
-19.0166
-14.6401
9.24904
32.2738
15.2548
47.3749
19.0753
41.4366
-0.403045
-15.1523
-13.779
-4.73581
1.68511
13.7595
8.61887
2.26163
-4.64323
-0.322364
0.0878496
-4.01302
-2.06757
-1.43833
-33.1537
-24.9835
-18.0299
-15.8964
-32.1986
-36.4772
35.7966
47.0027
9.45697
9.32571
7.84101
52.2431
8.88864
7.5012
28.5507
22.7013
22.2296
2.09066
-2.56906
-0.954627
8.03759
23.0395
-2.75455
7.56015
10.0038
29.66
-14.9636
-12.5525
-2.29031
2.7672
6.87167
43.9757
46.9878
47.0212
19.16
32.6353
23.3177
1.60764
2.67393
1.28347
30.883
0.0960094
-0.477731
22.4875
19.165
-1.13664
28.0329
0.998767
1.21471
-56.6174
-10.0408
-10.6995
-83.7927
-0.455751
-0.291099
0.132236
2.60285
-19.8134
3.95178
4.43148
2.86957
15.982
15.267
20.3886
4.38502
-5.00552
-8.72941
14.6143
19.5721
44.1558
6.66471
5.90139
2.10451
-7.50649
-1.70815
-5.46794
-16.5569
12.657
11.2396
10.9901
27.8743
-45.7832
17.7721
28.2321
15.3057
-4.40138
28.8884
-5.26586
44.8845
2.0646
3.78434
-0.916717
52.9654
11.4057
53.1947
6.88856
0.541909
6.39149
-8.13911
-3.8652
-2.4675
-9.86984
-1.96361
3.80041
7.99867
23.6917
-9.45305
28.0995
33.2051
37.0079
42.1731
23.6202
-73.6769
14.7848
6.40164
26.855
34.078
18.9502
-98.7169
32.7602
55.8868
0.0485856
-0.635752
-30.9393
-58.9831
-8.52926
-4.2986
8.17777
0.411484
-1.87506
15.7112
-5.52097
34.7981
18.7265
-62.5141
-58.2778
10.2102
21.6117
11.5717
3.43879
-5.35868
13.5551
1.55099
39.2227
24.9884
5.81183
7.56348
3.35058
2.52589
-4.33335
32.183
39.8233
35.8495
-0.46547
30.4561
16.5406
-9.61063
-4.95862
3.77231
1.73762
-10.8448
-4.42511
-4.59598
4.49799
-11.0454
8.1401
-28.0209
-64.9562
-21.9967
4.7117
-9.13142
-5.94493
-4.08026
10.1764
0.748205
5.71509
6.16634
14.7893
17.1184
16.3812
-15.5936
52.7912
49.0109
34.7142
41.688
47.3049
53.2587
43.7172
39.1056
0.559908
-55.831
-1.80169
-16.5428
32.9547
-3.22041
22.7145
8.20114
-5.80598
-3.52385
4.75617
7.54036
8.39265
-5.87736
19.34
-0.508211
-1.86208
22.5409
5.73255
4.67751
6.75309
5.79395
2.9512
-24.2905
-15.7198
-10.2439
-7.39304
34.2875
44.4354
41.0971
0.453469
-8.5403
-60.0793
-53.3137
-57.5819
-59.3433
3.9151
-16.3343
-10.7611
-12.5591
-5.73877
-2.29484
4.16789
-48.8996
-38.2546
-53.6852
-2.99891
-15.905
14.9399
-45.6858
-43.2583
21.1085
33.041
-15.2446
-11.4311
-11.6592
-10.1762
-12.5018
-39.1584
-61.479
0.122306
-17.5701
-52.1741
-8.63666
-17.9379
-17.4265
7.13847
-23.688
-41.7952
-12.3922
37.0091
-58.403
-7.64538
1.09551
-8.61916
3.47365
14.8553
16.2998
31.7673
5.36306
4.55312
7.56787
11.3926
-0.803884
-12.9607
-43.0563
-2.16918
-27.4699
-40.8382
-61.9085
28.6176
22.1836
30.5906
18.9833
23.7446
19.6877
37.1372
28.8459
53.0318
28.8083
13.9438
-52.8275
-54.4056
-53.9936
-50.6191
-50.8527
-8.97493
-13.2226
-13.1317
-5.83902
-16.2488
-18.8371
-13.1833
-17.7718
-55.7658
-54.8181
-52.2801
-58.658
-58.9779
-60.1136
-41.8956
-32.6603
-58.7405
-52.1702
-38.867
-51.6685
-48.4255
-48.7199
-52.2102
-60.5569
-59.5542
-59.6504
-56.0061
-59.8
47.7666
-24.8379
-36.9297
0.292427
-8.67384
-32.5029
-55.485
-41.2153
-15.9415
-51.6078
-11.5233
-18.4071
-5.80546
-0.79189
-7.27969
-2.14428
-8.50393
-14.3063
-14.2658
-16.5154
-3.13211
-4.43457
-4.66783
-25.9441
-7.89113
-36.6185
-49.7546
-54.3434
-11.348
-25.0807
-35.4441
-55.1503
-7.6281
-24.48
-48.5425
-13.0504
-49.0726
-8.49779
-40.5987
-2.81692
-12.7605
-19.5219
20.9316
-6.94352
14.3644
20.0821
-24.5431
10.3061
-33.8898
-20.9212
2.33825
-13.6309
-2.49213
-18.0082
-22.3109
-7.37099
-3.0507
29.327
-5.7009
5.21739
-19.0448
-42.3378
-15.0863
-13.1215
-46.6434
-3.5134
-58.0659
6.13277
-35.4841
-3.14085
-17.2637
-61.6655
30.206
0.261369
23.3567
32.3339
24.7828
5.06179
0.610623
10.1002
-2.34257
1.53721
3.56113
10.8203
18.5265
4.20744
-37.2684
14.4012
5.8535
-45.526
16.5229
12.4987
20.7888
47.75
36.4726
-9.666
-4.70013
-20.4423
12.6929
-10.9692
-48.9557
21.1819
42.9793
4.70432
3.684
-1.67422
-21.6069
-36.8997
-11.3138
8.66893
-0.81206
3.36651
19.9124
31.2639
44.252
43.9393
1.36612
-41.1226
-13.9741
-14.6176
20.1198
-56.5245
-11.7276
-30.7087
-116.327
-2.41931
5.24821
0.695051
1.05571
0.486726
-50.2622
-67.964
-66.4874
-11.031
-1.89576
-1.51874
7.63367
-12.9646
-8.82899
-2.6562
-24.2631
-8.45069
-22.0786
17.9363
15.8877
35.4769
27.1147
25.6258
7.79475
31.9482
-9.73639
-59.4426
-54.9358
33.4944
31.3256
-52.3465
-11.9968
-13.2947
-27.9885
-55.1348
-46.1204
-44.1533
-50.5843
-45.4589
-60.1876
-26.5867
-25.7846
-14.0477
-12.0737
-6.21614
-56.0399
-2.04362
-46.7699
-52.8418
-4.64534
-35.8426
-58.1974
2.72693
7.40075
-12.7662
-41.1902
-7.37222
-16.5285
-48.581
-33.1747
1.19139
-5.76149
-3.36716
-55.9457
-43.168
-17.8111
-47.2591
-85.0977
-54.3954
-52.1282
-47.5979
-31.1111
-20.2318
-20.6183
-38.0908
-24.8465
18.5802
-6.38184
-27.1762
20.0064
-53.7904
4.3603
-2.83061
-0.910331
2.87026
3.82054
-36.1236
-0.357842
-7.53171
-25.7918
-34.7528
-35.5256
-23.9344
-25.6298
-51.6346
-25.4328
-16.5388
-16.2803
7.04708
-34.8638
-2.50455
-15.1881
-9.99683
-43.9199
-14.2434
-23.3073
-37.6105
-35.2035
-41.9551
-19.4203
-33.9442
-82.5776
-6.57341
-62.3505
-28.7533
-33.1444
-5.25577
-19.6848
-6.01416
-40.2934
-41.5665
-6.85808
-29.8123
-18.7092
-5.57298
-15.9121
-42.9275
-44.214
-27.0811
-0.409059
2.12381
5.40865
2.40671
5.99477
36.5301
33.6738
46.6453
45.5575
46.8546
42.6987
3.5796
13.6971
27.3023
20.8988
21.2757
8.01316
-65.4902
-25.7464
1.91967
-51.1223
-4.50782
-4.40272
-23.8168
-35.057
-3.57092
5.91969
-28.3735
17.7389
-8.98038
-4.03116
-3.9945
-3.67265
15.9644
-0.0101714
-7.38461
-4.89541
2.90742
25.1159
19.7487
8.19461
-14.6659
-16.1481
37.9962
33.5153
-9.76173
35.8824
16.2759
32.2021
40.399
43.0141
9.99838
16.6947
-5.32741
6.20258
40.6574
19.5748
15.8638
18.7783
18.2127
22.1419
0.773887
-5.81068
8.41577
2.52066
5.58526
4.69885
8.23871
-5.51113
4.92206
5.4372
-2.74778
-4.63942
30.7161
39.6775
-4.73419
32.7377
-38.5583
38.4122
45.7939
41.5734
17.2233
17.9604
31.4517
18.5316
13.3851
13.1223
12.0639
5.25446
4.75466
5.31166
26.8095
19.7752
21.4817
-10.6941
-10.028
4.69831
3.73901
0.352234
3.81959
16.5289
21.7294
-57.9868
16.5402
14.4377
13.87
-6.48233
25.1781
33.4823
-6.46792
-5.48712
-17.2523
-14.4062
-16.8574
-25.8816
-10.5975
-8.76875
-22.5924
12.1994
14.0755
19.451
13.3966
-8.04957
15.6264
17.2138
5.62883
6.07025
2.48125
14.2255
13.6662
20.3404
13.2677
11.6365
9.94562
7.83245
18.0116
-5.3409
7.98566
-5.44577
12.4549
10.3922
-2.42283
1.19657
1.11092
2.11011
1.10479
5.21394
-31.3161
-56.5196
-37.0005
-48.4638
-40.4523
-20.5727
-22.2542
-3.20398
-1.98793
-7.10933
-2.89659
-26.9101
-43.1648
-18.8147
-8.26976
-23.6898
-13.1322
37.7276
-18.7234
-57.8097
-60.7856
-54.816
-43.7305
-38.1738
-40.1857
-32.7674
-26.0328
-55.4826
-58.0656
-54.0365
-57.3111
-59.0806
25.9568
30.699
7.70022
-60.1411
-54.0077
34.0344
19.2925
-35.6038
-44.2162
28.3282
-84.802
-57.7484
30.3396
46.2277
17.4192
36.4804
24.7332
30.2542
47.9987
52.5299
35.2816
-55.8796
-56.3881
-55.6726
-55.7339
-14.3008
45.0067
-31.8818
-59.8623
-61.4908
-60.8795
33.8672
13.6529
31.4773
10.8183
35.6173
22.2756
6.97547
-18.8155
-74.7526
-60.9393
-4.65233
-26.5003
49.5721
47.8874
49.2675
27.5305
8.64929
9.39309
-21.5453
53.8176
18.8773
20.4539
14.0551
9.37785
56.224
58.1182
-46.7663
9.71367
57.3706
-10.2382
-53.0121
55.7925
17.9609
-34.6872
14.5466
-55.8197
30.8268
30.4469
-1.20922
39.2064
20.553
-10.5639
-1.65717
-24.064
8.76823
-14.7606
41.6934
-47.6672
51.7183
3.80378
4.91842
-22.9053
-54.5966
-53.5889
27.5409
-1.03345
-18.2065
-1.65365
-7.06727
8.99574
-21.5222
-20.9994
-33.7042
50.9625
58.4165
13.7961
34.9867
-45.2923
16.3523
27.4722
52.258
17.8866
42.4872
48.6909
23.3085
23.4253
18.0798
35.4928
31.8587
34.458
29.8858
21.6854
23.6115
27.9444
13.5387
22.6223
13.1543
20.2008
16.5527
44.1585
45.802
-11.799
-3.58029
-3.32224
-6.2145
-11.5505
-12.7054
-7.69178
-12.0303
-8.349
-20.0777
12.1134
10.1566
-3.65479
-6.60367
2.25626
7.12522
6.79508
-8.91198
-2.0177
1.33037
11.5957
-57.9704
10.0898
-4.38555
-19.0277
-72.1104
-52.7808
-22.5759
-30.2554
-0.0363715
18.5063
-14.7299
0.830636
4.69431
47.1425
-32.6385
45.2301
16.5305
10.0333
11.3508
-20.1585
17.5555
22.5238
37.2912
13.5088
34.8907
44.5638
33.2351
-18.5128
-21.7296
13.085
-1.07631
37.5191
4.94396
5.73545
39.4731
41.4455
41.7143
46.1502
40.3253
38.1889
6.9433
-0.104918
-0.93272
-2.66824
-2.84874
45.0617
-7.10563
-1.96366
25.7113
-16.1406
-56.1528
-58.3505
-4.08622
29.6561
27.8214
21.2544
17.0089
10.7711
-9.35056
15.4096
20.0694
22.8063
-21.8442
12.5406
12.9357
-7.16588
18.9459
18.9935
24.1222
11.1726
-57.4499
-57.3277
-31.9802
-24.2787
28.5107
8.07743
-17.1665
26.6834
19.5518
-5.85023
-4.37787
-12.6509
-6.13194
-24.9117
-14.0241
-0.439398
-55.0239
0.382223
0.274807
-0.807049
-15.8863
-0.210682
-20.7521
6.87396
-2.81335
-4.32268
-4.50028
1.70324
7.75841
-56.6336
20.9839
18.1719
19.0709
-3.28406
8.87308
21.232
9.29852
5.50715
2.8822
-9.37756
-10.5838
-13.8817
-10.7423
0.351227
-56.4799
-41.0428
-32.5698
-11.3496
14.6596
-42.0844
14.4612
-37.5423
-47.9115
-8.98295
-57.2109
-55.5259
36.8775
31.579
-55.8197
-51.5198
-65.7012
2.43247
17.3124
-19.3628
6.27709
34.6946
22.4074
6.05983
-6.11739
-3.74658
-13.7835
-14.3877
-2.46209
-13.8425
1.90341
-22.3678
-7.39672
0.430332
-9.80003
-17.8197
-8.1195
16.9351
-44.7931
3.2616
15.1909
-38.1867
-4.84595
-28.2728
8.06533
23.2503
15.2994
-10.0973
-14.9063
19.8986
15.8817
-2.08752
32.5078
14.4086
-45.3265
-4.8937
17.4506
24.722
1.36993
3.53856
5.2263
5.25379
4.14072
-29.3437
-57.0953
4.49285
0.252139
6.69256
12.0186
-7.69826
-77.3358
-16.968
39.6124
-11.963
-8.31228
-14.084
-5.65076
-5.09714
-54.4829
-27.9114
-44.3096
-14.4245
-7.72429
26.1392
-40.648
-36.097
-15.637
50.5424
-19.1269
24.971
-13.8263
-11.1274
-43.209
23.6801
-8.76198
-37.8426
-30.6722
-44.58
-14.5319
-43.2744
-59.5748
-33.3571
-17.7816
-36.3812
-60.1551
-56.8088
-61.9392
-14.4987
-9.9013
-36.528
0.817866
-7.01165
-6.87528
-24.5747
-4.43754
-13.0334
0.78146
-3.72935
-7.99088
-1.51285
-15.4526
-7.78933
-5.12055
-4.03184
-10.2471
8.16628
10.1646
-1.8642
-5.93354
6.30593
-44.1893
-13.9292
-35.3059
-19.5024
-12.0993
0.103871
19.9264
37.0454
1.28892
0.132846
4.14742
-5.24137
2.504
-21.6923
-15.451
-36.9803
11.2518
-18.3731
-12.1115
-3.50706
-11.4757
-9.84678
-34.2255
-51.1374
-53.7457
-84.9713
24.6529
-56.8411
28.2603
57.6742
26.9479
31.6588
21.3746
28.09
25.1201
-19.8639
25.3931
1.95742
-21.1852
-21.9913
-4.4052
-25.932
-2.11415
-2.16863
-47.4204
26.5831
13.6699
-27.1844
-37.4996
-55.0706
12.2017
3.12919
4.28178
4.01823
2.61337
12.913
17.8184
-0.693222
1.46488
0.306049
18.5856
29.1352
11.2693
-10.0114
19.2928
1.13508
9.12152
-4.15649
46.0895
-7.63602
0.256408
4.17562
-2.47911
1.1904
-2.68552
11.476
-5.15345
29.3291
31.0409
19.9411
8.14613
10.2649
8.97586
0.0222983
-55.139
-53.658
-20.4127
-15.2368
0.49434
-13.3118
-1.47758
17.3208
3.12698
5.3713
8.25494
-1.92011
-13.571
-2.97952
7.85058
6.29158
-4.21059
-1.42556
-0.711752
11.7359
-2.76129
-0.597382
-2.04665
1.51248
16.4131
14.4362
33.9117
28.3526
34.4553
29.0856
18.3535
-93.5207
32.5629
23.3794
32.7168
25.6978
14.2597
19.9316
-51.1014
5.80123
21.6967
36.1286
-32.8948
-3.40432
-58.3247
3.45895
-4.85485
-5.85853
-7.57881
-30.3756
-16.063
-57.7046
-56.5533
-56.9013
-37.813
-44.2282
-11.1685
-10.3471
-59.8467
-3.31541
-45.2504
-20.7527
-12.7736
-32.1455
-55.4906
-58.0176
-13.2748
-59.6867
-10.2508
-12.2051
-9.99551
-57.116
-5.28899
-19.4242
29.5781
-59.5901
-9.52675
-16.9519
-6.95323
-58.8167
-13.6171
18.316
-59.7741
-32.8085
-6.20393
-7.32521
-50.126
-50.1746
-12.8609
-5.96502
-13.7532
-10.8832
-3.23361
-1.99202
43.8265
-0.923787
-6.96864
-2.58398
-1.09851
2.28891
4.85707
5.86338
-1.38065
2.71956
3.61003
8.59877
4.03452
3.88559
-13.7626
-11.2446
3.00012
-2.21208
-1.51113
-3.31413
0.482945
0.196723
11.9386
6.22557
0.163267
2.02637
3.32056
0.797389
2.90878
-2.45248
10.8956
16.7243
-58.2936
-27.662
-60.927
-2.05588
47.0266
49.0466
60.1551
58.0008
59.3206
-40.958
20.3177
-7.38898
-55.7003
-58.5496
47.4801
-72.8952
-15.0922
-82.6492
33.0686
26.006
12.8241
7.86237
-2.73051
9.85907
13.61
11.4676
-22.3536
-112.125
-19.0558
-3.25242
-16.6399
33.0587
21.1942
-30.9215
-27.0704
22.8847
12.5739
-42.1662
-47.3865
-51.2918
-0.243841
3.26008
3.70802
5.07021
-47.6026
20.8102
32.7605
9.81839
-27.9471
-58.241
-65.8688
-76.5481
-62.8287
26.6792
27.4618
50.0952
1.98763
-2.44086
-11.576
2.45568
7.52811
7.41018
9.46568
56.859
-33.6476
-10.2772
7.52909
-0.454753
9.6406
3.19173
7.73951
0.37468
48.6817
50.4815
-8.01648
-4.74911
1.78943
11.6318
-58.5067
-11.2249
-3.6205
-58.8804
-6.00446
-6.02634
-6.47432
-6.24001
-21.5911
-43.4345
-3.49697
5.85885
29.7431
7.70465
13.1941
3.00744
-29.1842
32.7342
3.83266
7.59183
16.7341
29.2761
24.4687
38.7902
36.9481
26.1766
-33.246
18.2056
7.60204
12.2459
8.02875
13.7045
16.6094
-4.6932
-3.21179
2.75525
-11.4922
-20.0806
10.5628
20.0415
28.4526
-59.6238
35.4937
36.5708
26.5169
28.9842
50.3375
27.9449
32.2296
-24.1008
-65.4582
-8.13113
-4.32009
-30.1893
-44.1483
-0.0859166
-11.2486
-7.73051
-1.28861
31.1569
21.4561
20.1116
21.5197
21.675
30.5006
36.8782
20.6788
15.0175
8.5445
10.7689
3.42409
-0.64413
9.86876
13.8924
21.1254
28.2425
26.3095
31.7068
-19.1976
-14.1868
-51.3436
-12.0941
-5.62659
-29.8942
-14.5559
-0.816017
-73.7561
-8.64971
-28.041
-31.5239
-6.96544
-50.1715
-7.86396
-10.621
-56.3371
-27.7184
-12.1345
-22.4628
-60.4838
-55.8752
7.74607
8.77694
-39.8104
11.2891
5.90472
19.1511
-58.8225
31.2945
19.0628
15.6136
27.4604
54.2326
-13.4046
29.3545
19.6619
4.37936
-26.0711
-7.61562
30.2371
0.958524
14.3437
20.8525
29.2899
31.0708
44.8712
16.9223
16.911
-6.69466
-9.45756
2.33167
0.372602
19.0374
21.3743
15.857
-19.8456
19.6428
22.5875
19.635
15.3675
-56.5291
-2.24641
-1.91413
1.89489
2.74451
-4.37692
-3.41806
-5.13346
-7.59459
6.57188
-1.06324
-6.48087
-3.2223
-1.66516
-7.62864
-12.7537
-9.46785
-16.4608
0.889695
1.38943
0.210957
21.3781
19.3611
22.9647
10.7522
3.194
2.93262
8.53508
10.4066
9.50159
5.20846
6.79675
6.49236
7.01779
9.72644
16.3016
16.6156
12.9519
13.9063
26.4697
27.556
31.0002
31.5576
31.6871
29.0833
28.3202
-25.924
-25.0214
4.86918
-33.6105
-27.2244
-7.5228
5.3848
-13.6173
-3.96262
-4.5293
5.19022
-10.8951
-16.6968
-4.76946
-8.96083
-6.55553
-9.5724
-8.42158
39.9655
50.6491
36.1428
56.019
34.8908
44.1363
37.0819
50.5255
31.7978
40.0578
-1.47409
30.7451
44.079
38.6329
27.7019
27.1964
30.6408
26.9109
-43.9697
-24.4377
6.19578
-0.836677
-57.2396
-0.140866
-8.10182
1.83383
-7.77829
-4.76838
-0.868604
21.1191
17.1946
18.1359
-4.05147
-7.98899
-1.57776
-2.51332
-16.7193
-24.4104
4.80624
28.1312
17.304
17.7504
2.29475
-6.53499
0.462571
6.2607
-31.4719
16.8071
11.5997
29.6234
-58.192
-42.3848
12.3645
41.6112
40.5797
42.3849
11.4768
13.3908
26.0842
15.4462
14.0318
6.24449
-52.3718
-57.8528
-59.3672
-50.3352
-54.3671
-61.8704
-56.8511
-61.0471
-5.6441
-7.53197
-7.18673
-6.54964
-1.34236
-7.22815
-10.7768
-20.3909
-1.54604
-11.4699
-10.1789
-6.07306
2.65547
0.378389
10.3824
-1.55528
-1.75109
-4.1634
-19.9054
-3.91867
1.51416
-0.966791
0.276092
16.0839
-25.219
-2.02212
18.5638
19.1847
7.18188
10.4902
-16.2604
-51.3125
7.12976
20.1931
8.00228
1.33325
-5.42573
-10.526
38.9937
10.7865
3.91387
10.5872
-1.11338
23.4166
10.9963
25.6395
27.382
12.1698
-23.7703
-20.7186
4.77355
-30.2752
-97.4906
-68.584
40.8173
20.8202
-15.5915
-85.1315
7.90664
12.8148
-1.36857
42.5115
6.60085
18.4327
10.2366
18.1268
2.03408
23.7089
23.5868
10.2534
10.8355
14.6446
0.757833
20.4496
5.95714
9.28707
8.37672
5.46325
3.16423
8.38128
2.14282
1.82732
3.97079
8.65492
-9.06308
-0.195487
0.425944
-0.80895
56.3775
-113.096
30.5838
2.52905
14.5983
-3.4528
-23.03
12.7219
-8.10308
-19.9183
7.44035
-3.76495
14.1241
-16.7964
-54.0668
6.10246
33.127
22.6822
25.7802
-3.04584
3.51954
-3.01376
-0.421852
-7.63413
-2.74249
-4.38838
6.10947
8.9066
-13.7271
-7.76992
-54.0725
-8.16126
-24.5004
-9.37352
-5.37683
-17.022
-7.15475
6.79911
12.8275
1.19045
16.5983
25.2851
8.55853
21.2349
6.9535
29.8252
-38.1997
-36.0233
-8.4793
-14.8978
-14.7596
-41.8924
-4.91783
1.49535
-16.0121
-12.4095
1.14567
-8.2793
-7.08672
-23.9709
-123.977
-44.2204
-59.7414
-30.2455
-56.4155
-55.2743
-20.9436
-11.6773
-1.77766
-4.5335
-1.54761
-2.41193
-9.51176
-45.5354
-55.4101
-34.5039
-18.5831
-62.8948
-49.1474
-59.3657
-89.4447
-51.6402
-56.2072
-57.1152
36.2318
26.401
-32.9154
-59.9518
-59.4947
-53.8949
10.7367
9.40249
9.11437
21.042
24.5443
21.5253
5.03647
-14.329
-20.0817
-24.5709
-21.745
-6.29546
-4.15146
-4.52005
-0.921155
-9.07014
-8.87757
-5.41363
-8.5871
-5.08281
-2.48599
-2.47517
0.435956
-0.453427
2.6112
-33.0912
-29.6498
-32.6972
-33.0679
31.6997
29.5454
26.0612
14.5623
7.02975
21.3097
22.5375
49.9923
38.823
38.2487
46.4827
54.26
51.8901
48.2864
50.7488
-14.9886
-22.157
-11.3236
-0.408433
2.8287
8.04923
7.64027
31.8637
33.1046
35.2979
25.7873
41.1052
-28.4297
-21.0042
-23.4627
31.5317
30.2157
30.3016
9.96105
8.81187
-55.9147
9.02607
9.37457
8.84869
-64.1507
-130.868
32.1264
-61.4176
6.16648
5.26346
4.10427
-8.8835
9.40446
7.64096
36.5792
-46.5266
27.5491
25.0886
21.0544
-79.5017
5.53925
12.6964
7.38761
-13.3438
45.5335
50.7662
5.25986
6.24112
27.6159
16.5639
11.5868
20.2252
21.1214
39.3209
-1.80009
-27.6714
4.33961
-29.1534
-26.3522
9.15632
32.6938
-59.9725
48.5588
-11.3253
9.68972
-5.16626
-12.7446
-14.1404
-12.6964
-5.69372
-18.3305
-2.8678
-2.90685
-3.21078
-4.09413
-56.5531
-55.1739
-56.4208
44.9025
13.9416
13.8249
12.3885
16.1504
10.8825
51.616
46.4821
47.7886
35.1118
51.1749
54.5868
40.5075
45.1553
49.6714
35.6626
45.7196
45.4364
-33.5823
3.17973
-18.4912
-20.7653
-13.0612
-4.12356
-11.8134
5.79102
-42.2089
-26.6683
-19.6426
0.989967
6.58563
10.8732
-20.0185
-15.0037
6.0976
2.70394
-40.0504
-37.4438
43.7253
-36.2514
-20.9378
50.4697
-5.77028
-9.18974
-4.14311
-6.02837
-4.4842
10.5645
42.2377
50.5173
38.463
55.0444
37.9777
-3.30514
-1.85794
-4.19156
-5.32968
-68.7375
-6.72159
-1.24209
11.5076
8.49845
-2.88015
6.60645
43.4535
5.4256
44.3984
21.4618
27.9026
22.8987
25.6637
24.981
10.0767
-0.772461
29.9126
30.915
48.8243
29.782
-47.8177
5.73312
1.18686
-5.3426
-3.63352
-5.45361
-4.96709
-12.6078
-85.2384
17.1062
-7.71037
7.81657
0.991127
8.41079
-3.462
4.69691
-3.46252
4.66626
-0.056924
9.22957
2.94986
11.3099
6.94586
-6.33442
-2.00005
2.3603
-49.1044
31.6332
-90.8072
-89.7563
-18.649
-22.7694
-56.7942
-58.4735
-2.0304
-13.7123
-7.45006
-16.5624
-30.0617
-22.5174
39.7569
13.8181
17.262
16.2319
23.0962
31.534
38.4491
39.6184
-13.0179
-9.41033
44.5777
48.8917
10.9639
21.7766
26.7161
23.0326
59.9914
-10.3088
29.7395
21.6636
11.3287
-61.8671
17.0795
18.5678
33.2271
29.3625
40.9712
38.0865
-36.0443
25.0122
32.6576
28.1191
29.5178
25.7644
-15.7345
-17.625
-14.2958
-19.633
5.39091
5.44004
7.3589
-7.76153
-1.79635
-18.6262
-2.53759
-22.0702
-17.2638
12.3946
12.3064
-9.28363
10.985
-93.9335
-49.0746
-17.7878
-46.5086
22.2483
59.3463
49.0874
46.9219
39.9297
-59.985
-26.8032
-43.8366