/*--------------------------------*- C++ -*----------------------------------*\
| =========                 |                                                 |
| \\      /  F ield         | OpenFOAM: The Open Source CFD Toolbox           |
|  \\    /   O peration     | Version:  2506                                  |
|   \\  /    A nd           | Website:  www.openfoam.com                      |
|    \\/     M anipulation  |                                                 |
\*---------------------------------------------------------------------------*/
FoamFile
{
    version     2.0;
    format      ascii;
    arch        "LSB;label=32;scalar=64";
    class       volScalarField;
    location    "0.0321508";
    object      nut;
}
// * * * * * * * * * * * * * * * * * * * * * * * * * * * * * * * * * * * * * //

dimensions      [0 2 -1 0 0 0 0];

internalField   nonuniform List<scalar> 
47425
(
0.00622117
0.00541648
0.00486781
0.00206471
0.00356668
0.00485631
0.00501923
0.00340069
0.00742846
0.00188684
0.00253475
0.00731023
0.00593369
0.00437706
0.00370862
0.00389432
0.00508149
0.00280139
0.000290328
0.00316313
0.00398615
0.00740019
0.00332336
0.00538077
0.00725943
0.00739249
0.00439394
0.000517509
0.00482635
0.00619238
0.00752332
0.00715758
0.00745869
0.00539552
0.00650768
0.0052086
0.00741071
0.00538105
0.0053217
0.00458011
0.00516791
0.00618636
0.00523589
0.00261051
0.000749952
0.00349218
0.00364274
0.00454579
0.00437803
0.00701696
0.000669512
0.00261635
0.00681546
0.000994397
0.00334464
0.00300593
0.0074378
0.0061461
0.00220856
0.00559173
0.000841983
0.000699455
0.000993021
0.00372055
0.00738497
0.00730615
0.00556818
0.00522964
0.00109964
0.00551767
0.00439567
0.00683452
0.00710485
0.00391092
0.00124296
0.00746284
0.00101905
0.0042714
0.000243869
0.0022608
0.00122254
0.00548227
0.00751323
0.00739447
0.00727444
0.00419421
0.00640901
0.00686389
0.00534084
0.0014063
0.00744027
0.00460124
0.00741705
0.00328518
0.00263084
0.00191975
0.00682217
0.00674148
0.00389877
0.00470206
0.00561288
0.00111543
0.00668095
0.00106664
0.00691739
0.00669955
0.00720788
0.00370659
0.00741186
0.00723594
0.00256773
0.00551263
0.0062183
0.00233224
0.00707344
0.000358011
0.0070998
0.000791482
0.00452199
0.00629412
0.00433035
0.00747176
0.00598146
0.00332311
0.00371468
0.00670867
0.0041426
0.00741897
0.00344068
0.0074538
0.00745411
0.00359992
0.00109158
0.00301896
0.00666107
0.00598753
0.0071918
0.00656639
0.00503657
0.00344331
0.00502646
0.00287236
0.00485961
0.00562551
0.00670728
0.0074244
0.00424089
0.00549846
0.00244756
0.00502208
0.00571687
0.000562619
0.0073915
0.00043574
0.00362402
0.00415596
0.00349523
0.000306872
0.00398278
0.00481945
0.00727009
0.00742442
0.00684132
0.00723156
0.0012675
0.000553055
0.00745251
0.001245
0.00334123
0.000891374
0.00123974
0.00423383
0.00480294
0.00439523
0.00505996
0.00138325
0.000399422
0.00493856
0.00651251
0.00737505
0.000331051
0.00717624
0.0057155
0.00728244
0.0071269
0.00687446
0.00616554
0.00121071
0.00245997
0.00640793
0.00747157
0.00493968
0.00467529
0.00474171
0.00713038
0.00727648
0.00582732
0.0047975
0.0073896
0.00415649
0.00537982
0.0029997
0.00736306
0.00720397
0.00297117
0.00237896
0.00648218
0.00721692
0.00413877
0.00747224
0.00533629
0.00532291
0.0074575
0.0035721
0.00558442
0.005636
0.00500006
0.00176181
0.00390246
0.00391997
0.00212561
0.00288436
0.00583565
0.00357245
0.00239376
0.00168466
0.00709536
0.00274206
0.00716172
0.00480419
0.00520382
0.00479799
0.00349264
0.00748947
0.00226547
0.00367534
0.00195431
0.00312313
0.00222908
0.00204975
0.00415472
0.00620619
0.00745373
0.00332951
0.00739165
0.00732131
0.00508299
0.00590051
0.00740104
0.00456619
0.00749124
0.00249876
0.00527563
0.00742055
0.00382766
0.00743398
0.00727419
0.00312375
0.00353801
0.00739307
0.00314094
0.00746879
0.00448901
0.0027506
0.0060731
0.00405394
0.00735013
0.00574716
0.00558677
0.00428142
0.00440653
0.00246731
0.00196398
0.00704676
0.00258862
0.00212689
0.00258614
0.000564937
0.00201434
0.000684842
0.000925381
0.00639772
0.000915536
0.00305283
0.00436318
0.00389166
0.00350789
0.0038013
0.00411863
0.00703558
0.000770119
0.00631551
0.00737546
0.00605373
0.00517367
0.00354285
0.00318035
0.00725304
0.00524569
0.00457312
0.00403865
0.00733445
0.00401806
0.00581712
0.00113951
0.000841289
0.000585231
0.00744093
0.00701983
0.0074858
0.00338023
0.000841325
0.00401874
0.0029813
0.00161027
0.00487509
0.00344121
0.0031164
0.00380647
0.00176559
0.00178663
0.00743189
0.00567798
0.00712851
0.00432456
0.00740127
0.00441326
0.00573332
0.00654507
0.00478629
0.00442965
0.00112838
0.00476309
0.00451829
0.00297912
0.00747567
0.00101023
0.0066513
0.00719305
0.00667518
0.00732607
0.00728894
0.00738333
0.00650839
0.00698326
0.00665607
0.00597374
0.00717199
0.00424536
0.00425786
0.00717841
0.00729156
0.00555514
0.00708774
0.0070063
0.00313101
0.00448936
0.00754737
0.00694385
0.00386022
0.00192355
0.00639433
0.00441957
0.003795
0.00712142
0.00686994
0.00287533
0.00743177
0.00516796
0.00737809
0.00286822
0.0013868
0.00437291
0.00745163
0.00192625
0.00743133
0.00613053
0.00397165
0.00502628
0.00738334
0.00563162
0.00736595
0.00738669
0.0048238
0.00418606
0.00439923
0.00421623
0.00663483
0.00717852
0.00417184
0.0070706
0.00732214
0.00435612
0.00609512
0.00539072
0.00702098
0.0055199
0.00384331
0.00229496
0.00701431
0.000814186
0.00723301
0.00223891
0.004981
0.00356607
0.00356324
0.00702553
0.00250374
0.00712018
0.00375452
0.0072875
0.00102827
0.00104162
0.00741944
0.00326835
0.00421217
0.00392239
0.00434104
0.00456936
0.00432968
0.00409491
0.00514959
0.00740739
0.00326361
0.00486472
0.00684716
0.00332492
0.00454588
0.00654281
0.00101134
0.000383781
0.0070411
0.000522022
0.0004661
0.00407621
0.000464605
0.000688454
0.00686846
0.00425237
0.004535
0.0044033
0.000931335
0.00403013
0.00681517
0.00669779
0.00473463
0.0046688
0.00420019
0.00425457
0.00088935
0.000741715
0.00145814
0.00543588
0.0011973
0.00393867
0.00627813
0.00741192
0.00608731
0.00743122
0.00423966
0.00478951
0.00284717
0.00506206
0.00748966
0.00441145
0.00587118
0.00452439
0.00739483
0.00536854
0.00514844
0.00523529
0.00562901
0.00346255
0.00293774
0.00556531
0.00430688
0.00738862
0.00112407
0.00284819
0.00249558
0.0074292
0.00271027
0.00283877
0.00364089
0.00745713
0.00462336
0.00737749
0.00504459
0.00346883
0.00345184
0.00420125
0.00381719
0.00643039
0.00242657
0.000938471
0.00721759
0.00187138
0.00588597
0.00185699
0.00703771
0.00663482
0.0073597
0.00504389
0.00607492
0.003158
0.00571745
0.00703344
0.00743191
0.00749863
0.00470314
0.00278697
0.0044221
0.00744229
0.00610148
0.00625953
0.00622395
0.00590742
0.0050597
0.00477106
0.00298597
0.00472559
0.00372188
0.000717906
0.00572778
0.00504087
0.00655621
0.00741239
0.00186564
0.00183616
0.00463989
0.00687882
0.0044686
0.0045349
0.00696728
0.00186943
0.00748166
0.00241297
0.00262036
0.0029711
0.00598212
0.00308222
0.00751389
0.00481446
0.00490911
0.00724286
0.00739634
0.00675493
0.000880742
0.00556912
0.00255796
0.00726914
0.00180424
0.00720489
0.00595295
0.00244745
0.00260424
0.00500699
0.00727078
0.000713491
0.00640019
0.0059719
0.00644777
0.00678275
0.00734976
0.00253333
0.00285528
0.00690511
0.00649803
0.00515538
0.00737253
0.00185503
0.00738594
0.00564209
0.000546537
0.00482347
0.00739793
0.000779919
0.00142793
0.00737243
0.000327693
0.000349698
0.00473011
0.00742747
0.00654559
0.00747806
0.00437699
0.00402969
0.00143288
0.00747156
0.0028466
0.00667168
0.00212864
0.0024095
0.00436237
0.00508509
0.00174864
0.00411878
0.00664373
0.00376022
0.00390531
0.00314308
0.00306641
0.00308711
0.0067917
0.00366195
0.00285295
0.003955
0.00539788
0.00339654
0.00404361
0.00706684
0.00282248
0.00385388
0.00444785
0.00288241
0.00348701
0.00519142
0.00493183
0.00655413
0.00197974
0.00509695
0.00696067
0.00715888
0.000313075
0.00425005
0.00576293
0.000591168
0.000773489
0.00744825
0.00481718
0.000252052
0.00213772
0.000908056
0.0023898
0.00315515
0.000611688
0.00590981
0.00698076
0.00591614
0.00336111
0.00335901
0.00332984
0.00725783
0.00320291
0.00532404
0.00418855
0.00684484
0.00440661
0.00434757
0.0019549
0.000893145
0.00296868
0.0032615
0.00420129
0.00667147
0.0034759
0.00738843
0.00603836
0.00567353
0.00528809
0.00675844
0.00204716
0.00470349
0.0071238
0.00181678
0.00200684
0.000963339
0.00139309
0.00409989
0.00759912
0.00488868
0.00738671
0.00100235
0.00489258
0.00108706
0.00433562
0.00433945
0.00601823
0.00498306
0.00581864
0.00395113
0.00224688
0.00392981
0.0062809
0.00192255
0.00476514
0.00748613
0.00468507
0.00405876
0.000818492
0.006052
0.00188186
0.00409643
0.00747423
0.00729395
0.00261292
0.00435971
0.00443038
0.00739916
0.00535677
0.00469349
0.00470197
0.00435994
0.00436136
0.00535264
0.00105192
0.000683098
0.00481241
0.000905398
0.00518611
0.00309627
0.00359434
0.00705609
0.00486627
0.0057438
0.00449412
0.00434115
0.00734987
0.000617503
0.00226039
0.00357418
0.00517013
0.00714428
0.00389703
0.00650689
0.00254165
0.00734861
0.00122629
0.00421256
0.00727654
0.00448081
0.0069819
0.00577431
0.00491773
0.00688751
0.00379618
0.00742157
0.00720464
0.00479511
0.00103581
0.00750502
0.000568071
0.00216715
0.00241853
0.000506269
0.00439553
0.0034388
0.00250269
0.00415895
0.00085798
0.000403539
0.000924486
0.00365785
0.00574348
0.0038803
0.00306417
0.000980224
0.00268024
0.00385953
0.00651873
0.00495614
0.00455576
0.00322183
0.00620932
0.00441098
0.00128749
0.00228734
0.00556618
0.00246496
0.00121077
0.000784257
0.00414317
0.000396141
0.0017374
0.000705065
0.000890802
0.00450688
0.00307795
0.00741027
0.00706902
0.00496689
0.000453174
0.00150124
0.0048915
0.00495549
0.00741311
0.000805814
0.000517512
0.00744432
0.00230893
0.0038363
0.00742809
0.00226873
0.00742572
0.007491
0.00474593
0.00497603
0.00169624
0.00686563
0.0074473
0.00570056
0.00534772
0.00532214
0.00118744
0.00183823
0.00736677
0.0014661
0.00702758
0.00735337
0.00725964
0.00184932
0.00464319
0.001946
0.00288861
0.00632814
0.0074328
0.00145709
0.000746438
0.0047697
0.00411574
0.00186389
0.00556143
0.005626
0.00315607
0.0028921
0.00294579
0.0032565
0.00239651
0.00115451
0.00742384
0.00124027
0.00639268
0.00394836
0.00743753
0.00212221
0.00284216
0.00751827
0.00271666
0.0013927
0.00411006
0.00179184
0.00543504
0.00641836
0.00492554
0.00350208
0.00490426
0.00338723
0.000767775
0.00510466
0.00316439
0.00182516
0.0018129
0.00078319
0.0017737
0.00424018
0.000586536
0.00737693
0.00709479
0.00433063
0.00255562
0.00403033
0.0015783
0.00146484
0.00332246
0.00615506
0.00502482
0.00333376
0.00365558
0.0040194
0.00453694
0.00127664
0.00417069
0.00521197
0.00215196
0.00174116
0.00313513
0.000568853
0.00400931
0.0053787
0.00387049
0.00405183
0.00578621
0.00734707
0.00337527
0.00387264
0.000858825
0.00300595
0.0050667
0.00379087
0.00630959
0.00356477
0.000860423
0.00462904
0.00215066
0.00651973
0.00222701
0.00286772
0.00376024
0.00547214
0.00531981
0.00358053
0.00158274
0.00405211
0.00175262
0.000761237
0.00559059
0.00729617
0.00596228
0.00120194
0.00594231
0.00170021
0.00668142
0.00174241
0.00169954
0.00334875
0.00359263
0.00434686
0.00742696
0.00515119
0.00321278
0.000995911
0.00240417
0.000689798
0.00741534
0.00263285
0.00302745
0.00231494
0.00387994
0.00301253
0.00171154
0.00167167
0.00365956
0.000888118
0.00383907
0.00394178
0.00476314
0.00529992
0.00406866
0.0051491
0.00145984
0.00370602
0.00395702
0.00550518
0.00663281
0.000841104
0.00195666
0.00077306
0.00182581
0.00131585
0.00210259
0.00401422
0.00139166
0.00390136
0.00144942
0.0020335
0.00206966
0.00133235
0.00348004
0.00600145
0.00477508
0.00749693
0.00165389
0.00376197
0.00359523
0.00478823
0.00163963
0.00653079
0.00453284
0.00668206
0.007466
0.0029874
0.00222943
0.0030454
0.00377733
0.00651961
0.00236079
0.00725212
0.00343275
0.00324677
0.00723466
0.00274939
0.00192795
0.00499777
0.00254577
0.00428667
0.00280245
0.00208506
0.00297447
0.00322258
0.000229842
0.00058923
0.00166799
0.000405834
0.00345721
0.00370128
0.000603515
0.000546751
0.00604035
0.00118226
0.00341313
0.00426332
0.000526451
0.00266472
0.00707891
0.00325431
0.00178168
0.00694505
0.000763761
0.000352829
0.00242556
0.00080287
0.00232681
0.00100361
0.000886334
0.00599451
0.0046813
0.00278883
0.00200437
0.00382673
0.00724101
0.00238497
0.00069341
0.00622907
0.00176387
0.0048743
0.0021344
0.00693259
0.00634498
0.00203966
0.00206552
0.00437343
0.00190256
0.00577139
0.00123979
0.00738379
0.0069416
0.00300129
0.00186116
0.00496775
0.00744361
0.000806499
0.00142976
0.00173695
0.00377547
0.00349622
0.00216897
0.00111336
0.00440899
0.00109897
0.00194435
0.00602424
0.00340792
0.00217142
0.000835022
0.00262255
0.00210297
0.00598138
0.00616459
0.00226439
0.00434572
0.00301325
0.00521748
0.00740452
0.00712658
0.00469596
0.0023666
0.000730406
0.00485971
0.000501881
0.0047768
0.00469126
0.00311251
0.00617538
0.0039971
0.00490977
0.00512759
0.00197308
0.00647531
0.00157572
0.00747748
0.000389447
0.00123881
0.0016511
0.00201046
0.00477388
0.00557832
0.00357284
0.00659255
0.000725938
0.000712967
0.00348342
0.00215259
0.000912471
0.000948163
0.00238531
0.00117733
0.00050606
0.00378077
0.00688698
0.000481305
0.00419926
0.00532896
0.0046925
0.000762565
0.000646009
0.00429437
0.00467595
0.00144949
0.00233784
0.000823883
0.000775322
0.0033401
0.00107099
0.00115173
0.00344806
0.00494455
0.00110315
0.00673106
0.00114729
0.00023894
0.00744518
0.00523366
0.0042635
0.00623292
0.00309479
0.0033311
0.00739898
0.00305033
0.00418373
0.000980974
0.00178347
0.00554479
0.0014187
0.00547405
0.000394968
0.00699965
0.00387209
0.00235258
0.00676705
0.00107443
0.0040712
0.00317847
0.00240668
0.00222046
0.0040969
0.00260148
0.00213479
0.000785702
0.00690191
0.00132029
0.000773155
0.00107796
0.0048576
0.00110839
0.00204269
0.00478388
0.00516837
0.00117408
0.00204194
0.00257126
0.000792061
0.00258682
0.00109232
0.00274398
0.00296486
0.00230694
0.000973115
0.00320693
0.00696487
0.00226416
0.00429783
0.00255711
0.00230437
0.000637736
0.0058998
0.00415798
0.00576187
0.00156024
0.00562312
0.000574789
0.00252597
0.00561053
0.00737991
0.00199175
0.00191175
0.000997781
0.00193694
0.00256635
0.00129858
0.000989738
0.00433754
0.00094098
0.00269604
0.0031732
0.00051945
0.00152927
0.0030892
0.00290171
0.00561488
0.0017054
0.000495645
0.00190507
0.00230401
0.00259176
0.00723519
0.00209533
0.00564964
0.00380062
0.00627833
0.0012134
0.00216508
0.00156193
0.00445738
0.00179201
0.00430084
0.00283876
0.00130753
0.00192451
0.00245488
0.00265656
0.00611323
0.000424294
0.00161223
0.00172874
0.00146695
0.00270469
0.00606352
0.00113696
0.000545814
0.00170432
0.00320108
0.00285217
0.00230711
0.00253635
0.00101177
0.00598262
0.00142176
0.00166683
0.00641481
0.00149015
0.00348824
0.00262964
0.00292697
0.00151778
0.00247324
0.00699632
0.000701329
0.00344052
0.000683896
0.00269834
0.00440222
0.00272323
0.00224483
0.00156645
0.00320243
0.00438708
0.00318627
0.00146231
0.00447116
0.00504085
0.000630575
0.00739359
0.00393573
0.000853996
0.00436664
0.00273415
0.00147622
0.00248885
0.00116044
0.00434281
0.000194732
0.0016671
0.0013137
0.00216916
0.00132769
0.00337601
0.000943034
0.00136533
0.00130697
0.00334634
0.00406675
0.00739922
0.0042101
0.00397197
0.00293096
0.000658743
0.00386707
0.00615075
0.00548718
0.00564509
0.00356593
0.00429175
0.00751261
0.00747577
0.00307305
0.000995377
0.00733806
0.00288485
0.00235377
0.00554739
0.0070834
0.00292849
0.00285707
0.00746904
0.00615826
0.00349962
0.00370442
0.00704866
0.00390293
0.00108701
0.00399056
0.0043285
0.00614919
0.00741372
0.0015307
0.00508879
0.00639453
0.000723838
0.00120206
0.00098951
0.00720261
0.000919802
0.000462552
0.00712152
0.000310916
0.000835745
0.000531065
0.00401305
0.00520902
0.00439755
0.00164666
0.00736933
0.00452161
0.00464235
0.00403341
0.00294677
0.00384633
0.0035394
0.00123021
0.00446087
0.00293168
0.00090493
0.00405841
0.000424844
0.002068
0.0013154
0.00719809
0.00311227
0.00203776
0.00665741
0.00516897
0.00195681
0.00746299
0.00236016
0.00188897
0.000398879
0.00707272
0.00155091
0.00608295
0.00314935
0.00298472
0.00604853
0.0014413
0.00551129
0.00237584
0.00567561
0.00130951
0.000271944
0.00443803
0.00741141
0.000414237
0.00493238
0.000322121
0.00403809
0.00385356
0.00476474
0.00467123
0.00591327
0.00708179
0.00444074
0.00223831
0.00589952
0.00222745
0.00419517
0.00395746
0.00735782
0.00237574
0.000827473
0.00410041
0.00249541
0.00602811
0.00506201
0.00313732
0.00439342
0.00478195
0.0062565
0.00245157
0.00268622
0.00747208
0.00401646
0.00452216
0.00531743
0.00389542
0.00309984
0.00254372
0.00444193
0.00409722
0.00248759
0.00400817
0.0064565
0.0052231
0.00686709
0.00216714
0.00227518
0.00196246
0.00367295
0.00504808
0.00470477
0.00136251
0.00636184
0.00623072
0.00580608
0.00166777
0.0030119
0.00132021
0.00132003
0.00127762
0.00394583
0.0050725
0.00499552
0.00467774
0.00686834
0.00128212
0.00465501
0.00711725
0.00438675
0.00332816
0.00475
0.00111731
0.00482895
0.00239538
0.00281282
0.00356287
0.00649477
0.00484115
0.0039294
0.00398204
0.00504162
0.00312695
0.00369777
0.00295698
0.00395947
0.00509166
0.0048991
0.00227249
0.00200491
0.00526973
0.00435651
0.00251207
0.00384887
0.00231633
0.00731478
0.00637158
0.00249675
0.00500935
0.00626947
0.00481186
0.00720025
0.00732052
0.00423235
0.00460632
0.0019999
0.00485184
0.00279158
0.00700489
0.00489976
0.00100288
0.00434582
0.00432784
0.00578231
0.00557722
0.00410848
0.00436656
0.000340258
0.00349953
0.0032888
0.00677047
0.00582194
0.00513324
0.00744757
0.00696282
0.00354281
0.00426568
0.0069621
0.00728636
0.00257164
0.000977707
0.00143604
0.00311355
0.00182894
0.00357892
0.00446464
0.00358691
0.00180031
0.00203097
0.00378088
0.00429528
0.000867576
0.0052432
0.00429184
0.00406896
0.00416313
0.00729103
0.000344856
0.00505102
0.00379363
0.00738546
0.00280745
0.0032314
0.000388972
0.000253837
0.00505511
0.00642795
0.00736895
0.00412999
0.00382733
0.00593509
0.000239745
0.00104578
0.00525665
0.00260578
0.0014298
0.00536717
0.00613427
0.00291785
0.00738927
0.00551991
0.00717721
0.00466583
0.00257786
0.00412071
0.00442916
0.00612321
0.00223507
0.00461025
0.00743693
0.00119756
0.00571464
0.0038666
0.00304986
0.000992513
0.00132501
0.00356254
0.00288091
0.00597919
0.00284804
0.0029802
0.00712887
0.000618111
0.00141121
0.00288009
0.00406026
0.0034093
0.00402221
0.00401789
0.00103249
0.00745089
0.00715349
0.00575149
0.0054107
0.00100307
0.00142803
0.0012158
0.00177676
0.00343973
0.00288217
0.00745375
0.00756505
0.00455462
0.00568349
0.00529819
0.00625174
0.00746755
0.00114317
0.000386185
0.00736129
0.00735973
0.00351851
0.00152628
0.00365917
0.00741927
0.00560613
0.00156459
0.000929588
0.00362445
0.00197128
0.00273581
0.00191898
0.000487927
0.00306113
0.00680708
0.00746441
0.00617177
0.000932859
0.00624532
0.00435219
0.00445714
0.00743899
0.000863929
0.000226331
0.000466509
0.00172929
0.00235866
0.00688254
0.00741752
0.00274527
0.00453386
0.00096047
0.000875787
0.000575306
0.000453693
0.000689866
0.0019021
0.00690807
0.000896757
0.00739309
0.000417831
0.00391733
0.000738171
0.00454021
0.00198577
0.00702244
0.00334282
0.00224854
0.00225996
0.00645743
0.00560761
0.00400047
0.000990165
0.00125161
0.00501038
0.00519996
0.000486629
0.000346046
0.00409725
0.00149013
0.000582762
0.00113401
0.0050146
0.0073254
0.000719352
0.00055301
0.00139915
0.00741015
0.00123152
0.006813
0.000622973
0.00110985
0.00030066
0.00223587
0.00651957
0.00188746
0.0072263
0.00475068
0.00413269
0.00249594
0.00639212
0.00407923
0.00572445
0.00388681
0.00444857
0.00738413
0.00704175
0.00410243
0.00702715
0.00659955
0.00457988
0.00535526
0.00190427
0.00397885
0.00247976
0.00412299
0.00668313
0.00509219
0.000945106
0.00378535
0.00353869
0.00230301
0.000658397
0.00456816
0.00259628
0.00389569
0.00105532
0.00218541
0.0013756
0.00546606
0.00725823
0.00545006
0.00365111
0.006219
0.00357103
0.00339149
0.00406803
0.00734604
0.00513017
0.00631152
0.00487357
0.00327173
0.00493452
0.00379216
0.00072889
0.00380094
0.00423401
0.00455337
0.00311777
0.00118665
0.00221664
0.00438629
0.00506713
0.00333106
0.00106036
0.00121328
0.00427092
0.0034094
0.00038242
0.00157536
0.00208142
0.00412323
0.00154589
0.0032412
0.00407856
0.00343997
0.00119
0.004823
0.00418819
0.00267606
0.00687563
0.00238888
0.00284252
0.00328379
0.00338125
0.00196445
0.00453796
0.00587982
0.00746274
0.00219011
0.00342421
0.00442889
0.0020507
0.00540541
0.000965632
0.0029603
0.00339561
0.000452861
0.0020155
0.00694179
0.00352201
0.000825979
0.00173675
0.00244054
0.0073921
0.00291385
0.0012619
0.00644868
0.00753515
0.000705546
0.00212592
0.00152496
0.00217723
0.00599074
0.00491013
0.00133296
0.000479118
0.000780883
0.00426922
0.0061395
0.000597645
0.00718341
0.00197717
0.00306537
0.00150717
0.00130457
0.00642481
0.0036192
0.00116908
0.0040964
0.00454944
0.0049235
0.00368414
0.00590542
0.00105615
0.000305323
0.00409395
0.00364463
0.000653833
0.000605104
0.000697873
0.00245581
0.00119725
0.00220459
0.00061736
0.00353639
0.0035348
0.000815228
0.00240261
0.00255458
0.000511036
0.000842278
0.000367829
0.00735994
0.00694085
0.000393139
0.00626139
0.00431634
0.000803506
0.00611342
0.00294647
0.00475702
0.00330056
0.00511445
0.00667207
0.000499526
0.000378657
0.00181245
0.000706583
0.00241741
0.00410311
0.00444412
0.00491598
0.00336749
0.00547762
0.00611912
0.00446099
0.00538933
0.000471109
0.000531935
0.00445512
0.00201579
0.005742
0.00398381
0.00305944
0.00360715
0.00373452
0.00503658
0.000526829
0.00125047
0.00431857
0.000629903
0.00284425
0.00137634
0.00255356
0.00368491
0.000953762
0.00284211
0.00119613
0.00269375
0.00293085
0.00293028
0.00673711
0.00136778
0.00741279
0.00606262
0.00274854
0.00436617
0.00151055
0.00350031
0.00189719
0.00348097
0.000868233
0.00412432
0.00348098
0.0037255
0.00737076
0.00333845
0.00348728
0.00177272
0.00053022
0.00331151
0.000655108
0.00349165
0.0049011
0.00217436
0.00496078
0.00562678
0.00533571
0.00318234
0.00130923
0.00220543
0.00148997
0.000667516
0.00223413
0.00497871
0.000173394
0.00106995
0.00530038
0.00318412
0.00146898
0.00390047
0.000818982
0.000465141
0.00269842
0.00127885
0.0014239
0.00299307
0.000852677
0.00196823
0.00706149
0.00351996
0.00107508
0.00113567
0.00718433
0.00103653
0.00746287
0.00266417
0.00593395
0.00266442
0.00193598
0.00100006
0.00104953
0.00587282
0.00568487
0.000245024
0.00740047
0.00432052
0.00118337
0.00647656
0.00290912
0.00239179
0.00389874
0.000520416
0.00157684
0.000532644
0.00161546
0.00315308
0.00128374
0.00662976
0.00574191
0.00118758
0.00715557
0.00386677
0.0026634
0.00545399
0.00147705
0.000518344
0.00731984
0.00268061
0.0072988
0.00084468
0.00521068
0.000619532
0.00287746
0.0024727
0.0066277
0.00260946
0.00269261
0.00694791
0.0056656
0.00344621
0.00747387
0.00129144
0.00349091
0.0035753
0.00655839
0.00454295
0.00356144
0.00286418
0.00293449
0.00237948
0.0033357
0.00439575
0.00453104
0.00169072
0.000599457
0.000812067
0.000756982
0.00130188
0.000883882
0.000795329
0.00333908
0.000270025
0.000583851
0.00127939
0.00224302
0.00289914
0.000784804
0.00104899
0.00246629
0.00128517
0.00217981
0.00622557
0.00291222
0.00120726
0.00413275
0.000404119
0.00289717
0.000370776
0.00215105
0.00119923
0.00144285
0.000831699
0.000589041
0.00207196
0.00048892
0.00275107
0.0020489
0.00491125
0.00178115
0.00537027
0.00649273
0.00103135
0.00354673
0.000914048
0.00160146
0.00530967
0.00238163
0.00455267
0.00129531
0.0010944
0.00743459
0.00560932
0.00174447
0.000936371
0.00378631
0.00275511
0.001177
0.00117721
0.00503321
0.00735752
0.00396134
0.00447225
0.000693431
0.00752114
0.00096114
0.000344434
0.00532234
0.00299673
0.00461919
0.00420483
0.000776148
0.00280536
0.000743517
0.00355743
0.00499931
0.000552817
0.000835042
0.00586574
0.00243848
0.0058683
0.00704381
0.00116778
0.00273434
0.000767116
0.00402583
0.00677552
0.00234489
0.00678081
0.00591382
0.00574354
0.00505449
0.00278287
0.00230111
0.00144459
0.0036436
0.00123814
0.0040702
0.00725265
0.00219367
0.0013242
0.000862747
0.000923609
0.00150983
0.00203056
0.00106463
0.00104136
0.000812534
0.000953717
0.00319091
0.00302827
0.00415552
0.00143844
0.00488561
0.00325774
0.00328766
0.0016529
0.000561654
0.00348422
0.0034604
0.00348488
0.00519891
0.00343066
0.00484662
0.00618201
0.00510521
0.00286124
0.00315633
0.00276583
0.00604452
0.00304988
0.0013483
0.00080144
0.00437409
0.00062456
0.00741543
0.00360153
0.00727558
0.00458511
0.00101497
0.00275115
0.00126629
0.00382122
0.00393652
0.00397341
0.00461172
0.00526882
0.00312518
0.00346515
0.00336275
0.0071622
0.000892612
0.00328247
0.00141837
0.00295449
0.00109885
0.0065156
0.00467636
0.00351366
0.00403561
0.00299075
0.000994302
0.00697812
0.00457485
0.000699688
0.0024721
0.00243107
0.00302436
0.00244124
0.00266798
0.00216838
0.00543809
0.00730128
0.00687928
0.00206152
0.00177033
0.00510715
0.000421198
0.00552513
0.00181675
0.00707323
0.00676662
0.0020455
0.00438599
0.00636031
0.00110188
0.00741973
0.00426753
0.00163992
0.00219185
0.00734868
0.0013529
0.00694137
0.00698772
0.00127551
0.00368859
0.00289627
0.000870503
0.00747917
0.0019581
0.00152683
0.00174421
0.0010548
0.00119462
0.00533027
0.00581371
0.00293776
0.00618178
0.00214687
0.00298879
0.00613909
0.00676953
0.00348304
0.0012815
0.00301063
0.00442468
0.00226058
0.00344489
0.00237154
0.00738873
0.00210039
0.00132029
0.00371192
0.00389099
0.00559205
0.00533489
0.00367002
0.00434464
0.00227211
0.00387841
0.000599924
0.00448492
0.00703856
0.00103909
0.00287119
0.00068356
0.000972089
0.00573603
0.00377195
0.00136782
0.00309533
0.000409233
0.00150832
0.000665483
0.00166496
0.000473852
0.00296852
0.00177366
0.00170978
0.00060726
0.00114593
0.00301928
0.000582641
0.000365171
0.0020298
0.000349203
0.000915892
0.00165968
0.00203479
0.000605679
0.00096284
0.00747988
0.00376664
0.00105699
0.000841581
0.00104528
0.00142198
0.00163622
0.000784546
0.00292917
0.00373037
0.0045825
0.00723125
0.00323431
0.00692807
0.00110263
0.00300971
0.00442818
0.000752177
0.00397434
0.00233467
0.00487259
0.00682724
0.00321014
0.00456571
0.00180146
0.00715738
0.00208516
0.000615483
0.0052664
0.00742176
0.00362785
0.00551382
0.00121272
0.00278885
0.00592851
0.00645056
0.000627333
0.00691564
0.00423715
0.00713479
0.00186947
0.00332411
0.00454526
0.00611663
0.0054501
0.00144689
0.0037476
0.00250711
0.0073333
0.00734114
0.0072514
0.00379386
0.00480154
0.00368403
0.0063556
0.0034954
0.00369609
0.00290205
0.00127134
0.00132063
0.00356594
0.0020096
0.00429007
0.00275502
0.00351609
0.00375219
0.00685325
0.00318539
0.00432839
0.00651503
0.00210069
0.00471182
0.00307252
0.00118088
0.00496485
0.00283999
0.00136687
0.00401077
0.00119432
0.00202911
0.00113867
0.000379329
0.00286634
0.00573876
0.00220617
0.00049362
0.00335574
0.00716704
0.00677164
0.00618997
0.00379189
0.00472992
0.00740059
0.00737649
0.00405964
0.00296789
0.00746501
0.00698407
0.00747083
0.00583068
0.00321378
0.00190524
0.00312428
0.00645951
0.00382818
0.000960271
0.00576452
0.00644608
0.00357527
0.000551387
0.000672597
0.00375313
0.0053879
0.00529047
0.00334722
0.00397771
0.000628084
0.00200069
0.00520622
0.00407876
0.00697011
0.00370524
0.00194741
0.00387362
0.00329179
0.00382895
0.00139842
0.00198084
0.00156509
0.0010412
0.000350617
0.00187147
0.00194807
0.00403308
0.00405612
0.00355529
0.00329825
0.00665387
0.00452992
0.000470598
0.00736145
0.00184704
0.00128411
0.00339099
0.00302083
0.000401238
0.00204604
0.00426452
0.00390992
0.00748771
0.00309254
0.000961725
0.00389461
0.00174754
0.00430218
0.00293553
0.00068091
0.00091627
0.00365357
0.00347934
0.00114047
0.00501539
0.000721543
0.000691396
0.00132874
0.00741967
0.00723832
0.00030152
0.0066463
0.000504856
0.00225264
0.00332163
0.00117371
0.000999927
0.00686137
0.00746673
0.00100544
0.00693236
0.00642411
0.00529186
0.00716238
0.00439114
0.00400125
0.00239949
0.00628475
0.000369613
0.00326621
0.00490641
0.0039614
0.000329087
0.00433721
0.000584508
0.00524785
0.00376241
0.0039299
0.00118738
0.00561566
0.00483967
0.00528821
0.000917725
0.00214724
0.00214617
0.00150249
0.0028534
0.00671231
0.000841422
0.00312475
0.0033405
0.00320368
0.00500789
0.00326343
0.00385463
0.00719818
0.000406924
0.00151386
0.00470809
0.00525322
0.00216594
0.00473801
0.0029189
0.00338849
0.00540627
0.00236337
0.00500716
0.00546899
0.00430008
0.00147102
0.00473178
0.00503256
0.00524329
0.00362114
0.00692784
0.00539637
0.00588989
0.00281439
0.0043202
0.00273798
0.00258742
0.00384237
0.000553698
0.00547853
0.00326626
0.0011949
0.000759567
0.00149706
0.00384248
0.003291
0.00196972
0.000311491
0.00399525
0.000885835
0.00403077
0.00740971
0.00285355
0.00179937
0.0039049
0.00519974
0.00743032
0.0057243
0.000346352
0.00566466
0.00698522
0.00261439
0.000452126
0.000474863
0.00413656
0.000285756
0.000871835
0.00111491
0.0014439
0.000757624
0.000401603
0.00552588
0.00093562
0.00403787
0.0065227
0.00419883
0.000451097
0.00213624
0.00702353
0.00630124
0.000989543
0.00516622
0.000505427
0.00661149
0.00294991
0.00530909
0.00299075
0.000647399
0.00737765
0.00318897
0.00286548
0.00622696
0.00373281
0.0065697
0.00294482
0.000570195
0.000550862
0.000640383
0.00162189
0.00149828
0.00677256
0.00686639
0.00562848
0.00372324
0.00732062
0.00171218
0.00748752
0.00102976
0.00422217
0.00713908
0.00638297
0.00479396
0.0071284
0.00371308
0.00305298
0.00725158
0.00321334
0.000954583
0.00636067
0.00118488
0.000921303
0.00678532
0.000279578
0.000561974
0.00286858
0.00296975
0.0040833
0.00132092
0.00436308
0.00214446
0.00166602
0.00600874
0.00171983
0.00708097
0.00229223
0.0044414
0.00247257
0.00196631
0.000759532
0.00332901
0.0039835
0.000725356
0.00149623
0.00219915
0.00142608
0.0056583
0.00138905
0.00440538
0.0019594
0.00306337
0.0061068
0.00136232
0.00264093
0.00254626
0.00650409
0.000676147
0.000900317
0.000470969
0.00647891
0.00456638
0.000977321
0.000638675
0.0022566
0.00412676
0.00252765
0.00120719
0.000736124
0.00202996
0.00554837
0.00310505
0.00442044
0.00558685
0.00403862
0.000650547
0.00583472
0.00204145
0.00316468
0.0070735
0.00264547
0.00273086
0.00633868
0.00406454
0.00383622
0.00231209
0.00126045
0.00479942
0.00297371
0.00232181
0.00247035
0.00295812
0.00199491
0.00177161
0.00364694
0.00638403
0.00622166
0.00605468
0.000765594
0.00402604
0.00109363
0.00362964
0.00420322
0.00575798
0.00353716
0.00704151
0.00251847
0.00747551
0.00251687
0.00241673
0.00362085
0.00474754
0.00243725
0.0035517