/*--------------------------------*- C++ -*----------------------------------*\
| =========                 |                                                 |
| \\      /  F ield         | OpenFOAM: The Open Source CFD Toolbox           |
|  \\    /   O peration     | Version:  2506                                  |
|   \\  /    A nd           | Website:  www.openfoam.com                      |
|    \\/     M anipulation  |                                                 |
\*---------------------------------------------------------------------------*/
FoamFile
{
    version     2.0;
    format      ascii;
    arch        "LSB;label=32;scalar=64";
    class       volScalarField;
    location    "0.0321508";
    object      p;
}
// * * * * * * * * * * * * * * * * * * * * * * * * * * * * * * * * * * * * * //

dimensions      [0 2 -2 0 0 0 0];

internalField   nonuniform List<scalar> 
47425
(
1.31581
1.19451
0.0679135
-2.00671
-16.5425
0.127301
-14.5825
0.0320562
13.9616
-32.6484
-0.0478196
14.708
-10.5267
-0.0172335
-0.767642
13.1842
0.0185882
26.9702
-99.4334
-28.5057
5.41359
16.7002
-0.0944309
0.89554
15.5152
0.945816
0.0162554
-36.075
-0.0363415
0.242429
16.4972
13.6304
14.5225
0.199118
0.0918653
-0.0410497
17.6764
14.3643
7.21304
1.19004
1.46393
1.15769
3.80925
14.3006
-38.2096
1.12792
0.0952959
14.1458
1.17811
0.407548
48.3921
1.48356
0.0420458
-26.9317
1.18303
9.4984
1.23988
0.217773
-13.7278
0.0908337
-28.8956
-29.829
-69.1391
21.5073
13.759
3.79931
14.5305
-0.43781
-46.2974
23.8445
3.88089
0.701683
2.12506
6.40847
-55.0305
13.566
-69.5269
0.14058
-110.076
-17.6689
-58.5628
10.6152
22.5322
13.484
1.56899
1.47068
1.74519
1.02927
-1.54133
-23.3834
15.9724
3.01385
0.382878
1.38572
1.44355
1.22147
0.323227
1.33004
1.53857
12.5544
12.9684
24.7623
10.3092
47.0801
10.0801
1.64054
1.3131
1.34238
1.54899
14.7771
-46.3557
14.0228
1.34235
1.49638
0.501934
35.8998
0.789864
50.3772
8.92178
-1.3803
1.53612
14.582
14.0095
-5.72192
12.2467
0.816387
1.4167
13.6616
1.01851
0.465053
22.4378
1.1833
57.5615
8.44418
1.29682
-6.98892
2.46081
0.768593
12.114
0.345125
14.5618
-7.39455
6.8572
1.09995
12.1655
13.6985
-14.4067
13.8634
7.01853
14.5787
1.51989
42.2499
13.9064
-1.20887
22.2837
0.987429
5.00814
-111.371
1.29344
0.340618
-0.500442
0.931913
0.584737
11.9847
-43.7904
-78.954
13.8238
-54.513
0.631882
-39.4205
-55.9417
0.789926
13.5781
19.5131
1.13627
13.7524
33.2833
0.0123561
0.0357209
0.344775
27.4894
1.11852
0.0531998
0.110549
0.140796
13.2342
11.3173
52.064
0.437921
1.20285
14.4755
0.423173
-10.0398
14.6733
0.479375
-0.325324
14.6469
0.848176
-0.912874
1.36622
0.134381
1.77435
1.63183
0.106888
10.1125
2.64699
-0.0084
0.451454
13.3786
13.5839
1.21358
-0.174352
13.5582
1.0749
2.01507
-1.7429
2.54614
-15.2938
22.2323
14.6778
-19.8785
-1.79362
3.97825
2.44214
3.20066
-17.7877
0.282159
-1.25326
-2.33605
-7.02476
3.34536
0.266996
1.63323
14.4447
0.0598027
13.3048
-22.4804
0.739355
-20.1264
-0.070021
0.16392
0.385732
0.360206
-6.21399
8.84743
13.5981
1.32493
13.4959
0.609676
-0.0250582
1.04925
-15.7471
-0.0165246
14.6794
0.0865753
0.293933
16.1953
0.192911
7.61834
13.4969
0.2964
14.2303
10.6756
10.5483
-7.03604
1.30275
0.163003
-6.88091
0.326566
10.8604
11.2873
-19.9547
-22.2258
11.227
-17.6141
11.1372
-18.5123
32.3185
-20.485
35.8084
-28.3535
1.38289
-33.1494
0.927656
0.631377
-1.30506
0.713387
0.115284
1.45103
0.585997
58.4738
20.7267
13.7424
0.0605405
0.113513
10.1636
-5.41392
11.0077
14.1241
-7.13245
1.33893
0.831564
0.21431
0.0440932
-65.3223
-76.3832
39.2919
0.347314
0.973737
12.3177
12.9581
51.0375
-0.189641
0.0797271
-10.6742
1.47003
0.295395
0.58571
0.0988842
-38.3244
-10.6672
12.9901
12.567
-0.0658281
1.11193
0.0342779
12.6092
1.20786
0.614764
0.237858
-3.38335
-67.0989
8.45917
0.120638
14.5323
-0.079353
-66.0568
14.168
0.62413
0.688169
13.0476
12.8569
1.18046
14.7538
0.545477
0.130038
0.234361
17.5585
-0.0199725
0.216381
13.4293
8.40734
13.6539
14.2304
13.6148
-2.33691
0.302165
21.4138
13.9833
13.853
17.5463
-2.28921
0.75154
0.124687
9.18936
1.455
0.170457
13.9028
14.3465
10.9255
0.299723
-37.2061
1.86194
11.8667
13.7085
11.8421
0.196668
13.3566
13.5449
17.207
13.4029
11.7129
0.908085
14.1977
1.17932
14.1218
0.0032908
11.372
14.5352
0.12185
7.54841
8.78765
-0.0506214
7.62483
0.664171
8.15327
14.2751
0.022406
-12.3562
0.221011
-24.2308
0.334662
-33.1826
0.218753
3.80857
0.23497
0.259182
0.00305553
0.127446
0.165528
8.91647
-77.7691
60.2348
0.836344
8.45614
6.75366
5.35795
0.700879
0.126067
0.430014
0.184052
0.59525
1.55687
5.1025
0.0248557
0.0172687
-3.55165
-2.00547
0.234538
20.3532
-73.2531
1.47473
30.1492
-71.2846
1.47022
-75.9171
-27.8181
0.779936
2.5177
3.49324
-0.00212491
-78.9209
1.08383
0.893143
0.383052
-0.382222
1.68557
1.00374
1.12174
-18.7908
-74.9289
-19.6985
14.3934
22.9638
-0.252335
1.08673
2.03943
-8.37767
2.38792
14.4023
14.6353
14.6742
7.81567
14.5678
0.627915
11.8761
0.245651
0.556578
0.490505
0.538012
14.381
14.5526
13.4886
9.18091
12.6872
1.04602
1.39836
-18.5458
13.154
-10.0696
14.5605
0.120942
0.549644
14.5422
0.906411
12.8108
13.9958
13.3966
11.2518
0.570427
1.12891
13.2901
1.53113
10.8731
25.9056
0.71223
14.9896
13.3955
16.8691
1.2676
0.340997
0.886381
0.15505
2.66406
0.034811
0.0993212
0.827531
1.06912
0.616519
0.12019
-0.040317
26.0207
-0.020289
1.47651
1.26423
0.971485
0.143505
0.029777
12.7241
9.82629
13.6237
13.6318
48.5985
-0.0377709
0.0806747
13.966
14.2003
-18.8954
-22.5906
0.0351563
1.07614
1.25945
-5.81243
13.2235
-24.0195
14.5603
-44.0065
29.3653
19.3425
0.190035
-18.4315
0.193537
1.13428
0.05672
1.42178
0.0802283
0.80667
-68.3594
0.251183
-0.0181544
0.252502
-18.2504
0.690935
0.128181
-18.0496
-13.9649
-0.00470991
0.20222
-35.3596
0.580046
0.961025
0.0623683
0.409295
0.33829
-9.86926
-7.01406
20.3543
1.34225
1.35387
0.128415
-25.4492
20.7376
1.44751
-35.6701
0.0225603
0.216621
-37.5605
-34.6708
15.3414
-35.1221
-35.2174
0.212762
14.4054
0.139133
18.4047
13.5925
0.0624688
-43.5598
12.9881
0.115598
0.607761
-16.0892
-9.30118
14.5657
8.35349
-58.3099
-22.9872
3.85329
0.18063
1.29815
7.01223
0.292639
0.638795
13.609
9.64123
14.5815
0.117383
13.564
-21.453
7.87603
5.70983
-23.4279
11.8926
0.425901
7.4708
11.7626
0.373222
13.8997
0.13508
32.0224
13.5304
0.951175
1.31799
-99.1981
8.68552
-6.51158
-36.1712
-38.1595
0.241138
1.47289
-38.7367
-0.1611
8.07386
-10.9489
13.9991
-34.6692
0.342929
0.269637
13.6662
-27.1924
14.6246
14.6928
0.528555
0.0938464
0.811987
0.0253193
0.798495
1.08337
0.397432
-26.8928
-39.9705
3.19362
13.4912
0.207616
19.2197
13.0033
14.5883
14.6175
14.6455
14.6549
22.312
2.0331
14.5886
10.6906
-9.57892
0.238949
-80.2606
-21.3951
-0.0657306
20.1107
6.6126
0.135672
-85.0382
0.0486223
-55.0737
0.546448
-7.76234
-9.35089
0.670056
14.9639
10.4638
29.6114
0.353814
0.534553
1.39989
-10.5041
14.5232
-11.9319
1.66292
-85.8355
-7.86484
1.53409
-10.021
14.5244
1.122
7.0086
1.43624
-11.2061
14.4776
13.3891
-10.6455
0.293034
1.50441
0.167537
0.630437
33.8552
32.8496
16.4938
20.8239
0.176913
0.0123897
5.61656
1.45205
0.73693
0.243007
1.16041
0.252447
1.0196
36.5374
-6.58552
0.192014
13.4074
0.88975
0.857957
1.09185
0.106617
-0.910592
-18.9488
1.15646
0.2604
-0.0721974
0.778624
16.5814
-0.0664842
1.54489
0.760087
0.707683
0.970173
21.1198
40.9042
0.88923
-36.2132
-3.52867
-25.6173
-35.1179
1.3524
1.85795
9.56758
-0.0548904
47.1826
-37.2009
59.6181
-5.97925
2.63142
-11.3447
0.489783
60.1292
6.42627
1.90247
1.13466
0.408179
-6.02625
1.48692
1.21441
0.807127
-40.7065
29.707
13.817
14.1578
49.12
45.3727
-8.31934
-56.396
-12.3624
51.4093
48.6663
14.016
0.490164
19.5499
0.505973
7.92194
-35.334
5.71458
7.15492
8.48078
0.331156
-37.7651
-38.2738
0.211156
7.30065
0.631919
0.428868
8.45521
0.28929
17.9619
0.0428403
0.42969
36.173
0.233979
-0.242007
-0.0121622
0.537029
0.185887
55.6005
-16.5822
0.090491
8.99637
0.627245
17.3863
17.5377
-10.2665
0.459738
-44.7094
-11.27
7.59398
4.15158
28.6221
-58.5966
0.115921
0.108253
-11.1351
1.14387
14.1897
3.17338
-0.0444009
14.7362
-55.0343
-15.7298
-57.1966
14.6948
30.5172
0.362826
-8.32695
18.8618
-10.8072
0.0533814
20.559
-56.1933
-13.8987
-11.6987
-42.0315
-10.4919
1.40999
0.126214
-9.63286
0.136957
-12.0114
-37.8012
-0.00154498
-14.3182
1.04334
0.848363
-36.2281
1.113
1.50438
13.8781
17.3512
13.828
-18.6295
-1.83056
0.989129
-12.0281
50.1927
1.33005
16.9047
1.17372
0.990159
1.15386
1.39042
-21.6956
-82.621
-7.91296
2.32879
-13.4625
-14.6935
-15.4471
-0.959502
1.11374
14.2746
14.4428
1.28606
-4.10068
17.9264
24.5732
14.3554
-36.819
-11.573
1.91187
0.940182
0.418606
1.08977
35.7392
13.9889
-8.8737
0.222553
8.77229
14.1079
14.0746
13.8792
13.6293
14.3861
-22.2089
-6.17903
23.6743
25.6147
18.3266
8.90373
-0.793256
39.4916
1.45286
-5.27924
1.52831
-10.604
-17.2569
-0.790636
0.957108
14.4353
17.2686
14.1529
1.34511
-49.8795
-23.2013
-38.6041
11.4529
-6.54703
8.87758
-43.8218
1.38854
-50.8796
1.46887
1.58486
-3.45291
5.98145
1.27559
12.9418
0.128352
4.80539
-5.34583
0.848503
2.83713
-21.8002
-11.3262
0.658294
18.4697
54.745
-70.1726
41.3276
-19.7423
-49.4449
0.306822
0.787442
22.9888
0.550706
54.3802
0.397617
0.0727483
-74.5588
15.0063
3.21333
0.326047
14.1718
26.5174
12.6566
0.482741
13.4932
-12.6278
11.1416
15.0486
15.1639
14.5718
0.601576
-8.19617
-6.86982
31.307
14.9427
0.947793
12.158
0.588821
0.606525
8.55282
-7.39608
-11.8893
-6.43874
-5.43992
14.1184
-34.6005
0.729248
0.475429
0.584478
-78.9869
-66.0505
-16.5645
-33.9148
1.38961
-1.42946
-34.1877
-36.2203
-3.09106
9.88621
0.709212
1.55879
-28.6692
5.87269
0.190512
0.920716
13.1298
2.49273
37.4252
-96.9694
-10.4627
-25.5788
0.996389
57.7534
-78.5512
1.28418
12.4392
3.78921
-34.2831
12.5579
-3.00024
18.4926
-22.1882
2.62053
-22.4522
3.72052
-6.16138
1.53171
8.91094
-19.7574
-19.3774
11.6299
19.2162
-7.36203
-46.381
10.753
1.34883
-19.1562
-31.1546
13.1614
9.7554
-53.5731
-70.376
-35.7335
11.6335
-2.76953
-12.3719
-37.3448
11.3833
24.4711
-19.6764
-5.49839
-3.60789
-17.4208
-35.7684
-1.04061
12.9346
13.7622
15.7594
13.7633
11.4407
-9.55969
14.4417
14.5497
15.1963
1.58563
-55.1104
-31.8088
13.2069
40.6988
-14.0381
13.1381
-31.2837
7.24482
11.5986
-5.68711
-2.47263
12.1839
10.4295
-40.6967
15.0036
-26.0738
-77.6281
-35.2076
11.6022
-5.86384
13.4194
1.32438
1.43985
-11.7301
-35.3616
0.912999
-50.2127
-27.8273
62.9071
-18.1256
-64.0816
-23.9982
0.0488382
1.41308
-39.1943
1.06173
18.0088
0.0441913
-47.406
-35.1922
-0.0623895
3.07418
-30.3234
-18.246
-40.7903
50.1786
0.607382
-11.1112
-72.3885
0.285121
23.8816
-23.5119
17.3803
-86.7432
-21.5882
12.5245
0.20306
0.357786
1.87521
0.500181
2.75525
1.38104
0.604249
9.11048
39.2636
14.6589
26.9621
-25.0936
-2.78208
24.1617
-0.966335
2.1815
-7.2359
15.1007
-60.7522
0.909093
1.29173
0.855974
-31.0619
1.0726
-82.0764
0.838821
12.9745
5.82747
-85.0809
54.7713
-39.4175
-16.7269
39.8075
0.918763
14.0012
-6.14698
-22.1414
-43.8395
-21.7814
50.2278
13.8758
-11.2905
-47.198
-6.00003
-1.21687
-33.7431
-24.5975
1.6407
-9.81413
13.7173
14.0338
-48.0675
-51.4089
0.203652
10.1782
13.8249
-79.2997
13.9509
-22.2285
-11.1215
13.7794
14.2745
-16.4759
2.05365
53.9531
-13.7663
6.53729
33.7884
31.5424
11.4888
-77.6108
-30.3691
-10.2841
-103.293
65.8723
14.351
-35.4306
14.3045
26.2563
-93.7141
4.47517
-85.0393
-40.1171
-1.04137
23.6261
-3.58405
14.2299
14.1158
18.8685
-18.8214
-0.209688
0.0608419
29.2116
0.323298
-1.62077
18.3641
-8.22067
0.906559
-11.5789
17.1356
-50.9245
-26.4147
5.03787
-26.5287
-52.9954
0.0774227
50.2012
-42.4071
-1.77297
31.7738
-6.73013
-9.24264
-18.6686
-23.7927
8.98557
-36.8845
-15.0957
7.33043
2.69842
0.467324
-18.8627
-4.90944
28.0565
-31.2127
1.33893
23.3515
0.597819
-47.3818
0.164806
0.404052
-5.9656
-18.2325
25.0203
0.492324
-8.28625
-6.63772
-86.9406
0.095966
-8.36646
-51.3298
0.926729
-5.026
61.1751
-3.17194
-14.253
-61.5634
0.179633
7.82312
0.0567659
-116.249
-46.2895
-32.0326
-45.1122
24.2829
-1.05813
-6.49182
-42.1517
-62.9881
-7.00275
0.542451
14.0375
0.83476
0.570723
3.91729
56.1807
14.9527
13.7888
-4.30959
0.500591
16.055
14.8384
24.7466
14.3781
0.55794
21.1174
14.9998
12.046
-9.24929
1.38827
13.2638
11.4509
-6.47464
13.6111
0.515375
0.898253
12.2804
15.2745
14.3056
-76.8704
13.5736
21.1377
1.07205
0.131772
-24.9148
15.4852
14.7756
-70.6094
-54.5044
60.2401
16.9805
-75.0447
19.7422
1.49587
-66.8336
5.36055
-71.1428
0.814456
0.867458
14.261
23.5121
12.2197
1.53826
1.31325
1.75003
9.68189
10.3005
1.20595
-12.4223
0.853169
-8.81637
61.7395
13.5845
-42.2809
-13.1362
-61.6107
1.00874
12.7521
-0.0804411
15.2091
1.27034
13.6943
1.0416
-32.8387
-19.6901
-35.6881
-1.03704
-5.19759
1.09691
3.94333
-24.8907
1.45335
-44.0047
0.506952
-38.8835
1.48197
-50.0838
-77.3102
1.51198
0.0180307
-52.3339
0.377218
-57.0787
13.2143
2.58126
0.924117
1.36336
1.6204
0.726359
-7.75068
-20.4454
-4.17508
13.2875
1.09657
13.1987
0.757552
13.1108
-41.9564
11.2147
-28.9133
2.42588
0.93422
11.2006
0.459312
11.0353
10.9749
0.401005
1.07796
14.235
1.07355
-1.29458
1.53443
1.26903
-18.3612
-39.4335
-5.57152
1.20849
-47.0021
0.864297
0.544987
0.442587
0.416398
0.0595132
1.55014
13.5271
13.1995
0.829294
0.557276
44.4964
1.28096
0.933481
1.45434
-38.5212
1.75535
-46.3064
-31.5288
-40.6529
12.5429
0.287806
1.75803
0.111237
0.921231
-36.8232
-6.50628
0.893578
0.885619
1.78186
1.91126
-39.805
1.90565
0.0141656
-11.7652
0.515941
0.410078
0.278254
0.375295
0.226117
0.259263
0.477529
-6.69779
-10.8496
-0.0271951
13.297
0.234942
-5.14224
-4.01798
0.589216
1.11125
-6.75313
1.4164
0.221017
1.23964
0.950343
-6.05015
0.00606871
1.04351
0.511451
0.622526
1.46711
-3.27293
0.0516698
-51.4805
0.581543
-13.6109
1.53964
-0.0642015
-53.6855
0.0291139
1.39065
0.118868
0.635486
0.732393
1.14777
54.6649
1.65341
-15.7541
1.01313
0.266903
1.65927
0.857493
0.475078
1.25915
0.496088
0.674947
0.33155
-3.94696
-9.38324
-31.8834
12.0063
-8.61556
1.04744
1.21569
1.19299
-19.7534
0.00479454
0.103198
0.121201
-48.1914
0.14169
1.61454
-0.0348892
0.136645
1.60504
-130.594
0.114572
1.00939
13.4372
0.0162279
-6.32279
25.7638
29.0505
0.0377398
8.5934
0.182566
1.14779
0.399344
0.37295
-46.7492
-54.2757
0.135598
0.803627
-39.083
0.0149778
1.95274
-18.5
0.0236459
0.891567
6.01678
-0.244513
-3.23346
-0.0312819
1.58418
20.7119
0.267124
-0.106597
13.5446
-18.9343
13.5986
-21.0975
-23.3392
-36.3174
-19.5911
0.521948
13.5104
-12.1955
13.6667
1.46009
17.5631
-28.5948
-21.3221
14.0011
-8.81395
14.0185
0.589008
1.23415
-38.7894
0.79137
0.470845
13.647
13.7346
43.3324
46.7384
64.8963
-27.7593
29.7307
14.0345
16.1036
24.5085
13.8155
0.735959
0.109571
0.415643
-0.184447
-38.8042
-37.9141
0.69249
1.59113
0.77459
-72.8026
-1.71577
1.12099
1.8019
-26.2096
-47.783
0.721466
-39.0398
0.0716367
-26.8461
-28.6372
-14.8248
0.314302
0.69293
14.5383
-48.454
0.120929
14.6315
0.594869
0.104773
-63.5846
-61.6394
-68.6324
0.315926
-43.203
18.3286
10.2543
4.82263
-10.5696
-73.7052
-71.5295
-34.5241
63.8076
-35.7432
36.8421
13.5228
-33.6701
14.2074
-51.0524
13.6076
-47.1271
13.5124
-20.5946
1.96453
-24.0454
14.0802
13.9469
1.98343
13.7808
13.6171
34.4251
4.31134
13.9936
13.6399
-57.9741
-51.3714
-9.38225
-20.4146
-53.379
-19.8882
1.01038
16.5249
-44.32
-25.027
-27.7874
15.0367
-75.1079
7.8689
-54.1144
-83.5873
-43.9116
-7.39192
16.937
7.74282
10.792
13.9741
1.40769
-24.8448
1.0296
1.32028
1.33042
0.155424
0.110828
1.07729
0.542396
-19.3797
0.252675
0.134565
0.21457
1.41876
-15.1606
0.920665
0.127325
0.345866
1.4134
-3.59537
-13.163
0.662204
15.5771
-24.5053
-84.2328
-3.02398
-64.1955
-6.79951
-7.38986
-16.1608
38.2366
7.86807
9.74694
-4.15724
0.0283642
0.122123
0.450917
0.00180874
-0.134261
-0.480203
0.209995
1.45191
1.61943
11.6433
-5.90438
1.29236
47.9814
-0.0345518
14.21
-0.0423005
0.0125346
45.3667
-53.004
26.6705
0.165062
1.24939
-20.4924
-39.5124
0.0354641
1.39249
17.1234
-7.42626
1.03483
0.0713616
-13.8731
13.8207
-0.400575
16.4924
57.5595
1.41454
1.02286
-7.93112
0.181445
0.994393
0.732502
1.02572
13.3142
13.695
9.90364
13.6734
14.2762
6.28316
4.7295
-2.43792
-51.9576
7.09179
-5.8751
13.5217
13.4702
64.8721
5.05812
1.8494
1.84811
-32.0653
-27.521
5.07264
17.8047
1.59094
32.9261
-3.89842
16.2348
-26.2042
50.1584
32.3888
-3.94115
2.62191
7.12489
-28.8372
-71.5708
-67.3547
2.18961
-7.4866
-73.6314
1.97823
-8.93613
-3.94545
-27.4974
-42.3867
2.04911
16.2602
-77.8519
12.3382
-4.26708
1.98405
11.9967
-2.66019
13.884
-7.09668
15.2982
11.2771
-41.0784
10.0637
61.0833
-14.4924
57.2673
33.7092
-60.9196
14.6633
14.6688
-46.4816
-8.67094
1.54819
-36.7864
-19.6484
-8.08058
1.70726
1.60851
-35.509
-0.727977
8.04856
60.3079
-5.00899
10.9374
-3.61199
-12.6616
8.92139
9.43084
-24.985
-35.9578
-25.7881
-37.3437
0.46915
-11.5677
1.41232
-12.2101
-8.15457
1.56669
1.32797
-10.5662
-1.63997
-36.4511
-36.9246
-0.0557309
8.98192
1.08032
-8.36212
-17.1984
10.5597
9.88911
-11.1135
-36.2509
10.7374
-4.8203
-37.5146
2.81932
-27.9655
0.149432
-2.3283
-49.0883
2.98933
55.1499
-3.89548
2.15765
2.02537
1.14936
-81.5261
0.845859
0.914567
-3.91316
0.232975
11.8952
0.551678
-20.5114
12.8164
35.6927
13.9411
12.9121
12.7883
1.02269
-5.35737
-2.55241
-6.1542
-81.155
-0.161103
-35.2535
-6.62849
-0.0751896
-59.3893
-0.0148733
0.750707
1.76031
-4.72826
-46.3769
-18.0088
13.2242
42.341
-1.83841
1.69297
-29.4834
-35.5287
-3.00031
-48.084
36.1768
13.1877
-4.66439
40.5645
13.7068
-56.8352
19.1315
10.4661
50.9665
36.1872
14.1066
13.4307
63.5089
-46.5233
1.17282
56.1356
7.92828
13.8614
-6.26543
13.9636
-21.8318
13.1568
61.7867
13.7203
13.9002
42.5986
11.9855
17.9724
-10.2075
-1.33517
16.5345
-55.3183
26.0058
-15.8134
-46.5788
-59.1067
-17.9689
14.0146
38.8488
15.9456
6.45354
12.8261
13.3197
14.7368
1.29791
1.34109
43.6337
-33.4818
13.4031
-20.5942
3.34834
11.101
-12.1919
-57.6562
1.25357
-12.111
13.9007
5.34665
1.11558
12.6441
-5.2336
1.41055
1.24656
-34.2882
4.10095
0.906748
-5.29375
12.0832
0.805194
22.8161
0.827979
-10.99
29.2361
6.02804
19.1523
38.3974
-37.2981
59.5729
43.7761
-25.0592
-49.4252
-38.6494
-19.5544
-36.7325
-36.8967
-21.374
-16.5666
-25.0296
-38.6032
62.1757
0.75555
-56.1515
9.53351
-0.108032
-27.9519
-60.9583
-5.51361
-35.3817
-12.3551
-34.3531
-11.1074
43.1932
-33.2365
-24.1321
-38.1086
27.0484
-37.0255
1.16857
-66.205
25.7775
8.90115
1.07445
0.289783
47.8852
8.64117
-31.1122
-13.6668
14.5256
1.28136
-3.39736
-20.9641
-27.0981
-0.701394
-1.80267
19.0655
-23.2529
-4.0136
1.30989
-17.4121
46.5011
-0.381578
6.93878
1.23479
5.13404
-35.2113
11.6617
9.02703
-8.53816
1.42693
7.15345
1.4122
0.706981
65.3768
4.52082
-23.0077
-3.47289
3.41924
-79.9058
-81.0029
10.4499
10.7819
9.8142
13.023
-18.7627
-6.1291
60.4453
-7.6761
12.7911
-19.1662
-0.604108
-4.06836
10.3607
-8.10885
10.3061
-15.5144
-40.1102
-35.7313
35.5321
-17.7229
18.5616
10.6706
-46.8869
-56.7129
33.1836
-64.9613
11.0755
-50.7136
36.9515
-9.88894
23.9533
-9.87347
2.24578
0.232767
-2.74057
-9.67236
-31.6821
2.18672
13.1849
-82.6343
14.4793
-18.6421
14.3701
0.173703
11.7749
3.04946
1.01622
0.245842
-1.49351
8.17958
2.96734
16.8007
0.806216
-57.5551
36.4502
12.9696
42.6584
13.8898
4.14426
12.6943
14.6027
32.4589
1.16877
32.423
1.28788
0.859946
-14.6535
0.852143
0.373452
-15.3422
-9.52546
-26.0662
-1.13824
36.6869
6.27296
30.6402
0.882905
17.634
16.9828
1.26851
0.532372
0.298463
2.11234
61.6654
0.284933
-4.35687
-35.6769
13.9427
14.2667
18.4244
14.1119
-16.2527
-23.3529
2.22054
-1.38564
-1.24584
-9.90965
36.7105
0.3099
-45.7727
-0.755744
-24.7065
1.71204
10.5447
-19.5654
13.942
14.0174
-12.9573
14.3221
1.27624
8.39054
-45.2155
19.1095
57.4983
1.3944
1.24841
37.5544
10.4837
2.46413
34.9713
9.26777
-9.5729
39.7835
-15.0954
41.8012
-65.4468
5.03574
14.5015
1.0963
-5.60032
2.75687
0.92492
0.586232
0.264434
14.5409
-27.2285
5.52781
1.49602
-18.8084
1.65637
4.72744
14.0357
14.2152
25.8781
6.1856
3.72209
-5.35763
1.45754
-8.08562
13.8552
1.65027
-14.7441
62.9957
-14.8109
1.64701
61.6491
14.0527
-78.4247
56.1435
2.44169
4.59069
35.6547
14.2788
-35.7656
39.8623
-35.7652
-0.123161
-35.4154
-14.627
-33.3224
37.6755
0.492323
63.029
0.671732
-36.6291
-34.4064
-84.3738
-79.7617
-32.2711
-69.2317
-22.9942
-37.8473
60.3556
10.9308
12.0996
50.9016
25.4928
-34.7451
9.57308
-36.9468
49.6187
0.900645
12.39
0.012193
1.05244
0.283585
0.750428
61.6071
0.805628
0.609268
17.6958
0.975362
0.910236
12.5912
-4.37314
0.963094
-4.77005
1.02124
8.65903
30.5129
-36.5607
1.79003
3.0773
-2.99387
1.23206
-42.2859
-43.6112
-15.9596
2.05077
42.5819
15.3945
-0.501705
-3.83599
6.99396
5.56069
0.932248
13.4154
13.2878
-40.09
1.11609
17.9746
-1.10295
4.44813
13.1278
0.380293
9.64957
13.5632
13.1685
-10.1739
12.7592
12.3199
52.9612
29.411
12.9763
26.601
12.5805
0.53609
13.0446
1.04774
-1.01778
1.55818
6.93828
0.0265798
23.1514
12.5813
-13.4073
27.9457
0.267779
11.2161
31.7532
-9.8838
35.532
-20.0291
-40.286
-52.1952
1.77818
-0.0948361
-16.4468
36.0038
-4.94649
-0.266125
10.3371
2.51225
0.254602
-0.0172378
10.9231
14.6381
31.463
9.35191
2.9747
13.2535
12.7523
0.0819861
-28.1018
37.7313
-0.0510767
9.74726
-7.16423
42.2332
14.2575
12.2736
-7.33781
-41.1851
-79.3755
13.525
13.4067
-4.60725
-9.10634
-5.45747
-25.0195
35.0673
1.32118
1.78606
0.268056
-0.122604
19.3914
-13.2438
0.0895558
0.482353
34.0496
0.571125
-2.85121
26.0282
-28.7262
-20.4342
0.679274
-7.25959
15.5291
-0.0130904
0.67011
14.292
11.1456
-6.0688
23.5033
6.30161
-48.6383
0.636814
0.837345
-38.611
-7.07772
15.3569
0.625642
9.30205
13.7942
64.4916
0.677291
-6.47409
-35.6084
-29.6378
-71.062
-49.1891
0.693065
18.7792
50.4192
-0.0404767
13.4099
13.0125
-37.7959
14.758
7.6537
-27.4593
14.0053
21.8215
-12.4904
10.4662
-34.8868
-63.7388
16.7694
21.18
-49.1711
16.9496
12.7328
4.31062
15.6093
14.1554
2.86418
-26.8474
-3.4055
14.589
15.9808
15.4212
14.5324
8.73691
0.0533448
41.2578
-0.0433793
-3.20974
1.71191
39.1408
14.2
-8.99539
6.19281
60.3308
-17.7575
-22.5113
-44.5113
4.6004
-2.65341
-40.1845
-13.9573
16.4593
-11.2785
-1.50247
-0.00294155
-5.16014
13.5399
10.8217
8.06271
0.144006
0.23397
-14.9294
-1.73902
-8.63612
1.21844
1.50523
0.235406
1.22772
-2.7606
14.6364
-32.3969
14.9792
1.18308
1.34457
13.7967
12.9748
13.7284
1.45727
1.51824
-4.69026
5.56411
1.21394
1.85946
-34.1846
3.13093
-6.65795
-48.8937
-35.7521
-43.7044
16.3858
-63.2035
18.8772
-34.7614
1.25213
-37.9741
0.788666
3.71168
2.57662
-1.99752
1.13997
3.94362
-0.0199094
15.3087
3.23
16.5621
-2.35819
-6.93754
-79.5514
-36.4283
26.0536
33.734
-43.2827
-28.529
-29.6861
-70.113
-36.5718
-4.71923
-37.3527
1.6258
1.62266
-57.3579
-76.022
-7.76575
1.43398
14.356
53.4892
-2.53645
-76.5819
2.988
6.40307
0.398965
1.28779
-30.5274
2.27374
1.51896
1.45224
3.45023
8.78014
1.8281
0.937573
-66.186
-69.3059
-31.1023
26.9461
-35.4789
13.9952
0.779732
15.872
8.39773
5.50944
25.1826
13.4993
27.0138
0.711722
5.45542
6.98283
1.48694
3.90017
-7.2884
10.2975
15.0239
10.1714
43.6292
2.05258
23.5577
-48.9477
-1.80494
-39.9016
39.5781
12.1304
11.0059
7.45781
-21.1707
-7.3714
12.1198
-36.5363
9.24811
6.61653
-1.90324
17.6476
11.2702
-2.83077
-10.7321
-22.7177
14.5978
-1.14494
-43.4629
1.40899
-35.9388
-36.1882
14.4688
-76.8938
-2.51898
35.1274
-3.06268
14.435
13.1851
17.9881
-2.9083
13.8239
-37.2051
-7.59226
-36.2224
-3.47774
-7.93648
21.6077
-37.1422
-14.1686
1.77536
2.1409
20.3039
-37.7347
11.8776
2.56564
-37.7412
0.678861
0.714902
13.1967
-83.2564
-2.52095
3.28539
1.2375
0.404775
12.8662
11.7149
2.38434
12.9076
-11.3062
13.0122
-85.9967
13.1034
-52.2264
-24.3922
-4.19915
10.4599
-4.08291
-3.35956
12.5005
-2.0356
1.44139
-4.60469
56.2056
0.407494
38.0909
-3.88541
0.243245
-2.08131
-0.00948561
14.2503
12.7163
13.9402
-3.14841
0.537063
13.3334
-3.86166
0.104932
0.513998
-17.1392
3.36121
0.0810447
14.1717
-40.0628
-51.8569
-0.0306737
-1.47168
0.62684
-31.1253
0.377079
0.372214
1.3217
0.448657
1.31001
1.27198
0.0730836
0.661684
13.1836
-34.7287
-30.0755
14.2341
50.3129
17.8966
13.8413
-0.0378255
14.5275
43.5779
-0.0480171
39.4519
1.92325
-0.33497
6.66597
31.825
0.949554
-0.0351467
56.5104
14.6847
28.2285
-5.29641
-9.42368
0.113752
-1.88471
-0.0788607
1.013
3.74971
0.81578
53.5321
0.924682
0.605618
0.696526
13.6766
-28.4819
-14.6884
-1.80509
2.26521
1.63367
0.568004
15.4476
-21.4078
27.0856
19.9031
1.18907
0.549153
46.2332
-10.12
44.6374
32.6666
12.819
14.0173
0.369584
-4.27524
3.24428
-8.47863
-8.15318
14.2265
-79.3542
1.39874
1.34349
1.19218
12.4106
1.26121
52.5093
-1.73574
48.642
1.17911
-68.849
-8.28167
-9.67842
1.02446
-38.8266
1.45112
33.5828
13.9195
35.7065
1.25932
-12.6412
5.11771
-38.9173
29.62
13.4774
13.4758
0.979305
-18.4056
13.237
-86.3302
-16.0523
13.5967
37.3054
13.4223
-16.6138
46.6796
6.05927
-2.41502
45.8721
36.3252
3.1355
4.6187
-65.8908
45.3039
11.1139
43.785
-2.23431
-58.5199
30.3656
0.0805749
-0.0170609
0.134386
0.101988
1.84077
15.7447
-39.0946
1.38408
-24.1767
18.2737
41.8477
-10.5174
38.8664
-0.0362581
0.00656865
-8.42984
59.4112
-12.2009
51.7232
17.3075
5.92016
27.0662
7.23426
19.731
-0.015139
-0.186799
-0.0750906
-0.0306761
10.2057
-9.76865
15.1996
-28.5368
0.787616
-32.3744
13.5081
-16.0073
49.3242
1.84892
1.04711
0.127211
43.2512
0.155877
24.3964
0.0366606
10.2141
-4.7228
2.11322
35.3207
38.6501
-9.12952
0.245874
1.50718
-39.1941
-56.6154
-6.56993
55.4249
30.8459
57.9228
60.5591
48.5918
-47.8077
0.741672
48.5023
-41.4676
0.00638363
6.5968
0.124628
-19.6738
-23.925
-0.157517
3.12093
-4.29779
-0.0957886
12.954
-34.96
43.7463
-37.554
12.9504
0.716424
12.0379
3.73695
-2.73616
-83.4417
2.58879
-24.7544
-11.7164
13.2388
-75.7
-79.5057
13.1871
-6.53188
-8.6829
20.7388
13.1422
-9.02999
27.5012
-67.4263
-22.7954
-32.7237
41.3959
-33.1916
6.51127
27.6792
6.51158
-42.7574
-42.7411
5.1607
1.05926
53.6886
0.747608
-30.2635
0.0122773
-10.986
-52.0106
-9.55788
-36.1312
1.50061
-36.9261
0.2697
-36.1022
13.5954
-16.5692
54.1301
-36.5457
24.2266
-22.9045
-37.2025
-13.3196
-34.9501
36.4844
34.281
-29.2816
12.7882
22.7624
18.0589
7.51382
15.0415
-3.92812
-40.7165
-104.219
-57.5678
20.2654
24.0507
-30.2194
27.3703
-35.1076
-8.87642
8.36058
4.80959
-38.6024
14.2298
-38.4095
16.4807
34.5608
36.0676
64.2708
33.9771
-19.0645
-47.9067
48.9238
14.2308
39.6007
-38.1063
-37.1988
53.122
32.0886
-1.96787
23.8605
21.3791
-35.2296
-38.4224
-79.9839
22.1531
11.3764
39.6591
-45.124
48.5669
32.2281
14.559
40.8819
-51.0049
6.59521
4.39584
14.6984
-7.12915
-40.2367
-41.5513
47.6938
-0.190452
-35.5763
-67.2074
46.8378
48.3844
43.9208
-50.1442
-82.2253
47.5847
-16.9134
-47.0609
48.5771
0.696327
-6.09943
13.8997
1.20565
2.21049
-4.51421
46.0034
-25.6059
0.565576
2.36978
2.19564
2.71827
1.64573
10.3864
-25.53
-2.29559
1.87522
-44.5402
-62.8711
-38.125
-12.6488
1.80447
-11.6347
-35.6217
-25.6921
1.97958
-39.3827
2.8035
-37.8647
-35.5252
45.5414
22.5331
28.6907
0.096555
9.9055
-58.493
-18.0678
-6.16891
-54.4437
-0.00849229
-48.4694
-32.1551
-17.8804
-33.0599
-0.0122046
17.8438
13.8386
16.8767
12.8396
44.9633
0.0895917
-0.0614798
0.0920021
16.7283
-17.258
-63.2789
-44.9729
17.2333
40.8096
26.0271
33.1954
4.50345
-65.6171
-3.17357
15.9242
7.22121
0.787115
21.3797
10.9515
-8.05773
16.9509
-7.26982
-6.50451
-0.273459
18.3558
38.8364
-23.2504
57.5467
-56.9765
21.4779
-84.548
-58.0782
-6.92695
14.2021
39.2449
-4.15695
-39.0492
3.98859
16.8199
-17.8468
-41.1193
20.3888
49.6485
64.2965
-57.2725
-7.61551
-48.4742
16.4191
2.83909
-8.4959
12.4608
9.03618
-15.1355
5.37864
11.9255
-31.9698
-5.01119
-39.2931
-4.14682
-50.3916
0.0711509
13.8355
-82.8216
-11.4819
-0.0539232
64.1927
12.3876
51.063
8.8534
-31.3074
19.4183
6.12573
37.2647
58.7025
17.7444
37.7087
-0.144647
-43.4953
14.3274
14.136
2.64304
11.6785
-27.7279
0.689004
-4.47794
14.4624
5.58907
-15.283
6.87118
11.5367
-3.47645
-6.17179
-25.2635
-0.0162366
15.1778
0.0256886
16.1443
0.23974
-9.46863
14.1121
-15.8829
13.5629
-39.383
-0.0862145
35.6576
-7.43831
39.5118
0.186914
5.34789
-0.054784
0.0128896
-4.60675
6.4517
18.5659
38.0344
30.1045
-57.3742
-44.1636
47.5951
28.2643
23.2057
9.60214
0.0483762
0.148304
-61.7589
48.5008
22.8514
18.6074
0.305953
20.8149
0.133668
0.117088
-14.044
-19.3619
-28.3355
-42.941
11.6255
1.69783
-10.9331
14.1373
42.9375
12.6333
-8.71461
12.8228
-4.40279
-65.0271
-13.2
0.220436
7.74713
-3.7687
-3.32207
-39.1659
14.0308
-40.166
27.1897
-62.4844
-24.0665
-20.119
0.27019
24.1724
7.1725
14.421
36.9634
14.4294
-5.63321
12.3052
13.4356
12.2952
14.3273
-31.0322
17.2896
11.7308
45.9082
14.0862
-15.5431
14.5408
14.4453
-36.7355
-63.8268
-20.6484
-38.2559
-35.3116
12.9
60.2863
-41.5174
-6.78879
16.224
23.3295
-35.6169
0.67434
0.54639
12.2328
-16.6565
-41.2217
-38.0326
36.2455
3.6055
1.10427
8.10538
-45.6822
30.4684
11.4632
-46.0371
-49.1745
-42.0685
64.5955
15.8623
11.911
7.26711
15.9924
-60.4569
19.3625
12.7933
21.3176
-9.45857
18.7345
26.0601
47.9658
39.4047
12.2249
-11.4814
25.0338
-4.64671
0.623484
0.467743
32.6455
-23.192
-14.5639
0.449757
59.0033
0.477127
-45.2622
31.9076
26.6746
42.7004
-39.7708
-27.9425
-37.1916
35.5489
-7.51374
-23.4939
-10.6324
12.6831
2.38311
16.0329
1.2794
21.3379
1.14413
13.0245
1.29265
-6.68319
0.326757
38.8159
6.81565
5.92393
-19.1347
8.54217
1.3265
9.45723
-1.55334
-35.3968
-40.8759
-14.9318
6.55953
39.7122
1.0614
62.0623
-47.8591
61.5186
56.6465
1.03401
4.33018
5.55921
0.994741
1.04891
-77.0955
15.1589
-37.9078
-22.3447
6.29781
1.60877
-35.0934
6.64913
6.50328
12.2791
8.66887
1.06826
-50.2241
-1.07494
1.49349
-1.91325
1.55215
1.06307
1.54176
1.38165
-0.697605
6.46586
-45.9684
0.924308
1.76024
-8.43497
-3.53989
24.1527
-16.0231
13.6731
13.5955
-0.10099
0.294312
-6.07604
-10.9892
8.01997
0.262809
2.17713
9.34327
0.0983759
59.2323
0.193654
2.56801
0.0530958
-0.0277591
-21.3524
-0.0403075
-39.1943
0.220072
53.4816
4.81042
-0.0105952
-9.65798
-4.83264
0.646572
-33.2328
2.01032
0.0881964
7.70547
-38.6246
0.0842351
6.33947
28.6741
43.016
-4.92513
9.78136
10.9081
-36.7539
-18.1614
0.059668
50.5149
-50.0721
-15.9662
-5.85921
53.1901
-7.35089
-5.34574
33.3915
-55.7285
3.04163
0.0688624
0.0743421
0.238077
-0.00104397
-0.0311315
-44.1653
18.9269
-0.10663
-45.6585
4.64628
0.32137
-4.79759
3.2071
18.7047
-39.5617
7.31494
17.4373
-19.7387
1.79944
15.9032
62.7399
16.5684
-59.131
43.7658
19.3991
32.5603
0.278494
48.622
0.470073
10.6801
25.3229
0.0536406
-36.9451
-37.8756
0.76657
0.649571
-123.552
23.7627
-39.6247
1.62061
-3.80125
0.995712
14.6272
27.2415
53.122
14.6403
56.3933
14.6305
-72.6087
-39.3331
-39.5412
-39.3188