/*--------------------------------*- C++ -*----------------------------------*\
| =========                 |                                                 |
| \\      /  F ield         | OpenFOAM: The Open Source CFD Toolbox           |
|  \\    /   O peration     | Version:  2506                                  |
|   \\  /    A nd           | Website:  www.openfoam.com                      |
|    \\/     M anipulation  |                                                 |
\*---------------------------------------------------------------------------*/
FoamFile
{
    version     2.0;
    format      ascii;
    arch        "LSB;label=32;scalar=64";
    class       volVectorField;
    location    "0.0321508";
    object      U;
}
// * * * * * * * * * * * * * * * * * * * * * * * * * * * * * * * * * * * * * //

dimensions      [0 1 -1 0 0 0 0];

internalField   nonuniform List<vector> 
47425
(
(10.113 0.0786084 -0.0422727)
(10.0357 -0.0695539 -0.0173067)
(10.0386 -0.0515147 0.0260138)
(11.1389 -0.455313 -0.180794)
(12.0245 0.73542 0.65874)
(10.1107 -0.0344847 0.00631755)
(11.947 0.545092 0.611202)
(10.1102 -0.0174069 0.00197309)
(10.0158 0.00783718 -0.00323554)
(4.37889 6.57467 -0.605754)
(10.0756 -0.00529171 -0.00274494)
(9.90294 0.20093 0.0370388)
(11.8064 0.493175 0.165325)
(10.0317 -0.030154 0.0389743)
(10.58 0.459283 -0.109519)
(9.89781 -0.136117 -0.0114264)
(10.0427 -0.0421025 0.0454936)
(8.64207 -0.445148 -1.28027)
(8.5056 1.09833 -4.63146)
(12.9577 -0.504156 -0.944582)
(10.6702 -0.606772 -0.452851)
(9.75542 -0.066173 0.0320791)
(10.0061 0.0909201 0.00707219)
(10.0781 -0.0218435 0.0875637)
(9.94276 -0.160035 0.0706022)
(9.97902 0.0432866 -0.0145746)
(9.97951 0.0507868 0.0231254)
(11.1964 -0.270797 -8.16996)
(10.0064 0.0368207 0.0289978)
(10.0634 -0.0154439 -0.0356193)
(9.70177 0.722064 0.127105)
(9.94987 0.0165028 0.020043)
(10.0126 -0.0254683 -0.0100105)
(9.9797 -0.0215811 -0.0164409)
(9.98898 -0.0771718 -0.0522784)
(10.0565 -0.00724796 -0.0417218)
(9.71048 -0.0888404 -0.0122257)
(9.99386 0.0250335 0.00879332)
(10.5298 0.292387 -0.0113798)
(10.0094 -0.00347466 -0.00184728)
(9.89352 0.101308 0.0237239)
(9.26773 0.265469 -0.505843)
(8.0633 -0.825194 -0.293301)
(9.99153 0.0181381 0.00860898)
(0.0756371 -0.0172203 1.54044)
(10.1196 -0.0203773 0.00990241)
(9.97962 -0.0389579 -0.0800817)
(9.99833 0.0681597 -0.00852676)
(10.0211 -0.0276932 0.00232568)
(10.0208 -0.0102671 -0.0423163)
(1.99724 -0.624088 -5.38923)
(9.1879 0.979382 1.31929)
(10.0316 0.0011903 0.0320869)
(6.86932 -6.12437 2.95089)
(10.0048 0.0345839 -0.0229836)
(10.168 0.0691214 -0.0614876)
(10.106 -0.0706935 -0.02263)
(10.0824 0.0229505 0.0327887)
(12.6667 0.84442 1.20905)
(10.0191 -0.00318594 0.0262218)
(4.88066 -5.99153 2.39963)
(5.00534 0.170528 2.58825)
(6.34626 -6.99534 1.56524)
(9.11747 -1.09614 0.0963089)
(10.0065 0.0088564 -0.00501289)
(10.6217 -0.210033 0.10813)
(10.0289 -0.0227221 -0.00450049)
(10.5721 0.158794 0.469805)
(8.53385 -6.67987 3.17371)
(9.09131 0.565698 0.41673)
(10.8314 -0.347176 0.197474)
(9.98622 0.031346 0.0599944)
(10.671 0.0102829 0.0214873)
(10.6221 0.271493 -0.559448)
(6.66798 4.58991 1.45463)
(9.99625 -0.0101656 0.0142724)
(6.9738 -6.77928 2.45495)
(10.0024 -0.00746192 0.0169022)
(8.38894 -5.86153 2.90302)
(11.4991 0.453946 1.74071)
(7.10514 3.79076 1.54487)
(10.1737 0.254219 0.0924677)
(9.27289 0.104336 -0.134345)
(10.0075 0.0853953 0.00979541)
(9.90322 0.010781 -0.0473821)
(10.0745 -0.0432078 0.0587034)
(10.4806 -0.188257 -0.0111112)
(10.1227 0.0543517 5.64297e-05)
(10.3766 0.994577 -1.57405)
(10.6603 0.0132793 2.55317)
(9.76649 0.426429 0.090301)
(10.5409 -0.0574968 0.0328773)
(10.0718 0.0517062 0.019261)
(9.9945 -0.0130057 -0.00283044)
(9.96317 -0.0445395 -0.00752407)
(9.99514 0.00285099 -0.00412424)
(10.0416 0.00928363 -0.0520224)
(10.1417 -0.250809 -0.0546652)
(10.0855 -0.0641219 0.0723833)
(9.90018 0.0368219 -0.00670498)
(10.1417 0.0162307 -0.0709297)
(8.58735 0.0833127 -3.71232)
(10.2288 0.165788 0.0742502)
(5.40764 1.92945 -0.422552)
(10.2541 0.0322707 0.0344884)
(10.2277 -0.619609 0.131333)
(10.0551 0.0712155 0.0259675)
(9.98214 -0.0399942 0.0877785)
(9.77691 -0.0266738 0.00848643)
(9.89174 0.161229 0.0592187)
(-4.27045 -1.68791 0.435133)
(10.1199 -0.0761713 0.017245)
(10.1468 -0.80171 0.242375)
(10.1469 -0.00448848 0.0229785)
(10.5836 -0.457709 0.149723)
(1.74087 -4.2027 -5.3382)
(10.5799 -0.428166 0.112269)
(4.09267 0.07726 -3.87354)
(10.2702 0.160624 -0.00385661)
(10.7564 0.269994 0.450744)
(10.195 -0.00339872 -0.0020819)
(10.0031 -0.0112614 0.00217601)
(10.0012 0.0570401 0.041759)
(11.4943 0.837028 -0.640993)
(10.0649 0.0198056 0.0106061)
(10.3925 -0.822852 0.274303)
(10.0097 -0.0754472 0.00624006)
(10.0026 0.00353784 -0.00694408)
(9.94591 -0.0183823 0.00860777)
(10.0326 0.0120006 0.00782533)
(9.33697 -0.202989 0.429375)
(10.0173 0.316409 -0.036369)
(4.37229 0.0276737 1.01115)
(10.4515 -0.342937 0.0664598)
(9.5699 -0.237093 -0.3973)
(11.676 -0.502081 -0.75735)
(10.9373 0.597591 0.265931)
(10.433 -0.818866 0.406737)
(10.1419 -0.0489784 0.00164788)
(10.8034 0.201177 -0.0589081)
(10.0502 -0.0654681 -0.02195)
(12.2883 -0.0445668 -0.0472987)
(10.4421 0.0252245 -0.0875953)
(10.2057 -1.1254 0.40678)
(10.1042 0.218365 -0.0150266)
(10.0101 0.00618737 0.00200776)
(11.777 0.0731573 0.795877)
(10.1052 0.010892 -0.0751379)
(10.4009 -0.0094131 -0.0411024)
(9.99232 0.00117889 -0.016454)
(10.1142 -1.14551 0.270623)
(2.98498 -0.390755 -6.33502)
(10.0304 0.0319132 0.0203257)
(5.66099 0.125598 -10.8688)
(8.9209 -1.10012 -0.528221)
(9.99432 -0.00738448 -0.0148494)
(10.6903 0.378958 -1.51161)
(7.42586 -3.61591 -2.3989)
(9.94321 0.0465779 -0.0432345)
(9.91552 -0.0143315 0.00369623)
(10.8227 -0.391729 0.182781)
(9.94618 0.103043 -0.0517874)
(10.0442 -0.0107618 0.038755)
(10.102 0.253777 -0.0191472)
(11.8031 0.0929261 -0.338535)
(1.07864 -1.82257 -1.95259)
(9.91533 -0.0328117 -0.0620729)
(7.12206 4.3021 1.41012)
(9.97019 -0.0131049 0.0235168)
(11.9013 0.548775 -3.84927)
(8.22515 3.60987 1.07995)
(10.0979 -0.0128807 -0.0218257)
(10.043 0.0389252 0.00641935)
(9.36423 -0.924302 -0.492578)
(10.1152 0.03404 -0.0309973)
(9.2702 -2.92167 -1.02882)
(2.75193 0.816931 -7.0134)
(9.99657 0.0386505 0.0198537)
(10.0442 0.0235425 0.0419511)
(10.0414 -0.0529924 0.012751)
(2.54862 0.297784 -10.3161)
(9.99593 -0.0451648 -0.0140277)
(10.0256 0.0293261 0.0262635)
(9.93758 -0.0144508 0.0194709)
(9.99326 -0.0692127 -0.0240868)
(10.0657 -0.0541058 -0.0479167)
(10.1575 0.0181536 -0.0567612)
(5.60679 -0.409672 -0.243223)
(9.95319 -0.0249727 -0.0748486)
(10.0689 0.0611061 0.00195723)
(10.0045 -0.00116013 0.0183152)
(10.0317 -0.0614901 0.0262917)
(11.8059 0.334504 -1.18686)
(10.0017 0.00797755 0.0059065)
(9.93176 -0.0158627 0.0143442)
(10.8388 -0.202011 0.0687881)
(10.0103 0.000585294 0.00192399)
(9.98962 -0.0185837 -0.0538695)
(11.0037 -0.190168 0.136918)
(10.1229 -0.162866 0.0440294)
(10.0457 -0.0491011 0.0312013)
(10.2766 -0.0968528 0.00756158)
(9.89245 0.0467148 0.0737459)
(10.7598 -0.292769 0.0627365)
(10.1621 -1.37375 -0.748489)
(10.4445 -0.0163956 0.0763577)
(10.0231 0.0131789 0.036511)
(10.7681 -0.22578 0.0530575)
(10.031 0.179633 -0.0506648)
(9.98935 0.0348239 -0.00877601)
(10.1225 -0.101501 -0.0463341)
(10.8941 0.0904542 0.0697849)
(10.0099 0.100208 -0.00847181)
(10.0747 -0.0943187 0.0230709)
(10.4247 -0.0286812 0.00845552)
(11.0041 -0.295217 -0.154419)
(10.6185 0.0154322 -0.00302223)
(10.2268 0.459835 1.0702)
(8.68916 -1.21122 -0.438439)
(10.0566 -0.0150778 0.0129866)
(11.4369 -0.0470425 2.11163)
(10.8549 0.0622898 0.127128)
(9.56982 -1.13608 -0.485049)
(10.5895 -0.010854 0.0514738)
(10.4433 -0.00759068 0.0928604)
(11.4833 -0.327368 2.06136)
(10.0721 -0.0323109 0.0278879)
(10.9027 -0.246134 -0.0779641)
(11.021 0.482512 0.316946)
(11.5465 0.688162 -0.215946)
(10.6339 -0.000867152 -0.0233131)
(9.93257 -0.0122793 0.0462562)
(10.2251 -0.0904483 0.00417819)
(10.0039 0.00307756 0.00492578)
(10.0183 0.031721 0.00494667)
(9.91182 0.164487 -0.00319858)
(11.3417 0.597923 1.8312)
(9.91675 0.0221969 -0.0206422)
(11.6402 0.573579 1.63547)
(9.97862 -0.00572496 0.0318256)
(9.94156 0.0196288 0.0502543)
(10.0014 -0.00165372 -0.0287123)
(9.99533 0.000169011 0.0167767)
(11.6415 0.247061 -0.114005)
(10.4011 0.309854 0.0497113)
(9.99091 -0.0187495 0.0217771)
(10.1933 -0.0197103 0.022233)
(9.9628 -0.0228518 0.0308602)
(10.0061 0.0209061 -0.048872)
(9.89611 0.0518611 -0.0182808)
(9.99489 0.0201475 0.0473124)
(11.4655 0.0945223 1.818)
(10.0774 -0.00641281 -0.0459153)
(10.0019 -0.00554239 0.00711745)
(9.98436 -0.0689303 0.0195757)
(9.9478 -0.0243633 0.0521324)
(9.87071 0.0813772 0.0730296)
(9.97371 -0.0610076 -0.0580799)
(10.5514 -0.486545 0.155822)
(10.0223 0.00403201 0.00134896)
(9.8926 -0.0249963 -0.0624501)
(9.98485 -0.0283646 -0.0176126)
(10.0797 0.0868685 -0.0530696)
(10.2474 0.0306133 -0.0198477)
(11.4167 0.30056 0.669875)
(9.87641 -0.335838 -0.0555683)
(9.93208 0.0312102 -0.000329046)
(11.4871 0.307 0.523662)
(9.91598 -0.00538739 0.0277479)
(10.1927 0.131716 -0.0618902)
(10.0928 0.0822731 -0.0265096)
(11.6881 0.689812 1.29546)
(11.1712 0.727429 1.51689)
(10.2323 -0.09767 0.00325992)
(11.54 0.396268 1.63844)
(10.1676 0.0341418 0.0338488)
(11.604 0.543475 1.47059)
(6.93665 3.22525 2.583)
(11.135 0.621561 1.59785)
(5.82199 1.20661 -4.78527)
(3.93313 -5.73639 2.17168)
(10.138 0.0648473 -0.0352641)
(3.80122 -6.21956 1.45447)
(9.89603 0.0654973 -0.0429304)
(9.99311 -0.0335403 -0.0889445)
(11.0053 -0.170118 0.105628)
(9.93666 0.0181189 -0.0332077)
(10.0031 -0.0586207 0.0189703)
(9.9185 -0.0028113 0.0212404)
(10.5213 -0.616847 0.0533011)
(1.39856 1.71721 -3.12473)
(9.20262 0.746816 0.169933)
(10.0029 -0.00113472 -0.00223081)
(9.90363 0.0328312 0.0293652)
(10.0146 -0.0806023 0.0236959)
(10.7448 0.183555 0.447624)
(11.7563 0.365077 0.0402234)
(10.2047 -0.525794 0.196572)
(10.0659 -0.10485 -0.0464702)
(11.5337 -0.00438562 0.431394)
(9.92192 0.104626 -0.000369609)
(10.1333 0.00597636 0.101453)
(9.99759 -0.0868264 -0.00431191)
(10.0236 -0.0913785 0.0348634)
(12.3182 3.68804 0.171483)
(7.21133 1.59692 0.723021)
(1.45069 1.16677 -5.87299)
(9.89014 -0.0116972 0.0066703)
(10.0471 -0.0673243 -0.034834)
(10.0176 -0.577234 0.0512403)
(10.071 -0.463716 -0.102271)
(1.13801 -0.642117 -5.38091)
(10.016 -0.0216028 -0.0305542)
(10.0164 -0.0239471 -0.0288622)
(10.7368 2.63539 1.61289)
(10.0148 -0.0422238 -0.0590796)
(9.93581 0.0469702 -0.0340078)
(9.8516 0.0848538 -0.0423192)
(9.93117 0.0265197 0.0102219)
(13.5481 1.35593 -0.205502)
(10.9828 2.34182 1.518)
(10.0524 0.154903 0.0780377)
(10.183 0.10048 -0.0606499)
(10.01 0.0343424 -0.102714)
(10.1472 -0.0633541 -0.038308)
(10.0499 0.0403081 -0.0432779)
(9.93352 0.122386 0.030313)
(10.0173 0.0764485 -0.0195023)
(10.0315 -0.0379108 -0.0398594)
(10.0205 -0.011807 -0.0671204)
(11.0836 0.0776642 0.315714)
(11.8343 -1.55347 1.06125)
(10.3261 -0.69937 -1.1159)
(9.98257 0.0289067 0.0296034)
(9.95773 0.007958 0.00160779)
(9.95438 0.0155044 0.0420885)
(11.8264 -0.928999 1.13416)
(9.90863 0.0923303 -0.123787)
(10.0694 -0.0309672 -0.0274687)
(9.97098 -0.0527388 -0.00859949)
(10.0639 0.232585 0.0698879)
(10.044 0.235559 0.0427686)
(10.0824 -0.000113557 0.0388106)
(9.83286 0.192457 -0.0421983)
(10.0608 -0.00369129 0.0182913)
(9.89409 0.0092342 -0.0647552)
(10.1033 -0.0186345 0.0405175)
(9.65656 0.383531 -0.0748173)
(9.98814 0.0626272 -0.0261023)
(9.97912 -0.0294825 -0.00498577)
(10.035 0.216906 0.05774)
(10.39 -0.391128 -0.0260087)
(10.0492 0.20281 0.0382446)
(9.89784 0.156429 0.00482929)
(10.045 0.203657 0.0945361)
(11.2147 -1.01694 0.0270642)
(10.0119 -0.0065322 -0.0570905)
(9.36418 0.232706 0.212843)
(9.94018 0.187579 0.028087)
(10.0412 0.0527031 0.00680465)
(10.1136 0.18959 2.0724)
(10.9724 -0.607099 -0.462988)
(10.045 -0.027302 0.0325874)
(9.97601 0.0283538 -0.0393051)
(10.3601 -0.299131 0.0876016)
(10.2662 0.363718 -0.0303741)
(9.9024 0.00263449 0.00283508)
(10.0282 0.0077437 0.0360163)
(10.0458 -0.100649 -0.0242449)
(10.1333 0.672991 -0.0916948)
(9.92867 0.00145732 -0.0203717)
(-1.18041 0.159216 0.386394)
(10.4399 -0.0691184 0.0571683)
(10.0786 0.843385 -0.0514366)
(9.98094 -0.0118682 0.00694112)
(10.0624 0.743321 -0.0473904)
(9.83558 -0.237318 -0.598527)
(9.96462 -0.0585146 0.024097)
(10.0042 0.00286552 0.00190353)
(9.7459 -0.0902896 -0.000328299)
(10.0147 -0.005362 0.00344962)
(10.0257 0.787131 -0.0845914)
(10.1552 -0.0428606 0.00878214)
(10.0354 0.0294677 -0.020963)
(9.98593 -0.0936978 0.0128583)
(10.0112 0.0247752 -0.000840724)
(9.97086 0.0775584 0.0110337)
(10.1075 0.186922 0.0579476)
(10.0391 -0.0395635 -0.0203766)
(9.99822 0.00783346 0.00543652)
(10.4383 0.838391 -0.227215)
(10.293 1.04672 -0.261461)
(10.0687 0.00699978 0.0302362)
(10.5062 -0.329775 0.101686)
(9.98425 -0.0374536 -0.051362)
(10.363 0.784628 -0.204653)
(9.99012 -0.014851 0.0368085)
(9.91469 0.0267789 0.00552591)
(11.9113 -0.347502 -0.681028)
(9.96291 0.00986586 0.0420256)
(10.3783 -0.957646 1.70821)
(9.98528 -0.0531971 -0.00223394)
(11.2465 -0.643273 -3.62825)
(9.97807 -0.0352712 0.017533)
(10.5024 0.147834 -0.0114815)
(9.94279 0.0201277 -0.0552696)
(10.0061 -0.0495317 -0.0501801)
(9.81568 -0.0157431 0.0300899)
(10.0869 0.0132189 -0.0116055)
(10.0121 0.0312138 -0.101092)
(10.2783 0.929458 -0.19909)
(2.11183 -1.90225 2.28145)
(2.17319 -0.495556 -2.24061)
(10.0584 0.0248757 0.0341058)
(10.285 1.46184 -0.711955)
(10.5913 0.690021 -0.302506)
(10.68 0.646827 -0.292006)
(9.98572 0.0134193 0.0298934)
(10.0078 -0.0594905 -0.00610287)
(9.9755 -0.0194441 -0.00674626)
(9.95481 0.0447629 -0.00897234)
(9.98258 -0.0673628 0.016398)
(10.15 -0.120632 -0.017278)
(10.6733 0.589154 -0.178988)
(9.97183 -0.0079419 0.0322721)
(10.0367 0.00816589 -0.0191218)
(10.9188 -1.323 0.561528)
(11.2673 0.538376 -0.188541)
(10.9191 0.533058 -0.0348337)
(8.0193 -1.28408 -4.63648)
(-0.0152973 5.93798 0.670874)
(10.2981 -0.230933 0.0497312)
(7.38451 -0.958709 -5.12584)
(0.0393776 5.63484 0.978312)
(9.95709 -0.0857748 0.0150788)
(-0.113302 5.98438 0.843832)
(8.80418 -1.97891 1.56556)
(10.0201 0.0924731 -0.0278847)
(10.885 0.63633 -0.300821)
(10.8425 0.673708 -0.329927)
(11.0856 0.601043 -0.312961)
(-1.03766 5.50901 1.11197)
(10.1044 0.125791 -0.0263245)
(9.98483 0.0305168 -0.0358289)
(10.0198 -0.0891997 0.0174035)
(11.1382 0.631644 -0.428369)
(11.0297 0.661867 -0.483801)
(10.0293 0.0143244 0.0107405)
(10.0714 0.0516703 0.00424676)
(9.91096 3.79767 3.30315)
(-1.01255 5.25919 1.01114)
(12.5012 -0.334133 -2.80776)
(10.0168 0.00724629 0.00273807)
(8.64547 -0.716002 -2.95461)
(10.1686 0.133395 0.8464)
(9.98423 -0.00223979 0.0132191)
(10.754 0.307794 0.008611)
(11.645 0.42834 0.255273)
(10.7351 0.1943 0.0213613)
(10.0244 0.019728 0.000122834)
(10.0014 -0.00198236 0.00722699)
(9.98345 -0.00118282 0.000857206)
(10.4572 0.296652 -0.00899417)
(9.99791 0.00288599 0.000306394)
(9.99134 -0.0017536 0.0540788)
(10.0617 0.104003 -0.0123869)
(9.93906 0.012691 -0.0119503)
(10.8766 0.0685132 0.0589466)
(10.0407 -0.0527747 -0.0337846)
(10.0629 -0.0425959 -0.0108882)
(10.0344 0.0143764 -0.00690083)
(10.0112 -0.00371308 0.00381336)
(9.94395 -0.101974 0.0173305)
(10.3854 0.23088 -0.025809)
(10.2023 0.00211157 -0.07442)
(9.95704 0.00378243 0.0350713)
(10.8104 0.072863 0.0365176)
(9.39021 4.59229 2.76417)
(9.96285 -0.0897625 0.042791)
(11.7516 1.65263 -1.20734)
(10.0047 -0.0206126 -0.0211634)
(10.5731 -0.251598 -0.0173183)
(7.70288 -0.405299 0.997294)
(9.75493 1.39496 -0.450407)
(9.98692 0.0129153 -0.0529947)
(9.83259 1.4668 -0.501955)
(10.0226 0.00317399 -0.108888)
(10.0592 0.0252415 0.096727)
(10.0113 1.28089 -0.763748)
(9.96406 0.000499303 -0.0637589)
(10.4258 -0.179241 0.0174882)
(9.90251 1.16623 -0.502673)
(10.187 -0.0812762 0.0630193)
(10.4006 -0.0129656 -0.25205)
(8.09837 0.279012 -3.77946)
(10.0148 0.0364583 -0.0243951)
(9.6675 1.80973 -0.41615)
(9.99727 -0.0175091 0.0140686)
(9.0535 1.97703 -0.818782)
(10.0527 -0.102501 0.0222424)
(9.95432 -0.0584205 -0.0118285)
(9.98284 0.0450241 -0.0254872)
(9.98493 0.000790689 -0.0387498)
(10.9845 0.629273 0.797319)
(9.99003 0.0100989 -0.0512464)
(9.97637 0.0136705 -0.02363)
(10.0508 -0.00398977 0.0321973)
(10.0184 0.0147602 -0.00674391)
(11.0358 0.36135 0.0743072)
(10.1241 -0.0342835 0.00896492)
(10.1073 -0.0122963 0.00157363)
(8.69171 0.264366 -0.435092)
(9.98288 -0.0145712 0.0613719)
(9.88223 0.0353913 0.0189575)
(10.0069 -0.0989865 0.0459467)
(9.99176 -0.0904212 -0.0765393)
(10.1061 -0.0635959 0.00271296)
(10.0342 -0.0174161 0.015017)
(10.117 0.0305343 -0.0411175)
(10.2482 1.32497 -0.913237)
(10.0222 0.0118638 0.00110493)
(9.98649 0.0034347 -0.00331421)
(2.85886 -0.332955 -5.38089)
(10.0235 0.0381522 0.0213554)
(10.0297 0.064113 -0.00586895)
(10.0465 0.118729 0.00118166)
(10.009 0.0123488 -0.0016101)
(12.5098 1.13886 -0.0636737)
(12.5991 0.772157 0.249709)
(9.95316 -0.0833842 -0.0220542)
(9.90582 -0.0435434 0.0635053)
(9.94177 0.0165376 -0.00458341)
(11.1581 -0.295917 1.01534)
(9.93903 0.0569443 0.0255421)
(12.5317 1.4128 -0.131125)
(9.99218 -0.0149655 0.00378077)
(-0.194437 -2.28397 3.33144)
(8.10787 -0.417763 -0.479047)
(9.45249 -0.723836 2.06657)
(10.0361 0.0295308 -0.0157637)
(12.476 1.29711 -0.0523048)
(10.0354 -0.00419473 -0.0452392)
(10.0821 0.0625676 -0.0101149)
(10.0566 0.0186479 -0.026072)
(9.93122 0.0108939 0.0711392)
(10.0277 -0.00653711 -0.0303403)
(10.0972 -0.0249901 -0.0177858)
(8.28007 -0.585924 0.572141)
(9.98737 0.00776527 0.00945451)
(9.91881 0.079224 0.00232301)
(9.98381 -0.046252 -0.011432)
(12.4523 1.09161 -0.0160888)
(10.0327 -0.0412723 0.0322069)
(10.0489 0.0473339 0.0105073)
(12.2648 1.16741 -0.117951)
(12.1444 0.44606 0.215464)
(9.99988 0.0593997 0.0221211)
(10.0294 -0.00755837 0.000164571)
(-0.446373 1.84381 1.25318)
(10.0012 0.057008 -0.0455515)
(10.3772 -0.301118 0.115405)
(9.94603 0.044137 0.0303732)
(10.051 0.0659542 0.0401035)
(10.0618 -0.0087323 0.0101995)
(11.8553 0.576949 -0.00666439)
(10.999 -0.195989 1.21007)
(9.39754 0.591824 0.941353)
(9.98878 0.0278782 0.0636917)
(10.0247 0.0309951 0.00258278)
(9.97338 0.0401994 -0.0122415)
(12.5665 -0.317665 0.967089)
(9.31603 0.125763 -0.328719)
(9.90403 -0.0145888 -0.0810125)
(-0.274827 1.80342 0.930934)
(9.9464 -0.00433312 0.0610228)
(10.014 -0.00182886 0.0434043)
(-1.35639 1.71963 1.39745)
(11.8393 2.07938 -1.04551)
(9.81697 0.137054 0.0252055)
(0.0743801 1.90012 0.659731)
(-0.0482076 2.027 1.16016)
(10.0202 0.0276214 0.0163224)
(9.97496 -0.034194 0.0112767)
(10.0448 -0.0199624 -0.0571292)
(9.73875 -0.372513 0.0761374)
(9.98681 0.00197623 0.0308585)
(9.90736 0.0347541 0.00656931)
(12.1403 2.16093 0.736568)
(10.1378 0.227173 0.145218)
(10.0114 0.111186 -0.0253639)
(10.0865 0.0105793 -0.00895667)
(12.4983 0.340448 0.22326)
(11.7909 0.905466 -0.0123564)
(10.0117 -0.0666147 -0.0346376)
(10.2391 0.308578 -0.121875)
(-4.79042 -2.2759 -0.724754)
(3.60698 -1.54473 -2.64097)
(10.585 0.296066 -0.205138)
(9.95185 0.0107759 0.029674)
(10.2444 -0.182803 0.171003)
(10.7551 -0.156575 -0.662496)
(9.92921 0.0369247 -0.0609753)
(9.91148 0.0747123 -0.0567214)
(10.0159 -0.0313015 -0.0679466)
(10.2407 0.174718 -0.0220417)
(9.98358 -0.00116177 0.00413793)
(10.6046 0.186165 0.25054)
(10.0609 -0.0189966 0.0699816)
(12.5784 1.04881 -0.587234)
(10.2508 1.5087 -0.965783)
(10.5202 0.234842 -0.159832)
(12.6289 1.22749 -0.880722)
(10.2274 0.0470658 -0.108648)
(9.97865 -0.0316583 -0.107689)
(10.5775 0.597856 0.156629)
(10.2358 -0.0175937 0.0328019)
(9.97567 0.0165497 -0.00713525)
(10.0295 0.00785473 -0.00233136)
(10.5505 0.801336 -0.394351)
(7.92677 -0.683884 -1.14323)
(10.0286 0.0107198 0.0468409)
(10.6245 0.246702 0.0967029)
(9.99484 0.0337214 0.0388)
(12.8675 -5.38717 -1.47267)
(10.6817 -0.603151 0.944784)
(11.3421 -0.255896 0.631678)
(6.10599 1.51004 0.397583)
(5.99531 1.50677 0.264495)
(10.0408 -0.0470992 -0.0197631)
(9.8972 0.100554 0.0625898)
(5.22019 1.31628 -0.161016)
(10.0618 -0.00266656 -0.00472076)
(9.79471 -1.70002 -3.09172)
(7.6684 0.333223 1.17719)
(9.98475 0.000565278 -0.013949)
(9.82557 1.64661 0.922649)
(10.0576 -0.105371 0.00641435)
(10.0055 0.0525621 -0.00167154)
(10.0439 -0.0129355 0.0299725)
(12.7571 0.373469 -0.101928)
(9.96863 0.00468393 -0.0119789)
(9.98466 -0.00582447 -0.00587292)
(10.0137 -0.00842557 -0.00745179)
(9.9531 0.00300045 -0.0465594)
(10.0268 0.0271895 0.00621664)
(10.0317 -0.0260842 0.0225279)
(10.0057 -0.0344002 0.0661529)
(10.0277 0.0443495 -0.0447749)
(11.2135 0.634714 0.515915)
(10.3572 1.55664 -3.49983)
(13.765 2.78878 0.902681)
(10.6947 0.304506 0.0257)
(9.93235 1.13703 1.42982)
(10.0044 -0.0238943 -0.0635327)
(9.43229 -0.864555 0.196749)
(10.2028 0.0252463 -0.00994974)
(10.0013 -0.0138014 0.00533145)
(10.0129 -0.00485461 -0.00722695)
(10.0051 -0.00380941 -0.0122487)
(9.99867 0.00889563 0.0403311)
(9.09461 0.277383 -0.784626)
(11.4908 0.37197 0.243659)
(9.98641 0.00863511 0.00500774)
(10.2086 -0.416233 0.163882)
(11.8184 1.1129 1.78219)
(10.0598 -0.0125995 -0.0129025)
(5.49322 -1.58711 2.99714)
(12.7193 -0.993267 -2.57795)
(9.9051 0.0297979 0.0108729)
(9.52285 -0.479081 0.124513)
(10.4842 -0.00697999 0.0141867)
(10.0466 -0.00314598 -0.0253121)
(6.07129 0.310803 2.50665)
(9.95472 -0.00180048 0.0153548)
(9.16708 -4.84657 1.17562)
(10.1046 0.0566811 0.0245214)
(11.3212 -0.400876 0.832851)
(11.7083 0.528773 -0.0207392)
(10.0294 -0.0164486 -0.0511016)
(9.9755 0.0907281 0.00238966)
(10.2984 0.425423 0.00656326)
(8.4923 -0.553153 -2.03914)
(9.9415 -0.0583143 0.044094)
(9.98672 0.0210204 0.0598415)
(10.1374 0.00399437 0.0424759)
(11.7594 -0.0213784 0.576723)
(9.99973 -0.00178446 -0.00056213)
(11.8939 0.580429 0.2854)
(10.2079 -0.0129265 0.0116231)
(2.81565 0.711679 1.07401)
(11.6544 0.46936 0.0804422)
(10.1683 -0.0038238 0.0272955)
(11.7384 0.523604 0.199999)
(10.01 -0.00578698 -0.0034131)
(10.1073 -0.0240736 -0.0246841)
(10.4803 0.303341 0.000636709)
(10.2147 -0.00945022 0.0216523)
(11.9143 0.636797 0.116887)
(9.99233 -0.033958 0.0310123)
(9.98587 -0.241857 0.0695334)
(11.7877 0.551164 0.0324257)
(10.009 -0.0139749 -0.000816475)
(10.2328 -0.0267528 0.0109636)
(10.0045 -0.00468914 -0.00253917)
(10.0395 0.00942522 0.0126722)
(6.80707 0.334097 -4.74937)
(6.61851 -0.167971 -5.2913)
(10.0151 0.0507623 0.414055)
(8.69012 0.335358 -3.84931)
(10.0207 -0.00411832 0.00888964)
(9.97049 -0.0100516 0.00226044)
(10.6459 0.5644 -0.24084)
(10.2264 -0.106142 0.0633961)
(9.69912 0.0721484 0.671636)
(10.0286 -0.00127033 0.0115165)
(9.9928 0.0122691 -0.0485284)
(9.99766 -0.0386238 0.0613201)
(9.9362 0.11564 -0.0435885)
(5.20265 0.127782 -5.91323)
(3.20622 -2.01081 -0.866539)
(10.0158 -0.0156387 0.0308459)
(10.0204 0.0917448 0.0093715)
(9.91195 -0.047905 -0.0119732)
(9.94173 -0.000488265 -0.00558868)
(10.0876 -0.0768234 0.0155833)
(10.043 -0.000238202 0.01483)
(10.9267 -0.168154 0.145233)
(11.4094 -1.46538 2.24273)
(10.0392 -0.0118254 -0.00112275)
(10.0453 -0.0255359 -0.015852)
(10.0178 -0.00290962 0.0659901)
(10.0077 -0.00810773 0.0485888)
(9.85228 0.157718 0.00642473)
(9.98131 -0.0243437 0.0818237)
(10.4092 -0.147612 0.0276425)
(9.98813 0.00190677 -0.0254507)
(10.0246 -0.0602772 -0.0434583)
(10.0865 -0.0448252 0.0314719)
(9.18611 -0.792175 -1.03516)
(5.10247 0.633268 -4.37921)
(9.95422 -0.0270895 -0.00154273)
(-0.540812 -1.6515 1.04465)
(10.0187 -2.64153 1.40156)
(12.7268 -1.39632 -0.918852)
(-0.310154 -1.73229 0.710176)
(10.0784 0.0366071 0.0145158)
(7.92988 -0.210471 0.449459)
(10.2969 -0.492589 -2.33084)
(11.0549 -1.18187 0.442212)
(5.59631 0.272665 -3.41083)
(-0.470338 1.80034 2.18694)
(1.38323 0.461122 -3.02883)
(11.2671 -0.0168751 0.459208)
(10.5386 -0.0423075 -0.00186706)
(10.9693 -0.01314 0.922718)
(10.0138 -0.00539191 -0.0447401)
(3.83724 -0.272516 0.0688071)
(10.591 -0.0269705 -0.327453)
(10.4659 -0.0156066 0.00429522)
(9.99146 0.00534241 0.00434632)
(10.0645 -0.0373984 0.0106607)
(11.1688 -0.293022 0.831751)
(9.8515 0.138589 0.0208928)
(10.082 0.0253282 0.0574021)
(9.99032 0.0328806 -0.0223852)
(-2.74803 0.913706 0.628815)
(8.09153 0.275216 -2.21601)
(10.079 0.0115368 -0.0415172)
(9.99144 -0.00990761 -0.000935991)
(5.08335 0.279826 -2.0146)
(5.90564 0.134584 -2.70296)
(10.6921 0.291654 -2.13909)
(-2.94164 -3.8298 -1.39476)
(3.97807 1.35676 0.477451)
(4.18966 0.0577663 -3.46759)
(3.88523 -0.0162429 -4.34191)
(10.023 0.00461893 -0.00435912)
(9.82249 -0.00771001 -0.00886395)
(9.51571 -0.0263668 0.160253)
(9.95863 -0.0454753 0.0377262)
(10.4018 0.044867 -0.0611958)
(-0.594772 1.82611 1.29093)
(10.7187 -0.111184 -0.255502)
(10.4204 0.0293798 -0.0590005)
(10.3978 0.0264142 -0.0275955)
(10.0602 -0.0266523 0.0503166)
(-0.39987 1.78144 2.16429)
(-0.22035 2.02301 2.19263)
(9.97391 -0.0359931 -0.00251952)
(10.3945 -0.0239768 -0.0334907)
(9.94733 0.0432327 0.0721641)
(9.93286 -0.00116347 -0.0030956)
(10.3971 -0.00459715 -0.0171168)
(9.98219 0.0197437 0.0185383)
(9.66941 -0.0258906 0.0136782)
(10.0556 0.00867618 -0.0467042)
(9.95019 -0.0280338 0.016363)
(6.77714 -0.661422 -2.8301)
(9.94521 0.00195297 -0.0331572)
(9.97987 0.038743 0.0447863)
(10.0354 -0.0962327 0.00600903)
(9.95484 0.0535358 -0.0167267)
(9.99107 0.00665069 -0.0327137)
(4.11753 -0.479772 -2.05033)
(12.395 -1.26974 -0.147201)
(10.0198 -0.0300529 -0.035513)
(10.541 0.404519 -0.194411)
(10.0721 -0.0257711 -0.0216528)
(9.82271 -0.368576 0.176062)
(9.7576 -0.429322 0.285853)
(11.8108 -0.0454506 -0.0441278)
(10.0125 -0.0588515 0.0193143)
(-0.83375 -1.0988 3.05485)
(11.9179 -0.110029 -0.0603254)
(10.3793 0.117146 0.00442772)
(10.6318 0.217347 -0.00540447)
(8.0597 0.308585 -3.11734)
(13.3787 2.05608 0.657862)
(10.0424 -0.0513576 -0.0245681)
(10.0458 -0.0576818 -0.0146613)
(12.1838 1.32249 1.89378)
(10.0586 0.016366 -0.0590032)
(10.0255 0.0251324 -0.0199989)
(11.2391 0.357264 0.3626)
(10.0138 -0.0729242 -0.00725623)
(9.98282 0.0054646 0.00429048)
(0.13096 -0.365468 2.26298)
(12.3211 -0.183149 0.373463)
(12.5183 2.79476 0.341839)
(10.0055 0.00116314 0.00516443)
(7.62655 0.513173 -2.34748)
(9.95691 -0.0415351 -0.0512988)
(11.5579 -0.762694 -0.195429)
(9.62199 -0.399408 0.392649)
(11.8633 -0.0572438 -0.0237386)
(10.1255 0.0135231 -0.0045008)
(9.43241 -0.40782 0.361699)
(1.45098 0.909749 2.70055)
(12.2603 1.43715 2.34691)
(12.0634 -0.36164 -0.75231)
(-1.15264 1.89054 2.46972)
(11.7843 0.347795 0.0701736)
(10.3208 0.124907 0.0845405)
(9.98699 0.0274255 -0.040355)
(11.8068 0.668684 -0.157845)
(10.0121 -0.0627472 0.014508)
(12.0039 -0.0567813 0.1123)
(-0.240269 -0.95608 2.13175)
(10.0063 -0.0509978 0.0331325)
(12.3196 0.0175543 -1.14166)
(10.0241 -0.0134346 -0.0284532)
(10.0538 -0.00945704 -0.00736518)
(11.3486 -2.00471 1.40104)
(10.1125 -0.01658 0.0350959)
(10.0246 -0.0198395 -0.0982499)
(8.38062 -5.75967 0.459902)
(9.60172 0.410247 0.0455359)
(10.01 -0.201484 0.0926041)
(12.3001 -0.855921 0.271359)
(10.3653 1.30862 1.47797)
(10.1174 -0.0748434 0.0564695)
(11.8628 -2.20025 -0.470854)
(5.32007 -0.758368 0.168022)
(10.4629 0.0374563 0.081664)
(9.52712 -0.678466 -0.694508)
(10.0065 0.0356817 -0.0107326)
(10.2434 0.123238 0.0201047)
(10.1244 -0.0336144 0.083418)
(10.0762 -0.0317614 0.0171051)
(3.92646 2.05356 -2.38976)
(0.790386 -2.13641 1.67636)
(11.9621 0.0290466 -0.443206)
(9.76005 -1.4254 -0.167212)
(11.7111 -1.90433 -0.0566443)
(2.78394 5.75485 0.0777252)
(-1.00138 0.154929 -1.0374)
(10.1118 -3.44601 4.35906)
(10.0469 -0.0213596 -0.0307665)
(10.0127 0.019967 -0.00386754)
(9.98051 -0.00793863 -0.00034543)
(9.96892 -0.109449 -0.124715)
(6.65826 0.5971 -2.31856)
(9.71041 -0.533236 0.280425)
(9.16549 -0.510511 1.27714)
(9.97695 0.0155853 0.00313837)
(-1.4272 -1.17917 0.742868)
(11.9467 -0.0556052 0.000894716)
(9.83897 0.197803 -0.0440214)
(10.0093 0.00115965 -0.0327671)
(10.0121 -0.0201931 0.0193931)
(9.99769 0.0388945 -0.0435886)
(6.18955 -1.79523 -2.83534)
(10.0083 0.0123288 0.00173392)
(6.72776 5.89208 0.0367074)
(10.0192 -0.109518 0.0132937)
(9.99564 -0.591828 -2.83758)
(9.99374 -0.0013738 0.000966161)
(10.0153 -0.00974904 -0.00138037)
(10.0448 -0.00289817 0.0458315)
(10.0955 0.0242643 0.0191305)
(9.98273 -0.0113294 -0.0034151)
(12.8463 0.536928 -0.0854397)
(12.3138 0.0883101 0.420815)
(9.25976 1.26614 2.61099)
(7.347 3.99043 2.72945)
(9.45959 0.947122 0.593965)
(10.2437 0.485237 -0.0595153)
(11.179 0.796591 0.145267)
(6.39965 -0.326316 -2.63705)
(10.3801 -0.111188 0.0476316)
(11.0959 0.0528176 -0.110611)
(10.1991 -0.582106 0.113613)
(11.7494 0.0508544 -0.0399826)
(8.8213 0.0712793 4.93071)
(6.4949 -0.630316 0.389975)
(10.3749 -0.254958 0.179446)
(9.99953 0.00323015 0.00719252)
(9.58622 0.881636 -0.197866)
(10.0267 -0.00667864 0.00487343)
(10.0921 0.0222684 0.0108486)
(14.172 -2.04756 2.08292)
(11.9528 -0.766559 0.661941)
(-1.03153 3.42363 0.49519)
(10.1602 -0.768206 0.295493)
(11.6607 -0.885302 -0.22581)
(10.2906 -1.01112 -0.944215)
(12.6361 0.171881 -0.198975)
(10.143 -0.0539923 0.0196763)
(-2.1499 -2.02636 0.532993)
(10.0025 0.0119841 -0.0441515)
(10.0236 0.0257247 -0.0187299)
(10.6275 -0.092638 0.584868)
(10.4435 0.0988764 5.23367)
(10.176 -0.0220281 0.0060109)
(10.0918 0.518446 -0.328087)
(10.0205 0.0170146 0.049068)
(10.6958 -1.04908 0.626138)
(10.9035 0.02088 0.877278)
(9.98604 -0.0134945 0.00100462)
(10.791 -0.448892 -2.76855)
(10.3723 -0.345115 -3.00052)
(12.888 0.268034 0.88016)
(10.331 0.467429 -0.116063)
(9.68548 0.033093 0.343645)
(3.13132 0.759113 -3.29028)
(0.916196 1.1797 3.76993)
(5.46518 3.15089 0.993108)
(12.7237 -0.841987 -2.44673)
(5.59158 -0.401013 -0.0756127)
(9.92386 -0.0180365 -0.16419)
(9.91891 -0.0504724 0.0197564)
(8.64578 1.51929 2.95542)
(9.97244 -0.0434095 0.0884369)
(4.54632 -0.686737 0.13306)
(9.94727 -0.0443094 -0.124906)
(9.95039 -0.0249652 -0.147844)
(-1.6586 1.40602 -0.46613)
(9.71005 -1.14328 0.967975)
(10.8428 -0.252382 0.166172)
(10.0328 -0.00367169 0.0344724)
(9.90422 0.0430914 0.0549453)
(8.22058 0.313271 -2.5596)
(10.0071 0.0575497 0.0805138)
(9.99287 -0.0174588 -0.0115981)
(10.2017 0.675341 1.02697)
(11.9936 -0.746509 -2.55573)
(10.2781 0.273544 0.130828)
(9.88222 0.13443 0.0152734)
(9.89632 -0.113678 0.03166)
(9.98252 -0.00334345 -0.0144805)
(9.94854 -0.0490704 -0.0193275)
(11.6513 -0.753408 -1.65313)
(11.7431 0.180298 -0.0661605)
(8.39315 0.033753 0.174992)
(9.85377 -0.913363 0.612229)
(9.86029 -0.072487 -0.000686284)