/*--------------------------------*- C++ -*----------------------------------*\
| =========                 |                                                 |
| \\      /  F ield         | OpenFOAM: The Open Source CFD Toolbox           |
|  \\    /   O peration     | Version:  2506                                  |
|   \\  /    A nd           | Website:  www.openfoam.com                      |
|    \\/     M anipulation  |                                                 |
\*---------------------------------------------------------------------------*/
FoamFile
{
    version     2.0;
    format      ascii;
    arch        "LSB;label=32;scalar=64";
    class       volScalarField;
    location    "0.01535";
    object      k;
}
// * * * * * * * * * * * * * * * * * * * * * * * * * * * * * * * * * * * * * //

dimensions      [0 2 -2 0 0 0 0];

internalField   nonuniform List<scalar> 
3926
(
0.375359
0.375372
0.46679
0.613492
0.529835
0.716396
0.721525
0.801442
0.608368
0.732782
0.765655
0.37769
0.37443
0.385909
0.384599
0.370615
0.378271
0.378369
0.503887
0.379843
0.472685
0.553774
0.51828
0.376593
0.421799
0.502167
0.489331
0.593435
0.619386
0.385487
0.388811
0.436339
0.375004
0.379167
0.423222
0.374865
0.705464
0.431617
0.398392
0.371416
0.586037
0.861162
0.415322
0.374411
0.385242
0.7892
0.416808
0.457913
0.662283
0.429432
0.468924
0.790297
0.585624
0.752839
0.400941
0.426838
0.868777
0.633999
0.451626
0.619635
0.391389
0.580508
0.774063
0.438341
0.744046
0.682958
0.733101
0.600293
0.570897
0.751437
0.659519
0.379282
0.5305
0.376141
0.388254
0.402108
0.40115
0.662131
0.464759
0.383212
0.530831
0.434459
0.731119
0.864682
0.37475
0.41839
0.380989
0.395505
0.723542
0.395693
0.38504
0.437185
0.488589
0.401502
0.413887
0.84192
0.398709
0.421708
0.693777
0.45656
0.567132
0.436021
0.467292
0.430437
0.6069
0.551701
0.44069
0.423308
0.426367
0.420406
0.473301
0.43654
0.413284
0.43113
0.377558
0.68301
0.533863
0.371766
0.747303
0.78685
0.369487
0.368338
0.385233
0.471688
0.414627
0.445767
0.582919
0.424769
0.578502
0.455489
0.430891
0.430651
0.41617
0.424793
0.663745
0.641039
0.713331
0.746285
0.80408
0.496711
0.383194
0.387372
0.463469
0.499083
0.416603
0.596414
0.45888
0.535216
0.437578
0.448855
0.47376
0.485354
0.452155
0.508984
0.551313
0.573691
0.450987
0.606036
0.535995
0.576294
0.471329
0.416828
0.435387
0.691276
0.691284
0.430837
0.409844
0.372678
0.40043
0.556524
0.918063
0.395994
0.389501
0.385606
0.425972
0.459822
0.431042
0.688777
0.531558
0.438505
0.580568
0.372143
0.50797
0.371961
0.370681
0.453031
0.460067
0.407365
0.485731
0.458747
0.691067
0.426247
0.620351
0.409972
0.414475
0.392895
0.403259
0.410948
0.426032
0.755205
0.445418
0.80788
0.687921
0.419133
0.410977
0.533047
0.39172
0.567377
0.430493
0.368469
0.369833
0.407017
0.479889
0.370815
0.390343
0.564788
0.412553
0.468502
0.451589
0.497174
0.395985
0.473176
0.390604
0.638939
0.410015
0.657293
0.644738
0.45216
0.378066
0.426415
0.396455
0.601039
0.3787
0.403697
0.458429
0.461736
0.424525
0.548637
0.764548
0.459213
0.697021
0.408428
0.378303
0.664092
0.372485
0.455301
0.571102
0.439384
0.390999
0.813043
0.735956
0.4911
0.849632
0.545935
0.409617
0.482523
0.735933
0.449927
0.518953
0.764326
0.789365
0.67978
0.431731
0.658472
0.723303
0.411567
0.386204
0.483583
0.464715
0.650637
0.699715
0.824601
0.392366
0.459208
0.429598
0.505047
0.380825
0.455167
0.387773
0.387955
0.682813
0.708997
0.367065
0.405379
0.48057
0.533573
0.572013
0.616834
0.674793
0.544752
0.520052
0.384381
0.414984
0.589213
0.375733
0.510713
0.405091
0.450546
0.434845
0.546969
0.854909
0.538678
0.417767
0.476057
0.416166
0.56967
0.892909
0.428292
0.401145
0.747349
0.78312
0.604877
0.634036
0.413385
0.471325
0.409006
0.43117
0.379639
0.551229
0.423572
0.533171
0.391834
0.742833
0.569649
0.571461
0.433136
0.610789
0.524587
0.795294
0.40995
0.497318
0.402361
0.374391
0.385727
0.38131
0.376753
0.472506
0.371138
0.750745
0.351692
0.633626
0.472312
0.428428
0.399567
0.421933
0.371818
0.738217
0.635901
0.713643
0.456266
0.623414
0.335517
0.40351
0.508564
0.599681
0.639108
0.587471
0.647882
0.387002
0.386926
0.415074
0.375079
0.475603
0.452178
0.707081
0.514068
0.454921
0.403197
0.579723
0.386056
0.364581
0.392887
0.749965
0.401206
0.558886
0.428865
0.484173
0.419615
0.654221
0.455331
0.400828
0.465446
0.476031
0.529363
0.431206
0.411674
0.516674
0.492464
0.462548
0.416406
0.744505
0.419988
0.804432
0.46821
0.454528
0.435242
0.471256
0.376334
0.467153
0.374722
0.372693
0.384871
0.411633
0.39802
0.486591
0.507111
0.461484
0.38567
0.426589
0.371843
0.393945
0.778953
0.598095
0.524398
0.424411
0.430158
0.433319
0.62932
0.417876
0.379292
0.39034
0.37903
0.454486
0.490783
0.437506
0.392871
0.441381
0.382685
0.373839
0.368732
0.46234
0.371192
0.499398
0.429676
0.379216
0.390109
0.463115
0.372673
0.597593
0.396114
0.416558
0.799362
0.569762
0.373577
0.571994
0.779625
0.567719
0.615713
0.411859
0.36954
0.759591
0.441597
0.373722
0.766628
0.368117
0.569279
0.548263
0.406743
0.40207
0.369435
0.375212
0.544541
0.38058
0.410369
0.457748
0.396835
0.40847
0.7519
0.443838
0.388092
0.370254
0.389464
0.373259
0.37368
0.499578
0.495567
0.428934
0.496922
0.379501
0.574435
0.561524
0.442337
0.378005
0.419296
0.366941
0.405124
0.678474
0.544677
0.48076
0.785519
0.446698
0.530076
0.763523
0.830973
0.442604
0.455239
0.48775
0.445184
0.538905
0.685619
0.479261
0.642171
0.455451
0.487896
0.549539
0.645488
0.408941
0.483765
0.402377
0.581722
0.524648
0.803657
0.796545
0.477693
0.547048
0.649005
0.763694
0.525154
0.808507
0.626628
0.792847
0.741268
0.513367
0.637423
0.66036
0.478568
0.481089
0.653175
0.640079
0.483863
0.397701
0.393818
0.425929
0.3763
0.604402
0.639063
0.796583
0.805893
0.370528
0.37872
0.37513
0.605633
0.811685
0.790046
0.896003
0.652708
0.56941
0.384389
0.389789
0.380026
0.380839
0.411112
0.582653
0.394993
0.390535
0.559218
0.489453
0.566854
0.618194
0.459657
0.441184
0.51483
0.387239
0.387732
0.411725
0.420527
0.708488
0.674525
0.606846
0.862139
0.418656
0.410084
0.396854
0.392058
0.39082
0.53615
0.488724
0.455183
0.740036
0.390643
0.709003
0.426741
0.484959
0.409303
0.503407
0.519534
0.758382
0.403688
0.399113
0.40166
0.674494
0.387467
0.697112
0.744444
0.782231
0.382853
0.540835
0.770413
0.635415
0.653061
0.527104
0.425214
0.447838
0.412757
0.371861
0.370854
0.438562
0.5653
0.554641
0.738905
0.673952
0.490218
0.611158
0.415463
0.382424
0.394326
0.375057
0.374674
0.377552
0.37295
0.381084
0.514249
0.476985
0.426451
0.676381
0.600862
0.519288
0.418094
0.431098
0.388463
0.402482
0.432308
0.390116
0.397342
0.588429
0.393613
0.400781
0.484421
0.47126
0.65244
0.482553
0.387799
0.4127
0.478556
0.549789
0.440782
0.444922
0.486916
0.46656
0.510041
0.397081
0.466272
0.455224
0.453216
0.395118
0.514232
0.38273
0.391544
0.3876
0.554704
0.578161
0.388471
0.401372
0.389742
0.491253
0.465961
0.446436
0.827865
0.464395
0.420493
0.445793
0.380217
0.375529
0.43624
0.431944
0.436077
0.513993
0.460676
0.429383
0.493284
0.405116
0.422767
0.48564
0.648542
0.522314
0.414174
0.394949
0.388087
0.377842
0.371982
0.50258
0.460428
0.612736
0.495112
0.465093
0.380594
0.37837
0.377409
0.374828
0.394878
0.392004
0.397664
0.382426
0.400312
0.399477
0.395686
0.39906
0.452886
0.551707
0.361328
0.381853
0.39256
0.379703
0.400258
0.382686
0.408031
0.39788
0.484714
0.519635
0.518893
0.422886
0.4161
0.391942
0.410268
0.392851
0.39463
0.371561
0.372848
0.370092
0.453935
0.386618
0.401665
0.469105
0.412696
0.376185
0.464872
0.406318
0.379754
0.408643
0.383326
0.405846
0.398662
0.654766
0.406218
0.404709
0.411639
0.372992
0.373758
0.375451
0.370554
0.37362
0.371545
0.37343
0.371512
0.404293
0.389395
0.768302
0.483501
0.637962
0.415701
0.785413
0.410902
0.389936
0.425795
0.612056
0.446088
0.670447
0.600485
0.440574
0.765998
0.382297
0.776522
0.734144
0.363213
0.389667
0.533968
0.609918
0.38102
0.384165
0.467342
0.365665
0.63872
0.465691
0.446673
0.375168
0.391961
0.396342
0.39729
0.377327
0.376124
0.398883
0.366102
0.377938
0.536193
0.424666
0.401855
0.411233
0.383193
0.411129
0.457809
0.386246
0.392012
0.662665
0.39641
0.45702
0.74167
0.800117
0.439283
0.387335
0.443662
0.383684
0.54592
0.407916
0.390307
0.467746
0.384286
0.377117
0.403649
0.431576
0.4048
0.66689
0.541094
0.802621
0.38018
0.454373
0.418806
0.387709
0.887922
0.510965
0.932099
0.371702
0.369628
0.61865
0.354438
0.61849
0.45417
0.370735
0.396085
0.373256
0.778426
0.408202
0.371796
0.663391
0.41813
0.395839
0.383502
0.540832
0.370591
0.444146
0.486784
0.395633
0.815929
0.42006
0.405238
0.848063
0.628402
0.406407
0.692259
0.615197
0.401455
0.700134
0.385235
0.388285
0.407412
0.548719
0.42782
0.437019
0.387355
0.892936
0.770244
0.551291
0.493136
0.729254
0.485885
0.394683
0.45393
0.417622
0.41453
0.574633
0.523039
0.665619
0.406504
0.398658
0.496388
0.425127
0.488618
0.649728
0.442479
0.451495
0.370545
0.376295
0.372991
0.400818
0.36731
0.635315
0.370833
0.626933
0.41465
0.384322
0.454051
0.584245
0.517146
0.520694
0.464274
0.478839
0.3849
0.392687
0.403658
0.870937
0.366924
0.442762
0.819033
0.374985
0.37032
0.378698
0.450448
0.830777
0.602677
0.661551
0.486695
0.382578
0.399397
0.38288
0.582755
0.387589
0.404785
0.678453
0.584177
0.630652
0.503285
0.486581
0.469589
0.782793
0.645987
0.394315
0.410309
0.48923
0.388818
0.758056
0.794516
0.373495
0.379962
0.376392
0.380801
0.392488
0.373134
0.423908
0.428347
0.503553
0.662013
0.661096
0.517637
0.402166
0.469306
0.782935
0.647908
0.727382
0.654297
0.445618
0.401126
0.4893
0.550547
0.684046
0.448717
0.430617
0.488484
0.453069
0.633538
0.406312
0.598564
0.733972
0.488437
0.48274
0.392824
0.434089
0.367769
0.529253
0.489247
0.42714
0.435948
0.416528
0.414501
0.438063
0.398197
0.543234
0.410092
0.377082
0.39587
0.374123
0.750257
0.467168
0.74275
0.871616
0.702977
0.630043
0.508614
0.401546
0.395382
0.443594
0.514281
0.388031
0.377279
0.762507
0.568331
0.448094
0.435453
0.368965
0.391724
0.856759
0.43969
0.412138
0.40201
0.500237
0.416302
0.489536
0.420316
0.49347
0.406621
0.382339
0.428064
0.78929
0.512754
0.473725
0.80433
0.883763
0.502976
0.425018
0.470842
0.383077
0.393373
0.386725
0.374109
0.464229
0.403864
0.426623
0.609924
0.422683
0.78169
0.518292
0.443446
0.405483
0.76762
0.406677
0.418564
0.452944
0.782574
0.377265
0.458969
0.391886
0.754898
0.412178
0.490267
0.421357
0.446541
0.640926
0.657028
0.395092
0.630238
0.703854
0.562591
0.40883
0.628252
0.63173
0.835711
0.393468
0.400069
0.396614
0.380642
0.380775
0.783678
0.416328
0.376099
0.674007
0.492123
0.800325
0.382062
0.38702
0.388646
0.680545
0.488183
0.46715
0.397641
0.378004
0.385734
0.387502
0.374908
0.372798
0.375433
0.390904
0.389195
0.408266
0.50168
0.411014
0.378414
0.392162
0.386516
0.37789
0.389347
0.375452
0.399182
0.382202
0.377775
0.392424
0.374037
0.653427
0.662367
0.38102
0.679275
0.37956
0.385923
0.380894
0.389142
0.407203
0.403461
0.740858
0.788243
0.877137
0.417998
0.408694
0.587478
0.620841
0.37187
0.440534
0.368054
0.380278
0.643968
0.529051
0.420821
0.390923
0.408535
0.721707
0.578988
0.518387
0.622702
0.417364
0.529388
0.45698
0.422364
0.663614
0.635772
0.408645
0.484577
0.680032
0.618598
0.581705
0.618189
0.379308
0.720965
0.485734
0.403945
0.620201
0.523115
0.344352
0.572686
0.482097
0.625121
0.652538
0.682788
0.570455
0.375314
0.764256
0.444097
0.550331
0.503293
0.411537
0.396051
0.884727
0.812076
0.678656
0.29844
0.66627
0.455684
0.684634
0.658698
0.513909
0.761453
0.840651
0.637907
0.554867
0.501012
0.406115
0.423221
0.391865
0.387608
0.676117
0.633717
0.726134
0.714305
0.564651
0.597968
0.669155
0.617368
0.420939
0.399048
0.398397
0.397109
0.385084
0.461638
0.389782
0.597256
0.571846
0.6685
0.456695
0.378846
0.688926
0.783395
0.743137
0.646223
0.572403
0.431594
0.809834
0.843771
0.789464
0.377086
0.52416
0.381101
0.568165
0.524213
0.557853
0.515906
0.443682
0.496973
0.53913
0.789601
0.808883
0.742584
0.792655
0.797348
0.830393
0.911577
0.799418
0.381174
0.366367
0.372507
0.398252
0.407782
0.369964
0.365419
0.380266
0.448204
0.394524
0.394669
0.386689
0.39078
0.524361
0.39821
0.381182
0.370754
0.372002
0.386829
0.389568
0.487352
0.436455
0.433503
0.413324
0.476492
0.467709
0.50028
0.419085
0.376221
0.376834
0.598571
0.598016
0.659333
0.380108
0.422397
0.405753
0.37269
0.435536
0.445854
0.385725
0.390515
0.465253
0.606934
0.399651
0.561803
0.432108
0.457323
0.490246
0.438236
0.7717
0.431247
0.441971
0.452455
0.417812
0.413334
0.379671
0.409693
0.616493
0.532745
0.393211
0.422138
0.452747
0.38532
0.749492
0.575908
0.397018
0.559993
0.518997
0.53658
0.654135
0.644745
0.517121
0.605195
0.57519
0.789758
0.433878
0.417021
0.464737
0.408949
0.518559
0.400293
0.440309
0.378534
0.371676
0.372223
0.387666
0.472846
0.477292
0.39846
0.390322
0.383585
0.488835
0.443569
0.490511
0.382516
0.404774
0.497941
0.373678
0.750733
0.546613
0.532255
0.853639
0.793656
0.575157
0.524826
0.379163
0.438048
0.404805
0.412033
0.388298
0.393704
0.603568
0.387591
0.563098
0.792175
0.554587
0.688459
0.473822
0.392157
0.367856
0.405795
0.373545
0.392269
0.428911
0.405323
0.418747
0.405334
0.43231
0.388905
0.480308
0.590858
0.902675
0.431077
0.374364
0.36964
0.374504
0.392806
0.393718
0.424659
0.45266
0.68504
0.406538
0.411155
0.556312
0.469573
0.386853
0.418823
0.379433
0.708639
0.554043
0.435721
0.426967
0.401579
0.408455
0.6933
0.409852
0.488958
0.71841
0.425952
0.596779
0.636433
0.431515
0.467428
0.366654
0.366562
0.515056
0.424351
0.367832
0.369639
0.411112
0.431958
0.436081
0.365067
0.416333
0.380698
0.611578
0.61341
0.613835
0.50147
0.547125
0.444901
0.770364
0.381109
0.372035
0.368111
0.371583
0.366872
0.389169
0.384285
0.422073
0.386849
0.424298
0.649316
0.463807
0.542923
0.470356
0.564686
0.372253
0.408471
0.4347
0.575387
0.525252
0.377829
0.368899
0.785817
0.695427
0.566704
0.483256
0.465708
0.641409
0.489494
0.626195
0.538521
0.460115
0.474171
0.579669
0.415631
0.509681
0.364612
0.666005
0.529552
0.486687
0.705937
0.767184
0.444548
0.435127
0.478291
0.708797
0.382644
0.410315
0.710861
0.751237
0.518053
0.422126
0.389508
0.402348
0.475562
0.402433
0.421929
0.372075
0.392571
0.646962
0.765861
0.39478
0.462559
0.502404
0.473908
0.674511
0.399846
0.815202
0.852922
0.381356
0.435557
0.401333
0.388101
0.720763
0.42422
0.716282
0.40224
0.428907
0.70734
0.389779
0.530842
0.530206
0.438324
0.443604
0.440736
0.489117
0.397372
0.384131
0.383243
0.420111
0.386864
0.518383
0.396204
0.390921
0.591863
0.656444
0.804884
0.792891
0.496858
0.554952
0.386251
0.388731
0.416849
0.449313
0.427031
0.406451
0.454764
0.395246
0.370183
0.366599
0.410384
0.473457
0.393968
0.371215
0.400332
0.401264
0.486011
0.409502
0.591945
0.415641
0.38568
0.384299
0.380568
0.396158
0.390904
0.574516
0.611458
0.60266
0.616521
0.636655
0.678645
0.450045
0.424095
0.416753
0.405948
0.773117
0.419546
0.41149
0.46951
0.39288
0.780263
0.554699
0.438037
0.448377
0.45828
0.606399
0.427017
0.390219
0.465984
0.432306
0.685604
0.443151
0.441876
0.657358
0.397791
0.532794
0.402411
0.57337
0.534579
0.535684
0.382544
0.644214
0.444795
0.448497
0.415359
0.585427
0.712172
0.571117
0.406113
0.434823
0.48675
0.509855
0.552188
0.802582
0.622803
0.38043
0.545246
0.692198
0.48553
0.6089
0.628358
0.577649
0.344054
0.427486
0.393546
0.400403
0.398081
0.33313
0.794658
0.466394
0.57692
0.910084
0.486404
0.480172
0.485973
0.509547
0.578225
0.38002
0.390194
0.46574
0.39587
0.403003
0.403318
0.424602
0.398904
0.391286
0.533706
0.372852
0.400073
0.398625
0.408912
0.758199
0.567494
0.599477
0.638565
0.603741
0.600612
0.594705
0.371041
0.372916
0.382508
0.539301
0.378846
0.385565
0.475047
0.717256
0.599005
0.867225
0.387805
0.825659
0.633963
0.867284
0.797928
0.467986
0.822883
0.637323
0.6419
0.643406
0.7897
0.657084
0.530361
0.757017
0.435629
0.649272
0.395469
0.658077
0.635301
0.600923
0.564704
0.663243
0.722096
0.540726
0.5758
0.557539
0.603239
0.562062
0.647201
0.949108
0.505584
0.591191
0.546843
0.597484
0.59516
0.439896
0.407232
0.590568
0.474708
0.564566
0.641219
0.490797
0.559517
0.458869
0.622045
0.635211
0.62141
0.655083
0.386038
0.900723
0.423659
0.947774
0.997687
0.490869
0.629208
0.460242
0.818467
0.602138
0.51119
0.465148
0.406871
0.403896
0.432998
0.46006
0.597975
0.361044
0.681753
0.441794
0.771638
0.746493
0.912756
0.638602
0.395884
0.657567
0.986915
0.718497
0.644839
0.378669
0.594871
0.767175
0.644449
0.418924
0.391288
0.6483
0.425764
0.469444
0.580879
0.648404
0.438067
0.37261
0.375926
0.387413
0.421896
0.460985
0.419227
0.426589
0.388991
0.416121
0.40463
0.621885
0.798849
0.464147
0.556447
0.592505
0.466637
0.419642
0.40046
0.434124
0.430151
0.438642
0.463685
0.465866
0.443019
0.427176
0.45263
0.378665
0.375957
0.609534
0.407783
0.382603
0.456479
0.800362
0.408151
0.442021
0.409828
0.430477
0.759755
0.676422
0.430493
0.587077
0.377783
0.374715
0.558837
0.708487
0.553278
0.705386
0.694698
0.52201
0.573332
0.679515
0.564302
0.431004
0.648256
0.648638
0.65923
0.439146
0.775273
0.380811
0.38482
0.387588
0.374781
0.379115
0.478996
0.525732
0.424883
0.447963
0.370961
0.513365
0.584915
0.650662
0.669188
0.597889
0.549158
0.642871
0.55744
0.691566
0.534734
0.497166
0.907143
0.402037
0.534115
0.676673
0.390043
0.386585
0.371694
0.5002
0.468196
0.42252
0.650722
0.451761
0.395763
0.686499
0.457431
0.640489
0.375576
0.417039
0.438878
0.437772
0.389672
0.519078
0.856272
0.40764
0.428375
0.393674
0.40138
0.403592
0.392122
0.384742
0.373593
0.473031
0.399658
0.41261
0.3987
0.392545
0.376139
0.42169
0.392765
0.841723
0.489517
0.43652
0.621376
0.443928
0.409584
0.445035
0.389331
0.413686
0.370518
0.375863
0.414219
0.369832
0.380735
0.382152
0.377264
0.375822
0.37212
0.587164
0.613474
0.448713
0.418
0.753216
0.416722
0.469563
0.485541
0.596169
0.560291
0.539647
0.646585
0.798853
0.827196
0.662766
0.876068
0.776161
0.514022
0.405562
0.372748
0.407323
0.634922
0.470602
0.639243
0.405812
0.38645
0.448488
0.497144
0.387946
0.399669
0.768316
0.395471
0.442935
0.705271
0.380307
0.448458
0.381044
0.412366
0.366363
0.474663
0.793832
0.403825
0.525058
0.465329
0.424526
0.369192
0.386097
0.376012
0.480844
0.455186
0.393333
0.383208
0.434622
0.401466
0.457916
0.418151
0.416487
0.565575
0.440805
0.505077
0.410133
0.410867
0.574714
0.620219
0.583687
0.552155
0.599523
0.492052
0.388128
0.447416
0.398814
0.845533
0.387108
0.406835
0.434888
0.408104
0.513645
0.738383
0.442039
0.422444
0.493062
0.390106
0.422736
0.828249
0.366027
0.367145
0.401451
0.411907
0.672646
0.444045
0.819133
0.533985
0.400598
0.387481
0.399101
0.44682
0.506715
0.596022
0.590632
0.721848
0.414626
0.384384
0.467888
0.793607
0.529789
0.523747
0.578315
0.551079
0.915609
0.852476
0.434097
0.919281
0.832295
0.732277
0.813827
0.376423
0.494782
0.430957
0.370746
0.394257
0.390964
0.542975
0.397721
0.655208
0.421448
0.605628
0.656189
0.386981
0.40653
0.41347
0.380589
0.423017
0.44578
0.609967
0.558158
0.582313
0.773588
0.872974
0.483007
0.427982
0.431299
0.406551
0.586838
0.780692
0.696387
0.372053
0.393943
0.385139
0.376422
0.393865
0.390359
0.376873
0.425738
0.386276
0.444757
0.482067
0.436943
0.40508
0.410097
0.443257
0.555346
0.612212
0.79931
0.766366
0.442978
0.574346
0.452575
0.580866
0.504837
0.680126
0.378144
0.3857
0.754481
0.438846
0.399679
0.409272
0.411264
0.444425
0.817708
0.920222
0.424742
0.681885
0.520869
0.521401
0.564419
0.4561
0.489258
0.508305
0.387356
0.442219
0.401839
0.379574
0.752631
0.406493
0.369868
0.41225
0.411002
0.537863
0.691269
0.669648
0.553224
0.689446
0.729974
0.67861
0.711846
0.40078
0.403349
0.549302
0.40579
0.750598
0.495532
0.667849
0.434691
0.429604
0.37409
0.470195
0.367484
0.469772
0.37244
0.38592
0.384045
0.393769
0.424903
0.553331
0.575192
0.491029
0.811101
0.387219
0.83713
0.561888
0.674089
0.497175
0.373839
0.388215
0.421378
0.383104
0.370297
0.379842
0.410313
0.368155
0.391893
0.364541
0.411599
0.628431
0.499563
0.41728
0.517492
0.633051
0.542891
0.626775
0.457456
0.87383
0.570786
0.419858
0.406651
0.589462
0.653685
0.664947
0.531921
0.803799
0.373123
0.653036
0.385978
0.380808
0.435307
0.392081
0.388652
0.403189
0.373058
0.400431
0.631232
0.389697
0.608522
0.537271
0.614093
0.589529
0.455194
0.443633
0.626672
0.398753
0.487562
0.565813
0.535158
0.370844
0.587135
0.418933
0.414368
0.424777
0.371293
0.385353
0.382229
0.386489
0.37038
0.557351
0.487909
0.384698
0.386459
0.383635
0.413759
0.402267
0.39517
0.51655
0.489411
0.806668
0.691801
0.708295
0.759734
0.454779
0.462172
0.489657
0.848362
0.465053
0.686711
0.619572
0.530518
0.383191
0.510363
0.630021
0.715725
0.376809
0.373429
0.401984
0.415402
0.393585
0.403598
0.501369
0.45969
0.527984
0.439463
0.429889
0.436149
0.444217
0.466808
0.473483
0.7314
0.614362
0.583187
0.687282
0.602712
0.572234
0.604477
0.5394
0.537661
0.407905
0.427026
0.400538
0.423496
0.418313
0.540977
0.437846
0.425468
0.39243
0.430381
0.375776
0.393353
0.375149
0.377311
0.444179
0.378581
0.539366
0.370671
0.384446
0.393445
0.70084
0.788484
0.509642
0.530597
0.406355
0.432913
0.381987
0.389243
0.384956
0.379949
0.426074
0.809219
0.688524
0.549177
0.461568
0.650503
0.396408
0.735614
0.429121
0.740166
0.5184
0.651698
0.682477
0.84106
0.7915
0.746898
0.69865
0.623771
0.470789
0.456031
0.753273
0.433588
0.439073
0.386035
0.63155
0.407117
0.402817
0.388111
0.403828
0.391339
0.621534
0.754143
0.481066
0.450273
0.414129
0.384176
0.38552
0.547506
0.541351
0.457997
0.586998
0.379966
0.385981
0.417227
0.446312
0.452285
0.75533
0.532498
0.76124
0.613562
0.767333
0.716968
0.782702
0.510849
0.803072
0.767147
0.704519
0.795048
0.766365
0.676396
0.731265
0.555255
0.583523
0.422088
0.682527
0.415909
0.381952
0.395717
0.444027
0.393021
0.371601
0.382409
0.497524
0.608814
0.526464
0.585087
0.532572
0.55519
0.443427
0.648356
0.713738
0.398197
0.55657
0.486733
0.608176
0.614652
0.388882
0.392286
0.406154
0.401355
0.389428
0.403852
0.384476
0.438035
0.527942
0.699716
0.636107
0.523083
0.593121
0.377801
0.422806
0.404124
0.838553
0.593297
0.393777
0.392036
0.405567
0.666619
0.383941
0.4173
0.415461
0.706022
0.608928
0.588646
0.417156
0.409094
0.386471
0.44817
0.471221
0.53924
0.464182
0.622818
0.555979
0.607346
0.437485
0.460786
0.304846
0.448455
0.538236
0.378392
0.376537
0.40505
0.469107
0.432559
0.42281
0.422311
0.558732
0.565172
0.670262
0.718419
0.603816
0.603512
0.549899
0.485052
0.496527
0.45988
0.43703
0.453505
0.426616
0.441958
0.444358
0.429398
0.46411
0.524235
0.411746
0.384593
0.373939
0.379432
0.375369
0.410427
0.409509
0.400767
0.383652
0.390042
0.458673
0.469725
0.548376
0.418121
0.426475
0.375411
0.398571
0.388878
0.410586
0.418411
0.372756
0.368828
0.450012
0.429233
0.615487
0.408767
0.648916
0.421211
0.396615
0.401582
0.399165
0.443215
0.747166
0.379981
0.739844
0.398286
0.407315
0.420955
0.368076
0.424951
0.453194
0.373406
0.413794
0.467769
0.422481
0.42295
0.445329
0.406946
0.410949
0.5167
0.731274
0.443511
0.435326
0.447641
0.432739
0.54064
0.595718
0.611947
0.503715
0.521297
0.450016
0.544972
0.640182
0.401057
0.388426
0.395294
0.374395
0.397541
0.637166
0.3881
0.391946
0.423893
0.793757
0.802825
0.627513
0.759364
0.507699
0.661147
0.836555
0.527901
0.756989
0.400465
0.372388
0.377385
0.511757
0.552954
0.379423
0.390483
0.394675
0.429174
0.380518
0.593649
0.400377
0.391855
0.371349
0.463606
0.666386
0.42666
0.420664
0.44921
0.412634
0.398252
0.485908
0.410102
0.398972
0.387228
0.383536
0.371202
0.381663
0.377854
0.395013
0.431626
0.372365
0.37888
0.36518
0.374634
0.466935
0.405867
0.383917
0.371573
0.374988
0.403113
0.378538
0.420327
0.610715
0.4351
0.448142
0.385247
0.377636
0.415959
0.414521
0.407448
0.392851
0.40265
0.384412
0.540823
0.39856
0.397831
0.577468
0.388403
0.374636
0.368661
0.38702
0.399344
0.384071
0.414871
0.451277
0.388168
0.383177
0.376166
0.394736
0.380123
0.385996
0.385404
0.384506
0.394834
0.379711
0.39039
0.398944
0.399532
0.561617
0.382951
0.369867
0.535611
0.371785
0.50684
0.601991
0.388678
0.41025
0.418817
0.379812
0.387326
0.497516
0.394179
0.387598
0.393588
0.414586
0.487359
0.394258
0.490528
0.377715
0.388673
0.437728
0.578651
0.46651
0.580289
0.422586
0.413751
0.433588
0.465695
0.428535
0.396281
0.3783
0.394616
0.398577
0.405582
0.553671
0.455903
0.455788
0.381161
0.436731
0.496958
0.381585
0.413531
0.36949
0.407292
0.411016
0.439781
0.697003
0.506552
0.810383
0.646083
0.405618
0.491582
0.450075
0.756243
0.38502
0.383232
0.383126
0.40398
0.370294
0.421593
0.382766
0.384438
0.379883
0.414518
0.702117
0.673676
0.394062
0.385832
0.407988
0.432357
0.682134
0.573403
0.562739
0.405049
0.52958
0.440064
0.366413
0.367645
0.385835
0.665108
0.417778
0.446539
0.39941
0.465621
0.669507
0.73874
0.394872
0.428284
0.686518
0.393839
0.396846
0.479196
0.39303
0.474871
0.43267
0.416621
0.408308
0.380716
0.395932
0.370013
0.601958
0.439043
0.380262
0.380579
0.426134
0.37861
0.373739
0.379354
0.38409
0.391161
0.602497
0.41997
0.406263
0.414146
0.513175
0.411116
0.40795
0.415444
0.515717
0.449962
0.49113
0.430787
0.793381
0.595914
0.436666
0.614309
0.516964
0.695654
0.373314
0.370015
0.383943
0.386576
0.455306
0.509455
0.390721
0.479166
0.847798
0.534676
0.370621
0.385988
0.376496
0.393733
0.3714
0.374031
0.474001
0.531583
0.431352
0.780524
0.448978
0.484256
0.436415
0.376471
0.364231
0.408718
0.454748
0.41086
0.420844
0.45046
0.479333
0.422379
0.386373
0.405866
0.36799
0.424129
0.463854
0.530625
0.669947
0.417174
0.386032
0.380381
0.407398
0.419012
0.547019
0.382103
0.430243
0.683435
0.517909
0.543887
0.58889
0.474261
0.470504
0.4181
0.420421
0.40079
0.381905
0.383216
0.410816
0.377316
0.377811
0.393767
0.818293
0.870995
0.441398
0.41223
0.426904
0.371043
0.699166
0.782619
0.490213
0.739625
0.490935
0.432438
0.449841
0.4409
0.464113
0.814752
0.457024
0.43446
0.604132
0.689113
0.392943
0.468435
0.384423
0.38155
0.467313
0.380474
0.385722
0.473766
0.435294
0.818469
0.622391
0.435268
0.691789
0.563561
0.461958
0.480027
0.698626
0.74639
0.466773
0.504496
0.513399
0.423526
0.39997
0.390383
0.394834
0.484051
0.397414
0.398647
0.822113
0.650318
0.495211
0.392614
0.448556
0.514731
0.401075
0.416692
0.415851
0.376631
0.418961
0.555056
0.517924
0.452158
0.42709
0.403039
0.385824
0.365883
0.687619
0.425359
0.398407
0.398093
0.422119
0.403952
0.376973
0.548195
0.408069
0.496223
0.381507
0.401133
0.559061
0.400904
0.47018
0.416364
0.437275
0.434898
0.657943
0.644899
0.498661
0.466063
0.488554
0.774344
0.603061
0.493775
0.437937
0.627167
0.706365
0.452559
0.788722
0.561498
0.615214
0.403374
0.556529
0.472033
0.415397
0.4706
0.417008
0.415558
0.547532
0.370922
0.412647
0.439021
0.422461
0.442049
0.421369
0.415247
0.398262
0.554145
0.637818
0.759486
0.450102
0.410627
0.564362
0.572336
0.445811
0.669069
0.389544
0.392301
0.4024
0.590885
0.541771
0.38679
0.390397
0.500921
0.737261
0.606803
0.395429
0.40139
0.446301
0.587903
0.412326
0.510471
0.806209
0.870746
0.75947
0.446909
0.380347
0.421012
0.495766
0.83095
0.458912
0.502075
0.484379
0.535123
0.366846
0.375462
0.373446
0.419307
0.442565
0.566481
0.442701
0.427482
0.45129
0.369626
0.564451
0.649959
0.700994
0.456321
0.532433
0.46547
0.517173
0.665895
0.598431
0.517804
0.564765
0.427546
0.481836
0.566097
0.550899
0.462758
0.610687
0.411303
0.461245
0.43588
0.391324
0.730745
0.426758
0.730077
0.37388
0.395346
0.438853
0.501119
0.441468
0.591583
0.612861
0.464684
0.412064
0.401362
0.47767
0.635653
0.777604
0.700947
0.37778
0.580696
0.398854
0.437974
0.566583
0.447934
0.676368
0.798932
0.373004
0.563616
0.436594
0.432759
0.404114
0.400924
0.41045
0.367039
0.622853
0.410824
0.552702
0.52453
0.691562
0.407501
0.371333
0.410296
0.411861
0.404018
0.805858
0.592293
0.367735
0.685936
0.375061
0.435825
0.483097
0.639072
0.481487
0.438367
0.523049
0.52881
0.548933
0.4835
0.440277
0.462453
0.605229
0.689611
0.373431
0.651863
0.802208
0.399574
0.409543
0.459926
0.434009
0.60574
0.381603
0.376468
0.731741
0.380875
0.626309
0.390088
0.386074
0.390382
0.402622
0.394138
0.39501
0.386576
0.372212
0.389978
0.38272
0.377223
0.395817
0.384452
0.545322
0.723156
0.39393
0.575162
0.38688
0.379956
0.378164
0.378598
0.576621
0.473967
0.551333
0.545944
0.44274
0.772378
0.422532
0.373485
0.387415
0.381009
0.385762
0.373513
0.367768
0.386469
0.396862
0.409245
0.761003
0.406739
0.396772
0.702182
0.648204
0.533842
0.675932
0.694873
0.48212
0.644616
0.566861
0.621511
0.533591
0.644494
0.592114
0.548989
0.76579
0.812622
0.783445
0.626961
0.467259
0.711762
0.854932
0.703355
0.457937
0.750346
0.822103
0.524673
0.638845
0.539464
0.402988
0.485545
0.541985
0.854347
0.794851
0.861313
0.431055
0.442259
0.694198
0.636765
0.616394
0.408144
0.406656
0.625404
0.592437
0.44241
0.395195
0.392234
0.788807
0.951067
0.797356
0.389954
0.415291
0.424754
0.451512
0.398607
0.474717
0.409112
0.642586
0.676889
0.446009
0.573886
0.76112
0.554235
0.685893
0.497466
0.459722
0.427272
0.643691
0.62199
0.470415
0.398662
0.407659
0.539653
0.521902
0.751735
0.371301
0.452366
0.49936
0.485933
0.441262
0.513426
0.450582
0.605466
0.443016
0.729574
0.75156
0.436387
0.390219
0.368445
0.860597
0.779348
0.851369
0.36978
0.759097
0.722397
0.390614
0.833641
0.787776
0.8584
0.373409
0.380531
0.385693
0.380116
0.386408
0.400478
0.406167
0.388744
0.381253
0.839951
0.749714
0.782227
0.697484
0.73475
0.816716
0.369728
0.371148
0.368668
0.389834
0.70257
0.381251
0.411227
0.418327
0.405849
0.404008
0.436175
0.428303
0.417433
0.405603
0.388421
0.362887
0.38816
0.371287
0.41205
0.385658
0.36762
0.37101
0.384505
0.389243
0.474157
0.501287
0.485501
0.420058
0.400934
0.399022
0.396025
0.363939
0.543041
0.385977
0.375474
0.384633
0.503612
0.467822
0.847502
0.828879
0.693934
0.682033
0.388634
0.453627
0.379339
0.407019
0.381683
0.372262
0.369339
0.366532
0.452516
0.603153
0.425313
0.575514
0.420038
0.37449
0.364852
0.379677
0.371547
0.377995
0.506244
0.380933
0.373836
0.392466
0.383235
0.529152
0.408763
0.376269
0.388331
0.402656
0.414195
0.430225
0.6384
0.4226
0.58629
0.46671
0.407135
0.508572
0.57898
0.472913
0.559691
0.725794
0.481604
0.465407
0.561029
0.606314
0.48829
0.440932
0.578319
0.797888
0.455941
0.509077
0.764541
0.451896
0.470614
0.443205
0.484086
0.684439
0.85123
0.675414
0.789386
0.649903
0.5135
0.496147
0.369472
0.405118
0.463515
0.377932
0.458786
0.385408
0.406878
0.460473
0.389574
0.397818
0.392409
0.396024
0.53033
0.486175
0.520113
0.582139
0.395311