/*--------------------------------*- C++ -*----------------------------------*\
| =========                 |                                                 |
| \\      /  F ield         | OpenFOAM: The Open Source CFD Toolbox           |
|  \\    /   O peration     | Version:  2506                                  |
|   \\  /    A nd           | Website:  www.openfoam.com                      |
|    \\/     M anipulation  |                                                 |
\*---------------------------------------------------------------------------*/
FoamFile
{
    version     2.0;
    format      ascii;
    arch        "LSB;label=32;scalar=64";
    class       volScalarField;
    location    "0.01535";
    object      p;
}
// * * * * * * * * * * * * * * * * * * * * * * * * * * * * * * * * * * * * * //

dimensions      [0 2 -2 0 0 0 0];

internalField   nonuniform List<scalar> 
3926
(
15.7933
29.4764
34.6288
60.9786
65.4876
53.5955
10.1866
-96.5745
-28.0394
-63.8142
-27.107
14.6856
27.6973
19.5098
33.4067
28.14
16.5116
30.084
44.213
20.6628
30.982
51.3936
57.1919
15.818
38.7793
58.3698
54.7163
61.8886
59.6364
14.9922
0.877122
38.3294
0.286864
-0.625419
-2.17903
-0.0696405
-32.0365
35.8033
37.8054
22.7112
47.9685
-82.2365
9.93273
26.1547
33.5607
-45.944
11.334
-8.34584
61.7458
42.7103
41.3654
-64.4788
74.676
-40.8652
38.4112
13.567
-37.4901
68.5503
34.2453
62.517
29.5939
-26.0857
-63.6099
52.7817
-31.8464
-19.3435
-25.1249
-23.4671
-20.4211
-15.9056
-48.7253
31.094
-20.0116
25.1927
1.006
71.7966
4.41274
58.5887
51.2791
34.2716
65.586
41.8702
-14.4563
-49.7941
21.1708
12.896
21.7479
23.4286
-33.2292
34.9057
33.6336
44.7436
34.1804
7.57864
22.9969
-69.5353
13.9697
-2.30655
71.485
-3.9922
-15.0494
45.317
11.0827
46.5515
11.7987
28.4718
39.8527
20.3611
35.9162
26.6755
38.0262
40.8004
45.2626
43.1446
31.1554
74.2847
60.2884
28.5365
26.9699
52.7885
23.6982
24.5739
33.8595
36.8938
34.1347
36.78
-22.4551
40.6969
3.84298
31.5809
29.9616
21.8771
13.7806
7.84909
61.2827
54.8948
50.9147
18.4851
43.6258
62.8241
18.6885
33.1864
55.141
54.3139
37.7186
62.5436
56.8152
44.3112
44.5436
46.064
55.9965
53.1516
50.3917
61.2122
59.4798
53.553
44.5714
58.6375
63.3823
64.1933
-1.32833
36.2031
44.8464
74.1609
60.0793
47.2244
37.797
29.9571
16.4125
57.2141
-49.9296
0.124973
30.9549
35.6378
20.0381
-5.75314
41.9708
67.942
50.0464
30.1461
75.0388
20.586
73.1763
17.0433
26.571
22.0683
5.03639
41.6933
48.9474
47.4504
59.1898
37.5226
59.2596
27.9351
36.1747
31.2618
17.0784
43.8068
19.4051
24.0845
53.6148
-7.99086
66.9627
25.8395
32.4272
46.6472
38.0417
75.4259
17.5065
26.9084
28.5728
34.6413
57.212
-0.243384
33.0017
68.0867
37.246
51.9472
45.1325
48.6291
16.5226
-6.80609
9.25811
-23.3982
-2.236
72.0233
67.3217
25.4547
29.655
0.772956
12.2971
66.5793
10.7957
33.0185
6.14743
58.566
-3.46154
62.899
-41.5447
13.8709
-29.5363
14.6495
5.8504
72.3911
26.3778
36.7136
59.7113
20.8445
31.6894
-110.147
38.6291
64.3391
-58.35
4.77176
8.07226
75.8725
-36.7575
5.49234
17.1082
-11.5035
24.3789
58.9287
44.9101
73.1468
67.1914
-3.0907
24.1002
54.7215
55.4033
-25.7596
62.1266
-46.4646
22.162
-6.9747
25.8371
31.4152
29.8389
17.3026
36.0468
28.994
26.029
-32.2901
17.6958
44.7912
-11.6255
-18.2107
-10.8932
-24.2523
-29.4983
10.1388
42.5437
30.252
41.86
-22.5611
27.1009
59.9595
23.6481
21.7845
25.059
74.732
-62.0054
48.4227
45.555
42.9855
37.3573
-21.3878
-57.149
-5.69115
33.5985
10.6422
-45.8217
4.75256
65.2901
24.0364
-5.90523
-3.05343
48.3439
24.9539
52.0099
-7.13677
-19.443
27.5317
17.6215
69.4191
58.5788
37.2768
-25.3208
68.7103
-43.7019
12.4112
64.9243
39.4996
26.2432
30.7239
24.1198
29.0855
45.7766
74.1005
73.7067
75.2442
73.1517
75.8701
-7.45784
29.2606
28.7881
23.1676
76.0405
68.8283
62.7214
76.9885
57.1814
73.9067
74.0567
74.8864
-21.6662
-24.8887
-20.7556
-26.4297
-2.20147
28.5744
28.5452
26.5955
-11.4639
-9.17446
-30.3076
26.5417
-1.07408
28.6766
16.6793
11.4153
10.7019
28.7887
52.1706
38.9832
-22.8145
29.6091
62.2893
39.0578
69.4147
53.0165
31.763
-9.04025
55.843
64.9285
29.8428
26.7751
5.38404
-13.9796
-8.34722
-5.11374
-45.6883
25.5511
-53.2129
-1.48216
13.8361
-4.09826
36.7944
28.2009
51.9322
24.7976
20.2605
2.87313
40.3157
25.4182
50.3098
55.9513
37.513
30.6871
-5.88972
24.2784
37.2952
-66.2414
60.5675
60.5759
37.0734
49.0398
34.0015
-25.3038
43.733
26.6848
33.0338
16.6224
19.4817
38.7959
52.0847
25.597
49.2622
28.5954
21.4852
21.9466
56.8928
20.88
-11.95
2.96931
32.1602
34.8603
57.3064
21.8178
-21.962
34.3132
38.0044
-67.1023
70.3669
18.7362
20.1475
-45.419
60.3181
-22.9026
26.0896
27.0974
-64.3578
9.58234
21.0475
44.9801
20.3484
-16.039
-12.7884
-5.1885
-4.18565
-0.00464261
18.011
61.4768
19.6573
36.7032
10.2003
39.2252
16.4671
-76.4868
6.35507
10.5243
13.0838
15.4729
25.4539
24.7983
7.62526
6.92067
8.25495
20.0417
26.4717
24.5946
32.5167
-8.48495
30.7632
46.0382
24.9022
0.436298
-141.241
56.8127
15.71
-60.8605
51.1604
45.2197
-48.5668
-36.3292
-7.10824
-12.7316
-13.7394
-6.3856
1.49183
-18.3275
3.63096
-29.046
31.0512
35.6677
34.6698
-28.0501
39.7083
-3.40259
32.3536
-18.9483
63.3666
-60.6976
-50.7986
58.2723
57.1472
55.3231
33.41
57.6641
-171.814
-24.8191
-51.6101
47.1209
72.3093
40.143
52.7199
57.5241
46.8754
74.5897
72.7172
41.7858
32.1789
36.1773
30.3874
27.0535
-23.3694
-31.2706
-58.3221
-88.1547
5.88176
7.1266
5.36021
-27.4601
-55.5721
-63.6839
-58.9252
-36.9648
-23.9606
-0.533275
-1.78191
0.153794
-1.08468
-6.35484
-10.6925
26.8865
29.0433
70.4688
26.5526
42.3453
49.9586
48.2528
-3.86741
60.9022
21.8289
24.0639
11.0529
11.1252
-43.3065
-30.1451
-17.9215
-53.6723
41.0817
33.7147
28.088
24.9454
26.7083
-23.1756
7.56559
14.0016
-44.0768
22.8269
70.4185
6.72549
32.2985
38.1797
53.0177
69.4236
41.21
34.8061
33.1601
32.3167
66.2293
-0.0396745
-41.935
-33.0793
39.7001
32.7021
4.27755
26.008
12.0932
66.0192
39.9156
37.6743
37.8904
38.0816
28.9496
25.9321
41.9984
44.5799
51.8765
55.0124
62.4765
47.9924
67.9381
43.9979
35.2491
37.3174
28.433
20.6758
28.4269
28.4501
27.5233
23.8678
20.2207
7.686
-33.1882
-27.5428
-18.4637
30.9196
24.6699
22.6666
35.3831
35.4792
30.552
24.7926
59.7218
27.3942
36.6138
-13.8929
-11.6081
-25.6227
-5.63686
18.2403
4.55799
55.3886
-21.1065
46.3125
37.0245
52.2748
40.7385
49.1607
38.0391
34.8933
44.8158
53.721
30.7524
63.3346
6.76792
7.14204
4.51649
66.4511
68.7455
12.7022
13.3849
11.9745
62.0214
25.2528
28.807
-7.88676
35.209
8.73321
53.5062
30.572
28.0181
55.0777
13.9385
2.35095
22.5867
55.9524
51.0826
46.3423
43.7102
45.0735
56.2222
68.0538
64.9371
37.8126
38.2069
35.2816
26.3918
26.042
47.095
45.2118
34.6118
57.3412
50.5294
29.3269
30.492
31.0637
1.75067
15.6687
19.0842
15.7853
16.8887
34.689
24.8982
32.932
19.2872
13.4529
12.2454
10.1851
26.8278
27.1489
27.7984
28.1199
28.789
43.7822
38.8846
62.2288
66.697
62.9151
44.8037
47.1379
40.3039
43.9925
37.5789
34.5808
28.6818
28.8132
27.2705
51.4458
27.734
10.7137
14.5489
38.0951
25.8614
48.5851
13.7857
17.7313
24.7859
28.5634
24.1032
20.602
70.4486
19.2506
27.7937
27.2037
23.4509
25.9122
25.0813
25.9533
28.958
28.162
29.3294
28.0688
2.82064
2.34549
-41.7379
55.6542
-32.484
8.91729
-40.2603
8.30055
12.1107
38.6913
61.0865
38.2241
50.9579
8.03695
45.1561
-42.6047
28.5761
-35.2344
-36.1913
11.9738
35.0749
-19.977
72.5662
32.6988
34.708
55.1384
23.7904
-20.442
49.2263
53.8233
26.8622
30.3879
32.8256
29.5809
14.8514
24.7036
21.8671
26.7275
28.912
-1.66431
-4.07045
12.0965
-3.36331
30.6075
42.0925
48.1488
12.4657
6.00158
-20.7529
18.1769
30.7974
13.118
-49.161
-4.96591
15.425
50.2996
24.9213
-21.3993
23.7118
26.0902
23.3598
26.4153
27.9913
39.2281
15.478
37.9967
62.2026
68.2502
-41.0346
19.7388
38.6622
37.5862
1.60607
-91.5588
-18.2959
-37.6477
30.036
27.2758
-23.4356
77.6798
73.6528
37.9055
28.6702
12.7384
28.4094
10.3331
39.4184
25.2343
-37.5467
31.3832
24.462
24.6939
-11.5036
17.6476
-1.35711
-10.9102
16.4911
-73.8498
-4.35274
39.5238
-1.13843
49.8963
40.5447
72.6707
68.4194
35.2733
47.4264
34.3738
28.7096
21.7206
47.8035
51.0958
42.2751
36.8908
-33.5765
52.966
72.7952
60.6254
71.0013
9.89852
38.5841
26.7392
30.0998
42.2797
-19.1318
45.8127
69.2652
27.3156
38.0957
-4.4162
-2.54005
48.2776
-30.4346
53.3605
25.7375
21.0039
23.6819
27.8206
10.7115
24.2731
-29.8694
27.4551
-11.9882
44.0201
28.9085
-4.94675
49.8961
70.194
31.2025
56.1577
-15.0542
21.7379
10.0761
26.5486
-59.3141
3.07619
27.2838
-118.086
27.4675
23.9558
22.2176
37.9281
-51.0931
69.5942
-129.836
8.76141
14.0069
33.1545
3.45632
64.7979
26.6248
36.4094
8.72265
70.1817
58.2511
-1.57279
2.47403
46.2331
-92.099
-25.6913
14.5746
3.9447
6.45821
28.6783
-34.8066
-155.349
22.4169
28.6576
21.7472
30.6622
35.9548
21.0044
47.5116
29.2593
-13.3096
46.9026
-98.4097
-4.37204
31.973
41.9853
41.9273
50.2335
51.0405
-11.4396
-0.500386
29.2997
-12.338
-14.5701
-28.6419
17.5934
46.7195
60.33
13.0925
-30.7583
37.2112
60.834
-40.466
-4.78368
48.93
34.1905
-7.41418
12.1373
-15.9172
-14.6688
-4.0097
41.4723
5.09338
41.4549
1.90508
-3.3452
3.80467
11.7125
25.9283
34.2298
21.1443
3.75383
50.466
-38.0961
-47.9963
32.5916
20.7707
38.5835
13.8462
19.7974
-7.19845
5.66882
19.1435
25.1463
6.35221
-17.5919
10.2538
-0.569365
20.472
9.49258
-66.0435
-0.0255102
12.3561
11.4375
-1.63163
-3.05554
-13.5098
-5.53691
-15.4169
41.5664
29.0378
5.82712
-42.136
-12.3926
56.3009
-161.461
-84.28
-15.7218
3.88401
31.8315
14.9358
36.7605
32.6039
26.7913
40.1619
31.0194
46.5006
65.9353
37.7994
42.6198
55.0657
37.5206
34.0309
33.0438
40.8948
37.688
22.6379
-42.5351
22.8224
8.16334
35.6947
-47.9282
45.3425
56.8331
1.15492
76.232
68.9581
-32.8933
19.4112
50.5671
68.7233
63.0987
6.08077
65.9994
43.5149
-46.761
21.3149
26.0872
16.5043
21.6772
25.1614
-44.5251
6.64661
21.8115
68.8861
-12.3942
-49.5787
19.1767
37.1093
30.0483
71.4577
-6.7372
58.7831
19.2457
32.1627
31.8822
35.5216
30.5475
29.8973
30.5452
37.2995
36.6139
18.548
55.9733
16.8502
24.1321
35.5154
32.4694
29.7371
15.456
28.3284
36.0671
30.8146
30.9331
29.705
23.3867
53.2226
74.9531
21.4709
68.4549
22.3787
29.156
29.5426
26.9656
29.8513
23.8482
-33.5975
-35.0016
-59.1766
9.55605
37.5237
-19.037
-21.8354
16.3839
51.7367
8.57169
1.17512
-24.1549
19.4857
34.2552
0.754809
10.0052
58.9013
-19.4215
-11.9439
-25.8122
-3.45344
-12.5954
12.1797
46.8435
69.948
-13.7317
12.4624
53.1312
75.5728
72.8998
29.7841
-38.9555
16.044
-50.1346
57.0563
43.2017
72.816
29.9104
75.1131
74.7304
-14.6412
-20.9303
73.0711
73.2182
60.8621
31.9412
-151.687
-7.71844
-18.7132
56.1312
20.4682
37.6274
-41.5738
-173.983
74.355
74.7246
66.2483
57.3775
66.5501
69.1208
50.2567
-48.389
-87.1135
67.3772
57.2652
60.0478
38.7952
43.1435
1.9274
22.2051
69.3784
67.7221
47.4091
37.5954
77.2515
72.4083
72.3298
67.2592
0.755691
37.0688
40.8344
41.5708
35.6154
20.3857
24.4214
-26.672
-22.0236
-26.1188
-8.82511
28.8608
-39.2877
-35.1795
-41.9929
-30.2855
69.9779
20.1849
-87.1947
-54.5454
-151.315
23.5617
-17.8764
28.824
-21.321
-17.4966
-16.0845
-19.4419
-2.65281
-9.2011
-3.31408
-27.1079
-42.4552
0.269364
-80.2412
-8.80416
-42.4004
-51.881
22.1393
9.5831
9.2272
11.6961
0.0612076
2.79028
26.2989
23.4229
25.202
5.08611
18.5771
35.7923
17.9568
35.3729
54.8961
22.2434
23.9062
25.8737
26.4789
4.79204
34.0557
43.1904
9.53406
9.28238
26.3078
-5.70555
55.6157
-9.61382
1.36501
-0.82727
3.70879
-20.1532
50.0147
65.2757
27.0896
44.2631
36.2096
25.6362
46.9913
50.5817
25.3103
32.1117
60.4471
73.7835
30.1148
67.8948
46.6324
49.903
55.0967
42.4007
-33.3501
31.3796
49.7442
48.3245
46.1084
32.3067
17.3249
43.0611
71.6308
45.197
37.9307
42.5014
37.0934
17.9306
14.0413
47.8278
41.4005
-9.55052
-13.221
29.4083
-26.9383
73.0632
48.712
71.4076
63.9245
-183.905
7.64581
30.7861
0.63432
35.7667
62.4782
26.0918
39.3012
31.3628
27.1242
27.1781
28.0095
44.497
60.7078
35.6051
33.3366
27.3317
57.0405
50.768
60.7826
35.5553
36.5454
8.87919
14.3703
19.3661
37.1204
14.7047
-82.3486
-49.8477
-20.2525
-18.1793
14.6366
28.4022
27.3935
29.3024
11.2517
-1.28406
-22.2994
15.9443
-22.1615
-37.4659
-17.8091
-41.4177
19.8505
39.4671
24.4309
35.9754
26.464
17.3295
28.6907
12.4038
16.981
26.4954
28.7698
22.7943
36.6665
-24.0108
-53.8925
1.28627
21.9048
22.9923
30.0552
31.4175
35.9986
11.8342
55.941
74.7128
19.9682
42.2355
58.3553
31.3194
32.5058
11.8994
31.7334
61.2697
11.4467
14.3991
33.9608
30.8493
42.3714
65.341
43.2475
-8.92442
17.9842
49.7054
41.9404
17.6344
51.9074
-12.3284
26.211
25.2901
68.0451
7.85767
25.5131
25.2632
43.5203
48.016
51.3509
25.2347
16.4151
32.7188
72.9626
-9.09208
38.3644
-14.7558
42.0952
-1.06011
-78.2559
26.4481
25.38
24.5096
23.1493
26.7939
32.4719
30.7944
37.9305
27.6925
39.0429
-28.2917
2.1988
-15.7409
23.1756
-19.9592
5.77983
-2.80973
-8.4664
-21.976
-18.4578
13.4844
24.2263
-60.2993
41.5491
-22.7996
57.5024
49.0203
-29.1205
55.7187
61.2654
62.2691
61.4427
53.1378
44.5667
42.4086
31.7997
26.4588
75.643
66.9438
29.5531
49.9296
-52.55
51.1547
50.674
59.6828
74.065
15.8904
13.6203
-41.4382
44.9076
29.4761
7.44112
29.5981
33.9646
-7.99592
33.7129
12.5785
23.7585
23.7298
20.4037
-43.2019
11.8045
38.2827
-7.01652
53.2995
-29.3223
35.597
-57.919
-64.418
29.7493
16.1379
33.0688
21.7207
71.6441
43.7367
70.722
20.5755
36.1668
-45.8399
18.389
-15.6496
-19.8459
13.351
-8.31887
21.6201
29.3304
25.375
27.2555
23.406
45.6829
19.0135
67.5947
26.7872
15.6187
65.8914
66.7093
-63.5794
29.2851
-10.4371
-16.9253
28.1206
15.0465
-4.65198
52.1123
47.7795
23.9284
39.0315
33.1632
25.9673
12.9603
-3.25059
4.96745
-1.96892
0.250718
29.9043
38.4612
55.3271
45.3447
59.5006
3.79071
21.4284
23.9784
17.0499
10.9168
15.6451
66.0657
66.317
67.8947
69.7422
68.8881
72.138
55.6436
11.1999
12.9853
21.9237
20.2476
34.3783
23.9415
37.8963
37.1025
43.0573
-11.927
19.3328
-2.3163
-5.60315
-18.6593
29.8605
36.6763
50.1059
46.4651
49.066
53.554
56.5022
75.0911
38.3381
51.994
39.3228
62.7023
69.8899
31.2631
22.4173
72.7112
3.96359
74.3606
42.7406
55.2175
68.9304
61.4751
37.5255
36.3539
43.2856
66.017
70.8355
41.5872
-32.4015
22.9851
62.6171
-34.8359
-10.668
75.3458
72.9158
70.9256
75.5176
30.7702
32.1019
35.9283
36.2711
75.1269
-40.6347
1.35208
-27.159
-48.0299
-7.37761
15.6765
-10.7188
-15.5391
-26.3577
22.7305
17.5492
56.7361
31.6932
37.0498
38.2723
42.9441
36.7888
32.6678
-17.4138
5.97844
7.56452
11.9593
8.37897
-38.8849
70.1181
70.8923
70.8395
70.333
70.4904
68.1403
4.75027
28.1616
13.5101
-20.0775
22.9418
22.6636
-13.1937
47.9401
12.1856
-37.6667
17.6148
-76.9548
-32.9024
-50.9363
-60.6608
56.5863
-89.3119
52.4089
71.5285
40.1203
-97.9097
-29.5078
14.0643
-5.10432
-2.73277
-28.1871
31.609
-27.7439
-33.2548
68.5373
-22.4496
-42.5964
-35.3467
59.1218
71.8646
3.60985
70.7452
66.8038
67.5517
-32.7318
64.1656
33.5959
-20.91
-21.7216
-22.0896
43.0569
28.4742
24.2265
53.6879
66.5186
62.8703
58.5053
73.5793
72.9063
74.4013
73.0223
-147.081
74.281
33.0076
-31.2983
46.6238
-50.7005
-58.667
48.0275
68.2011
47.8449
-40.3707
-22.1825
-14.4799
31.5031
44.6804
38.2077
23.5212
41.7146
-20.8848
75.2357
75.8889
49.7287
-38.6424
-50.9491
-68.8313
73.8026
36.7542
-77.0941
-58.4133
51.6388
54.9515
28.8698
56.8161
29.0624
47.6145
30.0364
32.1766
24.7049
45.8902
42.3214
69.0042
73.3613
48.4775
23.2922
17.9262
9.07436
47.928
53.569
35.9836
34.0655
23.3804
19.3929
41.3047
65.7999
-42.5861
54.7091
63.1874
65.9362
53.3623
10.7616
35.2531
4.22147
6.16395
12.1533
15.3797
7.1419
25.2913
26.4793
17.9357
19.2747
26.1073
45.2371
35.4851
30.9249
38.1234
-125.281
31.4282
46.9924
23.1274
52.6296
73.8616
67.8138
-6.93037
69.6304
28.1721
29.0811
68.6987
72.2981
70.5192
66.8122
60.9386
71.9198
76.7301
67.3761
75.843
51.3902
-16.7699
-22.7919
-40.3061
36.3662
-17.7649
26.9873
26.8692
24.7241
24.9248
23.708
-11.9653
15.1465
-4.78904
52.7466
24.4796
65.3827
67.7539
55.2133
73.6478
75.0501
68.742
70.7553
-19.442
72.8854
-9.2196
6.20021
-62.0835
27.1569
-9.28288
-15.1343
34.0172
22.8087
22.0269
1.5193
5.95436
7.97534
-28.676
8.33177
17.5656
66.8385
1.53588
43.6794
6.65156
41.3949
27.8354
44.4261
32.0853
-11.5734
-43.6909
30.7815
35.889
33.3717
34.5225
29.1372
32.5087
30.7027
26.5639
55.295
39.5884
36.0264
2.27457
28.4324
20.6702
28.2923
35.7028
-112.314
55.6414
48.7766
29.1408
25.8463
17.5588
3.59624
14.8357
-1.64285
23.4316
24.6601
29.5195
22.884
21.9055
32.3832
26.0803
29.9405
27.2494
-31.6844
67.5841
30.9434
32.044
-53.2669
25.9101
44.9609
19.4588
-15.8176
-22.1142
-18.0032
71.1707
-75.3262
-69.3596
48.3351
-45.1525
-46.3836
12.9059
18.3868
22.288
2.75007
-35.3067
11.2587
-32.1476
32.5453
27.5144
46.9773
49.9658
23.7539
23.5689
-42.9069
21.0089
-6.01414
10.6534
3.18435
1.71855
2.80765
-1.58508
16.3925
-10.7122
-169.186
8.90956
29.1838
49.8751
48.6993
26.5495
33.1645
27.4611
61.7733
35.5505
26.5918
30.3256
32.4767
32.8398
31.2371
31.7552
39.0877
68.2204
48.4053
65.3126
1.85144
42.7571
72.9045
61.9135
65.0984
68.9198
57.1425
-18.5217
28.8501
39.3896
14.4538
-37.941
17.9925
39.3774
21.4962
36.4708
28.9611
40.6986
10.2092
-1.09247
6.85158
8.19631
3.27859
3.07499
26.1805
15.6088
28.4754
28.7593
-29.893
12.9571
-46.4497
-12.8197
39.0505
30.5778
39.0216
41.3516
58.5451
-26.0971
61.8444
-31.7313
-5.90458
-0.374253
-11.3153
-48.6701
-4.59281
22.995
-24.2637
-10.2494
-50.9785
-58.6319
-10.7588
-74.6953
-56.8358
-65.0069
-45.3844
28.8133
-8.84858
17.2552
25.8144
36.9123
29.5526
68.6275
20.4405
72.1145
46.1379
66.9249
59.2186
33.7978
31.0371
38.9883
21.5237
29.6025
-6.16886
-23.1825
70.1912
29.2653
-71.6606
-56.8528
-11.4323
-9.09482
14.6922
11.9517
71.0066
-95.8309
64.2482
21.9239
29.786
26.9691
22.9684
38.1502
23.4672
28.7659
46.2462
31.983
52.7068
62.4982
48.9055
43.3088
44.011
43.545
67.6611
31.1038
-100.364
-66.7509
53.9074
-7.75684
48.7269
64.856
64.4638
76.0956
10.642
21.1792
53.0927
13.908
-1.84343
-2.41866
-4.96599
-4.96703
-100.528
-58.0852
18.1892
-31.5303
76.8702
75.159
57.8
36.9169
2.97439
-4.69303
27.592
16.9105
22.4331
23.7393
-45.0228
-4.00244
2.12068
6.52738
13.2696
-16.0036
-32.7111
56.994
64.9158
-34.3295
63.1821
-28.4351
66.8859
14.0872
27.2806
-15.6114
18.7781
21.7341
57.2832
72.4332
13.1512
48.8279
21.7169
-8.52837
4.11834
56.2305
17.1293
32.685
17.3707
6.94562
28.1795
-6.47579
-20.7132
-14.2412
-85.6933
14.0775
-65.0471
-20.9901
-33.1164
-8.78184
20.873
32.5168
24.3029
31.2773
25.7145
24.1996
3.87379
24.4555
16.0598
23.7498
18.2595
54.4614
29.5508
28.6359
74.5142
35.12
59.0892
72.0265
59.214
72.2128
55.9758
70.8595
23.948
61.1912
69.7001
64.8682
57.7327
-152.501
2.07152
50.9184
24.526
21.1887
34.163
20.4302
25.7861
34.0225
12.0958
24.9593
-30.627
35.2295
21.5579
69.0164
56.7096
-21.4486
48.1509
26.0089
73.7374
39.8906
59.2874
66.6074
64.8674
25.6007
-17.0602
6.53985
-0.795532
23.1098
5.23663
28.2102
23.3768
29.2893
4.81958
63.9149
62.6265
-1.2042
32.5424
31.815
42.995
40.0654
38.1458
33.1968
39.4248
-38.9859
-32.7023
-35.8021
-42.636
22.5612
3.10872
1.0114
-87.2489
3.0992
62.1807
73.4611
58.3055
28.5515
60.8657
60.6011
27.0294
30.4014
6.78287
33.6899
14.6982
23.548
22.251
38.7466
39.9193
50.0504
42.2519
41.8629
39.5769
39.4086
38.0574
-1.7039
-19.8221
-14.5481
66.4331
64.3171
46.5299
63.7058
60.2169
33.1453
46.9708
26.2897
7.48256
27.2979
51.5496
39.1257
51.4488
43.7442
48.1338
32.0533
38.8179
22.7716
22.4293
27.2354
22.8914
5.64564
22.8198
77.5329
22.041
32.6624
33.4315
59.9928
-39.2316
-15.3763
-20.6602
16.9145
-8.25633
16.3316
4.55736
5.07013
9.09079
-0.639561
-56.3001
-34.2882
-10.5626
32.0807
-38.5549
25.4271
45.043
39.0039
-66.7981
42.8433
45.386
-0.765795
-84.9073
-189.591
-16.8966
62.7156
-15.4707
31.6174
6.77838
-18.4038
29.5257
19.9204
25.317
-37.8522
18.8745
34.6266
34.212
38.9126
21.6134
73.0292
-50.3551
-6.98985
48.5611
45.1941
33.4505
35.2168
15.9177
65.735
51.8388
70.4002
26.5989
30.7324
14.1542
0.96613
1.24483
-43.77
-0.825791
62.6608
-31.734
-46.7717
70.7104
-43.2221
73.8099
-156.509
48.3029
40.6284
-53.3728
-43.7932
75.402
-40.8587
-16.1259
-22.7886
49.5946
54.2024
29.8776
-0.456117
8.86902
-1.21191
-2.22256
6.80326
33.9654
-15.0902
64.3767
27.6144
65.5603
14.3237
76.5778
-5.23505
67.4146
64.0053
0.530706
-16.7344
59.6108
69.3797
65.433
29.8783
32.9471
32.1544
34.388
32.3061
41.6748
32.7978
48.363
54.9272
-30.5809
44.9116
45.8988
-30.0946
4.70191
11.0885
7.82352
-48.2344
-10.7314
11.306
17.6259
14.1617
45.0189
14.9909
17.3819
21.6589
-37.9599
-35.6603
-24.4327
2.33725
0.63834
1.29227
-6.86841
15.9981
70.2098
28.6878
73.6358
73.9173
74.0398
8.16067
25.5478
73.7077
11.9844
61.2348
27.1905
30.5656
41.2816
1.05174
9.74529
7.46329
13.2391
6.06799
-6.1874
2.36114
-14.3635
-27.7319
-9.49651
64.6609
60.3129
56.9606
60.0482
23.4796
21.4311
29.1393
48.5692
36.722
39.5246
19.045
-12.4223
23.1393
21.1024
20.8282
26.8185
27.677
45.2032
42.854
40.1248
32.2026
33.0335
44.4173
36.6292
55.4458
45.2838
1.87236
3.44585
7.04738
3.4644
1.13673
0.17447
26.5196
3.88987
9.03824
5.42005
35.0168
40.0062
21.9404
36.854
30.9376
30.9522
33.5251
56.5733
-35.8042
29.729
-31.9196
21.3513
-3.20973
-4.10972
25.2631
-5.02872
-8.24319
29.7299
16.1223
16.8614
-2.6116
-3.43774
-7.49361
0.987662
-0.213609
49.7037
-3.39064
40.5998
36.012
34.4166
47.5873
62.3307
49.2856
67.7538
62.6399
45.4809
44.1576
61.1245
46.39
40.7126
36.9942
39.0003
23.1627
32.7284
-11.0894
28.7394
29.5852
46.538
-44.3776
-65.1166
-21.6834
25.724
57.1015
62.4152
-38.5201
56.9613
66.7858
11.0344
19.1262
18.5072
2.91798
-16.4041
8.11511
6.9944
36.188
28.7288
11.2012
8.71155
32.5217
22.075
22.0465
13.2983
-34.4733
35.2928
38.2949
51.1982
44.9064
37.8419
48.9592
44.9752
37.7141
32.4619
33.6016
27.6758
31.6143
27.3975
22.0342
2.92144
28.2479
31.568
26.1535
31.3179
21.1249
39.9552
27.0736
23.585
25.8784
10.4286
20.1462
37.1578
64.7557
51.6091
52.0072
28.5388
21.2868
35.5092
41.0195
36.7
36.9461
40.566
24.6881
17.748
28.2399
23.4325
-18.5151
35.8702
4.68566
23.7311
7.07969
32.3062
21.0614
3.30358
-9.4963
-2.00538
0.705638
15.3205
24.3403
29.2867
29.692
32.69
29.0811
35.1901
32.3369
33.9253
38.1016
38.1917
37.2248
35.9718
24.5506
15.5601
19.0344
4.86215
23.0701
9.50787
6.2449
5.05014
28.2662
34.8994
17.9308
31.5114
29.2465
31.779
32.8792
57.6103
37.0651
60.437
29.638
32.0712
2.37426
51.7611
44.3235
63.2526
46.6045
20.7167
16.0001
3.01025
1.0051
30.9008
28.9612
33.2708
34.6181
44.4698
69.3922
7.3804
50.5652
20.5132
55.3006
48.8509
30.614
29.4704
25.9188
31.462
24.2718
19.3138
-38.064
-3.62542
-146.493
68.6217
43.1476
-3.47877
16.2779
47.1366
15.5339
31.7368
32.8847
43.3597
25.133
48.6796
31.0771
31.6095
33.8715
45.9859
64.8493
72.6906
33.5481
32.0233
36.2487
18.7059
63.8295
41.2623
45.8031
6.08347
33.6376
-7.65873
8.24452
0.200403
1.61225
-31.5701
13.3372
-0.419264
5.33974
23.6169
55.9168
74.551
-0.757714
-2.23941
-31.3998
23.5665
37.3924
8.01884
35.1942
57.6409
23.7505
29.7898
18.287
17.9872
35.5746
15.4847
-17.3674
13.4228
33.1253
32.3286
26.7702
31.4054
22.7699
29.5601
29.5583
37.3572
37.8002
40.6617
37.9672
-4.31787
62.8808
41.7668
42.4216
44.6008
14.5734
14.6824
55.2932
-2.13553
7.84796
32.4068
5.74301
-23.3374
-11.2866
-44.4288
29.6787
23.4189
20.2494
23.8198
47.4925
11.7508
18.5375
23.8262
-19.1277
-15.8912
27.5002
20.577
22.2257
29.3639
26.9921
30.892
37.6022
67.4086
31.3314
-53.1542
27.4938
2.22446
20.9609
-0.974986
1.64101
-2.16813
-9.4208
0.102124
4.63492
-9.72193
-6.92668
-0.416384
23.8323
13.7887
2.35375
2.92184
53.225
67.223
49.6416
39.8658
32.1679
29.6702
40.49
47.6054
41.4197
29.5231
50.2113
67.3386
60.0266
11.5965
-20.2055
-2.79548
3.311
2.20541
41.3105
24.5659
28.1298
22.6762
40.65
30.1736
23.1032
4.59247
-45.4791
-64.2651
18.738
8.06021
47.3796
9.19147
-40.9774
-44.9107
2.75295
-40.6843
-12.291
-4.07591
-9.30211
-7.46918
-6.886
-114.022
-6.05582
-6.44676
-22.8348
-36.354
27.8284
1.01629
26.37
30.2507
62.3066
32.9138
30.4835
50.1082
34.3308
-69.6894
75.7612
28.8534
73.0926
68.6344
53.0641
31.6477
18.0026
-23.3376
1.99327
8.51013
-4.86515
41.4908
30.7011
28.1031
29.1143
58.1944
18.183
18.203
-84.9821
65.4082
-8.64809
13.4202
18.4979
-16.3811
15.0419
3.31704
4.21521
26.4924
47.4
-19.8169
2.95478
-10.0781
25.9736
17.2428
23.4294
24.7138
-34.4439
-5.98982
-3.73824
18.529
-4.60661
-4.15193
16.8849
-3.25159
-3.99124
5.96622
23.3592
14.5889
68.7958
32.6572
36.974
30.7561
49.3463
49.8814
3.94654
66.0957
-1.00855
49.7852
42.2476
-94.4389
77.4045
9.38157
3.36776
57.4215
5.7678
42.2
-30.9786
13.0208
-20.2312
22.442
38.4603
-4.87444
29.4129
23.183
16.2316
14.6366
2.33492
25.6781
37.0132
47.1063
76.053
47.5567
44.3315
42.914
37.0329
-12.9497
-21.6537
-45.993
8.93786
12.8458
-20.588
52.7748
17.8518
46.8787
25.5193
25.6884
35.4518
58.2236
61.5866
12.7894
28.2
44.6333
2.90268
71.3813
33.6835
37.8535
32.2054
24.6241
33.7803
-5.83433
7.49455
-36.6424
-68.0645
-1.17123
8.00493
-1.29741
15.2229
-10.3849
-11.6391
24
21.532
15.2575
25.8754
29.9995
30.3086
14.2063
34.7566
-4.7236
14.2584
15.84
25.6732
21.5953
57.5185
60.5087
74.4189
47.8222
58.5387
71.5636
50.6667
68.4749
56.3598
61.1544
67.8322
49.4831
75.4239
66.8253
68.0148
4.51468
59.9662
35.9406
44.0966
38.6637
28.6556
-37.5579
27.2464
-40.1485
22.3408
-4.20333
50.7209
57.3513
51.924
70.5005
64.8709
28.645
36.4278
38.4759
-12.8985
73.1813
-56.9765
-36.8453
22.3406
-17.5448
38.4524
57.6303
-23.5503
59.038
-26.6848
-39.1601
27.7108
-20.6727
47.941
48.5293
38.074
8.96492
21.2105
0.442036
-31.7508
8.07755
-20.803
64.8444
-144.637
13.3022
0.313092
11.6454
8.1293
41.0335
-79.5185
-22.4787
28.0236
9.9608
29.7322
29.3585
-5.95681
73.4236
72.6916
36.6599
67.4047
-17.1886
66.4937
-15.3162
-0.336422
56.5888
69.457
45.5772
0.774381
66.166
-66.6356
-2.17243
-4.74182
56.2896
0.253048
53.7995
29.5805
27.1935
45.9351
21.0924
74.5197
37.6572
36.822
37.564
41.2641
39.8293
19.2947
20.0368
18.7785
17.9814
21.501
18.4554
32.6215
30.6427
-21.6885
-35.9262
31.1109
69.8379
22.4904
15.2795
14.2198
18.4038
-3.26652
-4.08178
-9.57704
-17.6085
3.25813
73.4579
38.8344
28.2343
33.977
25.5016
22.6989
23.2397
4.80283
5.02663
2.69494
-2.75615
-53.7118
26.4588
23.1125
47.4759
56.3502
-12.1151
-19.8245
-33.3589
-16.5276
-25.7003
-22.5267
-25.806
46.6624
37.8302
69.817
60.392
22.7582
0.127312
-56.7898
51.9492
58.1519
49.2848
73.3316
74.5859
18.0659
74.3747
38.818
49.3824
50.2776
21.5197
-3.39912
-13.2947
60.7851
-88.3723
-90.652
-52.8747
-7.59061
-2.83183
-27.6095
-28.496
-24.2808
16.3333
41.448
71.8474
73.7509
10.2155
18.3926
21.408
-142.418
-63.4867
-93.788
25.4296
18.768
18.105
51.9592
36.4512
63.2908
40.2234
71.9665
75.7513
77.3992
77.2175
-47.8432
76.3526
73.6848
66.614
39.6592
49.9075
72.3665
68.7715
53.4055
42.5875
38.7288
0.600677
66.3831
-11.9583
29.6359
30.0458
61.8326
59.1627
38.6391
56.4463
45.9228
37.3691
-6.42351
53.578
32.3327
45.0038
24.6991
21.8558
-49.7153
-57.314
-36.2706
24.249
-38.1535
-35.716
34.2961
-85.5661
-100.744
-58.4431
19.5642
28.1846
26.5206
27.9866
26.2608
40.8838
42.4337
34.1349
31.3892
-57.8372
-3.08635
-35.9165
-18.2074
15.1469
-39.7332
26.6907
27.5077
24.436
33.7956
48.3753
30.863
44.7196
23.8096
34.2319
18.8584
25.6526
38.7656
26.0766
31.1051
36.4611
75.5602
32.2471
27.6746
29.6976
30.2184
23.8945
20.5971
33.598
33.9057
65.635
50.4569
38.0116
43.3883
38.5936
22.2435
19.8806
7.44487
-16.533
5.75926
30.602
30.8622
32.8697
58.3872
-70.9481
-114.2
-46.8264
-30.8326
13.3869
-8.68407
0.824026
36.0951
31.0863
28.4732
24.8193
24.3084
35.8417
51.7337
19.1264
17.5579
29.5926
29.5883
22.9364
33.8845
29.3786
29.4862
43.7285
27.6788
24.0925
22.5868
34.7156
67.2233
37.4803
31.1809
34.111
38.847
45.3427
41.1433
71.4417
46.7655
44.8003
52.2503
27.3896
59.0358
68.7526
63.344
50.6399
-3.03122
-5.9686
-10.2073
-16.9988
-28.263
-4.95937
-0.074713
-22.3058
-160.67
-0.0648707
-9.59596
-35.0578
-7.82485
-10.2353
-4.10598
-12.011
-30.3821
-87.071
-3.98227
-37.3641
43.9298
-9.21742
-7.90588
12.1974
9.72913
-5.76144
22.8967
-4.44794
6.4369
-0.146369
-10.0286
7.7261
6.23655
0.00165648
3.12023
-0.557405
-7.88795
-11.5445
-17.3303
28.631
30.6372
35.9943
30.1298
41.3116
32.3519
38.7705
28.425
48.1161
46.4728
40.785
40.2133
49.0614
36.4415
28.0492
38.2778
31.1235
30.6273
2.11328
-21.4784
58.7889
69.2166
-41.4153
-34.7005
5.7562
-36.097
-18.4986
26.1107
28.8881
17.5314
75.0393
44.994
-23.3169
2.76247
21.1528
32.6035
34.5246
18.441
2.30725
24.1103
15.3629
27.4669
26.2135
26.3901
19.9494
20.6082
22.0852
23.8107
25.9175
53.7174
37.0117
-6.4956
23.3636
-3.16848
-11.7677
1.81958
32.6111
23.2288
16.3555
-2.48667
-40.4635
-9.6388
-0.510513
18.485
-1.55092
-105.42
-23.3059
-53.9919
-41.1024
-13.5144
30.0193
50.007
40.0465
36.1164
68.1827
12.5453
30.5472
61.5225
59.6803
55.3835
68.4721
23.7194
25.7091
25.6845
52.5535
24.6141
63.4751
50.0409
3.21782
-0.314088
-34.1425
-12.0204
29.3581
12.9349
35.7991
3.21538
-6.34455
-11.238
-35.6161
-51.695
-27.1593
-25.102
-16.6078
-11.5934
-16.3975
27.7752
30.4133
37.8309
28.5525
39.1946
33.5571
36.0796
67.448
47.9794
33.9008
57.5371
17.608
52.1993
47.8666
-10.9479
-9.51538
12.3722
26.0762
-43.4298
7.35815
-35.6371
14.3337
9.06342
27.9232
-0.840592
-34.9912
-11.7912
-5.87457
44.761
51.6425
5.57314
44.0487
-2.63427
-38.6761
16.0252
25.2992
1.3658
23.4903
-1.349
-11.0478
-5.30134
0.542936
4.00321
-5.03031
-0.226859
0.822011
-1.52944
12.4862
-0.204016
16.488
25.2217
17.0941
40.6103
27.4348
47.4905
24.506
54.8446
12.2143
46.4653
19.9558
10.2474
5.68491
25.5038
35.6951
36.9881
42.2817
51.4695
57.9535
64.5008
45.0877
70.7244
73.2838
29.0675
25.5365
-11.5124
29.5375
45.3914
-47.7256
-64.5099
-9.81051
26.8319
42.5427
47.2466
30.7806
35.2237
38.5944
33.3827
27.7681
14.5247
18.6457
29.9317
27.3117
56.4001
11.5996
46.3835
66.3278
65.9949
63.1548
62.161
47.3657
61.2007
59.6271
40.6979
76.708
54.0097
57.8022
65.7713
62.8782
-154.858
24.4677
-31.2836
60.3519
4.61084
-32.3886
43.6544
33.8058
-27.3916
3.69238
43.8966
41.3277
33.0706
34.7632
29.5713
42.9938
35.2682
48.4393
27.0161
30.6766
21.3516
38.9344
56.3299
66.9398
57.6153
47.9316
70.4186
62.0582
61.4526
63.587
73.3284
68.1021
43.9439
46.2177
43.3563
58.6559
46.9554
21.271
21.2576
4.06222
14.1198
53.5579
36.2769
20.8109
14.5727
15.4607
43.4486
53.922
30.6999
66.3082
26.4136
27.8934
-8.10721
41.2533
17.0388
7.89017
13.4611
9.02755
29.9132
20.7614
21.2453
25.7508
25.678
23.1392
28.6885
27.7044
59.1844
61.8556
59.548
54.0725
39.9052
38.0512
36.8908
49.7729
53.7386
46.842
43.4791
43.9327
47.0055
48.5202
53.1774
38.6238
43.3816
39.0566
55.1572
53.0504
9.77199
19.2216
23.827
-5.78834
7.14824
8.35474
33.2192
-8.04552