/*--------------------------------*- C++ -*----------------------------------*\
| =========                 |                                                 |
| \\      /  F ield         | OpenFOAM: The Open Source CFD Toolbox           |
|  \\    /   O peration     | Version:  2506                                  |
|   \\  /    A nd           | Website:  www.openfoam.com                      |
|    \\/     M anipulation  |                                                 |
\*---------------------------------------------------------------------------*/
FoamFile
{
    version     2.0;
    format      ascii;
    arch        "LSB;label=32;scalar=64";
    class       volScalarField;
    location    "0.0501868";
    object      omega;
}
// * * * * * * * * * * * * * * * * * * * * * * * * * * * * * * * * * * * * * //

dimensions      [0 0 -1 0 0 0 0];

internalField   nonuniform List<scalar> 
3919
(
72.3649
72.2452
102.991
139.426
80.0779
69.2223
106.676
64.1001
44.9038
78.7749
70.9899
56.1167
67.4257
54.6552
67.7914
97.0038
48.2261
50.2974
57.9566
61.9805
51.8704
81.9388
44.5831
49.2149
44.0551
73.4058
44.6012
50.3935
106.866
86.9205
70.7854
52.8337
45.1427
60.5929
46.7391
47.4258
149.873
71.8772
47.7154
73.5817
66.331
53.6921
47.6376
73.3099
166.125
114.619
181.897
84.0952
59.086
43.9059
44.2319
78.0157
43.8055
67.4247
91.9228
44.0406
121.253
125.857
45.3104
62.8088
124.857
80.4425
105.638
91.7813
57.1926
68.0309
44.7395
87.5913
60.6127
43.9919
48.8403
87.4168
118.061
105.22
122.962
93.4201
47.3114
44.6513
52.3059
72.3699
75.8128
44.2288
46.2426
52.6005
49.7998
51.3378
59.5732
83.4089
85.2758
81.2624
94.7953
132.351
131.556
44.0297
84.6089
84.0317
81.7054
66.0293
90.3382
48.878
46.3475
71.4341
104.272
47.8647
147.012
47.074
95.4381
82.1733
75.5555
81.4666
89.9974
68.0879
71.3666
49.349
48.578
49.9608
50.2471
57.2926
79.7461
79.2408
65.16
67.7868
44.1252
107.798
47.0016
51.9334
44.974
69.607
112.691
61.8056
47.6631
75.2105
128.985
43.8818
56.8571
60.0176
70.7117
61.9358
69.3911
77.6387
58.4842
43.7226
73.8187
44.4164
51.4803
63.2252
149.404
46.5859
46.7751
58.9544
70.8261
46.2297
54.6205
55.1094
49.3178
44.8098
45.0814
72.5356
44.2801
71.5747
52.4657
90.2427
129.068
50.1049
95.0778
123.157
126.647
78.6963
68.1555
44.3719
171.591
59.3143
48.9712
46.5799
119.202
67.1975
84.0149
48.9641
81.2822
86.9863
189.264
88.408
44.7014
71.116
84.8962
70.0313
88.6123
56.6235
73.8609
80.3511
64.7891
67.9198
114.733
61.6839
79.5647
45.244
96.6499
47.4595
92.031
138.275
45.6864
78.279
47.8687
70.5585
90.2956
43.9406
43.3398
117.4
71.0017
83.0934
120.046
47.5067
44.8094
44.1666
91.2065
44.2083
44.1826
73.059
72.9711
49.0507
44.3377
61.3738
69.6335
68.2907
44.4819
48.2653
79.8567
73.3342
84.5822
65.6934
122.344
55.6868
127.899
72.2761
69.9569
67.0338
54.6823
53.9406
73.5849
68.1131
192.963
92.8462
89.7211
186.152
189.778
72.9369
97.5998
126.047
164.387
99.8151
106.085
185.641
125.343
108.601
107.652
114.531
92.9696
74.3088
80.7958
108.698
69.5569
85.0669
124.103
122.565
86.337
151.958
87.1631
182.465
78.9583
82.3514
57.5098
109.857
108.386
145.487
80.7603
79.5209
44.3857
153.126
83.5753
89.019
88.3668
61.4093
121.284
55.7535
102.288
55.2853
44.9469
105.09
81.4688
182.299
44.6537
70.5445
71.1629
44.5349
80.5627
153.58
53.454
65.2997
49.3791
170.08
70.3918
74.9764
69.3025
72.7836
47.6408
80.2523
157.898
99.8329
51.264
71.5479
90.5195
89.8694
68.755
114.841
87.3903
65.8243
81.8595
170.882
56.1986
69.3282
77.0317
45.7917
76.1292
72.8061
70.9599
81.0655
60.2551
62.5398
88.7597
51.412
60.7847
44.1823
49.4475
82.7658
48.6853
46.244
183.387
94.6137
79.976
65.2831
88.4795
84.1927
68.0733
125.983
68.2977
45.1374
92.6171
95.1326
59.9482
65.4043
139.624
64.8818
44.8415
62.9391
75.1314
87.198
76.1685
103.529
92.0541
44.3302
46.3029
62.201
65.0627
55.379
44.0426
44.6768
43.8379
94.9937
49.7333
44.0441
56.3481
80.6627
44.0064
69.1734
95.3972
79.2934
48.9542
47.0485
51.9596
79.3486
88.8713
155.646
91.5861
91.1653
97.0316
55.0302
103.108
85.0222
68.1619
91.7949
77.2396
114.054
69.3059
187.922
91.2478
88.9064
166.868
129.045
169.135
44.9116
57.1048
86.8883
102.749
44.258
70.96
69.7511
61.3629
106.296
103.419
129.073
84.1276
68.9445
78.4059
64.932
126.433
80.0338
100.741
89.3409
128.739
48.6104
67.2324
125.249
51.9211
125.896
121.576
77.2268
45.2058
48.5841
84.6014
77.9841
53.3509
69.9944
61.459
74.9293
60.6018
116.463
95.9476
113.372
92.2293
206.222
202.193
101.837
115.94
106.847
125.134
92.9872
92.7908
99.9983
69.1139
81.5756
66.3256
110.029
73.7346
65.2481
150.41
123.307
49.5066
85.9537
85.985
83.0225
98.2709
167.087
168.727
99.7546
127.684
108.95
46.3007
60.596
46.4178
48.35
50.0577
54.5931
96.3797
149.698
68.8532
89.862
103.333
147.368
135.233
49.821
101.643
62.5231
89.103
44.9973
87.2848
87.7084
73.0864
79.4382
95.0982
91.132
44.6695
61.2015
88.3797
128.334
81.9879
77.5073
63.7878
125.889
61.4549
91.8094
67.545
75.5982
61.8628
146.845
67.26
70.9479
73.4711
92.8034
132.433
74.3513
82.1741
84.8427
78.8581
69.2139
61.8118
53.0524
117.6
57.9807
75.8966
130.534
65.1307
91.2581
78.0814
48.8638
77.516
58.3249
71.3206
91.0279
96.5557
86.5539
142.408
112.769
111.597
49.2336
44.9092
60.0795
93.1275
80.1224
228.47
116.411
232.425
98.4901
113.693
71.8107
53.9127
91.0094
73.0406
80.1656
84.4747
56.0362
115.948
56.0005
77.9969
112.06
117.903
184.779
131.989
117.524
124.452
108.361
107.034
75.7038
46.1447
47.4162
89.4588
61.4629
44.5688
89.2902
144.955
92.8247
45.0001
53.1167
75.3837
73.4495
176.599
82.3372
83.765
79.1244
58.0997
69.973
43.1147
44.5867
100.741
69.1059
92.6603
56.1907
80.6407
59.9238
91.7209
72.8515
88.7838
77.9531
99.6187
105.787
104.004
100.347
101.326
99.3764
99.1401
50.0296
63.2109
81.0472
47.6241
49.8404
44.6866
58.0185
48.8297
101.224
75.1418
77.1284
49.182
87.9925
46.6892
70.2109
47.7155
81.5863
72.4803
58.438
44.7686
45.8155
97.0193
71.9651
92.0775
62.9835
71.5396
57.8027
53.2454
44.4159
77.4377
142.212
44.1574
59.8879
87.9432
64.6669
61.5334
85.5044
130.686
113.555
94.5223
166.41
43.9163
69.3289
70.7596
49.8778
44.6069
189.103
60.2026
80.5476
67.6412
43.7282
44.1604
54.8799
106.01
45.4025
56.1806
46.7764
45.1763
47.805
43.8592
92.5254
74.1063
107.534
47.7686
56.7234
95.2997
49.4599
72.154
90.2158
66.0731
83.6084
44.4121
62.4419
48.2565
43.8537
49.8441
44.4307
60.2177
49.6343
47.3498
64.3343
110.852
53.503
100.785
59.8624
45.4898
79.2887
93.6274
73.0724
50.7685
46.2756
99.116
49.0338
45.7278
80.5895
144.868
64.9933
43.4748
44.3957
72.8299
96.061
90.6355
43.7978
53.3928
45.6272
96.9769
125.13
105.318
94.5655
85.032
96.5457
108.891
69.0635
51.9617
71.1346
62.2992
45.5861
108.183
46.9057
46.1367
49.6993
49.4127
47.441
76.8932
46.988
43.9065
79.2431
71.9803
87.5629
82.4858
136.506
88.439
79.0029
146.203
72.3918
43.3369
48.6215
44.8445
84.43
55.9466
102.042
72.1638
82.8817
81.946
67.841
55.6364
59.7951
53.7816
103.898
57.6391
60.2959
47.1955
101.262
51.1518
43.902
57.2318
60.803
109.519
44.1984
66.9908
55.0043
127.144
43.7308
87.6579
119.834
70.164
143.102
46.1137
64.5154
76.729
101.493
63.4883
48.6229
51.1499
52.1776
100.174
44.1658
84.1881
50.9492
73.0255
65.7572
54.9336
69.7694
62.9542
93.487
63.5326
80.4642
88.5689
45.1343
81.5775
175.544
91.2021
78.0849
48.2527
64.0723
48.8606
48.3979
44.1384
58.4484
76.2303
60.6367
92.29
49.2209
43.06
58.7413
45.8732
90.398
54.6223
85.7939
86.1894
51.096
60.7285
49.3427
91.1408
82.5637
57.471
44.0903
114.254
44.5022
103.309
55.7144
62.1471
55.5557
68.4957
89.8563
46.7462
45.2887
91.5785
54.7433
46.8247
48.3172
52.9076
46.0885
106.316
44.8552
68.8617
51.0944
100.864
43.776
63.2724
80.7614
47.3003
52.6805
52.3891
86.913
129.751
52.5571
65.6087
43.4982
43.9985
147.068
65.6357
44.146
65.2365
49.7303
47.4928
86.3722
85.4354
121.915
70.7714
58.6697
57.896
122.879
53.7571
98.841
69.5616
62.5952
67.5897
77.6896
91.6975
83.405
47.9134
44.3465
44.6361
44.1882
48.4993
46.5302
44.471
59.8803
46.5759
77.2175
83.9615
131.504
72.5039
45.4617
101.322
51.5246
44.2837
51.4676
74.9127
84.869
75.4939
50.325
45.8037
45.8102
92.3321
55.6315
82.6851
103.883
60.853
50.7915
80.2737
132.25
90.0378
71.1063
89.1441
45.0096
50.8014
86.2955
66.6929
44.9888
81.3728
51.87
47.2588
78.2339
84.5403
101.793
49.1547
62.5893
47.867
48.2177
125.004
69.1666
85.314
118.306
51.506
87.3343
43.0834
79.3811
45.8448
93.8669
44.8138
78.6877
77.6289
72.5214
44.2252
44.0352
43.9017
44.2934
44.0691
43.8829
71.6698
86.6968
46.7267
47.0406
74.7641
155.515
86.9403
172.63
44.9436
53.0042
91.8573
55.7089
48.738
179.568
46.0918
51.7656
49.6702
44.2066
84.1843
69.9716
80.5456
74.7546
99.2055
80.9876
47.4446
45.5776
44.3603
63.5847
55.5173
50.468
54.2401
116.629
89.568
61.5312
44.3205
43.8615
62.3526
44.5296
44.6733
58.3722
84.5163
63.5083
63.6646
45.2823
47.847
92.9324
88.9174
111.895
125.279
49.5621
95.8052
71.7537
100.05
52.0886
45.5402
59.9924
48.4673
67.2497
53.3781
49.8862
58.3758
45.8254
57.4571
65.553
80.7801
55.0768
44.2675
45.2801
49.2253
64.9108
44.6918
66.348
68.2565
79.5121
62.444
89.4935
45.8727
47.7614
47.2809
48.992
47.2913
45.7772
48.7366
48.5235
45.3474
46.8514
47.9711
45.2256
93.5562
82.651
65.657
70.8031
91.7212
44.5687
49.5165
96.3611
48.4176
68.7594
94.5446
75.7498
65.6952
69.1375
45.7811
64.9387
47.6615
45.0949
100.084
54.2617
97.2325
71.711
61.0744
44.198
67.0271
47.178
83.8547
68.384
51.6973
44.1467
82.0332
43.6464
43.7265
83.5795
46.4614
48.6416
55.6568
73.0743
45.6344
66.3412
91.6616
49.4011
82.5575
102.245
101.145
68.3234
49.4522
52.1685
54.3257
45.7551
48.5452
90.3427
91.2754
67.5831
66.9422
67.392
80.1575
101.941
68.541
44.059
57.9607
60.0398
68.294
45.5598
66.603
87.6453
51.7469
90.7907
62.9815
79.8117
66.5545
70.2936
99.6796
66.6328
72.6444
68.718
60.0469
61.8775
56.7549
47.4487
52.3175
127.124
65.0364
47.2976
45.4846
48.7785
44.231
53.3798
54.5461
77.9767
69.5624
45.0241
45.4084
141.092
64.4427
47.6189
68.3841
58.4658
58.421
44.3271
54.3782
134.57
96.7551
83.1698
48.3814
48.3496
66.985
49.9784
43.5912
74.0918
56.1623
64.108
47.9579
89.8466
44.6753
44.6038
84.7304
84.349
44.2462
69.6251
49.5918
79.2915
46.4263
167.131
49.7284
55.1816
49.4522
50.0948
93.0792
60.1812
46.8124
43.493
45.7374
44.1598
48.4447
72.6191
85.2723
60.3467
96.4902
44.9919
46.0787
121.096
72.7236
46.8521
43.8506
49.0525
50.0899
53.7998
48.7149
77.4609
44.1828
60.4437
44.3296
48.0983
61.126
85.8579
67.4133
45.7424
69.6617
44.5883
61.7147
67.75
43.7331
45.5484
72.6209
91.0686
61.0514
46.4745
46.467
161.063
44.4248
44.3541
63.9567
178.857
61.9801
74.2179
51.2893
43.365
44.6317
72.3666
44.9865
45.1524
46.1153
52.7286
76.3816
44.4103
74.9957
78.5338
66.0138
44.6047
45.3906
43.9969
60.6132
63.1366
48.1607
56.7795
97.7143
122.582
52.12
43.5915
67.0228
88.4495
45.4197
45.2101
46.2521
47.1436
44.1171
48.3066
43.62
56.4297
78.9539
72.0416
48.1227
45.874
45.0276
45.0818
46.8443
44.3093
47.3207
43.9576
86.7895
43.7137
43.7035
100.08
77.4292
89.0208
50.7437
104.185
49.9233
76.7613
60.2806
88.417
94.0611
52.7705
67.567
58.5463
184.103
44.32
45.7134
45.9274
44.9371
46.0591
50.2094
44.6228
45.0866
45.925
92.6736
99.8552
113.419
43.3096
63.9843
90.6395
45.6236
68.2135
48.235
43.6541
45.2017
43.653
43.7164
188.808
63.4398
52.8696
44.3877
45.3943
73.6034
47.09
78.0475
86.325
44.406
51.4386
94.6326
71.7829
47.5805
45.2866
43.8301
51.7795
47.8379
43.6798
102.308
104.492
44.1823
45.3532
78.5034
86.7241
75.4141
47.4152
46.8897
71.7394
52.5141
58.7222
47.7575
47.9626
72.0514
66.5206
44.8132
45.9781
58.3513
73.2031
105.036
48.6897
84.8594
62.1025
85.0917
56.5909
46.38
54.7087
60.646
104.48
45.193
98.4715
44.6272
45.6405
47.2533
107.112
66.7666
82.7677
46.0307
47.75
46.4573
44.7075
46.9216
46.5342
70.3881
43.9567
47.6781
43.8008
43.7343
47.9704
44.6165
75.993
76.5045
156.545
48.1595
48.2162
90.7605
49.9394
76.7738
80.1298
104.961
73.0661
61.7192
46.7568
53.4922
60.5141
44.3367
49.6659
49.1007
45.2834
97.5714
71.0721
75.6121
66.9947
48
54.3254
49.8337
46.8042
49.7047
45.5263
44.5106
48.7314
65.2751
47.811
50.6012
47.365
71.5883
54.012
55.6657
44.9767
80.568
49.6591
48.1021
49.3001
44.1255
84.9086
44.3842
48.8733
51.9726
44.7422
44.6488
48.9006
44.5694
80.289
100.762
54.4389
44.1077
50.1747
44.1841
47.4428
44.5221
43.7231
43.5194
44.5388
47.6937
43.9723
103.103
75.3437
52.6094
44.3841
45.5494
45.0457
82.0883
48.1039
88.5609
109.176
43.2227
43.3476
43.5332
43.706
44.1565
78.2383
45.5419
55.1699
77.9711
76.802
56.2088
49.6218
43.776
64.1658
45.7425
94.06
104.662
115.101
44.7615
49.357
64.2086
70.0844
67.6099
55.211
67.3032
64.7547
43.9346
96.997
76.4152
114.185
104.551
85.1271
45.4712
81.2147
192.765
71.3443
49.7995
66.9814
82.0051
90.2173
62.2432
49.5806
44.163
44.596
110.581
65.9697
53.1932
46.5944
44.0241
90.9668
47.561
84.1708
82.6525
71.2651
110.129
50.5072
66.9111
45.7727
99.4895
87.523
64.2065
46.0604
79.6743
44.0832
69.033
64.0578
73.3356
51.4033
48.0706
76.2741
92.9752
104.806
96.757
44.8891
70.5972
97.3194
100.948
70.4873
69.5664
49.2111
74.2321
44.2753
45.5572
63.6847
43.8879
43.9145
44.2893
74.7653
44.437
53.1581
74.3554
64.2802
53.5451
60.9465
87.1995
73.3761
112.596
44.3804
45.3109
43.6748
44.4143
45.701
43.3141
87.4232
190.516
44.3242
49.0219
49.7215
95.4797
44.5241
44.9506
78.4419
46.8376
64.3619
56.9232
48.1681
48.269
73.0477
44.4159
51.8071
45.1206
59.0293
53.2729
46.0497
45.7522
60.677
90.0127
44.0031
49.2533
152.527
61.8198
44.4845
137.26
95.6405
50.2701
72.787
54.3253
136.567
70.94
46.3767
46.2151
47.7088
46.1993
104.799
54.6973
45.9697
70.741
48.3494
71.1079
63.2116
50.3608
44.4625
80.9546
109.2
85.2096
46.0796
58.454
75.8806
71.0278
44.2832
43.8329
48.0191
44.1032
90.6841
62.6108
106.506
110.143
45.5116
44.0904
44.2089
43.2407
48.9425
71.6496
49.6023
129.27
54.6613
121.979
45.1884
44.3464
46.5627
44.4594
91.0074
68.5849
44.9389
49.2147
45.1728
46.0876
108.778
100.635
86.0725
51.3011
47.1389
52.0286
87.6543
46.5257
45.2219
45.5853
91.851
63.0515
51.2771
51.5926
49.8681
49.0756
44.513
47.3293
110.458
100.918
64.4142
99.9847
67.7282
73.3723
88.8441
70.2791
69.9288
44.4268
98.1993
48.9412
43.8356
97.1005
98.6394
100.688
53.7387
51.327
109.017
95.7018
110.14
97.4313
85.2004
45.8215
97.5861
93.0988
67.1658
47.2484
99.9602
94.6158
104.493
47.7405
46.6617
79.0124
76.6643
44.0608
44.1339
43.6711
44.7497
60.1626
45.2685
44.522
78.0661
87.5292
67.4876
66.0652
59.7874
80.8355
91.7906
61.1119
74.5239
138.529
79.9552
81.2955
54.8065
75.3682
71.0075
70.6271
140.788
62.3376
140.348
105.642
86.0071
115.742
89.3964
79.3132
83.8307
84.6454
84.915
79.9246
57.5881
93.3394
94.3734
67.4032
76.9933
82.4043
72.42
113.306
64.4748
123.429
95.6135
61.2406
104.377
52.8182
91.6368
76.9555
62.1813
61.0591
92.8806
91.6574
65.6482
50.4728
94.2218
77.3917
71.6148
100.571
94.7245
106.679
120.168
115.432
58.4453
96.1514
53.5882
122.49
66.9708
97.5233
90.0652
90.0051
120.504
85.1099
77.8333
96.9403
125.357
59.7447
58.5916
53.2621
65.4506
98.2111
93.9216
67.9571
89.1689
45.5191
44.2019
52.4388
93.8722
49.8955
70.93
60.0569
70.7585
49.1366
207.143
94.2616
92.1184
61.1729
99.8628
71.0719
97.4871
46.8121
59.5615
118.428
43.1823
43.9398
44.5077
43.2203
43.4783
46.0082
43.5385
47.6046
46.4712
47.7078
43.5759
61.7348
67.3673
88.3011
43.8809
45.4885
50.3152
49.4854
93.2884
98.3761
99.3822
62.3319
53.0224
66.9796
68.1892
43.3946
45.5393
46.9461
87.6387
49.1062
80.5376
73.7849
84.1361
110.153
44.7395
58.7372
58.1592
45.7026
62.0717
44.9517
46.6954
44.9129
45.9575
47.0617
64.6939
69.0313
45.4321
44.6628
63.6142
63.7073
57.4257
44.3616
46.4961
45.5388
46.1211
45.9198
44.7199
44.2109
44.2903
47.8079
65.3449
44.0119
64.5557
47.0797
55.6574
44.7266
51.7308
68.1987
44.6157
45.1945
44.7323
44.1794
51.5203
74.4645
44.0407
44.1535
47.4443
46.8438
55.0512
86.2996
47.8552
51.11
53.9792
61.4581
81.6784
82.2372
68.7078
89.6172
89.9184
99.2233
45.0232
100.74
83.9013
79.4718
113.014
48.4352
46.3319
110.366
48.2603
116.437
66.6028
98.1177
52.429
78.5651
94.513
48.426
81.1262
100.43
75.2811
98.1727
58.9373
47.5422
52.0804
72.867
44.5568
75.7136
46.7071
79.0359
45.022
96.6406
68.5741
73.2455
72.9146
44.1756
89.4103
86.0359
101.185
89.7844
44.4161
50.922
43.7761
86.5068
68.7785
72.8468
43.5273
100.698
47.4728
44.2
61.8854
100.856
45.194
59.0675
43.5822
109.076
48.9377
49.3334
43.9635
64.235
45.6277
94.6232
103.018
89.7305
65.4038
101.978
138.199
44.6022
43.5355
61.4725
62.7905
50.7505
64.5537
80.9324
96.7577
116.302
57.7021
43.5629
95.9972
88.9259
44.0069
44.0429
92.6076
83.6289
44.6948
44.7623
45.1496
46.7943
76.0147
47.8488
43.6358
44.3122
47.4408
44.1279
64.4776
67.2827
43.8381
45.489
45.2415
43.9738
64.5784
64.0504
98.088
99.497
53.3337
101.07
54.4629
72.3246
99.8335
45.5124
110.791
48.5071
89.2557
52.4346
60.8819
44.4888
95.8072
96.0602
46.8052
88.0083
144.197
98.9206
48.1051
110.632
76.2912
63.6815
132.971
115.895
179.125
130.71
78.3197
44.3
63.8484
162.601
168.395
159.948
164.428
85.282
45.0981
101.367
75.4694
100.236
83.2157
69.8149
49.5617
56.5673
89.3303
80.6102
171.872
46.5613
45.3143
84.0846
80.5356
85.5069
58.0411
70.0807
67.6885
86.4447
69.6199
45.7032
46.1796
50.4266
85.8859
58.7592
55.4053
95.2239
44.6177
69.3044
101.197
85.1656
45.4995
89.0018
76.5479
77.2246
46.2697
50.279
71.4287
84.6543
85.3188
44.3067
64.0746
50.7091
46.9862
80.7904
46.4264
138.609
101.261
52.0024
99.2143
68.5478
99.6319
67.1285
69.2074
47.0747
44.3934
68.7072
68.986
68.8615
45.5408
120.876
92.7717
78.1288
74.8739
48.1107
94.5183
51.9441
44.36
66.77
69.1235
62.066
45.2732
69.617
58.861
72.3566
43.7614
51.3098
49.8978
78.8887
133.052
92.739
76.9629
116.11
78.6056
87.9793
92.7077
68.6421
61.1791
100.5
46.6748
44.7445
146.819
88.7415
164.811
47.6217
45.8057
49.9542
48.9212
49.6188
46.3895
77.6277
52.4185
56.2111
78.0197
92.7121
99.973
77.2532
57.3386
48.1622
66.8581
62.7573
44.6292
83.1093
46.2237
51.1648
49.8069
44.5132
44.0762
159.8
90.4443
105.071
137.611
175.289
54.0694
75.3178
151.912
48.873
46.1255
52.48
56.067
46.9958
46.789
51.8805
93.5751
66.8843
123.722
44.9407
45.7819
48.4041
49.5125
43.3985
44.7791
44.5839
191.109
73.5186
121.114
46.6197
82.1573
184.959
96.2806
116.765
116.275
65.0239
111.385
116.315
49.6924
49.0622
53.7369
109.845
49.079
44.5188
45.582
44.7509
43.2552
46.4757
43.7221
101.628
84.4812
71.9185
100.655
50.9634
78.4235
68.2822
153.211
70.7728
45.8472
44.4828
86.6243
71.4819
70.7693
43.7363
101.762
47.8795
72.2696
66.7695
49.7686
154.633
82.9432
43.4135
69.9374
47.8187
82.9696
85.9905
86.2151
65.4322
52.6835
44.249
82.9427
81.6335
82.6096
43.9654
92.9046
53.692
44.1042
61.8274
61.3881
80.585
53.7631
47.5287
102.452
66.2898
48.7263
56.1068
48.8387
107.614
79.0608
44.9153
46.355
53.8983
65.5149
63.1825
43.9233
46.9394
121.03
70.3839
96.2928
46.1567
67.4797
74.3695
44.3638
127.147
46.4196
45.4046
44.9726
49.8468
47.698
44.0754
61.8173
119.464
107.309
81.6133
45.2969
43.6795
45.9628
50.5706
60.4478
44.6597
145.437
44.8856
116.355
68.4042
81.3513
53.921
58.7745
48.466
56.8408
58.9754
73.6956
64.2993
43.4871
121.516
151.547
93.4422
44.1214
46.7051
53.362
44.2898
50.5519
44.5814
46.9444
96.6683
56.472
44.0998
59.2025
48.0331
53.1021
73.7186
86.2924
47.0851
44.3883
72.5149
47.8392
47.1877
45.3884
46.6721
44.6649
59.5619
47.5433
104.18
77.6433
76.3443
66.2268
45.1172
45.4203
45.6981
45.0777
72.7205
139.232
45.4342
115.024
53.8752
53.5188
84.3911
129.844
82.5711
67.1905
46.1501
44.2403
81.5607
51.1433
58.9675
47.439
88.152
71.6827
110.605
51.0374
44.3403
131.066
62.5692
45.0876
53.2284
76.6086
45.7829
44.595
44.436
56.7546
48.7753
44.1591
50.1445
64.3873
50.922
72.2218
140.042
142.554
45.9347
103.093
54.2555
86.312
47.2437
44.6801
53.2081
52.008
44.708
45.1413
52.833
62.4256
47.8929
88.5366
69.2234
46.0076
62.7513
44.3774
43.9999
83.2086
45.5217
114.668
46.0532
46.3874
62.5566
83.4685
43.7293
44.2089
50.7965
50.0942
49.2927
84.9808
114.575
45.4606
99.6494
45.3289
85.8368
53.9246
50.1883
62.3426
44.8014
44.7296
45.5347
49.9098
44.4633
95.8891
82.7512
52.933
74.5076
44.6915
82.2117
46.1406
44.0814
48.7627
44.8588
67.1345
48.4383
47.103
43.9119
44.985
53.1533
87.6743
99.5549
44.2313
50.3949
45.664
56.904
99.7884
48.0252
44.0651
53.0749
49.0607
45.2433
44.5
84.1047
44.351
53.9049
54.3139
97.8449
82.1637
99.2217
46.3639
82.2892
49.5382
86.5979
90.2867
112.425
87.8856
95.2597
69.9118
75.2164
49.9015
44.5654
53.7286
87.9041
67.5902
66.357
81.138
44.0507
88.1515
86.8146
80.305
78.3639
119.097
87.1055
44.3164
45.6121
44.2867
45.1281
52.1493
44.8343
46.6937
96.7991
98.8466
105.115
46.8561
85.9039
116.539
91.8513
103.348
73.5426
87.5209
44.3151
46.4342
45.4722
44.3967
50.9251
45.8166
60.2193
44.0263
76.3397
46.4887
159.696
162.727
64.0203
125.129
92.9186
77.9474
51.9503
45.5192
59.5621
142.669
89.6444
53.1268
87.8287
69.005
68.7006
86.3316
88.108
90.8236
89.435
65.5095
51.1172
74.4371
86.6808
85.1425
93.4247
71.5178
61.9419
48.7533
50.3431
48.4017
45.4523
55.3011
88.075
49.0627
67.2587
53.307
68.9627
49.0289
57.1903
58.8148
61.7017
85.0859
81.8144
52.3589
76.6044
65.211
72.2065
73.3217
51.0383
49.5708
87.9013
44.565
47.5874
56.5911
120.636
55.5712
92.0987
74.281
57.5908
66.4565
63.9008
94.0484
46.6636
71.8982
66.4959
107.355
102.408
75.3189
44.1079
95.6977
89.3115
43.6919
82.2493
84.59
63.5634
76.962
71.0766
72.8029
74.9444
73.65
91.1038
102.999
71.1006
43.8605
85.2761
138.835
45.4747
90.3548
73.5302
43.7749
69.3603
71.5688
48.1455
69.2162
60.5582
69.3342
48.638
45.659
85.8429
45.8161
108.54
62.7762
73.7882
44.1194
82.0416
50.6535
51.3111
86.1218
64.1651
63.1126
47.3577
44.9795
96.458
62.9069
101.915
48.635
55.7717
47.6986
54.8574
98.0009
50.08
45.719
52.5096
62.1714
63.6789
132.425
46.0571
62.0323
48.896
45.1192
83.9961
140.585
148.507
74.5408
77.0533
43.8517
110.295
66.8445
154.584
43.2005
43.7145
43.6054
53.6434
42.937
43.9342
95.7622
46.88
60.6702
45.9146
72.2854
47.2683
77.0341
103.479
68.1453
46.8331
83.7512
70.427
77.2465
82.107
45.8992
70.8095
45.3211
73.2697
46.189
110.47
78.1743
46.8192
49.0627
49.8628
43.6653
74.1455
45.5375
61.0402
44.6618
67.8024
69.3673
99.3874
69.8648
60.1109
44.0008
75.9441
47.6879
66.9369
61.948
81.0249
88.6389
50.1015
45.8366
43.9583
103.064
77.3543
87.9139
43.5396
45.0831
49.8407
47.3411
88.821
53.8065
44.9804
46.8261
58.1271
84.225
65.2266
50.1392
49.9599
56.0119
50.8201
52.1455
45.3387
44.4297
44.9113
45.1599
44.4054
65.8708
74.3886
92.2191
79.6746
103.661
65.7698
56.2635
74.1869
64.5742
67.0322
63.7991
62.4326
45.6647
45.5496
43.5365
94.8335
55.7037
49.1399
96.0687
44.4383
43.7086
47.4028
45.4604
68.4942
43.3843
46.5665
51.9253
108.094
43.7237
51.4374
99.5529
44.5234
45.1397
92.6486
94.8545
72.5443
75.9661
91.011
46.1557
51.8953
51.2209
72.8641
60.4551
47.8246
47.0133
127.533
73.5786
80.5972
104.459
44.1489
44.5438
45.9391
46.5508
46.3204
46.1112
117.773
56.5921
44.7447
68.1062
71.1792
79.4422
44.2057
43.8027
45.9872
43.6183
111.484
45.1636
44.8678
48.1603
68.3673
72.7562
46.4168
45.3548
111.358
48.4828
61.1892
51.1028
76.2489
47.0236
76.9264
105.734
94.1325
78.7372
60.0583
58.254
67.3798
65.4331
50.1195
45.6316
46.4958
88.1545
56.8031
44.3321
63.1285
45.4028
44.9414
83.5751
129.677
47.7398
51.1117
48.5955
48.1357
50.2915
82.7546
44.0704
45.592
46.2687
74.0377
45.0679
86.173
81.6542
74.3188
86.1447
60.2329
44.7903
49.568
44.118
48.919
45.4176
47.6664
62.4357
44.4273
81.9449
78.5814
75.0837
45.6958
45.1678
65.4199
127.369
64.675
77.0947
90.7879
70.4712
45.1269
67.0422
51.865
44.1052
45.3305
71.5412
79.0093
45.4383
45.6219
90.0923
71.1811
45.3269
66.9816
43.766
66.5112
63.9911
44.8934
51.7316
43.1972
94.036
50.5756
46.8347
80.1029
89.7631
43.6435
43.2691
45.4083
44.6478
51.7551
78.0532
44.7102
62.6885
95.2438
108.808
72.9461
43.9538
77.3782
94.9492
44.7021
76.5517
44.0869
62.0479
67.5789
83.753
68.6331
73.6192
43.7808
63.6872
72.3045
45.1877
47.249
52.1459
46.491
45.973
109.841
44.9309
59.6946
66.0506
68.0815
50.7888
49.8923
97.8655
46.3346
50.163
85.091
65.5148
90.6499
83.4643
50.9183
63.13
74.1624
92.9055
97.9689
88.7996
64.113
85.3559
190.352
79.6391
72.6136
79.1279
84.0398
48.151
48.4163
106.191
79.2301
52.4553
83.7016
44.4725
48.8863
87.8574
45.3862
45.1096
75.6663
72.8862
88.4809
74.8201
152.83
80.9552
114.917
112.004
110.815
105.14
210.156
45.2852
44.9375
111.14
93.7411
46.7351
51.8728
49.4542
84.2423
69.4349
67.1633
101.959
135.167
77.2373
83.4121
53.4989
47.9179
84.1217
180.533
80.9323
175.228
69.6069
76.5683
95.2203
87.0564
89.0121
47.5783
102.352
45.1949
46.1575
88.2124
69.0566
88.0157
46.1324
60.9406
59.973
88.2781
46.7068
60.8559
45.7321
44.5489
44.851
85.1793
87.076
64.3418
68.5018
81.1453
78.6267
71.6112
69.6478
82.598
76.5407
44.844
67.2915
70.5571
91.8645
77.6371
83.3388
71.32
43.283
44.0976
43.4699
49.0806
45.3661
49.3636
65.1205
43.5018
48.7634
96.0088
117.719
47.9723
52.6
93.7788
52.362
53.582
61.7924
44.14
134.167
71.6697
88.2294
102.577
138.401
44.2936
83.3
101.383
47.7377
85.0825
48.7606
72.7506
50.8893
67.2214
83.3855
47.2053
81.5762
54.7614
50.8498
96.0505
110.088
68.9206
47.3003
72.7166
114.666
76.1022
90.0008
43.4515
86.9908
78.9684
44.582
72.2729
48.8121
92.8158
54.5922
83.8615
54.7225
43.3117
63.3698
77.3727
47.4841
60.9196
49.1325
60.6138
84.7756
68.8917
97.6515
51.468
76.9734
43.9741
92.311
78.3861
50.039
66.8532
87.8229
90.2596
56.5844
123.074
62.9655
82.278
48.6693
49.8307
50.4295
43.695
59.0066
68.9409
57.3913
49.1567
103.599
43.9981
46.9376
74.1234
44.3737
46.9902
146.283
47.9825
161.333
89.5623
126.608
73.0282
65.7755
83.7247
44.8331
85.0454
43.6753
120.042
44.4613
75.163
126.068
105.652
64.0879
76.658
47.7079
74.4892
145.59
44.1401
67.6725
81.0174
51.4489
111.962
46.5001
51.2045
89.0169
91.7167
75.5016
92.3909
67.8481
93.079
45.1531
44.4907
75.0945
65.8351
45.672
45.9826
70.821
47.1255
44.0707
47.5817
48.172
50.1336
52.2792
48.489
57.1749
82.4052
96.6669
83.8659
79.0073
98.9484
65.9366
74.8633
45.1765
47.0098
49.0883
47.029
44.4189
46.9952
46.5853
46.6253
48.4197
48.3637
79.4509
114.277
46.0897
66.7181
66.1808
92.6515
74.286
78.9272
61.8706
85.5265
80.2142
52.9494
77.4999
46.7082
156.777
52.4068
46.3934
47.7681
73.3806
45.5608
66.6827
64.9552
67.6862
80.1714
45.1569
48.7062
45.6925
48.5323
44.0154
48.3381
43.8938
79.8974
70.4285
73.3518
49.4242
46.7749
49.3483
47.6025
45.3678
44.7611
46.1836
45.9209
45.9767
48.6938
55.1697
44.7036
45.6324
43.6635
57.7957
55.4701
145.348
70.54
71.3558
75.3855
43.4879
43.3345
52.3183
44.3719
78.9287
47.9137
71.02
70.5946
76.162
45.1532
76.6917
87.8234
119.457
114.917
44.9312
45.6749
70.6422
57.2242
66.9037
76.8555
97.5798
44.2359
126.8
44.2359
45.4552
51.2905
70.7774
50.6377
43.2535
43.7345
57.3135
67.7992
44.8417
43.8985
125.495
75.2261
43.649
185.961
61.79
125.799
62.6445
48.146
44.4975
61.937
55.1084
66.5679
79.6363
57.0974
58.4402
47.2329
104.425
115.751
91.9139
45.366
69.8837
46.6682
116.138
85.3847
44.7285
44.313
82.2451
84.6769
45.2481
95.7606
71.7973
45.1814
70.7997
44.4382
44.7892
61.6473
44.1547
43.8015
50.2214
48.5073
50.8997
46.0563
45.7289
51.0143
49.2032
46.5053
80.4168
174.078
50.6264
45.2312
110.138
53.32
79.509
69.4638
43.8107
47.4041
72.8708
115.211
88.3542
48.8197
80.4346
104.987
118.848
64.9758
141.328
68.6566
92.5628
45.5396
111.348
75.6687
85.5806
94.1063
68.1017
90.6524
96.7696
76.0225
66.1938
58.0744
81.1753
77.7702
70.1226
112.759
120.178
99.2923
70.5989
67.9385
136.335
80.9139
80.2555
78.6043
109.544
81.0155
45.825
73.5633
68.2885
43.7155
65.425
61.2423
49.3217
105.378
81.3069
110.296
83.6149
67.5616
84.3122
104.402
46.8914
57.8725
96.2587
67.1029
81.9813
44.5407
63.6046
44.3181
52.2126
76.5407
80.9465
87.732
82.0478
66.6557
69.9423
105.116
61.5102
71.9698
74.7515
82.3154
43.3433
94.8437
167.41
163.91
74.2807
81.1362
70.3178
97.9911
74.9821
119.961
83.7533
63.1088
54.746
58.0221
75.9786
80.2092
113.863
114.256
89.0529
191.828
144.323
84.6602
106.149
65.834
74.0074
84.4425
95.0591
107.142
90.9135
75.0326
100.459
152.653
169.324
117.506
168.436
69.8817
103.655
114.616
53.2817
116.066
68.079
74.0491
99.2273
45.1674
44.8976
50.8686
48.2612
44.4139
43.7245
45.3988
44.0851
83.6511
45.1139
46.1429
45.0747
45.8696
108.604
108.179
52.8602
43.8644
44.2651
47.9057
44.8966
46.0474
52.0956
46.6218
44.2609
51.0877
115.779
48.9183
45.8262
71.2453
52.6494
53.2261
44.4742
44.1345
52.0602
85.3466
67.9769
44.3777
91.1943
46.6246
43.9969
47.4794
43.7482
46.4792
65.1016
48.5497
71.3713
44.858
57.6978
44.9252
51.9432
44.0378
90.3192
45.3194
44.5845
58.7278
56.6804
44.1905
79.2699
51.268
44.92
44.3316
71.5868
44.4662
45.1148
44.2974
46.5169
44.3144
43.5345
53.0204
43.529
44.6128
47.3057
83.8366
50.5735
44.6742
43.9485
43.9219
47.5325
46.4461
45.269
44.9109
53.7906
60.3179
51.6968
48.9173
49.9779
48.8517
48.1462
47.1556
53.882
44.3274
46.6545
77.6175
51.9442
109.047
48.5813
45.6025
44.7824
53.0112
51.0966
43.9403
52.2449
44.8147
64.8418
44.4894
51.4875
106.004
50.0702
45.3772
44.6329
45.4366
103.96
69.8403
49.0166
47.5898
127.685
47.3663
96.7458
103.803
77.1506
44.6019
44.2185
44.4195
45.159
44.3482
57.7101
61.1535
44.3348
77.1427
63.9895
57.9945
44.6375
46.4613
45.3711
50.2487
91.9092
45.3583
44.5869
49.3725
74.0005
109.102
50.0927
49.8159
47.1037
64.5579
68.0627
91.2203
44.7805
63.2013
43.7005
43.5667
101.919
45.0419
46.7459
71.9907
105.046
48.8412
103.957
44.9739
54.1747
76.584
51.0713
63.9614
60.4732
69.6694
63.0602
48.3683
44.6324
60.4136
103.796
48.4841
84.8858
79.7049
88.1533
81.1373
64.8769
46.1647
45.4615
73.8771
61.4164
60.2357
47.1943
48.5145
69.8551
49.9827
44.6272
46.1962
99.5438
44.5748
44.9087
45.7967
51.8649
75.5464
46.1274
46.1335
77.2638
53.9667
49.4842
43.1933
69.3121
46.2383
45.1454
43.4272
46.9786
98.3729
57.5257
62.0694
83.6243
45.822
101.005
89.6004
74.5382
98.4811
91.5952
94.3775
94.5941
61.1791
49.0247
46.2539
57.6203
57.9308
170.374
46.7578
82.4475
70.779
82.7452
96.6372
108.118
82.0797
72.7651
107.948
93.4874
87.637
67.4495
134.117
53.066
85.5934
70.5864
80.4844
70.5516
104.401
63.6224
126.937
65.5441
54.7538
55.0333
105.338
98.6
99.9402
134.093
89.4669
66.4257
51.8777
90.335
90.4615
91.0941
67.8562
78.3443
83.722
44.4152
44.1651
44.3179
67.1855
44.5158
56.1133
49.7504
45.8705
111.406
43.4247
52.2443
44.3758
97.9315
60.5273
81.7155
93.4733
72.2945
87.5771
45.5254
48.4746
74.0785
45.2654
44.7274
68.0221
52.4797
73.3256
80.5411
54.3214
65.1377
163.929
165.311
72.868
149.073
79.3512
51.5827
66.876
86.138
93.621
182.051