/*--------------------------------*- C++ -*----------------------------------*\
| =========                 |                                                 |
| \\      /  F ield         | OpenFOAM: The Open Source CFD Toolbox           |
|  \\    /   O peration     | Version:  2506                                  |
|   \\  /    A nd           | Website:  www.openfoam.com                      |
|    \\/     M anipulation  |                                                 |
\*---------------------------------------------------------------------------*/
FoamFile
{
    version     2.0;
    format      ascii;
    arch        "LSB;label=32;scalar=64";
    class       volVectorField;
    location    "0.0501868";
    object      U;
}
// * * * * * * * * * * * * * * * * * * * * * * * * * * * * * * * * * * * * * //

dimensions      [0 1 -1 0 0 0 0];

internalField   nonuniform List<vector> 
3919
(
(10.0507 -0.0281707 -0.0059457)
(10.105 0.00802004 0.0100116)
(10.0875 0.00613764 0.00193214)
(10.0619 0.00446963 -0.00252733)
(10.0621 -0.0171346 -0.0013688)
(10.0734 -0.0186057 0.000659096)
(9.96977 0.0387308 0.00530369)
(10.0226 0.0151446 0.0128756)
(9.98651 0.0496568 -0.0189833)
(9.9929 0.0252768 0.012485)
(10.0093 0.0256996 0.0133444)
(10.0426 0.0089126 -0.0193792)
(10.0027 -0.00331607 -0.00578786)
(9.95504 0.0101443 -0.0106409)
(9.91828 0.00204084 0.000812325)
(9.96962 -0.0159704 -0.0305521)
(10.0506 0.0121653 -0.0157247)
(10.0326 0.00402768 0.00492763)
(10.0733 -0.016865 0.0246071)
(9.99582 0.00272759 0.0217393)
(10.0249 0.00579892 0.0268514)
(9.99486 -0.00530178 0.00858411)
(10.0481 0.0357513 -0.000985773)
(10.0386 -0.0261312 -0.0371031)
(9.98892 0.0136461 -0.0205898)
(10.0019 -0.0344314 -0.0109549)
(9.9864 0.0407047 -0.023417)
(10.0097 -0.000877652 0.0552448)
(9.9325 -0.00488313 0.0211965)
(9.97818 0.00655253 -0.00954155)
(10.0056 0.0250992 0.0171711)
(10.0212 0.0158061 0.0239035)
(10.0584 0.00307187 0.0174702)
(10.0126 0.018744 0.015528)
(9.99197 0.019578 0.0156738)
(10.0397 -0.0351994 0.00227789)
(9.87868 -8.42869e-05 -0.0287443)
(9.98232 0.00163767 0.0193667)
(9.98959 0.0139644 0.032577)
(9.98054 -0.00406328 -0.00347345)
(9.98235 -0.0174517 0.0188073)
(10.013 0.00352073 0.0138638)
(10.0379 0.0173014 -0.00271841)
(10.0097 -0.0320155 -0.0185039)
(9.83969 0.00132797 0.00541059)
(9.9654 0.0311502 -0.00712126)
(9.79166 -0.0037472 0.00263851)
(9.88018 -0.0130165 0.0247865)
(10.0111 0.00643972 -0.000537428)
(10.0319 -0.0207785 0.0182717)
(10.016 -0.0127884 -0.00260674)
(9.95593 -0.00319547 -0.00620613)
(10.006 0.030543 -0.00479288)
(9.92101 -0.0011242 -0.00924893)
(9.94183 -0.0231421 0.00321356)
(9.93592 -0.00795893 0.0170798)
(9.78061 -0.00973296 0.00122963)
(9.76442 -0.00403631 -0.00284002)
(9.99647 0.0155886 -0.0323802)
(9.99557 -0.00563727 -0.0194521)
(9.90349 -0.00682784 -0.00420438)
(9.99732 -0.00196152 -0.001645)
(9.91434 -0.00537421 0.0142048)
(9.99207 -0.0353821 -0.00457046)
(9.97885 0.018822 0.0101469)
(10.0343 -0.0413674 -0.01198)
(10.0749 0.0163591 0.0486921)
(9.98532 -0.0181071 -0.00745722)
(10.0375 -0.0457679 -0.00752243)
(9.96297 0.00290789 -0.0205366)
(10.0698 -0.0689981 0.0123672)
(9.99141 -0.020388 -0.0385883)
(9.97123 -0.0219852 -0.0411352)
(9.87896 0.0197525 -0.000726669)
(9.81455 0.00955789 0.0124661)
(9.93139 -0.00486955 0.0162005)
(10.0106 -0.0121058 -0.0437903)
(10.0432 0.0126503 -0.00886458)
(10.0456 -0.00184844 -0.00626004)
(10.0098 -0.0144729 -0.00733263)
(9.98781 0.0263357 -0.00260302)
(9.98303 0.0225751 0.0443739)
(10.0619 -0.0109733 0.0171153)
(10.0059 -0.0150078 -0.0122956)
(10.0217 -0.0129328 0.00838402)
(9.98239 0.00805152 -0.0187545)
(10.0628 -0.0106073 0.022399)
(9.97795 0.00502928 -0.0170791)
(9.99956 -0.0178711 -0.00994323)
(9.95109 0.00727961 -0.0027992)
(9.97479 -0.00694027 -0.021661)
(9.83781 -0.00400268 -0.00782758)
(9.86997 -0.0106797 -0.01169)
(10.1146 -0.0543369 -0.0292775)
(10.0222 -0.00724169 0.0122443)
(9.98924 0.00147046 0.0101214)
(9.96994 0.0175098 0.0136779)
(9.95444 -0.0368496 0.0211649)
(9.9384 0.0213997 0.00957798)
(10.0032 0.0128773 -0.0132684)
(10.0217 -0.0122486 -0.0167003)
(9.99743 -0.00554992 -0.0108965)
(9.96865 -0.0063706 -0.0233313)
(10.0189 0.00800484 -0.020614)
(9.84129 0.00963802 0.00592524)
(10.0483 0.000694315 0.0220341)
(9.99321 0.0042129 -0.0247924)
(9.98816 -0.0281067 0.00792174)
(9.97329 0.00901274 -0.00482809)
(9.99433 0.0130125 0.0121952)
(9.95027 -0.00762046 -0.00723308)
(9.9531 -0.032844 0.0112152)
(9.98501 -0.0124824 0.016463)
(10.0419 -0.00334183 0.0146327)
(10.0279 -0.0010307 0.00478472)
(10.001 0.0253681 -0.0129917)
(10.0095 -0.013633 -0.0211414)
(9.97922 -0.0216454 -0.0131196)
(9.98966 -0.0182078 0.0181778)
(9.96294 -0.00527412 0.0118698)
(10.0291 0.00293031 -0.00548456)
(9.99747 0.0328587 0.0267153)
(9.97842 0.0568428 -0.0249837)
(9.98445 -0.0022096 0.0155253)
(10.0388 -0.0210745 -0.0154369)
(10.0112 -0.034098 -0.00909538)
(9.99325 0.0202315 0.00687658)
(9.97893 0.0172657 0.00533859)
(9.96455 0.0073623 -0.0030088)
(9.98408 0.0213379 0.00633612)
(10.0462 -0.0244409 -5.43449e-05)
(10.0867 0.0151668 0.00117148)
(10.0592 0.0173171 -0.00120569)
(9.95928 -0.0146384 0.0460875)
(10.0483 -0.022957 -0.0184)
(10.1129 0.0175626 0.0276223)
(9.97826 0.0176901 0.00793345)
(10.0467 -0.0126682 0.0184075)
(10.0324 0.00692 0.00704509)
(9.95378 -0.0220335 -0.0143198)
(10.0444 -0.0124234 0.00917384)
(10.0717 0.0342056 -0.0280718)
(10.0254 0.0139581 -0.0637984)
(10.0256 -0.00965153 -0.00611084)
(10.0441 0.0365961 -0.015509)
(10.006 0.00841256 -0.0150244)
(9.9663 0.00129322 0.0045935)
(9.98721 -0.0138863 0.0162789)
(10.055 0.00957211 0.0309425)
(10.0321 0.000799975 0.00591)
(10.0414 -0.0111834 0.0188965)
(10.0137 -0.00581041 -0.00204109)
(10.039 0.00505136 -0.0088858)
(9.97089 0.00679246 0.0217337)
(10.0666 0.0207193 0.0348852)
(10.0414 -0.00932889 0.0103123)
(10.0061 0.0127134 -0.0172125)
(10.004 -0.0279638 -0.0203602)
(10.0147 0.0122598 0.00861095)
(10.0101 0.0260443 -0.00182552)
(10.0468 -0.00693962 -0.0151271)
(9.9683 0.00497923 -0.00181497)
(9.95373 0.0445315 -0.00256759)
(10.0654 0.0065847 0.0195002)
(9.95971 -0.00361881 0.00477545)
(9.89202 -0.000318635 -0.0235711)
(9.89164 0.00170301 -0.0208097)
(10.0011 -0.00463738 -0.0142622)
(10.0162 -0.00131978 -0.00632564)
(10.0601 -0.0141353 0.017762)
(10.0338 0.00675279 -0.00436321)
(10.0183 -0.042798 0.0034859)
(10.0192 0.00546705 0.0197175)
(10.0276 -0.0232087 0.00649015)
(9.89159 -0.00428257 -0.0481144)
(10.0211 -0.00866554 0.00939112)
(10.0483 -0.0142747 -0.00319285)
(10.035 -0.00301304 0.04101)
(9.97481 0.0059669 -0.00650933)
(10.0221 0.0348852 0.000914653)
(10.0123 0.023284 -0.00146077)
(9.95067 0.0247695 -0.00534666)
(10.0291 -0.00403179 -0.0309357)
(9.99919 -0.00387689 0.00166507)
(10.0458 -0.0045586 -0.00465779)
(9.97848 -0.0281146 -0.00657547)
(9.95061 -0.0264772 0.0113866)
(10.0309 0.00675726 0.0286469)
(9.99868 0.000818713 0.000157209)
(10.0032 0.0096406 -0.0017929)
(10.019 0.00883981 -0.00119224)
(10.0098 0.0123834 -0.000925006)
(9.98285 0.00375764 -0.000212398)
(10.0262 -0.00236157 -0.00536527)
(9.95482 -0.0172368 0.00972454)
(9.98639 0.034073 -0.0215204)
(9.95038 -0.0121853 0.00961622)
(9.95566 -0.0567175 -0.0182042)
(9.94183 0.0139585 -0.00681786)
(9.94015 -0.0191457 0.0057088)
(10.0544 0.0214638 -0.023825)
(9.96374 -0.0280505 -0.00439699)
(10.0092 0.0220317 0.00890986)
(9.98645 -0.0272494 -0.0160776)
(9.96429 -0.013093 -0.0381384)
(10.0208 -0.0186825 -0.0225241)
(10.0216 -0.0615899 -0.00238195)
(9.93027 0.00519974 -0.00961691)
(10.0162 0.0134441 -0.0243907)
(9.97118 0.0614442 -0.0132998)
(9.75951 0.000220133 0.0042031)
(10.0018 -0.0428319 0.0182846)
(10.0647 0.0259048 0.0100083)
(10.0366 0.00289823 -0.0267103)
(9.93045 0.0526934 0.0161447)
(9.99326 0.0090402 -0.0164666)
(10.0177 0.0178214 -0.0287682)
(10.0372 0.0141222 -0.0449151)
(9.98839 0.0041319 -0.0138381)
(10.024 0.0083249 -9.604e-05)
(9.99046 0.0244456 0.0380258)
(10.0315 -0.0346027 -0.0131195)
(9.88851 0.0318974 -0.0107161)
(9.90953 0.0257462 -0.0125939)
(10.0141 -0.0113057 -0.00724712)
(10.0393 0.0263758 -0.0114603)
(9.92264 0.00524468 -0.00709572)
(9.99713 -0.0337597 0.00117377)
(10.0025 -0.0305045 0.00115762)
(10.0434 -0.00139353 -0.0230892)
(9.99345 -0.0326119 -0.00341106)
(9.95754 0.00998916 -0.00700737)
(9.91013 0.00639936 -0.00380208)
(9.91554 -0.00672469 0.00807523)
(9.97599 0.00487507 -0.00147124)
(9.98816 0.00302552 -0.00268928)
(10.0092 -0.0431857 0.0259138)
(10.0219 -0.00823659 -0.000224087)
(9.98376 -0.00172592 0.00410738)
(9.95952 -0.0239748 0.00302145)
(9.82359 -0.00272391 -0.0681696)
(9.8943 -0.0264703 -0.00407773)
(9.95741 -0.0105082 0.000759756)
(9.858 -0.00557915 -0.0463724)
(9.84543 -0.00893943 -0.0506608)
(9.97601 0.0110138 0.00917464)
(9.94987 -3.24265e-05 -0.0155626)
(9.86639 0.00589211 -0.0117804)
(9.84879 -0.011673 -0.00599392)
(9.93025 0.0275144 -0.00767769)
(9.93405 0.0392051 -0.0065487)
(9.81596 0.0476871 0.00358744)
(9.85721 0.0309904 -0.000574978)
(9.92686 0.0336739 -0.00541667)
(9.95572 -0.0203054 0.0174172)
(9.99258 -0.0215478 0.01608)
(10.0058 0.0127888 -0.0692635)
(10.0267 0.00928176 -0.0466575)
(10.0097 -0.0179467 -0.0458186)
(9.78849 0.00607104 -0.000351024)
(10.0036 0.0118078 0.00135521)
(9.9857 0.00997779 0.00632654)
(9.77293 0.00257975 0.00234674)
(9.76845 0.00329413 9.37395e-05)
(9.97367 -0.00718605 -0.00789217)
(9.93191 0.0138699 0.00213787)
(9.97306 -0.00659913 -0.00698181)
(9.89724 0.0170372 0.0103538)
(10.008 -0.00627984 -0.0072901)
(10.0295 0.004392 -0.00684578)
(10.0389 -0.0252461 -0.00963027)
(9.91428 0.00524715 0.014227)
(9.91848 -0.00104762 0.0260631)
(9.91598 -0.0215921 -0.00994029)
(9.94076 -0.019946 0.00363816)
(9.94644 -0.0111324 -0.00659067)
(10.016 -0.013171 0.00442059)
(9.88809 -0.0348104 -0.0196501)
(9.92575 0.000711213 -0.0114333)
(9.85363 -0.0228107 0.0255291)
(10.0462 0.0107532 0.00662608)
(10.0656 -0.00408031 -0.00695737)
(9.83872 -0.00438657 0.0259716)
(10.0052 -0.03618 0.0251478)
(9.92707 -0.0298139 -0.00512726)
(10.0016 0.0255234 0.0140217)
(10.0029 0.0064675 -0.0191203)
(9.86874 0.0153771 -0.019167)
(9.89135 0.0228256 -0.0225269)
(9.92943 0.00479059 0.0106714)
(10.0387 -0.000393598 -0.00584643)
(9.99875 -0.00337534 -0.0223225)
(9.97251 -0.0173766 0.000117315)
(10.0826 0.0295582 0.0349553)
(9.97941 0.0145463 0.0284794)
(9.98573 0.00442756 0.00376675)
(10.0357 -0.000451967 -0.0160383)
(10.0431 0.0370642 0.0114761)
(10.0437 -0.0231637 -0.00497946)
(9.90628 0.0230687 0.0118618)
(9.98353 0.000195611 0.000157393)
(9.98788 -0.0124429 -0.00330752)
(10.0129 0.0160384 0.018322)
(10.0054 0.0286209 0.00380769)
(10.0548 0.0139549 0.0263678)
(10.0037 0.0082667 0.012284)
(9.86703 0.00734235 0.00540339)
(9.97644 0.0296262 -0.0067112)
(10.0158 0.000997788 -0.0305015)
(9.99828 -0.00667348 -0.000721406)
(10.0104 -0.00646505 -0.00886415)
(9.97853 -0.0185979 0.00563249)
(9.98983 -0.00372001 0.00304739)
(9.98165 -0.0214537 -0.00334237)
(9.96311 -0.00953012 0.0292731)
(9.98732 -0.0343114 0.00913377)
(9.97495 0.0659768 -0.011679)
(9.8563 0.00932061 -0.0100446)
(10.0217 -0.0298987 0.0134696)
(9.98724 -0.0216403 0.0139603)
(10.0008 0.00166727 -0.0247215)
(10.0395 -5.83803e-05 0.021555)
(9.9982 0.0285567 -0.0106867)
(10.0302 0.00137964 -0.00801984)
(10.019 -0.00719036 -0.0295747)
(10.0022 -0.0189829 -0.0234093)
(10.0134 -0.00547054 -0.00111017)
(9.99122 -0.00765745 -0.0452466)
(9.93118 0.0212798 -0.00792553)
(10.0743 -0.0320921 -0.0201836)
(10.0969 0.030134 0.018643)
(9.96764 0.0238157 -0.0292876)
(10.0231 0.00223222 0.0195435)
(9.96185 0.0400688 0.00843185)
(10.058 -0.00318047 0.0394807)
(10.0036 0.0158158 0.022834)
(9.85889 0.000270196 -0.0189884)
(9.96517 -0.00605896 -0.00672818)
(9.97875 -0.0121002 0.0257536)
(9.98355 0.00359128 0.0356531)
(9.99042 -0.0288828 -0.0148936)
(9.98728 0.00895981 -0.00345853)
(9.98058 -0.00229019 0.030528)
(9.93266 -0.00416078 0.0120421)
(9.9459 0.02355 0.0170427)
(9.9816 0.0191983 -0.0215258)
(9.9151 0.01218 0.00740963)
(9.95256 -0.0519782 0.00739914)
(9.99182 0.0101184 -0.000365689)
(9.96139 0.00805161 0.0176948)
(9.94981 -0.01003 0.0133839)
(10.019 -0.0277127 0.00679302)
(10.0455 0.015713 -0.0263375)
(10.0268 0.00190666 0.039609)
(10.0017 -0.008504 -0.00907715)
(9.985 0.00841226 -0.000410533)
(9.9769 0.0144872 0.0204633)
(9.9597 0.003453 -0.00491605)
(9.90697 0.00706916 -0.00078917)
(10.0144 0.0304056 -0.00977328)
(10.0421 0.0193704 1.67097e-05)
(9.94644 -0.0296769 0.039452)
(10.0194 0.00940308 -0.0172959)
(10.0256 -0.0197363 -0.00382705)
(10.0112 0.0213823 0.0330065)
(10.0348 -0.0352277 0.0254537)
(10.0946 -0.0500533 -0.00796791)
(9.95948 -0.010093 -0.0118888)
(10.0383 -0.00422879 -0.0163786)
(10.0675 -0.0116539 0.00644811)
(9.98672 0.000967375 0.00839942)
(9.98009 0.0124602 -0.00508844)
(9.95064 -0.00582129 0.00767213)
(10.0233 -0.000956559 -0.0179959)
(9.94666 -0.0100072 -0.021758)
(10.011 -0.00953876 -0.0203235)
(9.99992 0.00329562 0.0173839)
(10.0438 0.00582799 0.00267166)
(10.0093 -0.000997594 0.00321465)
(9.99969 -0.00813643 -0.0157562)
(9.95181 -0.0265457 0.000302492)
(9.97414 0.0132127 0.00165419)
(9.94226 -0.00591579 -0.0125371)
(9.96491 -0.0141641 0.00579656)
(9.97629 0.024056 -0.00662453)
(10.0433 0.00101579 -0.0148613)
(9.9821 0.0237701 -0.0139019)
(10.0002 0.015949 -0.0175982)
(10.034 -0.0332774 0.00056622)
(10.0079 -0.031665 0.00446162)
(9.9976 -0.0339179 -0.00162498)
(9.98492 -0.0332956 -0.00233039)
(10.0371 -0.0397697 -0.0209261)
(9.7943 -0.00677089 0.0119882)
(9.81895 -0.021341 0.0172639)
(9.83973 -0.0145859 0.0229467)
(9.85407 -0.0252053 0.0052031)
(9.87163 -0.0248052 0.0092493)
(9.83125 -0.0239947 0.00603549)
(9.96462 0.0333683 -0.0258125)
(10.0239 0.0199199 0.0095666)
(9.86634 -0.0161047 -0.0341028)
(9.98284 0.0509801 0.0116786)
(10.1042 -0.0551127 0.00485819)
(10.0151 0.00991611 -0.0325099)
(10.0063 0.0276777 -0.00205908)
(10.0529 0.0500434 0.037425)
(9.87131 0.0130017 -0.0193588)
(9.88375 0.00925585 -0.0117068)
(9.86632 0.013483 -0.00723312)
(9.98384 -0.0168259 -0.0161538)
(10.0034 0.00941899 -0.0327144)
(9.98209 0.0033786 0.0139179)
(10.0152 -0.0416831 -0.0255327)
(9.94424 -0.00404608 0.00528329)
(9.90862 0.0142348 -0.00172692)
(9.91116 0.00542945 -0.0227126)
(9.94948 -0.0461696 -0.0343268)
(9.87102 0.0166507 -0.00873824)
(10.0474 -0.039755 -0.00548096)
(10.0199 -0.0368243 -0.0227612)
(9.94059 -0.00205303 -3.55158e-05)
(10.0148 0.0301756 0.0206216)
(9.94293 0.0129217 -0.0116159)
(9.96821 0.0180362 -0.00252236)
(10.0092 -0.00245176 -0.00875228)
(10.093 -0.0439883 -0.00429427)
(10.0534 -0.00202215 0.0575516)
(9.89727 0.0193875 -0.0145783)
(9.97727 0.00786445 -0.000993525)
(10.0265 -0.00892765 -0.0184256)
(10.0071 0.00854529 -0.0123283)
(10.0083 -0.00525717 -0.00302845)
(9.9905 -0.0317089 0.00449853)
(10.0143 -0.000704555 0.00151462)
(9.99905 -0.00368246 -0.00725839)
(9.96322 0.00651285 0.0260404)
(9.90748 -0.00211065 0.00214641)
(9.96022 -0.00200096 -0.00904625)
(9.83491 -0.00602205 -0.054803)
(9.86347 -0.00654223 -0.0347775)
(9.931 0.0146534 0.00736121)
(9.96153 -0.0159265 0.0138971)
(9.91519 -0.00623734 0.0314254)
(9.92272 -0.00637167 0.0140605)
(9.98087 -0.0726008 0.00263841)
(9.97993 -0.0498379 -0.00267335)
(9.98685 -0.0466223 -0.0156837)
(9.99011 -0.00258488 0.00776807)
(9.97653 -0.012413 -0.00187694)
(10.0297 -0.00295081 0.0100318)
(9.92956 0.00578404 0.00697952)
(9.99661 -0.00127126 0.0170245)
(10.0095 -0.0464998 -0.0410547)
(9.98398 0.0108824 -0.000427974)
(9.95633 -0.00733052 0.00328769)
(10.0026 0.0352264 -0.0152848)
(10.0249 0.00420393 -0.00039132)
(9.97097 -0.0242303 0.00739137)
(9.95645 -0.0269271 0.00394073)
(9.96627 -0.00662454 -0.0214456)
(9.81757 -0.025219 -0.00133809)
(9.83881 -0.0249044 -0.00995204)
(9.9478 0.0362371 0.019082)
(9.7985 -0.00934731 -0.0197022)
(9.92828 -0.00073099 -0.0224867)
(10.0616 -0.0174264 0.0548142)
(10.0261 0.026392 -0.0225994)
(10.0024 0.023343 -0.00285329)
(10.0056 0.0400269 -0.0206123)
(9.97844 0.0159167 -0.0152458)
(10.0336 0.000500556 0.0284954)
(9.99928 -0.0226005 -0.00141734)
(9.93896 0.0260285 0.000313547)
(9.9875 -0.0357913 0.0227629)
(9.93248 0.01441 0.00710892)
(10.0296 0.00588255 -0.00476871)
(9.95698 0.0126997 -0.00509482)
(9.93149 0.00320651 0.0160371)
(10.0369 0.0285359 0.00807263)
(9.93993 -0.0275993 -0.0196744)
(10.0225 0.0549426 -0.025046)
(9.93387 -0.0297343 -0.0226597)
(9.99258 -0.0186583 0.00525416)
(9.91149 -0.0113324 -0.0348472)
(9.92391 0.0215209 -0.0673176)
(9.98539 -0.0366455 -0.0176402)
(9.94172 0.0176155 0.00374514)
(9.91762 0.00974622 0.0165206)
(10.0633 -0.0023917 0.00647652)
(10.022 -0.0033405 0.0209588)
(10.1098 0.00338787 0.0137035)
(10.0067 0.0154717 -0.00484641)
(9.99309 0.0101518 -0.000168468)
(10.0096 0.00984038 0.00131258)
(10.0185 0.0178019 0.00141198)
(9.98623 0.00580905 -0.00451811)
(9.98048 0.00475955 0.002924)
(10.0127 -0.00923321 -0.00600938)
(9.99899 -0.00312709 0.00475213)
(10.0115 -0.00526942 0.00523498)
(10.0163 0.00183647 0.00370407)
(10.026 -0.00257541 -0.00117603)
(9.95446 0.000858148 0.00825889)
(9.98254 0.00827799 -0.00424231)
(10.0142 -0.00597757 -0.00222156)
(9.99066 -0.0086047 0.0267109)
(9.97003 -0.0142059 0.0174591)
(9.97047 -0.0231029 -0.00297787)
(10.0099 -0.00882251 -0.0083453)
(9.98175 -0.00684009 0.0184245)
(9.98134 -0.0246783 0.0109807)
(9.98835 -0.0206733 -0.00511688)
(9.99598 -0.0130712 0.0131249)
(10.0185 -0.0285274 0.00340737)
(10.0327 -0.0206855 -0.000730065)
(9.99389 0.0125821 -0.00581283)
(10.0185 -0.00560128 -0.00527905)
(9.91651 -0.00579468 0.00225389)
(9.93079 0.00330541 -3.09887e-05)
(9.98119 0.0194936 -0.00291768)
(9.9904 0.0275332 -0.00750482)
(9.93031 -0.0109777 0.00521859)
(10.0338 0.00140649 -0.0172339)
(9.97062 0.0144836 0.0110464)
(10.0158 0.0160218 -0.0207201)
(9.97675 0.0153959 -0.00882498)
(9.85435 -0.0233372 0.0245148)
(9.84405 -0.00243586 0.0127826)
(9.88413 0.00242028 0.00433744)
(9.78973 0.000290225 0.00416438)
(9.78128 0.0209233 0.00290768)
(9.79371 0.0328789 -0.000246336)
(10.0118 0.0144674 0.0100364)
(10.069 0.0126116 0.0356565)
(10.0534 0.00422913 -0.00749233)
(9.98454 0.00898381 -0.038492)
(9.98946 -0.0147956 -0.00810006)
(9.86822 -0.00929227 -0.0476236)
(9.90151 -0.00745941 -0.0420533)
(9.84393 -0.00263558 -0.0474699)
(9.97649 -0.00767951 -0.0143762)
(9.92803 0.0161817 0.00751525)
(9.98881 0.020586 0.00311721)
(9.98278 0.0190274 0.012113)
(9.98922 0.00955139 -0.00112574)
(9.95198 0.0172358 0.0129405)
(9.93605 0.0215075 0.0106054)
(9.95526 -0.0150473 0.0054278)
(9.9794 -0.00870756 0.0204284)
(9.95998 0.0168682 0.0117618)
(9.97266 -0.00684461 0.0246397)
(9.99409 0.0108165 0.0163542)
(9.93929 -0.0124518 0.00495171)
(9.88577 -0.00137189 -0.0404912)
(9.83137 -0.0048184 0.00292028)
(9.87459 0.0263245 0.0168989)
(9.96105 -0.00781979 -0.0200052)
(9.96164 0.000265667 -0.0172428)
(9.90973 0.0264076 -0.00660261)
(9.89703 0.0306319 -0.00637057)
(9.95011 0.0122473 0.00562813)
(9.98681 -0.00965906 -0.033931)
(9.99502 -0.0193412 0.0134578)
(9.89856 0.00699077 -0.00962517)
(9.9932 0.00724477 -0.00596632)
(10.0516 0.0478052 0.0102747)
(9.96246 -0.0484298 -0.0112217)
(10.0033 -0.00685737 0.0101194)
(9.96128 -0.033807 -0.00774457)
(10.0336 -0.0144262 0.00475014)
(9.99534 0.0114175 0.0274354)
(9.98713 0.010425 0.00966336)
(9.99223 0.00391085 -0.0212458)
(9.80634 0.00958177 0.0114686)
(9.89225 -0.00753498 -0.0143539)
(9.99172 -0.00345999 0.000208985)
(10.0043 0.00226613 0.00337262)
(9.99042 -0.00237708 -0.0175318)
(9.91553 -0.000404981 -0.00173683)
(10.0126 -0.0425687 0.00304808)
(9.9727 -0.0436832 -0.0172647)
(9.89341 0.00762334 -0.00953079)
(9.97469 -0.0273254 -0.0288071)
(10.0163 -0.0278407 0.0399438)
(10.0672 -0.0288335 0.0341634)
(9.93405 0.00430008 0.00247142)
(10.0171 -0.00623478 -0.00960549)
(9.93366 0.0096119 0.00969198)
(9.95033 -0.0186888 0.00590161)
(9.95602 0.0140678 -0.0177699)
(9.98059 0.0211213 -0.0132734)
(9.98706 0.00181967 -0.0400891)
(9.96413 -0.0254722 0.00181973)
(9.98646 0.00901135 -0.0135034)
(9.84877 -0.014757 0.00066271)
(9.83406 -0.00515785 0.00506974)
(9.84638 -0.00919358 0.00334626)
(9.8897 0.00587174 0.0117229)
(9.95826 0.0147994 0.00954792)
(10.0248 -0.011292 -0.0345806)
(9.93908 -0.0176831 0.0313743)
(10.0113 -0.0153285 0.000494617)
(9.95985 0.00593445 -0.0125188)
(9.99976 0.0212256 0.000807276)
(10.0088 0.0391812 -0.0142487)
(9.98217 -0.00189366 0.0142796)
(9.92588 0.0702558 0.00848646)
(9.91222 0.00741382 -0.024343)
(9.97165 -0.00578054 -0.0127859)
(9.97324 0.0176947 -0.00870767)
(9.95134 -0.0119605 0.00992717)
(10.0289 -0.0348629 -0.00753068)
(10.0324 -0.0421672 0.00827021)
(10.0421 0.0132991 -0.00640771)
(9.98535 0.0050808 -0.00305427)
(9.9881 -0.028467 0.0263744)
(9.98328 -0.041495 0.0287662)
(10.0337 0.0195471 -0.00329604)
(10.0007 -0.0304846 0.0198593)
(9.9313 -0.00325662 -1.56823e-05)
(9.9575 -0.0330163 0.0202358)
(9.95926 -0.0309915 0.00921911)
(10.0015 0.0189834 0.00969844)
(9.98089 -0.00604732 -0.0160446)
(10.0245 -0.00716222 -0.0019205)
(10.0399 -0.000797722 0.0117305)
(10.0078 0.00871246 -0.0217808)
(9.99732 -0.0101261 -0.0182373)
(9.91793 -0.000129134 0.0466302)
(10.0714 0.0352718 0.0293881)
(10.0434 0.0310227 0.0323191)
(9.91466 0.0140957 0.00439211)
(9.9814 0.00681658 0.0118908)
(10.0332 -0.00487199 0.00127187)
(9.97843 -0.0172885 -0.0332028)
(9.85845 0.0254339 -0.00350194)
(9.97788 -0.00138161 0.00516313)
(9.94589 0.0180821 0.0066166)
(9.95894 0.0106164 0.00718643)
(10.0044 0.0236139 0.00297474)
(9.97442 -0.00931761 0.0193727)
(9.9832 -0.00298213 0.00259633)
(10.0625 -0.0323791 0.012911)
(10.0348 -0.0326459 -0.0181256)
(9.98202 0.0121338 0.00293897)
(10.0107 -0.0450155 0.00701079)
(9.98713 0.00124449 -0.00634017)
(9.97499 0.00232383 0.00747553)
(10.1138 -0.0509562 -0.0187879)
(9.9372 -0.0142023 0.0225055)
(10.0103 -0.0149655 -0.0208556)
(10.0029 -0.0038231 0.00518112)
(10.0298 -0.000679653 0.00211635)
(10.0347 -0.0281506 0.00468334)
(10.0738 -0.0424576 0.00738738)
(10.0348 0.0192175 -0.00303967)
(10.0313 0.0140196 0.0107004)
(10.0269 0.0153372 -0.000247524)
(9.97701 -0.0382412 -0.0114641)
(9.98008 -0.0033749 -0.0464004)
(9.93557 -0.0126259 -0.00513432)
(9.97892 -0.00939594 0.0298275)
(9.9766 0.0188726 -0.0014912)
(9.94552 -0.0192347 -0.0248481)
(10.0423 -0.00832212 0.0237906)
(10.0224 -0.0242276 0.00407576)
(9.96011 -0.000799297 -0.0110457)
(10.0271 -0.0105161 0.0099279)
(9.98367 -0.0274388 3.3759e-05)
(9.99479 0.0526377 -0.0184407)
(9.971 -0.0272579 -0.00775641)
(9.99758 0.0227811 0.0345522)
(9.99361 0.0252943 0.00734795)
(10.0183 0.00838869 -0.0271578)
(10.0437 -0.0038991 -0.0178344)
(10.0181 0.0248056 -0.001749)
(10.0011 -0.0351656 0.000678804)
(9.97746 -0.0927677 0.0262956)
(9.97251 0.0405785 -0.00424326)
(9.9626 -0.0231455 -0.0063427)
(9.97275 0.0180636 0.0141638)
(9.98064 0.0116219 -0.00693439)
(9.95198 0.00258421 0.0109846)
(10.0137 0.0322368 -0.0397542)
(10.0039 0.0330156 -0.0176242)
(9.92506 0.00304803 -0.0171151)
(10.033 0.0474248 0.0407089)
(9.99019 0.0181739 0.0121774)
(10.0546 0.02578 0.0324095)
(9.97341 0.013033 0.00805699)
(10.027 0.000440295 0.0145084)
(9.95122 -0.0138413 -0.00457665)
(9.94608 0.00883441 -0.0022976)
(9.93082 0.00128968 0.00163928)
(9.97949 -0.0266751 -0.00551357)
(10.102 -0.0494566 -0.00968999)
(10.0063 0.00410779 0.0240771)
(10.0264 -0.0290857 -0.0198734)
(10.0246 0.000628064 -0.0062114)
(9.95732 -0.0179201 -0.00346156)
(10.0499 -0.00994711 0.00486953)
(10.005 -0.0387898 -0.0244643)
(10.0017 -0.0714226 0.0202452)
(9.97484 -0.0315022 0.0274794)
(9.99133 0.0432051 0.00969158)
(9.94988 -0.00138886 -0.0245442)
(9.9775 0.0265837 -0.00122198)
(9.97642 -0.0289269 -0.00482037)
(9.91204 0.0108094 0.0204625)
(9.95059 0.0332237 0.014013)
(9.97237 0.0141631 -0.0215918)
(10.0099 -0.0502198 -0.00341557)
(9.99694 0.0212406 0.000690919)
(9.99784 0.0132643 0.00386378)
(10.0151 0.0152079 -0.0160115)
(10.0226 0.00440508 -0.0184598)
(9.99528 0.0226317 0.00299581)
(9.98008 0.0143399 0.0213607)
(10.018 0.0101048 -0.0196328)
(9.9724 0.0139859 -0.0219827)
(10.015 -0.00219721 0.00261586)
(9.94405 0.00689821 0.0109946)
(10.0287 -0.00702337 -0.0205513)
(10.0312 -0.0124099 -0.0231578)
(10.0061 -0.0129142 -0.00107391)
(10.0056 0.00439319 -0.00582015)
(9.97662 0.0145635 -0.013765)
(10.0093 0.0172582 -0.00765873)
(9.8746 0.0180158 0.0257271)
(9.90673 -0.0766639 0.00579587)
(9.99732 0.0295465 0.00897572)
(9.95979 0.000943461 0.00174223)
(9.98316 -0.0346284 0.038293)
(10.0436 -0.0293567 0.0172935)
(10.0076 -0.00164182 0.0111046)
(10.0587 -0.0162498 0.0140388)
(9.98288 -0.0146891 -0.00437489)
(10.0256 -0.0293361 -0.01796)
(9.88185 0.0134652 -0.016147)
(9.97948 -0.0220603 0.0343622)
(9.98263 0.0279356 -0.00759233)
(10.0243 0.00382861 -0.017283)
(10.0576 -0.00364143 -0.0119956)
(9.99439 0.0286851 -0.00234595)
(9.94281 0.0111044 -0.00330871)
(9.97033 0.0257786 0.0133613)
(9.88958 0.0314336 0.013343)
(10.0343 0.0235407 0.00228722)
(10.0411 -0.0105481 0.0115131)
(10.0474 0.00043687 0.00623583)
(9.97015 0.00128025 -0.0367433)
(9.97641 -0.00629435 0.0217275)
(10.0154 0.025872 -5.27845e-05)
(10.0164 0.00937851 -0.0189989)
(10.0286 -0.0262017 0.0127803)
(9.94036 0.000435273 -0.0067137)
(10.0321 -0.00783897 -0.00529582)
(10.0205 -0.00414667 -0.0235733)
(10.0018 -0.0209963 -0.0107274)
(9.92184 -0.0190961 0.0237079)
(10.114 -0.0516917 0.0175551)
(9.9575 -0.0257 -0.0126156)
(10.0191 0.0214188 0.0172525)
(9.99191 -0.0125523 -0.0289164)
(9.85073 -0.0040257 -0.0132241)
(10.0166 -0.0193728 0.0147267)
(9.99498 0.00215295 -0.000130339)
(9.93629 4.77078e-05 0.0171069)
(9.97656 -0.0213123 -0.0146736)
(10.0485 0.00499359 0.00166473)
(10.0359 0.0224284 -0.00143784)
(10.0393 0.00688503 -0.0044855)
(9.99792 0.00897785 0.0258181)
(9.93745 0.069738 0.00794455)
(9.98428 0.0111676 0.00900745)
(9.95681 -0.0348382 -0.00544552)
(10.0212 -0.0286395 -0.0143175)
(10.017 -0.0332621 -0.00468352)
(9.98872 -0.0255131 0.0209445)
(10.0233 -0.0202623 0.00316871)
(10.023 0.00135074 -0.012048)
(10.0343 0.0418213 0.00478214)
(9.96515 0.0093364 0.00216669)
(10.0229 0.00805431 0.0221795)
(9.96529 0.0108982 0.00434836)
(9.93283 -0.0446369 0.00345507)
(10.0117 -0.0217737 -0.0154538)
(9.96375 -0.0319305 0.00670145)
(9.81093 -0.00569311 -0.0321985)
(9.96121 -0.0372684 0.00460573)
(10.0056 0.0122652 0.0139407)
(9.97971 -0.0206541 -0.0166463)
(10.0402 -0.0208514 0.0101311)
(10.0411 -0.0203226 -0.0363772)
(9.98553 -0.0318639 0.02966)
(9.99467 0.015786 -0.00557762)
(9.99002 0.000100096 0.00472337)
(9.98375 -0.00389589 -0.00732645)
(10.0482 0.0130081 0.00269212)
(10.0014 0.0017143 -0.0506559)
(10.0084 -0.0380692 0.00909876)
(10.0947 0.000161838 0.0125642)
(10.0103 0.0131534 -0.000529879)
(10.0421 0.00527976 0.000408817)
(9.91797 0.0165635 -0.0519286)
(10.024 -0.020683 -0.0184741)
(9.96 -0.0134748 -0.0102853)
(9.9749 -0.00934331 -0.014204)
(10.0168 0.0257287 -0.00530169)
(10.0269 0.010492 -0.0192591)
(10.0254 0.0196709 0.00747077)
(9.97462 0.016943 0.00675829)
(9.98149 0.0187832 0.00321512)
(10.015 0.00188833 -0.021815)
(9.99369 0.0347736 0.000754918)
(9.88034 -0.0272413 0.0248158)
(9.99013 -0.00302452 0.0201043)
(9.93903 0.00905382 0.00533185)
(9.97902 0.000335692 0.0420089)
(9.97461 -0.0101617 0.0131186)
(10.0434 -0.00134077 -0.00670317)
(9.9531 -0.00359964 0.00035278)
(9.94676 -0.0278816 0.00417875)
(9.98901 0.00978759 0.0212702)
(10.0136 -0.00882006 0.0135695)
(9.9787 0.0272464 0.00438176)
(10.0138 0.0133554 0.0114833)
(9.99314 0.000664487 0.00974945)
(9.99037 0.0285395 -0.0211537)
(10.0158 0.0016195 -0.00912773)
(9.99596 0.0136495 -0.0207843)
(9.93569 -0.0107731 -0.0252794)
(9.99415 -0.0335003 -0.00207124)
(9.95556 0.0570019 0.00865549)
(10.0059 -0.0525576 0.00322759)
(9.98847 -0.0186138 0.0350375)
(10.0388 0.00544272 0.0138659)
(10.0238 0.0474892 0.000508301)
(9.97283 -0.0153422 -0.00516122)
(10.0316 0.00483547 -0.00596381)
(9.97794 0.0130753 0.0265195)
(10.0305 0.0157292 0.0140072)
(9.97341 -0.00904744 -0.0217572)
(9.84662 0.0343346 0.0106543)
(9.98805 0.0177632 0.00466664)
(9.9883 0.0138411 0.015569)
(10.0541 0.00382499 -0.0254925)
(10.0164 0.00256659 -0.00334565)
(9.97423 -0.000782726 0.00124174)
(10.0045 0.000524905 0.0363692)
(10.0227 -0.0130519 -0.0231959)
(10.0159 -0.00781377 0.00122149)
(10.0416 -0.0177238 -0.0268505)
(10.0346 -0.0204669 0.00970851)
(10.0627 0.0255228 0.00638506)
(10.0688 0.0274559 0.00262994)
(9.93701 -0.0105193 -0.0169481)
(10.0107 -0.00940961 -0.0163713)
(10.0376 0.0263324 -0.0193224)
(10.0341 0.0364667 -0.0171733)
(9.97283 0.00602391 -0.0134158)
(10.0283 -0.00771218 0.0109256)
(9.95753 -0.0207591 0.00419208)
(10.0171 -0.0233406 -0.00527318)
(9.96748 -0.00908757 0.000261279)
(10.0058 0.0207365 0.0190302)
(9.96819 0.0525421 0.00872883)
(9.94874 -0.0142652 0.00945836)
(9.94825 -0.0139015 0.00821907)
(9.98984 0.0160612 0.00512894)
(10.0113 0.0153055 0.0291055)
(10.0924 0.0210043 0.0492079)
(9.98648 0.0273053 -0.0227174)
(10.0048 0.012794 0.0408989)
(10.0042 0.0158239 -0.0321252)
(10.0044 0.0219192 -0.00490183)
(10.0173 0.0124653 -0.0259786)
(9.99402 -0.0218896 0.0306141)
(9.99137 -0.0148882 -0.0174623)
(9.9649 -0.0224463 0.0234136)
(9.93051 0.00540433 0.0127633)
(9.99164 0.00926953 -0.0152502)
(9.9946 0.0255379 0.0312603)
(9.86265 -0.0127591 0.0264131)
(10.0056 0.00873001 0.0111375)
(10.026 0.0209124 -0.0223697)
(10.0097 -0.0183159 -0.0156396)
(10.0073 -0.0061647 0.00824093)
(9.82871 -0.0190502 -0.00299323)
(10.0021 -0.0164888 0.0103059)
(10.0303 0.0156543 0.0189852)
(9.9869 -0.0283375 0.0213483)
(10.0438 0.0210875 0.00660819)
(9.93972 0.0127673 0.000689287)
(9.97173 -0.0121455 0.0335613)
(10.0081 -0.024785 -0.00464628)
(9.9528 0.00750771 0.00391309)
(10.0494 0.00765676 0.00192519)
(10.0361 0.0213298 0.00548855)
(9.99732 -0.012068 -0.00525973)
(9.9092 -0.00181114 0.0108296)
(9.99128 -0.0236031 -0.00466487)
(9.99506 -0.0177929 -0.0235054)
(9.97872 -0.0261705 -0.00350137)
(10.0204 -0.048459 0.0216006)
(10.0435 0.0109271 0.00130262)
(9.97629 -0.0223872 0.0142325)
(9.96435 -0.0279287 -0.00292528)
(10.0242 -0.00623411 -0.00753343)
(9.99991 -0.0283044 -0.0118545)
(10.0175 -0.0593117 0.01429)
(10.0056 0.0140691 0.0218975)
(10.0378 0.00574691 0.0100847)
(10.0639 0.030254 -0.00149177)
(9.92408 -0.00487931 -0.0239294)
(9.99546 0.015545 0.0342598)
(10.0414 0.0104553 0.0105161)
(9.99571 0.023179 -0.00266274)