/*--------------------------------*- C++ -*----------------------------------*\
| =========                 |                                                 |
| \\      /  F ield         | OpenFOAM: The Open Source CFD Toolbox           |
|  \\    /   O peration     | Version:  2506                                  |
|   \\  /    A nd           | Website:  www.openfoam.com                      |
|    \\/     M anipulation  |                                                 |
\*---------------------------------------------------------------------------*/
FoamFile
{
    version     2.0;
    format      ascii;
    arch        "LSB;label=32;scalar=64";
    class       volScalarField;
    location    "0.0263738";
    object      k;
}
// * * * * * * * * * * * * * * * * * * * * * * * * * * * * * * * * * * * * * //

dimensions      [0 2 -2 0 0 0 0];

internalField   nonuniform List<scalar> 
3989
(
0.367283
0.375824
0.353651
0.364014
0.362301
0.36312
0.360057
0.354325
0.366418
0.353094
0.3791
0.360392
0.374194
0.36494
0.361729
0.378013
0.369097
0.35769
0.360839
0.363776
0.384158
0.358753
0.35345
0.354452
0.365123
0.3559
0.378228
0.363757
0.367484
0.365413
0.366641
0.355575
0.366085
0.366505
0.378572
0.369231
0.362423
0.357365
0.358596
0.361666
0.3566
0.360676
0.366217
0.362136
0.375303
0.364523
0.362492
0.382457
0.36962
0.356484
0.354385
0.365364
0.36688
0.366171
0.355163
0.360143
0.365637
0.35521
0.378011
0.362754
0.355656
0.386212
0.584089
0.736425
0.369246
0.371321
0.352219
0.358184
0.350811
0.348983
0.388243
0.360702
0.360155
0.360113
0.359706
0.360185
0.35863
0.357885
0.368525
0.356292
0.365689
0.365056
0.357314
0.357616
0.363044
0.38585
0.362845
0.365951
0.354034
0.361416
0.360737
0.358422
0.36546
0.356109
0.358738
0.363366
0.359545
0.354607
0.360129
0.34928
0.358887
0.360533
0.363687
0.37807
0.35409
0.369719
0.360741
0.356011
0.359201
0.376946
0.351056
0.360949
0.375381
0.377977
0.364713
0.377524
0.370648
0.353725
0.364096
0.376554
0.369588
0.366134
0.359013
0.36438
0.375854
0.358841
0.362666
0.358321
0.380129
0.359623
0.368277
0.380402
0.375965
0.384451
0.376877
0.389618
0.360146
0.360391
0.363574
0.360021
0.366167
0.36496
0.348366
0.368802
0.364572
0.392434
0.358251
0.344112
0.357734
0.350005
0.354585
0.36937
0.361411
0.373301
0.40088
0.387651
0.354368
0.349045
0.356627
0.377543
0.367146
0.359395
0.362798
0.375744
0.37763
0.376222
0.355942
0.364788
0.363776
0.344804
0.356211
0.367389
0.389081
0.355377
0.362973
0.35714
0.360275
0.361682
0.375595
0.358027
0.383286
0.358405
0.371415
0.361398
0.384536
0.357531
0.363217
0.361466
0.359359
0.367049
0.353083
0.363751
0.364836
0.400111
0.356975
0.414984
0.749728
0.384101
0.360358
0.366158
0.381205
0.364253
0.388956
0.363449
0.379713
0.361105
0.360511
0.363038
0.411455
0.416706
0.360021
0.437698
0.43833
0.35274
0.3518
0.763346
0.433774
0.373564
0.383944
0.368447
0.356308
0.35711
0.364259
0.364026
0.385892
0.352134
0.355264
0.362822
0.378466
0.356903
0.373888
0.381689
0.361877
0.362055
0.363759
0.400647
0.396868
0.358273
0.361456
0.35068
0.374182
0.362592
0.363592
0.388693
0.37945
0.369602
0.37822
0.363955
0.362733
0.361528
0.379651
0.361959
0.365932
0.363457
0.374014
0.358722
0.377474
0.375483
0.361972
0.367076
0.352615
0.35328
0.358739
0.353872
0.358042
0.375553
0.363614
0.422169
0.386669
0.380569
0.373363
0.379444
0.376866
0.358237
0.374843
0.352007
0.397617
0.381608
0.354511
0.384476
0.357572
0.361031
0.369827
0.360963
0.359254
0.356395
0.362425
0.389126
0.381325
0.387256
0.376727
0.378647
0.381887
0.34749
0.357073
0.372786
0.358255
0.366634
0.495062
0.441093
0.350828
0.394857
0.380136
0.390946
0.384121
0.421577
0.351893
0.364942
0.3619
0.365426
0.356231
0.354797
0.441339
0.479707
0.363
0.375889
0.36104
0.353806
0.353742
0.352096
0.360805
0.35539
0.351155
0.360997
0.364154
0.389789
0.371136
0.380849
0.376293
0.355836
0.358706
0.366675
0.393072
0.353728
0.3651
0.357957
0.349909
0.362181
0.376935
0.366618
0.437343
0.35566
0.354402
0.351928
0.35714
0.377153
0.582357
0.369968
0.355276
0.359857
0.362793
0.35618
0.35722
0.3533
0.353243
0.376704
0.360187
0.349562
0.863575
0.354391
0.347006
0.375196
0.368324
0.621542
0.440014
0.367588
0.35642
0.358295
0.353564
0.359907
0.357275
0.353351
0.387885
0.367965
0.348173
0.363481
0.351772
0.36352
0.350017
0.355188
0.376361
0.362674
0.358575
0.378625
0.370128
0.374171
0.352995
0.401765
0.358061
0.386766
0.361421
0.373387
0.36275
0.385163
0.368809
0.357356
0.361767
0.379078
0.383242
0.352897
0.355067
0.352621
0.364935
0.377088
0.360531
0.355567
0.35579
0.48902
0.354649
0.394593
0.35373
0.422859
0.376456
0.828594
0.362706
0.466496
0.365176
0.365442
0.362053
0.354506
0.806152
0.382269
0.385097
0.724363
0.351803
0.359474
0.362888
0.506367
0.378227
0.366265
0.352553
0.351549
0.358357
0.349583
0.569399
0.359994
0.365583
0.375846
0.366418
0.358197
0.362053
0.38424
0.373652
0.378202
0.360354
0.365109
0.359125
0.359588
0.382183
0.362854
0.36027
0.352507
0.355372
0.353473
0.41787
0.355264
0.379355
0.366147
0.356447
0.359227
0.354505
0.360155
0.383788
0.366233
0.381196
0.363663
0.373578
0.388653
0.393032
0.358073
0.36843
0.383414
0.361555
0.379824
0.353303
0.363519
0.363751
0.399578
0.39043
0.375473
0.381346
0.361983
0.361048
0.356533
0.358625
0.369959
0.365499
0.383595
0.357467
0.353101
0.386039
0.352077
0.372301
0.358929
0.360352
0.357675
0.35342
0.353375
0.368968
0.361491
0.365983
0.358832
0.352338
0.347841
0.362955
0.38658
0.371503
0.358368
0.366912
0.37672
0.353207
0.399283
0.395871
0.35645
0.353146
0.389067
0.363429
0.350134
0.374778
0.350376
0.35132
0.347827
0.375977
0.365496
0.37272
0.355227
0.359287
0.367755
0.356786
0.352357
0.372481
0.356096
0.380895
0.360901
0.352084
0.357275
0.371353
0.351514
0.367059
0.357422
0.362434
0.358004
0.378637
1.00793
0.895914
0.360928
0.367612
0.360743
0.361531
0.355337
0.356544
0.357547
0.371269
0.370959
0.35392
0.355973
0.358371
0.347682
0.359906
0.356522
0.368913
0.3952
0.349073
0.370337
0.354448
0.350972
0.370659
0.373951
0.355269
0.353041
0.349962
0.357866
0.379751
0.465514
0.362069
0.353869
0.354888
0.353909
0.361484
0.393333
0.351038
0.352648
0.356753
0.40402
0.376572
0.359322
0.350868
0.354403
0.36351
0.363024
0.355013
0.359341
0.359932
0.649276
0.767409
0.387565
0.369562
0.371153
0.370568
0.379489
0.360818
0.370561
0.353684
0.36015
0.350229
0.364589
0.354751
0.358558
0.352256
0.369481
0.37278
0.3817
0.367893
0.353119
0.357634
0.355511
0.361981
0.370616
0.360253
0.377731
0.363795
0.35169
0.349794
0.358839
0.355518
0.361873
0.360104
0.360407
0.371589
0.386286
0.377261
0.364972
0.365777
0.360498
0.369325
0.360741
0.368868
0.359415
0.361187
0.370013
0.355941
0.371278
0.352241
0.360862
0.376602
0.354947
0.360851
0.363879
0.383842
0.362271
0.363477
0.354353
0.354047
0.358498
0.37494
0.360719
0.36907
0.357528
0.363972
0.362154
0.37137
0.379231
0.350863
0.373176
0.363581
0.36417
0.36446
0.368272
0.385797
0.355379
0.359887
0.361132
0.377046
0.35311
0.358327
0.364278
0.376736
0.362845
0.383639
0.374777
0.374481
0.360431
0.363927
0.361426
0.362018
0.362481
0.358714
0.376322
0.365685
0.369125
0.363406
0.360307
0.363507
0.37722
0.371905
0.354969
0.374151
0.361895
0.359043
0.353712
0.38951
0.356015
0.382163
0.351871
0.369845
0.357734
0.357521
0.371912
0.351551
0.370111
0.36443
0.382213
0.363453
0.36428
0.362855
0.397965
0.355589
0.35296
0.39105
0.35869
0.376982
0.353945
0.376012
0.369825
0.364162
0.37735
0.349958
0.369061
0.360899
0.362523
0.386713
0.356433
0.354512
0.356942
0.364587
0.362522
0.364077
0.354068
0.364396
0.354746
0.365606
0.351433
0.377519
0.375178
0.555486
0.361889
0.352842
0.534499
0.352504
0.387919
0.366987
0.350356
0.354625
0.373838
0.592394
0.783596
0.841932
0.37852
0.354918
0.353511
0.355747
0.354905
0.353083
0.364153
0.364474
0.369699
0.350444
0.353503
0.377051
0.36419
0.366687
0.372731
0.379804
0.358411
0.358498
0.386714
0.382258
0.35635
0.376782
0.371123
0.355746
0.357545
0.361158
0.351934
0.36442
0.361317
0.350066
0.355581
0.354883
0.37474
0.356525
0.350848
0.371875
0.386854
0.353562
0.354554
0.358736
0.363425
0.368385
0.362077
0.387615
0.382558
0.372648
0.376961
0.352634
0.352615
0.357413
0.354067
0.345896
0.346287
0.355319
0.353857
0.363289
0.362115
0.369848
0.404986
0.427519
0.417561
0.420716
0.364882
0.365232
0.371912
0.357398
0.358737
0.38438
0.41132
0.346195
0.365777
0.352192
0.376122
0.356511
0.376366
0.353728
0.355802
0.35626
0.358264
0.349196
0.355906
0.365645
0.35336
0.359921
0.361473
0.496422
0.418045
0.363145
0.356966
0.354043
0.389404
0.374583
0.354638
0.356409
0.359081
0.392957
0.366013
0.347829
0.351767
0.358458
0.362125
0.349407
0.381618
0.352967
0.353091
0.363038
0.358258
0.349934
0.358941
0.356331
0.633915
0.467881
0.3515
0.369958
0.46173
0.364123
0.421473
0.466712
0.356497
0.371568
0.360689
0.393443
0.385191
0.357059
0.666807
0.34904
0.358302
0.502559
0.387009
0.348492
0.355776
0.361507
0.364891
0.368197
0.355232
0.3527
0.353451
0.359067
0.354026
0.362593
0.405258
0.347898
0.350826
0.473247
0.35223
0.435645
0.355912
0.35456
0.436663
0.774104
0.552373
0.713391
0.833089
0.552908
0.369967
0.379363
0.363717
0.962976
0.79186
0.361039
0.411002
0.387282
0.755197
0.416764
0.447903
0.359381
0.370242
0.371659
0.357042
0.356358
0.363013
0.365199
0.362947
0.466857
0.365643
0.369807
0.36195
0.360571
0.350957
0.367314
0.382868
0.368436
0.386779
0.678991
0.76822
0.376734
0.398199
0.368493
0.484162
0.353858
0.355581
0.390147
0.370309
0.360714
0.348783
0.370176
0.394433
0.422132
0.36658
0.348992
0.350029
0.358438
0.367705
0.362182
0.35214
0.353076
0.361689
0.364558
0.358813
0.359472
0.354447
0.387689
0.369168
0.354229
0.345893
0.356359
0.361993
0.368798
0.429757
0.373375
0.369346
0.369584
0.356565
0.356857
0.364116
0.364926
0.355145
0.346839
0.377921
0.355811
0.35389
0.370189
0.353669
0.359184
0.351132
0.358004
0.364228
0.352862
0.398195
0.351171
0.355656
0.369277
0.36865
0.358122
0.350045
0.365511
0.35114
0.389351
0.368879
0.365992
0.356806
0.354801
0.349749
0.352279
0.36425
0.358713
0.389008
0.361301
0.362237
0.358134
0.350257
0.376009
0.356225
0.356145
0.351219
0.353697
0.354433
0.355367
0.354758
0.354541
0.362744
0.360583
0.361968
0.363082
0.354922
0.361518
0.354033
0.359522
0.388311
0.364597
0.362473
0.350716
0.359259
0.363496
0.36299
0.361946
0.35956
0.360928
0.371046
0.374505
0.380903
0.381981
0.355645
0.386934
0.379452
0.357434
0.358996
0.370611
0.356808
0.350685
0.355855
0.3498
0.352775
0.399884
0.391332
0.355612
0.357944
0.363059
0.34991
0.358964
0.362998
0.3564
0.357091
0.361411
0.360983
0.367893
0.356724
0.355839
0.361012
0.358142
0.357711
0.383801
0.380595
0.478771
0.459125
0.381625
0.353191
0.353811
0.356379
0.361944
0.354481
0.361538
0.368728
0.359673
0.367735
0.352895
0.353351
0.350699
0.351413
0.359714
0.360834
0.362982
0.357206
0.358071
0.357458
0.355138
0.826048
0.358332
0.364386
0.377738
0.357486
0.354639
0.363543
0.349088
0.392393
0.360466
0.354813
0.357753
0.357323
0.357225
0.348515
0.391406
0.351801
0.356107
0.369137
0.49235
0.405418
0.357918
0.359702
0.359088
0.461206
0.498293
0.505095
0.423196
0.393603
0.42861
0.35933
0.354964
0.362516
0.366757
0.351939
0.383202
0.388173
0.353117
0.371283
0.352642
0.388391
0.365825
0.36696
0.355118
0.355498
0.357908
0.373511
0.389227
0.366469
0.360078
0.35966
0.357667
0.362463
0.356001
0.357967
0.388446
0.363529
0.354641
0.356543
0.360924
0.354133
0.365225
0.37317
0.374798
0.362669
0.426671
0.352547
0.368673
0.359745
0.354576
0.355847
0.358702
0.371475
0.362402
0.36393
0.366436
0.34981
0.35916
0.357306
0.357874
0.354671
0.354461
0.350871
0.371193
0.378138
0.361886
0.356534
0.37245
0.369017
0.365907
0.363407
0.3721
0.351895
0.357845
0.35911
0.359798
0.358673
0.369041
0.373366
0.352437
0.36538
0.356306
0.369649
0.351429
0.366793
0.371817
0.368823
0.371177
0.372419
0.355917
0.360906
0.358684
0.371768
0.376516
0.355567
0.355785
0.353277
0.357344
0.365747
0.360791
0.36224
0.359195
0.369618
0.359985
0.358675
0.362028
0.374704
0.358486
0.355822
0.352991
0.365942
0.35242
0.361712
0.374531
0.355302
0.355009
0.353477
0.352458
0.354977
0.363074
0.379339
0.366256
0.393956
0.37757
0.351294
0.351143
0.375794
0.388558
0.364024
0.368739
0.39649
0.375743
0.378078
0.365501
0.369112
0.392565
0.372595
0.367377
0.36378
0.381441
0.364215
0.394497
0.372775
0.365905
0.347385
0.369337
0.375766
0.364935
0.374734
0.366367
0.367887
0.418312
0.423029
0.369048
0.357485
0.356372
0.364146
0.362459
0.369574
0.378919
0.356125
0.38997
0.350706
0.36272
0.363525
0.372127
0.352288
0.380879
0.358989
0.368564
0.358869
0.364019
0.369337
0.375137
0.385059
0.36311
0.360394
0.369494
0.350373
0.379033
0.35158
0.357912
0.372693
0.354723
0.375489
0.355404
0.354822
0.370031
0.356416
0.354353
0.36056
0.365448
0.361994
0.359558
0.365546
0.363668
0.35445
0.355185
0.38182
0.361147
0.356323
0.35494
0.365524
0.376404
0.380173
0.377389
0.371707
0.364401
0.360136
0.405147
0.382484
0.366968
0.365816
0.354734
0.35657
0.356486
0.37046
0.371007
0.351116
0.415777
0.354763
0.370874
0.660875
0.34581
0.499896
0.777579
0.367368
0.353799
0.375225
0.353437
0.357872
0.364936
0.359235
0.360859
0.35351
0.366894
0.371985
0.371061
0.358814
0.364128
0.365833
0.363984
0.358053
0.359309
0.369136
0.358574
0.363951
0.369676
0.361635
0.371102
0.359599
0.355014
0.353839
0.371522
0.356153
0.370231
0.365389
0.362076
0.366522
0.362087
0.361225
0.362395
0.37071
0.378127
0.364019
0.380465
0.359886
0.363907
0.360373
0.37079
0.357222
0.369376
0.361928
0.362269
0.362442
0.350186
0.360987
0.368999
0.361485
0.368956
0.365185
0.360929
0.355932
0.363168
0.357178
0.353891
0.354171
0.360856
0.355367
0.361598
0.356395
0.360975
0.36925
0.380209
0.403664
0.354528
0.367318
0.367677
0.355729
0.349051
0.361031
0.353649
0.356568
0.374312
0.353738
0.357769
0.352036
0.361558
0.362054
0.844772
0.777873
0.836605
0.75837
0.862055
0.551575
0.355011
0.36435
0.354784
0.387658
0.365612
0.36573
0.359184
0.360766
0.364102
0.391386
0.36116
0.474
0.399731
0.395278
0.353159
0.361152
0.567037
0.356394
0.358193
0.376104
0.351698
0.356119
0.36604
0.371772
0.356437
0.375347
0.359632
0.35063
0.353435
0.360066
0.351143
0.351915
0.367514
0.389266
0.356608
0.523905
0.348904
0.410878
0.371273
0.364919
0.379463
0.349533
0.378979
0.391701
0.350829
0.353526
0.466986
0.359284
0.633114
0.369987
0.35413
0.365377
0.356031
0.390759
0.380067
0.35948
0.356952
0.35575
0.360296
0.384427
0.356456
0.360071
0.356825
0.38643
0.356001
0.357224
0.38112
0.377886
0.3679
0.354096
0.355132
0.551025
0.361332
0.735007
0.72465
0.35874
0.357415
0.378348
0.366398
0.363403
0.350864
0.360548
0.350908
0.358392
0.38775
0.36515
0.355279
0.351849
0.374566
0.352047
0.363229
0.377168
0.3821
0.350765
0.355007
0.361277
0.370048
0.373889
0.354175
0.374573
0.359255
0.38183
0.353409
0.359213
0.351788
0.380235
0.357903
0.360655
0.50841
0.39149
0.358124
0.391053
0.366711
0.35809
0.349665
0.353378
0.365772
0.380003
0.358475
0.351695
0.379459
0.372659
0.360971
0.353462
0.352949
0.416789
0.34688
0.700108
0.871022
0.379788
0.356629
0.928622
0.485303
0.354123
0.355636
0.355354
0.371259
0.358943
0.489448
0.372522
0.375427
0.35926
0.374884
0.353519
0.373098
0.356398
0.3619
0.367634
0.387188
0.358263
0.385072
0.367553
0.359225
0.361046
0.37004
0.370488
0.44504
0.372092
0.484813
0.379878
0.528909
0.591862
0.389173
0.393712
0.371621
0.350513
0.388313
0.367144
0.375732
0.390448
0.404605
0.361166
0.358084
0.349628
0.444829
0.358431
0.378135
0.37508
0.369872
0.3612
0.380025
0.618251
0.36712
0.37311
0.378545
0.371429
0.362436
0.357667
0.363774
0.361774
0.366894
0.389836
0.380308
0.80809
0.364061
0.367803
0.351904
0.356499
0.366612
0.35705
0.369548
0.35989
0.349522
0.351378
0.359287
0.34606
0.356021
0.365085
0.36226
0.378204
0.347613
0.351641
0.37053
0.359246
0.349574
0.34803
0.346731
0.35213
0.36245
0.364299
0.35171
0.347787
0.361742
0.355223
0.358161
0.372179
0.360211
0.355839
0.384344
0.391469
0.358197
0.363375
0.359973
0.355189
0.354992
0.350808
0.369285
0.355409
0.358391
0.388127
0.36033
0.394562
0.408981
0.363407
0.356345
0.356125
0.357323
0.470431
0.451565
0.434522
0.449344
0.36895
0.356982
0.362246
0.360666
0.386705
0.378064
0.352691
0.380938
0.359148
0.389396
0.365833
0.398681
0.38415
0.357636
0.35953
0.359436
0.376986
0.38376
0.376109
0.376138
0.367301
0.375489
0.379109
0.364864
0.369927
0.369779
0.369801
0.363193
0.366824
0.364616
0.369122
0.364661
0.36918
0.369987
0.368798
0.366363
0.363816
0.392875
0.380944
0.369019
0.369899
0.398235
0.35598
0.360397
0.356253
0.357712
0.364998
0.383876
0.374738
0.35983
0.349785
0.35433
0.369697
0.369569
0.369807
0.360206
0.36032
0.360689
0.367954
0.357654
0.368679
0.376956
0.359002
0.364034
0.358215
0.364117
0.356236
0.357679
0.357452
0.359896
0.382749
0.365695
0.358346
0.37219
0.450224
0.376798
0.357662
0.356137
0.359063
0.365856
0.37321
0.363944
0.351712
0.387477
0.379984
0.394156
0.385484
0.357867
0.354023
0.355463
0.35555
0.358163
0.361902
0.356205
0.386714
0.361911
0.358902
0.357308
0.35651
0.355621
0.354143
0.355888
0.364146
0.375807
0.364191
0.377124
0.366047
0.359412
0.363406
0.374391
0.381088
0.360289
0.363379
0.361543
0.351931
0.370267
0.362523
0.364146
0.358918
0.383198
0.36704
0.362948
0.376987
0.363404
0.369701
0.358279
0.359457
0.360281
0.36287
0.375311
0.372307
0.358868
0.367155
0.350668
0.357729
0.351253
0.353963
0.368531
0.366926
0.360149
0.359267
0.35945
0.357332
0.355892
0.355661
0.354247
0.360169
0.364982
0.35813
0.432277
0.469753
0.51934
0.380013
0.35991
0.367534
0.439153
0.349082
0.368163
0.356361
0.352005
0.474451
0.390416
0.372498
0.366838
0.361725
0.359129
0.352025
0.361698
0.358845
0.355444
0.355482
0.350099
0.351967
0.37787
0.361138
0.382638
0.363477
0.366329
0.361722
0.358681
0.355576
0.365684
0.362376
0.365398
0.368809
0.357772
0.360866
0.364427
0.360688
0.363689
0.364041
0.362793
0.351625
0.355362
0.357969
0.350252
0.356243
0.363245
0.369974
0.367273
0.359536
0.377585
0.356953
0.347319
0.356794
0.358478
0.394748
0.362259
0.358395
0.355275
0.363498
0.352938
0.359829
0.390113
0.370258
0.38101
0.370713
0.377476
0.360986
0.351799
0.392647
0.353379
0.35236
0.352925
0.3828
0.383331
0.354893
0.3758
0.373855
0.399479
0.400672
0.365405
0.394623
0.391656
0.399701
0.367744
0.391562
0.804305
0.391235
0.37295
0.377998
0.357728
0.359811
0.381918
0.357004
0.362346
0.369755
0.36828
0.369534
0.384776
0.371995
0.36112
0.364576
0.386733
0.394057
0.386215
0.367726
0.351371
0.379222
0.363512
0.367922
0.389156
0.392082
0.400065
0.356926
0.351007
0.38057
0.354712
0.350184
0.363868
0.353134
0.354978
0.368179
0.356107
0.367391
0.385525
0.351171
0.366664
0.362259
0.357431
0.372303
0.365244
0.363447
0.361244
0.353851
0.368727
0.358936
0.381328
0.354019
0.354649
0.389873
0.357015
0.360592
0.35859
0.349383
0.373531
0.354342
0.390424
0.484184
0.352978
0.3694
0.387227
0.879424
0.372192
0.379468
0.38259
0.396896
0.359156
0.387547
0.365491
0.356551
0.365162
0.349377
0.345554
0.361431
0.355794
0.377494
0.379473
0.361074
0.376659
0.349779
0.366568
0.381341
0.348191
0.378847
0.363577
0.362756
0.358427
0.361016
0.361943
0.407885
0.392472
0.366505
0.347535
0.362564
0.367245
0.36433
0.384343
0.359679
0.358277
0.363106
0.363794
0.369511
0.383016
0.368955
0.362841
0.358397
0.363034
0.411972
0.362758
0.445739
0.354878
0.355552
0.395862
0.362082
0.37113
0.356161
0.405662
0.536969
0.43531
0.84203
0.379847
0.361356
0.371246
0.38535
0.364716
0.369751
0.358453
0.364564
0.36167
0.370392
0.356467
0.377168
0.35728
0.357381
0.379389
0.363952
0.381993
0.349481
0.353445
0.349768
0.366142
0.36189
0.360334
0.367554
0.38146
0.353936
0.372739
0.363387
0.350778
0.351699
0.344171
0.362298
0.365208
0.3658
0.364773
0.377231
0.369344
0.357623
0.376247
0.357748
0.358112
0.460002
0.349449
0.371742
0.357656
0.35558
0.355589
0.368653
0.370274
0.366059
0.346643
0.351241
0.363294
0.366189
0.358604
0.34759
0.369844
0.352818
0.360398
0.360218
0.369361
0.35896
0.357114
0.359351
0.355443
0.364232
0.356371
0.368428
0.361403
0.384079
0.365071
0.416638
0.396274
0.353415
0.351519
0.357858
0.348333
0.357539
0.353697
0.354397
0.350957
0.354888
0.357148
0.581916
0.359688
0.719434
0.382435
0.411781
0.404957
0.354773
0.355668
0.366972
0.358168
0.44442
0.506687
0.430413
0.361513
0.355277
0.353516
0.362784
0.361408
0.359143
0.395726
0.396677
0.353345
0.350609
0.358478
0.359686
0.376172
0.439439
0.380573
0.366082
0.36267
0.360054
0.356455
0.348862
0.349546
0.349541
0.351249
0.362674
0.356138
0.360839
0.356678
0.416023
0.369118
0.361643
0.354104
0.378145
0.351889
0.383086
0.378518
0.361109
0.357013
0.485463
0.507854
0.363203
0.374843
0.369458
0.357998
0.366491
0.364828
0.38182
0.361101
0.36393
0.377307
0.361034
0.353247
0.376825
0.358043
0.349081
0.357808
0.367337
0.383396
0.356193
0.357893
0.412838
0.361296
0.400559
0.356179
0.35637
0.374616
0.375395
0.353766
0.407124
0.369234
0.353804
0.361055
0.429081
0.8944
0.757355
0.359329
0.36086
0.35687
0.356196
0.364416
0.360335
0.362071
0.352145
0.355324
0.352558
0.361213
0.425711
0.378604
0.374034
0.3654
0.36333
0.358632
0.354568
0.61916
0.910983
0.36135
0.460899
0.356566
0.357511
0.863994
0.435714
0.721177
0.362155
0.393073
0.369817
0.370161
0.505541
0.428308
0.371117
0.352984
0.354205
0.356799
0.361288
0.353211
0.357028
0.358238
0.350716
0.34967
0.379524
0.372033
0.367834
0.365975
0.355466
0.355972
0.356807
0.352468
0.35178
0.354337
0.360569
0.365803
0.351779
0.354481
0.350624
0.35582
0.35105
0.357326
0.358574
0.351603
0.364752
0.359031
0.358779
0.357877
0.359888
0.353546
0.37034
0.365451
0.379264
0.369682
0.358192
0.355716
0.359327
0.354661
0.362586
0.3676
0.369766
0.360341
0.356221
0.367502
0.354143
0.361982
0.364884
0.351878
0.357273
0.365313
0.360984
0.358959
0.358643
0.362256
0.359134
0.361769
0.37322
0.37227
0.371868
0.353953
0.37523
0.366066
0.37085
0.357925
0.366038
0.386369
0.356473
0.357725
0.362163
0.357212
0.354808
0.354679
0.361135
0.353827
0.353618
0.391225
0.376326
0.357321
0.355335
0.405149
0.362411
0.388438
0.933283
0.839614
0.385905
0.350559
0.687496
0.430112
0.350911
0.360261
0.355028
0.346232
0.352986
0.349618
0.348895
0.369262
0.357468
0.364375
0.361959
0.354981
0.360544
0.356977
0.364289
0.355116
0.363686
0.358271
0.364176
0.40394
0.363142
0.362084
0.356494
0.358961
0.361687
0.373639
0.359469
0.360057
0.360457
0.363778
0.37821
0.364388
0.365373
0.355421
0.360623
0.358253
0.36278
0.366463
0.358347
0.387969
0.368001
0.370711
0.355296
0.387711
0.384929
0.367741
0.371109
0.364784
0.369486
0.381634
0.36266
0.359228
0.357515
0.364919
0.359262
0.353911
0.350695
0.353797
0.365261
0.347125
0.361278
0.359837
0.360067
0.362747
0.362116
0.363676
0.37534
0.367073
0.37504
0.377267
0.36614
0.398085
0.3627
0.360268
0.356741
0.365475
0.370127
0.365078
0.365111
0.366301
0.365379
0.369172
0.364386
0.360197
0.36088
0.365877
0.369262
0.369292
0.375641
0.37942
0.384201
0.347169
0.352264
0.351619
0.353966
0.362004
0.359087
0.374293
0.360041
0.369523
0.366324
0.369261
0.370951
0.374799
0.369538
0.388112
0.370069
0.356921
0.359754
0.358603
0.354876
0.357222
0.376104
0.369693
0.36989
0.393187
0.353426
0.355994
0.358
0.359617
0.362954
0.367095
0.375117
0.359116
0.362486
0.356278
0.357468
0.348575
0.358402
0.3559
0.366205
0.347582
0.377309
0.354596
0.354614
0.350387
0.352602
0.349608
0.351559
0.34969
0.350558
0.350984
0.35596
0.355987
0.359891
0.364076
0.346415
0.356019
0.353109
0.36181
0.400657
0.350175
0.348872
0.350521
0.372482
0.382897
0.358877
0.359275
0.354111
0.354666
0.370898
0.35866
0.363008
0.366402
0.377127
0.382887
0.354431
0.352423
0.353649
0.371821
0.360391
0.369438
0.382864
0.365048
0.360125
0.383723
0.36292
0.375428
0.357211
0.357631
0.361173
0.354853
0.352539
0.37271
0.362586
0.349329
0.366967
0.353172
0.367849
0.368397
0.352106
0.344714
0.359308
0.354507
0.37193
0.355049
0.356495
0.823896
0.362096
0.352019
0.363495
0.355995
0.354776
0.355167
0.355129
0.923657
0.443566
0.362892
0.349711
0.365147
0.352337
0.360069
0.365518
0.355396
0.360641
0.352622
0.364574
0.355022
0.364752
0.368635
0.354326
0.384427
0.354981
0.361011
0.363891
0.361557
0.363011
0.369718
0.361497
0.361438
0.350634
0.36463
0.346861
0.358091
0.352028
0.360181
0.350315
0.349306
0.351419
0.561933
0.360853
0.582366
0.362938
0.350099
0.632133
0.382833
0.350792
0.356963
0.350221
0.361355
0.372792
0.373957
0.356841
0.385798
0.365727
0.360156
0.35178
0.355263
0.352992
0.352664
0.363023
0.363205
0.363505
0.354796
0.366597
0.352792
0.358463
0.352931
0.355328
0.35773
0.371133
0.362336
0.362215
0.363552
0.361001
0.360008
0.365589
0.356838
0.356831
0.352943
0.351078
0.353736
0.352902
0.351079
0.370927
0.350809
0.357293
0.365437
0.362378
0.359027
0.362719
0.362946
0.365442
0.352911
0.358116
0.362732
0.361698
0.36227
0.356122
0.355664
0.351032
0.35839
0.360216
0.351895
0.357025
0.373009
0.373538
0.353127
0.36761
0.363136
0.361694
0.416026
0.375219
0.363185
0.390485
0.395753
0.398193
0.363141
0.359201
0.364164
0.36401
0.395304
0.366437
0.353492
0.455633
0.365167
0.36035
0.351981
0.357014
0.354765
0.358118
0.356665
0.356555
0.358651
0.361179
0.356076
0.364491
0.365577
0.35465
0.360449
0.363492
0.355007
0.363531
0.364151
0.365483
0.353335
0.359714
0.353166
0.355653
0.361491
0.356933
0.371673
0.374276
0.365395
0.406372
0.460823
0.408126
0.410016
0.355997
0.351673
0.375907
0.366637
0.360298
0.372494
0.356727
0.354071
0.373649
0.368625
0.371226
0.370812
0.371087
0.373138
0.347516
0.35892
0.382718
0.462291
0.370598
0.73748
0.38359
0.353032
0.352714
0.38446
0.351701
0.355019
0.353252
0.36349
0.969506
0.353158
0.35003
0.462961
0.624675
0.358046
0.36647
0.359237
0.371842
0.591847
0.532444
0.349201
0.365756
0.356003
0.373095
0.378584
0.368938
0.396797
0.365051
0.367373
0.355112
0.451957
0.389921
0.465862
0.371358
0.357943
0.421134
0.387538
0.651429
0.444522
0.347759
0.896177
0.856801
0.367998
0.360103
0.376803
0.356995
0.374455
0.35319
0.36721
0.433261
0.353332
0.362323
0.361457
0.507437
0.362964
0.46406
0.357955
0.402786
0.36424
0.353603
0.359693
0.365168
0.348866
0.363684
0.359165
0.499892
0.38014
0.375502
0.400297
0.410881
0.356988
0.364363
0.361806
0.37155
0.367379
0.371659
0.35268
0.375363
0.441991
0.803781
0.38433
0.359497
0.353019
0.353085
0.350191
0.375497
0.377533
0.358173
0.360157
0.366747
0.371394
0.36172
0.352093
0.361494
0.349918
0.3614
0.364362
0.352127
0.358977
0.359432
0.350104
0.372374
0.357502
0.355978
0.350057
0.351867
0.350374
0.362523
0.361652
0.350861
0.482381
0.362584
0.350415
0.351307
0.350872
0.377151
0.349414
0.351569
0.352674
0.362568
0.367926
0.37179
0.358633
0.350047
0.358149
0.354638
0.355741
0.34978
0.35186
0.349525
0.358213
0.354316
0.356303
0.357413
0.381756
0.395383
0.376091
0.381777
0.373436
0.366274
0.362686
0.382665
0.356723
0.374489
0.373306
0.356369
0.357572
0.349945
0.349985
0.3558
0.367558
0.363471
0.364452
0.35123
0.352548
0.357651
0.383709
0.353479
0.363027
0.360214
0.363416
0.346453
0.369039
0.356328
0.362219
0.354659
0.356319
0.352043
0.354079
0.367806
0.362301
0.385361
0.357726
0.356514
0.473946
0.364447
0.352375
0.401477
0.355349
0.384925
0.391922
0.358417
0.356646
0.358636
0.355976
0.35937
0.363137
0.362
0.356013
0.350215
0.360336
0.353893
0.361359
0.360941
0.355188
0.360578
0.430546
0.369803
0.790012
0.363676
0.354743
0.355624
0.354419
0.354633
0.352123
0.367623
0.368429
0.356598
0.357608
0.349195
0.351716
0.353911
0.359883
0.355167
0.362209
0.38184
0.350685
0.393382
0.352845
0.356335
0.364411
0.354056
0.366546
0.352049
0.3516
0.350672
0.349263
0.355703
0.352376
0.358269
0.359042
0.351256
0.356657
0.357156
0.380826
0.353354
0.762753
0.454541
0.395013
0.829646
0.365525
0.361832
0.35235
0.358243
0.453154
0.517344
0.42437
0.357322
0.351164
0.367905
0.35666
0.350886
0.359407
0.362742
0.485074
0.494509
0.452811
0.362667
0.363908
0.37271
0.360626
0.35467
0.363214
0.372684
0.353938
0.359526
0.357556
0.358987
0.360544
0.356388
0.35462
0.356856
0.361178
0.358437
0.366788
0.373725
0.363601
0.366226
0.429462
0.345062
0.359213
0.351845
0.360921
0.365033
0.371769
0.367761
0.361023
0.362828
0.369775
0.352619
0.363242
0.361584
0.356136
0.356791
0.356382
0.382147
0.364864
0.369679
0.364602
0.368267
0.363535
0.361663
0.378319
0.371533
0.364167
0.362546
0.367208
0.378071
0.371839
0.362076
0.376399
0.386117
0.378125
0.371953
0.36521
0.353917
0.370036
0.370346
0.3748
0.370615
0.394895
0.361202
0.380922
0.359721
0.392428
0.390054
0.36689
0.370248
0.36379
0.355035
0.366465
0.37577
0.36141
0.393988
0.355466
0.366422
0.373626
0.383408
0.371765
0.377734
0.36865
0.370878
0.352018
0.369707
0.363471
0.356724
0.348341
0.353012
0.349946
0.352432
0.355258
0.344076
0.349295
0.360655
0.368721
0.369108
0.364072
0.377488
0.354504
0.360247
0.368814
0.369274
0.369454
0.417275
0.39699
0.375078
0.366389
0.40815
0.402848
0.365859
0.359799
0.356082
0.369134
0.363399
0.36253
0.372259
0.367491
0.386984
0.366464
0.361972
0.371472
0.385542
0.36528
0.36136
0.395033
0.362534
0.369557
0.356098
0.361105
0.360106
0.38055
0.364561
0.363281
0.35867
0.391905
0.354306
0.3557
0.36125
0.378027
0.366638
0.357177
0.355562
0.358882
0.360575
0.36851
0.355627
0.360144
0.354013
0.373091
0.367175
0.363858
0.36301
0.368794
0.360192
0.361136
0.360358
0.369555
0.358085
0.361698
0.358966
0.355779
0.360694
0.372495
0.387737
0.381804
0.421948
0.37147
0.379664
0.37892
0.371228
0.370488
0.398359
0.378186
0.361343
0.366472
0.357457
0.369964
0.367781
0.381594
0.352622
0.389682
0.35237
0.358109
0.35382
0.354734
0.356228
0.367466
0.38568
0.370016
0.377433
0.367296
0.365272
0.355487
0.378147
0.358102
0.39264
0.355178
0.352887
0.371385
0.364464
0.367865
0.365871
0.3682
0.360886
0.357773
0.366788
0.360475
0.359708
0.362414
0.361345
0.368852
0.372308
0.361762
0.365154
0.35679
0.358059
0.359658
0.357653
0.354201
0.847518
0.560393
0.355632
0.353243
0.352068
0.363425
0.364002
0.364186
0.366262
0.359058
0.36176
0.355283
0.357542
0.351873
0.351831
0.350771
0.352409
0.352961
0.814165
0.400849
0.356522
0.361957
0.362715
0.351565
0.35821
0.364025
0.354629
0.3547
0.368477
0.362068
0.359465
0.362058
0.360185
0.366754
0.35807
0.366776
0.365885
0.359004
0.353866
0.381768
0.37532
0.382468
0.359912
0.362308
0.374469
0.355712
0.362044
0.37076
0.37175
0.375909
0.376788
0.354527
0.379552
0.37115
0.380236
0.370018
0.369989
0.364619
0.368906
0.36195
0.365037
0.36986
0.36008
0.358355
0.36043
0.375134
0.359995
0.352463
0.34907
0.349392
0.353054
0.353137
0.356047