/*--------------------------------*- C++ -*----------------------------------*\
| =========                 |                                                 |
| \\      /  F ield         | OpenFOAM: The Open Source CFD Toolbox           |
|  \\    /   O peration     | Version:  2506                                  |
|   \\  /    A nd           | Website:  www.openfoam.com                      |
|    \\/     M anipulation  |                                                 |
\*---------------------------------------------------------------------------*/
FoamFile
{
    version     2.0;
    format      ascii;
    arch        "LSB;label=32;scalar=64";
    class       volScalarField;
    location    "0.0263738";
    object      p;
}
// * * * * * * * * * * * * * * * * * * * * * * * * * * * * * * * * * * * * * //

dimensions      [0 2 -2 0 0 0 0];

internalField   nonuniform List<scalar> 
3989
(
14.116
14.8487
16.6972
15.6614
16.5415
13.6963
14.4647
17.7816
14.424
7.32438
14.4224
14.1768
9.4355
13.7938
14.2852
23.912
13.6846
10.5798
13.3017
16.2099
12.8674
12.7695
10.4787
10.1619
14.7398
14.0498
9.25133
14.5771
14.0492
13.7063
14.4046
6.95862
12.0871
13.7597
7.27186
14.6626
13.9244
12.0489
13.4264
13.0704
11.3427
14.4443
14.6133
14.5615
13.2384
13.5794
13.4568
14.8478
14.6118
13.2791
8.97064
13.7567
13.6802
14.7035
16.3343
13.4467
14.4079
10.6597
10.619
10.9537
11.3218
11.0351
36.925
59.2228
20.8722
13.6917
14.2252
13.0136
12.6285
12.4305
14.573
14.2055
13.1309
12.9322
14.9633
17.8101
13.6749
13.8399
14.2555
13.5883
13.7549
13.8716
14.4383
11.1035
11.9826
13.8353
12.0178
13.5747
17.252
13.3119
11.8643
14.3392
14.1533
11.4727
14.3356
9.02427
8.39232
14.2327
9.18437
7.28844
14.3965
14.4286
14.6377
14.7067
7.88581
14.5889
12.0373
14.3169
14.4927
9.1291
12.8601
14.4497
14.8171
13.054
14.0155
11.6514
13.6074
12.8615
13.6325
13.6521
13.9967
14.3136
13.1529
14.577
20.2125
15.2898
14.3545
13.0492
14.5485
8.6777
9.77126
14.6289
11.4699
14.6934
14.7155
12.9714
14.5337
14.5581
14.6118
14.6791
14.615
15.1639
10.4764
14.6518
14.4512
7.08984
14.4972
6.33629
13.3698
16.6108
19.5131
7.86753
7.20369
8.58865
7.32242
8.53061
18.0308
7.71391
14.1794
14.7447
14.6854
17.3543
14.4089
14.5332
14.5169
18.2927
9.09765
14.5619
17.5117
13.5448
18.2695
14.4894
12.9272
11.2127
15.1497
15.1057
14.5359
11.9079
6.22372
9.1293
11.8982
10.8014
13.0704
9.75918
11.4899
11.42
16.3727
11.2288
14.4917
14.5992
15.199
13.5934
11.3279
12.4645
15.0294
11.7562
51.383
23.8965
17.8049
12.6404
9.28699
14.0225
13.9316
13.6736
14.0944
13.7572
14.3205
14.323
26.7108
24.12
13.9978
19.532
29.818
17.0017
9.02944
-34.9286
28.7001
15.2572
14.9178
14.4357
14.9803
13.2914
13.6727
15.6765
14.2638
15.4925
14.8276
17.3372
14.2516
12.251
11.4681
11.2564
11.2714
11.1152
14.3415
13.6566
13.1709
13.066
13.2923
8.70841
20.7603
13.5067
13.5454
13.4471
13.627
17.6443
14.0639
14.0736
13.5147
13.6982
14.057
16.2725
13.818
14.5945
14.7169
14.274
13.7171
13.4949
16.7082
14.9394
17.0521
10.8393
14.0664
9.85319
14.4408
13.8492
17.9309
32.9943
12.7872
11.6267
11.3777
14.6388
14.6467
9.68727
12.689
14.2757
12.9105
12.8565
16.1682
9.53214
14.6366
10.5429
10.993
9.84455
13.241
13.0426
10.3484
10.3003
10.8343
11.3193
14.4947
14.4038
11.5964
16.7649
13.0423
14.168
12.7055
14.6229
37.5417
31.3335
17.1572
14.0555
14.3772
19.155
14.1838
37.3334
10.6966
13.9788
13.9115
14.517
19.0684
9.34725
40.4026
42.5093
14.4131
14.5286
10.9277
12.8505
8.72764
15.4424
5.59313
13.3747
13.5748
13.1534
9.74189
13.0515
12.68
12.5107
11.2133
10.4501
10.9485
14.73
31.7372
13.3556
12.8492
9.95063
14.1712
12.304
13.563
13.351
35.827
15.5865
11.2111
15.4592
9.42229
19.1617
14.8532
14.7669
7.76111
13.9012
10.46
16.9248
17.0799
12.9597
15.6386
14.1448
16.1174
14.619
10.3309
14.3204
6.21237
16.6631
13.5085
11.9872
9.25261
14.571
14.8461
14.1853
12.9637
13.6352
16.5696
14.7696
6.61908
14.151
15.9082
13.592
7.17703
14.9595
7.45079
9.51722
14.6166
14.456
14.3185
13.1312
12.9867
11.6185
12.9115
13.1278
12.9104
12.4525
14.4327
12.8962
14.1409
13.4806
13.3788
18.1207
14.4413
14.7291
20.5868
12.7737
14.0376
14.3767
13.4074
13.6662
13.3197
15.849
18.4413
-10.726
17.2059
20.3231
10.1631
2.921
24.5625
56.4185
12.4155
24.9993
18.0827
15.146
16.8825
11.1513
49.8368
14.6105
15.0049
45.3468
17.8986
13.9119
16.9183
41.7249
16.5686
21.6615
17.1606
17.0061
12.5759
9.13302
7.4213
17.9382
14.4538
14.5588
15.196
16.1691
18.5514
23.367
21.0899
14.5611
14.4611
13.5461
14.3422
14.2842
14.6131
14.4955
13.6042
15.9108
16.0846
18.614
32.8816
16.2629
13.8362
13.8077
18.983
17.5696
15.5574
14.5515
14.6047
14.6204
14.8057
14.7364
8.16993
9.00792
13.4962
13.4421
13.2627
13.6856
13.701
13.8827
15.0513
13.7832
10.5401
10.1635
10.5037
9.86718
13.7945
12.5445
13.237
14.6653
19.9835
13.7267
13.342
13.7665
15.9971
18.3633
7.3897
17.6568
14.1969
14.5273
14.5895
14.9901
16.8569
15.8862
15.2455
14.0959
14.9067
15.2239
15.5041
16.0953
16.1695
14.3172
12.7373
14.7526
14.3268
12.9036
17.249
12.1565
12.0867
14.9373
15.9864
12.8998
12.8219
7.47573
6.93594
7.60434
8.03809
6.71098
15.2069
9.89928
5.63023
6.10904
11.2843
13.5792
11.8637
9.25427
12.1335
11.7032
8.86237
16.5464
15.3143
8.59403
19.6624
7.38415
8.03757
13.5164
14.4
13.2324
13.0472
-78.0327
-53.7599
13.9991
16.4418
17.5381
14.2633
16.3448
19.949
14.6266
15.8077
13.0747
12.1497
13.6436
16.4533
13.8703
15.219
13.2538
5.97678
8.17791
7.48259
17.2411
13.6762
10.4482
20.0365
12.3262
11.6429
10.2988
9.0179
9.12698
25.6204
36.4976
12.3297
6.3934
6.80017
14.2439
14.2745
28.6903
16.5799
17.5862
8.22632
28.2805
20.9946
14.3708
6.75751
8.02089
19.6011
14.7842
15.4146
9.53309
12.6678
59.4748
49.4081
9.33795
14.6683
14.3751
13.9614
14.9892
13.7825
14.8546
13.4984
13.0353
10.027
14.5158
15.9955
14.6352
12.0096
14.5669
13.5271
14.7658
14.4943
8.53635
15.0066
5.99656
14.1817
13.9946
14.0749
13.584
13.1257
8.63816
7.98665
13.0944
18.5793
11.8436
14.0998
14.8194
13.7413
14.5634
13.8274
14.2814
13.9981
12.9539
14.4533
14.2374
13.7194
13.7324
14.2546
13.6758
13.3164
14.1755
16.8274
14.5016
14.2262
14.576
14.3911
14.6069
15.9937
14.1407
14.9467
15.4976
14.4665
14.2915
15.1391
14.2871
14.5212
12.9245
12.9891
14.1375
13.8056
11.125
16.6736
14.2923
14.3229
13.7953
15.4727
14.5209
9.02167
13.7268
12.5726
13.4443
6.01325
12.994
13.0124
15.0083
8.49749
14.3657
12.1939
15.0542
14.9311
10.8178
12.3743
13.4491
14.2754
13.2004
11.6142
13.7467
11.7097
11.2435
8.94961
16.2031
11.0556
14.3478
12.2553
8.31446
15.8011
13.2868
12.1049
9.83603
5.25007
9.2786
13.0549
7.87885
10.8517
10.4547
14.4431
15.2622
14.9697
12.9023
14.5869
15.38
17.2333
16.8877
13.4651
13.499
13.5919
15.8311
10.7317
11.8931
15.0626
15.4596
15.3194
12.6681
13.4841
12.6115
16.9862
20.8317
13.7185
15.1569
15.0373
16.2366
16.6279
16.1116
17.3301
12.1976
6.03402
12.905
17.0761
16.0951
15.8675
16.7135
13.4408
21.5129
25.0133
14.0982
9.91063
45.5129
9.17651
29.4111
15.6307
15.6851
11.922
12.4982
16.9533
26.4528
22.1507
12.0803
16.7805
17.1325
16.8776
15.9792
16.6588
14.5365
14.3002
14.4843
14.6573
13.4836
13.5484
14.4969
13.5693
12.9795
14.2521
13.4488
12.4954
13.8971
13.221
14.8511
14.478
13.8945
10.5421
12.7805
14.5989
8.81922
6.32599
15.3692
16.5015
15.9098
18.3215
13.3695
11.0058
8.72853
11.7574
25.7633
18.7112
19.3081
11.8463
17.7834
13.274
15.6997
8.7161
8.72404
8.6074
8.00814
16.7157
16.718
16.0812
16.5331
17.5162
17.4137
18.0022
17.8349
19.1937
13.7027
13.6761
25.0906
33.8615
35.219
29.7323
19.0368
13.6327
13.0189
13.292
15.2656
13.8435
30.8401
14.8962
13.89
15.663
10.9637
8.12942
10.3282
11.4039
9.54827
9.31921
10.593
6.58982
10.0147
13.0959
15.2503
12.7232
15.964
44.5435
29.113
13.3969
13.9132
8.57415
14.7281
11.6253
19.329
12.4619
10.199
15.2395
16.1493
12.6473
7.65366
9.07831
12.1946
6.50847
25.3321
10.9119
14.1396
18.7667
10.3834
8.81499
11.7429
8.9389
29.168
7.48901
8.00919
14.7691
1.38697
14.5119
-0.735218
9.07357
10.2696
10.1603
12.101
9.88725
24.5742
14.0009
-9.80193
8.79728
12.4311
-0.0631039
14.6477
9.10307
9.47338
9.81094
13.3171
11.3885
16.2141
16.5125
15.6608
16.313
16.6182
14.414
32.842
17.245
17.0724
0.6022
18.009
3.62862
15.5987
16.591
38.4181
-9.44959
6.85871
-30.0522
-33.177
-21.0448
17.9473
20.1728
11.8126
-50.99
55.7685
13.9095
28.4207
24.873
46.0674
14.8255
21.1009
18.0071
15.0925
19.5311
13.8246
18.8525
20.4642
13.4836
19.8352
16.4739
11.0399
10.8984
14.6683
16.6568
10.8004
13.0732
8.19593
14.1391
23.0273
63.1721
61.1718
12.707
16.1148
18.7902
42.0042
13.9899
16.4525
27.4636
19.0621
16.1552
17.9192
15.8093
28.9639
28.1019
16.1011
6.7965
7.82612
6.33113
10.9521
17.7165
16.6577
10.4437
12.7214
11.7842
15.3437
14.5406
14.6688
15.141
14.5829
16.7532
15.711
20.0021
14.6107
14.5721
27.4104
13.7146
14.6715
14.6916
18.0456
17.564
19.6568
14.6759
17.1094
15.7451
15.1445
15.1056
15.3573
13.6894
16.6899
17.0564
16.9743
15.8868
16.1774
16.8369
32.091
16.9507
18.244
14.4106
13.2051
16.7191
15.7448
18.4146
16.0671
14.2663
13.0048
13.9329
16.0099
17.1101
16.8914
17.7046
16.5826
18.0052
27.2129
10.0213
7.87507
7.07823
8.30167
16.6563
11.7586
11.7525
11.3592
8.31812
9.8612
10.5582
8.6919
9.53442
16.2846
14.9506
15.2492
16.2206
15.5336
14.2995
16.1223
14.573
26.6831
15.0257
16.0555
16.2667
16.9493
14.6994
16.1458
14.1399
13.9763
14.3412
14.909
16.675
16.834
17.85
7.55837
22.9944
19.4359
12.4102
11.6075
14.3014
16.5266
16.9371
16.4525
16.163
14.8412
7.09515
7.33733
15.7269
16.6044
16.7168
8.77231
11.047
11.641
10.1374
7.16372
14.161
14.729
14.9522
13.4706
12.1296
12.1348
9.53375
9.48453
13.6377
9.73239
42.5109
26.1465
16.151
15.263
17.9808
18.6494
18.2813
15.3309
12.5237
14.4619
13.209
14.467
10.2857
11.7015
10.2869
11.3662
15.785
17.1663
17.2109
11.4386
12.0593
11.3969
11.7262
-58.2108
11.787
15.0277
18.7976
12.4165
8.74007
8.3254
7.34778
12.1204
9.12527
10.9243
6.70472
10.0878
8.15218
5.98466
14.444
6.55487
13.4195
10.6195
5.14503
26.0366
12.7692
13.1492
16.5515
16.1123
22.1004
43.3252
34.5322
29.3862
35.6031
16.0458
13.895
15.2665
14.0539
15.9145
26.8412
20.4778
16.722
15.6014
16.953
5.5238
8.31133
10.2126
9.56552
12.447
11.2798
18.6597
25.9786
8.83935
10.6105
14.1318
11.7964
15.4911
8.20219
9.82629
21.9835
13.4101
9.58843
14.1007
14.1277
12.1258
7.23939
21.4561
21.4042
13.9458
7.75998
16.7399
14.0757
13.9676
14.2954
14.4451
16.5601
14.4378
18.67
17.5786
18.8301
13.734
7.53711
14.2966
12.8889
10.4905
10.0026
11.8667
14.0691
13.6055
13.9031
14.7071
15.0776
13.7074
14.7999
14.1918
14.8473
16.738
14.9699
14.6042
13.4891
14.4294
13.6155
12.9011
9.34928
14.1162
14.4338
13.8595
13.0287
13.0909
13.3042
13.579
12.8992
12.7819
13.1611
13.2981
13.2361
13.4271
11.5842
15.2333
15.3224
15.406
15.31
14.8799
15.0457
15.1816
15.3065
14.8426
13.8968
13.7278
14.3387
13.5077
13.5504
13.2811
12.7283
12.0979
13.6072
13.5224
12.3077
7.1991
7.95042
7.05818
7.80931
7.96756
13.5462
9.71423
13.5446
12.3705
16.0262
6.44902
11.9851
13.2634
13.1606
13.4349
14.125
11.7856
10.6567
12.0544
14.2538
14.355
14.5709
16.7642
14.1336
13.067
13.6361
14.8242
14.2634
14.2604
14.2333
16.4471
14.5127
14.9593
14.0987
14.0462
14.5767
13.5663
33.2305
35.5784
14.6265
12.5719
11.4661
13.7083
13.8627
14.5176
15.0014
15.5776
15.1321
14.2989
16.2564
16.125
15.9233
15.9234
16.0233
15.2225
14.5528
14.6289
14.4284
14.4364
14.8736
28.3723
14.6546
14.6259
14.3159
16.843
14.3837
14.4942
14.693
15.4485
13.482
14.2179
14.2907
8.60955
13.7479
11.5254
11.256
14.4685
13.7303
14.6563
14.735
15.0357
14.5061
14.1241
14.5237
14.4771
10.8403
13.1636
11.8976
13.858
8.39992
11.7758
12.8549
12.1199
13.8621
14.6536
13.0346
9.39271
8.7972
14.3662
15.116
15.178
18.9675
14.5773
13.882
16.8674
32.5761
5.93489
6.47758
-4.00514
13.715
12.5828
51.7898
14.1248
17.6635
14.8253
16.4045
15.242
14.4932
14.7979
14.1221
17.6972
13.5285
14.1567
14.1351
13.5688
13.1531
14.1361
10.242
12.6085
13.5526
14.6043
14.1861
14.3314
14.5311
14.7888
10.1965
15.7414
17.5457
17.8973
14.6707
16.0635
14.4628
14.4132
12.8353
13.7066
16.5965
15.4201
15.094
14.2797
12.1532
10.4432
12.9983
13.0989
11.3881
15.0034
14.4315
12.1032
11.626
15.0003
14.5355
13.9289
8.13869
17.7272
14.648
17.3471
13.77
13.7703
12.6124
8.62837
12.8784
12.1796
8.07943
8.53661
17.4654
12.7054
18.7911
15.2468
12.3811
19.7885
23.0053
29.965
16.5588
17.1583
9.5605
5.0198
5.5653
17.8119
15.4743
13.8765
16.0692
14.9895
9.47078
12.8213
14.4045
17.3122
-64.3633
-28.3238
-27.7406
-14.2272
-133.216
22.8227
11.4269
11.4966
13.7897
13.1667
14.584
13.4853
12.101
13.0313
13.2532
12.9698
12.2556
1.52946
27.9221
28.8334
9.09447
10.2818
36.9836
13.5233
14.257
16.229
6.77223
10.7785
13.1475
16.8548
10.2644
15.1685
15.4803
11.851
7.68482
10.3855
15.5444
14.8639
13.2614
20.4307
5.71591
45.6632
16.2639
24.6488
15.4375
14.6635
15.115
15.0041
9.42771
8.15534
14.9449
10.0518
41.1747
15.763
47.5078
11.8447
9.63188
14.919
7.69799
20.0045
15.0309
14.6663
13.9605
15.3144
13.7708
13.9035
14.9272
14.6621
12.8542
15.2132
12.201
15.6687
12.7581
12.7993
14.0984
13.1462
13.4841
44.6711
14.121
54.374
52.2111
14.9598
13.5973
19.6276
12.4219
12.7116
13.5648
14.4091
14.3048
6.0783
14.1848
14.4518
10.8894
8.21643
14.0429
10.8721
11.7818
11.4479
13.5716
9.34323
8.04755
9.75771
13.387
13.1609
14.1123
13.5506
14.5217
14.8991
18.0529
17.2004
16.9164
16.2729
14.6656
13.8061
-7.76237
12.6119
12.153
12.3396
13.1622
17.6785
9.9165
12.832
13.71
15.7456
11.861
14.0708
13.6378
12.9648
13.4339
12.1627
12.9223
13.0259
6.87305
53.8063
-50.7082
13.4255
14.2726
-83.2137
16.3619
12.7982
13.0135
15.209
14.4766
12.8257
14.4073
11.1879
13.2621
18.6108
14.6778
15.5258
14.7624
14.2497
12.791
19.1613
13.1941
17.0618
24.8213
7.75503
13.1554
18.0881
14.3432
14.2422
27.3269
9.87524
28.194
8.66977
37.0718
31.547
10.5799
19.1335
10.2699
7.9264
7.99093
7.39231
11.7025
11.6878
10.9814
14.5756
16.8881
16.3644
16.1725
14.5644
22.3924
20.2823
14.5738
14.628
10.6088
7.19221
11.5848
10.4073
18.6088
14.7498
16.5407
17.0372
13.9315
15.8438
18.098
28.9859
22.5671
18.854
14.0732
15.7515
14.4365
19.0755
14.1156
15.5353
14.6073
13.7065
15.1992
15.8308
18.4925
16.2
15.9
15.6921
14.6606
15.5464
16.3725
16.3554
16.2439
14.5463
14.5993
17.0597
16.053
17.2611
14.5905
14.6042
16.2271
15.4673
14.5936
13.9789
14.4077
14.0146
13.7599
10.2176
15.2787
15.1506
15.7165
15.301
18.1164
16.0942
17.0101
17.5874
14.4821
13.7481
14.2791
13.9008
19.3371
27.197
28.4032
14.2295
16.8232
16.9916
14.9736
31.7177
30.803
33.5307
34.69
13.7156
13.6723
15.6758
15.458
12.6586
12.802
12.9253
12.5314
15.9782
14.5629
14.5012
14.4816
15.1295
14.3139
14.8911
14.761
13.2123
13.341
14.8834
15.0855
14.3432
13.6283
14.3325
13.6803
13.5035
13.4992
14.6149
14.6049
14.5841
14.5691
14.5454
14.4861
14.4979
13.6105
14.696
14.5424
8.98852
9.07539
9.79754
13.6864
14.0124
13.6923
13.9273
10.1446
6.82946
14.7201
12.408
9.35096
11.2297
11.4291
7.76664
8.92427
14.6595
14.6554
14.7438
14.6574
14.6478
14.5179
12.3355
7.76594
14.5464
18.89
17.9338
18.6739
16.7736
14.4914
13.1816
13.5817
13.8311
12.6432
11.8665
17.1539
9.10264
10.0388
15.8311
20.4244
11.2316
11.5587
11.3105
10.9158
10.6973
16.3409
17.3744
24.4579
23.6387
25.6679
19.8769
11.2386
16.3957
13.7827
15.1936
17.7977
15.8236
10.3864
11.5165
14.0459
15.1863
15.8059
15.4182
14.7143
15.4116
13.558
13.5241
12.9274
12.9597
13.0632
13.631
12.7812
13.4544
13.9832
14.8142
14.1984
13.8613
14.6182
15.0056
14.7404
13.9195
14.564
14.6112
26.1669
14.5115
14.3589
23.9662
14.3143
14.2859
14.5105
14.1975
14.5965
15.0242
22.791
22.9608
5.61941
6.31591
7.85197
7.46036
7.25179
15.8874
17.8687
18.9446
15.5204
12.06
5.7208
9.09914
9.87617
8.43318
9.21923
9.72731
12.7516
10.6336
36.5454
24.402
26.1286
17.8131
7.95601
10.5566
13.0513
6.78831
11.3913
10.6919
6.49784
41.4606
26.1714
22.3677
15.1654
17.0232
17.292
18.2058
14.8858
15.8446
16.2431
14.5628
14.8743
15.9102
14.1336
14.8207
14.4149
14.2915
14.3491
14.4389
15.8777
15.8187
14.3643
14.7019
14.415
14.6697
14.1798
14.8958
14.5049
14.3343
14.5481
15.1749
14.946
15.6453
15.8544
14.3331
15.0721
15.0975
14.6791
14.7805
12.0179
13.3668
14.0814
14.7827
17.5721
17.2353
17.9795
30.458
14.133
15.4867
14.3597
12.5763
13.388
12.6787
12.8239
12.927
13.0665
13.1119
15.2351
13.3506
9.68176
12.9587
7.59816
7.39082
6.76344
12.9043
16.1289
16.1328
9.51451
9.47509
10.0485
10.0372
13.5654
10.108
10.2522
13.3482
12.0746
11.7931
-34.1523
14.8475
14.3329
13.0046
13.9005
13.4749
13.4751
14.9942
14.3631
14.6041
14.3383
14.4581
13.4441
14.7098
14.5349
14.519
14.5901
14.1306
14.43
14.2803
15.3545
14.5099
13.0628
13.2096
13.1149
13.056
12.9622
12.1582
8.57729
12.0042
13.1518
15.0026
15.1237
15.0425
14.85
14.9949
12.1282
11.0159
8.9055
9.11988
14.6186
13.5479
13.065
13.2142
14.1653
14.4803
14.1496
10.7115
13.1578
14.8638
14.7739
14.9804
14.7229
14.9869
13.7711
14.953
16.2349
16.0923
15.2587
15.27
15.3429
19.468
13.7909
13.0993
13.9778
-21.9475
11.4689
7.08772
6.81769
15.2917
11.402
13.3368
16.9464
13.4114
13.3607
16.8608
16.6988
16.7818
14.9792
13.2563
15.5269
13.3056
15.7874
16.3022
16.5487
16.2607
15.3013
15.934
15.6401
11.5902
10.8508
18.2259
17.5551
32.5058
31.0224
15.7427
16.7276
15.4241
12.8276
16.5235
24.7119
9.82621
9.73578
14.3121
12.3136
14.4913
14.3922
13.5663
14.2384
14.3968
14.3964
33.6948
14.8846
37.2716
12.8336
12.5556
12.8531
14.9337
12.6063
16.7451
13.3211
19.102
35.025
62.5332
14.4602
14.8911
14.6261
15.2522
13.7229
14.4408
14.509
14.3927
14.498
13.4512
14.3563
13.4352
10.9198
13.009
12.8337
15.151
14.8872
15.9778
14.9753
16.6968
13.4902
13.4873
13.5532
14.3154
13.1276
17.1442
14.6801
14.7901
16.4658
16.0438
13.5194
15.2168
14.0248
13.7265
14.4826
23.9337
14.5673
14.3904
23.9355
7.80535
13.8281
33.484
9.48953
13.8251
12.3571
12.9179
11.2374
15.2448
10.2235
14.3128
13.3632
10.2665
18.5682
13.1251
13.9427
14.3084
20.371
16.5809
12.617
15.4409
14.56
9.7415
14.2785
11.3548
15.3314
13.4268
15.0506
13.0417
14.0905
25.4818
20.5889
29.8222
23.8791
17.8065
17.2554
16.0974
17.3895
16.6254
16.8006
16.0867
14.4311
16.4528
10.6855
49.9137
11.5479
60.1664
20.572
28.1365
23.8576
7.82724
9.41075
17.9027
8.80973
38.137
36.3405
32.9645
14.0513
16.871
14.0325
15.3523
15.4295
15.1052
10.8631
25.2092
17.5892
17.225
18.9645
19.52
21.9365
24.2757
22.4308
13.4887
16.6697
15.9196
14.252
9.37488
10.0257
9.72066
9.96049
11.1732
15.8358
14.353
9.82387
35.0572
22.5378
15.0938
16.424
19.1993
12.2483
22.4945
23.2372
13.7612
17.1919
22.1313
10.1213
14.4544
14.4019
11.7956
13.7854
15.1031
13.0343
13.9191
13.3865
13.4613
14.0525
12.2918
7.48782
24.0108
14.2344
8.73869
10.8048
15.3098
8.06753
6.68142
11.0461
2.34238
16.8204
7.03956
8.69442
11.042
14.2885
14.3623
11.5104
25.1952
20.2232
8.09029
11.0468
25.9851
-78.6536
36.8396
17.2398
16.6439
16.6395
12.3163
15.8155
17.4166
17.9532
16.3301
18.6287
16.6958
16.5171
24.6175
23.5256
21.5612
18.4733
15.5885
12.1631
10.9841
48.8903
-23.6841
15.9898
27.9041
14.7524
16.221
19.9423
24.2053
-32.8958
20.0056
28.9691
19.5708
21.5238
41.8171
28.4407
16.354
10.9273
8.80388
5.69585
16.5887
16.3502
18.8613
13.2191
14.0942
8.02807
11.1381
11.9225
13.1914
17.5363
13.5796
17.6201
15.773
16.2361
17.3441
18.6236
19.2167
18.5279
16.4147
18.6135
16.6776
16.198
16.128
16.2598
14.4852
16.5635
14.2711
14.5953
16.3477
15.614
14.5904
9.89478
12.2039
15.1393
15.1043
13.6617
11.6609
16.1869
13.5777
10.5374
13.3009
15.9103
16.7881
11.1942
14.1563
17.3003
15.982
15.5651
20.7648
12.2585
11.7658
14.6795
14.508
14.5448
8.68901
16.6692
14.6063
14.3252
14.2269
14.2553
14.4066
11.525
14.2042
14.169
14.0141
14.0711
13.8807
14.0009
14.4801
9.83214
13.2194
10.7728
8.98924
14.0296
10.8578
11.9243
14.0778
20.9345
17.3322
10.4124
16.9359
19.5016
16.8184
18.1239
-121.42
-71.7736
21.5459
16.3963
53.5558
24.6188
16.5081
20.0471
18.556
16.7469
17.2028
16.3205
16.847
16.829
8.96016
14.9379
14.3394
13.3096
17.4827
14.7447
16.8139
11.6918
13.5492
14.0196
12.5176
28.8646
15.43
14.7384
14.8023
14.7721
14.7086
14.6009
14.4814
14.3715
15.1301
14.4602
14.0211
14.4192
14.8252
15.5813
15.1849
14.959
14.4888
14.3932
15.153
14.2584
14.4555
14.7532
14.3249
13.687
15.3306
13.5467
13.5731
13.4721
12.9359
13.7011
14.2451
14.5834
14.5218
14.046
13.9039
14.3296
14.1288
12.0285
14.9267
15.3024
14.8277
14.4201
15.0695
14.5819
14.803
14.5736
15.3185
14.616
14.7274
14.5793
13.685
11.3364
13.1377
13.4373
12.998
14.3385
14.9267
14.5781
14.5021
14.5877
13.7104
13.6013
13.3571
13.0068
13.05
13.5153
13.6828
13.8777
13.77
7.72597
13.6532
13.7667
18.3133
17.7473
18.712
13.7088
13.4311
12.8647
13.3191
13.5264
13.6178
13.5058
13.9582
11.361
14.5144
13.5998
13.5815
11.4184
7.75798
8.61102
8.46656
8.06095
14.7781
14.5334
7.80828
7.37739
8.49164
10.5142
14.393
14.2355
14.4064
14.7249
14.4465
14.591
15.335
14.7809
14.204
13.4469
14.8811
14.7811
14.2462
16.1522
21.1635
11.3067
10.9816
9.25186
6.8977
7.85845
7.1017
8.08411
7.81517
7.37619
11.8875
11.9254
11.5712
20.974
17.456
11.9725
16.9737
13.6183
10.1692
13.5871
5.92815
5.93354
5.92768
6.89182
11.3432
15.2297
16.1836
16.7544
17.3383
13.2423
13.4717
16.8573
13.7206
11.6764
7.94877
16.6006
15.3621
14.9784
15.1792
14.3614
12.7273
17.7958
15.2419
13.2629
13.7219
12.1358
16.553
10.1994
14.0576
14.0195
12.2837
14.1146
13.2256
13.8989
10.9427
15.6437
16.3191
8.86518
16.4102
17.1022
16.9245
19.1649
16.7126
7.15634
9.86396
35.6571
11.8017
13.0388
18.0575
7.33751
8.99136
8.41238
9.25553
-104.091
38.5024
14.6332
15.6916
14.8811
14.7116
14.4235
14.5275
14.5457
14.8286
17.1208
14.7977
14.7728
14.6118
12.5861
18.787
11.9391
12.4212
11.0978
12.6574
13.5152
13.4319
14.5296
13.9896
14.2823
17.2444
13.7494
17.0175
15.0879
16.7682
16.1044
16.6495
16.4188
15.7531
56.1382
14.224
55.135
16.7785
17.3176
57.2426
10.3918
16.4459
13.7972
13.5022
13.4618
17.486
14.7814
16.9273
25.7294
21.3355
14.1204
15.0629
15.7531
6.50251
15.26
16.9208
15.4912
19.1817
12.8293
19.2718
16.4668
14.8597
15.6239
15.5449
14.8255
16.562
17.7314
15.9611
17.5406
16.7517
16.0203
16.401
18.8032
19.7204
17.7447
17.6297
16.8944
17.3682
17.0928
15.0011
17.7304
17.8804
15.8242
16.7806
15.0968
16.4586
15.6236
17.3298
13.0576
12.9496
15.8016
18.3262
21.7895
12.6855
5.50171
6.36521
8.61169
5.52429
8.1659
8.50571
21.1984
10.1525
8.9776
12.9431
12.8681
12.0051
32.1389
11.5275
19.6752
20.7884
29.3388
27.7026
17.7104
15.817
16.0904
14.8995
30.7996
17.4351
11.5002
43.7906
14.848
18.4971
13.3179
14.7924
15.1293
7.61808
10.3746
9.57416
8.66416
15.1008
13.5974
12.3771
13.6058
14.2226
16.5369
16.1856
10.6481
12.3055
14.6653
18.1928
7.54517
15.6667
15.1727
14.7496
14.8503
14.4372
14.8095
18.532
16.8466
11.8269
28.5648
16.1902
8.30201
15.4133
9.28751
12.999
11.4512
19.38
9.30687
10.8181
9.99237
23.8183
14.2599
22.4678
22.0551
22.4001
22.4723
16.2897
10.8652
11.1419
20.0308
19.7029
61.3384
12.8047
9.10965
13.1399
15.5724
8.73826
10.0947
7.4696
9.34584
-75.7659
7.48024
8.0766
29.5051
28.9809
11.1407
14.5202
9.09387
18.438
9.16799
35.0574
6.271
13.9611
10.2965
16.8925
22.8303
16.3098
27.1235
13.9635
18.3022
11.1145
30.566
24.316
28.1389
18.8155
6.83514
32.2591
17.5147
57.6406
24.7926
8.71191
-66.8374
-134.207
14.8382
17.9876
15.9112
17.9835
23.4137
15.5906
13.4733
39.39
16.2661
15.2131
14.4124
-14.8007
14.389
34.4365
12.574
27.2654
14.0867
13.5339
18.3398
20.0453
15.3969
18.5788
17.9321
-0.829849
13.8294
25.3919
27.916
21.6551
11.8255
13.1118
16.0586
15.598
15.715
16.6386
17.7222
14.7117
8.63902
-35.0736
23.8842
11.3341
8.61899
12.9564
9.05096
16.17
6.52646
16.6207
18.6587
20.0963
20.8736
19.6481
15.2097
20.7121
17.6501
15.5569
15.8729
17.2967
18.7512
18.5195
16.6203
15.1352
16.4765
20.3925
17.5277
17.6151
16.7287
16.03
17.4337
16.5208
-5.79946
14.9279
7.28195
7.26853
8.3979
8.22416
7.87786
5.29801
5.79022
13.0765
13.7694
15.1349
8.53864
9.34976
12.0615
9.38969
9.34621
7.77655
6.64939
8.06543
11.3825
12.5549
14.9597
13.3402
21.195
29.2511
22.0482
20.8944
17.7424
17.1374
17.241
24.9519
14.4302
20.9127
20.6485
13.8531
12.3004
13.4726
13.6524
12.4609
17.9219
14.9064
17.8823
6.41011
10.4667
8.41468
12.8161
12.767
18.9486
15.3662
15.1813
16.7454
15.2562
8.04972
14.5953
8.40469
18.5637
7.97137
9.25545
16.3864
17.1111
26.5146
17.3243
15.1471
45.2724
18.5692
6.49469
32.3925
6.61563
23.1223
25.5775
15.7028
16.0457
17.3357
16.2574
13.4924
14.0115
14.1223
8.76098
16.3477
15.1768
8.38623
15.0392
14.9623
14.5972
15.1974
36.2258
15.3514
-109.989
16.1628
6.66032
5.79048
6.76607
6.19404
10.6149
13.1421
13.5708
13.9051
9.80533
8.04061
9.51434
12.7048
8.88721
14.0904
11.0365
11.7838
9.56793
12.5568
8.30466
11.2328
8.63533
16.1415
21.0795
7.35412
8.78766
6.87553
8.20105
13.4691
7.69438
16.779
16.9899
14.6589
16.5679
14.2202
24.0817
10.994
39.825
28.6106
27.0765
38.4621
14.3679
15.1161
16.9711
15.9728
29.3111
46.3128
25.4475
16.2764
15.5609
15.5703
5.84557
6.41839
15.8837
14.7864
34.5877
28.1288
13.6902
17.5648
17.2971
17.7198
13.7118
10.0026
11.628
22.0816
13.2651
11.6554
8.5933
9.84956
13.0976
6.83384
7.0731
8.3966
9.30751
7.4112
14.9917
20.0793
14.8076
18.6247
35.6737
15.9554
10.7369
16.2934
18.8988
15.2611
18.3054
14.4978
14.1706
14.5049
14.6751
14.373
14.5656
15.3568
17.3127
17.2456
16.4859
14.7163
14.6459
14.4585
14.4138
14.5918
13.9894
14.0559
14.3357
14.163
15.0667
13.9646
14.6601
13.7318
14.7454
15.0875
15.1081
14.5116
14.0164
14.8874
14.9005
14.8502
15.7305
15.2797
7.60419
17.8846
12.9806
13.9844
13.199
13.0629
13.356
13.4652
12.7289
19.2357
19.2511
13.8735
21.4186
21.7176
18.1743
12.3287
8.05115
19.2514
20.27
22.34
22.348
21.2196
19.2732
20.6989
12.0748
12.5425
15.7958
11.4781
17.327
14.1893
13.4833
14.4068
14.552
13.2422
16.2286
14.4146
14.6133
14.6386
14.4891
14.7376
14.7082
7.85573
14.5001
14.5796
14.4913
36.4364
31.3608
14.7766
14.6372
33.2223
32.3726
14.5671
8.26728
13.21
14.4914
13.0095
14.3046
12.8312
13.2335
13.0777
12.9687
13.3666
13.5958
8.39664
13.6087
12.569
15.047
14.3891
14.63
14.3371
14.2689
14.6071
10.5463
12.7679
13.0793
10.6304
11.5155
6.49966
6.55177
13.824
13.771
13.4959
12.216
5.93354
15.1743
14.2713
14.5188
14.6398
14.787
14.8771
14.8126
14.9211
12.0717
14.9252
15.8785
15.2299
14.5525
14.6805
14.7993
14.8621
14.7584
14.9321
18.588
13.0177
13.5762
8.93187
9.49603
35.0467
19.7019
21.0668
19.3373
18.0507
12.9205
22.0206
18.5551
13.5526
13.5299
15.2292
15.1523
14.1942
6.17497
6.15406
11.603
12.3103
13.0671
13.441
12.4657
11.542
12.6878
27.8759
11.1795
13.3624
13.1829
10.7407
11.9143
9.99913
13.5874
29.1944
10.9646
8.8487
13.3379
17.3865
17.6798
17.8673
18.4632
12.8835
11.3357
8.96989
11.7731
14.1148
14.4585
14.3767
18.0245
19.3447
12.6647
13.9963
15.3474
14.7633
15.675
15.4306
17.8345
-60.987
30.4578
13.8419
13.7881
13.7363
14.5811
13.9948
11.5858
12.0847
10.6901
11.0075
6.80752
6.11544
6.13711
6.71592
6.52019
11.1676
12.3754
25.9356
14.4832
13.7153
10.7482
15.0196
14.778
12.7588
13.1808
13.3107
13.624
13.7323
14.6153
15.089
14.3114
14.179
14.2407
10.5645
10.9358
14.5538
14.0957
14.4157
14.6682
14.7613
14.1187
14.4987
13.1607
13.8525
16.6749
13.4029
14.1497
12.6849
13.3978
14.7951
17.0013
14.4426
13.9006
13.9076
13.6917
13.7534
13.5741
14.5235
16.9315
14.6125
14.6091
14.3027
14.4767
14.5327
10.9226
8.69156
16.0918
16.4552
16.0197
16.2458
15.7816
15.6107
8.25426
8.74553
10.4054
11.6975
9.65643
10.3506
13.0512
10.9358
9.59254
14.7294
15.1424
14.2293
13.5296
14.4615
14.7332
9.36427
13.3992
13.4238
12.9053
7.2808
7.84064
13.5093
14.2164
12.3643
12.1789
12.8769
12.3975
13.606
17.451
10.5107
8.61321
7.97063
28.5013
27.4332
8.2739
7.42118
8.16306
7.87686
7.79081
15.4146
18.0943
14.1674
10.2991
18.3066
15.2987
15.8646
18.3544
14.323
14.9474
14.8761
14.421
21.328
18.0615
15.6995
19.2733
15.5886
25.0707
15.937
15.0195
15.6176
16.8213
21.406
17.8787
6.84597
13.8995
8.2774
7.99426
9.32987
7.58168
9.11685
8.23499
14.8368
15.2551
16.0933
15.6167
13.0733
7.0652
5.74956
6.56573
9.68937
15.0981
12.7835
14.9273
11.7775
14.9828
14.6235
16.8128
11.2586
10.5614
10.1636
8.5881
17.4449
9.86973
11.7238
12.3036
14.2613
17.2712
10.1749
8.94192
21.8518
15.8492
9.58149
22.5225
13.966
17.2752
16.2056
14.5914
14.7152
15.3173
22.0187
14.8345
16.2261
16.2
14.2285
15.2728
13.7873
14.9401
13.8
11.212
9.49101
9.66566
8.05017
8.19995
11.0882
11.7988
9.92298
16.6087
16.9889
8.2323
4.5756
8.81272
9.61236
18.4487
14.9416
16.1222
15.8725
18.192
12.2226
11.6566
10.8078
13.6388
14.3547
16.6809
17.3379
18.1053
42.98
34.4058
22.562
26.4967
24.3238
15.7736
16.361
15.8245
17.3702
13.5428
26.6613
19.9852
19.3219
10.817
21.4665
16.5843
9.09333
13.2172
18.4725
28.0157
27.3934
26.4044
25.0441
18.1241
16.9658
16.0433
8.75014
17.6418
17.0493
15.6576
15.7668
15.1992
14.7325
18.4526
15.1919
17.9344
8.50805
15.3038
16.69
16.4135
14.6844
13.8943
14.2393
15.6129
17.0348
14.8393
17.4881
14.71
14.3147
15.9797
8.70071
7.65764
12.7564
12.0745
12.3084
14.3249
16
15.8518
14.9919
14.6537
14.7254
6.72981
5.19855
12.6511
13.0252
7.64258
4.94945
10.4891
11.6222
11.6461
10.4072
11.1288
12.0723
12.8444
14.7695
17.631
12.2066
12.3033
20.119
14.2965
13.8236
15.2395
15.2289
14.4011
15.3875
10.1429
9.20394
7.64967
7.28345
7.63943
15.6999
14.8088
5.59577
14.4878
5.21831
13.2945
13.1166
11.7366
11.4685
11.5387
9.80448
12.0686
8.59879
11.6112
7.13809
9.62824
8.54837
14.1424
10.6746
20.0157
14.4523
7.9733
11.0207
14.217
12.4628
14.3202
14.2885
8.84965
14.8849
14.1351
18.28
-2.87855
14.4383
14.0437
14.6759
13.8219
14.5312
52.511
48.1761
59.238
23.7462
18.6501
14.5003
12.351
22.9636
14.5537
22.3953
17.3446
14.9239
14.5555
15.1425
15.1618
15.6266
14.3384
14.4684
12.8627
14.6403
13.7742
14.9777
14.5562
13.8313
14.4417
14.53
15.6648
16.5953
14.8769
16.9316
17.9469
17.4716
13.6245
12.3937
6.86729
8.59844
7.87155
13.3314
13.0981
13.5457
17.6586
15.0555
15.1264
12.4944
10.3664
10.1482
12.7158
14.2461
12.8763
13.5133
17.5246
33.6498
35.5613
14.9652
13.8554
15.5945
14.4091
14.7568
14.845
15.7768
13.8713
13.837
14.5735
14.6383
14.5164
15.336
15.4699
13.1424
13.4494
12.1653
13.3395
14.8686
14.736
14.8485
14.1313
14.4673
14.4936
13.2507
11.5929
12.375
12.2099
12.793
13.2422
14.398
13.4611
14.8435
14.826
15.4466
15.8321
13.3505
15.6795
12.9751
15.2116
13.6066
15.5645
12.75
12.9683
14.4464
14.4268
14.5525
14.7756
14.1771
14.2528
13.0435
13.8342
14.7317
13.7991
14.537
14.3633
14.902
14.1643
14.6113
14.5742
14.5263
14.5622
14.2305
14.5935
15.3585
15.1422
14.6293
14.8671
16.8595
22.1451
20.1719
19.6493
19.5489
22.6891
18.8392
17.1127
17.2605
14.318
15.1296
14.6686
23.4299
31.3096
29.6331
17.8104
18.3717
18.564
18.9207
21.3183