/*--------------------------------*- C++ -*----------------------------------*\
| =========                 |                                                 |
| \\      /  F ield         | OpenFOAM: The Open Source CFD Toolbox           |
|  \\    /   O peration     | Version:  2506                                  |
|   \\  /    A nd           | Website:  www.openfoam.com                      |
|    \\/     M anipulation  |                                                 |
\*---------------------------------------------------------------------------*/
FoamFile
{
    version     2.0;
    format      ascii;
    arch        "LSB;label=32;scalar=64";
    class       surfaceScalarField;
    location    "0.0263738";
    object      phi;
}
// * * * * * * * * * * * * * * * * * * * * * * * * * * * * * * * * * * * * * //

dimensions      [0 3 -1 0 0 0 0];

oriented        oriented;

internalField   nonuniform List<scalar> 
7391
(
0.0484146
-0.0387539
0.0321937
-0.0418544
0.037542
0.0252199
0.0236814
-0.0864433
-0.0402749
0.00817771
0.0367122
-0.00461502
0.0908885
-0.0893671
0.0232649
-0.0247863
0.0125978
-0.0172527
0.00109708
0.00355776
-0.036601
0.106818
0.0605995
-0.130816
-0.0845245
0.108274
0.00816184
-0.0319111
-0.0440955
0.0104424
0.00203391
0.0316192
-0.0503267
-0.041234
0.0653261
0.0262347
-0.0334492
0.04014
-0.0138652
0.00717449
0.0270795
-0.0504183
0.0233388
0.089951
-0.0255957
-0.0124514
-0.0519039
0.0748366
-0.00736563
-0.019232
-0.048239
0.0679776
0.00504879
-0.0172732
-0.0557532
-0.0404399
-0.0531742
-0.0553934
0.149007
0.00495468
-0.0284163
0.019432
0.0249785
-0.00957611
0.0366602
0.0223263
-0.0218506
-0.0627774
0.0623016
0.0435938
0.0572816
0.0189222
-0.119798
0.0377989
0.0127261
-0.00204823
-0.0484768
-0.0809612
-0.000294453
0.0812557
0.00153191
-0.0986602
0.16493
-0.067802
0.0885469
-0.147873
0.0308765
0.0284497
-0.0853043
0.143271
-0.104647
0.0466802
0.0852174
0.113228
-0.0784704
-0.119975
-0.0951089
-0.0287444
0.11154
0.0123133
-0.0570483
0.0594647
-0.00241634
0.0186688
-0.0474587
-0.0557346
-0.0510183
0.0414559
0.0981156
-0.0885532
0.0646654
-0.038837
0.0265214
-0.0523498
-0.0845757
0.0924427
-0.101981
0.0941144
0.00126672
-0.0342583
-0.010034
0.0430256
0.0459108
-0.0694762
-0.0613306
0.084896
0.074314
-0.0647553
0.0291146
-0.0386732
-0.041239
0.0535463
-0.0110406
0.0979996
-0.0487091
-0.0492906
0.0477624
-0.0162564
-0.00527875
-0.0262272
-0.0522212
0.0421415
-0.00795614
0.0180358
-0.0327869
0.114488
-0.0480398
-0.0336615
0.0410815
0.0300774
0.037329
-0.108488
0.105296
-0.247213
0.107862
0.0340551
-0.0353109
-0.0261859
-0.01964
0.0811368
0.0555022
-0.0285706
-0.05092
0.0239884
0.0519086
-0.0603039
0.0638975
-0.0630399
0.0475956
0.0154443
-0.0597502
-0.0167971
0.0105351
0.0660122
-0.0701464
0.150036
-0.0664662
-0.0134234
0.03657
0.0382196
-0.0747896
0.0865729
-0.0485526
0.0590799
0.0359562
0.0111178
-0.0057337
-0.0413403
-0.0391049
0.0354389
0.0144077
-0.0107417
0.0321874
-0.0251252
0.00141592
-0.00847818
0.0754528
-0.0741687
-0.0240868
0.0228028
0.0734531
-0.0416056
0.0188899
-0.0507374
0.0502929
-0.0986511
0.0578861
-0.00952789
-0.0234714
0.0479473
-0.0133721
-0.0111038
-0.0054404
-0.122599
0.176055
-0.0480154
0.00991851
0.00899706
-0.0621561
0.0432405
0.0504476
0.00527631
-0.0458054
0.0125544
0.0656927
-0.0692501
0.00296669
-0.0544205
-0.0107023
-0.0348301
-0.0077873
0.0455841
-0.00167684
0.00132923
6.79753e-05
0.000279632
0.000252801
-0.000334856
-0.000450891
0.000532946
-0.00403319
-0.00746166
0.00891178
0.00258307
0.0549768
0.0439176
-0.0175114
0.0970384
-0.0956861
-0.0194291
-0.107809
-0.00828453
-0.0443412
0.160435
-0.0107045
0.00726123
0.138491
-0.135048
0.0653092
0.0188231
-0.00529346
-0.0788388
-0.0566368
0.02832
0.0283168
-0.117144
0.0242329
0.00592292
0.086988
0.0382044
-0.0438454
-0.0189972
0.0246381
0.0476409
-0.0597272
0.0502908
0.0341684
-0.0357262
0.00074291
0.000814824
-0.0336846
-0.00935625
0.00669439
0.0363464
0.0107692
-0.102455
0.0478405
-0.088294
0.093121
0.0369396
-0.0417666
0.0579975
0.0335908
-0.081768
-0.00982025
-0.0480953
0.141945
0.005024
-0.0988742
-0.0433826
0.0309918
0.103155
-0.0907642
-0.0502011
-0.0267985
0.0541012
0.0228984
-0.0995013
0.0994603
0.000169486
-0.010751
-0.0018515
0.012433
-0.0086349
-0.000379452
0.0049205
0.00409385
0.0268366
0.0100203
-0.0368568
0.0011557
-0.00109361
-0.008697
0.0728238
-0.0440053
-0.0512066
0.0223881
0.00183342
-0.0247789
-0.02115
0.0695035
0.0429256
-0.0396054
-0.00798014
0.00930533
-0.0452103
0.0370634
0.0219086
-0.0137617
-0.0479798
0.029849
-0.00258333
0.159404
-0.158484
0.00166297
0.108105
0.0159172
-0.0157484
-0.00957621
-0.00522077
0.00478935
-0.00565381
0.000385839
-0.00909093
-0.0942197
0.10777
-0.0234809
0.00993082
-0.0131153
-0.00211468
-0.0144911
5.24685e-05
0.00245849
0.0655731
-0.0460869
0.0117531
-0.0312393
0.0375428
0.0558788
-0.0278484
-0.0273323
0.0548672
0.0282361
-0.055771
0.0277116
-0.0550438
-0.000263095
-2.39901e-05
-0.0331621
0.0124569
-0.0100317
0.0792177
0.0686782
-0.0538043
0.0971359
-0.11201
-0.0233809
0.114236
-0.0533128
-0.0419872
0.0449793
0.0518751
-0.0384537
0.0366792
0.00177446
0.0405912
-0.0798152
0.0731661
-0.0339421
-0.0570198
0.0514319
0.0861054
-0.0805175
0.00420534
-0.00055297
0.00222989
-0.00588226
-0.00281802
0.000288246
0.0407803
-0.110529
0.103789
-0.0340404
-0.00359222
0.00154893
-0.00488529
0.00415915
-0.00730369
0.00259158
-0.0207326
-0.00958331
0.117702
-0.087386
-0.0258506
0.0592835
0.0408811
-0.0721865
0.0281812
-0.123962
0.0477865
0.0761754
-0.0430036
-0.0325554
0.0275792
0.0488896
0.154099
-0.223312
0.0203232
-0.0916988
0.0653719
0.0259699
0.000357045
-0.0134884
-0.00371817
-0.00122935
0.0173556
0.110537
-0.0474001
-0.0804927
-0.156231
0.0862223
0.0760239
-0.00601552
-0.0393386
0.0420504
0.00763949
-0.0103513
-0.042008
-0.0425677
0.0460252
0.0145313
0.00189772
-0.0624542
0.0283262
-0.0340755
-0.051299
-0.0272476
0.0549591
0.00403592
-0.0122624
0.0676184
-0.0593919
-0.0331569
-0.0299704
0.0631273
0.0313286
-0.0644855
0.0501113
-0.00449729
-0.045614
0.0384212
0.0351835
-0.126576
0.0529714
-0.0981884
0.0601869
0.0764226
0.0329613
-0.0998211
-0.0466316
0.108485
-0.0380484
-0.0238054
-0.0303855
0.0439409
-0.0553521
0.1099
-0.0545479
0.00278359
-0.0447465
0.00924737
0.0327156
0.0780457
-0.0305351
0.0341063
0.0748133
0.0408217
-0.037124
-0.078511
0.0312911
-0.0318858
0.00059479
0.0149134
0.206606
-0.158399
-0.0631201
0.00573046
-0.00294488
-0.0207626
0.0174033
-0.143515
-0.0222852
0.148397
-0.00439962
-0.0120862
-0.0274603
0.0439461
-0.00834209
0.0328276
-0.030529
0.0344744
-0.0330889
0.0284421
-0.0298275
-8.22099e-05
0.000298248
0.0411899
0.0169551
-0.0912339
-0.0413212
-0.000131374
0.00705451
0.0352221
-0.0318342
0.033402
-0.0241383
-0.0234805
0.0142168
0.123686
0.0596298
-0.0933645
-0.0569713
0.0284007
-0.0385625
0.0268835
-0.039241
-0.0372732
-0.013554
0.043681
0.00714617
0.0314605
-0.0196045
0.0808262
-0.0926823
0.0412435
0.0338518
-0.0750953
0.072704
-0.00278766
-0.00617177
-0.00109622
0.00632922
-0.0117191
0.0242032
-0.0188133
0.0349046
0.0391803
-0.0216043
-0.0524806
3.38935e-05
-0.0103716
0.00872988
0.00160781
-0.0446317
0.00217171
0.0121449
0.0303151
-0.0338745
-0.012111
-0.00591506
-0.0518523
0.00320615
0.106238
-0.0575914
-0.0667825
0.0663805
0.000401978
-0.0104602
0.0666599
-0.0338734
-0.0388563
-0.0399868
0.0462822
0.032561
0.0737405
-0.0333748
-0.0343677
-0.00599801
0.0884871
0.0169052
-0.162412
0.074717
-0.0272664
0.0714457
-0.118896
-0.00163054
0.00146262
-0.0338444
-0.0653585
0.0106026
0.0606537
-0.00589778
-0.0555013
0.00212154
0.0533798
-0.01486
0.0090564
-0.00505427
0.0108578
0.0436254
-0.0996089
-0.0118812
0.0678647
-0.00426076
-0.00310668
-0.00151693
0.0226871
0.0347637
0.00913635
-0.0665871
-0.05544
0.000217884
0.000801583
0.00526826
0.00630939
-0.0182836
0.00670591
-0.00481095
-0.027942
0.0628628
-0.117571
-0.0395115
0.0207675
-0.0197598
0.0372551
-0.0382628
-0.00105678
0.0381071
0.00398569
-0.041036
0.0102272
-0.000537887
-0.00720625
-0.00248307
-0.0218106
0.0545791
-0.0375795
0.0346123
0.000151421
0.0206893
0.0996374
-0.117452
-0.000531851
0.00087854
-0.000571134
0.000224445
0.00371438
-0.00159101
-0.0150921
0.0129687
0.0064178
-0.000791347
0.00803087
-0.0136573
0.00987028
-0.0167953
0.0189957
-0.0120707
0.0760558
-0.00121918
-0.0187479
0.0503558
0.017702
-0.0493099
-0.030575
-0.015755
0.04633
-0.0479171
0.0319792
-0.016849
-0.0493229
0.0852899
-0.0361669
-0.0407486
0.103105
0.0331879
-0.106576
0.00594354
0.00149445
-0.00364928
-0.00378871
-0.00142689
0.00561045
0.143333
0.00325043
-0.00421819
0.00168037
-0.000712613
-0.000330871
0.00383379
0.0354714
0.0289678
-0.0105102
-0.053929
-0.000742546
-0.0360766
0.0600635
-0.0232444
-0.00128293
-0.00321957
0.00297182
-0.00196562
0.0040441
-0.00240935
-0.0359674
-0.0370695
0.0730369
0.0414225
0.0422202
-0.0836427
-0.0271665
0.118113
-0.0426433
0.0175176
0.00144495
-0.0200194
-0.0239436
-0.000623809
-0.00192763
0.0264951
-0.0862227
0.0754987
-0.0594224
-0.00431008
0.00395818
-0.00311139
0.00346329
0.0346001
-0.0734637
0.0388635
-0.0971472
0.0248104
0.032095
0.0402418
-0.0166685
-0.0246676
-0.0376616
0.0789977
0.00162943
-0.0102643
0.00487139
0.00376348
0.0400601
0.0420067
-0.0820668
-0.130423
-0.0192576
0.140507
0.00917435
0.0511691
0.0155822
0.000325266
-0.0670766
0.0511241
4.495e-05
0.0612538
-0.0439703
-0.00170123
0.0412333
-0.132696
0.0776002
0.0138624
0.0567833
-0.0847019
0.0649982
-0.0370797
-0.000111349
0.0269479
-0.0519854
0.0514357
0.000549712
0.0782041
0.0109285
-0.019629
-0.128167
0.118064
-0.0659545
0.0760577
-0.0271542
0.0196051
-0.0357959
0.043345
-0.0108345
-0.00563466
0.0101987
0.0062705
-0.00620369
0.0270781
-0.0443458
-0.00736778
0.00532379
0.0384624
-0.0364184
-0.0476091
-8.41032e-05
0.0476932
-0.00712728
0.00994495
-0.000640808
-0.00217686
0.0253483
0.0303879
-0.0557362
0.0243861
-0.0551974
0.0678746
0.0667937
-0.0536341
0.0530632
-0.0662228
0.13196
-0.00230888
0.012915
0.00772619
-0.0183324
0.0251683
-0.0427118
-0.112762
0.0397489
0.115725
0.0419439
-0.0846557
-0.0817208
0.0848785
-0.0287534
0.0207903
-0.0698279
0.0490376
0.0696378
-0.0522345
-0.00889483
0.00419736
0.0321623
-0.0274648
-0.0760791
-0.02796
0.0148526
0.0891865
0.0362077
-0.0353382
0.0199353
-0.0208049
0.0418598
-0.0384662
-0.135293
0.131899
0.0421511
-0.110665
0.112719
-0.044205
-0.0607569
0.0358622
0.042391
-0.0174964
-0.0586273
0.0391105
-0.0483023
0.0678192
0.0318718
-0.0519083
0.0200365
-0.0256748
-0.00100601
0.00145484
-0.00469352
0.00252515
-0.00228562
0.00445398
-0.0670462
0.0665624
0.000483769
-0.0597503
-0.00325997
0.01472
0.0481679
-0.0625626
-0.0345682
0.0675295
-0.0684584
0.0338902
-0.0308882
0.000630446
-0.00307805
0.0333358
-0.0604371
0.0661183
-0.00628094
0.000599757
-0.0181356
0.000555237
-0.0288156
0.046396
-0.060575
0.000137849
-0.000664194
-0.0740258
0.0364997
0.00883385
0.0286922
-0.0243458
0.000188243
-0.0966478
0.0899516
-0.100942
0.107638
0.0383367
0.0173299
0.0129577
-0.0686243
0.00382913
-0.0253388
0.0340641
-0.0605387
0.0629886
0.0358867
-0.0294144
-0.0236811
0.045024
0.00807151
-0.027866
-0.0155527
0.0140043
-0.000140108
0.000501467
-0.0609
0.0503075
-0.0253451
0.0344506
-0.000136765
-0.025202
0.0344665
-0.067475
0.0330086
0.0676544
0.0287693
-0.0414435
-0.0274417
0.0358055
-0.0243294
0.0159656
0.0160749
-0.0633342
0.0205814
0.026678
0.107842
0.00616877
0.0471459
-0.161157
0.115846
-0.0682253
-0.0611101
0.0134897
0.072823
-0.0745979
0.0358862
-0.0341112
0.00133247
-0.00114357
0.000460903
-0.000649804
-0.002168
0.00347647
-0.000827744
-0.000480718
-0.0217623
-0.0157028
0.0356708
0.00179431
-0.0450224
0.0182239
0.0273204
-0.0469249
-0.00425215
-0.00223191
0.00621595
0.00026811
0.00179993
0.000880712
0.00127654
-0.00395718
-0.0891315
0.147933
-0.0169419
-0.0499515
0.0496774
0.0184979
-0.108267
0.139142
-0.0889982
0.0368422
-0.0405263
-0.000824016
0.0430108
-0.00653746
-0.0356494
0.005411
-0.0106653
-0.0115866
0.0168409
0.00211439
-0.0017989
0.000257379
-9.41718e-05
-0.0341187
0.0337354
-0.111271
0.111654
-0.0673435
0.0332248
0.00186019
-0.00369992
-0.00637634
0.00821607
0.0530601
-0.0520202
0.00128796
-0.00232779
0.0127376
-0.0222958
-0.0203607
0.0299189
0.0349621
-0.0354634
-0.0305889
0.0310901
-0.0080547
0.000574083
-0.0336789
0.151913
-0.149461
-0.0505475
-0.0802658
0.00391383
0.0164409
0.0599111
0.00104352
-0.00236553
-0.00946602
0.010788
0.0473552
-0.0607346
-0.0250743
0.00366506
-0.00973361
0.00156927
0.00449928
-0.0301229
0.0837694
-0.0743791
-0.0507707
-0.00567674
0.0564475
0.0330702
-0.0346818
0.00161157
-0.103132
0.0351575
0.0275496
-0.0204915
0.0038177
-0.0108757
-0.0140967
-0.0302072
-0.0281456
0.0724495
-0.00860812
0.00245286
0.00461713
-0.00685656
0.0928593
-0.0896745
0.00367175
-0.00499475
0.00688179
-0.00791713
0.00603008
0.00250879
-0.0172931
-0.0505742
0.0401313
-0.0122361
-0.0408768
0.0129816
0.247786
-0.128163
-0.0509441
0.0365359
0.0298437
-0.0663795
-0.0614333
0.0323754
0.0655938
-0.0011963
-0.00217631
0.00120451
0.0542669
-0.0221891
-0.0370414
0.00496358
0.0538358
-0.0367593
0.0048123
-0.0218888
0.0212143
0.0266543
-0.00138465
-0.046484
0.00232402
0.0084215
-0.00661941
-0.00412612
-0.00691596
-0.00192801
0.00785901
0.000984967
-0.00259774
0.000335947
0.00175793
0.000503859
-0.0151762
-0.0291046
-0.000154924
-0.000626992
0.0298865
-0.0148605
0.000397082
-0.00269338
0.0369586
0.0220511
-0.0259394
0.0287115
-0.0207879
-0.0353558
0.0274322
0.0038201
0.0003855
0.0245059
-0.0364271
0.0181785
-0.00961747
-0.000398306
0.0198654
0.0186399
0.0822112
-0.0173836
0.0378443
-0.032447
0.0119863
-0.0607629
0.0191282
0.0483439
-0.00670913
-0.000343433
-0.00157665
-0.000190655
0.00211074
0.0397549
0.0167525
0.0671784
-0.0484289
0.0107765
0.0526613
-0.0150089
0.0244882
-0.059385
0.0348968
0.127552
0.0680807
-0.146743
-0.0011145
0.00186895
-0.00171471
0.000960257
0.00187545
-0.000988919
-0.00487614
0.0278067
-0.0302254
0.0752416
0.0669615
0.0043489
-0.056283
-0.0150274
-0.0164194
-0.0687061
0.0669898
-0.0356605
-0.14578
0.113256
0.0681847
0.0419358
0.0528667
0.0371577
-0.0387918
-0.0317599
0.0370878
0.0334638
-0.0200743
0.0223232
-0.0244382
0.0221893
0.0539376
-0.000391237
-0.00508165
-0.00720967
0.00616702
0.0061243
0.0427403
-0.117577
0.0670784
0.00775815
-0.0214678
0.00874305
-0.00641253
0.0191373
-0.0542178
0.00616409
0.048785
-0.000731308
-0.0949903
0.0485077
-0.00688222
0.0533648
-0.0369263
0.0450459
-0.0147047
0.006585
0.0233496
0.0484649
-0.0304542
-0.0413603
0.0345341
-0.0645045
0.10273
-0.107808
0.0396119
0.111303
-0.0517166
0.0431438
0.0277635
0.0123934
-0.0912657
0.0511088
-0.0113918
-0.0331037
0.0531047
-0.00860923
0.0149443
-0.0418611
0.0542229
-0.0495398
0.000404807
-0.0335085
0.0212474
-0.0658363
0.0723524
0.0589387
-0.0596986
0.000759976
0.0669238
-0.0740436
0.0419134
-0.0347936
0.0310194
0.00535778
-0.0287479
-0.00762923
-0.0474637
-0.0299943
0.0384359
0.0390221
0.0338875
-0.085873
0.00659397
-0.0663356
0.0597416
-0.000782965
0.026163
-0.000353464
-0.0250266
-0.0590894
0.0287328
0.10517
0.00773372
-0.00646769
-0.00551818
0.00813265
0.0134083
-0.0350786
0.0135376
-0.0727027
0.0948448
-0.0135782
-0.0516507
0.0712544
-0.0784228
-0.0260149
0.0636109
0.0190467
-0.0566427
-0.059261
0.033246
0.0471256
0.0644325
-0.0729344
0.0442278
0.0569934
-0.0282869
0.0356425
0.00559882
0.0042185
-0.0454599
0.00182281
-0.00429112
0.000676223
-0.0737983
-0.026607
0.0292246
-0.00890877
0.0019102
0.00134935
0.00564922
-0.0357585
0.00903756
-0.0340359
0.000589838
0.00441737
-0.00108407
-0.00392314
0.00235573
0.00493775
-0.00774122
0.000447732
0.000285079
-0.000465299
-0.000351631
-0.0804782
0.0387073
-0.0331591
0.0749299
-0.00204218
-0.000704366
0.00343556
-0.000689012
0.0112338
-0.0160458
0.00287037
0.0019416
-0.00506609
0.0138507
0.00298166
-0.0117663
0.00373714
0.0202139
-0.0375936
-0.000985919
0.00129507
-0.0392647
0.0798365
-0.0405718
-0.0789312
0.0396665
0.000788902
8.96371e-05
0.0412594
0.004857
-0.0189562
-0.0271602
0.00630267
0.0172318
-0.104692
0.0811574
0.0194922
-0.0182306
0.00541712
-0.00667872
-0.00143651
-0.000357781
0.00138994
0.000404357
0.00886388
0.00012981
-0.00419509
-0.00479861
0.00883151
0.00266121
-0.0131876
0.00169484
0.0315766
0.00924149
-0.00461036
-0.00462019
-0.0331152
-0.00219634
0.045591
-0.0534654
0.0479737
-0.0400992
0.0412481
0.0171444
-0.00784457
-0.0505479
-0.000870773
-0.000879194
-0.00230711
0.00405708
-0.00959278
0.0133257
-0.00430144
0.000568471
0.0326994
-0.000205193
-0.082821
-0.0792398
0.0380058
-0.00226283
0.0128325
-0.00863341
-0.00193622
-0.0696377
-0.0128771
0.0559646
0.0265503
0.017226
-0.00677787
-0.0138456
0.00339748
0.0023268
-0.00102022
-0.00589228
0.00458569
-2.07773e-05
-0.0103393
0.00824433
0.00211573
0.0696688
-0.0261138
0.000794447
0.0103561
0.00222608
0.027428
-0.0400102
0.120005
-0.0690717
0.0231158
0.036913
-0.126446
0.066417
-0.0428361
0.0212318
-0.059833
0.0399276
-0.0062084
0.0133066
-0.0177854
0.0370232
-0.00539797
-0.0490088
-0.011257
0.000879879
0.0541622
-0.0437851
0.0394007
-0.0338737
-0.00635097
0.00200339
-0.00904831
0.00537372
-0.0667254
0.0354824
-0.0427828
0.0540857
-0.0541971
0.0630702
0.023203
-0.0284973
0.00105082
-0.0216226
0.0107278
-0.031197
0.0315785
-0.0111093
0.0323028
-0.0407171
0.0051493
0.00880662
-0.0553946
-0.0630841
0.109672
0.0479668
-0.0239784
0.108682
0.0240511
-0.0480295
0.0421096
-0.0690248
0.0552771
-0.0149809
0.0287286
-0.0686743
-0.000350458
0.0361318
-0.030808
0.00759678
-0.0561268
0.0960695
-0.0475395
0.0711276
-0.027399
0.0095776
-0.0403856
0.0181162
0.0335757
-0.0493307
0.0239033
-0.0344894
-0.00672453
0.0173106
0.0517117
0.0498415
0.0247016
0.0684603
-0.0519286
-0.0510879
0.0513555
-0.000267547
3.62322e-05
0.0686915
0.0199546
-0.0458052
0.012079
-0.0659871
0.0539081
0.0121728
0.125609
-0.0784979
-0.0124131
-0.0282032
-0.0201466
-0.0401786
-0.00607988
0.0082897
0.00533699
-0.00577105
-0.045123
0.110359
-0.021484
0.0369664
0.0215408
-0.00709182
0.0438032
0.00454804
-0.0548931
0.00080748
0.0172432
-0.0203846
-0.0161089
0.0192504
-0.0949467
-0.0027409
0.0317288
0.0659588
0.110238
-0.042273
-0.0866282
0.0186634
0.063621
0.0204892
-0.0922391
0.00812891
-0.139993
0.0148717
0.0461964
0.0789253
0.0305326
-0.00621986
-0.026566
0.00225319
-0.00235602
0.0325857
-0.0283409
-0.00188874
0.0444719
0.0355024
-0.0865848
0.00661054
0.0358133
-0.0353395
-0.0955827
0.0337825
-0.0134702
-0.0963914
-0.0945871
0.0739901
-0.025651
0.046248
0.0121256
0.00351988
0.0467178
-0.0623633
0.0565805
-0.0182398
0.0656863
-0.101647
-0.0424138
0.0783749
0.0340975
0.100694
-0.0396661
-0.0594964
0.0197082
0.0736343
-0.135286
0.0419436
-0.0892542
0.0664273
0.102663
0.0821099
0.0185845
-0.0391259
-0.00209488
0.0603574
0.000315035
-0.0606724
-0.000811618
0.118635
-0.00452442
0.0457257
-0.159836
-0.0136928
0.0514447
0.016515
0.026023
0.0452452
-0.0588749
-0.0160638
-0.0163683
-0.0135521
-0.00939273
0.0393131
-0.0001142
0.0767058
-0.0765916
-0.0115218
0.0347179
-0.0395644
-0.0322646
-0.0221293
0.0344132
0.0199808
-0.0486283
8.51407e-05
-0.0397849
-0.0391463
0.00514442
0.00215661
0.00655575
-0.0138568
0.0010924
0.0512146
0.0185
-0.0116092
-0.0313273
-0.0110048
0.00941365
0.000497587
-0.0126827
0.0192806
0.0652824
-0.0446408
-0.0311019
0.011844
0.025582
-0.00193573
-0.0354902
0.00420158
-0.00363465
0.003223
0.0150906
0.0487384
-0.067052
0.0617275
-0.0618698
0.000142263
-0.0252687
0.00467981
0.0132012
0.00738774
-0.00261828
-0.00279817
0.0274592
-0.0220428
-0.0292568
-0.0139546
-0.004384
-0.00112434
-0.00990897
0.00865538
0.00237793
-0.0135531
-0.0351558
8.06908e-05
-0.00629353
-0.0595968
0.0523373
0.156903
-0.0427399
-0.0299738
-0.0841896
-0.0571832
-0.0748425
0.0102649
0.121761
-0.054502
0.0927593
-0.122477
0.0842197
-0.0840698
0.00310863
0.000607692
-0.00131872
-0.000173903
0.000200028
-0.0139806
-0.0012694
0.00633318
0.00891681
0.00965526
-0.0081952
-0.0037229
-0.00437323
0.00874486
-0.00861726
0.00424563
0.0394707
-0.0812215
0.0289505
-0.0159494
0.0284078
-0.0414089
0.0234605
-0.00992523
-0.083116
0.114218
-0.0303475
-0.000754345
0.0418323
0.0144544
-0.0562867
8.09945e-05
0.0404441
-0.0405251
0.00996789
0.0251591
-0.0240801
-0.0110469
0.00519724
-0.0375182
0.00359739
-0.0518612
0.0644986
0.0296885
-0.042326
-0.0372803
0.0233753
-0.0451767
0.0590818
-0.00198783
-0.0111288
0.0179339
-0.00481724
0.00846913
-0.0336057
0.00119292
-0.010804
-0.052721
-0.033224
0.0329609
-0.0540353
0.050832
0.0241747
-0.0209714
-0.000779052
0.0044822
0.00595212
-0.0389729
0.00740797
-0.0114105
0.0429755
-0.0294555
0.0489145
0.0220006
-0.0414597
0.000883965
0.00747485
0.00287496
1.12256e-05
-0.00899519
0.00937326
-0.000389292
0.0412576
0.00215757
-0.0674884
0.0240732
-0.0224355
0.0993133
-0.112636
0.0534512
-0.0328701
-0.0213237
-0.00663565
-0.00166309
0.0106228
0.00299749
-0.00926028
0.00861853
0.00086343
0.000629001
-0.00283673
0.0013443
0.0385959
0.0260893
-0.0262927
-0.0383924
0.0323495
-0.00533341
0.0131239
-0.0141824
0.00306805
-0.0141574
-0.0479828
0.0223103
0.0252742
0.00520131
0.0375215
0.00357023
-0.046293
-0.00794046
0.00353877
-0.00193333
-0.0258739
-0.0309459
-0.0267733
0.083593
0.0291347
-0.0361441
-0.0399747
0.00707609
-0.0388901
-0.0143744
0.0461884
0.00536145
-0.00615912
0.000174195
0.000623471
0.000486775
0.00399039
-0.0117292
0.0203979
-0.0073617
-0.015024
0.0171037
-0.000825102
-0.0634951
0.0472165
-0.00560193
-0.000371984
-0.0205841
0.026558
0.0272357
0.0140345
-0.0513528
0.0104808
0.0216404
-0.022959
-0.00916218
-0.106326
0.0873796
0.137581
-0.00300298
0.00860268
-0.00986046
-0.0103691
0.0144795
0.0435305
2.66105e-05
-0.000597745
-0.000143467
-0.000929377
0.00129729
0.0367483
-0.0374056
0.000657348
0.0512967
-0.0507066
0.0750155
-0.0697122
-0.0297891
0.143499
-0.0650877
-0.0624826
-0.0159286
0.0823054
-0.0408829
-0.112274
-0.0317736
0.0326451
0.0762264
0.028149
-0.0198391
-0.0845363
-0.00519188
0.149429
0.0076765
-0.154495
0.0415793
0.0584142
-0.0303934
0.0562905
-0.0485002
0.0226031
-0.033053
0.0306436
-0.0104135
0.014732
-0.000162648
-0.0903008
0.0468488
0.0436147
-0.0186615
0.00889553
0.0178986
0.0482132
-0.00473598
0.0349487
0.0534414
-0.08839
0.0496778
-0.0248976
-0.0247802
-0.0183251
0.0555157
0.0184158
0.0061066
6.04803e-05
-0.0245829
-0.106949
0.0432674
0.126544
-0.0119731
0.0314133
-0.0316313
0.0399729
0.0467411
-0.0378907
0.0512677
-0.0601181
-0.0818175
-0.0454507
0.0802184
0.0470497
0.0126174
0.0341238
0.0614489
-0.0493699
0.000381659
-0.00817717
0.0490436
0.000644171
-0.0544249
-0.000254564
-0.0576487
-0.0363218
-0.0495448
0.0153309
-0.0132271
-0.0298996
-0.031648
0.0382238
-0.00443328
-0.0100896
0.000542271
-0.0888793
-0.0203058
0.0018759
0.107309
-0.000808144
0.0394915
-0.0777546
0.0382632
-0.086501
0.0157993
0.0676424
0.00305928
-0.0561504
0.101187
0.0352943
-0.0803311
-0.0075558
-0.043982
-0.0589913
0.152111
-0.104244
-0.0812864
0.0334198
0.00229455
-0.00271534
0.0820859
-0.129595
-0.026114
0.119542
0.0175503
-0.0125432
0.154275
-0.0315653
-0.168187
0.0454776
0.00776194
0.0336482
-0.0311042
-0.0985236
0.0926273
-0.00886156
0.0147578
0.0325035
0.00678022
0.01341
-0.0695361
-0.100351
0.146932
-0.0316673
0.00889911
-0.0298687
0.09865
-0.0776804
0.0168621
0.0382
-0.150981
0.095919
-0.0175228
0.124672
-0.0536353
-0.0535136
0.0165472
-0.0346897
0.0761351
-0.0579926
0.0370631
-0.0585471
0.106185
-0.0903151
-0.0886097
0.0727397
0.0528107
-0.105178
0.0055673
-0.0315642
-0.0469375
0.0501759
-0.0648209
-0.0858091
0.100454
0.0687856
-0.0383521
0.0364904
-0.0392669
-0.0337101
0.0729771
-0.0399134
0.107222
-0.0264867
-0.0169809
0.00523725
0.0215935
-0.0799292
0.0793282
0.0757268
-0.0622957
0.0465408
0.099362
0.0860805
0.000443923
0.0663883
-0.0668323
0.0289774
0.0114776
-0.00590295
-0.0345521
0.0615611
0.0171492
-0.0617009
-0.0170094
0.101595
-0.0998006
-0.0286482
0.0268538
-0.0100972
-0.0191208
0.0738292
-0.0446113
0.0710249
-0.0845597
0.0804964
0.0611813
-0.0232052
-0.00787168
-0.0301044
-0.000833903
-0.0323901
0.00096198
-0.00229618
-0.0376387
-0.122386
-0.00351971
0.0958735
-0.0615542
-0.0307997
0.0289632
0.00984638
-0.00751853
-0.10545
-0.039544
0.079007
0.0494167
-0.00286367
-0.0103141
0.00296066
-0.00330812
0.00361593
-0.0277838
-0.0361839
0.0404043
0.0235634
-0.000628609
-0.0606587
-0.0626636
0.123322
-0.063618
0.110871
-0.047253
0.00991003
-0.00410065
-0.0039492
-0.00725735
-0.00328785
0.0085489
0.0019963
0.00187222
-0.0158376
0.0110548
0.00291058
-0.0115055
-0.00207838
0.0103257
0.00325815
-0.00115128
0.00994351
-0.00774871
0.0050242
-0.00457274
0.00260553
-0.003057
-0.0709588
0.0980754
-0.0372138
-0.006977
-0.00970226
0.00538857
0.00122018
-0.00133355
-0.00590338
0.00395734
0.00045672
-0.00856785
-0.0848498
0.0196024
0.0608189
0.00442846
-0.00848522
-0.00159845
-0.0642535
-0.0665586
0.0903722
0.0691663
-0.0798708
-0.0281318
-0.00657472
-0.0502118
0.0942303
-0.0440184
0.044082
-0.112397
0.0714641
-0.0031494
-0.114801
0.111193
-0.00865413
-0.000326555
0.0901351
-0.00126171
-0.00157615
0.0305393
-0.0107693
-0.0034783
0.0196586
0.02746
0.00260406
-0.030064
-0.00473117
0.0302784
-0.0252557
-0.000291475
0.0526256
-0.0813371
0.103461
-0.0747495
0.060722
0.0334063
-0.0402925
-0.0297166
-0.0167553
0.0301883
0.0321844
-0.0623728
0.0568278
-0.0379899
-0.0615791
0.0427411
-0.0300084
-0.0504698
-0.066277
-0.0592166
0.0246105
0.100883
-0.03174
0.0619283
-0.0211419
0.0208801
-0.025413
0.0192115
-0.0396533
-0.000700139
0.129308
-0.00972732
0.04565
-0.0878761
0.0839118
-0.00289229
-0.00638859
0.00678269
0.0235092
-0.000293626
0.0485065
-0.0482129
0.131236
0.0515575
-0.108076
0.0699444
-0.0377599
-0.0589318
0.00433197
-0.0420955
-0.0415472
-0.0128449
-0.0503721
0.063217
0.0501725
-0.0633726
-0.0750938
0.0536985
-0.0665434
-0.0157971
0.0344124
-0.0537898
0.0351745
0.00930471
-0.00476441
-0.0232349
0.0186946
0.035774
0.0334425
-0.0693792
0.0874986
-0.00491385
-0.11777
0.0351853
0.0215689
0.0483755
0.0742394
-0.016585
0.0145818
-0.0722362
0.0395856
-0.00562101
0.0897345
0.0117726
-0.118092
-0.0265422
0.0227678
0.0229859
-0.0148932
-0.00417422
0.00819161
0.0108758
0.00130631
-0.00781563
-0.00478324
-0.000625437
-0.00353201
0.0212825
-0.0171251
0.010944
0.0075392
-0.0450254
-0.0245092
0.04882
0.0187989
-0.0431097
0.000413418
-0.0178113
0.0544147
-0.0370168
0.0385193
-0.0239854
-0.0403287
0.0257948
0.0664512
-0.045661
-0.000613102
0.0081787
-8.34523e-05
-0.00748214
-0.000753726
-0.00138604
-0.000457965
-0.048184
0.00129645
0.0186421
0.0282454
-0.0034247
0.0129402
0.00775534
-0.0172709
0.00127595
0.000365257
-0.00195401
-0.0817795
-0.000421262
0.000664822
0.0815359
0.00449063
-0.00790114
0.0520567
-0.0530316
-0.0655286
0.00187447
0.0558915
0.00776255
0.000992926
0.0180702
-0.0714387
0.0523756
-0.0752262
0.0207178
0.00206452
-0.00207201
0.000889409
-0.00105121
-0.00141486
0.00222622
-0.00137803
4.12115e-05
-0.00605992
0.0183718
-0.0111425
0.0217955
-0.0290249
0.0354703
-0.015265
0.0126733
0.0136084
-0.0374242
0.0743657
-0.00565397
0.0050573
-0.073769
-0.0497021
0.0634138
-0.0353527
0.047279
-0.0472372
0.0572214
-0.0174567
-0.0959151
0.0709659
-0.00237436
0.0123433
0.0611817
0.0357775
-0.00353302
0.0693308
0.0486904
-0.0457318
0.0331971
0.0125347
-0.0624021
-0.0629283
0.0313608
0.0546584
0.015168
-0.0533318
0.104335
-0.0670667
-0.118829
0.0678105
-0.0344777
0.0252503
0.0451835
-0.00243298
0.138536
-0.0416947
-0.094408
0.0231777
0.0181059
-0.0412837
-0.0683263
0.0620066
0.0905323
-0.0842126
0.0539638
0.0382831
-0.0925567
0.000309851
-0.0153849
0.020803
-0.0310487
0.0240797
-0.0138339
0.0616652
-0.0864201
-0.109797
-0.0239082
-0.0225251
0.0532067
-0.0939112
0.0135503
0.0140074
0.0798021
0.0502623
0.0386511
-0.033072
-0.0558414
0.038193
-0.0366861
-0.0057036
0.00419673
0.0035634
-0.0605383
0.0337463
0.0232286
-0.011874
0.012147
-0.00302028
-0.00633166
-0.147191
0.149354
-0.0129856
0.0453283
-0.092437
0.0898536
-0.0132258
0.00449089
0.000947112
0.00778784
0.0284518
0.00524856
0.0094555
-0.0431559
0.00166927
0.00388787
0.0521406
-0.0554926
0.122632
-0.11928
-0.0107088
-0.0276528
0.0019117
0.0364499
-0.0168759
0.126882
-0.0628803
0.0307696
-0.0423796
0.0618724
0.00128924
0.0581754
0.0589209
-0.0576316
0.0367711
0.0391049
0.0341496
0.0404258
-0.0164
0.0439835
-0.0541548
0.000285986
0.00988531
-0.00315374
-0.0229445
0.034276
0.0446915
-0.0296963
-0.00528964
0.0301358
0.00410436
-0.0418655
-0.00324357
0.0142544
-0.000376301
-0.0405133
-0.000975836
-0.0388661
-0.00540236
0.00866855
-0.0394924
0.00189592
-0.00126962
-0.00110929
0.00189812
-0.0357836
-0.085856
0.00766001
-0.0499711
-0.0781334
0.0258989
8.98917e-05
0.00188191
-0.00489911
-0.00365403
0.000405873
-0.00420813
0.00153466
-0.00210816
0.0033814
-0.00174875
0.000475515
-0.0162801
-0.00338746
0.0161162
0.00355136
0.0039343
0.00215558
-0.00521992
-0.000869957
0.0106782
-0.00473758
-0.0339459
-0.0598401
0.0725287
0.0756414
-0.0606715
0.0553264
-0.0252156
-0.0301108
0.0013804
-0.00123581
-0.00435273
-0.000471166
0.0447444
-0.038483
-0.00579019
-0.0108237
0.0180776
-0.0952787
0.0880248
-0.00337035
-0.0195978
0.022497
0.034391
-0.054084
0.0267504
-0.00650289
-0.0206195
-0.000447034
0.0554963
-0.0655091
-0.0624139
0.0724267
-0.0197246
0.00157801
-0.00195561
-0.035249
-0.0600083
0.0591807
0.0158532
-0.00316357
0.0443793
-0.00312813
0.00958085
0.0123433
-0.0113055
-0.0207623
-0.0028631
0.0161794
-0.00344599
-0.0229332
-0.0238088
0.0122527
0.00102101
-0.00463863
0.045668
-0.0228152
-0.0116189
0.00916531
0.000216151
-0.00290679
-0.00023787
0.00292851
-0.00495991
0.00325762
0.0017925
-0.152086
0.0279074
0.0373328
-0.0349126
0.00278106
0.0320677
-0.0554804
-0.019107
0.0425197
0.0595767
-0.03177
0.000786098
-0.104283
0.103497
0.050347
-0.0104439
-0.000502437
-0.00297878
0.00243776
-0.00967033
0.0102114
-0.00017575
-0.00178046
-0.0111591
0.00114277
-0.00597688
-0.00149923
-0.0071261
0.0039637
0.00653957
-0.00337717
0.00768668
0.0314387
-0.0397363
0.000610946
-0.0125791
0.0133048
-0.0549436
0.00410706
0.00698322
-0.00266878
0.00533067
-0.000684287
0.000377822
-0.0398089
0.029489
0.00949479
0.00363184
-0.00267394
0.00397985
-0.00662443
-0.0135195
0.000293507
-0.0446209
0.0163061
-0.0112699
-0.0187462
0.01371
-0.0131984
0.000581164
0.00599778
-0.00137869
-0.00605562
-0.00705676
-0.119075
0.119516
-0.000759171
0.000318419
-0.00566638
0.0145207