/*--------------------------------*- C++ -*----------------------------------*\
| =========                 |                                                 |
| \\      /  F ield         | OpenFOAM: The Open Source CFD Toolbox           |
|  \\    /   O peration     | Version:  2506                                  |
|   \\  /    A nd           | Website:  www.openfoam.com                      |
|    \\/     M anipulation  |                                                 |
\*---------------------------------------------------------------------------*/
FoamFile
{
    version     2.0;
    format      ascii;
    arch        "LSB;label=32;scalar=64";
    class       volVectorField;
    location    "0.0321319";
    object      U;
}
// * * * * * * * * * * * * * * * * * * * * * * * * * * * * * * * * * * * * * //

dimensions      [0 1 -1 0 0 0 0];

internalField   nonuniform List<vector> 
3918
(
(-4.2734 -1.6871 0.438344)
(9.5692 -0.238167 -0.396401)
(12.2845 -0.0470401 -0.0486332)
(11.7769 0.0703247 0.797618)
(10.6878 0.375532 -1.50993)
(2.75324 0.815321 -7.01519)
(2.54945 0.298031 -10.3163)
(10.1131 0.190369 2.06953)
(9.83337 -0.238023 -0.597024)
(7.69881 -0.407185 0.990983)
(8.09939 0.278348 -3.77867)
(-0.195865 -2.28025 3.33183)
(3.61862 -1.5458 -2.65616)
(12.752 0.371147 -0.106514)
(11.762 -0.0198835 0.578542)
(6.61763 -0.169868 -5.29434)
(5.20427 0.125462 -5.91917)
(-0.542265 -1.64465 1.04477)
(-0.312078 -1.72658 0.711816)
(7.93635 -0.211676 0.452245)
(1.38395 0.461628 -3.02862)
(10.971 -0.0124036 0.926657)
(10.5407 0.403751 -0.192727)
(-0.834282 -1.0934 3.05586)
(11.24 0.355505 0.363171)
(0.135096 -0.373224 2.25834)
(7.6294 0.513837 -2.3481)
(11.7858 0.34942 0.0701796)
(-0.239208 -0.954307 2.13428)
(-1.00214 0.159279 -1.03364)
(-1.42615 -1.17689 0.743991)
(12.3108 0.086947 0.419104)
(11.7494 0.0502618 -0.0374693)
(6.49533 -0.629909 0.38957)
(12.6526 0.167211 -0.206963)
(-2.14908 -2.02837 0.53634)
(10.6227 -0.0851461 0.582903)
(12.8863 0.262243 0.881415)
(3.1293 0.757772 -3.29162)
(11.7407 0.176176 -0.0641012)
(12.6049 -0.168212 3.35141)
(11.4016 0.292401 -0.0972701)
(8.23716 0.150586 3.78296)
(13.371 0.104429 1.59139)
(11.5534 -0.185956 0.540166)
(9.02964 0.394639 -4.9104)
(11.0971 0.434518 1.85599)
(3.94315 0.716717 -2.8637)
(-2.02726 -2.02385 2.08271)
(12.3703 0.555949 -0.340856)
(5.7912 0.543818 -4.24539)
(0.598603 0.287529 3.4569)
(11.6611 0.330938 -3.22751)
(0.0458011 0.340239 -1.88271)
(11.6879 0.0528889 0.126347)
(9.98535 0.0944751 -1.53134)
(11.7157 -0.0221117 0.35598)
(10.6211 0.35563 -2.28025)
(11.6823 0.458078 2.66207)
(8.36545 0.0603294 0.898588)
(9.29791 0.467623 -2.98518)
(11.7328 0.179159 -0.0297381)
(10.0788 0.0107918 1.4049)
(12.7138 -0.22799 2.28892)
(8.81353 1.86067 5.32168)
(10.7807 0.00521028 -0.552566)
(7.96879 -0.226926 1.59617)
(-3.08202 0.551449 1.22711)
(8.05665 -0.0329528 1.61822)
(-3.38688 0.0745747 1.31915)
(9.55665 0.308307 3.83566)
(12.4171 0.279887 -2.66536)
(12.4 0.725294 -1.88027)
(8.47851 0.0873448 -0.536162)
(-0.219698 1.12719 0.893)
(1.62847 -1.11334 1.15636)
(-0.913264 -0.607666 0.637249)
(-2.61059 -0.24142 -1.17452)
(-3.06362 0.359164 1.01182)
(12.0143 -0.26485 0.792805)
(-2.17313 -0.0169274 1.23933)
(0.924943 0.690849 -4.40475)
(-1.7658 0.505413 -0.102533)
(6.30788 -0.633555 1.2187)
(12.0139 0.0553017 -0.573128)
(-3.81162 0.656695 -1.26807)
(-0.348033 -1.80268 0.651341)
(-0.537798 -1.79043 0.720374)
(9.81127 -0.0373167 -1.38922)
(11.8135 0.243174 -0.312442)
(8.45244 -0.160739 1.34726)
(10.7578 0.0509551 -1.64855)
(-1.76793 -0.948895 3.45844)
(7.06147 0.688325 2.28562)
(10.1302 -0.215612 -0.234727)
(10.468 0.294901 0.231635)
(-0.525086 -0.872813 2.7544)
(10.7483 -0.124067 0.221457)
(-0.120278 -0.78164 3.44705)
(2.47367 0.912475 2.09324)
(11.9858 0.146873 -0.125128)
(12.0221 0.18114 -0.0886142)
(12.0802 -0.0290869 -0.183396)
(11.927 0.188003 -0.188036)
(12.0292 0.201394 -0.273019)
(-0.712107 0.520642 1.2266)
(10.8415 0.0276956 1.28404)
(7.33901 0.137125 4.41131)
(10.3085 0.0354941 0.896537)
(5.64014 0.913924 -1.04433)
(-0.222139 0.173791 0.946679)
(-1.29217 -0.0409009 1.58776)
(0.197795 0.307233 0.384021)
(-0.549734 0.260325 1.00632)
(-1.41408 0.269365 1.45816)
(-0.867342 -0.510141 0.898452)
(-0.516144 -0.427427 0.532372)
(-0.874342 -0.0719231 2.46906)
(12.1197 0.627326 -1.25513)
(9.05978 0.455911 0.337465)
(10.7414 -0.0408885 1.08697)
(1.16945 0.217449 1.26817)
(8.11162 -0.104502 -2.92137)
(-1.02797 -2.09939 0.419132)
(10.3036 0.00581265 1.2541)
(4.30969 1.20152 0.17007)
(6.0695 -0.451973 -1.97132)
(11.6151 0.821814 -3.63649)
(3.56747 0.620668 -0.021512)
(7.06133 0.798217 -2.20435)
(10.2622 0.424574 -0.877335)
(4.09485 -0.93849 2.09733)
(11.7643 0.284588 4.537)
(12.2149 0.286404 -0.834025)
(0.532847 1.4741 -0.873514)
(0.635961 1.57547 -1.54306)
(-0.465597 -1.4762 1.32279)
(-1.26772 -1.43248 0.445728)
(-0.368254 -1.49051 0.707635)
(9.57714 -0.193781 1.22166)
(2.40662 0.717556 0.0832187)
(-0.663717 -1.45796 0.942493)
(-2.64483 -2.07523 0.481641)
(1.8413 1.14972 -1.54283)
(8.67702 0.730355 0.722575)
(11.7517 0.304258 0.0901847)
(1.35742 0.607304 -5.47956)
(2.35589 0.955666 -0.921539)
(11.6776 -0.141659 -8.41069)
(11.5847 -0.453073 -1.70615)
(12.2557 0.235908 -0.295975)
(0.074002 -1.74812 3.67644)
(8.51498 -0.393453 0.257269)
(3.70097 -0.242766 0.0878591)
(12.8979 0.191424 -0.29447)
(13.1053 0.767849 -1.19498)
(-1.50214 1.30312 1.35444)
(12.755 1.74493 -5.95653)
(9.78445 0.478894 -1.31986)
(11.2625 0.624069 -1.1026)
(10.932 -0.0571034 0.604039)
(-0.367219 -1.6725 0.781166)
(-0.559304 -1.82276 1.15801)
(4.89523 -1.19771 0.849088)
(-0.64532 -1.72489 1.03208)
(-0.887726 -1.16354 1.66152)
(-0.579415 0.427102 0.397874)
(-4.11582 -1.92541 0.257572)
(-0.338922 0.139897 0.51795)
(-0.904601 0.527286 1.0474)
(5.85927 1.03202 2.93958)
(-0.674704 -1.07676 1.00646)
(-0.273117 -1.27097 0.646525)
(-0.602425 -0.796343 0.290163)
(-0.911929 -0.869551 0.977762)
(0.257902 -0.189692 -1.06593)
(-1.34202 -1.68845 0.161988)
(11.9091 0.285824 3.37112)
(1.24194 0.967751 -3.40223)
(6.57476 0.67559 -3.01684)
(11.8054 0.302155 0.820021)
(0.880207 -0.665063 -2.62788)
(0.0153707 -1.13396 2.26884)
(-0.745789 -0.47961 -1.99516)
(8.60379 -0.163459 -2.98656)
(13.1184 -0.157623 0.965444)
(3.4934 1.07279 2.05636)
(12.5354 0.371908 -3.13141)
(-1.00538 -2.04296 -0.148121)
(9.2845 -0.0988239 -2.77367)
(11.566 0.0132171 0.355195)
(3.06896 -0.965441 1.90648)
(2.91511 0.570234 -1.47996)
(2.35198 1.24789 -0.762662)
(12.5755 0.711571 -1.72259)
(8.786 0.299913 1.47279)
(12.7142 0.58581 -1.49298)
(10.0736 0.098468 0.887507)
(8.23585 0.206634 0.800987)
(10.4974 0.73289 -2.46652)
(5.22618 -0.843985 -0.283173)
(2.41149 -0.594465 0.73419)
(-0.518322 -1.00937 0.462938)
(12.8314 0.272648 -1.53335)
(-0.583648 -0.206942 0.174912)
(8.48396 -0.3914 2.05014)
(9.64727 1.5269 3.20265)
(10.298 -0.347706 8.10937)
(5.79918 -0.607397 -1.00334)
(8.99894 0.317675 -2.65412)
(12.5051 0.170475 0.148557)
(-0.943357 -2.04161 0.112493)
(11.688 0.471886 -2.05593)
(-1.66146 -1.59845 0.332858)
(7.22367 0.413079 -2.97139)
(9.53407 -1.58171 -8.37351)
(12.5583 0.569516 -0.67564)
(13.1548 0.287338 -1.0818)
(-0.59213 -1.9348 2.80037)
(7.72265 -0.26019 -5.91139)
(3.17014 0.765147 -0.311103)
(3.70873 -1.71049 2.29172)
(-0.120429 -1.09503 3.40786)
(8.84055 -0.406893 0.514927)
(11.9666 -0.0167441 -0.469915)
(0.880647 -1.0465 2.66205)
(5.55034 0.862087 1.8418)
(-4.24844 -0.798497 -0.228968)
(11.2001 -1.04466 -3.97644)
(7.73397 -0.199631 1.82363)
(10.6273 0.668559 -0.112182)
(-0.00494787 -1.41163 -0.887587)
(9.02265 1.30424 -5.37383)
(12.8841 0.267195 -1.17795)
(10.6443 -0.267497 0.442986)
(7.81768 0.363949 0.757333)
(-0.815367 -0.197358 0.1773)
(12.0316 0.387604 -1.08871)
(0.432704 -1.16567 -2.24952)
(10.9123 0.308034 -0.768382)
(-0.951726 -2.03203 0.522313)
(13.0594 -0.100781 -1.46478)
(12.2206 0.561097 -0.524551)
(12.3133 0.377444 -2.38576)
(11.2188 0.682988 -1.30617)
(6.4775 0.633324 0.617538)
(10.7149 0.560653 -1.17666)
(11.5226 0.897338 -3.05797)
(9.89753 0.865602 -5.75114)
(7.1723 0.661309 -0.648469)
(12.9025 0.142113 -0.432854)
(5.72703 0.340821 1.54187)
(10.2447 0.294352 1.65398)
(11.0772 0.372393 3.18219)
(-1.36566 0.0886199 2.48747)
(5.49226 0.474184 -0.594588)
(7.01881 -0.804092 0.978509)
(12.1181 0.046526 3.55289)
(5.94566 -0.328667 0.11946)
(13.2552 0.589383 -2.0677)
(-0.518977 -0.0502819 2.2476)
(6.11824 -0.104583 -2.72477)
(0.27204 -0.351743 3.10363)
(11.9021 0.0110733 0.0520022)
(1.23137 0.457962 -5.05104)
(10.8648 0.212473 3.24432)
(7.23475 0.682112 3.77773)
(6.91203 0.685656 -2.71443)
(2.09821 1.26953 -2.12467)
(7.05897 0.48085 -2.69697)
(7.46656 -0.430809 -1.04452)
(12.8847 0.759285 -1.06931)
(10.989 0.338284 -1.42208)
(12.1312 0.33186 -3.66496)
(12.2848 0.271244 -2.28095)
(10.4909 0.52173 3.82667)
(5.51891 -0.511878 1.83592)
(9.58269 -0.0412329 0.395943)
(12.198 0.227495 -2.22869)
(9.06227 0.486432 -2.74584)
(11.7337 0.336137 -3.90825)
(11.9589 0.131671 -5.67257)
(-3.33199 -2.34453 1.57461)
(10.0462 0.396004 -2.20589)
(12.655 0.203763 1.49907)
(5.91875 0.0606149 5.06082)
(11.3665 0.0181506 0.857046)
(5.10253 0.304526 0.67421)
(10.65 0.542363 -0.79964)
(11.4073 0.831518 -2.10297)
(3.10339 -2.00592 -0.507519)
(12.9081 0.205368 -0.923658)
(10.0104 1.50596 -7.34042)
(10.1037 0.492165 -1.03952)
(13.2519 0.187189 -2.91513)
(12.1928 0.591646 -3.54482)
(5.51177 0.907059 -0.274423)
(-1.19838 -1.47586 0.545789)
(0.00518051 -0.838917 3.85093)
(12.4027 0.238329 -1.21875)
(-2.76221 -1.07001 1.09685)
(10.7211 0.450362 -3.46615)
(10.1033 0.309511 -2.56671)
(-1.61243 -0.831205 2.70084)
(11.8099 0.581193 -0.962456)
(-0.149 -1.02658 3.33793)
(10.4682 -0.0414044 4.74495)
(6.50775 0.569213 -2.92226)
(11.6011 0.166906 -0.244506)
(12.883 0.392584 -3.40721)
(-2.10387 0.171212 2.67743)
(4.90663 0.201052 -7.74393)
(-0.559993 -0.110265 2.48191)
(-1.15608 0.465783 0.742309)
(12.4058 0.978322 -4.09393)
(4.95116 1.2631 -7.65802)
(11.6342 0.316578 -1.24972)
(7.22269 0.44916 -2.5122)
(1.45345 0.400049 0.271204)
(5.84095 1.75444 -0.904318)
(13.1528 -0.101276 2.36811)
(-0.498652 -1.78514 1.23242)
(-4.5686 0.952219 0.381965)
(3.44115 0.348164 -0.585194)
(8.49849 -0.306984 -1.34406)
(7.55343 0.18264 0.498141)
(10.7059 -0.058773 0.848583)
(12.3232 0.548211 -3.35428)
(-1.23085 -0.800623 1.76893)
(10.0176 -0.201137 -1.52936)
(4.7145 0.978929 2.40035)
(11.8764 0.509879 4.38349)
(12.1875 0.115009 2.35376)
(-2.26707 -0.738776 -0.802593)
(-0.956102 -1.22029 1.80746)
(6.16638 0.571377 3.29376)
(6.68531 0.00338533 0.607246)
(12.3724 -0.0179805 0.328167)
(5.72343 -0.295003 -0.108632)
(11.9775 0.110908 -0.293034)
(11.5194 0.226319 -0.217331)
(-3.48721 -0.117347 0.434766)
(8.29614 0.432668 0.643463)
(12.6891 0.27627 -1.23702)
(5.92675 0.579237 -2.4308)
(7.27832 0.419015 0.570352)
(1.27174 -0.555722 2.8462)
(7.43012 0.538095 -5.63598)
(-1.52858 -1.31691 1.65808)
(4.07316 0.831615 2.3348)
(8.29271 0.653109 1.30084)
(-0.110157 -1.66883 3.37752)
(8.8139 0.172974 3.40002)
(12.7138 0.145438 -0.0918244)
(9.61946 0.0210724 -0.826401)
(11.3991 0.345319 -0.184916)
(-2.12037 -0.710078 -1.30905)
(13.3562 0.478428 -2.63932)
(-3.06233 -0.832644 0.902142)
(12.7553 -0.105286 -0.567283)
(12.5213 0.302347 -1.40542)
(1.79992 0.308276 2.73481)
(0.206942 0.959645 3.66314)
(10.8502 0.413884 5.4566)
(2.68561 -0.905294 0.459908)
(-0.537809 -0.0969167 3.11484)
(9.62376 0.028643 1.13324)
(3.62705 -0.0398484 -2.96111)
(3.02965 -0.140092 0.457242)
(10.2507 0.328232 3.93209)
(13.3956 0.265788 1.74049)
(8.83889 0.132804 1.5744)
(11.6056 -0.169669 4.47541)
(10.0463 0.185744 4.35474)
(12.6441 -0.0428612 2.04768)
(-1.51934 0.0185989 0.700927)
(5.36323 -0.594493 0.676112)
(-2.85552 -0.103515 1.19466)
(12.812 0.954255 3.35542)
(9.9238 -0.0472381 -0.358207)
(11.4253 -0.199429 1.06487)
(5.12693 -0.333514 1.43869)
(10.2486 0.202001 1.59751)
(11.9848 0.318298 -2.53434)
(3.10468 -1.17579 1.51783)
(-1.98884 -0.267025 -1.87366)
(-3.40687 -0.0751634 1.47067)
(-0.0699443 -0.290283 3.94862)
(-0.0149558 -0.135737 -0.757053)
(6.6814 0.544058 2.30467)
(-2.78372 0.136119 1.40774)
(3.97961 0.301052 -2.20258)
(4.1401 -0.304066 -2.18523)
(9.20367 0.274882 0.619068)
(12.8624 -0.0361361 -0.0281498)
(6.23486 -0.184087 -0.05297)
(5.96855 0.0610081 0.18854)
(10.7909 0.0210397 1.06686)
(8.26968 0.131214 0.615507)
(7.43881 -0.00444374 0.549509)
(-3.27762 0.719467 0.171759)
(11.7841 0.174108 -0.347192)
(12.8381 0.070463 -0.0281419)
(10.5341 0.372462 3.66693)
(7.63213 0.137276 0.629408)
(8.83229 -0.00611695 0.895677)
(12.2733 -0.0509654 -5.24903)
(-2.62007 0.633918 0.563854)
(-4.05806 -0.316673 0.347235)
(8.45497 1.51628 0.112349)
(-1.91706 -1.40973 1.06242)
(12.8095 0.816064 -1.43072)
(11.6489 0.145281 -0.0551617)
(7.56815 -0.241221 -3.03757)
(12.889 0.25489 -1.09375)
(10.0376 -0.094785 1.13598)
(5.08631 -0.454739 -2.57243)
(11.6346 0.11569 0.163659)
(12.4198 0.415054 -0.439093)
(11.3429 0.0407677 0.461222)
(10.7051 -0.0914592 0.85136)
(3.18356 -0.549898 1.68149)
(11.81 0.309268 -0.256842)
(12.1809 0.38844 -0.255742)
(7.09851 -0.894837 -0.117981)
(11.4489 0.199537 0.325371)
(9.588 0.129351 1.13212)
(11.3041 0.154418 0.351478)
(8.72742 -0.142377 1.2502)
(7.14209 0.736751 -2.50234)
(11.4636 0.437301 1.6227)
(13.5069 0.00192401 -0.641651)
(-0.111928 0.504048 3.31577)
(0.722908 0.606842 -3.6461)
(7.99786 0.549828 -2.45973)
(1.39484 0.481242 -4.08563)
(4.93186 0.244236 -8.56261)
(12.3634 0.278495 -0.396034)
(11.5021 -0.0428169 1.16959)
(12.1258 0.189329 0.278378)
(11.4647 0.313064 -1.04029)
(12.866 0.403754 -0.499211)
(7.92966 -0.0461833 -0.881554)
(11.7025 -0.366804 3.24981)
(7.03801 1.21962 4.63903)
(12.7869 -0.10677 -0.535065)
(11.491 1.84942 4.41969)
(12.6907 0.424707 -0.176615)
(8.51406 1.37207 4.68798)
(6.77127 -0.807789 0.764882)
(-2.0138 -0.571191 -1.52537)
(12.9439 0.35813 -0.623133)
(-3.89582 0.219762 -1.51066)
(12.6809 0.21327 0.290997)
(13.1636 0.347652 -2.44387)
(11.9744 0.275214 -0.000138637)
(12.5263 0.126132 -8.27085)
(9.67752 0.900141 9.55206)
(8.03243 1.25588 -1.08404)
(3.68451 -0.262538 -2.41749)
(11.5398 -0.200823 -0.566882)
(1.23523 0.581201 1.77198)
(-2.27278 -1.0124 1.88365)
(12.0038 0.12582 0.624558)
(0.254431 -0.393628 -1.76127)
(-3.03223 -0.0821318 -0.504803)
(10.843 -0.178847 -0.378998)
(-2.191 -0.0551519 0.602826)
(11.9537 -0.0206936 -0.352062)
(11.2601 -0.0117027 -1.79094)
(-0.355967 -1.5704 1.12341)
(11.1746 0.536072 2.04209)
(11.1138 -2.30499 -3.81983)
(-0.454196 -0.849791 2.73341)
(12.1851 0.14636 -1.34091)
(7.42589 0.818807 2.90302)
(0.83911 0.541118 1.10302)
(2.17552 -1.23497 -1.66558)
(9.91411 -1.04078 -1.83572)
(11.6518 0.148023 4.86279)
(-0.749227 -1.44435 3.23932)
(-0.293869 -0.641264 4.53046)
(-0.505206 -1.61439 2.44083)
(12.8662 0.626461 1.77284)
(-3.07156 0.0988923 1.67914)
(12.4257 0.466692 -1.54786)
(9.4187 0.90296 8.69068)
(-1.74283 -0.996383 1.35144)
(6.19477 0.941446 0.0542222)
(-1.90788 -0.167147 0.632855)
(-0.428792 0.228845 -1.24222)
(4.72673 -0.199958 -1.41544)
(0.383227 0.832289 -0.044416)
(1.4014 0.993856 3.65633)
(8.02899 0.685322 0.653786)
(-0.137719 2.20981 0.534242)
(1.04461 -0.216712 -1.41125)
(11.3085 -0.026999 -0.197241)
(7.51018 0.21894 -1.83358)
(11.5699 -0.236942 -1.63788)
(11.851 0.0030727 -0.254233)
(10.9427 -0.149699 -1.77394)
(9.73947 0.0747425 -1.09479)
(5.78405 -0.217049 -1.75591)
(12.5022 -0.0724871 -0.886568)
(12.3287 0.0794394 1.00069)
(7.34629 0.107553 -2.72971)
(6.01341 -0.160694 -1.45182)
(9.81046 0.0452182 -1.35908)
(12.1156 -0.00840154 -0.0334799)
(12.2001 0.311047 -2.40729)
(11.5377 0.359526 -2.65189)
(10.2176 -0.121924 -0.26095)
(9.47739 0.668667 2.07215)
(12.5141 0.366176 0.554593)
(11.0159 0.262064 0.375746)
(12.1304 -0.013288 0.0651037)
(11.1846 0.375481 -2.84899)
(11.7872 0.37292 -0.134163)
(10.2342 -0.0209871 0.923909)
(11.2151 0.346987 -2.38472)
(6.37521 -0.545472 -1.38679)
(10.4467 -0.0821063 -0.36974)
(5.65473 0.389751 -0.40168)
(11.9232 -0.323275 5.2887)
(7.91152 -0.430065 0.792273)
(-3.72478 -2.02332 0.57999)
(10.9569 0.699693 -0.998446)
(12.417 0.0690493 3.12281)
(12.6188 -0.0578051 3.57794)
(12.2401 -0.177372 3.01777)
(9.69064 -0.296256 -2.09375)
(6.10174 0.853005 -1.33488)
(11.3222 0.427906 -5.60031)
(8.54223 -0.185116 0.619623)
(11.6448 0.0303477 0.860883)
(10.1892 0.259722 -5.80267)
(10.9518 0.347781 -4.54795)
(10.9062 0.417897 -0.324182)
(11.269 0.413641 -3.40409)
(8.16139 -0.0704732 -1.88544)
(11.6806 -0.00939478 0.743779)
(11.4028 0.56072 -1.27594)
(11.2397 0.316502 -0.178039)
(9.76618 -0.111849 1.30317)
(9.32363 0.115108 -2.40296)
(9.32372 0.0186839 1.5636)
(5.563 -1.48371 3.45185)
(11.9385 0.31023 -1.30734)
(12.1918 0.149837 0.842605)
(12.0538 0.132897 -0.0749724)
(7.02109 0.689024 -0.69904)
(8.57846 -0.798348 2.406)
(3.59755 0.495157 -2.69831)
(0.552155 1.27668 -2.37782)
(-0.532913 -1.8728 1.28618)
(1.80025 -0.131243 -3.018)
(12.2178 0.631112 -0.972755)
(11.7324 0.405128 -2.79447)
(0.993266 1.1595 0.795188)
(7.33519 -0.343688 0.121203)
(-3.67298 -0.519843 0.552774)
(-1.06749 -0.593523 1.07057)
(1.86777 0.99377 0.0733074)
(5.21782 0.154223 -2.64686)
(12.1064 1.36967 -6.2394)
(11.97 0.224156 0.708187)
(12.2716 0.504142 -0.568334)
(-3.14658 -2.78018 0.589137)
(12.0955 0.420462 -0.575449)
(11.7482 0.236823 -4.67104)
(5.21545 1.27078 -0.0229534)
(2.9237 0.422906 -1.75219)
(13.9363 0.208948 1.04127)
(12.3744 0.378285 -0.52162)
(13.5201 0.145792 -3.47681)
(4.87651 0.444027 -0.861751)
(12.3653 0.286936 -0.233555)
(3.90081 -0.061657 -2.96001)
(11.9896 0.0802734 0.643219)
(8.58361 0.495797 -2.98402)
(9.3421 0.877721 9.04151)
(9.30863 0.488592 -5.50844)
(-1.05057 -0.245112 1.60399)
(7.58921 0.528431 2.79624)
(10.3859 0.116386 2.973)
(-0.837818 -0.566912 1.83703)
(3.75241 0.407204 3.12027)
(7.30397 -0.704768 -0.420202)
(4.62471 0.916647 -0.420674)
(10.5914 -0.0772448 3.74063)
(-3.35139 0.293062 0.408617)
(3.30132 0.162443 0.575421)
(12.3582 0.021386 0.85422)
(6.79506 0.604491 0.594773)
(0.905992 -1.67793 3.03055)
(-4.36564 0.644813 -0.476492)
(8.40106 0.332063 0.259528)
(9.41152 -0.308793 -8.78087)
(13.1762 0.302587 -2.45881)
(11.8045 0.0842583 0.195417)
(10.1303 -1.02567 -3.75556)
(-2.06408 0.672221 0.518896)
(-1.17221 0.665783 2.78188)
(3.01802 0.946309 -2.56468)
(6.22567 0.689782 -0.786965)
(-1.06574 -0.383671 2.22836)
(10.5301 0.555665 1.37893)
(-2.24853 -1.17521 1.89307)
(9.95028 -0.0810324 1.14889)
(-0.945534 -0.366089 1.26989)
(11.0859 0.454537 4.22702)
(-2.52984 -0.293811 -0.553201)
(4.45296 0.743158 -2.26826)
(12.4279 0.177291 0.907377)
(0.608341 0.491811 -2.53654)
(3.04779 -0.122058 0.999761)
(-2.57556 -0.182875 1.22483)
(-1.84985 -0.318235 1.68708)
(-2.08007 -0.104663 1.81989)
(5.87769 0.054502 -2.67677)
(2.25083 0.153795 -2.1073)
(9.1903 0.155788 -1.79366)
(4.92835 0.791796 -2.28207)
(-1.50049 0.528981 0.434983)
(5.60677 0.409841 -5.74839)
(-0.572498 -2.04932 0.631326)
(-1.05058 -2.10331 0.219524)
(-0.441255 -2.17037 1.12839)
(-2.73323 -2.46944 1.21577)
(9.22923 0.631061 1.59862)
(11.1309 0.00986486 0.200498)
(-1.71883 -0.458854 1.09655)
(-2.1499 -0.530235 1.45747)
(-1.59879 -0.583379 0.56131)
(8.24791 0.772444 3.32307)
(13.1297 0.10275 1.20589)
(7.43342 0.94882 3.19253)
(12.8685 -0.000948344 2.65246)
(12.3868 0.179656 -3.1698)
(12.471 0.043561 -0.0245832)
(12.3948 0.00373998 0.0651918)
(11.7326 -0.0298876 0.917296)
(5.79386 0.371109 3.07173)
(-3.66533 -0.13349 1.4037)
(9.83614 -0.216522 1.49844)
(9.0293 0.371436 0.835597)
(11.2478 0.0546902 0.22989)
(12.1132 -0.0624294 4.20062)
(10.5238 -0.0513587 0.294083)
(10.8033 -0.0200745 0.310872)
(2.23674 0.0670245 -2.28166)
(10.3607 0.515718 -0.962686)
(9.0143 -0.22087 0.857568)
(11.5611 0.240779 -0.718287)
(11.4699 0.24223 -0.784863)
(7.21393 0.411598 -0.883617)
(4.72527 -0.144528 -1.98134)
(6.03574 -0.823743 -0.294296)
(3.48374 0.619561 1.73909)
(12.5816 -0.390443 1.84577)
(2.83846 -1.03264 1.39336)
(11.9939 -0.00525113 0.602684)
(10.774 -0.386463 5.12719)
(11.2757 0.382222 8.80851)
(11.863 -0.418118 4.29808)
(11.6145 -0.23228 8.08346)
(10.5478 0.0825173 4.88327)
(-3.37747 0.042516 1.71905)
(-3.30228 0.160408 1.15665)
(-2.5093 -0.1623 0.536666)
(7.78266 0.804798 0.979514)
(-1.42001 -0.359432 2.12729)
(11.5783 0.22181 0.936946)
(-1.8721 -0.21449 1.53338)
(-2.99494 -0.282044 0.852273)
(-3.0596 -2.25858 1.18505)
(3.19679 -1.80481 1.96734)
(-4.06573 0.651167 0.878238)
(1.83682 -0.271335 2.70554)
(8.58997 0.0689743 0.632471)
(9.31232 0.0806723 0.778225)
(11.4146 0.0200371 0.736231)
(8.64745 -0.146521 0.457146)
(9.49036 0.0219092 3.15797)
(11.6578 0.128886 0.980446)
(1.46496 0.482425 -2.78955)
(7.40888 -0.0646447 -0.656479)
(12.5794 0.452724 -1.88658)
(12.9542 0.293518 -1.47592)
(2.77824 -0.130539 -1.57139)
(12.9254 0.304141 -1.94226)
(12.8902 -0.563237 -6.78321)
(6.16216 0.194186 -1.31179)
(13.3751 -0.283459 -0.593376)
(8.88104 1.09564 -1.62381)
(4.81229 -0.154466 -0.845574)
(-2.4525 -1.14086 1.82057)
(-2.76738 -0.856871 1.64155)
(0.71515 -1.59063 2.43467)
(-2.03354 -1.0356 2.17071)
(-3.07008 -0.741216 1.06056)
(0.449621 -1.25288 2.70477)
(7.07198 0.0612687 -1.32278)
(12.1384 0.438748 -1.8601)
(12.4412 0.424706 -1.44616)
(12.6986 0.399572 -1.98372)
(11.1146 0.50589 -1.90575)
(3.50671 0.833737 1.22037)
(2.84361 0.143271 1.41576)
(1.94426 0.26539 2.1706)
(2.09622 0.777152 -2.14136)
(8.45245 0.430264 -3.99184)
(8.56458 0.722425 -3.34511)
(6.6401 0.602789 -3.55204)
(5.79233 0.500999 -3.54909)
(7.01569 0.631794 -4.18899)
(12.05 0.12226 0.00335318)
(11.8694 0.161034 -0.256169)
(11.8415 0.131479 -0.0254268)
(10.7743 0.367093 -1.18182)
(7.10022 0.31117 -3.8139)
(11.6985 0.165405 -0.0642429)
(12 0.125372 0.0263055)
(11.6151 0.272564 -0.0563826)
(12.8636 0.304284 -0.993401)
(11.8277 0.245185 -0.16336)
(11.2537 0.34104 -0.211278)
(11.6059 0.208992 -0.0635696)
(11.412 0.348404 -0.102106)
(3.42839 -0.340423 1.45271)
(5.84085 -0.457992 -0.519533)
(2.67547 -0.766299 1.56381)
(11.8584 -0.0596179 -0.553182)
(2.89218 -0.440728 0.95768)
(11.3351 -0.0509016 -0.129499)
(9.93687 -0.0905926 6.21229)
(12.3068 0.20256 0.539996)
(9.09948 -0.362032 0.680715)
(10.6212 0.682414 -2.62261)
(11.2528 -0.134415 -0.549823)
(4.94531 0.512161 2.54394)
(9.91577 0.633497 -2.96277)
(-0.295736 -1.99885 -0.214478)
(9.94153 -0.159401 -0.811917)
(0.0889967 -1.64951 3.38602)
(8.52894 0.748926 5.38931)
(-0.524591 -1.79128 -0.369563)
(11.9608 0.12537 9.24046e-05)
(7.62422 0.598266 -2.85052)
(7.86936 0.655037 -3.02044)
(0.0824474 -1.75839 3.58207)
(12.8783 0.265607 -1.73498)
(-1.97137 -1.82225 0.629301)
(5.60813 0.45949 -5.40065)
(1.89261 1.35873 0.787279)
(3.34997 -0.189653 0.806821)
(9.73803 0.0342231 1.2114)
(-2.63348 -0.259828 -0.150808)
(1.59762 0.415048 -2.3992)
(4.69953 -0.210288 -2.00604)
(9.72384 0.95693 -1.21383)
(12.0118 0.190045 -0.369207)
(11.9262 0.217463 -0.646182)
(9.44431 -0.328322 0.523438)
(12.4061 0.557291 -0.180787)
(12.4156 -0.027409 3.67401)
(12.2876 -0.160062 3.89413)
(12.2167 -0.566022 4.1273)
(9.18925 -0.501566 3.60514)
(10.6671 0.23953 1.52688)
(13.0808 -0.339262 2.46161)
(12.6016 0.142275 0.0567255)
(6.0194 0.724668 -3.82238)
(6.36908 0.92437 -4.91718)
(11.8518 0.192664 1.40261)
(7.38833 0.708054 -2.26334)
(7.87511 0.758734 -4.41643)
(12.9203 0.363077 -2.68306)
(-1.14453 -1.71318 3.67445)
(3.35664 0.683727 -1.29666)
(7.48158 -0.18444 -2.48356)
(9.67059 0.400182 -1.13266)
(9.52961 0.40115 -1.13715)
(11.573 0.179859 -4.07402)
(10.0513 0.413142 -1.75593)
(10.9185 0.264185 -0.639458)
(7.40868 0.582551 -1.64926)
(9.97682 0.589948 -4.38813)
(5.69977 0.836265 -1.50646)
(13.3892 0.361905 -2.97403)
(11.7471 0.223302 -2.20576)
(7.54037 0.813617 -4.88496)
(13.5781 0.661143 -4.56353)
(10.3688 0.670779 -5.19404)
(11.5714 0.190304 -0.114523)
(11.7686 0.220827 -0.83807)
(12.0661 0.379181 -0.437552)
(12.1248 0.418893 -0.927138)
(12.2838 0.362069 -0.430599)
(12.3742 0.336123 -0.790008)
(11.9468 0.341767 -0.731897)
(10.5753 0.35103 -3.21744)
(8.34895 0.823474 -1.71953)
(7.03805 1.0604 1.73762)
(8.85601 0.00511119 0.686225)
(-0.0449379 -1.47609 3.59893)
(12.0892 0.174264 -0.20835)
(8.01884 -0.307401 0.946958)
(9.00929 -0.286082 1.73704)
(12.2973 0.485633 -0.198066)
(9.19741 -0.0744368 1.55465)
(11.2786 -0.031993 0.787988)
(1.81398 0.858408 -2.73773)
(11.5316 0.863488 -1.82628)
(10.1276 0.220651 0.330512)
(12.0709 0.305803 -0.0817655)
(8.66636 -0.28893 0.763482)
(10.4083 -0.0645069 0.277775)
(8.98229 -0.187125 0.187265)
(13.3024 0.660751 -3.04799)
(11.8914 0.435638 -2.95653)
(13.2885 0.548515 -2.27865)
(12.2795 0.327229 -2.30262)
(11.9199 0.461063 -1.68144)
(13.0497 0.505001 -1.51137)
(11.5837 0.651435 -3.16859)
(11.26 0.622543 -3.07308)
(13.0836 0.58542 -2.64939)
(10.6906 0.474867 -4.65447)
(6.84555 0.589395 0.769849)
(11.7652 0.672347 -4.4132)
(0.102192 -2.66974 -1.68844)
(10.9736 0.323582 -3.19145)
(11.7736 0.215413 -0.497973)
(9.53502 0.731616 -2.13059)
(13.126 0.279405 -2.23833)
(10.7894 0.614643 -4.83658)
(10.0928 0.736584 -1.80015)
(9.81149 0.850734 3.92413)
(3.38494 -0.656651 -1.62033)
(-0.77799 -0.683821 3.36878)
(12.4019 0.0356659 -0.177626)
(8.69345 0.459117 3.39384)
(8.23502 1.34454 5.34522)
(8.57013 0.301437 -0.36629)
(11.5943 0.737755 -3.17492)
(13.4893 -0.287912 0.26409)
(12.4645 1.06451 -3.55872)
(10.7056 0.529451 -0.325867)
(11.1732 0.251735 -0.697542)
(11.2148 0.70333 -3.41702)
(10.827 0.776179 -3.62116)
(10.8361 0.79472 -7.62058)
(11.6042 0.854838 -3.52206)
(11.7611 -0.0374874 0.696913)
(8.66379 0.405461 -10.6607)
(3.42531 0.88533 -0.902689)
(11.7418 1.07701 -0.406943)
(5.17217 0.503791 0.106341)
(5.2951 0.578978 0.0333193)
(12.7187 0.62677 -1.41982)
(11.7662 0.193745 0.29731)
(11.5753 0.271065 0.286988)
(11.9414 1.08602 -1.1865)
(8.05695 0.552815 -0.978807)
(11.8366 0.25569 -0.0119178)
(11.745 0.314348 -0.0241997)
(5.82321 0.614655 0.102555)
(6.67868 0.63199 -0.733395)
(11.7078 0.644345 -3.30645)
(11.8282 0.615582 -0.758883)
(11.8359 0.454195 -1.27196)
(4.17513 0.989787 -2.25179)
(2.79833 -0.232935 0.236914)
(-1.19161 -2.09694 3.36248)
(11.4611 0.256188 0.443942)
(13.1712 0.310852 -0.962073)
(11.6761 0.168118 0.325622)
(10.9135 0.831387 -2.41503)
(5.86396 0.759939 -3.95682)
(11.4462 0.616036 -1.45323)
(11.3822 0.347095 -0.209493)
(13.0303 0.540715 -2.34872)
(12.0496 0.244301 0.0285081)
(13.5987 -0.238709 1.22161)
(5.99393 0.345533 0.819233)
(8.76607 -1.97835 -0.961969)
(3.53662 -0.241267 4.20487)
(3.957 0.629043 0.974635)
(-0.571903 -1.09464 1.8917)
(6.90618 0.357483 -0.75647)
(12.9035 0.614268 -1.5623)
(2.1543 0.687602 -6.87595)
(12.1119 0.325638 -0.0815971)
(11.1092 0.49849 -4.74102)
(1.36907 1.25811 -2.91213)
(4.69207 0.381513 0.158543)
(4.65021 0.510871 -1.71684)
(12.0586 0.785263 -2.42681)
(12.8972 0.714024 -2.26298)
(11.3386 0.728554 -2.15917)
(11.3319 0.198285 0.674872)
(1.06774 0.726025 -2.27182)
(12.1513 0.752243 -3.25669)
(2.37435 0.731029 -3.44476)
(2.79401 -0.228017 0.566192)
(2.93119 2.61881 -1.51367)
(5.42666 0.989756 0.418519)
(1.40768 1.1893 -8.60028)
(12.2081 0.220905 0.0791543)
(11.5758 0.234084 0.0277936)
(11.4601 0.885673 -2.46756)
(7.60627 -0.497354 0.754929)
(3.32355 -0.500916 -1.8443)
(8.89473 0.174502 1.13167)
(5.57664 0.540508 -2.51544)
(11.472 0.205589 -0.00580365)
(10.8323 0.549097 -1.7582)
(11.698 0.449804 0.428416)
(11.559 0.323307 -0.653121)
(11.2283 0.416292 -2.11021)
(0.282662 0.971215 0.459966)
(12.6524 0.374542 -1.44028)
(-2.86188 -1.79798 0.872531)
(2.53919 0.201884 -6.68873)
(7.34974 0.748686 0.509207)
(10.8285 0.340035 -2.13794)
(8.06115 0.304496 -4.02806)
(10.9712 0.435156 -2.76001)
(11.3594 0.349207 -4.69659)
(11.1331 0.873188 -2.59101)
(2.78662 0.423718 -7.46704)
(12.6899 0.45923 -0.364025)
(13.3637 0.629965 -3.83772)
(3.53146 0.14356 0.483572)
(10.9923 0.592904 -3.14688)
(6.86694 0.563753 0.71333)
(7.87097 0.484874 0.172733)
(9.58432 0.457622 -1.6487)
(10.6333 0.67274 -2.30206)
(12.0569 0.441236 1.74238)
(4.19271 0.638399 2.52934)
(6.77989 0.351915 -2.87291)
(3.30463 -0.690667 1.98883)
(-1.89658 -1.07674 2.07268)
(-0.296464 -1.5883 3.1013)
(12.6683 0.0821433 3.60302)
(-1.66853 -2.16157 0.566688)
(12.8011 0.516977 0.642091)
(-3.24077 -1.54342 1.2004)
(6.2978 0.421491 0.853758)
(4.6464 1.04299 -7.83128)
(10.8481 0.44503 -2.69002)
(11.0051 0.748092 -2.16407)
(7.73675 -0.590929 0.0948999)
(11.0101 -0.107631 0.644162)
(-1.62187 -1.36873 -1.35411)
(7.99705 1.24979 -11.838)
(0.229136 -0.123629 3.51423)
(11.556 0.376038 -1.47049)
(10.9961 0.278736 -3.15409)
(11.4131 0.364015 -3.44613)
(11.7125 0.382894 -2.27864)
(10.5466 0.372537 -3.56503)
(4.08309 0.889832 -4.73311)
(12.9279 0.101748 -0.641286)
(11.1421 0.431365 -6.33505)
(8.31813 0.407885 -3.07147)
(5.88334 0.415031 -1.70117)
(13.0281 0.208929 -0.550181)
(-1.92139 -0.128014 2.87887)
(10.0401 -0.0563358 1.25493)
(4.54022 -0.647719 -1.88082)
(0.496255 0.67038 -4.17229)
(5.04779 -0.838471 1.58631)
(0.727736 1.10906 -1.54338)
(3.86691 -0.490546 0.0440809)
(11.0358 0.17523 0.601649)
(13.5318 0.536598 -3.40693)
(5.77694 0.605723 0.470266)
(6.80004 -0.0701444 0.00806731)
(-1.79113 -0.0828379 0.377204)
(0.0856494 -1.45356 3.56897)
(11.618 0.349171 -1.091)
(10.1516 -0.25795 1.18453)
(5.0081 -0.0638496 1.88885)
(10.3088 0.581393 -2.03748)
(10.6879 0.37148 -0.535408)
(10.8787 0.503513 -0.848122)
(13.1485 0.258716 -2.19212)
(12.0557 0.109756 0.242788)
(10.1102 0.225929 -2.58492)
(4.10152 0.143477 0.247246)
(11.9127 0.10663 0.939434)
(-0.411338 -1.00178 1.03874)
(10.1749 3.11819 -3.16958)
(2.2223 0.520848 -0.0325665)
(4.07117 -0.588323 -0.264826)
(-0.404131 -1.08609 1.36898)
(11.2254 0.0242201 0.337364)
(5.28471 -0.607483 0.708747)
(5.49645 0.352464 0.612862)
(9.78863 -0.261269 0.676451)
(12.9411 0.339882 2.1322)
(-0.704359 0.0723037 2.93395)
(-3.8245 -0.461137 0.699793)
(-4.20844 -0.441005 -0.112283)
(-3.52462 -0.916375 0.97661)
(11.8181 0.415347 -1.13954)
(4.28503 -0.0410971 1.72791)
(10.5927 -0.281211 1.80771)
(9.1495 0.0300415 1.25475)
(-2.17486 0.913537 -1.64052)
(10.061 -0.108653 -0.302734)
(11.4798 -0.137912 -0.67148)
(2.39181 -0.847273 -2.06409)
(12.3524 0.0306677 0.162036)
(0.461205 0.449785 -1.59603)
(13.3785 0.571512 1.65257)
(6.7451 0.519856 -0.493859)
(-1.57056 0.0544435 3.20544)
(8.17603 -0.220626 0.470752)
(9.98004 1.96167 4.79783)
(6.4755 -0.094098 -1.21424)
(11.7114 -0.195977 0.664299)
(10.3616 -0.235537 4.56588)
(11.462 0.225774 1.55896)