/*--------------------------------*- C++ -*----------------------------------*\
| =========                 |                                                 |
| \\      /  F ield         | OpenFOAM: The Open Source CFD Toolbox           |
|  \\    /   O peration     | Version:  2506                                  |
|   \\  /    A nd           | Website:  www.openfoam.com                      |
|    \\/     M anipulation  |                                                 |
\*---------------------------------------------------------------------------*/
FoamFile
{
    version     2.0;
    format      ascii;
    arch        "LSB;label=32;scalar=64";
    class       volScalarField;
    location    "0.0948794";
    object      k;
}
// * * * * * * * * * * * * * * * * * * * * * * * * * * * * * * * * * * * * * //

dimensions      [0 2 -2 0 0 0 0];

internalField   nonuniform List<scalar> 
3927
(
0.294411
0.303532
1.02922
0.486129
0.291646
0.761566
0.720857
0.334977
0.278679
0.313597
0.289727
0.339848
0.337722
0.375246
0.292899
0.730294
0.291998
0.358444
0.355638
0.770419
0.447838
0.564254
0.458365
0.357234
0.367332
0.360523
0.326964
0.316615
0.689582
0.307612
0.310025
0.275555
0.361926
0.317718
0.359111
0.361918
0.320177
0.343278
0.378889
0.376793
0.354825
0.520104
0.280209
0.318262
0.291955
0.512947
0.320412
0.508645
0.34833
0.37843
0.363099
0.381578
0.467953
0.274417
0.275631
0.276961
0.327288
0.400295
0.282478
0.296452
0.425403
0.363484
0.342121
0.376584
0.365703
0.357266
0.34985
0.37481
0.375402
0.591247
0.36189
0.292132
0.529486
0.35908
0.498932
0.421945
0.416575
0.339278
0.331691
0.317559
0.289882
0.597053
0.329725
0.324037
0.328603
0.345079
0.307568
0.709526
0.784632
0.495893
0.681567
0.423156
0.287715
0.355932
0.346816
0.54426
0.783001
0.376772
0.365345
0.415878
0.410577
1.41201
0.321155
0.831315
0.306561
0.357545
0.329935
0.283036
0.344847
0.316636
0.33686
0.656534
0.348035
0.285493
0.459127
0.760086
0.346477
0.365881
0.48631
0.31807
0.385254
0.326606
0.355009
0.664167
0.284847
0.298658
0.296496
0.297502
0.30108
0.290206
0.292235
0.607273
0.727587
0.715104
0.733287
0.441926
0.359536
0.372401
0.781048
0.296846
0.766696
0.791973
0.304307
0.329844
0.305911
0.831089
0.80262
0.798181
0.380213
0.38269
0.352511
0.353862
0.360715
0.340958
0.321369
0.286602
0.780245
0.327076
0.290735
0.353471
0.390778
0.336519
0.375972
0.343895
0.587865
0.410901
0.449217
0.699023
0.375807
0.682475
0.312467
0.987903
0.789397
0.784327
0.425539
0.868557
0.92222
0.621909
0.92816
0.337422
0.330304
0.529173
0.386426
0.889483
0.46825
0.319744
0.369791
0.696771
0.459123
0.379544
0.376391
0.382096
0.733178
0.351377
0.360678
0.676323
0.29749
0.823372
0.752779
0.376378
0.350451
0.372601
0.289874
0.362927
0.47108
0.421084
0.328873
0.780827
0.285591
0.282384
0.345015
0.566016
0.422162
0.970685
0.38033
0.360764
0.489382
0.660823
0.49234
0.354186
0.895873
0.332249
0.394936
0.548118
0.70528
0.924064
0.369626
0.498602
0.362353
0.358353
0.383028
0.355007
0.376929
0.377687
0.336261
0.34979
0.471895
0.304899
0.344169
0.356885
0.38048
0.520958
0.912023
0.743461
0.327055
0.734993
0.328207
0.397078
0.370891
0.361218
0.497495
0.375796
0.33641
0.313904
0.306978
0.365364
0.292356
0.356781
0.328488
0.335396
0.379922
0.401878
0.373698
0.371817
0.334976
0.398643
0.535073
0.512427
0.461943
0.356454
0.448263
0.491968
0.344783
0.292831
0.285775
0.353278
0.296719
0.287427
0.308232
0.292807
0.608094
0.315249
0.287996
0.469824
0.354091
0.617413
0.354967
0.70679
0.575114
0.3332
0.76995
0.537728
0.329145
0.300097
0.310528
0.357561
0.538042
0.70349
0.463061
0.609204
0.330035
0.547274
0.640149
0.347485
0.314754
0.320824
0.388689
0.371476
0.740017
0.304066
0.308749
0.504039
0.344443
0.328068
0.312848
0.330709
0.485286
0.3186
0.289311
0.342082
0.474399
0.774304
0.321419
0.382902
0.36159
0.276391
0.477925
0.343843
0.502458
0.326262
0.369786
0.358716
0.997529
0.703902
0.769413
0.327447
0.733012
0.650144
0.287601
0.289169
0.742145
0.307729
0.661653
0.406513
0.295096
0.317045
0.31595
0.381855
0.503709
0.642897
0.309391
0.357896
1.07816
0.582356
0.317247
0.357579
0.277225
0.698537
0.711951
0.299177
0.388795
0.454372
0.717021
0.295692
0.392472
0.407686
0.324417
0.513193
0.844244
0.705862
0.55146
0.344567
0.284816
0.410536
0.308131
0.328488
0.360723
0.33783
0.66795
0.640035
0.353808
0.682577
0.770721
0.381917
0.309747
0.347367
0.358123
0.55694
0.291792
0.633834
0.374662
0.507004
0.366687
0.481436
0.698069
0.325805
0.622371
0.318759
0.393284
0.73693
0.416134
0.537064
0.74252
0.360484
0.49978
0.297594
0.500007
0.274868
0.345513
0.752095
0.388533
0.335925
0.27332
0.384774
0.270116
0.286831
1.04684
0.488219
0.745866
0.327719
0.45338
0.28631
0.371525
0.365771
0.33601
0.367809
0.727444
0.387486
0.331253
0.839909
0.409239
0.399093
0.48593
0.3927
0.382966
0.506713
0.608663
0.376082
0.294154
0.417178
0.273073
0.280011
0.584539
0.701392
0.276474
0.606235
0.27601
0.414986
0.285446
0.299028
0.652685
0.297551
0.397561
0.690471
0.434769
0.382894
0.301546
0.485184
0.315631
0.478488
0.772917
0.347156
0.55068
0.30874
0.596044
0.480508
0.358899
0.743836
0.893185
0.628501
0.515509
0.353844
0.818404
0.327156
0.477931
0.656691
0.588398
0.307727
0.38522
0.277876
0.285848
0.297631
0.27005
0.311775
0.359537
0.285915
0.728154
0.339554
0.404627
0.299454
0.625114
0.332863
0.286151
0.287321
0.328304
0.511009
0.549978
0.40742
0.60824
0.696164
0.410149
0.554885
0.898209
1.08703
0.331634
0.796171
0.646377
0.345658
0.352303
0.346722
0.4023
0.338758
0.410498
0.302742
0.307107
0.344785
0.638607
0.306472
0.28689
0.552199
0.816551
0.673585
0.402662
0.614262
0.316007
0.426037
0.868446
0.350879
0.439428
0.34456
0.327366
0.321289
0.457559
0.341837
0.375005
0.371569
0.297827
0.311179
0.35875
0.38547
0.41345
0.347808
0.447143
0.447623
0.559094
0.391003
0.427428
0.491767
0.439362
0.35981
0.426104
0.546691
0.573713
0.344765
0.358395
0.417673
0.477824
0.433974
0.415429
0.381305
0.611505
0.473529
0.668091
0.508222
0.423172
0.784376
0.751906
0.372876
0.454846
0.499919
0.387401
0.407964
0.269389
0.27186
0.288526
0.292187
0.287789
0.297359
0.289192
0.287493
0.288795
0.296836
0.292074
0.291598
0.291623
0.290756
0.289392
0.562805
0.877887
0.378619
0.305169
0.31916
0.291289
0.362582
0.291012
0.356423
0.317445
0.435487
0.577867
0.423478
0.516216
0.357984
0.543245
0.620072
0.434196
0.417471
0.510842
0.481345
0.474639
0.471337
0.720054
0.639911
0.299907
0.294315
0.292348
0.299258
0.336268
0.300487
0.297012
0.335243
0.435406
0.350743
0.334121
0.338747
0.346932
0.446211
0.428935
0.274322
0.454963
0.482443
0.476757
0.542457
0.554527
0.385507
0.33587
0.361262
0.314719
0.338408
0.324729
0.329803
0.290992
0.349453
0.285965
0.286055
0.348858
0.29391
0.295711
0.289169
0.273303
0.287272
0.507531
0.362366
0.72794
0.36653
0.348044
0.303303
0.463554
0.471504
0.653164
0.821814
0.295571
0.549365
0.412034
0.395623
0.413962
0.432024
0.671185
0.287781
0.302948
0.299761
0.277079
0.270146
0.269223
0.286242
0.297315
0.278727
0.283827
0.272257
0.275648
1.17334
1.14654
0.925396
1.1103
0.597374
0.473167
0.660485
0.450103
0.561422
0.482546
0.36503
0.401793
0.297236
0.292098
0.288784
0.381953
0.458872
0.361851
0.333799
0.339984
0.319022
0.312867
0.317075
0.427829
0.313838
0.344486
0.367282
0.300069
0.309185
0.320895
0.340025
0.354196
0.311899
0.347477
0.32259
0.317152
0.320846
0.303603
0.303195
0.31049
0.298172
0.307738
0.305573
0.275043
0.290763
0.267832
0.846943
0.640179
0.572651
0.892658
0.68408
0.471422
0.526985
0.31458
0.525599
0.385334
0.345977
0.35876
0.422244
0.405631
0.284723
0.610989
0.293345
0.894996
0.907125
0.714083
0.763849
0.59709
0.529359
0.479874
0.288915
0.721688
0.344726
0.930888
0.651947
0.627577
0.380619
0.326706
0.486477
0.474117
0.364626
1.00159
0.446212
0.541589
0.427565
0.353062
0.371297
0.804054
0.336933
0.343314
0.461803
0.716283
1.12145
0.558585
0.674432
0.372697
0.34635
0.303452
0.420232
0.289906
0.32185
0.29853
0.314396
0.69562
0.446133
0.426732
0.359859
0.459026
0.715389
0.946097
0.44204
0.424492
0.444322
1.02824
0.652706
0.33639
0.398627
0.586277
0.398341
0.497724
0.74515
0.870342
0.498595
0.292824
0.651035
0.556863
0.481532
1.37973
0.886435
0.280323
0.686625
0.501335
0.487521
0.717899
0.291527
0.67168
0.675906
0.696102
0.492838
0.338482
0.412022
0.317061
0.2819
0.283044
0.288999
0.28909
0.333757
0.331759
0.276353
0.274494
0.296501
0.687055
1.0522
0.295096
0.79895
0.338931
0.274786
0.31158
0.337766
0.329284
0.351619
0.338957
0.326602
0.807515
0.313105
0.274289
0.32725
0.364728
0.282632
0.700343
0.409045
0.724716
0.294146
0.477187
0.66692
0.456694
0.30323
0.458285
0.288779
0.42383
0.526019
0.480607
0.350465
0.359374
0.341677
0.323686
0.495896
0.32884
0.354596
0.38419
0.377955
0.283472
0.379257
0.870392
0.302859
0.383083
0.337085
0.449326
0.34539
0.398293
0.703049
0.510924
0.32761
0.278542
0.335628
0.280651
0.333113
0.444217
0.705191
0.718538
0.724143
0.429128
0.673855
0.428098
0.776486
0.484313
0.474801
0.284373
0.450006
0.36334
0.354672
0.654766
0.374523
0.369823
0.3328
0.60168
0.448571
0.279217
0.27887
0.375704
0.792489
0.277371
0.534875
0.51418
0.378922
0.340885
0.323009
0.823253
0.653542
0.324615
0.347058
0.329835
0.462855
0.315989
0.346504
0.42185
0.343942
0.381614
0.327705
0.403562
0.452557
0.354105
0.307517
0.366984
0.276443
0.599445
0.306748
0.430268
0.451819
0.610569
0.470082
0.352018
0.409234
0.440652
0.317615
0.268199
0.288702
0.512901
0.438341
0.522102
0.36571
0.551104
0.527138
0.696524
0.401145
0.274684
0.345617
0.364555
0.315535
0.870096
0.275228
0.325594
0.29704
0.304733
0.28604
0.421417
0.867675
0.280218
0.85209
0.268704
0.312625
0.302626
0.300349
0.349356
0.293924
0.342083
0.326016
0.291071
0.276067
0.735544
0.267889
0.871005
0.996825
0.30241
0.301085
0.365122
0.369627
0.440016
0.387521
0.303413
0.287936
0.295962
0.447789
0.412397
0.464082
0.360268
0.943852
0.505403
0.699809
0.829114
0.277853
0.920388
1.04287
0.690653
0.438683
0.303412
0.458632
0.305749
0.714739
0.436464
0.282015
0.366632
0.480221
0.388199
0.353773
0.417293
0.279901
0.387315
0.364033
0.897889
0.449393
0.377463
0.51324
0.297184
0.293629
0.309611
0.430748
0.285925
0.293066
0.567837
0.485188
0.364035
0.413055
0.332204
0.718217
0.324156
1.14401
0.701244
0.408805
0.364514
0.294902
0.288552
0.784935
0.402719
0.916655
0.420828
0.292284
0.948057
0.39078
0.719796
0.929519
0.285376
0.304354
0.309731
0.286494
0.458849
0.826486
0.30598
0.680679
0.425003
0.73698
0.457232
0.796627
0.322035
0.271678
0.436123
0.835696
0.633479
0.326725
0.54445
0.510473
0.291299
0.467182
0.738513
0.542163
0.294096
0.404493
0.710082
0.635008
0.367239
0.339932
0.283187
0.281315
0.811006
0.717747
1.15857
0.314086
0.517041
0.936408
0.29413
0.831144
0.630118
0.72117
0.325953
0.2772
0.276969
0.286874
0.854583
0.791522
0.734505
0.764871
0.394277
0.82023
0.29353
0.322779
0.291584
0.741701
1.03992
0.727542
0.500446
1.00463
0.29587
0.305619
0.301203
0.308227
0.58965
0.325807
0.296399
0.345724
0.463013
0.284336
0.32152
0.292444
0.352092
0.28494
0.412889
0.292745
0.33443
0.74126
0.508784
0.40807
0.716977
0.314017
0.6442
0.321313
0.894995
0.353937
0.285961
0.736757
0.474691
0.69955
0.291876
0.2997
0.529903
0.51246
0.422406
0.437383
0.5686
0.590119
0.439385
0.47086
0.311067
0.311116
0.355974
0.303162
0.381145
0.291158
0.294932
0.302093
0.317774
0.314247
0.297755
0.315178
0.486974
0.482802
0.352272
0.412337
0.421891
0.898091
0.731791
0.577725
0.48863
0.344042
0.605863
0.317074
0.361229
0.343699
0.390921
0.303285
0.373139
0.353986
0.399479
0.674316
0.574107
0.372873
0.317558
0.506176
0.346907
0.329341
0.292425
0.398457
0.334511
0.347998
0.59016
0.402078
0.58012
0.449833
0.68421
0.356972
0.304261
0.753316
0.29295
0.752954
0.320346
0.588332
0.464407
0.375276
0.319139
0.547876
0.735884
0.670458
0.328653
0.353179
0.318298
0.314211
0.346577
0.311352
0.309362
0.319522
0.440551
0.48705
0.548834
0.317779
0.397463
0.357569
0.30285
0.36803
0.318253
0.315807
0.44305
0.465537
0.5164
0.762471
0.539657
0.725668
0.339636
0.768782
0.506975
0.364776
0.758292
0.441741
0.409427
0.279068
0.331556
0.275289
0.276041
0.276331
0.27393
0.275807
0.323143
0.299125
0.628338
0.68824
0.653313
0.573116
0.374735
0.299342
0.556105
2.68347
0.305673
0.282542
0.362272
0.639847
0.393884
0.745151
0.317893
0.283283
0.274964
0.847307
0.410476
1.19135
0.321663
0.314988
0.339671
0.358662
0.36893
0.518951
0.334341
0.630608
0.614471
0.508077
0.327691
0.351368
0.446064
0.290381
0.283982
0.289525
0.285673
0.301313
0.364505
0.325364
0.334991
0.279385
0.374279
0.352203
0.338934
0.309916
0.540763
0.530364
0.686303
0.713486
0.918443
0.27707
0.356554
0.322317
0.345103
0.311886
0.453315
0.500833
0.313024
0.695721
0.670608
0.471644
0.330318
0.357399
0.473191
0.843751
0.648761
0.30024
0.362225
0.324057
0.383977
0.282497
0.315031
0.273984
0.318817
0.297125
0.311684
0.299929
0.289309
0.293987
0.323928
0.280377
0.285291
0.325469
0.33852
0.333187
0.357297
0.311743
0.329443
0.342262
0.31516
0.324973
0.335884
0.327256
0.3496
0.278484
0.326271
0.310517
0.297248
0.286851
0.292936
0.308453
0.321951
0.395949
0.301395
0.268864
0.376258
0.29452
0.272839
0.299949
0.353544
0.373434
0.333148
0.353312
0.296614
0.305228
0.318431
0.334061
0.299931
0.3485
0.610345
0.454714
0.473757
0.289759
0.288822
0.331384
0.314586
0.507795
0.351275
0.872322
0.796074
0.365906
0.278287
0.299043
0.668886
0.269982
0.32929
0.285756
0.322142
0.908797
0.608435
0.288452
0.397041
0.754967
1.69291
0.552296
0.776394
0.471361
0.983744
0.677262
0.498227
0.543591
0.453631
0.361399
0.778043
0.278335
0.903919
0.675162
0.637891
0.679126
0.739185
0.441845
0.982361
0.3942
0.324335
0.493651
0.785894
0.304332
0.736553
0.831698
0.47143
0.302473
0.380528
0.762685
0.643755
0.647313
0.657358
0.676797
0.618228
0.68261
0.601371
0.557014
0.530306
0.476849
0.504862
0.48563
0.780835
0.359899
0.746938
0.348305
0.349265
0.355971
0.695248
0.642472
0.746614
0.749655
0.372459
0.326139
0.310851
0.329563
0.276951
2.40627
0.520968
0.869718
1.55405
0.469035
0.805911
0.709701
0.803956
0.288283
0.286972
0.295592
0.674084
0.784238
0.270541
0.281775
0.545343
0.293514
0.329342
0.297203
0.391178
0.293343
0.748433
0.786122
0.425283
0.292373
0.717615
0.343345
0.412403
0.279123
0.283239
0.276556
0.864511
0.822481
0.831548
0.634726
0.285761
1.34344
0.646872
0.408577
0.944322
0.901978
0.719803
0.470022
0.736285
0.421259
0.507095
0.330448
0.307359
0.389469
0.435229
0.51229
0.347432
0.793751
0.340784
0.341319
0.352289
0.267801
0.326567
0.289784
0.279206
0.278695
0.362565
0.49676
0.637105
0.711111
0.641721
0.3652
0.303622
0.323313
0.319614
0.341873
0.327868
0.279969
0.337536
0.311924
0.271463
0.327061
0.568767
0.464507
0.387767
0.370844
0.403101
0.324746
0.359287
0.675951
0.330824
0.330526
0.355179
0.299515
0.325764
0.269686
0.536712
0.638327
0.307758
0.377837
0.313626
0.311103
0.323398
0.351223
0.33723
0.292703
0.309228
0.320162
0.316434
0.630756
0.292287
0.335511
0.278733
0.287765
0.282958
0.284756
0.276997
0.364
0.572202
0.336623
0.309717
0.296757
0.38572
0.323567
0.299384
0.331125
0.572393
0.365065
0.359564
0.301446
0.32679
0.389797
0.565039
0.899535
0.320358
0.533073
0.539468
0.300894
0.324613
0.278588
0.689554
0.409827
0.45762
0.295555
0.290026
0.304463
0.82191
0.886618
0.90653
0.269207
0.26944
0.304869
0.522432
0.297536
0.419683
0.314558
0.415334
0.288669
0.47988
0.750182
0.769638
0.673212
0.311362
0.621803
0.65098
0.56157
0.327441
0.322365
0.306866
0.500623
0.317931
0.493186
0.422461
0.29429
0.288206
0.334029
0.295459
0.283854
0.32251
0.664535
0.316963
0.879497
0.751137
0.376224
0.715354
0.438032
0.791802
0.309139
0.358981
0.429887
0.733412
0.290865
0.699987
0.491963
0.391938
0.839176
0.845633
0.384556
0.573656
0.653157
0.808642
0.674237
0.347668
0.917727
0.299882
0.29201
0.606992
0.575535
0.743074
0.528513
0.509844
0.703281
0.915616
0.69654
0.799737
0.487753
1.10686
0.283929
0.309788
0.812588
0.405748
0.37725
0.977688
0.373825
0.284718
0.289342
0.2931
0.697614
0.331213
0.30328
0.334835
0.648421
0.859188
0.829664
0.845333
0.480526
0.303731
0.290753
0.344171
0.810882
0.330878
0.339234
0.296391
0.307793
0.394658
0.565709
0.345722
0.31909
0.814395
0.477966
0.288506
0.790588
0.479868
0.699118
0.399545
0.515271
0.28303
0.358117
0.474933
0.376531
0.291235
0.338561
0.372823
0.300729
0.367497
0.338399
0.419778
0.644583
0.669338
0.732806
0.964379
0.316256
0.29267
0.316958
0.332095
0.295062
0.341494
0.334562
0.91911
0.31346
0.331844
0.357932
0.673462
0.315972
0.318621
0.71521
0.787042
0.628376
0.804804
0.752653
0.654415
0.742777
0.723925
0.631964
0.711859
0.342139
1.007
0.308163
0.788812
0.384241
0.342743
0.385349
0.369677
0.294312
0.296284
0.30149
0.299405
0.307151
0.711165
1.01679
0.785243
2.02516
0.562948
0.369692
0.36196
0.377291
0.512277
0.341602
0.465624
0.458385
0.595491
0.465522
0.415139
0.281355
0.623763
0.278684
0.277281
0.276015
0.381386
0.835389
0.781235
0.759759
0.361845
0.678306
0.565828
0.280803
0.277765
0.289382
0.819779
0.988877
0.58992
0.278853
0.381381
0.522688
0.369373
0.576931
0.637976
0.863533
0.695539
0.330436
0.3016
0.366835
0.309548
0.422761
0.427239
0.92475
0.32674
0.292787
0.286943
0.310784
0.336477
0.823462
0.910205
1.06899
0.554126
0.28441
0.294901
0.276692
0.350453
0.59287
0.757934
0.353802
0.343431
0.307259
0.271244
0.346002
0.322179
0.315623
0.361022
0.322688
0.339411
0.31529
0.319907
0.36262
0.341521
0.338164
0.350984
0.356886
0.283985
0.268207
0.394324
0.567583
0.642493
0.4361
0.350477
0.324286
0.646638
0.333772
0.382237
0.516245
0.313426
0.368412
0.422013
0.458929
0.469053
0.425984
0.866814
0.73548
0.432919
0.293123
0.276603
0.296181
0.308785
0.337097
0.382833
0.311815
0.38206
0.383571
0.330312
0.28962
0.389931
0.36563
0.32327
0.378358
0.348605
0.579144
0.36164
0.752507
0.909007
1.00456
1.03952
0.654168
0.750663
0.369312
0.332885
0.361255
0.36938
0.32266
0.277221
0.276744
0.37736
0.308393
0.648409
0.361509
0.342208
0.440783
0.673243
0.392004
0.388609
0.348041
0.469497
0.350926
0.570318
0.477712
0.315875
0.400636
0.399914
0.416026
0.312041
0.557959
0.442058
0.39207
0.401032
0.594901
0.370101
0.355573
0.38118
0.369908
0.365355
0.369321
0.367347
0.289167
0.368768
0.363823
0.366729
0.373705
0.33189
0.305377
0.501268
0.35245
0.373938
0.300139
0.323891
0.297156
0.306978
0.874269
0.30253
0.310782
0.289669
0.322136
0.34238
0.482606
0.547938
0.313775
0.356425
0.331901
0.77586
0.274311
0.276344
0.614136
0.292593
0.330865
0.688984
0.348592
0.466774
0.388431
0.348071
0.397397
0.359309
0.354024
0.296208
0.824211
0.303671
0.305127
0.288963
0.455962
0.293057
0.344246
0.307454
0.298633
0.474171
0.316376
0.292992
0.292525
0.306271
0.302639
0.554424
0.310076
0.283414
0.290182
0.30036
0.399812
0.284506
0.293333
0.291787
0.290887
0.308101
0.42688
0.50791
0.759591
0.711175
0.762159
0.757352
0.722585
0.462527
0.707734
0.571289
0.93522
1.26436
0.732371
0.354867
0.68001
0.733681
0.51692
0.634248
0.321284
0.483577
1.05057
0.973476
0.750463
0.728952
0.310184
0.939722
0.374885
0.429749
0.669783
0.886075
0.88938
0.819436
0.419265
0.814016
0.634106
0.647398
0.479354
0.496421
0.797467
0.42046
0.426468
0.433939
0.664479
0.690002
0.313089
0.390515
0.539199
0.725928
0.403405
0.38163
0.363375
0.521091
0.386215
0.963296
0.335798
0.863562
0.821928
0.976195
0.825589
0.78325
0.619089
0.825794
0.384298
0.784307
0.365769
0.374702
0.393922
0.466632
0.874603
0.878628
0.877595
0.931478
0.372543
0.788246
0.965538
0.764458
0.800716
0.873955
0.810017
0.734252
0.509145
0.934297
0.325926
0.343038
0.361594
0.358914
0.344267
0.349199
0.327605
0.524616
0.440353
0.470781
0.390032
0.324039
0.485663
0.375794
0.312217
0.302381
0.303823
0.577368
0.323749
0.286536
0.42574
0.688407
0.779101
0.439969
0.459521
0.393461
0.510753
0.557557
0.69613
0.682444
0.65529
0.689238
0.799599
0.393418
0.703049
0.466504
0.323585
0.312068
0.370467
0.315154
0.528009
0.330863
0.289112
0.679033
0.275379
0.442796
0.379433
0.274464
0.287286
0.270416
0.294721
0.289771
0.707526
0.318043
0.293192
0.482087
0.31848
0.332644
0.376366
0.293841
0.41318
0.331132
0.269063
0.310034
0.301877
0.328311
0.355968
0.342454
0.437866
0.367369
0.327042
0.304683
0.305215
0.379652
0.347192
0.32166
0.619675
0.294596
0.65418
0.760191
0.383573
0.357459
0.416147
0.639689
0.413225
0.373112
0.649731
0.531213
0.459786
0.491076
0.535604
0.446818
0.621748
0.845147
0.503677
0.684235
0.687681
0.776887
0.431635
0.35189
0.351697
0.33563
0.305341
0.727885
0.38369
0.32029
0.76548
0.367649
1.19443
0.399727
0.378723
0.364542
0.506746
0.535449
1.97641
0.517572
0.420471
0.326291
0.844255
0.666132
0.365572
0.451422
0.351182
0.649418
0.676976
0.657613
0.305642
0.534032
0.302808
0.664966
0.652186
0.278197
0.356198
0.296784
0.424627
0.394439
0.788798
0.678577
0.536271
0.332808
0.349527
0.309911
0.345177
0.312925
0.281016
0.27101
0.378085
0.831409
0.63609
0.48014
0.375332
0.330273
0.396128
0.700378
0.336594
0.466676
0.299427
0.318244
0.407829
0.326834
0.326693
0.317993
0.640642
0.627445
0.307416
0.331983
0.880787
0.376154
0.782296
0.566392
0.687214
0.305983
0.31139
0.281727
0.28393
0.757844
0.953502
0.88838
0.674396
0.346703
0.279671
0.277148
0.303616
0.668892
0.405613
0.430492
0.274483
0.281842
0.298097
0.296483
0.56257
0.724099
0.631208
0.76322
0.491057
0.664765
0.840413
0.29264
0.297639
0.292786
0.289189
0.732499
0.292631
0.752052
0.733737
0.79964
0.448841
0.949559
0.512989
0.378116
0.448055
0.299454
0.304512
0.761117
0.489731
0.445615
0.425317
0.353983
0.284641
1.04758
0.289373
0.291376
0.273853
0.553941
0.291888
0.818706
0.501333
0.621632
0.532446
0.380283
0.376228
0.534297
0.99455
0.279505
0.278236
0.273592
0.279984
0.294545
0.603011
0.302468
0.324374
0.870179
0.29865
0.410043
0.342233
0.699306
0.38276
0.342746
0.384126
0.354868
0.36482
0.3125
0.417465
0.771058
0.390722
0.386557
0.654269
0.336919
0.27741
0.280532
0.343949
0.286206
0.279446
0.280477
0.272283
0.339607
0.289203
0.323662
0.320591
0.281166
0.327237
1.18117
0.284013
0.555083
0.320604
0.601062
0.350446
0.316231
0.415576
0.490757
0.374513
0.750805
0.672652
0.669196
0.725938
0.676418
0.333502
0.864575
0.308616
0.344454
0.368722
0.789181
0.399698
0.376037
0.281375
0.888669
0.633553
0.297287
0.411004
0.303783
0.410214
0.320869
0.332351
0.296666
0.285012
0.339143
0.324516
0.742155
0.700425
0.276973
0.400648
0.275178
0.637434
0.821713
1.95239
0.832547
0.676581
0.919793
0.304689
0.283062
0.741378
0.297577
0.323775
0.301425
0.278367
0.382171
1.32672
0.291428
0.276385
0.334917
0.413074
0.36351
0.299645
0.367811
0.306156
0.32708
0.360302
0.387407
0.379075
0.328025
0.275478
0.427342
0.329805
0.387631
0.289348
0.305382
0.386609
0.480101
0.628631
0.82288
0.328282
0.36972
0.457767
0.305675
0.680302
0.431469
0.300206
0.962858
0.448097
0.370873
0.547528
0.512116
0.528886
0.370494
0.293283
0.447985
1.19546
0.305204
0.28224
0.344256
0.398938
0.32746
0.312042
0.741335
0.399015
0.731033
0.276785
0.325556
0.30319
0.311051
0.296829
0.380218
0.893345
0.484118
0.512388
0.385167
0.363503
0.287899
0.353004
0.353694
0.291349
0.291039
0.333983
0.534614
0.375012
0.729705
0.315718
0.522415
0.612253
0.426853
0.728673
0.51652
0.762709
0.288327
0.573526
0.424016
0.368825
0.87829
0.353044
0.64569
0.354752
0.8317
0.53332
0.305334
0.275193
0.785376
0.710081
0.273112
0.422947
0.285322
0.778861
0.805931
0.417499
0.31107
0.272073
0.475521
0.282528
0.374945
0.301326
0.294308
0.299172
0.350659
0.34367
0.536945
0.31977
0.612869
0.392472
0.310682
0.589123
0.330313
0.311826
0.630813
0.351382
0.405718
0.343975
0.296523
0.623054
0.376388
0.609686
0.620639
0.332911
0.880172
0.325062
0.278613
0.65404
0.39692
0.356061
0.460263
0.619525
0.579228
0.719518
0.524808
0.553178
0.290676
0.73539
0.728252
0.512559
0.799542
0.620079
0.486434
0.588139
0.48097
0.397036
0.501402
0.428044
0.699405
0.280477
0.351675
0.801619
0.372409
0.495329
0.661613
0.832874
0.448935
0.299747
0.363069
0.385631
0.284111
0.333223
0.302216
0.294432
0.296655
0.326807
0.307156
0.290932
0.382352
0.426199
0.626946
0.29733
0.294979
0.297752
0.316051
0.833525
0.365156
0.303035
0.361844
0.323942
0.371864
0.290557
0.314975
0.294292
0.379192
0.426403
0.336893
1.00589
0.305487
0.296028
0.473409
0.57371
0.476851
0.42673
0.422255
0.73564
0.348585
0.735116
0.678618
0.290547
0.298753
0.304742
0.327956
0.62267
0.824936
0.722503
0.281667
0.29615
0.30161
0.300499
0.400426
0.390127
0.414751
0.350187
0.400829
0.290511
0.312873
0.301074
0.290359
0.274626
0.271012
0.272503
0.293351
0.280725
0.422052
0.367586
0.435277
0.656639
0.355497
0.484292
0.818675
0.506155
0.409674
0.370464
0.34446
0.312567
0.306911
0.306566
0.616284
0.382459
0.821898
0.297234
0.286665
0.289633
0.285709
0.293609
0.288316
0.286163
0.282238
0.292594
0.361341
0.288815
0.370572
0.297152
0.364422
0.31429
0.325919
0.315913
0.306369
0.675607
0.35714
0.570117
0.457691
0.362792
0.364978
0.366733
0.364571
0.368802
0.527815
0.389821
0.354538
0.370996
0.317398
0.43281
0.388658
0.414547
0.328219
0.304177
0.349616
0.318859
0.375065
0.289885
0.29806
0.287966
0.97521
0.78265
0.691927
0.723595
0.318785
0.370198
0.35312
0.488178
0.479412
0.425892
0.835106
0.861484
0.423973
0.488527
0.386217
0.65463
0.844478
0.816692
0.875076
0.307452
0.289307
0.311101
0.280845
0.287505
0.313508
0.30267
0.286903
0.287031
0.278357
0.277613
0.290145
0.317567
0.556129
0.46538
0.655998
0.382048
0.368223
0.34276
0.357418
0.294863
0.291266
0.356278
0.270658
0.270641
0.296441
0.305028
0.29861
0.293621
0.321261
0.832599
0.532423
0.835654
0.799814
0.941314
0.487449
0.907773
1.24647
0.927299
0.274679
0.293084
0.880725
0.277112
0.27493
0.489144
0.432795
0.304377
0.694867
0.3894
0.42248
0.663703
0.772011
0.637897
0.774722
0.88043
1.9446
0.682414
0.599653
0.392297
0.754219
0.693372
0.729964
0.646653
0.528505
0.312352
0.64239
0.366259
0.73214
0.714312
0.501271
0.475917
0.357036
0.354535
1.11417
0.4676
1.01737
0.555243
1.06598
0.995651
1.94688
0.88037
0.693816
0.706401
0.76116
0.269331
0.268654
0.314643
0.275127
0.293983
0.647792
0.297264
0.308266
0.328542
0.288234
0.291104
0.288009
0.298807
0.293686
0.283465
0.284842
0.328699
0.362227
0.292666
0.297647
0.314195
0.289369
0.347855
0.37859
0.353057
0.36892
0.286733
0.279684
0.282231
0.300971
0.300859
0.412802
0.401535
0.345342
0.318173
0.316133
0.34891
0.515937
0.315751
0.629468
0.267969
0.274002
0.295876
0.281673
0.274081
0.770708
0.840722
0.350581
0.510443
0.320137
0.346984
0.301616
0.575561
0.327038
0.356794
0.371303
0.347737
0.338813
0.639034
0.837834
0.357744
0.478727
0.635384
0.28456
0.284078
0.315846
0.287909
0.281103
0.326718
0.373019
0.27833
0.305586
0.275059
0.267012
0.285292
0.294808
0.290376
0.303024
0.301997
0.281225
0.270355
0.411945
0.630305
1.04012
0.31014
0.291259
0.279483
0.276281
0.279125
0.323416
0.361916
0.369512
0.266713
0.286958
0.283949
0.2957
0.303183
0.292046
0.363862
0.340963
0.390435
0.327948
0.657295
0.690816
0.355612
0.851725
0.29731
0.302052
0.331607
0.298951
0.332663
0.324807
0.298717
0.293482
0.278965
0.281959
0.27868
0.334724
0.305555
0.310653
0.355226
0.394125
0.364852
0.428794
0.311384
0.303396
0.626293
0.359673
0.74944
0.51587
0.371897
0.48422
0.66358
0.342162
0.392124
0.349639
0.631825
0.332568
0.830367
1.06471
1.15221
0.340835
0.43985
0.948096
0.491744
0.629039
0.352811
0.47056
0.545493
0.371774
0.33669
1.57815
0.303162
0.45468
0.344457
0.349678
0.293973
0.767717
0.532727
0.775387
0.911862
0.351705
0.554943
0.745173
0.515887
0.513531
0.365879
0.299158
0.349286
0.31743
0.849092
1.0012
0.799364
0.405397
1.01826
0.748808
0.275894
0.416138
0.276526
0.466047
0.387006
0.288711
0.418888
0.400183
0.283723
0.295714
0.283453
0.48151
0.484795
0.310483
0.303
0.453918
0.442779
0.359823
0.299992
0.616939
0.453462
0.883513
0.456546
0.305457
0.777666
0.281681
0.531408
0.779129
0.739999
0.836464
0.734404
0.71478
0.685241
0.464259
0.669498
0.299065
0.284629
0.292106
0.350033
0.521688
0.631995
0.442845
0.896347
0.84721
0.449716
0.480635
0.420198
0.648005
0.356411
0.343857
0.44142
0.927655
0.549091
0.274086
0.28107
0.630129
0.419439
0.423899
0.309451
0.42237
0.383877
0.334344
0.304532
0.369343
0.481801
0.292783
0.457884
0.318463
0.317267
0.317431
0.297399
0.385593
0.312331
1.06984
0.335079
0.277954
0.292548
0.745723
0.348882
0.408414
0.478452
1.81829
0.720335
0.347909
0.684515
0.345553
0.40532
0.293138
0.318007
0.778658
0.43677
0.293492
0.52242
0.455513
0.423188
0.293493
0.305638
0.314522
0.283562
0.288832
0.302634
0.294687
0.804983
0.647386
0.434862
0.894483
0.60713
0.997169
0.308858
0.295247
0.308828
0.330551
0.404724
0.398476
0.5778
0.614349
0.533188
0.688118
0.317762
0.669895
0.860956
0.342314
0.931663
0.624243
0.765604
0.417796
0.361141
0.522303
0.314238
0.301547
0.874749
0.331897
0.480291
0.419467
0.305557
0.342936
0.870235
1.73304
0.495226
0.813857
0.338587
0.793451
0.50067
0.654322
0.524392
0.725604
0.70375
0.415906
0.757668
0.275008
0.3025
0.407702
0.642181
0.693504
0.453932
0.320424
0.273265
0.293175
0.302412
0.435845
0.409366
0.346802
0.342523
0.31555
0.279694
0.301189
0.30141
0.649753
0.317986
0.34593
0.300606
0.295265
0.292417
0.286414
0.2981
0.292639
0.303753
0.352207
0.374666
0.29817
0.295911
0.349766
0.315915
0.527475
0.28466
0.517926
0.292283
0.335591
0.333413
0.379466
0.34785
0.465116
0.352523
0.296121
0.439708
0.545516
0.648136
0.352738
0.478857
0.700068
0.317303
0.280981
0.305516
0.29759
0.283299
0.326704
0.309361
0.376134
0.490106
0.500147
0.839304
0.511684
0.532735
0.339908
0.28574
0.421767
0.384407
0.309893
0.349724
0.279861
0.276577
0.275492
0.590491
0.315252
0.28387
0.450982
0.562691
0.618355
0.36787
0.305961
0.304548
0.352458
0.402598
0.301486
0.339866
0.354174
0.370912
0.356009
0.457654
0.381336
0.820386
0.371741
0.269154
0.303215
0.355276
0.347208
0.327097
0.30277
0.42787
0.364991
0.343412
0.619428
0.355163
0.316339
0.359749
0.369904
0.383332
0.298038
0.343229
0.387355
0.391879
0.372733
0.414567
0.335475
0.320735
0.374893
0.371303
0.322512
0.429982
0.368872
0.363405
0.607344
0.388836
0.58923
0.295412
0.365786
0.473462
0.586239
1.16009
0.276625
0.647628
0.585267
0.338956
0.35066
0.306102
0.309958
0.357265
0.369097
0.307908
0.276049
0.295936
0.284493
0.297062
0.287256
0.363635
0.291661
1.09411
0.390766
0.84438
0.632906
0.638699
0.505345
0.669573
0.480535
0.659
0.564698
0.588323
0.361802
0.766373
0.822816
0.319877
0.296167
0.805822
0.880037
0.99974
0.336163
0.275383
0.868179
0.997496
0.725542
0.4566
0.27464
0.454156
0.477538
0.445465
0.441196