/*--------------------------------*- C++ -*----------------------------------*\
| =========                 |                                                 |
| \\      /  F ield         | OpenFOAM: The Open Source CFD Toolbox           |
|  \\    /   O peration     | Version:  2506                                  |
|   \\  /    A nd           | Website:  www.openfoam.com                      |
|    \\/     M anipulation  |                                                 |
\*---------------------------------------------------------------------------*/
FoamFile
{
    version     2.0;
    format      ascii;
    arch        "LSB;label=32;scalar=64";
    class       volScalarField;
    location    "0.0948794";
    object      nut;
}
// * * * * * * * * * * * * * * * * * * * * * * * * * * * * * * * * * * * * * //

dimensions      [0 2 -1 0 0 0 0];

internalField   nonuniform List<scalar> 
3927
(
0.00188969
0.00216423
0.000228549
0.00243692
0.00355554
0.000450095
0.000590838
0.00353135
0.00638205
0.00400002
0.00429909
0.00542152
0.00743189
0.000993419
0.00305312
0.000760505
0.00338133
0.00743424
0.00382727
0.000913198
0.000808619
0.000443556
0.00113891
0.000882006
0.00338505
0.00277628
0.00486014
0.0055817
0.00061064
0.00211998
0.00253025
0.00646924
0.00425997
0.00667281
0.00532506
0.00492954
0.00148227
0.00507646
0.000697309
0.00315409
0.00590922
0.00107358
0.00675863
0.00166051
0.00329882
0.00189249
0.00187535
0.00076781
0.00555477
0.00246468
0.00449993
0.00141118
0.000919484
0.00601477
0.00624294
0.00640311
0.00296484
0.00119543
0.00408503
0.00299729
0.000702288
0.00462404
0.00164566
0.00286743
0.00376013
0.0054609
0.00528974
0.00357869
0.000932667
0.00139181
0.00514763
0.00218581
0.000801916
0.0010986
0.00143455
0.00114421
0.0012107
0.00162636
0.00183403
0.00128981
0.00214348
0.000860296
0.00438868
0.00359171
0.0015818
0.00587657
0.00430437
0.00131966
0.00034264
0.00058524
0.000849378
0.000746939
0.00207018
0.00560387
0.00556557
0.000802486
0.000376498
0.00308877
0.00379484
0.000957906
0.00122594
0.000606594
0.00116122
0.000145764
0.0024706
0.00741052
0.00595155
0.00668147
0.00274289
0.00344497
0.00384974
0.000908091
0.00127526
0.00258812
0.000959835
0.000759045
0.00400481
0.00192708
0.00205463
0.00374053
0.00218338
0.0037598
0.00229567
0.00137695
0.00285439
0.00372149
0.0031011
0.00204739
0.00183808
0.00222562
0.00221665
0.00119133
0.000794508
0.000276794
0.000190793
0.00300789
0.00466372
0.00115916
0.00117323
0.00272559
0.000855352
0.00085432
0.00195008
0.00152612
0.0064484
0.000721678
0.000317641
0.000735448
0.00224757
0.00225489
0.00559501
0.00398866
0.00500266
0.00516251
0.00134478
0.00318388
0.000348104
0.00145775
0.00237318
0.00332887
0.00194431
0.00584153
0.00293936
0.00332158
0.00041263
0.00164352
0.000476209
0.000628988
0.00185347
0.00100875
0.00179201
0.000489157
0.000846294
0.000430542
0.000980666
0.000743254
0.00111362
0.000563659
0.000753437
0.00111473
0.00373704
0.000648829
0.002653
0.000668152
0.000675988
0.00151686
0.00348345
0.000930589
0.000869297
0.00262925
0.0026183
0.00074736
0.000904927
0.00589204
0.00568904
0.000218547
0.00284525
0.000501578
0.000897765
0.00315235
0.000995826
0.000911758
0.00350887
0.00116469
0.00212119
0.000672347
0.00366291
0.00053357
0.0031059
0.00332553
0.0012931
0.00072101
0.000647217
0.000776463
0.00246453
0.00159451
0.00229348
0.000904899
0.00230129
0.001051
0.00132841
0.00163962
0.000838938
0.000829121
0.000690122
0.00074377
0.000824662
0.00247478
0.00103337
0.00738817
0.00209993
0.00432331
0.00286875
0.00309252
0.00358341
0.00355813
0.000506502
0.00573601
0.00353277
0.000986014
0.00344511
0.00188627
0.000748268
0.00147645
0.00267114
0.000575645
0.00646354
0.00226733
0.00747127
0.00370358
0.000797901
0.00246964
0.00284895
0.00472808
0.00468631
0.0024351
0.00401151
0.000919263
0.00110315
0.000972756
0.00246953
0.000761281
0.00357338
0.000970075
0.000902116
0.000703954
0.000580808
0.000595351
0.000896441
0.00613005
0.000992979
0.000703026
0.0035789
0.00299245
0.00437754
0.00138238
0.0018733
0.00236306
0.0023556
0.00333818
0.00128061
0.0019033
0.00579266
0.000527744
0.00122782
0.000894977
0.000890895
0.000733366
0.00163322
0.00136805
0.00143584
0.00143041
0.00146153
0.0036099
0.00382482
0.00457942
0.000900836
0.00143084
0.000901098
0.00117923
0.00139115
0.00113849
0.000496194
0.00111229
0.00193089
0.00184727
0.00134292
0.000769934
0.00113565
0.00171738
0.00227019
0.000802432
0.00178423
0.00210944
0.00593485
0.00139864
0.000719446
0.00307706
0.00290813
0.00198089
0.000460265
0.000197992
0.00153586
0.00151149
0.00093306
0.00557638
0.0023909
0.00107552
0.000716107
0.00171412
0.000757421
0.00317198
0.00119223
0.00114622
0.000489782
0.00637768
0.0007507
0.000463123
0.00350738
0.0037277
0.00097208
0.00217157
0.000515383
0.000805993
0.00233222
0.00205233
0.00186964
0.00122981
0.000665816
0.000295849
0.00186729
0.00179378
0.000472989
0.00162195
0.00173851
0.00109714
0.00406835
0.00148295
0.000443792
0.00269412
0.00100985
0.000549347
0.0017099
0.00246316
0.000996259
0.000536433
0.00241628
0.000711235
0.000589127
0.00125101
0.000555979
0.0010206
0.00265774
0.000772005
0.00213452
0.00165756
0.00176972
0.00120279
0.000488543
0.000883121
0.00094931
0.000855461
0.000447734
0.00139314
0.00165026
0.000988717
0.00106909
0.000953498
0.00239772
0.000740375
0.00112804
0.000566718
0.00138499
0.00230256
0.00134045
0.00326522
0.000629438
0.0034265
0.00165161
0.000727618
0.00071817
0.000682363
0.00130449
0.00103927
0.00140229
0.00257258
0.0010781
0.00652528
0.00134453
0.000351986
0.00156742
0.00188521
0.00507416
0.000801725
0.00514092
0.00345188
0.000982413
0.000848967
0.000854109
0.00365127
0.000682692
0.00320576
0.000726721
0.000840677
0.00589334
0.000749789
0.00142532
0.000733951
0.00236937
0.00100101
0.000662311
0.000962889
0.000812893
0.00067916
0.000663639
0.0020394
0.00173402
0.00206467
0.00417301
0.000754174
0.00619093
0.00659856
0.000387091
0.000300572
0.00650784
0.000550282
0.00586915
0.00179599
0.00564516
0.00417802
0.00145008
0.0018375
0.000659581
0.00115823
0.000796094
0.00219376
0.00290252
0.000410375
0.00219123
0.00249836
0.00103186
0.00180907
0.00161805
0.00163483
0.00156269
0.00110311
0.00355042
0.000345093
0.000239246
0.000332728
0.000460493
0.00145117
0.000384579
0.00161343
0.000857802
0.00138286
0.000562525
0.00138846
0.00290014
0.00652837
0.00270046
0.00224911
0.00556264
0.00391856
0.0047967
0.00255106
0.000175503
0.000759344
0.000770194
0.00311064
0.000988767
0.00362463
0.00476376
0.00378654
0.00167467
0.00161564
0.00077798
0.000737079
0.00120953
0.000448415
0.00075816
0.00154048
0.00138463
0.000592158
0.00193755
0.000414628
0.00142417
0.0018578
0.00156169
0.00172106
0.000963096
0.00146285
0.00179213
0.00396592
0.00279467
0.00122064
0.000318742
0.00249026
0.0031135
0.0010137
0.000569832
0.000239368
0.000565751
0.000807979
0.00256048
0.00207832
0.00110571
0.00744425
0.000707746
0.00139311
0.00131576
0.00143912
0.000745955
0.0012429
0.00170069
0.00166182
0.00348808
0.00328904
0.00156021
0.00115966
0.000643619
0.00215266
0.00154243
0.000738816
0.000779116
0.000740896
0.00204222
0.000543427
0.0008703
0.00740405
0.00074446
0.000572379
0.000764379
0.00740372
0.00218612
0.000919636
0.000863617
0.000683428
0.00148437
0.00126938
0.000336692
0.000562442
0.000316966
0.000644827
0.000715071
0.000451213
0.000307033
0.00100447
0.000431558
0.000630894
0.00249374
0.000573472
0.00496608
0.00550801
0.00344191
0.00318373
0.00321863
0.00299116
0.00324374
0.00348584
0.00514905
0.00222967
0.00372907
0.00336152
0.0034114
0.00347225
0.00359212
0.000556165
0.000982165
0.00102465
0.0036606
0.00432723
0.00206267
0.0031556
0.0018415
0.00466946
0.00158571
0.00175112
0.00105865
0.00135984
0.000641345
0.000944069
0.000657201
0.000490825
0.000811075
0.00063749
0.00138466
0.00252031
0.00258182
0.00220627
0.00125195
0.00147901
0.00303123
0.00257905
0.00299911
0.00300454
0.00739475
0.00411655
0.00199192
0.00189861
0.00195354
0.00131722
0.00150705
0.00128329
0.00164063
0.000602511
0.000931089
0.00627458
0.000681403
0.000536067
0.000525303
0.000572901
0.000538726
0.0010158
0.000862859
0.00102747
0.00171214
0.0012238
0.00207757
0.00150109
0.00207074
0.00745195
0.00275413
0.00249632
0.00744929
0.00474595
0.0028209
0.00505703
0.00595309
0.00293198
0.00233706
0.00453776
0.00156688
0.0074827
0.00383929
0.0024895
0.000585926
0.000951603
0.00066393
0.000401902
0.00292785
0.000317448
0.000772459
0.00102333
0.000703428
0.000652261
0.000455072
0.00308091
0.00260305
0.00218885
0.00339529
0.00467498
0.00456884
0.00341359
0.00385107
0.00504771
0.00345997
0.00511702
0.00385763
0.000734428
0.00057052
0.000445172
0.000743849
0.000549868
0.000749427
0.000779943
0.000987366
0.000762403
0.000762101
0.00106434
0.000959048
0.00382556
0.00413917
0.00393362
0.00138323
0.00165551
0.00117256
0.00126201
0.00177675
0.00306055
0.00285268
0.00231519
0.000656481
0.00197924
0.00102653
0.00320965
0.00172505
0.00182703
0.00157696
0.00742095
0.00462515
0.0014769
0.00420457
0.00455881
0.00159711
0.00173257
0.00247465
0.00184909
0.00245361
0.00223745
0.00222609
0.0021521
0.00503176
0.00590817
0.00519638
0.000281133
0.00145537
0.00144269
0.000327237
0.00144895
0.00275027
0.00164283
0.00140949
0.00204162
0.000869771
0.0013762
0.00114057
0.000936884
0.000869972
0.00534012
0.000604601
0.00355844
0.00126142
0.000802913
0.00152779
0.00139349
0.00166549
0.00204177
0.000889751
0.003331
0.000767798
0.00176379
0.00031881
0.000877351
0.000416135
0.00162
0.00201654
0.000803204
0.00276689
0.00168523
0.000286905
0.00315795
0.00187548
0.00118663
0.00128335
0.000732275
0.000382075
0.00113106
0.00114329
0.000537152
0.0014428
0.00082025
0.00172758
0.000926902
0.000929461
0.00098044
0.002977
0.0014351
0.00272047
0.00156168
0.00275641
0.00202347
0.000430495
0.00078945
0.000541736
0.00121971
0.000687468
0.000247993
0.000724359
0.00125714
0.00217178
0.00246728
0.00138959
0.000696896
0.00251539
0.00101783
0.000397891
0.00121315
0.00067048
0.00100552
0.000409582
0.00070272
0.00282529
0.00159807
0.000411161
0.000649345
0.000545697
0.000893255
0.00374475
0.000836416
0.00100581
0.000615356
0.000210423
0.00315485
0.000274398
0.00133181
0.00079508
0.0007693
0.0017241
0.00276425
0.00354549
0.00675608
0.0034893
0.00283194
0.0042836
0.00414185
0.00132466
0.00460006
0.00641909
0.00268568
0.000899035
0.00106613
0.00340981
0.000717819
0.00139839
0.00627475
0.00209181
0.00141873
0.00144795
0.00123089
0.00144204
0.00161898
0.000436228
0.00176233
0.00465092
0.00160658
0.00177902
0.00312578
0.00105803
0.00108477
0.000673906
0.00199583
0.000806896
0.000847193
0.000741262
0.00274109
0.000567763
0.00575211
0.00290361
0.000374168
0.000584004
0.00102858
0.000883607
0.00152756
0.00184332
0.0024908
0.00115501
0.00125549
0.000971494
0.00122978
0.00392895
0.0007526
0.000817387
0.00207567
0.000748155
0.00193821
0.000766928
0.0013797
0.0010898
0.000144405
0.000650264
0.00170151
0.00335536
0.00162056
0.00677661
0.0013076
0.00211254
0.000618254
0.000680185
0.000623593
0.000549109
0.000601761
0.000841322
0.000570331
0.00111487
0.000723578
0.00313402
0.000557506
0.00426829
0.00496893
0.00064291
0.00342937
0.00747002
0.00363995
0.000845036
0.000782979
0.00410056
0.00417651
0.00101117
0.000438203
0.00491865
0.00199189
0.00167365
0.00359827
0.00189291
0.00304718
0.000618106
0.000991821
0.00435455
0.0045026
0.00143834
0.000793817
0.00689348
0.00742641
0.000634874
0.0010394
0.00356905
0.001612
0.000975907
0.00272976
0.00743403
0.00192057
0.00740612
0.00352161
0.00224582
0.00272864
0.000894074
0.000722082
0.000475839
0.00104721
0.00152478
0.0018483
0.000690118
0.00146454
0.00551039
0.00315097
0.000973602
0.000640396
0.000652274
0.0029564
0.000621756
0.00190164
0.00140142
0.00189019
0.00645864
0.0044322
0.00741769
0.00178247
0.0001925
0.00644802
0.00142078
0.00260129
0.00347381
0.00548568
0.00166747
0.00180053
0.00378873
0.000306799
0.00568055
0.00196339
0.00293477
0.00342662
0.00135264
0.00301862
0.00145617
0.00135766
0.00450333
0.00358147
0.000354077
0.00531182
0.000226003
0.000782419
0.00246187
0.00166408
0.000878573
0.00186478
0.000556411
0.00134217
0.00310652
0.00332744
0.0027902
0.0016518
0.000899931
0.000669312
0.00138303
0.000554049
0.00137614
0.000271143
0.000520106
0.00453405
0.000676717
0.00109193
0.000796764
0.000786115
0.00106968
0.00094009
0.00251143
0.00115636
0.000655663
0.00433079
0.00120143
0.000962461
0.000835627
0.00207468
0.000825622
0.00380572
0.00113
0.0023179
0.00106958
0.000921795
0.000903628
0.00243295
0.00207171
0.00250005
0.00169627
0.00123194
0.00281708
0.0032107
0.000791815
0.000732608
0.00109556
0.000608376
0.00119194
0.000879401
0.00146176
0.0010925
0.00105632
0.000696621
0.00748058
0.00236568
0.00342811
0.000819809
0.000846141
0.000252636
0.000660779
0.00278695
0.000414514
0.00128173
0.000374007
0.000452202
0.00189187
0.00221541
0.00195228
0.00241582
0.00229564
0.00113713
0.00166047
0.000566732
0.00093368
0.00145504
0.000669882
0.000993293
0.00113012
0.00570891
0.000814241
0.000892457
0.00105661
0.0010246
0.00186215
0.000875758
0.00283732
0.000571964
0.00137293
0.00178481
0.00190928
0.000868982
0.000542918
0.000929908
0.000836672
0.00202845
0.00268666
0.00566511
0.000484659
0.000369919
0.000343942
0.00277768
0.000789613
0.000237713
0.00324074
0.000403853
0.000908475
0.000620144
0.00160737
0.00615519
0.00517586
0.00424607
0.000128871
0.000914426
0.000728041
0.000628056
0.000699792
0.000232202
0.00230299
0.00130636
0.00209605
0.000151377
0.000562184
0.00127957
0.00156321
0.000551111
0.00237138
0.00209187
0.00182503
0.00164501
0.00120272
0.001626
0.00231503
0.00221275
0.00268009
0.00367899
0.00165321
0.00194264
0.0026777
0.00544406
0.000657779
0.00240503
0.00192784
0.000968659
0.000837434
0.000884756
0.000867949
0.00148613
0.00116012
0.00300992
0.000595713
0.00447637
0.0022916
0.000456391
0.00238287
0.0013128
0.00239254
0.0035875
0.000634128
0.000514023
0.000968173
0.000891476
0.000553352
0.000936877
0.000915437
0.000906055
0.00249205
0.00369765
0.00482997
0.00174798
0.00433384
0.00192858
0.00206596
0.00211802
0.00100904
0.00183439
0.00271381
0.00145758
0.000523977
0.000635954
0.00566303
0.000590134
0.000654519
0.000274205
0.000500587
0.000494766
0.000780983
0.00529152
0.00220953
0.00388629
0.0057019
0.00355038
0.000762179
0.00266359
0.00280272
0.0053083
0.00106976
0.000683173
0.000569653
0.000889682
0.00208103
0.000536152
0.00188481
0.00231383
0.00311897
0.000703098
0.00273881
0.00123658
0.00157101
0.000869461
0.001883
0.00133859
0.00103926
0.000982961
0.00377947
0.000343272
0.00184126
0.00115401
0.00410508
0.00132633
0.000950213
0.00311623
0.0014859
0.000844126
0.000362988
0.000880063
0.00224439
0.00163552
0.00350013
0.00221652
0.00307806
0.0036732
0.00227469
0.00141285
0.00103925
0.000973956
0.000750089
0.00183377
0.00107794
0.00113716
0.00277584
0.0010054
0.0015354
0.00217065
0.00152011
0.00262302
0.00216814
0.000311051
0.00192096
0.000618853
0.00145188
0.00111057
0.00175956
0.000965676
0.00116817
0.000701309
0.000896839
0.00415807
0.00122374
0.00657668
0.00652749
0.00643684
0.00634169
0.00651076
0.00152119
0.00231254
0.000263188
0.000904154
0.000684608
0.000707305
0.000869247
0.00183747
0.000769254
0.00113713
0.00277085
0.00491984
0.00176146
0.000790193
0.000542158
0.000229284
0.00200511
0.00517388
0.00645163
0.000737111
0.000805206
0.00137224
0.00194714
0.00208945
0.00199826
0.00108485
0.00128592
0.000731489
0.00160245
0.000324617
0.000506142
0.000761324
0.00733054
0.00349412
0.000877354
0.00284289
0.0042854
0.00322853
0.00350755
0.00635667
0.00129136
0.00368992
0.00359572
0.00656805
0.000987475
0.00378632
0.00141487
0.00567161
0.000649861
0.000579296
0.000260947
0.00114396
0.000250532
0.00675297
0.00133531
0.00170048
0.00138015
0.00216208
0.000855661
0.000961881
0.00214678
0.00131421
0.00131855
0.000749523
0.00462882
0.000685756
0.00175183
0.000571216
0.00152428
0.00345905
0.00746668
0.00597277
0.00311818
0.00396804
0.00435951
0.00433209
0.00724103
0.0065866
0.00725597
0.0067957
0.00280251
0.00255752
0.00123568
0.00277011
0.00341246
0.00440972
0.00317043
0.00734821
0.00447497
0.00576615
0.00400254
0.00326745
0.00421832
0.00466843
0.00487555
0.00734302
0.00284139
0.00349126
0.00515263
0.00145715
0.00346735
0.00384739
0.00569946
0.00688466
0.00573
0.000769441
0.00182712
0.00495549
0.0033565
0.00303513
0.00616273
0.00668309
0.00128316
0.00217355
0.00601198
0.00310784
0.00458303
0.00456866
0.00451636
0.00482159
0.00598598
0.00478185
0.000786989
0.00248183
0.000986259
0.00369076
0.00220824
0.00741841
0.00277594
0.000560244
0.00361243
0.000609992
0.000983614
0.00387603
0.00669432
0.00292122
0.00100941
0.00474996
0.00146269
0.00280042
0.00267541
0.000376914
0.000914634
0.00219096
0.00164572
0.00126963
0.00118517
0.000491537
0.00082603
0.000657433
0.000264324
0.000779827
0.000438632
0.00109966
0.000407795
0.00469862
0.000584324
0.00418306
0.000889626
0.000214606
0.00078375
0.000644526
0.000568416
0.00082326
0.000501381
0.000984092
0.00135436
0.000746509
0.000355949
0.00230959
0.00149936
0.000768891
0.00188377
0.00334153
0.00297768
0.00135249
0.00107925
0.00109822
0.000861857
0.000886503
0.000496147
0.000804872
0.000618162
0.000706808
0.000750243
0.00100818
0.000809165
0.000890129
0.00018361
0.00746267
0.000705354
0.00473357
0.00740374
0.00744452
0.00102241
0.000455365
0.000216154
0.000329833
0.000922776
0.00457648
0.00422064
0.00392123
0.00330528
0.000462738
0.00212114
0.00102833
0.000419075
0.000632144
0.000444507
0.000676373
0.000560708
0.00476746
0.00601256
0.0036061
0.000875056
0.000185765
0.00587275
0.00369042
0.000770718
0.00335875
0.0013215
0.00320897
0.000675782
0.00300183
0.00112072
0.000451067
0.000660027
0.0034507
0.000288492
0.00142849
0.000561608
0.0066249
0.00482281
0.00361835
0.000497309
0.000197074
0.000151713
0.000511169
0.00235677
0.000846747
0.00138549
0.0006968
0.000654628
0.000171431
0.00107023
0.000594803
0.000602585
0.000852539
0.000899817
0.00136537
0.00274504
0.000816091
0.000747318
0.0006832
0.000901774
0.000278341
0.0021166
0.00180383
0.00741773
0.00490518
0.00348897
0.00285613
0.00371116
0.00366271
0.00434198
0.000595705
0.000541447
0.000888933
0.000627079
0.00103355
0.00288519
0.00381741
0.00522255
0.00521585
0.0024008
0.00334271
0.00130912
0.00172682
0.00438931
0.00446059
0.000758151
0.00074973
0.000888158
0.00125998
0.000944267
0.00275103
0.0020363
0.000592217
0.00389864
0.00298191
0.00133806
0.00200654
0.00279396
0.00482314
0.00108049
0.000808592
0.00510864
0.00248198
0.00376538
0.00390562
0.00142586
0.00380343
0.00414209
0.00292485
0.00622273
0.00189539
0.00184069
0.000695265
0.00290912
0.00182266
0.00604389
0.00407803
0.00578452
0.00601863
0.00651653
0.00130236
0.000891291
0.00132635
0.00120687
0.00279933
0.000908095
0.00158665
0.00289264
0.00137543
0.000736637
0.000894944
0.000863095
0.00222906
0.00295338
0.000626045
0.00200002
0.00017498
0.00196345
0.000517977
0.000897559
0.00320266
0.00155883
0.00357748
0.000648832
0.00085962
0.000578254
0.00326716
0.00392793
0.00217999
0.000985447
0.00117312
0.00133683
0.00550409
0.00567379
0.00157862
0.000647385
0.00321964
0.000839325
0.0042932
0.000946401
0.0024164
0.000903596
0.000325722
0.00120903
0.00136297
0.00420732
0.000382734
0.000957742
0.00184574
0.00204236
0.00207818
0.00361831
0.00138848
0.00203046
0.00180883
0.00273912
0.0034893
0.00293767
0.0012139
0.00290603
0.00433775
0.00131071
0.000571991
0.00250563
0.000132201
0.000213411
0.000982431
0.000504412
0.00109576
0.000547651
0.00201573
0.00242566
0.00343714
0.00120724
0.0024893
0.00131679
0.00244202
0.00311666
0.00100835
0.00106437
0.0012157
0.000833454
0.000753509
0.000222482
0.00142689
0.0021322
0.000622863
0.00448756
0.00275138
0.000607115
0.00168774
0.000584144
0.000505696
0.00217688
0.00131323
0.000482447
0.00130917
0.000229079
0.00229242
0.000900667
0.00308876
0.00206011
0.0012214
0.000605873
0.00104047
0.000611579
0.000852293
0.00259546
0.00277517
0.00176672
0.000300011
0.00211501
0.00154594
0.00111545
0.000483182
0.000505123
0.000165129
0.00113444
0.000601893
0.00268875
0.00235997
0.000931436
0.000560557
0.00113689
0.00133678
0.00312429
0.00174973
0.00158462
0.00161711
0.00126118
0.0024389
0.000492082
0.000746263
0.00232244
0.000194406
0.00244415
0.000824353
0.00171976
0.00145379
0.00485378
0.00120546
0.00187966
0.00202173
0.00310256
0.00361755
0.00214784
0.00193658
0.00244776
0.00398778
0.00140053
0.00136652
0.00138206
0.00131316
0.00138213
0.00240626
0.00408123
0.00142363
0.00211063
0.00277263
0.00211324
0.00162097
0.00129834
0.00152347
0.000945956
0.000982753
0.00130608
0.00145262
0.00137345
0.00129546
0.00117437
0.00147875
0.000753778
0.00126156
0.00142256
0.00130981
0.00129837
0.0015416
0.00120735
0.0028983
0.000469219
0.00265127
0.00141008
0.00362345
0.00312824
0.00284823
0.00739306
0.00183917
0.00341524
0.00336117
0.00357944
0.00397485
0.0014483
0.00126728
0.000902541
0.00128753
0.0017381
0.000825739
0.0012704
0.000762051
0.000664188
0.00182782
0.000795083
0.000716019
0.000693296
0.000630091
0.000859548
0.00576858
0.000359062
0.00595298
0.00664573
0.00660799
0.000621417
0.000864143
0.000938557
0.00124338
0.000992439
0.000345394
0.00145632
0.00336165
0.00346698
0.00378951
0.000919152
0.0012268
0.00117944
0.00348182
0.000795544
0.000677903
0.00110126
0.00067251
0.00081632
0.000789569
0.000826986
0.00197152
0.00218023
0.004479
0.00341241
0.00137529
0.00103098
0.000497124
0.00129398
0.00269756
0.0021214
0.00243673
0.00152757
0.00115888
0.000418086
0.00100885
0.00179559
0.0029756
0.00280918
0.00374756
0.00138498
0.000494637
0.00121333
0.00746224
0.0073645
0.00167593
0.00487998
0.00744652
0.00652137
0.00649336
0.00746273
0.00518348
0.00511611
0.00174676
0.00171402
0.00535102
0.00120684
0.00522899
0.00744505
0.00746536
0.00460024
0.00545693
0.000746967
0.00238093
0.000640608
0.00245781
0.0027702
0.00202474
0.000331525
0.00146839
0.000853713
0.000771476
0.00197558
0.000878306
0.000688242
0.000789064
0.000538618
0.000632661
0.00127171
0.000810076
0.0008399
0.00440607
0.00639269
0.0031199
0.00211874
0.0014269
0.00101956
0.00184718
0.001138
0.000926199
0.00128759
0.00494387
0.000953843
0.00094723
0.00180973
0.000776265
0.00156694
0.00154781
0.00166407
0.000744578
0.000353615
0.000697605
0.000560926
0.000610766
0.000242039
0.00748458
0.00741902
0.0074663
0.00332567
0.00679067
0.00594228
0.00575973
0.00237017
0.00346271
0.000953495
0.00107357
0.00148956
0.000657348
0.00108008
0.000704629
0.000962056
0.00119725
0.00100611
0.00133926
0.00062876
0.00083159
0.00158245
0.000853596
0.000749824
0.00129271
0.00216106
0.00058241
0.000828245
0.000813708
0.000981818
0.000545479
0.00748563
0.00435592
0.00345973
0.00742442
0.00742825
0.00747637
0.00741002
0.00225163
0.00748151
0.00741636
0.00748067
0.00306762
0.00480588
0.00324506
0.0023744
0.00368895
0.00341536
0.0030917
0.00178199
0.00347651
0.00409662
0.00108635
0.00299365
0.0037159
0.00238873
0.00341455
0.0036761
0.000686267
0.000709054
0.00586871
0.00312151
0.00351533
0.000362642
0.00631503
0.0066769
0.000813475
0.00338682
0.00129401
0.000767455
0.00437832
0.000911132
0.000898749
0.00147592
0.00252572
0.00384697
0.00424398
0.00568948
0.00209003
0.00271905
0.00178056
0.00537357
0.000886448
0.00296225
0.00117295
0.00254182
0.00292671
0.000852418
0.00456809
0.00176782
0.0037433
0.00432134
0.00367317
0.000627783
0.00195778
0.00367451
0.00255515
0.00212942
0.000866366
0.00236632
0.00232281
0.00282061
0.00291423
0.00303558
0.000743172
0.000864283
0.000311008
0.000334445
0.000371319
0.000341397
0.000216784
0.000892962
0.000350733
0.000876737
0.000489252
0.000754107
0.000504246
0.00101777
0.000304603
0.000651383
0.000637006
0.000371699
0.00245075
0.000758796
0.00100235
0.000402321
0.000698041
0.0015337
0.00282318
0.000437246
0.000644264
0.000632348
0.000336411
0.000229542
0.000880592
0.000211774
0.00107268
0.000385049
0.000432737
0.00100616
0.000447104
0.000698791
0.000396047
0.000479048
0.000957875
0.000797346
0.00075651
0.000514591
0.00181593
0.00106202
0.000759442
0.000242097
0.00162108
0.000743581
0.00145974
0.00108703
0.0010689
0.000254681
0.001599
0.000329146
0.000417258
0.00051835
0.00083069
0.000368784
0.000704438
0.000231331
0.000824791
0.000298932
0.0014585
0.000926229
0.000877635
0.000818728
0.000959079
0.000414598
0.000768277
0.000748326
0.00112628
0.00075514
0.000622286
0.000260411
0.000927098
0.00100704
0.00042048
0.00128345
0.000680945
0.0002984
0.00739503
0.00352363
0.00384933
0.00592403
0.00563961
0.00421497
0.00597194
0.000544891
0.00112355
0.000870708
0.00205769
0.0040779
0.00082171
0.00354172
0.00680153
0.00392811
0.00672179
0.000736765
0.00737924
0.00316049
0.000835704
0.000328389
0.000274139
0.000618178
0.000665264
0.000923876
0.000625645
0.000657704
0.00062786
0.00122999
0.000275173
0.000302678
0.000313945
0.00149046
0.000177475
0.00249938
0.0043825
0.00459369
0.00747584
0.00563734
0.00092812
0.00178849
0.00406518
0.00100876
0.00642338
0.000797856
0.000753742
0.00348301
0.00323206
0.00493467
0.00272909
0.00354937
0.00117269
0.00119714
0.00244116
0.00113525
0.00374057
0.00136953
0.00360757
0.00243854
0.000609033
0.00514901
0.00493495
0.00172029
0.00273594
0.00141727
0.00119122
0.00139026
0.00130482
0.00105454
0.00198039
0.00289432
0.00206721
0.000929582
0.00110217
0.00127308
0.00151998
0.00230499
0.00146674
0.00121369
0.000787144
0.000925703
0.000915971
0.000814345
0.000599633
0.000877294
0.000730205
0.000720865
0.00239006
0.000725905
0.00185765
0.00226534
0.000873953
0.000460649
0.000548275
0.00101995
0.000366012
0.000830993
0.000796394
0.00168176
0.00227948
0.00414927
0.00342156
0.000848441
0.00110565
0.00276701
0.000754087
0.00132081
0.000981259
0.00259851
0.00126082
0.00224393
0.00209636
0.00192424
0.000732279
0.000436716
0.000965744
0.00113832
0.00102894
0.00140267
0.0017368
0.00163185
0.00194471
0.000904209
0.000615146
0.000727642
0.00298583
0.000484729
0.00289169
0.000759697
0.000289649
0.00458835
0.000874293
0.00173397
0.000544656
0.000669419
0.000533206
0.000751903
0.00101624
0.00134256
0.00165915
0.00229614
0.00107952
0.00216808
0.00663348
0.00555975
0.00127891
0.0012582
0.00107169
0.00119842
0.0011936
0.00155382
0.00133663
0.000805672
0.00121387
0.000886674
0.00386244
0.00372288
0.00118257
0.00236034
0.00257852
0.00201669
0.000288087
0.00161974
0.00397329
0.00451223
0.000252709
0.00331978
0.000388453
0.000427532
0.000194497
0.00223328
0.00194847
0.00323527
0.00377668
0.00109883
0.000453726
0.00218361
0.000616392
0.00112193
0.00674177
0.00590004
0.00191034
0.000815897
0.00081194
0.000718677
0.00631752
0.00497573
0.00303909
0.00285146
0.000665927
0.000853702
0.000951055
0.00038152
0.000841851
0.00144267
0.00101793
0.00409557
0.00206415
0.00233758
0.00310389
0.000461764
0.00253551
0.00187883
0.000247148
0.000248572
0.00104884
0.00024658
0.000781391
0.00157051
0.000964766
0.0025408
0.00340578
0.000424901
0.00259578
0.000899567
0.00305571
0.00114559
0.00294886
0.000448238
0.00612224
0.00385719
0.00576916
0.000514148
0.00384161
0.00112825
0.000831788
0.000887824
0.000840473
0.00126664
0.00122328
0.00218774
0.000405847
0.00283259
0.00448685
0.00365222
0.00331751
0.00239684
0.00177021
0.00165721
0.00206304
0.000368335
0.00255794
0.000837887
0.00108665
0.000255078
0.000930922
0.00115096
0.00111981
0.0009053
0.000870629
0.00167779
0.000827594
0.000545587
0.000760218
0.0016179
0.00153055
0.00207618
0.00423335
0.00428004
0.00159782
0.00399172
0.00344938
0.00427026
0.00591844
0.0012176
0.00323446
0.0019652
0.00273336
0.002799
0.0018355
0.00073004
0.00365082
0.000542262
0.00170876
0.00161866
0.000932101
0.00196304
0.00253194
0.00260571
0.00225304
0.00133432
0.00130585
0.000724735
0.00124044
0.000259094
0.00135369
0.000330613
0.00188765
0.00128894
0.000868244
0.000270306
0.000781199
0.000983475
0.00352797
0.000940453
0.0014801
0.00310425
0.00113114
0.00424658
0.0012576
0.00148983
0.00149311
0.00309961
0.00379181
0.00123631
0.00110334
0.00050534
0.00030594
0.00640202
0.00106165
0.00447008
0.000534693
0.00134205
0.000882177
0.000764071
0.00138854
0.000245307
0.00302849
0.00551279
0.000570108
0.00194376
0.00137371
0.00207092
0.00366825
0.000792527
0.000718287
0.00219798
0.00656814
0.00105984
0.000691812
0.00143284
0.00377823
0.0011056
0.00189191
0.00375274
0.00200508
0.00213396
0.00207602
0.00135687
0.00591543
0.00269738
0.00134978
0.000654235
0.00402791
0.0040435
0.001005
0.00237166
0.00151437
0.000320822
0.00517706
0.00153009
0.00309834
0.00337398
0.000600171
0.00087627
0.0029022
0.000796068
0.000678141
0.00160065
0.000832744
0.000988325
0.000674293
0.00187859
0.00228236
0.00290053
0.0011589
0.00228251
0.00584015
0.0014154
0.00129054
0.00168741
0.00222352
0.000430177
0.000734382
0.000441977
0.00441048
0.00139747
0.00298665
0.00237168
0.00297109
0.000701054
0.00112059
0.00245192
0.000803915
0.000803037
0.000966589
0.00237816
0.000918526
0.00226751
0.00326822
0.00264744
0.00161056
0.00221256
0.0020474
0.000730488
0.00283354
0.00196702
0.000940429
0.000707649
0.00197657
0.00226578
0.00131182
0.00235426
0.000614584
0.00123303
0.000691468
0.000634326
0.000997349
0.000588081
0.00168964
0.000769542
0.00153332
0.00318263
0.0050948
0.000878941
0.000563272
0.00571879
0.00241471
0.00392803
0.0012783
0.000834182
0.000463538
0.00161812
0.00478471
0.000592624
0.00424357
0.00095055
0.00267332
0.00306801
0.00264857
0.00122045
0.000979189
0.000898994
0.00186815
0.000848166
0.000877516
0.00211729
0.000658924
0.00134072
0.00146753
0.00115939
0.000958532
0.00116151
0.00114316
0.00255222
0.00040399
0.000802557
0.000683065
0.0010753
0.00127973
0.000155575
0.00194644
0.00350085
0.000356732
0.00106868
0.00112145
0.00220155
0.000995434
0.0015917
0.00160606
0.000794923
0.000883127
0.00340304
0.00119993
0.00132552
0.00103455
0.000409759
0.000505989
0.000413641
0.000381652
0.00261339
0.000785679
0.000591713
0.000496561
0.000137542
0.00525367
0.000938933
0.00107184
0.00167378
0.000980025
0.00112801
0.000500816
0.000676376
0.00236492
0.00146087
0.00179664
0.00350964
0.00155607
0.0017017
0.00215314
0.00313988
0.00157309
0.00170421
0.00261718
0.000774361
0.000814414
0.0008227
0.00198025
0.00188142
0.00320235
0.00270633
0.00109728
0.00739781
0.00660521
0.00747098
0.00592572
0.00741248
0.0062825
0.00395878
0.00676356
0.0016694
0.000966989
0.00186173
0.00117438
0.00209724
0.00249234
0.000970449
0.000519391
0.000795315