/*--------------------------------*- C++ -*----------------------------------*\
| =========                 |                                                 |
| \\      /  F ield         | OpenFOAM: The Open Source CFD Toolbox           |
|  \\    /   O peration     | Version:  2506                                  |
|   \\  /    A nd           | Website:  www.openfoam.com                      |
|    \\/     M anipulation  |                                                 |
\*---------------------------------------------------------------------------*/
FoamFile
{
    version     2.0;
    format      ascii;
    arch        "LSB;label=32;scalar=64";
    class       surfaceScalarField;
    location    "0.0948794";
    object      phi;
}
// * * * * * * * * * * * * * * * * * * * * * * * * * * * * * * * * * * * * * //

dimensions      [0 3 -1 0 0 0 0];

oriented        oriented;

internalField   nonuniform List<scalar> 
7371
(
0.00660922
-0.0132141
0.0130447
-0.00643987
-0.00776733
0.00204466
0.00349906
0.00222361
-0.000946032
0.00154199
0.000210109
-0.000806071
-0.00499655
0.0109612
-0.00012527
-0.00583939
0.0165331
-0.00576681
-0.00503614
-0.00573016
-0.00275183
-0.000988428
0.0040087
-0.000268448
0.000567879
0.0010977
-0.000400512
-0.00126507
0.0467722
0.0111939
0.00209809
-0.0600642
0.00482929
-0.0329106
0.0118185
0.000824303
-0.00998445
0.00993389
-0.000773751
-0.0247078
-0.0578134
-0.00911505
-0.0581677
-0.086759
0.0573002
0.0876265
0.0282656
0.17091
-0.245639
0.0464633
0.00164011
-0.00145449
-0.00138097
0.00119535
0.0535918
-0.0527304
0.0191341
-0.000555705
0.00138797
-0.000695481
-0.000136781
-0.0028941
-0.00567678
0.00174301
0.00682787
0.0611726
-0.0417193
0.0643208
-0.0837741
0.0572403
0.000990175
-0.0582304
0.00121425
-0.000100354
-0.000231083
-0.000882811
-0.000150313
-0.00222504
0.00146552
0.00090984
-0.000150222
-1.10642e-06
-0.00146595
0.00161728
-0.00265551
-0.00116078
-0.0014176
0.00523389
-0.000849675
-0.0026847
0.00138252
0.00215186
-0.0558453
0.0558034
4.19525e-05
-0.00583506
-0.0426519
-0.00735835
0.0460808
0.0133202
-0.05937
-3.1014e-05
0.0913674
-0.00203454
-0.043252
-0.000830046
-0.00038781
-0.00103201
0.00224987
-0.00066683
0.00833145
-0.00849328
0.000828665
0.00787811
-0.0147235
-0.00069175
0.0248685
-0.01449
0.0167354
-0.0271139
-0.0664597
-0.0230863
0.089546
0.0253557
-0.135666
0.126387
-0.0160771
-0.0551208
-0.0599562
0.115077
-0.0284236
0.0596856
0.0200908
-0.0513527
0.0030659
0.00375574
0.000866497
-0.00768814
-0.034208
-0.0379634
0.0993311
-0.0271597
0.000964113
0.00230739
-0.00130862
-0.00196288
-0.0557561
0.0273325
0.0582883
0.0632936
-0.0618963
0.00278789
-0.000445551
0.00110871
-0.00345105
-0.0128356
0.0016042
-0.0118696
0.023101
0.00373286
-0.00351832
0.00068984
-0.000904377
-0.00176802
0.00361284
0.00611598
-0.00796081
-0.00181097
-0.000670117
-0.00117647
0.00365756
-0.00351299
0.0110448
-0.00744049
-9.13611e-05
0.000455418
-0.000417494
0.000821331
-0.000859255
0.0105404
-0.0613496
0.132992
-0.0821832
0.0299002
0.0176998
-0.0476
0.0341519
-0.0662288
0.0619771
-0.00184576
0.00343849
-0.00113359
-0.000459143
0.00126344
-0.00168665
0.000235159
0.000188049
0.0198883
-0.00203718
0.014435
0.0152826
-0.0215323
-0.0211609
0.0055157
0.0300802
-0.0113412
-0.000886133
0.00890334
0.00332397
0.000884261
0.000382214
-0.00060949
-0.000656986
0.00308257
0.00465242
-0.00228191
-0.00545308
0.0115621
0.00510705
-0.00264449
-0.0140247
-0.00180833
0.00101922
0.00056594
0.000223175
-0.0349164
0.0528745
0.0418119
-0.0597701
0.00607717
-0.00911749
0.000755817
0.00228451
0.0206096
-0.0555259
0.0266874
-0.0202003
0.0277803
-0.0342675
0.00911689
-0.0475719
0.0651424
-0.0517953
0.130592
-0.0176239
0.0347518
-0.0694493
0.00131366
0.00040491
-0.00257923
0.000860661
0.00719823
-0.0105541
-0.00203904
-0.0239068
0.0347491
0.0791375
-0.0899797
0.0031963
-0.00982276
0.00275057
0.0038759
-0.00600344
0.0160654
-0.00359404
-0.00646789
-0.000993232
-0.00468073
0.00168714
0.00398682
0.00125834
-0.00287275
0.00406877
-0.00245437
-0.000929751
0.000375065
0.00143895
-0.0017312
-0.000629504
0.00496298
-0.00260227
0.00699692
0.00746074
-0.00982474
-0.00463291
0.000963326
-0.00501372
0.0110473
0.0082763
-0.00714165
0.00139136
-0.00252602
0.0195534
-0.0376948
0.00970643
-0.000516392
0.000583662
-0.000557275
0.000490004
-0.0862819
0.00350404
-0.0653878
0.069472
-0.00408427
-0.00184355
-0.00195209
0.00785344
-0.0040578
0.0922083
-0.051845
-0.099984
0.0596207
-0.0271412
-0.0630046
-0.0410921
0.000533605
0.00279879
-0.00044559
-0.00288681
-0.000320785
0.0035942
-0.00110484
-0.00216858
-0.00336735
0.00427723
0.000827622
-0.0017375
0.000441686
-0.000188932
1.80165e-05
-0.00027077
0.000458168
0.000751106
-0.00183624
0.000626965
0.0021066
-0.0143401
-0.0053978
0.0176313
-0.0254984
-0.0531375
0.0877528
-0.0599501
-0.0689563
-0.0171598
0.146066
-0.000213376
0.00110135
-0.00186202
0.000974053
0.000588996
-0.0020906
0.000555576
0.0300249
-0.0597851
-0.0201235
0.0297942
-0.0351691
0.00135713
-0.00359846
0.00145179
0.000789539
0.00513659
-0.00203427
-0.00184397
-0.00138747
0.000193738
0.000743714
0.000450017
0.00198234
-0.00464274
-0.000152919
0.00281332
0.000775401
-0.000186405
-0.0166283
0.00348302
0.0123841
0.000761187
0.0900633
-0.0277622
-0.032732
-0.029569
-0.0154565
-0.0433962
0.151061
-0.00779186
-0.00770298
0.00882161
-0.000575018
0.0476199
-0.0611338
0.0161785
0.0666005
-0.020267
-0.0625119
-0.000660864
0.000342677
-0.000316411
0.000634598
0.000842426
0.00168404
-0.00337614
-0.00807256
-0.0163925
0.0168989
0.00756614
-0.00177742
-0.00283828
0.0028845
0.000437562
-0.000103618
-0.000835724
0.000501781
0.00343387
1.05651e-05
0.0385551
-0.0419995
0.0308965
0.000160589
-0.0276232
-0.00662632
0.00112311
-0.0494018
0.00659265
0.0374839
0.00532525
0.0351125
-0.0351275
1.4999e-05
-0.0188845
-0.0435137
0.0129964
0.0402016
0.00150346
0.00362578
-0.00165238
0.000554649
-0.00252805
-0.00337748
0.0112867
-0.00109448
-0.00681476
0.00751385
-0.0117994
-0.00139899
0.00568451
0.00802412
-0.0112622
0.010752
-0.018655
0.0122901
-0.00532087
0.0116857
0.01668
-0.0141897
-0.0211453
-0.0254262
0.0133785
0.0122325
-0.000184798
-0.0141871
-0.003215
-0.00263199
0.000528641
0.00143394
0.000669407
-0.00101907
-1.16546e-06
-0.000539208
0.00155944
0.00115628
0.00161255
-4.53292e-05
-0.000581332
0.000626661
0.00825114
-0.00993236
-0.0183528
0.020034
-0.00520374
0.0193803
-3.13888e-05
-0.0141452
-0.00323797
0.000955868
0.00204467
0.000237434
-0.00071451
0.000265967
-0.000118555
0.000567098
-0.00547528
0.00678733
0.00252615
-0.0038382
-0.000980602
-8.37966e-05
-0.00118448
0.000876058
-0.000672182
-0.003593
0.00203198
0.00522727
0.00409793
-0.00230316
0.00325652
-0.00505129
-0.0377588
0.0659609
0.0382
-0.0664021
-0.000266114
-0.00173642
0.000818058
0.00129721
-0.000421147
0.00121341
0.0233974
0.016132
-0.0395295
0.0434882
-0.0559645
0.0428558
0.0427494
-0.0296406
0.0257337
-0.0225663
-0.0653158
0.0254832
-0.0223309
0.105396
-0.0573317
-0.000653541
0.00160077
0.0115932
-0.0125404
-0.0329841
-0.0520098
0.0235963
0.0613976
-0.00112113
-0.000415372
0.00206073
-0.000524222
0.00976034
0.0145589
-0.0243193
-0.00357741
-0.00679288
0.00895777
0.00141253
-0.0194177
0.0390147
-0.00763767
-0.0119593
-0.0258411
0.0258349
6.11197e-06
0.0638399
0.0391334
-0.154818
-0.038196
-0.00706277
0.0358237
0.00320157
0.000284561
0.000157125
0.00169334
-0.00116692
-0.000555038
2.86184e-05
0.00171661
-0.00271732
-0.000933347
0.00193406
0.000480339
0.0007469
-0.00041043
-0.000816809
-0.0029725
0.0027045
-0.00138847
0.00165648
0.000779352
-0.000358607
-0.000590641
0.000169896
-0.002269
0.00120888
0.00720333
-0.00614322
-0.00108598
0.0001141
0.000238498
0.000733383
-0.00396855
0.00212499
-0.000573873
0.00241743
-0.00123046
-0.00371931
0.00349657
0.0014532
0.00191545
-0.0016687
0.0014466
-0.00629725
0.00374033
0.00412537
-0.00445773
-0.00136877
0.00170113
0.00160149
-0.0003754
-0.000915643
-0.000310449
0.00600691
-0.00188154
0.00255361
0.001345
-0.000832708
-0.0505527
0.0580379
-0.0020421
0.000549904
0.00254048
-0.00104828
-0.0354923
-0.00715962
0.00097336
-0.00143528
0.000461923
0.00111061
-0.00140562
-0.000879485
0.00117449
-0.00756635
0.00426719
0.0021704
0.00112875
0.0355207
0.0130289
-0.0466978
-0.00185178
0.000690473
-0.000642761
-0.000180326
0.000132613
0.000648127
-0.000203648
0.00111766
-0.00156213
2.83613e-05
0.0450152
-0.0521748
0.00187415
0.00269325
-0.00133061
-0.0032368
-0.000558496
-0.000688905
0.00105847
-0.0728189
0.0504903
-0.0149681
0.0372968
-0.0217446
-0.080066
0.0289917
-0.00152153
0.000877076
0.000644454
-0.0069751
0.006524
0.00360362
-0.00315253
7.74214e-05
0.00275884
-0.00254464
-0.000291617
0.00038862
-2.37967e-05
-0.000364823
-0.0557592
0.0340146
-0.00539131
-0.000734279
0.00350998
0.0026156
-0.000875299
-0.00127683
-0.00283059
0.00498272
-0.00615558
0.0190214
-0.0570912
0.0442254
0.00116886
0.000695846
0.000793061
-0.00265777
0.000274566
-0.00290537
-0.00418119
0.006812
0.00356371
-0.00193879
-0.000957715
-0.000667206
-0.00181483
-0.0119568
0.00656756
0.00720402
-9.60934e-06
0.00242029
-0.00364114
0.00264573
-0.00252346
-0.0128071
0.0126848
0.00728838
-0.00441996
-0.0107126
0.00784423
-0.00190325
0.00397527
-0.00201161
-6.04052e-05
0.000305559
0.00113279
-0.000439349
-0.000999001
0.000978344
-0.00183455
0.00024631
0.000609892
-0.00146198
-0.00103953
0.000338
0.00216351
0.00306163
-0.010032
0.00443186
0.0025385
0.00117173
0.00291358
-0.00672238
0.00263708
0.00726415
-0.00476958
-0.00509179
0.00259722
0.000570523
-0.000446774
-0.000353081
0.000229332
0.0148947
-0.000561202
-0.0070693
0.00226516
-0.00754278
-0.00258091
0.00785854
-0.00606295
-0.000187037
0.00422068
0.0020293
0.00478883
0.000430372
-0.00487411
-0.000345092
-0.00122289
0.00281217
-0.0027562
-0.000327568
-9.07585e-05
0.000418327
0.000509217
-0.000285599
0.000346904
-0.000132105
0.000425934
0.00244678
-0.00274061
-0.00242801
0.000212022
0.000370231
-4.41141e-05
-0.00439729
0.00552549
-0.00108409
-0.00795552
0.00219921
-0.00542857
-0.00819295
-0.0242083
-0.0207363
-0.0403238
-0.00583122
0.00691044
0.0483899
0.0598192
-0.064305
0.0142527
0.0521504
0.000156765
-0.0602209
-0.00122443
0.000364804
0.00137924
-0.000519616
-0.113578
0.0199226
0.0303169
0.0633387
-0.0555218
0.0807658
-0.0228735
-0.00237059
0.00232005
-0.00199303
0.00457307
-0.00490008
6.30688e-05
-0.0555848
-0.00196413
0.00178402
-0.00163086
0.00153725
0.00183531
0.000252435
-0.003625
-0.0020168
0.000760417
-0.00256278
-0.000664191
-0.00363626
7.93356e-06
0.00429252
-0.0554038
0.103787
-0.000491939
0.00362527
0.00353272
-0.00666605
0.0244368
0.0172659
0.0248754
-0.0393247
0.0862429
-0.0363778
-0.00179431
0.000773003
0.000410859
0.0401659
-0.0402094
4.35357e-05
0.0602143
-0.0205754
0.000527008
0.0691479
-0.107689
0.0760247
7.79185e-06
0.0693385
-0.000198471
0.00451424
-0.0119496
0.00884809
-0.00141269
-0.000252989
-0.0022613
0.00300574
-0.00049145
0.00340265
-0.00093088
-0.00272476
-0.00241238
-0.00408348
0.00250778
0.00398809
0.0236888
-0.0475956
-6.96443e-05
0.00140759
0.00210055
0.0695009
0.00223518
-0.000933451
-0.00243532
0.00273221
0.00277301
-0.00210258
0.0022789
-0.000320634
0.000276911
-0.000694726
-0.00100254
0.00137839
0.000318872
-0.00126024
-0.000168103
0.000733623
-7.80908e-05
-0.000203809
0.129876
0.00135769
-0.00117218
-0.000263602
0.000691775
-0.000336624
0.0641482
-0.0602968
-0.00385143
0.00642049
0.00381038
-0.00703458
-0.00741955
-0.00582342
0.0145006
-0.00125762
-0.00618939
-0.00483257
0.00519776
0.00582419
0.00432788
0.00475092
-0.00493815
-0.00414064
-0.00861671
0.0228956
-0.0194457
0.00516682
0.000525648
0.00181178
-0.00918962
0.00685219
-0.0018822
0.011479
0.000901626
-0.0104984
0.00931849
-0.0136709
-0.000664261
0.00115014
-0.00722566
0.00854542
-0.00246991
0.00250229
0.0150017
-0.017725
0.000220996
0.00270469
-0.00134479
0.000939
-0.0022989
-0.00191853
-0.00240179
0.00163905
0.00268127
-8.87086e-05
-0.00069156
0.000780269
0.00613569
0.00044928
-0.00369451
-0.00289046
-0.000631808
-0.000823179
0.000292869
0.00116212
-0.00310208
0.000340026
-0.00162458
0.00438663
0.0178252
-0.0237057
4.39781e-05
-0.000245362
0.000518938
-0.000317554
-0.00464201
0.00216584
-0.000625913
-0.00424885
-0.00472509
0.00528593
0.00368802
0.00962183
-0.0108278
0.000254264
0.000951706
0.000722022
0.00475615
0.0116312
-0.0171094
-0.0177123
-0.00216521
0.0141349
0.00574261
0.000119911
0.000382164
-0.00154812
0.00104605
0.00102375
0.00282723
-0.00309959
-0.000751387
-0.00110342
0.00103586
-0.000182651
0.000250209
-0.00178502
-0.00187467
0.0010277
-0.00120091
-0.00514743
0.00750209
-0.00115374
0.000283687
0.000676297
0.000201157
-0.00116114
-0.000725134
0.000233146
0.000491988
-0.0018629
-0.000938815
0.000117014
-0.00277162
-0.0101091
-0.00129339
0.0141741
-0.000942465
0.00139988
0.00463303
-0.00509045
-0.000748632
0.000573172
0.00283438
-0.00265892
-0.000644939
0.0020486
-0.00497903
0.00357537
-0.00117362
0.000562013
0.000517025
9.45831e-05
0.00334752
0.00212463
-0.00579842
0.000326275
-0.0108472
0.000490029
0.00279085
0.000379008
-0.000708573
0.001593
0.00694058
0.000583977
-6.38145e-05
-0.0104484
0.00508372
0.0101312
-0.00476648
0.025694
0.0600159
-0.123469
-0.0048958
-0.00174539
0.0031282
-0.00219628
-0.014499
0.00802107
0.00372485
0.00263062
-0.00872804
0.00237258
-0.00487846
0.00922688
-0.0142806
-0.00851269
0.0167811
-0.00446297
-0.00380543
0.00166533
-0.00328844
0.00321449
-0.00159138
-0.000391882
0.000618014
-0.000226133
0.005236
-0.00578992
0.00014314
0.000410783
0.00410141
-0.00680633
0.000860004
0.00184491
0.000412231
0.00276358
-0.000229733
-0.00294608
-0.000499205
-0.00946325
-0.000134485
0.0100969
0.00482585
-0.0042634
-0.00116865
-0.00042255
-0.00380011
-0.00156818
0.000939794
0.000415013
0.00178883
0.00223915
-0.0112848
0.00725687
0.000970086
-0.00157015
-0.000606824
0.00120689
0.0535868
-0.0782824
0.0246956
0.00121021
0.00134459
-0.00148179
-0.00107302
-0.00279105
-0.00104452
0.00383557
-0.00145562
0.000846273
0.00060935
-0.0578886
0.0893921
0.00422087
-0.0357243
0.00158189
-0.00103032
-0.00038971
-0.000161858
-0.000444924
0.00202682
0.0360648
0.00395066
0.0148555
-0.00392129
-0.0108141
0.00259158
0.0121438
0.00179112
-0.00248917
0.000253123
0.00134983
0.010294
-0.0073159
0.00559571
-0.00380459
0.00397653
-0.00604886
0.0035484
-0.00147607
-0.00755264
0.00402596
-0.00519291
0.00871959
0.00125261
-0.00724819
0.00505311
-0.00451685
-0.00328201
-0.00207475
0.0098736
-0.00435155
0.00372905
-0.000126138
-0.00239051
-0.000715278
0.00243228
0.000673512
0.00125998
-0.000436657
-0.000823325
0.008094
-0.00893847
0.00209708
-0.0077758
0.00188006
0.00560403
0.000291705
0.000474435
0.000222127
-0.000493799
-0.000202762
-0.00154793
5.73806e-05
0.00306011
-0.00156955
-0.00528617
2.08554e-06
0.00668396
-0.00139755
-0.000165853
0.00614027
-0.00457687
-0.0214765
0.000795647
0.00259062
0.0180903
-0.000876043
0.00468593
-0.0012835
-0.00252638
0.00103593
0.000810094
-0.00115339
-0.00069264
-0.000588006
0.00882037
-0.00873886
0.000506498
0.00216346
0.000722941
0.00364682
-0.00653322
0.00374241
-0.00191193
0.000367922
-0.0021984
0.000639529
0.00267408
0.0082407
-0.0115543
0.00796675
-0.00401392
0.0117338
-0.0156866
0.00193795
0.000887557
0.000223984
-0.00304949
0.000261878
0.00148832
-0.000780114
-0.000634699
0.00227063
0.00360006
-0.000976565
0.000628259
-0.000322522
0.000670828
0.000545952
0.00103482
-0.00180123
0.000220466
-0.000383842
-0.00243604
0.00179403
0.00102586
0.00180278
0.0013134
-0.00315165
3.54733e-05
0.00314413
-0.000758005
0.000346089
-0.00935846
-0.00515971
0.0164352
-0.000195994
-0.000912329
-0.000700011
-0.0191902
-0.00871979
0.0112455
0.0166645
-0.00699345
0.00326223
-0.00609352
-0.00049299
0.0013043
-0.00378382
0.00337092
-0.0038762
0.00139345
-0.000888163
0.000837574
-0.000791012
-4.65616e-05
0.000387093
-0.000500336
0.000861394
-0.000748151
-0.0076139
0.00428393
-0.00145084
0.0047808
0.00064831
-0.000432421
-0.000361761
0.000145872
2.04198e-05
0.000256324
0.000759188
0.00697465
0.00249899
-0.00762228
-0.00185136
0.0294159
-0.0175713
0.00223915
0.00112987
0.000808607
0.00128924
0.000619395
-0.00271725
0.000617331
-0.000570144
-4.71873e-05
0.00793386
0.00659346
-0.0230279
0.00850054
0.00017945
-0.00104345
-0.00205221
-0.001702
0.00141166
-0.00313036
0.0034207
-0.000104832
0.00197683
0.000944334
-0.00281633
0.00370353
-0.00185334
-0.00357689
0.00172669
-1.31872e-05
-0.00407807
0.00212712
0.000809276
-0.000750137
0.000720213
-0.00550229
0.00322398
0.00164361
-3.48861e-05
-0.000463322
-0.000666813
0.00116502
-0.00226585
0.00105975
-0.00231498
-0.000262617
-0.00417667
0.000759226
0.00368006
0.00113975
-0.000638823
-0.00155594
0.00105502
0.000361599
-0.000117764
-0.00474143
0.0044976
-0.00124556
0.00182905
0.000150671
-0.000734167
-0.00337249
0.00385448
-0.00185418
0.00137219
-0.000137644
0.00200197
0.00116635
-0.00263968
0.00197549
-0.00249146
0.00815259
-0.00763662
0.0027442
0.00261207
0.00249869
-0.00785496
0.0235144
-0.00637888
0.0158417
-0.0329773
0.000722743
-0.00711205
0.00280333
0.00358598
0.00340159
-0.00273057
0.000485255
0.00219748
-0.00151743
0.00302348
0.000921597
0.00585474
-0.00428896
-0.00248738
-0.0166891
-0.00193374
0.0233586
-0.0023524
0.00147541
0.00073934
-0.0188485
-0.0127341
0.026192
0.00539057
0.069636
0.044035
-0.0554153
0.00221947
-0.00207584
0.000352236
-0.000495867
0.0012624
-0.000802228
-0.000798922
0.000338754
-0.000199977
-0.00211734
-0.00165124
-0.000651153
-0.00300166
-0.00568671
0.00933952
-0.00227964
0.000662707
0.00205868
-0.000441745
-0.048667
0.0466398
-0.0059476
0.0079748
0.00209693
-0.00258586
5.8429e-06
0.000483096
2.96443e-05
-0.00248291
0.0028655
-0.00390896
0.0754736
-0.129453
0.000174761
-0.000227978
0.00297724
0.0131672
-0.00701919
-0.00670925
0.000150957
0.00118827
0.00102805
-0.00236728
-0.00795282
0.00411049
-0.00357402
0.00741635
0.000793721
0.00275146
-0.00144314
-0.00210204
0.00208516
-0.00181137
0.00145954
-0.00173334
-0.00116214
0.00144823
-0.00268524
0.00239915
0.000202168
0.0015121
-0.00116112
-0.000553149
0.000788785
0.00213068
-0.000822538
0.00262724
-0.00157658
-0.0031103
-0.00285507
0.00115935
-0.00464184
0.00562147
-0.00169491
-0.00549321
-0.0100859
5.24855e-05
-0.00201999
-0.00202801
0.0037352
0.00185652
-0.0416912
0.0101734
0.0202421
-0.0030119
0.0143397
0.0122942
-0.023622
0.00209722
-2.08398e-05
-0.00174272
-0.000333661
0.00190005
-0.00134143
0.00153859
-0.00761369
-0.0247682
0.00797407
0.0244078
-0.00118725
-0.00166708
0.000287979
0.00256635
0.0178901
-0.00573862
-0.00316379
-0.00898766
-0.0015142
0.000524762
-0.000868107
0.00277404
-0.00274635
-0.00556697
0.00553928
-0.00502417
-0.00268773
-5.5439e-05
-0.00423238
0.00410179
0.00349177
0.00440349
-0.00688629
-0.00100897
-0.00213738
-0.00172213
0.00142981
0.00026834
-0.000264799
-0.000728675
-0.000633927
-0.00328421
0.00170441
0.00221372
-0.0241927
-0.00390708
0.000910364
-0.0139632
0.0022056
0.0112538
-0.00677534
0.00249618
-0.00581307
0.00605012
0.0034958
-0.00675526
-0.00600546
0.00569141
0.00388918
0.00445979
-0.00588553
-0.00246344
-0.00227134
0.000857191
0.00709555
-0.0056814
-0.00124379
0.000225257
0.00423699
-0.00321846
-0.0341129
0.0118419
-0.00333001
-0.00218787
-0.00081385
-0.00220619
0.00361058
-0.000590533
-0.00765625
-0.000741443
-0.00113914
-0.000420189
-0.00116007
0.00140783
-0.000676148
-0.000409833
0.000713692
-0.000906788
0.000193096
0.000453484
-0.00132011
0.000644931
0.000221695
-0.00151574
-0.0105661
0.0145808
0.00135968
-0.00132169
-0.000901204
0.000863219
0.00209879
0.00405193
0.00222785
-0.00481149
-0.00146829
0.000676515
0.000387845
0.00256142
-0.00181961
0.00901783
0.00407158
-0.00496617
-0.00262373
0.0425587
0.0209725
-0.025316
0.0027023
0.00164119
0.0142399
-0.00210754
-0.00879325
-0.00333912
0.00518184
-0.0117689
0.00906718
-0.00248009
-0.0217077
0.011528
-0.00866876
-0.00827379
0.00745601
0.00960182
-0.00878405
0.0842648
0.0136203
-0.0978851
-0.00413276
0.0091097
-0.00189437
-0.0012528
0.00127322
-0.000470353
0.00297333
0.00140385
0.000373813
-0.0016795
-9.81689e-05
-0.00186814
0.00991712
0.000768105
-0.00881709
-0.000596986
0.000114098
0.00086998
-0.0633721
0.0615887
0.00178344
0.00846002
-0.0056131
-0.0111868
0.00833983
0.0160769
-0.0174959
-0.000985976
0.00092786
-0.00291634
0.00181798
-0.00115471
0.000191541
0.00285688
-0.00125802
-0.000634751
0.00325048
-0.00505855
0.00142423
0.000466208
0.00110113
-0.000853643
-0.00209964
0.0015863
-0.000593979
0.00293598
0.000893755
-0.00143577
-0.00149013
-4.66325e-05
-0.00116816
0.00102451
0.0080507
-0.00972875
-0.000165568
0.000545032
-0.000517711
-0.00124673
-0.0037995
0.00292877
0.00284878
-0.00258171
-0.00319584
0.00128594
-0.000140775
0.0017836
-0.00090605
0.00142281
0.00233202
0.000419377
-0.00392246
0.000870521
0.000909253
0.00214269
0.00262964
0.000139619
-0.00393139
0.00745054
-0.00640158
0.0074979
-0.00854686
0.00803146
-0.00977482
0.00420566
0.0012862
-0.001449
-0.00404286
0.000688055
-0.000178837
-0.0064555
-0.0138273
0.0044247
0.00420081
0.0052018
-0.00224672
-0.00127278
-0.00284815
-0.000295727
0.00134366
0.00180021
-0.000873221
0.00160907
-0.00334409
0.00108092
-0.000602485
-9.94236e-05
0.00104861
0.00576268
-0.00454065
-4.8323e-05
-0.000937898
-0.00209909
0.00308531
0.000629659
0.00303259
0.140463
0.00498329
-0.0943495
0.00157819
0.000740784
-0.000915119
0.00101396
-0.00589209
0.00135971
0.00351842
-0.00266103
-0.00559913
0.0049422
0.00331797
-0.000491439
0.00374722
-0.00304952
0.00308195
-0.00348128
0.00344885
-0.00168174
-0.00125472
-0.000427811
0.00336427
-0.00394212
0.00235544
0.000322402
0.00413982
-0.00726596
-0.00769458
0.00208918
-0.00315983
-0.00093584
0.00371072
0.000530482
0.00244831
-0.00153056
-0.0042452
0.00168705
-0.000491371
-0.000211191
-0.00184003
-0.00350779
0.00214215
-0.000912987
-7.20626e-05
-0.00252274
-0.00213351
0.00521689
-1.43987e-06
0.00200339
-0.00354248
-0.000488918
-0.00189606
-0.000692865
0.00165103
-0.00018358
8.91954e-05
0.00198326
-0.00188887
-0.00314623
0.00349959
-0.000536947
-0.0306199
-0.0251449
-0.000204854
-0.00184979
-0.00109158
0.00142517
-0.00011843
-0.000196127
0.000837745
0.00042236
0.000165065
0.127009
-0.0482076
-0.113009
0.0391043
-0.0318931
-0.00570778
0.000378278
-0.00212757
0.000343678
-0.00179295
0.000622798
0.000290667
2.72763e-05
-0.00242535
-0.00152315
-0.00508081
0.00439776
-0.00244714
0.00415932
-0.00272283
0.00101065
0.00462655
-0.00231363
-0.00263371
-0.000659061
0.00118979
0.00342715
0.001296
-0.00347356
-0.00195655
-0.001287
0.00361067
-0.000367114
-0.00272143
0.00204427
0.000572325
-0.000719791
-0.00192422
-0.00337711
-0.00168819
0.0032752
0.0017901
-0.00110787
0.00180088
0.000795317
-0.00210225
0.0413886
-8.12897e-05
-0.000349456
0.0166007
0.0172391
-0.0334903
0.0131061
-0.0272898
0.0138343
0.00870273
-0.0190016
0.0102635
3.5342e-05
0.00950893
0.0100275
-0.0108337
-0.0074259
-0.012276
0.000700304
-0.0253956
0.0290364
-0.0113984
0.0146742
-0.000630146
-0.00158283
0.00044796
0.00646144
-0.00169254
-0.0144428
0.00967388
0.00627708
-0.00678322
0.00568797
-0.0166353
0.0208065
0.00210587
-0.0166656
-0.000942317
0.0154696
0.0021383
-0.00768513
0.0121207
-0.00422969
0.00349095
-0.00800555
-0.000166968
0.000386841
-0.0015222
0.00130233
0.00220503
-0.00117399
-0.00123101
-0.000669771
0.0007689
-0.00254627
0.0059372
-0.00915727
-0.0115172
-0.0107091
0.00175517
0.000680131
0.00625056
-0.00799139
-0.0124463
0.00140522
-0.00850829
0.00984777
-0.0217186
0.00214375
-0.00824269
0.00651448
-0.00714187
0.00887007
0.00428611
-0.00110918
-0.00410781
0.00393552
-0.0032234
0.0025962
-0.00330831
-0.00276714
-0.00215384
0.00367719
-0.00189548
-0.00341228
0.00185336
0.00345441
-0.00016983
-0.000950178
-3.47001e-05
0.00315925
-0.0023158
0.00230067
-0.00263092
0.0027855
-0.00139331
0.00123873
0.00355214
0.00109169
-0.00292722
-0.00562047
-0.00114088
0.00215351
0.00460783
-0.00111866
-0.000318116
0.000212353
0.00281383
-0.00469072
0.0030138
-0.0011369
0.00301743
-0.00380066
-0.00598023
0.00676346
0.00464572
-0.00299163
0.00115973
0.00844376
-0.000780606
0.00235633
-0.00503441
0.0032607
-0.000582615
0.00137934
0.00341701
-0.00244003
-0.0102279
0.00395385
-0.00466796
0.010942
0.014719
0.00360002
-0.0117098
-0.00720331
0.00594145
0.00680974
-0.00554788
-0.00144287
0.0119938
-0.00652497
0.140731
-0.0691255
-0.00598277
0.0202782
-0.00979712
-0.0069901
-0.00610368
0.00988769
-0.00388821
0.000104196
-0.00125389
0.00120361
-0.00184578
0.00195551
0.00188799
0.00223367
0.00418172
-0.00679298
0.00456677
-0.0023553
0.000433344
0.00570819
-0.00124875
0.00542825
0.00239557
-0.00106093
-0.00279004
0.00145539
-0.00111937
0.00451615
-0.00100121
-0.00848754
0.0234983
0.00289311
-0.000561751
-0.00196655
0.000118665
0.00159639
0.00117806
0.00124945
-0.000541366
-0.00126983
0.00258588
-0.000875025
-0.00046141
-0.00189864
0.000602431
0.00141487
0.000797523
-0.000747321
0.000725809
-0.00291205
-0.000226141
-0.00157745
0.00506377
-0.00436161
0.00631608
0.00317928
-0.00900533
-0.00204309
0.00453978
0.00177051
-0.000100938
0.00437392
0.0021233
-0.0065341
0.00430986
-0.00788323
-0.000529292
0.00782452
-0.105624
-0.0323988
-0.0427168
0.180739
-0.00900642
-0.00245423
-0.00873176
-0.00354616
0.00548504
0.153044
-0.0624689
0.0838357
-0.174411
-0.0474218
-0.0783478
0.12439
0.00137926
-8.18285e-05
0.00827396
-0.00885896
0.00257652
-0.00093057
0.0129234
-0.0145693
-0.000299821
-0.0192553
0.00954412
0.010011
0.00538195
-0.0367455
-0.00383205
0.0351956
0.00376312
-0.014921
0.0117974
-0.00504937
-0.0104339
0.0052079
-0.00375516
0.0112106
0.0324921
0.0388734
-0.00184866
0.0615898
-0.0755298
0.00756546
0.00215419
-0.00226911
0.00401492
-0.00150567
-0.00376012
0.00125087
-0.000447102
0.00557629
-0.00111427
-0.000497357
0.00301186
-0.00196287
-0.000551634
0.00281203
-0.00162871
-0.00168067
0.002734
-0.00237215
-0.00959511
0.00923326
-0.000832946
0.00141902
-0.00157281
0.000986745
-0.00113232
-0.00137782
0.00205101
0.000648851
0.000846734
0.000144529
0.00166827
-0.00133432
-0.0012924
0.000958457
0.00242818
-0.000186737
-0.000512845
-0.00253088
-0.000541286
0.00358501
-0.0138032
0.0287132
-0.0309812
0.0160713
-0.00841354
-0.00768535
0.00347146
0.0100334
-0.00776424
-0.00574059
0.0252547
-0.0190489
-0.000823839
-0.0293782
0.00916831
0.0245487
-0.00433883
-0.0101442
-0.0319681
0.00462229
-0.00810899
0.00809281
-0.00460611
-0.0118228
0.000152423
0.0134874
-0.0175597
0.00882044
0.00843941
-0.0055401
-0.000998829
0.0144693
0.00747401
0.0042487
-0.00941964
0.0183489
-0.00239112
0.00165639
0.00081031
-7.5581e-05
-0.00314304
0.00131205
-0.000513445
0.00234443
0.000742269
0.000352506
-0.00423781
-0.000163326
-0.000128665
-0.00209912
0.000935986
-0.000622167
0.000716753
-0.00103057
0.000126978
-0.00112495
-0.000236183
-8.19342e-05
0.000773535
0.00117797
0.000799965
-0.00112596
-0.000851973
-0.00025808
0.000339617
0.000563783
-0.00064532
0.000540521
0.00037937
0.00224799
-0.00162494
0.00358261
0.000246459
-0.000942886
0.00294442
-0.010471
0.00734165
-0.00869342
-0.00307407
0.0116445
-0.00579642
-0.00909996
0.0104505
-0.00335692
0.00825322
-0.00462173
-0.0055343
-0.000249275
-0.00581767
0.00545298
0.00379167
-0.00298845
-0.0062562
-0.000105409
0.00538923
0.000169167
-0.00296715
-0.00801485
0.00821038
0.00884781
-0.00833194
-0.00813821
0.000719847
0.011196
-0.00377763
-0.00174388
0.000674226
0.00193947
-0.000869815
0.00451241
-0.00329977
-0.00935085
-0.000796507
0.00360769
-0.00208537
-0.00219386
0.0557807
-0.000667868
-0.0334572
0.0204368
-0.00210097
0.0090642
0.00852769
-0.00803828
-0.00437762
0.0548735
-0.0287631
0.0565658
0.00513245
-0.000491808
-0.00501474
0.000374092
-0.00126732
0.0681039
-0.0668366
-0.065906
-0.0801309
0.0808815
0.00662645
0.00257738
-0.00407138
-0.00226751
0.000291655
-0.00770807
0.0069246
0.00259951
-0.00642723
0.00521144
-0.00138372
0.000858021
-0.00934874
0.00266706
0.000930788
0.0016136
-0.00663688
0.00685393
-0.0101088
0.0172332
-0.00972599
-0.163711
-0.0539184
0.041734
-0.0279987
0.0211659
-0.000846008
1.48633e-05
0.000831144
0.000946172
0.00449671
-0.00470061
0.000160738
-0.00328378
0.00406921
0.000362656
-0.00120866
-0.0033796
0.00438372
0.00312332
-0.00412744
0.00274405
-0.00541249
-0.00447388
0.00714232
-0.000556752
0.0049084
0.00161791
-0.00596956
0.0224572
-0.0231692
-0.00151904
0.00223104
-0.00748854
-0.000327193
0.00519247
0.00262326
-0.00294091
0.0016129
0.00191735
-0.000589343
0.00260757
-0.00698383
0.00245772
0.00215192
-0.00248526
-0.000667805
0.00264361
-0.000362903
0.00289117
-0.00116816
0.000428912
-0.00943215
0.00855323
-0.000756934
0.000398328
0.00843865
0.000135923
-0.0157779
0.00189119
-0.00229678
0.00262505
-0.00135633
0.00219377
0.000195386
-0.00103128
0.00277176
0.00103111
-0.00277159
-0.00496763
-0.00378247
-0.00133913
-0.00236694
0.00103577
-0.00072559
0.00345358
-0.0245275
0.0160543
-0.000706407
2.42141e-05
0.00142611
-0.000743912
-0.00492054
0.0020415
0.003893
-0.00120447
-0.00150905
0.00203737
-0.000157171
-0.00112268
0.000444753
0.000835098
0.000623264
-0.000390118
0.00264904
-0.000141913
-0.00699782
-0.000389197
-0.00565622
0.00944854
-0.00340313
-0.00239283
0.00342668
-0.0017768
0.000742959
0.00158867
-0.00170367
0.00855875
-0.00308312
0.00729722
-0.00460329
0.000697096
-0.000222661
-0.00461088
0.0107958
-0.00344087
-0.00751697
0.0024202
-0.00401162
0.00611095
0.00183619
0.00215156
0.00170344
-0.00215675
-0.00389824
-0.00155384
0.00294616
9.42434e-05
-0.00148656
0.00506077
-0.000762312
-0.00312338
-0.00117507
-0.00367369
0.00540107
-0.00383133
0.00210395
-4.47305e-05
0.001283
-0.00153038
0.00380396
-0.00355658
-0.000448874
0.000661409
0.000176085
-0.00050652
-0.00561778
0.00382082
0.00230348
-0.00023398
0.00280451
-0.000231915
-0.00233862
-0.000463418
0.00232744
-0.00222653
0.000362504
0.000923658
0.000884018
0.0095763
-0.0053482
-0.00511211
-0.000447901
0.0060215
-0.000437011
0.00538453
0.0079798
-0.0103241
-0.00230617
0.0039342
0.000496603
0.00492145
0.00759736
-0.00800457
0.00167971
0.00304894
0.00330282
0.000213155
-0.000722042
0.000508887
0.00109511
-0.0016625
5.00933e-05
0.000517291
-0.000594132
0.000301213
0.00291742
-0.0026245
-0.00181515
0.00204588
-0.0034687
0.000963796
0.000749182
0.00122846
-0.00294143
-0.0010353
-0.000870357
0.00190566
0.00223111
-0.000690926
-0.000746465
0.0027139
0.00108209