/*--------------------------------*- C++ -*----------------------------------*\
| =========                 |                                                 |
| \\      /  F ield         | OpenFOAM: The Open Source CFD Toolbox           |
|  \\    /   O peration     | Version:  2506                                  |
|   \\  /    A nd           | Website:  www.openfoam.com                      |
|    \\/     M anipulation  |                                                 |
\*---------------------------------------------------------------------------*/
FoamFile
{
    version     2.0;
    format      ascii;
    arch        "LSB;label=32;scalar=64";
    class       volScalarField;
    location    "0.0948794";
    object      p;
}
// * * * * * * * * * * * * * * * * * * * * * * * * * * * * * * * * * * * * * //

dimensions      [0 2 -2 0 0 0 0];

internalField   nonuniform List<scalar> 
3946
(
-0.0284531
0.366583
-4.70184
0.256474
0.566767
-4.23539
0.555316
0.337761
0.186852
0.261479
1.03859
0.275511
-7.37193
-0.235655
-0.0343055
-0.356455
0.0155029
0.540975
-0.0365416
0.0151473
-0.477513
-0.512576
-0.27551
0.222239
-1.72908
0.618854
0.124126
-0.0301356
0.606305
0.309335
0.970502
-0.0778283
0.484658
-0.127427
-1.03358
0.133592
0.801396
0.179358
0.0565743
-0.0898914
0.219748
0.575603
0.466498
-1.60896
0.574768
0.392854
0.522236
0.824543
-0.0734395
0.255349
0.435486
0.199477
0.188473
0.403553
0.600185
1.01056
0.638066
0.690239
0.690724
0.254986
1.37882
-31.5582
0.765249
0.532626
1.62645
-31.3476
-31.5116
-31.325
-31.3731
-5.13754
0.756393
0.172847
-31.2432
0.503105
-4.81943
0.323249
0.28266
0.248574
0.452752
-0.687173
-31.4866
-15.396
0.826633
0.713923
0.595765
-31.2178
-17.8746
-31.5389
-32.0611
-32.0241
-37.4335
-31.7231
-1.01922
0.376351
0.460715
0.394592
-0.135097
0.530894
-2.03889
0.620695
-1.68334
0.430719
0.309556
-30.4284
0.256806
0.668043
-13.8329
0.98435
0.0731523
-0.270985
-8.68763
-0.251005
-0.0176388
-0.105736
-0.362837
-0.181947
-15.6651
-3.28455
-31.2729
-31.9961
-1.77264
0.500289
0.967845
-0.561206
0.0208009
-2.19188
-31.7723
-12.5749
0.822941
1.44586
-0.683936
-34.1107
-0.276751
-1.72701
-2.67343
-10.9356
-0.358664
-30.682
1.27129
-38.9761
-23.778
-32.0377
-38.6516
-0.00258162
-8.87964
0.82848
0.939079
-0.189948
0.182562
0.144762
0.217992
0.289992
0.871479
0.456819
0.171689
0.696364
0.868182
0.913025
0.431865
-1.28225
-1.03166
-3.16975
-32.3181
0.651536
1.03198
0.43679
0.22015
0.241234
0.0900525
-30.6864
-0.755042
-26.7737
0.148836
0.196138
0.0764944
0.303585
0.475889
0.478622
-5.81598
-0.0200554
0.566444
0.632477
0.559946
-0.475803
-1.27861
-1.21447
0.707011
0.265406
0.0501065
0.838878
-6.0689
-0.511775
-31.8434
0.269653
-31.2461
-31.2679
-31.1978
1.72636
0.78098
0.726036
0.685452
-0.692281
0.659997
0.691057
1.25978
-0.318466
-1.09432
-4.10102
-0.0396408
-0.810064
-1.27365
-1.57199
0.0179521
3.67648
-4.50451
-0.157454
1.71236
-0.367231
1.95554
1.57311
-33.0464
-31.1711
-0.647637
0.847838
-1.08367
-31.1147
-30.9585
-7.30998
-2.10547
-30.7083
-9.75771
-2.6133
0.692873
-10.4657
0.58252
-0.147255
0.0308436
0.0347699
-0.142427
0.0529656
0.6463
-31.4915
-30.9321
-35.5454
0.339064
0.0901347
-0.0589783
0.130482
-4.69267
0.231844
0.129993
-35.1635
-1.79849
-1.95676
0.107678
-2.11596
-0.296841
-3.3457
0.0541116
0.0694213
-5.23155
-31.227
-33.2956
0.411693
0.244859
0.536833
0.610154
0.466202
0.284887
0.590682
0.141941
0.118701
0.168184
-1.62203
-1.82136
-2.20714
-2.14348
-1.98641
-1.86649
0.311911
0.330053
0.235152
-0.389434
-0.455193
-0.316266
-0.183201
-0.782448
-0.493724
-0.276927
-0.560828
-0.38874
-0.553307
2.34028
-0.347764
0.0412261
0.315086
0.282699
0.427042
-0.268285
-31.2634
1.31008
-31.2377
-31.1879
-31.3481
0.910965
-2.9703
-31.8418
-20.988
-0.251968
-36.8272
-36.0986
-31.5567
-31.6087
-31.5858
0.437841
-32.5979
-0.708815
-1.06591
-1.15385
-33.083
0.30943
-31.4625
0.449352
0.283637
-0.0188439
-1.03488
-0.254548
-5.28793
-7.24486
0.271229
0.167641
0.807099
0.629761
-31.5367
-43.4935
0.505604
-6.04124
-37.0117
-31.303
-31.8742
-0.253359
-31.6557
-31.214
-3.31833
-34.7571
-26.4628
-6.55391
0.204965
-27.8341
-35.6443
-31.4018
-7.35193
-32.6556
-0.778313
-31.2916
-30.7759
-24.9681
0.825282
-31.4173
-31.1021
-22.9022
-31.4762
-1.39098
-16.5725
-42.1203
-35.7075
-13.6671
-33.4858
-36.0992
-33.28
-32.7347
-36.8401
-0.830139
-1.92381
-0.681388
-0.0816369
0.111056
0.713873
-9.38024
-25.133
-3.05242
-13.1474
-2.11715
-1.14638
-7.27338
-2.95739
-18.8924
-6.74005
-2.18847
-2.53347
-32.8376
-1.88503
-1.46577
-38.4763
-7.20659
-31.3194
-1.18696
-20.6158
-2.53542
-1.20874
-3.67814
1.31583
-1.71887
-0.362169
0.897902
0.363681
-15.9564
-1.62071
0.122197
-2.03765
-4.81523
-1.11991
-5.63904
-1.32178
-1.95174
-2.2705
0.767638
0.327033
-11.3166
-8.13282
0.333666
-13.6788
0.85454
-36.3333
-0.369871
-0.0290788
1.27153
0.521409
0.140967
0.272482
1.06459
-0.780451
0.326063
0.14339
-9.23046
-0.295083
0.314864
0.391634
-2.53299
-2.96935
-2.38236
-1.76618
-2.7182
-3.09317
-2.33183
-33.9313
-35.7182
-3.50987
-2.25687
-0.0927876
-0.0881465
-1.24862
-0.471773
-0.236489
-0.934061
-1.34117
-2.63187
-1.21166
-0.589565
-0.329262
-6.12988
-4.96632
-31.5025
-25.9253
-31.2045
-27.6944
0.494063
-13.0287
-35.8211
-16.5933
-11.9202
-2.44435
0.572633
0.811992
1.03679
0.986471
-5.09205
-1.71276
-4.30031
-2.12023
-33.7059
-31.9451
-31.3675
-2.50294
0.406133
0.657009
-5.43405
-0.313595
-0.688508
-1.426
-0.832496
0.882255
-4.11558
0.175006
-0.42604
-1.20684
0.715367
-1.7552
0.146437
0.721809
-3.07776
-2.09957
0.455376
0.453576
0.469283
-3.02125
-3.03127
-32.6857
-31.4216
0.473973
-31.8888
-31.4517
0.436317
-5.75931
-10.0948
-38.2707
-8.4322
-5.60956
-4.86432
0.854679
-0.148331
-2.68888
-2.3322
-1.79638
-3.02574
-1.65239
-0.530532
-0.559465
-6.33835
-41.3267
-33.9153
-25.9369
-1.67483
-29.6688
-32.4222
-32.93
0.700088
0.391626
-1.81824
0.493654
-1.48099
-0.848322
-11.9721
0.520888
0.0805639
0.0436059
-2.48164
0.803464
0.149288
0.763305
0.42429
0.32281
0.624592
0.848657
0.331806
0.456446
0.382665
-3.49251
0.917656
0.534262
0.399289
0.230962
-1.32378
0.179405
0.384965
0.397193
-9.53615
0.484507
0.309896
-39.7621
0.838908
0.772641
0.108257
0.374543
0.352469
0.887082
0.511662
0.855741
0.28348
0.96728
1.33915
0.968215
0.694636
0.827044
0.759047
0.786444
0.467528
1.14485
0.370934
0.0715964
0.494929
0.562627
0.800162
0.721896
1.41459
-0.963329
0.852017
-1.27941
0.825682
-12.637
0.603034
0.557791
0.33132
-32.6569
0.945869
0.470132
-2.18703
-0.0352464
-2.35024
0.277912
0.400153
-5.11627
-0.838746
1.12429
-2.91075
0.18665
0.770686
-0.132428
0.335941
0.129296
0.351204
-34.7482
-35.207
-32.3802
-0.744552
-1.85994
2.13618
0.477176
0.911457
1.5982
0.649178
0.380164
-11.3187
-14.1304
-13.5768
-16.0487
0.394126
-12.5221
0.170817
-11.6418
0.276909
-11.2234
0.280363
-0.201561
-1.08621
0.0332803
0.700322
-1.26045
-4.21718
-0.147141
0.304808
0.498512
0.551129
0.196422
-0.181442
0.613742
0.693521
0.13025
0.54914
-0.188981
-0.111701
-4.999
-0.149682
0.413989
0.542057
0.52608
-5.0533
-11.5259
-1.82357
0.715355
-2.99949
-0.254398
0.303242
-31.4948
-32.5269
-32.0548
0.148604
-4.27704
0.140328
1.2107
-15.7098
-32.0022
0.507288
-32.4136
0.150865
0.23149
-3.97293
-1.45514
-0.411772
-0.684616
0.244816
0.510528
1.57753
0.652338
1.30243
1.92126
-40.3346
-33.7743
0.421669
-28.9988
-30.5711
-0.432234
-0.592292
0.287852
0.234419
0.422196
-0.00803199
0.444537
-0.419752
-1.69339
-0.615148
-3.5056
-0.191423
0.333826
-0.604744
0.364851
0.943809
0.23992
0.776089
-0.616267
-0.59073
0.656461
0.593132
0.21909
-4.11166
-0.561342
0.233357
-7.86017
0.343296
1.08753
0.49569
1.53435
0.895701
1.64236
0.0290275
0.309903
0.693888
-4.77583
0.597013
0.64031
0.866332
0.353518
0.425492
-4.10969
-2.23181
0.404753
-1.46934
-2.51956
-2.64275
-3.71993
-31.3612
-32.2208
0.339399
-31.9434
-37.0747
-32.0366
-32.2451
-3.02506
-32.1654
-32.4689
-38.7856
-21.8489
-3.56042
0.662699
-5.41155
-0.168401
-31.3844
-9.19757
-16.2998
-15.5096
-10.3858
-1.71751
-4.10465
-30.0818
-31.427
-32.9879
-31.3948
-31.7911
-38.3953
-2.19427
-5.66812
0.86667
-3.10425
-1.97388
-0.0349139
-0.0700779
-0.209362
0.268496
0.00445891
-0.757952
-29.7087
0.382685
1.05883
-1.55035
1.39878
-1.03322
0.636983
0.191264
-3.19195
-1.09115
-1.5752
-0.951213
-2.85756
-1.3559
-2.71601
-0.48341
-0.589797
-1.50276
-2.70157
-6.21778
0.5433
0.584532
-0.852881
-3.4144
-2.45948
1.64073
0.576519
-21.1122
-27.8343
-4.27918
-15.7427
-7.397
-7.7012
-2.89678
-7.58923
-0.0137098
-8.21573
-4.42226
-1.78045
-5.51489
-1.84398
0.569412
0.851332
0.39531
-4.28213
0.830002
-32.018
0.669871
-5.1717
-0.461266
-37.8712
-1.83564
-1.01656
-26.2625
-2.69206
-30.8635
-33.083
-27.8673
-22.4419
-11.3035
-34.8574
-24.7183
-13.5072
-3.91358
-31.6455
-35.9454
3.38736
-8.73841
-0.702775
-0.317301
-4.39239
-2.81475
-3.09115
-2.95032
-1.65554
-1.04142
-1.08555
1.6989
-4.78808
0.421362
-2.72917
-3.01421
-4.30268
-5.20538
-0.0904037
-3.94319
0.647285
-1.55866
-0.158267
0.0779012
0.306014
0.295733
-1.11397
0.383184
-3.90286
-3.47341
-3.5618
0.0214704
-0.364662
-0.71025
1.0051
-0.396598
-0.888315
0.183254
-0.0985055
-2.49648
0.500098
0.1432
0.669325
-2.22619
-0.243912
-2.03544
1.05411
1.50387
1.00672
0.9848
0.508893
-19.1483
-32.0962
0.686853
-26.4457
-31.2572
-2.43147
-3.11101
0.554369
-6.71272
-1.07924
-33.3508
-2.91555
-31.0401
-30.0831
-31.1518
-31.236
0.524909
0.570292
0.600997
-32.135
0.728392
0.555524
1.09848
-24.947
-31.3395
-40.5467
-46.2757
-43.0257
-31.8109
-0.793022
-32.3811
-31.1872
-2.15792
-30.8833
-32.2054
-31.6104
-23.5572
-31.3535
-31.9259
-0.504589
-34.643
-7.49774
-31.16
-31.9831
-1.08719
-34.3149
-33.893
-39.7621
0.533277
-27.4878
-33.4364
0.596349
-2.85205
-1.55723
-39.4801
-31.3175
-4.65804
-0.793012
0.819552
0.165743
-1.37055
-5.83019
-9.65689
-0.179877
-4.33802
-0.880684
-3.63164
-38.7668
-34.2688
-35.4571
-32.3672
-34.0942
-41.9345
-1.84777
-6.7144
0.459873
-23.001
-24.0826
-6.1504
-4.02635
-1.30992
-30.951
-1.91284
0.406938
-1.33752
-2.18703
0.346993
-5.41051
-0.196387
-3.36315
-3.01202
-3.56129
-4.58178
-2.16771
-1.26848
1.01379
-3.19325
0.0932028
-1.33434
-0.0261918
0.570288
-55.4285
-32.9701
-1.28539
-8.84916
-0.347782
0.358048
-0.517596
-9.31513
0.500412
0.698706
0.90531
-0.129615
-10.1691
-1.73185
-12.228
-10.4966
-0.695821
-18.8913
0.230899
0.269009
0.320996
0.265385
0.229919
-0.094384
0.858893
0.811127
0.813828
-6.7064
-0.346238
-2.07315
-2.19494
0.942325
-6.51698
-2.25052
0.961194
-5.60009
0.85886
0.648213
-25.2672
-28.7412
-0.818932
-14.614
-31.0975
-31.8454
-39.1589
-10.0321
-43.7457
-19.5538
-32.6664
-3.02965
-7.96773
0.534132
-0.586634
-3.71758
-3.26309
-29.6316
-26.3231
-3.88337
-5.02263
-0.902299
-0.201383
0.717324
1.98561
1.21884
-0.00960828
1.51336
0.595442
0.867641
0.771367
0.980087
-0.670526
-0.967772
1.63476
-17.5689
0.940383
0.749606
-5.27675
1.02914
0.689501
-1.6445
-2.37266
-2.14039
-3.01873
0.972962
1.05278
0.536557
1.12971
0.909355
0.866378
0.677039
-2.1974
-32.7819
-27.0777
-20.4875
0.685329
-7.84522
-6.97158
-2.3261
0.897308
0.857741
1.38831
1.0576
0.271959
-1.00544
0.542692
0.72889
0.447857
-7.4419
-31.3572
-29.2007
-32.3897
-36.5719
-29.4553
0.510686
0.984867
0.700036
0.650079
1.19422
0.866452
0.913718
0.611598
-1.60478
0.322273
0.0572495
0.270102
0.449418
1.59848
0.565262
0.711005
0.367158
0.537128
0.688558
0.596877
-12.9691
-10.7567
-4.82419
-7.05628
-1.96758
-11.3641
0.244114
0.485811
0.647042
0.0654483
0.428854
0.726782
1.30044
1.45487
-0.591196
-2.23841
1.02716
-0.314996
0.313735
0.443552
0.634108
0.561167
0.699778
0.292545
0.477422
0.285611
0.323066
-0.147296
0.692638
0.416037
1.27185
0.17708
0.189026
0.114062
0.217971
0.385632
0.514816
0.333443
0.575001
-0.182048
0.366839
0.784836
0.229534
0.651163
0.456847
0.201564
0.00113412
0.310437
-0.264166
-0.155452
0.0608174
0.526431
-0.0471842
-0.147189
0.527112
0.69581
0.704841
0.819169
0.627217
0.686114
1.17846
0.379397
0.543003
-2.20056
-0.28413
-1.14215
0.344246
-0.157826
0.817387
0.449091
0.176819
1.06955
0.437998
0.866307
0.584578
0.715977
-3.47252
0.506096
0.676586
0.949894
0.649706
0.94163
-0.165905
0.224613
-4.57643
-0.26952
-0.797812
-0.337894
0.885011
0.253254
0.77677
0.856349
0.434919
-32.4294
0.797814
0.422832
0.508513
1.30389
0.746072
0.336965
0.439758
-1.35431
-1.2896
-0.890994
-0.905569
-0.827817
0.43357
0.113464
0.0959368
0.125499
0.875774
-1.92457
0.770108
0.289734
0.164619
0.309204
0.391267
0.572967
0.341262
0.390152
0.494878
0.286015
-22.7857
0.319612
0.562632
0.178681
-0.390381
0.577442
0.423078
0.666112
0.743151
0.57751
-1.87819
-1.9734
-2.55105
-1.79344
-0.562785
0.12196
0.395865
-1.43056
-1.95884
-2.387
0.734372
0.00934171
-0.695926
-2.20642
0.753622
-0.611362
-0.177606
0.0768446
0.521741
-0.387238
-2.79913
-0.178136
2.84873
-1.62277
0.00930502
-0.436361
0.0939007
-1.20528
0.0169699
-0.161971
-1.21069
2.87245
2.20985
-1.33393
-1.24128
-0.144114
-0.627733
0.48841
0.495438
0.0429523
-0.225799
-0.23039
0.292513
-0.19169
-0.214535
0.0907646
-4.50979
-15.4511
0.883507
0.792866
-0.952592
1.41042
0.650793
0.703656
0.788548
0.857884
2.51847
0.967254
0.449374
0.303907
0.142555
-32.2881
1.66705
-2.85293
-5.50102
0.912626
0.832607
0.856669
0.644163
0.794662
0.474686
0.447514
0.798443
0.588709
-17.4256
-3.32541
-0.538865
0.690763
1.2726
0.603365
-0.390488
0.146327
-3.65505
0.724542
0.609147
0.68663
-9.86637
0.60078
1.0443
0.608204
0.28717
-0.0430512
-31.0566
0.378716
-31.0118
0.690263
0.998954
1.1101
2.79446
3.77115
-0.623988
0.210508
0.784018
1.02442
0.977202
-15.492
0.369462
0.0571998
-0.381763
0.227399
-31.8915
0.322075
0.560122
0.241601
0.367944
0.0582708
1.34349
1.44106
-1.88188
-2.44001
0.47923
1.23305
-5.09858
-2.11649
0.436199
0.395511
-1.40073
0.451594
0.755173
-1.98211
-1.47968
0.605806
0.482119
0.615406
0.451102
0.485972
0.827354
0.763267
0.312717
0.82549
0.281657
0.47581
0.737484
0.494108
0.628519
0.204575
0.345069
0.570736
-22.4562
1.38083
0.658848
0.938368
0.910925
0.535758
0.942906
0.0580006
0.497799
-31.0286
0.625751
0.500396
-31.1068
-33.2466
0.573481
-27.0337
-33.321
-32.2631
-32.7357
-33.7279
0.592925
0.482474
-33.8451
-26.9568
0.573248
-31.1471
-33.1842
-32.2772
-31.2838
0.639839
-19.345
-31.456
-30.5218
-28.1543
-15.3281
-3.4083
0.532798
-35.8156
-31.5551
-33.7362
0.128598
0.492243
0.426339
-32.6449
0.420006
-31.5421
-2.70142
0.658052
-3.39743
0.540945
-0.893887
0.509615
-0.677429
0.73198
-1.94221
-1.90685
-4.54139
0.610485
0.661148
0.393176
-3.55027
-1.39558
-2.21463
-1.6219
-1.96531
-2.22526
0.0860289
0.710789
0.558511
0.346041
0.585765
-2.79044
0.395143
0.534725
0.907985
-1.94487
0.696137
-3.45435
0.00879327
-0.214445
-3.43486
-22.7451
2.18089
-18.892
0.362923
0.597331
0.121379
0.4072
0.627808
0.997269
-0.292129
-0.0521282
0.271687
0.729596
-1.10029
-0.0742848
0.277793
-0.0213775
0.165438
0.443518
0.460794
0.420391
0.745427
1.26535
1.0995
-6.22786
-0.90493
-9.08975
0.237491
0.47455
0.990646
0.796296
0.678728
-0.028414
0.836757
0.536185
1.29311
1.28651
1.33447
-35.554
0.673593
0.876419
0.586726
1.02516
-1.39519
0.453351
-1.52683
-32.2863
-32.4225
-2.59476
-10.1615
0.155024
-0.0144712
-0.0339638
0.218538
0.0697496
-1.63559
0.831701
-2.51687
-2.13944
0.956236
-1.83239
-41.5724
-1.67595
-2.01377
-4.3292
-3.26433
-30.9908
-30.5675
-7.45695
-1.85654
-35.8901
-1.51392
0.672216
-0.155978
-7.00641
1.83272
0.558784
0.444725
0.547422
0.641367
0.700081
1.43609
0.598648
0.232242
0.582041
-0.384624
-0.359456
0.198747
-1.216
-0.335567
-1.03357
0.349917
-0.454588
0.516901
0.23331
0.406872
0.55255
0.178818
0.464926
0.40509
0.461808
0.233555
0.876409
0.185027
0.0566848
0.834806
0.547919
0.436778
1.07139
0.597754
1.12624
1.04278
0.495082
2.95291
-2.42772
-2.28925
-2.26747
-2.07412
-2.47218
0.331756
0.218361
0.182095
0.263913
0.281384
-3.00179
-4.38922
0.309109
-0.311728
0.0956248
0.136039
0.127618
-30.4739
1.06356
1.11331
-0.0500819
0.71436
0.100223
-0.0589367
0.571797
0.886642
1.05248
-2.05889
0.305009
-1.63722
-1.28555
1.00973
0.00123883
-0.121063
0.331982
0.384862
0.458546
0.128974
0.142393
-5.69578
-6.9898
-7.7889
-6.9151
-0.570706
-12.5503
-8.39572
-0.604716
0.944312
-7.40977
-8.41336
-5.56185
0.817722
0.766597
0.604464
-29.8364
-29.6327
-33.8814
0.124027
0.388453
-9.59133
-4.34535
-6.82909
-6.7811
-10.0285
-3.49955
-1.94199
-28.5838
-12.8505
-28.9019
-29.209
0.741782
0.733537
0.543784
0.641626
-30.9305
-30.9979
-35.6931
-8.43667
-31.5807
-23.1528
-14.9611
-33.8594
-5.10069
-40.6168
-31.8426
-35.8884
0.46659
-0.299824
-0.198749
-0.0913002
-0.260635
-6.83354
-10.3917
-32.5032
-3.34376
-3.23935
-3.82403
-31.6961
-35.9478
-39.5754
-19.315
-32.171
-41.0317
0.516851
0.436568
-4.2891
-4.23846
-9.54142
-2.5113
0.413465
0.548923
1.00945
-55.7231
-37.2445
-3.34017
-3.15075
-2.62899
-2.92399
-2.53842
-2.10535
-0.732547
0.681309
-1.64483
1.00325
-2.35958
-1.66163
-2.10276
-40.2168
-2.46514
0.225623
-0.252577
0.166453
0.15824
-1.62816
-0.11704
-0.269635
-0.137652
-42.4996
-17.8949
-2.34703
-1.92056
-11.2686
-6.34725
-1.70548
-0.217449
-0.519007
-4.0174
-4.76849
-5.96118
-3.05962
-12.7852
0.83673
-1.58312
-7.63949
-8.65642
-6.6301
-6.12755
-2.77018
-4.06414
-0.985667
-2.53859
-1.58228
-0.532861
0.163638
0.310626
-1.48455
-1.82377
-1.46742
-5.06628
-2.8112
-4.90837
0.553096
-1.81181
0.619464
0.459151
0.290545
0.462633
0.286166
0.497521
-0.0419353
-0.144884
-11.0481
-11.7728
-14.2151
1.09046
0.817016
0.725791
0.889737
-0.715817
0.063017
0.349123
1.40642
0.895665
0.392082
1.34714
1.35532
0.402082
0.758884
0.267317
3.47055
0.136587
0.0321812
-3.51606
2.93764
0.573555
-0.965254
-4.74216
0.712952
0.391516
0.732997
1.30891
-2.1765
-4.06863
0.740553
0.819664
0.260715
0.793493
-4.58033
0.260092
0.832662
0.857754
0.798579
-4.54586
-0.320221
0.768443
0.779192
1.03116
1.32596
0.776938
0.862388
1.23452
0.405199
0.79806
0.710191
-1.11672
1.55225
-0.736664
-0.358681
0.41817
-32.3181
0.0669254
0.167001
0.681391
0.408799
0.70438
-1.75536
0.185932
0.689185
0.411562
0.198507
-3.20051
-29.0395
-30.7491
0.576373
0.681259
0.573822
0.385264
0.560288
0.481815
0.940395
-1.82308
-33.0422
0.592505
0.654347
1.26227
0.283875
0.242823
0.354075
0.0694865
0.150959
0.41541
0.722934
0.530363
0.396018
0.485368
0.281026
0.41203
0.329213
0.338077
0.42436
0.403233
0.522463
0.401196
-18.1069
0.591434
-3.65786
0.610836
0.588451
0.352011
-0.272527
-24.4071
-25.1314
-34.1749
-34.5488
-34.5208
-8.96196
-40.7637
-31.5173
-33.5483
-31.9716
-3.62115
-2.71413
-1.41767
-33.0544
-31.8756
-2.47794
-0.235257
-8.40639
-31.5808
0.492131
-4.13491
0.426973
0.550148
0.611865
0.364833
0.0366155
0.434405
-0.875871
0.262102
-0.141026
0.761538
0.13469
1.50952
0.711167
0.252615
0.330399
0.227897
0.58657
0.400236
0.290667
0.918379
0.201983
0.558546
0.0959754
0.925415
0.299451
-0.133586
0.38943
0.123544
0.523452
-11.9198
-1.89652
0.811913
0.272747
0.412433
-0.248009
0.809396
0.690015
-31.0394
-31.0914
1.47564
-0.407355
1.11528
0.641666
0.355613
0.758014
0.482135
0.567166
-6.47264
0.785347
0.683176
1.1712
-1.32044
0.833855
0.826274
0.79722
0.687576
0.746621
1.46703
-0.402468
0.890711
0.610519
-1.27676
0.696881
-0.749843
-1.9517
-6.61248
-5.7635
0.845983
-2.01334
0.64929
0.555828
0.510107
-0.504279
-0.310471
-7.69449
0.360088
0.466923
0.354363
0.52505
0.506325
0.37123
0.794987
0.493791
0.166188
-0.256236
-0.369613
-34.055
0.116179
-0.491381
0.299576
1.0175
0.140679
-1.56322
-1.24937
-21.1405
0.322131
-2.87192
0.113503
-1.61418
-2.5259
-3.12742
0.259274
-1.34203
0.494683
-0.503885
-0.367963
0.359739
0.159102
0.363562
-2.59199
-5.61751
0.653628
0.209171
0.0247367
0.0175223
-1.8167
-3.16973
-3.60655
-0.724005
-1.72005
-2.48901
-0.388561
-0.441698
-5.31343
0.451414
1.41604
0.386345
0.279624
-0.394765
0.0866012
1.11775
0.514601
0.583127
0.363178
0.887213
0.726747
0.366463
0.282303
0.633039
0.51579
0.338087
-8.60249
-13.7153
0.793678
0.983595
0.923889
0.672269
0.845936
1.01795
0.251018
0.131822
0.38268
0.331133
0.421171
0.86056
1.01007
0.855147
0.795072
-1.12151
0.915651
1.04552
-1.95167
0.268799
0.380761
-31.4618
0.724286
-0.64689
-7.8103
-1.00936
-0.884551
0.581711
0.717118
0.773279
0.786713
0.95536
-1.50373
0.717943
0.592278
0.798187
0.991254
0.451265
0.0253002
0.0570472
0.454998
0.806204
-0.257179
-30.947
-32.1533
-32.0706
-31.3359
-31.2422
-40.1679
-31.4623
-31.0829
-31.066
-31.3585
-31.5662
-31.3768
-30.8888
-31.7207
-31.7182
-32.0406
-31.5241
-31.3814
-30.8999
-30.8846
-32.426
-31.2631
-33.8958
-31.6664
-32.5867
-31.6951
-33.058
-2.26427
-1.86788
-0.772987
0.347854
-0.00443226
0.31137
0.553224
0.0956149
-1.86697
0.00664495
0.306987
0.509667
0.303739
-0.572075
-0.223375
-0.125403
-0.556731
-1.77142
-1.45556
-24.5801
-0.0111807
-0.141232
-0.326477
0.414762
0.519335
0.416594
0.231484
0.285022
0.415204
-11.0661
0.0107573
-2.20343
-3.44793
0.616937
0.211213
-12.0189
-5.50398
-1.16944
-3.18043
-0.729422
-0.787898
-0.973399
-5.22296
-12.7926
-5.40686
-9.47741
0.487349
-1.44458
0.560962
-0.230159
-0.849847
-3.02532
-31.9298
-1.24684
-0.717692
-2.27034
-3.94084
-5.30134
-6.89388
-18.6612
-0.578182
0.840152
-18.1102
-2.13895
0.452945
0.426755
0.405733
0.405336
-32.7171
0.523354
-32.6006
0.887966
-35.886
-39.573
-33.2678
-40.2328
-38.7839
-28.2821
-26.5158
-30.8557
-26.2336
0.276579
-3.0587
-4.61279
-1.37885
0.00805198
0.732833
0.822041
0.600015
0.149515
1.02268
1.72088
-1.03646
-0.828298
0.142743
-0.71254
-1.92362
-32.3856
1.81725
-5.11236
-31.0936
-32.6945
-33.2677
0.734803
0.54858
0.264822
-35.0565
-0.0278652
-31.1868
0.608486
-5.79186
-13.3945
-3.1889
-11.5495
-33.3573
-30.939
-10.4843
-2.25438
-4.33271
-10.9588
-25.2024
-16.8822
-31.2941
-31.2225
-31.0285
-30.8927
-0.358887
0.0869288
0.244598
-4.62571
-16.5818
-35.7574
-38.4558
0.11658
-35.9061
-31.2178
-27.0499
-35.6993
-11.451
-39.2314
-21.9769
-20.1583
-30.6718
-34.739
-33.9742
-31.4464
0.204597
1.76612
-20.8358
-2.5778
-18.74
-1.70989
-2.89997
-8.60837
0.319357
-1.11768
-0.201792
-0.813238
0.353708
-5.94665
-4.93072
-3.55822
-3.36354
-26.7343
-5.65929
-6.33679
-7.90553
-1.88086
-3.81185
-12.2998
-14.5425
-7.96231
-4.43461
0.343871
-4.97087
-4.66922
0.248093
-7.01295
-2.57986
-0.203524
-0.270468
-0.0995642
-1.77488
0.176004
-0.364377
0.0316544
-1.92774
-2.87698
-0.86817
-1.02107
-1.88044
-1.18897
-7.64414
-1.99917
-43.8916
-3.85913
-5.84823
-1.11083
-0.668481
-0.386992
0.748023
-1.47912
-19.7286
-4.3759
-2.86324
-3.48738
-2.04524
-2.22448
-2.30008
-3.47603
-2.53112
-3.40605
-2.74393
-2.99626
-1.61953
-2.08397
-1.77123
-2.56262
-2.12271
-0.682361
-1.10225
-1.14504
0.961248
0.59868
-0.953404
-1.19878
-0.805681
0.0674246
-28.2738
0.504965
0.356896
-2.07278
-33.7713
-3.81771
0.575241
1.37305
-32.7258
-31.6875
-33.6738
-39.4226
-32.0802
-31.2755
-31.3299
-5.47675
-30.8947
-33.2696
-2.51881
-1.92055
-2.51257
-3.69268
-0.861352
-1.91493
0.271777
-2.69437
-2.67671
-1.52399
-1.23337
-0.142968
-1.03334
-35.245
-31.2702
-31.3599
-31.3566
-35.563
-30.1454
-1.70234
-36.583
1.14186
-6.57158
-34.4773
0.296488
-19.63
-31.8426
-24.5963
-31.3714
-31.0441
-28.4833
-35.523
-32.8046
-35.7251
-32.8765
-0.00698986
-0.513412
1.07091
-0.899849
0.219456
-0.269649
0.321386
0.344111
0.435663
0.634658
0.331431
1.07292
0.59755
0.195287
0.593102
-0.283645
0.898318
0.757844
0.611855
0.613661
0.7187
0.529557
0.619382
0.798784
1.28587
0.738911
-31.8249
-0.146779
0.536639
0.888656
-0.518644
0.416893
0.00624511
0.264142
0.404708
0.36736
0.362666
0.433455
0.384066
0.970258
0.776626
1.0996
0.741568
0.891408
0.867552
0.760965
0.590156
1.42223
0.346049
1.23446
0.614088
0.512375
0.763915
0.895908
-0.117844
1.22709
0.0136331
0.71991
1.38826
1.65421
0.50477
1.04325
0.36896
0.910427
-12.3778
-29.7057
-0.431476
-1.0711
-27.6656
-34.6993
-7.43882
-28.8274
-31.6176
-35.7478
-29.3298
0.449546
-1.55912
-0.441101
-1.72157
-1.52024
-1.63364
-2.50935
0.199482
-0.484104
-0.686061
-0.35344
-1.28185
-1.23289
-1.22973
-1.11945
0.253131
-0.103641
-2.3269
0.714696
0.50614
0.413047
-1.01431
-0.659012
-8.23905
0.38661
0.263684
0.305649
0.296555
-0.813108
-0.689094
-3.18136
-2.16978
0.103317
-2.34363
-0.657672
0.907496
-2.75462
0.423715
0.490297
0.451751
0.62824
-0.232148
0.0420797
1.42263
0.404775
0.116823
0.397076
0.317794
-0.497647
1.81989
0.709866
-0.289207
0.0797396
0.15048
0.811414
-1.73418
-1.36592
-32.37
-34.7231
-31.6914
-1.9299
-1.46972
0.716037
1.20091
0.511054
-1.13006
-5.55202
-4.54699
-0.761991
0.621664
0.582086
0.792519
0.849631
0.778756
0.468808
0.351425
-0.171163
-7.14328
0.776812
0.569431
0.344233
-0.829461
0.463252
-0.306995
0.127453
0.451701
-6.29001
0.693385
0.175536
-2.78923
0.935012
0.0851834
0.0647099
0.0511085
0.353614
0.172939
0.106287
0.27012
0.34977
0.402837
0.215778
-0.582671
-1.39781
1.54587
1.6568
0.330945
1.6595
0.235761
0.43766
1.17105
1.19077
0.886602
-1.52784
0.223542
0.443599
0.126806
0.701189
0.428192
0.330599
-0.621111
0.603535
0.691903
0.810763
0.902049
0.87468
-1.70214
0.795233
-1.20852
0.456132
0.723652
-31.2717
-31.644
-31.195
-31.9774
0.00309107
-31.5807
1.19245
0.66305
0.258096
-29.9265
0.888406
0.859267
0.575234
0.886775
0.0824765
0.343542
-26.7001
-28.8152
-26.8293
-31.4427
0.0919376
-0.947816
0.261334
-4.66706
-2.28531
0.816883
0.125181
0.904179
1.17465
0.211463
0.424987
1.19111
-0.310011
0.285492
-0.759739
1.30817
0.0480524
-3.21976
0.534062
-8.49156
-3.07218
-40.7781
0.469702
1.28692
0.411986
-59.9793
-34.6464
0.833109
0.95412
-31.9989
-31.8528
-31.348
1.62858
1.19792
-34.5172
-15.5841
-15.5686
-19.8738
-17.3013
0.849982
-32.1851
0.321466
1.0307
-0.31499
1.75944
1.24855
0.638444
-0.455555
-31.491
1.24323
-34.347
-0.872824
-0.974467
-1.7099
-8.14167
-3.85051
0.452001
0.524167
0.509986
0.436753
0.271573
0.115391
0.122011
0.320472
-1.36118
-1.03608
0.265751
0.40893
0.165219
-0.236307
0.205575
0.715742
0.661909
0.864728
0.495765
0.305622
-3.11045
0.564684
0.489283
-0.050732
0.904256
0.661822
-3.15749
-18.4324
0.775089
-16.281
1.25177
0.709458
1.16481
0.399843
-3.67313
-11.1519
1.26165
0.584175
0.610755
0.984651
0.735492
0.782737
1.08099
0.436487
-0.100354
1.02862
-9.64014
-23.853
-27.3695
-13.2379
-17.4754
-1.90375
-1.05255
-2.42415
-3.58113
0.62947
-5.82347
-1.53655
-4.38865
-0.0251096
-15.3493
-13.5142
-29.6807
-23.9664
-4.19358
-9.68133
2.00309
-1.75775
-36.7054
-35.4586
-6.08126
-2.45726
-1.31498
-1.33828
-14.265
-9.60481
1.08314
0.0952404
-3.65581
-2.47868
-0.0566557
0.264541
0.0915592
0.132174
1.23217
-0.364558
0.883445
-0.930334
-0.789374
-0.596182
0.757657
0.575957
0.241125
0.452632
0.822371
0.459945
-32.0426
-29.8117
-4.29346
0.757176
-0.0412318
1.45272
-18.9835
-31.6008
1.70835
-4.2368
-26.7739
-4.56173
-29.9417
-33.6725
-10.9296
-15.6461
-31.3834
0.381692
-33.19
-34.4729
-3.92961
-8.05214
-0.419843
0.430621
-4.24789
-3.17372
-9.6539
-3.76618
0.591974
2.65429
-4.15452
-4.2784
-7.06148
-2.05822
0.177408
-32.5386
-31.4864
-32.7081
-34.529
-30.1992
-31.8338
0.538611
1.5995
-0.43255
-15.2121
-28.321
-34.1069
-11.7717
-27.4906
-32.4768
-33.9107
-31.7014
-3.49703
-43.1208
-33.9732
-14.8861
-3.25519
-4.28883
-30.7885
-7.47683
-2.1963
0.0976285
-0.494951
-2.15779
-2.27576
-0.847053
-1.03491
0.0349398
-3.47732
1.07783
0.307897
-11.1067
-3.00744
0.675487
-0.920103
-31.9218
0.878676
-0.966238
-1.83142
-0.24292
-4.8643
-2.79515
-2.05803
-0.112458
-30.8728
0.116716
-1.76453
-1.05025
-1.34068
-1.61796
-1.59782
0.105251
0.274322
-0.873702
0.0896607
-2.51098
-2.46044
-1.87743
-2.74114
-0.96173
-2.12172
-1.97375
0.421542
0.413871
0.369628
0.642178
0.387274
0.25682
-32.7722
-33.4867
-33.1443
-1.70153
-41.0638
-37.0476
-4.19884
-13.7791
-36.1857
-32.5255
-35.8583
-37.5918
-31.2873
-31.9077
-30.788
-31.2274
-30.4154
-28.8112
-28.6885
-35.9533
-40.2969
-0.395053
-39.9468
-5.28075
-2.35478
-2.16745
-2.90445
-2.74807
-2.95032
-3.03406
-2.16133
-1.72219
-1.78605
-1.17041
-38.628
-37.6097
-30.8902
-0.975652
-4.12235
-6.11563
-1.41737
-1.50177
-0.765265
-1.48741
-6.35274
-7.9611
-8.91966
-0.870679
-28.7139
-35.7778
-38.2295
-2.28202
-2.43493
-0.703683
-38.9692
0.480493
0.264433
0.528511
0.906331
1.72239
-0.330282
0.495743
0.413505
0.9601
0.251995
0.37539
0.2972
0.405459
0.414595
0.625201
0.271471
0.66929
0.452767
-0.593608
0.0116182
0.0739351
0.38014
0.548365
0.349259
0.505084
0.559353
-2.55518
0.849392
0.724083
0.298658
0.495839
-3.61416
0.657536
0.882265
0.778098
2.02848
-1.00872
-5.15645
-3.48476
0.0947901
-1.51465
0.383732
0.172286
-1.84559
-2.28594
-1.17477
1.02979
-2.91155
1.06472
0.620807
1.39063
-21.2399
-0.269264
1.33864
-1.00119
1.15107
0.834745
0.709278
0.434313
0.381964
0.50929
0.734161
0.212991
0.217669
0.0758542
0.117666
0.373441
0.435675
-8.28356
0.00841952
0.646254
0.445914
-0.70751
0.346768
-0.46096
-1.1424
-1.96094
0.635182
-15.6938
-9.94725
0.333143
-1.45089
-1.97501
-0.857984
-0.187614
-0.301175
0.785722
1.23935
0.496973
-0.28206
-0.00267067
-4.33048
-1.8572
-1.37951
-1.78221
-5.2288
-0.500688
0.104787
0.135656
0.3906
0.414022
0.619434
-0.318611
0.653385
0.855026
-0.0948469
0.237539
-5.73212
-4.7729
0.0166625
-0.354293
-0.444392
-0.0608886
0.0385863
-0.150369
0.646274
0.488565
0.441217
-0.305404
-5.09208
-0.529812
0.835406
0.240352
-0.474809
0.908815
1.00904
0.985014
0.749432
0.730438
0.534822
0.905016
0.701062
0.656888
0.209235
0.215352
0.668967
-0.127361
-0.0654522
0.273707
0.757129
0.134425
0.401883
-2.16331
-2.65217
0.174902
-1.54326
-1.75622
-1.88576
-1.92993
0.856978
0.349068
0.170702
0.502838
0.41907
0.135246
-1.45001
0.538142
-0.713963
-3.74764
-0.343008
-12.3891
-0.274993
0.0417271
-1.43363
-2.65367
-3.22998
0.962838
0.641041
0.863493
0.884705
0.966446
0.637926
0.840391
-10.1573
-0.152085
-4.87844
-7.94275
-0.521284
-0.444952
-39.2071
-39.9653
-31.1941
0.257721
0.266175
-31.0272
0.154343
-31.6098
-36.8302
-8.94804
-32.4819
0.868906
1.34393
-18.5021
-4.60006
0.674224
0.774709
0.206198
-3.89746
-0.851343
0.336577
0.303273
0.409685
0.336053
-0.633755
-0.897226
-31.4237
-1.02867
-2.4442
-2.32633
-31.9829
-32.7604
-22.3179
-32.2663
-34.2053
-2.30803
-33.1132
0.0375042
-1.10256
-31.154
-33.6595
-33.3597
-31.7869
-0.526103
-0.952108
-0.482031
-1.08906
-0.680011
0.263803
-0.0591522
0.414882
-0.0916398
0.370951
0.439176
0.499415
0.351256
-1.94114
-5.26184
0.45953
0.182973
-31.4923
-1.05933
-0.233975
0.260714
-0.634242
0.538596
-1.08943
0.956703
1.06209
0.436515
1.72131
-31.3785
0.159829
-31.4236
-7.75697
-17.0289
-31.3863
-31.675
0.733161
-31.7153
-2.01843
0.619604
-33.1505
0.583116
0.360312
0.593066