/*--------------------------------*- C++ -*----------------------------------*\
| =========                 |                                                 |
| \\      /  F ield         | OpenFOAM: The Open Source CFD Toolbox           |
|  \\    /   O peration     | Version:  2506                                  |
|   \\  /    A nd           | Website:  www.openfoam.com                      |
|    \\/     M anipulation  |                                                 |
\*---------------------------------------------------------------------------*/
FoamFile
{
    version     2.0;
    format      ascii;
    arch        "LSB;label=32;scalar=64";
    class       volVectorField;
    location    "0.0948794";
    object      U;
}
// * * * * * * * * * * * * * * * * * * * * * * * * * * * * * * * * * * * * * //

dimensions      [0 1 -1 0 0 0 0];

internalField   nonuniform List<vector> 
3946
(
(10.4285 0.250752 -0.0012675)
(10.2422 -0.311237 -0.0050664)
(11.2673 -0.107763 -0.169894)
(10.1973 0.084326 0.014972)
(9.91166 0.310162 -0.0369602)
(8.49311 -0.0781196 -0.0844834)
(9.98386 0.153441 -0.0186169)
(10.1975 -0.121855 0.00144777)
(10.0591 0.0897402 -0.00125066)
(10.4062 -0.227646 0.0247543)
(9.08395 -0.0228725 -0.115104)
(10.2739 0.175482 0.0120308)
(11.0202 -0.446554 -1.53997)
(10.1841 -0.0500718 0.0211869)
(10.1881 -0.0125767 -0.00206897)
(10.5769 -0.318859 -0.023607)
(10.3335 -0.0589541 0.00179899)
(10.2815 0.389657 0.0870309)
(10.3082 -0.0919024 -0.00548473)
(8.05685 -0.188135 -0.445605)
(10.4676 -0.0185518 -0.0320441)
(10.5558 -0.0557062 -0.0289102)
(10.395 -0.103788 -0.00429342)
(9.98641 0.0198288 0.0100087)
(10.865 0.220762 -0.0667842)
(10.0087 0.131073 0.0220234)
(10.2394 -0.0708091 0.0128494)
(10.415 -0.0291349 0.0166051)
(10.1024 -0.212949 0.0404192)
(10.2661 0.239769 0.0978559)
(8.49442 0.538881 -0.454274)
(10.4836 -0.175487 -0.00882833)
(9.97231 -0.0515143 0.0131231)
(10.5115 -0.077467 -0.0219562)
(10.7191 -0.313359 -0.149072)
(10.3967 0.206565 0.00579654)
(9.87002 -0.293736 -0.0371009)
(10.2398 0.171945 0.0488677)
(10.3723 -0.154022 0.0226342)
(10.4084 -0.0393792 0.00164965)
(10.2216 0.0651461 0.0222371)
(10.2155 0.150692 0.0264664)
(10.1688 -0.0537012 0.0082234)
(10.9482 0.35852 -0.149794)
(10.0095 -0.0631035 -0.00323229)
(10.124 0.110106 0.0114124)
(10.2635 -0.31494 0.01422)
(9.91771 -0.313001 -0.049456)
(10.3619 0.157815 0.00205737)
(10.1753 0.0297529 0.0282153)
(10.2288 0.163389 0.0443968)
(10.1715 0.0241857 0.0401923)
(10.4153 -0.0958324 0.0110079)
(10.2238 -0.203601 0.0463435)
(9.85049 0.205109 -0.0150135)
(9.76354 0.19633 -0.132427)
(10.1607 -0.261967 0.0656747)
(9.83785 -0.166025 -0.0578358)
(9.91846 0.051504 0.0297291)
(10.2859 0.144682 0.038055)
(8.8802 0.259184 -0.168284)
(-0.118611 1.68489 0.347614)
(9.46899 0.185031 -0.0371268)
(10.1136 -0.134493 0.0253117)
(9.71082 0.074281 -0.219566)
(-0.0457353 1.6089 0.236185)
(-0.201913 1.52079 0.318279)
(0.00519312 1.68633 0.25175)
(0.00967603 1.70102 0.324434)
(11.3115 0.271334 -0.638344)
(9.98249 0.43023 -0.081443)
(10.1954 0.387967 -0.137591)
(7.99611 -0.454614 0.960996)
(10.1464 -0.200994 0.0133205)
(8.17016 0.0906018 1.57425)
(10.1185 0.0797779 -0.00258014)
(10.3292 -0.190777 0.0494606)
(10.2236 0.0388087 0.0341459)
(10.1314 0.110972 0.0289475)
(10.5697 0.0477492 -0.0245817)
(-0.114993 1.58706 0.549161)
(11.9982 -0.106589 0.639728)
(9.95488 -0.0737371 0.0654625)
(9.882 0.165509 0.0144707)
(10.253 -0.0506021 0.0177526)
(-0.358228 1.00178 0.0895915)
(10.4739 -1.69597 -0.951579)
(-0.213215 1.64885 0.328995)
(-0.199678 1.45256 0.706699)
(-0.37723 1.4815 0.694496)
(-0.956904 -0.71044 0.588122)
(-1.12117 0.913422 0.453561)
(10.7545 0.170219 -0.00964178)
(9.91413 -0.00688516 -0.00425986)
(9.91277 -0.0187265 -0.00176817)
(9.9622 -0.0183273 -0.0100224)
(10.4069 0.135311 -0.0151056)
(10.0733 -0.0333714 0.00807362)
(10.8099 0.0483478 -0.0126331)
(10.1023 0.165557 0.0434257)
(10.7279 0.270055 -0.00176644)
(10.0196 -0.0185659 -0.0115608)
(10.0761 -0.0259458 0.0103489)
(-1.4594 1.09788 0.296383)
(10.0863 -0.0199417 0.0158388)
(9.8925 -0.0241659 0.0063531)
(0.151795 1.3561 0.553897)
(10.9853 -0.190928 -0.213383)
(10.2443 0.0443403 0.00798932)
(10.2536 0.0444051 0.0175838)
(12.0649 -0.47724 0.0915004)
(10.3451 -0.0225319 -0.0119822)
(10.3884 -0.051125 -0.00196039)
(10.1855 -0.0141552 0.00630683)
(10.2669 -0.0204496 -0.0025079)
(10.4252 -0.054779 0.00254345)
(11.6145 -0.177328 1.46179)
(11.1261 0.214903 -0.213828)
(-0.163374 1.50928 0.283014)
(-0.308328 1.56078 0.388872)
(10.6519 -0.246889 -0.182725)
(9.93128 -0.00265903 0.0168921)
(9.69374 0.110507 -0.124605)
(10.0687 0.949704 -0.749808)
(10.5051 -0.302828 -0.0309522)
(10.8473 0.134355 -0.405454)
(3.46229 0.379847 0.521189)
(11.6519 -1.17569 -0.19314)
(9.94925 -0.122016 -0.0422784)
(9.3688 -0.277357 0.0427725)
(10.1101 -0.0114736 0.0988585)
(9.0172 -1.37055 2.00701)
(9.27333 -0.444582 -0.114683)
(10.2512 -0.0681019 0.413928)
(10.2909 -0.0530324 0.231361)
(2.75641 0.150872 -0.0807128)
(10.498 -0.0335648 -0.0244718)
(-0.0644734 0.344861 -0.391862)
(10.0045 -0.824655 -0.426877)
(-1.60436 2.20156 1.04506)
(10.384 -0.44371 0.639793)
(-2.08495 0.332406 0.397238)
(-0.906396 -0.228556 0.272287)
(10.4139 0.255808 0.0537742)
(11.8988 -0.7261 0.129841)
(9.94207 -0.046439 0.022041)
(9.93905 0.120176 0.0345887)
(10.031 0.721474 -0.410265)
(10.0371 -0.0599797 0.0189774)
(10.1993 -0.0496682 0.0124439)
(9.99762 -0.0518349 0.0270762)
(9.93074 -0.0318196 0.0137373)
(9.96035 -0.049819 0.0223157)
(10.0863 0.124904 0.0215265)
(10.4072 0.183114 0.0184215)
(10.0234 0.178605 0.0213912)
(10.0074 -0.0756001 0.0658836)
(9.992 0.184404 0.00322949)
(10.4934 -0.0584427 -0.41577)
(10.8068 0.0479382 -0.0366043)
(10.6892 0.28441 0.072394)
(11.119 0.319234 -0.0985461)
(9.96202 -0.577001 0.36772)
(10.1023 0.153495 -0.00899553)
(9.95588 0.123145 0.0297173)
(10.1015 0.0438627 0.00993334)
(10.143 0.0519769 0.0127458)
(10.1327 0.211607 0.000978046)
(10.1794 0.0420187 0.00961057)
(-1.00349 -0.403345 -0.577394)
(10.458 0.0179489 0.0169633)
(3.21939 0.755804 -0.392351)
(10.1687 0.0423767 0.00750289)
(10.1102 0.0313395 0.0147866)
(10.3773 -0.111104 0.0226205)
(10.0969 0.0369093 0.0166885)
(10.0602 0.230124 -0.0220426)
(10.0515 0.145006 -0.00257462)
(11.6343 -0.512475 -0.109228)
(10.308 -0.237377 -0.0106773)
(9.77087 0.0474584 0.0631482)
(9.80858 0.146997 -0.0527772)
(9.57182 0.231759 -0.298396)
(10.6829 -0.170905 -0.0296741)
(10.6153 0.0689203 -0.0001805)
(10.5821 0.0471753 -0.00549191)
(9.95956 0.345454 -0.0531179)
(10.2822 -0.0628394 -0.0185062)
(9.43337 0.66731 -0.510859)
(10.0117 -0.13552 0.0329542)
(5.90738 0.234123 0.5779)
(10.5423 -0.0875479 -0.0156445)
(-0.667205 1.36948 0.181862)
(10.2131 0.144168 0.0350523)
(-0.233907 1.36497 0.377494)
(-0.173904 1.35215 0.445408)
(-0.115858 1.37882 0.64018)
(8.73977 0.441553 -0.345668)
(9.93976 0.112595 0.00958049)
(9.85024 0.15866 -0.0135862)
(9.841 0.0136662 0.0886229)
(9.87583 0.198088 0.31055)
(9.33063 0.242193 -0.108936)
(9.47289 0.289023 -0.124934)
(9.99795 0.0691487 0.0359885)
(10.4817 -0.253169 -0.0177176)
(10.4884 0.233375 0.105238)
(10.636 0.10835 0.322417)
(10.3103 0.195271 0.0550344)
(10.5147 0.0701706 0.00675824)
(10.6314 0.0627953 0.00522603)
(10.5349 0.265017 0.106519)
(6.73879 -0.615495 0.125206)
(7.6996 -0.491476 1.00963)
(5.98165 0.403283 1.35086)
(9.6142 1.02546 -0.694015)
(7.82365 -0.438488 0.712623)
(10.9354 -0.0432208 -0.317686)
(8.28724 -0.310105 -0.297283)
(8.7337 -0.0462564 -0.050867)
(-0.926293 -0.322562 0.127398)
(-0.0810967 1.42592 0.228118)
(10.4706 0.0372246 0.00797029)
(9.85965 0.0980553 0.0429594)
(10.77 0.161531 -0.0164427)
(-0.0552138 1.48827 0.205577)
(0.00599613 1.29585 0.234051)
(10.3221 0.464074 1.00444)
(9.71619 0.313459 0.769014)
(0.103697 0.801937 0.254724)
(11.5537 0.0197694 0.435392)
(11.1026 0.25298 -0.18855)
(9.63565 0.00259909 0.350856)
(9.87548 -1.13149 -0.365685)
(10.1196 -0.247152 0.0521845)
(10.1494 -0.036928 0.0160441)
(10.3812 -0.0898964 0.0157578)
(10.1532 -0.0395046 0.00373815)
(10.1027 -0.0343476 0.00389075)
(10.3458 -0.0766064 0.0169817)
(9.83397 -0.11549 0.0245347)
(-0.324797 1.54778 0.407123)
(-0.391264 1.19183 0.296538)
(0.166146 1.29024 -3.00824)
(10.1561 -0.0244612 0.0116142)
(10.2866 -0.0976279 -0.00554668)
(10.1178 -0.00433091 0.00770587)
(10.2256 -0.0532324 -0.0122983)
(11.3011 -0.0583442 -0.233033)
(10.126 -0.0197328 0.00930223)
(10.3166 -0.0922345 -0.00877941)
(-0.402048 1.15362 -0.0939304)
(10.7876 0.0338049 -0.0092234)
(10.7915 0.0157437 -0.0055795)
(10.3349 -0.196697 -0.0180944)
(10.5688 0.253177 0.302224)
(10.462 -0.0467474 -0.00921105)
(11.1133 0.303995 0.0836381)
(10.3018 -0.0414644 -0.0272171)
(10.2484 -0.0884989 0.0023698)
(2.17527 2.67842 1.38642)
(-0.523304 0.828629 0.0891814)
(-1.29202 0.407432 0.242773)
(9.92256 0.0059117 0.000590665)
(9.8957 0.0119699 0.010627)
(10.0667 -0.0291322 0.00846739)
(9.92421 -0.0281954 -0.0134762)
(9.91328 -8.41256e-05 0.0120512)
(9.86015 0.00299471 0.00360759)
(10.0298 -0.0197777 0.0130624)
(10.1819 0.0758684 -0.0139209)
(10.1453 0.0693184 -0.018689)
(10.3157 0.076018 0.0281909)
(10.8239 0.0968822 -0.011899)
(10.8489 0.112702 -0.0153866)
(10.9027 0.108234 -0.00950566)
(10.9272 0.0953753 -0.00588658)
(10.7587 0.0637373 0.0156447)
(10.7049 0.0548936 0.0260103)
(10.0754 -0.0511331 0.0032717)
(10.049 -0.0618687 0.0116453)
(10.0864 -0.0345103 0.0109776)
(10.5481 -0.384098 -0.0976352)
(10.4123 -0.0255045 -0.0238107)
(10.4686 -0.0501925 -0.0210239)
(10.3489 0.0746013 -0.0111066)
(10.4699 0.0693631 0.000550661)
(11.057 -0.107188 -0.243807)
(10.3275 -0.0651358 -0.0123808)
(10.4243 0.0692551 0.0242451)
(10.3202 0.0514125 0.0330582)
(10.379 0.0404785 0.0326197)
(9.4506 -0.332714 0.566393)
(10.5533 -0.0397868 -0.030247)
(10.5122 -0.162908 -0.0073361)
(9.96938 -0.0371896 0.0268541)
(10.0057 0.0528872 -0.00701168)
(9.9692 0.0513816 -0.0157037)
(9.04378 -0.832783 -0.64551)
(-0.0350654 1.57375 0.285057)
(9.07488 0.62585 -0.347092)
(-0.0656198 1.52809 0.227513)
(-0.0273968 1.56423 0.235762)
(-0.138599 1.49289 0.6599)
(9.81454 -0.228703 -0.0151491)
(11.0912 0.0818035 -0.135952)
(-2.63817 0.473427 0.439068)
(2.38245 0.303846 -1.43127)
(10.7954 -0.08106 -0.164675)
(-0.631855 -1.19851 0.426192)
(-0.575999 -0.887192 0.837847)
(-0.0910339 1.61336 0.34671)
(-0.337638 1.57141 0.0765759)
(-0.231034 1.59741 0.0254073)
(10.1915 0.102084 0.0232094)
(5.31035 0.660617 0.694855)
(10.4979 0.0699188 0.0211671)
(10.5297 0.0198083 0.00725671)
(10.5557 0.0745275 -0.000292072)
(-3.04265 1.15801 0.344719)
(10.0753 0.047509 0.000361877)
(1.13236 0.212849 -2.22449)
(10.0693 0.0167189 0.0103155)
(10.0416 0.0426672 0.000427714)
(10.5557 0.494741 0.108857)
(10.1213 0.138726 0.0701918)
(10.6527 -0.294292 -0.0361669)
(10.2775 0.00500994 0.865315)
(8.24274 -0.594846 0.0130305)
(9.96329 0.023583 0.0185392)
(10.0036 0.0263963 0.0127623)
(9.80621 0.0252562 0.059578)
(10.1689 -0.0661596 0.0111783)
(-0.812905 0.903684 -1.02606)
(-2.22908 0.241391 0.774421)
(10.1276 -0.146629 0.030744)
(11.2916 -0.484447 -0.422935)
(-1.76093 0.611728 0.854728)
(-0.177005 1.42658 0.0431151)
(-0.945186 1.34433 0.166478)
(11.0796 -0.233044 -0.261991)
(-0.110258 0.978781 0.953853)
(-0.466347 1.17843 0.0664845)
(11.0678 0.244114 0.0446183)
(-1.92503 0.572243 0.420246)
(9.35279 -0.232237 2.0275)
(10.9326 -0.679756 -0.381643)
(10.0055 0.837235 -0.762108)
(-1.33541 4.33424 1.20729)
(-1.65044 1.89671 0.0313624)
(-0.303901 1.03569 0.0261413)
(7.78129 -0.0158569 0.0310198)
(-0.807621 1.24044 0.25528)
(8.89968 1.13565 0.447676)
(-0.354734 1.04071 0.0952401)
(0.0707838 0.808999 0.101071)
(-3.12656 1.85935 0.53509)
(9.76111 0.116475 -0.281773)
(-2.67325 1.13457 0.0683095)
(-0.181816 1.21941 0.082219)
(8.34437 -1.03275 0.0836259)
(0.567188 0.319712 1.49926)
(10.8665 0.262627 0.00945473)
(11.979 -0.0487952 0.551091)
(-1.49789 -0.765249 1.15531)
(-1.71077 2.25657 0.0528581)
(11.3544 -1.06944 -0.67326)
(-1.20752 1.54759 0.142924)
(-2.44095 1.70323 0.119862)
(-1.14601 0.97894 0.749089)
(-1.23661 1.51359 0.292573)
(-2.55269 1.46247 0.3144)
(10.5791 0.0572788 0.00859686)
(8.13766 1.22489 0.40898)
(10.5204 0.407944 0.157275)
(8.35666 1.41067 -0.396441)
(10.0513 0.0103893 0.0113124)
(9.26442 0.363027 -0.223032)
(10.7307 0.204054 1.40254)
(-1.95736 0.531906 1.13427)
(11.1502 0.162256 -0.0111374)
(11.6686 0.0886714 0.618426)
(10.9286 0.066581 -0.039492)
(10.9122 0.389974 -0.524846)
(11.3871 0.240702 -0.693234)
(11.0476 0.2384 -0.21616)
(8.47619 -0.34001 1.8758)
(10.7293 -0.298448 -1.07429)
(7.47963 1.98977 -0.895615)
(10.6218 0.21066 0.377947)
(-0.707564 -1.611 0.465492)
(10.9965 0.248823 -0.100703)
(10.9084 0.171265 -0.0371635)
(-1.25406 0.630483 0.711389)
(11.4782 0.267916 -0.548938)
(-0.316988 0.818264 0.912226)
(10.8098 0.15305 -0.0346012)
(9.55981 -0.113465 2.07036)
(7.58158 1.46246 -1.67331)
(10.9106 0.344015 -0.190167)
(10.599 0.743057 -0.851422)
(9.96798 -0.163324 0.0136767)
(10.9159 0.0851621 -0.0564333)
(10.5051 0.123647 0.0202557)
(10.0482 0.376831 -0.173707)
(10.1625 0.147088 0.026302)
(4.86539 -0.640774 -0.0213375)
(10.7063 0.78285 -0.333587)
(10.3973 0.738911 -0.341324)
(10.9662 0.288001 0.0249369)
(3.54385 2.18701 1.23228)
(10.53 0.65457 -0.0252279)
(7.86618 0.34625 1.42911)
(10.8433 0.174694 -0.0266154)
(10.9904 0.179322 -0.0446395)
(11.0372 0.0744266 -0.0229066)
(9.90636 0.231591 0.0397789)
(10.0739 -0.00992592 -0.00591535)
(1.03158 3.59166 2.03891)
(11.8036 -0.666129 -0.160531)
(10.2225 -0.0806267 0.0139605)
(0.511511 3.35024 1.56455)
(10.0365 0.321061 -0.0103978)
(-2.74794 2.15023 1.30768)
(10.4748 -0.550485 -0.222464)
(10.3428 -0.408081 -0.0255113)
(8.4539 -0.781842 0.0700055)
(10.0486 -0.132504 0.0180216)
(10.4472 -0.309774 0.0551719)
(10.4484 -0.0943013 0.0173212)
(8.90216 0.173677 0.468965)
(9.47194 0.645053 0.832881)
(10.4398 -0.243382 0.032177)
(10.5427 -0.534017 -0.0430345)
(11.5542 -0.885707 -0.416469)
(10.5381 -0.235283 -0.0260824)
(10.1446 -0.0529548 0.00372682)
(9.99678 -0.0475343 -0.000693946)
(11.0009 0.0773356 -0.00686189)
(11.0067 0.425666 0.165225)
(10.9246 0.485828 0.169687)
(10.8806 0.505311 0.173936)
(10.8971 0.504934 0.261628)
(10.9863 0.491426 0.225098)
(10.757 0.445175 0.26176)
(-1.0434 -0.445905 0.621306)
(-3.24354 2.16787 0.507458)
(9.22538 1.55135 0.293877)
(10.8597 0.478169 0.244865)
(10.6296 0.462851 -0.304372)
(10.5733 0.408774 -0.100298)
(10.5536 0.642166 -0.153962)
(10.7004 0.529906 -0.0889302)
(10.713 0.428022 -0.27723)
(10.642 0.358464 -0.0332665)
(10.8151 0.312836 -0.0712773)
(10.9987 0.0663245 -0.00572352)
(10.7434 0.348874 -0.0690666)
(10.5153 0.599576 0.119655)
(10.5393 0.527892 0.134014)
(8.60055 -0.112615 -0.0232294)
(11.1649 0.0215087 0.035648)
(-0.177537 1.49282 0.688896)
(8.86666 -0.174544 -0.0671225)
(-2.05838 0.62816 0.563021)
(-1.88599 0.317026 0.320471)
(8.63484 0.707356 -0.584784)
(10.4576 -0.935388 0.0681103)
(-2.21983 0.0876389 -0.297882)
(11.8665 -0.0506639 1.19397)
(9.92642 0.026406 1.7582)
(5.03615 1.07882 2.01802)
(9.80785 -0.0400433 -0.0416105)
(9.84359 -0.159978 -0.0396398)
(9.77247 -0.229432 -0.116715)
(9.81811 -0.186726 -0.094235)
(9.76561 0.261908 -1.42552)
(10.8993 0.205414 -0.0424182)
(11.2609 0.289388 -0.280451)
(10.9744 0.0346679 -0.00946394)
(-1.69273 1.53559 0.243163)
(0.372857 1.06428 -0.524507)
(1.22586 -0.512082 0.609124)
(10.6673 0.869862 -0.485146)
(10.0913 0.0926924 -0.00959121)
(9.63916 -0.38954 -0.26009)
(11.639 0.471795 -0.154537)
(10.667 0.359429 -0.0601284)
(10.4541 0.710832 -0.447379)
(10.311 0.83797 -0.4429)
(9.86103 0.878698 -0.772809)
(10.3204 -0.383735 -0.142221)
(10.0075 0.531506 -0.836174)
(9.47262 -0.563268 -0.411285)
(10.1748 0.764993 -0.116359)
(10.5716 0.68189 -0.0354942)
(10.2011 -0.470007 -0.0743574)
(10.9161 0.148398 -0.0337981)
(10.2352 -0.374845 -0.11658)
(10.0181 -0.365307 -0.0739151)
(11.1075 0.205941 -0.0117103)
(10.9518 0.0655977 -0.0389308)
(9.73758 0.183346 -0.0292738)
(9.69665 0.0757205 -0.0478304)
(9.75507 0.193786 -0.0557054)
(11.0114 0.37903 0.0973554)
(11.0749 0.355923 0.0859261)
(-0.924177 0.547136 -0.293368)
(-0.0673597 1.52333 0.950715)
(10.111 -0.182276 -0.00753646)
(-0.194699 1.15863 1.12915)
(-0.461593 1.19823 -0.0188448)
(10.1825 -0.194122 -0.00230564)
(5.70588 -0.421674 0.468937)
(12.0022 -0.667167 0.0776822)
(-2.73281 2.96921 1.14623)
(10.7147 -0.899478 -0.975663)
(9.10392 0.200339 -1.15464)
(11.3811 -0.158911 -0.340044)
(9.79163 -0.0223759 -0.0267503)
(10.4369 0.0601613 0.0187419)
(11.079 0.100003 -0.0110687)
(10.9345 0.138087 -0.00198418)
(10.9061 0.136278 -0.0201228)
(11.0241 0.187661 0.00339938)
(10.6816 0.348378 0.127041)
(10.5048 0.427746 0.390423)
(10.4235 0.50395 0.548465)
(10.7969 -0.140415 -1.69681)
(-1.76393 0.872943 0.474109)
(-0.158664 1.24205 -0.174421)
(-1.28672 3.19362 0.52137)
(10.8996 0.236912 -0.0986126)
(4.0487 0.563973 0.386571)
(-0.883652 1.44647 0.280589)
(4.33745 0.317822 1.47537)
(9.76436 0.208866 -0.0851161)
(10.1318 0.0298289 0.0290477)
(10.6504 0.0563904 0.00998188)
(10.1727 0.252764 0.0840223)
(10.8576 0.143276 -0.026291)
(10.7227 0.216459 0.00905086)
(11.385 -0.00711318 0.214255)
(10.0106 0.190327 0.00121777)
(10.3241 0.161821 0.049279)
(10.3888 -0.0636126 0.00714141)
(10.3309 -0.121816 0.18102)
(9.95691 0.0613384 0.0583007)
(10.1138 -0.0456638 0.00661639)
(9.93548 0.131798 0.0188188)
(10.1533 0.0689365 0.0343711)
(10.1215 0.0602076 0.0197788)
(10.1244 0.158599 0.00036377)
(9.80903 0.012854 0.119575)
(10.1493 -0.060552 0.00565714)
(10.1754 0.132175 0.0265014)
(10.1304 0.0618838 0.0173191)
(10.8999 0.359087 0.254417)
(9.93352 0.132581 0.0111613)
(9.95847 0.111297 -0.00931476)
(10.2947 -0.0739067 0.00309271)
(10.3171 -0.214187 0.0455018)
(7.78003 0.188816 1.23507)
(10.4413 -0.163316 0.0210671)
(10.2199 -0.164151 0.0390895)
(10.2157 -0.0941847 0.0211193)
(7.51817 0.826392 1.76758)
(10.1037 -0.122803 0.015519)
(10.1716 0.0863375 0.0207991)
(-2.0593 -0.733861 1.16173)
(9.809 0.197058 -0.0422172)
(9.88419 -0.202475 0.0404754)
(10.4585 -0.219269 0.0152243)
(10.2515 -0.219368 0.0537112)
(10.2774 -0.0396616 0.0170976)
(9.93054 0.0849932 0.0556156)
(10.0334 0.153876 0.0186945)
(9.75857 0.0279254 0.0537549)
(10.3096 0.232817 0.0269663)
(9.30008 -0.470726 -0.158154)
(9.53138 0.358893 -0.501204)
(9.82841 0.0321386 0.0668521)
(8.53703 0.174719 -0.129455)
(8.43847 -0.603357 -0.609116)
(9.93989 -0.100288 0.0279231)
(9.79249 -0.0880962 -0.0707965)
(10.2616 -0.195276 0.0500844)
(9.42262 -0.420751 -0.120715)
(7.9008 0.209798 -0.256076)
(10.4084 0.416225 0.155159)
(9.88066 0.11483 0.00188887)
(10.124 0.237859 0.0232832)
(9.95057 0.129063 0.0177767)
(9.91277 0.23223 -0.0367259)
(9.51189 0.121283 -0.385629)
(9.66369 1.07061 -0.659028)
(9.8015 0.00780963 0.101354)
(10.1782 -0.155706 0.0849336)
(9.88164 0.169334 0.0346589)
(11.7713 -0.682896 0.229293)
(10.0093 0.148036 0.0353469)
(10.1217 -0.132644 -0.016857)
(10.2257 -0.204135 -0.513153)
(10.5908 -0.456878 0.807302)
(9.99255 -0.105224 0.0287821)
(10.1149 0.158145 0.0127785)
(11.0369 0.0437357 -0.0262228)
(10.2783 0.370049 0.139537)
(11.0554 0.10229 -0.0619678)
(10.203 0.477402 -0.026302)
(9.69283 0.0503586 -0.108947)
(8.45724 0.021782 -0.749242)
(11.0416 -0.156963 -0.284928)
(9.28197 0.941087 -0.719785)
(5.93904 1.3317 1.19881)
(10.2488 -0.0342482 -0.0246689)
(10.1181 -0.445337 0.0599009)
(10.5678 0.272017 0.0169869)
(9.95509 0.0265199 -0.000867433)
(10.173 0.039815 0.028236)
(9.94292 -0.0238257 0.00505626)
(-2.88248 1.22786 -0.193855)
(-2.3285 1.38306 -0.209769)
(-1.75849 0.828968 -0.280202)
(10.5864 0.146091 -0.00665716)
(10.998 0.294812 -0.331577)
(8.60346 0.00744162 0.23077)
(10.0996 0.0996546 0.0108378)
(9.87002 0.271585 -0.0291865)
(9.87715 -0.320758 -0.521387)
(9.74929 0.0349938 -0.0281434)
(10.0078 0.0187292 0.0119727)
(7.64696 -0.950279 -1.05939)
(7.76098 -1.80253 -1.28561)
(0.842788 0.683747 0.813179)
(5.74284 -1.67593 -0.276448)
(10.1358 0.0850938 -0.00123389)
(4.13258 0.163249 -0.143505)
(10.1138 0.0398301 0.0152199)
(8.15826 -1.40328 -1.24588)
(10.0162 0.0490786 -0.0060702)
(10.1993 -1.06042 -1.08168)
(10.2575 -0.141 0.0143638)
(10.5511 -0.102137 0.00195162)
(10.7284 0.0842272 -0.0162042)
(10.4457 0.50915 0.0634513)
(9.80264 -0.100732 0.0689391)
(7.96384 1.80586 0.669322)
(11.2256 -0.0261235 -0.19951)
(10.2334 0.0478168 -0.000870735)
(10.3204 -0.0683621 0.016805)
(10.0751 0.268364 -0.00886208)
(10.1914 -0.208145 0.00486379)
(10.1327 -0.0847114 -0.00575057)
(10.2205 -0.020302 -0.00717967)
(10.0373 0.238162 -0.00343005)
(10.1011 0.342761 -0.00174268)
(10.5631 -0.399244 -0.173919)
(10.0222 -0.155703 0.0176596)
(10.5931 -0.175955 -0.00302001)
(10.4423 -0.18884 -0.0163502)
(11.3843 -0.315827 -0.455708)
(10.388 -0.0451938 -0.0194766)
(10.1491 0.113413 0.0129239)
(9.88317 0.202468 -0.0152095)
(10.1132 -0.392147 -0.0371656)
(11.105 -0.137483 -0.765009)
(12.0479 -0.670708 0.14911)
(10.9616 0.101305 -0.0455551)
(9.76563 -0.12319 -0.015439)
(11.1242 0.268596 -0.203011)
(10.5023 0.0607901 0.0140098)
(10.1579 0.0904672 0.0135621)
(-1.55231 1.13572 -0.0298731)
(-1.41663 1.20923 0.101412)
(-0.869045 0.853843 0.679811)
(10.3867 0.233293 0.0499874)
(9.97396 0.164602 1.38932)
(10.1978 0.248996 -0.0155716)
(9.25493 0.242974 -0.352923)
(3.10735 0.565534 1.5609)
(-1.15407 0.51579 0.520222)
(9.98525 -0.246386 -0.00131463)
(-1.32012 0.590193 0.734567)
(10.2598 -0.355259 -0.0260356)
(10.0349 -0.0222839 -0.0123816)
(10.2057 0.221935 0.774663)
(7.73184 0.607299 -0.429351)
(10.7183 0.766761 -0.394014)
(10.795 0.468403 -0.15345)
(10.2871 0.0633025 0.0391964)
(10.1417 -0.342258 -0.0183041)
(8.92913 0.227738 -0.221738)
(9.9481 0.0595946 0.0362759)
(9.14663 -0.276482 -0.209383)
(9.9011 -0.123762 0.00589596)
(9.12285 -0.498074 1.7451)
(0.316714 0.267956 -0.632724)
(10.1261 0.431655 -0.0580432)
(-1.22986 2.10262 1.2475)
(-2.18108 1.13821 -0.0696453)
(10.3795 -0.0961964 -0.00699268)
(10.3011 0.57944 -0.726911)
(10.1843 0.217901 -0.00236885)
(10.2178 -0.251373 0.0101608)
(10.2513 -0.196652 0.0449457)
(10.3567 -0.0326783 0.00147344)
(10.2204 -0.0403352 0.0133193)
(10.5524 -0.398541 -0.0467624)
(10.9117 0.0785581 -0.0392478)
(10.3188 0.0417913 0.0336021)
(9.68263 0.652418 0.984793)
(9.81417 0.0276487 0.0425437)
(9.62277 0.32453 -0.113127)
(10.4489 0.042318 -0.00649231)
(10.0773 0.0623908 0.0198799)
(9.9699 0.022948 0.0876926)
(10.1872 0.0316728 0.00925333)
(9.9108 -0.00236365 0.0416775)
(10.4583 0.0664886 0.0215387)
(10.4019 0.04323 0.0331392)
(9.99608 0.171144 0.00215559)
(10.0926 -0.181593 0.040937)
(10.273 -0.221586 0.0060298)
(10.6681 0.186152 0.258102)
(10.6559 0.205988 -0.0112873)
(9.99848 -0.033255 0.0109612)
(11.4727 0.188885 -0.728667)
(10.0831 -0.152504 0.0124722)
(9.81557 -0.0701092 0.102012)
(10.2711 -0.173777 0.022319)
(8.75493 -0.411289 -0.499972)
(9.88907 -0.217196 0.000464966)
(8.82449 0.671149 -0.0577658)
(10.2032 0.0819306 -0.0238087)
(10.1823 -0.200203 0.0348794)
(9.78767 0.026932 0.0671218)
(11.4054 -0.0154548 -0.771146)
(9.99084 -0.121835 0.0372206)
(10.0012 0.172611 0.0133377)
(9.9648 -0.091287 -0.00113448)
(10.1881 -0.182651 0.0424963)
(10.0905 0.235311 0.0631061)
(11.6789 0.186252 0.000200077)
(11.0557 0.245802 -0.587952)
(10.2154 0.182785 0.0141961)
(10.8559 0.193522 -0.101671)
(11.0592 0.107835 -0.0332433)
(9.8201 -0.161407 0.622283)
(6.91406 0.970951 1.45697)
(-0.317181 1.05375 0.0190169)
(-0.707997 0.844549 -0.43287)
(10.12 0.0455899 0.00864652)
(0.494315 -0.122212 -1.565)
(0.825454 0.481668 -2.21196)
(-2.22486 1.20172 -0.230544)
(0.0514515 0.841113 -0.258658)
(11.2723 0.301722 -0.168314)
(-0.992646 1.31637 0.292755)
(-0.666163 1.21971 0.0392121)
(-2.85917 1.4972 0.601026)
(6.68163 0.87459 2.71347)
(11.0992 0.779098 -0.330249)
(9.62742 0.0238471 -0.0305978)
(11.3663 0.127461 -0.251108)
(10.491 -0.133637 -0.00488094)
(-0.216269 1.48895 0.0652545)
(11.0398 0.101042 0.947792)
(11.4019 0.0350894 1.15277)
(10.6796 0.0654707 1.45409)
(10.3681 -0.0663887 1.48634)
(10.5653 0.683497 0.119426)
(11.2097 0.0622882 -0.572449)
(0.765024 0.371558 -0.402239)
(-0.2984 1.42018 0.37799)
(-1.1661 -0.350573 0.312699)
(-0.259347 1.41773 0.427025)
(-0.424216 1.02793 0.0379335)
(-1.08797 -0.634631 1.23281)
(10.8002 0.652877 -0.129278)
(11.1362 0.209098 0.365348)
(9.73573 0.316612 -0.109873)
(10.2951 0.188422 0.121626)
(10.8538 0.0194566 -0.00847038)
(10.4799 0.229137 0.0636527)
(10.3068 0.373685 0.15755)
(10.531 0.217664 -0.00402405)
(10.0481 0.0276085 0.00928403)
(10.3064 0.114021 -0.0260537)
(10.5093 0.279225 0.137199)
(6.352 -0.793946 2.82288)
(10.0704 0.082597 0.00437808)
(9.8052 0.272268 -0.177223)
(11.1386 -0.183785 -0.144989)
(9.96456 0.103663 0.0241247)
(8.4299 -0.37519 -0.304237)
(9.99668 0.221543 0.00796324)
(9.84131 0.296087 -0.23169)
(11.1485 0.31235 -0.0692385)
(10.5081 0.0427302 0.0126903)
(10.7113 0.755443 -0.460773)
(10.7778 0.21161 -0.035143)
(11.0504 0.382572 0.0297372)
(10.7532 0.0390222 -0.0426751)
(10.5229 0.681575 -0.694559)
(10.5519 0.0860311 0.00323158)
(10.6429 0.4325 0.145838)
(8.82017 0.789435 -0.915893)
(9.27731 0.794732 -1.05377)
(11.4559 0.282305 -0.344062)
(10.1845 -0.0781963 0.0241939)
(9.77452 -0.279134 -0.0900799)
(7.77337 1.75081 0.943822)
(11.2999 0.166415 -0.0689355)
(10.9666 0.47475 -0.347227)
(9.72789 0.203534 0.00639669)
(9.94384 -0.309355 0.000725837)
(5.40929 0.388919 2.13997)
(1.70603 -0.0979594 0.722248)
(4.55458 1.68779 1.07773)
(1.45765 1.56314 1.38236)
(10.8995 -0.127083 0.31317)
(11.0109 0.00700123 0.378518)
(11.1114 0.203654 0.0181124)
(11.2254 -0.0996799 0.366115)
(9.44387 -0.208705 0.931005)
(11.7582 -0.626272 -0.535446)
(10.6581 0.698683 -1.19033)
(9.91049 0.978094 -1.05556)
(11.6031 -0.128145 0.0448174)
(10.8444 0.0172665 -0.00809786)
(10.0292 -0.133129 0.0179321)
(9.40726 -0.156239 -0.00796895)
(10.2259 0.348127 -0.00705189)
(11.2364 0.0318088 -0.66524)
(9.95381 -0.336431 -0.0841443)
(-0.601302 1.02325 0.91218)
(9.88345 0.151398 0.00541421)
(11.3497 0.221501 -0.48645)
(10.378 -0.0548085 -0.0120634)
(-2.40282 0.0514284 0.46506)
(10.962 0.302796 -0.612777)
(10.7047 0.111638 -0.0306857)
(8.12061 -0.422568 1.53085)
(11.0836 0.405799 -0.146611)
(4.53184 0.622853 0.691212)
(-1.17734 1.22395 0.901955)
(8.55862 -1.30995 1.447)
(8.02892 -1.24733 0.307695)
(11.671 0.00725981 0.615141)
(-0.275166 1.5591 -0.660426)
(10.5128 -1.94479 0.109994)
(6.6701 -1.44962 -0.488913)
(10.2676 0.770945 -1.16386)
(-0.382599 1.40584 0.172367)
(-2.29844 0.934666 0.21984)
(7.82766 1.59683 0.51236)
(2.79886 0.041211 0.548875)
(8.54122 1.07372 0.526547)
(10.6429 0.46776 0.0265925)
(11.447 -0.15353 -0.692659)
(10.3903 0.422748 -0.775379)
(10.899 0.780193 -0.380733)
(11.1542 0.153429 -0.13413)
(10.7291 0.0370514 -0.00728812)
(10.5702 0.0685389 0.00337556)
(10.7177 0.164676 -0.016678)
(7.78365 0.815283 -0.47355)
(7.28462 0.00108993 0.0925878)
(10.218 -0.117768 0.0199285)
(11.0857 0.164577 -0.0148119)
(11.069 0.146161 -0.00573356)
(4.44196 1.4551 1.91816)
(3.44229 0.786998 0.981394)
(10.2021 0.0962776 0.0188579)
(10.0366 0.123918 1.08488)
(7.33955 -0.420987 0.00687916)
(10.662 0.0781569 -0.0114923)
(10.3972 0.115775 0.0260317)
(10.2958 0.0820869 0.0216764)
(10.2604 0.211364 0.0712428)
(10.2752 0.228466 0.0274057)
(10.8535 -0.258639 -0.182788)
(10.124 0.297243 0.0615435)
(10.4056 -0.0804815 0.518401)
(10.0037 -0.0617402 1.01823)
(10.5774 -0.110853 0.345664)
(9.81484 -0.242477 0.177451)
(10.012 -0.171954 0.117394)
(9.84261 -0.132163 0.289159)
(8.95568 -0.322137 -0.0469211)
(10.4294 -0.058082 -0.0128505)
(10.4036 0.219104 0.157502)
(10.2432 0.151521 0.0673606)
(10.1711 0.35562 0.232313)
(10.4811 0.618791 -0.612084)
(10.0226 0.133731 0.0171346)
(9.71862 0.386087 0.0488165)
(8.15772 1.40945 0.430756)
(6.75921 2.06282 -0.948777)
(9.01931 1.5897 -0.270406)
(11.178 0.161819 -0.203098)
(10.0416 -0.104787 -0.0117672)
(9.94242 -0.164257 0.136197)
(9.84885 -0.238216 -0.301706)
(9.98775 -0.0390652 0.00690018)
(9.98279 0.170724 -0.00266956)
(10.3111 -0.200326 0.216518)
(-0.710063 0.961285 -1.08186)
(9.93609 -0.145256 -0.022876)
(0.943952 0.759583 1.64468)
(-0.319624 1.06204 0.0596123)
(11.2351 -0.217879 -0.137199)
(5.73873 1.39601 1.34921)
(9.18924 0.433155 1.02641)
(6.56387 -0.00878123 -0.445326)
(6.23242 -0.00130252 0.416092)
(8.58472 -0.63028 1.24427)
(10.6053 0.0281281 0.264657)
(-0.0382435 0.741352 0.416433)
(0.399066 0.0571958 -1.71827)
(4.8466 -0.946534 0.390119)
(-0.179382 1.1905 0.510224)
(10.0874 -0.161129 0.0178349)
(10.0782 -0.172012 0.0333527)
(10.0661 -0.216642 0.0491946)
(2.5883 0.767085 0.0620382)
(10.0674 -0.178838 0.0382279)
(10.0679 -0.150834 0.037224)
(9.79193 0.0533622 0.260923)
(2.21452 0.390368 0.0380174)
(-0.0617537 1.37418 0.856117)
(-2.44956 1.76541 0.82821)
(-2.51516 -0.583286 0.843786)
(-2.69456 0.553207 0.222305)
(-0.185995 1.60603 0.330853)
(10.3831 0.220896 -0.944879)
(3.54654 -0.38852 -0.0535853)
(0.163588 0.195659 -1.45797)
(9.83562 1.01976 0.497351)
(4.08828 -0.0430928 0.0577842)
(0.561507 0.84394 -0.639933)
(9.33986 -0.82332 0.960852)
(0.938974 2.82312 2.37198)
(-0.353819 1.37482 0.380106)
(-0.600449 1.45154 0.182579)
(9.52119 0.336808 0.25917)
(-0.983896 1.3907 -0.127816)
(11.9811 -0.387962 0.0383451)
(0.508015 0.553432 0.470526)
(-0.607667 0.951927 0.233048)
(9.29964 0.364915 1.19947)
(-0.566967 -1.24094 1.05513)
(-1.81277 1.5186 0.172031)
(-2.1343 1.0657 1.01691)
(10.0484 0.271967 0.01112)
(7.10844 0.015309 2.41069)
(-1.34671 1.60291 0.0749455)
(9.91003 -0.242057 -0.00649707)
(11.1205 0.176121 -0.0262541)
(10.7798 0.184924 -0.00526878)
(-1.28788 1.93615 -0.143036)
(7.51593 -0.575846 -0.0845123)
(11.0047 0.193244 0.233925)
(10.4752 0.777539 -0.407026)
(9.94771 1.13435 -0.510711)
(10.2041 0.919777 -0.272865)
(10.8356 0.401038 -0.369458)
(11.1043 0.463556 -0.578883)
(3.01608 1.969 2.04385)
(7.04257 2.15246 -0.618561)
(11.0797 0.341187 -0.638726)
(9.85417 0.770468 -0.861893)
(10.8592 0.432641 0.494461)
(3.989 -0.00295392 0.928837)
(5.85445 -0.138377 1.5675)
(3.2966 0.283881 0.986464)
(4.87621 -0.338621 1.55434)
(0.874797 1.32737 -0.706084)
(0.437943 0.950913 -1.37151)
(11.0211 0.257465 -0.133173)
(6.48537 0.635834 1.87607)
(10.1707 -0.0410045 0.0066106)
(9.12865 -0.007149 2.19985)
(10.2677 -0.266835 1.87953)
(11.7286 -0.588793 -0.155982)
(4.05274 1.35907 1.47636)
(8.26376 1.47183 0.52037)