/*--------------------------------*- C++ -*----------------------------------*\
| =========                 |                                                 |
| \\      /  F ield         | OpenFOAM: The Open Source CFD Toolbox           |
|  \\    /   O peration     | Version:  2506                                  |
|   \\  /    A nd           | Website:  www.openfoam.com                      |
|    \\/     M anipulation  |                                                 |
\*---------------------------------------------------------------------------*/
FoamFile
{
    version     2.0;
    format      ascii;
    arch        "LSB;label=32;scalar=64";
    class       volScalarField;
    location    "0.0100321";
    object      nut;
}
// * * * * * * * * * * * * * * * * * * * * * * * * * * * * * * * * * * * * * //

dimensions      [0 2 -1 0 0 0 0];

internalField   nonuniform List<scalar> 
3926
(
0.00501988
0.00738949
0.00109588
0.000663521
0.000928496
0.0004273
0.000315221
0.000227106
0.00115164
0.000375773
0.000764625
0.00385306
0.0075466
0.00248777
0.00535166
0.00737169
0.00418074
0.00735446
0.00104907
0.00606923
0.000887289
0.000956756
0.00079246
0.00282611
0.0022812
0.00108664
0.000741399
0.000577254
0.000717481
0.00201772
0.00189324
0.0014088
0.00230428
0.00423645
0.00352827
0.00370062
0.000630338
0.00181738
0.00422473
0.00571101
0.000644837
0.000311586
0.0030735
0.00723203
0.00568693
0.000821193
0.00210682
0.00218336
0.000523249
0.00131079
0.000938841
0.000809517
0.00112881
0.000304246
0.00301137
0.0016663
0.000549889
0.000589564
0.00128293
0.000418695
0.00503624
0.002307
0.000187566
0.00127528
0.00110822
0.00105568
0.00102085
0.00106613
0.00139656
0.000450138
0.00087028
0.00754098
0.00173684
0.00708795
0.00566578
0.000328133
0.00434303
0.000588956
0.00122816
0.00474032
0.000994128
0.00128818
0.000566957
0.000656156
0.00440363
0.00413463
0.00534997
0.00297673
0.00136646
0.00345055
0.0053336
0.00124505
0.000863542
0.00146136
0.00183044
0.000428819
0.00489527
0.00467076
0.000766989
0.00251384
0.00102407
0.0014703
0.00152717
0.00219176
0.000537053
0.000682183
0.00234808
0.00218167
0.00199699
0.00217387
0.00110893
0.00130647
0.00180231
0.00133768
0.00725567
0.000807991
0.000994667
0.00747838
0.000295973
0.000417922
0.00715246
0.00713897
0.00528092
0.00162091
0.00187153
0.000998313
0.00214306
0.00193517
0.000782028
0.000951431
0.00128709
0.00216354
0.00209033
0.00264748
0.000527694
0.000221291
0.000399284
0.000319827
0.000274117
0.000939133
0.00456717
0.00712264
0.00140852
0.000844368
0.00231835
0.00086929
0.00122684
0.000630878
0.0017728
0.00140511
0.00108891
0.000958826
0.00143613
0.000931994
0.000853232
0.000583601
0.00126426
0.000552179
0.000890405
0.000621252
0.00132295
0.00165249
0.00151351
0.000818062
0.000569215
0.00210049
0.00327122
0.00756042
0.0033801
0.000658949
0.000385313
0.00528972
0.00689398
0.00534199
0.0017776
0.00290756
0.00165976
0.000674088
0.000522076
0.00147159
0.000209052
0.00560945
0.000479136
0.0040116
0.00743134
0.00115397
0.00129646
0.00228582
0.000901576
0.000864814
0.000514449
0.00178907
0.000665102
0.00319144
0.00210814
0.00529495
0.00297883
0.00202689
0.00247912
0.000295677
0.00121188
0.000264364
0.000532199
0.00218506
0.00203857
0.000599464
0.00344325
0.000300759
0.00157807
0.00726894
0.0074184
0.00267755
0.00114723
0.00452144
0.00505634
0.000922
0.00313509
0.000963641
0.000867662
0.00124267
0.00497421
0.00182571
0.00398499
0.00102806
0.00602882
0.000531909
0.000200621
0.00111702
0.00746386
0.00371644
0.00518233
0.000930332
0.00402534
0.00220757
0.00133666
0.00106265
0.00420477
0.000780381
0.000730855
0.00162729
0.00116426
0.00282648
0.00189401
0.000692189
0.00744567
0.00100758
0.000524016
0.00122105
0.0069456
0.000180105
0.000288387
0.000160949
0.000821409
0.000797636
0.00276926
0.000515746
0.00070627
0.00123099
0.0018205
0.000297223
0.000282399
0.000410502
0.00188082
0.000561492
0.000654766
0.00516846
0.00676607
0.00113966
0.00120215
0.00111803
0.000495293
0.000466351
0.00346127
0.00202642
0.001286
0.000757127
0.0070411
0.00172463
0.00478073
0.00704472
0.000385885
0.000609801
0.00473067
0.00243071
0.00415793
0.0020123
0.000976128
0.00177359
0.000421157
0.000551976
0.000569784
0.00709678
0.00251347
0.00200298
0.00749493
0.000899899
0.00315127
0.00140159
0.00178182
0.000319256
0.000549755
0.000693839
0.00224038
0.000911673
0.00216064
0.00159123
0.000407667
0.00561545
0.0028887
0.000312764
0.000873069
0.000641037
0.000689777
0.00398653
0.00168175
0.00544678
0.00170544
0.00495054
0.00085715
0.00389806
0.00246242
0.00566574
0.000285744
0.000818924
0.000767367
0.00141959
0.00156887
0.000882174
0.000921718
0.0025286
0.00113936
0.00500373
0.00716783
0.0070042
0.00724845
0.0072642
0.00135542
0.000536871
0.00065558
0.000593745
0.000727145
0.00051747
0.00504627
0.00589224
0.00291751
0.00425504
0.000638109
0.000745014
0.000529128
0.000502945
0.000206858
0.000683372
0.00060216
0.000786928
0.000285077
0.00128565
0.000546228
0.000216419
0.00595374
0.00514342
0.0022395
0.00735028
0.00449163
0.00410909
0.00142359
0.000602948
0.00201753
0.00317903
0.00049337
0.00548682
0.00285859
0.00532795
0.000386692
0.00334438
0.00191412
0.00158012
0.00108496
0.00199073
0.000719134
0.00117219
0.0044811
0.00251972
0.00104253
0.00107145
0.00141092
0.00265119
0.000891787
0.0037203
0.00207875
0.00456743
0.000299091
0.00231202
0.000535514
0.00164949
0.00135065
0.00431365
0.0013249
0.00748795
0.000929056
0.00674363
0.00541409
0.00576286
0.00226575
0.00449774
0.000842329
0.000854475
0.00111666
0.00711728
0.00547703
0.00320479
0.00401803
0.000473376
0.000624116
0.000877337
0.0022195
0.00220414
0.0018333
0.00121298
0.0021075
0.00713826
0.0041778
0.00406514
0.00166268
0.000929791
0.00151036
0.00458085
0.00145535
0.00733736
0.00487928
0.00586184
0.00131547
0.00502448
0.00220989
0.00285835
0.00602244
0.00438554
0.0010651
0.00719442
0.000505254
0.0035426
0.00182304
0.000356974
0.000234877
0.00504666
0.00126149
0.000549012
0.000656276
0.00143924
0.00323027
0.00742195
0.000198642
0.00169783
0.00356665
0.00034393
0.00442503
0.00118231
0.00124763
0.00599704
0.00616469
0.00279336
0.00338346
0.000889179
0.00352529
0.00194705
0.00135977
0.00221303
0.00257769
0.000421871
0.00153879
0.00655211
0.00285704
0.00511486
0.00655883
0.00680645
0.00121916
0.000956426
0.00255123
0.00139701
0.0048868
0.000450807
0.000569458
0.00353784
0.00751363
0.00181791
0.00734565
0.00425404
0.000280257
0.000787689
0.00116175
0.000340663
0.00153611
0.000577507
0.00107507
0.00067509
0.00350712
0.00424028
0.00293651
0.00267582
0.000948896
0.000667107
0.0011061
0.00117078
0.00109313
0.000947859
0.000840212
0.00130355
0.00213662
0.00154331
0.00597773
0.00181071
0.00102633
0.000883814
0.000214609
0.001093
0.000719321
0.000636396
0.000255613
0.000824378
0.000159663
0.00104602
0.000310886
0.000326507
0.00132169
0.000460274
0.000179296
0.00114974
0.00105296
0.000827931
0.000796409
0.000708454
0.00449121
0.00456356
0.00222928
0.00725358
0.00166858
0.00148781
0.000501745
0.000509818
0.00285826
0.00500895
0.00308873
0.00180994
0.000401191
0.000844438
0.000659164
0.00119691
0.00197586
0.00578138
0.0059376
0.00511213
0.00538565
0.00468236
0.000565481
0.00607953
0.00455275
0.000379578
0.000842023
0.000616373
0.000422165
0.00105759
0.00226614
0.000919443
0.0050076
0.00324743
0.00258851
0.0027548
0.00109347
0.00106944
0.001378
0.000856613
0.00153321
0.00248182
0.00346605
0.00473167
0.00483681
0.0024984
0.00105599
0.00215923
0.00128042
0.00451787
0.000634903
0.00221857
0.000973604
0.00173835
0.000967264
0.00116586
0.000271585
0.00343207
0.00370198
0.00605964
0.000688474
0.00587062
0.000882995
0.00116992
0.000249208
0.00721075
0.000729278
0.000285896
0.000517792
0.000770014
0.000776504
0.00158237
0.00136946
0.00345212
0.00744581
0.00740586
0.00142213
0.000534616
0.00062799
0.000400563
0.000516964
0.000963428
0.000658393
0.00230792
0.00590195
0.00302417
0.00750775
0.00445828
0.00667983
0.00651819
0.00717097
0.000625477
0.000980363
0.00188908
0.0013091
0.00155039
0.00256229
0.0016999
0.00140354
0.00409025
0.00483183
0.00158284
0.00391281
0.00299714
0.000649083
0.00493543
0.00302981
0.00353614
0.00318077
0.00154197
0.00194184
0.00414678
0.00307523
0.00125235
0.00181805
0.0016232
0.00105981
0.000916894
0.000980257
0.000746581
0.00308161
0.00105826
0.00112689
0.0012833
0.00378844
0.000936439
0.00526605
0.0060504
0.00569107
0.000789048
0.000938579
0.00423405
0.00306054
0.00424931
0.00115802
0.00129748
0.00126944
0.000272551
0.00117385
0.00345962
0.00139014
0.00749505
0.00744894
0.00146212
0.00178532
0.00226594
0.000885844
0.00120238
0.00253392
0.000872363
0.00216405
0.00231046
0.000863198
0.000514961
0.00100024
0.00257182
0.00346155
0.00533753
0.00744682
0.00754471
0.000638027
0.00117251
0.000502154
0.00102924
0.000891998
0.00553075
0.00580148
0.00692594
0.00214519
0.00401377
0.00477553
0.00387384
0.00556059
0.0034135
0.00333864
0.00399876
0.00318635
0.00121756
0.000969523
0.0031848
0.00708076
0.00416373
0.00726947
0.00319641
0.00603717
0.00264748
0.00325007
0.0011036
0.0007354
0.0010055
0.00175891
0.00188517
0.00303599
0.00272493
0.00532951
0.00687026
0.00745172
0.0073935
0.00740588
0.00110978
0.00688537
0.00476477
0.00126296
0.00247359
0.00695904
0.00132715
0.00362102
0.00428281
0.00564924
0.00489396
0.00408567
0.00618477
0.000711008
0.00325279
0.00686949
0.0045918
0.00704871
0.00718964
0.00712802
0.00750732
0.00747818
0.00753767
0.00739875
0.00739007
0.00515449
0.00586646
0.000280594
0.00102103
0.000790176
0.00276119
0.0010751
0.00296799
0.00512142
0.00155758
0.000632536
0.00111604
0.000500974
0.00064038
0.00133203
0.000179873
0.0053111
0.000787048
0.000976454
0.00328671
0.00501125
0.00264335
0.00101576
0.00568267
0.00618879
0.00114987
0.00643209
0.00111653
0.0011475
0.00124934
0.0074771
0.00407598
0.00373463
0.00321687
0.00317633
0.00648421
0.00415111
0.00738308
0.00459549
0.000732034
0.00332518
0.00344288
0.00503059
0.00717423
0.00295297
0.000955366
0.00143543
0.00576546
0.00150701
0.0049831
0.00119864
0.000233312
0.000305884
0.00218784
0.00472228
0.00113875
0.00473949
0.00234226
0.0020935
0.00675846
0.000927084
0.00626915
0.00746815
0.00354746
0.00202704
0.00520405
0.000696179
0.000948879
0.000467834
0.00344383
0.00115367
0.00184475
0.00554134
0.000246579
0.00191337
0.000912886
0.00742248
0.00739522
0.000601129
0.000748156
0.000766693
0.00102731
0.00740256
0.00406539
0.00740201
0.000333658
0.00204554
0.00730432
0.000912771
0.00283838
0.00348593
0.00350546
0.000985175
0.0042819
0.00275791
0.00218112
0.00455109
0.000433132
0.00562556
0.00264234
0.000306338
0.0004725
0.0023454
0.000678634
0.000723087
0.00286359
0.000322752
0.00600769
0.00497644
0.00228426
0.000580868
0.00229259
0.00150151
0.00387178
0.000409863
0.000328549
0.000261584
0.00104796
0.000608153
0.00119505
0.00418739
0.00130313
0.00215444
0.00183992
0.00215662
0.000663706
0.000707523
0.00390066
0.00465018
0.00119245
0.00422386
0.000786404
0.00149576
0.00141384
0.00138918
0.00420453
0.00405045
0.00717643
0.00432652
0.00590196
0.00179091
0.0074739
0.00198515
0.00198327
0.00706731
0.0020962
0.000394454
0.000377167
0.000551049
0.00116711
0.0032634
0.00718139
0.00528336
0.0021975
0.000440151
0.00272943
0.00157182
0.000161342
0.00743536
0.00522767
0.00708075
0.00155439
0.000584445
0.000787548
0.0012003
0.00112229
0.00360254
0.00560093
0.00543311
0.000842555
0.00685056
0.00317976
0.000508198
0.000970764
0.000584768
0.00122424
0.00104642
0.000966724
0.000120181
0.00136733
0.0043684
0.0036164
0.00160102
0.00471263
0.00101719
0.000149925
0.00445067
0.0074713
0.00710686
0.00744355
0.00725435
0.00503408
0.00203436
0.00155441
0.00164249
0.000246623
0.000420625
0.00109198
0.00353323
0.000972164
0.000268362
0.000435702
0.000369654
0.000861449
0.00187252
0.00403824
0.00205982
0.00193234
0.00129735
0.00123882
0.0011927
0.000974744
0.00163273
0.00172029
0.00278839
0.000575077
0.00111118
0.00147609
0.000954312
0.00385847
0.00382032
0.00364167
0.00206398
0.00332593
0.00435662
0.00127261
0.00320318
0.00240864
0.00237342
0.00590081
0.000967288
0.00331234
0.00713603
0.00535448
0.00413254
0.00030476
0.000985118
0.00106564
0.000908433
0.000340286
0.000495484
0.000750227
0.00387813
0.00369168
0.00571593
0.000856404
0.00297411
0.00601365
0.000408562
0.00171861
0.00177633
0.00238723
0.00489693
0.00588493
0.000522912
0.00249647
0.00320605
0.00317751
0.000863851
0.00447481
0.00311961
0.00503931
0.00261797
0.00293108
0.00737965
0.00287179
0.000273966
0.00169961
0.00158941
0.000174086
0.000413859
0.00215665
0.00263722
0.00105884
0.0050338
0.0070909
0.00681458
0.00752506
0.000838815
0.00358999
0.00172538
0.000698482
0.00203523
0.000242171
0.000728799
0.00130679
0.00281756
0.000303132
0.00313886
0.00165222
0.00113685
0.000984243
0.0071536
0.00124164
0.00389789
0.000874819
0.00208405
0.00157057
0.00294872
0.00049672
0.000700168
0.00140498
0.00555437
0.000607923
0.000513599
0.000677035
0.00278012
0.000921034
0.000429236
0.000652353
0.00414765
0.00349312
0.0038229
0.00621522
0.00705633
0.000345702
0.00262391
0.0067082
0.00086352
0.00375334
0.000792239
0.00333393
0.00375099
0.00547918
0.000695935
0.00230784
0.00130565
0.0035171
0.00554612
0.0073067
0.00511288
0.00744809
0.00747531
0.00731901
0.00540588
0.00417372
0.00363977
0.000712713
0.0045475
0.0072411
0.00539317
0.00719482
0.00737538
0.00244134
0.00716614
0.00345146
0.00724881
0.00740541
0.0070812
0.00696778
0.000132333
0.000574717
0.00349768
0.000547566
0.00350954
0.00463548
0.0072509
0.00410406
0.00273631
0.00650615
0.000363477
0.000959486
0.000477971
0.0030088
0.00311976
0.000957944
0.00151046
0.00515479
0.00147159
0.00243553
0.00476412
0.00124938
0.000963907
0.00165699
0.00504458
0.00309501
0.000499984
0.000854443
0.00138783
0.0010178
0.00444738
0.00183948
0.00122666
0.00177669
0.000498573
0.000757189
0.00245238
0.000118451
0.000592144
0.000785766
0.000460036
0.00147688
0.00511741
0.000228635
0.000963756
0.00394934
0.000825474
0.000939078
0.000773387
0.000811724
0.00249787
0.00161996
0.000820394
0.000720585
0.000729577
0.0070675
0.000131963
0.00361814
0.00246524
0.000707549
0.00191309
0.00447285
0.000614801
0.00012675
0.00064882
0.000383012
0.000520764
0.0013054
0.00057038
0.000187574
0.000689013
0.000953909
0.00029428
0.000645231
0.000718698
0.00108535
0.00291999
0.00176626
0.00540284
0.00661204
0.000691908
0.000270269
0.000371206
0.000275282
0.000318269
0.000287079
0.000723851
0.000214379
0.0035278
0.00450676
0.00383451
0.00310071
0.00730351
0.00131628
0.00257588
0.00151918
0.0019984
0.00121128
0.00249472
0.0070906
0.000256017
0.00109049
0.00107017
0.00139557
0.000836782
0.00188189
0.000386558
0.000662234
0.000134518
0.00702137
0.00232873
0.00712455
0.00176362
0.00266425
0.000917175
0.00227609
0.00221309
0.00206003
0.00125063
0.00033322
0.000384974
0.000304815
0.000377168
0.00031909
0.000374125
0.000447738
0.000273305
0.00205046
0.00378853
0.00271043
0.00528867
0.00313952
0.00755276
0.00595555
0.00711307
0.0014171
0.00314416
0.00463915
0.00442562
0.00585052
0.000632378
0.00462784
0.00680798
0.00740621
0.00725813
0.0018847
0.00469145
0.000620885
0.00125292
0.00208639
0.00204356
0.00160891
0.0013313
0.00181571
0.0052753
0.00481901
0.0018244
0.00143518
0.000658
0.000531356
0.00655505
0.00201141
0.00251109
0.00670557
0.00139559
0.00126986
0.00527356
0.00712828
0.00106295
0.0009167
0.00390845
0.000681094
0.00176718
0.0012696
0.00090318
0.00155238
0.000818994
0.00128728
0.00150959
0.00133922
0.00201508
0.00239258
0.00432863
0.00253854
0.000698368
0.000579684
0.00341706
0.00170538
0.00101029
0.00274917
0.00027001
0.000687893
0.00238403
0.000821126
0.00149155
0.000559513
0.00106435
0.000856405
0.000943207
0.000854757
0.000706332
0.00028079
0.00211032
0.00313257
0.00138543
0.00257762
0.000732629
0.00315233
0.00116068
0.00642144
0.00735579
0.00755016
0.00534757
0.000987647
0.00100705
0.00488666
0.00426348
0.00712327
0.00104844
0.00148334
0.000970486
0.00438453
0.00282579
0.000833591
0.00372828
0.00023054
0.000824146
0.000727859
0.000281627
0.000516456
0.000545795
0.00265632
0.00465233
0.00126019
0.00448523
0.00366622
0.00540768
0.00595673
0.00141404
0.00476911
0.00184006
0.000756898
0.0022588
0.000523482
0.000879827
0.00306537
0.00469635
0.00279851
0.00714478
0.00394954
0.001571
0.00389463
0.0023234
0.00297483
0.00224821
0.004283
0.00118796
0.0021037
0.00056199
0.00297211
0.00596901
0.00515813
0.00749775
0.00568998
0.00347417
0.00239864
0.00144978
0.000829302
0.00325562
0.00212902
0.000834543
0.0014218
0.00730221
0.00213132
0.00736379
0.000502662
0.0007984
0.00155431
0.00173001
0.00602879
0.00278826
0.000583427
0.00248798
0.00122285
0.000327457
0.00167331
0.000575109
0.000497714
0.00169947
0.00365175
0.00735436
0.00740901
0.000335004
0.00296576
0.007324
0.00726699
0.00269891
0.00171864
0.00148778
0.00736716
0.00210984
0.00741663
0.000826443
0.000837939
0.000100246
0.00214279
0.00054913
0.00260486
0.000146284
0.00711576
0.0071145
0.00463566
0.00501836
0.00732605
0.00570093
0.00699729
0.00229527
0.00706154
0.00152184
0.00165443
0.00126079
0.0015913
0.000907962
0.00216857
0.00192774
0.00578177
0.00438112
0.000588128
0.00263131
0.00575915
0.00549304
0.000202715
0.000223423
0.00225136
0.000897522
0.000930632
0.00160114
0.00100735
0.000595494
0.000724887
0.00118304
0.00107459
0.000599279
0.00224556
0.000720074
0.00738001
0.00093406
0.000850605
0.000839179
0.000445521
0.000684216
0.00119873
0.0016001
0.00131626
0.000753295
0.00385274
0.00447938
0.0011022
0.000359108
0.000730842
0.00241164
0.00551794
0.00378139
0.00167145
0.00708612
0.00192538
0.00369116
0.00320566
0.000429524
0.000956102
0.0046062
0.000916308
0.0013087
0.000988545
0.000756417
0.00295845
0.00065482
0.000382603
0.00744577
0.0019694
0.00549197
0.0046073
0.00058094
0.00135605
0.000648862
0.00284608
0.00163049
0.00118837
0.00437939
0.00146431
0.00171757
0.00174058
0.00273562
0.00111459
0.000828963
0.00429379
0.0071823
0.00280054
0.0019242
0.00445835
0.000839531
0.00441934
0.00552435
0.000561717
0.000658419
0.00074637
0.00027032
0.00201346
0.0024003
0.00704811
0.00468396
0.00503406
0.00164339
0.00193505
0.00286248
0.000999624
0.00700381
0.00651815
0.00510716
0.00568485
0.00135768
0.0060868
0.00449798
0.00346907
0.0033098
0.00110095
0.00228664
0.000351789
0.0028861
0.00655058
0.00673836
0.00619461
0.0033179
0.00492927
0.00107914
0.000707693
0.000643357
0.00110622
0.000837046
0.000710159
0.00126158
0.00208346
0.00203832
0.00344855
0.000299815
0.00166777
0.00238651
0.000953715
0.00405265
0.000320884
0.00140272
0.00131449
0.00212754
0.00244759
0.000339121
0.00190532
0.00594792
0.00130019
0.00148257
0.000344855
0.00125744
0.00150302
0.000705634
0.00362399
0.000937504
0.00401492
0.000761417
0.000931384
0.000810739
0.00562859
0.000677963
0.0021057
0.000674892
0.00204135
0.000172124
0.000642256
0.000817789
0.00306048
0.00128886
0.000939488
0.000989533
0.000341373
0.00021945
0.00138108
0.00682451
0.000788972
0.000357665
0.00193796
0.00114066
0.000750911
0.000775998
0.000646998
0.00108765
0.00447901
0.00332174
0.00437429
0.000556542
0.000586527
0.0011303
0.00165675
0.000334781
0.00166957
0.000970172
0.00231352
0.00242017
0.00202668
0.00647304
0.00268544
0.000967198
0.00345196
0.00296669
0.00341265
0.00156657
0.00377229
0.00602198
0.00262296
0.00217038
0.00142516
0.00180084
0.00181741
0.000896354
0.000817572
0.00131884
0.000670935
0.000764223
0.000745129
0.000715633
0.00233405
0.00751109
0.0044773
0.00192521
0.00607248
0.00541727
0.00332672
0.000381229
0.000600335
0.000435558
0.00596746
0.000354102
0.00152547
0.000667711
0.000593317
0.00129816
0.000359673
0.000394396
0.000689797
0.00011977
0.000136968
0.000296531
0.000777394
0.000298348
0.00321955
0.00135293
0.00338461
0.00106787
0.00142341
0.000715019
0.00267451
0.00154077
0.00021932
0.000750949
0.00077403
0.00120283
0.00065658
0.000734743
0.000960739
0.000617609
0.00120959
0.000625277
0.00234192
0.000394581
0.00135438
0.00165249
0.00387207
0.000441545
0.00101844
0.00085863
0.000622191
0.00137224
0.000313008
0.000366973
0.000703324
0.000784948
0.000689618
0.000869956
0.00729132
0.000429149
0.00186124
0.00089655
0.00044506
0.00112559
0.000180257
0.00073674
0.000800377
0.00189351
0.00215193
0.00139272
0.00220409
0.00389114
0.00195349
0.00131787
0.00183811
0.000535271
0.000713879
0.00135145
0.000210812
0.000254781
0.000525141
0.000740375
0.00370844
0.00041887
0.000320189
0.000463022
0.000162784
0.00721326
0.00021123
0.000275144
0.000121809
0.00212919
0.00714613
0.000442212
0.00212577
0.00109777
0.000291165
0.000561566
0.0014275
0.00722776
0.00399776
0.00454681
0.00180931
0.00128301
0.00227692
0.00166063
0.00465562
0.00231002
0.00358257
0.000701987
0.000358567
0.000853949
0.000807611
0.000722013
0.00123297
0.0023838
0.00330533
0.00241235
0.002068
0.00135084
0.00120872
0.00123826
0.00148219
0.00133507
0.00111891
0.00608378
0.00736139
0.000593778
0.00344586
0.00747502
0.00118853
0.000140408
0.00221373
0.00103438
0.00396337
0.00136805
0.000695533
0.00068883
0.00544402
0.000668439
0.00747323
0.00742967
0.00121198
0.000785361
0.000232565
0.000527794
0.000446435
0.000456351
0.000544477
0.000581173
0.000269544
0.00206827
0.000981814
0.00106912
0.000896804
0.00119024
0.00041008
0.00702289
0.00701595
0.00350468
0.00595032
0.0065991
0.00274548
0.000754891
0.00403188
0.00131882
0.00722119
0.000847656
0.000801299
0.000167756
0.00102899
0.00114806
0.000722498
0.000716284
0.00162642
0.000704316
0.00129913
0.00158085
0.000384831
0.00345214
0.00124056
0.00150045
0.00431992
0.00461145
0.00441392
0.00118447
0.00154968
0.00252375
0.00130442
0.00110177
0.00447632
0.000465713
0.00132933
0.000563487
0.002304
0.0028243
0.00156836
0.00126639
0.00316033
0.00129162
0.000675932
0.00343302
0.00157112
0.00299518
0.00270687
0.00273354
0.00466708
0.00374866
0.00754485
0.00115095
0.00308679
0.00198186
0.00499774
0.00518671
0.006532
0.00214811
0.00376006
0.000190861
0.00131843
0.00145069
0.000593549
0.0012047
0.00268553
0.00171474
0.00177938
0.00407322
0.00499516
0.00705594
0.00274839
0.0040056
0.00627531
0.00657406
0.00717048
0.00751532
0.00747418
0.00160457
0.000803372
0.0014145
0.00170119
0.00113119
0.00205168
0.000852957
0.000930968
0.000748649
0.00247662
0.00252804
0.000930124
0.000168961
0.000209527
0.000139364
0.000734655
0.00100236
0.000535813
0.0028378
0.00715216
0.00432133
0.00156993
0.00127341
0.00159577
0.0025146
0.00687345
0.00153423
0.000758907
0.00428747
0.00361145
0.00109235
0.00358853
0.00306039
0.000256003
0.00534921
0.00219452
0.0052088
0.00474671
0.00344043
0.00289457
0.000134454
0.00419456
0.000651734
0.000906468
0.00188924
0.00728151
0.00730036
0.00754622
0.000972771
0.00126894
0.00533185
0.00743315
0.00240153
0.00677747
0.00117819
0.00182907
0.0020159
0.000904054
0.00132064
0.00105143
0.00317647
0.00229298
0.000299432
0.000715148
0.000798008
0.000847279
0.000268874
0.00271491
0.00697121
0.00135308
0.00376273
0.000341243
0.00438741
0.00285979
0.00134695
0.00221232
0.000692329
0.00030193
0.00166282
0.00278578
0.00113681
0.00598404
0.0020155
0.000322977
0.00741484
0.0048094
0.00294415
0.00278528
0.00152978
0.00169234
0.000743363
0.00216403
0.00284642
0.00699619
0.00256736
0.00173064
0.000873127
0.00113379
0.000496909
0.00122032
0.0053281
0.00539363
0.00439738
0.000225357
0.000751665
0.000969739
0.00109142
0.000817314
0.000329261
0.000193702
0.00353244
0.000357524
0.000690479
0.000238281
0.000544227
0.00723371
0.0019481
0.00209986
0.00755547
0.00462953
0.00456397
0.00104752
0.00353629
0.00055279
0.00164735
0.000248088
0.000660523
0.00736694
0.00282943
0.00234577
0.0067815
0.00240172
0.00363905
0.00163761
0.000299061
0.000551809
0.000425637
0.000367361
0.00360754
0.00347787
0.00186389
0.0030378
0.00073359
0.000185185
0.000473369
0.00588137
0.00696452
0.00716698
0.00713896
0.00407333
0.00592156
0.00749539
0.00162787
0.00673813
0.00131065
0.00143395
0.00146125
0.0030302
0.00264376
0.0013055
0.000909122
0.000475061
0.000219938
0.000195823
0.00120422
0.000668715
0.00126209
0.000469157
0.00101326
0.00086905
0.00521736
0.00339694
0.000372455
0.0015713
0.00618681
0.00601449
0.00628706
0.00255269
0.000224978
0.000363005
0.00176336
0.00115145
0.000629524
0.000265998
0.000137699
0.00118785
0.000863876
0.00117826
0.00700757
0.00161392
0.00264481
0.00511721
0.00112814
0.00586112
0.00334666
0.00357566
0.00267448
0.00207978
0.00121443
0.000163517
0.000813758
0.00121215
0.000447798
0.000988179
0.000623601
0.00336681
0.00331038
0.00259402
0.0040276
0.000279116
0.00110167
0.000654254
0.00206797
0.00161257
0.00724066
0.00209286
0.00297582
0.0010669
0.00533543
0.00570937
0.00422595
0.00408665
0.00216084
0.000861222
0.0021066
0.00213943
0.000200747
0.00205235
0.000706771
0.00176605
0.00137175
0.00131985
0.0056671
0.00389365
0.00192906
0.00657896
0.00754599
0.00677315
0.00371318
0.00417143
0.0046544
0.00672262
0.00292626
0.00021098
0.000624526
0.00256494
0.000486563
0.000433845
0.000594048
0.000813204
0.00131998
0.000580036
0.000626063
0.000228408
0.00243011
0.000811669
0.000782218
0.000574158
0.000781604
0.000193745
0.00426841
0.000402942
0.00557669
0.00648885
0.00144332
0.00505733
0.00432173
0.00339788
0.00255492
0.00332352
0.000942843
0.00487465
0.000527688
0.000929833
0.000214141
0.00168175
0.00182264
0.00139018
0.000853694
0.00392277
0.00101338
0.000635926
0.000871664
0.00713551
0.00181804
0.00211812
0.00346588
0.00200141
0.00278931
0.00701539
0.00388828
0.00709182
0.00345287
0.000667953
0.00102207
0.00555748
0.00742174
0.00749041
0.0029516
0.00380798
0.00477333
0.000578084
0.000742202
0.000743047
0.00142868
0.00019652
0.000643966
0.00110269
0.00134718
0.000990843
0.000299353
0.0012324
0.000476292
0.00038643
0.000747803
0.00704153
0.00108999
0.000609131
0.000338274
0.00697036
0.00319085
0.00490047
0.00432555
0.00528411
0.00315174
0.000792882
0.000959292
0.000867609
0.00155441
0.00158688
0.00128132
0.00127981
0.00114758
0.00129881
0.000838965
0.000635611
0.000756761
0.00067141
0.000544909
0.000833929
0.000615072
0.000852263
0.00113049
0.00262812
0.00219023
0.00336291
0.00155944
0.0019187
0.000678718
0.00126889
0.00227152
0.00333915
0.00172122
0.00684687
0.00633753
0.00744577
0.00701867
0.00181582
0.0068065
0.000315933
0.00526325
0.0061962
0.00481311
0.000473967
0.000918025
0.00185106
0.00170925
0.00361257
0.00327275
0.00605695
0.00571801
0.00554862
0.00572026
0.00290673
0.000667623
0.0010749
0.000831225
0.00111331
0.00138185
0.00340932
0.000329723
0.00132872
0.000224021
0.000632451
0.000456778
0.000610253
0.000432468
0.000138014
0.00084857
0.000470876
0.00129678
0.000966793
0.00106248
0.000322574
0.00144356
0.00197409
0.00536043
0.000909856
0.00330734
0.00277514
0.00716282
0.00403207
0.00446325
0.000839023
0.000192475
0.00169391
0.0014152
0.00289764
0.0074162
0.00522224
0.000601979
0.000687787
0.00109009
0.000878658
0.00732872
0.00721837
0.00197162
0.00234182
0.00150719
0.00115834
0.00078194
0.000468554
0.00196496
0.000573349
0.000724142
0.000634901
0.000247302
0.000146509
0.000381007
0.000179598
0.000777352
0.000771785
0.000744848
0.000358628
0.00173461
0.00189454
0.0020245
0.000435277
0.00216495
0.00500667
0.00451848
0.00208268
0.00599941
0.00212869
0.00721392
0.00267837
0.000942772
0.00103518
0.000911445
0.00060885
0.000290939
0.0034473
0.000615649
0.000502344
0.00419827
0.00124353
0.00103145
0.000293889
0.00026842
0.00647089
0.00483233
0.00308403
0.00387119
0.00700343
0.00302279
0.00683019
0.0013891
0.000766887
0.00108944
0.000139792
0.000602288
0.00180264
0.00456583
0.00223341
0.00397676
0.000469515
0.000857296
0.00388456
0.00515117
0.00397161
0.00011658
0.00558335
0.00240168
0.00214961
0.00111012
0.00102106
0.00162694
0.00365185
0.00405964
0.00574131
0.0029213
0.00106965
0.000270179
0.000772803
0.000708426
0.000281693
0.00101524
0.00175544
0.00106385
0.000377086
0.00130137
0.000756455
0.00744576
0.00748145
0.00366193
0.00156225
0.00195022
0.00239297
0.00184513
0.000759149
0.000960248
0.000442911
0.000647136
0.00130577
0.000777126
0.000886355
0.00110421
0.00136465
0.0012941
0.00192131
0.00135744
0.0017378
0.00183657
0.00149203
0.00136572
0.000931828
0.00131807
0.00200787
0.0043578
0.00479357
0.00744008
0.00623951
0.00289154
0.00262072
0.00385293
0.00725818
0.00677224
0.00116059
0.00122482
0.000731608
0.00185687
0.0029294
0.00494213
0.00637014
0.00597285
0.00512034
0.00315316
0.00731102
0.0027851
0.00142952
0.00203185
0.000394218
0.00195051
0.000560397
0.00123411
0.00446288
0.00332749
0.00396194
0.00165886
0.000285042
0.00749678
0.0012725
0.00305537
0.00497858
0.00485744
0.00738368
0.00421566
0.00353241
0.00750804
0.00299915
0.00163979
0.00458118
0.00358369
0.00273929
0.00363453
0.00381923
0.000697097
0.000323324
0.00122591
0.00152437
0.00186055
0.00146322
0.000835892
0.000489679
0.000712754
0.00111094
0.000563969
0.00133388
0.000635045
0.00067834
0.00330964
0.00397674
0.00234125
0.00711078
0.00371948
0.000625943
0.00709658
0.00384853
0.00196926
0.000310499
0.000290227
0.00193859
0.000264671
0.000886179
0.000478644
0.000482784
0.000700847
0.000431314
0.00342649
0.00525216
0.00361159
0.00108509
0.00130903
0.00463405
0.00480683
0.00361743
0.00301953
0.00500713
0.000905609
0.00323216
0.00322698
0.00514472
0.00168948
0.00152862
0.0017232
0.00177614
0.00158212
0.00219156
0.00378939
0.000752298
0.00180316
0.00293861
0.00644669
0.00735619
0.00755536
0.00743225
0.00726288
0.00405873
0.00207843
0.00746317
0.00585172
0.00738428
0.0074942
0.00108297
0.00259703
0.00680537
0.00692889
0.00703839
0.00380317
0.00565593
0.0017517
0.000754726
0.00171884
0.00106839
0.00699319
0.00542257
0.00203966
0.00204111
0.00221598
0.00492017
0.00295702
0.00550278
0.000728585
0.00388311
0.00131261
0.00149229
0.00734115
0.00440783
0.00601025
0.00610343
0.0049955
0.00455221
0.00525382
0.00332678
0.00578229
0.00471428
0.0055845
0.00462498
0.00721741
0.00667647
0.00716964
0.00698928
0.00307161
0.00744238
0.00730457
0.0026196
0.00408299
0.000479975
0.00574875
0.00718179
0.000809318
0.00324606
0.00112797
0.000538888
0.00620737
0.00415724
0.00306292
0.00736326
0.00521575
0.0009264
0.0042318
0.00423919
0.00305858
0.00193267
0.00105834
0.00424936
0.000897702
0.00738203
0.00355336
0.00221355
0.000693469
0.000981156
0.000675157
0.00209022
0.0025171
0.0016676
0.00134379
0.00321058
0.00411613
0.00551486
0.00571662
0.00308507
0.00259147
0.000903855
0.0014485
0.00244243
0.0066286
0.0013031