/*--------------------------------*- C++ -*----------------------------------*\
| =========                 |                                                 |
| \\      /  F ield         | OpenFOAM: The Open Source CFD Toolbox           |
|  \\    /   O peration     | Version:  2506                                  |
|   \\  /    A nd           | Website:  www.openfoam.com                      |
|    \\/     M anipulation  |                                                 |
\*---------------------------------------------------------------------------*/
FoamFile
{
    version     2.0;
    format      ascii;
    arch        "LSB;label=32;scalar=64";
    class       volScalarField;
    location    "0.0440925";
    object      k;
}
// * * * * * * * * * * * * * * * * * * * * * * * * * * * * * * * * * * * * * //

dimensions      [0 2 -2 0 0 0 0];

internalField   nonuniform List<scalar> 
47425
(
0.32756
0.356837
0.330846
0.331207
0.494031
0.339392
0.451564
0.343427
0.366895
1.16504
0.349879
0.34332
0.388049
0.331045
0.328766
0.347871
0.329633
0.365177
1.10042
0.552189
0.336301
0.333628
0.343902
0.333808
0.334859
0.325953
0.322722
0.868015
0.321186
0.328015
0.341431
0.337029
0.35628
0.32788
0.328267
0.341831
0.331751
0.363404
0.330666
0.335124
0.375046
0.442795
0.733568
0.378418
1.00314
0.369024
0.344857
0.351448
0.328887
0.326578
0.828121
0.611086
0.323964
0.912264
0.381793
0.370005
0.326911
0.326034
0.460584
0.334153
1.03011
0.833863
0.872255
0.351795
0.364469
0.333353
0.344589
0.373416
0.84995
0.344294
0.327197
0.325497
0.328251
0.335775
0.896271
0.368715
0.880325
0.331709
0.896375
0.55554
0.925303
0.334966
0.336056
0.349588
0.328036
0.337673
0.325053
0.325
0.554908
0.656677
0.337961
0.35498
0.33232
0.376594
0.388724
0.373138
0.328034
0.324783
0.325328
0.372332
0.34056
0.460591
0.33564
0.481759
0.330212
0.370753
0.326921
0.332123
0.342135
0.340449
1.00597
0.337427
0.4211
0.359274
0.34962
0.856233
0.346329
0.674167
0.356082
0.353122
0.332651
0.362722
0.348
0.369231
0.361869
0.405693
0.33977
0.364896
0.36199
0.331066
0.337343
0.347956
0.537927
0.366021
0.436212
0.36708
0.33836
0.412005
0.330855
0.329004
0.355102
0.386134
0.347569
0.465348
0.350116
0.366229
0.454099
0.343448
0.373041
0.362183
0.464491
0.822024
0.360371
0.837003
0.359311
0.342523
0.366418
0.954219
0.37045
0.349588
0.358649
0.32863
0.327434
0.334882
0.759745
0.882535
0.343638
0.905722
0.349812
0.897811
0.916091
0.366046
0.354113
0.34653
0.367926
0.408245
0.876184
0.320987
0.326309
0.329581
0.87004
0.323634
0.322317
0.331763
0.327724
0.341329
0.331708
0.453409
0.361656
0.323289
0.358052
0.324265
0.451199
0.365309
0.332941
0.340447
0.360557
0.344781
0.352226
0.314713
0.349977
0.367806
0.335291
0.343149
0.362643
0.377957
0.3211
0.338952
0.358586
0.36198
0.323432
0.328472
0.353036
0.324195
0.330462
0.335026
0.323081
0.60862
0.366129
0.363224
0.58097
0.304618
0.553667
0.322047
0.400636
0.558752
0.330747
0.345012
0.372313
0.408108
0.322181
0.339454
0.365707
0.369379
0.375559
0.339424
0.595827
0.355141
0.559728
0.372229
0.34518
0.323048
0.328852
0.336895
0.32998
0.362675
0.327829
0.358014
0.326047
0.329022
0.329421
0.540007
0.33428
0.3657
0.337207
0.326799
0.332426
0.376191
0.327324
0.357686
0.392086
0.353436
0.330313
0.370169
0.398748
0.365388
0.330151
0.396167
0.325462
0.341881
0.333983
0.543776
0.591166
0.326905
0.534595
0.381383
0.535565
0.485599
0.576056
0.574983
1.09995
0.325793
1.0382
0.379171
0.336116
0.320917
0.36755
0.3363
0.374759
0.361217
0.801798
0.347922
0.371308
0.325298
0.327968
0.348311
0.351952
0.32768
0.335606
0.383917
0.356645
0.327721
0.348607
0.32572
0.880348
0.888662
0.852791
0.328983
0.325651
0.33088
0.342893
0.832002
0.339113
0.346371
0.603776
0.363527
0.357215
0.38046
0.336721
0.656669
0.57959
0.33735
0.330016
0.322699
0.355685
0.325813
0.330094
0.325868
0.324841
0.326733
0.325485
0.84443
0.35044
0.329922
0.384
0.32985
0.837768
0.340202
0.326242
0.328894
0.335793
0.335394
0.325002
0.334664
0.326293
0.328282
0.326552
0.336421
0.330964
0.360416
0.337487
0.33467
0.339756
0.336952
0.338112
0.368804
0.342483
0.334064
0.33693
0.360558
0.384772
0.366594
0.348924
0.340865
0.326894
0.337632
0.37916
0.358581
0.342818
0.336945
0.375454
1.23144
0.325108
0.343157
0.385672
0.341347
0.420732
0.370955
0.364467
0.33222
0.357754
0.339888
0.324439
0.355406
0.363526
0.364535
0.343487
0.334835
0.35029
0.341653
0.338919
0.342947
0.347058
0.327118
0.334202
0.336822
0.334763
0.339989
0.417241
0.325558
0.687405
0.32845
0.834063
0.353292
0.378049
0.369391
0.327434
0.36323
0.323871
0.351811
0.339687
0.643227
0.876603
0.325665
0.358349
0.328004
0.326911
0.337144
0.337925
0.324553
0.367397
0.342218
0.327454
0.328038
0.332323
0.323678
0.460027
0.326371
0.337993
0.526537
0.590551
0.330764
0.664264
0.60233
0.367179
0.595554
0.796661
0.327858
0.326148
0.327728
0.325868
0.815289
0.354747
0.327692
0.329629
0.331896
0.332259
0.337514
0.330473
0.745989
0.794136
0.540343
0.356481
0.428396
0.489768
0.330857
0.336186
0.376933
0.334707
0.355481
0.363132
0.377805
0.333358
0.369614
0.331573
0.328947
0.356322
0.34114
0.333578
0.331279
0.349105
0.357709
0.377588
0.357639
0.32739
0.363628
0.337076
0.779815
0.368026
0.421379
0.346325
0.372177
0.794771
0.355196
0.328403
0.357655
0.351327
0.334771
0.354616
0.368805
0.318538
0.349199
0.324475
0.348122
0.471077
0.323999
0.37113
0.332432
0.383318
0.327306
0.327934
0.328077
0.330493
0.343581
0.348519
0.330911
0.32486
0.330767
0.343509
0.344529
0.354854
0.35395
0.327107
0.333333
0.320776
0.321238
0.333525
0.353808
0.330465
0.357606
0.363327
0.375412
0.806389
0.337564
0.33219
0.350259
0.365741
0.474654
0.478817
0.35692
0.329587
0.359987
0.450083
0.335578
0.489124
0.362436
0.606549
0.372281
0.373432
0.328901
0.479839
0.331552
0.333272
0.340563
0.331612
0.324628
0.322783
1.02879
0.330276
0.379893
0.330282
0.457649
0.327699
0.328056
0.437457
0.426511
0.338463
0.32705
0.302137
0.325749
0.333047
0.325544
0.32686
0.328783
0.398039
0.469305
0.347596
0.328189
0.340253
0.330599
0.550649
0.337732
0.333057
0.27589
0.337407
0.326902
0.376472
0.781241
0.338725
0.229071
0.249885
0.323032
0.34819
0.325056
0.331961
0.369891
0.361092
0.791981
0.334672
0.364199
0.326256
0.471993
0.393287
0.370377
0.335677
0.871689
1.84297
0.331927
0.342295
0.33328
0.33968
0.377048
0.38983
0.335221
0.346429
0.378981
0.318052
0.361656
0.499106
0.364228
0.331133
0.505445
0.356666
0.331608
0.347363
0.353385
0.324811
0.361993
0.38674
0.386756
0.346272
0.332953
0.329238
1.04237
0.343083
0.410112
0.834297
0.809354
0.329496
0.37161
0.78083
0.365095
0.445285
0.779111
0.376812
0.845865
0.327232
0.330391
0.355353
0.526563
0.3816
0.37559
0.325433
0.379907
0.330088
0.334794
0.329794
0.357719
0.349565
0.745823
0.739649
0.357923
0.366137
0.359451
0.342803
0.379727
0.352081
0.35278
0.360655
0.345003
0.347641
0.366825
0.355428
0.32618
0.41916
0.37797
0.841824
0.578716
0.359394
0.336634
0.365213
0.328948
0.869259
0.332973
0.884305
0.366053
0.455056
0.364558
0.34289
0.34471
0.319656
0.382628
0.333272
0.321332
0.399388
0.405984
0.368562
0.413571
0.364196
1.3331
0.365083
0.382317
0.392912
0.363695
0.325466
0.374878
0.338834
0.411588
0.343371
0.339855
0.379656
0.34119
0.345358
0.333054
0.330465
0.504212
0.582736
0.327931
0.46524
0.328293
0.346109
0.324466
0.326643
0.447711
0.319169
0.329825
0.336774
0.327805
0.703008
1.16543
0.339163
0.339196
0.328173
0.354005
0.322589
0.347082
0.351866
0.581632
0.345499
0.32822
0.341801
0.328991
0.331346
0.333505
0.326404
0.333064
0.330819
0.325106
0.353779
0.575014
0.327516
0.27182
0.634827
0.580507
0.250977
0.353748
0.851208
0.384367
0.362019
0.539252
0.311337
0.860447
0.349738
0.324658
0.477898
0.35574
0.592794
0.341058
0.3599
0.326671
0.332607
0.442538
0.365942
0.346633
0.363411
0.492737
0.399115
0.349006
0.378435
0.521295
0.496663
0.543606
0.926197
1.03005
0.658073
0.690944
0.363128
0.367664
0.329709
0.327451
0.359455
0.289048
0.353565
0.353632
0.363235
0.330565
0.294486
0.282515
0.327709
0.39443
0.344463
0.329004
0.379293
0.328501
0.332027
0.330236
0.359657
0.461049
0.327907
0.329349
0.326835
0.371063
0.362258
0.562636
0.467745
0.324602
0.360955
0.324002
0.329781
0.329748
0.364889
0.369621
0.559815
0.332477
0.328575
0.330438
0.42079
0.902022
0.34359
0.342937
0.433111
0.35979
0.344349
0.365498
0.350617
0.376811
1.1913
0.456882
0.867193
0.36686
0.420331
0.32857
0.410571
0.332225
0.352275
0.35947
0.334637
1.1129
0.46857
0.38558
0.514409
0.385085
0.324999
0.34921
0.425557
0.334064
0.366127
0.24853
0.330544
0.415723
0.381647
0.403429
0.754651
0.38433
0.381237
0.537631
0.332093
0.332607
0.462469
0.559662
0.34591
0.44224
0.484532
0.340399
0.343273
0.326704
0.351527
0.363968
0.361419
1.63248
0.768659
0.388685
0.540198
0.530558
1.45136
2.05782
0.556744
0.37179
0.360818
0.373579
0.380017
0.973403
0.330604
0.357333
0.372941
0.375868
0.353138
0.34884
0.36676
0.325886
0.391173
0.507893
0.363506
0.973733
0.329527
0.409473
0.376588
0.365721
0.357428
0.350444
0.374832
0.477073
0.376045
0.399586
0.497633
0.352858
0.331935
0.35818
0.453069
0.327317
0.416741
0.367207
0.384721
0.680105
1.05164
0.325183
0.363518
0.344333
0.361918
0.367834
0.70943
0.556725
1.42434
0.333304
0.39403
0.35037
0.816513
0.329681
1.28828
0.408097
0.388508
0.501208
0.63152
0.33645
0.322164
0.332354
0.349224
0.463923
0.343412
0.427465
0.800589
0.426793
0.325445
0.327252
0.716158
0.898894
0.537419
0.565274
0.93542
0.40576
0.370912
0.42453
0.328506
0.511682
0.378337
0.392842
1.38375
0.35447
0.326049
0.329336
0.357898
0.411632
0.381746
0.346217
0.345978
0.483196
0.330818
0.345605
0.329577
0.353139
0.377636
0.40093
0.369212
0.355935
0.339994
0.389723
0.331618
0.324837
0.335728
0.343154
0.403604
0.506021
0.354887
0.38996
0.327814
1.43128
0.386397
0.371691
0.345606
1.00165
0.682493
1.09107
0.315917
0.355492
0.36056
0.738504
0.359552
0.364363
0.407726
0.36453
0.365988
0.850112
0.372349
0.340401
0.371005
0.378559
0.32807
0.624038
1.01537
0.329904
1.00552
0.352301
0.694771
0.645345
0.329184
0.363948
0.37544
0.654365
0.356297
0.35838
0.362194
0.779545
0.466017
0.628662
0.327175
0.342227
0.327074
0.333894
1.11538
1.14175
0.363173
0.388047
0.403294
0.720038
0.335418
0.324753
1.3539
1.07567
0.358349
0.341513
0.923437
1.31224
0.897482
0.378555
0.697561
1.02492
0.787522
0.337279
0.481248
0.469215
0.35153
0.35813
1.1553
1.44522
0.390217
0.394993
0.350231
0.341398
0.366202
0.343157
0.520178
0.340525
0.36694
0.328811
0.34804
0.992516
0.918508
0.340985
0.614711
0.452861
0.334938
0.553156
0.323969
0.349722
0.331436
0.363537
0.395151
0.325853
0.76924
0.33363
0.894301
0.71548
0.73828
0.410697
0.419153
0.353478
0.369897
0.331143
0.577515
1.11427
0.363816
0.879326
0.557398
0.843946
0.499269
0.942504
0.747694
0.344731
0.330865
0.918471
0.342689
0.343072
0.333195
0.730838
0.70813
0.333062
0.356399
0.662285
0.444984
1.00503
0.82736
0.359977
0.491994
1.05481
0.356159
0.353174
0.738024
0.336115
0.789243
0.866218
0.337643
0.329651
0.341006
0.329282
0.380701
0.326351
0.3351
0.370697
0.37624
0.506365
0.373134
0.343543
0.529238
0.795445
0.858702
0.369191
0.368104
0.5659
0.341267
1.00274
0.345173
0.36168
0.363905
1.3344
0.351331
1.78279
0.388593
0.52968
0.37505
0.845848
0.656266
0.585832
0.444539
0.57357
0.393387
0.363543
0.415955
0.61265
0.500776
0.487876
0.810878
0.388179
0.475986
0.837376
0.375713
0.328164
0.784484
1.67383
0.330377
0.353109
0.359537
0.379492
0.873552
0.967017
0.32733
0.346619
0.359206
0.816424
0.35614
0.639666
0.401255
0.348141
0.353246
0.502102
0.384986
0.655967
0.630755
0.367354
0.404044
0.464791
0.342378
0.946726
1.40891
0.35438
0.893894
0.837939
0.376778
0.633961
0.360681
0.388617
1.01173
0.388409
0.983807
1.07933
0.35048
0.394746
0.451187
0.365364
0.3537
0.417331
0.517942
0.442607
0.34002
0.417014
0.344812
0.8266
0.417257
0.374572
0.383427
0.560972
0.330932
0.868971
0.707321
0.391424
0.809722
0.817587
0.326629
0.506279
0.57246
0.370191
0.368181
0.529867
0.731373
0.529814
0.788034
0.332845
0.796117
0.470302
0.326711
0.411994
0.3805
0.522252
0.363776
0.41207
0.645977
0.326548
0.623293
0.370408
1.35064
0.392146
0.32187
0.384138
0.55565
0.385943
0.691471
0.459223
0.346895
0.90761
0.328391
0.355234
1.14231
0.325923
0.386471
0.743491
0.361379
0.79754
1.39526
0.379925
0.432896
0.329138
0.923815
0.659859
0.782339
0.702739
0.435228
0.363968
0.45879
0.878417
1.11026
0.827343
0.358817
0.357726
0.365373
0.339918
0.382668
0.744098
0.357124
0.340639
0.363852
0.325776
0.350188
0.363672
0.343693
0.351092
0.369582
0.46847
0.331845
0.373684
0.592732
0.344352
0.329702
0.385473
0.373764
0.359683
0.326915
0.355239
0.352381
0.341304
0.376583
0.686808
0.350414
0.349942
0.330435
0.329725
0.549773
0.333756
0.334549
0.683129
1.21661
0.743843
0.341577
0.670012
0.50901
0.332888
0.640802
0.460427
0.62112
0.36505
0.339182
0.358186
0.417579
0.335073
0.372175
0.387996
0.376621
0.331005
0.331518
0.371282
0.531942
0.362574
0.434963
0.885121
0.349075
0.688279
0.427026
0.879313
0.325546
0.372378
0.369127
0.328852
0.342673
0.368736
0.328757
1.15336
0.606897
0.884381
0.388222
1.073
0.327447
0.34985
0.538838
0.331943
0.802252
0.42486
0.637318
0.32203
0.958005
0.949294
0.339219
0.325859
0.800509
0.344975
0.631958
0.330274
0.370512
0.331761
0.329594
0.333848
0.343702
0.351457
0.622821
0.416279
0.39336
0.35604
0.335973
0.333911
0.365398
1.11142
0.371577
1.70618
0.524761
0.331229
0.380931
0.350286
0.345939
0.346729
0.374629
0.352542
0.362927
0.341191
0.316114
0.365778
0.367002
1.5427
1.2797
0.372198
0.373869
0.909958
0.350065
0.327307
0.327179
0.326384
0.365646
0.380549
0.400117
0.380596
0.348668
0.327935
0.42189
0.326576
0.318491
0.341106
0.752776
0.393001
0.863651
0.782775
0.852351
0.342059
0.3294
0.323588
0.32415
0.329152
0.667244
0.344044
0.328745
0.347303
0.363604
0.328969
0.493398
0.326797
0.377751
0.470113
0.353927
0.326075
0.332008
0.348466
0.354546
0.330111
0.35661
0.337873
0.520273
0.332811
0.350718
0.389522
0.337753
0.340965
0.328109
0.352842
0.325995
0.376515
0.395682
0.328849
0.323453
0.328828
0.333756
0.330707
0.36887
0.327137
0.329423
0.328315
0.344051
0.875606
0.337503
0.450983
0.325022
0.32901
0.777971
0.343032
0.370013
0.324712
0.339197
0.361649
0.377299
0.770623
0.375456
2.24242
0.32683
0.3352
0.369109
0.330562
0.328498
0.383461
0.350889
0.329215
0.330279
0.988562
0.46025
0.69209
0.37816
0.592632
0.372564
0.321381
0.391294
0.927983
0.367824
0.332962
0.332185
0.811728
0.327809
0.339797
0.356272
0.347623
0.332447
0.817879
0.330494
0.348223
0.348693
0.347219
0.391206
0.955912
0.846732
0.332348
0.3299
0.330372
0.381931
0.360803
0.328204
0.825063
0.888293
0.326753
0.362298
0.794089
0.333958
0.611938
0.475459
0.327837
0.329176
0.332743
0.336378
0.641995
0.353545
0.347374
0.349396
0.389602
0.339999
0.361562
0.621517
0.362936
0.508714
0.527513
0.41946
0.618446
0.367516
0.387754
0.415828
0.3792
0.355951
0.349374
0.862859
0.62677
0.37791
0.376667
0.360729
0.368352
0.356831
0.412523
0.333723
0.325237
0.357315
0.350829
0.523104
0.451725
0.898761
0.741965
0.360618
0.37796
0.341376
0.343867
0.365146
0.330134
0.34514
0.327117
0.32906
0.386708
0.335976
0.330998
0.332468
0.650202
1.18331
0.37397
0.323606
0.4677
0.529697
0.858605
0.336909
0.788373
1.54879
0.687232
0.823335
0.426398
0.328419
0.326764
0.360676
0.890131
0.324987
0.37274
0.354134
0.327479
0.713858
0.663364
0.637642
0.345377
1.42271
0.325637
0.333886
0.364118
0.3641
0.787729
0.858934
0.25778
0.464857
0.285449
0.399145
0.332993
0.934038
0.353885
0.895021
0.372214
0.886475
0.35828
0.515072
0.412969
0.555304
0.380235
0.382909
0.483657
0.35329
0.355278
0.423942
0.404378
0.360793
0.345205
1.26813
0.692311
0.35022
0.644152
0.823631
0.63003
0.336044
0.332988
0.846583
0.728234
0.788545
0.334987
1.06985
0.333334
0.901414
0.769159
0.62735
0.685365
0.325078
0.383871
0.333702
0.340566
0.34551
0.539643
0.43133
0.327716
0.325948
0.36899
0.342852
0.327948
0.331413
0.48704
0.327929
0.322638
0.356129
0.334884
0.45278
0.350759
0.384413
0.376317
0.328339
0.453016
0.47252
0.325223
0.330669
0.509102
0.721495
0.35022
1.32661
0.373706
0.454322
0.748789
0.430909
0.357939
0.328231
0.521328
0.343935
0.323741
0.369094
0.3405
0.331837
0.346908
0.333081
0.326594
0.338233
0.355439
0.346251
0.377658
0.730192
0.338153
0.342912
0.342056
0.350119
0.449221
0.7881
0.352257
0.336236
0.353853
0.613161
0.435284
0.3443
0.351915
0.880039
0.368649
0.390648
0.375536
0.429555
0.357068
0.361709
0.350725
0.548168
0.381277
0.369119
0.956015
0.347361
0.400217
0.35425
0.367336
0.355945
0.392858
0.347154
0.3395
0.332804
0.377692
0.336232
0.361206
1.32468
0.333496
0.444525
0.376815
0.347585
0.697691
0.388191
0.391477
0.367875
0.614891
0.677461
0.359696
0.33621
0.396464
0.413526
0.364229
0.333149
0.829954
0.490994
0.397808
1.28919
0.407711
0.337017
0.542967
0.575109
1.20199
0.572691
0.411287
0.604576
0.357793
0.578757
0.49898
0.875411
0.37579
0.382322
0.339509
0.647621
0.377587
0.416129
0.34596
0.369365
0.368597
0.405512
0.654337
0.354619
0.373252
0.38452
0.532261
0.797515
0.438462
0.771445
0.379777
1.04291
0.373559
0.37469
0.838926
0.567585
0.736805
0.549591
0.695967
0.597836
0.335449
0.331716
0.324246
0.399425
0.371939
0.834509
0.374272
0.398792
0.330748
0.492352
0.365135
0.331297
0.900742
0.369384
0.536641
0.302411
0.410086
0.358074
0.366511
0.373436
0.395617
0.332519
0.323865
0.360276
0.413286
0.239862
0.23886
0.439386
0.380647
0.353702
0.440003
0.476677
0.384035
0.367949
0.37537
0.229164
0.393344
0.416385
0.283956
0.375561
0.821445
0.576893
0.350963
0.991009
0.393672
0.507818
1.1869
0.3954
0.377439
0.334704
0.809786
0.332083
0.327676
0.383969
0.377795
0.413234
0.355028
0.565628
0.364365
0.517294
0.332921
0.383625
0.373029
0.323653
1.08998
0.493865
1.07533
0.593968
0.324975
0.894623
0.506754
0.330335
1.95987
0.329792
0.326635
0.474619
0.488669
0.973758
0.718454
0.372754
0.723
1.25199
0.341043
0.594592
0.976111
0.504033
1.31346
0.406502
0.339425
0.62994
0.708426
0.391291
0.968703
0.3868
0.358754
0.555453
0.387455
0.337227
0.371161
0.801121
0.76109
0.323965
0.551097
0.338828
0.382451
0.358148
0.380512
0.60532
0.454198
0.759921
0.351905
0.360724
0.747208
0.330645
0.347459
0.487972
0.335281
0.365174
0.945681
0.360441
0.926122
0.839141
0.844519
0.8332
0.37639
0.421999
0.327566
0.325645
0.444875
0.3318
0.333087
0.399927
0.337897
0.44122
0.910308
0.332032
0.54165
0.339672
0.494444
0.386667
0.889819
0.367887
0.478398
0.337685
0.344367
0.41037
0.333637
0.351829
0.340887
0.32626
0.565764
0.329531
0.379316
0.382725
0.345776
0.367628
0.366954
0.377641
0.700735
0.357934
0.332925
0.343076
0.416118
0.265807
0.681142
0.510715
0.687946
1.01301
0.431042
0.447581
0.15091
0.325288
0.92083
0.425484
0.553317
0.412418
0.764652
0.724175
1.28794
0.386275
0.355659
0.552481
0.990255
0.369949
0.320009
0.473584
0.351273
0.433684
0.428372
0.852903
1.27599
0.294277
0.401087
0.211904
0.355397
1.14667
0.349941
0.36499
0.336842
0.334857
0.473989
0.337582
0.623518
0.495762
0.332745
0.386199
0.334448
0.576389
0.662611
0.350053
0.439196
0.387173
0.947292
0.46313
0.359439
0.551133
0.552709
0.326185
0.336319
0.363366
0.327772
0.673661
0.333327
0.460656
0.63797
0.340144
0.366765
0.335213
0.336425
0.575684
0.391551
0.547687
0.322957
0.324871
0.592956
0.876028
0.334438
0.350564
0.334118
0.331567
0.653132
0.456114
0.819132
0.365701
0.330628
0.473662
0.401322
0.366296
0.335706
0.393842
0.381498
0.570696
0.469233
1.36282
0.424036
0.44109
0.336259
0.376542
0.834648
0.982819
0.42006
0.931072
0.367996
0.958449
0.447597
0.754418
0.49181
0.527297
0.394741
0.346924
0.37805
0.431179
0.582723
0.361411
0.388045
1.00173
0.374565
1.97496
0.373447
0.350573
0.376967
0.567947
0.416983
0.333941
0.836829
0.328588
0.337888
0.325867
0.370477
0.869828
0.505491
0.340827
0.537924
0.349228
0.364402
0.335931
0.344309
0.435414
0.410276
0.425366
0.365694
0.336418
0.418397
0.358888
0.323817
0.425835
0.385181
1.1538
0.385075
0.477328
0.369297
0.420468
0.37193
0.442684
0.324941
0.372083
0.350124
0.356734
0.384328
0.838203
0.325716
0.623318
0.414928
0.391472
0.379804
0.371145
0.38257
0.455237
0.652833
0.334517
0.360639
0.36499
0.522555
0.398932
0.325604
1.20168
0.929748
0.656182
0.331533
0.333984
0.521788
0.354112
0.354157
0.516841
0.364446
0.346661
0.38394
0.994556
0.332554
0.593094
0.330971
0.344345
0.441081
0.346356
0.385544
0.476885
0.333885
0.596262
0.420459
0.421561
0.461022
0.948574
0.337955
0.360028
0.378031
0.409242
0.371407
0.371857
0.327075
0.326853
0.374495
0.59381
0.3791
0.373226
0.962309
0.376408
0.64885
0.358523
0.383041
0.409817
0.350691
0.724633
0.365315
0.502283
0.383955
0.355255
0.35681
0.403542
0.574948
0.466573
0.335023
0.635347
0.376983
0.833649
0.775607
0.907702
0.341973
0.47336
0.377751
0.257369
0.410259
0.290194
0.456394
0.240833
0.417396
0.723028
0.419868
0.636381
0.702264
0.37757
0.274146
0.398262
0.994128
0.538903
0.709208
1.28463
1.42746
0.585905
0.842796
0.340805
0.361916
0.764203
0.404514
0.920739
0.388013
0.766112
0.77545
0.35255
0.375755
0.344735
0.325131
0.365726
0.325895
0.742494
0.397048
0.373409
0.565982
0.33939
0.363672
0.322796
0.357014
0.36172
0.367842
0.400071
0.328072
0.422727
0.911616
0.327034
0.336784
0.355643
0.332259
0.733836
0.800762
0.406748
0.417904
0.567253
0.327887
0.321994
0.357455
0.379804
0.341778
0.349249
0.337054
0.33084
0.429877
0.327927
0.387253
0.347995
0.327155
0.333645
0.689023
0.344052
0.358318
0.329977
0.439573
0.361615
0.364622
0.730886
0.427006
0.358148
0.400738
0.355201
0.386496
0.394778
0.37271
0.341297
0.381669
0.368556
0.345348
0.373133
0.364841
0.444254
0.467729
0.347799
0.352931
0.41427
0.449291
0.497074
0.575744
0.865347
0.950044
0.354878
0.336184
0.909736
0.551243
0.576705
0.341083
0.330582
0.348842
0.325679
0.349308
0.334315
0.338686
0.368296
0.329832
0.335031
0.333055
0.343046
0.334304
0.543237
0.392974
0.360753
0.335192
0.340769
0.654048
0.326785
0.335591
0.409584
1.045
0.570442
0.374256
0.362352
0.34914
0.384695
0.480755
0.730516
0.419008
0.34414
0.371282
0.343634
0.340212
0.382704
0.444491
0.371463
0.334916
0.410921
0.40908
0.646265
0.408039
0.741298
0.589018
0.394095
0.405533
0.342325
0.355531
0.380219
0.32711
0.338759
0.627969
0.343099
0.35828
0.724571
0.360016
0.375578
0.511226
0.413699
0.333173
0.361136
0.337587
0.36959
0.731581
0.357467
0.444673
2.18886
0.587509
1.108
0.855253
0.345129
0.354999
0.547454
0.329385
0.573936
0.510602
0.711793
0.369859
0.329572
0.767597
0.330114
0.565516
0.42976
0.3378
0.735405
0.860148
0.32716
0.33886
0.908113
0.327137
0.330502
0.32984
0.328825
0.357574
0.550308
0.589516
0.355973
0.816791
0.343939
0.353577
0.333689
0.890016
0.349144
0.933564
0.330839
0.369802
0.331127
0.448825
0.337967
0.522184
0.326796
0.657059
0.490936
0.49275
0.71705
0.347292
0.348696
0.853937
0.465002
0.358459
0.434748
0.637984
0.352806
0.443144
0.340276
0.614268
0.421242
0.335482
0.325557
0.474762
0.345913
0.398091
0.364179
0.327824
0.352306
0.331828
0.33371
0.348367
0.728385
0.339407
0.33293
0.331363
0.340818
0.332665
0.345214
0.332857
0.373198
0.435969
0.388465
0.386457
0.335124
0.30271
0.350762
0.392314
0.856088
0.341639
0.789721
0.339451
1.39507
0.382487
0.449386
0.381365
0.387466
0.387687
0.337672
0.324894
0.360812
0.364627
0.323885
0.34447
0.331089
0.69859
0.330437
0.346112
0.38325
0.887316
0.225496
0.354099
0.829696
0.837864
0.63295
0.570457
1.09139
0.178953
0.422958
0.362978
0.361977
0.398107
1.92255
0.576742
0.40468
0.331278
0.329104
0.777505
0.358853
0.578465
0.538615
0.384098
0.589078
0.377473
0.62294
0.335179
0.368975
0.351642
0.327155
0.395774
0.325105
0.360531
1.13153
1.13272
1.0838
0.464499
0.786306
0.348848
0.32313
0.327267
0.376515
0.330121
0.383344
0.33696
0.423806
0.382517
0.325904
0.328075
0.36958
0.328138
0.34783
0.369717
0.337437
0.369143
0.535427
0.34875
0.387782
0.831344
0.378805
0.720577
0.850059
0.365603
0.396815
0.327775
0.494789
0.376156
0.385591
0.660221
0.331798
0.398068
0.361632
0.382177
0.335025
0.339922
0.494401
0.538925
0.375516
0.3675
0.799946
0.401102
0.64465
0.597648
0.360554
1.08312
0.450431
0.394786
0.373361
0.351919
0.416388
0.369765
0.312791
0.336741
0.260635
0.599472
0.226528
0.346081
0.380234
0.440236
0.221915
0.796017
0.343604
0.371379
0.403928
0.308585
0.407618
0.685829
1.69972
0.378023
0.344556
0.368074
0.659506
0.333195
0.390184
0.380139
0.3424
0.360311
0.348516
0.560743
0.336139
1.64507
0.392565
0.960621
0.340863
1.14754
0.813653
1.09855
0.362427
0.350821
0.487764
0.376319
0.348848
0.371924
0.351052
0.819158
0.32667
0.483178
0.630758
0.326697
0.337578
0.336444
0.338985
0.362837
0.360624
0.403598
0.402796
0.372798
0.362728
0.410488
0.349298
0.455447
0.339976
0.37631
0.335123
1.28904
1.04131
0.385694
0.439352
0.327119
1.67464
0.323272
0.330721
0.364802
0.327529
0.382629
0.366033
0.328161
0.324755
0.350719
0.842031
0.622352
0.370891
0.813371
0.330256
0.36177
0.339162
0.359611
0.799637
0.391672
0.855343
0.325766
0.343532
0.809168
0.900323
0.351941
0.349202
0.657745
0.377087
0.378737
0.496955
0.397926
0.380018
0.431591
0.380065
0.323661
0.38656
0.361709
0.495209
0.329802
0.369415
0.32774
0.3465
0.785448
0.686387
0.341057
0.345972
0.35323
0.36397
0.34358
0.54254
0.346559
0.362055
0.391116
0.361051
0.456825
0.412316
0.503337
0.391496
0.322953
0.333889
0.329754
0.388529
0.320488
0.55
0.449784
0.333745
0.737997
0.349945
0.327108
0.368887
0.331152
0.379641
0.652933
0.351757
0.446107
0.37079
1.01957
0.40437
0.388198
0.374732
0.725203
0.377014
0.550136
0.381602
0.416574
0.344199
0.4258
0.401386
0.722117
0.46709
0.363223
0.342661
0.338796
0.569693
0.355642
1.06771
1.52723
0.375917
0.43675
0.357521
0.489038
0.462415
0.398032
0.876908
0.494589
0.685064
0.331183
0.395981
0.965851
0.499804
0.365283
0.486044
0.344307
1.11343
0.39924
0.390965
0.33941
0.328926
0.33298
0.353315
0.329896
1.13675
0.334866
0.656525
0.33077
0.439954
0.408708
0.545261
0.352353
0.357274
0.345259
0.601922
0.477632
0.525484
0.330475
0.333666
0.466037
0.382511
0.370314
0.328255
0.327259
0.329314
0.347926
0.32843
0.385695
0.334653
0.571633
0.441198
0.956482
0.783545
0.635745
0.582418
0.401109
0.408119
0.325867
0.609945
0.339862
0.35282
0.33964
0.47147
0.509261
0.341424
0.434494
0.807828
0.496603
0.330622
0.329711
1.31831
0.842768
0.392689
0.885901
0.900297
0.660677
0.782862
0.597827
0.743505
0.414888
0.661808
0.800988
0.327032
0.333639
0.321679
0.479791
0.624237
0.342784
0.330147
0.412372
0.371921
0.39135
0.857518
0.495638
0.958612
0.356923
0.328257
0.345313
0.326422
0.371789
0.818053
0.604449
0.683683
0.759152
0.332002
1.00102
0.963588
0.329203
0.537992
0.484772
0.79994
0.378372
0.489133
0.793834
0.798251
0.480628
0.85189
0.519331
0.757539
0.374015
0.354374
0.386248
1.06533
0.783338
0.402898
0.348086
0.576762
0.455758
0.598599
0.363965
0.387817
1.10551
1.32058
0.265113
0.329743
0.282538
0.328984
0.249015
0.397433
0.474985
0.628895
0.229973
0.44843
0.501801
0.155635
0.470226
1.56504
0.430601
0.395837
0.729945
0.348493
0.513839
0.340985
0.326425
0.344904
0.3602
0.809008
0.722547
1.18117
0.402769
0.402006
0.617561
0.38925
0.417846
0.418683
0.371415
0.347188
0.594227
0.37993
0.392014
0.337995
0.433271
0.416891
0.783659
0.486059
0.825086
0.96136
0.801083
0.37381
0.414439
0.731411
0.346297
0.575584
0.371566
0.403006
0.336323
0.826395
0.616014
0.522402
1.20292
0.627536
0.328119
0.448385
0.865257
0.839787
0.403616
0.362859
0.480022
0.936995
0.366282
0.331753
0.36642
0.351802
0.739435
0.350486
0.639776
0.915779
0.797263
1.476
0.558137
0.477794
0.807667
1.18509
0.88031
0.608777
0.762487
0.914857
0.551316
0.394407
0.46284
0.356617
0.321368
0.33348
0.435979
0.540838
1.46442
0.368694
0.391649
0.405538
0.377961
0.452207
0.580831
0.486852
0.366489
0.38329
1.00806
1.11555
0.232561
0.40559
0.343857
0.380161
1.25154
0.82463
0.373561
0.616921
0.343844
0.405226
0.387159
0.590969
0.353029
0.353978
0.337982
0.399837
0.895054
0.461106
0.36842
0.840237
0.328184
0.915287
0.708989
0.480111
0.708969
0.378155
0.329267
0.336777
0.335992
0.366323
0.418175
0.339266
0.353441
0.339705
0.337406
0.534943
0.688288
0.752141
0.339074
0.490083
0.375934
0.405664
0.359208
0.660774
0.369259
0.353297
0.35115
0.327885
0.344398
0.344137
0.470032
0.324347
0.370559
0.383668
0.631073
0.341717
0.406945
0.503391
0.819423
0.901338
0.40015
1.1245
0.565746
0.384112
0.365905
0.544617
0.343361
1.32083
0.446308
0.331601
0.440714
0.538242
0.422498
0.47616
0.727078
0.762324
0.478171
0.82635
0.35731
0.328015
0.41109
0.331545
0.329787
0.425841
0.336789
0.334565
0.587076
0.330324
0.309772
0.887224
0.651028
0.328688
0.331151
0.772976
0.346043
0.341154
0.600738
0.339267
0.74902
0.42341
0.790818
0.336286
0.561896
0.459488
0.702086
0.338507
0.453763
0.336261
1.13816
0.364344
0.331424
0.80506
0.437255
0.513349
0.367741
0.38555
0.373716
0.338288
0.510346
0.337849
0.336125
0.320387
0.455382
0.565818
0.33186
0.341361
0.333472
0.33366
0.347276
0.945361
0.331333
0.46244
0.330916
0.601051
0.362948
0.383065
0.37
0.483569
0.348748
0.44853
0.322726
0.349284
0.352972
0.368492
0.334324
0.448079
0.427548
0.892897
0.913097
0.8124
0.406843
0.359395
0.357323
0.328081
0.329903
1.02272
0.657264
0.410824
0.381012
0.323957
0.350552
0.325834
0.334442
0.539329
0.525135
0.77876
0.740717
0.38539
0.352036
0.432834
0.331481
0.62961
0.358583
0.456844
0.367309
0.373751
1.05179
0.433903
0.323928
0.346837
0.415021
0.330995
0.38744
0.330183
0.669779
0.387375
0.91639
0.49848
0.787971
0.335227
0.355869
0.370747
0.374512
0.378186
0.358331
0.328767
0.329276
0.336967
0.344246
0.355076
0.597352
0.393262
0.877961
0.431862
0.33575
0.524444
0.381695
0.36152
0.329637
1.05632
0.910396
0.335576
0.333991
0.337106
0.856209
0.364012
0.446756
0.38879
0.376775
0.295211
0.367826
0.366185
0.327735
0.429103
0.562161
0.961732
0.545787
0.450693
0.323951
0.413836
0.665474
0.365018
0.333646
0.848769
0.843773
0.466014
0.709842
0.333541
0.327164
0.41816
0.334585
0.867021
0.333834
0.331282
0.335769
0.694554
0.329134
0.373787
0.473938
0.481671
0.331574
0.347275
0.353269
0.346513
0.323906
0.358147
0.384166
0.595345
0.453466
0.374895
0.611003
0.367019
0.638942
0.3789
0.916587
0.460697
0.383217
0.708077
0.316297
0.443458
0.545871
0.599189
0.420107
0.328563
0.333093
0.327609
0.369546
0.859798
0.380415
0.331085
0.361845
0.386775
0.33001
0.499534
0.358855
0.374363
0.476535
0.353136
0.334051
0.368773
0.3608
1.18324
0.891433
0.404661
0.362914
0.439327
0.360621
0.818281
1.04511
1.21615
0.796785
0.354012
0.351721
0.359912
0.32673
0.36905
1.04005
0.440548