/*--------------------------------*- C++ -*----------------------------------*\
| =========                 |                                                 |
| \\      /  F ield         | OpenFOAM: The Open Source CFD Toolbox           |
|  \\    /   O peration     | Version:  2506                                  |
|   \\  /    A nd           | Website:  www.openfoam.com                      |
|    \\/     M anipulation  |                                                 |
\*---------------------------------------------------------------------------*/
FoamFile
{
    version     2.0;
    format      ascii;
    arch        "LSB;label=32;scalar=64";
    class       volScalarField;
    location    "0.0440925";
    object      nut;
}
// * * * * * * * * * * * * * * * * * * * * * * * * * * * * * * * * * * * * * //

dimensions      [0 2 -1 0 0 0 0];

internalField   nonuniform List<scalar> 
47425
(
0.00573497
0.00527896
0.00457838
0.0020172
0.00348763
0.00468409
0.00482813
0.00332191
0.00742783
0.00194922
0.0024957
0.00733714
0.00555239
0.00414245
0.00343843
0.00384041
0.004772
0.00273637
0.000281704
0.00305413
0.00388063
0.00718895
0.00320358
0.00518644
0.00701098
0.00719458
0.00409684
0.000518254
0.00452014
0.00582551
0.00747135
0.00709841
0.00745941
0.00492341
0.00605549
0.0050263
0.00724137
0.00537845
0.00506282
0.0044477
0.00512658
0.00533323
0.00519381
0.00260982
0.000753473
0.00343655
0.00353934
0.00452599
0.00416276
0.00671612
0.00068092
0.00270733
0.00643488
0.00100393
0.00331907
0.00298528
0.00724244
0.00567106
0.00233222
0.00536894
0.000875753
0.000740751
0.000989542
0.00343484
0.00738492
0.00716469
0.00555716
0.00456775
0.00109875
0.00539186
0.00416216
0.00631487
0.00676697
0.00368376
0.00129756
0.00746319
0.00101983
0.00404857
0.000261433
0.00216384
0.00128753
0.00516068
0.00747383
0.00742594
0.00703766
0.00404837
0.00604606
0.00647586
0.00498374
0.00143504
0.007318
0.00454293
0.0073149
0.00325861
0.00261647
0.00190001
0.00660655
0.00625022
0.0036902
0.00464302
0.00558166
0.00105253
0.0063773
0.00103867
0.006596
0.00683673
0.00686506
0.0035425
0.00714883
0.00706726
0.00286199
0.00531956
0.00611825
0.00230097
0.00726207
0.00036129
0.00726159
0.000785015
0.00443191
0.00578991
0.00417987
0.00747147
0.00593029
0.00302138
0.0036724
0.00690768
0.00396061
0.00741799
0.00339197
0.00738487
0.00731142
0.00352946
0.00107662
0.00297872
0.00584971
0.00547792
0.00694766
0.00673848
0.00478533
0.00332557
0.00499676
0.00285819
0.00480249
0.00551211
0.00656595
0.00742418
0.00415473
0.00544424
0.00243544
0.00500081
0.00557103
0.000561789
0.00739032
0.000437384
0.00334685
0.0040059
0.0032127
0.00030943
0.00392147
0.00471329
0.0074723
0.00726688
0.00648357
0.00704093
0.00126461
0.000542468
0.00744152
0.00129944
0.00326614
0.000856661
0.00130054
0.00418328
0.00479288
0.0039051
0.00498058
0.00136006
0.000407902
0.00454859
0.00617595
0.00721107
0.000335007
0.00682194
0.00532601
0.00704501
0.00687343
0.00694134
0.00585905
0.00117801
0.00241154
0.00592628
0.0074698
0.00453842
0.00538693
0.00474257
0.00690216
0.0074279
0.00582724
0.00465905
0.00754675
0.00382967
0.00525257
0.00298559
0.00712535
0.0073506
0.00269831
0.00237395
0.00600374
0.00734605
0.00407273
0.00747128
0.00508635
0.004941
0.00745943
0.00341813
0.00526874
0.00529104
0.00443546
0.00170032
0.00366477
0.0038543
0.00205828
0.0025794
0.00521021
0.00334381
0.00239175
0.00166871
0.00687436
0.00262426
0.00726267
0.00452643
0.0046065
0.00460943
0.00343231
0.00748895
0.00225383
0.0035849
0.00188634
0.00307039
0.00213753
0.002045
0.00409404
0.0055552
0.00735092
0.00322311
0.00726363
0.00733078
0.00477565
0.00590076
0.0072728
0.00423317
0.00740312
0.00245029
0.00496845
0.00742028
0.00366488
0.00731559
0.00699567
0.00308175
0.00340574
0.00739638
0.00309548
0.00746277
0.00421903
0.00271936
0.00572241
0.00398945
0.00718939
0.00540491
0.00520329
0.00412833
0.00418479
0.00236654
0.00191658
0.00677199
0.00247967
0.00211241
0.00247691
0.000557523
0.00196526
0.000654257
0.000941668
0.00586477
0.000938064
0.00301738
0.00416596
0.00369617
0.00345754
0.00365828
0.00408108
0.00729148
0.000798685
0.00556709
0.00737544
0.00569432
0.00482938
0.00345246
0.00309702
0.00697922
0.00503375
0.00479753
0.00394378
0.00720731
0.00394017
0.00538418
0.00111299
0.000850153
0.000595748
0.0073559
0.0066563
0.00735622
0.00331688
0.00086506
0.00386343
0.00291516
0.00165266
0.0048001
0.00337686
0.00307655
0.00361251
0.00165283
0.00180833
0.00723732
0.00537608
0.00680353
0.00425304
0.00722285
0.00419089
0.00530246
0.00620887
0.00451496
0.00395976
0.00111551
0.00454747
0.00433041
0.00297307
0.00733636
0.000892835
0.00644808
0.00699154
0.00629872
0.00714012
0.00709218
0.00721125
0.00623529
0.00660236
0.00636314
0.00551831
0.00694236
0.00398233
0.00418445
0.00698347
0.00716322
0.0053514
0.00686874
0.00680435
0.00285234
0.00422273
0.00748944
0.00667291
0.00385767
0.00196523
0.006129
0.00432408
0.00360435
0.00679037
0.00676186
0.00285001
0.00743433
0.00501843
0.00731172
0.00283601
0.000913889
0.00415601
0.0074308
0.0019261
0.0074114
0.00525012
0.00390854
0.00502347
0.00720212
0.00563176
0.00731914
0.00726447
0.00481786
0.00413498
0.00439962
0.00405019
0.00632259
0.00717634
0.00403674
0.00687512
0.00687671
0.00422027
0.00577579
0.00506563
0.00681867
0.00530128
0.0037377
0.00317969
0.00666377
0.000836611
0.00701794
0.00214813
0.00489357
0.00352765
0.0035203
0.00679504
0.002463
0.00684555
0.00366657
0.00712374
0.00108107
0.00106985
0.00731287
0.00307094
0.00402884
0.00375345
0.00412248
0.00444183
0.00400324
0.00406667
0.00499886
0.00722343
0.00317259
0.00465597
0.00653587
0.00337603
0.00416465
0.00628474
0.000979875
0.000424687
0.00684538
0.000516548
0.000522434
0.00403958
0.000502171
0.000721012
0.00668104
0.00401698
0.00428059
0.00410106
0.000941716
0.00393567
0.00652191
0.00648951
0.00441091
0.00437832
0.00411526
0.00407173
0.000918689
0.000735546
0.00136888
0.00543764
0.00112346
0.00370843
0.00583036
0.00735425
0.0056461
0.00740111
0.00423167
0.0047898
0.00284694
0.00482513
0.00748961
0.00418145
0.00551205
0.00445794
0.00743321
0.00510413
0.00488657
0.00523181
0.00562931
0.00343181
0.00288386
0.00522461
0.00425827
0.00740028
0.00116652
0.00280881
0.00228699
0.00744186
0.00267194
0.00319245
0.00332885
0.0073381
0.00435618
0.00740211
0.00491264
0.00325761
0.00338738
0.00381362
0.00363186
0.00603736
0.00236458
0.000922977
0.00689385
0.00176822
0.0056668
0.00174597
0.00677845
0.00631344
0.00720834
0.00477316
0.00575814
0.00308077
0.00538479
0.00675499
0.00734207
0.00731133
0.00455907
0.00273703
0.00416893
0.00733516
0.00590459
0.00577183
0.00571338
0.00555824
0.00495377
0.00451541
0.00282013
0.00472329
0.00372047
0.000721288
0.00544749
0.00479115
0.00643932
0.00741184
0.00182811
0.00195974
0.00455357
0.00664109
0.00438215
0.00439966
0.00685154
0.00191152
0.0074786
0.00241216
0.00255447
0.0028483
0.00563679
0.00300279
0.00744261
0.00456425
0.00462536
0.00696755
0.0072284
0.00630142
0.000898705
0.00523182
0.00251844
0.00704545
0.00178728
0.00696079
0.00557924
0.00229692
0.00251083
0.00477172
0.00702107
0.000740469
0.00599919
0.00565387
0.00595979
0.00656469
0.00723397
0.00238404
0.00298112
0.00642458
0.00613176
0.00498366
0.00723481
0.00221393
0.00732483
0.00539819
0.000526824
0.0046324
0.00727866
0.000993377
0.00139907
0.00719967
0.000335423
0.000350759
0.00449792
0.00744449
0.00617842
0.00731651
0.00430634
0.00396645
0.00136018
0.00732211
0.00279435
0.00646494
0.00212597
0.00231118
0.00433635
0.00494841
0.00162588
0.00548901
0.00630208
0.00360099
0.00354551
0.0028574
0.003045
0.00305953
0.00669629
0.0035035
0.00285137
0.00341263
0.00534376
0.00324755
0.00374251
0.00680658
0.00276532
0.0037658
0.00420737
0.00280302
0.00343499
0.00479024
0.00493078
0.00655215
0.00188706
0.00508066
0.00680385
0.00692552
0.000316986
0.00403062
0.00551257
0.00058725
0.000799378
0.00732802
0.00475615
0.000225515
0.00211351
0.000862193
0.00264661
0.00315417
0.000656955
0.00554561
0.00669958
0.00591288
0.00325467
0.00335492
0.00332839
0.00696656
0.00317361
0.00495635
0.00398862
0.00666371
0.004371
0.00419317
0.00178827
0.000955978
0.00288483
0.00318415
0.00411656
0.00654771
0.00344439
0.0074141
0.00605313
0.0056784
0.00527121
0.00659053
0.00200279
0.004696
0.00681334
0.00184844
0.00198342
0.00101275
0.00131253
0.00403505
0.00751079
0.00486195
0.00725801
0.00106124
0.00467681
0.00114448
0.00428341
0.00424787
0.00556798
0.00486242
0.00570548
0.00367675
0.00215602
0.00375765
0.00572584
0.00191128
0.00458692
0.0074859
0.00444354
0.00403052
0.00093389
0.00558381
0.00186994
0.00381645
0.00747329
0.00718553
0.00257165
0.00423208
0.0041408
0.0074269
0.00523926
0.00450495
0.00458375
0.0042511
0.00414444
0.00510804
0.000980897
0.000662611
0.00459531
0.000865648
0.00485156
0.00300039
0.00347461
0.00672398
0.00380944
0.00522007
0.00429429
0.00420585
0.00716293
0.000608339
0.00270861
0.00348347
0.00509729
0.00688407
0.00382754
0.00596178
0.00249026
0.00747868
0.00129557
0.00415067
0.00711001
0.00434238
0.00679421
0.00555293
0.00471157
0.0065389
0.00367301
0.00737178
0.0069935
0.00440295
0.00105477
0.00742494
0.000716849
0.0022986
0.00233922
0.000700349
0.00433328
0.00383345
0.00233104
0.00389626
0.00081282
0.000459159
0.000960422
0.00340753
0.00535497
0.00369833
0.00300148
0.000944917
0.00258386
0.00376927
0.00614334
0.00469122
0.0044183
0.00316867
0.00603061
0.00432694
0.00133194
0.00218396
0.00556267
0.00246469
0.00115441
0.000743755
0.0035986
0.000500975
0.00206674
0.00069497
0.000893053
0.0045014
0.00305158
0.00728228
0.00684023
0.00491062
0.000592599
0.00141182
0.00484793
0.00490329
0.00727188
0.000815232
0.000529386
0.00732088
0.00229423
0.00375412
0.00732647
0.00224972
0.00732389
0.00737073
0.00452048
0.0049037
0.00168555
0.00663003
0.00731071
0.00532414
0.00529468
0.00527404
0.00113673
0.00182868
0.00721167
0.00143967
0.00670371
0.00707293
0.00700429
0.00182295
0.0045986
0.00208465
0.00275026
0.00599137
0.00736472
0.001379
0.000712244
0.00465442
0.00402621
0.00192015
0.00546297
0.00561909
0.00309016
0.00284481
0.00294511
0.00425518
0.00236676
0.00112545
0.0074237
0.0011933
0.00594441
0.00394125
0.00725628
0.00207359
0.00279021
0.0073781
0.00268494
0.00135842
0.00378302
0.00197236
0.00508437
0.00601728
0.00480036
0.00353625
0.00475057
0.00325005
0.000607995
0.00491357
0.00288013
0.00181378
0.00179929
0.000933565
0.00175613
0.0041992
0.000579286
0.00723425
0.00683875
0.00448814
0.00268097
0.00395185
0.00153139
0.00141862
0.00326305
0.00565072
0.00476888
0.0032757
0.00361335
0.00396362
0.00545536
0.00139724
0.00406996
0.00479098
0.00227881
0.00204101
0.0052139
0.000576843
0.00396301
0.00537362
0.0038675
0.00402088
0.00555075
0.00712882
0.0033903
0.00386419
0.000847431
0.00288816
0.0049014
0.00372236
0.00594481
0.00354486
0.000838873
0.00462465
0.00207663
0.00613219
0.00208173
0.00286745
0.00376008
0.00546333
0.00529792
0.00357879
0.00175566
0.0040268
0.00171924
0.000758252
0.00542031
0.00719558
0.00550682
0.0011429
0.00563854
0.00216227
0.0067895
0.00172763
0.00191238
0.00391242
0.00331713
0.00434327
0.00730839
0.00514831
0.00318782
0.00106996
0.00237978
0.000956677
0.00722182
0.00248914
0.00281418
0.00258649
0.00370939
0.00408153
0.00170206
0.00166065
0.00367529
0.000956966
0.00369301
0.00371261
0.00452227
0.00518841
0.00385751
0.00501301
0.00137667
0.00359578
0.00380081
0.00493379
0.0063853
0.000849808
0.00214387
0.000749518
0.00171164
0.00125393
0.00209937
0.00396567
0.00134874
0.00368017
0.00137554
0.00202795
0.00206564
0.00142177
0.00329302
0.00562343
0.00452
0.00747391
0.00158419
0.00373509
0.00353184
0.00446111
0.00151836
0.00623208
0.00440566
0.00631575
0.00746134
0.00298222
0.00204859
0.00303782
0.00348106
0.00599843
0.00236431
0.0068979
0.0032589
0.00315537
0.00736007
0.00256493
0.00209521
0.00454139
0.00233777
0.00407209
0.00275345
0.0020757
0.002957
0.00316738
0.000231097
0.000637819
0.00166621
0.000504214
0.00339282
0.00345268
0.000622281
0.00067826
0.00569979
0.00112653
0.00337136
0.0042085
0.000550196
0.00265449
0.00712744
0.00322672
0.00166761
0.00665516
0.000741023
0.000352166
0.00233905
0.000833522
0.00227798
0.00100746
0.00088654
0.00575582
0.0046105
0.00278551
0.00223051
0.00376603
0.00733672
0.00228979
0.000714494
0.00532702
0.00177047
0.00446778
0.00207654
0.00662763
0.00616814
0.00204004
0.0020454
0.00429358
0.00185842
0.00547
0.00154216
0.00730942
0.00645695
0.00312308
0.00189614
0.00491759
0.00737401
0.000811124
0.00155898
0.00164439
0.00375389
0.00302061
0.00209374
0.00117262
0.00421218
0.00117482
0.00214814
0.00549065
0.00327796
0.00215251
0.000785337
0.00235125
0.00197472
0.00591341
0.00561088
0.0021164
0.00418078
0.00282031
0.00508014
0.0074045
0.00680433
0.00432296
0.00268672
0.000772669
0.00450187
0.000510895
0.00455378
0.00451537
0.00298742
0.0056926
0.00385614
0.00438747
0.00471249
0.00196377
0.00610793
0.00155583
0.00730023
0.000388368
0.00133143
0.00146572
0.00200207
0.0043791
0.00548983
0.00352466
0.00619306
0.000699418
0.000773213
0.00344259
0.0022615
0.00096617
0.000975133
0.0023775
0.00119009
0.000522507
0.00368469
0.00641434
0.000534809
0.00400024
0.00481562
0.00448112
0.000853015
0.000670521
0.00410946
0.00426444
0.00140858
0.00248466
0.000960622
0.000809408
0.00329881
0.00109168
0.00119864
0.00340615
0.00485582
0.00129654
0.00638401
0.00128817
0.000241625
0.00741259
0.00478715
0.00401499
0.00583259
0.00305021
0.00316976
0.00746254
0.00300987
0.004167
0.000924
0.00170162
0.00512468
0.00140835
0.00478381
0.000403272
0.00694067
0.00376606
0.0024385
0.00639593
0.0010635
0.00399332
0.00313261
0.00239018
0.00245207
0.00402558
0.00362865
0.00212668
0.000756968
0.00658065
0.00128334
0.000762658
0.00130693
0.00431486
0.00109504
0.00189997
0.00478163
0.00527608
0.00114005
0.00191094
0.00241575
0.000831065
0.00258606
0.00103602
0.00302672
0.00291663
0.00224051
0.000993106
0.0046385
0.00658359
0.00222151
0.004287
0.00255694
0.00281242
0.000780044
0.00560269
0.00399782
0.00575703
0.00148294
0.00560836
0.000601643
0.00236469
0.00558168
0.00739628
0.00197915
0.00182195
0.000973204
0.00199887
0.00237683
0.00122305
0.000940439
0.00419304
0.000951007
0.00406395
0.00304245
0.000485195
0.00165081
0.0030888
0.0028511
0.00561391
0.00161859
0.000502421
0.00179601
0.00236972
0.00350057
0.00728456
0.00198871
0.00537497
0.00379585
0.00628008
0.00114518
0.00241289
0.00158807
0.00429665
0.00169219
0.00417066
0.00331825
0.00123216
0.0018989
0.00243346
0.00279415
0.0058591
0.000420639
0.00167809
0.00165126
0.00148948
0.00335241
0.00567847
0.00112574
0.000696297
0.00166995
0.00299307
0.00290035
0.0019106
0.00275737
0.0011183
0.00571877
0.00140762
0.00154175
0.00595289
0.00137082
0.00344079
0.00262141
0.00286988
0.00142358
0.00249647
0.00655128
0.000739178
0.00339484
0.000684293
0.00268181
0.00400197
0.0026019
0.00218246
0.00147331
0.00282343
0.00426463
0.00310621
0.00135181
0.00414422
0.00458044
0.000652859
0.00725228
0.00372483
0.000886362
0.00413373
0.00285664
0.00173432
0.00246754
0.00119074
0.00396085
0.000182621
0.0021607
0.00191373
0.00221438
0.00125888
0.00311366
0.000923406
0.00134666
0.00136715
0.0029612
0.00401549
0.00740973
0.00417087
0.00382806
0.00292085
0.000710392
0.00380842
0.00602973
0.00505196
0.00531498
0.00344165
0.00421518
0.00746866
0.00746121
0.00303225
0.0010124
0.00713361
0.00285524
0.00248234
0.00544603
0.00683969
0.00289996
0.00258067
0.0074707
0.0058377
0.00344413
0.00363912
0.00672798
0.003883
0.00115104
0.00392759
0.00396878
0.00593709
0.007252
0.00188342
0.00486441
0.00609303
0.000803603
0.0013884
0.000998501
0.00695889
0.000983258
0.000454578
0.00689163
0.000354547
0.000829489
0.000597482
0.00397767
0.00505816
0.00431745
0.0015771
0.00714394
0.00446615
0.00455999
0.00400284
0.00283495
0.0036679
0.00351585
0.00116805
0.00442518
0.00291401
0.000909783
0.00402097
0.000414208
0.00191996
0.00130711
0.00692687
0.00308921
0.00200968
0.00623567
0.00494333
0.00193599
0.00734226
0.00231702
0.00184866
0.000411875
0.00726374
0.00166653
0.00563045
0.00310429
0.0031212
0.0057617
0.00142655
0.00505708
0.00229804
0.00502767
0.00132547
0.000278007
0.00421656
0.00722493
0.000495242
0.00483558
0.000322764
0.00383774
0.00381788
0.00462908
0.00448226
0.00571441
0.0071826
0.00408122
0.00233631
0.00571928
0.00220614
0.00413653
0.00382574
0.00731055
0.00233925
0.00108612
0.00408064
0.004586
0.00534694
0.00487733
0.00313229
0.00430671
0.00462607
0.00607317
0.00242109
0.00266494
0.00747213
0.00395748
0.00391355
0.00524959
0.00387468
0.00384061
0.00302618
0.00377289
0.00404012
0.00293427
0.00395921
0.0060932
0.00498936
0.00657419
0.00212952
0.00226495
0.00196187
0.00363169
0.00493932
0.00438409
0.00131658
0.00590241
0.00561888
0.00564176
0.00162757
0.00300419
0.00131093
0.0012895
0.00127629
0.00363985
0.00475663
0.00461486
0.00443963
0.00665146
0.00124742
0.00424355
0.00685459
0.00429359
0.00326555
0.00441774
0.00138138
0.00449359
0.0023877
0.00290557
0.00351664
0.00630237
0.00462473
0.00382956
0.00390433
0.00479515
0.00308185
0.00344484
0.00293794
0.00380755
0.00508456
0.00494425
0.00220384
0.00196294
0.00497658
0.00426352
0.00240009
0.00381569
0.00230984
0.00711242
0.00581352
0.00239187
0.0048088
0.00602832
0.00475831
0.00704209
0.00702852
0.00380056
0.00448004
0.00204305
0.00463449
0.00260284
0.00657916
0.00462659
0.000980811
0.00419898
0.00429098
0.00539791
0.00536662
0.00404769
0.00433305
0.000342299
0.00348706
0.00481214
0.00637912
0.00550099
0.0050858
0.00735843
0.00662091
0.00352404
0.00420523
0.00672344
0.00706827
0.00303259
0.000994891
0.00139749
0.00308752
0.00183348
0.00353875
0.00410298
0.00355984
0.00165923
0.00199917
0.00354118
0.00413446
0.000868298
0.00500891
0.00414399
0.00398323
0.00409467
0.00710887
0.000328597
0.00483947
0.00371687
0.00742514
0.00273692
0.00295206
0.000408798
0.000251311
0.00485085
0.00612745
0.00721907
0.00409745
0.00375782
0.00550976
0.000231137
0.00110663
0.00499151
0.00257887
0.00144131
0.0051436
0.00520351
0.00312239
0.007225
0.00521525
0.00697256
0.00446339
0.00280144
0.00402472
0.00435388
0.00544229
0.00211005
0.00443878
0.00743716
0.00126421
0.0057195
0.0037302
0.00332431
0.00101339
0.00141776
0.00352829
0.00287976
0.00570625
0.0028478
0.00293021
0.00634459
0.000612044
0.00151485
0.00287978
0.00398576
0.00340175
0.00397131
0.00394489
0.0012501
0.00737103
0.00695777
0.005744
0.00539268
0.000958252
0.00137115
0.00132447
0.00184082
0.00323921
0.00287996
0.00740777
0.00749571
0.0045497
0.00531342
0.00525485
0.00589887
0.00735337
0.00116099
0.000453618
0.00726717
0.00714351
0.0033179
0.00178305
0.00333043
0.00728842
0.00545652
0.00164332
0.000931658
0.00353402
0.00204974
0.00413341
0.00167002
0.000539447
0.00303758
0.00657126
0.00731524
0.00617176
0.000933649
0.00580186
0.00435022
0.00436832
0.0073307
0.000955435
0.000311301
0.000521004
0.0017009
0.00183865
0.0065416
0.00722495
0.00253622
0.00432447
0.000991634
0.000815782
0.0007105
0.00044884
0.000767989
0.00182738
0.00662312
0.000881145
0.00739786
0.000403283
0.0039064
0.0007411
0.0044762
0.00189011
0.00642577
0.00312537
0.00224764
0.00225553
0.00533738
0.00560182
0.00399142
0.000946429
0.00118563
0.0050057
0.00517972
0.000490854
0.000362852
0.00388141
0.00164118
0.000661878
0.00117984
0.00481351
0.00709043
0.000860066
0.000579825
0.00152884
0.00721257
0.00128687
0.0065675
0.000691111
0.00111589
0.000466463
0.00242021
0.00605889
0.00173056
0.00700758
0.00467478
0.0040077
0.00239053
0.00646408
0.00386008
0.00529465
0.00385259
0.00430835
0.00718268
0.00673818
0.00373301
0.00688387
0.00623292
0.00446928
0.00438706
0.00175302
0.00391416
0.00245254
0.00409253
0.00629922
0.00443965
0.000960846
0.00357345
0.00345861
0.00217202
0.000628771
0.00441147
0.00325425
0.00358362
0.00103428
0.00182171
0.00136188
0.00481482
0.00698578
0.00516942
0.00352679
0.00586936
0.00345936
0.00328462
0.00389127
0.00726274
0.004885
0.00585692
0.00470211
0.00317409
0.00469562
0.00375353
0.000707846
0.00367182
0.00414617
0.0044083
0.00304885
0.00116317
0.00231328
0.0042806
0.00483991
0.00324201
0.00113749
0.00141967
0.00398763
0.00333826
0.000385343
0.00154775
0.0020717
0.0040997
0.00154199
0.00318216
0.00405433
0.00316148
0.00119779
0.00480031
0.0041526
0.00243176
0.00671243
0.00239599
0.00275401
0.00321731
0.0033424
0.00194944
0.00434645
0.00586129
0.00733622
0.00203373
0.00334768
0.00440463
0.00248506
0.00522563
0.00090805
0.00294328
0.00334349
0.000460076
0.00193178
0.00602694
0.00349085
0.000888402
0.00175455
0.0023824
0.00727907
0.00291252
0.00114849
0.00583711
0.00745739
0.000698166
0.00201616
0.00147339
0.00311752
0.00473643
0.00477999
0.00144445
0.00056569
0.000749273
0.00394642
0.00592095
0.000641959
0.00665241
0.00188771
0.00309686
0.0015661
0.00115586
0.00510896
0.00351461
0.0011928
0.0040589
0.00459715
0.00468378
0.003643
0.00547365
0.000990414
0.000305595
0.00411657
0.00363377
0.000698326
0.000580419
0.000706902
0.00228479
0.00118388
0.00209633
0.000616536
0.00352662
0.00353197
0.000832562
0.00242518
0.00253671
0.00075491
0.000855438
0.000401237
0.00705368
0.00654722
0.000450772
0.00626318
0.00429586
0.000867732
0.00566887
0.00297442
0.00426194
0.00327518
0.00509052
0.00649172
0.000496294
0.000410022
0.00186287
0.000836601
0.0024254
0.00388926
0.00440597
0.00469677
0.00337614
0.00512309
0.0057081
0.00424061
0.00505898
0.000724358
0.000718809
0.00381695
0.00187962
0.0044751
0.00413682
0.00287911
0.003581
0.00370688
0.00483346
0.000609838
0.00121347
0.00435906
0.00075571
0.00282776
0.00144014
0.00278966
0.00354478
0.000968444
0.00282986
0.00117055
0.00322018
0.00292526
0.00292391
0.0065804
0.00132016
0.0072798
0.00575021
0.00259111
0.00433071
0.00151203
0.003434
0.00192656
0.00343321
0.000904311
0.00401036
0.00343807
0.00369216
0.00722156
0.00310412
0.00335816
0.00182149
0.000364172
0.003044
0.000665788
0.00350358
0.00464181
0.00318499
0.00471808
0.00532392
0.00507485
0.00324394
0.00131481
0.00191628
0.00138157
0.000664199
0.00325268
0.0045082
0.000173312
0.00105746
0.0046312
0.00348473
0.00139486
0.00380102
0.000791194
0.000469529
0.00266955
0.00119831
0.00139423
0.00288073
0.000825653
0.00184955
0.0069177
0.00349185
0.00109764
0.00119171
0.00690482
0.00102715
0.0074556
0.00263923
0.00525629
0.0026325
0.00193457
0.000941773
0.00106543
0.00589001
0.00568909
0.000252044
0.0072406
0.00444087
0.0012022
0.00623911
0.00286498
0.0031872
0.00366006
0.000531565
0.00155889
0.000655751
0.00173952
0.0031524
0.00121872
0.00614204
0.00528283
0.0011309
0.0069083
0.00377769
0.00265394
0.00526899
0.00141308
0.000541239
0.00710697
0.00250083
0.00725804
0.000817296
0.0046616
0.000618556
0.00284228
0.00257805
0.00650197
0.00256575
0.00268841
0.00677655
0.00533786
0.00335475
0.00735556
0.0013521
0.00337665
0.00355373
0.00617782
0.00438406
0.00354132
0.00272361
0.00291604
0.00205827
0.00319614
0.00402253
0.00419221
0.00157267
0.000634102
0.000832734
0.000748572
0.00128398
0.000873507
0.000878157
0.0030619
0.000273612
0.000687741
0.00127393
0.00205708
0.00282519
0.000988602
0.00103798
0.00244777
0.0013555
0.00215839
0.00611704
0.0028564
0.00122735
0.00397556
0.000544603
0.00308015
0.000423242
0.0020121
0.00120182
0.00145015
0.00120989
0.000720038
0.0019658
0.000609808
0.00269205
0.00207249
0.00454656
0.0017501
0.00515499
0.00602508
0.0010113
0.00344807
0.000957462
0.00169485
0.00512459
0.00236794
0.00418754
0.00134284
0.00113997
0.00753574
0.0056121
0.00164459
0.000977026
0.00372413
0.00271334
0.00115945
0.00116079
0.00459391
0.0072955
0.00391785
0.00424268
0.000741913
0.00740885
0.000948278
0.00036154
0.00514231
0.00280606
0.00429143
0.00387877
0.000850138
0.00280279
0.000760876
0.00332577
0.00448182
0.000532937
0.000998569
0.00551822
0.00238534
0.00550169
0.00676651
0.00120967
0.00275654
0.000781731
0.00380777
0.00644469
0.00238955
0.00699122
0.00514755
0.0054355
0.00509652
0.00276326
0.00247635
0.0014142
0.00354548
0.00117605
0.00452911
0.00700408
0.00218153
0.00132755
0.000874461
0.000904605
0.00170999
0.00199664
0.00107502
0.0010031
0.000806956
0.000906437
0.00322227
0.00302275
0.00408312
0.00141336
0.00501368
0.00303768
0.0031999
0.00151711
0.000554047
0.00348158
0.00321479
0.00347637
0.00479541
0.00341159
0.00443083
0.00618194
0.00484166
0.00274021
0.00303175
0.0027191
0.00570608
0.0029871
0.00147005
0.000779275
0.00423741
0.000602559
0.00744489
0.00339849
0.00703707
0.00448537
0.000966628
0.00273476
0.00121706
0.0037603
0.00363593
0.00371394
0.00453073
0.00498152
0.00338304
0.00332165
0.00390186
0.0073931
0.000850971
0.00316928
0.0013233
0.00291409
0.0010443
0.00603558
0.00460946
0.00346546
0.00395042
0.00296234
0.000998423
0.00667354
0.00411096
0.000789771
0.00246787
0.00243079
0.00284722
0.00243963
0.00247043
0.00222602
0.00511324
0.00748809
0.00676636
0.00202901
0.00162239
0.00483622
0.00046399
0.00528336
0.00182966
0.00705249
0.0064843
0.00196699
0.0043593
0.00635787
0.0010538
0.00742104
0.00419873
0.00154165
0.00255116
0.00715323
0.00136317
0.00683601
0.00711039
0.00119237
0.00323326
0.00288854
0.000837594
0.00744288
0.00207679
0.00143947
0.00172422
0.00101187
0.00118425
0.00500388
0.00582364
0.00290995
0.00609197
0.0020112
0.00294798
0.00563461
0.00630652
0.00348126
0.00122586
0.00299542
0.00435667
0.00235623
0.00342414
0.00248742
0.00738871
0.00209997
0.0012501
0.00366743
0.00360294
0.00532197
0.00504907
0.00337429
0.00432724
0.00223189
0.00358876
0.000629543
0.00431889
0.0069356
0.00105111
0.00286895
0.000667931
0.000995657
0.00575487
0.00349165
0.00130053
0.00309278
0.000523704
0.00148452
0.000638467
0.00154667
0.000602081
0.0030177
0.00192904
0.00161213
0.000577845
0.00118176
0.00297048
0.000725476
0.000438999
0.00229726
0.000363169
0.00100356
0.00211548
0.00258967
0.000848834
0.00096813
0.00745799
0.00372013
0.00104075
0.000794016
0.00109384
0.00137534
0.00162956
0.00081368
0.0028703
0.00368769
0.00443894
0.00710443
0.00316577
0.00665696
0.00109184
0.00298045
0.00438627
0.000716512
0.00392698
0.00232198
0.00448875
0.00659068
0.00318607
0.00427421
0.00179751
0.00689033
0.00190043
0.00060884
0.0049588
0.00714692
0.00338126
0.00523587
0.00109973
0.00288839
0.00574323
0.00641348
0.000612185
0.00654703
0.00384387
0.00709228
0.00177843
0.00319424
0.0044458
0.0058835
0.00521546
0.00142112
0.00362505
0.00252604
0.00750364
0.00723554
0.00705811
0.0039431
0.00465653
0.00362668
0.00595161
0.0034109
0.00364137
0.00266067
0.00131968
0.00122784
0.00342443
0.00192951
0.004206
0.00272292
0.00350916
0.00373327
0.00656859
0.00317057
0.00430397
0.00641546
0.00216366
0.00464674
0.0030831
0.00112742
0.00492466
0.00277936
0.00128534
0.00393906
0.00115556
0.00198383
0.00118379
0.000365229
0.00281935
0.00546211
0.00201333
0.000479282
0.00390192
0.00718357
0.0064422
0.00567173
0.00355599
0.00462223
0.00733227
0.00723421
0.00390361
0.00287272
0.00746921
0.00668371
0.00745548
0.00551749
0.00311743
0.00184286
0.00307351
0.00629455
0.00352522
0.000955332
0.00542352
0.0061366
0.00366037
0.00056087
0.00062774
0.00374907
0.00539551
0.00501949
0.00323553
0.00456096
0.00064602
0.00189254
0.00500914
0.00404975
0.00628441
0.00354201
0.00188714
0.00400961
0.00326004
0.0036419
0.00137463
0.00197709
0.00166958
0.00099626
0.000343952
0.00228185
0.00194048
0.00383323
0.0039405
0.00346836
0.00326655
0.00613396
0.00441848
0.000478294
0.00707437
0.00181913
0.00123006
0.00334686
0.00298624
0.000634329
0.00203304
0.00409281
0.00386295
0.00746239
0.0030371
0.00100159
0.00383312
0.00163613
0.00506783
0.00283782
0.000725854
0.000901905
0.00346631
0.00331832
0.00111137
0.00476832
0.000711916
0.000653912
0.00128355
0.0074196
0.00708953
0.000376377
0.00627779
0.000509419
0.00212561
0.00320465
0.00114313
0.00100145
0.00644744
0.00744653
0.000984369
0.00653193
0.00607919
0.00504098
0.00685455
0.00431373
0.0038471
0.002322
0.00580213
0.000368596
0.00320135
0.00438653
0.00382976
0.000325051
0.00424607
0.000583722
0.00498385
0.00345546
0.00376428
0.00115187
0.00560406
0.0048787
0.0050128
0.000972774
0.00203061
0.00205887
0.00142341
0.00276859
0.00637715
0.000822306
0.00319072
0.00328903
0.00324029
0.0044846
0.00318625
0.00387254
0.00715425
0.000392321
0.0013907
0.00452624
0.00498033
0.00236776
0.00431321
0.0028004
0.00310936
0.00498746
0.00232018
0.00468068
0.00498681
0.00421085
0.0015313
0.0045566
0.00475266
0.0049268
0.00354742
0.00675062
0.0053831
0.00528109
0.00279094
0.00417885
0.00272198
0.00256982
0.00367486
0.00054322
0.0051014
0.00298012
0.00134126
0.000902143
0.00152358
0.00372822
0.00407833
0.0019359
0.000429282
0.00397906
0.00100581
0.00401192
0.00732698
0.00276804
0.00176658
0.00385948
0.00468273
0.0074679
0.00522285
0.00034954
0.00518343
0.00670629
0.00255248
0.00043243
0.000561657
0.00385481
0.000294942
0.000662987
0.00113755
0.00178845
0.000873289
0.000560897
0.00531215
0.00100235
0.00397456
0.00560249
0.00475452
0.000551366
0.00211232
0.00696208
0.0059156
0.00102755
0.00464309
0.000552198
0.00576377
0.00293758
0.0050262
0.00295698
0.000653729
0.00742544
0.00316418
0.00283719
0.00586521
0.00371677
0.00612299
0.00290271
0.000523428
0.000517154
0.000679957
0.00153995
0.00133965
0.00619583
0.00653666
0.00523996
0.00369103
0.00721622
0.00158185
0.00740224
0.00101467
0.00420643
0.00690342
0.00604658
0.00477143
0.00696372
0.00345419
0.00300819
0.00717647
0.00315381
0.000939698
0.00580373
0.0011148
0.000933633
0.00667627
0.000290676
0.000572359
0.00282411
0.00294234
0.00387508
0.00129448
0.00429856
0.00209383
0.00141634
0.00569037
0.00168409
0.00727577
0.00216886
0.00423131
0.00236668
0.00195669
0.000810482
0.00332806
0.00392933
0.000712581
0.0013928
0.00212114
0.00170086
0.00566111
0.00150197
0.00433255
0.00192588
0.00318059
0.00612196
0.00133837
0.00257081
0.00239412
0.00648456
0.00067242
0.000865453
0.000593602
0.00609479
0.00431576
0.000925714
0.000634178
0.00190359
0.00390609
0.00251315
0.00114257
0.000845629
0.00188692
0.00490061
0.00343972
0.00436846
0.00533071
0.00400418
0.00062074
0.0052674
0.00187737
0.00313803
0.00691587
0.00260444
0.0026696
0.00549084
0.00392665
0.00584574
0.00229101
0.00147463
0.00471587
0.00404406
0.00216836
0.00313549
0.00284579
0.00196918
0.00204485
0.00361386
0.00626201
0.00605836
0.00556623
0.000790315
0.0038001
0.00104382
0.00308883
0.00393605
0.00537859
0.00341181
0.00699469
0.00249015
0.00747217
0.00224539
0.0023953
0.00359434
0.00452111
0.00241809
0.00347995
0.00288151