/*--------------------------------*- C++ -*----------------------------------*\
| =========                 |                                                 |
| \\      /  F ield         | OpenFOAM: The Open Source CFD Toolbox           |
|  \\    /   O peration     | Version:  2506                                  |
|   \\  /    A nd           | Website:  www.openfoam.com                      |
|    \\/     M anipulation  |                                                 |
\*---------------------------------------------------------------------------*/
FoamFile
{
    version     2.0;
    format      ascii;
    arch        "LSB;label=32;scalar=64";
    class       volScalarField;
    location    "0.0440925";
    object      omega;
}
// * * * * * * * * * * * * * * * * * * * * * * * * * * * * * * * * * * * * * //

dimensions      [0 0 -1 0 0 0 0];

internalField   nonuniform List<scalar> 
47425
(
57.1163
67.5961
72.2627
164.192
138.505
72.4563
93.5277
103.382
49.3947
597.696
140.193
46.7921
69.8886
79.9153
95.615
90.5818
69.0766
49.236
1231.75
180.801
86.6616
46.4085
107.349
64.3616
47.7621
45.3053
78.7734
679.485
71.0567
56.3067
45.6987
47.4796
47.7625
66.5962
54.2099
68.0085
45.8133
67.5666
65.3127
75.3478
73.1572
83.0257
141.239
144.998
1331.35
107.382
97.4355
77.651
79.007
48.626
583.34
225.715
50.345
813.557
115.03
123.943
45.1382
57.4908
83.916
62.2381
1122.26
1125.7
881.474
46.3661
49.3531
46.5272
62.0081
81.7504
773.562
46.2693
78.6122
51.5445
48.5077
91.15
690.738
49.4045
863.208
81.9325
1382.92
256.738
718.666
64.9074
44.9644
47.0766
46.6115
83.4096
53.7628
50.1864
111.344
412.47
46.1822
78.139
45.4306
115.569
148.568
196.387
49.6528
51.9635
88.1601
80.1917
61.0141
91.7527
52.6305
98.4609
50.0625
54.2296
47.6209
93.7538
47.8589
48.1726
351.492
63.4313
68.8268
156.14
48.1433
912.883
47.6933
230.757
80.3451
60.9892
79.5839
48.5476
58.6818
62.095
98.5374
58.7307
85.7872
49.1907
106.72
44.8304
46.1392
98.5862
131.077
122.879
74.5698
67.0109
48.7013
61.1422
69.1394
98.9317
71.0663
135.098
72.3726
84.4229
53.3229
49.3293
109.297
63.0846
153.172
72.4248
83.3761
490.205
48.7626
700.925
48.0289
85.5046
58.7287
908.65
94.4672
74.1706
47.9971
45.223
50.5022
47.5622
397.675
837.002
46.1784
697.009
107.103
703.49
704.395
87.5022
73.883
46.7762
73.872
67.3152
720.37
70.5685
52.8354
45.7048
1009.97
47.4403
60.5176
47.092
47.6799
49.1733
56.6146
80.0923
149.969
54.5518
47.9332
71.449
80.7763
77.0275
48.2372
45.8335
61.8744
74.0025
46.6726
82.1776
66.6297
123.194
47.0561
46.6831
50.8864
159.21
53.4833
46.1407
88.0458
48.4496
63.5882
66.4787
47.3275
94.8458
62.7213
63.3195
72.8405
250.671
48.8821
94.2385
282.261
118.097
106.266
96.3113
167.508
237.352
48.1132
131.47
51.2639
60.0663
69.9405
73.6434
106.548
49.3233
166.632
94.6816
315.863
115.667
261.857
182.019
84.3128
58.1524
44.7362
104.525
45.4291
49.473
68.6458
60.6725
44.831
77.7248
44.4976
214.365
67.2806
49.2838
92.0103
44.6716
47.5188
122.07
96.1094
48.3596
126.664
47.3599
78.2911
136.124
69.6819
91.5885
45.922
69.8698
62.5494
82.8134
79.8088
229.777
308.448
48.2731
215.591
180.544
216.223
116.362
293.12
180.396
1168.08
55.5509
1106.75
125.662
80.6815
86.8242
106.304
91.9283
91.8284
49.5396
619.39
46.3656
50.3439
57.1267
67.911
100.888
113.642
46.9508
66.6711
56.958
90.4323
45.4706
88.4752
60.4958
790.976
1045.3
680.43
44.7236
48.9237
44.9796
103.378
691.93
87.7753
118.817
233.186
75.7333
105.783
123.664
93.2099
397.299
205.991
46.6126
61.386
47.4311
83.6307
45.1086
78.7646
61.4561
52.3188
72.3666
82.1981
635.24
55.2027
76.1873
129.159
44.961
661.765
52.7602
46.6625
52.216
47.029
47.2907
45.0688
53.6726
49.4206
51.5912
59.1761
48.4592
83.1082
86.1321
48.3265
46.7206
63.4892
49.0559
49.6905
49.3974
81.1046
44.6046
50.4922
93.4652
57.2402
59.813
80.6933
94.5706
48.1408
49.9319
133.038
48.2331
68.3118
46.0828
132.388
1013.84
78.226
46.1803
200.234
46.057
80.1377
94.909
72.5528
46.1281
63.5244
46.4382
44.661
73.7685
87.9148
82.856
84.8075
52.9584
48.8118
84.636
49.2964
47.9233
82.2361
56.6361
65.9744
49.397
63.1477
90.9622
64.8217
48.8549
488.056
46.8015
388.273
72.1952
107.167
104.932
48.1872
147.474
47.3113
95.9508
47.6838
594.989
355.817
44.5331
50.4743
81.4141
87.0959
81.7819
76.0778
81.0727
90.3434
68.4593
45.3321
103.398
71.3756
49.5234
82.2587
78.3669
53.78
142.658
1390.56
48.3193
281.069
1152.93
90.8953
1185.96
876.563
49.0729
81.1924
76.5613
79.4595
738.487
90.1362
50.2447
50.7942
75.2443
75.8873
82.0153
81.1627
466.146
804.563
149.498
65.558
73.068
132.069
56.7473
45.7132
66.7599
45.2239
84.0049
75.8137
132.706
69.0879
49.3503
79.2963
59.6778
79.9296
45.894
65.3545
67.7937
66.7273
63.544
110.026
124.014
62.663
85.3934
45.5491
497.588
131.026
73.9671
46.5374
139.291
248.953
48.7317
44.7531
48.8792
47.4631
68.1448
50.2007
108.876
83.5264
49.0178
53.7446
147.224
99.096
46.9984
52.0237
58.6632
55.5841
48.2863
51.9422
45.5136
69.2398
57.9895
113.127
61.4529
48.0918
45.0509
45.5375
75.5699
129.65
46.7209
44.5943
56.4532
55.5761
56.2255
60.0056
71.422
73.186
51.9976
76.9225
100.904
432.224
61.9668
69.334
54.3938
49.3455
125.55
125.252
78.3823
49.6285
82.1484
102.299
48.9785
135.911
48.4631
251.455
50.0994
52.4311
58.349
120.844
44.5479
73.0179
73.6296
47.5939
44.9101
51.2238
1144.75
63.1282
150.845
46.8787
95.9792
47.0778
58.7994
81.3391
71.8802
70.931
46.5812
408.034
54.2989
58.9061
54.6234
49.7906
45.4498
58.6279
116.412
48.9007
53.5228
68.2738
45.6956
234.652
46.1079
61.6978
523.685
72.8363
44.9123
373.849
558.399
47.0473
682.931
712.415
71.8181
46.7716
52.6115
45.3714
85.8947
91.0366
582.262
45.7071
130.334
50.4655
106.528
57.4434
85.4121
67.8354
536.133
322.158
52.6694
95.0558
94.0006
85.719
123.825
127.415
50.0607
98.8809
132.912
93.1985
67.6782
131.971
51.881
48.649
132.361
94.7119
78.8159
123.925
102.878
67.8068
73.415
59.0249
55.139
68.1548
48.936
47.5397
1335
62.0337
74.3958
1046.16
1012.48
44.9639
78.1326
1668.77
172.744
91.3072
294.38
119.465
771.12
59.0074
49.3152
60.0981
161.787
113.743
112.844
46.7136
119.708
66.5992
83.9373
49.4911
81.8392
57.713
417.065
695.851
124.071
50.4923
87.3183
45.2066
110.245
47.488
58.2805
63.5135
65.4504
46.5788
183.157
75.6873
47.8737
70.0369
190.564
831.223
210.987
89.0679
44.82
75.1164
45.3221
819.096
71.1966
587.387
85.4584
107.126
65.474
70.5184
60.4173
86.94
55.1492
88.6918
56.1196
208.963
88.5089
49.2342
70.4305
90.3595
936.591
65.3824
204.454
67.6239
48.6659
45.2946
145.773
80.0632
70.3174
46.2334
64.8671
66.0889
74.4346
81.2398
80.3616
64.695
125.042
193.063
71.3621
97.2089
67.6676
115.355
93.382
48.5789
117.527
61.1426
76.8057
80.0728
45.7641
295.55
430.27
97.3636
66.5443
47.6713
92.4889
54.1095
139.376
47.0492
244.134
83.2395
46.1631
78.7128
48.4222
59.6706
70.7843
49.9173
90.6787
44.8764
46.4869
49.0475
165.288
44.1102
379.187
234.577
248.163
358.36
81.6352
222.048
58.8532
48.4345
149.042
344.29
369.975
102.637
60.6275
123.432
118.522
162.272
131.996
95.4828
53.1747
70.9
100.16
115.488
57.4789
83.988
369.939
58.9229
62.7408
153.543
121.929
116.852
151.06
759.16
498.392
230.905
255.213
80.67
120.483
45.2755
47.8713
73.1995
412.684
182.702
72.9448
74.0799
45.4579
361.23
368.673
44.7636
171.923
91.7559
44.9061
168.595
44.8533
45.0467
73.0533
73.344
86.8188
49.4578
45.0501
61.3873
70.0823
68.6871
141.778
104.098
45.0107
250.721
48.3318
46.6258
47.078
200.164
80.3769
268.542
120.889
54.8414
44.8677
68.7362
1266.45
73.8203
85.1761
73.8397
65.8598
61.282
118.278
123.248
127.945
279.965
91.7643
770.53
49.4173
67.4713
55.2738
61.7029
45.7845
169.886
128.833
45.3554
308.244
98.8263
70.6181
259.979
75.7389
54.0109
72.7467
66.5149
70.3209
112.652
344.246
67.2717
72.775
210.415
224.215
665.907
218.851
90.788
179.314
45.9056
48.6356
101.34
166.835
87.5312
84.485
95.3712
104.319
48.6336
68.5075
107.314
100.729
91.184
299.243
550.128
95.5009
112.753
140.672
711.098
358.293
211.896
93.8151
67.1463
96.5943
94.5108
175.364
46.3756
49.2729
96.512
443.538
122.271
71.1716
98.5287
54.8185
110.349
128.439
78.6017
468.9
53.7373
65.3909
131.332
97.2642
65.423
66.1474
104.737
101.187
93.3856
60.0717
129.965
46.9241
46.1304
47.4946
83.0686
58.0499
151.978
54.0846
222.687
295.176
268.795
98.0315
83.6969
47.1148
70.2983
115.387
484.494
233.94
919.077
46.1523
59.2337
55.4924
315.683
88.8774
302.296
239.766
233.949
136.372
233.135
91.1045
86.7757
73.4927
47.4649
120.265
68.5041
74.1172
222.647
77.2108
65.9624
51.2508
264.227
419.286
150.655
190.048
658.538
193.277
93.5307
70.9445
89.2638
108.817
186.561
190.179
641.741
47.773
57.9803
72.8619
47.8863
64.1969
102.205
98.0276
53.8965
113.931
53.083
78.4457
52.1834
47.3292
126.629
65.6395
121.539
46.7365
46.4181
164.835
48.0752
99.6768
106.399
46.6237
63.4881
117.513
78.1451
67.0879
80.5027
519.814
186.152
125.699
109.114
1864.12
1016.9
654.821
431.286
104.778
50.4154
1080.24
415.948
55.1623
65.5021
108.126
86.9641
389.461
140.272
47.7592
114.979
58.4899
49.2956
207.471
935.473
141.042
1188.83
154.655
247.014
727.937
57.1915
78.9388
134.783
293.37
94.6081
48.8475
48.5865
853.346
87.4816
355.081
73.2298
164.807
49.3501
54.132
546.743
558.204
84.5852
55.4787
73.7283
466.903
45.8884
50.2952
433.513
567.297
72.8708
46.3131
1055.29
841.733
545.785
100.844
230.934
489.518
521.956
80.0724
93.1609
102.872
64.0233
109.254
536.722
1417.27
63.8961
60.5878
59.2266
52.2185
49.8491
82.0796
139.161
67.0306
49.5563
48.3238
80.5096
369.415
1114.51
51.7799
231.422
98.3692
74.1774
185.162
56.9106
90.6922
75.5415
48.4865
201.221
53.3492
494.425
45.7013
788.67
537.377
503.696
205.137
95.7168
64.3879
104.945
53.47
209.899
1441.09
105.681
388.824
188.846
450.523
153.805
791.961
624.161
93.5578
51.5821
1541.54
85.6671
49.5554
74.3554
556.066
1054.66
81.0476
52.3541
470.177
79.6873
878.583
761.848
109.123
119.826
880.005
104.564
46.9475
560.55
52.6495
612.683
1020.5
45.55
68.8617
84.9333
56.4555
124.812
102.958
44.9043
123.16
90.2903
118.54
57.9669
45.1448
178.356
166.278
617.986
53.1924
97.7425
227.026
46.6078
825.359
86.4376
115.456
152.25
544.192
87.2747
491.311
182.723
143.393
56.9928
659.097
221.041
279.496
82.5804
160.961
61.6328
76.0291
69.0758
333.928
262.057
107.414
720.579
150.104
105.758
276.661
128.817
146.468
789.93
320.376
50.1819
158.95
83.8669
148.416
310.606
998.399
58.4237
46.9972
62.3943
527.692
63.5017
315.542
59.9943
62.3721
47.7599
145.294
56.7242
210.897
308.388
53.9841
62.3837
93.2475
81.6538
995.499
346.684
116.478
735.899
364.758
121.982
222.357
64.2476
58.1687
1099.29
57.5775
415.158
308.33
48.1128
59.9326
83.9422
96.2538
56.321
71.6063
131.993
79.5577
79.136
67.799
82.6756
249.107
67.3093
197.258
157.565
200.766
56.4818
733.359
421.502
57.2851
543.627
243.88
57.5206
110.97
660.99
221.678
49.0153
182.691
382.797
186.583
449.028
58.2022
565.575
107.642
54.8828
68.7211
110.585
176.111
126.756
66.614
258.757
49.845
245.698
109.109
1232.15
146.224
80.4278
122.194
254.597
56.4116
244.904
107.682
111.678
671.405
79.2406
77.5546
1025.05
44.9407
103.755
382.17
61.536
279.188
804.501
153.969
75.3485
83.0978
963.284
305.391
382.128
317.353
78.0932
69.7073
103.375
652.294
812.097
279.394
89.3583
48.2779
87.6013
88.7963
131.012
337.495
93.7724
56.4933
61.7034
61.2939
46.8418
86.2766
46.018
47.0556
121.884
87.8725
46.5185
130.877
238.78
63.23
48.2043
132.924
63.1155
48.1459
56.0007
103.143
96.8314
50.729
96.9826
596.685
89.2187
49.6992
55.6561
45.4667
230.435
68.6117
54.9068
694.819
876.268
282.887
49.085
681.42
153.249
48.3033
1035.71
97.5508
1019.82
91.775
67.0564
82.9625
67.8493
46.9032
83.3324
85.0871
94.0885
116.759
90.3835
105.602
155.095
81.9344
78.5782
432.655
86.8137
1292.4
71.0854
672.717
46.9976
120.542
183.674
52.7372
69.3202
190.464
44.7759
497.779
328.291
1269.54
53.4466
643.855
58.1564
112.699
165.855
57.6119
562.371
84.0128
277.331
64.0517
722.765
698.115
80.4491
45.1019
393.294
71.341
349.783
86.0596
97.0466
71.6688
73.5331
58.4221
47.852
86.1157
266.583
72.7852
178.302
86.0721
87.8192
45.6752
156.203
606.924
91.0583
372.042
98.1423
67.912
121.614
81.335
74.7802
57.092
154.735
132.289
48.5707
86.2141
80.7742
69.6773
94.7179
401.68
422.877
82.8617
92.539
310.114
88.4179
53.7168
65.5753
49.6463
171.703
168.017
203.946
104.799
70.5904
74.8011
67.2817
55.3293
56.6823
60.461
462.517
130.818
658.807
499.076
618.591
58.5863
69.2507
70.1187
73.0129
49.4857
312.576
81.0746
47.9597
80.8888
111.345
74.4656
357.177
72.7252
158.207
107.791
100.643
51.7384
71.7897
90.9937
90.8085
68.8427
115.713
98.0808
177.088
87.4081
68.977
78.7829
153.257
173.701
65.9307
82.7584
135.826
98.6756
171.303
46.2358
55.6382
137.477
69.4053
54.8589
77.5212
46.4546
46.8695
86.3861
76.7965
428.578
72.8242
88.5992
49.4018
71.1128
665.435
81.6942
86.2304
60.1552
63.2051
89.347
87.0748
950.823
107.671
465.993
51.2343
60.9345
72.5764
44.9229
49.6152
108.813
83.441
48.9653
46.727
325.98
107.646
495.237
122.48
255.29
105.281
78.3288
109.919
559.286
183.988
94.0258
80.3454
934.849
65.4452
81.9975
89.4429
84.8965
46.7651
963.077
68.2914
93.6871
46.9611
126.865
57.0194
933.703
1031.17
68.5134
53.8397
45.7638
93.212
96.014
59.5677
1193.21
802.702
65.4618
140.487
436.852
64.9269
117.601
116.619
45.3754
63.1181
47.7218
75.3637
229.166
87.8433
79.7851
46.7576
57.7472
76.5975
48.6156
300.878
63.4559
136.377
152.967
413.919
310.106
104.163
134.648
72.8723
133.155
121.476
46.2363
596.401
320.458
131.229
94.5033
106.042
92.7534
90.454
329.991
45.275
46.7444
62.2066
65.0565
133.832
78.4731
370.694
403.063
47.6873
131.238
46.0835
45.4494
80.2571
62.1322
65.6802
55.4542
44.7495
333.086
392.841
45.547
46.5412
195.968
663.645
50.8026
44.4001
85.7139
168.486
921.588
95.3329
384.621
374.7
411.512
383.278
72.1712
49.9781
44.669
58.4397
953.389
56.0143
85.6831
81.0687
44.6722
747.155
1248.01
1223.87
203.055
475.714
49.7793
46.213
54.5098
84.1952
794.375
672.082
362.816
553.409
371.684
57.5892
50.2774
843.989
47.8361
920.133
95.2832
915.746
80.0412
141.64
64.2677
177.676
169.171
169.765
90.617
63.067
89.0104
75.0227
65.7636
72.0764
66.6455
1209.38
843.696
90.2301
343.022
750.259
321.857
69.8127
46.963
667.811
529.449
492.619
46.4449
831.356
50.755
975.287
689.278
733.191
283.184
53.653
61.2726
47.6201
72.8517
86.2117
161.613
66.7272
84.8988
61.5618
95.7772
79.5785
45.6581
49.1844
115.964
47.6374
51.7635
79.6837
76.3346
91.2995
89.6127
156.741
91.9522
52.1238
102.039
103.306
91.0111
95.6075
136.308
1147.47
59.0545
334.556
68.483
93.2606
411.036
70.4669
55.3555
46.9856
100.848
97.5207
55.1578
106.694
103.665
85.2774
47.7654
68.1845
55.7621
71.9322
108.533
73.7392
100.614
290.228
92.0943
82.7056
77.5935
114.837
82.7488
340.684
46.6201
69.4715
109.146
303.272
306.608
86.3421
105.419
941.935
238.184
188.564
91.6008
73.16
112.209
89.2153
53.7435
134.828
79.4276
88.8887
393.138
51.7489
167.036
128.631
114.175
106.494
201.523
79.8707
57.9223
45.3645
54.8364
100.437
82.006
533.059
63.8192
91.6815
128.025
103.959
907.273
58.0595
64.9544
105.382
279.206
386.116
150.981
46.1886
136.124
67.2416
48.389
44.6736
538.742
101.66
59.9831
413.53
86.0798
70.5059
158.367
811.863
1050.29
145.116
69.463
941.768
53.784
180.996
130.307
558.975
325.119
74.8336
96.5995
542.94
93.0268
62.107
73.8635
101.39
54.7087
65.5554
359.387
46.9445
102.718
550.63
150.28
564.799
84.4979
425.936
52.0395
1113.6
105.925
106.085
589.839
234.038
290.457
531.189
431.166
281.527
47.5566
50.6651
421.83
57.1311
86.5808
339.999
66.0224
60.8045
77.605
150.328
71.7285
51.0338
735.715
426.43
161.424
360.558
169.08
92.0675
83.1851
79.509
117.181
64.906
56.7379
84.9586
62.7504
314.922
332.3
115.114
55.8687
79.0379
77.4136
116.399
107.242
99.2611
77.6607
341.791
60.3444
64.9457
375.747
132.813
570.394
206.797
99.0084
725.104
139.114
113.445
368.581
135.168
129.087
50.8638
613.397
45.617
56.985
53.5274
87.2364
69.2148
103.386
207.829
106.129
131.027
83.0152
111.582
101.033
44.8177
351.14
147.064
590.356
1182.52
106.759
391.88
116.809
71.1651
615.343
69.8995
61.3523
93.5237
109.032
677.516
374.921
54.8507
312.562
384.912
75.6496
1900.11
404.249
108.834
376.918
63.4526
89.2983
241.107
346.895
146.576
747.463
56.1204
52.723
154.606
53.924
48.7484
106.294
316.912
583.199
46.9187
142.932
45.3758
144.91
64.2142
144.544
312.897
91.0046
274.353
59.7461
63.4063
789.547
45.6654
54.4152
113.759
53.7387
127.461
296.713
48.1729
948.378
538.293
887.748
478.983
119.398
69.0957
53.3318
61.6422
84.8767
48.0292
88.172
150.692
64.1294
74.2725
656.858
46.7192
157.203
46.7994
132.465
70.0213
726.773
129.434
97.2175
46.4942
134.217
152.644
49.234
61.6016
101.613
44.3556
206.779
97.5912
106.738
55.1794
46.9809
103.811
49.2281
129.505
340.448
47.2153
75.8091
49.5572
65.6889
419.186
225.632
129.489
428.905
822.439
400.492
79.676
551.549
444.474
722.828
71.7222
195.851
383.435
321.104
295.851
950.159
56.5895
47.1841
193.419
806.821
54.0509
392.194
109.946
410.783
78.2859
70.3667
588.149
566.737
371.447
59.2198
301.614
132.017
461.366
46.7128
208.554
65.3429
55.5773
96.8707
97.9047
301.333
114.496
64.9311
163.095
79.8675
254.886
363.507
46.4524
69.52
56.7469
942.982
85.1582
132.471
176.822
140.211
71.0037
46.0996
92.7462
77.2559
428.313
44.9904
105.96
324.977
66.1462
51.651
78.1122
74.5011
677.165
139.7
209.411
97.1074
72.4865
1067.56
877.283
60.6062
146.966
60.7301
49.0012
411.73
80.0654
522.36
56.5234
51.3024
99.2666
57.4037
49.2082
61.7617
69.4519
138.061
224.23
331.801
350.067
70.8641
77.063
47.6972
172.604
576.659
919.217
71.5489
544.488
184.307
648.168
80.6211
378.127
111.563
163.641
130.59
84.9654
267.483
73.0477
183.709
112.945
60.4355
1036.51
107.585
538.256
107.424
73.1059
110.496
128.181
67.4518
68.9724
305.389
108.382
124.265
57.1088
124.026
591.7
130.316
80.433
163.05
46.9084
62.7
47.7373
76.7625
79.4115
150.023
72.3567
97.2512
92.5261
72.962
79.2119
65.0035
75.9631
60.4091
295.704
52.0858
106.773
51.002
69.389
127.631
79.6966
53.8375
80.7216
101.033
90.3027
129.738
345.651
48.8071
151.624
391.3
158.628
156.247
52.6704
156.815
88.1605
293.273
65.4218
48.1616
53.9418
160.699
58.4426
67.3263
860.484
175.977
358.637
47.0093
51.5065
181.398
81.2314
55.7038
130.761
49.1098
82.5634
56.2622
389.845
46.49
155.982
48.4159
48.4285
77.3608
67.1315
133.473
105.698
44.8596
287.107
66.4943
70.0114
90.0394
800.992
65.9471
61.8219
129.91
61.2948
56.8594
126.14
58.0475
51.8277
107.575
200.793
126.56
85.6677
408.41
109.928
260.853
48.523
182.403
65.4867
95.6229
201.123
50.6059
99.4804
64.49
82.0974
159.869
68.3974
587.443
108.031
48.3048
510.946
131.401
1248.11
302.449
157.728
88.0806
95.9313
122.14
380.959
63.2841
454.517
91.2401
368.562
67.1227
374.813
66.3869
245.769
218.755
127.107
377.884
508.688
432.745
1162.8
550.753
607.254
388.706
447.902
336.066
45.6966
97.2858
315.412
69.8833
622.47
58.9279
470.136
618.558
122.827
101.894
77.6617
45.7645
115.525
48.9556
249.842
133.217
85.1314
183.325
86.4253
156.622
71.9123
54.1695
113.532
50.9392
222.569
47.6134
69.4701
701.481
65.9502
45.2634
105.181
63.4583
667.288
277.234
70.8222
65.1603
174.43
50.0819
83.768
50.4006
53.5614
106.998
78.5572
57.288
63.4345
302.491
90.4612
57.826
46.3768
45.215
47.2712
174.741
73.8861
98.8005
55.4433
77.2015
99.3073
55.3293
250.605
73.2655
49.1388
60.5681
84.451
141.942
112.499
99.8347
51.9589
120.379
85.6316
53.8306
53.8465
78.5155
80.8629
100.167
70.624
126.983
66.6154
87.8524
116.977
290.218
730.996
1123.04
125.872
61.5485
451.858
171.628
147.8
47.481
51.3151
46.2282
91.5858
75.5713
45.595
46.8172
48.6427
114.815
44.855
49.8308
46.0126
60.59
174.258
55.9317
117.375
53.2511
96.6661
252.231
60.2534
54.6869
61.5428
1055.84
908.723
99.8262
67.158
68.3115
59.821
87.2551
517.225
66.0264
68.7024
91.6802
45.5598
96.0505
53.4921
84.3255
113.944
91.9618
64.0526
206.91
263.414
65.7145
2070.91
223.677
203.091
61.3882
86.8736
102.507
116.398
53.3276
76.6687
310.145
47.1996
196.951
589.055
107.568
125.77
653.866
66.8325
81.4044
93.4871
45.2384
121.692
399.235
93.2576
89.6166
431.913
207.028
1118.43
610.494
99.5669
49.9288
141.797
69.0777
183.412
147.624
554.551
49.8489
46.4871
637.041
52.5844
197.685
76.2506
105.409
643.325
858.905
50.7427
45.5057
922.533
50.0828
54.3661
65.4316
47.9718
82.892
143.045
253.883
61.3521
566.577
107.436
51.9322
87.1305
703.15
82.2275
610.139
66.3822
60.6929
87.9656
85.8273
60.3076
107.033
65.1924
576.855
111.285
114.268
503.754
125.44
54.679
602.518
109.211
108.986
81.4806
142.261
110.728
78.21
47.5628
260.217
73.0937
74.1195
65.3686
118.274
80.1985
59.1034
48.6422
65.7296
151.844
70.8932
66.9186
82.7308
429.022
74.487
70.0512
67.2571
96.0747
49.2792
64.1291
63.028
133.718
104.327
142.714
150.383
91.1936
392.815
62.4748
57.4541
444.95
356.384
518.331
91.0491
342.068
55.1108
529.099
95.8429
360.584
96.6339
46.0861
117.373
204.243
94.4757
69.1658
46.1268
63.3923
436.758
63.7488
51.61
54.8602
1691.8
363.139
47.2348
1521.52
558.226
333.595
202.495
1249.75
309.276
74.7905
362.128
91.0737
71.059
404.364
1046.02
64.42
47.5832
55.6333
510.464
47.6524
1047.57
93.4484
130.753
117.201
127.655
338.3
45.1393
116.61
123.94
55.7788
106.483
53.0959
124.205
1978.07
1977.74
820.525
96.4815
586.947
46.535
49.4336
62.4559
102.008
45.747
56.2281
45.5214
73.1316
90.9363
47.209
54.2579
77.4568
47.1211
100.698
122.903
47.0199
117.047
126.662
46.4839
56.0317
890.44
56.7389
838.32
609.956
129.458
134.864
84.5853
123.996
68.4237
54.9978
466.146
58.3087
60.365
49.7036
53.5572
79.1776
143.628
115.449
180.558
112.833
49.5737
538.42
63.1188
303.917
316.752
63.6896
721.136
76.8353
57.3275
60.6233
57.4846
66.5107
50.0449
130.65
51.9297
387.607
213.133
381.615
56.7831
57.3623
82.6838
349.926
418.167
87.9661
147.774
64.5995
355.937
64.1293
139.948
494.143
86.5347
56.4425
91.9225
1062.45
63.256
58.9397
121.139
49.5093
138.345
130.55
102.123
85.6044
281.413
171.35
651.433
72.2799
283.759
375.24
350.36
54.5718
178.156
101.092
104.132
54.018
61.3901
63.0682
471.612
85.9635
99.438
204.206
83.0013
62.7634
98.6116
48.4631
145.708
48.2623
63.2387
168.161
103.718
80.2299
169.757
100.375
88.3191
81.5823
128.376
46.7716
299.602
276.368
109.687
101.968
46.7922
309.259
60.5687
47.1198
86.546
48.8451
109.138
90.4918
49.8208
53.9284
100.532
275.578
238.014
49.6423
804.707
45.8459
97.5479
96.4011
48.1674
776.521
150.24
669.181
50.1342
69.1107
533.427
676.257
90.6654
103.577
190.877
127.992
52.6616
92.2753
63.1547
147.991
82.4996
135.695
49.7563
136.493
102.091
109.272
62.2729
89.5471
45.6165
61.8351
572.696
305.648
107.705
76.7302
104.717
87.6683
87.6862
155.361
46.033
51.2764
60.549
88.3073
83.4415
66.458
114.508
55.5142
57.6783
53.21
73.1118
58.1474
69.1646
187.521
80.2162
69.3207
1171.41
79.8415
65.4637
80.024
45.5354
84.165
209.952
48.6709
78.7202
81.6147
807.939
64.244
62.7193
95.2159
1515.95
95.9455
156.809
123.652
66.8687
49.4802
76.2335
64.6859
839.175
95.3191
68.3349
65.6502
47.3434
272.752
48.1035
519.19
404.529
112.124
74.9761
59.3369
113.278
89.4511
59.2153
429.009
119.074
309.825
45.1322
139.484
665.182
118.874
50.8227
102.075
54.9383
706.041
58.9372
55.3198
91.2833
45.2295
60.9854
87.8288
52.3278
300.648
47.0105
371.886
46.8103
75.9943
67.1264
149.722
88.9497
129.218
112.564
558.223
106.444
121.813
75.8763
46.5938
103.52
58.5849
54.0113
82.2383
77.7475
63.8913
126.78
47.0477
64.3994
47.7125
286.178
87.2661
602.326
536.114
327.752
161.14
66.6876
69.6306
61.4153
196.63
92.3766
46.7739
45.47
112.312
143.606
48.2371
73.6866
1073.87
113.64
67.7961
75.4244
684.196
853.171
59.7649
539.958
554.002
202.739
334.251
168.649
518.987
71.9596
229.438
741.372
75.5469
44.7275
61.422
103.314
314.699
45.7622
45.8491
69.4976
148.167
155.288
1087.28
109.788
1002.15
120.31
71.0133
86.642
78.5001
73.0109
581.953
165.898
308.574
455.413
68.0008
499.485
1672.94
67.0603
145.416
110.741
418.684
152.694
125.05
713.855
1063.41
102.446
611.253
126.602
401.481
82.464
46.5874
154.173
749.58
665.589
62.7272
105.966
152.76
97.7605
247.114
51.1854
70.1299
938.637
406.899
407.096
48.1149
407.235
67.2255
394.575
58.6914
110.817
196.528
331.154
87.393
114.439
305.306
101.569
933.136
74.0753
60.987
372.656
48.14
149.396
46.4776
55.1446
46.037
82.8758
435.48
455.984
330.116
60.5301
63.7411
285.109
58.0073
522.115
70.4391
53.9449
82.6898
212.64
153.845
620.163
51.7172
74.0563
65.6292
288.235
103.064
569.448
901.276
435.934
104.594
63.3875
403.809
384.279
154.401
49.5987
63.4215
44.604
720.967
255.803
434.877
1781.65
237.44
97.2781
81.5989
776.42
398.416
64.3678
88.3604
103.008
315.086
59.9492
48.5078
88.7915
80.3834
733.567
319.536
227.746
253.784
307.426
342.55
162.672
94.6764
849.158
516.253
709.447
203.97
333.245
627.09
152.838
59.5813
106.501
58.1638
58.0182
75.6649
76.1434
141.078
277.61
86.0624
179.07
182.215
147.139
105.547
188.068
107.35
98.2739
129.192
723.369
1120.08
488.183
67.7113
120.885
82.5364
292.186
551.129
156.137
599.856
79.9246
480.688
366.95
179.495
48.5502
46.4977
71.2134
63.0188
660.208
91.0502
58.5529
514.349
73.6466
816.518
434.457
103.267
445.499
62.2611
46.2614
48.6824
44.8786
99.3059
65.7061
93.4418
133.313
74.7149
47.4561
151.775
706.588
529.624
45.6723
106.315
51.1494
63.8508
55.6791
699.207
50.8254
54.8418
54.1472
104.073
47.6118
54.7657
96.5629
56.0174
58.5603
54.6374
234.853
45.8121
60.1282
125.939
411.166
328.106
64.1501
621.617
750.656
55.4682
54.2091
163.935
78.4387
312.751
79.6519
93.1508
81.9419
311.945
69.4481
93.5241
1040.84
448.38
95.8033
626.151
48.1749
46.7494
63.8997
46.582
47.6648
72.0222
55.5421
80.3739
201.772
87.1116
385.751
215.749
235.483
82.3326
44.8556
614.197
132.496
85.4063
564.68
103.743
675.367
67.1811
432.896
46.0677
178.29
87.2156
233.496
48.5232
86.6008
79.3537
786.385
49.0467
44.7247
143.094
80.4023
129.937
59.9088
70.2471
91.5425
49.4329
134.601
50.3965
64.5474
148.269
90.4922
240.435
69.2051
46.9441
61.8963
46.0928
53.5083
253.617
44.6174
91.5577
45.0705
227.864
118.498
52.5198
114.86
112.283
58.4943
78.1212
75.1065
131.036
154.814
52.4563
48.4051
90.6045
70.6947
328.089
586.058
500.326
61.7132
47.7232
58.1705
64.6693
91.5176
884.519
237.367
64.1141
53.8601
77.6157
48.0474
49.1569
77.2973
147.92
189.252
490.058
348.221
57.3858
76.6228
78.994
44.715
241.746
73.4139
111.48
114.389
51.7028
982.017
77.5087
58.2556
70.5048
70.7603
161.933
552.141
46.1302
472.005
56.057
746.728
116.862
513.05
71.7385
46.8556
60.0779
104.692
51.6946
48.5257
126.975
45.8839
45.8997
54.2158
60.9396
223.984
56.7953
757.575
73.1185
61.2851
148.352
171.479
48.4046
455.697
956.86
744.215
568.19
443.798
54.9298
394.111
317.74
77.1153
57.4971
53.9174
686.912
91.2971
97.0072
49.0977
75.1342
313.683
754.519
157.425
84.9262
45.5492
66.3033
255.227
48.3897
56.684
577.641
456.041
279.384
754.232
76.5689
47.481
69.5011
83.0404
1136.61
50.7396
46.9188
45.1941
289.726
47.3193
52.2075
94.2824
101.351
45.9565
113.982
47.7943
147.813
85.8763
142.205
53.3617
224.272
90.4703
113.17
173.536
111.975
264.379
51.4289
619.197
93.5834
347.635
334.27
424.091
84.7275
118.8
199.001
68.6588
46.0051
50.8397
54.0767
87.7913
567.993
117.686
47.1235
83.969
63.2823
49.421
120.524
61.9897
135.625
99.822
48.1323
100.741
50.9735
78.5111
284.234
556.616
70.4867
100.543
80.1059
104.814
531.942
375.572
549.764
862.639
143.014
47.7548
49.5399
45.5577
106.031
843.239
80.5947
792.442
131.242
46.8782
118.299
377.794
47.2677
47.3915
56.136
76.7885
59.7762
334.269
76.6461
92.7887
282.037
49.2875
98.2245
64.5341
130.058
122.324
53.2647
661.612
82.435
113.918
56.6005
122.895
47.0228
120.969
123.231
93.7044
93.7276
79.4688
67.3883
68.4175
52.2609
229.48
60.8136
52.2122
116.909
211.07
233.47
123.483
97.8826
114.452
182.467
71.7222
328.858
103.608
138.289
103.505
87.588
160.508
80.7457
106.186
444.247
101.731
53.7948
49.0414
345.359
91.3323
104.337
51.8478
110.175
86.6233
48.5634
95.5241
405.103
93.2735
73.2205
88.2694
661.259
74.7614
92.6581
146.403
60.157
158.525
50.011
745.636
83.7369
80.5516
85.173
56.3956
116.892
56.3531
505.995
44.6187
78.3585
645.485
58.9158
113.045
204.104
102.283
49.57
562.989
59.0393
46.4036
97.0143
134.275
58.8243
308.765
45.9998
361.993
99.7851
45.5941
74.0135
118.393
732.315
184.796
71.4926
46.9898
131.942
399.522
326.112
117.88
124.824
1007.23
211.714
345.081
129.44
84.5889
103.753
59.7987
525.737
1030.66
153.008
169.723
100.209
973.015
472.232
479.098
419.05
177.035
64.4725
52.8216
152.803
73.7477
558.616
322.294
80.7633
809.824
108.863
84.6741
71.2388
50.9426
107.591
88.6727
91.8631
79.0815
144.813
184.336
883.745
57.3908
119.107
644.63
613.501
182.268
182.884
64.1991
657.026
47.4733
65.877
354.743
148.443
46.1017
336.496
440.359
71.0971
125.198
49.0702
96.9968
57.0621
80.9256
177.59
84.058
614.347
45.1836
52.9013
89.6594
481.747
170.235
124.226
167.663
280.604
122.963
79.0913
411.399
109.601
71.4295
246.553
788.857
286.675
59.9517
387.164
160.409
90.2749
65.7943
128.813
48.1808
113.721
80.8857
76.0631
67.5122
60.1135
88.541
46.1355
44.7162
49.4743
100.251
50.0091
160.585
401.717
733.759
97.8693
82.276
59.6367
51.432
104.383
665.576
52.9695
145.192
72.3465
218.374
65.2406
117.168
194.621
406.589
48.4867
57.197
262.236
53.1296
72.4462
117.498
82.9498
377.972
83.4667
289.986
430.422
243.318
645.151
191.502
385.908
90.2085
140.759
146.136
54.8457
446.095
124.644
87.5083
161.613
93.7943
86.6201
45.2648
54.75
51.0724
45.6586
86.6507
324.738
44.9971
927.515
113.314
330.373
115.491
351.909
1655.33
55.1765
258.049
937.325
129.079
342.371
78.0757
70.0811
788.136
1008.53
273.542
165.713
54.7137
392.574
103.217
592.611
53.6103
55.9468
231.577
1017.01
61.3973
81.2685
52.775
230.881
519.246
48.9922
506.729
219.208
537.115
711.355
50.8929
366.301
73.5458
725.786
363.697
206.858
381.842
262.375
480.301
353.507
234.913
81.2083
76.0273
75.6194
50.7892
54.3574
1334.28
71.9574
104.89
73.3174
82.0968
124.087
1041.42
138.617
265.545
305.351
145.567
327.161
129.675
45.4142
76.6744
965.757
601.931
288.729
192.582
243.217
86.2649
465.739
61.0316
257.518
287.06
58.7454
520.393
103.662
288.329
337.5
144.985
197.672
203.147
136.278
51.981
143.969
63.3845
532.358
72.7816
196.016
81.4508
255.125
58.8869
68.1982
349.624
124.232
306.359
47.1248
1193.83
46.4006
60.8143
55.8952
56.8616
90.7216
502.87
155.642
82.6836
661.908
76.5083
49.2322
59.9377
867.198
57.6747
95.105
849.695
308.548
898.624
484.701
150.195
191.246
164.993
190.719
738.909
67.2317
393.804
127.092
66.2164
181.492
65.905
138.685
72.9338
632.456
436.622
542.922
353.123