/*--------------------------------*- C++ -*----------------------------------*\
| =========                 |                                                 |
| \\      /  F ield         | OpenFOAM: The Open Source CFD Toolbox           |
|  \\    /   O peration     | Version:  2506                                  |
|   \\  /    A nd           | Website:  www.openfoam.com                      |
|    \\/     M anipulation  |                                                 |
\*---------------------------------------------------------------------------*/
FoamFile
{
    version     2.0;
    format      ascii;
    arch        "LSB;label=32;scalar=64";
    class       volScalarField;
    location    "0.0440925";
    object      p;
}
// * * * * * * * * * * * * * * * * * * * * * * * * * * * * * * * * * * * * * //

dimensions      [0 2 -2 0 0 0 0];

internalField   nonuniform List<scalar> 
47425
(
1.31359
1.3038
-0.00521489
-4.29547
-19.7919
0.113637
-17.6627
0.0220218
13.3037
-35.9726
-0.00944751
13.8842
-13.3486
-0.019273
-1.46312
12.3118
0.0300713
25.0337
-107.078
-33.2389
3.76447
16.0111
-0.0502573
1.05307
14.7574
1.08766
0.0901087
-41.391
-0.0095473
0.293995
15.8266
12.7478
13.9768
0.347674
-0.00146403
0.0162971
16.7931
13.7242
6.7136
1.3216
1.50772
1.02848
4.40359
13.6489
-39.7886
1.24576
0.146542
13.5281
1.2995
0.558119
45.9174
0.806838
0.185301
-29.3703
1.13875
8.80568
1.3046
0.16322
-12.4749
0.0807406
-31.0267
-32.1109
-69.3457
20.9294
13.1468
3.21176
14.0506
-1.22282
-47.8949
23.2098
3.51957
0.787266
1.49658
3.82427
-55.9686
12.9691
-69.2611
0.198246
-102.604
-20.1399
-58.7583
10.2814
21.3543
12.895
1.87551
1.35444
1.26981
1.5039
-3.27195
-25.8173
15.1318
2.37622
0.504972
1.34235
1.38613
1.33284
0.40494
1.41759
1.49053
11.7769
12.6432
21.9579
9.55211
45.8381
9.43081
1.31634
1.44332
1.3928
1.81949
14.1155
-41.5173
13.5321
0.904143
1.42157
-0.237393
34.9786
0.105623
47.042
8.10431
-2.37451
1.46825
13.9988
13.4348
-7.84031
11.5734
0.0469602
1.40427
13.0431
1.15098
0.537031
21.9621
1.05633
55.9227
8.11725
1.47339
-9.83633
2.23114
0.00933175
11.5446
-0.280923
14.0302
-6.57619
6.19155
0.396425
11.5569
13.0947
-17.7475
13.3157
6.20825
13.9534
0.905442
38.294
13.3289
-6.69123
21.5457
1.15919
2.19103
-121.056
1.25488
0.343874
-1.47803
1.0541
0.708724
11.2012
-50.2529
-87.5849
13.3415
-55.5485
0.783227
-45.3246
-56.6948
0.630768
13.0586
18.6887
1.33153
13.323
28.8991
0.054138
0.0367638
0.378513
22.8104
1.30858
0.0610609
0.0856419
0.196665
12.7436
10.5844
50.4931
0.40212
1.3432
13.8975
0.449725
-11.5082
14.1141
0.447934
-1.16123
14.0841
0.968069
-1.86168
1.43568
0.321969
1.29264
1.89861
-0.752065
9.23066
2.14751
0.00472395
-0.374274
12.7282
12.9894
1.37297
-1.24451
13.0298
1.09098
1.57672
-2.44878
2.0959
-20.5495
21.5377
13.9599
-22.3891
-2.97445
4.32264
1.89691
2.555
-20.1961
0.43132
-2.01483
-3.48858
-8.31356
2.58615
0.224487
1.35698
13.7536
0.122459
12.7088
-25.0894
0.727197
-22.6525
0.0554792
0.155114
0.461136
0.525457
-6.65214
8.19951
12.9788
1.35609
12.8741
0.792908
-0.034855
1.13476
-18.1215
0.0291558
14.0698
0.240452
0.230297
15.3288
0.320718
7.4023
12.918
0.277895
13.5704
10.0612
9.90203
-9.19681
1.39596
0.100968
-9.10367
0.294751
10.2058
10.6542
-22.6315
-25.0205
10.616
-20.188
10.5858
-21.216
32.4083
-23.2946
33.5428
-30.0269
1.42775
-35.0956
0.727463
0.729843
-2.51408
0.677617
0.0700487
1.58476
-0.0593437
56.4037
19.9826
13.1695
0.053623
0.0972733
11.027
-5.59931
10.6063
13.43
-8.58929
1.4115
0.972717
0.241806
0.14794
-58.7944
-71.3737
36.7517
0.443114
1.04966
11.5895
11.5137
48.6572
-0.0461339
0.0895804
-13.0569
1.38876
0.496255
0.417304
0.127168
-37.2737
-12.9075
12.2735
11.9039
0.0604281
1.18887
0.0748724
12.1251
1.25688
0.701487
0.235418
-4.90712
-63.8433
6.34433
0.136831
13.9328
0.035366
-62.9829
13.5214
0.750214
0.820032
12.2773
12.0367
1.34545
13.9018
0.617875
0.0450507
0.19684
16.4691
-0.0676298
0.183988
12.5143
7.80116
12.7571
13.5195
12.9918
-2.60423
0.406216
20.7156
13.3123
13.2418
19.034
-3.28388
1.01183
0.121808
8.71567
1.22471
0.155065
13.3653
13.6618
10.1262
0.208542
-40.6806
1.3003
11.1604
13.1052
11.0342
-0.439719
12.6829
12.9738
16.4004
12.8909
10.9727
1.01889
13.4645
1.21404
13.4976
0.0455629
10.4985
13.9772
0.11166
6.62623
7.90108
-0.0235313
7.15791
0.578075
7.20797
13.8067
0.000398908
-12.9639
0.33688
-26.9507
0.472133
-35.1987
0.224221
3.07532
0.240666
0.279866
0.010169
0.166905
0.234421
7.99194
-70.5
58.492
1.02173
7.46376
5.31763
3.87075
0.910613
0.0755663
0.537724
0.181714
0.697101
1.52075
3.74478
0.0241309
0.0790807
-5.00785
-3.65346
-0.876204
18.199
-66.4783
1.2252
28.111
-65.3003
1.65835
-69.0016
-30.5292
0.856382
1.04444
1.99124
-1.76458
-72.2949
1.23726
0.931235
0.510838
-2.20478
-0.0341578
1.10532
1.25574
-21.3679
-68.9546
-24.0017
13.8251
20.6831
-1.22406
1.11317
1.28621
-10.6709
1.56135
13.7989
14.0591
14.0793
7.30207
13.9825
0.836402
11.0971
0.215629
-0.306818
0.576034
0.531577
13.8485
13.9742
12.9371
8.62394
11.8718
1.10841
0.555397
-21.1889
12.8733
-11.7972
14.0116
-0.5086
0.166293
13.5032
0.940713
11.8652
13.3282
12.9198
10.0564
0.594503
0.623223
12.1606
1.48019
8.52579
22.8801
0.893124
14.1922
12.8661
15.8645
1.34
0.400523
0.990416
0.15024
2.95791
0.0419294
0.110097
0.996366
1.24633
-0.00490996
0.150626
-0.018237
24.6686
0.0098943
1.61392
1.415
1.07265
0.0203748
0.149372
11.9957
8.54457
13.0602
13.0637
46.2169
0.0845485
0.0352717
13.3102
13.5395
-19.985
-23.7366
0.22982
1.33292
1.30638
-7.7207
12.6931
-25.8139
13.9713
-34.944
28.0064
19.9795
0.190131
-20.096
0.232035
1.24872
0.324348
1.78934
0.134533
0.847587
-66.1975
0.281648
-0.0185275
0.340875
-18.9417
0.884245
0.109515
-18.9557
-14.9193
0.136931
0.216662
-29.5355
0.474727
0.458434
0.118419
0.4277
0.329644
-10.5784
-9.0802
20.0281
1.603
1.39822
0.0611908
-27.0562
19.4696
1.57613
-29.4137
0.115445
0.245143
-30.6912
-37.6048
14.6912
-29.11
-29.1373
0.247567
13.8848
0.118212
17.7186
12.9652
0.108232
-45.3873
12.3399
0.0714912
0.722414
-16.7041
-9.96757
13.9724
7.38202
-57.2963
-27.6405
2.89401
0.570367
1.19654
4.26794
0.605789
0.575327
13.0001
8.88128
13.9823
-0.43863
13.0975
-24.8251
6.70678
4.90291
-26.6378
11.5455
0.600851
7.55881
11.0518
0.624025
13.3659
-0.667168
30.7106
13.1077
0.269882
1.4682
-91.7251
9.05661
-8.72086
-39.0441
-40.6726
0.295555
1.54947
-41.758
-0.0207206
6.1941
-16.4306
13.4271
-37.016
0.23496
0.221724
13.1998
-32.3045
14.0525
14.1275
0.426913
0.143165
0.927868
0.0147408
0.84846
1.08551
0.540093
-30.4555
-35.3041
2.71311
13.7568
0.248997
18.6977
12.369
14.0312
14.0464
14.1017
14.0337
20.7765
2.62105
13.9739
10.2676
-7.8602
0.102842
-73.575
-24.9496
-0.0578487
19.4182
5.68037
0.190593
-76.6957
0.0153408
-56.7761
0.292916
-10.188
-11.7219
0.715241
14.3149
10.0977
27.6873
0.402326
0.666207
1.28531
-13.1855
13.9039
-14.3952
1.42793
-76.9261
-10.1136
1.29612
-12.4324
13.9926
1.11538
6.5519
1.34933
-13.7161
13.8812
12.7607
-13.1026
0.334481
1.32463
0.164591
0.821992
30.6475
29.3311
16.6204
17.5075
0.142812
-0.0215567
3.81213
1.3685
0.510543
0.183899
1.19934
0.153957
1.16527
32.938
-13.0468
0.107614
12.7799
1.07525
1.03238
1.31643
0.0412792
-1.90008
-21.3621
1.28215
0.233566
0.0801207
0.993854
15.9448
0.0582081
1.27153
0.83928
0.756125
1.18142
19.7467
37.6629
0.961699
-28.9765
-5.56105
-29.2868
-28.4027
1.24871
1.97766
7.09357
0.100921
44.4924
-30.1283
56.751
-7.78448
2.17907
-14.2819
0.44207
58.4572
3.7175
1.48256
1.28442
0.268429
-8.22638
1.60358
1.19232
0.978556
-32.9089
27.2765
13.2957
13.5733
46.6926
42.9549
-13.012
-55.4435
-17.7502
48.5583
45.5672
13.4559
0.614149
18.9541
0.475974
7.38155
-29.378
2.93362
6.51346
7.84109
0.300608
-31.0349
-31.4531
0.159685
6.64487
0.692832
0.484644
7.80283
0.316911
17.1955
0.0790724
0.62651
33.8708
0.261977
-0.0472183
0.0739544
0.539223
0.204765
53.5905
-18.3836
0.0444923
6.67598
0.638881
16.8439
17.09
-13.4284
0.543097
-32.8305
-14.4339
7.01787
3.34149
25.8012
-53.2736
0.0494042
0.107194
-9.4816
1.26821
13.5751
3.87118
-0.0269338
14.1524
-42.8712
-16.94
-53.3997
14.1234
28.1723
0.193714
-9.61613
18.4263
-13.94
0.0599594
20.028
-46.1001
-11.7501
-15.0101
-33.1603
-13.3667
1.24769
0.0429553
-11.09
0.1208
-15.2178
-29.0744
0.0325301
-18.4087
1.10765
1.05921
-38.3288
1.17783
1.38023
14.8837
16.7476
13.1548
-21.3374
-3.37783
1.08605
-12.2835
49.1986
0.781473
15.5944
1.34943
0.786983
1.14815
1.1878
-28.7642
-72.1805
-9.47601
1.90671
-15.6647
-15.4414
-21.0032
2.08271
1.25386
13.6394
13.8349
1.3169
-9.85368
17.497
24.6025
13.6934
-29.3311
-14.7954
2.59179
1.22513
0.492992
1.17168
34.5295
13.4694
-12.1375
0.299031
5.85749
13.5786
13.5604
13.4406
13.24
13.7979
-21.7909
-5.16863
23.8331
25.9951
17.9071
8.08466
-1.22542
37.143
1.25
-6.95698
1.09133
-13.747
-10.3545
-3.24144
0.627897
13.8085
16.316
13.6002
1.34661
-44.9301
-27.0896
-41.4373
11.139
-7.97375
7.42187
-33.4991
1.41463
-43.7805
1.3853
1.37904
-4.84321
9.42069
1.40646
11.3033
0.329396
4.97308
-6.57636
0.953268
-0.108965
-25.1838
-9.19349
0.111925
18.1049
51.9216
-63.5791
40.592
-23.3522
-56.1623
0.297055
1.03673
23.3763
0.525757
53.3112
0.487092
0.300831
-70.5843
15.1172
2.87992
0.32399
13.3698
23.9749
11.8418
0.806041
13.5873
-15.9273
10.559
14.3125
14.5488
14.0091
0.847634
-11.1767
-7.35641
30.2027
14.8156
1.09847
11.4554
0.630577
0.680688
8.3117
-8.91907
-5.90881
-8.37802
-8.20715
12.0907
-41.1212
0.72822
0.670211
0.744138
-67.4642
-63.0909
-18.3724
-28.2444
1.21657
-1.18845
-36.6343
-30.2192
-4.38783
10.6008
0.87521
1.73157
-35.7403
4.96557
-0.438429
0.909837
11.1183
1.88706
34.264
-106.216
-13.5822
-27.9965
1.01045
56.4852
-68.6857
1.50104
11.8671
3.32063
-34.6448
11.9119
-4.07142
18.1816
-24.5819
2.6932
-25.5363
3.20209
-8.82099
1.45896
8.1154
-23.775
-23.2559
10.9247
18.8654
-9.3981
-48.4635
10.2022
1.49404
-24.3857
-35.1922
12.6109
9.33309
-56.7598
-65.004
-39.5795
11.1607
-5.08171
-15.9014
-39.9741
10.733
26.0855
-21.0309
-7.31661
-5.23441
-21.0024
-37.6682
-4.26783
10.1589
13.1862
14.0215
13.6436
11.0033
-5.43602
13.8776
13.9481
14.6685
1.85048
-42.5449
-33.779
11.9763
41.472
-16.9208
12.3309
-22.8803
6.69923
11.1476
-7.67164
-2.73339
11.3823
9.99917
-45.7217
14.3523
-30.7278
-71.595
-37.4048
10.8445
-9.09817
12.8174
1.60254
1.60888
-15.2468
-37.0327
0.960119
-37.8901
-25.2094
61.8888
-20.548
-57.5618
-26.2964
0.0799076
1.57804
-41.4474
0.932648
16.2397
0.107953
-47.9835
-37.6987
0.0201131
1.69259
-32.467
-16.4458
-42.8156
47.7621
0.472644
-8.72368
-62.2951
0.236191
23.3344
-26.4177
16.018
-76.5204
-21.1607
11.8028
0.330154
0.470139
1.3533
0.410395
2.10212
0.63704
0.481234
8.30354
36.5849
15.0025
25.9766
-23.6807
-9.08127
26.4466
-2.01903
3.50393
-9.35487
14.1866
-67.9508
0.943235
1.25485
0.957896
-35.352
0.944311
-74.2781
1.12937
9.41831
7.00777
-73.148
52.3696
-31.4991
-20.7003
36.65
-2.40509
13.4035
-7.72531
-23.9655
-30.8561
-26.352
46.4991
13.2695
-15.2805
-39.0523
-6.26217
-3.98425
-36.244
-28.5164
2.14301
-12.494
13.1232
13.4193
-39.8211
-52.2214
-0.450541
10.1842
13.2813
-69.2903
13.4762
-17.9205
-12.2565
13.4156
13.7155
-19.0669
2.69319
52.0925
-16.5494
5.14689
31.5335
28.4371
10.7852
-85.4145
-37.6478
-13.0741
-109.832
63.6998
13.7942
-32.7925
13.7865
24.7805
-83.785
3.52916
-73.6619
-42.269
-2.0907
22.2239
-5.22289
13.6529
13.6562
17.0966
-20.4097
2.64371
0.141722
27.6778
0.352055
-1.20197
15.4575
-11.4468
0.0364173
-15.1191
16.7135
-57.7931
-34.0351
5.29707
-32.2438
-39.3923
0.114134
49.8472
-40.9153
-2.89244
30.7762
-8.68593
-12.0536
-21.2491
-27.1846
8.31857
-40.9802
-18.4679
6.78198
-0.63126
0.511826
-21.5277
-4.82189
26.4236
-21.1764
1.3202
25.3567
0.789707
-52.8977
0.242743
0.272088
-7.09788
-20.7622
23.0028
-2.17784
-10.6881
-7.57133
-75.8599
0.164162
-11.1053
-58.9075
1.0191
-7.43367
59.6992
-5.30101
-19.2246
-61.3529
0.137952
9.89467
-0.00477571
-122.212
-35.6588
-39.5449
-35.1502
21.3101
-4.06955
-4.31347
-43.3574
-60.3672
-11.0203
0.574362
13.5247
1.15221
0.565239
3.25304
55.2156
14.0186
13.1781
-6.52145
0.553086
15.9823
14.126
23.3483
13.7233
0.526251
22.9703
14.4351
11.3456
-12.3818
1.54123
12.6872
10.7759
-8.85572
12.9899
0.538741
1.1763
11.6353
14.0428
13.7603
-71.2621
12.9987
19.0899
1.10265
0.274962
-26.305
14.7951
14.1162
-66.0975
-56.2403
60.1495
15.7786
-69.5612
21.3834
1.65171
-61.5491
7.2454
-65.5889
1.11923
1.24086
13.5779
21.1942
11.5316
1.28221
1.13645
1.57575
7.92993
9.83346
1.14525
-15.7196
0.903175
-10.7253
59.8171
13.0009
-44.4668
-13.2607
-68.3572
1.11334
11.9409
0.196956
14.4942
1.43349
13.1055
1.22297
-39.692
-22.1595
-37.5527
-2.15545
-7.2262
1.32127
3.30197
-30.0467
1.56805
-49.7403
-0.245399
-44.4117
1.79412
-56.3951
-84.6755
1.12575
0.0724863
-51.8245
0.29211
-54.3348
12.7192
2.18403
1.01857
1.23606
0.663633
0.159173
-10.0568
-25.265
-5.67365
12.7943
1.32933
12.7685
0.896585
12.7188
-48.621
10.4851
-34.476
2.58575
1.22837
10.3972
0.615082
10.367
9.93955
0.179846
1.20207
13.5952
1.15307
-2.24723
1.24638
1.2612
-20.9529
-44.7613
-4.46021
1.11533
-40.945
0.974624
0.644317
0.495611
0.468603
-0.00483929
1.28855
12.9218
12.6409
0.988698
0.75242
42.9558
1.31602
1.08702
1.46313
-42.9918
1.40934
-51.9188
-36.5959
-46.0492
10.7888
0.331254
1.44033
0.148577
1.05471
-42.1239
-9.28192
0.944188
0.936375
1.44071
1.51968
-30.7345
1.50331
-0.0128053
-14.0657
0.688228
0.518474
0.329959
0.544867
0.349318
0.356277
0.552221
-9.41249
-13.669
-0.0274
12.8128
-0.61977
-7.84334
-6.65492
0.675321
1.10223
-9.2881
1.44845
0.170344
1.43278
1.0638
-8.6053
0.0211765
1.24301
0.63804
0.69925
1.63124
-4.73178
0.0573599
-51.1038
0.699757
-15.1976
1.4469
-0.0102186
-53.0887
0.0268551
1.03083
0.0663691
0.881455
0.880366
0.958769
52.2239
1.29944
-24.0219
0.982007
0.248367
1.58493
0.877607
0.597161
1.27522
0.523904
0.822017
0.306734
-6.90926
-10.2344
-35.9213
11.2893
-10.5836
1.21356
1.28771
1.17471
-24.0859
0.1529
0.196626
0.16041
-52.7738
0.136196
1.5331
-0.0605135
0.231543
1.73726
-137.05
0.0861141
1.37668
12.92
0.0180578
-7.0348
27.0849
27.5432
0.0562665
7.91604
0.172451
1.14138
0.565357
0.314203
-51.3793
-55.9471
0.120996
1.07848
-44.9519
-0.0499453
-0.689558
-20.8981
0.064774
0.983892
5.49941
-0.137124
-5.30328
0.0356139
1.48079
20.1541
1.0139
0.00367739
12.9652
-21.6122
13.0121
-25.5102
-24.7971
-30.4736
-21.9234
0.524871
12.9361
-15.354
13.0819
1.04055
16.9313
-33.6369
-23.6468
13.3911
-10.921
13.3699
0.714291
1.39417
-30.9565
0.89473
0.458249
13.1716
13.1839
41.8583
45.2921
63.663
-18.4948
28.931
13.4146
15.3744
23.5834
13.2591
0.735904
0.201138
0.482181
-0.079386
-31.0027
-30.1323
0.750889
1.83783
-0.802727
-67.6018
-2.0911
1.14998
1.16708
-26.0924
-52.5144
0.803853
-45.714
-1.1578
-29.311
-36.4751
-14.8775
0.296393
0.792126
13.9092
-53.556
0.258544
14.0177
0.566267
0.140337
-59.8139
-58.1464
-63.6838
0.305116
-43.526
17.1708
10.0103
3.24847
-14.183
-68.9357
-67.5598
-27.8871
62.006
-28.5849
35.2354
12.929
-38.4339
13.5395
-56.1774
12.9317
-51.9817
12.8313
-23.987
2.63749
-25.5065
13.4623
13.3857
2.58384
13.2273
13.103
33.7106
3.35051
13.3663
13.1152
-63.8339
-48.9062
-12.6022
-22.708
-51.8615
-22.216
1.22543
15.6144
-42.585
-27.6058
-33.7949
14.4592
-65.6278
6.83494
-55.6735
-72.0731
-41.5744
-11.5602
15.9623
5.42745
10.0196
13.2468
1.72043
-28.5131
0.153492
0.653276
1.65422
0.202912
0.136995
1.23969
0.442981
-22.9062
0.314376
0.169528
0.462811
1.57587
-18.3574
1.12174
0.021358
0.278094
1.67779
-8.01183
-11.1128
0.733966
14.2928
-28.0447
-71.6504
-2.86612
-55.9158
-10.3554
-5.56761
-19.0566
37.8298
8.75505
9.03251
-6.004
-0.00181689
0.137762
-0.380121
-0.0136409
-0.108277
-0.840401
0.0567255
1.76793
1.79774
11.9634
-6.05563
1.43016
44.9649
-0.0579958
13.3164
0.0708061
0.00729259
44.561
-52.1498
25.2386
0.0337582
1.234
-22.9813
-30.1031
-0.355857
1.42711
14.5801
-10.2578
0.538646
0.112164
-14.437
13.1965
-0.0653257
14.7341
55.9882
1.36454
0.870292
-11.5723
-0.5731
0.932889
0.87855
0.92229
13.0161
13.0816
10.6877
13.208
13.5729
5.28279
4.06333
-3.55927
-55.3894
6.10012
-6.51505
13.112
12.9943
63.7557
4.11585
1.505
1.29388
-28.3201
-33.4622
5.20857
16.9398
1.22876
30.5149
-4.70238
15.5884
-31.3154
48.9828
30.861
-9.2281
3.19117
5.78036
-26.337
-66.188
-77.4171
2.31521
-9.43217
-68.3177
2.35351
-11.3395
-5.53103
-34.829
-30.9501
2.1361
16.2767
-71.513
11.2733
-5.79608
2.59101
11.4505
-2.15009
14.8735
-3.13722
14.8161
10.6398
-40.2026
6.96881
59.535
-17.2525
56.6367
33.1923
-66.5989
14.1127
14.1559
-52.3431
-10.8799
0.145561
-31.6259
-21.9754
-4.70802
2.14801
1.92188
-31.7311
-1.72291
7.58307
58.8066
-6.6898
12.951
-5.11688
-15.8413
8.32539
8.50676
-30.0296
-31.0372
-27.5092
-30.4631
0.614943
-14.9634
1.27784
-15.6085
-10.3452
1.75207
1.17873
-13.8128
-2.95591
-29.9331
-29.9899
-0.189205
7.97377
1.03001
-10.23
-19.9467
9.86619
9.50651
-14.5285
-29.3581
9.96621
-6.28569
-29.8865
2.35079
-35.0313
-0.318378
-3.31848
-50.9251
2.3357
53.838
-8.42642
1.47865
1.46409
0.707749
-71.0693
0.925341
0.950838
-4.20099
0.275951
11.5254
0.767531
-25.8464
12.1829
36.8255
12.7154
12.3071
12.1218
1.02832
-10.817
-3.20638
-7.4532
-69.3401
-0.73907
-41.0625
-8.6081
-0.023313
-61.0083
0.0402873
0.824092
1.19248
-6.41409
-52.4895
-21.6744
12.126
40.1558
-6.05468
2.00466
-32.3045
-40.8688
-7.25766
-50.0288
34.9169
12.8827
-8.58687
41.7189
13.0545
-62.8029
19.5825
10.8309
49.995
35.2666
13.0801
13.16
62.1497
-45.4579
1.23465
55.2767
7.60862
13.161
-8.21362
13.0702
-27.1973
10.5311
61.064
13.2251
13.3724
39.781
11.3773
18.5727
-7.98429
-1.99548
16.0688
-45.1893
24.9909
-19.3927
-52.5153
-65.8726
-21.9813
13.4613
37.7802
15.0508
5.57545
10.013
12.7316
13.2606
1.35972
1.33282
42.1268
-38.2669
13.1449
-24.4684
2.63792
9.32978
-15.4194
-63.6609
1.36308
-13.9914
13.7356
5.7649
1.23073
11.5431
-6.91221
1.47996
1.3155
-30.9857
3.45082
0.949501
-6.38666
11.3531
0.78008
22.5817
0.856667
-14.4163
28.5836
3.9125
17.3439
37.8822
-28.7435
58.2635
42.7554
-28.3365
-55.7286
-29.6418
-23.5163
-28.5024
-28.6904
-23.9287
-20.1371
-29.6654
-29.7802
60.7575
-0.608563
-55.3864
10.6271
-0.266759
-33.024
-60.2336
-5.29564
-29.3484
-14.5647
-28.0747
-13.1249
42.7552
-39.0348
-31.7099
-29.1155
25.4566
-28.5532
1.21067
-63.3962
24.2595
7.16797
1.25354
-0.418715
46.8294
9.08534
-26.8928
-11.1371
13.8582
1.24086
-5.59366
-23.3316
-29.2493
-1.19351
-3.09243
18.8723
-25.4798
-5.60292
1.39681
-19.785
46.8638
-1.15984
6.25448
1.28489
3.7067
-37.2567
11.0664
8.64752
-3.82811
1.47711
6.17189
-0.705457
-1.34799
63.9909
3.91125
-20.7328
-4.98036
2.85564
-70.5643
-70.0304
9.75499
10.0745
9.21672
12.1755
-21.1656
-7.78341
58.7385
-8.17832
11.9473
-18.8546
-1.67351
-4.69798
9.67513
-10.1843
9.67382
-17.756
-30.3011
-42.0614
33.1132
-16.4583
18.2872
9.91698
-52.9842
-63.2026
33.3977
-63.1295
10.3253
-57.2102
34.7242
-4.45669
20.9494
-13.2206
1.627
0.340465
-5.79508
-11.5778
-36.491
1.40813
10.3512
-90.4498
13.9644
-27.052
13.8325
-0.426227
11.2452
2.80435
0.49541
0.261035
-3.33758
8.22315
2.40767
16.3233
0.719513
-56.9706
35.4011
12.2789
41.6234
13.1809
1.21648
12.1234
13.9845
31.5304
0.835944
31.4469
1.49029
0.698833
-18.6638
0.959482
0.350103
-16.1793
-9.37076
-33.1473
-2.28402
34.8298
6.48595
28.9359
0.886153
19.4183
16.0218
1.06117
0.831574
0.448832
1.23021
59.0638
0.359727
-7.40585
-28.7103
13.2713
13.6344
16.4849
13.482
-20.4846
-28.2399
0.633836
-2.44489
-2.38852
-11.9742
35.2331
0.279027
-54.0399
-5.67263
-30.6025
0.961144
9.73392
-21.5533
13.3528
13.5014
-16.9528
13.6441
1.33485
7.62915
-47.0628
18.4955
56.0703
1.03934
0.798046
35.5974
8.23928
1.88623
34.8016
8.66409
-11.6217
38.3375
-13.7571
40.2327
-57.8532
3.3282
14.0307
0.467819
-6.70361
1.05074
1.02855
-0.0478164
0.26084
14.0399
-32.3661
5.42981
1.31279
-28.5264
1.27068
9.09367
13.5142
13.6516
25.1582
5.24697
3.04629
-5.75619
0.878808
-10.5409
13.317
1.45316
-18.636
60.9743
-17.7187
1.48145
59.5527
13.5478
-67.7546
54.8203
0.659157
5.12436
35.4637
13.6841
-28.5053
39.6822
-28.5927
-3.93558
-28.1851
-14.6809
-39.7129
35.2939
-3.76355
61.4581
0.85084
-29.0305
-28.0313
-73.7911
-67.7641
-34.3283
-67.2079
-32.3571
-32.4892
58.2798
10.37
11.4912
50.1153
24.5038
-41.4252
8.33073
-43.7494
46.5426
1.05622
11.7923
0.0411249
1.19939
0.748673
0.818513
59.6422
0.926957
0.886414
13.7413
1.04527
1.01354
11.7914
-5.02204
1.009
-6.02051
1.07286
8.03444
28.009
-42.6422
1.08702
2.54998
-4.36292
0.945286
-42.3222
-37.2805
-19.7281
1.65842
40.3673
14.6896
-1.16331
-4.42386
7.34188
5.02749
1.05009
12.7426
12.3248
-30.4403
1.09112
19.2496
-1.90012
3.76524
12.5522
0.119351
8.9402
12.9042
12.5722
-11.7405
12.2659
10.4857
52.2528
26.8847
13.1117
24.0538
11.8729
-0.0496528
12.4639
1.28795
-2.12554
1.30836
6.1868
-0.0096227
23.9008
11.961
-15.0892
24.909
0.194733
10.6391
29.4081
-11.8553
34.4947
-22.8048
-46.6633
-47.3186
1.11353
-0.054666
-19.986
35.4322
-6.55812
-1.02014
9.67293
2.04947
0.292677
-0.0428635
10.3602
13.9234
30.3643
9.20414
2.30539
12.6671
12.1899
0.0843748
-32.9871
36.4493
-0.0304616
8.84869
-9.51941
41.9763
13.6766
11.3602
-8.46189
-44.5402
-67.9988
12.954
12.8852
-4.51795
-8.79843
-6.89548
-27.2119
33.3296
1.38114
1.45006
-0.358814
0.34404
19.1377
-15.9543
0.413182
0.413164
31.7685
0.488738
-4.74959
25.8562
-31.7829
-22.9131
0.673559
-8.93418
14.7781
0.0120071
0.810818
13.4882
10.299
-4.81706
22.0059
5.14785
-49.2992
0.882688
0.78177
-36.3553
-5.56247
14.6041
0.695031
8.63642
13.0085
61.9598
0.775417
-8.4112
-41.8111
-34.8589
-79.4756
-54.4781
0.78411
17.5155
48.0657
-0.0387521
10.5342
11.476
-39.7493
14.1739
7.06304
-35.2842
13.6266
22.3025
-14.7225
9.94058
-37.3928
-64.7257
15.7818
19.9149
-48.32
16.0183
11.8523
3.61878
15.0854
13.4614
2.45888
-30.6318
-4.79721
9.94688
15.1352
13.3957
13.8245
5.20802
0.0331304
37.1906
0.0237207
-5.90895
1.25902
37.6004
13.533
-10.6973
5.61782
58.7186
-20.7306
-25.6456
-45.0152
4.07436
-3.93398
-45.6153
-16.2364
15.4501
-13.2585
-3.62555
0.0488185
-6.88424
12.8975
8.18019
5.55924
0.148344
0.318491
-16.941
-3.0231
-10.0139
1.03739
1.13215
0.259
0.83346
-4.13577
14.0546
-37.5471
14.3887
0.807841
0.825841
12.5415
12.2692
13.2105
1.48437
0.881844
-6.37528
4.99461
0.865766
0.774588
-26.9935
3.46447
-7.27249
-46.2698
-28.4978
-37.8239
15.3892
-48.1105
18.5274
-28.2475
1.28548
-29.6272
1.04329
3.24285
1.29142
-3.35608
1.24656
3.85894
-0.896274
13.3715
5.48931
14.7499
-3.50679
-6.71458
-67.8323
-28.9907
24.6264
34.3503
-38.8956
-28.4621
-30.3342
-65.3524
-28.6944
-6.35325
-29.2628
1.74314
1.73614
-57.7426
-69.5301
-6.87316
0.878008
12.9867
52.8298
-2.93492
-69.551
2.65874
5.66937
-0.791285
0.749814
-30.4514
1.60613
1.45841
1.37826
2.92409
7.93215
1.34865
1.0531
-58.0173
-60.2565
-36.2026
23.9075
-36.1914
13.2955
0.93411
15.2746
7.511
4.93772
22.8597
12.7832
24.1488
1.22144
4.70559
6.20718
1.19264
3.1029
-9.87617
9.83376
14.3813
9.73189
43.1359
1.74783
23.3286
-52.5605
-3.02434
-43.6844
39.672
11.4321
10.3116
7.03722
-19.0314
-8.11411
11.9103
-36.7064
8.38753
7.35527
-2.88882
17.6276
10.5158
-3.80143
-12.8411
-19.8089
14.0264
-1.5657
-48.7596
0.71196
-41.8453
-34.466
13.9055
-71.69
-4.0355
34.877
-2.34745
13.8695
13.8854
17.5952
-4.42533
13.1704
-29.2167
-12.0563
-28.6278
-3.92382
-7.95468
18.4843
-28.8141
-17.6153
2.173
1.59032
17.412
-29.4174
8.81338
0.982411
-43.4645
0.723839
0.650665
12.5975
-70.4292
-3.77414
-0.177668
1.23354
-0.536379
12.1914
11.5374
1.9839
12.2552
-14.8095
12.2976
-75.9695
12.5861
-40.1025
-27.4976
-7.46685
11.0527
-6.08562
-0.409198
11.9066
-2.1943
1.16943
-6.38284
53.4381
0.206905
35.7166
-5.73866
0.0938018
-2.5519
0.195476
13.4622
11.991
13.224
-6.80442
0.249861
12.7649
-2.29224
0.0148346
0.671031
-20.4744
2.6021
0.289485
13.5943
-37.1752
-39.9293
0.0811433
-2.16129
0.732483
-31.5306
0.454565
0.385513
1.16897
0.319562
1.23386
1.19703
0.0458447
0.741898
12.3028
-34.5726
-24.8208
13.5847
47.1791
16.8832
13.3112
-0.0493877
14.006
39.8711
0.019519
35.86
1.45788
0.0479715
2.26635
27.9088
0.915766
0.058029
55.3263
14.0875
28.0654
-7.24222
-11.4299
0.146469
-2.66983
-0.0512603
1.08175
3.18426
0.681193
51.3551
1.07101
0.608706
0.690965
12.8976
-35.9878
-17.9023
-2.80382
2.54997
1.2881
0.553543
15.6237
-25.9481
26.4934
18.0551
2.19826
0.555717
43.9245
-11.9802
41.9654
32.7172
12.397
13.4194
0.354797
-5.11987
2.479
-10.5843
-9.93539
13.4732
-68.0649
1.38973
1.45105
1.13911
11.7402
1.11117
49.5654
-2.83192
47.1079
1.27725
-66.4328
-9.02409
-11.7383
1.01119
-41.1558
1.35234
30.2348
13.1395
33.3926
1.42933
-15.031
4.67404
-42.6698
29.6393
12.9213
12.7114
0.332852
-21.0552
12.5063
-77.0282
-22.1061
12.9871
35.0552
12.8499
-19.446
44.5852
6.32983
-3.65826
44.1694
36.4344
2.29102
3.78821
-65.7401
43.8386
10.3534
41.2567
-3.44418
-59.4168
29.6591
-0.75523
-0.0765753
0.26661
-0.0583555
1.48825
14.8517
-43.1754
0.74558
-30.0452
17.3011
39.73
-10.9307
37.4199
-0.0883866
-0.036646
-10.9888
57.7342
-15.278
49.1635
16.9655
5.09654
25.6967
5.7681
18.1742
0.0153714
-0.0974098
-0.00952172
-0.0205921
9.61574
-12.2697
14.2806
-30.3696
1.50542
-36.2292
11.8081
-18.4487
46.3673
-0.56752
-0.471812
0.15582
40.1668
0.107843
23.5461
-0.755744
9.40999
-6.39219
1.23932
33.0719
37.4095
-11.1291
0.11682
1.13673
-47.1268
-58.9222
-7.34503
53.168
29.0467
55.8196
58.924
45.7994
-44.8855
-0.375269
45.628
-42.7575
-0.0120025
5.99869
0.0655338
-23.8591
-20.7586
-0.766274
2.41943
-6.48745
-0.036795
12.3641
-36.2026
42.4073
-40.9528
12.2496
-0.531015
10.942
2.58278
-4.10665
-75.582
2.86507
-30.0219
-12.7578
12.6403
-71.7139
-66.6588
12.6771
-8.52171
-10.639
21.0732
12.7173
-11.2602
26.8987
-63.4669
-27.2865
-38.197
40.2393
-39.397
5.81748
26.53
5.31616
-50.2518
-45.0644
2.39463
0.64217
51.0436
-0.952736
-33.7513
-0.696845
-13.8252
-57.6102
-15.9876
-29.5424
1.84489
-30.159
0.319125
-29.6666
14.1329
-19.1935
51.3587
-28.7865
22.2069
-27.4435
-28.5006
-17.7983
-40.4971
34.7893
32.5329
-35.3324
11.9228
23.6116
17.5707
6.93405
14.3146
-3.25299
-34.5139
-83.7443
-45.288
17.6615
21.6476
-35.8073
24.974
-28.9819
-12.4652
7.21012
5.5382
-37.9724
13.6557
-31.2599
15.2278
32.1111
34.0399
62.1508
31.5764
-24.6675
-52.7863
45.7014
13.6397
38.2161
-44.0617
-29.6039
52.0251
31.4853
-2.90017
23.0667
22.053
-40.5811
-32.0781
-67.8307
18.2503
11.3592
37.6256
-51.0751
46.0686
30.3162
13.9071
38.8617
-39.5479
3.81091
3.55448
13.8819
-9.87391
-58.33
-30.8894
46.6342
0.445167
-31.3628
-58.5133
43.9756
47.6987
41.1435
-45.359
-89.3378
46.3989
-24.3039
-53.052
47.5945
-0.34035
-7.83545
13.4593
1.31927
1.72701
-6.04126
45.0827
-28.0381
1.20118
1.92961
1.677
2.19968
1.03421
7.32132
-30.3048
-3.19851
1.45011
-50.7784
-69.6045
-29.3026
-16.2914
0.548077
-15.1868
-33.1784
-36.2029
1.51422
-37.1581
0.114346
-35.3181
-28.2598
44.4885
20.5875
27.6206
0.0247745
6.72543
-64.5501
-22.3291
-7.72111
-54.0045
0.00448257
-54.4843
-37.6677
-22.1554
-38.0151
-2.45655
17.0921
12.9227
16.1706
12.1223
44.0474
0.0703982
-0.0332701
0.13594
15.8188
-14.1062
-60.4208
-49.5801
16.914
38.8755
25.2126
30.9565
2.05731
-61.5201
-4.13044
14.1741
5.74254
0.355271
20.1852
9.21066
-11.3398
15.9468
-8.95543
-7.81405
-3.72955
18.1219
37.4542
-27.8784
54.8254
-38.1266
20.4151
-76.4538
-55.3007
-8.36696
15.3765
35.9448
-6.66472
-42.6482
6.6408
15.7303
-18.3264
-31.1543
17.7007
48.1486
61.5045
-65.7267
-2.66207
-54.8329
15.6447
2.15187
-9.13583
11.8079
8.30805
-15.7833
4.63016
9.81333
-37.1778
-6.83644
-29.5133
-11.7694
-35.2941
0.131317
13.2103
-75.7748
-14.6922
0.00625893
62.2342
13.06
47.7414
11.1998
-22.4043
18.2793
3.27857
35.2008
56.673
16.6895
35.3374
-0.120262
-46.3938
13.688
13.5277
0.361415
8.27251
-32.5419
-2.26084
-6.25776
13.838
4.89126
-19.4539
6.1973
10.8068
-5.15833
-10.1692
-26.3436
-0.0563749
14.704
-0.00194936
15.4875
0.0664014
-15.8221
13.5034
-20.0717
12.8868
-34.9637
-0.0587293
34.9023
-8.52325
37.0036
0.062136
8.0574
-0.0669119
-0.00226881
-4.58773
7.18835
17.9761
35.4505
30.9332
-41.1995
-50.3764
43.9287
25.7622
22.4168
7.05398
-0.0053352
0.214652
-68.2824
45.3028
20.2663
16.0722
0.0797271
19.7038
0.161514
0.108314
-18.3955
-21.6329
-33.7488
-37.699
8.99175
2.15035
-7.94091
13.4909
43.4255
11.9588
-11.323
11.9934
-5.43561
-71.8787
-14.6445
0.292863
5.50536
-6.67301
-4.76423
-37.098
13.6055
-36.8924
24.7446
-68.9846
-28.6668
-24.5321
0.311434
22.9629
4.21524
13.7917
36.0138
13.8402
-8.46921
11.7837
12.6409
10.2019
13.7429
-36.0998
18.7569
7.06467
44.2043
13.2013
-19.7595
13.9343
13.8453
-30.1359
-70.5001
-26.2161
-30.4547
-29.4473
11.016
59.514
-30.3256
-5.09897
13.2836
20.8198
-29.6968
0.637759
0.616736
11.6953
-20.7663
-31.7721
-43.6498
32.953
0.212705
1.22714
5.03935
-33.5346
29.0626
10.7691
-52.0296
-33.3658
-30.9887
61.6866
15.0674
11.3858
3.9496
15.1654
-60.1515
17.9096
12.0632
20.0794
-2.67517
18.2105
23.9246
45.7436
37.1729
11.5303
-14.591
23.354
-7.76468
0.685369
0.598354
31.8455
-27.8821
-14.2672
0.562633
56.8552
0.601452
-33.6665
31.4676
22.7431
40.3433
-29.8903
-24.7132
-29.7203
32.8557
-9.90453
-27.9021
-8.7661
12.1671
2.13277
15.0833
1.08682
17.2111
0.950154
12.2843
1.11495
-10.0403
0.341053
36.0881
3.99113
5.33515
-23.8851
8.72345
1.39689
9.86036
-4.66746
-38.5791
-47.1679
-18.8535
5.61288
37.7017
1.29317
59.674
-46.5565
59.9761
53.8442
1.14542
4.40356
5.87945
1.06226
1.18794
-84.4209
12.0844
-33.3419
-15.319
5.64683
1.36836
-27.7996
6.68951
6.59691
10.7961
7.72076
1.14296
-42.0068
-2.75846
1.40706
-7.2422
1.68966
1.12252
1.62983
1.37965
-3.74018
6.93186
-52.2775
1.19637
1.51054
-9.95647
-5.06228
23.7865
-17.4283
13.0665
12.9555
-0.0704614
0.296299
-8.13154
-14.8956
8.62646
0.131908
-0.742316
9.80008
0.106576
57.9585
0.0983056
3.11111
0.114368
-0.00251884
-25.9654
0.00151323
-30.0229
-3.19123
52.8695
4.77972
-0.216669
-5.05225
-1.40898
-1.6823
-40.0362
1.99767
0.094079
7.55049
-29.825
0.0689019
7.52163
28.6088
42.9323
-8.83842
9.7405
9.9654
-42.8184
-22.0834
0.059353
48.9777
-56.3866
-19.8158
-7.08383
50.6128
-8.60337
-8.47972
32.6448
-62.6268
-0.729502
0.112162
0.0842283
0.0691134
-0.00545437
0.0107717
-34.9133
18.169
-0.0224921
-52.392
1.50946
0.189482
-7.98712
3.21947
16.602
-45.658
6.61778
16.5876
-24.0213
1.7993
15.8921
60.2543
15.774
-49.3038
41.8844
18.3676
33.1671
0.29443
45.3757
0.604892
7.34774
24.615
0.109891
-43.0268
-26.7222
0.74796
0.7232
-133.707
20.0959
-30.6737
1.23496
-2.57708
1.20446
14.062
22.734
49.6505
14.0701
55.5576
14.0382
-79.5068
-29.1797
-32.1545
-26.4625
-11.0527
-6.18891
30.596
14.1514