/*--------------------------------*- C++ -*----------------------------------*\
| =========                 |                                                 |
| \\      /  F ield         | OpenFOAM: The Open Source CFD Toolbox           |
|  \\    /   O peration     | Version:  2506                                  |
|   \\  /    A nd           | Website:  www.openfoam.com                      |
|    \\/     M anipulation  |                                                 |
\*---------------------------------------------------------------------------*/
FoamFile
{
    version     2.0;
    format      ascii;
    arch        "LSB;label=32;scalar=64";
    class       surfaceScalarField;
    location    "0.0440925";
    object      phi;
}
// * * * * * * * * * * * * * * * * * * * * * * * * * * * * * * * * * * * * * //

dimensions      [0 3 -1 0 0 0 0];

oriented        oriented;

internalField   nonuniform List<scalar> 
92401
(
0.147469
-0.0958528
-0.00700716
-0.0446089
-0.0621888
0.0600121
0.0373135
-0.0351368
0.0225073
-0.0399758
0.043161
-0.0256925
0.00648166
-0.0127796
0.0126082
-0.0063103
0.00140848
-0.000478078
-0.00583939
0.00490899
0.0195836
0.00974635
-0.0255561
-0.00377386
0.00559685
-0.00460067
0.0004123
0.0324394
-0.0257307
0.0128749
0.0481051
-0.0386476
0.0324353
-0.0418929
0.000432367
-0.00101437
-9.83585e-05
0.00068036
0.00465615
-0.0418288
0.038049
0.0242624
0.024364
-0.0866754
-0.0169828
0.0108706
-9.87076e-05
0.00621095
-0.0345255
-0.0403832
-0.017227
-0.0171215
0.0581156
-0.0237671
0.00202026
-0.0658984
0.0638781
-0.00227175
-0.00769727
0.00196447
0.00344005
0.00229275
-0.000939871
0.0014793
0.000267863
-0.000807294
-0.00478588
0.0104587
4.32971e-05
-0.00571607
0.0161961
-0.00575729
-0.00478
-0.00565881
-0.0406464
0.00819625
0.0370136
-0.0045634
-0.0392551
0.0108355
-0.0548941
-0.0544873
-0.00283772
0.0554381
0.00188686
0.0905917
-0.0895178
0.022431
-0.0235048
0.0498897
0.0600794
-0.0713003
-0.0386689
-0.0324824
0.0512459
-0.0580185
-0.00263509
-0.00103867
0.00392707
-0.000253321
0.0316436
-0.063726
-0.000400081
0.0610109
-0.0608718
-0.032144
0.0320048
0.0126519
-0.0173249
0.00126916
0.00340382
-0.0358354
0.106234
0.0612881
-0.131686
-0.0846926
0.107567
0.00893688
-0.0318115
-0.13114
0.0321167
0.0296445
0.0693783
0.014869
-0.0616585
0.0369076
0.00988193
0.0598032
0.00937113
-0.0543053
-0.0441572
0.0103778
0.00216483
0.0316145
-0.050413
-0.041178
0.0654792
0.0261117
-0.0333432
0.0404373
-0.0140104
0.00691626
-0.0195594
-0.101879
0.0645554
0.0568826
-0.0864202
0.0863154
0.000104796
0.0334839
-0.00546113
-0.0754491
0.0474263
0.00379742
0.0235156
-0.0242251
-0.00308791
0.0268878
-0.0504008
0.023513
0.000111787
-8.76736e-05
-2.77224e-05
3.60908e-06
0.000576966
-0.0587453
0.0581684
-0.068569
0.0427308
0.062573
-0.0367349
0.0901073
-0.0254627
-0.0127314
-0.0519132
-9.16345e-06
0.0701717
-2.10097e-06
-0.0701604
-0.0476002
0.0730989
0.0395442
-0.0650429
0.000534439
0.00106153
-0.000371045
-0.00122493
-0.00230851
-0.00348773
0.00035467
0.00544157
-0.038205
0.0839446
-0.0461448
0.000405103
0.000315014
-0.000773885
-0.000667504
0.00112637
-0.0547841
0.0544757
0.000308399
0.0750733
-0.00788576
-0.0184922
-0.0486954
-0.0977132
0.0905276
0.00515587
0.00202971
-0.0553636
0.0276858
0.0110998
0.0165781
-0.0027606
-0.015578
0.00735728
0.0109813
-0.0123877
0.0258282
0.0374371
-0.0508776
0.000898901
-0.000278298
-0.000305589
0.000106761
-4.29187e-06
0.000702042
-0.000804511
0.00102434
0.000222345
-0.000755783
-0.0004909
0.00417736
-0.00923372
0.00516991
-0.00011355
0.0679078
0.00506121
-0.0172011
-0.0557679
-0.0150426
-0.00466856
0.010388
0.00932314
-0.0410554
-0.0529801
-0.0547697
0.148805
0.0034662
-0.0338696
-0.00419741
0.0346008
-0.000421281
0.000554809
0.000663467
-0.000796995
0.00463931
0.00439128
-0.0283255
0.019295
0.0187639
-0.00673985
-0.00955518
-0.00246887
0.0418467
-0.0763131
-0.0274561
0.0619225
-0.0285939
-0.00331416
0.0103204
0.0215877
0.0121365
0.00804574
0.0129625
-0.0331447
-0.000744306
-0.000384792
-4.54749e-05
0.00117457
0.0252265
-0.0097307
0.0365668
-0.00111043
0.000733269
-0.00129884
0.001676
0.0444271
-0.033004
-0.068424
0.0570009
0.000617039
-0.000309982
-0.000307057
-0.00108948
-4.3115e-05
0.000563884
0.000568712
0.000852534
-0.000305544
0.000746992
-0.00129398
0.0224447
-0.0222286
-0.0626984
0.0624823
0.0012082
-0.0127357
0.0026992
0.00882828
0.0430396
0.0583647
0.0186292
-0.120034
-0.116069
0.0264029
0.128528
-0.0388622
-0.00527959
-0.0441199
0.00381255
0.0455869
0.0535594
-0.0288614
0.0254854
-0.0501833
0.0246422
-0.0036327
-0.151335
0.130326
0.00690093
0.0176515
-0.0274206
0.00286822
0.000696809
-0.0002372
-0.000704248
0.000244639
0.0378496
0.0128857
-0.00159655
-0.0491388
-0.00222654
0.0840293
-0.0855838
0.00378106
-0.0179894
0.0498898
-0.116222
0.0843214
0.0419977
0.00537948
-0.0526568
0.0420324
-3.46795e-05
-0.00233479
-0.0290608
0.0413925
-0.00999698
0.0709079
0.016939
-0.0313745
-0.0564724
0.128913
-0.142218
-0.0280518
0.0413572
-0.0151192
-0.045187
0.0579714
-0.0819
-0.000779464
0.0826795
0.00115368
-0.0979823
0.163682
-0.0668536
-0.00246488
0.0033638
-0.000582042
-0.000316879
0.0887248
-0.14786
0.0309069
0.0282284
0.00154136
-0.000345878
0.000840989
-0.00203647
-0.086403
0.142906
-0.103851
0.0473474
0.0299871
0.00309406
-0.0401768
0.00709563
0.086836
-0.0159906
-0.0804329
0.00958751
0.00571989
0.0312218
-0.0520609
0.0305408
0.0271964
-0.130512
0.0727751
0.086028
0.112934
-0.0795381
-0.119424
0.000727017
0.000495199
-0.0026116
0.00138938
-0.0940956
-0.0295252
0.111896
0.0117252
0.00113994
-0.00601243
0.0156974
-0.0108249
-0.0139071
-0.0334914
0.0574867
-0.0100881
-0.00540124
0.0168245
-0.0142919
0.00286871
0.000355012
-0.000683735
-0.00054828
0.000877003
0.0214828
-0.0257612
-0.00112286
-0.00182556
-0.000710742
0.00149337
0.00104293
-0.0573888
0.0602467
-0.0028579
-0.00248201
-0.00622903
-0.00202292
0.010734
-0.0362298
0.0278933
-0.00557061
0.0183385
-0.0472381
-0.055793
-0.0512686
0.0415568
0.0983118
-0.0886001
-0.00753687
-0.00170818
0.00501869
0.00422636
0.04694
0.0112911
0.00220249
-0.0604336
0.00036225
-0.00925685
0.00675982
0.00213478
-0.0395103
-0.0534404
0.0117074
0.0812433
0.0647031
-0.0388755
0.0266298
-0.0524575
-0.00970414
0.0599285
-0.0590207
0.0087964
-0.0589408
-0.0338488
0.00785061
0.084939
0.0164184
0.00506536
-0.0332382
0.0117544
0.0601133
-0.0605272
0.000413866
0.00184553
0.00181647
-0.00137979
-0.00228221
0.0408533
-0.0434082
0.00255486
-0.0550732
-0.0351352
0.104679
-0.0144701
0.000842139
-0.00977361
0.00958316
-0.000651681
0.00297265
0.00594624
0.00262107
-0.01154
0.00184792
0.00624206
-0.00772773
-0.0251422
-0.0575074
-0.00905928
0.0917088
0.0258295
-0.00754929
0.0175012
-0.0357815
-0.0840429
0.0924658
-0.101276
0.0928531
0.0792477
-0.0522176
-0.0270301
0.00150748
-0.0345706
-0.0101153
0.0431785
0.00824197
-0.0055595
-0.00925395
0.00657148
0.0465579
-0.0701864
-0.061816
0.0854445
0.0740485
-0.0647098
0.0293419
-0.0386805
-0.0132956
-0.0082035
0.0316309
-0.0101318
-0.0582247
-0.0869426
0.0568979
0.0882694
-0.041681
0.054286
-0.0110975
0.097709
-0.0483255
-0.0493835
-0.00436154
0.0149951
-0.00239154
0.000980776
0.000669384
-0.000709072
-0.000941088
0.0473764
-0.015831
-0.00525146
-0.0262939
0.00361345
-0.00184918
-0.000494771
-0.0012695
0.00548451
-0.0101391
0.00870158
-0.004047
0.0727414
-0.0422071
0.0255921
-0.0561264
0.0086615
-0.000350546
-0.00682599
-0.00148496
0.0016662
-0.000597251
-0.00106895
-0.064534
0.0644373
9.67292e-05
0.0123308
0.00553955
-0.0968262
0.0789558
-0.0113393
0.0142237
-0.0102887
0.00740439
-0.0724947
0.0163913
0.0830468
-0.0269433
0.0180462
-0.0971911
0.0757111
0.00343383
-0.0526936
0.0430379
-0.00827952
0.0179352
0.00874531
-0.00179695
-0.00294756
-0.00400081
8.1194e-05
-0.000929141
0.000847947
0.0284793
0.17033
-0.244917
0.0461069
0.000316989
-0.00020876
-0.024839
0.0603011
-0.0526146
0.0171525
-4.33934e-05
0.00519782
-0.00435588
-0.000798544
0.00050017
0.00172103
-0.00252674
-0.0710879
0.000518609
0.0705693
-0.0324047
0.113848
-0.0477735
-0.03367
0.000422116
0.000641675
0.00949549
-0.0105593
0.000450961
0.0902658
-0.0907168
0.00236527
-0.00164154
-0.00118474
0.000461008
0.00133211
0.000655947
-0.000671752
-0.00131631
-0.0365474
-0.00161926
0.0323737
0.0191373
-0.0638988
-0.0723445
-0.0165654
0.00655928
0.0823506
-0.000602227
0.00193434
-0.0996066
-0.0420653
0.11259
0.0290821
0.02747
0.169642
-0.084687
-0.0573828
-0.027572
-0.017886
0.118888
-0.043428
-0.057574
0.0398605
0.0300926
0.0383111
-0.108264
0.104837
-0.248569
0.109151
0.0345813
0.00159158
-0.00140664
-0.00141284
0.0012279
-0.0122389
-0.0356133
0.0558314
-0.00797917
0.0254835
0.0403762
-0.0259307
-0.0399291
-0.0353413
-0.0258371
-0.0197608
0.0809393
-0.0535297
-0.0137994
0.0550902
0.000858055
-0.0121043
0.00868544
0.00256077
0.0553771
-0.0284499
-0.0508475
0.0239202
-0.089015
0.104983
-0.0500571
0.0340889
0.0162008
-0.023108
0.00708011
-0.000172871
0.0517868
-0.0600642
0.0636545
-0.0568942
-0.00360531
-0.0138946
0.0743941
-0.00539603
-0.0127858
0.00225564
0.0159262
0.000158582
0.0578318
-0.0574196
-0.000570734
0.135885
-0.0535443
-0.00317153
-0.0791694
0.0594988
-0.00763418
-0.0483331
-0.00353149
0.0521783
-0.0208963
-0.0745
0.043218
-0.00971883
-0.00200628
0.0149018
-0.00317673
0.0053177
-0.00159319
-0.00478284
0.00105832
0.00235537
-0.0434806
0.0400939
0.00103127
-0.000876284
-0.0862972
0.00346989
0.0195
-0.013018
-0.0633303
0.0469146
0.0164156
-0.0595518
-0.0170297
0.0109591
0.0656224
-0.0987926
-0.00118891
0.103111
-0.00312948
0.00370944
0.023403
-0.0126459
-0.0144665
-0.0711186
0.149863
-0.06605
-0.012694
-0.00502902
0.013816
0.0225441
-0.031331
-0.0513003
0.0984297
0.0385644
-0.0856938
0.0283767
0.00202892
-0.0147653
-0.0156403
-0.0360152
0.0374374
0.000933164
-0.00431217
0.00710164
-0.00945677
0.0066673
-0.000358744
-0.00441146
0.0102547
0.0358793
0.0382159
-0.0740952
0.00111323
-0.00187421
5.37316e-05
0.000707251
0.0192446
0.00838597
-0.0186413
-0.00898931
0.0218611
0.0110636
-0.00233079
-0.030594
-0.0516024
-0.00116431
0.00649841
0.0462683
-2.06776e-05
-0.0434599
-0.000940707
0.000577885
0.00147605
-0.0518425
0.0370215
0.0520175
-0.0371965
-0.0446778
0.0300597
0.0185127
-0.00389467
0.00132128
-0.0033018
-0.00981149
0.011792
-0.00907835
-0.0050316
-0.00344772
0.0175577
-0.043236
-0.00478046
0.0120013
0.0721642
0.0395292
-0.071796
-0.0398973
-0.0443419
-0.00045056
0.0447924
0.0862356
-0.0486636
0.0595283
0.00358609
-0.00775009
-0.0375813
0.0417453
0.0357596
0.0114204
-0.00566487
-0.0415152
-0.000480691
0.000298341
0.00100177
-0.000819417
-0.0168992
-0.0448019
0.0617011
-0.000275777
-0.00129439
-0.00441373
0.0311663
-0.0231665
0.0061161
0.0279982
-0.0418644
0.0979604
-0.0908528
-0.00204835
-0.0050592
-0.0211654
0.101046
-0.0187349
-0.0611461
-0.0322486
0.0067964
0.0149564
0.0104958
-0.0393655
0.036012
0.014292
-0.0109385
0.0325495
-0.0251265
0.0013503
-0.00877329
0.0185752
0.0720027
-0.120989
0.030411
0.076246
-0.0751818
-0.0242885
0.0232242
-0.143077
0.00226001
0.00346989
0.137347
0.0304165
0.0123517
-0.0410963
-0.00167181
0.0399234
-0.0578851
0.0203574
-0.00239572
0.00210425
-0.00124004
0.000235614
-0.00109983
-0.0147007
-0.00129869
0.0733909
-0.0416424
0.0188128
-0.0505613
-0.0117413
0.0476988
0.000491045
-0.0364485
0.00545312
0.0954693
-0.0929111
-0.0080113
0.0495736
-0.0990059
0.0583171
-0.00888478
-0.0485278
-0.000393281
0.0371798
0.0152554
-0.00378726
0.00867133
-0.0201395
-0.0234255
0.0478029
-0.0133213
-0.0110561
-0.0484999
-2.79214e-05
-0.00533265
-0.122831
0.17582
-0.0476558
0.0102019
0.0096403
-0.063394
0.0435518
0.0497066
0.00547634
-0.044981
-0.0126358
0.00673521
-0.00360277
0.00950332
-0.0558463
-0.000301932
0.0561483
0.11018
0.0443172
-0.136274
-0.0182228
-0.00912343
0.000414564
-0.0039269
0.018539
-0.115977
-0.0223917
0.11983
0.012614
0.0663101
-0.0692838
0.00294033
-0.0557071
-0.0106273
0.000470097
0.00187085
-0.00261673
0.00197904
-0.00182733
0.000318389
-0.0506943
0.0255639
0.0742401
-0.0491097
-0.00194381
0.000981633
0.000919063
-0.0343447
-0.00768022
0.0449653
0.000228596
-0.000301552
0.000338235
-0.000898595
0.000106245
0.000454115
9.49294e-05
0.0021127
-0.00174379
0.00139383
0.00010094
0.000249019
0.000477378
-0.000305644
0.000727168
0.105695
0.120917
-0.0791438
0.000110072
-0.000821003
0.00118831
-0.0529504
0.053027
-7.65937e-05
-0.0108035
0.0760264
-0.0713263
0.00610341
0.00183229
-0.0194541
0.00515141
0.0124704
-0.0604653
-0.0032886
-0.0171391
0.00397846
0.0476467
-0.034486
-0.0641799
-0.002295
0.0664749
-0.00635657
-0.016672
-0.0127497
0.0357783
0.000290184
-0.000364573
-0.000492245
0.000566634
-0.00405754
-0.00730981
0.00896828
0.00239907
0.0549837
0.0439077
-0.0175084
0.0478556
0.0892644
-0.0381054
-0.0990146
-0.0126213
-0.0444937
-0.0201549
0.0195505
-0.0553483
0.0559527
-0.0106263
0.0292843
-0.00683663
-0.0118213
-0.0151405
-0.013539
0.013726
0.0149535
0.0972556
-0.095646
0.018875
-0.0204846
0.0010886
-0.00435306
-0.000322582
0.00358705
0.000988414
-0.0658698
0.0648814
-0.0727202
0.00350754
0.0667907
0.00242193
0.0392236
0.0382451
-0.0774688
0.0189629
-0.0602607
0.0286765
0.00214475
-0.00124791
0.000629584
-0.00152642
0.000173808
-0.000381288
0.00144199
-0.00123451
-6.80093e-05
0.000411291
-0.00097112
0.000627839
0.0633617
0.0562415
-0.0388964
-0.0807068
0.00553255
-0.0868141
0.0824489
-0.0011673
-0.0135522
0.000289175
0.0265933
-0.0133302
0.0533284
-0.0526695
0.0191525
-0.0198114
-0.000510532
0.00133722
-0.000668906
-0.000157786
0.0203645
0.0478401
-0.0492417
-0.0471165
-0.00175083
0.000889899
0.00156054
-0.000699609
0.000993867
0.0797853
-0.0807792
-0.04992
-0.0154042
-0.0221851
0.0875093
-0.0500466
0.000126597
0.0116513
0.016843
0.0167538
-0.045248
0.000514102
-0.00280017
0.000304323
0.00198175
-0.00169492
-0.000674302
0.000618391
-0.106404
-0.00876359
-0.0432058
0.158374
-0.0101527
0.00703978
0.137468
-0.134355
-0.0382147
0.0420764
-0.064938
0.0610762
-0.0787424
0.0785548
0.000187519
0.00144081
-0.0501768
-0.0304418
0.0663803
0.0194278
-0.00572075
-0.0800873
0.0501964
0.0942957
-0.156383
0.0118912
0.0415481
0.0159485
0.0331684
-0.0906649
0.104284
-0.10839
0.0433295
-0.00347624
0.0130229
-0.0117603
0.00221358
-0.00190671
4.21321e-05
-0.000698845
0.00256342
-0.00281945
-0.00555433
0.00162623
0.00674755
0.0607395
-0.0060405
-0.0183388
-0.0363602
-0.0567467
0.0282357
0.028511
-0.0925318
-0.00790776
0.0123283
0.000468111
-0.000488249
-0.00188657
-0.117497
0.0262982
0.00481211
0.0863863
0.00118877
-0.0537562
-0.00997961
0.0625471
0.0454051
0.0289764
-0.101386
0.0270042
0.0381196
-0.0439728
-0.0188074
0.0246605
0.0480445
-0.0603537
0.0504288
0.0309358
-0.055881
0.0496584
-0.0247132
0.0345318
-0.0359431
0.000313822
0.00109748
0.0163837
-0.141914
0.0908985
0.0346315
0.00132804
-0.0613863
-0.00366613
0.0523319
0.000515747
-0.108211
-0.0337762
-0.00894123
0.00667361
0.0360438
-0.0486971
0.0444543
0.0502981
-0.0460553
-0.0425877
0.0824258
-0.0398381
0.0106887
-0.10257
0.0479088
-0.0168654
0.00759486
0.0244043
-0.0151337
-0.0885473
0.0935897
0.0366208
-0.0416632
0.0584547
0.0328353
-0.0829375
-0.00835246
-0.0471394
0.142041
0.00423183
-0.0991338
-0.000529904
0.00302547
0.00356287
-0.00605843
0.0538961
-0.0722506
0.082955
-0.0646005
0.00839913
-0.0397467
-0.00831516
0.0396627
-0.0436864
0.0318667
0.102808
-0.090988
-0.0500075
-0.0264705
0.0529763
0.0235017
-0.00993732
-0.000360421
0.00631084
0.0039869
-0.0102071
0.0219445
-0.0181262
0.00638887
0.00020813
0.0737127
-0.0739209
0.0149239
-0.0442293
-0.0193917
0.0484597
-0.03404
-0.00108502
-0.0133346
0.00143739
-0.0256093
-0.0203484
0.0445203
0.0347045
-0.0346742
-3.03424e-05
0.0612983
-0.0416972
0.0641596
-0.0837608
-0.099731
0.0976681
0.0993185
8.74901e-05
-0.0107795
-0.00180431
0.0124963
0.0496284
-0.000185584
4.13196e-05
5.09359e-05
9.33283e-05
-0.000274425
0.0473762
-0.109893
0.062791
-0.0085816
-0.000577139
0.00497606
0.00418268
0.0268816
0.00996523
-0.0368469
0.0012116
-0.000987446
-0.00880576
-0.0328994
-0.0327985
0.0106247
0.0571998
0.000917734
-0.0581175
0.0728462
-0.0441336
-0.0511888
0.0224763
0.00171307
-0.0248955
-0.0209747
0.0694044
0.0430184
-0.0395765
-0.00797657
0.00927566
0.133875
-0.119571
0.0360524
-0.0503565
-0.0450186
0.0365362
0.0218977
-0.0134153
-0.0526371
0.0525218
0.000115263
-0.0477903
0.0296595
0.0107182
-0.04689
-0.0107646
0.0469364
-0.00250409
0.160353
-0.159879
0.00203012
0.10764
0.0159614
-0.0160337
0.050901
0.00863712
-0.0513179
-0.00822021
-0.014408
0.00461278
0.0106184
-0.000823139
-0.00953147
-0.00532578
0.0047239
0.0101334
0.0660488
-0.037574
-0.0527683
0.0242934
0.029747
-0.0156732
0.0239068
-0.0379807
0.0267231
-0.093403
0.0894752
-0.0227953
-0.00580061
0.000426703
-0.00903411
-0.0942177
0.107237
-0.0234473
0.0104276
-0.0113926
0.0479298
0.0138789
-0.050416
-0.00431195
-0.000284205
0.00321721
0.00137895
0.0834662
-0.00481595
0.0509327
-0.129583
4.82715e-05
-0.000717044
9.32461e-06
0.000659448
-0.0665399
0.0585411
0.0739615
-0.0659628
0.0035427
0.00109258
-0.00229496
-0.00234032
-0.0781456
0.075892
0.00225363
0.062505
-0.059201
-0.00330397
0.0604374
-0.000659984
-0.0597774
-0.0110838
0.123582
-0.000678165
-0.11182
0.00991579
-0.0311497
0.0328852
-0.0239414
-4.61631e-05
-0.0562704
-0.067645
0.0118634
0.0664613
-0.0106797
-0.0131951
-0.00213699
0.000347461
-0.000635467
-0.000154456
0.000442462
0.00116623
-0.000150886
-0.000237669
-0.000777672
-0.0634415
0.00752406
-0.00128302
0.0572004
0.000436434
-0.00544165
0.00188089
0.00312433
0.0120651
-0.0145964
2.42912e-06
0.00252891
0.00815499
-0.00674678
0.0106568
0.0556166
-0.00919724
-0.0227053
-0.0237141
0.0361286
-0.00537233
-0.0363618
0.0056056
0.00027107
0.066954
-0.000349638
-0.0668755
0.00769441
-0.0718953
0.0193209
0.04488
-0.0427653
-0.032161
0.041955
0.0329713
-0.0353671
0.0210445
-0.090724
0.105047
-0.000885708
0.0151163
-0.00779934
-0.00643121
0.0491201
-0.0590839
0.0475126
-0.0375488
-0.0625398
-0.00677992
-0.00819216
0.000749396
-0.000175514
0.00430527
-0.00487915
-0.0119451
-0.00277004
0.00177077
0.0129444
-0.00804255
-0.00921229
0.0107669
0.00648796
-0.000140107
-0.00218708
0.00137613
0.000951058
-0.000425316
0.000523573
-9.82568e-05
0.00154254
-0.0724074
-0.0267249
0.0975897
-0.000159863
-9.77063e-05
-0.00136922
0.00162679
0.000136427
-0.000442986
-0.000118757
0.00215453
-0.0663345
-0.00010699
-9.83369e-05
0.0007289
0.000641787
0.000104403
-0.000410439
-0.000335751
-0.0280685
0.0640136
0.0775681
-0.113513
-0.00907234
-0.00222996
0.00721619
0.00408611
-0.0144871
-0.000251753
0.00566649
-0.00525318
0.005468
0.013029
-0.0132438
-0.00061061
0.000825347
-0.000321727
-0.0657352
0.0664964
-0.000761196
0.0303013
0.0469508
-0.0599274
-0.0173247
0.0118645
-0.0755794
-0.0213732
0.0850882
-0.0134113
0.00274967
0.00540841
-0.00453496
-0.00636135
-0.00251495
-0.0165269
0.0581217
0.0129415
-0.0545363
0.0691554
0.0046834
-0.0535919
-0.0202469
0.000160349
0.000428216
-0.000782502
0.000193937
-0.000199521
-0.000274662
-0.0026349
-0.00116406
-0.00128191
0.00508088
0.0651333
-0.0459449
0.0120238
-0.0312122
-0.000806647
-0.00266327
0.00141155
0.00205837
-0.0161076
0.0101165
-0.00385917
0.0098502
0.00184425
-0.101454
0.101071
-0.0014612
0.00304919
0.000751865
-0.0104633
0.00666224
0.00996654
-0.0106072
0.00164127
-0.00100057
0.00988355
0.00386382
-0.0106982
0.0368814
0.0561879
-0.027936
-0.0272815
0.054805
0.0281991
-0.0557226
0.0277493
-0.0550308
-0.000365808
0.000236802
-0.0332142
0.0124748
-0.0100444
0.0792125
0.0231316
0.00764594
0.0691739
-0.0542543
0.098091
-0.113011
0.00477569
0.092531
-0.0973067
-0.00690491
-0.00697597
0.0133545
0.000526345
-0.0341457
-0.0871021
0.0275615
0.0936862
0.0222304
0.0615435
-0.0245909
-0.0591829
-0.0235016
0.113362
-0.0529788
-0.0418574
0.044895
0.0517674
-0.0557744
0.0556752
9.91425e-05
-0.0389506
0.0367314
0.00221914
0.0399803
-0.0786766
0.0729908
-0.0342946
0.0671962
-0.0837231
-0.00963042
-0.00812853
0.010854
0.000881608
0.00064391
-0.000596381
-0.000929136
-0.00578321
-0.0425554
-0.00743578
0.00127049
0.00142699
-0.00255109
-0.000146395
-0.0574159
0.0518337
0.0855782
-0.079996
0.0349447
-0.0331508
-0.00179392
0.00960294
0.0181301
-0.010965
-0.016768
0.00421872
-0.000477966
0.00220378
-0.00594454
-0.0643351
-0.000506018
0.0200787
0.0447624
-0.00288444
0.00670776
0.000395407
0.0393031
-0.109498
0.10443
-0.0342349
0.0458867
0.0138895
-0.0593913
-0.000384791
-0.0036134
0.00696633
0.00160312
-0.00495605
0.000104605
0.0606857
-0.0607903
0.0374676
0.0063856
0.0150337
-0.0588869
0.00424602
-0.0073241
0.00260011
-0.182622
0.0278622
0.162156
-0.00739554
0.039276
-0.0110377
-0.0282383
-0.00117945
-0.00153224
-0.00117815
0.00388985
-0.0417972
0.045251
0.124493
-0.127946
-0.00185185
0.000666667
-0.00200473
0.00318992
0.0916179
-0.00269285
-0.0430384
0.000486333
-0.00120951
0.00205232
-0.00132914
-0.0186104
-0.116179
0.0162998
0.11849
0.00399041
0.0521717
-0.00406361
-0.0520985
0.0487325
-0.0702316
0.0603839
-0.0388848
0.0318789
-0.0364536
0.0485877
-0.044013
0.00851856
-0.00188718
0.00594156
-0.0125729
0.0012094
-0.044404
0.0532315
-0.0536423
-0.0360428
0.0972913
0.0177177
-0.0245968
-0.0904122
0.0476001
0.017983
-0.134758
0.0691751
-0.00172969
-0.00863522
0.00634873
0.00401618
0.0280113
-0.050285
-0.00328237
0.0289883
-0.0267077
0.00738231
-0.00582968
0.000109576
-0.0016622
-0.0865182
0.00289765
-0.000783935
0.0721097
-0.149982
0.0786561
-0.0269337
-0.0874887
0.0413083
0.0731141
-0.0724283
0.0209074
0.00265769
0.0488632
-0.0435017
0.0292287
0.0104991
-0.0828382
0.0959576
-0.0131194
-0.0209821
-0.0095246
0.118105
-0.0875986
-0.00354038
-0.00392568
0.00610885
0.0013572
-0.0258068
0.0591877
0.0406676
-0.072171
0.0280374
-0.000764684
-0.000403659
-0.00100334
0.00217169
0.0467597
-0.0492937
0.054866
-0.0376599
-0.00705903
-0.0450899
-0.124374
0.0479895
0.076384
-0.0429241
-0.0325185
0.0276523
0.00308163
-0.00215736
0.000736225
-0.0016605
0.00272587
-0.000329877
0.000685644
-0.086258
0.00350762
0.0827504
0.0611919
0.0134744
-0.123146
0.0484797
-0.0711642
0.00039058
0.0707736
0.00140536
-0.00184813
0.00836216
-0.0079194
0.0483586
0.155739
-0.225946
0.0218491
0.00180929
-0.0022953
0.00146
-0.000973987
-0.0916459
0.0649455
0.0265249
0.000175595
-0.00221774
-0.000871482
0.00294755
0.000141677
-0.00071252
0.0083859
-0.00833148
0.000658097
0.00801224
0.00786224
-0.0151248
-0.000749658
0.0410046
0.0125093
0.00302502
-0.00272637
0.00151063
-0.0985939
0.105424
0.0073744
-0.0142048
0.0119588
-0.0666725
-0.0231276
0.0778414
0.00214252
-0.00469833
0.0879809
-0.0854251
-0.0418421
-0.0366405
0.0873313
-0.00884873
-0.0407301
0.0247149
0.0404836
-0.0244685
0.0537479
0.0207651
-0.0723968
-0.00211627
-0.00161388
0.000176656
0.00172643
-0.000289203
-0.123857
-0.0429652
0.0397469
0.127075
0.0484731
-0.0377549
-0.0316135
-0.0377124
-0.0309155
0.100241
-0.00191326
0.00429051
0.000375314
-0.00275256
-0.0310936
-0.0802162
0.0283427
0.0829671
-0.0296245
-0.0287473
0.0207119
-0.000813195
-0.00325743
-0.00168089
0.00329713
-0.00373875
0.00212251
-0.00577488
0.00564454
0.0253724
-0.07721
-0.0853266
0.137164
-0.000406093
-0.000309275
0.000396182
0.000319186
0.0572583
-0.06034
0.0477328
-0.0446511
-0.0148881
0.0436787
-0.00752093
-0.0212697
0.0863216
-0.0860393
-0.0185764
0.0182942
0.0264684
0.0224021
-0.0636285
0.014758
-0.12736
0.0740505
0.0182068
0.0351029
-0.00527835
0.00302674
0.00012053
0.00213108
-0.00795166
0.00965138
-0.000294357
-0.0134543
-0.00371546
0.0181737
-0.00100397
-0.0624756
-0.00471228
0.0146123
0.0525755
-0.00902499
0.103136
-0.00503114
-0.0890798
0.00917059
-0.0472435
0.0803837
-0.0423108
-0.00160558
0.00417945
-0.00165946
-0.000914414
-0.0149371
0.000261348
-0.0022231
0.0168989
-0.107345
0.00459172
0.0130155
0.0897375
2.20884e-05
-0.000321207
0.000661782
-0.000362663
0.0371302
0.00803264
0.0270013
-0.00471966
0.0457961
0.0528661
-0.0939425
-8.93755e-05
0.000636871
-0.000525408
-0.000570934
0.00214746
-0.00145212
-0.000124411
0.017419
0.110546
-0.0473469
-0.0806183
-0.00022631
-9.48971e-05
0.000200193
-0.000426503
0.061873
0.0170935
-0.0922691
0.0133026
-0.157155
0.0862564
0.0769371
-0.00603851
-0.0182421
0.000308341
-0.0517352
0.0696689
0.025079
-0.014893
0.0170112
-0.0271972
-0.066401
-0.0232357
0.0896367
-0.0779125
0.0383959
0.0395167
-0.00208596
-0.000284583
0.000398885
0.00197166
-0.0383737
0.0414103
0.00764763
-0.0106843
0.0467523
-0.0546187
0.00786641
-0.0607097
0.0337649
0.0451892
-0.0182444
0.00451743
-0.00256578
-0.00175654
-0.000195109
-0.00321508
-0.00255856
0.000495291
-0.0421588
-0.0418842
0.0463685
0.0141565
0.00243442
-0.0629594
0.0023456
-0.000255148
-0.00192144
-0.000169008
0.00358798
0.00391889
-0.00427333
-0.00323354
0.00715961
0.022076
-0.0401993
0.0109637
-0.01917
-0.0153978
-0.00921091
0.0437787
-0.0757373
-0.0106048
0.0304638
0.0558782
-0.0017452
0.0149686
-0.0082971
-0.00492625
-0.0529639
0.000438331
0.0333555
6.31184e-05
0.0251364
-0.1357
0.126212
-0.0156479
0.0287282
-0.0344037
-0.0517134
-0.0271189
0.0548682
0.000168345
0.0401032
0.00315382
-0.0434254
-0.0554052
-0.0599253
0.11533
-0.00312778
-0.00106069
-0.00174066
0.00592913
0.00319307
-0.00473815
0.00171761
-0.000172542
0.0363974
-0.00588912
-0.0281478
-0.0023605
-0.00320598
-0.00229679
0.00237499
0.00397846
-0.0114676
0.0661352
-0.0586461
0.0761799
-9.04134e-05
0.0279028
0.0093115
-0.00636722
-0.0308471
0.0586012
-0.000688393
-0.0579128
-0.0528826
0.113665
-0.0284242
0.0597135
0.0201022
-0.0513915
-0.0157552
-0.0255158
0.017002
0.0242691
0.00318702
0.00371114
0.000817054
-0.00771522
-0.0340752
-0.0380986
0.0993214
-0.0271476
0.0440769
-0.0358077
-0.000180002
-0.00808921
-0.050959
0.115352
-0.0501535
-0.0142392
-0.00144811
0.0017373
-0.000161159
-0.000128026
-0.000864895
0.021733
-0.00456573
-0.0163023
0.00292423
0.00386926
6.71443e-05
-0.00686063
-0.000259047
-3.72708e-05
-2.27633e-05
0.000319081
3.65503e-05
4.78699e-05
-0.000343467
-0.00881104
0.0226752
0.0702729
-0.0841371
0.0804769
-0.0800501
-0.000426754
0.000310779
-0.00035242
4.16405e-05
-0.0128405
0.000952533
0.00226425
-0.00136616
-0.00185062
-0.00805571
-0.00526851
0.00564537
0.00767885
-0.0557663
0.0273421
0.000237909
0.000281933
-0.000804332
0.000284491
0.0339828
0.0544782
-0.0346012
-0.0538599
0.012307
0.158585
-0.179562
0.00867027
0.0583237
0.0633858
-0.0619959
0.00197637
-0.0132538
-0.00177019
0.0130476
-0.0334049
-0.0301103
0.0635152
0.0311192
-0.0645241
-0.0543165
-0.0445817
-0.0654482
0.164346
0.0501407
-0.0561492
0.00600848
-0.0726491
0.134502
-0.0710498
0.0330051
-0.0302273
0.0854741
-0.00381369
-0.0686863
-0.0129742
0.070247
-0.0708121
0.0111158
-0.0105508
-3.90995e-05
-0.00615081
0.00736864
-0.00117873
0.00183898
-0.00539924
0.00658036
-0.00302009
-0.000216201
0.000158125
0.000726505
-0.000668429
0.0223047
0.0230068
-0.0339204
-0.0113911
-0.00523374
-0.00516578
0.00618036
0.00421915
-0.0107552
0.0320178
-0.0429024
0.0216399
0.00103866
-0.00858369
0.0109537
-0.00340871
0.048952
-0.00421048
-0.0447415
0.0380771
0.0356331
-0.126562
0.052852
-0.0978957
0.0599555
0.0760174
0.0329935
-0.09977
-0.0468446
0.107962
-0.0371838
-0.0239334
0.00168866
0.00894354
-0.0123283
0.00169612
0.0279962
-0.00299576
-0.0250005
-0.0305219
0.0436327
-0.00363319
0.0200762
-0.0315835
0.00107661
-0.00011483
0.00101286
-0.00197464
0.0117627
-0.0384704
-0.000990441
0.000202471
0.000383546
0.000404424
0.00270409
-0.000312318
0.00100286
-0.00339463
-0.000967044
-0.00221285
-0.0780762
-0.0130485
0.0014341
-0.0118559
0.0234703
0.0204348
-0.0906323
0.0203931
0.0498044
-0.00320737
0.0580868
-0.0820839
0.0272044
0.00101711
-0.000686168
0.000778237
-0.00110918
0.0790228
0.0126161
0.00218935
-0.0938283
-0.00076297
-0.00078461
0.00183361
-0.000286031
0.00499005
-0.000863678
-0.0696781
0.0655518
0.0064935
-0.000947891
-0.0048445
-0.000701104
0.00639203
0.00446963
-0.00355333
-0.00730832
-0.110639
0.0966458
-0.0876644
0.101658
-0.054796
0.10979
-0.0549938
0.00228881
-0.044141
0.00910756
0.0327446
0.00361097
-0.00356815
0.000786095
-0.000828906
0.0493665
-0.00306816
0.00140047
-0.129702
0.00284637
0.0739733
-0.0335249
3.35129e-05
0.00133519
0.0308586
-0.025006
-0.00718776
0.078177
-0.0307717
0.0342117
0.00404628
-0.00499745
0.000181956
0.000769218
0.0337094
0.0233455
-0.0745309
0.017476
-5.77086e-05
-0.000146149
0.000195815
8.04283e-06
-0.000412857
0.0015103
0.00529458
0.000184487
-0.00789661
0.00629879
0.0056441
0.074618
0.040766
-0.0370618
-0.0783221
-0.131616
0.140876
-0.00836407
-0.000895976
0.0315645
-0.0323737
0.000809234
-0.0361707
-2.5582e-05
0.000330839
-0.00309141
-0.00223688
0.0147921
0.206621
-0.158931
-0.0624825
0.0291023
-0.0607896
-0.0176453
0.0493326
-0.00309614
0.0392336
-0.000713036
-0.085815
0.0472945
-0.0227881
0.00996284
-0.0380169
0.0476267
0.0463558
-0.0559656
-0.0666923
0.0888671
-0.151571
0.129397
-0.000178968
9.42243e-05
-0.00145402
0.00153876
0.000221344
0.00223848
-0.000645264
-0.00181456
0.0440851
-0.0153705
0.0390701
-0.0677848
-0.00352088
0.000360988
0.00333307
-0.000173179
-0.0119194
0.0108662
-0.0369636
0.0121282
-0.0463431
0.00590014
-0.00316917
0.0182674
-0.0209984
-0.134795
0.0178758
0.127362
-0.0104428
0.0371186
-0.0248994
-0.0174127
0.0051935
0.034391
-0.0532189
0.00690839
0.00462434
0.00757182
0.0518695
-0.0640657
0.0247414
-0.00707386
-0.0249385
0.0072709
-0.0791532
-0.00845788
0.0151164
0.00123039
-0.00105668
4.76354e-05
-0.000908997
0.00204031
0.00163046
-0.00276178
0.0184003
-0.0319479
0.038289
0.0179443
-0.143479
-0.0227028
0.148238
-0.112351
-0.0151196
0.0257685
0.101703
0.0570872
-0.035579
0.0292764
-0.0507847
0.110646
-0.00624204
0.00385466
-0.108258
-0.0169868
-0.0369336
-0.00414045
-0.0160277
0.00785773
0.0123104
-0.00135949
0.000505213
9.27635e-05
0.000761513
0.0152729
-0.0773425
0.0620696
0.108691
-0.00726081
-0.112514
-0.0263231
0.0553927
-0.0460564
0.0398405
-0.122174
0.0147652
0.0675681
-0.00409263
-0.0123563
-0.0270829
0.0435318
0.00373329
0.0493442
0.0840407
-0.131505
-0.00187986
0.0491604
-0.0829347
0.0893372
-0.0555629
-0.096458
0.095568
-0.00666517
0.00755524
0.00186878
0.00428481
-0.0942621
0.0881085
-0.00164802
0.00359437
0.0060129
-0.00795925
0.000209747
-0.000920881
-0.000281787
0.000992921
0.0884647
0.000739833
-0.0175026
-0.0717019
-0.000720301
0.000780792
-0.000241212
0.000180721
0.000908101
0.00329809
-0.00233178
-0.00187441
-0.00183355