/*--------------------------------*- C++ -*----------------------------------*\
| =========                 |                                                 |
| \\      /  F ield         | OpenFOAM: The Open Source CFD Toolbox           |
|  \\    /   O peration     | Version:  2506                                  |
|   \\  /    A nd           | Website:  www.openfoam.com                      |
|    \\/     M anipulation  |                                                 |
\*---------------------------------------------------------------------------*/
FoamFile
{
    version     2.0;
    format      ascii;
    arch        "LSB;label=32;scalar=64";
    class       volVectorField;
    location    "0.0440925";
    object      U;
}
// * * * * * * * * * * * * * * * * * * * * * * * * * * * * * * * * * * * * * //

dimensions      [0 1 -1 0 0 0 0];

internalField   nonuniform List<vector> 
47425
(
(10.1443 0.116317 -0.0295864)
(10.0203 -0.0982174 0.0213783)
(10.061 -0.0388698 -0.00226429)
(11.309 -0.507476 -0.189464)
(12.2395 0.635883 0.671417)
(10.126 -0.00723911 0.0114113)
(12.1481 0.460396 0.636383)
(10.1038 -0.0085905 -0.000722902)
(10.0066 0.00883083 0.00415446)
(3.51533 5.95361 -0.657248)
(10.073 -0.00632155 -0.0066676)
(9.92437 0.0930801 0.0178525)
(11.9695 0.460487 0.193003)
(10.0655 -0.0263287 0.00234232)
(10.822 0.415075 -0.123773)
(10.02 -0.179479 -0.0306406)
(10.0789 -0.0317922 0.00694587)
(8.69814 -0.461534 -1.38968)
(8.56968 1.18176 -4.81239)
(13.1749 -0.4926 -0.960958)
(10.7765 -0.684109 -0.519038)
(9.80227 -0.0658722 0.00831414)
(9.97663 0.0541847 0.00676354)
(10.0468 0.00651604 0.0235755)
(9.91748 -0.116706 0.00336475)
(9.98052 0.0613768 -0.0151142)
(9.99109 0.0298669 0.0188813)
(11.3246 -0.312373 -8.48189)
(10.0114 0.0250899 0.0212453)
(10.0464 0.00534979 -0.0367893)
(9.71858 0.751762 0.110665)
(9.98403 0.0870252 0.000798379)
(10.0033 0.00336319 0.00473031)
(10.0009 -0.00552675 -0.0146136)
(9.94868 0.00111429 -0.0233913)
(9.92044 0.00777839 -0.0120194)
(9.72944 -0.0711299 -0.0291985)
(10.0018 0.0166705 0.00722603)
(10.5467 0.329326 0.0144149)
(10.0028 -0.00137793 -0.0146793)
(9.88176 0.0775855 0.0254195)
(9.25817 0.292581 -0.905714)
(6.95357 -1.56157 -1.20318)
(9.98408 0.0135183 0.00510991)
(-0.0666319 -0.0509369 1.67728)
(10.0407 0.0565075 0.0241456)
(9.97072 -0.0243259 -0.0419808)
(9.99702 0.0367606 0.00210058)
(10.0395 -0.00145116 -0.013703)
(10.0442 0.00292124 -0.0276171)
(2.07784 -0.608082 -5.61732)
(9.07847 0.980554 1.50456)
(10.032 0.00707502 0.00988486)
(6.83509 -5.9514 2.93698)
(10.0226 0.0204587 -0.0221947)
(10.1577 0.0312114 0.0195892)
(10.1392 -0.0871549 0.0306898)
(10.0883 -0.0225008 0.023761)
(12.4781 1.13164 1.50705)
(10.0009 -0.00664946 0.0259956)
(4.94716 -5.85893 2.36138)
(4.91574 -0.0645402 2.57158)
(6.00762 -5.83794 1.34804)
(9.17217 -1.11531 0.0104891)
(10.0073 0.0101324 -0.00681858)
(10.7382 -0.257664 0.0454237)
(10.0023 -0.0216995 -0.0074976)
(10.6536 0.0177309 0.429979)
(8.62236 -6.15932 3.03025)
(9.07364 0.541611 0.377324)
(10.8446 -0.466164 0.17368)
(10.0083 0.0118716 0.0471589)
(10.7927 -0.0345928 -0.00628841)
(10.7123 0.242346 -0.599757)
(5.89138 3.70336 1.28549)
(9.99883 -0.00397423 0.00140803)
(6.49815 -5.52075 2.20614)
(9.99735 -0.00109196 0.0108951)
(8.4084 -5.20433 2.55053)
(11.6672 0.340675 1.68523)
(6.20278 2.90691 1.35251)
(10.2007 0.278602 0.0478795)
(9.21253 0.0798737 -0.210435)
(10.0097 0.0296381 -0.00666141)
(9.89516 -0.00273664 0.0287019)
(10.1581 -0.05503 0.0209027)
(10.5976 -0.204438 -0.00979237)
(10.128 0.0475849 -0.0137831)
(10.7685 0.846803 -1.75257)
(10.7827 -0.133382 2.46499)
(9.80866 0.377879 0.0202259)
(10.6251 -0.0200933 0.00942487)
(10.0501 0.044258 -0.00683098)
(10.0411 -0.036383 0.00256372)
(9.98853 -0.0282694 0.00396378)
(9.99828 -0.00538429 0.00972813)
(10.0363 -0.0177006 -0.0440974)
(10.1856 -0.226589 -0.0221164)
(10.1286 -0.0227217 0.0111)
(9.98092 0.00916582 0.00123087)
(10.0704 0.0234252 -0.0288418)
(8.70524 0.102535 -3.89456)
(10.2435 0.180578 0.0615994)
(5.33821 1.92701 -0.541281)
(10.264 0.0765962 -0.0153511)
(10.3843 -0.732992 0.1589)
(10.0686 0.121226 0.0324574)
(10.0583 -0.0435879 0.0120895)
(9.59759 -0.0398696 0.0494854)
(9.89886 0.106023 0.0541019)
(-3.29111 -1.90069 -0.0982431)
(10.089 -0.100137 0.0412101)
(10.3278 -0.929516 0.273447)
(10.1656 -0.0131141 0.00840631)
(10.7241 -0.457579 0.15891)
(1.75043 -4.3014 -5.58219)
(10.7233 -0.430048 0.121296)
(4.09354 0.0273261 -4.151)
(10.3205 0.194348 -0.0150381)
(10.9185 0.291741 0.47359)
(10.2387 -0.0334973 0.00418031)
(10.0007 0.00270625 0.00582595)
(10.0059 0.0530087 0.0106956)
(11.627 0.833968 -0.641329)
(10.0833 -0.017004 0.0141641)
(10.601 -0.865954 0.277144)
(10.0841 -0.0754974 -0.00954839)
(10.0069 0.00376774 -0.00694682)
(9.98865 0.00139224 0.0279291)
(9.99678 0.00699282 -0.0195846)
(9.28209 -0.279675 0.364207)
(10.1854 0.424886 -0.0341223)
(4.31395 0.025055 0.753393)
(10.3651 -0.38263 0.0503189)
(9.60362 -0.323598 -0.855211)
(11.827 -0.519681 -0.803438)
(10.9764 0.678194 0.241278)
(10.6303 -0.851022 0.414747)
(10.1467 -0.0740526 0.0279562)
(10.9651 0.143208 -0.0374337)
(9.9937 -0.00957302 0.000481478)
(12.4454 0.0411602 0.120644)
(10.5005 0.0395934 -0.0608542)
(10.4067 -1.20807 0.413762)
(10.1657 0.220425 0.0198389)
(10.0059 0.00525621 0.00536045)
(11.8029 0.0938352 0.914214)
(10.0483 -0.0148181 -0.0275619)
(10.4779 0.0106457 -0.0284513)
(9.97712 -0.0103999 0.00414716)
(10.3216 -1.26055 0.269819)
(2.97173 -0.385084 -6.64356)
(10.0113 0.0170074 -0.00460357)
(5.68657 0.085765 -11.2195)
(9.00516 -1.14098 -0.647525)
(9.98751 0.012673 -0.00649979)
(10.7999 0.404531 -1.58688)
(7.55118 -3.74492 -2.53866)
(9.97552 -0.00114587 0.0204177)
(9.98845 -0.0265035 -0.0148445)
(10.9926 -0.381883 0.155713)
(9.97153 0.0579546 -0.033678)
(10.0195 -0.0074163 0.0600382)
(10.1575 0.274481 0.0343102)
(12.0672 0.108864 -0.333523)
(0.80212 -1.81168 -2.01274)
(9.97744 -0.0260122 -0.00623933)
(6.30551 3.44767 1.22537)
(9.93164 0.00135011 0.0290579)
(12.0935 0.628522 -4.0467)
(7.28762 2.75957 0.833652)
(9.99577 0.00603959 -0.0217205)
(10.0087 0.0254482 -0.00144754)
(9.46229 -0.956352 -0.580359)
(10.1364 -0.0233708 0.0204988)
(9.26999 -3.03842 -1.17157)
(2.74605 0.936568 -7.33574)
(10.0041 0.029969 0.0220256)
(10.0223 0.013187 0.0341532)
(10.0581 -0.0121766 0.0262855)
(2.56412 0.398301 -10.644)
(10.0187 -0.0753441 0.00598241)
(10.015 0.0196175 0.0223234)
(9.97998 0.0197093 0.0165213)
(10.029 -0.050839 -0.00131788)
(10.0385 -0.00846587 -0.00672427)
(10.1999 0.0663042 -0.026773)
(5.65972 -0.429824 -0.425753)
(9.90493 -0.00683814 -0.0434055)
(10.0717 0.0945226 0.0339889)
(10.0013 -0.00698523 0.000502167)
(9.99478 -0.00580716 0.0286106)
(12.0695 -0.0227928 -1.03912)
(9.99805 0.00224523 0.00421674)
(9.97601 0.0100985 0.0295043)
(10.9687 -0.150297 0.0412669)
(10.0033 0.00079712 0.00727237)
(9.97567 -0.00707532 -0.0184434)
(11.1502 -0.127129 0.0762948)
(10.1689 -0.216522 0.0500015)
(9.99717 -0.0372381 0.0246896)
(10.3159 -0.041433 0.00405522)
(9.82738 0.0786497 0.115791)
(10.9031 -0.275486 0.0528646)
(10.1663 -1.50127 -0.809701)
(10.5181 -0.00922343 0.0184336)
(10.019 0.00855414 0.0183061)
(10.898 -0.188051 0.0389317)
(10.0335 0.125711 -0.0143907)
(10.0008 0.014869 -0.00467969)
(10.1579 -0.12076 0.010036)
(10.9558 0.108212 0.00661973)
(10.0074 0.0471649 -0.00379307)
(10.0558 -0.0570915 0.0360183)
(10.5474 -0.0477618 0.019791)
(11.1659 -0.181274 -0.147317)
(10.69 0.0163064 -0.0373404)
(10.4392 0.490328 1.44389)
(8.7594 -1.24921 -0.555886)
(9.9887 -0.0034392 0.0107967)
(11.6048 -0.145475 1.99146)
(10.9503 0.0810413 0.141925)
(9.77247 -1.51089 -0.75704)
(10.6926 0.0513827 0.0259624)
(10.5111 -0.00217622 0.013624)
(11.6666 -0.420506 1.93898)
(10.0469 0.00935903 -0.000395289)
(11.0834 -0.155529 -0.0793072)
(11.2277 0.400727 0.281566)
(11.7825 0.500221 -0.234591)
(10.6928 0.00446456 -0.0590189)
(9.98584 -0.028291 -0.0162341)
(10.3037 -0.10546 -0.00898128)
(10.0015 -0.00275399 0.000537361)
(9.89184 0.0107382 0.00500676)
(9.94463 0.182059 -0.027718)
(11.4898 0.468757 1.76877)
(9.9518 0.0200071 -0.00880747)
(11.8095 0.455841 1.57324)
(9.83488 -0.00402595 0.021131)
(9.90351 -0.00408078 0.0332305)
(10.0138 0.00470756 -0.0126587)
(10.0218 -0.0222968 0.0194713)
(11.7824 0.426988 -0.00708342)
(10.4513 0.352576 0.0693215)
(10.006 -0.00493047 0.0130028)
(10.2154 -0.0322312 0.0137067)
(10.005 -0.00643731 0.00993637)
(10.0099 -0.00547529 -0.0123467)
(9.93338 0.00196942 -0.010207)
(10.0052 0.0332565 0.00502546)
(11.6434 -0.00416109 1.7586)
(9.93495 0.0023946 -0.0236099)
(10.003 0.00365051 0.00650857)
(9.95414 -0.0342093 0.00419568)
(9.93571 -0.0123295 0.0297751)
(9.86053 0.114906 0.0212662)
(9.81785 -0.0167404 -0.00767446)
(10.482 -0.571286 0.154623)
(10.0111 0.00240123 -0.00634319)
(9.78794 -0.00500228 -0.00942506)
(9.99404 0.0081141 -0.00414872)
(10.1987 0.081101 -0.0178522)
(10.17 0.0281421 0.0191475)
(11.553 0.268439 0.69428)
(9.96949 -0.40182 -0.058562)
(9.97721 0.0221849 -0.0292988)
(11.6311 0.270825 0.538865)
(9.9819 -0.00869997 -0.0185002)
(10.2181 0.0773911 -0.0303591)
(10.1784 0.0755249 -0.00103928)
(11.8629 0.570781 1.25124)
(11.3206 0.590773 1.47089)
(10.1991 -0.117838 0.00483682)
(11.713 0.281303 1.60522)
(10.0907 0.0142611 0.0363453)
(11.7819 0.430815 1.43441)
(6.80756 3.28123 2.44801)
(11.2819 0.484545 1.55617)
(5.85163 1.22251 -4.9656)
(3.95088 -5.66651 2.19763)
(10.1634 0.109187 -0.0372448)
(3.71261 -6.07798 1.50289)
(9.9144 -0.00317858 -0.0232077)
(9.99938 -0.0119801 -0.0188123)
(11.1557 -0.134254 0.0955934)
(9.93007 -0.0112608 -0.00179021)
(9.99947 -0.0484613 0.00151173)
(9.93461 -0.130868 0.0103997)
(10.7126 -0.634318 0.0500455)
(1.40923 1.75495 -3.3093)
(9.20077 0.817549 0.134824)
(10.0029 -0.00150903 -0.00212544)
(9.95942 0.0295247 0.0206683)
(10.0397 -0.058631 -0.00741088)
(10.5541 0.275831 0.456641)
(11.8458 0.529316 0.156021)
(10.228 -0.603457 0.190067)
(10.0857 -0.136103 -0.0041058)
(11.7074 -0.0428114 0.373295)
(9.9833 0.134623 0.0156182)
(10.0891 0.0156613 0.0669126)
(9.994 -0.0326962 -0.00998255)
(10.0412 -0.0668055 -0.00315634)
(11.5211 3.92285 -0.11331)
(6.71898 1.81241 0.409645)
(1.47053 1.2028 -6.05521)
(9.93922 -0.000117536 -0.0190477)
(10.0667 -0.0785135 0.000965866)
(10.0574 -0.596761 0.0479587)
(10.1544 -0.513507 -0.145929)
(1.18612 -0.70476 -5.62122)
(9.99792 -0.0274661 -0.0442192)
(9.98229 -0.0271757 -0.0425987)
(10.8018 2.589 1.50951)
(10.0933 -0.106233 0.0159294)
(9.89414 0.0336109 -0.00958169)
(9.82126 0.0286089 0.00217978)
(9.93938 -0.00141524 0.0110814)
(13.2727 1.79164 -0.503945)
(11.0834 2.29285 1.40156)
(9.99344 0.15715 0.0455522)
(10.1409 0.124217 -0.056415)
(10.0085 -0.0121309 -0.0661881)
(10.1671 -0.0282519 0.00587787)
(10.0405 0.0216006 -0.0157716)
(10.014 0.210491 -0.0223153)
(10.0621 0.0770952 0.00501854)
(10.0441 -0.00923327 -0.00880022)
(10.0152 -0.0210002 -0.0212569)
(11.2222 0.0592527 0.278067)
(11.1937 -0.896731 0.624775)
(10.4296 -0.72961 -1.23414)
(9.98707 0.0237322 0.00610748)
(9.96599 -0.00347293 0.00790601)
(9.97182 0.0245548 0.0496352)
(11.0841 -0.307678 0.646638)
(9.92089 0.149036 -0.0247531)
(10.0677 -0.0175617 0.00544126)
(10.0007 -0.0268601 -0.00959981)
(10.0454 0.248206 0.035896)
(10.0537 0.272168 0.0361742)
(10.0806 0.0331614 0.0053613)
(9.89596 0.258024 -0.0225638)
(10.0215 -0.00321507 0.00737877)
(9.95705 0.00822274 -0.0310114)
(10.081 -0.0259137 0.0233146)
(9.65194 0.383935 -0.133034)
(9.98734 0.0184638 -0.0236257)
(10.0033 -0.0191025 -0.012427)
(10.028 0.236284 0.0279386)
(10.3969 -0.417518 -0.0257533)
(10.0922 0.228142 0.0263577)
(9.93129 0.242043 0.0111898)
(10.0242 0.190609 0.0359295)
(11.2292 -1.19496 -0.0338529)
(9.96288 0.00389197 -0.0172599)
(9.28541 0.206572 0.157396)
(9.95484 0.189729 0.0204354)
(10.0047 0.0263998 -0.0045968)
(9.82067 0.240613 2.08618)
(11.2204 -0.491409 -0.506562)
(10.0537 -0.0102882 -0.00850397)
(9.97891 0.00186265 -0.02608)
(10.3693 -0.356591 0.0767174)
(10.3984 0.453167 -0.0242751)
(9.84893 -0.00272188 -0.0011508)
(10.0145 -0.00423572 0.0024314)
(10.0714 -0.127302 0.0012094)
(10.1881 0.686716 -0.112244)
(9.88087 -0.00676212 -0.00941016)
(-0.290796 0.657032 0.352002)
(10.54 -0.0590985 0.0417743)
(10.0678 0.91247 -0.0801154)
(9.97949 -0.00236157 0.00751042)
(10.061 0.802688 -0.0595926)
(10.1079 -0.296851 -0.955158)
(9.99037 -0.0242764 0.0107332)
(10.0036 0.00561977 0.00389461)
(9.7728 -0.0586311 -0.0176443)
(10.012 0.00170495 0.00477042)
(10.0404 0.813307 -0.114373)
(10.1183 -0.0512349 -0.0256902)
(10.01 0.0227838 -0.00163075)
(9.96964 -0.0352647 0.0100672)
(10.0033 0.0186944 0.00422473)
(10.008 0.00618255 0.0111697)
(10.1643 0.187472 0.0519709)
(10.0069 -0.00261787 0.00470411)
(9.99629 -0.00500142 0.0131684)
(10.4572 0.873533 -0.290013)
(10.2979 1.07794 -0.335067)
(9.99065 0.0223165 0.0199841)
(10.5224 -0.411342 0.0777356)
(9.95565 -0.0411585 0.0131419)
(10.3829 0.813942 -0.261578)
(9.98024 -0.0464197 0.0415719)
(9.92925 0.022509 0.0105301)
(12.0942 -0.0739633 -0.62595)
(9.99336 0.0113537 -0.0020451)
(10.3938 -0.830348 1.63247)
(10.0074 -0.0165175 -0.0173573)
(11.0124 0.152273 -3.20463)
(10.0041 -0.0103728 0.000576918)
(10.5469 0.130795 0.00120945)
(9.95782 -0.00352139 -0.0268838)
(10.0185 -0.0079216 -0.0268338)
(9.83574 0.00292582 0.00726001)
(10.0624 0.00104902 0.0199913)
(9.99586 0.00435814 -0.0453187)
(10.2866 0.954033 -0.261973)
(1.8499 -2.05632 2.03174)
(2.10016 -0.603096 -2.40506)
(10.0445 0.0362473 0.0199493)
(10.3276 1.49741 -0.799555)
(10.6393 0.709405 -0.285524)
(10.7272 0.66504 -0.281109)
(9.9835 -0.0150916 0.00523116)
(9.98346 -0.00483977 -0.0082718)
(9.99531 0.00072636 0.00856856)
(9.96011 -0.000629522 -0.00375339)
(9.95637 -0.0524367 0.0177002)
(10.1462 -0.192213 -0.0224443)
(10.7323 0.596365 -0.192187)
(9.98784 -0.0028709 0.024384)
(10.046 -0.00107845 0.0140175)
(11.1691 -1.30558 0.507753)
(11.3761 0.541216 -0.187515)
(11.0196 0.537004 -0.0981001)
(8.07149 -1.3199 -4.8617)
(-0.0358615 5.42938 0.773883)
(10.4232 -0.273036 0.0525041)
(7.424 -0.987286 -5.3748)
(-0.0528146 5.17357 1.12583)
(9.93286 -0.159791 0.00935013)
(-0.156574 5.40039 0.961366)
(8.80691 -1.78418 1.48245)
(10.0311 0.0310614 0.00233678)
(10.9536 0.637863 -0.297561)
(10.9045 0.68573 -0.32153)
(11.1696 0.616018 -0.302429)
(-1.30276 4.63866 1.33678)
(10.0801 0.124094 -0.000570329)
(9.99222 0.0339197 -0.0186492)
(10.0146 -0.037368 -0.0154384)
(11.2335 0.660439 -0.406681)
(11.1161 0.690724 -0.460142)
(10.0375 -0.000127818 0.0164019)
(10.076 0.0806065 -0.00134065)
(9.85649 3.70887 3.17706)
(-1.21627 4.52833 1.30818)
(12.7328 -0.374767 -2.91999)
(10.0081 -0.0102099 0.0069772)
(8.7059 -0.696086 -3.13836)
(10.042 -0.00639444 1.03294)
(9.97262 -0.00867459 -0.0131143)
(10.859 0.3668 -0.0368758)
(11.8005 0.388929 0.224653)
(10.8452 0.272508 -0.0289316)
(9.99899 -0.00861252 0.00406488)
(9.99918 -0.00417771 0.00706954)
(9.98284 -0.00600446 0.000866913)
(10.4586 0.318689 0.0155413)
(9.99928 0.0021444 -0.000130548)
(9.98705 -0.004103 0.0217827)
(10.1325 0.0927332 -0.0388706)
(9.95146 -0.00814508 0.0164947)
(10.9934 0.110685 -0.00888438)
(10.034 -0.00924254 -0.00898005)
(10.0118 0.0107859 0.0238044)
(10.003 -0.00999923 -0.000478381)
(10.0066 -0.00620546 0.0081947)
(9.937 -0.0259306 0.0204562)
(10.3879 0.285798 0.0078992)
(10.1806 0.0393378 -0.0179908)
(10.0275 -0.00188547 0.0473955)
(10.9205 0.125133 -0.0229126)
(9.27088 4.44988 2.66099)
(9.95481 -0.00808364 0.020151)
(11.8803 1.63592 -1.28308)
(9.99963 -0.010964 -0.00207793)
(10.7253 -0.231902 -0.0395183)
(6.6999 -0.756491 1.36177)
(9.76297 1.40808 -0.534712)
(9.97459 0.0545619 -0.0313935)
(9.83857 1.49118 -0.5961)
(10.0092 0.0230778 -0.0250836)
(10.0761 0.0295744 0.0518811)
(10.0532 1.28798 -0.818856)
(9.98094 -0.00883049 0.0134454)
(10.5758 -0.19261 0.0552792)
(9.93126 1.16839 -0.565068)
(10.2223 -0.0538149 0.0457936)
(10.4894 0.000814735 -0.253499)
(8.1482 0.286804 -3.99173)
(10.029 -0.00418413 -0.0247119)
(9.66112 1.8716 -0.528666)
(10.0452 0.0208749 0.0447365)
(9.06725 2.01881 -0.925874)
(10.0502 -0.0735509 0.0175768)
(10.0028 -0.0446516 -0.0182982)
(9.98613 0.0219445 0.000919262)
(9.97412 0.0165924 -0.00632841)
(10.9333 0.848164 0.843039)
(9.96947 0.00670515 -0.0211615)
(9.97678 0.0210697 0.000476651)
(10.0512 -0.0171946 0.00369941)
(9.99944 0.0246269 -0.0151075)
(11.1026 0.477972 0.0119575)
(10.1144 0.00328662 0.00446871)
(10.0765 0.00361543 -0.00276257)
(8.64713 0.241173 -0.54089)
(9.96268 -0.0186591 0.0585142)
(9.88675 0.0577214 -0.0104639)
(10.0466 -0.111475 0.0277538)
(10.0344 -0.0527697 -0.0336736)
(10.126 -0.000265717 0.0286586)
(9.98988 0.004238 0.00518016)
(10.1327 0.0354182 -0.0168546)
(10.3172 1.33983 -0.957241)
(10.007 0.0100267 0.00619877)
(9.98881 0.00499578 0.00210982)
(2.92719 -0.450342 -5.61729)
(10.0471 -0.0138248 0.0204043)
(10.0261 0.0252069 0.00771001)
(10.0579 0.122804 -0.0216169)
(10.0048 0.0112951 0.00549811)
(12.6188 1.24624 -0.29538)
(12.722 0.89194 -0.00080481)
(9.95168 -0.036141 -0.0245114)
(9.96471 -0.0673768 0.0237708)
(9.91683 0.00256455 0.0199874)
(11.2575 -0.225375 1.15127)
(10.0241 0.0566821 -0.0267223)
(12.6628 1.3921 -0.290637)
(9.99856 0.00520206 -0.00329797)
(-0.524705 -1.69313 3.061)
(8.15128 -0.467649 -0.605771)
(9.28941 -0.834762 1.9965)
(10.0527 -0.0130894 0.00614991)
(12.61 1.29313 -0.214919)
(10.0716 0.0238899 -0.0326573)
(10.0799 0.104972 -0.00167307)
(10.0325 0.0148953 -0.0564504)
(9.86039 0.0365782 0.102679)
(10.0279 -0.0128403 -0.0149941)
(10.0656 0.0272886 -0.017073)
(7.51568 -0.880774 0.158901)
(10.0047 0.0112179 -0.00373544)
(9.96481 0.0124276 0.00641446)
(9.97979 -0.028829 0.0133033)
(12.5348 1.25933 -0.242348)
(10.0524 -0.000580488 0.0379999)
(10.032 0.0111935 0.0102704)
(12.3541 1.28764 -0.322992)
(12.2521 0.620883 0.0459856)
(10.0353 -0.00644431 0.0193983)
(10.0161 -0.00637888 -0.00202502)
(-0.35068 1.92877 1.01587)
(10.0297 0.0183658 -0.0184841)
(10.5133 -0.334773 0.162063)
(9.9563 0.0160994 0.0344051)
(10.0657 0.0285246 0.0316992)
(10.0461 -0.00835781 0.0134747)
(11.9223 0.753836 -0.152482)
(11.1083 -0.126157 1.32849)
(9.32122 0.65296 0.878291)
(9.93839 0.04289 0.0820967)
(10.0058 -0.0139116 0.0273603)
(9.99788 0.0216507 -0.0143448)
(12.601 -0.407319 0.713453)
(9.28862 0.126736 -0.380154)
(9.8778 0.0392701 -0.058193)
(-0.225099 1.87072 0.715056)
(9.97856 -0.0232941 -0.013354)
(10.0076 0.00997344 0.0229754)
(-1.12642 1.72526 1.07658)
(11.965 1.9933 -1.11531)
(9.83906 0.120735 0.0299152)
(0.0371281 1.95161 0.584411)
(-0.019969 1.97455 0.958708)
(10.0164 0.0218596 0.00533037)
(9.99739 -0.00351143 0.00263113)
(10.0526 -0.0176929 -0.0223522)
(9.69062 -0.392815 0.0702546)
(9.98978 0.0169684 0.00393936)
(9.95356 0.01407 0.00286289)
(11.6116 1.45878 0.426661)
(10.0577 0.246693 0.0790512)
(9.96297 0.0604782 -0.00648836)
(10.0727 0.00688123 0.00956962)
(12.6062 0.674536 0.0403356)
(11.8423 1.07496 -0.15929)
(9.97488 -0.00514145 -0.00317663)
(10.3284 0.360395 -0.061638)
(-4.6374 -2.57641 -0.548772)
(1.16226 -1.81413 -1.03274)
(10.6575 0.335235 -0.188893)
(9.9586 -0.00164851 0.00452319)
(10.3424 -0.180062 0.176062)
(10.8462 -0.140278 -0.696161)
(9.90009 0.00752413 -0.03746)
(9.90041 0.0108885 -0.0373737)
(10.0326 0.00525212 0.0141786)
(10.2932 0.179117 -0.015928)
(9.97984 -0.0113319 0.00693873)
(10.7112 0.156718 0.242304)
(10.0162 -0.00538624 0.0217923)
(12.7963 0.961499 -0.619537)
(10.3049 1.52918 -1.03718)
(10.6092 0.318297 -0.115439)
(12.8368 1.14337 -0.929496)
(10.1152 0.069996 -0.0406468)
(10.003 -0.0146791 -0.041449)
(10.5692 0.631834 0.151419)
(10.18 -0.0718518 0.0312606)
(10.009 -0.006344 -0.0159191)
(10.0098 0.00554988 -0.00201162)
(10.8208 0.793945 -0.453942)
(7.96825 -0.719948 -1.32999)
(10.0222 -0.00178989 0.0124907)
(10.7268 0.22488 0.0714235)
(9.98922 0.0943275 0.0341476)
(12.292 -5.47671 -1.78088)
(10.6096 -0.76956 0.965937)
(11.4513 -0.220447 0.773876)
(6.22227 1.20504 0.353224)
(6.08093 1.18721 0.206184)
(10.0538 -0.0317887 0.0143251)
(9.89109 0.101627 0.00440289)
(5.11033 1.03518 -0.16692)
(10.0475 -0.00173189 -0.00819465)
(9.87834 -1.74241 -3.2963)
(7.03886 0.49493 1.774)
(9.9854 8.9359e-05 -0.00277001)
(9.89927 1.40758 0.763435)
(10.0262 -0.0671306 0.00385791)
(10.0124 0.0138282 0.0181431)
(10.0243 -0.00532646 0.00577795)
(12.9586 0.400665 -0.0917481)
(9.97717 0.0103741 -0.00471374)
(9.98501 0.00445251 -0.000887093)
(10.0201 -0.019859 0.00734461)
(9.91591 -0.00858853 -0.0600548)
(10.0177 0.00656607 0.00421015)
(10.0568 -0.0192226 -0.00271391)
(10.0226 -0.0178019 0.0512644)
(10.0037 0.0227057 -0.0135464)
(11.1921 0.86449 0.60763)
(10.1514 0.775862 -3.26835)
(13.3304 3.14179 1.275)
(10.7711 0.382543 0.0253153)
(9.82279 1.28964 1.40165)
(10.0051 0.028545 -0.006399)
(9.43794 -0.920423 0.13323)
(10.0582 0.0199749 0.0154233)
(10.0002 -0.00516742 -0.00647162)
(10.0031 -0.000434927 -0.00651446)
(9.99974 0.000235185 -0.00640605)
(9.98787 0.0130242 0.00627436)
(9.09883 0.299841 -0.860893)
(11.434 0.495285 0.23867)
(9.98436 0.0107499 -0.00388289)
(10.2327 -0.485946 0.151815)
(11.6209 1.31671 1.89934)
(10.0162 0.00864376 -0.00565824)
(4.65039 -0.504114 2.3355)
(12.9095 -1.00708 -2.71521)
(9.93657 0.0354156 -0.00232673)
(9.44284 -0.563408 0.0682846)
(10.4473 0.0368343 -0.0229763)
(10.0354 -0.0104191 -0.034455)
(5.08836 0.889088 1.85189)
(9.98643 -0.00356459 0.00840397)
(8.49788 -4.02617 0.987578)
(10.0803 -0.00311046 0.00416882)
(11.4264 -0.324392 0.995625)
(11.8583 0.509708 -0.0320032)
(9.99066 -0.0264022 -0.0161961)
(9.97695 0.0465542 -0.000478758)
(10.2726 0.503546 0.0576288)
(8.54344 -0.546243 -2.18278)
(9.95864 -0.0390019 0.0165747)
(10.0246 0.000671806 0.0363084)
(10.1587 0.000885354 0.0100958)
(11.7722 -0.0736728 0.665238)
(10.0019 0.00417133 0.0023052)
(12.072 0.525755 0.264923)
(10.2919 -0.0173493 0.00628313)
(1.39867 -0.453393 0.644434)
(11.8033 0.443785 0.0647772)
(10.2261 -0.0089314 0.00655942)
(11.9025 0.484364 0.180939)
(10.0017 -0.00454397 -0.00191274)
(10.1081 -0.0472461 -0.0288183)
(10.5281 0.337305 0.0175489)
(10.2672 -0.0305668 0.00397577)
(12.0926 0.585572 0.0971604)
(9.99654 -0.016968 0.00765069)
(10.0168 -0.213835 0.0402377)
(11.9447 0.521314 0.0198776)
(10.0064 0.00898326 0.000474745)
(10.2999 -0.0404257 0.00225828)
(10.004 0.00474375 0.000672564)
(10.0236 0.0141017 0.00117405)
(6.84992 0.375594 -4.99008)
(6.66518 -0.12105 -5.55458)
(9.87164 0.0573882 0.413816)
(8.75935 0.339014 -4.05865)
(10.0125 0.0111592 0.00470124)
(9.98147 -0.00252119 0.000552699)
(10.7114 0.626824 -0.220597)
(10.2958 -0.131007 0.0346438)
(9.21768 0.118147 0.487303)
(10.0253 0.00717691 0.00114498)
(10.0446 0.0286386 -0.0188587)
(9.95008 -0.0200199 0.0286453)
(9.97184 0.0490462 -0.0308132)
(5.25962 0.216852 -6.1914)
(2.30779 -1.27487 0.28449)
(9.95432 -0.012748 0.0227068)
(10.0212 0.0652845 0.0101328)
(9.93723 -0.0519252 -0.0165622)
(9.93957 0.0196895 -0.0150928)
(10.1106 -0.102234 0.0248724)
(9.95053 -0.0167444 0.0124919)
(11.0732 -0.151519 0.0893714)
(11.6155 -1.4384 2.04958)
(10.0689 -0.0154254 0.00957729)
(10.0581 0.0136964 -0.0244703)
(9.95276 -0.023066 0.0133209)
(10.0071 0.0154198 0.0183583)
(9.79054 0.205884 0.0355112)
(9.9664 -0.0262641 0.000615354)
(10.5041 -0.185613 0.0181805)
(9.96818 -0.00892026 -0.0501099)
(10.0259 -0.0402979 -0.0277601)
(10.0574 -0.000366151 0.0134785)
(9.2331 -0.829594 -1.17976)
(5.13369 0.719056 -4.64112)
(10.0001 -0.0560391 0.00394821)
(-0.366701 -1.73308 0.77645)
(10.0903 -2.6614 1.366)
(12.8535 -1.36429 -0.972971)
(-0.213255 -1.83936 0.556303)
(10.1675 0.0415824 0.0166359)
(6.33484 -0.231798 0.368864)
(10.3856 -0.465945 -2.47685)
(11.0135 -1.37364 0.43511)
(5.67375 0.293866 -3.63777)
(-0.474003 1.84857 1.73102)
(1.45458 0.552718 -3.3669)
(11.2789 -0.0255427 0.445854)
(10.6396 -0.0506721 -0.0140394)
(10.8023 -0.0230873 1.02255)
(9.94785 0.00269836 -0.0263491)
(3.78767 -0.244052 -0.148138)
(10.6844 -0.0210839 -0.322274)
(10.5574 -0.023841 0.0211072)
(10.0091 0.000347 0.00672884)
(10.023 0.0011765 -0.0111873)
(11.2583 -0.254915 0.991763)
(9.90037 0.117847 0.0280204)
(10.1086 -0.0213398 0.0239359)
(9.98201 0.0593507 -0.0147727)
(-1.86187 1.0941 0.49095)
(8.10379 0.277278 -2.39168)
(10.0289 0.000236204 -0.00641837)
(9.98537 -0.00529139 0.00357256)
(5.06316 0.276453 -2.25308)
(5.94717 0.142546 -2.92184)
(10.9453 -0.135284 -1.9697)
(-3.38424 -3.81591 -1.18538)
(3.36601 0.882626 1.16182)
(4.11709 0.00479087 -3.72987)
(3.83898 -0.07014 -4.60022)
(10.0081 -0.0031277 0.00683462)
(9.75153 -0.00612975 -0.000527113)
(9.46901 -0.0291324 0.122294)
(9.99327 -0.0539718 0.0294564)
(10.425 0.0432656 -0.0528605)
(-0.513881 1.93608 0.98349)
(10.806 -0.10633 -0.251634)
(10.4712 0.0366759 -0.0504661)
(10.3831 0.0396783 -0.0474584)
(10.0716 0.0164913 0.0270763)
(-0.368839 1.88552 1.91059)
(-0.3637 2.17326 1.90446)
(10.0232 -0.00640959 -0.0280616)
(10.4487 -0.0015824 -0.0515897)
(9.93333 0.0605013 0.0302838)
(9.97548 0.00782852 -0.0168452)
(10.4106 0.0175465 -0.0393912)
(10.0064 0.0198237 -0.0219369)
(9.67921 -0.0456608 0.000395278)
(10.0428 0.0207541 -0.0513043)
(9.96797 -0.000733299 -0.00546414)
(6.87713 -0.665632 -3.00037)
(10.0049 0.00627744 -0.00679089)
(9.98002 0.030672 0.0443641)
(10.0372 -0.0558212 -0.0117465)
(9.90509 0.0412575 -0.0182607)
(9.92817 0.0222935 -0.0217851)
(4.20731 -0.505512 -2.25511)
(12.4711 -1.33819 -0.27982)
(10.0173 -0.0217153 -0.0192238)
(10.6617 0.403244 -0.201987)
(10.054 0.0144772 -0.0136088)
(9.79071 -0.351282 0.144609)
(9.76549 -0.424733 0.214733)
(11.9587 -0.0737973 -0.0496618)
(9.95518 0.00145149 -0.00544327)
(-0.514816 -1.13663 2.54387)
(12.0574 -0.136624 -0.0601254)
(10.4246 0.0696494 0.0188429)
(10.7271 0.309726 -0.0431063)
(8.10178 0.317828 -3.30609)
(12.5544 2.49182 0.995215)
(10.0154 -0.0362585 0.00199727)
(10.0219 -0.0309118 -0.00046209)
(11.9597 1.49378 2.02407)
(10.0598 0.00738802 -0.0239004)
(10.0067 0.0279448 -0.00420282)
(11.1404 0.49747 0.36549)
(10.011 -0.0339609 -0.00515384)
(9.98362 -0.00238254 0.0019136)
(-1.07648 0.217933 2.92117)
(12.4734 0.0930653 0.209086)
(11.7894 3.12441 0.0411948)
(10.0024 0.000680212 0.0050729)
(7.63684 0.528621 -2.55392)
(9.94191 0.00785224 -0.0160008)
(11.7964 -0.514139 -0.223091)
(9.61231 -0.416909 0.319695)
(12.0036 -0.0872942 -0.0210384)
(9.9509 0.000226129 -0.00949113)
(9.42329 -0.451876 0.282203)
(-0.642362 0.630404 3.16383)
(12.0024 1.59189 2.48648)
(12.2243 -0.381796 -0.814375)
(-1.13131 1.84717 2.07973)
(11.9456 0.353252 0.162181)
(10.365 0.151993 0.0591024)
(9.90187 0.00775906 -0.000675873)
(12.0321 0.416711 -0.187444)
(9.98998 -0.0136885 -0.00425458)
(12.1238 -0.0959662 0.148653)
(-0.196537 -1.07911 1.63008)
(10.0022 -0.0178317 -0.00281083)
(12.5724 0.0424259 -1.1753)
(10.0223 0.0044039 0.0268645)
(10.0104 0.00722596 0.0277101)
(11.3027 -1.9124 1.03614)
(10.0215 0.00289863 0.030928)
(10.0994 0.0826071 -0.0539997)
(8.25877 -5.83821 0.269957)
(9.60269 0.397396 0.0815389)
(10.0221 -0.239071 0.0257308)
(12.4169 -0.82139 0.236303)
(10.457 1.36835 1.4742)
(10.0699 -0.00805384 0.0551903)
(11.8401 -2.4451 -0.657078)
(5.26055 -0.820883 0.015274)
(10.5903 0.0425151 0.0700805)
(9.59226 -0.713857 -0.81124)
(9.99152 0.0672279 -0.00304255)
(10.3587 0.159493 0.0157361)
(10.0289 -0.0121671 0.0381259)
(10.0031 -0.012595 0.0153514)
(2.58522 2.05239 -1.38076)
(1.068 -3.47772 1.68315)
(12.2671 -0.277662 -0.149864)
(9.98723 -1.65625 -0.28215)
(12.0607 -1.65641 -0.136148)
(1.92849 4.87782 1.0221)
(-2.15409 0.441137 0.431856)
(9.82258 -3.56781 4.37759)
(9.98188 -0.0083905 0.00370899)
(10.0052 0.0117682 -0.00710714)
(9.98916 0.0111374 -0.00286306)
(9.89481 -0.0750323 -0.0811246)
(6.03749 0.657249 -2.37717)
(9.70928 -0.541495 0.203046)
(9.0683 -0.602343 1.17358)
(9.98864 0.017436 -0.00669547)
(-1.19293 -1.40378 0.542536)
(12.0753 -0.0869158 0.0138348)
(9.87753 0.208212 -0.126445)
(10.0372 0.0411941 0.0110358)
(10.007 -0.0453371 0.0300571)
(10.0458 0.0501611 0.0104361)
(6.23847 -1.83896 -3.04402)
(10.0051 -0.00211263 -0.00516784)
(6.15069 5.6002 0.160928)
(10.0192 -0.0318096 -0.00105559)
(10.1049 -0.556083 -2.9745)
(9.98888 -0.00376677 -0.00219315)
(10.0015 -0.00702498 -0.00530684)
(10.0165 -0.00883549 0.00367387)
(10.0321 -0.00338719 -0.0029987)
(9.9878 -0.0125133 0.00249088)
(12.8633 0.839322 0.130538)
(12.2286 0.179501 0.650819)
(9.10489 1.38992 2.53784)
(7.19446 4.02174 2.59729)
(9.42903 1.12657 0.547837)
(10.3333 0.513859 -0.0678734)
(11.2295 0.962616 0.0662766)
(6.53242 -0.345354 -2.78496)
(10.468 -0.125763 0.0478849)
(11.8838 -0.0404262 -0.0730046)
(10.3495 -0.706199 0.141153)
(11.8749 0.0231705 -0.0457758)
(8.30664 -0.0706675 4.7412)
(5.4596 -1.09084 0.88561)
(10.4878 -0.25344 0.201723)
(9.99911 -0.00839652 0.00484521)
(9.5434 0.888635 -0.259522)
(10.0081 -0.00514043 0.00855964)
(10.1071 0.00163729 0.00788181)
(13.7604 -2.28297 2.49219)
(12.0982 -0.651432 0.758406)
(-1.56363 2.89431 0.706361)
(10.1638 -0.844442 0.283982)
(11.7244 -0.983934 -0.284263)
(10.3588 -1.09011 -1.05727)
(11.405 -0.0225959 1.26585)
(10.1602 -0.00946365 0.00117138)
(-3.64625 -2.59093 1.28394)
(10.0035 0.000960312 0.00175474)
(10.0499 0.00157054 0.00539412)
(10.3972 -0.0244851 0.596231)
(9.94908 -0.0337875 5.06583)
(10.1704 -0.00843663 0.00873667)
(10.1815 0.551735 -0.361462)
(9.98082 0.00789113 0.016879)
(10.6326 -1.20942 0.635453)
(10.6625 0.0737552 0.939567)
(9.95929 -0.0283146 0.0078275)
(10.9107 -0.399442 -2.92274)
(10.4027 0.341142 -2.62176)
(12.7156 0.358252 1.29679)
(10.5363 0.51396 -0.119294)
(9.61653 0.0946398 0.319509)
(3.11549 0.915346 -3.57246)
(0.543327 2.41955 3.44465)
(5.37367 3.16413 0.874588)
(12.9131 -0.845707 -2.5835)
(5.46498 -0.489111 -0.0869733)
(9.8499 -0.00528303 -0.0952797)
(9.90299 -0.0414015 0.000829515)
(8.48568 1.63053 2.86896)
(9.95112 -0.0109273 0.0147321)
(4.48972 -0.760908 -0.0448781)
(9.8761 -0.0106574 -0.061352)
(9.86842 -0.00985763 -0.0729333)
(-0.709104 0.332877 -0.178339)
(9.66606 -1.22374 0.929913)
(10.8821 -0.400746 0.147569)
(9.98031 0.0172677 0.0221706)
(9.97959 0.023582 0.0181416)
(8.24489 0.302207 -2.73164)
(10.0232 0.0289942 0.0283512)
(9.95712 -0.00482952 -0.021894)
(10.1056 0.832082 1.00903)
(12.1513 -0.734049 -2.7041)
(10.2698 0.306197 0.101417)
(9.88944 0.108475 0.00976232)
(9.90745 -0.0990661 0.00339894)
(9.99536 -0.00339757 -6.12066e-05)
(9.89293 -0.00215344 -0.0210341)