/*--------------------------------*- C++ -*----------------------------------*\
| =========                 |                                                 |
| \\      /  F ield         | OpenFOAM: The Open Source CFD Toolbox           |
|  \\    /   O peration     | Version:  2506                                  |
|   \\  /    A nd           | Website:  www.openfoam.com                      |
|    \\/     M anipulation  |                                                 |
\*---------------------------------------------------------------------------*/
FoamFile
{
    version     2.0;
    format      ascii;
    arch        "LSB;label=32;scalar=64";
    class       volScalarField;
    location    "0.047171";
    object      k;
}
// * * * * * * * * * * * * * * * * * * * * * * * * * * * * * * * * * * * * * //

dimensions      [0 2 -2 0 0 0 0];

internalField   nonuniform List<scalar> 
47425
(
0.323044
0.35342
0.327758
0.328964
0.491034
0.336264
0.447853
0.340668
0.366892
1.18773
0.347451
0.338653
0.383844
0.328211
0.325087
0.345332
0.326427
0.361136
1.10368
0.55064
0.333651
0.329719
0.340315
0.330694
0.330108
0.321971
0.31907
0.866951
0.317431
0.323495
0.337249
0.333183
0.35621
0.323174
0.32376
0.338279
0.328157
0.363371
0.327176
0.33253
0.373109
0.452798
0.783631
0.378409
1.10046
0.365597
0.342296
0.351129
0.325025
0.32225
0.825907
0.619286
0.319951
0.897443
0.379845
0.369486
0.322859
0.321531
0.455356
0.330167
1.00834
0.843109
0.87747
0.347049
0.364465
0.329225
0.343448
0.373713
0.837682
0.339509
0.323921
0.320112
0.324031
0.331901
0.907148
0.368712
0.889689
0.328148
0.886024
0.55265
0.93381
0.331227
0.33187
0.349201
0.324726
0.334239
0.320661
0.320756
0.551816
0.651719
0.333548
0.352437
0.328053
0.374969
0.387253
0.371778
0.324374
0.320419
0.322611
0.369251
0.338836
0.455973
0.33206
0.476472
0.325948
0.372138
0.322972
0.329754
0.345076
0.335725
1.05736
0.334419
0.425165
0.357975
0.347279
0.854705
0.343566
0.669382
0.352556
0.348701
0.330543
0.362711
0.346441
0.365123
0.359778
0.405516
0.33688
0.364891
0.360189
0.326893
0.33336
0.344374
0.532211
0.363001
0.447925
0.363232
0.334236
0.412022
0.327415
0.325741
0.354657
0.383944
0.345572
0.467357
0.346771
0.366227
0.452926
0.342333
0.37146
0.361938
0.467435
0.819792
0.360338
0.834842
0.354981
0.339598
0.36337
0.954287
0.367379
0.345838
0.35481
0.324128
0.323081
0.33136
0.759851
0.881255
0.342045
0.917541
0.34736
0.898068
0.932388
0.363641
0.353999
0.342417
0.364627
0.403435
0.874631
0.317044
0.321891
0.325514
0.87033
0.319243
0.318134
0.327403
0.323715
0.339923
0.327885
0.447861
0.360177
0.318882
0.358015
0.320505
0.448311
0.365302
0.328454
0.335824
0.360544
0.341437
0.347904
0.310833
0.347083
0.367343
0.333974
0.338858
0.358083
0.37787
0.317089
0.334351
0.356062
0.361942
0.319975
0.324615
0.352698
0.322503
0.326512
0.330131
0.318883
0.606934
0.36158
0.360853
0.575108
0.300579
0.566529
0.318694
0.400537
0.552966
0.326628
0.341346
0.369609
0.405185
0.318428
0.335476
0.361855
0.369375
0.374507
0.336705
0.593669
0.351915
0.556721
0.371742
0.344061
0.318105
0.324245
0.332585
0.326114
0.362628
0.324609
0.357817
0.321984
0.325515
0.325568
0.535738
0.330529
0.365697
0.333355
0.322855
0.32893
0.373524
0.324148
0.357652
0.389442
0.352973
0.327346
0.368759
0.394857
0.362247
0.325839
0.39221
0.321617
0.339046
0.331183
0.541246
0.590012
0.322867
0.531925
0.380284
0.532991
0.480105
0.574923
0.570523
1.0787
0.321269
1.01622
0.376698
0.332601
0.318718
0.365079
0.333858
0.373052
0.359416
0.80148
0.344411
0.371308
0.32161
0.324547
0.344369
0.347456
0.323812
0.332558
0.381349
0.35247
0.322734
0.345075
0.321669
0.881621
0.888417
0.849311
0.324907
0.321183
0.32692
0.339843
0.832428
0.335881
0.343521
0.601525
0.360122
0.35465
0.37818
0.333512
0.656272
0.577142
0.333469
0.326593
0.318494
0.352674
0.321808
0.327735
0.321899
0.320706
0.322865
0.320934
0.853329
0.346862
0.326196
0.383909
0.325441
0.842773
0.336215
0.321818
0.325073
0.332428
0.332087
0.321181
0.330375
0.321377
0.324111
0.322474
0.332114
0.327344
0.356836
0.334221
0.329842
0.336754
0.33266
0.334857
0.36492
0.33919
0.329864
0.332915
0.360437
0.379322
0.362816
0.344976
0.337433
0.322954
0.33522
0.3772
0.358518
0.340002
0.333053
0.373087
1.17336
0.321581
0.338877
0.385668
0.336941
0.426642
0.368136
0.364452
0.328528
0.35769
0.33559
0.320731
0.355335
0.360928
0.364524
0.339788
0.330477
0.350053
0.337925
0.335107
0.339294
0.34366
0.323506
0.329608
0.333052
0.331719
0.33667
0.413931
0.321478
0.683571
0.32404
0.84513
0.34958
0.375889
0.367082
0.323557
0.361184
0.320016
0.349071
0.33597
0.638575
0.880297
0.321326
0.354908
0.32486
0.323791
0.33383
0.334096
0.321558
0.365979
0.339001
0.323457
0.325157
0.330192
0.319894
0.457918
0.322805
0.334037
0.523096
0.59568
0.327238
0.660551
0.610131
0.365418
0.599096
0.793732
0.323719
0.322812
0.32433
0.322412
0.818972
0.350518
0.322806
0.325445
0.32825
0.328696
0.335311
0.326295
0.741676
0.799399
0.534694
0.356438
0.423281
0.497417
0.326896
0.331705
0.372473
0.330294
0.355351
0.363128
0.377804
0.32989
0.369614
0.328225
0.324714
0.353299
0.336417
0.33046
0.327874
0.348892
0.35769
0.375631
0.353863
0.324136
0.361268
0.332324
0.777901
0.36625
0.41712
0.345788
0.368441
0.812384
0.352003
0.324076
0.354525
0.350862
0.332701
0.351202
0.365097
0.314887
0.345832
0.320245
0.343767
0.467647
0.319799
0.367997
0.329228
0.380006
0.322997
0.32382
0.32421
0.327421
0.338077
0.345811
0.327715
0.320855
0.326421
0.340229
0.341314
0.352124
0.350292
0.322918
0.329756
0.316084
0.31733
0.329678
0.350179
0.32729
0.353939
0.363318
0.375402
0.803575
0.333787
0.328141
0.347005
0.365738
0.471563
0.475465
0.353489
0.325484
0.356865
0.447398
0.33214
0.485058
0.36241
0.644031
0.367938
0.369563
0.324486
0.475984
0.327347
0.329098
0.336785
0.328415
0.320843
0.318216
1.0362
0.326288
0.376269
0.326468
0.454569
0.322526
0.323747
0.434447
0.423687
0.334653
0.323005
0.296072
0.321486
0.329955
0.321055
0.322709
0.324428
0.395271
0.466615
0.342683
0.324291
0.336878
0.326575
0.548462
0.333726
0.329455
0.265627
0.333439
0.323116
0.365266
0.778925
0.334902
0.226681
0.246168
0.319248
0.347712
0.320578
0.328114
0.36782
0.357954
0.811098
0.331115
0.360614
0.322176
0.470082
0.39053
0.370014
0.332994
0.859485
2.04713
0.327133
0.339497
0.332709
0.33566
0.375009
0.387488
0.331768
0.343049
0.378964
0.313074
0.360824
0.494816
0.360746
0.326672
0.500955
0.353595
0.328031
0.343396
0.350835
0.320887
0.36196
0.385076
0.381838
0.345295
0.329078
0.325076
1.03936
0.339176
0.407119
0.838491
0.810785
0.325594
0.36872
0.778162
0.3627
0.441955
0.786831
0.376803
0.841511
0.323531
0.325553
0.355155
0.525624
0.381556
0.375579
0.320932
0.378266
0.326168
0.332179
0.324869
0.35561
0.34401
0.751357
0.733926
0.355136
0.361886
0.357194
0.338233
0.378384
0.351906
0.352616
0.360622
0.344168
0.344013
0.362397
0.355043
0.322403
0.414055
0.375419
0.852878
0.577839
0.356535
0.33229
0.364244
0.324575
0.86713
0.329621
0.901914
0.363786
0.452688
0.360249
0.339702
0.341083
0.315843
0.378156
0.329442
0.317207
0.398209
0.405509
0.36856
0.409221
0.36282
1.28311
0.360742
0.381065
0.388527
0.363686
0.321793
0.371532
0.33667
0.407226
0.342663
0.336835
0.375254
0.33789
0.343136
0.329488
0.326822
0.501133
0.578807
0.323886
0.462222
0.324502
0.34267
0.321468
0.322478
0.473844
0.315157
0.327445
0.33321
0.323333
0.699079
1.19354
0.335722
0.337649
0.324158
0.351888
0.318087
0.343748
0.347418
0.575877
0.342626
0.32443
0.338165
0.325119
0.328583
0.329591
0.321862
0.330258
0.326149
0.320782
0.349877
0.571375
0.323307
0.264933
0.632393
0.578913
0.249446
0.350563
0.900589
0.380121
0.357455
0.533549
0.303541
0.854763
0.34803
0.321001
0.480594
0.352247
0.58787
0.336607
0.357587
0.322733
0.328763
0.440583
0.362482
0.342429
0.359421
0.492065
0.396187
0.348739
0.378433
0.516239
0.491935
0.550622
0.926602
1.03708
0.652139
0.684755
0.363115
0.366301
0.32629
0.323509
0.356727
0.293396
0.34896
0.351335
0.360869
0.326474
0.297529
0.292205
0.324009
0.392567
0.341604
0.324951
0.377128
0.324723
0.32857
0.326731
0.357305
0.455409
0.324012
0.325019
0.322995
0.368718
0.360203
0.555673
0.464022
0.320812
0.35768
0.319412
0.326034
0.326205
0.361621
0.367269
0.550258
0.32905
0.325155
0.326416
0.41785
0.901417
0.340321
0.339852
0.427789
0.35771
0.343817
0.361284
0.347777
0.376805
1.23778
0.454591
0.869183
0.366858
0.41694
0.323983
0.408458
0.328431
0.349078
0.356195
0.330688
1.15719
0.462932
0.381527
0.505954
0.38114
0.32016
0.345754
0.422686
0.330335
0.363059
0.24101
0.326919
0.411595
0.379785
0.401241
0.750074
0.382085
0.37878
0.531832
0.328056
0.328501
0.459247
0.558215
0.343004
0.437678
0.479715
0.338366
0.339543
0.323266
0.34785
0.361762
0.359343
1.86027
0.742758
0.386213
0.546206
0.530575
1.48152
2.26217
0.550257
0.369772
0.360793
0.373559
0.378301
1.02656
0.326722
0.353165
0.372857
0.366287
0.349738
0.349707
0.365119
0.321778
0.389777
0.503497
0.363494
0.985114
0.325024
0.40474
0.376585
0.365713
0.357356
0.350203
0.374821
0.472968
0.372336
0.394586
0.49223
0.349135
0.328384
0.355262
0.447526
0.32355
0.417473
0.368912
0.381798
0.675918
1.08365
0.321449
0.363509
0.340872
0.361906
0.366426
0.70565
0.555169
1.49298
0.329151
0.39054
0.346606
0.849393
0.326968
1.37773
0.406741
0.387114
0.508558
0.625419
0.333799
0.319406
0.328928
0.34481
0.469542
0.339962
0.423001
0.826846
0.421995
0.321618
0.323224
0.71307
0.90046
0.532288
0.563734
0.940651
0.405172
0.368201
0.419492
0.32571
0.506714
0.377372
0.392112
1.41843
0.350012
0.322233
0.325857
0.357595
0.408574
0.379866
0.344008
0.341181
0.480317
0.326795
0.342343
0.325095
0.353003
0.376102
0.3972
0.365707
0.352118
0.33562
0.388937
0.327368
0.322834
0.333859
0.339459
0.399819
0.499366
0.351504
0.386212
0.324265
1.53676
0.385336
0.370556
0.343633
0.995875
0.686728
1.08983
0.322175
0.352478
0.356209
0.743236
0.366665
0.361035
0.402422
0.362738
0.363864
0.860917
0.371177
0.336707
0.369539
0.374987
0.32321
0.617827
1.0178
0.326719
1.0093
0.350623
0.69132
0.631033
0.325398
0.360633
0.375119
0.649255
0.353144
0.35577
0.357248
0.779036
0.478779
0.627699
0.324838
0.339008
0.322871
0.330782
1.13014
1.15677
0.359825
0.38456
0.399544
0.72337
0.331265
0.32028
1.39984
1.09049
0.357466
0.337652
0.919727
1.32839
0.905127
0.377149
0.698064
1.03863
0.785393
0.3345
0.47554
0.466122
0.347323
0.356395
1.17128
1.44311
0.38491
0.390501
0.348731
0.337588
0.362361
0.340504
0.516398
0.33782
0.366939
0.325023
0.350744
0.995152
0.939669
0.337397
0.609478
0.450097
0.332003
0.549852
0.319485
0.347514
0.327348
0.359445
0.393942
0.321959
0.770536
0.329587
0.892504
0.705986
0.750709
0.409617
0.418323
0.350528
0.367076
0.328386
0.574575
1.13515
0.361495
0.889741
0.551423
0.838481
0.495946
0.938499
0.742304
0.341492
0.327887
0.933169
0.340501
0.339088
0.329777
0.729895
0.71303
0.329561
0.352486
0.658208
0.439468
1.01939
0.827531
0.358413
0.486258
1.05333
0.353784
0.348746
0.748891
0.332621
0.792811
0.860065
0.333002
0.325248
0.337664
0.324679
0.378393
0.324043
0.331035
0.368775
0.375678
0.500491
0.367681
0.339816
0.526786
0.816445
0.854232
0.366317
0.36362
0.56486
0.337149
1.00366
0.343659
0.358766
0.36302
1.37923
0.349898
1.83768
0.388029
0.526377
0.369183
0.822331
0.653756
0.610032
0.442298
0.569888
0.390441
0.363535
0.412227
0.608736
0.486967
0.483624
0.814639
0.388168
0.47356
0.869324
0.371454
0.324658
0.782334
1.83628
0.328711
0.350855
0.359448
0.379489
0.921449
0.980547
0.322817
0.34223
0.359177
0.796004
0.356052
0.632683
0.398247
0.34766
0.352986
0.498526
0.380594
0.650596
0.633428
0.36366
0.400077
0.460342
0.339576
0.944022
1.57169
0.352311
0.891989
0.8475
0.376775
0.660785
0.360649
0.384779
1.01555
0.385017
0.982546
1.23859
0.346646
0.39081
0.448527
0.365355
0.353505
0.41315
0.515819
0.436501
0.337566
0.41273
0.3422
0.862397
0.414379
0.371445
0.381713
0.564429
0.327831
0.866601
0.714516
0.386217
0.814414
0.835574
0.322845
0.501263
0.573181
0.367141
0.364063
0.531566
0.726582
0.525963
0.789553
0.329478
0.792867
0.467817
0.322069
0.407022
0.377924
0.518468
0.359398
0.407911
0.643017
0.322176
0.615369
0.367879
1.36166
0.390243
0.317893
0.381871
0.552333
0.381244
0.68758
0.457637
0.343529
0.869736
0.324736
0.35091
1.14768
0.321853
0.385749
0.741017
0.357304
0.786178
1.38967
0.377738
0.428435
0.324891
0.923364
0.668504
0.791826
0.722574
0.431867
0.359846
0.453391
0.892675
1.09478
0.825686
0.35731
0.35765
0.363776
0.336312
0.38189
0.743338
0.354867
0.338238
0.359766
0.321939
0.345594
0.361138
0.339388
0.350337
0.367627
0.462638
0.327956
0.371611
0.59359
0.340997
0.325735
0.383397
0.369598
0.359571
0.322778
0.352198
0.349417
0.337785
0.376315
0.689364
0.347766
0.345088
0.326859
0.325737
0.547919
0.330394
0.331039
0.692201
1.22836
0.743036
0.33804
0.675839
0.502892
0.331049
0.646193
0.454636
0.626788
0.36383
0.335477
0.355398
0.412481
0.331071
0.370655
0.385471
0.374503
0.328064
0.328166
0.369513
0.529362
0.36053
0.431581
0.883333
0.348194
0.689119
0.423063
0.880735
0.321119
0.370596
0.366385
0.324327
0.338665
0.367783
0.324628
1.26593
0.603256
0.878914
0.385882
1.06816
0.323814
0.346878
0.537868
0.328686
0.803263
0.427537
0.636037
0.318737
0.962369
0.95189
0.334602
0.32188
0.88591
0.3411
0.665999
0.327722
0.368714
0.328565
0.326072
0.330876
0.341613
0.347899
0.62573
0.412713
0.391581
0.353137
0.333761
0.32892
0.363485
1.09102
0.3701
1.82467
0.538666
0.327945
0.379837
0.346876
0.342729
0.343201
0.371837
0.351449
0.362917
0.339785
0.311573
0.363018
0.365701
1.38661
1.35006
0.368731
0.370648
0.981669
0.34853
0.323355
0.323558
0.322509
0.362166
0.379425
0.400095
0.379657
0.346012
0.324281
0.418371
0.322016
0.314013
0.33768
0.751889
0.392345
0.86145
0.780859
0.850478
0.338541
0.326194
0.319347
0.320427
0.324764
0.66406
0.340362
0.324205
0.34375
0.362036
0.324915
0.494696
0.322674
0.377059
0.466911
0.351148
0.322722
0.32842
0.345892
0.350823
0.326704
0.353926
0.334621
0.520122
0.331093
0.350505
0.391302
0.334411
0.337743
0.324544
0.348843
0.323238
0.374668
0.394757
0.32455
0.319122
0.326078
0.331463
0.3271
0.366526
0.322947
0.325412
0.323472
0.340334
0.862311
0.334408
0.446989
0.320566
0.324884
0.769846
0.339075
0.368203
0.320531
0.334391
0.359173
0.37559
0.770462
0.374978
2.19506
0.322927
0.331307
0.366981
0.326267
0.323946
0.382877
0.348067
0.32457
0.325591
1.00668
0.455394
0.690549
0.375919
0.587719
0.371321
0.318106
0.390477
0.938435
0.3658
0.329363
0.329012
0.811394
0.324492
0.335929
0.352385
0.344714
0.329918
0.815496
0.327246
0.344688
0.34824
0.344049
0.387635
0.950378
0.842999
0.328914
0.326096
0.326074
0.379586
0.357459
0.323443
0.823606
0.908502
0.323334
0.360026
0.797123
0.331047
0.617697
0.472067
0.323591
0.325666
0.328604
0.332968
0.645488
0.350251
0.344781
0.345411
0.385269
0.336474
0.361553
0.615938
0.362931
0.507577
0.524913
0.432072
0.613543
0.36532
0.387737
0.412537
0.379198
0.352996
0.345639
0.858301
0.621681
0.377906
0.374265
0.360647
0.365573
0.353377
0.396127
0.328955
0.321345
0.357206
0.350466
0.517957
0.446387
0.901399
0.738242
0.356124
0.377928
0.337304
0.339396
0.365136
0.325518
0.342097
0.323025
0.324849
0.372697
0.326493
0.326355
0.329833
0.650187
1.14914
0.370023
0.319909
0.470208
0.526536
0.858455
0.335061
0.793824
1.69763
0.695189
0.834895
0.422287
0.324355
0.322341
0.360644
0.889909
0.320815
0.372728
0.351205
0.32365
0.724074
0.67096
0.645688
0.342712
1.48822
0.32123
0.329771
0.360162
0.360508
0.791187
0.860697
0.26409
0.461748
0.280862
0.394347
0.329228
0.934108
0.353789
0.894859
0.372075
0.88641
0.356729
0.5108
0.430569
0.556881
0.380223
0.382817
0.513053
0.353016
0.354781
0.419587
0.400861
0.360761
0.343952
1.27581
0.69999
0.346564
0.638697
0.832049
0.624825
0.332224
0.328572
0.851278
0.722965
0.79386
0.330423
1.07165
0.329351
0.88983
0.749698
0.641058
0.691913
0.321318
0.380027
0.329486
0.337806
0.342002
0.535836
0.431461
0.323982
0.322127
0.367467
0.340224
0.32373
0.326946
0.483229
0.324109
0.318703
0.352619
0.334252
0.448676
0.347778
0.381747
0.374821
0.324554
0.450456
0.466973
0.323442
0.327999
0.504789
0.697962
0.346194
1.38288
0.369921
0.4498
0.748048
0.424427
0.35215
0.324193
0.520958
0.340767
0.319395
0.370601
0.337282
0.328219
0.343206
0.32948
0.322992
0.334885
0.351412
0.341332
0.375308
0.723971
0.335017
0.339701
0.338562
0.346872
0.444173
0.807104
0.348695
0.332216
0.349962
0.608347
0.42358
0.34247
0.348234
0.879099
0.365201
0.389352
0.374112
0.42616
0.353472
0.360461
0.347123
0.543851
0.380173
0.36761
0.955292
0.343665
0.400104
0.353686
0.363072
0.355102
0.392147
0.342694
0.338503
0.328771
0.373125
0.334808
0.359628
1.37968
0.329762
0.439919
0.376481
0.34642
0.69653
0.383597
0.406719
0.367137
0.60944
0.675087
0.355543
0.331752
0.396223
0.409321
0.360742
0.329213
0.823958
0.486497
0.39396
1.38458
0.423178
0.333833
0.537438
0.577971
1.22078
0.617181
0.407936
0.598706
0.365798
0.57795
0.496964
0.883896
0.361346
0.392077
0.336357
0.641735
0.375731
0.41341
0.348698
0.367493
0.364364
0.400147
0.647597
0.349845
0.372073
0.391593
0.527323
0.796401
0.435278
0.770731
0.37504
1.05
0.373448
0.374667
0.841419
0.566921
0.737099
0.600066
0.690735
0.591259
0.334584
0.329993
0.331134
0.397839
0.370897
0.826555
0.37047
0.393895
0.327391
0.491486
0.363943
0.327572
0.898227
0.389109
0.534281
0.288305
0.410469
0.35452
0.364669
0.369705
0.395085
0.329498
0.319035
0.356545
0.411151
0.240986
0.236247
0.461341
0.376113
0.354358
0.43677
0.473658
0.382258
0.366409
0.371706
0.223185
0.388583
0.413736
0.275042
0.374735
0.828946
0.590294
0.349268
1.01377
0.392681
0.503251
1.28967
0.394845
0.377013
0.331589
0.771254
0.32776
0.324154
0.379868
0.376299
0.408341
0.352346
0.566612
0.362371
0.511025
0.330337
0.381834
0.370993
0.319785
1.1039
0.510754
1.07846
0.573905
0.320255
0.903555
0.504975
0.326232
2.16594
0.32633
0.322878
0.477613
0.486222
0.97852
0.719331
0.368595
0.719037
1.33744
0.339905
0.598167
0.983011
0.507325
1.34122
0.401565
0.337157
0.624126
0.702667
0.389895
0.970754
0.381963
0.354539
0.551412
0.382115
0.333152
0.370645
0.800064
0.754931
0.319862
0.545984
0.334696
0.381506
0.355078
0.379207
0.604591
0.44959
0.764341
0.351696
0.360702
0.750818
0.326315
0.342124
0.482076
0.330349
0.362429
0.985119
0.355755
0.925677
0.837109
0.848768
0.823716
0.376384
0.417106
0.32301
0.3211
0.439807
0.327734
0.330237
0.398738
0.33444
0.435764
0.915889
0.327752
0.53937
0.335816
0.490938
0.38271
0.888139
0.366712
0.476557
0.333339
0.341532
0.409555
0.329447
0.348648
0.337649
0.322557
0.560236
0.327979
0.377793
0.378666
0.341052
0.366292
0.361927
0.376398
0.700148
0.353767
0.329531
0.339242
0.410996
0.25357
0.676376
0.505506
0.68785
1.01665
0.426071
0.444041
0.147726
0.320006
0.915944
0.421745
0.552138
0.414381
0.762036
0.724649
1.30033
0.381923
0.351869
0.55124
1.00633
0.365881
0.334003
0.470089
0.368487
0.430073
0.423678
0.859787
1.33418
0.291151
0.396285
0.210856
0.353543
1.15421
0.346704
0.361972
0.333665
0.330073
0.469032
0.334522
0.617677
0.491967
0.329754
0.384893
0.330596
0.571985
0.657409
0.346364
0.437524
0.382248
0.938878
0.461072
0.357907
0.549
0.548262
0.322091
0.331918
0.361455
0.324416
0.672141
0.329184
0.455744
0.632078
0.337097
0.362174
0.331563
0.332728
0.586157
0.391047
0.543288
0.320617
0.321951
0.588298
0.836281
0.330519
0.347725
0.330094
0.327856
0.650385
0.454066
0.816831
0.361498
0.327163
0.46882
0.399461
0.362396
0.331869
0.390225
0.380009
0.566832
0.467234
1.45668
0.421205
0.436335
0.332049
0.375469
0.836836
0.988375
0.414707
0.919127
0.365157
0.964095
0.441939
0.751923
0.486641
0.528441
0.394124
0.343509
0.374233
0.428095
0.577488
0.359874
0.383265
0.998316
0.374546
1.75511
0.37335
0.349638
0.37572
0.57632
0.418929
0.330109
0.842812
0.324738
0.336133
0.32274
0.368366
0.862883
0.500123
0.338169
0.532173
0.348064
0.360356
0.331809
0.34089
0.431443
0.408494
0.421432
0.362526
0.334431
0.414338
0.355124
0.320188
0.421479
0.379323
1.33079
0.38191
0.47289
0.365329
0.416692
0.368424
0.437937
0.321195
0.368818
0.348416
0.35282
0.381395
0.842192
0.321738
0.629055
0.465796
0.391375
0.3798
0.367397
0.382541
0.452263
0.655619
0.330832
0.356627
0.361894
0.517433
0.395592
0.322059
1.21557
0.979716
0.657916
0.326863
0.330495
0.51769
0.353691
0.35394
0.514526
0.364437
0.343665
0.379096
1.04486
0.328944
0.589224
0.326954
0.342388
0.43778
0.343136
0.38486
0.472676
0.330209
0.597373
0.417222
0.416181
0.457484
0.947921
0.33429
0.35999
0.375235
0.405725
0.367358
0.369142
0.321853
0.321971
0.374481
0.591935
0.378107
0.370089
0.964433
0.375577
0.640741
0.358452
0.383035
0.406226
0.349237
0.743345
0.361777
0.50682
0.379722
0.35515
0.353636
0.400122
0.575243
0.46355
0.332419
0.634964
0.376957
0.79574
0.772109
0.962502
0.337345
0.468077
0.377721
0.252531
0.406092
0.280995
0.452517
0.239838
0.411839
0.729767
0.415421
0.633999
0.700962
0.37389
0.267782
0.419783
0.995988
0.528201
0.701964
1.32789
1.58466
0.630396
0.839707
0.336719
0.359785
0.760797
0.401086
0.927048
0.384417
0.770537
0.776837
0.34882
0.373503
0.341392
0.321618
0.363278
0.321789
0.739838
0.394925
0.371055
0.563402
0.336567
0.362204
0.319499
0.352362
0.360223
0.363914
0.398643
0.324015
0.419949
0.911228
0.323544
0.333091
0.354499
0.329047
0.737755
0.838633
0.403307
0.421343
0.562359
0.324212
0.316974
0.353668
0.376088
0.338791
0.346102
0.333997
0.327732
0.426756
0.32548
0.381645
0.344268
0.323206
0.329339
0.739957
0.340228
0.355146
0.326086
0.437197
0.360192
0.360606
0.724561
0.42218
0.353939
0.397967
0.352218
0.383295
0.39333
0.371764
0.3371
0.380716
0.367543
0.341895
0.368037
0.362252
0.441847
0.464842
0.34472
0.349204
0.411525
0.444583
0.491912
0.576393
0.886347
0.945218
0.35187
0.332206
0.914007
0.545665
0.573863
0.336985
0.326325
0.345712
0.321143
0.345515
0.330125
0.334499
0.364101
0.326095
0.331399
0.329352
0.338547
0.330579
0.541285
0.388976
0.357811
0.332133
0.336615
0.645553
0.323439
0.331297
0.406739
1.05091
0.558743
0.37422
0.362295
0.343574
0.378961
0.479249
0.719719
0.415698
0.340827
0.3698
0.340078
0.337171
0.379231
0.442477
0.369505
0.332148
0.40794
0.407848
0.641705
0.404556
0.745244
0.587586
0.392445
0.401715
0.339603
0.352234
0.378658
0.322547
0.336331
0.622018
0.339653
0.355436
0.723623
0.357509
0.373533
0.521861
0.408654
0.330315
0.35905
0.333866
0.365778
0.733367
0.355471
0.440373
2.35173
0.587085
1.12579
0.853221
0.341485
0.351498
0.544071
0.325958
0.569399
0.505784
0.70931
0.369858
0.325581
0.778148
0.325709
0.559894
0.426257
0.333828
0.733508
0.857906
0.323169
0.334823
0.909037
0.322939
0.327303
0.326506
0.324921
0.354507
0.558639
0.588033
0.351896
0.815227
0.341001
0.349719
0.331104
0.885611
0.345895
0.928195
0.326849
0.365989
0.327396
0.444171
0.336922
0.520412
0.323747
0.660848
0.486337
0.488091
0.716944
0.344391
0.344927
0.858887
0.460387
0.355488
0.430266
0.640792
0.349687
0.43914
0.336265
0.608444
0.417259
0.331761
0.321864
0.470304
0.341469
0.394629
0.361294
0.323867
0.348952
0.32826
0.330096
0.345013
0.730991
0.336043
0.329325
0.327628
0.338281
0.329068
0.344553
0.327371
0.371676
0.43855
0.387294
0.385001
0.331723
0.322801
0.345435
0.389725
0.874076
0.370187
0.781821
0.336861
1.41927
0.377608
0.492531
0.380532
0.383278
0.386884
0.333862
0.322103
0.357859
0.3627
0.318814
0.339905
0.326775
0.691477
0.326077
0.342014
0.379834
0.860584
0.22027
0.350692
0.824892
0.873811
0.629093
0.568474
1.08219
0.17405
0.419448
0.349498
0.358609
0.410358
2.01029
0.579198
0.399374
0.326768
0.325637
0.774777
0.355919
0.580815
0.562202
0.382825
0.592351
0.37514
0.618929
0.331167
0.367625
0.350629
0.322619
0.394266
0.32064
0.357838
1.12545
1.11785
1.08972
0.461881
0.798234
0.344934
0.319022
0.324169
0.375098
0.326074
0.380754
0.332776
0.421275
0.381821
0.321879
0.324875
0.368651
0.3237
0.343721
0.36766
0.332848
0.366608
0.528279
0.345524
0.384387
0.831555
0.375728
0.719525
0.84338
0.362623
0.39478
0.324333
0.490067
0.371542
0.382165
0.661396
0.327942
0.394235
0.357952
0.378578
0.331769
0.336655
0.491579
0.533914
0.375508
0.364518
0.798741
0.396298
0.643707
0.59461
0.360531
1.05686
0.447825
0.390265
0.367674
0.351758
0.411233
0.366244
0.310526
0.33454
0.251974
0.597061
0.228032
0.341209
0.37496
0.437561
0.217625
0.799518
0.342858
0.370488
0.401407
0.291391
0.405085
0.695055
1.75032
0.375457
0.339503
0.367249
0.63915
0.330066
0.386855
0.378912
0.338326
0.358377
0.344741
0.579564
0.333789
1.58717
0.390988
0.966501
0.339167
1.16289
0.824002
1.12649
0.358059
0.348949
0.481591
0.374342
0.344043
0.373892
0.346944
0.820298
0.322948
0.479921
0.627698
0.322962
0.332537
0.333283
0.33494
0.360999
0.360563
0.400256
0.400219
0.372351
0.358022
0.40803
0.346577
0.452656
0.337256
0.374247
0.33065
1.4676
1.07312
0.383128
0.444129
0.322641
1.96884
0.319702
0.326031
0.363252
0.323049
0.381117
0.364222
0.324037
0.319674
0.34794
0.887014
0.622285
0.37089
0.816883
0.326405
0.361552
0.336955
0.359586
0.803903
0.390308
0.853612
0.321398
0.34078
0.806043
0.898384
0.34879
0.34715
0.651033
0.377062
0.373455
0.495598
0.394708
0.378457
0.426891
0.378784
0.31874
0.385758
0.359874
0.491124
0.325905
0.367567
0.323834
0.343684
0.794378
0.687758
0.33855
0.347324
0.349167
0.362346
0.339384
0.54049
0.341885
0.35826
0.38557
0.358547
0.451968
0.408785
0.497998
0.386407
0.318764
0.331409
0.326029
0.384984
0.316646
0.544766
0.447077
0.330979
0.700083
0.347025
0.323793
0.365723
0.327068
0.377647
0.648248
0.347498
0.44234
0.370059
0.992865
0.401114
0.383663
0.374286
0.725828
0.376467
0.544972
0.37793
0.412215
0.347461
0.421303
0.396513
0.724602
0.462318
0.363205
0.339525
0.335313
0.566021
0.35106
1.07469
1.60811
0.375903
0.432252
0.357479
0.484309
0.459262
0.39475
0.890248
0.489443
0.677018
0.32675
0.394913
0.981494
0.494671
0.362179
0.480933
0.34066
1.11518
0.395718
0.388966
0.336286
0.325236
0.32925
0.350552
0.326236
1.31418
0.330745
0.654747
0.326947
0.435184
0.403336
0.539527
0.349505
0.354508
0.342259
0.59473
0.473534
0.520198
0.327065
0.329708
0.461566
0.37864
0.366327
0.325006
0.323725
0.325585
0.344777
0.324438
0.381435
0.330617
0.566903
0.437945
0.964865
0.778435
0.628278
0.576712
0.39692
0.403997
0.321878
0.6044
0.336252
0.349613
0.335173
0.467278
0.507048
0.337315
0.431025
0.803077
0.493674
0.326904
0.326138
1.30944
0.837021
0.389363
0.882169
0.894919
0.656205
0.777161
0.591297
0.741658
0.411125
0.655239
0.793778
0.32311
0.330336
0.317538
0.477498
0.61947
0.339124
0.325543
0.408135
0.368573
0.389468
0.850879
0.490361
0.961778
0.354593
0.324849
0.342446
0.323151
0.368124
0.823264
0.658382
0.689202
0.768229
0.328796
0.997321
0.892527
0.325802
0.535643
0.480852
0.793703
0.376398
0.484521
0.788619
0.800267
0.478523
0.855165
0.513775
0.762417
0.373124
0.350213
0.385623
1.07524
0.780377
0.399577
0.343778
0.571044
0.451396
0.593579
0.361571
0.383558
1.11378
1.27529
0.257974
0.32716
0.273864
0.325368
0.246951
0.392174
0.470699
0.622811
0.226982
0.444112
0.500444
0.152919
0.466933
1.55289
0.425556
0.390984
0.732202
0.344068
0.508495
0.336896
0.321849
0.340967
0.355223
0.817812
0.717536
1.27522
0.399669
0.397218
0.618978
0.384358
0.445942
0.415778
0.367904
0.343462
0.596238
0.379926
0.398093
0.334435
0.429797
0.413555
0.778185
0.480169
0.820926
0.964446
0.794831
0.373759
0.411006
0.733431
0.338893
0.569091
0.367539
0.398383
0.332254
0.821718
0.615252
0.567423
1.13975
0.623339
0.324346
0.443352
0.870676
0.835042
0.398619
0.360857
0.475061
0.973826
0.362775
0.327038
0.364924
0.347601
0.754915
0.341053
0.635064
1.00183
0.82204
1.572
0.553993
0.472941
0.809529
1.23291
0.879788
0.604452
0.758254
0.917035
0.547038
0.389738
0.458682
0.356548
0.316936
0.329483
0.432183
0.535812
1.4945
0.366857
0.391525
0.40544
0.377891
0.458166
0.577796
0.484133
0.368828
0.382565
1.01416
1.11331
0.22957
0.402676
0.341277
0.376096
1.3506
0.830337
0.372829
0.65348
0.340556
0.421444
0.431366
0.586287
0.350095
0.349614
0.33453
0.397228
0.900506
0.458329
0.364271
0.825402
0.3249
0.923496
0.710366
0.478083
0.707424
0.374136
0.326021
0.332925
0.331913
0.364108
0.412963
0.336139
0.350208
0.33623
0.332899
0.528366
0.697634
0.747519
0.334624
0.485918
0.372669
0.401378
0.3555
0.671648
0.366749
0.349296
0.347318
0.324305
0.340372
0.340643
0.466679
0.320546
0.366315
0.380938
0.627661
0.337231
0.403439
0.501617
0.815832
0.891214
0.396195
1.07316
0.568743
0.381463
0.360653
0.542059
0.339354
1.43027
0.440321
0.32866
0.437251
0.54025
0.418008
0.471726
0.731862
0.777792
0.472022
0.831474
0.35292
0.323255
0.407438
0.327785
0.32667
0.422257
0.332809
0.33036
0.586125
0.32571
0.304015
0.915797
0.633357
0.325004
0.327338
0.752265
0.343306
0.337615
0.598385
0.335459
0.746561
0.417942
0.786638
0.331692
0.55759
0.456148
0.694901
0.334854
0.450184
0.332552
1.15459
0.364335
0.327602
0.831628
0.434325
0.510634
0.36468
0.381693
0.373695
0.333878
0.508178
0.33328
0.332481
0.317397
0.453037
0.561676
0.329396
0.337149
0.330543
0.330009
0.343635
1.00355
0.327521
0.46014
0.326976
0.595611
0.36026
0.379268
0.367325
0.480322
0.345429
0.442625
0.318216
0.34614
0.348484
0.364265
0.32994
0.444981
0.423191
0.879765
0.920656
0.8099
0.40376
0.356274
0.353121
0.324952
0.326527
1.02922
0.653707
0.408012
0.378516
0.319821
0.34701
0.321248
0.331411
0.536713
0.521053
0.777968
0.805339
0.382094
0.350456
0.427317
0.327644
0.621092
0.357654
0.457502
0.366412
0.371353
1.05522
0.430207
0.319979
0.343455
0.411499
0.327258
0.430952
0.326042
0.692206
0.383871
0.918229
0.495861
0.786629
0.331777
0.351556
0.367108
0.374459
0.374062
0.358291
0.32519
0.325644
0.332481
0.340509
0.354995
0.596086
0.388075
0.87661
0.427649
0.332159
0.522457
0.381692
0.361491
0.320604
1.06036
0.906782
0.331761
0.32874
0.333416
0.85764
0.348901
0.440871
0.386189
0.374169
0.291951
0.366657
0.364278
0.324222
0.425983
0.565783
0.965148
0.543074
0.447924
0.320104
0.41074
0.666423
0.3613
0.329616
0.851599
0.832334
0.451105
0.718255
0.330311
0.32358
0.41289
0.331123
0.871696
0.329201
0.327092
0.331581
0.68878
0.325769
0.369717
0.470266
0.477889
0.327339
0.34395
0.34982
0.343533
0.32154
0.356828
0.380656
0.594044
0.44857
0.373509
0.603944
0.365754
0.644193
0.374593
0.915579
0.456804
0.372941
0.705475
0.307516
0.440778
0.54395
0.596602
0.414929
0.324937
0.328971
0.323156
0.367887
0.857217
0.378618
0.326931
0.360094
0.383657
0.32528
0.496304
0.35483
0.373315
0.47277
0.348642
0.330257
0.363828
0.355283
1.2991
0.898244
0.400128
0.361871
0.4361
0.359529
0.816801
1.0779
1.20095
0.795008
0.352869