/*--------------------------------*- C++ -*----------------------------------*\
| =========                 |                                                 |
| \\      /  F ield         | OpenFOAM: The Open Source CFD Toolbox           |
|  \\    /   O peration     | Version:  2506                                  |
|   \\  /    A nd           | Website:  www.openfoam.com                      |
|    \\/     M anipulation  |                                                 |
\*---------------------------------------------------------------------------*/
FoamFile
{
    version     2.0;
    format      ascii;
    arch        "LSB;label=32;scalar=64";
    class       volScalarField;
    location    "0.047171";
    object      nut;
}
// * * * * * * * * * * * * * * * * * * * * * * * * * * * * * * * * * * * * * //

dimensions      [0 2 -1 0 0 0 0];

internalField   nonuniform List<scalar> 
47425
(
0.00561427
0.00523262
0.0045295
0.00200736
0.00346834
0.00464577
0.00477208
0.0033008
0.0074278
0.00197247
0.00248492
0.00734841
0.0054582
0.00410044
0.00338771
0.00382636
0.00471738
0.00269466
0.000278469
0.00301573
0.00386375
0.00712511
0.00317962
0.00514738
0.00694627
0.00714
0.00404794
0.000515901
0.00446729
0.00575356
0.00744481
0.00710078
0.00745933
0.00482016
0.00594625
0.00498128
0.00719
0.00537839
0.00500215
0.00441676
0.0051133
0.00514525
0.00517398
0.00260979
0.000785177
0.00342055
0.00352072
0.00452347
0.00411099
0.00665303
0.000678377
0.00271363
0.00635594
0.00100982
0.00331057
0.00298105
0.00717636
0.00556795
0.00235022
0.00531556
0.000891942
0.000741398
0.000990061
0.00336724
0.00738491
0.00712092
0.00555616
0.00447554
0.00109636
0.005363
0.00411888
0.00618879
0.00666786
0.0036357
0.00131434
0.00746319
0.00102262
0.00400343
0.000261994
0.00213099
0.00130456
0.00509241
0.00744823
0.00742749
0.00695824
0.00401445
0.00596147
0.00636054
0.00486474
0.00144524
0.00727743
0.00452629
0.00728798
0.00325124
0.0026115
0.00189564
0.00655996
0.0061352
0.00365421
0.00462375
0.00557777
0.00103435
0.00630756
0.0010296
0.00651627
0.0068825
0.00676995
0.00351441
0.00703239
0.00704741
0.00293614
0.00528824
0.00611338
0.00229427
0.00730301
0.000359691
0.00730324
0.000779198
0.00440992
0.00566756
0.00415097
0.00747144
0.00592277
0.00293717
0.00366154
0.00693149
0.00392753
0.00741795
0.00338322
0.00735819
0.0072602
0.00351125
0.00106886
0.00296639
0.00564109
0.00538367
0.00688341
0.00674794
0.0047285
0.00330033
0.00499408
0.00285003
0.00478757
0.00547511
0.00652775
0.00742417
0.0041278
0.00543762
0.00243083
0.00499914
0.00553786
0.000558764
0.00739014
0.000435591
0.00329244
0.00397573
0.00315643
0.000309357
0.00390517
0.00468739
0.00750132
0.00722051
0.00640214
0.00698831
0.00125672
0.000530048
0.00743927
0.00131575
0.00324708
0.000841343
0.00132163
0.0041695
0.00479205
0.00380604
0.00495818
0.0013469
0.000406519
0.00448245
0.00609204
0.00716686
0.000333134
0.00672497
0.00525152
0.00697843
0.00680725
0.00694842
0.00578352
0.00116781
0.00240224
0.00581426
0.00746969
0.00446997
0.00551048
0.00474269
0.00684593
0.00744689
0.00582727
0.00462593
0.00755995
0.00376641
0.00522134
0.00298287
0.00701433
0.00737633
0.00263959
0.00237327
0.00591341
0.00736497
0.0040584
0.00747119
0.0050354
0.00487412
0.00745941
0.00340393
0.00519048
0.00520311
0.00432138
0.00169934
0.00359609
0.00384174
0.00203089
0.00253025
0.0051312
0.00329998
0.00239145
0.00166454
0.00682139
0.0025981
0.00728071
0.00443304
0.00450236
0.0045653
0.00341416
0.00748892
0.0022508
0.00356553
0.00186192
0.0030564
0.00210686
0.00204278
0.00408546
0.00542207
0.00731883
0.00319212
0.00721456
0.00733117
0.00472065
0.00590051
0.0072333
0.00417756
0.00737581
0.00244244
0.00490544
0.00742027
0.00362466
0.00728053
0.00693153
0.00307063
0.0033784
0.00739649
0.00308503
0.00746176
0.00417249
0.002712
0.00563369
0.00397227
0.00714472
0.00527966
0.00512915
0.00409828
0.00414313
0.00233466
0.00189939
0.00668611
0.00244505
0.00210842
0.00244268
0.000556364
0.00194811
0.000645313
0.000938286
0.00572951
0.000936243
0.00300751
0.0041276
0.00367002
0.00344534
0.00363339
0.00407176
0.00735241
0.000796528
0.00543405
0.00737543
0.00562373
0.00477168
0.00343016
0.00306793
0.00690826
0.00499513
0.00484105
0.00392063
0.00716058
0.00392015
0.00530885
0.00110525
0.000849012
0.000591632
0.00732673
0.00656829
0.00731797
0.0033006
0.000862831
0.00383369
0.00290038
0.00166913
0.00477754
0.00336168
0.00306733
0.00357281
0.00162587
0.00181149
0.00718477
0.00531822
0.00672374
0.00423499
0.00717156
0.00415235
0.00521087
0.00613067
0.00446027
0.00387402
0.00110863
0.00447072
0.00429126
0.00297273
0.00729952
0.000891432
0.00641916
0.00692935
0.0062008
0.00709164
0.00704303
0.00714759
0.00617239
0.00648041
0.00629702
0.00542825
0.00688476
0.00393005
0.0041636
0.0069347
0.00711641
0.00530802
0.00680468
0.00675789
0.00279136
0.00417576
0.0074618
0.00661319
0.00385755
0.00197143
0.00604595
0.00429953
0.00356266
0.00670804
0.00674532
0.00284263
0.00743432
0.00498742
0.00728529
0.00282705
0.000939086
0.0041087
0.00742189
0.00192609
0.00739847
0.0050621
0.00389368
0.00502336
0.00714802
0.00563166
0.00729813
0.00723445
0.00481681
0.00412016
0.00439955
0.00401027
0.00624422
0.00717557
0.00400627
0.00682507
0.00676475
0.00419215
0.00570416
0.00499286
0.00676917
0.00526907
0.0037135
0.00322232
0.00657844
0.000848768
0.00695793
0.00213604
0.00486777
0.00351756
0.00350927
0.006737
0.00245256
0.00678003
0.0036473
0.00708089
0.00109389
0.00106777
0.00727668
0.00300664
0.00399551
0.00372236
0.00407084
0.00440674
0.00395352
0.00405871
0.00496483
0.00715318
0.00315449
0.00462488
0.00646911
0.00339748
0.00410928
0.00623587
0.000966484
0.000426503
0.00680441
0.000512898
0.000526833
0.00402987
0.000503149
0.000731968
0.00663148
0.0039778
0.00423678
0.00405364
0.000942509
0.00391215
0.00644468
0.00644109
0.00435563
0.00432681
0.00409858
0.00402539
0.000926397
0.000730003
0.00134603
0.00543765
0.00110213
0.00372618
0.00572828
0.00732768
0.0055515
0.00737914
0.00423078
0.00478987
0.00284693
0.00476763
0.00748961
0.00412635
0.00543295
0.00443897
0.00742101
0.00506267
0.00483522
0.00523147
0.0056293
0.00342292
0.00286858
0.00517524
0.0042444
0.00738313
0.00117875
0.00280069
0.00223946
0.00744248
0.00265846
0.00325472
0.00326029
0.00729594
0.00427297
0.00740266
0.00489762
0.00319673
0.0033703
0.00375212
0.00356249
0.00593531
0.00234974
0.000918242
0.00680372
0.00173549
0.00564242
0.00171492
0.00669236
0.00623387
0.00716673
0.00471383
0.00568571
0.00306236
0.00531455
0.00669994
0.00730948
0.00714922
0.00452587
0.0027226
0.00409039
0.00730256
0.00585465
0.00565744
0.00560812
0.00548988
0.00492831
0.00447787
0.00278144
0.00472315
0.00372042
0.0007169
0.00538677
0.00472979
0.00640933
0.00741182
0.00181932
0.00199127
0.00453163
0.00656847
0.00436313
0.00437436
0.00684266
0.00192469
0.00747845
0.00250787
0.00252145
0.00282645
0.0055539
0.00297632
0.00741824
0.0045066
0.00456604
0.00686412
0.00718413
0.00619404
0.000902296
0.00516249
0.00250638
0.00698509
0.00178899
0.00687637
0.00549728
0.00226664
0.00249325
0.00472013
0.00696007
0.000732528
0.00590165
0.00558821
0.00584957
0.00651289
0.00719211
0.00236097
0.00300653
0.00633539
0.00603379
0.00494169
0.00719558
0.00228052
0.00729548
0.00533996
0.000511792
0.00458691
0.00724685
0.000994306
0.00138602
0.00716299
0.000333598
0.000348057
0.00445188
0.00744529
0.00610066
0.00726752
0.00429431
0.00394916
0.00134458
0.00727217
0.00278056
0.00640754
0.00212557
0.00230167
0.00433424
0.00491988
0.00160292
0.00585331
0.00623221
0.00356961
0.00348294
0.00279744
0.00303656
0.00305031
0.00669153
0.00347475
0.00285131
0.00332068
0.00533765
0.00318446
0.00367994
0.00674355
0.00273291
0.00374474
0.00416381
0.00278649
0.00342258
0.00471689
0.00493054
0.00653187
0.00185069
0.00507961
0.00677098
0.00686556
0.000316467
0.0039961
0.00544341
0.000580215
0.000805275
0.00729031
0.0047376
0.000214593
0.00210655
0.000849295
0.00267886
0.00315413
0.000669921
0.00546695
0.00662557
0.005912
0.00321413
0.00335473
0.00332834
0.00688111
0.00316675
0.00487244
0.00395346
0.00660306
0.00435999
0.00414534
0.00176055
0.00096351
0.00286823
0.00316032
0.00409764
0.00651909
0.00343832
0.00741528
0.00605369
0.00567849
0.00526984
0.00655657
0.00199066
0.00469542
0.00673976
0.0018601
0.00197671
0.000998592
0.00128849
0.00401764
0.00747735
0.00485521
0.00721348
0.00107616
0.00463109
0.00115338
0.00427115
0.00423214
0.00547563
0.00483383
0.00567538
0.00362455
0.00211648
0.00371607
0.00562246
0.00190846
0.00455231
0.00748589
0.00439627
0.00402275
0.00101323
0.00549002
0.00186687
0.00373681
0.00747325
0.00715819
0.00256013
0.00420338
0.00404091
0.0074292
0.00521077
0.00443726
0.00455664
0.00422592
0.00409913
0.00504765
0.000964267
0.000654921
0.00454419
0.000856522
0.00478441
0.00297841
0.00345302
0.00664126
0.00375751
0.00512734
0.00425916
0.00417426
0.00710859
0.000603824
0.00280573
0.00346069
0.00508857
0.00681432
0.00381414
0.00584189
0.00247601
0.00748623
0.00132191
0.00413335
0.00706437
0.00430757
0.00675362
0.00550581
0.00466311
0.00645336
0.00364912
0.00734888
0.00693647
0.00429009
0.00105577
0.00739684
0.000714702
0.00231441
0.00230613
0.000698181
0.00431292
0.00393634
0.00229476
0.00391502
0.000813346
0.000497461
0.000959091
0.00336799
0.00527299
0.00366787
0.00298671
0.000933618
0.00256279
0.00374882
0.0060485
0.00463195
0.00440194
0.00315365
0.0059796
0.00430311
0.00133903
0.00214968
0.00556077
0.00246468
0.00113937
0.000735178
0.00353533
0.000527005
0.00210065
0.000690069
0.00088588
0.00450088
0.00304592
0.00723973
0.00678335
0.00489159
0.000644123
0.00138547
0.00483236
0.00488721
0.00723448
0.00082269
0.000555736
0.00728805
0.00228879
0.00373395
0.00729409
0.00224328
0.00729485
0.0073288
0.00447149
0.00488385
0.00168305
0.00657829
0.00727394
0.00525993
0.0052779
0.0052589
0.0011202
0.00180174
0.00717046
0.00142865
0.00661356
0.00699102
0.0069286
0.00181475
0.00458392
0.0020617
0.00272211
0.0059217
0.00733454
0.00135988
0.000702292
0.00462411
0.00400292
0.00192993
0.00543718
0.00561661
0.00307229
0.00283152
0.00294509
0.00447769
0.00237044
0.00111744
0.0074237
0.00117754
0.00583795
0.00393513
0.00719547
0.00206186
0.00277496
0.00732576
0.00296466
0.00134516
0.00368638
0.00196457
0.004993
0.00592019
0.00476779
0.00354336
0.00470968
0.00322105
0.000582068
0.00486785
0.00281306
0.0018093
0.0017944
0.00098931
0.00175098
0.00418562
0.000574202
0.00718375
0.00677011
0.00442566
0.00268852
0.00392894
0.00152331
0.00140515
0.00324931
0.00548218
0.00471592
0.0032585
0.00360235
0.00395084
0.00593274
0.00138342
0.00405234
0.00470845
0.00232517
0.00207881
0.00567426
0.000573552
0.00395224
0.00537293
0.0038674
0.00401179
0.00555552
0.00706242
0.00342177
0.00386376
0.000832834
0.00286229
0.00487067
0.0037084
0.00587481
0.00353852
0.000828511
0.00462439
0.00206543
0.00603553
0.00202365
0.00286744
0.00376011
0.0054625
0.00529524
0.00357874
0.00180556
0.00400787
0.00170937
0.000755602
0.00537527
0.00716166
0.00541311
0.00113265
0.00557063
0.0024415
0.00683192
0.00172103
0.00192552
0.00399172
0.00325902
0.00434307
0.00727372
0.00514791
0.00318161
0.00107859
0.00236278
0.00102129
0.00716115
0.00244059
0.00277901
0.00266238
0.00367682
0.00439025
0.00169923
0.00165766
0.00371978
0.000962289
0.00366418
0.00367729
0.00447144
0.00515643
0.00385092
0.00497705
0.00135102
0.00361863
0.00374581
0.00482262
0.00631816
0.000843581
0.00218055
0.000742588
0.00168383
0.00123363
0.00209784
0.00395113
0.0013391
0.00363774
0.00135927
0.00202467
0.00206371
0.00144768
0.00324409
0.00554549
0.00446912
0.00747182
0.00156336
0.00372586
0.00351601
0.00441838
0.00148782
0.00615756
0.0043799
0.00623366
0.00746093
0.00297605
0.00200574
0.00302943
0.00341408
0.00587915
0.00236189
0.00681729
0.00323468
0.00314158
0.00733938
0.00253222
0.00213892
0.00446017
0.0022834
0.00402953
0.00284935
0.00207285
0.00295211
0.0031566
0.000231539
0.000655769
0.00166287
0.000544845
0.00337841
0.00343228
0.000619335
0.000736649
0.00559794
0.00111092
0.00336276
0.0041963
0.000549623
0.00265028
0.00712176
0.00322033
0.00163547
0.00656088
0.000733207
0.000351102
0.00232017
0.000839049
0.00227218
0.00100163
0.000877674
0.00569972
0.00458944
0.00278406
0.00216911
0.00374932
0.00735483
0.00225989
0.00071629
0.00518785
0.00176274
0.00441459
0.00206449
0.00655231
0.00612555
0.00205301
0.00205201
0.00427374
0.00183882
0.00538972
0.00151409
0.00728431
0.00633346
0.00321132
0.00191341
0.00491155
0.00735547
0.000807867
0.001596
0.00163503
0.00374676
0.00291883
0.00208804
0.00118163
0.00417298
0.00118208
0.00221779
0.00540173
0.00326074
0.00216436
0.000800384
0.00228751
0.00193779
0.00590369
0.00549252
0.00209431
0.0041459
0.00278503
0.0050596
0.00740451
0.00672043
0.00424166
0.00272882
0.000778581
0.00441566
0.000509912
0.00442692
0.00448369
0.00296934
0.00559529
0.00382769
0.00430451
0.00467653
0.00196075
0.00602693
0.00154379
0.0072446
0.00038643
0.00133576
0.00143183
0.00199943
0.00431475
0.00546687
0.00351119
0.00606791
0.00069049
0.000783766
0.00343158
0.00228454
0.000971549
0.000973176
0.00236818
0.00118886
0.000528421
0.0036618
0.0062371
0.000533249
0.00395266
0.00476351
0.00443562
0.000890368
0.000658177
0.00407164
0.0041719
0.00139457
0.0025123
0.00101528
0.000808
0.00329131
0.00109531
0.0012071
0.00339477
0.00480855
0.00125597
0.00632076
0.00132931
0.000241411
0.00738667
0.00469659
0.00397063
0.00573963
0.00304096
0.00314785
0.00745594
0.00300208
0.00416389
0.00091028
0.00168582
0.00499154
0.00139931
0.00465926
0.000403204
0.00692484
0.00373394
0.00242731
0.00622279
0.00105564
0.00397799
0.00311996
0.00238679
0.0025548
0.00401149
0.00392311
0.00212513
0.000747592
0.00647515
0.00130305
0.000758919
0.00145657
0.00416146
0.0010869
0.00187229
0.00478145
0.00534798
0.00112681
0.00187424
0.00237672
0.000837747
0.00258603
0.00101928
0.00308316
0.00290003
0.00222441
0.000998772
0.00529956
0.00646708
0.00221029
0.00428617
0.00255694
0.00299085
0.000830175
0.00552839
0.00395589
0.00575662
0.00146722
0.00560683
0.000604544
0.00233092
0.00557723
0.0073971
0.00197369
0.00179584
0.00096212
0.00200393
0.0023288
0.00120804
0.000929873
0.0041635
0.000949372
0.00430534
0.00301598
0.000476031
0.00162556
0.00308878
0.00289633
0.00561369
0.00160281
0.000514246
0.0017703
0.00242457
0.00391908
0.00726963
0.00196895
0.00523966
0.00379547
0.00627958
0.00113015
0.0024915
0.00159988
0.00426918
0.00167468
0.004146
0.00343176
0.00121578
0.00189093
0.00242801
0.00281128
0.00580526
0.000418302
0.00168292
0.00163534
0.00148658
0.00348644
0.0056112
0.00111564
0.000720016
0.00166306
0.0029474
0.00290284
0.0018388
0.00278226
0.00115644
0.0056647
0.00139549
0.00151054
0.00585597
0.00133902
0.00342913
0.00260241
0.00285254
0.00140498
0.00249739
0.00643922
0.000740152
0.00338323
0.00067747
0.00267527
0.00394198
0.00263653
0.002156
0.00144711
0.0027386
0.00422826
0.00308737
0.00131646
0.00408863
0.00449434
0.000653788
0.00720894
0.00370296
0.000889476
0.00408995
0.00285294
0.00178605
0.00246005
0.00119735
0.003896
0.000179438
0.00218771
0.00186915
0.00227683
0.00124208
0.00304699
0.000918845
0.00134686
0.0013768
0.00289634
0.00400694
0.00741015
0.00415748
0.00379637
0.00291788
0.000717893
0.00379639
0.00601281
0.00493037
0.00524619
0.00339258
0.00420052
0.00744238
0.00745864
0.00302424
0.00101104
0.00707265
0.0028473
0.00249535
0.00541942
0.00677764
0.00289213
0.00252565
0.00747085
0.00577521
0.00342936
0.00362311
0.0066639
0.00388163
0.0011595
0.00391327
0.00387033
0.00589284
0.00720644
0.00199666
0.00482318
0.00603451
0.000811962
0.00144919
0.000998708
0.00690397
0.000988972
0.000451023
0.00679867
0.000361982
0.000824121
0.000611749
0.00397092
0.00501281
0.00430065
0.00155309
0.00708346
0.00445704
0.00454516
0.00399153
0.0028171
0.00363453
0.00350745
0.00115007
0.00441274
0.0028996
0.000903478
0.00401615
0.00040356
0.00188287
0.00130009
0.00685443
0.00308179
0.00200219
0.00614398
0.00489498
0.00193306
0.00730566
0.00245422
0.00183457
0.000414328
0.00728989
0.00166016
0.00554099
0.00309077
0.00315111
0.00569981
0.00141749
0.00499059
0.00227398
0.00490676
0.00132427
0.000278605
0.00416536
0.00717324
0.00098857
0.00480833
0.00037208
0.00381333
0.0038086
0.00460087
0.00444149
0.00567972
0.00720516
0.00400478
0.00233606
0.0056507
0.00220116
0.00411962
0.00380853
0.00729588
0.00233059
0.00111798
0.00407217
0.00477518
0.00526132
0.00483098
0.00312777
0.0042857
0.00458926
0.00602961
0.00241204
0.00265914
0.00747212
0.00394406
0.00381417
0.00522973
0.00386773
0.00348481
0.00316741
0.00368653
0.00402266
0.00315825
0.00394581
0.00603139
0.0049436
0.00651218
0.00211935
0.00226159
0.00196182
0.00362724
0.00490863
0.00432766
0.00130495
0.00578724
0.00550301
0.00560441
0.00161215
0.00300167
0.00130332
0.00128342
0.00127057
0.00357187
0.00470535
0.00452973
0.0043943
0.00659799
0.00123676
0.00417299
0.00678273
0.00426653
0.00325065
0.00433706
0.00138949
0.00441187
0.00238556
0.00288776
0.00350278
0.00626572
0.00458143
0.00381076
0.00388377
0.00474739
0.00307022
0.00340042
0.00292789
0.00378707
0.00508369
0.00495549
0.00218827
0.0019524
0.0049248
0.0042393
0.00237939
0.0038063
0.00230712
0.00704726
0.00570133
0.00237233
0.00477703
0.00597767
0.00474316
0.00700412
0.00694846
0.00371436
0.00445091
0.00203575
0.00459086
0.00255437
0.00646387
0.00457243
0.000977964
0.00416637
0.00428047
0.00532241
0.00531862
0.00403382
0.00432321
0.000340032
0.00348484
0.00465705
0.00628897
0.00544083
0.0050711
0.00732601
0.0065393
0.00352136
0.00418827
0.00664929
0.00700539
0.00310233
0.000994602
0.00138146
0.00307833
0.00182944
0.00353175
0.0040478
0.00355614
0.00165966
0.00199131
0.00349033
0.00410325
0.000865326
0.0049629
0.00410981
0.00396144
0.00407749
0.00703712
0.000325541
0.00479827
0.00369796
0.00742761
0.00272112
0.00289279
0.000410496
0.000249377
0.00480716
0.00605947
0.0071757
0.0040848
0.00374036
0.00541115
0.00022859
0.00112478
0.00493977
0.00257076
0.00143609
0.00509946
0.00497332
0.00316709
0.00717542
0.00516455
0.00691968
0.00442391
0.00284856
0.00400181
0.00433449
0.00534234
0.00207452
0.00440453
0.00743717
0.00128225
0.00571947
0.00369831
0.0033647
0.00102902
0.0014512
0.00351771
0.00287969
0.00561817
0.00284779
0.00291802
0.00622362
0.000607244
0.00156147
0.00287976
0.0039739
0.00340099
0.00395628
0.00392575
0.00123085
0.00734448
0.00690768
0.00574315
0.00538947
0.000944795
0.00135871
0.00134062
0.00184738
0.00320994
0.00287984
0.00738498
0.00738158
0.00454942
0.00523507
0.00523454
0.00582605
0.00731915
0.0011477
0.000498275
0.00723702
0.00705631
0.00324826
0.00185888
0.00325275
0.00725321
0.00543263
0.00166165
0.000928974
0.00351971
0.00205418
0.00443902
0.00161336
0.00054981
0.00303021
0.00650656
0.00726971
0.0061717
0.000930562
0.00570808
0.00435014
0.00434411
0.00730037
0.000965369
0.000323901
0.000524238
0.00169432
0.0020469
0.00643745
0.00716113
0.0024967
0.00426928
0.00098588
0.000811291
0.000719333
0.000455028
0.000756946
0.00180873
0.00658207
0.000868266
0.00739782
0.000390087
0.00390568
0.000738693
0.00446655
0.00186314
0.00626254
0.00308263
0.0022476
0.00225526
0.0051529
0.00560021
0.00399057
0.000938712
0.00116737
0.00500494
0.00517602
0.000487374
0.000376387
0.00383111
0.00170879
0.00066887
0.00120053
0.00478028
0.00702329
0.000862043
0.000590791
0.00155922
0.00717114
0.00129959
0.00650921
0.000713366
0.00111524
0.00049074
0.00244255
0.00596374
0.00169536
0.00694239
0.00466212
0.00397591
0.00235525
0.00644793
0.00381358
0.00519527
0.00384427
0.00428234
0.00711562
0.00666219
0.00368452
0.00684638
0.00614401
0.00443457
0.00418851
0.00171802
0.00389749
0.00244401
0.00408438
0.00618186
0.00429032
0.000961807
0.00354814
0.00344016
0.00213195
0.000618342
0.00435003
0.00348456
0.00351326
0.00102835
0.00176482
0.00135641
0.0047489
0.00690336
0.00508378
0.00350233
0.00579625
0.00344705
0.00326178
0.00385357
0.00721587
0.00483074
0.00571945
0.00466411
0.00316941
0.00463146
0.00374182
0.0006996
0.00364245
0.00412243
0.00437197
0.00303017
0.00115753
0.00235602
0.0042145
0.00478593
0.00322
0.00116162
0.00139531
0.00393391
0.00332075
0.000384668
0.00154048
0.00206825
0.00409197
0.00153059
0.0031661
0.00404705
0.00310037
0.00119501
0.00479334
0.00414242
0.00238987
0.0066455
0.00239563
0.00274361
0.00319857
0.0033381
0.00194769
0.00430361
0.00585706
0.00729111
0.00200503
0.00333261
0.00439495
0.00266697
0.00518379
0.000892952
0.00294178
0.00333691
0.000458622
0.00191588
0.00581103
0.00348395
0.00089577
0.00174718
0.0023686
0.00723833
0.00291163
0.00112893
0.00569713
0.00742867
0.000697478
0.00198472
0.00145696
0.00333205
0.00455445
0.00476003
0.00146423
0.000583869
0.000742889
0.00403217
0.00584985
0.00064291
0.00644658
0.00185835
0.00309807
0.00156606
0.00112525
0.00484496
0.00349242
0.00118925
0.00404891
0.00462412
0.00464395
0.00363311
0.00545395
0.000973958
0.000304176
0.00407947
0.00362746
0.000704758
0.000572387
0.000705396
0.00224697
0.00117382
0.00207482
0.000601129
0.00352611
0.00353186
0.000829333
0.00242691
0.0025228
0.000821382
0.00085891
0.00040633
0.00690736
0.00639774
0.000497914
0.00622461
0.00428983
0.000872928
0.00556965
0.00297325
0.00418574
0.00326546
0.0050817
0.00644663
0.000493023
0.000418788
0.00188605
0.000819348
0.00242651
0.00383932
0.00439459
0.00463882
0.00337356
0.00502358
0.0056091
0.00418702
0.00492783
0.000763381
0.000714786
0.00381389
0.00186382
0.00422949
0.00413945
0.00283023
0.0035727
0.00369853
0.00477424
0.000609344
0.0011993
0.00435274
0.000746596
0.00282368
0.0014455
0.00283155
0.00352239
0.000965192
0.00282629
0.00115777
0.00340687
0.0029232
0.00292172
0.00653502
0.0012905
0.0072419
0.00568057
0.00255229
0.00432212
0.00151043
0.00341826
0.00197015
0.003423
0.000906508
0.00398943
0.00343006
0.00368206
0.00718215
0.00309401
0.00340629
0.0018201
0.000365588
0.00298378
0.000669495
0.00350776
0.00458964
0.00357563
0.0046717
0.0052605
0.00504249
0.00325292
0.00131109
0.00185162
0.00135558
0.000659628
0.00349244
0.0043755
0.000170231
0.00104848
0.00449156
0.00356081
0.00137154
0.00378552
0.00077989
0.000467772
0.0026648
0.00115286
0.00138195
0.00286598
0.000815654
0.00181965
0.00682552
0.00348892
0.00109566
0.00118725
0.00682587
0.00102042
0.00739112
0.00263599
0.00508148
0.00262801
0.00192892
0.000925371
0.00106211
0.00589126
0.00568927
0.00025236
0.00718322
0.00446723
0.00119948
0.00616384
0.00285418
0.0034001
0.00361143
0.00053172
0.00154447
0.000678917
0.00174467
0.00315238
0.00120128
0.0060386
0.00518863
0.00111323
0.00684167
0.00375918
0.00264998
0.00522811
0.00139147
0.000556859
0.00704454
0.00245994
0.0072362
0.000806001
0.00453627
0.000614924
0.00283501
0.00261493
0.00642519
0.00255552
0.00268572
0.00671705
0.00529117
0.00333459
0.00731738
0.00135276
0.00335763
0.00354656
0.00614851
0.00437106
0.00353506
0.00268992
0.00291123
0.00198226
0.00318037
0.00393385
0.00413798
0.00154865
0.000621517
0.000832196
0.000741635
0.00127379
0.000867555
0.00093008
0.00298407
0.000270552
0.000731004
0.00127401
0.00200517
0.00279565
0.00108319
0.0010311
0.00243578
0.00137764
0.00215036
0.00612027
0.00283022
0.00124093
0.00394378
0.00060084
0.00311516
0.00044548
0.00198441
0.00119988
0.0014463
0.00126847
0.00078022
0.00194223
0.000652487
0.00268027
0.00206161
0.0044331
0.00174285
0.00511497
0.00589513
0.00100093
0.0034255
0.000956567
0.00171989
0.0050989
0.00236393
0.00412488
0.00136002
0.00114403
0.00754135
0.00562725
0.00162135
0.000994342
0.003701
0.00270509
0.00115039
0.00114795
0.00451465
0.0072615
0.00390754
0.00420155
0.000759786
0.00737091
0.000945228
0.000361919
0.00510766
0.00276559
0.00423529
0.00380872
0.000857814
0.00280098
0.000761851
0.00329621
0.00440298
0.000553195
0.00099939
0.00545383
0.00237359
0.00543434
0.00669981
0.0012155
0.0027762
0.000779978
0.00375985
0.00637347
0.00241434
0.00700592
0.00498842
0.00537713
0.0050897
0.00275786
0.00249611
0.00142344
0.00371781
0.00116249
0.0046367
0.00695412
0.00217808
0.00131943
0.00087188
0.00089993
0.00172964
0.00198893
0.00107084
0.000995153
0.000803208
0.000894098
0.00322771
0.00302038
0.00406295
0.0014062
0.00507327
0.00294923
0.00318305
0.00148471
0.000548582
0.0034815
0.00312002
0.00347592
0.0047156
0.00340552
0.00437009
0.00617856
0.00478557
0.00270395
0.00300631
0.00271044
0.00563424
0.0029716
0.00147701
0.000776796
0.00421511
0.00059752
0.00744527
0.00333538
0.00698892
0.00446574
0.000957191
0.0027288
0.00120861
0.00374397
0.00358161
0.00362788
0.00450672
0.00492674
0.0034599
0.00329851
0.00430787
0.00742178
0.000839101
0.00312923
0.00130544
0.00290031
0.00104157
0.00594034
0.00458908
0.00345303
0.0039287
0.00295099
0.000997792
0.00660413
0.00403662
0.00085362
0.00246756
0.00243078
0.00281211
0.00243954
0.00242717
0.00222348
0.00505206
0.00751037
0.00671041
0.00202244
0.00159439
0.0047851
0.000473
0.00530523
0.0018245
0.00703062
0.00641864
0.00194754
0.00435642
0.00635715
0.00103508
0.00742106
0.00418053
0.00151724
0.00266763
0.00710289
0.00135742
0.0068138
0.00715227
0.00117274
0.00312827
0.00288598
0.000822709
0.00742468
0.00205562
0.00141578
0.00171873
0.00100017
0.0011795
0.00491824
0.00582424
0.00289915
0.00605306
0.00197881
0.00293719
0.00549749
0.00620499
0.00348119
0.00121121
0.00299149
0.00433832
0.00235776
0.00342036
0.00249893
0.00738855
0.00209995
0.00122957
0.00365699
0.00357674
0.0052032
0.00500314
0.00329494
0.0043257
0.00222194
0.00351006
0.000631542
0.00427421
0.00693156
0.0010447
0.00286885
0.000668346
0.000993031
0.00576447
0.00344349
0.00128962
0.00309266
0.000546549
0.00147372
0.000622854
0.00151861
0.000652022
0.00302986
0.001933
0.00160321
0.000570305
0.00118225
0.00295595
0.000717135
0.000470125
0.002355
0.000342146
0.001034
0.0023045
0.00263637
0.000928912
0.000961862
0.0074463
0.00370878
0.00102918
0.000785421
0.00109553
0.0013621
0.00161818
0.000815814
0.00285507
0.00367662
0.0044084
0.00707212
0.00314856
0.00659875
0.00108012
0.00297247
0.00437241
0.000708044
0.00390724
0.00231729
0.00442342
0.00649628
0.00317946
0.00428101
0.00179428
0.00680993
0.00186834
0.000606817
0.00490319
0.0070698
0.00335228
0.00517596
0.00107655
0.0029793
0.00567319
0.00642011
0.000604776
0.00646023
0.0037652
0.0070363
0.00175674
0.00317201
0.0044224
0.00583942
0.00516853
0.00141602
0.00361305
0.00253828
0.00751304
0.00719186
0.00700308
0.00406282
0.00462054
0.00361051
0.00589484
0.00339043
0.00362924
0.00260676
0.00131649
0.00120521
0.00338474
0.00190538
0.00418749
0.00271159
0.00350269
0.00372849
0.00651153
0.00316661
0.00429793
0.00638057
0.00217237
0.00463021
0.00309092
0.00111324
0.0049041
0.00276465
0.00126823
0.00390742
0.00115271
0.00196541
0.00119173
0.000360559
0.00280737
0.00539938
0.00198314
0.000474666
0.00376708
0.00716808
0.00636229
0.00558486
0.00350983
0.00459065
0.00730503
0.00718713
0.0038477
0.00285329
0.00745754
0.00662168
0.00744487
0.00545301
0.00308429
0.00182809
0.00306
0.00625097
0.00346891
0.000951005
0.00535504
0.00606125
0.00368707
0.000560733
0.000623132
0.00374889
0.00539617
0.00496678
0.00322303
0.0048101
0.00065118
0.0018618
0.00496568
0.00404165
0.00616553
0.00351143
0.00187536
0.00406147
0.00325118
0.00360465
0.00136207
0.00197409
0.00166802
0.000985581
0.000330915
0.00242254
0.0019364
0.0038186
0.0039156
0.00344689
0.00325984
0.00600749
0.00439431
0.000477998
0.0068679
0.00181189
0.00121157
0.00333519
0.00297811
0.000672392
0.00203109
0.00406118
0.00385132
0.00745032
0.00302139
0.00101428
0.00382236
0.00160988
0.00534195
0.00279969
0.000726804
0.000890507
0.00342116
0.00327724
0.00110683
0.00471617
0.000706589
0.000643861
0.00126775
0.0074196
0.00703793
0.0003752
0.0061865
0.000509088
0.00209353
0.00317666
0.00113085
0.00100278
0.00634989
0.00742406
0.00097692
0.00643069
0.00600988
0.00497553
0.00676997
0.00429522
0.00381932
0.00229018
0.00570865
0.000367188
0.00318517
0.0042917
0.00380528
0.000322267
0.00422341
0.000579855
0.00492437
0.00338949
0.00373089
0.00114132
0.00560141
0.0047948
0.00495748
0.000977524
0.00200391
0.00202962
0.00139993
0.00275182
0.00631475
0.000819384
0.00322437
0.00327536
0.00324958
0.00437665
0.00316771
0.00386951
0.00715613
0.000389041
0.0013717
0.00448667
0.00492697
0.00245017
0.00421288
0.00277886
0.00305113
0.00490668
0.0023091
0.00461724
0.00491869
0.00419146
0.0015348
0.00452223
0.00468714
0.00484815
0.00353194
0.00673722
0.0053791
0.00517409
0.00278494
0.00419329
0.00271788
0.00256497
0.00364352
0.000554724
0.00501479
0.00293585
0.0013492
0.000999014
0.00152265
0.0037056
0.00422401
0.00191541
0.000491233
0.0039747
0.00105667
0.00400776
0.00729722
0.00275223
0.00175933
0.00384866
0.00459484
0.00745591
0.0051324
0.000349068
0.00509616
0.0066449
0.00252917
0.000438258
0.000613628
0.00379519
0.000295165
0.000743375
0.00113974
0.0018898
0.000922742
0.000570568
0.00525263
0.000982178
0.00395601
0.00542967
0.00496645
0.000552487
0.0021081
0.006943
0.00585134
0.00102705
0.00453664
0.000553264
0.00557616
0.00293269
0.00493375
0.00294782
0.000651454
0.00741507
0.00315839
0.00283132
0.00578092
0.00370966
0.00602065
0.00289184
0.000511314
0.000505047
0.000686689
0.00151778
0.00131591
0.00602627
0.00644836
0.0051656
0.00368171
0.00718012
0.00156007
0.00736833
0.000999194
0.00420259
0.00682795
0.00597191
0.00476503
0.00690304
0.00340225
0.00299849
0.00717344
0.00314065
0.000930557
0.00569424
0.00110035
0.000933729
0.00661903
0.000293419
0.000570091
0.00281257
0.00293478
0.00383702
0.00128284
0.00434386
0.00207607
0.00136841
0.00561367
0.00167471
0.00728379
0.00212911
0.00419062
0.00234797
0.00195783
0.000822083
0.00332803
0.00392267
0.000706067
0.00136972
0.00209673
0.0017912
0.00566123
0.0015282
0.0042891
0.00191246
0.00319198
0.00612272
0.00133228
0.00259431
0.00237344
0.00648273
0.000656353
0.000857346
0.000595546
0.00598827
0.00428364
0.000915301
0.000627921
0.00185418
0.00385947
0.00250966
0.00112513
0.000839106
0.00186867
0.00477746
0.003578
0.0043536
0.00526082
0.00399967
0.000610576
0.005186
0.00184259
0.00313297
0.00687689
0.00259555
0.0026551
0.00532714
0.00390828
0.00574567
0.00228642
0.00154206
0.00470705
0.00424072
0.00214739
0.00325177
0.00283027
0.00196392
0.00208289
0.00360435
0.00624028
0.00601284
0.0054837
0.000789746
0.00375574
0.00102526
0.00295249
0.00388962
0.00527765
0.00338487
0.00700237
0.00248336
0.00747179
0.00219043
0.00238761
0.0035922
0.00446343
0.00241082
0.00346361
0.00280344