/*--------------------------------*- C++ -*----------------------------------*\
| =========                 |                                                 |
| \\      /  F ield         | OpenFOAM: The Open Source CFD Toolbox           |
|  \\    /   O peration     | Version:  2506                                  |
|   \\  /    A nd           | Website:  www.openfoam.com                      |
|    \\/     M anipulation  |                                                 |
\*---------------------------------------------------------------------------*/
FoamFile
{
    version     2.0;
    format      ascii;
    arch        "LSB;label=32;scalar=64";
    class       volScalarField;
    location    "0.047171";
    object      omega;
}
// * * * * * * * * * * * * * * * * * * * * * * * * * * * * * * * * * * * * * //

dimensions      [0 0 -1 0 0 0 0];

internalField   nonuniform List<scalar> 
47425
(
57.5399
67.5417
72.3608
163.878
139.23
72.3806
93.8485
103.208
49.3944
602.152
139.824
46.0852
70.3244
80.0428
95.9607
90.2508
69.1966
48.8687
1245.73
182.59
86.3544
46.2757
107.03
64.2451
47.5231
45.0941
78.823
682.21
71.0566
56.2252
45.2999
46.922
47.7537
67.0464
54.4478
67.9101
45.6407
67.5612
65.4071
75.2882
72.9684
88.0032
151.456
144.996
1401.55
106.883
97.2234
77.6239
79.0625
48.4365
582.123
228.213
50.339
799.187
114.737
123.945
44.9892
57.7467
83.4732
62.1134
1099.85
1137.19
886.278
45.873
49.3527
46.2336
61.8139
83.5013
764.057
45.835
78.643
51.7245
48.596
91.2894
690.191
49.404
870.007
81.9668
1375.01
259.339
715.802
65.0433
44.5569
47.0146
46.6679
83.259
53.7889
50.4289
113.432
412.689
45.8332
77.8644
45.0129
115.331
148.287
196.123
49.4475
52.2263
88.2847
79.8596
60.7476
91.7874
52.6447
97.9912
50.0207
54.0702
47.7067
93.8291
49.0695
47.6381
360.121
63.2382
69.5466
156.03
47.5529
910.47
47.043
230.189
79.9462
61.5257
79.6302
48.5463
58.4931
62.3852
98.2587
58.5035
85.774
49.1904
106.464
44.4258
45.9161
98.0776
129.948
122.371
79.404
67.4692
48.5568
61.059
69.2428
98.6995
71.0155
134.716
72.1811
85.3603
53.1226
49.329
109.726
62.9564
152.812
72.4
84.4071
491.949
48.7593
701.547
47.6029
85.4178
59.0202
908.695
94.075
73.7806
47.2997
44.8899
50.4645
47.4163
400.455
836.414
45.9783
697.352
106.976
708.286
705.486
87.2146
73.8722
46.437
73.5404
66.9096
721.327
70.7299
52.8379
45.4193
1010.16
47.4713
60.5794
46.9165
47.5544
48.9209
56.6931
79.2224
149.933
54.8447
47.9291
71.7017
81.3561
77.0243
47.9779
45.0958
61.8719
73.8093
46.0193
82.5276
66.4738
123.151
47.6131
45.9386
50.5107
159.219
53.6221
45.3974
87.7347
48.445
63.5451
66.5998
47.2822
94.7444
62.906
63.4488
73.792
249.516
48.4132
93.9295
283.18
118.794
110.409
96.5744
167.487
237.987
47.8829
131.383
50.7655
59.9702
70.7245
73.484
105.986
49.3229
166.388
94.4334
318.847
115.14
264.242
181.979
84.216
58.6685
44.3028
104.189
45.2022
49.4638
68.7635
60.6417
44.5142
77.92
44.14
215.737
67.3801
49.2835
91.9684
44.345
47.4541
121.644
95.9474
48.3543
126.236
47.3043
78.4534
135.973
70.0884
91.1938
45.6056
70.2775
62.7038
82.7287
79.9354
231.831
310.633
48.2892
217.552
180.365
218.199
115.322
295.119
180.961
1149.65
56.0727
1085.42
125.252
80.5799
86.8437
105.963
91.8861
91.6192
48.8842
619.988
46.0134
50.3439
57.188
68.0152
100.395
113.254
46.8731
66.5764
56.8393
89.9014
45.0709
88.0259
60.5911
797.671
1046.41
679.705
44.3455
48.8991
44.6736
102.964
692.877
87.6132
118.44
237.685
75.378
105.498
123.293
93.3474
403.643
209.878
46.4133
61.4102
47.3686
83.2762
44.8727
78.9276
61.7744
52.3117
72.3869
82.8425
645.638
55.1621
76.0141
129.144
44.5839
670.388
52.3768
46.4428
52.4244
46.876
47.1511
44.9355
53.5246
49.5921
51.4705
59.4067
48.2389
83.2925
85.7036
48.1954
46.3495
63.4424
48.887
49.5505
48.9371
81.2282
44.2071
50.3412
93.4369
56.652
60.0098
80.2357
94.7139
48.1444
49.6967
132.694
48.2247
68.1721
45.7158
131.97
1028.21
78.2685
45.6591
200.233
45.542
84.2817
94.5472
72.5515
45.9607
63.5141
45.983
44.3339
73.7699
87.6005
82.8549
84.7296
52.9253
48.7839
84.349
49.0994
47.7056
81.977
56.714
66.016
49.2013
62.9559
90.6609
64.8557
48.8684
488.551
46.5713
395.653
71.8153
106.861
104.603
48.0269
147.268
47.1998
95.7068
47.4475
583.767
358.135
44.1583
50.421
81.3062
86.9854
82.0052
75.8148
81.3348
90.1714
68.2804
45.2186
103.078
71.3949
49.4495
82.9848
78.5551
53.5669
143.108
1396.66
48.0921
281.493
1158.11
90.6775
1190.69
866.258
48.8156
81.1535
76.5511
79.5364
740.821
89.5973
50.0887
50.5264
75.3623
75.9674
81.8114
81.0592
468.629
809.934
149.907
65.55
72.6526
133.492
57.0671
45.2674
67.0942
44.7605
83.9918
75.8117
132.705
69.1937
49.3502
79.5438
59.7675
79.5903
45.3331
65.2737
67.8096
66.6911
63.5407
109.74
123.358
62.6321
85.1162
45.0113
502.536
130.771
74.0607
46.4614
138.592
249.602
48.529
44.4188
48.6732
47.3967
67.9311
50.1345
108.328
83.9224
48.894
53.9558
146.3
98.9907
47.0036
51.8179
58.3488
55.3894
48.2635
51.9453
45.2381
69.4596
58.2112
112.923
61.6637
47.8892
44.6572
45.1437
75.4139
129.334
46.2936
44.2199
56.3238
55.8704
56.5841
60.052
71.0546
73.0907
52.022
76.9228
100.903
432.355
61.9643
69.3776
54.1406
49.3452
126.862
126.355
78.0048
49.5525
81.7911
102.277
48.5396
136.679
48.4606
256.804
49.659
52.166
58.4249
121.652
44.1273
73.0257
73.7586
47.8452
44.6599
51.3745
1148.4
63.2036
150.124
46.7378
96.5918
46.9035
58.8922
81.8713
72.0541
70.8991
46.4083
404.178
54.4739
59.0448
54.8852
49.5493
45.1088
58.582
116.204
48.7379
53.7459
68.1706
45.3855
240.499
45.7443
61.6961
519.013
72.6935
44.5872
367.357
561.985
46.7546
679.503
707.263
71.7109
46.7022
52.5481
45.1481
85.6528
90.6405
603.235
45.5318
129.691
50.2808
107.798
57.3864
85.3698
67.6833
536.198
329.001
52.4907
95.1076
95.5253
85.6285
123.498
127.032
49.5803
98.7262
132.909
94.2803
67.5997
132.361
51.8454
48.4421
132.794
94.4244
78.7813
123.236
102.506
68.0292
73.4118
58.9534
54.6629
67.9767
48.6012
47.3488
1334.03
62.1172
74.7912
1037.67
1006.84
44.6612
77.8284
1666.01
172.178
91.5239
293.719
119.463
772.672
59.1794
49.1359
60.0736
163.536
113.737
112.843
46.6396
119.449
66.9415
84.0223
49.1997
81.562
57.7418
426.775
695.684
123.817
50.145
87.1706
44.746
110.049
47.4568
58.2481
63.5067
65.3091
46.1794
182.049
75.6149
47.836
69.3806
189.921
823.339
214.147
88.7426
44.4395
75.0213
44.9956
805.762
71.1757
599.079
85.1729
106.964
65.7914
70.2758
60.0987
87.1399
54.7742
88.6535
56.4178
208.655
89.0776
49.2339
70.6493
90.1921
857.757
65.7087
204.119
67.9113
48.665
44.9546
145.122
80.0951
70.5443
46.1238
64.6421
66.4084
74.1534
81.1979
80.38
64.7473
125.279
193.302
71.2748
97.3477
67.8249
115.051
93.0974
48.5567
126.106
61.466
76.8802
79.8249
45.4849
295.586
425.394
97.0103
66.3543
47.5702
92.2587
54.4493
138.832
46.4077
245.997
82.8931
45.9249
78.5048
48.14
59.6794
70.6804
49.8751
90.5033
44.3807
46.2457
48.7458
165.166
43.7089
370.689
237.321
251.032
357.28
81.282
228.788
58.719
47.9485
148.254
339.979
372.676
103.335
60.8764
123.657
117.938
162.119
131.344
95.3864
53.3576
70.9773
100.088
114.94
57.2662
83.5259
367.479
58.7116
62.7141
153.542
121.586
116.744
155.749
759.409
493.694
229.849
254.023
80.6765
120.26
45.0693
47.6917
72.9267
415.746
181.509
72.7046
73.8395
45.1275
361.654
374.891
44.4576
171.517
91.4861
44.5499
168.115
44.5139
44.8328
73.0698
73.1604
86.0825
49.2547
44.6827
61.4068
69.8607
68.494
140.421
104.959
44.7408
249.583
48.2965
46.6361
47.0809
199.268
80.1211
266.896
120.881
54.909
44.5039
68.6925
1283.54
73.5971
84.901
73.1579
65.7895
61.2144
117.594
122.823
127.944
276.432
92.4906
777.831
49.4172
67.1583
55.496
61.7481
45.6442
169.302
128.36
45.1404
306.266
97.9073
71.0128
257.539
76.3349
54.0794
72.5188
66.682
70.1395
112.715
338.992
67.1588
73.0243
209.907
223.608
666.46
218.212
90.4955
178.307
45.6664
48.5222
102.4
168.286
87.3018
84.2357
95.012
104.135
48.3528
68.5478
106.752
100.424
90.9535
313.561
536.9
95.3062
116.006
144.702
712.679
383.577
210.399
93.5601
67.1501
96.5916
94.2975
184.782
46.2621
48.9867
96.501
439.808
122.188
71.7985
98.4572
54.7725
110.153
128.184
78.6038
476.953
53.8518
65.1018
131.332
97.2613
65.4198
66.1354
104.735
101.186
92.9013
59.5823
128.922
46.5782
45.853
47.1967
82.2735
58.0814
152.113
53.9984
221.843
293.939
271.475
98.6337
83.6985
46.8634
70.3014
115.17
488.002
234.964
915.948
45.9635
59.16
55.2006
319.035
88.9267
308.471
239.369
233.53
136.717
229.99
91.0978
86.859
73.5621
47.1966
121.93
68.3059
74.08
228.497
76.6248
66.6896
51.1579
264.015
412.95
150.673
192.318
660.388
193.138
93.1887
70.314
89.5363
108.389
186.387
190.003
635.261
47.4111
58.1072
72.9132
47.8592
63.9819
101.954
97.8403
53.9504
114.935
53.0722
78.1623
52.1515
47.3135
126.376
65.9052
120.718
46.3038
46.1396
164.671
48.0203
99.8038
106.271
46.2517
63.4843
115.746
78.8097
67.4468
80.4721
539.338
185.897
125.523
108.862
1869.97
1020.15
655.391
435.497
104.333
50.1894
1092.8
417.02
55.0215
64.9779
107.869
86.7107
391.939
140.052
47.2786
114.752
58.3793
49.2632
206.888
941.157
140.817
1190.59
154.311
247.076
718.983
57.0901
78.5789
134.738
299.318
94.1888
48.3723
48.0667
847.004
92.2885
356.093
73.5829
164.209
49.2758
54.0005
550.478
563.725
84.1944
55.1144
74.1308
477.76
45.4765
50.5696
435.907
569.923
72.7808
45.9049
1055.37
832.325
553.584
100.66
239.159
497.42
527.795
80.1585
91.8834
104.431
64.2985
109.299
541.168
1408.16
63.9656
60.3855
59.07
52.3224
49.4519
82.1304
138.557
66.7681
49.5562
48.3634
82.6901
364.682
1128.95
51.8248
231.156
99.1391
74.0467
185.177
57.0989
90.7896
76.0475
48.0042
200.914
53.42
499.12
45.4942
790.194
528.526
524.302
204.867
96.9518
64.1185
104.545
54.1185
211.603
1448.33
105.343
389.463
187.789
455.749
155.576
789.412
623.767
93.2579
52.5705
1561.31
86.1448
49.4453
74.3474
563.649
1062.58
80.9407
52.4239
471.98
79.2052
873.479
764.418
108.897
118.67
872.607
104.214
46.4862
563.903
52.6236
596.409
1017.13
45.0815
69.252
85.0404
56.5679
124.432
102.941
44.3988
122.84
90.2228
117.84
57.8855
44.7264
182.273
175.231
613.835
52.8989
97.3822
226.833
46.265
828.929
86.3901
114.991
152.095
539.858
87.224
468.425
182.591
143.964
57.0154
631.082
221.972
285.632
83.4249
161.245
61.8774
76.0303
69.4467
335.85
259.822
107.636
723.568
150.102
106.667
281.959
128.086
145.952
783.295
336.232
50.8283
158.737
83.8622
148.416
308.09
988.412
58.3926
46.7037
62.3937
515.308
63.5033
312.973
59.9163
62.3357
47.7196
146.582
56.3891
210.105
310.353
54.0508
62.0333
93.0035
81.5603
994.364
365.057
116.815
739.399
363.221
121.982
228.145
64.2446
57.954
1089.71
57.478
405.245
316.042
47.6841
59.7357
85.6023
96.2608
56.2944
71.4623
134.088
78.5524
79.0704
67.4973
82.5374
251.299
67.2448
196.435
157.213
200.773
56.4714
734.419
424.569
56.6813
547.844
239.664
57.5358
110.484
661.499
220.762
48.5643
183.119
395.14
189.042
455.807
58.1635
568.163
108.864
54.9985
68.7218
110.21
178.156
125.992
66.3816
257.475
50.0334
241.895
108.736
1243.07
145.87
80.643
121.834
256.184
55.9748
251.07
108.233
111.269
660.66
79.4243
78.0782
1031.93
44.6464
104.173
379.917
61.822
275.567
778.067
153.549
74.6638
83.3909
963.064
305.572
385.01
317.359
78.0395
69.8254
102.804
662.781
795.164
285.08
89.1728
48.2649
87.4991
88.5878
130.879
337.33
93.4748
56.2529
62.0239
61.3663
46.4264
85.9745
45.602
46.9707
121.56
86.7932
46.3696
130.513
237.879
62.9212
48.0603
132.566
63.4606
48.1299
55.8901
102.701
96.4411
50.6888
96.9477
594.537
88.8685
49.3264
55.4671
45.2008
235.423
68.5012
54.8576
698.836
847.616
284.155
48.9632
683.375
152.299
48.6932
1040.18
96.5725
1024.58
91.6237
66.9239
82.6382
67.4044
46.7387
83.1617
84.809
93.8242
116.455
90.2913
105.351
156.506
81.702
78.9088
431.354
86.6984
1305.76
71.0228
677.443
46.8484
120.253
182.992
52.7878
69.1863
190.259
44.4352
515.82
328.827
1265.27
52.9338
643.405
58.4398
112.23
166.77
57.6662
566.679
85.6687
279.702
64.9588
726.717
699.074
80.3296
44.8724
413.901
70.9395
358.984
85.9412
96.8108
71.4136
73.4152
58.2556
47.4122
86.8708
267.857
73.0374
177.898
85.721
87.6351
45.0829
155.963
583.369
90.8852
382.115
102.382
67.8837
121.44
80.9381
74.6807
56.9193
154.158
132.166
48.5694
86.151
81.6884
69.4143
94.5519
397.902
426.234
82.7963
92.1402
310.827
88.3292
53.612
65.4499
49.5239
170.885
167.769
203.941
104.668
70.4906
74.932
66.932
55.6425
57.062
60.2526
466.388
130.709
660.963
502.334
621.426
58.4896
69.324
70.5001
72.9187
49.2217
314.805
81.563
47.7987
80.5689
111.373
74.9161
356.027
73.1377
158.059
108.48
100.248
51.506
71.6851
90.767
90.3306
68.8176
115.277
98.4057
177.644
87.4272
68.9471
78.9633
152.82
172.989
65.9
82.288
135.849
98.4336
171.104
46.0534
55.9732
137.451
69.3867
54.7203
77.2746
46.1081
46.8323
87.0867
76.4639
422.755
72.8423
88.8924
49.5935
71.0528
661.971
81.3839
86.0194
60.2229
62.8718
89.0405
86.8775
950.745
107.602
471.341
51.3481
60.8929
72.3672
44.5353
49.5383
108.73
83.1052
48.8128
46.4772
324.492
107.685
499.868
122.118
255.578
105.138
78.5873
109.804
565.438
183.698
94.3644
80.1833
937.675
65.3834
81.7385
88.9538
84.5406
46.8825
961.693
68.2007
93.2105
46.8846
126.437
56.782
930.321
1028.93
68.4217
53.816
45.4415
92.9264
95.5681
59.7735
1192.17
807.717
65.4553
140.046
439.906
64.9181
124.202
117.934
45.0972
63.0579
47.4883
75.2655
226.602
87.5231
79.5436
46.4315
57.4146
76.3927
48.6143
303.208
63.4554
137.246
156.006
419.888
312.121
103.851
134.645
73.4291
133.155
120.971
45.8434
598.064
322.046
131.228
94.1808
106.042
92.4033
90.0153
321.831
44.7895
46.5199
62.1968
65.0279
133.881
77.7766
369.373
399.616
47.2566
131.232
45.6744
44.9547
80.2599
62.1803
65.3538
55.4449
44.3835
324.734
387.297
45.0953
46.743
200.165
618.19
50.3683
44.1059
86.5526
170.822
924.089
95.1957
386.442
382.433
430.896
385.971
72.0939
49.8505
44.3403
58.4351
956.313
56.2036
85.6816
80.8462
44.3334
750.05
1255.25
1231.67
202.271
481.107
49.9002
46.0502
54.2313
84.4424
802.519
671.49
367.131
551.572
371.046
57.03
50.019
847.784
47.8234
920.06
95.2652
915.722
79.8668
142.474
68.753
180.651
169.168
169.744
99.5659
63.0362
88.905
74.4961
65.718
72.0811
66.4509
1222.5
848.492
90.4603
343.538
751.687
323.247
69.4988
46.7832
672.564
527.116
496.153
46.0768
824.605
50.5977
972.06
672.231
741.274
283.275
53.8785
61.3113
47.4599
72.4576
86.0185
162.668
66.9146
84.9548
62.0039
95.5882
79.4482
45.4957
49.0748
116.811
47.3403
51.8722
79.5161
79.802
91.9367
89.2312
156.197
91.7694
52.501
104.994
102.324
91.1583
95.3441
137.015
1128.76
59.1375
337.635
68.7852
92.7015
423.867
69.4017
55.5733
46.9617
102.475
97.2975
55.1038
107.513
103.404
85.1727
47.5627
68.2049
56.4726
71.8003
107.917
73.6985
100.301
288.925
91.9758
82.4032
77.4392
114.473
81.9406
342.571
46.1947
69.4152
108.684
304.212
303.573
87.0559
104.866
943.092
237.07
188.252
91.426
73.1693
111.643
89.0677
53.64
134.254
79.3129
88.7427
399.725
51.714
167.014
128.913
113.511
106.379
201.34
79.6293
57.7941
45.0921
54.4483
100.464
81.8276
517.32
63.6141
91.6948
127.977
103.815
906.547
57.6674
69.9908
105.38
278.887
386.386
150.106
45.8327
136.083
66.9456
47.8414
44.3165
551.68
101.436
59.6725
415.535
92.9154
70.1327
157.233
813.996
1065.57
153.064
69.7345
931.243
56.743
186.464
130.99
564.409
321.124
80.9246
96.3104
539.613
92.7981
62.064
75.0865
101.151
54.5986
64.9744
357.691
46.4539
102.571
555.641
150.591
566.049
85.0437
429.031
51.5423
1122.83
105.91
106.082
596.085
233.598
292.175
546.17
430.165
279.338
48.4388
51.5796
426.264
56.7752
86.4597
333.339
66.5159
60.4438
78.2159
150.51
71.6184
50.8129
737.038
437.628
165.264
351.871
169.16
92.3394
82.9813
79.6981
117.112
65.5901
56.8782
85.155
62.5248
315.683
330.515
120.963
55.451
83.7826
77.688
117.678
106.994
99.0689
77.8566
337.37
59.9181
64.8269
368.394
132.712
573.465
208.47
99.1565
733.202
138.939
113.235
378.548
135.073
129.038
50.7403
597.642
45.2588
57.0637
53.1083
87.0635
68.7668
103.078
207.997
105.863
129.103
82.8029
111.32
100.757
44.5249
356.785
149.944
592.527
1162.63
107.332
393.845
119.14
71.0801
605.751
69.8525
61.3777
94.7177
110.041
680.25
388.488
54.5584
312.61
382.953
77.6838
1905.65
405.688
112.951
376.662
63.0488
89.0648
240.906
345.875
146.313
748.262
55.6285
52.6004
154.811
53.3457
48.516
106.235
317.304
583.483
46.8603
142.138
45.0521
144.73
64.2981
144.294
313.434
91.0229
278.316
59.698
63.4003
791.462
45.4273
54.3195
112.502
53.5946
126.982
289.732
47.7053
950.6
542.005
889.989
472.134
119.397
68.6501
53.4909
61.8853
84.6427
47.9027
87.8482
150.468
63.9697
73.631
658.879
46.5257
158.733
46.4078
132.833
70.5181
728.43
129.351
99.0937
46.2462
133.645
152.493
49.0463
61.5936
101.257
44.0809
206.244
97.6815
106.524
55.0123
46.5886
103.617
48.6807
129.292
353.207
46.7366
76.0381
49.4494
65.2725
407.986
224.642
128.81
433.065
826.754
395.666
80.104
546.018
434.91
718.947
72.0654
197.499
378.371
323.828
297.502
943.878
56.2306
46.7305
194.77
810.944
53.986
400.629
110.901
420.683
78.7004
69.7096
594.471
576.708
365.547
58.7352
300.878
131.906
450.935
46.3487
207.69
65.233
55.9908
96.5303
97.6564
300.531
113.86
64.6717
162.819
80.1466
256.844
365.892
45.9286
69.7877
56.2427
938.259
85.7406
132.309
180.79
140.143
71.3435
45.7093
92.502
77.2135
436.127
44.6599
105.593
323.903
65.9982
51.2691
78.2859
74.641
683.315
139.611
210.421
97.2684
73.1212
1063.45
836.792
60.6031
146.498
60.7422
48.9351
411.545
80.8844
524.531
56.5615
51.332
98.8881
57.0177
48.7215
61.7186
69.8772
137.791
227.086
328.242
366.534
70.7775
76.4637
47.555
172.385
581.271
924.142
70.7957
531.398
183.595
652.558
79.7655
376.684
111.322
163.72
130.488
84.5467
266.131
73.4526
184.087
113.059
60.2342
1037.57
107.582
524.529
107.41
74.145
110.327
131.879
67.8037
68.9801
311.697
108.019
124.014
57.282
123.962
584.211
129.513
80.2278
162.428
46.7496
62.9364
47.4765
76.3345
79.1578
149.697
72.0426
96.8293
93.3743
73.2165
78.7988
64.9899
75.7513
60.2694
308.922
51.458
106.831
50.6689
69.1767
127.029
79.0498
54.0701
80.3686
100.901
89.8059
129.243
349.714
48.7176
155.837
414.55
158.608
156.246
52.4727
156.809
88.7551
294.862
65.4847
47.4846
53.9303
161.291
58.1195
67.3047
865.456
184.67
360.6
46.4914
51.4898
182.311
81.1883
55.676
131.938
49.1084
82.2061
55.7908
391.683
46.3113
155.796
47.984
47.8713
77.3042
67.3294
133.355
105.906
44.4746
290.605
66.3353
69.4061
90.033
803.666
66.0663
61.8089
129.429
61.2886
57.0504
125.679
58.5455
51.889
107.573
202.849
126.394
85.3071
409.047
109.806
256.406
48.5145
182.402
65.273
95.4985
207.828
50.4694
101.3
64.8526
82.1023
159.156
68.8756
587.611
108.453
47.9574
514.573
131.397
1190.61
302.476
166.972
87.9685
95.3243
122.135
377.413
62.8549
451.142
91.3758
367.838
66.7176
377.531
65.9296
247.428
219.394
126.487
373.406
522.221
422.925
1151.28
549.365
576.217
424.057
456.307
334.014
45.2196
97.009
317.012
69.8234
626.417
58.8684
476.177
621.029
122.176
101.589
77.4413
45.4769
115.379
48.7651
249.619
132.861
84.8629
184.072
86.1392
156.305
72.229
54.2406
113.297
50.6387
222.174
47.5798
69.4129
702.978
65.9863
44.8652
105.749
63.5722
685.293
281.487
71.09
65.6286
174.466
50.1858
84.1849
50.2633
53.2195
106.806
78.2612
57.1968
63.4092
301.378
90.0845
57.2391
45.8226
44.9405
47.0277
182.129
73.6337
98.3646
55.3172
77.7824
99.2471
55.4999
248.366
72.8408
48.8504
60.4445
84.112
141.354
112.294
99.7089
51.7697
120.228
85.5161
53.5838
53.3848
78.2367
81.4757
100.563
70.2923
126.31
66.5583
87.9489
116.557
293.269
741.593
1122.81
125.338
61.5266
460.889
171.073
152.336
47.0119
51.2904
45.8705
91.4982
75.2649
45.1914
46.5413
48.0715
114.287
44.4381
49.7385
45.4738
60.6232
175.497
55.411
116.932
53.1331
97.0378
249.739
60.399
54.6583
61.4384
1062.77
896.668
99.8214
67.1393
68.4253
59.6267
88.5739
510.688
65.7665
68.6365
91.4972
45.1052
96.0208
53.1326
84.9895
113.653
92.1444
63.8345
206.6
263.35
65.4943
2076.32
228.475
202.668
61.329
86.7308
102.189
116.159
53.6908
76.5379
308.198
46.9192
196.169
597.26
107.193
125.426
660.702
66.2835
81.3346
93.2277
44.8124
121.063
404.641
92.9978
89.9017
440.238
209.696
1130.03
614.427
99.8154
49.7952
141.979
69.115
183.954
147.852
559.505
49.8489
46.2609
641.422
52.6484
196.797
76.7078
105.088
648.635
855.526
50.8936
45.0997
930.513
50.2185
54.4608
65.6224
47.9945
82.5354
146.267
256.763
61.6425
569.721
107.059
52.0179
87.0115
706.322
81.8994
609.419
66.3738
61.009
87.7526
85.4836
60.1496
108.537
65.3048
577.122
111.801
114.72
512.129
125.15
54.6225
610.959
109.67
108.534
81.6839
146.412
110.391
78.1876
46.9899
260.526
73.1518
73.9437
65.3271
118.925
81.0538
59.0793
48.3726
66.0054
151.12
71.0945
67.1104
82.3133
433.385
74.3092
70.2613
67.578
95.7776
48.8434
64.0541
63.2711
133.459
104.584
142.499
150.1
91.0447
405.473
62.7226
57.4322
449.029
369.184
513.462
90.9058
336.002
54.5994
553.966
95.7385
355.922
96.5339
45.7519
117.033
203.406
94.2404
69.3853
45.5887
63.6691
434.029
63.9848
51.4701
54.731
1647.72
358.963
46.8395
1517.19
570.127
334.755
206.225
1172.8
305.047
75.2784
355.84
90.6492
75.577
404.774
1048.35
63.9923
47.0645
55.6518
506.458
47.3864
1049.8
100.822
130.537
120.061
127.26
338.931
44.6613
116.396
123.839
55.8075
106.281
53.2568
123.74
1981.58
1963.27
821.382
96.7808
606.603
46.0608
49.4733
62.7553
101.881
45.4135
56.1501
45.163
73.2817
90.8537
47.1415
54.4005
77.366
46.8924
101.028
122.615
46.4
116.73
125.484
46.147
55.729
890.574
56.7648
837.736
609.113
128.929
134.518
84.5274
123.518
68.6112
54.6773
483.331
58.4184
59.9976
49.1437
53.2251
79.1694
143.381
117.175
179.577
112.832
49.3007
542.661
62.7016
307.004
324.303
63.6842
691.571
77.1523
56.8216
60.6544
57.4513
65.8766
49.6535
130.834
51.6049
383.901
214.604
382.896
56.9795
57.2311
82.8915
346.579
431.198
88.8355
147.625
64.6637
347.264
64.1848
145.486
489.188
86.2406
56.5187
91.8197
1046.8
63.6455
59.0289
120.943
49.1975
138.073
129.841
108.794
85.4056
276.237
171.005
626.758
72.0551
274.221
383.723
346.424
54.4467
177.68
99.6645
103.858
54.0814
62.1822
63.2682
473.374
85.9877
99.6376
212.6
83.0319
63.0086
98.4627
47.8324
145.367
48.2565
63.4096
167.623
103.655
80.2124
169.249
100.062
89.0214
81.4698
128.031
46.5476
304.722
274.294
109.322
103.135
46.5393
326.137
60.614
46.7618
86.3691
48.5923
108.923
90.2756
49.9504
54.2959
100.132
278.604
239.44
49.6423
809.94
45.7015
97.5306
96.4283
48.1646
778.6
149.979
670.234
50.0865
68.9784
535.294
678.175
90.2591
103.486
189.061
127.987
52.0569
93.5117
63.3416
147.687
82.3429
135.473
49.7918
136.351
101.861
108.977
62.4785
89.3229
45.2992
61.6507
574.006
317.958
108.092
81.5409
104.113
87.4803
87.3767
157.007
45.5692
51.1186
60.3514
88.0066
82.9366
66.6261
114.085
54.9198
57.8484
52.9047
73.1181
58.1295
69.5518
187.927
80.8246
69.0968
1108.15
79.5966
65.4525
79.7221
45.3226
83.9431
209.362
48.2705
78.256
81.5626
762.956
64.3044
62.7952
95.1597
1511.97
95.8762
156.758
123.056
66.546
50.8318
76.3987
64.2419
840.627
94.9596
68.327
65.4002
46.722
274.732
47.6721
504.289
423.08
112.121
74.6416
59.3262
113.712
89.5376
58.952
432.119
118.852
307.565
44.7116
139.296
653.459
118.698
50.6423
101.65
55.0709
693.531
58.6627
54.8351
91.2295
44.9451
61.1369
87.8645
52.4466
312.889
46.3595
372.374
46.7551
75.4336
67.0284
149.194
88.6637
128.776
112.711
554.877
107.021
121.191
75.8276
46.249
103.529
58.6737
53.9345
82.1409
77.651
63.8507
126.349
47.0243
64.7479
47.5301
287.188
87.2147
609.148
537.833
326.352
160.51
67.0116
69.7347
61.4497
196.424
92.0987
46.44
44.8346
112.214
144.681
47.9017
73.3378
1070.75
115.142
67.6801
75.5763
663.514
852.258
59.74
541.656
554.018
201.514
342.508
167.621
523.275
71.9411
227.982
740.849
75.6021
44.3491
61.6845
104.418
313.985
45.3445
45.4866
69.7605
147.499
154.915
1070.58
109.451
1011.79
120.175
70.8938
86.3477
78.2649
73.7945
580.682
174.821
310.056
456.659
67.8169
477.601
1563.7
67.0272
147.869
111.326
417.077
152.296
125.522
712.314
1063.98
103.589
614.37
126.187
404.421
82.3689
46.1858
154.049
755.885
669.171
62.8615
105.307
152.028
97.956
247.814
50.6308
70.5451
944.582
402.445
401.656
48.8753
400.934
67.2653
392.994
58.1893
111.38
195.122
329.025
87.3452
116.002
302.663
102.133
945.231
73.5773
60.5654
373.723
47.7734
148.656
46.2309
55.1926
45.5963
82.7441
437.626
454.407
326.841
60.2721
63.374
288.832
57.6832
539.426
70.9348
53.9135
82.3992
215.157
153.845
624.949
51.6793
73.7726
65.297
284.727
102.304
570.527
904.235
435.127
104.587
63.051
408.314
380.195
153.681
49.1546
63.0639
44.1808
716.9
258.679
449.74
1710.12
237.535
96.9864
81.2256
778.86
399.1
63.9547
88.1151
102.898
316.383
60.2641
48.2771
88.609
80.8631
741.212
314.721
227.379
260.145
310.202
342.342
162.402
94.0306
850.17
509.48
711.957
203.778
330.27
631.316
152.759
59.1731
106.866
58.1569
58.3753
76.243
76.182
140.358
276.649
85.88
179.042
182.193
147.113
108.076
188.977
108.236
99.9811
129.07
727.561
1123.16
485.117
68.0587
120.549
82.5858
294.096
554.253
156.191
618.093
80.2938
490.23
386.723
179.107
48.3819
45.9741
71.083
63.1651
668.534
91.7112
58.5696
513.832
73.5847
825.638
438.423
104.369
447.451
62.6412
46.1899
48.272
44.4833
99.0054
64.9517
93.1415
132.876
74.5338
47.1624
150.342
709.423
531.14
45.3334
106.306
50.8298
63.56
55.9665
705.022
50.545
54.9691
53.8503
104.308
47.3755
54.6477
97.1669
56.2306
58.5763
54.4814
235.818
45.4561
59.7079
127.007
411.451
318.839
63.9288
610.305
752.726
55.3375
53.9334
164.014
78.7864
309.225
78.5646
92.9048
82.1386
312.223
69.1525
93.2991
1044.26
452.891
94.4052
628.225
47.7435
46.5663
63.7132
46.4376
47.6855
71.9982
55.2454
80.589
204.22
87.7377
382.166
223.736
233.538
82.2685
44.5965
611.247
132.369
85.1305
563.585
103.45
677.2
66.3584
430.97
45.7279
179.279
87.2611
230.627
48.3639
86.4168
79.1144
775.001
49.0455
44.4151
150.991
80.5601
130.974
60.2337
70.8549
91.5399
49.0924
135.792
50.0673
64.4481
148.3
91.0965
248.86
69.2332
46.6737
61.8693
45.9362
53.2767
261.602
44.3102
92.3355
44.779
226.626
118.048
52.1338
114.403
112.308
58.232
77.1054
75.5797
130.802
153.893
52.2349
48.3563
90.7116
70.1977
317.814
591.345
502.139
61.4937
47.4114
58.2031
64.9312
91.4206
893.287
237.332
64.0415
53.7661
77.913
47.8302
48.9972
77.4502
149.066
190.543
494.883
363.141
57.393
76.5419
78.2149
44.4274
238.676
73.322
111.861
114.249
51.4385
984.045
77.7333
58.3149
70.6722
71.2566
161.559
582.31
45.8939
478.078
55.7924
747.497
117.782
517.132
71.5351
46.3282
60.273
104.685
51.2354
48.5183
126.805
45.6498
45.5052
54.4101
60.9248
226.399
56.1021
758.993
72.67
61.1241
149.87
171.478
48.3997
448.268
960.172
745.896
565.047
442.458
55.1191
391.089
311.088
76.3936
57.5027
53.836
683.203
91.1514
96.7614
49.0158
75.6678
314.596
758.109
157.927
85.1963
45.4624
66.2545
253.66
47.944
56.5649
582.352
452.976
276.945
758.68
76.3368
47.3532
69.3243
82.9815
1139.67
50.6308
46.7422
44.8003
286.69
47.2453
51.8111
93.8743
101.176
45.7253
114.061
47.4757
147.521
86.3085
142.361
52.957
226.738
90.0718
112.96
171.841
111.782
265.517
50.9553
620.713
93.7163
343.752
332.904
418.062
85.0045
120.376
200.613
68.0614
45.775
50.8585
54.1923
87.5942
568.966
117.408
46.9606
83.7917
63.6831
49.3312
120.641
62.1833
135.435
100.197
47.8322
100.374
50.4927
78.7591
284.126
560.569
70.754
100.422
80.0353
104.655
530.506
378.745
533.851
861.695
142.875
47.4748
49.2362
45.2011
105.863
842.425
80.4249
788.727
129.745
46.499
118.062
386.242
46.9862
47.1544
56.1124
76.5412
59.9692
335.334
76.7485
92.6683
285.231
49.5057
97.9796
64.9825
129.865
129.822
52.8092
665.517
82.5007
113.286
56.4773
124.654
46.8072
123.138
123.231
93.689
93.4303
79.849
67.5273
68.6673
51.8006
228.961
61.2673
51.7677
116.654
207.933
232.933
131.206
98.238
114.08
184.767
71.7899
322.726
107.862
137.515
103.124
91.4073
158.225
79.7233
110.647
451.352
101.341
53.8754
49.0055
341.82
91.1878
103.984
51.4239
108.386
86.5225
48.4939
95.3467
407.322
93.6312
73.1514
87.9824
663.444
74.7976
92.4467
146.439
60.0449
158.168
49.594
749.805
84.0671
80.3739
84.8241
56.2202
116.421
56.1816
512.553
44.366
78.193
648.838
59.1563
112.55
203.201
101.884
49.3432
567.228
59.2281
46.183
97.7559
133.715
59.266
311.268
45.8117
360.096
99.733
45.2036
73.4103
118.144
733.847
184.838
71.6527
46.4503
131.984
401.836
317.07
117.701
124.637
1005.39
212.015
342.491
129.117
84.2009
103.531
59.7965
524.705
1035.83
153.002
168.42
100.203
979.842
470.075
497.148
416.561
178.6
64.3937
52.5141
152.803
73.7483
558.806
320.96
80.2255
816.387
108.619
88.8976
71.5292
50.8831
107.321
88.5371
91.7481
79.3505
145.426
184.331
885.382
57.3912
119.106
644.92
615.143
182.268
182.24
63.7669
652.26
47.4975
65.8825
352.536
148.443
45.718
337.242
440.815
71.3879
124.997
48.8483
96.6873
56.8974
80.9254
177.197
83.5742
616.421
44.8707
52.4311
89.2652
481.692
170.567
124.169
167.071
299.665
122.85
79.0344
415.374
109.471
71.0975
247.834
792.268
286.881
60.0036
383.278
160.408
90.7359
65.825
128.799
47.9092
115.025
80.6871
75.6726
66.9159
60.0989
88.3067
45.6402
44.4351
49.4743
100.244
49.8563
160.577
399.037
736.301
97.5984
83.18
59.6341
51.0074
104.123
665.794
52.8115
144.814
72.0342
219.534
65.9216
119.219
204.902
408.945
48.3325
57.2915
264.351
53.1447
72.1554
119.55
85.5878
381.136
84.0348
284.493
439.373
241.68
647.163
192.368
384.632
90.7066
143.049
146.18
54.6416
455.89
125.954
87.2014
163.446
94.334
87.0357
44.9441
54.2559
50.799
45.5331
86.7764
327.584
44.6158
936.637
113.048
333.615
115.224
355.292
1576.47
55.0189
256.871
920.766
131.335
342.693
77.8508
69.9692
789.014
1009.91
276.039
166.392
54.2644
403.493
103.218
600.382
53.5087
55.6131
234.367
1019.95
61.2015
81.5314
52.3415
231.712
525.465
48.6613
505.118
215.218
537.731
713.696
50.5213
363.132
74.0256
726.437
358.995
205.037
384.666
268.03
490.186
357.075
233.737
81.6741
76.5317
75.7154
50.3843
54.2302
1350.28
72.3541
105.324
74.1172
82.4091
125.463
1062.29
139.951
262.799
304.305
146.998
319.892
129.047
45.2681
77.3193
980.348
617.347
300.445
192.585
243.811
86.5266
468.4
61.4704
257.942
293.118
58.6263
526.764
101.953
288.878
333.869
147.813
203.103
208.277
138.563
51.8013
143.055
62.9441
537.434
72.8895
196.874
81.7032
256.428
58.1776
67.9494
346.756
123.665
305.782
46.7102
1259.31
46.2994
60.5401
56.1927
56.5704
91.2823
507.52
158.12
85.7993
666.699
76.1869
49.1221
59.5124
871.685
61.1094
96.2465
850.417
321.72
903.623
500
152.685
196.557
163.142
189.218
741.369
66.7529
385.773
128.187
66.2946
181.114
65.7253
140.349
73.2812
624.49
440.043
548.497
356.547