/*--------------------------------*- C++ -*----------------------------------*\
| =========                 |                                                 |
| \\      /  F ield         | OpenFOAM: The Open Source CFD Toolbox           |
|  \\    /   O peration     | Version:  2506                                  |
|   \\  /    A nd           | Website:  www.openfoam.com                      |
|    \\/     M anipulation  |                                                 |
\*---------------------------------------------------------------------------*/
FoamFile
{
    version     2.0;
    format      ascii;
    arch        "LSB;label=32;scalar=64";
    class       volScalarField;
    location    "0.047171";
    object      p;
}
// * * * * * * * * * * * * * * * * * * * * * * * * * * * * * * * * * * * * * //

dimensions      [0 2 -2 0 0 0 0];

internalField   nonuniform List<scalar> 
47425
(
1.32333
1.38749
-0.0189844
-4.7308
-20.3125
0.1036
-18.1942
0.0263718
13.2142
-36.5953
-0.00359984
13.7565
-13.8483
-0.0187788
-1.63482
12.182
0.0290271
24.73
-109.019
-34.3442
3.46648
15.9095
-0.0432482
1.08212
14.6468
1.11735
0.101999
-42.6652
-0.00590204
0.272543
15.7392
12.6315
13.8728
0.368884
-0.0189519
0.0226891
16.6658
13.6385
6.66861
1.33836
1.53302
0.847119
4.36328
13.5566
-39.8114
1.26231
0.159621
13.4364
1.31137
0.572912
45.5222
0.666475
0.194998
-30.0739
1.13899
8.72853
1.34131
0.121766
-12.1051
0.0734481
-31.6682
-32.4933
-68.4819
20.8519
13.0622
3.08269
13.9537
-1.46106
-47.9226
23.1098
3.44352
0.805787
1.32568
3.40222
-55.8588
12.892
-68.179
0.200752
-98.6178
-20.5852
-58.4854
10.2814
21.187
12.8062
1.96532
1.3729
1.17925
1.5685
-3.65198
-26.2562
15.0286
2.27553
0.516724
1.35766
1.39989
1.36414
0.425501
1.4263
1.51987
11.697
12.5912
21.5376
9.46287
45.6213
9.36387
1.23531
1.49135
1.40789
1.89442
14.0081
-40.3499
13.4528
0.78602
1.41241
-0.36184
34.6863
-0.010495
46.5513
8.03917
-2.63873
1.46527
13.8967
13.3679
-8.23088
11.4288
-0.111037
1.39969
12.9582
1.15426
0.554893
21.9211
1.0143
55.6432
8.04514
1.3825
-10.4256
2.21945
-0.145129
11.4112
-0.441423
13.9368
-6.33439
6.11634
0.239
11.4682
13.0136
-18.3962
13.2012
6.12233
13.8338
0.757653
37.6941
13.2423
-7.5542
21.3917
1.2018
1.74866
-122.812
1.28735
0.338895
-1.64231
1.06311
0.736183
11.1039
-51.2968
-89.2778
13.2361
-55.5303
0.810131
-46.4501
-56.5954
0.604783
12.9874
18.5508
1.37739
13.2219
28.0997
0.0600013
0.0309125
0.379485
21.929
1.34494
0.0655988
0.0741435
0.195089
12.6632
10.4909
50.2429
0.392072
1.37926
13.7853
0.460884
-11.8105
14.0052
0.428853
-1.32091
13.9858
1.00115
-2.01145
1.44983
0.336983
1.23869
1.96779
-0.90508
9.04162
2.07152
0.00919886
-0.524083
12.6139
12.9057
1.39085
-1.4191
12.956
1.09889
1.49402
-2.58027
2.01519
-21.4931
21.42
13.8125
-22.8534
-3.20543
4.29424
1.80864
2.449
-20.6595
0.445026
-2.17575
-3.79479
-8.6173
2.48373
0.209972
1.3099
13.6391
0.125339
12.6394
-25.5522
0.715617
-23.0702
0.0775886
0.156503
0.459271
0.548371
-6.72122
8.14821
12.9003
1.38248
12.7954
0.835037
-0.0288963
1.16277
-18.5726
0.0414175
13.9674
0.247418
0.224754
15.2085
0.333075
7.3516
12.8367
0.278174
13.4773
9.98921
9.82506
-9.58466
1.4058
0.0896164
-9.49601
0.27013
10.1251
10.561
-23.0643
-25.4925
10.4811
-20.6243
10.5198
-21.682
32.4559
-23.8019
33.0521
-30.4149
1.45956
-35.546
0.726729
0.725545
-2.76511
0.668966
0.0561087
1.63941
-0.196061
55.9489
19.8732
13.0883
0.0411755
0.0995521
11.2221
-5.59966
10.5345
13.3165
-8.91457
1.44486
0.993289
0.248002
0.17439
-57.3317
-70.1411
36.2546
0.448139
1.06393
11.482
11.2919
48.292
-0.0233171
0.0879535
-13.7125
1.41214
0.522181
0.419769
0.132778
-36.8949
-13.5149
12.1995
11.8188
0.0691776
1.20412
0.0865231
12.0758
1.27367
0.72146
0.234334
-5.17082
-62.7119
5.99309
0.125263
13.824
0.049154
-61.9804
13.4596
0.773786
0.841011
12.1847
11.9293
1.36725
13.7944
0.637459
0.033305
0.173176
16.3355
-0.0768307
0.167682
12.4203
7.6879
12.6464
13.419
12.9011
-2.66417
0.419237
20.5978
13.2355
13.1669
19.2321
-3.51392
1.0626
0.136019
8.63795
1.16582
0.158553
13.2503
13.5279
10.0404
0.212437
-40.3062
1.23036
11.0877
13.0261
10.9536
-0.723337
12.5602
12.8959
16.2758
12.8156
10.8962
1.01291
13.3806
1.21728
13.4086
0.0497666
10.3978
13.8838
0.105005
6.50821
7.79634
-0.0300787
7.07804
0.573209
7.09148
13.7414
0.00179539
-13.1115
0.34398
-27.5402
0.49041
-35.4494
0.211494
2.96652
0.252686
0.276132
0.00885252
0.168449
0.233537
7.87802
-68.5562
58.2078
1.03709
7.33006
5.11048
3.63875
0.959177
0.0633134
0.555888
0.17539
0.719683
1.55382
3.52314
0.0292176
0.0903717
-5.32939
-3.94621
-1.04852
17.7745
-64.8059
1.17144
27.7387
-63.7236
1.70627
-67.3061
-31.0629
0.861464
0.777914
1.73331
-2.05563
-70.4873
1.26633
0.931521
0.526376
-2.54281
-0.339209
1.12686
1.29305
-22.0699
-67.259
-24.7523
13.7091
20.2743
-1.36954
1.1152
1.19029
-11.0781
1.45649
13.6834
13.9461
13.9655
7.25607
13.8791
0.868347
11.0243
0.204278
-0.436187
0.581547
0.530711
13.7402
13.8685
12.8079
8.55372
11.794
1.1191
0.437789
-21.9128
12.7929
-12.1294
13.9039
-0.632823
-0.449678
13.385
0.956876
11.7606
13.2373
12.8201
9.89543
0.592633
0.560836
12.03
1.50721
8.20109
22.3727
0.923099
14.1218
12.7515
15.7695
1.37143
0.395191
0.989061
0.159569
3.03643
0.0457806
0.126524
1.0291
1.29235
-0.070795
0.14275
-0.00133031
24.494
0.0175739
1.63975
1.45633
1.0906
0.00416186
0.152509
11.9152
8.34432
12.982
12.9854
45.83
0.0718691
0.0279388
13.229
13.4459
-20.1488
-23.9082
0.271769
1.40197
1.34846
-8.12073
12.6075
-26.143
13.8711
-33.503
27.7847
20.0706
0.170645
-20.3657
0.229275
1.29358
0.362237
1.88859
0.149935
0.862248
-65.1601
0.283316
-0.0251717
0.340746
-19.0166
0.920974
0.107638
-19.0829
-15.0625
0.140861
0.221068
-29.0665
0.439475
0.381244
0.12647
0.427066
0.308298
-10.6851
-9.49347
19.9856
1.66856
1.39938
0.0620932
-27.3278
19.2949
1.59903
-28.8817
0.0978128
0.242648
-29.9803
-38.1059
14.5886
-28.6485
-28.6488
0.25357
13.797
0.114554
17.6107
12.833
0.116462
-45.7307
12.262
0.0679342
0.751953
-16.7941
-10.0571
13.8658
7.26455
-56.6973
-27.9893
2.76518
0.620364
1.17032
3.87529
0.61953
0.556039
12.864
8.79112
13.8657
-0.638303
12.988
-25.4169
6.52051
4.79015
-27.1993
11.4805
0.619679
7.60011
10.9204
0.650621
13.2544
-0.891232
30.4851
13.0033
0.095876
1.50708
-90.0553
9.15575
-9.21386
-39.567
-41.1262
0.276969
1.57302
-42.325
0.00155026
5.75813
-17.7027
13.3144
-37.4291
0.237114
0.212828
13.097
-33.2653
13.9568
14.0303
0.40468
0.142385
0.969516
0.008151
0.859588
1.08421
0.57445
-31.0186
-34.3223
2.65027
13.8132
0.25769
18.6151
12.2909
13.9393
13.943
13.9991
13.9315
20.5476
2.75216
13.8727
10.193
-7.49282
0.0986828
-71.5474
-25.8382
-0.0489704
19.2915
5.55312
0.193871
-74.4206
0.00603661
-56.6638
0.271938
-10.752
-12.1393
0.739407
14.2418
10.0853
27.3698
0.412485
0.677698
1.23957
-13.6809
13.7981
-14.8379
1.38265
-74.4471
-10.5158
1.24292
-12.8781
13.8946
1.11379
6.51662
1.31569
-14.1638
13.7682
12.6146
-13.5471
0.334437
1.29207
0.173849
0.854879
30.132
28.7452
16.6692
17.0229
0.144103
-0.0172234
3.52163
1.3594
0.417375
0.178065
1.22287
0.134462
1.20615
32.3286
-12.7649
0.0996705
12.6979
1.11367
1.05303
1.37908
0.034338
-2.06366
-21.8626
1.28825
0.21979
0.104973
1.03243
15.8591
0.0586561
1.21342
0.841424
0.778086
1.21417
19.4986
37.145
0.988079
-28.127
-6.09822
-30.0273
-27.6684
1.22793
1.61311
6.63478
0.138163
44.0442
-29.4182
56.233
-8.16952
2.10797
-14.9701
0.442261
58.1875
3.32383
1.4038
1.31271
0.242876
-8.71242
1.64506
1.20918
1.02027
-31.8807
26.9169
13.1823
13.4553
46.2962
42.5506
-13.9292
-54.6715
-18.9624
48.061
45.0294
13.3386
0.631103
18.8699
0.455973
7.29995
-28.8692
2.53388
6.43422
7.76364
0.285768
-30.3263
-30.668
0.14982
6.55826
0.702755
0.470135
7.73313
0.309813
17.0783
0.0884423
0.64767
33.4898
0.262096
-0.0240743
0.0964705
0.522373
0.209838
53.2761
-18.6725
0.0381781
6.32944
0.654024
16.7463
17.0381
-13.955
0.534903
-30.9963
-14.9975
6.9651
3.23563
25.3684
-52.0792
0.0649722
0.118092
-9.13314
1.28565
13.4845
4.00335
-0.0285139
14.0405
-40.5245
-17.1667
-52.5277
14.0104
27.7867
0.18562
-9.86933
18.3575
-14.4684
0.0665702
19.9233
-44.0905
-11.3025
-15.6829
-31.9327
-13.8588
1.22091
0.0522108
-11.4537
0.125636
-15.7434
-27.9999
0.0369077
-19.0463
1.14151
1.09615
-38.546
1.20174
1.35555
15.0595
16.6734
13.0265
-21.8774
-3.76161
1.12975
-12.31
49.0518
0.641045
15.3778
1.39022
0.734345
1.18428
1.19633
-29.2862
-70.1533
-9.72963
1.77876
-16.1277
-15.5432
-21.3351
2.78001
1.29444
13.5516
13.7477
1.36231
-11.0541
17.4204
24.6186
13.61
-28.4092
-15.3277
2.77976
1.253
0.489048
1.19256
34.2537
13.3583
-12.9596
0.320442
5.31264
13.4661
13.4486
13.336
13.1388
13.6773
-21.7194
-4.8533
23.8442
26.0957
17.8839
7.99542
-1.27263
36.8129
1.19734
-7.34698
1.01078
-14.2735
-9.39001
-4.0438
0.522823
13.6852
16.2052
13.482
1.3446
-44.0114
-27.8991
-42.0014
11.0875
-8.23214
7.1255
-30.9467
1.43689
-42.6583
1.37866
1.36337
-5.19597
9.86981
1.43593
11.0604
0.352305
4.9952
-6.93381
0.974345
-0.694523
-25.66
-8.62511
-0.035518
18.0427
51.4146
-61.977
40.496
-24.2118
-57.2145
0.27159
1.08992
23.4428
0.529028
53.1454
0.510589
0.33074
-69.2204
15.1388
2.79646
0.302849
13.2665
23.5566
11.7556
0.892779
13.6129
-16.6884
10.5113
14.1931
14.4248
13.9003
0.914914
-11.8191
-7.42079
30.0595
14.7965
1.12465
11.3687
0.641632
0.681637
8.32371
-9.21492
-4.94084
-8.84274
-8.77785
11.7865
-41.6023
0.753032
0.685922
0.767634
-64.7665
-61.7897
-18.967
-27.8023
1.19326
-1.14365
-37.1943
-29.6838
-4.65193
10.7429
0.903222
1.74074
-37.0842
4.85759
-0.569648
0.935141
10.7841
1.78776
33.8003
-107.996
-14.1374
-28.5551
1.01259
56.271
-66.9838
1.55975
11.7529
3.24824
-34.6471
11.7998
-4.33246
18.1162
-25.1172
2.63525
-26.1641
3.10961
-9.29733
1.4409
8.02214
-24.5969
-24.0957
10.8774
18.8492
-9.82569
-48.5415
10.1718
1.5246
-25.3477
-35.9544
12.5278
9.33936
-57.3995
-63.6497
-40.232
11.1187
-5.69211
-16.7255
-40.3888
10.6433
26.2266
-21.2539
-7.65957
-5.6394
-21.7641
-38.1424
-4.74045
9.72165
13.0812
13.7618
13.6543
10.9558
-4.87082
13.7962
13.8331
14.6137
1.86776
-39.8004
-34.3022
11.8208
41.6899
-17.5483
12.1815
-21.3097
6.57293
11.0801
-8.01253
-2.7987
11.272
9.91988
-47.1496
14.2349
-31.8019
-69.765
-37.6704
10.7423
-9.81404
12.7086
1.65402
1.66141
-16.0257
-37.5002
0.975146
-35.6086
-24.5804
61.7218
-20.9019
-56.2627
-26.8757
0.0796229
1.60901
-41.828
0.854456
15.9794
0.115739
-47.7629
-38.2856
0.0343882
1.45597
-32.8582
-15.9893
-43.1116
47.1687
0.467275
-8.24256
-60.0765
0.200193
23.261
-26.8817
15.8553
-74.1971
-20.8357
11.7322
0.342223
0.485745
1.27799
0.421758
1.94126
0.522106
0.477556
8.21238
36.1896
15.0832
25.8488
-23.4154
-10.5311
26.9768
-2.30531
3.79372
-9.75552
14.0165
-69.1652
0.935121
1.2538
0.974086
-36.1712
0.943594
-72.0316
1.11982
8.78371
7.1951
-70.3215
51.9376
-30.534
-21.4408
36.0934
-2.90532
13.3255
-8.09569
-24.3344
-29.1006
-27.0522
45.9244
13.1876
-16.0518
-37.6298
-6.29621
-4.45225
-36.679
-29.2995
2.28376
-12.9633
13.0522
13.3371
-37.22
-52.1033
-0.636406
10.1894
13.2061
-67.3145
13.3724
-16.9225
-12.4759
13.3277
13.6126
-19.4891
2.83137
51.7891
-16.9729
4.90492
31.1867
28.0375
10.6458
-86.8848
-38.6637
-13.5562
-111.543
63.3351
13.6852
-31.4753
13.6799
24.5781
-80.1984
3.37389
-71.2176
-41.9328
-2.26412
21.9716
-5.61671
13.5397
13.5622
16.7853
-20.7185
3.19831
0.144035
27.3962
0.353358
-1.72399
14.9963
-11.9823
-0.101915
-16.1164
16.6467
-58.9125
-36.0848
5.34304
-33.5175
-36.7017
0.124182
49.8025
-40.7028
-3.15622
30.6433
-8.90495
-12.8199
-21.843
-28.026
8.23512
-41.8968
-19.2428
6.67639
-1.12545
0.513024
-22.111
-4.79655
26.135
-19.4058
1.32616
25.5164
0.800581
-54.2505
0.258009
0.268567
-7.30507
-21.3555
22.686
-2.84358
-11.0632
-7.77172
-73.3588
0.168938
-11.6013
-60.2303
1.04929
-7.96974
59.4013
-5.68537
-20.4037
-60.8618
0.158018
10.2185
-0.0160981
-123.825
-34.022
-39.6311
-33.6248
20.8576
-4.54215
-3.85439
-43.277
-59.4182
-11.7884
0.57281
13.4047
1.23683
0.562137
3.11807
55.0286
13.8792
13.0693
-6.9362
0.564453
15.9731
14.0139
23.1436
13.5895
0.537626
23.0794
14.3564
11.2143
-12.8921
1.56529
12.6343
10.6636
-9.28458
12.9133
0.528889
1.23933
11.4932
13.8793
13.6741
-69.432
12.8932
18.8142
1.10992
0.277593
-26.4748
14.6748
14.0101
-64.64
-56.3741
60.1112
15.627
-67.8073
21.7572
1.69025
-60.1871
7.66393
-64.0349
1.1668
1.27992
13.4739
20.7704
11.4713
1.27295
1.1336
1.57019
7.65041
9.7218
1.11087
-16.4961
0.920665
-11.1962
59.541
12.8925
-44.9098
-13.285
-69.5498
1.12531
11.787
0.195612
14.3749
1.47975
12.9886
1.27697
-40.8976
-22.7211
-37.9827
-2.44719
-7.54463
1.38162
3.1508
-30.8107
1.62488
-50.7411
-0.330279
-45.3851
1.85183
-57.53
-86.0217
1.05814
0.0808282
-50.3302
0.270062
-51.808
12.6187
2.10793
1.01183
1.19865
0.460496
0.00251402
-10.5409
-26.206
-6.04192
12.6847
1.34928
12.6812
0.920716
12.6222
-48.4313
10.4207
-35.7977
2.53158
1.28189
10.2784
0.632808
10.3264
9.80122
0.172365
1.22982
13.4998
1.17236
-2.51707
1.22574
1.28351
-21.9614
-44.5176
-4.14198
1.10957
-38.5108
1.0028
0.652528
0.501671
0.472828
0.00965713
1.24907
12.8443
12.5633
1.02213
0.776784
42.6835
1.36098
1.12787
1.48764
-44.1532
1.33362
-52.9222
-37.4569
-47.036
10.494
0.31668
1.3532
0.15034
1.09162
-43.0828
-9.84984
0.952524
0.961535
1.36724
1.43491
-29.5978
1.42767
-0.0172384
-14.5762
0.698951
0.528119
0.332417
0.543995
0.349177
0.365544
0.562359
-9.98218
-14.085
-0.0266709
12.7411
-0.917904
-8.36914
-7.14962
0.674935
1.10876
-9.82369
1.49218
0.170968
1.50784
1.08934
-9.13683
0.0247622
1.31085
0.666166
0.693301
1.67048
-4.98715
0.0553385
-50.6281
0.7285
-15.4505
1.44462
-0.00689008
-52.586
0.0315342
0.960729
0.052867
0.899415
0.907499
0.911965
51.7112
1.26379
-26.5559
0.992443
0.251943
1.60797
0.881633
0.622438
1.26661
0.522703
0.848772
0.310089
-8.0502
-10.4216
-36.5954
11.1786
-11.031
1.22828
1.29529
1.1426
-25.1302
0.174564
0.219157
0.169912
-53.5389
0.130179
1.53624
-0.0480978
0.23631
1.77421
-139.277
0.0878412
1.44983
12.8476
0.0155806
-7.18859
27.3799
27.2121
0.0476833
7.83541
0.17212
1.14701
0.580816
0.298071
-52.0973
-56.0362
0.108967
1.10891
-45.614
-0.0691756
-1.66293
-21.3495
0.067633
0.997971
5.45549
-0.116052
-5.72586
0.0465025
1.4769
20.0865
1.1709
0.0191509
12.8819
-22.2029
12.9306
-26.3305
-25.1183
-29.9531
-22.4935
0.51082
12.8553
-16.0815
13.0012
0.916906
16.8541
-34.6025
-24.225
13.3052
-11.2333
13.2872
0.737128
1.44237
-30.0043
0.919197
0.471405
13.102
13.1144
41.5806
45.0849
63.4836
-17.1445
28.8051
13.3243
15.2961
23.4679
13.1779
0.730349
0.216893
0.488263
-0.08161
-30.0638
-29.2794
0.745929
1.93374
-1.2163
-66.1761
-2.16527
1.17245
0.987574
-26.0305
-53.2625
0.836626
-46.186
-1.77875
-29.8822
-38.1132
-14.8651
0.271753
0.799964
13.8086
-54.3709
0.264528
13.9118
0.59572
0.143392
-58.6092
-57.1004
-62.3099
0.28847
-44.4877
17.0085
9.96965
2.93823
-14.7469
-67.4319
-66.1116
-27.22
61.69
-27.8126
34.9774
12.8125
-39.1536
13.4484
-57.0476
12.8481
-52.8646
12.7394
-24.6119
2.79516
-25.4207
13.3476
13.2736
2.70165
13.1177
12.9953
33.6003
3.19478
13.2496
13.0049
-65.0998
-48.4051
-13.1817
-23.2796
-51.1689
-22.818
1.26478
15.4911
-42.1024
-28.2484
-34.6899
14.3575
-63.5404
6.69408
-55.7243
-69.466
-41.2175
-12.5468
15.8201
4.98298
9.93851
13.165
1.81777
-29.2772
-0.0635372
0.553834
1.73458
0.198268
0.131705
1.28843
0.4174
-23.5601
0.306035
0.161001
0.493901
1.62094
-18.9319
1.15764
0.0267936
0.26543
1.75558
-9.18151
-10.6877
0.744567
14.0979
-28.678
-68.9984
-2.82559
-54.3079
-10.9311
-5.19905
-19.7459
37.7024
8.89313
8.96046
-6.42111
-0.00755866
0.147901
-0.767551
-0.0172843
-0.10691
-0.892646
0.0305128
1.85083
1.86699
12.028
-6.05775
1.45315
44.4285
-0.0697496
13.1976
0.0929205
0.00453884
44.3979
-51.6028
25.0446
0.000547568
1.23137
-23.6229
-28.8233
-0.409919
1.44595
14.0335
-10.79
0.453229
0.123018
-14.5305
13.1108
-0.0144272
14.4213
55.752
1.34095
0.833353
-12.319
-0.763675
0.937383
0.884556
0.884127
12.9327
12.9691
10.8248
13.1035
13.452
5.09604
3.91297
-3.69578
-55.8233
5.89022
-6.66039
13.0113
12.8955
63.5419
3.92955
1.37753
1.24369
-27.5058
-34.5447
5.24699
16.8088
1.1601
30.1672
-4.90652
15.4808
-32.0757
48.7834
30.5888
-10.7669
3.35864
5.5024
-25.6802
-64.6476
-78.9696
2.28514
-9.87253
-66.6955
2.46242
-11.9917
-5.92038
-36.0722
-29.3252
2.1757
16.2885
-69.6943
11.1632
-6.18087
2.73993
11.3632
-2.03076
15.0715
-2.2174
14.735
10.5587
-39.9555
6.29588
59.2605
-17.8101
56.5332
33.0876
-68.1857
14.0179
14.0584
-53.8256
-11.346
-0.116267
-31.3336
-22.605
-4.0264
2.25457
1.99898
-31.6265
-1.99975
7.45899
58.4925
-7.06368
13.2343
-5.46023
-16.5485
8.21911
8.39789
-31.2161
-30.7123
-27.8987
-29.7116
0.653834
-15.5561
1.26016
-16.2134
-10.7357
1.79341
1.13363
-14.4011
-3.30181
-29.2736
-29.2468
-0.281736
7.76419
0.968965
-10.6834
-20.4845
9.76305
9.42772
-15.1396
-28.7011
9.80581
-6.66551
-29.0801
2.25673
-36.1186
-0.372503
-3.48674
-51.0458
2.25859
53.6412
-9.23988
1.37975
1.4004
0.580667
-68.9708
0.94033
0.962013
-4.2475
0.2864
11.4152
0.791666
-26.8699
12.1008
36.8858
12.5511
12.2352
12.0282
1.04521
-11.9092
-3.60025
-7.70526
-66.9542
-0.92446
-41.7615
-9.13562
-0.0300897
-60.7013
0.0428217
0.835338
1.05149
-6.85793
-53.4807
-22.5868
11.9489
39.7526
-7.45381
2.04789
-32.892
-41.6847
-8.22815
-49.5141
34.7192
12.8026
-9.37793
42.0074
12.9329
-64.3062
19.6815
10.9176
49.868
35.1265
12.8947
13.0571
61.9039
-45.0701
1.24961
55.1697
7.55139
13.0397
-8.60179
12.9368
-28.0667
10.0095
60.9681
13.115
13.262
39.1824
11.2597
18.723
-7.48218
-2.15703
16.0024
-42.2234
24.8377
-20.2303
-53.4925
-67.2368
-22.5273
13.3504
37.6105
14.9229
5.40998
9.4722
12.5961
13.0194
1.38463
1.34905
41.8859
-39.2349
13.1033
-25.3952
2.48
8.94228
-16.0876
-65.1336
1.40481
-14.468
13.7101
5.85081
1.25548
11.3376
-7.23867
1.51954
1.34155
-30.2295
3.30671
0.964304
-6.65725
11.2033
0.799518
22.5378
0.87377
-15.2811
28.5025
3.52833
17.0445
37.784
-27.8279
58.0637
42.5702
-28.9856
-57.2739
-28.5985
-24.3946
-27.6773
-27.8771
-24.5964
-20.9522
-30.7014
-28.7849
60.4993
-0.895369
-55.0092
10.8508
-0.310693
-34.209
-59.6331
-5.25502
-28.7812
-15.0419
-27.4921
-13.4775
42.6506
-40.4006
-33.2108
-28.0294
25.188
-27.5503
1.24063
-62.3311
24.0507
6.94011
1.30667
-0.61805
46.6744
9.18938
-25.9963
-10.5708
13.7352
1.25973
-5.97935
-23.9029
-29.7972
-1.32048
-3.42233
18.8223
-26.0007
-6.02467
1.39081
-20.4417
46.9346
-1.36355
6.12369
1.33674
3.48222
-37.6782
10.9575
8.49459
-3.03399
1.51823
5.96381
-1.09668
-1.72658
63.7834
3.83252
-20.268
-5.32819
2.77148
-68.3717
-67.569
9.69337
10.0009
9.14592
12.0826
-21.721
-8.20312
58.4229
-8.29449
11.8541
-18.7226
-1.97006
-4.8776
9.59072
-10.6296
9.58977
-18.3414
-29.1164
-42.8823
32.774
-16.08
18.2542
9.83035
-54.1043
-64.5913
33.4089
-62.0613
10.2387
-58.4774
34.3688
-3.62998
20.4536
-14.0261
1.46579
0.358814
-6.27992
-12.0243
-37.3728
1.22236
9.94895
-91.9703
13.8649
-28.8917
13.7238
-0.578046
11.1801
2.68558
0.388589
0.253694
-3.87685
8.2446
2.32046
16.2547
0.668729
-56.2287
35.2357
12.197
41.4748
13.0957
0.77254
12.0576
13.9088
31.3938
0.749877
31.3045
1.53624
0.65039
-19.2765
0.973841
0.347312
-16.2011
-9.31778
-33.8313
-2.50506
34.4452
6.54656
28.6225
0.911919
19.5632
15.8892
1.08662
0.911994
0.461554
1.15381
58.6569
0.374204
-8.09234
-28.0212
13.1938
13.5499
16.19
13.4005
-21.1927
-29.2114
0.363959
-2.669
-2.59129
-12.4067
34.9791
0.259898
-55.5156
-6.67899
-31.543
0.85069
9.64828
-21.9266
13.2758
13.4233
-17.7845
13.5475
1.36504
7.47502
-47.0495
18.409
55.7848
0.938448
0.699647
35.2591
7.89024
1.78888
34.73
8.61342
-12.0032
38.1058
-13.4442
39.9435
-56.1673
3.04343
13.9388
0.354317
-6.94328
0.748842
1.04851
-0.205829
0.255617
13.9454
-33.217
5.3658
1.34661
-30.5551
1.24356
9.62222
13.4039
13.5373
25.0822
5.12306
2.74033
-5.83205
0.734081
-10.9914
13.2039
1.45968
-19.3176
60.5569
-18.2003
1.44941
59.1015
13.4363
-65.8228
54.5804
0.0383819
5.23284
35.429
13.5715
-27.6839
39.5937
-27.7861
-4.54794
-27.4261
-14.674
-40.2115
34.9758
-4.42972
61.1639
0.889474
-28.1378
-27.4088
-71.4026
-65.1469
-34.6323
-66.3803
-34.4664
-32.1411
57.8789
10.3307
11.3575
49.989
24.3829
-42.6867
8.11507
-45.0303
45.9534
1.08813
11.6728
0.0426126
1.22333
0.83463
0.83712
59.2856
0.962629
0.937684
13.1377
1.08426
1.03031
11.7208
-5.15707
1.03983
-6.23856
1.08254
7.96667
27.6442
-43.8791
0.964305
2.50079
-4.71375
0.876663
-42.1839
-35.2118
-20.4315
1.52923
39.979
14.6091
-1.30671
-4.54201
7.42958
4.9657
1.08471
12.6484
12.2021
-29.0051
1.08204
19.43
-2.03249
3.67929
12.5114
0.073856
8.86723
12.774
12.4487
-12.0143
12.1586
10.1895
52.0794
26.5215
13.1421
23.684
11.8089
-0.160289
12.3428
1.33112
-2.33217
1.29693
6.06844
-0.0295615
23.9812
11.8685
-15.4116
24.4352
0.202708
10.5787
29.086
-12.2094
34.3167
-23.2738
-47.8186
-46.2709
0.971248
-0.029993
-20.8707
35.4314
-6.9872
-1.16139
9.64153
2.01861
0.317584
-0.0154529
10.3141
13.825
30.1869
9.21596
2.22424
12.5934
12.1517
0.0847847
-33.8067
36.2369
-0.0434305
8.7422
-9.91699
41.9239
13.6102
11.2394
-8.70324
-45.1126
-65.5744
12.8757
12.8101
-4.46683
-8.72136
-7.25144
-27.5493
33.0368
1.40427
1.38325
-0.440389
0.395322
19.1149
-16.432
0.42517
0.408243
31.4353
0.469229
-5.15479
25.8645
-32.2621
-23.3925
0.658862
-9.24236
14.6922
0.017473
0.826681
13.3603
10.1838
-4.44392
21.7956
4.97409
-49.0777
0.910795
0.779686
-36.1642
-5.20972
14.4961
0.71662
8.5821
12.8811
61.5605
0.790871
-8.80018
-41.7937
-35.8993
-81.6641
-55.728
0.803402
17.3494
47.6537
-0.0362333
9.94664
11.1963
-40.0135
14.0644
7.00927
-36.452
13.5878
22.5002
-15.1018
9.90522
-37.8293
-64.2307
15.6445
19.746
-48.0574
15.8962
11.7531
3.51987
15.0361
13.3691
2.38219
-31.4828
-5.03591
9.07621
14.9989
13.0699
13.7204
4.53216
0.0377114
36.5201
0.0333575
-6.43269
1.16306
37.2919
13.4289
-11.0314
5.54155
58.3896
-21.2978
-26.2272
-45.0245
3.99772
-4.15595
-47.106
-16.6357
15.297
-13.6079
-4.18703
0.0475805
-7.19839
12.813
7.57809
5.03722
0.145674
0.321078
-17.3122
-3.21864
-10.2616
1.05482
1.04855
0.260168
0.743589
-4.3911
13.9906
-38.7232
14.3099
0.71439
0.712536
12.3774
12.1732
13.1338
1.51878
0.757127
-6.6954
4.89091
0.776732
0.620722
-26.1368
3.54651
-7.35403
-45.5881
-27.7055
-36.6115
15.2313
-43.7595
18.4564
-27.8269
1.32245
-28.5812
1.06718
3.2003
1.08522
-3.60201
1.26856
3.86174
-1.03204
13.0951
5.9292
14.4953
-3.68898
-6.6625
-65.1248
-28.2888
24.4056
34.5187
-37.9227
-28.3691
-30.4381
-63.9257
-27.9299
-6.63228
-28.4409
1.74582
1.78062
-56.6532
-67.948
-6.66878
0.75161
12.8089
52.672
-2.98301
-67.8441
2.42671
5.58987
-1.09748
0.677857
-30.4188
1.5205
1.44997
1.32749
2.8663
7.79314
1.27106
1.08352
-56.2563
-58.4345
-37.2779
23.4454
-36.3801
13.2364
0.955457
15.2093
7.34933
4.88715
22.5159
12.7201
23.7212
1.26848
4.59676
6.11997
1.1612
2.98496
-10.3286
9.71075
14.2868
9.62445
43.0032
1.73669
23.3313
-53.2642
-3.2386
-44.3445
39.7361
11.2964
10.1891
6.99508
-18.5927
-8.28551
11.9317
-36.7174
8.29979
7.50991
-3.11002
17.6598
10.3972
-4.02415
-13.2948
-19.224
13.9329
-1.59343
-50.5635
0.572041
-42.8011
-34.0732
13.8141
-69.8744
-4.36653
34.8252
-2.16643
13.7853
14.0149
17.5622
-4.77246
13.0517
-28.2317
-12.8128
-27.7086
-4.0206
-7.96351
18.0186
-27.7767
-18.512
2.21231
1.50903
16.9723
-28.3443
8.32513
0.441936
-44.0363
0.74903
0.65181
12.5083
-67.6595
-4.08221
-0.674037
1.20854
-0.685168
12.1172
11.5216
1.69837
12.1771
-15.8349
12.2076
-73.142
12.5033
-37.8669
-28.1067
-7.272
11.1532
-6.48426
0.151363
11.8264
-2.22865
1.10137
-6.70348
52.9614
0.178228
35.2914
-6.23645
0.0806071
-2.63882
0.21578
13.3674
11.9241
13.139
-7.34232
0.216871
12.6917
-1.9377
0.0147678
0.696333
-21.2202
2.51377
0.316286
13.4703
-35.5092
-37.5479
0.0908014
-2.30754
0.743446
-30.6807
0.462585
0.386519
1.15479
0.299919
1.24733
1.19738
0.040995
0.72712
12.1879
-33.3557
-23.3365
13.4593
46.6171
16.7677
13.1993
-0.0566931
13.8933
39.227
0.0338385
35.2092
1.38592
0.100715
1.44205
27.1837
0.92541
0.079757
55.0983
13.977
28.0328
-7.6975
-11.8347
0.16183
-2.85333
-0.0452094
1.08217
3.03673
0.66709
50.9662
1.10149
0.615818
0.693626
12.7508
-37.0867
-18.7133
-3.04118
2.64051
1.22698
0.53951
15.6701
-26.8279
26.4085
17.7792
2.4038
0.544289
43.5794
-12.3236
41.5606
32.6932
12.3722
13.3
0.355591
-5.27321
2.36765
-11.0312
-10.2913
13.3325
-65.7157
1.39024
1.45812
1.11185
11.6082
1.1341
49.1448
-3.03169
46.8354
1.29309
-65.5078
-9.13922
-12.1151
1.02824
-41.6331
1.30174
29.7115
12.9923
33.0715
1.45959
-15.4589
4.56289
-43.3706
29.6719
12.8417
12.5727
0.184057
-21.6801
12.3564
-74.3953
-23.0695
12.9064
34.7471
12.769
-19.9658
44.2592
6.41845
-3.84751
43.8412
36.4824
2.17419
3.69193
-64.8792
43.598
10.2906
40.8847
-3.6482
-59.1871
29.5837
-0.955051
-0.0805627
0.277255
-0.0718709
1.41299
14.7282
-43.2048
0.63819
-31.0724
17.1644
39.4272
-10.97
37.2384
-0.0930102
-0.0418562
-11.4982
57.3893
-15.8565
48.8002
16.9266
4.98739
25.4638
5.53099
17.9225
0.0258536
-0.0826965
0.00379865
-0.0187896
9.55834
-12.7321
14.119
-30.691
1.73
-37.0204
11.5018
-18.9953
45.9475
-1.00318
-0.782574
0.162966
39.7144
0.088595
23.4423
-0.895152
9.29751
-6.70154
1.11477
32.7234
37.1182
-11.553
0.0965902
1.08322
-47.2415
-59.4061
-7.45529
52.6592
28.7245
55.4561
58.6045
45.3985
-44.1589
-0.583246
45.2029
-42.9749
-0.0121052
5.95109
0.063595
-24.6694
-19.9488
-0.84289
2.32594
-6.90186
-0.0336826
12.2318
-36.1985
42.1648
-41.6041
12.1234
-0.739286
10.8121
2.40089
-4.30399
-73.5346
2.91103
-31.048
-12.8872
12.5155
-70.4065
-63.8511
12.5554
-8.99209
-11.0332
21.2607
12.6015
-11.6669
26.8044
-62.5682
-28.1116
-39.175
40.0835
-39.9705
5.67591
26.3824
5.13264
-51.6799
-45.44
1.87632
0.564246
50.6626
-1.29665
-34.3892
-0.875207
-14.3219
-58.7494
-17.4543
-28.9441
1.9367
-29.4908
0.327716
-29.0656
14.2354
-19.6546
50.96
-27.8341
21.8723
-28.3163
-27.523
-18.48
-41.7889
34.5206
32.2644
-36.0676
11.7434
23.7977
17.5284
6.82208
14.2349
-3.08536
-33.5948
-80.6961
-41.6418
17.2293
21.2266
-36.8907
24.6842
-28.5771
-13.0903
7.01679
5.69131
-37.3581
13.5359
-30.3833
15.0699
31.7035
33.7007
61.7342
31.1564
-25.7636
-53.6874
45.1106
13.5196
38.0069
-45.2267
-28.8439
51.7643
31.3971
-3.06587
22.9722
22.3267
-41.518
-31.4126
-65.3035
17.5905
11.3666
37.3039
-52.1936
45.5126
30.0039
13.8125
38.5308
-37.3187
3.40296
3.43626
13.7813
-10.355
-59.9886
-29.3478
46.4225
0.189783
-29.7871
-56.6839
43.5123
47.515
40.4834
-44.0422
-90.9716
46.2088
-25.644
-54.1823
47.4171
-0.555903
-8.17244
13.3504
1.33577
1.62672
-6.31625
44.9292
-27.3313
1.28566
1.87082
1.57275
2.12485
0.962035
6.67526
-31.1328
-3.31941
1.3812
-51.8856
-70.8741
-28.2461
-16.9976
0.338824
-15.7461
-31.894
-37.9264
1.41423
-36.8356
-0.335741
-35.1779
-27.4804
44.2833
20.301
27.4594
0.00518458
6.23202
-66.001
-23.0421
-7.99034
-53.4265
0.00523291
-55.6476
-38.758
-22.9561
-38.8682
-2.94381
16.9826
12.8188
16.054
11.9939
43.8779
0.0774662
-0.0349195
0.144905
15.7131
-13.4562
-59.3065
-50.3626
16.8847
38.4883
25.1259
30.6558
1.60488
-60.2709
-4.35227
13.9009
5.46449
0.236923
20.0361
8.88058
-11.9291
15.7993
-9.26602
-8.08009
-4.51409
18.0849
37.2071
-28.7118
54.3238
-34.888
20.2146
-74.3749
-54.3284
-8.65777
15.5612
35.4385
-7.13475
-42.4761
7.09536
15.5702
-18.4159
-29.8387
17.3209
47.8846
60.9439
-64.2516
-1.83894
-55.9008
15.4961
2.06583
-9.27422
11.7565
8.22538
-15.887
4.47959
9.51199
-38.2618
-7.15021
-28.2666
-13.2635
-32.9899
0.139257
13.092
-73.8053
-15.2141
0.0159266
61.8483
13.1928
47.1537
11.6028
-21.0383
18.0971
2.73253
34.8299
56.2578
16.5496
34.9457
-0.119836
-46.4307
13.5856
13.4069
-0.269563
7.75364
-33.3732
-2.78161
-6.52415
13.7447
4.75519
-20.1915
6.05803
10.6786
-5.46533
-10.8147
-26.5484
-0.0628623
14.6733
-0.0103028
15.3939
0.0263503
-17.0112
13.402
-20.8456
12.7629
-33.9772
-0.0587974
34.8044
-8.66668
36.6004
0.0335255
8.45385
-0.0653131
-0.0105426
-4.58012
7.36251
17.8991
35.0451
31.0437
-38.1398
-51.3699
43.3454
25.3833
22.3023
6.6483
-0.0103828
0.220795
-69.859
44.7646
19.8659
15.7048
0.0720754
19.5534
0.160595
0.0986342
-19.2167
-22.0599
-34.8497
-36.8864
8.53142
2.2392
-7.25195
13.3729
43.4052
11.8365
-12.0014
11.8414
-5.65698
-73.3357
-14.9004
0.305589
5.12394
-7.21183
-4.98751
-37.0199
13.5437
-36.512
24.3997
-70.5333
-29.4558
-25.5395
0.310024
22.7857
3.77096
13.669
35.8798
13.7237
-9.00776
11.6876
12.5539
9.87347
13.6219
-37.0809
18.9783
6.16942
43.9475
13.0874
-20.5345
13.8172
13.7342
-29.5167
-72.101
-27.2475
-29.3857
-28.9894
10.7474
59.3759
-28.7939
-4.75509
12.8733
20.471
-29.2014
0.653547
0.647791
11.5898
-21.4645
-30.4118
-44.5322
32.4442
-0.39381
1.25243
4.47519
-31.753
28.8285
10.6426
-53.14
-30.8192
-29.4016
61.188
14.9559
11.2875
3.52449
15.0374
-59.5483
17.7073
11.9371
19.9096
-1.73302
18.1349
23.6292
45.378
36.7725
11.3864
-15.0956
23.1163
-8.27793
0.711053
0.618065
31.7072
-28.7864
-14.1995
0.584885
56.4787
0.618084
-31.9726
31.4104
22.0166
39.9512
-28.6859
-23.8716
-28.9655
32.447
-10.4455
-28.8487
-8.36401
12.0603
2.07816
14.9268
1.05425
16.4344
0.899784
12.1589
1.07609
-10.6445
0.349705
35.6518
3.58611
5.20504
-24.6525
8.76385
1.42239
9.9251
-5.13907
-38.0713
-47.9316
-19.4588
5.4785
37.4057
1.33141
59.2656
-44.9101
59.6055
53.2873
1.16537
4.40431
5.9501
1.07734
1.21572
-85.987
11.5929
-32.2486
-14.0305
5.48904
1.35758
-26.9644
6.68667
6.60829
10.5318
7.56778
1.1562
-40.073
-3.05493
1.41736
-9.07917
1.73191
1.16097
1.64728
1.38295
-4.65327
7.02521
-53.4551
1.22667
1.47844
-10.3108
-5.53243
23.743
-17.7198
12.9894
12.878
-0.0674249
0.287617
-8.55751
-15.5003
8.73857
0.141189
-1.21667
9.87573
0.0992775
57.6891
0.0995054
3.07459
0.13057
-0.000742263
-26.8763
0.00629129
-28.7743
-4.11465
52.7133
4.76952
-0.209938
-4.32682
-0.749205
-2.53124
-40.8242
1.98191
0.101689
7.5203
-28.659
0.0774379
7.754
28.5925
42.8168
-9.39697
9.73494
9.81808
-43.5575
-22.6974
0.0581942
48.6344
-57.4592
-20.4164
-7.3649
50.2605
-8.8596
-9.01385
32.5241
-63.8372
-1.34342
0.125644
0.0638578
0.0280677
-0.00133276
0.000971901
-33.3152
18.073
-0.0174987
-53.3636
1.04107
0.162497
-8.48704
3.22661
16.2919
-46.5374
6.4646
16.4464
-24.7684
1.78441
15.8852
59.9008
15.637
-47.9817
41.5583
18.2027
33.1904
0.30682
44.7435
0.63769
6.8322
24.5123
0.109406
-43.7756
-25.2686
0.741152
0.733044
-135.635
19.4597
-29.4254
1.22969
-2.29614
1.22143
13.9509
22.0514
49.063
13.9586
55.4023
13.9284
-80.6534
-27.6777
-31.1277
-24.6427
-11.7564
-6.69041
30.556