/*--------------------------------*- C++ -*----------------------------------*\
| =========                 |                                                 |
| \\      /  F ield         | OpenFOAM: The Open Source CFD Toolbox           |
|  \\    /   O peration     | Version:  2506                                  |
|   \\  /    A nd           | Website:  www.openfoam.com                      |
|    \\/     M anipulation  |                                                 |
\*---------------------------------------------------------------------------*/
FoamFile
{
    version     2.0;
    format      ascii;
    arch        "LSB;label=32;scalar=64";
    class       surfaceScalarField;
    location    "0.047171";
    object      phi;
}
// * * * * * * * * * * * * * * * * * * * * * * * * * * * * * * * * * * * * * //

dimensions      [0 3 -1 0 0 0 0];

oriented        oriented;

internalField   nonuniform List<scalar> 
92401
(
0.147481
-0.0959733
-0.00703042
-0.044477
-0.0622923
0.0600475
0.0374932
-0.0352484
0.0224691
-0.039955
0.0431556
-0.0256697
0.00649864
-0.0128336
0.012659
-0.00632406
0.00139428
-0.000486671
-0.00584809
0.00494048
0.0195643
0.0097577
-0.025521
-0.00380098
0.00563899
-0.00463872
0.000394008
0.032433
-0.0257114
0.0128427
0.0480945
-0.0386461
0.032444
-0.0418924
0.000412255
-0.000978432
-7.31032e-05
0.000639281
0.00466646
-0.0418126
0.0382085
0.0241901
0.0243991
-0.0867977
-0.0170362
0.0108914
-0.000117165
0.00626191
-0.0345401
-0.040361
-0.0172361
-0.0173711
0.0584087
-0.0238015
0.00208855
-0.0660858
0.0639973
-0.00231333
-0.00770606
0.00198216
0.00344636
0.00227753
-0.000944046
0.00148909
0.000262332
-0.000807375
-0.00480195
0.0105083
4.22939e-05
-0.00574866
0.0162391
-0.00576677
-0.00482421
-0.00564808
-0.040719
0.00825202
0.0370256
-0.00455862
-0.0392828
0.0108646
-0.054862
-0.0544491
-0.00279263
0.0553707
0.00187099
0.0906475
-0.0895251
0.0222966
-0.0234189
0.0499172
0.0600891
-0.0712689
-0.0387374
-0.0325034
0.051217
-0.0579965
-0.00265253
-0.00103827
0.00394139
-0.000250596
0.0316146
-0.0636989
-0.000419024
0.0610429
-0.060767
-0.0321967
0.0319208
0.0126466
-0.0173368
0.00126748
0.00342273
-0.0358006
0.106232
0.0614141
-0.131845
-0.0846946
0.107549
0.00895216
-0.0318063
-0.131145
0.0321697
0.0296331
0.0693425
0.0148369
-0.061709
0.0369808
0.00989127
0.0598136
0.00934715
-0.0543239
-0.0442151
0.0103496
0.00223594
0.0316296
-0.0504157
-0.0411754
0.065482
0.0261091
-0.0333087
0.0404581
-0.0140074
0.00685805
-0.0196597
-0.101856
0.0646592
0.0568568
-0.0863563
0.0862705
8.57628e-05
0.0339453
-0.00623602
-0.0758445
0.0481352
0.00429891
0.0233685
-0.0236349
-0.00403251
0.0268854
-0.0503997
0.0235143
0.00011952
-7.73865e-05
-3.62856e-05
-5.84757e-06
0.00064595
-0.0586727
0.0580268
-0.0685662
0.0427711
0.0625243
-0.0367292
0.0901161
-0.0254512
-0.0127598
-0.0519051
-3.55153e-05
0.0702245
4.59102e-05
-0.0702349
-0.0476236
0.073117
0.0396161
-0.0651095
0.000535951
0.00106947
-0.000370567
-0.00123486
-0.00229916
-0.00348699
0.000339257
0.00544689
-0.0381931
0.0839299
-0.0461523
0.000415468
0.000317077
-0.000782078
-0.000658481
0.00112348
-0.0547329
0.0544453
0.000287578
0.0751665
-0.00790358
-0.0184517
-0.0488112
-0.09784
0.0906669
0.00508098
0.00209212
-0.0553142
0.0276686
0.0110789
0.0165667
-0.00283057
-0.0155022
0.0074395
0.0108933
-0.0124159
0.0258272
0.0374378
-0.0508491
0.000910136
-0.000295117
-0.000297942
0.000102781
-1.07085e-05
0.000707361
-0.000799433
0.00096272
0.000223129
-0.000726799
-0.00045905
0.00418523
-0.00924401
0.00515991
-0.00010113
0.0679069
0.00506332
-0.0172016
-0.0557686
-0.0150597
-0.00468413
0.0104359
0.00930793
-0.0410464
-0.0529518
-0.0547503
0.148748
0.00344657
-0.0338798
-0.00420343
0.0346367
-0.00041349
0.000557856
0.000642709
-0.000787074
0.00461531
0.00440684
-0.0283063
0.0192842
0.0187769
-0.00671302
-0.00955602
-0.00250784
0.0417957
-0.0763397
-0.027417
0.061961
-0.0286929
-0.00328715
0.0103319
0.0216482
0.0121816
0.00806109
0.0129764
-0.0332191
-0.000697465
-0.000376712
-3.99967e-05
0.00111417
0.0252295
-0.00973213
0.0365652
-0.00105525
0.000687505
-0.00122411
0.00159185
0.0444006
-0.0330175
-0.0684012
0.0570181
0.000604675
-0.000313056
-0.000291619
-0.0010937
-3.55759e-05
0.000563972
0.000565299
0.000825753
-0.000278186
0.000684598
-0.00123216
0.0225024
-0.0223563
-0.0626683
0.0625222
0.00120569
-0.0127296
0.00271578
0.0088081
0.0430233
0.0584309
0.0185971
-0.120051
-0.115883
0.0265307
0.128249
-0.0388961
-0.00534329
-0.0441732
0.00379532
0.0457212
0.0537116
-0.0290052
0.0255671
-0.0502736
0.0247234
-0.00351823
-0.151553
0.130348
0.00706969
0.0176087
-0.0276074
0.00292907
0.000695677
-0.000233347
-0.000709587
0.000247256
0.0378716
0.0128515
-0.00153987
-0.0491832
-0.00232163
0.0840902
-0.0855711
0.00380259
-0.0180073
0.0498522
-0.116167
0.0843225
0.0420668
0.00536368
-0.0527737
0.0421062
-3.9407e-05
-0.00233508
-0.0290811
0.0414356
-0.0100195
0.0708851
0.0169951
-0.0313889
-0.0564913
0.129135
-0.142402
-0.0281942
0.0414604
-0.0151547
-0.0452145
0.0580342
-0.0820572
-0.000725747
0.0827829
0.00113028
-0.0979469
0.163544
-0.0667276
-0.00248055
0.0033741
-0.000588946
-0.000304611
0.0888553
-0.148009
0.0308749
0.0282791
0.00153763
-0.000356305
0.000850416
-0.00203174
-0.086576
0.142912
-0.103889
0.0475531
0.0301444
0.00307737
-0.040322
0.00710019
0.0867418
-0.0158869
-0.0806188
0.00976397
0.00570839
0.031276
-0.0521391
0.0301651
0.0269475
-0.129481
0.0723687
0.0862508
0.112938
-0.0796583
-0.119531
0.000858784
0.000412412
-0.00248346
0.00121226
-0.0939794
-0.0294463
0.111777
0.011649
0.0011215
-0.00602925
0.0157835
-0.0108758
-0.0139119
-0.0335502
0.0575478
-0.0100857
-0.0054274
0.0168846
-0.0143278
0.00287052
0.00036379
-0.000686237
-0.00055879
0.000881237
0.0215535
-0.0258384
-0.00114247
-0.00183845
-0.000708331
0.00150319
0.00104359
-0.0574503
0.0603131
-0.00286278
-0.00250295
-0.00624065
-0.0020298
0.0107734
-0.0363079
0.0279558
-0.00555977
0.0183386
-0.047237
-0.0557962
-0.0512997
0.0415779
0.0983216
-0.0885998
-0.00755922
-0.00171661
0.00502391
0.00425192
0.0469374
0.011199
0.00227381
-0.0604103
0.000372451
-0.00929966
0.00679368
0.00213353
-0.0395878
-0.0535179
0.0116952
0.0814104
0.0647048
-0.0388764
0.0266284
-0.0524568
-0.00972652
0.0599666
-0.0589905
0.00875044
-0.0588932
-0.0338361
0.00781812
0.0849111
0.0163719
0.00505522
-0.0331929
0.0117658
0.0603159
-0.060883
0.000567095
0.00184511
0.00180752
-0.00141487
-0.00223775
0.040775
-0.0433952
0.00262023
-0.0558742
-0.0346421
0.104749
-0.0142329
0.000844679
-0.00979863
0.00961943
-0.000665482
0.00295328
0.00594756
0.0026385
-0.0115393
0.00184626
0.00628193
-0.00775574
-0.0250705
-0.0576152
-0.00899095
0.0916767
0.0258848
-0.00760712
0.0176161
-0.0358938
-0.0840253
0.0924931
-0.10127
0.0928022
0.079455
-0.0522151
-0.02724
0.00152001
-0.0345921
-0.0101315
0.0432036
0.00826272
-0.00557638
-0.00929799
0.00661165
0.0466245
-0.0702786
-0.061893
0.0855471
0.0740391
-0.0647099
0.0293509
-0.0386801
-0.0133271
-0.00817168
0.0317017
-0.0102029
-0.0582086
-0.0868878
0.0569769
0.0881194
-0.0416834
0.0543369
-0.0111334
0.0977044
-0.0483092
-0.0493951
-0.00440102
0.0150698
-0.00240603
0.000987568
0.000672542
-0.000710604
-0.000949505
0.0473632
-0.0158164
-0.00525214
-0.0262948
0.00362728
-0.00186075
-0.000491905
-0.00127462
0.00547395
-0.0101639
0.00872373
-0.00403375
0.0726691
-0.0422144
0.0256118
-0.0560665
0.00869617
-0.00035654
-0.00683251
-0.00150711
0.00166914
-0.000598103
-0.00107104
-0.0647063
0.0644927
0.000213586
0.0123226
0.00547874
-0.0968512
0.0790499
-0.0114002
0.014246
-0.0103014
0.00745561
-0.0725174
0.0163027
0.0831336
-0.0269189
0.0180599
-0.0971729
0.0756904
0.00342252
-0.0527053
0.0430877
-0.00830284
0.0179205
0.00878313
-0.00180155
-0.00296875
-0.00401283
8.05133e-05
-0.000915712
0.000835199
0.0285225
0.17041
-0.245131
0.0461986
0.000319165
-0.000190877
-0.0247846
0.0602824
-0.0526478
0.01715
-3.41424e-05
0.00521201
-0.00438399
-0.000793881
0.000443941
0.00168612
-0.00240824
-0.0709959
0.000570419
0.0704254
-0.0323951
0.113821
-0.0477618
-0.0336641
0.000441794
0.000618994
0.00950575
-0.0105665
0.000533491
0.0904039
-0.0909374
0.00237325
-0.00164145
-0.0011927
0.000460904
0.00134355
0.000664935
-0.000682028
-0.00132646
-0.03656
-0.00164
0.032383
0.0190831
-0.0638821
-0.0724023
-0.0165237
0.00661526
0.0823107
-0.000605906
0.00194946
-0.0997238
-0.042084
0.112649
0.0291592
0.0274376
0.16976
-0.0847274
-0.0574505
-0.0275824
-0.017957
0.118962
-0.0434277
-0.0575768
0.0398081
0.0300596
0.0383938
-0.108261
0.104832
-0.248711
0.109256
0.0346228
0.001601
-0.00142107
-0.0014072
0.00122726
-0.0122655
-0.0355743
0.0557911
-0.00795125
0.0255467
0.0403528
-0.0259622
-0.0399373
-0.0353491
-0.0258216
-0.0197622
0.0809329
-0.0534608
-0.013853
0.0550484
0.00090635
-0.01212
0.00876893
0.00244476
0.0553749
-0.0284466
-0.0508471
0.0239188
-0.0890951
0.105069
-0.0500644
0.0340902
0.0162723
-0.0231413
0.00704432
-0.000175274
0.0517868
-0.0600579
0.063646
-0.0569607
-0.00356604
-0.0138346
0.0743613
-0.00539558
-0.0128484
0.00230103
0.0159429
0.000208983
0.0579472
-0.057525
-0.0006312
0.135721
-0.0535948
-0.00304182
-0.0790847
0.059493
-0.00758881
-0.0483214
-0.00358276
0.0520369
-0.0209612
-0.0742511
0.0431755
-0.00975778
-0.00198121
0.0149273
-0.00318832
0.00533106
-0.00160052
-0.00478119
0.00105065
0.00241087
-0.0435801
0.0401999
0.000969318
-0.000860365
-0.0862737
0.00345476
0.0195181
-0.0130036
-0.0633032
0.0468339
0.0164693
-0.0595509
-0.017034
0.0109726
0.0656123
-0.0990007
-0.00103423
0.103168
-0.00313354
0.00369984
0.0234365
-0.0126644
-0.0144719
-0.0711847
0.149834
-0.0660333
-0.0126157
-0.00498145
0.0137088
0.0225713
-0.0312987
-0.0513989
0.0986856
0.0386649
-0.0859516
0.0285062
0.00196821
-0.0147389
-0.0157355
-0.0360393
0.0375369
0.000913245
-0.00445509
0.00717423
-0.00956233
0.00684318
-0.000350468
-0.00444553
0.0102699
0.0358795
0.0381526
-0.0740321
0.00111088
-0.00187953
5.23027e-05
0.000716352
0.0193156
0.00837702
-0.0187055
-0.00898711
0.0219299
0.0112194
-0.00226515
-0.0308841
-0.0517846
-0.0012645
0.00662405
0.0464251
-7.26354e-05
-0.0435075
-0.000947562
0.000574342
0.0014841
-0.0517966
0.0369602
0.0520248
-0.0371883
-0.0447591
0.0301272
0.0184563
-0.0038243
0.00132318
-0.00333995
-0.00984332
0.0118601
-0.00917163
-0.00504738
-0.00339745
0.0176165
-0.0432993
-0.00479813
0.0120581
0.0722706
0.0395809
-0.0718747
-0.0399768
-0.0444453
-0.000451951
0.0448973
0.0862211
-0.04867
0.0595492
0.00359595
-0.00774192
-0.0374882
0.0416342
0.0358123
0.0114374
-0.00561506
-0.0416347
-0.0004803
0.000303706
0.00100411
-0.000827516
-0.0168821
-0.0448502
0.0617323
-0.000268988
-0.00130501
-0.00436521
0.0310732
-0.0231121
0.0061285
0.027961
-0.0418314
0.0979475
-0.090808
-0.00203322
-0.0051063
-0.0212295
0.101114
-0.0187117
-0.0611729
-0.0322972
0.00680224
0.0148736
0.0106213
-0.03937
0.0360471
0.0142621
-0.0109391
0.0325582
-0.0251265
0.00134724
-0.00877893
0.0186866
0.0719939
-0.121166
0.0304852
0.0762684
-0.0752197
-0.0242988
0.0232501
-0.14315
0.00219839
0.0035658
0.137385
0.0304678
0.0123279
-0.0411359
-0.00165984
0.039869
-0.05789
0.0203839
-0.00236292
0.00211013
-0.001238
0.000237221
-0.00110936
-0.0146557
-0.00125122
0.0733927
-0.0416416
0.0188106
-0.0505617
-0.0117655
0.0477268
0.000455316
-0.0364166
0.00537534
0.095483
-0.0928948
-0.0079636
0.0495096
-0.0990046
0.0582886
-0.00879358
-0.048466
-0.00038342
0.037084
0.0152235
-0.00374824
0.00865781
-0.020133
-0.0234254
0.0477982
-0.0133163
-0.0110566
-0.0484544
-1.16404e-05
-0.00538978
-0.122843
0.17583
-0.0475973
0.0102037
0.00967461
-0.0634601
0.0435818
0.0496334
0.00549715
-0.0449268
-0.0126793
0.00673616
-0.00360633
0.00954948
-0.0558927
-0.000474875
0.0563676
0.110238
0.0443851
-0.136403
-0.0182198
-0.00914779
0.000399559
-0.00393108
0.0185302
-0.116038
-0.0223946
0.119902
0.0126061
0.066415
-0.0693465
0.00292073
-0.0557414
-0.0106394
0.000478885
0.00187837
-0.00262625
0.00198858
-0.00181983
0.000310132
-0.0506781
0.0256801
0.0741446
-0.0491467
-0.00194184
0.00098047
0.000925797
-0.0343091
-0.00768972
0.0449196
0.000238297
-0.000301767
0.000341229
-0.00090035
0.000110679
0.000448441
0.000116705
0.00211017
-0.00175344
0.0014034
0.000106993
0.000243039
0.000463874
-0.000291221
0.000737483
0.105702
0.121012
-0.0792341
0.000113139
-0.000823836
0.00117457
-0.0529525
0.0529879
-3.54526e-05
-0.0107317
0.0760596
-0.0713731
0.00604516
0.00182788
-0.0195065
0.0051743
0.0125043
-0.0604322
-0.00325204
-0.0171604
0.00397735
0.0476355
-0.0344525
-0.0640344
-0.0024288
0.0664632
-0.00642593
-0.0166952
-0.0127837
0.0359049
0.000296052
-0.000366843
-0.000499199
0.000569991
-0.00404099
-0.0073301
0.00898956
0.00238152
0.0549843
0.0439068
-0.0175081
0.0479394
0.0893433
-0.0381175
-0.0991652
-0.0126471
-0.0444682
-0.0199778
0.0193693
-0.0551388
0.0557473
-0.0107048
0.0292914
-0.00674017
-0.0118465
-0.0151226
-0.0135551
0.0136869
0.0149908
0.0972469
-0.0955041
0.0189377
-0.0206805
0.0010986
-0.00435958
-0.000338419
0.00359941
0.00103336
-0.065989
0.0649556
-0.0726272
0.00346723
0.0667255
0.00243453
0.0391578
0.0382861
-0.0774439
0.0189871
-0.060216
0.0285818
0.00212149
-0.00122937
0.00060323
-0.00149535
0.000185294
-0.000356871
0.0013969
-0.00122532
-7.20141e-05
0.000418157
-0.000977434
0.00063129
0.0634198
0.0563238
-0.0389191
-0.0808244
0.00559876
-0.0868845
0.0824531
-0.00116734
-0.0135678
0.000324269
0.0266012
-0.0133576
0.0534369
-0.0527183
0.0190939
-0.0198125
-0.000514272
0.00134723
-0.000673931
-0.000159027
0.0203644
0.0478365
-0.0492138
-0.04708
-0.00174976
0.000901982
0.00155663
-0.000708853
0.00106637
0.0799139
-0.0809803
-0.0499247
-0.0153669
-0.0221737
0.0874653
-0.0500218
9.70864e-05
0.0116545
0.0168115
0.0167675
-0.0452335
0.000518845
-0.00279531
0.000325432
0.00195103
-0.00170508
-0.000661425
0.000616743
-0.106293
-0.00880862
-0.0430945
0.158196
-0.0100011
0.00702297
0.137405
-0.134427
-0.0382861
0.0420288
-0.0649008
0.0611582
-0.07884
0.0786698
0.000170202
0.00139433
-0.0501191
-0.0304675
0.0666115
0.0194447
-0.00581271
-0.0802435
0.0502647
0.0943984
-0.156512
0.0118493
0.0415032
0.0159731
0.0331918
-0.0906682
0.104256
-0.108443
0.0433447
-0.0034966
0.0130602
-0.0118002
0.00223654
-0.00184541
6.63975e-06
-0.000682869
0.00252164
-0.00283456
-0.00557163
0.00164656
0.00675962
0.0607346
-0.00605529
-0.0183134
-0.0363659
-0.0567454
0.0282282
0.0285172
-0.0925581
-0.0078919
0.0122921
0.000500381
-0.000501182
-0.00184461
-0.117611
0.0264339
0.00484419
0.086333
0.00125061
-0.0537575
-0.0100163
0.0625232
0.0454275
0.0290504
-0.10138
0.0269019
0.0381485
-0.0438899
-0.0188287
0.0245701
0.0480884
-0.0603296
0.0503897
0.0310265
-0.0558926
0.0496287
-0.0247626
0.0345715
-0.0359671
0.000263213
0.00113237
0.0163114
-0.141924
0.0909535
0.0346587
0.0013539
-0.0614498
-0.00370988
0.0523241
0.000467847
-0.108106
-0.0337882
-0.00889261
0.00667463
0.0360061
-0.0487176
0.0444412
0.0502492
-0.0459728
-0.0425899
0.0824225
-0.0398326
0.0106304
-0.102444
0.0479241
-0.0168959
0.00758608
0.0244277
-0.0151178
-0.0885534
0.093665
0.0365621
-0.0416737
0.0584655
0.0328148
-0.0829433
-0.008337
-0.0469615
0.141904
0.00419943
-0.0991423
-0.000537479
0.00300866
0.00357652
-0.0060477
0.0538134
-0.0721487
0.0829358
-0.0646005
0.00831327
-0.0396349
-0.00829029
0.0396119
-0.0436436
0.0317693
0.102878
-0.0910039
-0.0500016
-0.0264589
0.0529388
0.0235217
-0.00988287
-0.000348638
0.00628616
0.00394535
-0.0103442
0.0221761
-0.0181738
0.00634189
0.000216302
0.0737291
-0.0739454
0.014917
-0.0442104
-0.0194242
0.0484242
-0.0340559
-0.00102675
-0.0133416
0.00142337
-0.0257316
-0.0203821
0.0446903
0.034693
-0.0346513
-4.17265e-05
0.0612559
-0.0417039
0.0642114
-0.0837633
-0.0996954
0.0977253
0.099217
8.07037e-05
-0.0108014
-0.00179823
0.012519
0.04961
-0.000228826
6.77422e-05
7.3964e-05
8.71196e-05
-0.000296382
0.0475082
-0.110149
0.0629371
-0.00858377
-0.000588758
0.00497739
0.00419514
0.026884
0.00996262
-0.0368466
0.00120842
-0.000975446
-0.00881675
-0.0331135
-0.0331241
0.0103633
0.0572159
0.000945105
-0.058161
0.0728453
-0.0441341
-0.0511887
0.0224775
0.00167733
-0.0249712
-0.0209213
0.069396
0.0430232
-0.0395739
-0.00799276
0.00928189
0.133793
-0.119566
0.0361133
-0.0503406
-0.0450173
0.0365162
0.0218955
-0.0133944
-0.0525845
0.0525623
2.22387e-05
-0.0477844
0.0296525
0.010751
-0.0469204
-0.0108076
0.0469771
-0.00248247
0.160545
-0.160137
0.00207406
0.107638
0.0159571
-0.0160466
0.0508698
0.00863978
-0.051295
-0.00821453
-0.0144246
0.00463603
0.0106278
-0.000839234
-0.00953664
-0.00533349
0.00471415
0.010156
0.065997
-0.0375467
-0.0527134
0.0242631
0.0297271
-0.0156473
0.0239399
-0.0380197
0.0267094
-0.0933662
0.0894499
-0.0227931
-0.00582154
0.000427851
-0.00903088
-0.0942868
0.107173
-0.0233609
0.0104742
-0.0113975
0.0479492
0.0138881
-0.0504398
-0.00429433
-0.000330159
0.00322751
0.00139697
0.0836064
-0.00481448
0.0508394
-0.129631
4.81006e-05
-0.000713017
3.51447e-06
0.000661402
-0.0665947
0.0586119
0.0739802
-0.0659974
0.0035174
0.00104665
-0.00229671
-0.00226735
-0.0781419
0.0758823
0.00225957
0.0625964
-0.0593259
-0.0032705
0.0604819
-0.000671474
-0.0598104
-0.0109974
0.123583
-0.000657683
-0.111928
0.00992348
-0.0311583
0.0328893
-0.0239385
-2.60448e-05
-0.0562352
-0.0676454
0.0117723
0.066469
-0.0105959
-0.0132104
-0.00214774
0.000311634
-0.000614018
-0.000136113
0.000438498
0.00117536
-0.000140414
-0.000241284
-0.000793662
-0.0634278
0.0075705
-0.00133005
0.0571874
0.000424253
-0.00544558
0.00188781
0.00313351
0.0120892
-0.0146156
-3.28436e-06
0.00252968
0.0081694
-0.00675179
0.0106716
0.0556158
-0.00919853
-0.0227531
-0.0236642
0.036101
-0.00534185
-0.0363331
0.00557399
0.000218993
0.0669837
-0.000339396
-0.0668633
0.00770138
-0.0718838
0.0192962
0.0448863
-0.0428384
-0.032066
0.0418973
0.0330071
-0.0354081
0.0211104
-0.0907128
0.105011
-0.0008951
0.0151409
-0.00780753
-0.00643823
0.0491209
-0.0590585
0.0474919
-0.0375543
-0.062509
-0.00680158
-0.00819217
0.00077444
-0.000190227
0.00431819
-0.00490241
-0.0119656
-0.00277324
0.00176438
0.0129744
-0.00806315
-0.00922654
0.0107757
0.00651401
-0.000139353
-0.00219812
0.0013913
0.00094617
-0.000407892
0.000505022
-9.71304e-05
0.0016124
-0.0726471
-0.0268398
0.0978746
-0.000156426
-8.51656e-05
-0.0013877
0.00162929
0.000132232
-0.000421517
-0.000118607
0.00219582
-0.0662302
-0.000100067
-9.91737e-05
0.000704263
0.000636019
0.000112408
-0.000407214
-0.000341212
-0.0281044
0.063878
0.0777653
-0.113539
-0.00908834
-0.0022315
0.00722554
0.0040943
-0.0145097
-0.000255468
0.00567685
-0.00525504
0.00547566
0.0130486
-0.0132692
-0.000575635
0.000798239
-0.000322671
-0.0657846
0.066536
-0.000751421
0.030328
0.0469851
-0.0599612
-0.017352
0.0117156
-0.0755644
-0.021291
0.0851398
-0.0134381
0.00275964
0.00542338
-0.00454582
-0.00637423
-0.002518
-0.0165398
0.0581683
0.0129485
-0.054577
0.0691085
0.00470782
-0.0536128
-0.0202035
0.000167043
0.000427269
-0.000778504
0.000184192
-0.000168914
-0.000274489
-0.00264166
-0.00116901
-0.00129146
0.00510214
0.0651179
-0.0459399
0.012035
-0.031213
-0.000811509
-0.00266957
0.00140583
0.00207525
-0.0161811
0.0100523
-0.00373983
0.00986858
0.00180798
-0.101454
0.101044
-0.00139799
0.00306956
0.000761755
-0.0104892
0.0066579
0.0100203
-0.0106388
0.00163099
-0.00101249
0.00988125
0.00389994
-0.0107116
0.0368457
0.0562172
-0.027945
-0.0272789
0.0548049
0.0281947
-0.0557207
0.027752
-0.0550309
-0.000418124
0.000299939
-0.0331905
0.0124719
-0.0100448
0.0792158
0.0231402
0.00769101
0.0692592
-0.0542533
0.0981063
-0.113112
0.00478438
0.0925808
-0.0973652
-0.00691882
-0.00701731
0.0133911
0.000545001
-0.0342069
-0.0870128
0.0275253
0.0936944
0.0221408
0.0615563
-0.0244686
-0.0592285
-0.0235091
0.113318
-0.0529629
-0.0418529
0.0448961
0.0517617
-0.0557543
0.0557092
4.51044e-05
-0.0390009
0.0367239
0.00227703
0.0398827
-0.0785182
0.0729806
-0.0343451
0.0672811
-0.083821
-0.00969161
-0.00811839
0.0108912
0.000873211
0.000643122
-0.000589654
-0.000926678
-0.00574593
-0.0425685
-0.00743987
0.00126704
0.00143599
-0.00256103
-0.000141994
-0.0574186
0.0518514
0.0855552
-0.0799879
0.0350947
-0.0332359
-0.00185883
0.0101811
0.017679
-0.0110991
-0.016761
0.00421158
-0.000464163
0.00220292
-0.00595034
-0.0643306
-0.000507615
0.0200425
0.0447957
-0.00289988
0.00669889
0.000412573
0.0391982
-0.109455
0.104519
-0.0342617
0.0459268
0.0137875
-0.059382
-0.000332237
-0.00362368
0.00696738
0.00161916
-0.00496286
0.000139549
0.0606677
-0.0608073
0.0376024
0.00636836
0.0150985
-0.0590693
0.00425121
-0.00732199
0.00260661
-0.182802
0.0278665
0.162354
-0.00741876
0.0393715
-0.0110416
-0.0283299
-0.00119905
-0.00152888
-0.00117146
0.00389939
-0.0418939
0.0453908
0.12458
-0.128077
-0.00186483
0.000671654
-0.00198893
0.0031821
0.0916767
-0.00265957
-0.0430903
0.00048882
-0.00121791
0.00205164
-0.00132255
-0.0186185
-0.116232
0.0163165
0.118534
0.00394669
0.0522316
-0.0040788
-0.0520995
0.0487222
-0.0702436
0.0604231
-0.0389017
0.0319157
-0.0364664
0.0485713
-0.0440206
0.00849678
-0.00182922
0.00590277
-0.0125703
0.00124978
-0.0443892
0.05323
-0.0536602
-0.0360363
0.0973369
0.0176798
-0.0245361
-0.0904806
0.0474918
0.0180169
-0.134621
0.069112
-0.00175484
-0.00863922
0.00634816
0.00404591
0.0279776
-0.0502315
-0.00326719
0.0289834
-0.0267172
0.007372
-0.0058391
0.000107612
-0.00164051
-0.0864515
0.00286156
-0.000680022
0.0720673
-0.150014
0.0786265
-0.0269711
-0.0875331
0.0412819
0.0732223
-0.0724993
0.0208062
0.00276789
0.0489253
-0.0434756
0.0291783
0.0104963
-0.082828
0.095883
-0.013055
-0.0210342
-0.00951994
0.118085
-0.087531
-0.00355623
-0.00391282
0.00610774
0.00136132
-0.0258045
0.0591862
0.0406573
-0.0721696
0.0280355
-0.000773031
-0.000405093
-0.00100989
0.00218802
0.0467732
-0.0493242
0.0548751
-0.0376775
-0.00709373
-0.0450581
-0.124283
0.0479501
0.076333
-0.0429226
-0.0325193
0.0276575
0.00307848
-0.00216584
0.00075228
-0.00166491
0.00275005
-0.000345302
0.000673733
-0.0862889
0.00353898
0.0827499
0.0612857
0.0133385
-0.123149
0.048525
-0.0711172
0.000372793
0.0707444
0.00140103
-0.00181861
0.00835178
-0.00793421
0.0483269
0.155918
-0.226122
0.0218771
0.00181928
-0.00230102
0.00145084
-0.000969103
-0.0916408
0.0649425
0.026527
0.000171339
-0.00199557
-0.000821599
0.00289514
-7.79695e-05
-0.000688747
0.00838158
-0.00837472
0.000681892
0.00796793
0.00786759
-0.0150716
-0.000763927
0.040979
0.0125167
0.00302948
-0.00273561
0.00152541
-0.0986034
0.105389
0.007431
-0.0142165
0.0120057
-0.0666751
-0.023157
0.0778264
0.00216989
-0.00478845
0.0879693
-0.0853507
-0.0416963
-0.0367287
0.0872546
-0.00882964
-0.0407181
0.024698
0.0404962
-0.0244761
0.0537161
0.0207026
-0.0722992
-0.00211951
-0.00154468
0.000165602
0.00167555
-0.000296469
-0.12381
-0.0430014
0.0396769
0.127135
0.0484837
-0.0377327
-0.0316675
-0.0376859
-0.0309137
0.100267
-0.00190319
0.00428787
0.0003871
-0.00277177
-0.0311098
-0.0802372
0.0283888
0.0829582
-0.0296371
-0.0287164
0.020676
-0.00080138
-0.00326766
-0.00167569
0.00327141
-0.00374928
0.00215355
-0.0057939
0.0056467
0.0253791
-0.0772066
-0.0853057
0.137133
-0.000434234
-0.000277167
0.00038992
0.000321481
0.0572701
-0.0603143
0.0478098
-0.0447656
-0.0149538
0.0438141
-0.00754475
-0.0213156
0.0864084
-0.0860857
-0.0185948
0.0182721
0.0264966
0.0223993
-0.0636278
0.0147319
-0.127327
0.0740038
0.0182273
0.0350963
-0.00528467
0.00305724
0.000114909
0.00211252
-0.00796536
0.00963297
-0.000266575
-0.0134553
-0.00372115
0.0181482
-0.000971786
-0.0624124
-0.00473938
0.0145664
0.0525854
-0.0088818
0.103063
-0.00502955
-0.0891514
0.00914226
-0.0472411
0.080458
-0.0423592
-0.00158756
0.00418215
-0.00164191
-0.000952682
-0.0149634
0.000267911
-0.00220951
0.016905
-0.107169
0.00442618
0.013141
0.0896016
1.01539e-05
-0.000318316
0.000645486
-0.000337323
0.0372187
0.00802533
0.0270266
-0.00476285
0.0459008
0.0528136
-0.0939516
-0.000108612
0.00060583
-0.000487064
-0.000563176
0.00215537
-0.00145858
-0.000133609
0.017452
0.110645
-0.0474639
-0.0806328
-0.00022955
-8.87659e-05
0.000191803
-0.000421353
0.0618676
0.0170562
-0.0922331
0.0133093
-0.157173
0.0861969
0.0770266
-0.00605031
-0.0182076
0.000268397
-0.0517191
0.0696583
0.0250373
-0.0148509
0.0169727
-0.0271591
-0.066429
-0.0231999
0.0896289
-0.0779655
0.0384556
0.0395099
-0.00205366
-0.000298857
0.000444443
0.00190807
-0.038262
0.0413104
0.00766336
-0.0107118
0.0466907
-0.0545849
0.0078942
-0.0607184
0.0337571
0.0451535
-0.0181921
0.00452101
-0.00259887
-0.00173333
-0.00018882
-0.00322272
-0.00254414
0.000482198
-0.0421755
-0.0418498
0.0464369
0.0141337
0.00248436
-0.063055
0.00235742
-0.000211904
-0.00192408
-0.000221441
0.00384772
0.00381141
-0.00297023
-0.0046889
0.00714467
0.0221878
-0.040288
0.0109555
-0.0191691
-0.0154062
-0.00922438
0.0437996
-0.0757688
-0.0104958
0.0302979
0.0559667
-0.00175546
0.0149994
-0.00830311
-0.0049408
-0.0529909
0.000463066
0.0333587
-2.97315e-06
0.0251656
-0.135776
0.12623
-0.0156198
0.028699
-0.0344261
-0.0517231
-0.0271153
0.0548673
0.000152554
0.0401529
0.00315804
-0.0434634
-0.0553217
-0.0599417
0.115263
-0.00314312
-0.00105069
-0.00175034
0.00594415
0.00319005
-0.00474423
0.00171348
-0.000159305
0.0364662
-0.00599255
-0.0281142
-0.00235939
-0.00322083
-0.0022949
0.00237261
0.0039457
-0.011358
0.0660702
-0.0586578
0.0761966
-0.000139955
0.0278516
0.00938118
-0.0064552
-0.0307776
0.0585781
-0.000734793
-0.0578434
-0.0529273
0.113718
-0.0284227
0.0597057
0.0200992
-0.0513822
-0.0158795
-0.0256222
0.0171373
0.0243644
0.00317013
0.00372539
0.000828524
-0.00772404
-0.0341314
-0.0380542
0.0993278
-0.0271422
0.0441899
-0.035918
-0.000217882
-0.00805393
-0.0508358
0.115419
-0.0502701
-0.0143128
-0.00143264
0.00172077
-0.000149897
-0.000138232
-0.000819009
0.021715
-0.00463396
-0.0162621
0.00295054
0.00383092
9.99041e-05
-0.00688136
-0.00026267
-3.75006e-05
-1.68002e-05
0.000316971
3.71191e-05
4.09325e-05
-0.000340722
-0.00886172
0.0227979
0.0702532
-0.0841894
0.0804237
-0.0801442
-0.000279458
0.000309593
-0.000345442
3.58493e-05
-0.0128293
0.000957234
0.00227328
-0.00136008
-0.00187043
-0.0081698
-0.00526255
0.00587679
0.00755555
-0.0557642
0.0273414
0.000244608
0.000274982
-0.000802513
0.000282923
0.0339004
0.054588
-0.0347051
-0.0537834
0.0121887
0.15876
-0.179602
0.00865397
0.0583179
0.0633593
-0.0619715
0.00197964
-0.0133167
-0.00177154
0.0131086
-0.0334034
-0.0301134
0.0635168
0.0311204
-0.0645238
-0.054292
-0.0446214
-0.0654762
0.16439
0.0500969
-0.0560637
0.00596684
-0.072571
0.134475
-0.0711024
0.0330103
-0.0302157
0.0855724
-0.0037572
-0.0687622
-0.013053
0.0701868
-0.0707134
0.0111805
-0.0106539
-9.23785e-06
-0.00617469
0.00735016
-0.00116623
0.00168912
-0.00529243
0.00662074
-0.00301743
-0.000218554
0.000166867
0.000716711
-0.000665024
0.0223244
0.0230783
-0.0339488
-0.0114539
-0.00526651
-0.00512951
0.00619745
0.00419858
-0.0107225
0.03203
-0.0429654
0.0216579
0.00105836
-0.0085968
0.0109251
-0.00338666
0.0488245
-0.00418663
-0.0446379
0.0380681
0.0356666
-0.126565
0.0528299
-0.0978977
0.0599609
0.0760049
0.0329943
-0.0997716
-0.0468666
0.107933
-0.0371482
-0.0239181
0.00167909
0.00897697
-0.0123447
0.00168864
0.0279356
-0.00291341
-0.0250222
-0.0305216
0.0436159
-0.00365913
0.0201114
-0.0315749
0.00105697
-0.000128923
0.00102847
-0.00195652
0.011744
-0.0384612
-0.000948645
0.000204052
0.00039804
0.000346553
0.00271853
-0.000325687
0.00101245
-0.00340529
-0.000939854
-0.00224366
-0.0781403
-0.012969
0.00141515
-0.011862
0.0234158
0.0203714
-0.0905393
0.0204134
0.0497545
-0.00322434
0.0580547
-0.082039
0.0272086
0.000985211
-0.000655399
0.000718421
-0.00104823
0.0790843
0.0126185
0.0022194
-0.0939222
-0.000716876
-0.000790034
0.00177898
-0.000272068
0.00496746
-0.000948325
-0.0695332
0.0655141
0.00651057
-0.000974047
-0.00486739
-0.000669128
0.00640278
0.00449585
-0.00356859
-0.00733004
-0.110547
0.0965681
-0.0876263
0.101606
-0.0546825
0.109795
-0.0551129
0.00225149
-0.0440432
0.00903999
0.0327517
0.00363193
-0.00355647
0.000768789
-0.00084425
0.0493803
-0.00301956
0.00136603
-0.12973
0.00280939
0.073993
-0.0335961
4.59089e-05
0.00124852
0.0309926
-0.0250241
-0.00721708
0.0781827
-0.0307736
0.0342079
0.00405809
-0.00501325
0.000172084
0.000783073
0.0337948
0.0234015
-0.0747437
0.0175474
-3.21634e-05
-0.000146082
0.000146797
3.14484e-05
-0.000419981
0.00150647
0.00531629
0.000198718
-0.00792132
0.00633495
0.00564445
0.0746179
0.040759
-0.0370601
-0.0783168
-0.131517
0.140938
-0.00846632
-0.000954013
0.0315729
-0.0324334
0.000860508
-0.0362438
-1.81853e-05
0.000330595
-0.00310969
-0.00223416
0.0147537
0.206673
-0.158946
-0.0624806
0.029165
-0.0608665
-0.0177154
0.0494169
-0.00309487
0.0392192
-0.000755306
-0.0857571
0.0472932
-0.0228516
0.0100093
-0.03803
0.0476132
0.0463714
-0.0559547
-0.066701
0.0888518
-0.151509
0.129358
-0.000184368
8.35634e-05
-0.00145348
0.00155429
0.00021433
0.00225415
-0.000639666
-0.00182881
0.0439533
-0.0152291
0.0388808
-0.067605
-0.00352715
0.000352633
0.00335574
-0.000181226
-0.0119336
0.010837
-0.0369334
0.0121114
-0.0463458
0.00591476
-0.00318943
0.0183136
-0.0210389
-0.135086
0.0180093
0.127558
-0.0104809
0.0363747
-0.0244954
-0.0171959
0.00531667
0.0344031
-0.0531825
0.00684583
0.00461802
0.00754721
0.0518896
-0.0640548
0.0247123
-0.00707334
-0.0249831
0.00734411
-0.0791602
-0.00852788
0.0151707
0.00123438
-0.00107067
5.06121e-05
-0.000556447
0.00202543
0.00159584
-0.00306483
0.0183794
-0.0319591
0.038292
0.0179587
-0.14344
-0.0227798
0.148261
-0.112484
-0.015075
0.0257557
0.101803
0.0571124
-0.0355665
0.02924
-0.0507858
0.11073
-0.00618724
0.0037044
-0.108247
-0.0169654
-0.036922
-0.00413858
-0.0160791
0.00790849
0.0123092
-0.00135679
0.000500972
8.30915e-05
0.000772722
0.0152909
-0.0773807
0.0620898
0.108729
-0.00724171
-0.112485
-0.0263136
0.0554741
-0.0461259
0.0398469
-0.122175
0.0148137
0.0675143
-0.00406333
-0.0123593
-0.0270395
0.0434621
0.00383169
0.0494281
0.0843472
-0.131846
-0.00192955
0.0491544
-0.0829289
0.0892892
-0.0555147
-0.0963605
0.0956147
-0.00677659
0.00752238
0.00192903
0.00434761
-0.0943034
0.0880268
-0.00167296
0.00360291
0.00603356
-0.00796352
0.000219735
-0.00093108
-0.000285644
0.000996989
0.0885837
0.000765484
-0.0175193
-0.0718299
-0.000736835
0.000766458
-0.000187544
0.000157921
0.000894198
0.00330587