/*--------------------------------*- C++ -*----------------------------------*\
| =========                 |                                                 |
| \\      /  F ield         | OpenFOAM: The Open Source CFD Toolbox           |
|  \\    /   O peration     | Version:  2506                                  |
|   \\  /    A nd           | Website:  www.openfoam.com                      |
|    \\/     M anipulation  |                                                 |
\*---------------------------------------------------------------------------*/
FoamFile
{
    version     2.0;
    format      ascii;
    arch        "LSB;label=32;scalar=64";
    class       volVectorField;
    location    "0.047171";
    object      U;
}
// * * * * * * * * * * * * * * * * * * * * * * * * * * * * * * * * * * * * * //

dimensions      [0 1 -1 0 0 0 0];

internalField   nonuniform List<vector> 
47425
(
(10.1503 0.127129 -0.0221281)
(10.023 -0.109745 0.0182087)
(10.0576 -0.0337283 -0.00446487)
(11.3512 -0.513985 -0.195519)
(12.2945 0.580789 0.685879)
(10.117 0.000884465 0.0113371)
(12.1982 0.415526 0.652099)
(10.0968 -0.0011825 0.000816088)
(10.0058 0.00873391 0.00479157)
(3.28328 5.73938 -0.721521)
(10.0684 -0.00124554 -0.00458075)
(9.93617 0.0768656 0.0122297)
(12.0112 0.441504 0.209987)
(10.0657 -0.0218419 -3.32914e-05)
(10.881 0.396737 -0.126557)
(10.0473 -0.188125 -0.0351806)
(10.0783 -0.0249415 0.00308833)
(8.71088 -0.477705 -1.41539)
(8.59511 1.20223 -4.85865)
(13.2411 -0.482258 -0.969829)
(10.8019 -0.697308 -0.539283)
(9.80643 -0.0604199 -0.00213037)
(9.97226 0.0447914 0.00644103)
(10.0342 0.0110162 0.0167845)
(9.91424 -0.107514 -0.00685312)
(9.98228 0.0564709 -0.017093)
(9.99154 0.0262198 0.0158477)
(11.3589 -0.31542 -8.55816)
(10.0101 0.0245487 0.017507)
(10.0443 0.00694848 -0.0289303)
(9.72509 0.742668 0.102148)
(9.99481 0.0958857 6.26565e-06)
(10.002 0.00462094 0.00545766)
(10.002 -0.00485581 -0.010446)
(9.95018 0.0074267 -0.016033)
(9.91556 0.00529787 -0.00419089)
(9.73731 -0.0597877 -0.0372751)
(10.0013 0.016578 0.00767592)
(10.5478 0.341128 0.0176451)
(10.0064 0.0091488 -0.0123428)
(9.87701 0.0760641 0.0202604)
(9.28807 0.292333 -0.987795)
(6.73691 -1.75612 -1.33586)
(9.98381 0.0131931 0.00511352)
(-0.102989 -0.288979 1.51033)
(10.0238 0.0645527 0.0250318)
(9.97006 -0.0196613 -0.0354373)
(9.99687 0.0338414 0.00353698)
(10.0456 -0.0048015 -0.0137644)
(10.0488 0.00735269 -0.0214813)
(2.09225 -0.591882 -5.66293)
(9.07423 0.997716 1.50551)
(10.0314 0.00584433 0.00724887)
(6.86599 -5.87649 2.85141)
(10.0175 0.0169546 -0.0183496)
(10.1635 0.0240362 0.0317691)
(10.1521 -0.0959836 0.0355879)
(10.0813 -0.0211562 0.0241278)
(12.4216 1.18611 1.5445)
(9.99744 -0.0029881 0.0240572)
(5.07298 -5.79887 2.27565)
(4.93968 -0.118601 2.51895)
(5.83256 -5.39779 1.25655)
(9.16847 -1.12724 -0.00489739)
(10.0073 0.010165 -0.00694343)
(10.7619 -0.269944 0.0377944)
(9.99714 -0.0200454 -0.00740937)
(10.6585 0.00853919 0.426323)
(8.62248 -5.93162 2.94716)
(9.07013 0.538764 0.37192)
(10.8418 -0.489947 0.172096)
(10.0173 0.00888192 0.0375216)
(10.8261 -0.0516145 -0.0121702)
(10.7374 0.23968 -0.608247)
(5.62512 3.421 1.19768)
(9.99889 -0.00383508 0.000943489)
(6.25009 -5.07383 2.08269)
(9.99636 -0.00300556 0.00922292)
(8.3191 -4.90869 2.40563)
(11.7063 0.286572 1.66678)
(5.91067 2.63529 1.26327)
(10.2069 0.285829 0.0337909)
(9.20102 0.0809756 -0.226203)
(10.0101 0.024008 -0.00719335)
(9.88346 -0.00344092 0.0477481)
(10.1799 -0.0602239 0.0188043)
(10.6263 -0.1987 -0.0105489)
(10.1305 0.0548206 -0.0178588)
(10.8356 0.782753 -1.76672)
(10.8167 -0.1998 2.42412)
(9.80855 0.379455 0.00457055)
(10.6337 -0.012516 0.00264257)
(10.048 0.0400423 -0.00474056)
(10.0652 -0.0458626 0.00460275)
(10.0082 -0.035093 0.0066287)
(10.006 -0.00574638 0.0107085)
(10.0363 -0.0227862 -0.0404563)
(10.2006 -0.234579 -0.015151)
(10.1377 -0.0187516 0.00928508)
(9.99447 0.011361 0.0107189)
(10.0582 0.0275726 -0.0212918)
(8.72547 0.107219 -3.93714)
(10.2515 0.18398 0.0549521)
(5.32497 1.93982 -0.571133)
(10.2722 0.0906165 -0.0207169)
(10.427 -0.746767 0.158775)
(10.071 0.136078 0.0334412)
(10.0751 -0.0441107 0.00808588)
(9.53243 -0.0463244 0.0445872)
(9.90545 0.0938913 0.0456913)
(-2.89342 -1.98671 -0.158166)
(10.0763 -0.101353 0.0398063)
(10.3748 -0.941371 0.267777)
(10.1813 -0.0151325 0.00606924)
(10.7572 -0.458644 0.150781)
(1.76774 -4.29982 -5.64887)
(10.756 -0.430917 0.11771)
(4.09477 0.0223447 -4.20654)
(10.3309 0.192849 -0.0119254)
(10.9542 0.306612 0.474126)
(10.2577 -0.0383857 0.00268321)
(10.0004 0.00343599 0.00592205)
(10.005 0.0511621 0.00684856)
(11.6609 0.821076 -0.638426)
(10.0893 -0.0292252 0.0116653)
(10.6494 -0.865702 0.267235)
(10.105 -0.0771282 -0.00582683)
(10.007 0.00369269 -0.00696384)
(9.98644 -0.00146741 0.0208291)
(9.99184 0.00992708 -0.0203417)
(9.26859 -0.290849 0.358894)
(10.2342 0.445069 -0.0342502)
(4.30484 0.0294953 0.697919)
(10.3507 -0.39567 0.0476821)
(9.64905 -0.335393 -0.949947)
(11.8701 -0.518268 -0.819083)
(10.9806 0.701954 0.243299)
(10.6769 -0.853643 0.405008)
(10.1482 -0.080743 0.0293104)
(11.0025 0.129179 -0.0351872)
(9.98824 -0.00383232 0.0011372)
(12.4486 0.0714994 0.155966)
(10.5077 0.0412493 -0.0585431)
(10.4517 -1.21356 0.400379)
(10.1786 0.221705 0.0228787)
(10.0054 0.00520325 0.00555861)
(11.8346 0.101969 0.947447)
(10.0388 -0.0185902 -0.0187266)
(10.4846 0.0147526 -0.02872)
(9.97665 -0.0128918 0.00521845)
(10.3683 -1.26857 0.256023)
(2.96614 -0.380083 -6.70153)
(10.0099 0.0160346 -0.00651535)
(5.6888 0.0817964 -11.2838)
(9.01803 -1.14638 -0.668728)
(9.98236 0.0225801 -0.00494639)
(10.8287 0.410904 -1.60784)
(7.54378 -3.77138 -2.55946)
(9.99268 -0.0144581 0.0240749)
(9.99679 -0.0309101 -0.013074)
(11.0296 -0.374396 0.135942)
(9.97948 0.049445 -0.0292996)
(10.0132 -0.00397355 0.0586234)
(10.1621 0.279011 0.0394043)
(12.1195 0.123471 -0.33196)
(0.679703 -1.80629 -2.03013)
(9.98831 -0.0261518 -0.000876166)
(6.03216 3.17729 1.13714)
(9.93028 -0.00156652 0.0245978)
(12.1354 0.649563 -4.09879)
(6.98735 2.51194 0.739091)
(9.98447 0.00701179 -0.0158057)
(10.0058 0.024988 -0.00205317)
(9.47622 -0.960344 -0.596106)
(10.1538 -0.0267815 0.0306629)
(9.27937 -3.04712 -1.20768)
(2.75093 0.957709 -7.41207)
(10.0045 0.0266351 0.0201271)
(10.0209 0.0140531 0.0292604)
(10.0588 -0.0038877 0.022146)
(2.57316 0.41641 -10.7249)
(10.0248 -0.0817458 0.0088518)
(10.0127 0.0185016 0.0189619)
(9.98622 0.02026 0.0160389)
(10.0354 -0.0431962 0.000819615)
(10.0345 -0.000498616 -0.00248682)
(10.2064 0.0711161 -0.0242692)
(5.66317 -0.431907 -0.473994)
(9.8912 -0.00310429 -0.0345634)
(10.0747 0.104328 0.0360995)
(10.001 -0.00818752 -0.00115324)
(9.98729 -0.000918004 0.0244896)
(12.1161 -0.113982 -0.990821)
(9.99726 0.00196245 0.0039606)
(9.98352 0.0122644 0.0312753)
(10.9974 -0.132902 0.026009)
(10.0022 0.000898051 0.00739236)
(9.97725 -0.00493801 -0.0103191)
(11.1785 -0.102601 0.0532241)
(10.1918 -0.225891 0.0524306)
(9.98925 -0.0273213 0.0216595)
(10.3183 -0.0325308 0.00437978)
(9.79794 0.0937944 0.119774)
(10.9345 -0.265548 0.041938)
(10.1816 -1.50721 -0.830333)
(10.5343 -0.00842271 0.00141527)
(10.0159 0.00577809 0.0158572)
(10.9262 -0.174301 0.0269125)
(10.0285 0.117853 -0.0108413)
(10.0013 0.0133588 -0.00411168)
(10.174 -0.128319 0.0174739)
(10.9693 0.103937 -0.00276606)
(10.0074 0.0399885 -0.00298541)
(10.0459 -0.0445183 0.0363743)
(10.5763 -0.0517167 0.0233329)
(11.2017 -0.147401 -0.154334)
(10.7035 0.0162176 -0.0454841)
(10.5377 0.440928 1.53676)
(8.77149 -1.25348 -0.579397)
(9.97818 -0.00722543 0.0102093)
(11.6404 -0.186181 1.94267)
(10.9695 0.09311 0.148411)
(9.82864 -1.54745 -0.814808)
(10.7229 0.0651446 0.0145382)
(10.529 -0.00313605 -0.00232606)
(11.7063 -0.45838 1.88741)
(10.0416 0.0141162 -0.00265881)
(11.1204 -0.129175 -0.0793263)
(11.2817 0.378108 0.26555)
(11.8217 0.440336 -0.247127)
(10.7068 0.00576104 -0.0645591)
(9.99955 -0.0305355 -0.0186047)
(10.3274 -0.105712 -0.00884954)
(10.0015 -0.00335246 0.000154045)
(9.86356 0.00563598 0.0055786)
(9.96575 0.192484 -0.0262422)
(11.5248 0.40627 1.74657)
(9.95905 0.0254275 -0.00798918)
(11.8479 0.400557 1.55325)
(9.81054 -0.00392221 0.0119968)
(9.89096 -0.00894023 0.0291025)
(10.0129 0.00596585 -0.00636877)
(10.0276 -0.0223777 0.0188803)
(11.8079 0.466064 0.00398172)
(10.4553 0.361662 0.0685198)
(10.0067 -0.00403664 0.0125656)
(10.2284 -0.0394388 0.0132167)
(10.0076 -0.00420159 0.00728192)
(10.0127 -0.00983824 -0.006835)
(9.94507 -0.00145177 -0.00802814)
(10.0055 0.0316977 -0.00145502)
(11.684 -0.0531448 1.73595)
(9.9236 0.000719621 -0.0156506)
(10.0029 0.00410647 0.00617221)
(9.94642 -0.0281279 0.00375122)
(9.93458 -0.00999662 0.0232147)
(9.85632 0.114392 0.0108568)
(9.79596 -0.0122925 -0.00234204)
(10.4655 -0.580983 0.153052)
(10.0105 0.00174431 -0.00664239)
(9.77449 -0.00474051 -0.005683)
(9.9952 0.0132996 -0.00257364)
(10.2112 0.0779188 -0.0160687)
(10.1593 0.02649 0.022298)
(11.5879 0.241358 0.712388)
(9.99811 -0.42938 -0.0645416)
(9.9871 0.0184663 -0.0316145)
(11.6662 0.244952 0.556261)
(9.99003 -0.00720233 -0.0197835)
(10.228 0.0711529 -0.0294724)
(10.1874 0.0719632 -0.0021828)
(11.9047 0.514214 1.24195)
(11.3621 0.527648 1.46046)
(10.1899 -0.128908 0.00225744)
(11.7531 0.223217 1.59762)
(10.0821 0.0120199 0.0332272)
(11.8236 0.373977 1.42665)
(6.77914 3.30494 2.41021)
(11.3233 0.419449 1.5445)
(5.8561 1.23079 -5.00525)
(4.0956 -5.64931 2.10488)
(10.1659 0.118624 -0.0310797)
(3.80224 -5.99315 1.42085)
(9.9099 -0.00542678 -0.013225)
(9.99937 -0.00619067 -0.00878372)
(11.1871 -0.131529 0.0910543)
(9.9221 -0.00801452 0.00814121)
(9.99623 -0.0421633 -0.00184534)
(9.92076 -0.146479 0.0118482)
(10.7574 -0.626696 0.0418193)
(1.41072 1.75095 -3.35233)
(9.20884 0.815482 0.119697)
(10.0029 -0.0015492 -0.00213459)
(9.97011 0.0244187 0.0157903)
(10.0383 -0.0500199 -0.0105706)
(10.5052 0.295169 0.456619)
(11.8554 0.56845 0.171873)
(10.2286 -0.619753 0.184292)
(10.082 -0.142111 0.00614941)
(11.7418 -0.0627413 0.354603)
(9.9986 0.139735 0.0161329)
(10.0805 0.0164184 0.0577355)
(9.98998 -0.0245772 -0.00885096)
(10.0399 -0.0562025 -0.00573314)
(11.3345 3.9624 -0.18804)
(6.60622 1.82256 0.317999)
(1.47881 1.19327 -6.09236)
(9.95173 0.00120889 -0.0207927)
(10.0699 -0.0740398 0.008456)
(10.0632 -0.603927 0.0408697)
(10.1609 -0.524346 -0.151672)
(1.20061 -0.709656 -5.66647)
(9.99465 -0.0242386 -0.0419686)
(9.97658 -0.0250442 -0.0427591)
(10.8214 2.5763 1.45431)
(10.1147 -0.11508 0.0193801)
(9.88626 0.0256984 -0.00452121)
(9.81747 0.0175994 0.00868418)
(9.93578 -0.00417961 0.0143316)
(13.1784 1.88977 -0.587004)
(11.1134 2.27829 1.34512)
(9.98604 0.159344 0.0380178)
(10.1349 0.130841 -0.0492338)
(10.0095 -0.0133175 -0.0547272)
(10.1781 -0.0255897 0.00889866)
(10.0418 0.0164845 -0.0117823)
(10.0348 0.22586 -0.0245964)
(10.0717 0.0740862 0.00559224)
(10.0454 -0.00520199 -0.00676083)
(10.0132 -0.0182135 -0.0133631)
(11.2531 0.0454511 0.275062)
(11.0115 -0.746966 0.497557)
(10.458 -0.732467 -1.26228)
(9.98709 0.0247073 0.00123756)
(9.96569 -0.00487086 0.00778269)
(9.97709 0.0237506 0.0474901)
(10.8857 -0.174018 0.512631)
(9.92704 0.144725 -0.0115331)
(10.0646 -0.0148103 0.0124796)
(10.004 -0.0214457 -0.0111172)
(10.0355 0.250786 0.0243736)
(10.0463 0.27724 0.027592)
(10.082 0.0406881 0.00155213)
(9.9061 0.268472 -0.0185753)
(10.0207 -0.00843557 0.00819258)
(9.97018 0.00774591 -0.0242659)
(10.072 -0.0185083 0.0229019)
(9.6516 0.386702 -0.145236)
(9.98322 0.0107234 -0.0205003)
(10.0026 -0.0183305 -0.0113213)
(10.0183 0.238402 0.0186337)
(10.4002 -0.425997 -0.0273609)
(10.0981 0.234446 0.0231092)
(9.93343 0.242487 0.0105398)
(10.0143 0.18906 0.0234314)
(11.2191 -1.22524 -0.0533139)
(9.95631 0.00598446 -0.00829698)
(9.26793 0.209638 0.144046)
(9.95497 0.181102 0.0134362)
(10.0012 0.0247265 -0.00596047)
(9.76285 0.255874 2.08047)
(11.2725 -0.44496 -0.516181)
(10.0578 -0.00768193 -0.011604)
(9.97767 -0.00383517 -0.0240899)
(10.3673 -0.367859 0.0725854)
(10.4348 0.468022 -0.0242425)
(9.84274 -0.00365977 -0.00465914)
(10.013 -0.00521315 -0.00116382)
(10.0697 -0.133949 0.00773068)
(10.2049 0.693015 -0.111621)
(9.87496 -0.00927904 -0.0105161)
(-0.0152909 0.308171 0.31009)
(10.565 -0.0619247 0.0395064)
(10.0705 0.924646 -0.0789347)
(9.9794 -0.00193483 0.00750639)
(10.0651 0.813715 -0.0553768)
(10.2115 -0.292674 -1.00634)
(9.9968 -0.0192401 0.00754238)
(10.0034 0.00570976 0.00411839)
(9.77928 -0.0465138 -0.0253722)
(10.0115 0.00240622 0.00485159)
(10.0493 0.822047 -0.112984)
(10.1166 -0.0526477 -0.0291996)
(10.0079 0.0226618 0.00109865)
(9.96174 -0.0242935 0.0100971)
(10.0025 0.0184324 0.00483517)
(10.0159 -0.0028496 0.0118563)
(10.1783 0.186721 0.0468038)
(10.0034 0.000515204 0.00639477)
(9.99239 -0.00301627 0.0115923)
(10.4669 0.876617 -0.304797)
(10.3043 1.07942 -0.35111)
(9.979 0.0205947 0.0162166)
(10.5215 -0.426386 0.0748464)
(9.95392 -0.0403863 0.0181414)
(10.3934 0.817025 -0.273498)
(9.97889 -0.054609 0.0371196)
(9.93377 0.021976 0.010124)
(12.1287 -0.00562023 -0.61904)
(9.99858 0.012233 -0.00863366)
(10.4119 -0.763879 1.60604)
(10.0151 -0.0141364 -0.0176548)
(10.9133 0.335905 -3.09632)
(10.0021 -0.00740291 -0.00479247)
(10.5656 0.12474 0.00460029)
(9.96423 -0.00574343 -0.0246915)
(10.0189 0.000260719 -0.0231463)
(9.83958 0.00630558 0.00634975)
(10.0552 0.000331266 0.021511)
(9.99467 0.00392963 -0.0333976)
(10.2953 0.9564 -0.274367)
(1.77758 -2.08499 1.89965)
(2.0875 -0.61485 -2.44329)
(10.0461 0.0409378 0.0206273)
(10.333 1.495 -0.825396)
(10.6537 0.715273 -0.288878)
(10.7436 0.670894 -0.283543)
(9.98562 -0.022245 0.00576285)
(9.9767 0.00351245 -0.00651954)
(9.9958 0.00696791 0.0105142)
(9.9567 -0.00553797 -0.00584021)
(9.95355 -0.0428944 0.0147465)
(10.1428 -0.199782 -0.0213909)
(10.748 0.603116 -0.196655)
(9.98739 -0.00753667 0.0198892)
(10.0441 -0.00337645 0.0147972)
(11.224 -1.29634 0.470215)
(11.3996 0.535211 -0.186124)
(11.037 0.543079 -0.112645)
(8.08959 -1.31588 -4.92476)
(-0.0403076 5.22523 0.774113)
(10.4555 -0.278518 0.0562291)
(7.43878 -0.978676 -5.44273)
(-0.0710508 4.9698 1.12621)
(9.91441 -0.167602 0.0110519)
(-0.162986 5.18282 0.964296)
(8.83819 -1.6777 1.45119)
(10.0303 0.0139054 0.00435941)
(10.9717 0.638138 -0.299992)
(10.9229 0.687359 -0.324017)
(11.1907 0.613474 -0.300447)
(-1.32358 4.35096 1.34245)
(10.0845 0.121661 0.00214132)
(9.99688 0.0289309 -0.0153336)
(10.0123 -0.0246974 -0.019533)
(11.2581 0.657508 -0.400949)
(11.1393 0.689867 -0.457061)
(10.0423 0.00047032 0.018591)
(10.0748 0.0884309 0.00182345)
(9.85897 3.68535 3.09713)
(-1.22561 4.26504 1.31798)
(12.78 -0.381981 -2.94536)
(10.0077 -0.0118882 0.00739871)
(8.72804 -0.698405 -3.18396)
(10.0365 0.0142226 1.07275)
(9.9777 -0.0151472 -0.0126033)
(10.88 0.387793 -0.0419252)
(11.8381 0.368877 0.236524)
(10.8677 0.296085 -0.0343271)
(9.99737 -0.0122535 0.00435077)
(9.99878 -0.00446894 0.0069388)
(9.98294 -0.00640565 0.000741342)
(10.4592 0.330596 0.0173847)
(9.9991 0.00221024 -0.000198725)
(9.98825 -0.0108925 0.0191092)
(10.1404 0.0919282 -0.0387379)
(9.95711 -0.00707362 0.0158084)
(11.0174 0.131391 -0.023944)
(10.0319 -0.00218584 -0.00614068)
(10.0038 0.0235022 0.0258797)
(10.0004 -0.0134388 0.000395486)
(10.006 -0.00662492 0.00841373)
(9.93979 -0.0121796 0.0170909)
(10.3887 0.298629 0.00799141)
(10.1705 0.0468217 -0.00811392)
(10.0403 -0.00184885 0.0465866)
(10.9443 0.148017 -0.0346169)
(9.25052 4.40305 2.58803)
(9.95809 0.000893848 0.013868)
(11.9077 1.61863 -1.30475)
(9.99873 -0.00976622 -0.00154927)
(10.7622 -0.221365 -0.0419051)
(6.60928 -0.832821 1.52311)
(9.75853 1.40742 -0.554922)
(9.97547 0.0576197 -0.0269083)
(9.8345 1.49045 -0.619135)
(10.0083 0.0246379 -0.0147192)
(10.0689 0.0232164 0.0392537)
(10.0559 1.28215 -0.838393)
(9.98492 -0.00512346 0.015451)
(10.6101 -0.186318 0.0615913)
(9.93158 1.16588 -0.582754)
(10.2332 -0.053884 0.0453023)
(10.5137 0.00762365 -0.256277)
(8.16203 0.28391 -4.04382)
(10.0354 -0.0142977 -0.0200259)
(9.65228 1.87732 -0.555632)
(10.0491 0.0198755 0.0424217)
(9.05926 2.02161 -0.954262)
(10.0563 -0.0747298 0.016626)
(10.0081 -0.039764 -0.0139533)
(9.98873 0.0207657 0.00533724)
(9.97583 0.0172507 0.000774214)
(10.915 0.891594 0.850519)
(9.96652 0.00683134 -0.0106703)
(9.97963 0.0218338 0.00469278)
(10.0485 -0.021397 0.001073)
(9.9928 0.026919 -0.0111891)
(11.1149 0.510486 0.00608051)
(10.1013 0.0101395 0.0025536)
(10.0681 0.0110828 -0.00200972)
(8.64101 0.240928 -0.558317)
(9.96105 -0.0170663 0.0530116)
(9.88615 0.064573 -0.00858308)
(10.0525 -0.114966 0.0273166)
(10.0425 -0.036663 -0.0256085)
(10.1205 0.0105139 0.0293939)
(9.98324 0.0110728 0.00649883)
(10.1305 0.0356846 -0.00920809)
(10.325 1.333 -0.975798)
(10.0056 0.00986854 0.00653662)
(9.98885 0.00477348 0.00244693)
(2.94584 -0.461384 -5.66473)
(10.0482 -0.0145793 0.0196792)
(10.029 0.0144492 0.0076186)
(10.0514 0.123595 -0.0264679)
(10.0043 0.0112818 0.00605567)
(12.6277 1.26596 -0.366677)
(12.7324 0.91738 -0.0785123)
(9.95272 -0.0280716 -0.0191257)
(9.96977 -0.0751361 0.0185958)
(9.91356 -0.00248376 0.0208421)
(11.2695 -0.175238 1.18493)
(10.0343 0.0586742 -0.0313041)
(12.6829 1.37533 -0.341301)
(9.99871 0.00596621 -0.0033551)
(-0.655408 -1.51843 2.92666)
(8.15745 -0.487191 -0.633369)
(9.26468 -0.856665 1.96789)
(10.0487 -0.0144211 0.0076494)
(12.6289 1.28148 -0.267469)
(10.073 0.0296851 -0.0302147)
(10.0801 0.110711 0.00307185)
(10.0283 0.0141473 -0.0612202)
(9.84519 0.0459606 0.11682)
(10.0265 -0.0117163 -0.0102373)
(10.0538 0.0324531 -0.016021)
(7.28412 -0.967031 0.038768)
(10.0055 0.00950643 -0.00956712)
(9.96684 0.00453546 0.00538302)
(9.98354 -0.0212472 0.0149139)
(12.5367 1.29578 -0.31197)
(10.0534 0.0050107 0.0344233)
(10.0317 0.00488149 0.00799239)
(12.3591 1.31061 -0.386237)
(12.2604 0.665869 -0.00845055)
(10.0395 -0.0105449 0.0193061)
(10.0142 -0.00607175 -0.00198096)
(-0.321017 1.96175 0.945534)
(10.0353 0.0104506 -0.0126258)
(10.5433 -0.336249 0.169135)
(9.96389 0.0106576 0.0284659)
(10.0665 0.0236297 0.032638)
(10.0439 -0.0086646 0.0117745)
(11.9232 0.797876 -0.19405)
(11.1212 -0.0735968 1.35548)
(9.30872 0.668592 0.866407)
(9.93406 0.0506505 0.0901642)
(10.0089 -0.0240635 0.0269312)
(10.0017 0.0160991 -0.0156933)
(12.6128 -0.425604 0.612564)
(9.28971 0.137642 -0.387092)
(9.86544 0.0479187 -0.0467859)
(-0.202139 1.86326 0.654786)
(9.9924 -0.0258617 -0.018717)
(10.011 0.0110813 0.0154233)
(-1.02424 1.73079 0.995552)
(11.9974 1.95455 -1.12938)
(9.84635 0.112944 0.0292571)
(0.0332593 1.94401 0.558758)
(-0.0102121 1.96559 0.897133)
(10.0125 0.0242044 0.0016141)
(9.99816 0.00284671 0.00181217)
(10.0501 -0.0129249 -0.0179989)
(9.67309 -0.391484 0.0629066)
(9.9927 0.0150009 0.000788977)
(9.96168 0.00897497 0.000219744)
(11.4674 1.26689 0.325469)
(10.0411 0.249511 0.0665372)
(9.95696 0.0508504 -0.00391535)
(10.0684 0.00628064 0.0151017)
(12.6104 0.759861 -0.0187942)
(11.8416 1.11512 -0.199925)
(9.97179 0.000348709 -0.00192161)
(10.3486 0.366924 -0.0532724)
(-4.58514 -2.65076 -0.479958)
(0.505643 -1.9708 -0.591151)
(10.6844 0.350512 -0.176773)
(9.9605 -0.00307537 0.00472946)
(10.3487 -0.169288 0.163075)
(10.8702 -0.136424 -0.704854)
(9.89651 0.00265841 -0.0300409)
(9.89681 0.00536224 -0.0291556)
(10.0371 0.00314028 0.0216882)
(10.3029 0.171919 -0.0116296)
(9.97981 -0.0122054 0.0069275)
(10.7237 0.158949 0.242055)
(10.0118 -0.0036009 0.0153835)
(12.848 0.927056 -0.615048)
(10.3111 1.52205 -1.06047)
(10.6309 0.337263 -0.104547)
(12.8859 1.11124 -0.928852)
(10.1058 0.069526 -0.0298022)
(10.0032 -0.00933943 -0.0260547)
(10.5556 0.653771 0.15051)
(10.173 -0.0842211 0.0296505)
(10.0141 -0.0041571 -0.0109943)
(10.0081 0.00577061 -0.0023114)
(10.8816 0.785245 -0.469727)
(7.97525 -0.730892 -1.37129)
(10.0216 -0.00389662 0.00743397)
(10.7578 0.209639 0.0645506)
(9.98698 0.105453 0.0338849)
(12.1558 -5.47472 -1.87892)
(10.5884 -0.799406 0.956962)
(11.4712 -0.186702 0.818459)
(6.25873 1.10191 0.340932)
(6.10287 1.07988 0.191242)
(10.0577 -0.0230749 0.0171578)
(9.89283 0.115929 -0.0022448)
(5.05693 0.938795 -0.168255)
(10.0415 0.00214627 -0.00631429)
(9.91105 -1.74486 -3.35068)
(7.02286 0.525272 1.88573)
(9.9852 0.000381376 -0.00247998)
(9.91219 1.32475 0.715833)
(10.0209 -0.0548897 0.00358607)
(10.0157 0.008574 0.0197322)
(10.0224 -0.00362527 0.0033803)
(13.0159 0.4084 -0.0871876)
(9.97699 0.0103122 -0.00433236)
(9.98487 0.00431642 -0.00113614)
(10.0246 -0.0217488 0.00756134)
(9.90429 -0.00627216 -0.0546016)
(10.0191 -0.00197634 0.00658162)
(10.0545 -0.016871 -0.00298304)
(10.0293 -0.0100946 0.045607)
(9.98963 0.0142005 -0.0101043)
(11.1819 0.913864 0.625923)
(10.0627 0.560198 -3.18723)
(13.2071 3.23376 1.3402)
(10.7847 0.401459 0.0239587)
(9.79895 1.33191 1.39395)
(10.0146 0.0336644 -0.00178048)
(9.42389 -0.937088 0.118254)
(10.0345 0.01935 0.0137198)
(10.0003 -0.0026597 -0.00779477)
(10.003 0.000901747 -0.00676591)
(9.99974 0.000789814 -0.00679098)
(9.98625 0.0132399 0.00244023)
(9.11144 0.314917 -0.868528)
(11.4097 0.535515 0.234844)
(9.98495 0.0110408 -0.00431244)
(10.2317 -0.500014 0.144797)
(11.5715 1.37186 1.91702)
(10.0141 0.0170989 -0.00302746)
(4.39381 -0.287683 2.16059)
(12.9733 -1.00255 -2.7649)
(9.94444 0.0304229 -0.00401806)
(9.42062 -0.572851 0.0601031)
(10.439 0.0368555 -0.016926)
(10.0315 -0.00751979 -0.0332774)
(4.82793 0.974994 1.6967)
(9.99361 -0.00380247 0.00484271)
(8.26024 -3.77099 0.900428)
(10.0639 -0.00502253 -0.000908547)
(11.4471 -0.278362 1.03813)
(11.8944 0.495087 -0.0215439)
(9.98477 -0.0281678 -0.0101181)
(9.97402 0.0323218 -0.00227026)
(10.2575 0.522173 0.0619989)
(8.55863 -0.556785 -2.21642)
(9.95438 -0.0318277 0.014025)
(10.0293 0.00366648 0.0331756)
(10.1782 0.00196529 0.00744524)
(11.795 -0.0826963 0.695365)
(10.0012 0.0040072 0.00209843)
(12.1155 0.497828 0.27315)
(10.3187 -0.0189046 0.00952974)
(1.2097 -0.662867 0.511137)
(11.8394 0.428837 0.0765293)
(10.2516 -0.00951363 0.00704684)
(11.9433 0.46245 0.192113)
(10.001 -0.00365535 -0.00259995)
(10.1097 -0.0587303 -0.0246837)
(10.5318 0.349298 0.0202864)
(10.2885 -0.0338749 0.00200542)
(12.1359 0.55937 0.105077)
(9.99769 -0.0173112 0.0047979)
(10.0296 -0.21368 0.0308276)
(11.9837 0.503745 0.0320592)
(10.003 0.00604332 0.000440102)
(10.3243 -0.0440917 0.00328434)
(10.0037 0.00766365 -0.000495562)
(10.0216 0.0120671 -0.000315678)
(6.86233 0.37312 -5.0473)
(6.67999 -0.121543 -5.61994)
(9.83617 0.0641223 0.407434)
(8.77424 0.337315 -4.10565)
(10.011 0.0126238 0.00194736)
(9.98257 0.000411842 0.000128782)
(10.7323 0.636908 -0.221788)
(10.316 -0.136994 0.0337423)
(9.01776 0.130885 0.40915)
(10.026 0.00277758 -0.00228328)
(10.0487 0.0267459 -0.0150662)
(9.95061 -0.0178185 0.0176469)
(9.98001 0.0417497 -0.0271595)
(5.26922 0.227909 -6.26106)
(2.39237 -0.981406 0.626907)
(9.95018 -0.0119042 0.0155333)
(10.0203 0.0591902 0.00673975)
(9.94698 -0.0539601 -0.0178991)
(9.94204 0.0170942 -0.0112797)
(10.1148 -0.110504 0.0293393)
(9.94247 -0.0180612 0.00910244)
(11.1046 -0.139237 0.0669245)
(11.654 -1.42547 1.96291)
(10.0757 -0.0114684 0.0119833)
(10.0569 0.0181484 -0.024404)
(9.95603 -0.0259453 0.00287093)
(10.0076 0.0182069 0.0128873)
(9.77568 0.210999 0.0388113)
(9.97571 -0.0266721 -0.00979788)
(10.5323 -0.190863 0.0172734)
(9.96618 -0.0112532 -0.0450626)
(10.0229 -0.0295867 -0.024685)
(10.0536 0.00675153 0.00892863)
(9.24284 -0.841096 -1.20619)
(5.14553 0.723403 -4.70297)
(10.0127 -0.0594016 0.000622691)
(-0.301681 -1.77513 0.708819)
(10.1051 -2.66022 1.31243)
(12.9113 -1.34826 -1.00007)
(-0.184393 -1.89158 0.517439)
(10.1966 0.0439389 0.0191617)
(6.01217 -0.23365 0.496433)
(10.4107 -0.465094 -2.51055)
(11.0037 -1.41194 0.430407)
(5.68376 0.297121 -3.68765)
(-0.452237 1.84387 1.6127)
(1.47526 0.572147 -3.44737)
(11.2749 -0.0268865 0.46561)
(10.6635 -0.0453983 -0.0197924)
(10.8044 -0.0223603 1.07399)
(9.93751 0.00389031 -0.0169498)
(3.77725 -0.23061 -0.192327)
(10.7112 -0.01638 -0.324009)
(10.5848 -0.0248936 0.0224685)
(10.0077 -0.00689698 0.0103376)
(10.0181 0.00803726 -0.0182104)
(11.2721 -0.206984 1.04081)
(9.90666 0.113682 0.0325674)
(10.1246 -0.0289283 0.0199955)
(9.97565 0.0618904 -0.0143535)
(-1.64963 1.10094 0.450907)
(8.10446 0.270308 -2.42948)
(10.0241 -0.00226952 -0.00226603)
(9.98506 -0.00503326 0.00394778)
(5.05975 0.280199 -2.30538)
(5.95038 0.14401 -2.97087)
(10.9674 -0.263969 -1.88903)
(-3.33321 -3.68303 -1.15505)
(3.44389 0.746177 1.36371)
(4.10627 -0.000241999 -3.78514)
(3.83077 -0.0742953 -4.65456)
(10.007 -0.00372451 0.0078383)
(9.75398 -0.00293432 0.00254015)
(9.46373 -0.0315698 0.113677)
(9.99837 -0.0498159 0.0237205)
(10.4245 0.042221 -0.0497554)
(-0.488067 1.97207 0.906319)
(10.8346 -0.10369 -0.252475)
(10.4748 0.0369335 -0.048471)
(10.3746 0.0404787 -0.0445174)
(10.0687 0.0220761 0.017416)
(-0.363752 1.91322 1.81029)
(-0.402317 2.1945 1.79607)
(10.0306 -0.00139486 -0.0277917)
(10.4504 0.000395176 -0.0533915)
(9.93148 0.0579976 0.0222549)
(9.98484 0.00807687 -0.0169235)
(10.4058 0.0181182 -0.0394)
(10.0124 0.0186818 -0.0266216)
(9.6854 -0.0401506 -0.00860622)
(10.0404 0.0177107 -0.0488671)
(9.97946 0.00275866 -0.010559)
(6.90027 -0.666511 -3.04467)
(10.0158 0.00706767 -0.00313587)
(9.98472 0.0275666 0.0416105)
(10.0343 -0.0444977 -0.0125913)
(9.89718 0.0368901 -0.0142619)
(9.91876 0.024674 -0.0169629)
(4.22645 -0.500255 -2.30209)
(12.4968 -1.3445 -0.335597)
(10.0151 -0.0165228 -0.0130116)
(10.6989 0.404486 -0.204482)
(10.0463 0.020465 -0.0120172)
(9.77367 -0.352363 0.139176)
(9.75303 -0.427385 0.202659)
(11.9934 -0.0716552 -0.0512828)
(9.93904 0.00440946 -0.00701103)
(-0.43825 -1.10873 2.37548)
(12.0919 -0.137634 -0.0618711)
(10.4356 0.068669 0.0191815)
(10.7458 0.329973 -0.0432459)
(8.108 0.312134 -3.35088)
(12.334 2.59569 1.04563)
(10.0048 -0.0354165 0.00213036)
(10.0113 -0.0308683 0.000942057)
(11.9016 1.53587 2.04377)
(10.0525 0.00344942 -0.0219702)
(10.0046 0.0293708 -0.00172826)
(11.1102 0.539756 0.363633)
(10.0021 -0.0328188 -0.00400868)
(9.98364 -0.00267001 0.00169999)
(-1.38484 0.311684 2.82808)
(12.4894 0.168437 0.151535)
(11.6087 3.18277 -0.0343524)
(10.002 0.00074466 0.004971)
(7.6439 0.52789 -2.59678)
(9.94901 0.00992985 -0.0107098)
(11.8437 -0.451157 -0.244494)
(9.60066 -0.41833 0.309016)
(12.0383 -0.0860727 -0.0223184)
(9.92578 0.00383769 -0.00655907)
(9.41107 -0.453904 0.272543)
(-0.910656 0.524599 3.03939)
(11.9344 1.6366 2.50687)
(12.264 -0.379296 -0.823566)
(-1.07642 1.81839 1.94835)
(11.9843 0.345139 0.185338)
(10.3837 0.159187 0.0592185)
(9.90689 -0.00046095 0.0051016)
(12.0693 0.342982 -0.198404)
(9.98115 -0.00285821 -0.00292087)
(12.1598 -0.0953806 0.151807)
(-0.176801 -1.11864 1.4913)
(9.99448 -0.00608882 -0.00334661)
(12.6297 0.0452804 -1.17745)
(10.0042 0.0050142 0.0299636)
(9.98884 0.00690047 0.0257369)
(11.3163 -1.85531 0.887178)
(9.99944 0.00218551 0.0248388)
(10.1158 0.0971884 -0.042099)
(8.24281 -5.83887 0.226413)
(9.59458 0.399597 0.0800669)
(10.0151 -0.244749 0.0149425)
(12.4539 -0.809275 0.213945)
(10.4759 1.39358 1.4499)
(10.0566 -0.00319488 0.0493459)
(11.8288 -2.49084 -0.712212)
(5.25581 -0.829345 -0.0335584)
(10.6231 0.0424418 0.0646274)
(9.60494 -0.720602 -0.833292)
(9.99121 0.074564 0.00252278)
(10.3892 0.168415 0.0147879)
(10.0106 -0.0109502 0.0292129)
(9.9942 -0.0120161 0.0130759)
(2.23042 1.97669 -1.18033)
(1.08288 -3.75855 1.69807)
(12.3062 -0.351673 -0.0776581)
(10.0317 -1.66661 -0.318312)
(12.1238 -1.58093 -0.182463)
(1.76104 4.73583 1.0973)
(-2.10197 0.453925 0.789072)
(9.74913 -3.58494 4.37274)
(9.97671 -0.00834011 0.00366628)
(10.0044 0.0117969 -0.00822225)
(9.98893 0.0120454 -0.00347128)
(9.87915 -0.0696849 -0.0691153)
(5.77795 0.684117 -2.20177)
(9.69788 -0.547892 0.191927)
(9.05455 -0.61822 1.14649)
(9.98839 0.0185001 -0.00794513)
(-1.06375 -1.45832 0.485464)
(12.1111 -0.0844598 0.0137211)
(9.91049 0.210928 -0.155467)
(10.0539 0.0436384 0.0138234)
(10.0083 -0.0455952 0.0287379)
(10.0617 0.0471503 0.0115415)
(6.25824 -1.84378 -3.09548)
(10.0049 -0.00279144 -0.00573555)
(5.97723 5.49071 0.134921)
(10.0212 -0.0185761 -0.00107989)
(10.1345 -0.55702 -3.00638)
(9.98857 -0.00384988 -0.00244601)
(10.0005 -0.00677793 -0.00563874)
(10.0139 -0.00925858 -0.000103239)
(10.0257 -0.00604647 -0.00521847)
(9.98798 -0.0121966 0.0027481)
(12.8481 0.925289 0.169755)
(12.182 0.202143 0.693564)
(9.07166 1.41961 2.51868)
(7.16111 4.03959 2.55586)
(9.41913 1.15795 0.539519)
(10.356 0.517745 -0.0665687)
(11.2304 1.00615 0.0546825)
(6.55483 -0.35032 -2.82672)
(10.493 -0.126412 0.0478969)
(12.0477 -0.0771932 -0.0536228)
(10.391 -0.722371 0.140992)
(11.9044 0.0250033 -0.0450334)
(8.23153 -0.0914373 4.69015)
(5.38961 -1.21846 1.12938)
(10.5116 -0.245684 0.204189)
(9.9993 -0.00902104 0.00490638)
(9.53582 0.892334 -0.272571)
(10.0068 -0.00551679 0.00931734)
(10.1127 -0.00151632 0.00559479)
(13.6638 -2.32595 2.59776)
(12.1419 -0.614155 0.776933)
(-1.62728 2.85507 0.652328)
(10.1649 -0.861919 0.277708)
(11.7373 -1.01043 -0.313415)
(10.3873 -1.09368 -1.08476)
(11.0987 -0.0925536 1.47316)
(10.1642 -0.00691767 0.00408734)
(-3.87496 -2.69958 1.37371)
(10.0069 0.0010537 0.00474459)
(10.0558 -0.00122361 0.00513916)
(10.3896 -0.0329772 0.663356)
(9.86117 -0.0516327 5.01319)
(10.176 -0.0117548 0.0117696)
(10.204 0.55034 -0.375126)
(9.98277 0.00211331 0.00990946)
(10.624 -1.23963 0.633125)
(10.6184 0.0863278 0.992839)
(9.95974 -0.027441 0.00603966)
(10.9449 -0.391832 -2.9601)
(10.3724 0.530913 -2.52201)
(12.6366 0.373773 1.37046)
(10.5901 0.517208 -0.122575)
(9.59302 0.106245 0.312114)
(3.12424 0.940862 -3.63903)
(0.515379 2.68849 3.36366)
(5.35188 3.17442 0.846616)
(12.9765 -0.839042 -2.63022)
(5.42533 -0.509442 -0.09495)
(9.83607 -0.00346529 -0.0805716)
(9.89923 -0.0345658 -0.00145131)
(8.4512 1.66459 2.84679)
(9.95465 -0.0105679 0.00638944)
(4.49023 -0.763991 -0.095702)
(9.86636 -0.00739914 -0.0522179)
(9.85648 -0.00911816 -0.060059)
(-0.524996 -0.0227225 0.0561436)
(9.6531 -1.23917 0.911611)
(10.8897 -0.430444 0.145127)
(9.97749 0.0143848 0.0152529)
(9.98705 0.0215847 0.0126572)
(8.25205 0.298552 -2.77208)
(10.0258 0.02353 0.0253365)
(9.9527 -0.00150467 -0.0194659)
(10.0822 0.867771 1.00333)
(12.2043 -0.726303 -2.74804)
(10.2644 0.316525 0.0878934)
(9.8898 0.0963137 0.00832953)
(9.90873 -0.101896 0.0023295)
(9.99654 -0.00261763 0.000214833)