/*--------------------------------*- C++ -*----------------------------------*\
| =========                 |                                                 |
| \\      /  F ield         | OpenFOAM: The Open Source CFD Toolbox           |
|  \\    /   O peration     | Version:  2506                                  |
|   \\  /    A nd           | Website:  www.openfoam.com                      |
|    \\/     M anipulation  |                                                 |
\*---------------------------------------------------------------------------*/
FoamFile
{
    version     2.0;
    format      ascii;
    arch        "LSB;label=32;scalar=64";
    class       surfaceScalarField;
    location    "0.01535";
    object      phi;
}
// * * * * * * * * * * * * * * * * * * * * * * * * * * * * * * * * * * * * * //

dimensions      [0 3 -1 0 0 0 0];

oriented        oriented;

internalField   nonuniform List<scalar> 
7516
(
0.00167602
-0.0640121
0.0623361
0.00405785
-0.00900253
0.00525129
-0.000306604
-0.0147855
-0.00453653
0.0100119
0.00931014
-0.0279082
-0.00346659
0.0101635
0.0212114
0.000276505
-0.000600579
-0.000495148
0.000819222
0.0413996
-0.0433149
0.00191538
0.0244706
-0.00682998
0.0165498
-0.0341904
0.00555818
-0.00972982
0.00854748
-0.00437584
6.3583e-05
0.00114234
0.0093729
-0.0105788
0.00232132
-0.00162713
-0.00107495
0.000380753
0.00519518
-0.00170437
-0.00480093
0.00131012
-0.000657472
-0.00395259
0.0101682
-0.0047682
-0.00368317
0.0164091
-0.051418
0.0282605
0.0730305
-0.049873
-0.0158854
-0.013049
0.0145127
0.0144217
-0.013543
4.71456e-05
0.0265807
-0.0130848
-0.0170135
0.00779002
0.0238711
-0.0146476
-0.000328472
0.00315913
0.0032808
-0.00611146
0.0486962
-0.0330986
-0.00271131
-0.0128863
0.0297882
-0.0161284
0.0227174
-0.0363772
-0.00244329
0.000523205
0.00223893
-0.000318848
-0.00172322
-0.00169334
-0.00065909
0.057705
0.000751364
-0.0584564
-0.034796
-0.000278113
-0.00773625
-0.00165649
0.00191534
-0.000205004
-5.38433e-05
0.000784283
-0.00830802
0.0110389
-0.00351513
-0.00390116
0.0196098
-0.031594
0.0294447
-0.06101
-0.0183226
0.049888
-0.0014786
-0.000483162
0.000324606
0.00163716
0.00809284
-0.0307071
0.0146099
-0.000522414
0.000714613
0.00122603
-0.00141823
1.26468e-05
0.000134458
0.00126772
-0.00141482
-0.0328357
-0.00455021
0.0369476
0.000438294
-0.000343598
0.00156025
-0.00316125
0.00194459
0.021799
-0.0223772
-0.010764
-0.00282206
0.00473643
0.00884958
0.000269773
-0.00355373
0.0028607
0.000423257
-0.0082612
0.0168318
-0.0126987
0.0041281
0.00315751
-0.00335396
0.00667449
-0.00647804
-0.00326746
0.00283947
0.000697762
0.000142706
-0.00717645
0.000708037
0.0063257
-0.00053224
0.00688329
-0.00674106
0.000390012
-0.00088326
0.000189276
0.00683739
-0.0061434
-0.00168852
0.00177135
-0.00180606
-0.0432928
0.00398919
-0.00632238
0.045626
-0.0379906
0.0211704
0.0129191
-0.0889186
-0.00733784
0.0962564
0.00265504
-0.00164774
-0.00114352
-0.00167639
0.0346614
-0.0448047
0.0118197
0.00198176
0.00227303
-0.0080179
0.00376312
0.0343275
-0.00384472
-0.0127896
-0.0176932
-0.000254631
-0.00519529
-0.00232254
0.00453437
-0.00521788
0.00272901
-0.0020455
0.0759214
0.0936498
-0.0669223
-0.00398178
-0.00114048
0.00483001
0.00029225
-0.0192976
-0.0105466
0.0321598
-0.00231557
0.0503558
-0.0507893
0.000433462
0.00335936
-0.000802216
-0.00500802
0.00245088
0.046453
-0.000140171
0.00213294
0.000102628
0.00093126
-0.00316683
0.0102638
-0.0436162
0.0074166
0.0259358
-0.000299983
0.0565874
-0.0562875
0.0338165
0.0149133
-0.00805791
-0.0406719
0.034975
-0.0374075
0.00114426
0.0012882
0.00936947
-0.0213991
0.0105862
0.00144342
0.000126252
-0.0027125
0.00110765
-0.00232972
0.0016006
0.0012872
-0.000558074
0.000899347
0.0494065
-0.0503059
0.00143501
0.00358371
0.000260047
-0.00527877
0.000184634
-6.89758e-05
-0.00449354
0.0557572
-0.00762937
-0.0481278
0.00292012
-0.00638911
0.00314053
0.0019064
0.00243467
-0.00304446
0.000173182
0.00940077
-0.011701
0.00212703
-0.00551526
0.00302513
0.00239914
9.0989e-05
0.00795288
-0.0212007
0.0158213
-0.00257347
0.00319443
-0.00315862
-0.00403292
0.00399711
0.0351183
-0.00529997
0.00544845
-0.0352668
-0.00302953
0.00327063
-0.015177
0.0149359
-0.00367016
0.00156589
-0.00022545
5.22052e-05
-0.000924273
0.00406649
-0.00837201
-0.00113869
0.00963926
-0.000128558
0.0059863
0.0064139
-0.0266465
0.0142463
0.00501435
-0.0126015
0.00341098
-0.00623868
0.00124198
0.00230142
0.00269528
-0.0704549
0.0710219
-0.000567016
-0.00431758
-0.0852394
0.0191021
-0.000184177
0.000877854
-0.00385229
0.0576094
-0.0585667
0.000957246
0.000781649
-0.0284161
0.0852439
0.000804192
-0.00355659
-0.000239126
0.00299152
-0.00286948
0.00301611
0.00277348
-0.000549552
0.0011294
0.00174147
-0.00219414
0.00398315
0.00063779
-0.0024268
-0.00955276
-0.00359212
0.00846264
-0.00334811
0.0107757
0.00334577
-0.0107734
-0.034198
0.0664316
-0.0488648
0.0166312
-0.0140326
-0.00132352
0.00792696
-0.0567281
0.0171524
0.0446543
-0.00507852
0.0202576
-0.0867159
0.0446532
0.0218051
-0.00102541
0.00892456
-0.00779151
-0.000107646
-0.00377616
0.0110153
0.0129607
-0.0201998
-0.00658263
0.0012304
0.00755781
-0.00220558
-0.0209313
-0.000100618
0.0114792
-0.00250332
0.0393675
-0.00174586
-0.00519818
0.00937403
-0.0001419
-0.00403395
-0.00551591
0.00537215
-0.000739492
0.00635966
-0.00460248
-3.22045e-05
-0.00172497
1.64106e-05
0.00172573
-0.00148706
-0.00235009
0.0107195
-0.00828922
-8.01708e-05
-0.00201168
-0.00117073
0.00235698
0.00082543
-0.0129796
-0.00911015
0.0104537
0.011636
0.00134954
-0.018289
0.0033383
0.0136011
0.00251912
-8.23712e-05
-0.000705201
-0.00173154
0.00182051
-0.000658243
0.0116921
-0.0037287
-0.00691405
0.0167761
-0.00925872
-0.0220584
0.053776
-0.0536635
-0.000112411
-0.0248514
0.0939441
-0.0153168
-0.00228112
0.00265709
0.000428224
-0.000202062
0.00213717
-0.00197274
3.76315e-05
-0.0508085
0.0504791
0.000329399
-0.0458599
0.0604824
0.0148222
-0.0722453
0.00923249
0.0122043
0.0637441
-0.0282657
0.0137193
-0.0491976
-0.00182293
-0.000327798
6.19512e-05
0.00208878
0.0505339
-0.00084495
-0.0496889
-0.000279228
0.000605909
-0.00214961
0.0015853
0.000457494
-0.00232203
0.00190297
-0.00182969
-0.000393803
0.000320524
-0.00276656
0.00261388
0.00166637
-0.00151368
0.00186479
-0.00348815
-0.000388318
0.00121517
-0.00185203
-0.0021297
-0.00282827
0.00184095
-0.00135227
0.00233959
0.0601392
-0.0605098
0.000370563
-0.00768636
-0.00954152
0.0773671
-0.00885477
-0.0463793
-0.00436063
0.0595947
-0.0539576
0.0553666
7.37434e-05
0.0849321
0.0169254
-0.0687067
-0.0331507
0.00142224
-0.00138736
-0.00156023
0.00152535
0.0495429
-0.0684426
-0.00933874
0.0282385
-0.000134844
-0.00743312
-0.00322962
0.00104219
-0.00148274
-0.0510412
8.9457e-05
0.0509517
0.0527431
-0.0485618
0.00216296
-0.00180152
0.041244
-0.0109168
0.0953801
-0.125707
0.00467399
0.00105967
0.000133809
0.00174962
-0.0029431
0.0310899
-0.0662753
-0.0258246
0.0020682
0.00426408
-0.00391226
-0.00242002
-0.0137204
0.00254378
0.0101212
0.00105544
0.0436771
0.0127375
-0.0801688
0.0237543
0.000123486
0.0435536
-0.00180302
0.00571544
0.0034912
-0.00740362
0.0154418
-0.0208617
-0.0138778
-0.00183223
0.00047536
0.00285936
-0.00150249
-0.00132103
0.00168629
-0.0021975
0.00254368
0.000623681
-0.00167391
-0.00149345
-0.0122659
0.00938732
0.00977727
-0.00689866
0.0148604
-0.00200135
-0.0120284
-0.000830626
0.00759252
0.00044233
-0.00805201
1.71647e-05
0.00394006
-0.0048156
0.00407191
-0.00319637
0.00769393
-1.17398e-06
0.00716762
-0.000658545
0.00295319
-0.00187395
-0.000221539
-0.00109739
-0.00402067
-0.00158313
0.000249866
0.00535394
0.00461892
0.000248101
-0.000981329
-0.00388569
0.00187674
0.000691539
0.0020499
-0.00461818
-0.00423764
0.00209371
-0.015074
0.00523586
-0.023777
0.0336152
0.0334918
-0.038285
-0.0192093
0.0240024
-0.0192888
0.0129968
-0.00665124
0.0129432
-0.0179161
0.0100888
-0.00724679
-0.00801221
-0.00025343
-0.00965042
-0.0398488
0.0561839
-0.00661695
-0.0097181
-0.0383505
0.0196448
-0.000583077
-0.0241565
-0.00887118
0.0123434
0.0206843
0.0134437
-0.0183023
0.0528541
0.0278149
0.000963312
0.0525541
0.00495774
0.00633453
-0.00369975
0.00184053
0.00135708
-0.00307136
0.0124595
-0.00599112
-0.00028138
-0.00618704
0.0308111
0.00675844
0.0101502
-0.0477197
0.0413111
-0.0257861
0.0208405
-0.0363655
0.0296228
-0.0492066
-0.020265
-0.0107784
-0.029688
-0.00246691
0.0429333
0.00120685
-0.000226501
-0.000980348
-0.0300578
0.00124079
0.00652459
0.0222925
0.0180017
0.0218475
-0.0174338
-0.0224154
0.0016474
0.00151218
-0.00350318
-0.00971667
0.0297494
-0.00805261
-0.00573167
0.00454628
0.000982528
-0.00952586
-0.0215145
-0.00234634
-0.00247458
0.0141735
-0.00935255
-0.0667453
0.0763388
-0.0172798
7.00292e-05
0.00409038
-0.00397578
-0.00220328
0.01822
-0.00292218
-0.0130945
-0.00842515
0.00550511
0.00160199
0.00131805
-0.0511971
0.0568968
0.0238031
-0.0295028
0.00223538
0.003892
-0.00256963
-0.00355775
-0.0179359
-0.0493388
-0.0218993
-0.00435194
0.0290739
-0.0489648
0.0408715
0.00279336
-0.0289916
0.00455782
0.00132827
9.74091e-06
-0.00359089
0.00225287
0.00491189
-0.00438075
-0.00046111
0.0453918
-0.0609202
0.00797108
0.00755731
1.9917e-05
0.000108504
-0.0131629
-0.0116113
0.0246657
-0.00372273
0.00287573
0.00230078
-0.00145379
0.00102139
-0.00064153
-0.00410259
-0.00469644
-0.00161756
-0.0078898
0.0142038
-0.0717638
0.0560388
-0.0753447
0.0910696
0.000844519
-0.00112067
0.0024401
-0.00216395
-0.00197318
0.0224305
-0.0102549
-0.000665342
-0.00276435
0.004753
-0.00132331
0.0044329
0.0127122
-0.016534
0.0343459
-0.0457847
0.00898985
0.00244892
-0.00181704
0.00230551
-0.000861098
0.000372627
0.00265068
0.00287586
0.00249476
-0.00802129
-0.00282075
-0.0086372
-2.98273e-05
0.0114878
6.44641e-05
-0.00224495
0.00171049
0.000469995
-0.0111189
-0.0037402
0.00666774
0.00819134
1.65364e-05
-3.54263e-05
-0.00137013
0.00138902
0.000267421
-0.00231746
0.000731694
0.00131834
-0.000176509
0.00187175
-0.000414117
-0.00128112
0.00311668
-0.00086266
0.000289652
0.00163826
-0.00179824
0.000779661
-0.00166997
0.000367893
-0.000851731
0.00116159
-0.00130657
0.000996711
0.000566754
-0.00108355
0.0005168
0.00196461
-0.00927519
-0.00154911
0.00885969
0.00686842
0.0126499
-0.0166916
-0.00282671
0.000980687
-0.00850714
0.00766916
0.00793207
1.64975e-06
0.000688322
-0.00862205
0.000738855
0.00106193
0.00174784
-0.00354862
0.00443933
0.000214025
-0.0068475
0.000894403
0.000569757
-0.00327434
0.00181018
-0.00167092
0.000565189
-0.000225763
0.00180026
-0.00206405
6.17322e-05
-0.00842524
0.00587829
-0.00172096
0.004768
-0.00216673
-0.00217853
-0.0259615
0.0071485
-0.0147197
0.0335327
-0.00531107
-0.00560638
0.00352551
0.00739193
-0.0238887
0.0236293
-0.00511979
0.00537926
-0.00209894
0.0144913
-0.000700254
-0.0107966
0.0182908
-0.00517576
0.00523798
-0.0123579
0.00752495
-0.000405006
-0.0015701
0.00214543
-0.000377281
-0.000568046
0.00395494
-0.00300961
-0.0437502
0.0438737
-0.00259938
-0.0155483
0.018152
-4.37956e-06
-0.00569246
0.000177845
-0.00166184
-0.00201507
0.00134243
0.00100655
0.000639426
-0.00193455
0.00192678
-0.0102915
0.00682875
-0.04242
-0.00185412
-0.0541371
-0.00202617
0.00070873
0.00262714
-0.00130969
0.00259548
0.00134608
-0.0713979
0.0700518
0.00591345
-0.022214
0.00345478
0.0128458
-0.00134906
0.00445969
-0.00221469
-0.00250446
0.00473596
-0.00155834
-0.000673165
0.01173
0.00720812
-0.0318892
0.0129511
-0.000746261
0.00174219
-0.00165447
-0.00324862
-0.000846334
0.00227591
0.00181904
-0.00291493
-0.0336512
0.0116101
-0.00640938
-0.00521017
0.00402349
0.00759606
0.00216579
0.00191396
-0.00291778
-0.00116198
-0.000739294
0.00129092
0.000737001
-0.00128863
0.00226727
-0.00264604
-0.00154842
0.00369869
8.53297e-06
-0.0021588
-0.00180316
0.000303602
0.0015122
-0.00505502
-8.98965e-05
-0.0460718
0.00669578
0.0394659
-0.00300204
0.00833596
-0.00402647
-0.00130745
0.00445678
-0.0156164
0.0701907
0.0093378
-0.0499057
-0.00016381
0.000561614
0.00205361
-0.00245141
-0.00186249
0.00450634
0.0054501
-0.00809395
-0.000255558
-0.000203936
0.00131126
0.000455259
-0.000342104
0.000229303
-0.000342458
0.00101984
-0.000562766
-0.00167218
0.00121511
-0.0123717
0.0094711
0.00292422
-2.36621e-05
-0.0500306
0.0581664
-0.00362913
-0.00450663
-0.00474872
0.00995744
-0.0084411
0.00323238
0.0177153
-0.00494797
0.0107084
0.00159855
-0.0138009
0.00149386
-0.0149321
-0.00131748
0.00247797
-0.000207263
0.0395651
0.00726248
0.000274256
-0.0471018
0.0014891
-0.00220244
0.00102366
-0.000310316
0.000940561
0.00110571
0.000678794
-0.00272507
-0.00852735
-0.00107614
0.00260553
-1.86223e-05
-0.0020884
0.00182995
0.000277075
0.000575829
-0.00560603
0.00287777
0.00215242
-0.000479821
0.00102966
-0.000451691
-9.81473e-05
0.00782202
-0.0105871
-0.0445029
0.0472679
0.00849526
-0.000590692
-0.00919082
0.00128626
-0.0035207
0.00101351
-0.00143576
0.00394295
-0.00452346
-0.00134996
-0.00209313
0.0470876
-0.0342207
0.000921323
-0.0137882
0.0114715
0.0159137
0.00809382
-0.035479
0.00124154
-0.00122389
0.00220365
-0.00222131
0.000171268
0.000524977
0.00263218
-0.00332843
0.0645948
-0.0316173
-0.0578289
-0.00475915
0.00396584
0.00096458
0.0037928
0.000919561
-0.00418739
0.000820159
-0.0383221
0.0378446
-0.000342648
0.00222605
0.00134369
-0.00103951
-0.00253024
-0.0154127
0.00769022
-0.00101197
-1.40161e-05
0.000998654
2.73323e-05
-0.011331
0.00214445
0.00559439
-0.0155645
0.00693669
-0.00374382
-0.0201271
-0.0122012
-0.00435763
-0.00473106
0.00144899
-0.00870342
-0.00135777
-0.00681557
0.00287227
0.00530107
-0.00225182
0.00288114
-0.000114047
-0.000515267
-0.00072343
0.000169419
0.000176346
0.000377665
-0.00262315
-0.000826308
0.00568484
0.000369544
-0.00816556
0.00616906
0.00162695
0.00876831
0.00229186
-0.0106906
0.024196
0.0333085
-0.0329358
-0.0245686
-0.00207501
0.00713987
-0.0197152
0.0146504
-0.0107973
-0.00197741
0.0107733
0.0113351
0.00374983
-0.0161145
0.00102958
-0.0448997
0.0449897
-9.00213e-05
0.00538096
-0.0347201
-0.00272711
0.0320663
-0.00103576
0.00163478
-0.00197828
0.00137927
0.00311434
0.000684637
0.00123081
0.016317
-0.00115231
-0.0163955
0.00750503
-0.00138924
-0.0109926
0.0048768
-0.047358
0.0474318
-0.008799
-0.00475745
-0.0075795
0.0211359
-0.000623657
0.00332872
0.000848719
-0.00355378
0.00788671
0.00680288
-0.0244801
-0.000553447
0.0039304
-0.000840064
-0.00253689
0.00311192
-0.00043666
0.000425248
-0.0031005
-0.00279697
0.00608309
0.00421891
-0.00454182
-0.00183105
0.00329234
0.00308054
-0.00569101
0.0147462
-0.0291823
-0.0128389
0.000353055
0.0129282
-0.0102941
-0.00922663
0.0113552
-0.00829966
0.00250672
0.00709924
-0.00442923
0.00679572
-0.00302396
0.00919385
-0.0132678
0.00602345
-0.00194946
0.00228397
0.00189277
-0.0034852
0.0129052
0.0031571
-0.00603527
0.0410103
-0.0132878
-0.0291811
-0.00649594
-0.0377577
0.0416223
-0.000476515
-0.000186267
0.000210386
0.000452397
-0.000544653
0.00147961
0.000840133
-0.00177509
0.000205223
-0.00115029
0.000221641
-0.0601019
0.0586896
-0.00798906
0.00940138
-0.00893428
-0.00155907
0.00518229
0.00474121
-0.0071581
-0.0065174
0.00518752
-0.000917176
0.0039495
-0.00821985
0.00184741
-0.000918685
-0.00886843
0.0079397
-0.00560696
0.0129169
-0.00534882
-0.0019611
-0.0024033
0.000952046
0.00329178
0.00652639
0.0012584
-0.0148852
0.00710044
0.012563
-0.0116009
0.00556431
-0.0048996
-0.0442364
-0.0103419
-0.000683236
0.00767706
0.0164556
0.0121638
0.0226988
-0.0513182
0.0243433
-0.0511883
0.00245889
0.0243861
0.00349695
0.00938569
0.00253511
-0.0154177
0.00155071
-0.00355022
0.0114845
-0.00948502
0.0183815
-0.0147038
0.0135283
0.0021016
-0.000926074
-0.0312489
-0.004412
0.00967409
0.0234999
-0.00523997
-0.027934
0.041462
-0.00206747
-0.0411909
0.00179632
-0.00327304
-0.0574759
0.060749
-0.0116608
0.00446425
0.0501251
-0.0429285
-0.0440043
-0.00255996
0.0432912
-0.0027889
0.0208846
-0.00187936
-0.0162163
0.00342792
-0.0185645
-0.0161123
-0.00355679
0.0209406
-0.0201727
0.00354948
-0.00220338
-0.000722424
0.00546903
-0.00523144
0.0108844
-0.011122
-0.0030429
0.00306037
-0.00167304
0.00890066
-0.000400554
-0.00682707
-0.00097028
0.00182593
0.000333085
-0.00118874
-0.0370128
0.00653433
0.0950733
-0.0117038
0.00607044
0.00521439
0.000418955
-0.00101405
-0.00321639
0.00262147
0.00160897
-0.0126543
0.00128693
0.000931923
0.0104354
-0.00152541
-0.00204089
0.00839154
0.00616143
-0.00463858
-0.0099144
0.00112904
0.00127132
0.00559939
-0.00520473
0.00354883
-0.00394349
1.08688e-05
0.00043775
-0.000448618
-0.00227862
-0.000487476
0.000835509
0.00193059
-0.00755734
0.00191055
-0.00807366
-0.00180487
0.0032231
0.0181916
-0.000310718
0.000738545
-0.00205495
0.0107703
-0.000826363
-0.00619533
-0.00374861
0.0127229
-0.0159309
0.00919425
0.00515433
-0.00788072
-0.00296607
0.00250748
0.00279734
-0.00444434
-0.000860479
0.0355686
-0.0492935
-0.0271389
0.0408638
-0.00523296
-0.0201397
0.00658266
0.01879
-0.00120026
-2.88379e-05
-0.00128697
0.00251606
-0.0128384
0.0106641
-0.000851901
0.00453978
-0.00668783
-0.00108288
0.00323093
-0.0100016
-0.00080804
-0.00320637
0.014016
-0.00299977
0.00283341
0.000292759
0.010419
-0.0112468
-0.00346096
0.000665201
-0.0100734
0.00443268
0.0049755
-0.052947
0.0942629
-0.000154219
0.000370532
0.000504687
-0.000721
-0.0161508
-0.00323152
0.0165616
-0.00895336
0.000837373
-0.00453826
0.0111387
-0.00804845
-0.00307047
-1.98012e-05
-0.0175854
0.0037385
-7.21688e-05
0.0139191
-0.00171814
0.00705888
-0.0100895
0.000395182
0.00402746
0.00125187
0.00330334
-0.00858268
0.0322929
-0.0139352
-0.0328891
0.0145314
-0.0102025
-0.0144182
-0.00551383
-0.00415912
0.00280828
0.0108219
0.00066383
-0.000833634
-0.00247969
0.0026495
-0.00255965
0.000779999
-0.013316
0.0150956
0.00268336
-0.00109364
-0.000951936
-0.00122338
0.00338643
-0.0104566
-0.00188317
-0.0208441
-0.030237
-0.0568263
-0.000226673
0.057053
0.0112261
-0.0112199
-0.00470264
0.0324844
0.00295659
0.00664556
-0.0420866
-0.00513568
0.00294046
-0.00332069
-0.000732898
0.00138821
0.00425072
-0.00490604
0.0410358
0.0102317
-0.00421156
-0.0470559
0.057421
-0.0995049
0.0162978
0.0263652
-0.0227882
-0.0633551
0.059778
0.00214383
-0.00461602
0.0095125
-0.00704031
0.0374527
0.0435492
-0.0553147
-0.0256871
-0.0292003
0.028138
0.0254056
-0.00539407
-0.00240475
0.00653955
0.00897165
-0.0114531
-0.00405807
0.00609821
0.00442352
-0.00985653
-0.00181041
-0.00491408
0.0014296
-0.0225156
0.00602044
0.00236367
0.0141315
0.020909
-0.0498501
0.00809698
-0.00463079
0.0110474
-0.0198498
-0.00840957
-0.00256647
0.00248159
0.000573538
-0.00434674
-0.00312546
0.00543176
-0.00477846
-0.00455592
0.000870744
0.000815702
-0.00806704
0.00640446
-0.00068751
0.00584308
-0.0654098
0.00216816
-1.33513e-05
-0.000335875
0.000362908
-1.36819e-05
-0.00162496
0.0015443
6.20296e-05
0.0032074
-0.000778164
-0.000161969
-0.00577572
0.00212654
0.00569908
-0.00188548
0.00124342
0.000388707
0.000253361
-0.00107565
-0.00109739
-0.000798574
0.00297161
0.0114149
-0.0189307
0.00686647
0.000649361
-0.000339205
1.54114e-05
-0.00545069
0.00569358
-0.00290854
0.00144431
-0.00422935
0.000590717
0.00199937
-0.00139852
-0.00119157
-0.00580048
0.0114851
-0.00747636
0.00179178
0.0123413
-0.0082468
-0.0033102
-0.021598
0.0214629
-0.0134211
0.0135563
0.00381227
-0.0055419
0.00335276
-0.00162313
0.000296665
-0.0577726
0.00632887
0.0036214
-0.00477679
-0.00517349
0.00169854
-0.00245216
-0.000436569
0.00119019
0.00296913
-0.0048785
-0.00284978
-0.0113102
-0.00184288
-0.000294214
-0.00152486
0.00117271
0.000646357
-0.00386278
0.00268221
0.00281405
-0.00163349
0.000865619
-0.00031198
-0.000595755
4.2117e-05
-0.013563
0.00787094
0.00545297
0.000239118
-0.00179898
-0.00911123
-0.00265282
0.00352624
-0.00107628
-0.00131515
-0.00215545
-0.000910149
-0.00222914
-0.00126134
-0.00218025
0.000868945
-0.000917835
-0.00299863
0.000211877
-0.0352853
0.00802805
-0.0261028
0.05336
-0.0839545
0.0438053
-0.0405741
0.0807233
-0.00284856
-0.000695015
-0.000319204
-0.0840048
0.00172631
-0.00685528
0.0032351
-0.0168529
0.0204731
0.00339615
-0.0494748
0.0392234
-0.0558407
0.0505997
0.00863724
-0.00290494
0.00179531
-0.00114219
-0.00367558
0.000351054
0.00127591
0.00204861
-0.000125754
-0.000758244
0.00159861
-0.00153245
0.00180074
0.000503034
-0.000771321
-0.0018783
0.00189205
0.00171198
0.0397505
-0.0125133
-0.112613
0.0853761
-0.0822763
-0.057378
0.0660373
0.073617
-0.0841251
0.00751308
0.00708773
0.0695243
0.0101385
-0.0545131
-0.000461813
7.5174e-05
-0.00149166
0.0146016
-0.00197377
0.0269373
-0.000589207
-0.00278668
-0.0061418
-0.0012011
-4.01574e-05
-0.00265119
-7.76064e-05
0.00157659
0.00115221
-0.00445049
0.00717559
-0.00978971
0.00706461
0.00335531
-0.0096683
0.00513682
0.00905288
-0.00559708
-0.00859262
-0.00203625
-3.41093e-05
0.00720718
-0.00251542
0.00215568
0.00363376
-0.00327402
0.0135713
-0.0883345
-0.0052524
0.00306042
-0.00238371
0.00457569
-0.00307267
0.00310355
-0.00229039
0.00108399
-0.00189714
-0.00740879
2.16926e-05
0.0095052
-0.0113528
0.00908939
-0.00724176
-0.00296254
-0.0183865
0.0171548
0.00419424
0.0015187
-0.003407
0.00166285
0.00130532
0.00149272
-0.00127933
0.00252414
0.000617652
-0.00208212
0.00245946
0.00313285
0.00858305
0.0311773
0.00314013
-0.0429005
0.00186693
-0.00636199
0.000974362
0.000474319
-0.0017867
0.001696
0.00094814
0.0113471
-0.0152578
-0.000659842
0.00769204
-0.00684292
0.000661727
0.00270627
0.000569942
-0.000666207
0.00190199
-0.00180573
0.000260102
-0.00917665
2.32316e-05
-0.000396648
-0.00240397
-0.00161924
0.0106386
0.00175095
0.00116992
-0.00479384
0.00306194
0.000561984
-0.00314183
0.00289979
0.00310754
0.00927303
0.00874267
0.00899055
-0.0136256
-0.00410768
0.00577914
0.00733388
-0.00437035
0.00671284
-0.00596433
0.00824205
0.0129652
-0.000473227
-0.00233382
0.00411772
0.00590813
0.00125495
0.0519655
-0.000292176
-0.0516733
-0.0133678
-0.00860258
-0.00435925
0.0263297
-0.0108671
0.0136096
-0.0161104
0.00185672
8.75152e-05
-0.00182634
-0.000117901
-0.00805593
-0.00107739
0.0564784
-0.0610895
-0.0149469
0.0195579
-0.017038
0.018146
-0.0111268
0.0100188
-0.0135715
0.00108521
-0.00915991
-0.00676379
0.000264387
9.0021e-05
0.00465094
-0.00800346
0.000227056
-0.00625236
0.0118637
-0.0147713
-0.00992721
0.00508679
-0.00407263
0.00891305
-0.0115908
0.016331
-0.00739059
0.00265048
-0.00462354
-0.000355887
0.00262154
0.00235788
0.0117442
0.025984
-0.0264178
-0.0113105
0.0065323
-0.00336818
0.000375771
-0.0035399
0.00411764
-0.003399
0.00382113
0.00548704
-0.00795232
0.00717501
0.00360937
-0.0121421
-0.000115497
0.00230872
-0.00455299
0.00939528
0.00267874
-0.00752103
-0.00273102
0.00221888
-0.00165847
-0.00272029
0.000913547
0.00203702
-0.0113518
-0.0102625
0.0105087
6.00351e-05
0.000927263
-0.000873523
-0.000113775
0.00506838
0.0066585
-0.00560846
-0.00611842
0.00452554
0.000979815
0.00527036
-0.000515073
0.000828669
4.48221e-05
-0.000358418
-0.0146557
0.0153429
0.0107276
-0.00207499
-0.00978463
0.00865188
0.00320775
-0.00800385
-0.00321884
0.00400913
0.00721357
-0.0544701
0.0297756
-0.0543294
0.0790239
0.00480435
-0.00274902
-0.0106689
0.00861362
0.00905447
-0.0129356
-0.00514502
0.00902612
-0.00201668
-0.0105988
0.00906525
0.0131997
-0.0122675
0.0097762
0.00145152
0.0115945
0.000153715
0.0025489
-0.00787911
-0.00363861
0.00896881
0.0114742
-0.00324197
0.0041616
-5.81735e-05
-0.0127918
0.00529947
-0.0132177
-0.00926685
-0.00341453
0.00997121
0.00271018
-0.00522161
0.00914913
-0.0131944
-0.00875529
-0.00419769
0.00136213
-0.0154874
0.00788185
0.00412578
0.00347979
0.00156706
-0.00282094
0.00028361
-0.00231353
0.0028695
-0.00110942
-0.00340195
0.00216274
-0.000190283
0.00142949
0.00267599
0.000811057
-0.000283474
0.00116083
-0.00132581
0.000448449
0.00214788
0.000302593
-0.00272685
0.0350528
-0.00276731
-0.0295587
0.0394087
-0.0367546
0.00838392
-0.00939805
0.00320137
-0.00218724
-0.0143037
0.012762
-0.0145319
0.0160736
0.00622932
-0.00631551
0.0016041
-0.0305637
-0.0061081
0.00373058
0.0902135
-0.0378386
0.000847898
-4.68619e-05
0.000293935
-0.00109497
-0.00136198
-5.67314e-05
0.000566985
-0.000397077
0.000260897
0.00129777
0.00944053
-0.00736752
-0.00704837
0.00497536
-0.00060538
0.00448646
-0.0204929
0.00235509
-0.00258513
0.0109495
-0.000528733
0.00632139
-0.00780933
-0.00292133
0.00324004
0.00216288
0.0169015
0.0292498
-0.0348755
-0.0112757
-0.0502874
0.00153417
0.0487532
0.0239233
-0.0667121
-0.00749858
-0.0346163
-0.00156233
-0.0638553
0.0765887
0.0285106
0.0142472
-0.0654899
-0.0126126
0.0447461
-0.00235533
0.0729773
-0.0688304
0.0101003
-0.00062357
-0.00165423
0.00275212
0.00184901
0.00307546
0.000137919
-0.00255166
0.00404187
0.0280906
-0.0273237
0.00759961
0.018039
-0.0373852
0.0121218
-0.0237299
0.0138753
-0.00226721
-0.0187207
-0.00133072
0.0101242
0.0131191
-0.0104332
-0.00345154
0.000765586
-0.00867997
0.0150292
-0.00345184
-0.00289742
-0.00923983
-0.0214549
-0.00517788
0.0417213
-0.0150885
0.00297073
-0.00473797
-0.00285629
0.00049766
-0.00235912
-0.000735191
0.00281598
-0.00469701
0.000877311
0.00646885
-0.00722297
0.0196446
-0.0188905
-0.00537746
0.00548164
-0.0113497
0.0112456
0.015837
-0.00141526
0.00907028
-0.000979688
0.000668601
0.00187814
0.000114182
-0.00299869
0.00190482
0.00330223
0.00742044
-0.00874091
0.000400625
0.00899367
-0.0108494
0.00145509
-0.00114565
-0.00292813
0.00159532
0.000672292
-0.00318055
0.00209129
0.000416974
0.00128616
-0.00131496
-0.00107871
0.00110751
-0.00320926
-0.000190756
0.002027
0.000496705
-0.00116872
-0.00135498
-0.00283209
0.00300849
-0.00103918
0.000862772
0.00317193
-0.00560281
-0.00254207
-0.00142782
0.00128802
-0.0035986
0.000820675
-0.00456751
0.00162672
0.00426907
-0.00129809
0.00228762
0.00684154
-0.00783107
-0.00131729
0.00145151
0.00639808
-0.00168239
-0.00585253
0.00205642
0.0054785
0.00060155
0.000823239
-0.0059923
-6.76799e-05
-0.00192952
0.000111717
-0.00147273
0.00154324
-0.000138187
0.000835337
-0.00218659
-0.00057827
-0.00258934
0.024696
-0.0437047
2.02724e-06
0.0058907
0.0444864
-0.0474814
-0.00289576
-0.00303987
0.00622971
-0.00690889
0.00371906
0.000245821
-0.000301489
0.00565506
-0.000112856
-0.00464482
-0.00358078
0.00833846
0.00519989
-0.000766626
-0.00127413
0.00432021
-0.000161573
-0.00391282
0.0365219
-0.0494819
0.0131482
-0.000188247
0.00743724
-0.024349
0.00750315
0.00940865
0.00915481
-0.00767013
0.00595257
-0.00133476
0.00153006
-0.00802257
0.00782728
7.33053e-05
-0.0074505
0.00604243
0.00362555
-0.0126738
-0.00967245
0.0164484
-0.00366805
0.00210712
0.000769471
-0.00080839
-0.0581521
0.0658411
-0.0458214
0.0381324
0.00383437
-0.00218266
0.000455413
-0.000487743
0.00152601
-0.00199585
0.00095759
-0.00118571
0.00231396
0.000736545
-0.00450982
0.00305431
-0.00132683
-0.00304025
-0.000142737
-0.0118097
-0.00124012
-0.000575682
0.00347994
0.0446488
-0.00717873
0.00235319
-0.0069842
-0.00792963
0.00708998
0.0032813
-0.00244165
0.00332942
-0.0507661
0.0474367
-0.0380477
0.0413771
0.00195359
0.00110519
-0.000765275
-0.00229351
-0.0567871
0.0655564
-0.0468169
-0.0394471
0.0456187
0.0104191
0.0272932
-0.0415769
-0.00761553
0.0035099
-0.00150576
0.00273183
-0.0168531
0.0114328
0.0272194
0.0145907
-0.0508469
0.0094587
0.0267975
0.0061845
-0.0482904
0.0252528
-0.00523714
-0.022895
0.00164966
-0.0764545
0.0767869
0.0717385
0.0039197
0.00155777
-0.0338346
0.00378968
-0.00625248
-0.0135221
0.0159849
-0.072905
-0.0622367
0.0699264
0.0652153
-0.0508078
0.0400767
0.0153203
-0.00458928
0.00034558
0.00272945
-0.0530556
-0.00432241
0.0194375
-0.0308334
-0.0109813
0.0286648
-0.0035422
0.00869396
0.0372256
-0.160115
0.0388841
0.00175424
0.00468744
-0.00951052
0.00306884
0.0066764
-0.0209519
0.00538365
0.00889187
0.0146906
-0.0103841
0.0047607
-0.00906723
0.0277301
0.0739758
-0.0725111
-0.0291948
7.51774e-05
-8.61824e-05
0.000790666
-0.0467779
0.0118476
-0.00282747
-0.00306855
-0.0342287
0.0636625
-0.0772965
0.0453418
-0.0225155
0.0336271
-0.0583704
-0.0203838
0.045127
0.0193129
-0.019292
-0.0467989
0.00256067
0.0540268
0.0246268
-0.00878719
0.02183
-0.0376696
0.0411967
-0.0270326
-0.0488558
0.0346917
-0.0232466
0.0146406
-0.0362214
-0.0546814
0.04761
-0.00197328
0.0169973
-0.0144456
-0.000578417
0.00342928
-0.00473651
0.000649771
0.000657459
-0.0380894
0.0490942
-0.0110048
0.0134435
-0.0127072
-0.00197648
0.011645
-0.0271044
0.00723887
0.00897709
0.0135855
-0.0298014
0.00937633
0.0100724
-0.0122099
-0.0162163
0.0100425
0.0151509
0.0347938
-0.0185257
0.0726849
-0.0785428
-0.0287584
0.0109989
0.0924106
-0.0307245
-0.0379249
0.0199945
0.00958711
0.0083433
-0.0231499
-0.00279002
0.0369388
0.0579496
0.0232092
0.0212836
-0.0196059
-0.024887
0.00329747
-0.0374798
0.0390595
-0.00487718
-0.00928376
0.00847252
0.0117548
-0.0109435
0.00752997
-0.00664922
-0.0033952
-0.0022298
0.00977513
-0.00316634
-0.00437899
0.00752944
-0.055215
0.0476856
0.00131984
-0.0331626
-0.0273371
0.0569979
0.00350192
0.00952626
-0.000657577
-0.0118707
0.106189
-0.156513
0.0394075
-0.00703506
-0.0101631
-0.0249285
0.036512
0.00941656
0.0422653
-0.0444194
0.0405081
0.0311321
-0.0965687
-0.00215598
0.00196335
-0.00325413
0.00173353
-0.00232772
-0.114901
0.107564
0.00340104
-0.00680808
0.000196886
-0.00232247
-0.00338968
-0.000397618
-0.00188371
0.00196869
0.000312641
0.000528167
0.000101015
0.00120102
-0.00155092
0.000248888
-0.00349393
0.000822699
-0.000927367
0.00306474
-0.00534113
0.00285222
0.00223554
-0.00110372
-0.00622716
0.00987216
0.00375829
-0.0140802
0.000449757
-0.00390362
0.000697857
-0.00200441
-0.00163627
0.0521154
0.0105807
-0.00855084
-0.00176972
-0.0282697
0.039319
-0.0032273
0.000999301
0.00205675
0.0482267
-0.0385072
0.000622714
-0.0103422
0.0130819
-0.00082149
-0.00134526
-0.0109151
-0.0303558
0.00316693
0.0287519
-0.00156301
0.0515341
-0.0502139
-0.057161
-0.00214107
0.0027143
0.0556106
-0.0436415
-0.0698799
0.0737
-0.00382016
-0.00221991
0.04297
-0.0508768
-0.00328939
0.000305379
0.00054143
0.00244258
0.00298445
-0.0350304
0.00584151
0.0262044
-0.0227737
-0.0550631
-0.00664481
0.00229876
-0.0140405
0.00247076
-0.00593317
-0.0067777
-0.00141789
0.0034332
0.00100983
0.00417873
-0.00244855
-0.0015333
0.0102195
-0.0665029
0.0519659
-0.0034518
0.000938789
0.00144026
0.00107275
-0.00734409
-0.00523885
0.0111213
0.00146163
-0.0122897
0.00510418
0.0100472
-0.0295497
-0.00340656
0.022909
0.00326929
-0.00134539
0.0628973
0.0034191
-0.0663164
0.0260393
-0.0164163
0.000424214
0.0279247
0.00525575
0.00334152
-0.0105023