/*--------------------------------*- C++ -*----------------------------------*\
| =========                 |                                                 |
| \\      /  F ield         | OpenFOAM: The Open Source CFD Toolbox           |
|  \\    /   O peration     | Version:  2506                                  |
|   \\  /    A nd           | Website:  www.openfoam.com                      |
|    \\/     M anipulation  |                                                 |
\*---------------------------------------------------------------------------*/
FoamFile
{
    version     2.0;
    format      ascii;
    arch        "LSB;label=32;scalar=64";
    class       volScalarField;
    location    "0.0882685";
    object      omega;
}
// * * * * * * * * * * * * * * * * * * * * * * * * * * * * * * * * * * * * * //

dimensions      [0 0 -1 0 0 0 0];

internalField   nonuniform List<scalar> 
3926
(
88.6414
42.1064
91.1544
225.418
123.28
498.12
682.569
870.736
432.987
793.083
719.169
94.9958
42.0166
137.421
43.3828
43.4446
83.1685
43.5833
125.087
69.6588
97.6587
163.716
142.044
124.227
56.2052
117.77
113.734
217.535
240.145
170.258
189.276
66.9732
161.446
109.691
73.934
117.5
644.611
61.4873
43.3449
78.7916
199.392
950.688
64.1237
48.7025
41.9318
847.268
62.0734
112.714
706.863
59.3714
90.3364
947.847
354.073
717.044
45.416
68.9073
1188.81
371.061
76.7834
322.348
48.3404
292.939
684.125
63.2345
654.939
514.506
627.954
326.312
484.737
592.431
385.105
42.0735
395.787
49.4964
82.7996
532.078
68.6278
273.967
76.5235
43.2402
126.697
64.5934
543.768
1102.77
92.3108
56.1536
53.2239
120.283
547.572
43.3661
43.6367
68.4913
108.374
252.584
59.3731
1004.85
62.6823
74.2397
341.927
92.2793
211.47
58.8575
91.7988
61.8984
250.66
185.688
67.6922
53.5289
58.6292
50.7376
101.127
64.9958
51.2791
61.2094
44.9228
401.099
137.287
42.5242
572.449
599.25
62.9698
63.1679
44.0334
96.3915
54.8597
73.4545
328.855
52.9494
217.713
81.839
63.8129
63.5763
58.9421
63.7608
798.395
749.726
655.062
532.519
669.983
104.692
84.1864
43.3566
79.3566
109.868
51.0234
203.992
73.925
155.524
64.441
72.0054
86.2174
97.9441
71.6844
116.37
153.703
189.384
70.024
214.2
143.149
182.729
105.264
56.5589
62.3891
269.16
418.106
59.3163
45.9044
41.7822
60.2855
159.452
1109.01
81.8707
46.8055
42.6739
63.2482
95.3298
61.4931
404.752
163.712
67.0204
994.051
78.8842
526.777
99.6052
43.6466
80.2308
93.166
48.3453
109.954
89.828
501.393
58.9149
234.58
52.1128
53.7098
42.8525
60.0675
47.8036
51.7606
740.355
69.6802
730.972
384.455
56.5482
52.34
158.346
44.5951
755.632
69.7047
50.3228
42.3657
49.3946
89.1787
110.209
45.1982
158.324
47.465
93.0759
84.6746
118.605
61.6659
102.306
77.7621
601.822
71.3163
512.269
818.992
78.4819
45.1644
69.4434
61.4509
200.492
98.9604
48.6502
87.2171
84.3239
76.9554
145.703
788.629
84.7289
659.812
59.2301
193.515
339.589
42.6443
68.7966
716.144
71.0196
43.17
955.373
508.867
1041.8
1215.59
183.54
64.6204
543.045
970.459
79.7679
147.777
860.695
632.809
607.225
60.557
326.047
421.091
72.3025
47.903
91.8366
80.2314
599.42
467.768
786.148
59.3023
93.6228
65.1091
126.494
46.6199
78.9841
42.9869
49.5256
388.282
720.861
93.4967
47.6667
244.615
445.973
279.797
410.038
629.017
195.88
145.081
42.7329
50.8314
352.613
41.351
111.99
54.7729
76.0614
69.5359
747.371
981.22
166.772
51.0232
101.771
52.4844
240.146
998.627
85.1583
50.4108
529.198
713.035
199.544
228.085
48.3026
112.432
88.901
59.6667
71.5625
193.111
84.3355
271.501
49.6138
837.502
156.653
179.135
63.8339
477.418
126.915
763.008
61.7694
107.786
46.1089
52.8679
42.2836
52.1956
41.9256
89.6656
609.421
446.38
526.69
216.193
612.969
86.3901
45.588
58.4696
88.1317
391.277
234.591
396.836
483.217
505.408
530.907
516.352
584.376
442.054
734.688
454.974
518.894
84.1242
46.6003
54.7952
42.4966
144.114
112.473
554.132
147.54
95.4261
47.9676
166.386
83.3717
128.844
48.8923
456.542
46.5379
237.318
62.7365
89.5826
49.4519
339.625
70.2943
46.6648
113.205
90.9595
133.864
56.5985
48.4074
159.529
270.777
102.502
79.0778
584.084
49.8611
898.523
96.3464
63.702
86.5759
91.8432
42.0536
76.2517
60.9018
81.7029
81.5428
51.1086
50.1986
108.758
116.777
85.2377
47.6246
118.521
115.595
44.2941
690.446
202.083
128.082
57.0154
54.6352
67.4106
603.85
51.8747
47.2982
45.3957
93.7279
81.8204
118.89
59.0776
49.9051
64.8364
45.1388
78.1405
62.1674
81.2168
86.5596
189.938
69.1636
42.7209
44.166
73.2859
54.7367
442.99
46.5202
55.2654
828.827
882.059
86.4906
321.637
752.3
188.072
539.123
48.7563
42.4605
901.511
74.5386
101.961
575.1
94.1143
238.505
211.157
90.513
81.5532
145.447
110.621
156.016
105.226
52.412
63.3492
44.6163
58.0263
802.22
78.5696
75.3734
141.013
65.64
60.0404
58.8743
131.713
125.262
68.7775
126.978
49.0917
179.304
156.166
101.508
42.5604
53.9158
47.0906
69.474
393.998
147.556
107.288
960.547
69.0319
152.815
766.915
753.41
103.806
203.882
303.999
85.931
171.853
485.127
112.539
447.489
79.5414
108.382
168.375
598.822
50.2404
121.143
45.4734
400.691
126.491
907.754
765.584
92.1971
157.633
264.815
670.48
140.078
868.489
533.619
658.038
648.558
460.75
259.958
704.538
87.351
102.773
321.953
377.309
104.659
47.9492
44.9643
59.2911
42.8369
446.063
504.281
722.488
877.752
140.599
91.2124
132.366
450.008
681.97
929.134
1116.79
526.617
420.005
83.6999
80.6878
94.4872
91.9318
120.249
259.288
44.9802
46.7029
264.622
109.647
208.979
267.017
81.3488
78.2605
107.07
69.4041
61.2572
62.4267
67.2011
580.407
476.875
352.417
1248.22
56.2621
52.7014
50.9378
51.195
50.2632
304.146
114.742
84.9138
597.725
55.6322
415.591
70.3742
108.112
51.5589
105.902
149.038
638.725
48.6895
47.1392
47.563
257.242
82.7192
572.341
649.11
673.815
42.6626
164.879
618.314
354.21
253.254
145.25
56.5508
64.1032
50.2819
42.324
42.5978
59.1791
193.363
161.244
370.411
288.934
104.472
224.298
48.0223
42.5769
44.149
43.4282
92.6249
44.4322
47.7939
49.2475
141.221
97.8369
63.4087
597.341
478.809
290.161
55.1732
64.033
56.5607
46.6053
63.2713
50.0483
52.7697
201.575
52.687
45.8273
229.914
164.994
498.263
122.867
91.8736
64.6461
86.3192
486.722
66.5877
72.6145
91.3441
89.5914
126.067
45.1972
82.5044
80.253
71.0841
47.2983
119.1
89.0159
78.1495
81.882
152.391
177.426
70.9569
54.6879
79.8465
97.1162
90.826
75.0465
773.543
87.3579
54.5527
68.4062
41.3021
42.8328
63.2665
66.6567
72.6528
138.625
71.4571
53.0236
94.5512
46.1833
51.2551
98.709
377.036
117.16
52.0196
43.8648
43.3614
41.4248
41.9629
102.294
77.6438
251.099
107.785
88.4925
43.4807
42.7554
42.7154
172.166
60.888
58.546
59.0863
72.5073
47.8226
54.7252
48.0013
58.8884
79.997
180.265
123.3
49.8227
51.1625
48.1415
51.1802
42.499
50.5022
44.805
96.431
125.88
117.123
52.2514
52.5813
44.3344
48.0888
43.4135
43.2659
42.3698
42.3121
42.4927
74.1633
53.1733
62.434
69.6278
49.8157
59.5672
82.3088
60.9115
88.5264
47.7063
45.4546
48.8498
52.6012
307.081
52.0778
45.7106
47.3264
52.6166
50.5061
50.5586
41.9793
41.6603
41.5325
42.1636
42.1931
68.9448
79.8871
520.712
89.3607
513.34
63.2736
785.917
62.637
77.8387
58.5055
244.077
71.4563
299.942
251.438
67.045
828.402
43.5991
797.234
799.625
118.879
42.2979
251.339
265.807
42.9792
42.5608
78.1834
75.8102
388.851
81.5728
71.2534
43.2641
43.1293
44.5961
47.9789
112.641
55.3009
51.8734
47.2443
48.1702
197.25
74.6389
60.2303
75.6716
42.7387
49.7891
84.2431
246.488
76.7773
604.498
58.2598
80.2855
963.206
719.748
81.6342
74.0856
65.9711
49.4233
365.499
56.4669
58.1349
91.7869
49.0499
43.2192
44.8329
54.0923
46.1572
308.457
169.376
758.499
100.484
72.8226
55.8591
85.1708
1049.85
146.918
1107.02
42.5232
42.7764
609.701
598.277
263.949
79.3842
42.6287
69.77
42.6304
784.097
49.994
49.5304
528.634
56.0437
52.2567
98.3773
214.502
92.6628
80.0326
122.629
62.5833
817.182
85.0659
46.2655
787.355
245.32
48.8569
413.488
685.067
48.0444
770.018
43.4072
48.6946
55.5605
167.341
55.5107
56.7976
42.8132
956.944
626.077
812.725
106.064
514.712
103.047
45.2737
79.4606
55.8509
53.3895
294.652
142.779
353.125
47.0992
43.2916
125.464
73.5147
103.688
532.582
68.09
76.7531
95.6082
92.0964
48.7642
62.4742
80.1816
426.356
45.7662
283.038
51.5483
45.4749
88.2499
198.554
685.571
144.324
75.2105
242.813
56.5468
70.7669
54.0191
936.191
149.297
71.4565
1163.02
41.7208
82.8075
54.9495
75.2239
882.119
179.461
336.96
112.466
105.598
44.2928
85.9964
178.948
53.4705
48.4291
424.396
186.846
252.494
142.239
117.935
91.571
1031.77
451.668
68.8678
64.9444
121.615
47.3395
1043.38
838.743
82.6471
41.254
55.7458
41.7513
42.6168
77.3414
55.8142
54.615
140.551
738.69
334.289
153.758
47.4023
87.8986
633.514
283.418
703.978
296.768
65.7633
44.9732
129.971
222.622
604.08
79.5803
61.4161
102.562
80.6751
427.101
48.579
607.193
699.115
123.969
108.123
45.4356
87.7598
108.539
495.749
216.3
94.3675
67.2805
64.5757
50.3922
79.3135
90.2229
167.344
61.815
49.2612
46.0231
93.1772
562.855
83.1914
599.352
874.727
476.776
267.751
127.947
59.0911
56.2397
131.705
142.647
120.394
57.9358
575.494
473.554
79.3047
69.7869
87.4065
77.4606
784.992
74.952
60.8867
64.9923
130.003
80.0874
314.307
92.4536
247.623
46.1315
46.1375
68.2144
758.037
148.288
84.2299
768.38
841.822
172.208
65.6003
92.4146
75.6214
42.5711
42.4091
41.8598
86.1515
49.0026
54.4639
230.336
56.547
740.898
123.736
70.4453
49.2854
561.094
47.1188
54.8073
80.334
792.215
58.7516
88.0632
44.7642
864.647
53.3691
99.742
67.404
508.398
223.636
605.685
59.0332
241.818
422.289
165.586
56.9992
230.038
257.91
899.821
54.6977
48.1512
55.112
59.4474
54.5645
801.539
56.9891
63.5004
389.172
187.631
887.742
111.898
43.8264
44.1517
277
127.765
83.78
53.4442
42.621
41.6117
43.7907
42.5865
42.4876
42.3684
44.057
43.6204
53.0935
122.295
52.2025
52.524
43.407
42.5666
41.7311
114.082
46.28
44.3813
42.1114
41.6944
45.1544
52.421
879.975
617.527
69.0978
606.663
52.4862
46.6519
44.0314
49.9148
50.6364
47.2937
600.499
1083.12
967.739
65.2516
50.245
264.661
370.721
86.3452
65.0088
147.051
97.9986
628.54
177.374
59.6565
81.7431
56.1333
421.994
236.78
160.027
499.55
87.8653
185.134
85.9767
56.6302
521.079
372.508
59.8013
1044.5
550.042
205.266
204.28
244.603
82.8878
631.268
94.6246
46.2526
285.093
139.833
438.697
338.172
348.78
518.632
315.374
374.383
176.051
41.9311
866.505
88.7078
279.202
130.765
53.1863
43.367
974.182
897.142
469.247
520.377
601.943
74.0048
318.381
998.895
129.809
801.117
862.255
226.916
139.966
100.391
44.8049
51.492
80.1172
55.0289
414.631
877.185
696.01
930.544
717.591
1023.56
428.56
883.675
69.3981
43.2861
45.0224
45.9135
42.8367
66.3836
136.89
408.032
392.934
615.608
102.412
46.6716
585.619
973.185
792.345
592.451
170.058
57.5983
901.681
1582.63
1095.96
57.3318
340.4
43.8717
467.552
294.959
407.4
368.701
80.7906
151.37
164.67
650.863
767.875
560.462
898.453
659.759
790.834
956.903
918.098
168.746
108.135
131.117
79.8973
67.752
41.6926
79.0452
54.1652
62.8467
54.0327
43.0674
53.2629
44.0151
127.426
48.9137
48.1783
42.7312
48.9679
188.751
44.2243
104.299
63.9448
71.1183
57.1869
104.404
82.1101
155.527
66.5207
105.595
191.283
474.29
214.063
269.293
47.6749
53.4845
47.5253
62.1144
65.1178
64.9565
50.6975
43.0232
82.641
483.847
46.0946
173.293
55.9668
71.8194
95.9619
62.5604
795.109
64.03
70.7689
76.6439
51.8609
53.7898
87.2512
46.7461
256.626
159.797
44.4723
52.9367
76.7824
94.9667
890.836
181.512
44.8189
206.905
166.056
171.176
663.269
274.376
129.72
217.788
186.47
770.479
71.3821
55.6002
94.9174
51.4022
139.908
49.6961
68.6367
43.9139
42.1474
41.9473
45.5386
90.1872
84.9888
45.4263
44.964
51.1693
105.151
68.2407
102.757
43.1314
46.9091
124.745
109.806
1039.5
170.24
164.302
1041.76
674.085
441.001
299.933
93.4143
67.3695
47.933
47.8914
82.1917
81.7147
540.58
77.247
284.22
770.552
295.988
366.621
92.3149
43.6524
88.8356
50.1246
53.0257
68.2814
63.1573
60.6309
59.8467
53.425
66.5373
58.1183
99.4304
399.835
1014.75
70.334
69.3292
82.6939
42.1308
45.7965
43.7955
65.3037
74.1963
359.444
57.8931
50.4159
157.592
75.1861
41.7963
61.6654
42.1135
419.611
190.955
69.0666
59.2818
45.8873
45.5706
415.902
48.5629
117.504
486.601
56.5973
232.471
235.582
59.7042
298.794
50.8269
50.8871
811.135
63.2847
52.6425
54.4132
48.6198
60.4497
63.2727
46.7742
58.0936
41.825
220.453
309.742
995.927
202.584
163.647
84.1068
974.949
43.484
53.653
90.0814
80.0064
50.541
42.1878
46.0817
57.1115
51.631
57.1007
435.802
89.6727
217.74
99.5329
285.185
185.27
71.5564
218.481
444.262
255.952
89.0023
79.2664
963.384
984.392
307.682
100.253
90.0609
470.606
103.839
207.533
150.002
79.7715
75.7935
212.118
48.1415
134.225
46.5789
352.917
127.342
110.258
339.175
693.326
68.4685
61.9699
88.7395
354.833
91.8822
53.8404
687.721
589.623
154.78
68.1666
49.3091
46.7909
114.535
43.9099
67.5711
103.421
60.3398
385.209
639.316
66.9689
87.1161
136.368
97.3171
649.063
45.8391
845.177
998.789
44.4008
63.4268
45.7118
68.0822
405.01
56.5678
411.629
58.0888
61.5253
613.482
59.1857
191.422
466.453
71.4408
86.7262
71.8605
109.95
51.4499
42.0616
124.246
52.996
62.4329
121.669
50.5384
70.1245
212.44
238.497
819.412
628.784
141.646
435.828
50.1469
67.8363
78.4699
69.5668
54.3277
54.7187
72.9641
44.2189
62.4847
92.7913
80.6365
101.082
80.6037
112.45
45.3807
44.8754
92.6335
46.9205
354.621
63.9452
54.2852
52.2514
69.8872
55.4569
55.9109
162.484
194.022
171.857
190.144
220.723
374.352
68.0181
63.0675
61.2237
54.3546
593.383
56.5251
56.0035
91.2076
43.2933
691.629
228.764
69.2638
83.3879
94.3712
418.221
52.9407
43.4949
79.52
65.4954
683.183
59.3231
66.0103
320.655
46.2242
158.212
45.3516
175.586
156.882
150.437
71.9859
449.232
79.3731
746.688
51.4247
701.646
315.038
157.785
48.5227
56.5995
104.558
120.568
349.686
695.29
378.452
52.5574
152.031
615.379
137.405
393.149
322.247
246.693
699.369
56.8707
44.0571
44.2761
44.0128
541.791
1054.35
97.7502
264.585
1101.83
121.693
112.311
127.349
188.236
350.455
58.3634
130.378
79.9134
46.6557
45.9669
45.1438
55.3484
43.99
42.7101
279.997
173.466
255.044
199.89
203.233
878.796
180.757
240.081
253.929
209.602
237.97
206.994
164.502
41.7101
81.308
405.653
59.934
56.1985
297.767
652.167
286.75
955.512
61.0072
867.865
550.572
1202.29
734.694
80.8037
1020.67
698.026
386.275
924.818
891.021
594.039
163.306
673.318
82.3965
411.004
46.7032
759.331
468.185
262.2
263.965
574.969
591.286
134.021
213.738
201.235
554.2
597.102
306.212
1031.88
115.061
244.349
414.319
600.558
580.227
60.7959
45.8827
190.521
83.098
152.633
249.235
106.417
693.074
711.654
464.476
264.085
370.169
347.783
43.0805
1018.31
60.0887
1153.59
1230.75
113.98
899.401
99.2493
872.416
392.013
185.777
75.9753
47.8431
45.0572
54.3131
73.6648
408.582
667.37
408.016
64.6694
729.063
809.918
1283.02
334.951
44.0009
1156.03
1538.42
622.742
999.702
42.8155
776.536
799.751
796.558
50.4237
42.4117
310.096
53.2965
75.9956
447.157
349.224
59.0227
58.3919
101.18
74.3467
50.476
80.4109
57.2653
61.2979
54.4485
55.7141
49.1817
228.116
911.955
88.0275
155.807
196.406
74.6286
63.5628
45.4261
71.6842
68.8846
73.5193
91.0175
95.0559
74.5526
62.7122
81.2434
73.786
45.2588
250.441
48.4334
42.6334
74.997
998.169
51.5937
74.4696
54.6399
58.1686
472.303
384.482
199.22
692.968
43.4078
43.7719
171.642
287.121
1077.97
418.222
586.868
935.614
458.396
454.836
698.813
54.1306
386.588
389.459
458.068
68.6791
699.955
47.5365
50.3656
99.1236
76.9418
72.1984
174.335
148.955
75.234
64.7422
50.6324
127.049
201.116
814.264
271.469
290.694
171.377
216.423
455.294
386.875
193.503
126.863
1174.57
46.405
197.192
471.157
44.2955
54.6332
89.2482
128.617
89.8253
64.3731
419.333
82.3355
59.6389
670.115
87.4499
265.921
158.958
50.1118
57.9204
63.4702
46.0063
164.894
837.234
47.0078
61.4012
45.924
48.1952
49.8721
46.2422
46.115
42.0701
86.8614
46.6831
52.302
73.7676
49.3523
67.2272
58.9183
44.8766
1019.48
92.274
60.4071
262.921
69.4801
55.9903
78.7981
197.308
70.3293
83.6615
57.6241
54.9102
97.5311
64.0698
42.2519
50.2817
41.9585
43.6938
291.346
267.702
61.1288
50.3935
712.776
58.3586
101.014
110.533
271.159
291.605
273.426
191.507
988.504
987.457
755.426
992.309
765.627
148.365
58.1244
63.0838
67.3692
446.888
96.9613
432.98
49.7878
53.3125
72.0776
111.844
66.1585
54.2153
679.288
60.8161
87.3416
488.345
87.2377
82.128
87.2671
70.6276
124.495
154.336
828.148
64.2824
156.546
89.028
54.3006
50.1793
42.0072
42.1913
101.9
77.3058
50.0607
42.3418
62.3462
43.7215
71.5335
51.6711
52.3135
140.625
66.8807
105.643
66.4979
48.9372
835.774
225.02
189.51
169.464
1218.95
203.035
50.6527
70.1688
62.6149
848.19
73.4926
46.6357
67.9736
50.3014
134.57
524.672
76.4263
68.4365
122.008
75.0106
67.5876
749.046
50.4361
92.7077
50.5894
53.8888
468.59
76.8357
888.729
237.537
45.9816
45.5086
45.0875
72.4348
117.946
289.072
744.674
590.151
106.578
88.3671
169.291
721.508
172.458
151.937
592.112
221.848
1202.6
1010.8
98.6683
1280.98
1025.81
940.687
920.495
48.5855
130.146
66.6024
41.7201
42.751
46.6855
171.563
52.9272
442.249
56.974
793.831
242.451
42.205
49.9859
50.9435
60.657
60.6084
88.0219
369.293
779.25
222.609
780.026
1027.91
145.014
276.205
59.7553
60.2252
202.403
814.527
401.349
71.0319
44.668
51.5193
55.6994
43.6023
54.0223
42.1425
53.5579
45.4936
61.8396
92.6943
59.9425
48.0574
50.4668
65.7709
158.8
249.949
831.957
920.292
65.6158
255.536
72.7176
737.399
115.925
452.384
85.1229
101.126
641.964
74.7773
75.1129
80.55
107.762
83.6746
938.173
1366.14
64.8315
523.659
597.244
820.588
942.925
78.6235
119.275
160.202
50.2683
73.3375
54.7016
60.9685
703.829
88.6221
132.376
63.0351
58.8094
242.381
643.23
922.597
170.046
616.678
433.054
622.823
413.319
59.6176
51.7021
377.464
56.4488
556.019
99.8508
298.659
55.0823
57.8883
54.5711
119.033
139.183
82.6246
92.8168
44.8835
72.1294
75.4647
60.3747
227.859
302.625
160.51
870.794
173.106
839.28
426.557
603.474
130.227
78.5929
45.118
61.7113
44.8275
41.783
54.862
64.6472
95.0963
60.0958
74.9482
58.4441
818.139
126.949
56.3959
733.164
280.55
152.078
278.532
72.5959
357.829
171.088
467.607
55.5425
197.749
476.201
469.172
169.686
949.398
112.352
294.855
53.1847
60.471
66.1489
55.9506
51.6943
47.7344
145.222
50.8696
501.394
43.4853
215.508
144.048
874.215
471.347
74.5113
64.1976
305.912
45.4199
102.188
164.565
135.607
53.8391
510.604
65.473
78.2165
62.6433
149.204
49.9013
87.9034
48.3638
125.563
158.914
94.3929
93.991
42.2781
41.5928
48.4528
45.0908
44.1776
134.68
106.557
836.306
548.527
687.937
933.026
83.9861
95.4235
121.765
973.72
92.16
503.228
868.316
137.5
47.3306
118.277
248.596
470.712
43.4792
130.118
48.4949
55.0364
52.5986
115.167
128.278
78.7777
142.516
67.2726
58.24
64.8096
72.7758
85.6154
105.245
593.01
308.272
180.899
353.303
237.064
184.37
210.113
162.112
153.807
49.488
59.0821
48.2171
56.1738
53.5599
135.678
63.0289
54.662
46.2126
58.2484
60.0633
54.3041
43.5885
52.8097
78.5861
54.3943
735.694
74.4271
41.8234
42.5973
419.302
942.897
393.02
471.787
57.7011
88.9648
77.1738
79.0197
83.4337
85.1643
71.3554
938.24
512.538
202.674
85.6338
452.731
53.6463
721.398
60.883
858.753
137.385
286.122
484.653
994.427
1136.64
665.997
654.726
378.283
89.6413
84.2428
770.153
67.6536
70.3273
52.3368
479.784
56.5508
47.7806
43.5927
47.4005
56.2465
219.676
869.722
123.338
67.7745
48.889
41.9051
42.1109
181.853
146.919
83.1028
173.79
42.282
42.4754
62.6383
83.5043
85.7857
656.948
157.567
454.313
461.336
857.502
386.315
845.462
826.417
784
639.259
719.32
883.171
814.996
344.499
741.16
257.107
335.619
54.3067
309.438
51.7854
100.99
68.7452
81.9109
80.6423
176.325
42.2421
155.318
223.429
147.677
186.909
171.337
814.266
93.9623
568.587
541.668
77.9195
373.9
89.7085
784.458
778.329
46.4848
46.5217
50.1295
48.7087
45.7795
45.7219
43.5944
68.5472
127.251
696.024
986.541
137.445
362.911
95.3716
65.3646
64.2443
1010.8
285.785
69.931
67.5745
58.5414
840.29
79.3692
60.9128
58.2494
586.797
366.828
336.363
69.141
68.2757
83.0988
104.509
97.7758
847.614
98.0984
233.906
857.764
277.238
76.8719
89.9472
614.955
78.1669
148.361
41.3256
41.5947
46.2323
96.6475
70.3569
63.0637
61.4527
218.074
225.283
409.263
518.917
346.96
324.199
159.287
96.3731
98.5237
77.463
56.9045
69.3344
52.4807
62.0779
61.1848
56.6319
89.8791
189.853
52.7003
55.3985
90.5816
46.1346
46.3124
48.2494
46.6658
45.9594
42.1404
43.0291
82.2512
91.0522
156.126
54.3624
74.7083
95.4751
70.1983
77.4415
67.0264
70.5691
42.9767
144.259
80.242
69.9807
257.934
51.5363
297.196
60.4255
47.2735
48.7039
47.514
65.7196
740.355
43.4277
662.931
119.69
81.9671
86.891
51.1247
83.4906
147.93
41.552
54.9852
87.2545
71.6486
70.6704
84.7787
69.4947
67.2457
132.809
541.726
71.6091
65.9882
73.2693
58.4753
147.569
232.92
193.332
100.99
158.442
73.8242
160.859
285.292
46.2807
43.5019
45.6947
54.976
44.0811
364.723
42.116
51.3618
53.7408
1124.58
793.612
369.622
742.203
106.654
695.328
831.432
145.589
481.324
61.8047
87.137
107.322
138.153
196.72
94.4661
80.6163
44.4738
62.4233
86.7618
290.58
48.0205
58.0772
81.2743
86.2935
530.163
58.7225
55.42
73.0071
50.1347
45.0265
94.2203
50.008
45.2241
43.74
42.0152
41.8788
41.9419
42.3944
47.8709
67.6298
43.6434
42.8085
46.2441
42.2152
87.399
48.8402
50.9494
63.0081
50.2418
61.2365
75.0845
56.0503
221.354
61.5135
67.542
43.3481
73.3683
53.0715
52.7515
49.4795
43.4978
46.2534
49.8651
159.752
47.6062
113.393
294.833
42.465
104.286
79.1783
78.297
48.0088
62.7035
64.2832
137.42
84.518
101.677
89.0423
52.0626
42.3301
49.9126
42.7613
50.0892
45.4356
41.6646
42.4757
45.6432
44.6248
168.293
42.8772
50.1673
156.496
110.985
133.422
311.134
76.3164
64.0838
64.5196
44.8204
43.6522
123.81
46.2707
46.2205
46.7985
55.1647
108.564
45.2028
96.8434
43.9047
45.3586
74.0373
182.533
86.1583
199.793
54.1971
56.2184
68.3982
92.6464
71.4748
45.4931
45.337
43.4054
45.4937
47.2484
146.278
62.0726
70.9013
60.0452
65.9523
112.05
42.4701
49.5069
49.1794
51.1312
54.6046
73.3499
519.798
137.778
859.958
253.144
48.475
121.031
80.7132
657.644
87.6453
43.1511
42.5076
47.263
51.0393
53.1583
43.5822
44.1291
42.1993
50.2769
528.673
277.123
43.0201
42.5729
48.3637
54.1749
424.979
203.95
196.791
63.4515
162.894
95.2791
129.27
120.714
204.508
522.695
62.0296
79.5671
71.8981
70.4775
348.175
403.63
76.1135
71.6734
607.878
52.9433
43.0516
100.439
42.6593
87.8052
65.0049
56.002
55.3058
119.798
43.8377
93.2396
334.08
73.1985
42.4856
42.5572
52.5056
42.1752
86.3432
41.9023
41.82
43.6762
211.727
50.5197
46.3608
72.185
119.367
50.6445
50.5085
48.0869
146.266
81.6787
92.427
73.9017
696.325
242.359
72.6322
444.571
159.853
577.785
43.5517
80.0574
128.458
68.6465
72.9159
138.403
67.0697
81.3482
901.708
210.526
41.647
62.009
90.9755
48.9251
50.2741
41.9737
96.3756
119.246
61.1026
1054.21
76.574
121.61
69.3068
119.038
139.058
80.9826
113.818
71.0174
68.4013
181.849
126.515
73.6962
97.5141
63.738
183.456
69.4024
74.5188
123.368
305.968
51.2174
42.0773
41.4357
48.2962
50.9423
155.493
46.4293
57.124
455.612
113.634
174.017
341.308
105.369
99.9896
65.5757
53.3785
52.6454
47.3147
59.5108
46.5789
41.6286
86.9825
76.6179
856.027
982.713
74.6517
62.4546
59.3571
133.581
558.126
652.727
123.227
661.006
232.754
85.7902
203.671
201.232
110.724
898.742
112.068
91.3431
499.712
540.433
49.7276
69.746
51.9281
42.5952
83.3661
42.3239
41.6775
80.2844
65.1523
704.208
466.563
58.2196
260.817
172.862
79.6033
103.555
452.191
541.887
94.5536
133.379
148.842
56.3614
44.2333
44.7316
46.5077
94.2374
57.8579
57.98
929.444
252.537
134.836
69.8789
77.4093
401.875
59.7431
70.6285
66.7141
43.5869
55.4544
287.695
174.522
223.126
62.3847
58.112
55.2097
64.9263
688.316
92.5921
85.9244
59.7701
89.3782
80.9886
178.836
224.791
85.7474
124.521
55.6053
61.7513
163.632
49.0239
92.5364
55.2378
63.0679
63.6414
427.027
211.556
134.249
81.0095
110.596
761.624
793.36
124.837
71.7717
240.157
547.181
74.6356
722.446
197.485
363.246
53.6736
175.666
107.548
54.5471
99.484
60.1044
60.7335
215.86
48.7681
51.9637
69.4587
499.327
61.455
56.7771
53.4768
44.2343
192.779
365.2
759.117
80.8044
61.2038
361.41
172.006
77.8113
317.962
53.4712
51.2968
44.654
203.846
148.835
75.4186
48.8571
96.7512
498.444
191.797
43.9995
46.927
73.7609
225.89
52.374
146.972
726.246
1008.08
813.573
81.9625
87.3547
69.1988
124.364
774.653
154.738
125.103
110.286
168.798
50.3949
42.6666
42.5589
60.1861
69.5245
234.544
75.6706
65.7955
79.2238
87.5708
155.153
492.524
509.478
78.2826
141.028
711.27
141.801
293.09
209.672
125.08
179.575
60.4271
595.051
173.884
144.95
74.3226
449.063
52.0772
73.2941
64.635
48.4784
640.177
55.757
643.26
56.7267
85.7339
61.9241
108.946
60.7043
337.148
219.202
68.5491
48.6996
44.6597
149.932
335.358
709.304
563.619
51.4244
486.915
45.2906
64.2135
369.456
70.8078
445.902
1066.42
43.0186
536.48
59.1909
60.9596
48.1127
55.2188
51.8557
130.051
489.55
62.0925
367.421
133.231
398.65
60.3439
115.709
61.5791
61.8866
46.8154
697.957
264.562
47.1647
409.285
41.9618
67.7596
112.852
261.905
690.052
69.1206
120.967
255.332
143.113
199.475
80.4436
78.3184
182.476
908.983
136.352
351.6
914.321
100.747
125.971
80.9039
73.2508
882.838
45.0078
50.6462
571.084
88.8637
742.495
43.241
42.9908
43.5643
46.65
44.22
57.7989
62.1232
95.3438
62.7506
62.926
78.4165
45.899
46.739
278.739
744.307
46.1616
773.167
127.99
88.6659
82.5031
70.3245
256.369
103.546
218.783
242.905
78.1092
587.146
54.1955
41.9495
43.0609
50.5971
163.552
77.069
154.681
198.074
74.2463
106.197
922.115
53.4634
53.8068
825.721
963.338
236.251
472.331
642.958
379.636
617.561
364.524
446.137
147.563
293.936
198.708
155.33
850.861
728.302
772.498
257.748
79.3442
939.507
346.551
357.065
85.2987
292.48
680.919
145.036
256.414
168.093
80.6188
259.871
154.578
884.61
755.473
1061.31
167.725
79.3532
765.818
464.941
687.784
57.0701
47.0797
986.296
746.267
76.1968
62.4738
60.5852
798.492
1244.62
1247.06
49.3023
50.4649
53.5907
65.7758
46.8536
89.8253
48.5083
345.237
404.847
898.443
955.635
713.823
746.676
542.607
113.212
80.8952
54.1346
191.102
210.623
82.279
45.183
47.8637
168.55
123.786
574.507
41.8088
65.3697
117.187
89.8165
60.9211
108.86
65.013
201.645
82.6653
606.703
561.985
64.8937
48.9985
88.2447
1094.74
665.217
1035.84
82.1436
815.992
721.929
42.3509
872.219
824.641
1073.94
90.9901
47.2009
53.7893
46.6466
59.0813
44.3838
47.1542
42.4189
41.3368
777.259
581.061
644.454
502.888
529.106
754.351
42.4147
42.3781
50.5943
41.8682
833.848
45.3381
49.196
57.149
49.402
57.8196
68.8746
62.1289
55.8185
50.2487
42.8822
662.986
41.6808
43.7225
52.7215
47.062
71.3573
88.3654
42.8553
43.2474
685.687
116.872
108.58
55.9639
43.7892
52.3212
166.167
112.861
306.271
181.71
42.3465
42.3715
127.134
83.9839
789.333
874.179
603.206
720.433
171.923
97.121
87.4377
51.3922
45.5399
48.5743
50.1199
93.0828
76.8029
228.636
62.3908
227.098
56.7412
43.7686
91.8444
42.5985
44.9236
45.3122
129.428
42.9193
54.1171
118.283
42.6408
139.349
47.3709
42.3171
43.3524
44.1487
48.5011
56.2353
434.654
55.005
205.582
76.2424
49.502
116.098
171.248
89.5734
175.11
774.558
127.722
98.604
202.821
425.477
122.98
77.1651
360.434
860.73
92.4035
139.793
729.775
88.0069
113.784
81.4876
173.36
727.352
918.243
426.321
804.903
926.378
156.475
134.449
130.041
62.1465
95.4443
63.963
92.7474
81.3462
73.6704
96.0875
75.0915
69.6945
80.6674
79.4361
180.93
126.928
167.32
292.893
48.7471
45.5548
43.216
44.9907
50.6273
43.4233
44.3632
51.1992
141.598
78.7812
49.2052
53.4022
70.6909
43.3952
43.5871
44.9542
45.3417
45.2904
160.12
343.879
501.252
319.874
686.159
559.903
69.4287
689.478
360.613
55.5994
41.6475
576.755
494.545
64.8219
293.729
79.0123
67.1557
47.2541
44.5699
98.381
135.146
96.4631
112
53.0264
51.6348
50.6448
214.362
93.7185
76.5805
76.9396
59.1376
974.134
118.876
252.282
60.2997
94.4204
269.005
153.921
113.23
85.1485
70.075
84.385
1234.12
139.199
111.912
69.3841
78.3355
780.857
597.163
844.748
586.743
348.752
47.2705
54.7938
44.8696
42.196
150.834
190.817
43.3858
217.697
112.465
93.0112
544.618
66.034
58.1327
51.7907
92.488
105.763
159.952
525.062
130.973
65.8593
398.689
151.558
59.2976
742.172
116.889
67.4179
87.1214
140.44
545.067
694.865
312.69
496.832
202.153
202.407
275.075
41.3424
41.7378
42.8614
47.5428
49.6014
43.8439
44.6049
122.358
255.821
724.322
125.759
159.571
183.943
681.544
611.904
90.8044
71.1424
52.0025
722.201
91.149
919.953
58.482
60.4375
49.6384
79.7057
974.642
133.531
94.6931
205.02
59.9494
74.815
108.111
707.361
414.217
108.355
50.2168
79.359
51.389
82.8851
169.068
138.578
69.794
156.812
83.3596
83.2736
144.231
65.34
62.9381
192.491
73.7313
76.1165
268.481
48.7154
76.1663
54.2656
68.3804
64.7839
66.1513
57.2187
58.2976
70.0549
79.7999
51.7848
43.8988
47.0835
55.8602
72.4305
106.131
123.036
56.6449
155.22
448.422
41.3369
43.8096
348.128
41.6353
90.2676
950.138
915.071
263.853
42.3797
57.6315
60.9115
44.9364
44.1286
45.058
51.7544
47.2911
57.0272
151.589
47.5792
49.5643
120.332
874.363
68.8501
399.942
133.72
100.505
143.304
95.9829
228.138
88.0835
188.488
717.402
126.771
104.849
238.447
478.686
743.782
51.1167
467.359
123.684
146.469
620.123
122.756
306.83
551.38
103.316
545.076
53.7116
45.6438
67.2091
64.5401
67.6488
73.5315
100.14
73.8866
46.402
59.9044
45.5893
288.411
126.37
267.769
50.159
506.017
324.187
95.216
103.231
413.732
270.769
78.1524
51.459
64.2172
100.719
56.7815
113.586
114.523
92.3719
120.054
101.083
43.8888
60.625
60.5957
59.0593
45.8742
118.239
41.9409
148.096
44.9536
41.7832
209.231
48.5697
63.0904
104.726
58.4755
104.069
44.934
59.8546
51.4279
52.4458
53.6724
59.9265
52.0027
48.9862
77.8333
110.13
94.7839
66.22
44.3335
43.688
42.6758
60.3849
59.8175
51.4813
48.2677
51.5663
57.2503
57.3955
113.236
59.5839
91.7199
64.8443
96.0373
59.4784
84.824
86.8435
53.7121
138.126
68.4353
62.6073
43.5904
149.545
43.5777
43.5329
78.4225
85.8078
166.335
157.433
49.8065
47.2745
48.6449
43.4977
44.3371
178.746
110.128
109.222
264.857
215.493
109.329
201.02
89.7349
92.06
155.165
72.9161
75.3097
118.523
107.327
156.193
156.468
192.634
301.045
347.652
582.489
569.453
541.07
379.34
561.935
584.995
80.2549
82.5468
80.2758
508.161
179.887
140.929
171.722
129.954
167.202
122.526
79.8469
83.5161
83.1567
83.1131
110.394
92.6417
62.6145
60.7355
76.461
71.4133
77.4523
95.8347
92.5849
113.965
58.7579
41.9558
42.4913
41.9605
246.113
118.054
63.1159
124.461
68.5268
110.879
62.0537
61.7716
72.6488
55.2862
337.13
224.319
241.396
110.568
218.608
137.661
287.828
250.75
404.833
329.394
495.267
563.845
77.7024
765.688
444.833
68.9272
740.384
1071.14
803.673
826.191
172.829
229.39
475.192
62.5763
93.1919
74.0912
466.045
95.6689
703.002
878.722
303.5
111.417
545.246
473.726
479.381