/*--------------------------------*- C++ -*----------------------------------*\
| =========                 |                                                 |
| \\      /  F ield         | OpenFOAM: The Open Source CFD Toolbox           |
|  \\    /   O peration     | Version:  2506                                  |
|   \\  /    A nd           | Website:  www.openfoam.com                      |
|    \\/     M anipulation  |                                                 |
\*---------------------------------------------------------------------------*/
FoamFile
{
    version     2.0;
    format      ascii;
    arch        "LSB;label=32;scalar=64";
    class       volScalarField;
    location    "0.00481384";
    object      k;
}
// * * * * * * * * * * * * * * * * * * * * * * * * * * * * * * * * * * * * * //

dimensions      [0 2 -2 0 0 0 0];

internalField   nonuniform List<scalar> 
3926
(
0.383762
0.385427
0.426679
0.47582
0.446841
0.530205
0.546758
0.571104
0.416066
0.539208
0.547105
0.38613
0.391621
0.383435
0.389395
0.393389
0.387425
0.390166
0.440913
0.384503
0.428679
0.460492
0.460472
0.379245
0.399251
0.445132
0.44485
0.483035
0.484975
0.386526
0.390589
0.409057
0.380536
0.382754
0.392577
0.386216
0.446538
0.404114
0.396354
0.384674
0.477327
0.619186
0.394886
0.387271
0.39591
0.505454
0.397872
0.402757
0.472804
0.407849
0.425493
0.571638
0.483961
0.571423
0.392141
0.40446
0.516532
0.493234
0.41276
0.455774
0.386011
0.449747
0.524932
0.407932
0.558057
0.523811
0.552145
0.480365
0.389217
0.553173
0.517541
0.384093
0.404825
0.3917
0.387677
0.352886
0.398556
0.494095
0.41944
0.391904
0.436382
0.40978
0.543751
0.549174
0.39177
0.392928
0.388463
0.384962
0.52312
0.388949
0.390375
0.41044
0.44058
0.398605
0.400911
0.608658
0.396281
0.390295
0.494247
0.406345
0.459924
0.40965
0.424911
0.412355
0.502196
0.472528
0.410515
0.403256
0.40289
0.398544
0.42824
0.412685
0.40268
0.405642
0.389137
0.484133
0.443296
0.385888
0.569026
0.547929
0.383784
0.38265
0.390515
0.426907
0.404984
0.419036
0.442284
0.399354
0.480468
0.421297
0.410659
0.407219
0.400562
0.402551
0.46596
0.44851
0.517014
0.570352
0.59673
0.439154
0.394414
0.397747
0.410414
0.4312
0.405423
0.465315
0.417298
0.457659
0.406485
0.408467
0.42459
0.420993
0.409362
0.44514
0.465714
0.486158
0.412784
0.488436
0.452116
0.474677
0.41467
0.403835
0.406433
0.475723
0.505495
0.404314
0.395237
0.387556
0.397489
0.467137
0.642605
0.392039
0.389061
0.386027
0.408222
0.408396
0.410817
0.489918
0.459137
0.403812
0.407262
0.394616
0.38555
0.381009
0.381986
0.418691
0.414492
0.39584
0.43145
0.427216
0.518347
0.401418
0.484708
0.40115
0.398439
0.387582
0.404355
0.395793
0.400205
0.559375
0.413058
0.611407
0.522634
0.399498
0.395239
0.45929
0.393362
0.404132
0.403126
0.390755
0.388885
0.394535
0.426846
0.39008
0.385537
0.456803
0.392522
0.426737
0.417309
0.429346
0.398089
0.412755
0.398067
0.394895
0.395316
0.484152
0.460729
0.415615
0.391394
0.395547
0.389125
0.464702
0.384644
0.399066
0.422594
0.427781
0.389285
0.451645
0.49755
0.416978
0.422355
0.401391
0.380356
0.492208
0.382657
0.422976
0.429658
0.412319
0.38456
0.585093
0.563173
0.382751
0.544498
0.458137
0.392099
0.379874
0.44399
0.415067
0.444036
0.565181
0.593079
0.499348
0.40612
0.513583
0.513769
0.395096
0.407339
0.414348
0.413661
0.424704
0.504418
0.616482
0.391561
0.403655
0.405648
0.448896
0.390521
0.412135
0.394429
0.39326
0.523948
0.447562
0.382612
0.399423
0.394736
0.395632
0.464113
0.467456
0.434256
0.461281
0.456937
0.396211
0.402293
0.454406
0.385373
0.434803
0.393075
0.41053
0.409651
0.386384
0.592942
0.464754
0.398147
0.437571
0.398547
0.451522
0.636052
0.396941
0.391067
0.578388
0.563331
0.505224
0.481878
0.406578
0.413808
0.388703
0.401307
0.394507
0.462196
0.393855
0.418025
0.391417
0.552212
0.460232
0.464086
0.408244
0.451809
0.442365
0.508
0.390605
0.437222
0.393822
0.381739
0.392491
0.388416
0.394607
0.422905
0.335377
0.519742
0.33835
0.478305
0.35631
0.400023
0.386917
0.397519
0.383577
0.516112
0.468383
0.520516
0.359543
0.445311
0.327962
0.346128
0.36976
0.404179
0.400624
0.405868
0.434118
0.388217
0.389516
0.402851
0.396251
0.395449
0.391359
0.483652
0.452895
0.414963
0.390766
0.493309
0.389039
0.38188
0.388936
0.548199
0.394134
0.444129
0.402959
0.418619
0.397372
0.471291
0.421548
0.389275
0.403602
0.425835
0.440439
0.404682
0.398264
0.451274
0.392676
0.406216
0.393141
0.492649
0.397575
0.528131
0.413081
0.4163
0.395257
0.425377
0.382208
0.426528
0.393693
0.388971
0.393479
0.399105
0.389348
0.43223
0.432449
0.425178
0.388874
0.388039
0.38157
0.390881
0.5883
0.471916
0.438239
0.398293
0.398933
0.418459
0.405508
0.397751
0.396917
0.39132
0.387511
0.4156
0.436104
0.404971
0.384363
0.408972
0.391457
0.387817
0.381221
0.417577
0.390051
0.410389
0.40114
0.387022
0.384768
0.418843
0.384988
0.407798
0.387192
0.397946
0.583271
0.423746
0.38088
0.463728
0.560921
0.480283
0.404048
0.391222
0.384288
0.522985
0.407696
0.383122
0.569275
0.380285
0.456441
0.449184
0.396527
0.396174
0.378744
0.386185
0.449916
0.381154
0.400646
0.413812
0.396218
0.391621
0.57202
0.407598
0.388604
0.382637
0.390398
0.386663
0.381892
0.436986
0.437635
0.405227
0.438118
0.392509
0.489871
0.463543
0.391213
0.392351
0.401114
0.378769
0.390614
0.519694
0.453296
0.436087
0.584863
0.417656
0.465666
0.543433
0.616808
0.392184
0.393028
0.394279
0.405072
0.457111
0.528978
0.427666
0.493688
0.418655
0.438325
0.476249
0.406066
0.395959
0.424505
0.388216
0.403579
0.442017
0.562332
0.538004
0.419557
0.459055
0.491115
0.584328
0.438799
0.582216
0.399025
0.521959
0.54825
0.445626
0.497352
0.479936
0.426041
0.433046
0.472441
0.467681
0.438868
0.390301
0.394139
0.396566
0.39243
0.456173
0.481193
0.602136
0.599315
0.382333
0.393773
0.38358
0.43579
0.538132
0.549234
0.578053
0.454365
0.412168
0.394281
0.392949
0.389808
0.389439
0.390913
0.480622
0.401334
0.387445
0.426053
0.438481
0.47444
0.494973
0.422377
0.407697
0.429756
0.38729
0.39442
0.394255
0.397039
0.538172
0.521695
0.471349
0.540211
0.411916
0.39712
0.390744
0.392487
0.388403
0.419139
0.434444
0.417667
0.520515
0.393279
0.508188
0.400624
0.433863
0.40109
0.432911
0.459245
0.575733
0.397535
0.389051
0.393858
0.49675
0.389509
0.499265
0.448162
0.57931
0.390298
0.464375
0.583213
0.501442
0.478757
0.454803
0.407454
0.416003
0.390637
0.392089
0.395651
0.408447
0.486796
0.465381
0.539861
0.503641
0.443113
0.48442
0.39954
0.393589
0.393316
0.391396
0.388441
0.392595
0.391327
0.394717
0.451464
0.430525
0.399927
0.476486
0.441222
0.413737
0.393756
0.402015
0.392039
0.392409
0.408261
0.392867
0.394436
0.474997
0.391587
0.392006
0.401213
0.405848
0.486038
0.416254
0.3847
0.395783
0.42117
0.391954
0.40919
0.41263
0.42462
0.425221
0.446649
0.39207
0.423222
0.420271
0.412796
0.389025
0.438504
0.391479
0.391928
0.39513
0.460866
0.465012
0.382066
0.387989
0.38539
0.425658
0.423723
0.413398
0.621152
0.422619
0.399161
0.412101
0.392468
0.398858
0.407128
0.404651
0.404639
0.450148
0.420086
0.397184
0.436226
0.395632
0.398041
0.445001
0.508844
0.445408
0.39864
0.394748
0.391925
0.392978
0.379794
0.456564
0.421738
0.505049
0.422612
0.423798
0.388006
0.391735
0.396901
0.383354
0.390592
0.391982
0.401285
0.401124
0.3981
0.391952
0.395385
0.395149
0.417168
0.463769
0.385354
0.388213
0.392587
0.389551
0.395108
0.394173
0.399658
0.394114
0.44013
0.451012
0.440144
0.409648
0.403434
0.391345
0.394313
0.389146
0.386256
0.378042
0.391182
0.385733
0.418795
0.395656
0.394838
0.425704
0.402585
0.385002
0.416403
0.39778
0.396081
0.420831
0.393515
0.395934
0.424488
0.498784
0.410164
0.403592
0.396838
0.392834
0.393593
0.397923
0.383249
0.395043
0.395298
0.387544
0.391284
0.390779
0.393737
0.485557
0.427491
0.428752
0.39412
0.492503
0.391361
0.392524
0.407792
0.483003
0.413581
0.511201
0.499796
0.410783
0.497463
0.396657
0.464239
0.460953
0.381921
0.394238
0.430655
0.476953
0.390047
0.381199
0.417333
0.377364
0.50264
0.426198
0.420329
0.391325
0.39291
0.402021
0.396634
0.381703
0.389841
0.390088
0.383076
0.391385
0.456802
0.403563
0.394449
0.388573
0.389308
0.399375
0.420898
0.390793
0.392117
0.402961
0.402586
0.420465
0.542417
0.504509
0.405894
0.392841
0.412864
0.392061
0.40855
0.396062
0.383944
0.42503
0.391701
0.389289
0.393224
0.401286
0.394692
0.503133
0.46292
0.613509
0.380651
0.425374
0.402453
0.392889
0.636095
0.42788
0.505442
0.38798
0.386869
0.414987
0.332136
0.494404
0.423114
0.384979
0.392658
0.386486
0.573504
0.395992
0.376872
0.444517
0.398287
0.394928
0.382691
0.451446
0.3784
0.399431
0.409734
0.389046
0.61504
0.398323
0.394985
0.63719
0.493799
0.397101
0.498982
0.448612
0.39525
0.505111
0.393198
0.390508
0.399772
0.460847
0.404466
0.412954
0.391785
0.616696
0.564848
0.416272
0.430608
0.508175
0.435722
0.389068
0.415266
0.396043
0.399881
0.453138
0.463875
0.491945
0.399286
0.394721
0.430548
0.393595
0.435125
0.429965
0.413137
0.415134
0.379866
0.377791
0.400551
0.396068
0.37918
0.456715
0.383286
0.479005
0.397957
0.39093
0.403958
0.506176
0.382985
0.463768
0.415675
0.400087
0.385463
0.390772
0.391333
0.616205
0.382162
0.415105
0.588018
0.389328
0.394313
0.383238
0.422608
0.514428
0.47309
0.516507
0.4372
0.383633
0.39134
0.390385
0.462771
0.391535
0.394671
0.521275
0.462572
0.498175
0.438534
0.438393
0.42292
0.564071
0.492518
0.395657
0.389627
0.442914
0.388767
0.460911
0.578953
0.379859
0.394033
0.381045
0.392454
0.392466
0.386918
0.399904
0.411656
0.425627
0.481411
0.514717
0.446136
0.391267
0.421157
0.591462
0.517024
0.525936
0.520379
0.410654
0.400214
0.413217
0.450114
0.492061
0.417599
0.40647
0.435558
0.415578
0.479085
0.399993
0.445461
0.543741
0.424097
0.439014
0.391919
0.403355
0.390921
0.390108
0.396483
0.392485
0.410135
0.393136
0.397535
0.403532
0.389495
0.458487
0.3974
0.393028
0.391877
0.376558
0.576732
0.429523
0.504747
0.530541
0.532662
0.497743
0.446842
0.392393
0.387547
0.39578
0.444465
0.380019
0.383598
0.574757
0.395005
0.412442
0.403933
0.387556
0.395286
0.590011
0.404792
0.390557
0.394838
0.438166
0.391377
0.387416
0.391914
0.394086
0.386759
0.390743
0.398631
0.494238
0.429471
0.414492
0.590681
0.60888
0.408868
0.396723
0.428842
0.383183
0.39941
0.391953
0.392248
0.422946
0.392409
0.407698
0.477853
0.401982
0.575723
0.439026
0.41303
0.396193
0.570227
0.394226
0.40462
0.418358
0.511891
0.388419
0.424679
0.393811
0.516923
0.406496
0.419086
0.397472
0.353943
0.48218
0.474094
0.392313
0.501313
0.493017
0.4701
0.384511
0.464172
0.506439
0.565603
0.384277
0.388746
0.38099
0.391565
0.389246
0.576653
0.395035
0.37876
0.463529
0.404315
0.513031
0.375015
0.388361
0.400258
0.489712
0.416645
0.425339
0.392721
0.388702
0.392921
0.39048
0.389492
0.385016
0.394542
0.387268
0.392037
0.400676
0.445978
0.4079
0.387907
0.387291
0.388326
0.386442
0.392731
0.395037
0.399837
0.389099
0.392817
0.389134
0.395888
0.474492
0.480159
0.399544
0.49551
0.409213
0.396012
0.393393
0.391661
0.395042
0.411792
0.4602
0.473391
0.608645
0.39725
0.395571
0.480682
0.483793
0.381009
0.409555
0.382702
0.390415
0.404609
0.451228
0.409223
0.392631
0.397665
0.526135
0.474966
0.439413
0.41476
0.387554
0.445587
0.421807
0.407246
0.49503
0.500576
0.391924
0.389983
0.474925
0.483693
0.491995
0.496674
0.383793
0.485871
0.429484
0.393657
0.489711
0.45023
0.338171
0.42927
0.395641
0.409726
0.489278
0.501429
0.467383
0.388322
0.574914
0.392656
0.433877
0.441794
0.400958
0.393756
0.602305
0.584392
0.501535
0.334629
0.482059
0.413329
0.502952
0.472396
0.459317
0.487558
0.614739
0.48732
0.473764
0.440485
0.40525
0.397911
0.393522
0.38868
0.496493
0.458924
0.531052
0.520641
0.409371
0.408309
0.496087
0.454905
0.395991
0.403144
0.389389
0.390887
0.389634
0.4232
0.384414
0.437137
0.421159
0.424201
0.407645
0.394204
0.454457
0.447603
0.478626
0.45915
0.468009
0.403592
0.595965
0.561531
0.581986
0.393753
0.407807
0.388961
0.417205
0.406265
0.400939
0.400123
0.41309
0.419989
0.456126
0.602893
0.604962
0.573877
0.583755
0.601994
0.613006
0.611677
0.573739
0.383355
0.392173
0.377355
0.387489
0.394888
0.380221
0.382745
0.390238
0.408674
0.39649
0.392285
0.393934
0.389286
0.451825
0.396978
0.399543
0.384388
0.3905
0.391595
0.393739
0.433648
0.407768
0.415679
0.389896
0.423908
0.41539
0.418937
0.397376
0.388202
0.378441
0.401877
0.484346
0.495402
0.389381
0.400037
0.399063
0.386367
0.40727
0.412941
0.387779
0.389235
0.432662
0.461355
0.392999
0.470962
0.408594
0.415254
0.425627
0.409042
0.469259
0.405681
0.415294
0.417799
0.401554
0.399889
0.39626
0.39666
0.484553
0.463842
0.385897
0.402601
0.419895
0.388709
0.558067
0.473156
0.392424
0.461641
0.440222
0.469522
0.417669
0.488927
0.443237
0.480035
0.469426
0.562884
0.402762
0.402021
0.424519
0.393457
0.45336
0.394155
0.413285
0.389996
0.40141
0.380221
0.400692
0.429804
0.434172
0.392727
0.390805
0.385498
0.438131
0.410411
0.433559
0.386965
0.402096
0.437869
0.398204
0.55559
0.462866
0.460536
0.620936
0.523068
0.406812
0.408341
0.399152
0.405166
0.394633
0.392082
0.396125
0.388366
0.393031
0.387294
0.448355
0.545998
0.426467
0.529739
0.427249
0.392247
0.392017
0.393104
0.382883
0.395471
0.40839
0.395576
0.399286
0.397449
0.411961
0.391615
0.436627
0.432166
0.618774
0.401862
0.391529
0.394722
0.381726
0.389339
0.39141
0.406464
0.416672
0.486402
0.39673
0.398998
0.451035
0.424413
0.389148
0.403763
0.386418
0.53357
0.463828
0.404436
0.405468
0.388104
0.395938
0.513358
0.394983
0.433706
0.557479
0.403926
0.486221
0.521995
0.405096
0.389316
0.388262
0.380376
0.385024
0.401608
0.387408
0.37633
0.396459
0.400681
0.411335
0.375483
0.393049
0.393298
0.468342
0.493848
0.442411
0.406986
0.475697
0.408611
0.550144
0.411727
0.388423
0.394088
0.383705
0.389702
0.395987
0.393211
0.403797
0.389027
0.39907
0.471559
0.426811
0.446622
0.428835
0.453495
0.382738
0.392871
0.389443
0.409612
0.418883
0.39126
0.381474
0.537393
0.50483
0.442366
0.432082
0.424612
0.474357
0.431574
0.480582
0.457983
0.421161
0.413471
0.477509
0.395952
0.450844
0.377735
0.47841
0.440788
0.438661
0.528369
0.545282
0.41648
0.411341
0.413936
0.499793
0.396072
0.39596
0.522922
0.542507
0.453243
0.398735
0.392873
0.393684
0.413459
0.3866
0.398745
0.391969
0.394524
0.529784
0.509953
0.388173
0.42912
0.436425
0.430662
0.408734
0.395378
0.55911
0.602634
0.388439
0.411667
0.390795
0.390626
0.510745
0.40051
0.499923
0.395624
0.409465
0.525867
0.386287
0.437467
0.397309
0.41076
0.407246
0.411471
0.438247
0.390148
0.413808
0.384145
0.405392
0.389718
0.450109
0.389623
0.392753
0.486264
0.49208
0.559974
0.585363
0.419832
0.394556
0.387726
0.38947
0.398035
0.414352
0.403447
0.390648
0.420727
0.394987
0.386875
0.383292
0.392796
0.424183
0.386655
0.391747
0.393914
0.398842
0.425483
0.39281
0.44734
0.394463
0.394222
0.402599
0.390971
0.39366
0.389285
0.44023
0.46099
0.465791
0.464775
0.470863
0.486505
0.413434
0.395317
0.39565
0.393437
0.572972
0.400287
0.394197
0.426926
0.390328
0.57187
0.44908
0.406971
0.406094
0.404648
0.405494
0.40458
0.384276
0.422096
0.410637
0.497705
0.40761
0.40402
0.477378
0.396055
0.460824
0.396676
0.467763
0.455112
0.462118
0.386252
0.481633
0.408637
0.340498
0.395513
0.435432
0.484677
0.449851
0.397061
0.414261
0.434095
0.443537
0.427142
0.600173
0.490626
0.400506
0.465104
0.437184
0.408574
0.492851
0.493448
0.476516
0.34233
0.406612
0.38939
0.392567
0.3892
0.344534
0.47387
0.423129
0.456207
0.591186
0.417194
0.431144
0.408927
0.409818
0.444302
0.386429
0.384426
0.428046
0.392708
0.392781
0.391469
0.403532
0.394165
0.392224
0.415706
0.383634
0.392892
0.394827
0.397111
0.452154
0.470265
0.464342
0.482539
0.481452
0.485242
0.477121
0.38143
0.396054
0.388155
0.408516
0.388459
0.388611
0.393044
0.52565
0.481251
0.597812
0.391143
0.596
0.422847
0.555035
0.596526
0.418534
0.583035
0.44852
0.489859
0.465546
0.571347
0.431113
0.455949
0.574777
0.399114
0.505588
0.390938
0.413639
0.452077
0.468046
0.44073
0.47501
0.46477
0.434988
0.465009
0.463051
0.447083
0.437066
0.470233
0.593266
0.435857
0.487773
0.399694
0.421636
0.394581
0.403577
0.400431
0.504044
0.422336
0.457878
0.49048
0.431874
0.425952
0.350864
0.500659
0.484886
0.496702
0.497881
0.396439
0.621415
0.405062
0.540982
0.582845
0.432948
0.453386
0.426588
0.502255
0.437859
0.412709
0.428776
0.399679
0.393174
0.408207
0.410135
0.432684
0.340223
0.476358
0.408747
0.498009
0.505308
0.572325
0.500876
0.401189
0.518041
0.577868
0.511151
0.459944
0.392261
0.427043
0.563083
0.456983
0.398642
0.388627
0.519385
0.403044
0.425084
0.437823
0.493858
0.404566
0.37962
0.381756
0.381777
0.392909
0.420849
0.402079
0.407167
0.390383
0.398414
0.398482
0.476823
0.579972
0.428423
0.45022
0.473687
0.421494
0.402193
0.393958
0.403374
0.408149
0.415432
0.423098
0.426415
0.412835
0.404769
0.41872
0.402748
0.385587
0.500939
0.391048
0.39537
0.417876
0.594502
0.401792
0.416101
0.399552
0.406334
0.523032
0.498911
0.390777
0.404283
0.385954
0.38712
0.444903
0.50369
0.390892
0.516656
0.497102
0.377691
0.404266
0.492827
0.411806
0.395914
0.497667
0.503943
0.49563
0.410452
0.58498
0.389132
0.391078
0.380662
0.38564
0.390001
0.397822
0.456095
0.390828
0.408743
0.391363
0.446724
0.463454
0.459314
0.471067
0.46567
0.466519
0.476649
0.389729
0.493252
0.444241
0.440185
0.595476
0.396888
0.447243
0.514136
0.394952
0.388476
0.392672
0.437695
0.420349
0.397411
0.491043
0.408006
0.403333
0.493824
0.411016
0.500712
0.384802
0.401517
0.412558
0.417935
0.39369
0.433187
0.486112
0.394068
0.402856
0.391007
0.393457
0.384688
0.389138
0.390504
0.380606
0.417436
0.392691
0.401666
0.393426
0.389088
0.389627
0.398236
0.392955
0.604196
0.420877
0.409836
0.499781
0.40685
0.397592
0.411862
0.388814
0.396869
0.390297
0.388382
0.391929
0.383326
0.38836
0.385716
0.391398
0.381301
0.387224
0.456833
0.480169
0.419517
0.403975
0.519722
0.400302
0.428181
0.43496
0.485501
0.44539
0.425185
0.467359
0.573232
0.566045
0.471256
0.572755
0.498649
0.451824
0.402288
0.387271
0.393294
0.482797
0.417106
0.488131
0.39025
0.392973
0.413892
0.43624
0.387192
0.394778
0.463061
0.397111
0.404735
0.55415
0.395955
0.403069
0.392787
0.395709
0.387297
0.400906
0.5879
0.39134
0.453135
0.4311
0.397837
0.392251
0.394598
0.386145
0.446749
0.418767
0.392044
0.395327
0.406095
0.387625
0.42673
0.406532
0.403401
0.461891
0.410556
0.421163
0.394767
0.399321
0.418023
0.47402
0.473506
0.469962
0.439337
0.39936
0.395255
0.42031
0.396899
0.620029
0.394424
0.393794
0.407905
0.397951
0.453753
0.561098
0.411584
0.398372
0.434032
0.398222
0.397907
0.619169
0.387575
0.381041
0.392472
0.392777
0.511368
0.416865
0.530543
0.427996
0.402454
0.390361
0.39471
0.40969
0.436926
0.481303
0.424922
0.52363
0.385591
0.385578
0.399033
0.508737
0.459241
0.455791
0.391101
0.454944
0.612834
0.574184
0.393961
0.62244
0.590957
0.529083
0.533861
0.389804
0.429133
0.405538
0.395096
0.392002
0.400065
0.452694
0.411019
0.499096
0.402001
0.425068
0.491209
0.386504
0.398607
0.399859
0.39169
0.407089
0.395366
0.468402
0.398071
0.487474
0.578263
0.60678
0.400777
0.40506
0.40777
0.393226
0.475945
0.566625
0.516016
0.393327
0.391162
0.38653
0.389749
0.390049
0.387128
0.393568
0.405922
0.392867
0.408556
0.427459
0.41219
0.401089
0.40516
0.415494
0.454906
0.511542
0.568424
0.518048
0.412209
0.474861
0.421902
0.43175
0.432403
0.486004
0.387456
0.379529
0.550647
0.40647
0.400637
0.402297
0.388614
0.397419
0.560016
0.591068
0.409787
0.499591
0.387242
0.392224
0.426533
0.422086
0.430371
0.437551
0.387269
0.417462
0.393004
0.387855
0.534231
0.385114
0.390642
0.396946
0.396537
0.425921
0.461186
0.456523
0.459699
0.44825
0.538041
0.435215
0.51251
0.398377
0.391713
0.398402
0.390251
0.577364
0.431518
0.498863
0.402468
0.405203
0.386334
0.400908
0.383346
0.432204
0.390741
0.390089
0.386921
0.392483
0.402431
0.452516
0.443086
0.404798
0.574169
0.384197
0.556552
0.421846
0.49546
0.427138
0.38341
0.390752
0.403231
0.386699
0.382261
0.403545
0.389795
0.382734
0.390237
0.378008
0.398793
0.445933
0.445339
0.399194
0.397956
0.507071
0.455597
0.48315
0.421226
0.50748
0.470542
0.357004
0.39196
0.456828
0.465761
0.479711
0.45656
0.580743
0.389665
0.524141
0.384959
0.38756
0.411038
0.39185
0.392785
0.395346
0.37658
0.384784
0.434757
0.394166
0.518831
0.451264
0.442204
0.431766
0.418916
0.423157
0.462582
0.398004
0.42456
0.470914
0.457811
0.385478
0.39084
0.397048
0.392787
0.403235
0.389683
0.386549
0.388265
0.390512
0.390057
0.471224
0.436191
0.383225
0.392614
0.393025
0.396523
0.39001
0.387622
0.456514
0.438073
0.462245
0.467488
0.45994
0.480596
0.420992
0.414815
0.425356
0.612162
0.42474
0.506843
0.419257
0.45663
0.386222
0.437913
0.501505
0.559133
0.389481
0.388459
0.393212
0.401972
0.412969
0.386067
0.449731
0.426024
0.45763
0.41514
0.407859
0.414162
0.420249
0.427198
0.418806
0.55242
0.486177
0.466773
0.505859
0.49123
0.464129
0.475179
0.46606
0.454664
0.392408
0.39853
0.399384
0.404081
0.394983
0.467486
0.417407
0.403161
0.394246
0.403505
0.395105
0.417446
0.38953
0.386724
0.41248
0.400219
0.387782
0.38658
0.38627
0.387132
0.524396
0.485625
0.389491
0.396643
0.395439
0.388936
0.386021
0.392228
0.394724
0.390012
0.396432
0.567738
0.513371
0.462876
0.426132
0.494037
0.395279
0.521785
0.403619
0.532997
0.454409
0.506807
0.534347
0.615102
0.576402
0.557425
0.484111
0.492928
0.428602
0.423814
0.56482
0.411221
0.410739
0.388372
0.450752
0.392993
0.392482
0.392876
0.393156
0.400851
0.480508
0.537415
0.416462
0.408931
0.396048
0.389748
0.388644
0.46961
0.460162
0.42532
0.475097
0.418146
0.390356
0.39906
0.414033
0.416084
0.489068
0.455521
0.54608
0.441699
0.52132
0.512761
0.500936
0.394533
0.583873
0.578359
0.516342
0.541953
0.478042
0.502975
0.470383
0.444878
0.454052
0.40415
0.537328
0.397806
0.386838
0.386833
0.405747
0.38887
0.382677
0.390021
0.413444
0.462216
0.456093
0.446211
0.456987
0.391516
0.394502
0.474719
0.522394
0.394164
0.403155
0.428313
0.432614
0.440624
0.391506
0.392893
0.396328
0.394106
0.393952
0.392516
0.396572
0.415868
0.441046
0.430448
0.471871
0.463253
0.457123
0.39131
0.395601
0.392276
0.559431
0.482016
0.39292
0.394642
0.391703
0.479659
0.390489
0.404761
0.397579
0.523243
0.464987
0.445653
0.395332
0.391503
0.392273
0.394629
0.431336
0.390082
0.427999
0.497861
0.403608
0.474296
0.415944
0.425503
0.321794
0.422166
0.448584
0.392343
0.39477
0.39383
0.424654
0.412315
0.39751
0.398033
0.468432
0.468798
0.527567
0.542899
0.468986
0.477484
0.45358
0.430114
0.42337
0.427763
0.41032
0.421455
0.407466
0.404706
0.420792
0.406201
0.424511
0.432938
0.394829
0.384559
0.39455
0.388944
0.386447
0.399946
0.395461
0.393445
0.385047
0.388883
0.41919
0.422504
0.452215
0.399944
0.395622
0.38895
0.392236
0.392748
0.393153
0.396735
0.396377
0.387167
0.417057
0.40348
0.502904
0.40448
0.518278
0.412528
0.388149
0.389833
0.389898
0.411244
0.458555
0.390069
0.434579
0.384067
0.385138
0.388166
0.374974
0.38785
0.395054
0.396356
0.391145
0.419075
0.391119
0.391665
0.408194
0.396402
0.391579
0.450704
0.567228
0.412597
0.415199
0.414191
0.404539
0.444856
0.486171
0.474488
0.421255
0.462096
0.412692
0.453807
0.50045
0.390724
0.393513
0.393672
0.378777
0.390428
0.504184
0.412586
0.392285
0.397068
0.587597
0.585986
0.489614
0.541973
0.429966
0.468479
0.616559
0.459645
0.536681
0.389804
0.399854
0.396621
0.442996
0.455589
0.388472
0.396288
0.401389
0.403907
0.39536
0.482577
0.390949
0.399772
0.388291
0.418362
0.493009
0.403535
0.401411
0.415542
0.396715
0.391865
0.435915
0.401837
0.387112
0.391879
0.389946
0.377229
0.387454
0.391577
0.419726
0.404476
0.385086
0.391353
0.379362
0.385337
0.421937
0.393492
0.385606
0.388876
0.387486
0.390698
0.391349
0.400038
0.481143
0.406962
0.415809
0.40636
0.379525
0.403357
0.398164
0.397694
0.385565
0.393807
0.397373
0.462597
0.395323
0.386769
0.450796
0.387683
0.389829
0.385427
0.390649
0.391442
0.389798
0.392465
0.39422
0.38804
0.388861
0.392071
0.389206
0.388479
0.389855
0.391245
0.388249
0.396181
0.400179
0.394202
0.396246
0.392271
0.482271
0.388038
0.391772
0.459469
0.383965
0.44587
0.493566
0.390526
0.39048
0.393242
0.394878
0.394778
0.439336
0.389988
0.390423
0.394613
0.397615
0.432938
0.393767
0.432449
0.390182
0.391428
0.402415
0.464061
0.421478
0.467333
0.399608
0.402151
0.408176
0.426278
0.397039
0.39929
0.392626
0.389814
0.390144
0.393913
0.453033
0.413117
0.412165
0.382882
0.413747
0.436552
0.399074
0.398498
0.380373
0.392369
0.400029
0.412909
0.487025
0.436453
0.575948
0.488769
0.395219
0.431567
0.416917
0.573279
0.399907
0.397453
0.392402
0.395102
0.392569
0.403318
0.392636
0.389261
0.39237
0.406205
0.499048
0.492254
0.396656
0.388059
0.403991
0.403056
0.513455
0.48282
0.476307
0.392455
0.458776
0.389764
0.377061
0.392835
0.395059
0.477808
0.406597
0.409987
0.391977
0.421185
0.49514
0.509433
0.388254
0.394084
0.437753
0.391488
0.388313
0.427965
0.389334
0.433377
0.406522
0.403022
0.391148
0.387325
0.393825
0.388989
0.465719
0.402974
0.383006
0.393691
0.401033
0.39137
0.381351
0.392691
0.38383
0.394398
0.513527
0.400744
0.391895
0.396353
0.442332
0.397345
0.39913
0.39792
0.449952
0.421522
0.421551
0.396001
0.608678
0.492327
0.413319
0.454461
0.433395
0.506979
0.384826
0.382292
0.385254
0.386519
0.410297
0.449301
0.395358
0.438051
0.625032
0.442603
0.391627
0.393731
0.380449
0.390496
0.396618
0.388184
0.424173
0.435642
0.40517
0.569259
0.41685
0.427031
0.410062
0.379893
0.386654
0.390504
0.392347
0.399163
0.397916
0.39053
0.419009
0.397616
0.381492
0.390524
0.381885
0.400407
0.415387
0.448619
0.508838
0.398721
0.387377
0.393919
0.397501
0.40087
0.466005
0.38587
0.396328
0.489159
0.457523
0.462625
0.460605
0.415688
0.41915
0.392573
0.402127
0.389531
0.388574
0.389466
0.393915
0.406276
0.379081
0.396865
0.524917
0.571874
0.412579
0.392718
0.401207
0.378519
0.517996
0.597921
0.434987
0.547299
0.394273
0.390001
0.391419
0.391867
0.406982
0.58088
0.396422
0.389663
0.403552
0.490115
0.392253
0.419075
0.38544
0.39157
0.420107
0.384677
0.397702
0.423354
0.412087
0.589908
0.460352
0.409649
0.474163
0.449642
0.424924
0.433124
0.555806
0.564004
0.419053
0.43955
0.435385
0.406511
0.38732
0.397817
0.388744
0.429799
0.387892
0.393864
0.571476
0.487149
0.425048
0.389615
0.414886
0.385282
0.393381
0.397177
0.396998
0.410838
0.404497
0.430462
0.444514
0.392288
0.403663
0.393335
0.390926
0.385112
0.44322
0.394777
0.389201
0.396047
0.387901
0.388778
0.376186
0.461762
0.391486
0.442014
0.391601
0.391421
0.462661
0.395647
0.426798
0.400516
0.406265
0.411334
0.522755
0.487824
0.436695
0.418035
0.436087
0.589698
0.436446
0.439391
0.406378
0.480149
0.54339
0.41323
0.593099
0.471804
0.469351
0.396931
0.468216
0.416179
0.396591
0.430563
0.404038
0.395772
0.466395
0.387586
0.397349
0.411156
0.351285
0.410604
0.40036
0.397845
0.395833
0.461191
0.497426
0.527527
0.415729
0.39319
0.42033
0.466284
0.415568
0.511716
0.390767
0.394327
0.385495
0.472858
0.445256
0.392491
0.386906
0.442971
0.565378
0.474929
0.394848
0.391446
0.413355
0.483303
0.390479
0.434803
0.610564
0.463663
0.518964
0.408072
0.391942
0.39995
0.438921
0.619273
0.393468
0.44448
0.432021
0.465091
0.387705
0.386826
0.388812
0.395915
0.414122
0.473665
0.412168
0.411525
0.414614
0.38403
0.463512
0.47431
0.510501
0.416315
0.447412
0.377194
0.443925
0.490709
0.475697
0.455471
0.461463
0.408581
0.375138
0.450923
0.448665
0.419984
0.431159
0.398428
0.415495
0.408259
0.38542
0.502018
0.404722
0.516609
0.385035
0.388684
0.414317
0.444762
0.411587
0.488663
0.486951
0.428535
0.399056
0.390291
0.398638
0.492317
0.502716
0.444276
0.391148
0.39308
0.394297
0.408625
0.433326
0.418019
0.501729
0.488078
0.383949
0.395089
0.40912
0.411901
0.394587
0.390176
0.404984
0.390215
0.45817
0.397824
0.427108
0.442679
0.529083
0.398439
0.387797
0.396914
0.396164
0.393087
0.584487
0.47315
0.38197
0.541176
0.393463
0.407684
0.433454
0.48571
0.36654
0.410964
0.433945
0.424149
0.454609
0.395756
0.399158
0.412178
0.471275
0.498833
0.381742
0.470393
0.579734
0.386204
0.389423
0.42106
0.404171
0.443674
0.395795
0.393028
0.561952
0.385407
0.388624
0.388427
0.386126
0.387051
0.397416
0.390776
0.404339
0.386083
0.386606
0.395625
0.386163
0.382484
0.387122
0.386453
0.426086
0.46034
0.389114
0.418601
0.381916
0.392776
0.389776
0.391613
0.480241
0.426557
0.460996
0.439842
0.402444
0.524872
0.404865
0.393122
0.394169
0.399323
0.38938
0.388977
0.392655
0.389686
0.389304
0.385129
0.51734
0.392041
0.386446
0.515706
0.461906
0.432674
0.516355
0.426288
0.394595
0.407296
0.421861
0.46692
0.457725
0.510283
0.463189
0.450861
0.560007
0.611818
0.508987
0.492044
0.424799
0.497186
0.511665
0.483426
0.421566
0.525766
0.606412
0.449809
0.507612
0.463494
0.387729
0.394494
0.460078
0.615185
0.573843
0.547014
0.3903
0.404341
0.41531
0.465944
0.398906
0.393716
0.394861
0.447035
0.421827
0.410174
0.393617
0.39637
0.584981
0.598207
0.577333
0.394412
0.402466
0.401596
0.417905
0.396149
0.429026
0.396462
0.478698
0.487358
0.346096
0.410903
0.550408
0.386789
0.477467
0.451272
0.421964
0.401418
0.486317
0.475952
0.43597
0.386868
0.397663
0.458531
0.435193
0.583246
0.38137
0.414031
0.439447
0.439016
0.411335
0.437292
0.415449
0.506185
0.399228
0.532316
0.574026
0.410394
0.398874
0.384602
0.595026
0.524888
0.473103
0.375543
0.450985
0.470525
0.404939
0.607144
0.574086
0.570699
0.381548
0.393942
0.391777
0.391293
0.389106
0.394952
0.398325
0.384439
0.391285
0.549903
0.56543
0.576044
0.530995
0.563645
0.607099
0.3832
0.379026
0.383136
0.384964
0.485053
0.399284
0.395185
0.398603
0.402135
0.394665
0.410405
0.41151
0.400237
0.400346
0.393581
0.34492
0.385677
0.38212
0.394529
0.38942
0.389927
0.390338
0.390138
0.402156
0.381584
0.436888
0.43777
0.400363
0.383077
0.396474
0.390957
0.386416
0.397165
0.394058
0.387881
0.386925
0.446235
0.430664
0.575912
0.597759
0.512059
0.450999
0.392687
0.411416
0.399428
0.403285
0.39157
0.392705
0.390338
0.380226
0.420133
0.497293
0.406456
0.488937
0.405321
0.391993
0.380147
0.387129
0.395076
0.396873
0.44564
0.3957
0.378842
0.386171
0.385932
0.445336
0.39415
0.389163
0.384416
0.39464
0.400675
0.408149
0.468303
0.400811
0.507636
0.418751
0.401162
0.429017
0.465266
0.439354
0.463882
0.552783
0.418054
0.40385
0.456572
0.452641
0.430252
0.399167
0.425092
0.580334
0.411726
0.431958
0.455629
0.399555
0.411822
0.408486
0.409562
0.440749
0.624493
0.507923
0.484552
0.48039
0.434479
0.427998
0.381359
0.393906
0.405836
0.385605
0.408034
0.392562
0.395235
0.401295
0.399153
0.396879
0.391006
0.395552
0.449917