/*--------------------------------*- C++ -*----------------------------------*\
| =========                 |                                                 |
| \\      /  F ield         | OpenFOAM: The Open Source CFD Toolbox           |
|  \\    /   O peration     | Version:  2506                                  |
|   \\  /    A nd           | Website:  www.openfoam.com                      |
|    \\/     M anipulation  |                                                 |
\*---------------------------------------------------------------------------*/
FoamFile
{
    version     2.0;
    format      ascii;
    arch        "LSB;label=32;scalar=64";
    class       volScalarField;
    location    "0.00481384";
    object      omega;
}
// * * * * * * * * * * * * * * * * * * * * * * * * * * * * * * * * * * * * * //

dimensions      [0 0 -1 0 0 0 0];

internalField   nonuniform List<scalar> 
3926
(
63.118
52.4743
85.8651
150.891
106.009
373.064
602.937
702.607
119.778
653.967
521.559
90.9504
52.2359
154.481
54.4357
54.7336
57.6831
55.1389
103.996
56.7826
86.6016
134.363
130.985
127.817
59.9194
105.855
109.56
171.602
174.376
190.991
207.038
67.6111
148.469
72.3573
60.9703
85.7262
454.785
64.8569
59.2408
53.9975
159.142
753.479
61.5497
55.1683
55.5686
470.284
62.3984
71.9406
549.071
68.4201
86.7889
792.64
178.846
654.137
57.8574
69.3428
491.737
310.621
70.5185
263.871
54.7636
144.699
518.609
66.7978
548.445
377.646
503.435
209.011
154.531
461.725
420.313
51.1822
219.3
54.9161
58.6169
482.542
66.0907
195.622
76.6327
55.8326
96.5223
69.7102
403.837
649.638
78.5407
58.4611
54.2651
130.84
383.874
54.095
55.6052
67.5404
102.483
274.566
63.3683
893.007
62.8035
59.8727
183.218
70.0495
134.996
68.0423
85.7549
70.616
211.065
156.192
69.3095
62.5432
62.4458
59.6162
85.7771
70.5071
62.9238
65.4328
54.3362
191.736
101.188
52.128
494.75
443.301
53.2694
52.768
55.4142
87.4326
67.3669
77.1818
130.756
61.8325
171.055
79.961
71.6055
67.6737
62.1628
64.8946
603.56
581.824
499.705
467.674
609.709
99.7776
80.7909
56.8764
69.637
93.4069
63.3073
133.256
74.128
127.745
67.6724
68.706
80.7249
80.3219
69.3433
105.119
136.187
178.475
71.3555
180.323
114.719
151.907
75.3223
64.1234
66.8713
148.551
282.791
64.2546
59.3096
53.041
63.4759
139.918
930.051
61.4363
55.3194
51.9226
70.9802
71.7936
70.1952
229.367
134.771
65.0077
780.624
63.9051
452.483
76.224
51.2207
75.5049
78.0956
58.8185
89.2135
85.7282
384.124
61.2876
181.125
64.0746
59.603
53.2928
66.3513
59.6956
61.7578
649.944
70.8383
680.012
342.514
63.2071
58.4701
134.288
56.5716
569.483
63.038
55.2745
53.0866
57.6658
82.0043
67.2825
53.1681
124.909
57.8546
86.2853
75.1601
85.9441
63.4076
73.3917
65.1487
200.344
67.4272
379.578
656.253
73.4023
53.5342
62.3243
55.8346
135.451
82.0909
59.3421
82.5486
91.9974
58.5829
115.361
378.361
76.681
337.412
66.4312
180.898
177.503
51.2643
81.0307
557.634
71.6929
52.3913
783.717
468.963
797.194
635.245
133.048
58.8289
449.194
317.233
73.4175
112.051
729.747
565.163
479.178
66.2338
231.527
250.932
63.9168
62.804
73.47
72.2263
428.721
349.988
716.466
59.1556
65.908
65.6764
114.281
55.322
71.8699
55.4153
57.3704
412.854
517.016
63.8767
61.501
70.4018
149.434
168.565
212.082
448.662
140.307
132.668
56.0257
63.5807
170.868
51.2241
92.4922
58.2864
70.0975
70.9719
574.067
791.12
139.237
60.7717
100.154
59.025
131.688
845.966
65.6316
58.3986
489.702
539.497
248.401
160.276
64.5909
76.2291
57.662
63.1635
58.383
133.167
63.4463
90.4153
56.8532
713.716
127.386
131.235
67.3462
189.531
103.097
492.582
58.1881
95.8101
59.0626
52.4878
55.2461
54.5286
54.8837
81.1271
429.796
258.062
418.45
161.603
491.351
70.4136
54.1899
60.8482
78.3081
264.265
144.837
315.09
431.057
389.372
471.947
484.538
493.006
297.855
268.41
298.533
412.77
59.4704
53.8489
65.4667
55.617
64.4505
61.2379
254.367
125.442
80.176
55.7732
225.277
63.0833
105.814
54.444
344.9
57.5792
114.732
64.0223
75.8058
60.8497
187.576
77.6034
55.6046
67.6133
83.5218
97.9158
63.9107
59.305
120.547
65.0083
70.4538
62.5175
442.909
60.5794
525.256
73.5778
73.8299
61.8527
84.1032
50.7886
83.652
58.0992
60.0967
63.4902
60.6266
55.0686
90.5476
94.2797
83.2268
54.5958
56.966
107.526
54.7573
651.856
161.747
95.7594
62.3281
60.1664
76.4877
347.513
59.3787
56.3943
54.8756
88.2539
75.7608
97.9437
67.4901
52.7593
68.1797
54.1792
74.5166
58.8782
75.4823
64.1808
76.6927
67.0896
53.401
53.032
76.7125
52.9752
310.606
53.6086
58.8357
738.684
704.387
67.7814
171.243
618.686
165.142
162.279
56.0577
52.0465
707.989
69.5062
98.7935
474.459
71.6152
141.108
129.146
63.3763
64.816
110.769
98.853
109.782
99.935
62.4278
70.7102
59.1132
56.4662
737.425
66.2199
59.4059
111.825
57.3423
55.0848
53.42
98.853
100.769
69.6506
105.924
56.1167
221.935
155.494
59.166
53.2728
63.1315
51.2252
60.8334
351.627
119.163
97.4567
892.112
74.2332
148.909
531.502
711.996
61.9288
65.0176
67.2611
73.5411
123.757
369.147
88.1508
276.442
75.555
101.308
163.728
322.343
58.3606
85.473
54.8541
93.952
100.351
702
592.608
76.7708
130.646
181.581
594.943
104.845
702.737
210.572
499.235
552.722
124.179
202.722
564.249
82.7279
91.3202
143.978
241.012
100.929
56.9987
57.4697
60.2807
55.2381
200.291
276.771
669.966
721.852
109.386
65.5453
101.562
134.643
516.606
705.549
747.951
186.106
100.905
64.0132
63.5338
63.8295
61.4071
59.7118
187.721
58.9949
53.3404
220.857
99.6956
161.849
204.519
82.6142
73.0509
86.1385
55.2953
57.5148
61.4498
64.3532
441.341
361.252
206.83
653.046
70.7883
62.0854
55.7292
56.19
54.8071
94.9008
93.5581
77.0267
402.694
57.1483
233.415
62.0561
94.1935
62.0808
89.2168
125.428
567.633
59.7817
55.8245
57.8019
193.289
58.4628
293.942
290.771
583.119
54.8224
137.806
563.111
238.418
157.472
120.139
68.1267
73.5901
56.8044
54.1044
55.3561
67.7903
178.956
142.622
311.77
211.793
107.542
171.745
60.6549
56.813
58.6449
52.921
72.2033
53.4855
54.6291
57.7307
121.953
90.6884
61.6231
272.192
168.637
89.3001
58.8038
65.1762
58.4203
57.2046
69.0108
56.4416
58.9427
154.347
56.9604
55.8167
73.5046
77.718
268.736
77.3227
89.7861
61.6567
78.5073
162.983
69.8022
70.5822
87.3736
82.2607
112.499
55.993
80.9512
78.0542
69.7375
55.8671
96.8704
64.2119
59.6767
63.5044
126.101
129.108
56.4962
54.3072
60.7841
82.142
82.2616
73.1167
686.105
81.7235
61.5451
70.9483
53.0653
55.7513
67.1175
66.8923
68.3913
116.585
79.0741
60.2229
95.736
58.7441
59.7232
112.626
353.14
103.456
61.0112
56.4816
56.006
52.9065
50.3658
125.839
79.7878
225.957
79.2013
80.7697
54.7957
55.5879
56.9926
159.699
56.8842
57.9674
65.8049
67.0396
62.1312
58.0539
58.4926
61.7367
76.7826
142.903
89.2572
54.9058
56.5128
54.4371
58.0655
55.2645
61.1618
56.7009
101.003
113.514
99.2938
68.2255
63.8975
55.6753
58.7575
54.1056
53.4478
50.6802
55.4954
52.1876
74.6275
57.9287
62.4857
83.5687
64.5869
53.8069
76.2288
64.7317
80.5135
71.878
56.8588
57.6755
78.0033
203.487
69.2394
61.4807
60.013
57.8137
56.5052
58.3322
51.731
53.9111
52.7314
52.6706
53.0558
60.5633
62.5501
377.221
84.3914
152.353
59.9427
439.489
56.85
59.7889
66.6584
170
71.8958
240.346
209.521
69.332
628.299
56.0232
343.495
487.316
90.7406
56.6846
105.667
154.604
55.5115
52.063
74.4974
53.0706
287.221
85.6847
77.2318
53.063
55.3289
59.6686
61.655
115.586
56.6992
55.5291
52.09
54.8298
139.129
71.5915
62.4216
57.9059
54.6886
61.1219
77.4565
271.9
62.0145
196.853
65.4814
78.2009
857.808
508.398
75.6645
60.8088
73.3567
55.956
82.8947
59.2111
54.441
85.3082
56.7216
52.5381
57.8743
61.2541
59.4279
207.874
132.634
733.695
104.904
83.4963
62.9976
65.2111
898.168
97.3961
489.768
52.6966
52.0709
436.369
442.608
193.277
83.0341
51.9551
62.3198
52.5647
686.01
58.0527
50.9853
142.078
61.3503
58.0451
109.83
137.088
68.9667
64.1148
72.8834
55.9176
763.617
67.5269
57.7083
766.379
202.725
59.546
220.504
458.541
57.6271
584.759
56.5994
57.1915
64.2911
133.201
63.1308
72.222
57.0309
765.841
544.311
645.539
89.4667
265.461
96.3025
55.8236
73.6861
61.1151
59.9974
159.682
136.924
237.294
59.7256
58.4235
90.2968
62.8728
101.596
162.253
70.8198
74.9372
79.1025
88.4949
59.9632
62.1697
56.5543
166.379
51.4499
259.594
60.3348
57.3645
66.2986
256.817
547.642
136.385
71.9138
71.9795
53.7042
59.3137
56.4447
777.7
97.3762
75.7378
937.482
52.6679
65.6147
53.7363
80.8606
497.596
154.026
295.096
97.8721
98.8373
55.0263
64.5553
132.314
58.5694
58.9887
313.047
129.191
198.967
103.345
104.422
81.7118
818.047
282.641
64.4722
59.0207
110.145
55.0779
421.322
676.893
76.3122
53.2599
53.5684
53.4859
55.4162
69.2473
61.7094
69.0102
87.1599
595.656
294.566
110.376
56.6506
79.8873
577.03
255.905
564.86
327.411
68.3046
58.7717
79.1602
128.755
323.967
78.1155
65.459
94.918
73.9088
233.821
60.9403
480.03
507.498
84.8358
99.7329
57.0169
75.2958
87.3525
132.085
66.7456
61.8822
68.9407
62.1625
58.7704
64.6401
58.3022
132.542
64.3366
55.2693
56.4742
77.0739
492.116
85.4536
370.737
555.074
495.997
289.189
112.119
58.9906
54.7699
66.9401
111.072
128.524
53.3485
507.813
172.153
74.7402
66.0337
66.271
60.9398
625.517
69.3378
56.847
61.544
104.664
58.8565
68.5914
62.4654
72.5575
54.7349
54.4547
65.2635
539.363
91.7576
73.6965
613.822
674.2
73.63
61.4148
87.3428
61.9606
59.8465
54.3356
53.26
81.3026
57.3774
67.5769
161.844
62.9967
648.517
100.32
71.7391
58.5313
463.91
57.8648
64.4706
77.2282
446.12
56.0132
83.5959
57.0867
638.761
66.1767
81.5774
65.0622
470.626
158.425
246.998
60.6115
206.184
265.704
148.915
54.0001
138.835
235.344
701.635
52.4538
54.0757
51.4929
60.1667
55.2131
716.171
58.1578
52.643
133.026
71.0785
576.973
101.805
53.9756
59.1753
183.844
81.4226
81.2574
56.5229
53.2346
53.8306
54.9736
54.4034
52.7036
56.5093
54.7242
55.5059
63.5771
110.463
67.5525
54.0847
54.3524
54.6891
52.6191
128.104
58.9965
59.0348
53.704
53.6612
54.3966
60.6654
711.085
347.057
65.5734
408.024
68.5619
56.5125
57.1159
56.9851
60.8899
67.864
424.58
439.171
770.903
63.9929
58.9994
186.477
232.673
63.8179
69.6603
131.097
67.1337
318.69
123.129
68.2804
62.4542
59.5803
298.15
156.557
104.223
124.901
56.8592
121.218
82.5081
66.0306
330.499
235.383
56.9665
804.649
313.769
167.883
193.958
275.376
63.9134
480.986
86.0999
56.6872
177.793
115.739
330.176
122.605
127.405
123.969
173.68
212.568
138.877
54.0695
727.5
59.8059
116.991
104.164
61.2587
56.3364
754.981
726.265
266.273
457.948
485.513
71.4866
215.384
817.743
131.993
547.403
745.769
172.892
149.539
98.8119
63.4685
60.7747
65.1547
56.4281
241.834
699.546
568.852
752.472
540.136
781.498
218.626
691.207
64.4163
61.9768
54.9856
55.9325
54.6523
79.9914
150.459
136.408
106.528
221.318
78.6637
56.8229
426.586
330.503
483.46
203.483
134.501
63.205
781.525
766.389
857.803
56.1168
82.8676
53.0389
101.901
78.8696
286.918
76.6261
76.0329
84.653
126.101
600.961
691.232
495.27
797.538
613.156
735.238
750.964
784.764
183.26
80.5441
120.604
57.922
61.946
50.474
55.5295
56.294
66.8328
58.5766
54.8858
57.2392
54.9568
117.605
57.9886
59.5365
52.6605
55.351
207.684
57.3881
95.5931
66.6786
78.2427
58.5967
83.9336
71.8131
83.1475
64.3967
63.7068
203.159
100.295
175.309
196.541
54.7347
61.4368
60.8171
54.5773
67.5881
72.2806
54.2762
52.8837
91.9332
237.596
56.3882
143.042
68.4446
75.8429
84.4656
69.3725
304.511
66.8688
76.0751
77.3343
61.9781
62.1875
83.7596
60.4317
258.512
139.41
53.7091
62.8551
78.2564
106.051
798.155
158.111
58.6402
137.52
112.316
150.681
388.556
180.751
103.493
162.626
147.056
620.704
66.1862
66.9275
84.6556
56.3981
121.256
61.2892
72.5597
53.7705
56.462
50.2509
57.9349
90.0199
95.5211
58.4149
55.7565
53.2924
97.9552
70.1444
91.6801
53.2565
61.9043
100.462
84.9967
890.581
133.713
135.108
843.328
499.791
310.306
82.0495
72.428
66.7079
57.2805
57.2566
62.3611
58.2236
243.276
58.137
150.277
577.62
96.2739
410.928
102.165
57.6081
69.7267
56.2754
52.4326
64.1217
67.2872
63.1817
61.7626
59.466
73.7802
57.9385
96.3015
113.944
805.885
69.1445
60.6797
69.7651
50.9809
54.8216
55.5174
70.722
73.0833
178.761
61.8127
60.1301
114.983
81.8408
53.1959
65.5523
53.4786
333.339
144.27
66.4
65.1426
54.5579
59.189
290.572
58.9421
97.7011
438.532
63.0414
187.584
304.224
66.1973
62.6551
54.2984
51.368
621.203
63.2506
53.9019
50.936
60.4234
62.3112
69.2034
50.9462
57.7311
54.0086
142.316
236.657
791.829
76.4948
158.332
78.8429
789.119
61.7742
54.6033
72.6008
67.8143
54.7708
56.7376
56.8809
63.935
54.7267
60.5888
197.942
87.4936
128.206
90.5344
161.214
171.419
65.8661
59.1535
311.327
90.6172
61.5053
57.7237
750.39
790.2
135.616
90.5182
82.8196
230.286
88.4645
171.062
124.689
79.6602
71.5988
168.676
59.6637
118.544
51.1212
202.728
99.9507
100.092
291.274
487.535
73.1339
68.4391
72.4962
211.699
97.2735
60.7267
472.996
467.11
120.503
64.7209
56.1455
58.08
75.3405
53.6423
60.8973
95.3506
59.6853
325.428
334.581
57.4999
88.0849
99.2096
89.1875
282.058
57.7473
640.567
738.329
53.2478
76.0451
56.5376
57.9169
246.845
62.5443
244.024
59.8638
69.1621
432.945
55.2437
105.645
211.673
73.5215
77.6392
72.5215
100.481
55.8682
59.9743
137.36
65.2994
54.8579
112.414
56.6288
62.234
178.09
189.535
665.605
550.637
83.2142
82.6465
55.3503
55.3436
68.7386
71.778
62.9615
56.1746
79.2162
58.894
55.5899
58.0894
65.0304
82.9571
57.5065
67.0157
56.2194
59.0633
81.8559
57.1326
295.505
62.241
58.9148
61.9368
60.2754
58.2328
57.376
100.469
135.725
143.068
140.738
148.528
212.738
73.0993
61.1388
59.8952
57.8685
499.348
61.4106
57.9156
85.275
54.1832
558.799
123.932
68.9145
69.6386
68.1432
288.457
65.478
53.9587
80.3278
67.7652
551.186
67.7942
67.5477
157.051
58.7281
130.373
58.696
138.828
119.552
135.994
54.5103
320.869
68.8964
530.853
59.8512
566.899
242.605
113.901
58.8697
73.856
93.0407
102.402
288.836
627.231
242.274
61.6489
135.311
418.593
73.1606
202.894
184.971
155.09
527.389
66.2654
54.6826
55.481
54.845
464.527
376.509
84.5556
131.815
761.645
78.6841
91.8074
72.4936
75.8109
148.574
56.6878
144.202
90.5995
55.9906
56.6253
56.5284
62.5534
56.2074
54.5887
90.3596
152.408
278.607
221.107
221.732
362.954
140.48
133.449
163.025
159.052
167.445
152.423
131.039
53.489
57.6245
91.9511
57.7878
55.8396
64.4036
504.641
166.965
746.532
58.0385
733.169
181.67
663.357
699.374
74.6998
707.357
542.829
199.663
737.774
725.043
431.841
123.212
629.172
64.4536
291.084
54.5872
208.92
191.031
138.894
121.294
219.269
434.904
93.4629
132.134
146.63
376.193
388.541
163.129
690.203
93.1043
179.786
81.9418
439.945
259.034
64.2617
60.1632
246.711
80.0856
127.068
187.425
89.6394
577.093
557.896
257.994
161.42
343.854
202.82
57.0548
763.317
63.7929
585.494
659.613
90.9858
728.186
86.659
449.076
134.537
79.3233
87.1933
61.9721
57.2209
65.3992
67.8617
136.557
503.65
151.532
68.892
572.692
589.55
766.963
206.399
59.8141
784.366
782.888
489.521
807.005
55.0586
608.511
718.733
629.199
60.2282
53.0557
359.556
67.4331
81.6872
358.104
319.112
64.505
51.7042
80.4322
58.8714
57.6857
77.3358
65.4871
68.897
56.1943
59.7551
60.0709
153.69
825.97
86.5477
111.727
150.983
78.3735
68.1483
56.2588
68.8742
72.0032
77.272
80.534
86.0796
72.3321
67.069
76.6015
67.3361
52.2548
211.006
56.2963
54.8018
76.0875
839.679
62.8253
74.833
66.4353
67.2433
263.722
210.748
62.8486
487.034
52.0342
53.5005
104.396
210.055
805.264
256.55
399.365
708.423
363.79
320.081
567.61
59.0281
265.558
286.89
271.676
68.7709
553.82
55.1952
55.3554
109.543
58.3164
56.0849
68.7245
126.681
59.1148
67.9878
55.5632
109.094
131.634
629.571
141.134
145.465
138.152
151.897
145.854
228.007
116.062
105.726
778.788
57.8649
121.838
320.831
58.1613
56.2807
76.3838
105.06
82.9283
61.8599
255.199
70.5031
66.6607
517.594
71.628
206.943
141.187
62.1273
70.152
73.9672
58.1439
97.7871
454.697
57.0169
62.3487
56.3807
57.3537
54.1439
55.2271
55.0589
50.5587
73.7011
57.0446
64.2622
62.1084
57.1249
59.2178
62.3872
57.2005
826.697
81.0628
69.4242
213.481
67.1152
60.1695
73.5224
219.442
65.6527
73.347
54.8339
57.5064
85.5624
57.5265
51.697
55.6903
50.6926
51.9679
157.154
203.043
76.437
62.9239
486.397
63.9218
86.04
93.8861
192.781
131.423
101.73
137.796
805.35
769.856
596.252
670.113
476.517
126.113
66.3022
54.531
62.6463
254.571
77.8397
231.693
56.4888
58.6199
72.5192
97.4983
54.6324
58.1807
451.139
61.0703
76.9334
429.055
64.5821
68.9066
64.3887
65.4261
83.9641
71.2435
682.834
59.4398
124.874
91.8373
60.5199
55.2017
57.31
51.0463
111.634
76.4043
57.6121
54.4081
65.7269
53.8092
83.9438
65.093
63.3032
135.06
69.5785
80.6599
62.3557
59.9779
646.904
154.797
149.612
142.301
940.882
69.8572
58.5638
79.0619
62.6613
781.891
63.9353
58.2808
67.3929
58.3739
120.39
486.375
71.6145
66.2925
93.4433
64.3774
60.6371
708.398
53.3622
60.4363
57.2251
57.4122
321.942
76.909
524.551
103.598
60.7428
57.1995
57.8496
70.4245
95.3403
191.865
607.213
391.327
55.6825
60.4389
70.5119
522.765
131.024
123.696
175.377
135.543
796.025
775.321
64.6575
972.319
811.561
774.051
521.174
54.6039
92.0045
69.1343
52.4804
56.7726
59.1908
114.152
68.3229
350.386
62.1514
610.372
190.365
53.4922
61.503
60.2869
58.7033
67.7422
61.2822
184.946
590.92
184.602
730.382
775.321
67.116
91.6584
66.616
59.3264
155.65
667.392
287.409
61.3999
55.1395
53.7709
55.1159
56.3896
56.7776
53.4004
64.0685
54.9266
68.6891
82.6643
69.9653
64.0453
63.721
73.5521
117.129
233.304
670.604
715.404
70.0898
166.475
77.317
563.465
88.5799
183.872
57.3206
112.69
515.157
65.5201
69.0689
69.4433
57.9844
62.3525
732.361
706.988
73.0305
312.609
504.938
642.381
733.615
82.1472
90.6039
103.642
53.938
79.1256
57.084
54.4301
478.812
55.6948
85.8869
63.1084
60.1148
93.1816
288.631
702.567
124.485
356.851
325.209
234.685
261.996
64.4924
57.7906
78.5412
56.047
487.36
87.6081
196.786
62.4021
66.4166
53.0343
66.1185
96.0051
90.5226
63.476
54.2197
54.3143
60.1096
67.5129
129.966
127.729
68.7836
687.072
187.845
632.657
115.914
302.725
87.7886
53.5785
55.8572
68.209
53.3711
50.5795
63.204
60.8701
74.6301
57.2469
52.1588
62.3347
645.741
110.958
61.0318
565.326
230.924
131.647
164.488
80.2393
212.147
165.108
435.734
56.6353
130.581
314.393
296.132
125.573
780.89
70.1046
272.494
53.0405
56.5909
71.6431
57.6559
56.7911
60.6032
136.052
52.7543
128.888
56.5457
286.92
113.996
686.797
131.12
78.4119
86.9025
129.079
60.2906
81.7898
151.782
121.681
53.1583
137.647
60.0429
59.6039
66.7314
109.744
54.4319
100.012
55.7723
81.1741
145.387
93.7614
55.8183
54.6874
54.1006
59.8336
55.0334
53.8707
128.332
100.161
302.769
214.634
491.998
579.43
79.0384
73.2585
86.294
771.395
84.0395
380.35
663.562
122.678
54.659
94.9808
207.521
422.683
54.1053
95.8557
59.2332
65.6035
69.4666
124.316
116.121
85.8144
124.137
73.5621
66.7118
72.6174
78.4513
87.1024
76.9503
468.679
207.238
137.875
248.95
190.208
130.863
152.71
147.16
122.812
55.8953
61.618
60.2099
63.5541
58.4033
145.586
75.3124
64.5399
56.1643
62.1493
57.5225
74.5883
52.3946
54.0453
75.0573
63.0603
585.942
63.589
52.5152
52.9435
320.857
495.596
192.78
218.152
61.186
58.3825
58.9382
60.0228
64.2948
58.9535
62.2323
718.155
339.656
141.989
84.3803
272.876
58.2585
611.233
62.9944
700.422
124.498
229.975
359.88
903.418
928.524
532.58
471.264
252.852
89.1584
84.0449
680.058
71.1119
73.2636
54.2338
176.227
57.6818
57.279
56.2731
58.1123
63.3684
158.846
703.259
81.6494
67.7746
58.3995
53.3579
53.467
151.56
129.096
85.9176
154.113
60.6332
54.907
63.5106
79.7927
78.2428
484.838
125.616
332.243
132.971
547.632
243.476
489.722
649.913
639.377
595.908
585.019
651.76
444.636
216.182
544.919
132.414
172.806
64.9169
321.027
60.1311
58.2016
57.4555
69.4593
62.369
156.531
54.8138
78.4189
139.914
127.778
105.479
129.122
625.37
61.4267
372.682
373.685
64.6503
263.172
83.7087
612.454
617.987
56.3939
56.7846
58.7865
57.543
57.1193
57.2722
58.1955
75.8877
103.301
354.945
770.872
137.108
178.492
69.0346
63.1362
59.5315
650.511
194.06
59.7468
60.7192
57.1852
669.482
63.6874
66.9654
60.5336
400.187
178.243
130.389
65.3981
59.9641
64.4516
60.961
90.6674
646.201
91.5035
200.498
634.884
149.262
78.2656
85.5979
490.174
83.0756
110.439
52.666
53.7158
59.4161
84.2386
75.4135
60.5128
60.9279
162.79
165.196
340.419
403.322
190.89
199.502
120.005
89.0897
79.8776
86.3362
68.2095
80.7291
65.1326
64.9653
78.6692
66.2383
82.8702
99.6627
57.7565
53.145
69.4508
53.4203
52.4151
62.2209
58.6036
59.6337
53.1713
54.0247
77.739
79.4016
126.164
64.3669
62.6226
61.5077
62.1361
64.3893
63.1447
65.8727
55.675
109.025
79.275
67.9241
221.466
65.8855
255.91
70.6751
55.6348
55.8685
54.9186
71.2636
523.062
52.939
275.611
127.351
57.5871
57.6315
50.5631
58.6312
66.1503
53.4911
56.883
80.7337
59.8286
59.9287
75.0193
64.8089
60.2325
116.318
460.284
70.3177
74.0933
73.1778
66.2576
107.616
181.435
155.509
77.2884
137.793
72.2173
122.497
211.4
55.7348
57.9109
57.7439
51.5781
54.6826
267.332
59.5159
57.4241
59.8459
993.534
642.304
215.315
597.291
86.9161
539.165
731.546
130.38
319.973
55.7807
67.5692
101.969
107.926
135.206
70.0485
67.1268
59.9118
67.9647
69.9353
201.065
56.5353
62.9584
64.3622
80.5034
257.124
64.2779
62.8247
73.2119
59.0138
55.7274
94.413
62.9132
53.9887
55.4737
53.7644
49.9438
53.1125
54.9345
70.0401
65.8337
52.4731
55.1873
51.3795
52.2285
82.2622
58.0092
53.604
57.4238
55.374
58.8125
64.1418
60.1967
166.425
68.5607
74.3549
60.0332
60.9671
64.0664
60.3095
60.4279
52.7277
56.8821
56.8885
137.554
57.3531
124.432
143.691
53.9487
70.1647
54.9801
59.5309
57.849
54.7852
61.1828
64.2879
59.3915
61.7468
62.0009
55.4604
54.3335
55.8141
55.2665
55.1285
58.9253
56.2823
55.7031
58.2222
57.8567
203.632
54.7753
56.8449
130.952
105.456
111.935
227.531
59.6321
60.4835
59.5393
55.4869
57.9489
102.042
56.2313
56.5809
59.9931
59.8317
92.7525
57.4576
90.3383
54.9537
56.5849
66.788
133.654
78.5149
142.496
62.7544
66.6586
67.9433
85.0166
64.9908
58.7586
55.7284
54.7813
55.2271
57.4489
116.884
70.5543
71.1322
54.7272
71.5123
96.8324
57.3134
59.0672
51.5652
56.8606
65.332
73.7293
237.242
103.73
688.218
187.566
58.6703
97.0261
76.6471
603.319
66.9734
55.5715
54.2437
57.768
56.4591
64.0655
55.5557
55.5152
55.4968
65.9696
333.868
180.463
59.2117
52.4065
62.4477
62.6287
283.373
180.391
160.708
60.7994
131.46
58.1675
101.195
75.1803
225.627
223.404
71.6758
72.3776
60.3356
78.3188
285.096
239.479
58.5173
61.4565
434.955
56.1745
56.1658
88.8128
56.0918
95.0549
66.174
62.9798
57.1635
134.458
58.6776
72.407
165.331
65.9624
52.5904
56.0356
61.2724
54.6974
74.8197
53.4614
52.6093
56.8202
261.024
62.4017
55.8649
65.7107
102.756
63.1356
60.3067
60.2165
117.27
81.363
84.6203
64.2763
668.898
196.385
75.8497
188.563
103.002
316.194
52.7086
62.3686
142.78
57.183
69.9115
113.635
60.3112
97.5316
864.751
112.288
52.2376
59.9402
88.6625
55.2401
57.8651
53.1643
82.1586
95.6472
65.2354
974.665
76.1921
90.1095
68.9342
74.5164
89.42
58.7598
62.2014
67.6878
64.4132
59.856
82.7557
61.6526
107.219
59.6866
175.194
64.9523
75.7112
109.137
240.384
60.1649
53.4175
53.8846
58.5714
62.8568
160.365
53.5617
59.2899
299.053
122.369
136.708
187.741
77.5152
82.0439
63.2797
62.3161
55.4703
55.5491
54.7142
58.4905
58.0435
91.7662
65.7981
505.65
731.8
72.7486
60.6951
64.5489
109.407
359.684
598.196
101.218
509.434
65.8814
59.7012
63.0382
63.3212
70.0967
724.066
63.6868
58.9103
135.812
304.073
56.0787
77.4128
53.3713
54.8578
77.0414
52.8712
55.0476
80.2055
71.5346
590.394
173.026
68.5469
152.605
109.93
81.0079
92.0795
426.155
461.764
78.5859
106.749
99.3744
65.98
53.9969
57.0542
54.4237
86.0013
55.6269
58.6151
690.018
172.779
85.6462
61.0124
73.0479
110.555
61.9406
61.598
61.213
60.502
65.3857
110.86
114.49
63.2844
64.3539
57.2871
57.2388
53.1628
483.094
64.3042
58.0443
61.2664
56.597
61.9372
170.677
143.618
61.1251
104.842
57.0756
59.2333
131.426
60.2316
85.4337
64.3042
67.3531
71.5052
353.977
174.886
100.869
76.7867
96.1238
723.765
618.404
102.455
66.6393
174.125
436.215
73.5346
686.458
152.668
191.701
59.3343
142.676
77.8841
61.5131
91.0063
70.344
60.1753
154.92
54.9531
58.89
68.1754
426.103
69.7219
61.4813
59.1624
57.2099
133.177
253.926
479.799
75.3603
62.7139
98.6083
140.458
75.4702
232.787
57.9446
57.7067
53.5726
159.17
108.304
59.7054
53.7315
105.823
436.569
157.463
57.2122
55.9281
71.4493
176.37
57.2717
97.2836
641.954
386.73
641.664
68.0023
67.7161
67.6337
102.58
712.409
61.379
108.393
92.4728
139.795
53.4985
53.2384
53.4042
61.113
72.4936
181.591
73.4205
74.9692
74.1209
68.0794
131.419
345.804
239.478
73.7876
109.81
550.589
106.47
184.7
164.671
123.666
127.981
67.9825
497.194
109.801
112.892
82.0499
355.318
59.6992
74.7443
68.2035
54.821
341.502
66.5031
379.919
54.0837
58.4503
73.2914
108.132
68.6423
180.467
172.504
84.8397
61.5809
56.7404
64.0708
182.902
519.754
421.924
55.23
113.589
57.254
69.1102
122.989
77.7004
273.85
443.318
51.7112
258.648
67.5275
70.1701
57.8225
55.6454
63.7616
77.7956
215.694
64.2082
118.993
102.65
354.788
64.6562
65.7265
63.1853
63.0145
57.9733
572.249
172.643
52.0088
362.309
52.8848
69.8643
97.5211
176.777
511.551
69.4936
92.3
97.4056
115.6
63.2928
63.3064
69.3856
148.705
723.338
107.817
199.941
831.028
56.5241
59.0796
79.9388
67.4614
682.696
57.1622
57.2781
512.288
98.2304
537.37
55.5247
54.3958
55.128
61.1553
56.7615
65.9416
54.7591
79.8613
62.3252
54.0738
53.4958
55.0356
53.5318
103.498
539.166
55.266
616.363
138.588
70.8032
70.3868
61.1048
184.458
88.039
146.193
123.855
64.645
269.564
64.6523
55.3071
56.6115
57.4718
182.935
59.2974
124.332
218.073
59.2905
56.7272
649.879
57.3976
54.1248
671.14
756.269
110.601
338.903
192.705
112.287
313.118
96.6989
223.171
125.507
240.571
131.399
118.133
746.973
683.343
547.324
189.497
83.7032
732.794
216.97
162.741
80.0536
271.4
626.238
115.633
233.843
136.462
58.6542
67.4856
128.128
775.873
604.866
698.321
61.1199
66.1509
219.517
226.022
232.853
58.4598
58.5288
765.969
618.613
70.9122
57.3723
58.2332
678.111
739.042
854.268
56.6814
60.7264
62.1127
75.3388
57.4803
88.0004
58.4687
272.132
228.301
625.768
738.293
513.436
574.398
358.047
112.725
80.4873
63.2277
170.256
153.509
94.6438
54.744
59.9303
129.427
94.3944
518.108
50.4604
72.4894
103.932
97.6506
69.1799
96.1641
74.0546
242.718
63.607
479.583
504.435
69.5432
58.1668
71.8176
748.991
531.059
339.365
60.5879
444.969
526.534
60.6541
751.798
674.661
706.528
76.0806
57.5339
58.2986
54.8026
57.1574
56.8041
61.4716
52.7981
53.1531
455.61
478.339
533.131
377.81
461.944
696.538
51.7903
50.7828
53.0251
52.3695
646.731
59.6213
58.2194
61.3115
65.2913
58.8885
70.1707
71.6456
62.5607
63.9926
55.9378
492.007
52.6209
51.4855
62.2994
54.769
57.6788
67.6603
55.3527
58.1741
521.421
95.6957
100.192
60.364
52.3485
59.7008
183.295
75.9996
217.612
202.304
52.9313
51.9726
111.914
90.8715
613.039
711.9
400.191
533.922
192.488
80.4681
65.7127
65.7162
55.5001
55.1264
55.4697
65.1617
77.8325
214.92
68.3003
186.972
68.3968
54.4358
57.5099
53.3583
55.4657
59.171
109.291
55.5317
51.4672
127.707
53.9986
109.044
57.4433
53.347
53.8546
59.0816
63.7064
67.082
279.451
63.2002
271.979
76.6611
61.5885
86.9599
138.807
98.9219
137.979
671.835
84.1331
65.3964
135.449
151.517
91.5248
62.6268
102.939
708.331
75.0289
100.515
337.762
63.2112
80.0911
74.1807
81.1445
513.125
820.802
294.141
373.561
748.332
105.419
89.8348
118.222
62.4865
67.6089
54.5897
69.5589
59.8966
60.4999
64.2444
66.7261
64.1357
63.9558
64.8996
125.703
77.3979
107.257
168.79
55.2599
55.0934
52.8874
55.0702
62.6802
58.8527
57.3151
55.7572
118.901
72.5223
60.6361
66.9038
77.3296
55.7179
55.0304
59.3917
59.174
54.0929
133.36
118.904
355.602
193.826
429.795
344.02
63.3967
320.55
79.9821
59.3463
52.072
534.987
277.379
62.932
191.666
70.9176
64.6579
56.3793
56.0038
109.284
83.0599
107.101
94.8041
58.8268
54.5878
56.7476
232.172
89.6932
54.1201
55.9242
53.4975
772.026
96.8408
163.028
54.0064
79.645
156.82
106.68
97.6624
78.2599
72.2335
61.3872
496.483
74.2746
61.8718
56.912
63.1462
632.286
202.924
647.078
368.673
258.563
55.1892
68.3206
59.0665
51.5495
108.113
250.007
54.9905
208.935
95.9535
82.084
414.121
54.3098
53.0794
55.6009
81.5415
89.3287
138.699
420.874
87.9769
58.465
200.833
79.0403
61.1305
723.93
110.568
63.1827
75.2067
72.9197
401.508
366
181.122
352.306
106.596
139.772
150.498
51.5593
52.2191
53.1921
54.0701
60.1701
54.5997
58.0515
108.384
272.237
643.101
109.643
120.666
159.306
552.649
575.343
57.7314
70.8114
54.4192
699.614
78.8542
793.994
55.9312
58.3383
57.2927
69.2074
827.611
86.1744
70.7947
169.178
69.6806
79.2452
109.926
601.165
235.437
90.4993
55.6504
79.7977
58.3674
70.1535
100.786
95.6147
63.831
119.637
59.2577
75.0186
92.8249
69.1278
68.0745
226.29
95.1902
94.8243
313.12
59.3144
75.6574
63.6129
71.3954
69.6526
74.6608
62.9477
54.3361
61.5491
63.1006
55.55
52.8609
59.332
60.7335
69.8238
94.3895
113.957
67.3815
138.032
336.327
51.8082
53.3886
126.675
53.5619
96.2403
465.786
720.538
173.341
51.6653
65.6762
65.6744
56.3461
56.0706
54.5493
60.2311
52.7289
57.2409
154.556
56.6474
54.2037
101.436
775.377
66.7493
311.889
132.439
92.58
104.833
87.384
204.145
69.1762
146.883
523.852
107.802
84.1123
175.81
416.787
589.385
52.8316
313.11
106.673
114.537
260.028
105.079
267.446
403.602
87.11
452.436
61.9286
57.2313
64.6025
65.3597
70.9908
71.0804
97.3361
71.6522
58.4965
53.6576
57.9532
260.28
124.452
258.003
59.2804
384.549
291.207
79.5927
78.5692
313.356
134.276
80.8229
60.3934
65.9734
87.0159
68.2241
124.27
102.137
74.8428
103.025
102.43
58.0886
58.497
56.007
56.9674
56.3939
107.526
53.3133
135.971
55.2401
50.3062
66.4676
59.2956
60.4816
75.865
61.9756
73.57
54.1026
52.7229
56.8902
63.9932
63.9387
69.3587
61.2177
58.8948
80.3092
91.7126
88.4078
76.7895
55.9876
54.4139
53.6359
65.3391
61.9593
61.9147
60.5262
66.5772
65.4964
62.2766
94.4951
65.2404
79.6254
64.9724
83.6886
64.5382
76.6317
81.4421
56.9779
105.097
66.062
62.385
53.4849
116.719
54.8763
55.9501
73.5748
79.2003
134.749
131.492
63.1959
59.9861
59.3931
56.8321
58.709
141.665
91.4817
95.0502
207.937
172.204
90.7069
169.76
85.3939
85.9024
135.661
66.5729
60.542
79.2265
84.5916
74.929
79.707
132.72
141.73
136.185
430.79
140.05
238.708
312.985
179.915
249.36
60.3085
62.6062
58.0583
451.438
140.387
121.59
140.589
112.784
137.922
111.947
60.4041
63.9105
67.0727
67.8376
101.707
69.5809
55.0966
59.5234
75.7042
69.2196
65.3289
75.0832
89.6713
92.4211
62.2733
55.9678
58.407
54.3198
111.49
103.646
56.158
90.9466
73.4057
101.203
69.9121
53.9063
74.6785
60.2342
141.831
184.183
176.114
89.5956
190.708
115.628
196.281
167.265
228.888
190.357
386.831
495.558
76.9449
569.644
387.832
71.5847
611.841
954.492
603.072
618.975
129.406
180.055
266.497
63.2111
83.6969
71.3666
190.122
64.4631
385.85
818.088