/*--------------------------------*- C++ -*----------------------------------*\
| =========                 |                                                 |
| \\      /  F ield         | OpenFOAM: The Open Source CFD Toolbox           |
|  \\    /   O peration     | Version:  2506                                  |
|   \\  /    A nd           | Website:  www.openfoam.com                      |
|    \\/     M anipulation  |                                                 |
\*---------------------------------------------------------------------------*/
FoamFile
{
    version     2.0;
    format      ascii;
    arch        "LSB;label=32;scalar=64";
    class       surfaceScalarField;
    location    "0.00481384";
    object      phi;
}
// * * * * * * * * * * * * * * * * * * * * * * * * * * * * * * * * * * * * * //

dimensions      [0 3 -1 0 0 0 0];

oriented        oriented;

internalField   nonuniform List<scalar> 
7488
(
0.0125094
0.0073444
0.0132155
-0.0330693
0.00136048
-0.0129123
0.00241832
0.00913349
-0.00227501
0.0033951
-0.000411448
-0.000708644
-0.00172015
-0.000813746
0.00139439
0.00113951
0.00219755
0.00202822
-0.00119983
-0.00302594
0.000952238
0.000640469
-0.000726995
-0.000865712
0.0037747
-0.00179198
-0.000667168
-0.00131555
0.00179515
-0.000576346
-0.0012188
0.00889039
-0.0016811
-0.00298007
-0.00422923
-8.35845e-05
-0.00138941
0.00147299
0.00542996
-0.00420213
-0.00111174
-0.0223043
0.0242845
-0.0587605
0.00855377
-0.0411358
-0.00875688
0.0413389
0.0381897
-0.0102065
-0.0279831
0.0076568
-0.00595255
0.000274866
-0.00197911
-0.0156984
0.00123847
-0.00268133
0.0171413
-0.00136481
0.0149545
-0.0087377
-0.00485201
0.00208626
0.00876358
-0.0124727
0.00162288
-6.92332e-05
0.000205466
-0.00154056
0.00140433
0.0466358
-0.0206755
0.0437935
-0.0697538
-0.0036074
0.00310764
-6.53495e-07
8.07974e-05
-0.000841577
-0.000196494
0.000957274
-0.00175618
0.000276654
0.00161417
-0.000134639
0.0317844
-0.0114633
0.0178686
0.00143645
0.00209938
-0.0012705
-0.00226532
-2.02193e-05
-0.00183176
0.00181096
4.10218e-05
1.26629e-05
-0.00178906
0.00190738
-0.00158555
-4.51771e-05
0.000490433
0.0011085
0.00030845
0.0190513
0.0127332
0.0287538
-0.0261313
-0.0026225
-0.00291707
-0.000284107
0.000256357
0.00294482
0.0097268
0.0459888
-0.0269618
-0.0305293
0.0106644
-0.00855055
0.0284155
0.0107956
-0.00377116
-0.012316
0.00529151
-0.0117244
-0.00907807
0.00448524
-0.00299742
-0.00148782
-0.000276293
-0.00376506
0.00195451
0.00433173
-0.00686987
-0.00511233
0.00765046
0.000725018
0.00349199
0.0198538
-0.0240708
0.002205
-0.000240571
-0.000817147
-0.00141711
0.00307807
0.000841102
-0.00250206
0.000669691
-0.00749057
0.000423796
0.00639708
0.00985398
0.00987552
-0.017247
-0.00248255
0.00768384
-0.00233329
-0.0109426
0.00559208
0.00135205
-0.000989586
-0.00341104
0.00304858
-0.00329232
0.00473772
0.0033361
-0.00478149
-0.0051427
0.00527515
-0.00203978
0.00190732
-6.03357e-06
-0.000370895
-0.000726106
0.00110304
0.00102037
0.00214838
0.00112004
-0.00428879
0.00116838
0.00313417
-0.000439513
-0.00386303
0.000786443
-0.00168972
0.00123496
-0.000331684
0.000226634
0.000205502
3.75572e-05
-0.000469694
0.00302983
0.00175929
-0.00101443
0.00749141
-0.000910383
-0.00299876
-0.00358227
0.00216207
-0.00163523
-0.0047621
0.00423526
-0.00111406
0.00205601
-0.00254958
0.00160763
0.00524173
-0.0012239
-0.00309398
-0.000923859
-0.00178971
0.00174802
0.00100308
-0.000961383
0.0088282
0.0109846
-0.0119781
-0.00235855
0.003352
-0.000265104
0.00274736
-0.00356317
0.00145656
-0.00232342
0.00310632
-0.00368804
-0.0022638
0.00284552
-0.00146805
0.000605061
0.00286938
-0.00200639
-0.000743327
-0.00397482
0.0032501
-0.00101779
-0.00186446
0.0034873
-0.00312609
0.00395304
-0.00184474
-0.00542937
0.00644835
0.0120411
-0.0130601
0.00283645
-0.000805152
-0.00224518
0.000213881
0.0206611
-0.0134873
-0.00569592
-0.00147788
0.0159094
-0.0260522
0.0174927
-0.00734987
-0.00830269
-0.0123616
0.00263768
0.0430712
-0.00909676
0.0167243
0.00814872
-0.0104366
-0.0144364
0.000402689
-0.00162658
0.00328504
0.0036903
-0.00695277
-2.25632e-05
-0.00128288
-0.00023349
0.000866324
0.000650044
-0.00028564
3.07823e-05
-0.00425985
0.00451471
0.00323492
0.00105476
-0.00800347
0.00371379
0.0021516
0.00220628
0.00034212
-0.0047
0.000761635
-0.00189209
0.00215082
-0.000654182
-0.00192447
0.00342495
-0.000378381
-5.41767e-05
-0.0014799
0.00191246
0.037623
-0.0426486
-0.0204783
0.0255039
0.0154375
0.02496
-0.022278
-0.0262198
0.0297252
-0.0208054
0.0172999
0.0300115
0.0311691
0.00341988
-0.00201818
7.69818e-05
-0.00147867
0.00108364
0.0099154
0.000128192
-0.0111272
-0.00271182
0.00377158
0.00621848
-0.00727824
0.00148184
-0.00148955
0.000645967
-0.000638264
0.00331915
-0.00266745
0.00130714
-0.00195884
0.0138349
-0.0255357
0.0117008
-0.0075321
0.000169746
0.00782833
-0.000465977
0.000923084
0.00253215
-0.0026688
-0.00906292
0.0105301
-0.00102749
-0.000439679
0.00327041
-5.15896e-05
0.00757683
-0.000812272
0.000210286
-0.000229179
0.000831165
-0.0016832
-0.00513055
0.00869613
-0.00188238
-0.00365041
0.00333342
0.000560277
-0.000243282
0.00773331
-0.0102743
0.00767882
-0.00513785
-0.00043508
0.00202453
0.0029503
-0.00453974
0.00278908
-0.00235894
0.00107416
-0.0015043
0.00191295
0.000442956
0.000122561
-0.00247846
0.000132011
-0.00121986
0.00273857
-0.00165073
-0.00177775
0.00205448
-0.000761848
0.00048512
0.0104267
-0.00336917
0.00323379
-0.0102913
-0.00112352
0.00136298
0.00201857
-0.00225803
0.00141107
-0.0133461
0.00176232
-0.00216293
-0.000164246
-0.00111649
0.00344367
-0.00045509
-0.00211215
0.000789483
0.000968141
-0.00589976
0.00221985
0.000279912
0.00248711
-0.00322211
0.000255933
0.00757308
-0.0092587
0.00142969
-0.000354056
5.71496e-05
-6.53462e-05
0.000362253
-0.000539812
0.00128591
-0.00071488
-0.0124576
0.000447461
0.0151937
-0.0031836
0.0020063
-0.000543052
7.35198e-07
-0.00146398
0.000796966
-0.000299748
0.000718855
-0.00121607
-0.0223948
0.00904758
0.015639
-0.00229184
0.000835027
-0.0217001
-0.00152968
0.00973799
0.00295247
-0.0106042
0.000515944
0.00130515
0.000441482
-0.00226258
-0.00062389
0.00219368
-0.00572324
0.00415345
0.000858752
-0.00041331
0.000969495
-0.00141494
-0.00209568
-0.00241286
-0.000562931
0.00507147
-0.00241846
-0.0102835
0.00737731
0.00532465
0.00189626
0.00273905
-0.00272237
0.00104248
-0.0034653
0.00293877
-0.00104152
0.0021482
-0.00386455
0.00275786
0.00208178
0.00118646
0.00268766
-0.0059559
-0.0048511
0.004745
-0.00838132
0.00848743
-0.00521279
-0.00413397
0.00339339
0.00595338
0.00106571
-0.0005837
-0.000124683
-0.000357324
0.000348674
0.000717034
0.000781321
0.000702409
-0.00117807
-0.000305664
-0.00119315
0.000797217
0.00277927
-0.00238333
-0.000998643
-0.00135311
0.0011586
-0.000629222
0.0015963
-0.00131466
0.000347575
-0.0381155
0.0449354
-0.00872281
0.00190294
0.00421419
0.0160779
-0.0260367
0.00574458
0.00155905
-0.00223283
-9.72137e-05
0.000770996
-0.00168545
0.00100251
0.00039382
0.000289124
0.00624258
-0.0152494
0.00484667
-0.000522565
-0.000411918
-0.000785668
0.00140653
-0.00117191
0.0028717
-0.00149844
0.00134994
-0.00248169
0.00263018
0.00103456
-0.00348569
-0.000830422
0.00328155
-0.000161121
-0.00196481
0.00316049
0.00110009
0.000352144
0.00025433
-0.00170656
-7.37541e-05
-5.26504e-05
-0.00146262
-0.00093133
-0.000638326
-0.000767431
0.000736389
0.000669368
0.000827198
0.000295107
0.000382232
-0.00150454
0.00046885
-0.00064689
0.00100524
-0.00261251
0.00221391
0.000678508
-0.00104219
0.000972922
0.000697295
0.000978069
-0.00143206
-0.000121931
0.000230983
-0.000803254
-0.00219681
0.00432993
-0.00132987
-0.00722312
0.00413953
0.00176159
0.00132201
-0.00118215
-0.00287379
0.00251746
0.00016238
0.000628844
-0.00120475
0.000413524
0.000216619
-0.000687392
-0.000609329
0.0010801
-0.00159869
-0.0017291
-0.000360253
0.00305109
-0.00601927
0.00717818
-0.00421001
0.00736974
0.0115997
8.09687e-06
-0.0189775
0.000674753
-0.00728279
0.00585127
0.000756767
0.000195248
0.000289782
-0.00109749
0.000612464
0.000616991
0.000659675
-0.0023735
0.00109684
-0.00341957
0.0142844
0.00127848
-0.0121433
0.00215759
-0.00288831
-0.00989744
0.0106282
0.00423279
0.00786466
-0.0141765
0.00207906
-0.0012707
0.001779
0.00316445
-0.00367274
-0.00607778
-0.002826
-0.00397573
0.000580975
-9.0938e-05
-0.00026511
-0.000474391
0.000965653
-0.000226153
-0.00115263
0.00100426
7.9137e-05
-0.000448237
0.0028988
-0.00206324
-0.000387323
0.00022285
0.00024829
-0.000471141
0.0225729
-0.0304909
-0.00748996
0.015408
-0.000672468
-0.00125997
0.00193244
-0.0315334
-0.00768827
-0.0324896
-0.0108236
0.0239677
0.00169332
0.000888418
-6.60567e-05
-0.00251568
-0.00242188
-0.0025044
-0.000709683
0.00563597
0.00894945
0.00559901
-0.00936174
-0.00518671
0.00134813
-0.00070304
-0.00164602
0.00100093
0.000520689
-0.00195473
0.00110559
0.00032846
-0.000683929
0.00139465
-0.000716755
0.00107828
-0.0025589
3.80269e-05
0.00104998
0.000290371
-0.00137837
0.00312531
-0.0046107
-0.00145414
0.00293953
-0.00135315
0.0031057
-0.00463576
0.00288321
0.0106823
0.00146662
-0.00981723
-0.00233171
-0.00204178
0.00756371
-0.00383302
-0.0016889
-0.00292342
0.00260769
0.00780714
-0.0187329
0.00292217
-0.00168965
0.00346904
-0.00141944
-0.00125238
0.00332334
-0.00590906
0.00370024
-0.00111452
0.00222316
-0.000752914
0.00116013
-0.00263038
-0.0048989
-0.000794519
0.00498653
0.000706892
0.00341699
-0.000912437
-0.00510432
0.00259977
-0.0048166
-0.000191226
0.0020303
0.00297752
-0.0011284
0.00141467
0.000557122
-0.00405212
0.00625397
-0.00275896
-0.000352303
0.000556958
-0.000204655
-0.00181045
0.000747063
0.00553854
-0.00447515
-0.0296109
0.0169129
0.00706327
0.00563474
-0.0289499
0.00748108
0.00577039
0.00219593
-0.00328548
-0.00112594
0.00221549
-0.000151995
0.000480699
0.000860582
-0.00118929
-0.0081561
0.0224816
-0.0244771
-0.00275384
0.0087498
-0.0060121
1.61394e-05
0.00102305
-0.00209031
-8.29069e-05
0.00115017
0.0101737
-0.00172051
-0.00540209
0.000653052
-0.00152145
-0.000723804
0.0015922
-2.6032e-05
0.00187348
-0.00213156
0.000134022
0.00118807
-0.00472236
-0.00638235
-0.00452833
0.00187826
-0.00284068
0.00549075
0.00955167
-0.00959401
0.000712033
0.00240633
-0.0036511
-0.00674895
0.00799371
0.00022482
0.00902558
-0.00812019
-0.00113022
0.000549299
-0.000496743
-0.000317666
0.0010707
-0.000435769
-0.000634934
0.000991223
-0.000822177
-0.00195636
0.00178732
-0.0257803
0.0218481
-0.0168931
0.0208252
-0.00264803
-0.00118725
0.00813584
-0.00430056
-0.00803108
0.00248088
0.00404736
0.00150284
-0.00117448
-0.00239087
-0.00133355
0.0262836
-0.0829967
0.0127899
-0.00322106
-0.00109446
-0.00847434
0.00376129
-0.0026769
0.0011504
-0.00223478
-0.00337086
0.00181233
-0.000681628
0.00224016
0.000652124
0.0147439
-0.0188156
-0.00105675
-0.000195113
0.000971352
0.000280506
-0.00364433
0.00487005
0.000996711
-0.00222243
-0.00372096
0.00182107
0.000316091
0.0015838
0.00347166
-0.00275351
0.00449103
-0.00520919
-0.00637727
0.000338655
0.0027463
0.00538844
0.0204934
-0.012047
-5.46997e-06
-6.46745e-06
-0.000475566
0.000487504
0.0173581
0.00874517
0.0103533
-0.0098267
-0.00927182
-0.000787677
-6.57259e-05
0.00107002
0.00557114
0.00287485
-0.00636421
-0.00728163
0.0125939
-0.00695994
0.00164766
-0.00102194
-0.00066778
-0.0019551
0.00171059
-0.00134839
0.0015929
0.00084036
-0.000319889
-0.000520471
-0.000868268
0.00172802
0.00123908
-0.00209883
0.00428058
5.89729e-05
-0.00244329
-0.00309872
-0.00144955
0.0107862
-0.00623798
-0.000389874
-0.000282594
-0.00164729
-0.00251549
-0.0015553
0.00571809
0.000126575
0.00180217
0.00151357
-0.00344231
0.00373372
-0.000806076
-0.000797224
-0.00213042
-0.0008946
0.00324874
-0.00153234
-0.000821809
0.00069623
0.00199284
-0.00122031
-0.00146876
0.0012888
-0.001201
-0.000771723
-0.00121048
-0.00432532
0.003571
0.000163142
0.000967198
-0.000418203
-0.000712137
-0.000563288
-0.000105291
0.000899563
0.00567409
0.00128282
-0.00808026
0.00112336
-0.0605985
0.00720983
0.0323129
0.0210758
0.00139116
0.000556236
-0.0018931
-5.42992e-05
-0.000817278
-0.000828245
-0.00242074
0.00406626
-0.00316966
0.00664132
-0.00121306
0.000555495
0.000989846
-0.000332281
7.20672e-05
0.00212377
2.73203e-05
-0.0103955
0.00023642
0.0159042
-0.00574507
-0.00804776
-0.000462061
-6.33707e-06
0.00851616
0.0012163
0.00521005
-0.0026469
-0.00377946
0.00158512
0.000676458
0.00105758
-0.0136764
0.00639078
0.00334584
0.00393978
-0.0039029
0.00232953
0.00111524
0.000458141
-0.0203398
0.0153278
0.00922611
0.000467797
0.00896894
-0.00805955
-0.0013772
0.0170701
-0.00389074
-0.0063206
-0.00685871
-0.00443259
0.00167909
-0.0274152
0.0199207
0.00785355
-0.000359132
-0.00739808
0.0062205
-0.00468861
0.00586619
0.00141114
-0.0153771
0.00623792
0.00772802
-0.0122481
0.00535658
-9.44938e-05
-0.00303775
-0.0010847
0.00421695
0.00182921
-0.00256547
-0.00336208
0.00409835
0.00700159
-0.00251634
-0.00289175
0.000951646
-0.00112767
0.00306777
-0.00169682
0.00295543
-0.00203316
0.000774552
0.0071205
-0.0102596
-0.0142084
0.0173475
-0.00402118
0.00312594
-0.00377955
0.00467479
-0.00269274
-0.0033562
0.00787814
-0.0155789
0.00860376
0.0369349
-0.000112804
-0.00235963
0.00141568
0.00302988
-0.00608871
-0.00397294
0.00703178
-0.00200858
-0.000903101
-0.00348028
-0.00504259
0.0109378
-0.00241497
0.000381798
-0.00026197
-0.000119828
0.00079901
0.0013817
-0.00156372
-0.000257769
-0.000580327
-0.000935575
0.00177367
-0.00359778
0.00800669
-0.00263412
-0.0017748
0.00234263
-0.00143203
-0.0152583
0.00429874
0.00382198
0.00713757
-0.00461786
0.00153185
0.00229988
0.00049982
0.0025549
0.000382411
-0.00343713
0.00613527
0.0053819
-0.0177595
0.00624231
0.0106658
-0.00855338
-0.000241801
-0.00187057
-0.00158315
0.00249841
-0.00179592
0.000880662
0.00195773
0.0015384
-0.0153964
0.0105673
0.00447841
0.000350676
0.000106022
-0.000712272
-0.00023934
0.000845589
-0.0142314
-0.00891229
-0.00218011
0.0253239
0.00138002
-0.00214138
-0.00236805
0.00312941
-0.00621897
-0.00601646
0.0186289
-0.00639346
-0.00435613
0.000820844
0.00232481
-0.004511
0.0260316
-0.0213207
-0.00019986
0.00203803
-0.000132804
-0.00154405
-0.000361172
0.00618734
-0.00269084
0.00515358
-0.00865008
0.00152721
0.00401084
-0.00445843
-0.00107961
-0.00640281
-0.00203367
0.00160408
0.0068324
-0.0011843
-0.000467513
-0.00128446
0.00293627
-0.00166886
0.000627202
-0.00010928
0.00115094
-0.00176956
0.00022229
0.000733527
-0.00181057
0.00409589
-0.0024754
0.000190075
-0.00708795
-0.00193305
0.00327171
0.00574928
-0.00164456
-0.00197567
0.00195137
0.000933563
-0.00116402
0.00221483
-0.00198437
0.00152453
-0.00786689
0.0103325
-0.00399012
0.000703466
-0.000241144
-0.00110065
0.00381928
-0.00093913
-0.00319594
0.000315784
0.0203187
0.00970418
-0.0331281
-0.0100028
0.00997683
0.00445835
-0.00443233
-0.0394528
-0.00182429
0.0150573
0.00543433
-0.0192265
0.0151527
0.00149002
0.00018931
0.00158216
-0.00326149
-4.57119e-05
-0.000109969
0.000155681
0.000581689
-0.000405747
-0.000221654
0.00033393
-0.000254021
-7.99086e-05
0.00151158
0.00030402
4.15636e-05
-0.00185716
0.000477492
-0.000334237
-0.000143255
0.00624936
-0.00629735
0.00618326
0.0124814
-0.00725131
-0.00971232
0.00448224
0.00436871
-0.00458309
-3.62572e-05
0.000250635
-0.000832075
0.00186466
-0.0357863
0.0347537
0.000713779
8.51503e-06
-0.000106391
-0.000615903
0.00414965
0.0012488
-0.00388688
0.0029424
-0.000719828
0.00192708
0.00104771
0.00636011
-0.0034177
-0.000253786
0.000731279
-0.000116197
-0.000137589
-0.000250401
0.00083209
0.00386494
-0.00929431
0.00637324
-0.00424047
0.00406805
-0.00620082
0.0102382
0.00302986
-0.00727033
0.0039551
-0.016194
-0.00822552
0.0325913
-0.00576006
-0.0186057
0.00100854
0.00284371
-0.00763951
0.00378727
-0.0236311
0.00789404
0.0322932
-0.0165561
0.00984681
-0.0113824
7.95061e-05
0.0107183
-0.00101851
-0.0147988
0.00509902
-0.00312468
0.00462742
-0.00192572
0.00294915
-0.000158064
-0.000527778
-0.00226331
9.03626e-05
-0.00287067
-0.00204578
0.00482608
-0.0164872
0.00282761
0.00384948
0.00981014
0.00114388
-0.0087238
-0.00612377
-0.000190148
0.00906503
-0.0124025
0.00352757
0.0106673
0.00994218
0.00275143
-0.0233609
-0.000201538
0.00147126
0.0129266
-0.0141963
0.00177152
0.000505117
-0.00118011
-0.00109653
-0.00299407
-0.000778394
0.00468923
-0.000916768
-0.00154293
-0.00359609
0.00230397
0.00283506
0.00317522
0.00139549
-0.000202007
-0.00417783
0.00132105
-0.00187309
0.00472987
0.00582387
-0.00151637
0.00586618
-0.00017037
0.00107916
-0.000775805
-0.000132982
-0.0030728
-0.00541246
0.00567607
0.0028092
-0.0089758
0.00331351
0.00938573
-0.00372344
0.00756957
-0.0121316
-0.000313144
0.00487522
-0.00219333
0.0015708
0.000733901
-0.000111368
0.00102056
-0.00141768
0.000855362
-0.0114771
-0.0205935
0.00420335
0.00586541
0.0105248
-0.00320383
0.00415743
0.000559981
-0.00151358
-0.00750533
-0.00885997
-0.00239219
0.003543
0.00590495
-0.00844763
-0.00100032
0.00286771
0.00899372
-0.00238982
0.00374186
-0.0155271
-0.00799541
0.00478967
-0.00236446
-0.00123273
-4.71344e-05
-0.00483975
0.00226112
-0.0019497
0.00561944
-0.014556
-0.0082442
-0.00358451
-0.00333125
-0.00905687
0.0159726
0.000543421
-0.000722794
0.000762533
-0.00058316
0.0456173
-0.0210343
-0.00599198
0.0078271
0.00352711
-0.00362089
0.0123775
0.0645892
0.00486565
-0.0153594
0.0330666
0.00967301
0.00498164
-0.010755
-0.00389967
-0.00340814
0.00195012
-0.00168798
0.00314599
0.00690224
-0.00196618
-0.00573152
-0.000891225
0.00162366
-0.000605696
-0.000126737
0.000621313
-0.000314934
0.00108478
0.000797668
-0.000690699
0.000751782
0.00264924
0.00890382
-0.00230684
-0.00924622
0.0142933
0.0219748
-0.0112962
-0.024972
-0.0433577
0.0210779
0.0463719
-0.00414076
0.012291
0.00232633
-0.0104766
-0.00352308
0.00273431
0.00177341
-0.00098464
-0.00167455
0.00916207
-0.00260423
-0.00488329
-0.00106112
7.71943e-05
0.00180592
-0.000822003
-0.00458554
-0.00952201
0.00676131
0.00734624
-0.00811398
0.00584723
0.00129806
0.000968692
0.000939578
0.00604749
-0.00152526
-0.0054618
0.0106848
-0.00127684
3.8473e-08
0.0036345
0.00199869
-0.00563323
-0.0101037
-0.0277793
0.0328738
0.00500925
0.00159308
0.0116022
-0.0231905
0.00999519
-0.0290933
0.018797
0.0401235
-0.0298272
-0.00278585
0.00134316
-0.00227828
-0.000470081
0.00231866
0.00588937
-0.00515545
-0.00625894
0.00552501
-0.0180059
0.00441982
0.0214996
-0.00791356
0.00255514
-0.00273128
-0.000861369
-0.0135145
-0.00864788
0.0139369
0.0524914
-0.0477158
-0.0399897
0.035214
0.0528946
0.0368792
-0.00206288
-0.00110861
0.000978155
0.0234227
0.0156867
0.010138
-0.0030729
-0.00142398
-0.00564111
-0.0100104
0.00597672
0.000580433
0.00345323
-0.00185758
-0.00654278
0.00105932
0.00734104
-0.000733995
0.00543256
-0.00745241
-0.00157363
-0.00342148
-0.0115041
0.0501616
-0.0409029
0.0022454
0.00477243
0.00591232
0.000607271
0.00690291
0.00123962
-0.0013964
-0.00256648
0.00234695
0.00161593
-0.00305261
0.00195769
0.000147316
0.000947602
-0.0007224
0.000344552
0.000377848
0.0241671
-0.0054931
0.00554886
-0.0242229
0.000138406
-0.000372895
-0.00206518
0.00229967
0.00393871
-0.000188441
-0.00288356
-0.00086671
0.000229986
-0.000765109
0.000730371
-0.0026858
0.00680952
0.00118671
-0.0176034
-0.00304509
0.00730242
-0.00766919
-0.000179774
-0.0211009
-0.00136564
0.000807051
0.000558591
-0.00350402
0.00385499
-0.00277286
-0.0457553
0.0815195
-0.0581886
0.00185446
-2.94755e-05
-0.00102802
-0.0331038
0.00641369
-0.00224408
-0.000340106
-0.00203367
-0.00182129
-0.0010572
-0.0162641
0.00420665
0.0148818
-0.00282429
-0.0172205
-0.00495452
0.0170999
-0.0186011
0.0383215
-0.0236936
-0.0461613
-0.000633838
-0.00165829
-0.0625095
0.0501937
0.0357385
-0.00438091
-0.00312432
0.000282106
-0.00507213
0.00400538
0.00742115
-0.0063544
0.00250043
-0.00113889
0.00615865
-0.00752019
0.00960274
-0.0113778
-3.53493e-05
0.00137971
0.00146263
0.000329256
-0.00317159
0.000905431
-0.00433808
0.00247801
0.000954639
0.00219171
0.00269095
-0.0157441
0.0108614
-0.0160305
-0.00862138
0.0167861
-0.00551789
-0.00614116
-0.00111707
0.0127761
0.0229917
0.00279086
-0.0054639
0.0169048
0.00895176
0.00352063
-0.000822941
-0.00042434
-0.00227335
0.00331278
-0.00462349
-0.00250619
0.0038169
-0.00706976
-0.000702805
0.00216677
0.0056058
-0.002838
-0.00343103
0.00644715
-0.000178127
-0.00084445
-0.00491642
0.0156149
0.00710456
-0.0152208
-0.00728019
0.00833327
-0.00745413
-0.0120189
-0.0023027
0.00874033
0.00558129
-0.0233952
0.0267336
0.0246837
-0.028022
-0.00376412
0.00136672
-0.00629619
0.0226083
0.0109861
-0.0114069
0.00238843
0.00221802
-0.00259391
-0.0100572
0.00137606
-0.00189053
0.000408928
0.000105546
0.00225604
0.000545153
-0.00518527
-0.00290122
0.0022174
0.000755888
-0.000699994
0.00103217
0.00163915
-0.00197133
0.00288297
-0.0017736
0.000345863
-0.00145524
-0.000221402
0.00240116
0.000689625
-0.00371278
-7.07137e-06
0.00159981
0.00212004
0.00683309
0.00926709
-0.00666138
-0.00522761
-0.00883999
0.020729
-0.0112536
0.0187117
-0.0141195
0.000681818
-0.00640142
0.000576902
0.00146894
0.000766286
-0.00503671
0.00280148
-0.000893814
-0.00239446
0.00300392
0.000284362
0.00217423
-0.00468809
0.0039828
0.00247566
-0.00415062
0.00328953
-0.00161457
-0.00299662
0.000824216
0.00166285
0.000509553
-2.62553e-07
0.00250986
0.000624568
0.00106366
0.00181905
-0.00625045
-0.00178426
-0.0012596
-0.000972287
0.00284197
0.0053573
-0.00722699
-0.00290801
-0.00455752
0.00814698
-0.000681447
-0.0111074
-0.00575204
0.00788361
0.00487872
0.0104986
-0.00648688
-0.000312225
0.00139686
-0.000609762
-0.000474871
0.000843497
-0.00257685
-0.000631101
0.00234042
-0.00149692
0.000829968
0.0016493
-0.00257648
-0.000187635
0.000417506
0.000733242
-0.000963113
-0.000161507
0.00072397
0.000831922
-0.00100984
0.000567407
0.00174259
-0.00130016
0.000121714
0.000693162
0.00136219
-0.00211199
0.0007498
-0.00149633
0.0108661
0.00184859
-0.00233321
0.000484624
-0.000395873
0.000780684
-6.57633e-05
-0.000160403
0.00157163
0.00136684
0.000892923
-0.00173359
0.00243186
0.000708254
0.00173468
-0.00218913
0.000380138
7.43129e-05
-0.000760311
0.000344985
0.000341236
7.40904e-05
0.000409546
-0.00021053
0.000207708
-0.000406723
0.00211904
-0.00305182
-0.00394102
0.00904405
0.0036524
-0.00763769
-0.00105156
0.00503685
-0.000151164
0.0038505
-0.00319779
-0.000501547
0.024562
-0.0286868
-0.00597894
-0.00239325
-0.00205762
-0.00263708
-0.00201716
0.00336634
-0.00374242
0.00252303
-0.00264356
-0.00174393
0.00260106
-0.000735229
0.000657206
-0.00784352
0.00468437
0.0157264
-0.0125672
0.00775856
0.00249886
-0.0181009
-0.00634445
0.0164173
-0.00301948
0.0035293
0.00125459
-0.00176441
-0.00132617
-0.00089902
0.00222519
-0.000717619
-0.00280019
0.00219164
-0.0025084
0.00216951
-0.000560135
-0.000175826
-4.44391e-05
-0.00279922
0.00219099
-0.00650197
-0.000560054
0.00487103
0.00929278
0.00410746
-0.0103318
-0.0030684
-0.00195851
0.0121371
-0.00088581
0.0184542
-0.0149253
0.000578596
-0.00296459
0.0141828
0.00723598
-0.0155352
-0.00339623
0.0231381
0.00405269
-0.00385299
-0.00242497
0.00222527
0.0219836
0.00980727
-0.020478
-0.0113129
0.0161785
-0.00633958
0.000733897
-0.000284708
0.000263979
0.00246204
-0.00244131
-0.000962883
0.000212782
0.00264717
-0.00189707
-0.000605975
0.00168112
0.000817924
-0.0018358
0.00221518
-0.00119731
-0.00233705
0.00264185
0.00403987
-0.00434466
0.000203907
-0.00109021
0.00220735
0.00436331
-0.0106187
-0.00709892
0.0133543
-0.00246963
0.0161341
-0.00930116
0.00925233
-0.00825471
-0.00848818
-0.00118737
0.00809922
-0.00578774
-0.00112411
-0.00322331
-0.00096221
0.000631615
0.0035539
-0.00193727
0.00337763
-0.00466366
0.0050136
-0.00461003
-0.0028725
0.00246894
-0.00219802
0.00108715
0.00192639
-0.000815532
0.00181424
0.00161214
-0.0074021
0.00617051
-0.00731706
0.0118123
-0.00951463
-0.00241142
0.000788979
0.0111371
-0.0121855
-0.00556438
0.0152803
-0.0107155
0.00162001
0.00927777
-0.00631506
-0.00458272
0.00237164
0.00175603
-0.0042712
-0.000396766
-0.00346825
0.00461208
0.0031903
-0.000712523
0.000942102
-0.000898513
-0.0091427
0.013559
-0.00351778
-0.000574142
0.000258709
0.000578681
-0.000263248
0.0049387
-0.0070584
0.00302513
-0.000787919
-0.00100229
0.00309734
-0.00379512
-0.0045874
0.00099006
0.00739246
0.000401513
-0.00125655
0.001042
0.000487758
-0.000837799
-0.00069196
-0.0012289
0.00053249
0.00147773
-0.009965
-0.00334379
0.00951367
0.00688524
0.00274706
6.33595e-05
-0.00969566
-0.0069113
0.00383154
-0.000189828
-0.000128523
0.000717135
-0.000398785
0.00574461
0.00250374
0.00257588
-0.00294067
-0.000867945
-0.00243332
0.00263875
0.00188848
-0.00209391
-0.000919056
-0.00139282
0.0011612
0.00115068
-0.0133657
0.0173973
-0.00541143
0.00137981
-0.0034358
0.00138562
0.000183713
0.00186647
0.00233218
0.000905578
-0.00173829
-0.00149947
-0.000304884
0.000118811
-0.00225008
0.00243616
-0.000297299
0.000263494
-0.000440586
0.00124182
-0.00115202
-0.000855921
0.000766119
0.00490434
-0.00955559
0.00149731
0.00315394
-0.00822917
0.00424117
0.00889234
0.000636592
-0.00967226
-0.000519931
-0.00859964
0.00868915
0.00739157
0.00455604
0.0169121
0.0030797
0.000311083
-0.00905076
0.000510501
-0.00131075
0.00148649
-0.000350154
0.000174416
-0.000425169
-0.00132271
0.00116756
-0.000781398
0.000743416
0.000349988
-0.000312006
-0.000555692
0.00036602
-0.000591725
0.00203486
-0.00153044
-0.0018821
0.00137768
0.000146583
0.00106168
-0.000605378
-0.000602885
0.00504263
-0.00315622
-0.00489302
0.00300661
0.00356301
0.00531954
-0.00958652
0.000703967
-0.00212339
0.00270905
-0.00149603
0.0147118
-0.0301686
0.0182751
-0.00281827
-0.0146063
0.0362702
0.00630692
-0.0279708
-0.0108881
-0.000180405
-0.000253506
0.00777016
-0.00266375
-0.00485291
0.00717144
0.00411348
-0.00502303
-0.00626189
0.000706527
-0.002082
-0.000260251
0.00163573
-0.00315828
0.0040203
0.000526017
-0.00138803
0.000808691
0.00291339
0.00340531
-0.00712739
-0.00472948
0.00168238
0.00533663
-0.00371222
0.0110084
0.000182754
-0.00673216
-0.00445901
0.000406277
-0.00763763
0.00264826
-0.0017392
0.00642806
-0.00533615
0.000647285
0.00159647
-0.0181269
0.0061349
-0.00346006
0.00161973
-0.00286902
0.0047407
-0.000932102
0.00373077
-0.001672
-0.0116553
0.00959651
0.00541353
-0.000443185
-0.0120479
0.00707755
0.00165425
-0.00113072
0.00882634
-0.007056
-0.00551601
0.00374568
0.00237259
-0.00710857
0.00127593
-0.00722532
0.00811347
-0.00611576
-0.00169231
0.00550248
-0.0110355
0.00397584
0.000449836
-0.00286142
-0.00156426
0.00238503
0.00788701
-0.00331791
-0.00695413
-0.0485548
0.0570751
-0.00450429
0.00722003
0.00583637
-0.00855211
-0.00140063
0.000863857
-2.94544e-05
0.00056623
-0.00874144
-0.00607553
-0.00435289
-0.00233363
0.00149148
0.00187774
-0.00103559
0.000669761
-0.00342471
0.000965232
0.00053133
0.000768374
-0.00144867
0.000148966
-0.00238555
0.00172667
0.00132864
-0.000531627
0.00210557
-0.000756018
-0.00402429
-0.0051082
0.0111721
-0.00203963
-0.00239684
-0.000340697
0.0016215
0.00111603
-0.00262954
0.000764688
0.0016384
-0.00569099
0.00288068
0.00212778
0.00777832
-0.00517788
-0.00472822
0.00178275
-0.00126501
-0.00434951
0.007558
-0.0073194
-0.00942755
0.00642664
0.013848
-0.00253698
-0.00375301
0.00085958
0.000645898
0.000277273
0.000509078
-0.00036177
0.0419923
-0.0606923
-0.0153849
0.0340849
-0.0113361
-0.0137434
0.00839454
0.016685
-0.00065113
-0.00269969
-0.000316835
0.00175152
0.000227386
-0.00164129
-0.00118501
0.00259892
-0.00294419
0.000664433
0.00332224
6.88317e-05
0.00238042
-0.000822312
0.000541001
-0.00125106
-0.0209804
-0.00779445
-0.00302877
0.00166073
0.00020082
0.00116722
-0.0188319
0.00894994
0.0230429
-0.0131609
0.0032834
0.00247594
-0.0287894
0.02303
-0.00327298
-0.00324683
0.00349104
0.00182716
-0.000125703
-0.00520547
-0.00766993
0.0062028
-0.00292535
0.00439248
-0.00365058
0.00206947
0.0010734
0.000507717
0.00585267
0.00157782
-0.00154112
0.00400342
-0.00925137
9.24975e-05
0.000821149
-0.00113548
-0.006301
0.00661533
-0.00326968
0.00308804
-0.00764349
0.00782514
-0.00106252
-0.00200883
-0.00408715
0.00385706
-0.00185108
0.00208117
0.00494973
-0.00113792
-0.00141635
-0.00239546
-0.00480422
0.00158715
0.000518203
0.00269886
-0.00187208
-0.00157781
0.00564581
-0.000317154
0.00115322
0.0083835
-0.00921956
0.00222088
0.00606591
-0.00902079
-0.00649367
0.0266504
0.0285845
0.00753722
-0.00172963
0.000199789
0.00796518
-0.00643533
0.000627097
0.00088771
0.00107616
-0.00259097
0.00229846
-0.00259942
8.28234e-06
0.000360199
-0.000587163
-0.00162893
0.0018559
0.000772585
-0.000140871
-0.00152294
-0.0040498
-0.00217929
0.00597559
-0.00485518
0.00840565
-0.00760028
-0.0108828
-0.00180009
0.00782767
-0.0157417
-0.0260115
0.0156219
-0.0082242
0.000867881
0.00265207
-0.0131302
0.00666311
0.00381502
-0.00896978
-0.00704552
0.0087325
0.0110039
-0.00123696
-0.0162034
-0.00628759
0.0069795
0.00386786
-0.00455976
-0.00263428
-0.00357836
-0.00333165
0.00954429
-0.00575747
0.000934851
-0.00625135
0.000955562
0.00840416
-0.00310837
0.00277401
0.0016069
-0.00205138
0.0011532
0.000381822
-0.0023538
0.000818775
-0.0104027
0.0154443
0.00562568
0.00258293
0.00968183
-0.00446905
-0.0077957
0.00495266
0.0117367
-0.011472
-0.00521739
-0.00840054
0.00741661
0.00416589
-0.00318196
0.0114653
-0.00235853
-0.0041541
0.0029459
-0.00751441
0.00457373
-0.00144561
0.00193422
-0.00506235
-0.00546742
0.00203441
0.00523952
0.00269188
-5.73323e-05
-0.000871268
-0.00176328
0.00090319
0.00159408
0.000194616
-0.00173714
0.00204001
-0.00376897
-0.00545655
0.0064946
0.00273092
0.00694551
-0.00375937
-0.00478484
-0.00571564
-0.00790346
0.00959481
-0.0111243
0.00900887
-0.00165353
-0.00634283
-0.000899217
0.0106222
-0.0316794
0.0103751
0.0194538
0.0317278
-0.0249982
-0.0261834
0.00196569
6.63847e-05
6.20497e-05
-0.00209412
-0.00689328
0.00701332
0.0132143
-0.0133344
-0.0036428
0.00853941
0.00563347
-0.0073972
0.0112504
0.00448611
-0.00833934
-0.00777851
-0.00599023
0.00422759
-0.0151248
0.0143594
-0.00346216
0.00263828
-0.00106826
-0.0027645
0.00119448
0.00199117
0.00192974
0.00202889
-0.0430987
0.0653543
0.0129965
0.00315142
-0.0303794
-0.00389843
0.0112608
-0.00820681
-0.0358642
-0.00571786
0.0326698
0.0270701
0.0192029
-0.0332765
-0.00090983
-0.000740669
0.00124475
0.0458511
-0.0167521
0.0108455
-0.0190457
0.0113516
-0.00630417
-0.0114031
0.0169759
-0.0118882
0.00297484
0.0166149
-0.0176476
-0.00388371
0.000729865
0.000607838
0.0152771
-0.00328944
0.00667994
-0.0373291
0.0151958