/*--------------------------------*- C++ -*----------------------------------*\
| =========                 |                                                 |
| \\      /  F ield         | OpenFOAM: The Open Source CFD Toolbox           |
|  \\    /   O peration     | Version:  2506                                  |
|   \\  /    A nd           | Website:  www.openfoam.com                      |
|    \\/     M anipulation  |                                                 |
\*---------------------------------------------------------------------------*/
FoamFile
{
    version     2.0;
    format      ascii;
    arch        "LSB;label=32;scalar=64";
    class       volVectorField;
    location    "0.00481384";
    object      U;
}
// * * * * * * * * * * * * * * * * * * * * * * * * * * * * * * * * * * * * * //

dimensions      [0 1 -1 0 0 0 0];

internalField   nonuniform List<vector> 
3926
(
(10.7429 0.0749938 -0.679742)
(9.40358 -0.0772086 -0.0357597)
(8.89034 0.22817 -2.9422)
(4.38237 0.0789406 -3.40932)
(4.92785 0.115658 1.49707)
(3.19937 -0.375715 -6.1771)
(6.49023 0.152175 -11.0922)
(8.68605 -3.05999 -2.05054)
(12.3132 -0.0157404 0.701324)
(4.59206 -1.29685 -1.46135)
(12.615 0.280799 -3.00465)
(10.9775 0.0142588 -0.78375)
(9.54952 -0.094721 0.041455)
(10.2022 0.210086 -0.332641)
(8.95247 0.0154055 -0.345467)
(9.30633 0.600181 -0.60944)
(10.6657 0.00563488 -0.328639)
(9.26083 0.276505 -0.633416)
(7.11227 0.114069 -4.45024)
(10.146 -0.11747 0.358798)
(9.04524 0.245981 -3.39953)
(5.23064 0.480456 -4.0952)
(5.95462 0.203558 -3.01298)
(10.3686 0.0522546 -0.354697)
(8.28235 0.192889 -1.90594)
(5.321 0.321617 -1.6051)
(6.31885 0.172222 -2.27193)
(4.47004 0.00814903 -3.24675)
(4.14657 -0.124887 -4.14169)
(10.2004 -0.188582 -0.503526)
(10.8711 0.625832 0.236429)
(8.13476 0.12711 -2.76151)
(10.978 0.239655 0.212522)
(11.2012 -0.0673784 0.502746)
(11.8021 -0.184952 -0.540162)
(11.1189 -0.0695859 0.258253)
(10.2251 -0.078392 0.36246)
(8.41893 0.178697 -2.03286)
(8.87382 -0.384346 0.205752)
(10.2874 -0.0383477 -0.188349)
(6.04731 -0.409863 -4.76003)
(12.6157 2.79144 -4.03989)
(11.2047 -0.095063 -1.12857)
(9.80327 -0.0937473 -0.854744)
(9.36465 0.0598217 0.193579)
(11.0064 0.0577996 0.692809)
(10.9826 0.0472741 -1.4673)
(12.2142 0.0995872 0.0174441)
(1.48407 -0.0604498 -5.6743)
(7.79716 0.157683 -1.70491)
(8.06687 -0.153889 -2.70518)
(7.46735 1.8325 -1.6957)
(1.27215 0.291881 0.646478)
(11.0283 -0.649453 -10.7847)
(8.28055 0.119391 0.251718)
(10.7093 0.0299378 -1.59377)
(10.7027 -0.430355 0.902596)
(2.37102 -0.799042 4.3594)
(8.6035 0.027791 -3.00253)
(0.95794 -0.0853409 8.04241)
(9.49909 0.184727 -0.975108)
(13.3467 0.333498 -1.17356)
(9.07394 -1.08154 -0.056046)
(6.74939 0.0655622 -0.177835)
(13.7576 0.870082 -3.85115)
(13.709 0.476002 -4.62613)
(14.0014 -0.433489 -2.74607)
(13.5168 0.165508 -2.92999)
(11.991 0.105793 0.544473)
(13.599 -0.574774 -5.58571)
(15.2707 -0.387868 11.3572)
(9.10544 0.158109 0.0387152)
(12.8555 -0.132325 0.718024)
(9.76815 0.246171 -0.0794899)
(11.5121 -0.0159706 -0.24947)
(-0.543747 -0.479077 3.56432)
(11.4372 0.115526 -0.658737)
(4.05582 0.106852 -4.42542)
(7.40222 -0.256885 2.97522)
(9.02405 0.492605 -0.356684)
(4.87687 0.0080184 1.78235)
(8.16627 0.0820127 -2.18463)
(13.2507 0.186332 -5.36045)
(6.6336 -0.904503 0.537523)
(10.4881 -0.714483 0.592584)
(11.4513 -0.169611 2.00937)
(10.2604 0.0592901 0.468318)
(10.1121 0.433753 0.871875)
(13.3841 -0.460819 -2.5305)
(9.00169 -0.080465 0.948781)
(9.01892 0.100525 -0.50231)
(7.49538 0.0824397 -2.01125)
(8.04405 -0.0722746 -3.58891)
(11.0037 0.00325955 -0.154584)
(10.2513 0.0847167 -1.76082)
(11.3017 -0.835869 -2.55881)
(10.8132 0.200791 -0.758523)
(11.7474 -0.24795 -0.391821)
(2.08034 -0.127654 -2.55872)
(12.0892 0.100385 -0.747981)
(13.2483 0.451645 -2.60342)
(8.34719 0.0825413 2.3068)
(11.1985 -0.0055342 -3.00294)
(7.56081 0.0752293 -2.0373)
(10.0409 0.530225 -5.44264)
(8.00393 0.271379 -5.74716)
(8.16804 0.160052 -2.23215)
(11.2836 0.0670734 1.77383)
(8.47454 0.209429 -2.04982)
(9.8177 0.267758 1.77664)
(7.97957 -0.0249555 -3.54659)
(8.2212 0.209556 -1.93996)
(7.76861 0.31242 0.109284)
(7.78541 -0.019055 -1.59424)
(9.5766 0.183576 -0.377727)
(1.51776 -0.152249 -0.134557)
(4.93463 0.110634 -2.3321)
(9.39301 0.00126386 -0.135117)
(7.37377 -0.495275 -7.9935)
(2.64596 -0.25771 -6.24307)
(9.61991 -0.319455 -0.499174)
(9.54742 -0.189369 -0.442563)
(8.96129 0.0896512 -0.53625)
(8.03811 -0.0246423 -3.35991)
(9.27456 0.237499 -1.5595)
(9.02686 0.130726 -2.51287)
(13.2398 0.196079 -0.635325)
(8.74143 0.572484 1.69416)
(11.3174 0.126485 -4.98018)
(8.84437 -0.160939 -3.2363)
(9.50697 0.214099 -2.42853)
(9.96734 0.200522 -2.24414)
(10.7546 0.00497735 -1.75249)
(11.4304 0.0828958 -1.11696)
(0.687267 0.0760571 -5.23822)
(0.722475 -0.293567 -6.14152)
(1.73852 0.294084 -6.55667)
(7.91283 -0.929828 -7.86542)
(5.29621 0.688906 -7.78479)
(5.25645 -0.00901648 -1.36213)
(9.81889 0.611702 0.982728)
(10.0032 0.333842 0.582075)
(6.19159 -0.0105933 -1.53851)
(5.73471 -0.0391612 -2.47611)
(9.28743 0.0559899 1.95825)
(4.38092 0.000710713 -2.97511)
(6.29948 0.0846028 0.289221)
(6.88228 -0.216457 -4.03598)
(7.55 -0.11496 -1.8302)
(7.01861 -0.00128282 -1.67544)
(5.95942 0.412549 -1.36363)
(5.97912 -0.0974428 -2.24679)
(6.57564 -0.0185366 -1.2831)
(5.13957 -0.324889 -1.99878)
(4.44297 -0.185852 -3.32434)
(5.32324 0.058844 -4.17159)
(7.12291 0.0843283 -1.74904)
(4.07734 -0.576575 -4.13049)
(4.40038 -0.333977 -2.29861)
(4.13703 -0.417713 -3.00875)
(12.0756 -0.070112 -1.60148)
(8.94293 0.0177315 -1.21682)
(7.78575 -0.128199 -1.55705)
(2.13701 0.076629 0.0198652)
(3.04416 -0.0376418 -4.85445)
(6.86687 0.106214 0.000641759)
(8.34093 0.322759 1.10687)
(9.48138 0.10919 0.682844)
(10.7257 0.136367 -0.744821)
(4.85179 0.114863 -3.87573)
(11.7638 -2.90106 -2.68679)
(11.319 0.0774192 -0.21201)
(9.47589 0.250485 -0.78125)
(8.67807 -0.0930546 0.144686)
(10.0972 0.0927692 -2.2574)
(12.1877 0.102035 -0.851355)
(7.78294 -0.235931 -1.73838)
(2.29114 -0.11275 -3.04495)
(6.61127 0.103396 -3.74825)
(9.25991 0.179198 -2.21079)
(0.218672 -0.0824294 -3.00829)
(10.0784 -0.21357 -0.206011)
(0.742734 -0.156799 2.49049)
(10.7171 -0.588519 0.529768)
(9.7033 0.13633 -0.103069)
(9.80985 0.0763434 -3.16312)
(11.4673 -0.011484 -2.19332)
(8.36684 0.0122407 1.50227)
(6.72906 0.000656151 -2.10997)
(7.34817 0.0726885 -2.3734)
(3.42626 0.326024 -5.56867)
(8.2118 0.0548374 -2.27216)
(3.90616 0.241775 -4.36399)
(9.42265 0.284819 -1.48203)
(8.70891 -0.0820904 -1.51866)
(8.85408 0.0605381 -0.127217)
(10.676 0.168197 -0.718635)
(8.14977 0.263568 0.594824)
(11.0515 0.364705 2.06469)
(5.55495 0.165197 -11.2669)
(6.51999 0.0984915 0.134187)
(9.90723 1.11667 -8.55494)
(3.10794 -0.963342 4.21087)
(9.48136 0.12904 -2.13735)
(9.05025 0.254801 -1.66712)
(6.7615 0.264815 -3.98872)
(8.42077 0.23729 -0.192505)
(1.03204 -0.154927 -2.41266)
(10.5336 -0.223298 -2.30334)
(9.76504 0.614343 0.719095)
(9.54376 0.334396 -0.488638)
(8.7544 0.176806 -1.37652)
(5.71145 -0.0374964 -1.60437)
(11.4841 -0.207427 0.269997)
(8.91042 0.150739 -0.594502)
(4.24906 -0.0123476 -0.23296)
(8.48494 -0.158287 1.54652)
(6.92879 -0.0294652 -2.33087)
(7.44156 0.044372 -2.8286)
(6.61848 -0.0981562 -2.30056)
(10.5559 0.099004 -0.490438)
(12.3625 -0.0964232 -1.70951)
(10.8905 0.125273 -0.655339)
(11.7584 -0.0644542 0.886655)
(11.5144 0.344604 0.077074)
(1.11074 0.19568 -2.1184)
(1.56657 0.102763 -4.96694)
(9.57185 -0.0231645 -3.12063)
(9.50833 -0.196239 0.805463)
(11.8007 0.112139 -0.722353)
(10.8681 0.262143 -0.602676)
(4.09945 0.0614617 2.81469)
(11.2097 -0.482857 -0.296511)
(9.7236 -0.113672 1.18396)
(11.4299 -0.249913 -2.66018)
(6.53345 -0.0155533 0.127225)
(11.8354 -0.0059035 -0.296269)
(4.51863 0.0538141 -1.99994)
(11.7759 -0.00662725 0.656379)
(10.6511 0.131652 -2.791)
(10.9717 0.010217 0.436128)
(10.7148 0.241156 -1.2779)
(10.9383 -0.092715 -0.0977685)
(2.49651 -0.0311915 -1.19944)
(9.67911 0.210915 0.0391023)
(8.26739 0.0649915 3.26223)
(0.96413 0.108829 -5.73024)
(9.95112 0.35425 -2.49326)
(8.50689 0.207817 0.719474)
(8.97794 1.93951 -3.8847)
(4.28771 -0.446719 -7.74514)
(1.44284 0.149378 -5.16861)
(9.91079 0.127354 0.508714)
(11.9323 0.272561 -3.78909)
(11.115 -0.0325084 -1.02747)
(0.964151 -0.50118 0.606897)
(11.3099 -0.0752985 0.940248)
(11.4135 0.0723094 -2.0024)
(10.535 0.287131 -4.61511)
(7.24781 0.957626 -11.9554)
(7.60545 -0.465592 -8.32285)
(1.63386 -0.336507 -5.23351)
(7.39696 0.0780211 -1.33126)
(2.79232 -0.325931 -1.91307)
(2.15542 -0.757616 -3.85603)
(11.624 0.160407 -0.0658915)
(10.8667 1.37501 0.197025)
(5.92487 -0.0180015 -1.02042)
(6.28702 -0.0100896 -0.00649077)
(11.1305 0.0603377 0.284092)
(2.26381 0.115355 -4.66014)
(13.972 -0.328019 -6.61074)
(10.1709 0.154414 -0.782489)
(12.3694 0.0422819 -0.699725)
(9.66264 -0.000854918 -2.30256)
(8.31943 0.155316 -3.92131)
(9.15019 0.124705 -0.496946)
(10.0464 0.273607 -3.13006)
(9.26258 0.331105 0.666036)
(9.50821 -0.133794 -0.614607)
(5.52527 0.0775379 12.0996)
(10.5406 0.0538213 0.0356029)
(10.4389 0.0118086 -0.200185)
(8.19005 0.0397957 0.910017)
(11.757 0.0684258 0.937065)
(12.3574 -0.425371 0.986149)
(13.0269 -0.0631826 -2.33012)
(13.414 -0.117588 -1.15805)
(10.8251 0.00425678 0.405689)
(10.4537 0.00666805 -5.08429)
(7.41925 0.017182 -3.95206)
(9.633 -0.0516117 0.00277021)
(8.19777 -0.0421163 -0.829934)
(13.4922 -0.0471716 -0.824115)
(9.59153 0.0391851 0.105985)
(5.31796 0.0157798 -1.77046)
(10.0236 0.0552237 -1.44176)
(9.79787 0.155629 -2.9802)
(10.0763 0.102689 -2.25666)
(0.635586 -0.0495403 -1.92432)
(7.73746 1.15595 -0.50397)
(6.61503 -0.269381 -3.77609)
(7.67522 0.247672 -0.239295)
(7.87144 0.0740083 -3.28736)
(9.11674 -0.16538 2.17222)
(13.4179 0.0682724 -1.73437)
(12.8435 1.712 -3.34705)
(11.7427 -0.029298 -0.081595)
(8.8955 -0.266391 -1.18484)
(8.23972 0.20462 -7.97375)
(14.1331 -0.606814 -4.55932)
(13.1057 -0.749127 6.49243)
(3.32543 -0.0715219 -2.85535)
(10.7073 -0.43323 1.78319)
(12.2815 -0.192269 -1.40623)
(11.3821 0.104729 0.187399)
(7.52857 0.206711 -0.990723)
(9.7919 -0.243818 -0.255847)
(6.15668 -0.031303 -3.91742)
(11.8309 -0.039009 0.0326107)
(12.8248 -0.163141 0.167567)
(9.56718 0.109823 -1.10631)
(3.27308 -0.325953 -11.469)
(3.78093 -0.0254775 -1.07492)
(4.66718 -0.314752 -3.43416)
(8.65144 -0.0768054 -2.2543)
(13.2403 -0.179916 -0.276773)
(4.53411 -0.0480029 -0.242135)
(10.9901 -0.584174 0.436059)
(11.0517 -0.152551 -1.25402)
(5.23443 -0.19063 -1.3192)
(8.18553 -0.0416614 -0.367749)
(10.0185 0.0395158 -0.124399)
(8.80906 0.129916 -0.298207)
(10.1317 0.164626 0.664878)
(9.47624 0.247026 0.339503)
(7.12329 0.189904 -2.56077)
(0.469861 0.0524493 -0.0520973)
(1.03791 0.267158 0.708565)
(0.435844 -0.250282 0.621265)
(3.02238 -1.01715 1.91204)
(0.410875 0.50741 0.389223)
(11.7427 -0.067045 0.145081)
(9.40517 -0.241671 -0.516457)
(9.17953 0.0237808 -1.71022)
(9.96876 0.448155 0.338576)
(1.11179 0.440624 1.01149)
(3.55202 -0.45302 3.03077)
(2.67071 0.550766 5.54458)
(-0.172204 0.334188 1.47987)
(0.0549078 -0.501636 8.15852)
(-0.0814192 0.015285 1.7586)
(0.3075 -0.162564 0.0338201)
(-0.00383723 0.093022 1.59368)
(11.4028 0.20737 0.381374)
(11.6632 0.0717667 0.49934)
(11.978 0.269289 0.208698)
(11.1115 0.131322 0.361342)
(11.4056 -0.111033 0.456278)
(9.70581 -0.125375 0.783413)
(9.49187 -0.16193 -2.07043)
(9.34165 -0.152854 0.197306)
(12.2107 -0.174203 0.151822)
(12.1073 -0.0517242 0.128712)
(13.4007 -0.105678 -0.257851)
(9.50393 0.0683497 -4.42543)
(11.9734 0.145067 -1.16687)
(9.77309 -0.160646 1.97713)
(11.3747 -0.563063 5.12982)
(10.46 -0.174369 0.066924)
(10.8033 -0.385351 -0.386787)
(9.7427 -0.00293727 -0.439092)
(4.16475 0.55327 -5.87329)
(8.23641 0.249714 -0.520517)
(13.3165 0.282146 -1.18175)
(9.30011 -0.0600955 -2.09217)
(5.68241 0.048097 0.472183)
(8.50696 -0.109564 1.73516)
(2.63496 0.118291 -3.05431)
(6.91629 0.246488 1.5994)
(9.43489 -0.0749385 -0.646283)
(12.3088 -0.0208312 -0.53143)
(6.21989 -0.0430071 -1.82202)
(4.68755 0.297417 -1.45697)
(10.1485 0.0498629 2.37062)
(10.3418 0.0289828 1.64043)
(11.4983 0.258668 -3.82292)
(11.9119 -0.0718015 0.64512)
(12.251 0.0131186 -0.677134)
(11.7728 0.123783 0.126162)
(9.44158 0.280071 0.0867965)
(10.2527 0.0667971 2.1288)
(11.0923 -0.0456382 0.276181)
(12.1453 0.0490636 -2.01506)
(11.4205 0.0996924 2.92804)
(11.9269 -0.125267 -0.33172)
(8.12939 0.165699 -3.2902)
(9.35448 0.11567 -0.128011)
(7.92301 -0.378871 3.0842)
(9.76066 0.35053 -0.900056)
(10.6185 0.321712 -0.492359)
(11.1692 0.0474136 -0.326722)
(8.02352 0.0966201 -1.06719)
(9.48144 0.225636 -1.45263)
(6.87419 0.149456 -2.81656)
(5.79729 0.177594 -1.61946)
(8.67451 -0.0216789 -2.92826)
(9.5578 0.0679173 -0.420277)
(11.5404 -0.00414941 0.375808)
(9.49124 0.315621 0.571352)
(8.4023 0.166883 0.470405)
(11.3357 0.399634 -9.63181)
(4.49407 -0.207288 3.86641)
(5.04824 -0.219077 -1.46701)
(9.0641 0.394252 2.67979)
(7.52389 0.06753 1.52194)
(9.09798 0.15822 -2.14851)
(11.486 -0.0143103 0.461005)
(7.8835 0.113202 -0.638723)
(9.25433 -0.661233 -0.391174)
(9.50437 -0.049785 1.17825)
(10.5112 -0.202024 0.168317)
(10.1742 0.19041 -3.07933)
(8.06616 0.0638803 -3.62403)
(7.03486 0.219113 1.2254)
(10.2241 0.0274921 1.20311)
(6.93611 -0.0999408 -0.660637)
(9.1931 0.247182 0.583165)
(10.0899 0.154735 0.992152)
(10.061 -0.452557 0.467743)
(6.44088 0.0277241 -1.2951)
(10.3236 -0.75373 -0.631307)
(12.4374 0.124986 -0.255135)
(11.6376 0.163245 -1.24838)
(9.14476 -0.0331595 -0.138083)
(8.77176 0.0962678 -0.626893)
(6.39173 0.295796 0.879499)
(9.8907 -0.217718 0.516168)
(11.8424 0.057474 0.313782)
(8.9754 0.242921 -0.766913)
(8.49989 -0.0624476 -1.80072)
(11.4558 0.700536 -11.9006)
(1.22919 -0.660432 -3.91767)
(10.235 0.257638 -0.388519)
(10.4194 -0.316495 -4.92644)
(11.4397 0.445923 -13.1059)
(4.76437 0.0138106 -4.05614)
(11.9025 -0.0924932 0.734827)
(9.60762 0.306751 1.63523)
(9.5842 0.208018 -0.313383)
(6.23501 0.030305 0.0227916)
(11.0756 0.076981 -2.20629)
(10.4724 -0.134101 -0.327441)
(3.99776 0.528278 -7.45477)
(10.2141 -0.136483 -0.363795)
(13.2258 0.0396777 -2.16161)
(12.8669 0.0263962 -2.55498)
(11.3443 -0.0764515 0.439002)
(11.4545 0.00939952 0.270306)
(11.1718 0.103958 0.210005)
(10.5209 -0.558472 0.473363)
(5.03585 -0.110047 -2.56643)
(10.3071 0.02932 0.290233)
(8.93518 0.091561 -1.09432)
(12.042 -0.185978 2.40178)
(8.55407 -0.123748 -0.147007)
(10.5283 -0.171068 -1.65114)
(12.6665 -0.074859 -9.07585)
(11.3766 -0.114802 -2.13929)
(10.9855 -0.109169 -0.676339)
(10.4801 0.0728888 -0.63362)
(10.5458 -0.249852 -1.01913)
(9.77059 -0.0281058 -0.477256)
(9.76096 -0.223244 -0.788873)
(11.965 -0.325408 -2.57104)
(10.8681 -0.0882453 -3.95852)
(11.0084 0.053921 -1.4203)
(10.2099 -0.0714698 -4.34212)
(9.76023 0.142297 -0.845135)
(9.87605 -0.63645 6.223)
(8.61632 0.985436 5.64452)
(11.9612 -0.0461503 -0.0526755)
(9.62336 -0.339595 0.467654)
(7.71943 0.253016 1.17737)
(9.53672 -0.0609561 -0.314903)
(11.5872 0.136226 -0.385934)
(11.7793 -1.08193 9.48478)
(5.10589 0.513635 -3.27643)
(10.4719 0.00148769 -3.41132)
(12.0995 -0.213114 -10.6735)
(6.68918 -0.0550432 -0.726344)
(7.31108 0.184678 -4.1063)
(13.8995 0.53884 -3.09927)
(13.7689 1.53464 -6.60094)
(11.9475 0.0048015 0.226416)
(11.8999 0.0778648 0.611299)
(12.1408 -0.013384 0.561041)
(12.1474 0.130911 -0.305903)
(12.0594 0.109904 -3.82889)
(13.4843 -0.536552 -3.87139)
(11.8251 -0.0674172 -2.71261)
(13.5191 -0.221784 -1.80777)
(8.788 0.28701 -3.35773)
(8.45766 -0.122929 -3.45903)
(8.69114 0.0132452 -4.64798)
(11.1432 0.111021 0.567423)
(8.21664 0.143305 -1.21422)
(12.2704 0.138403 -2.16464)
(9.3064 -0.0739219 -0.628489)
(12.2475 -0.0021296 0.75057)
(4.71219 0.102888 -0.749126)
(10.053 -0.402881 -0.41722)
(8.06751 -0.664526 0.645332)
(5.95317 -0.12153 -1.30724)
(5.08703 0.169012 -3.69422)
(4.05518 0.229221 -4.77597)
(6.1818 0.189863 -8.23585)
(5.18519 -0.244701 -3.70423)
(11.9151 0.655274 -8.49844)
(11.8051 -0.0165143 0.714693)
(8.00242 -0.408436 1.33119)
(2.9838 0.219376 -7.34683)
(0.302003 0.328035 0.570409)
(5.92976 -0.42377 -5.70019)
(1.59545 0.239832 -6.52726)
(5.76901 0.228274 0.648542)
(6.94589 -0.309448 -3.23035)
(2.20325 -0.42079 -0.00407174)
(1.24405 0.133315 -1.90478)
(7.34263 -0.324551 -3.39347)
(9.29693 0.0512878 -0.697686)
(8.88964 0.089686 -0.863249)
(9.26099 0.0244924 -2.13928)
(9.50893 -0.44238 -0.365041)
(13.2563 -0.00342359 -0.726783)
(13.4906 -0.155732 -0.883584)
(14.3103 -1.18969 -4.18032)
(13.7048 -2.07836 -2.0529)
(11.2395 -0.0770554 -0.135329)
(11.0964 -0.124696 -0.355946)
(11.2874 -0.0843594 -0.133576)
(12.9078 0.0114893 0.655504)
(9.66557 0.199513 -0.0326629)
(10.8048 0.196867 -0.615641)
(9.93627 -0.126905 0.348615)
(13.3747 0.0164052 0.372362)
(12.5496 -0.0363524 0.71166)
(11.4607 -0.00190782 0.00882974)
(11.3797 -0.00986782 0.211108)
(11.508 0.0672481 0.0222809)
(11.6184 0.0451315 0.0782336)
(11.2483 -0.158829 0.708344)
(12.2315 0.249182 -4.97839)
(9.78162 -0.0168225 0.738854)
(10.0819 -0.164317 0.984362)
(2.15983 -0.0941283 4.5525)
(9.14255 0.324366 -4.10561)
(6.9852 0.359965 -4.91357)
(5.67965 -0.0273884 -4.87365)
(7.36454 0.161348 -2.53628)
(12.0395 0.162942 -0.940362)
(5.1217 -0.136539 -0.724269)
(10.3316 0.111021 -0.19684)
(9.7448 0.100359 -0.63357)
(11.0362 -0.0187314 -1.22862)
(11.1418 -0.0982387 -1.51401)
(14.3188 0.184992 -2.51985)
(14.0045 0.00396609 -4.01364)
(13.6705 0.17661 -1.64152)
(10.1081 -0.404611 -0.0553854)
(8.22331 -0.241111 -1.29296)
(9.08175 -0.0754375 -1.41051)
(9.55231 0.149656 -1.23682)
(9.61984 0.151502 -1.1584)
(9.51467 0.117588 -0.935264)
(12.6927 0.105562 0.37645)
(11.2854 0.0278632 -3.38545)
(10.9493 -0.00550435 -2.83117)
(13.2678 -0.44047 -1.46358)
(10.0911 -0.0958184 -0.781429)
(2.07895 -0.199767 -3.28085)
(11.46 -0.146871 -1.76517)
(8.84865 -0.364797 -3.62013)
(8.69315 -0.259264 -1.19903)
(5.63531 0.0382885 -1.97233)
(4.29499 0.116152 -0.876401)
(4.61834 -0.161069 -7.34021)
(9.08588 -0.000748276 -1.31428)
(8.89575 -0.245601 -0.750265)
(8.99998 -0.00562682 -1.18334)
(3.16063 0.0520223 -2.45884)
(11.4906 -0.00830399 -0.145428)
(14.1734 0.255031 -1.76206)
(10.6084 0.321419 0.801942)
(4.54305 0.781134 -7.66438)
(9.12766 0.240065 0.765569)
(11.4043 0.43759 -4.29698)
(7.05555 0.468325 -8.03541)
(10.4473 0.314369 -5.87408)
(2.76311 -0.296064 -2.60192)
(7.49215 0.269399 -4.09267)
(9.07573 0.173974 1.79963)
(8.84536 -0.382312 3.11498)
(8.87919 0.182248 1.2297)
(9.03737 0.0921656 -0.0648874)
(9.52135 -0.321186 -0.172136)
(8.57361 -0.221754 2.64712)
(6.66063 0.249135 -4.99666)
(5.81786 -0.120157 -3.33357)
(3.94014 -0.379777 -5.48953)
(3.54027 -0.381559 -4.21071)
(6.66149 -0.19599 -3.04177)
(4.06754 -0.403342 -3.23237)
(8.09564 0.0491197 0.972997)
(8.77511 0.0206383 0.042248)
(8.42657 0.00835612 0.0983989)
(9.59536 0.362554 0.478521)
(10.2631 -0.396586 -0.0539934)
(9.12738 0.00514802 1.10563)
(9.72536 0.229707 -0.430591)
(9.57626 0.104598 -0.743631)
(9.50266 0.171865 -4.07513)
(10.4843 0.0429152 -3.22183)
(11.2885 -0.0215475 -1.80636)
(13.6124 -0.256674 -0.125934)
(13.1857 0.058283 0.467849)
(12.5489 -0.0773913 0.107571)
(9.24654 0.0618725 -1.42061)
(10.0035 -0.109732 -2.34204)
(9.9743 0.424117 -0.720203)
(8.54085 -0.317007 -0.983692)
(8.58445 -0.0740586 -2.27744)
(9.37146 0.175109 -0.874579)
(9.93709 -0.163068 -1.41613)
(4.58648 -0.101079 -3.38772)
(9.60322 0.246393 -1.14735)
(8.71839 -0.163661 -0.945304)
(12.1107 0.1716 0.483594)
(12.1649 0.0121029 0.237401)
(13.6119 -0.0140492 -1.6501)
(12.4729 0.0870323 -1.34232)
(10.7728 0.260358 0.225618)
(11.5556 0.0861374 -0.913234)
(5.62285 0.22284 -1.26051)
(12.1596 0.0897169 0.616657)
(7.38789 0.00194141 -1.83783)
(8.51884 0.0382778 -2.5084)
(5.9738 0.138356 -1.90852)
(7.85394 0.271296 -3.11869)
(6.77278 0.0367136 -2.97342)
(8.41102 0.376544 -0.11374)
(8.3828 -0.0750839 -3.16297)
(7.5879 -0.0151393 -2.55821)
(6.60631 0.510063 0.848195)
(9.02464 0.362133 -1.18734)
(5.04031 0.0168285 -0.796795)
(10.7414 -0.0330567 -0.303698)
(11.0196 0.0282685 -0.583056)
(11.0657 0.0478531 -0.287623)
(4.14017 0.0354767 -1.47492)
(3.50717 0.313709 -1.81388)
(11.4156 0.0872697 0.544676)
(11.2556 0.38764 1.37882)
(11.5332 -0.110708 0.0469768)
(5.47732 0.177909 -0.233272)
(9.77009 0.0964353 -3.29697)
(9.26272 0.0626451 -2.70727)
(11.2968 0.992099 -7.40897)
(8.20815 0.101021 -2.98325)
(11.6503 -0.122872 0.741871)
(6.68934 -0.0553124 -0.910016)
(9.4747 -0.30978 0.536176)
(9.49443 -0.0527087 0.644667)
(6.93144 0.00715751 -0.282584)
(10.7434 0.0901067 -1.85791)
(11.5943 -0.0146976 -1.78524)
(9.53491 0.0361677 -4.36645)
(6.73417 0.0299347 1.87261)
(7.41399 0.105842 0.753378)
(7.59175 0.0629577 3.8053)
(8.0197 -0.412578 0.922071)
(7.83392 0.0953682 1.22301)
(6.31792 0.10508 1.49038)
(2.50272 0.610079 4.90508)
(4.78426 -0.205107 1.60797)
(8.45123 -0.010106 -1.57574)
(8.57127 0.189719 0.625133)
(8.99347 -0.0898927 -0.369253)
(9.52109 0.170682 -0.296998)
(9.33677 0.0976152 -0.0639083)
(8.33961 0.165941 4.26329)
(7.26491 -0.09498 -2.50241)
(7.61341 0.751881 -5.69781)
(5.81336 0.11756 -1.17716)
(6.96581 -0.0277786 -2.18619)
(9.19352 0.119542 -0.52321)
(9.28046 0.102098 -0.401867)
(9.09659 0.372507 -0.298687)
(11.061 0.241291 -0.0189277)
(10.7117 0.276136 -0.619935)
(10.4398 0.374844 -0.672608)
(10.677 0.173076 -0.735079)
(10.1247 -0.528449 -0.458107)
(9.04524 0.0663761 -1.09501)
(9.91692 0.304787 -0.848124)
(9.03558 -0.0135491 -0.982285)
(10.4466 0.0976608 -0.85017)
(10.4896 0.0729981 -2.80002)
(10.5543 -0.366013 -4.59562)
(10.6905 -0.279049 -0.112805)
(9.42401 -0.102307 -0.65126)
(9.62727 -0.155394 -0.864886)
(9.78235 0.135287 -0.840658)
(9.45221 -0.098867 -1.06412)
(9.0028 0.0995862 -0.368043)
(8.01965 -0.0159007 -0.50937)
(8.31834 0.385751 0.24939)
(5.17242 0.11876 0.644589)
(4.48277 0.236262 0.519658)
(5.01871 0.342912 -0.659389)
(7.86614 0.202101 0.670586)
(7.5178 0.251278 -0.21626)
(8.34459 0.196851 0.0110711)
(8.32701 0.278184 0.704866)
(8.67893 0.225975 -0.0162419)
(8.82811 0.236215 -0.294686)
(9.49308 0.0247687 0.429833)
(8.73702 0.73092 -0.108655)
(9.76858 0.26383 -0.313905)
(6.59267 0.123153 -0.987791)
(9.22015 -0.121038 0.0040086)
(11.034 0.188287 -0.915444)
(12.4787 0.160029 2.2029)
(8.49507 0.510245 1.47366)
(9.3295 0.235003 -0.245956)
(7.0935 -0.142969 -2.4595)
(10.9929 0.295708 -0.673906)
(11.0397 0.536628 -0.0137361)
(10.0102 -1.09023 1.40786)
(9.17897 0.466255 -1.07236)
(10.5967 0.0862472 1.1405)
(9.86236 -0.184967 -0.414373)
(2.92861 0.294665 1.22601)
(10.9342 -0.312971 0.398235)
(9.98956 -0.0577367 1.37811)
(9.81691 -0.0186173 1.98028)
(8.90552 0.481574 0.153891)
(9.62283 0.219773 -0.476111)
(9.68871 0.536617 -0.770037)
(9.36348 0.24726 -0.208516)
(9.86285 -0.108753 -0.350606)
(9.6979 0.0820431 0.383218)
(9.37221 0.0431533 -0.0336956)
(9.4343 0.0957278 -0.0207522)
(11.4886 0.119262 -0.602558)
(11.2814 0.0998654 -0.164441)
(8.94861 -0.0341856 0.813855)
(6.19341 0.177835 2.9454)
(12.1908 0.00563519 0.913657)
(11.2056 0.0816442 -1.25846)
(10.8131 -0.0265895 0.713263)
(11.1881 0.035875 -1.18159)
(10.4124 -0.0762011 -0.378405)
(8.33815 0.205057 -1.67631)
(4.46403 0.0422974 -3.8588)
(8.21962 0.0999908 -2.36)
(4.67025 0.179647 -5.60621)
(11.0624 0.173611 -4.62852)
(7.54784 0.0787842 -1.99287)
(8.74981 -0.531841 0.662583)
(9.78977 0.223396 0.287235)
(11.3629 0.267943 1.11317)
(9.88024 -0.114088 0.763784)
(10.3793 -0.129221 -0.103044)
(9.03228 0.0206511 0.0491905)
(12.8927 -0.00738852 -0.427997)
(2.89299 -0.332213 0.336539)
(9.25936 0.137233 -0.528521)
(8.96568 -0.0806868 -0.11961)
(6.61376 0.00778218 1.70663)
(9.34455 0.895537 -0.452585)
(13.2189 -0.113552 -4.16347)
(6.82871 -0.0529582 -2.28911)
(6.73556 -0.0954345 -0.279068)
(9.37327 -0.491094 0.354791)
(8.73612 -0.0938057 0.0208704)
(9.73141 0.209587 1.36224)
(9.40976 0.173883 -1.05878)
(10.5847 0.0117312 -0.35719)
(9.87221 -0.185436 -0.721442)
(9.84134 0.31474 -1.29057)
(9.79322 0.192467 -0.419503)
(9.84013 0.146665 -0.57897)
(12.4307 -0.0479613 -3.07113)
(11.9176 0.0144627 -0.170293)
(10.8904 0.183509 -0.922814)
(11.6437 0.0362252 0.178682)
(9.33787 0.068209 -0.0189638)
(7.97433 -0.18374 -1.00414)
(7.24649 0.0637148 -2.32248)
(10.5766 -0.05747 -0.27317)
(11.3463 -0.0222094 -0.415737)
(11.7143 0.107276 0.888125)
(10.558 0.192456 -0.804251)
(8.82266 0.275307 -3.06546)
(2.65454 0.315973 -12.5847)
(9.26614 -0.166736 0.0421704)
(11.9632 0.000337124 -0.896416)
(10.4817 -0.0221576 -0.559202)
(6.95882 0.226274 -0.346077)
(9.78821 0.0862724 -1.0285)
(12.4092 0.112942 0.603543)
(10.1508 0.430334 -1.38713)
(8.93774 -0.0595484 -0.651455)
(9.82778 0.193436 -3.12964)
(9.65597 0.135407 -0.999277)
(9.50515 -0.532259 0.840167)
(8.66144 -0.172891 0.255411)
(11.7621 0.21421 1.74282)
(8.85861 0.019575 1.28625)
(3.8315 0.0257145 -3.71752)
(4.22694 0.361987 -0.453364)
(13.298 1.13917 -7.09558)
(10.6262 -0.292657 -0.413187)
(8.88243 0.479333 3.67161)
(8.60362 0.062486 -1.57887)
(11.4358 -0.0466855 -0.12867)
(12.6718 -3.02277 -4.6531)
(13.0919 0.00415499 -1.33922)
(10.7797 -0.140186 0.562599)
(9.62564 0.0436779 0.0361372)
(9.66702 0.280433 -0.0173197)
(11.4895 -0.0527062 0.286316)
(0.0546592 -0.598316 0.149679)
(2.96211 0.187143 -0.552902)
(8.52123 0.035438 -2.40545)
(9.70027 0.146432 0.1825)
(10.7796 0.0439719 -1.04196)
(9.63412 -0.0535863 0.0110398)
(5.82439 0.59254 -12.2987)
(8.34182 -0.00350564 -1.14796)
(9.19276 -0.0790728 0.241903)
(13.425 -0.0191564 0.644785)
(8.8867 0.485887 -2.07146)
(9.92112 -0.090239 -0.971705)
(9.35292 0.910456 -1.26474)
(12.772 -0.255889 -2.19101)
(10.3617 -0.195532 -0.185396)
(11.9254 0.0599107 -1.05471)
(12.7094 -0.0283512 -0.626658)
(10.6724 -0.00989681 -0.969608)
(14.934 0.0869894 -4.39927)
(11.4553 -0.167746 0.222864)
(8.42832 0.259892 0.739689)
(9.78309 -0.936469 -8.30292)
(5.02969 0.399936 -4.88016)
(8.1749 0.126078 -0.827821)
(1.73476 -0.164452 -2.6572)
(1.07766 -0.061267 -3.91752)
(8.79532 -0.044253 -1.12226)
(1.86574 0.461665 -6.92517)
(9.07925 0.368623 -0.544684)
(9.23154 -0.292726 -0.765826)
(9.94717 0.0469355 -1.42027)
(6.33153 0.317023 -3.7137)
(7.39525 0.21287 0.264428)
(8.52479 -0.18939 2.9086)
(8.67071 0.115511 0.0761)
(11.716 0.900804 -0.964694)
(2.32052 0.46859 -6.71523)
(0.665426 0.238015 -2.83258)
(4.99806 0.102657 -1.88555)
(1.33798 0.154797 -3.03879)
(11.3692 0.0593253 -3.15216)
(8.70564 0.230245 -0.307658)
(9.44605 0.0075943 -3.00623)
(9.29932 -0.0179326 -2.23656)
(8.21454 -0.139588 -1.51928)
(13.5803 0.0211889 -1.35104)
(6.5647 -0.0198217 -3.8865)
(2.38139 0.164165 -3.14446)
(10.0305 0.0267855 1.49052)
(8.89 -0.212741 0.18122)
(12.2809 -0.0822307 -2.59405)
(11.6875 -0.00474182 -0.332456)
(7.11171 -0.110581 -3.00012)
(12.1865 0.111041 0.764996)
(6.65688 -0.219481 0.445776)
(9.56991 0.175484 -2.86245)
(10.0706 -0.131436 -0.198454)
(10.0753 0.287556 -0.00322655)
(9.73407 0.193743 -0.41637)
(11.0941 0.0349123 -0.954599)
(9.73164 -0.11528 0.0417704)
(13.7568 -0.0381474 -0.504101)
(9.66972 -0.390923 0.530535)
(13.6792 0.0928211 11.9926)
(8.03516 0.143352 -0.698658)
(8.69729 -0.390868 0.0320798)
(12.236 0.0550204 -1.01594)
(8.25721 1.056 5.223)
(0.415582 0.0576299 -4.39598)
(9.13879 0.0611316 -4.25319)
(6.16764 0.0466109 0.748986)
(11.9593 0.0960068 0.743142)
(10.002 -0.118564 -0.994793)
(11.09 -0.275588 -0.725735)
(9.89649 0.286127 -1.53326)
(10.5935 -1.65904 -2.04433)
(11.0612 -0.174204 0.162017)
(9.47246 -0.129035 -2.52362)
(7.14364 4.30628 0.395649)
(9.42012 -0.0428582 0.0718062)
(10.3357 -0.62167 0.393949)
(10.0951 -0.2926 1.09314)
(8.58416 -0.202184 -2.64572)
(10.6853 0.00594542 0.855032)
(4.00661 0.0131799 2.50641)
(15.6396 -0.878878 10.6942)
(10.9843 -0.0227777 -3.50258)
(10.5089 -0.385107 -0.346949)
(9.18332 -0.193009 1.32981)
(11.1768 -0.123268 -0.0803947)
(3.88372 0.0947825 -2.21163)
(9.52454 0.0773398 -0.508739)
(8.94025 0.310436 -1.18082)
(10.2948 -0.0749492 -6.27709)
(3.46201 -0.112545 -0.147453)
(4.2552 -0.226261 -4.43263)
(11.7498 -0.394944 -2.96085)
(11.5613 0.245611 -3.1209)
(7.32551 -0.181021 -2.59759)
(7.52927 3.28918 -3.79587)
(13.8146 0.116037 -1.48106)
(10.7049 -0.167264 -0.865661)
(11.4858 0.0611184 -0.541027)
(11.1635 0.295093 -3.66076)
(9.49081 0.0076758 -0.722906)
(10.3356 -0.168438 0.655883)
(12.3138 -0.775521 -7.3324)
(10.3635 -0.722823 0.327261)
(9.42567 -0.530989 0.644509)
(9.89513 -0.0659706 0.857793)
(9.17709 0.0559675 -0.0162973)
(9.16365 -0.108963 0.255811)
(10.4872 -0.0056777 0.386455)
(7.62491 0.235899 -0.727326)
(10.4626 0.0426004 2.15348)
(12.8475 0.291181 -1.14485)
(1.68159 0.472286 -9.07438)
(14.1631 0.268015 8.46985)
(12.2183 0.128612 -2.69366)
(9.45453 -0.307473 -0.859419)
(7.63661 -0.00457464 -2.89379)
(4.58385 -0.556145 -7.41974)
(5.41774 -0.124666 -5.41105)
(2.6041 -1.09845 -6.9071)
(14.5808 -1.29697 4.56016)
(12.5645 -0.124349 1.25494)
(9.78545 0.036525 1.04397)
(12.6378 0.362775 -0.891646)
(13.4457 0.0834436 -1.96025)
(13.498 -0.0134977 -0.939235)
(10.2994 0.0837767 -2.73346)
(7.14817 0.0282306 0.564517)
(5.56698 -0.0349221 -1.76944)
(10.884 -0.246597 -2.82125)
(13.935 -0.160615 -1.36556)
(9.24341 0.0263102 1.64714)
(1.35354 -0.161598 -5.59121)
(13.9739 -0.375135 -1.44358)
(12.4266 -0.087778 -2.04991)
(6.79403 -0.0666491 -2.88349)
(9.1027 -0.157601 -0.685167)
(11.9202 -0.039366 0.0616625)
(10.7498 0.176704 -0.41316)
(12.3737 -0.0398912 0.673754)
(12.1352 -0.0458726 0.456143)
(11.684 0.111874 0.273237)
(7.87353 -0.203445 -1.62025)
(11.5211 0.0278406 -0.575246)
(7.95627 -0.227369 -0.857951)
(11.7852 -0.184967 -1.72782)
(10.9499 -0.196472 0.683087)
(10.9533 -0.226127 -4.97484)
(11.092 -0.00982112 -1.13913)
(9.34615 -0.0761123 -0.788601)
(8.83506 -0.0388839 -0.858464)
(10.1199 -0.206941 -0.259729)
(11.0603 -0.543563 -6.70543)
(6.78146 0.283834 -1.93587)
(13.1254 -0.231161 -0.825109)
(10.2548 0.171733 1.02157)
(4.21272 0.102353 12.4261)
(7.63831 0.496323 11.1272)
(8.19273 -0.511728 -4.10014)
(10.8356 0.0254785 -0.867022)
(10.166 -0.0731072 -1.23704)
(11.8261 -0.206056 0.666107)
(11.068 0.172804 -4.27274)
(10.2751 0.581101 -0.509838)
(9.68498 -0.0507682 -0.834378)
(8.57698 0.0101265 -8.42475)
(12.074 -0.112907 0.597326)
(10.8036 0.0830041 -2.39681)
(11.9577 0.13323 -1.11784)
(10.2877 0.472231 -0.269409)
(10.8024 0.0684127 -0.50957)
(12.1279 -1.29463 -2.58079)
(11.8223 0.134883 -0.911919)
(10.865 0.0521372 -1.32654)
(10.8875 0.13752 -0.866615)