/*--------------------------------*- C++ -*----------------------------------*\
| =========                 |                                                 |
| \\      /  F ield         | OpenFOAM: The Open Source CFD Toolbox           |
|  \\    /   O peration     | Version:  2506                                  |
|   \\  /    A nd           | Website:  www.openfoam.com                      |
|    \\/     M anipulation  |                                                 |
\*---------------------------------------------------------------------------*/
FoamFile
{
    version     2.0;
    format      ascii;
    arch        "LSB;label=32;scalar=64";
    class       volScalarField;
    location    "0.0502279";
    object      k;
}
// * * * * * * * * * * * * * * * * * * * * * * * * * * * * * * * * * * * * * //

dimensions      [0 2 -2 0 0 0 0];

internalField   nonuniform List<scalar> 
47425
(
0.318608
0.35009
0.324754
0.326883
0.487524
0.333053
0.443882
0.33781
0.36689
1.20944
0.344918
0.334755
0.379798
0.325396
0.321648
0.342854
0.323264
0.3574
1.10644
0.548673
0.33113
0.325759
0.336819
0.327646
0.32561
0.318172
0.315526
0.864777
0.313777
0.319298
0.333068
0.329815
0.356172
0.318761
0.319282
0.334693
0.324545
0.363355
0.323693
0.329825
0.371039
0.460715
0.827019
0.378405
1.24105
0.362187
0.339916
0.350935
0.321208
0.318127
0.821936
0.623547
0.31612
0.882312
0.37777
0.368876
0.318958
0.317389
0.449683
0.326288
0.984056
0.849255
0.883069
0.342639
0.364463
0.325136
0.342654
0.373282
0.825675
0.335016
0.320784
0.315098
0.319817
0.328148
0.914142
0.36871
0.898861
0.324737
0.875717
0.548875
0.936496
0.3277
0.327917
0.348961
0.321865
0.330896
0.316436
0.316554
0.547107
0.645444
0.32929
0.349917
0.323733
0.373413
0.385739
0.370422
0.3207
0.316372
0.320098
0.366168
0.337539
0.451484
0.328365
0.472032
0.321796
0.373133
0.319157
0.327558
0.349845
0.331186
1.10371
0.331667
0.427922
0.356708
0.34465
0.852107
0.34057
0.664395
0.349215
0.34474
0.328545
0.362705
0.345318
0.361231
0.357703
0.404347
0.334176
0.364889
0.358584
0.322845
0.329586
0.340973
0.52658
0.359967
0.457047
0.35981
0.330366
0.410884
0.324077
0.322572
0.354387
0.381314
0.343372
0.467822
0.343443
0.366225
0.451102
0.341537
0.369702
0.36179
0.468783
0.81742
0.36032
0.831647
0.350791
0.336714
0.360466
0.953127
0.364369
0.34222
0.350924
0.319876
0.318767
0.327915
0.75862
0.878745
0.340856
0.92466
0.345079
0.898081
0.943702
0.36116
0.353933
0.338463
0.361385
0.398637
0.871716
0.313261
0.317639
0.321553
0.868955
0.314994
0.314106
0.32302
0.31977
0.338916
0.324231
0.442611
0.358705
0.314656
0.357996
0.316924
0.444909
0.365299
0.32404
0.331546
0.360538
0.338067
0.34396
0.307176
0.344294
0.366839
0.333843
0.334666
0.353643
0.377753
0.313248
0.329995
0.353918
0.361921
0.316692
0.320776
0.352481
0.32081
0.322659
0.325479
0.315342
0.604216
0.357118
0.358916
0.56899
0.297379
0.575366
0.315545
0.400368
0.547069
0.322546
0.337752
0.366999
0.402241
0.315324
0.331633
0.358049
0.369373
0.373354
0.333984
0.590311
0.348694
0.552824
0.37108
0.34284
0.313521
0.319832
0.328312
0.322368
0.362601
0.321561
0.357704
0.318076
0.32225
0.32176
0.530923
0.326861
0.365696
0.32965
0.31905
0.325423
0.37104
0.321015
0.357634
0.387068
0.352673
0.324607
0.367402
0.39093
0.359401
0.321666
0.388245
0.317876
0.336416
0.328563
0.537753
0.587465
0.319077
0.528314
0.379167
0.529478
0.475296
0.572438
0.566454
1.05432
0.316786
0.99317
0.374271
0.329206
0.316582
0.362682
0.331481
0.371275
0.357112
0.799809
0.340664
0.371308
0.318016
0.321306
0.340632
0.343096
0.320084
0.329577
0.378902
0.348495
0.318083
0.341634
0.317907
0.882439
0.885532
0.843677
0.320891
0.316972
0.32315
0.33689
0.83039
0.332825
0.340774
0.598996
0.356748
0.352207
0.376151
0.330384
0.655817
0.574349
0.32957
0.323241
0.314436
0.34977
0.317934
0.325332
0.317969
0.316725
0.319162
0.316969
0.862261
0.343547
0.322522
0.383861
0.321191
0.847813
0.332336
0.317481
0.32139
0.329095
0.328854
0.317385
0.326312
0.316563
0.320111
0.318713
0.327886
0.323794
0.353232
0.330921
0.325158
0.333804
0.328597
0.331498
0.360697
0.336116
0.32603
0.328985
0.360366
0.374146
0.358767
0.341074
0.334091
0.319125
0.332961
0.375225
0.358484
0.337187
0.32918
0.370715
1.12134
0.318139
0.33461
0.385666
0.332604
0.430129
0.36564
0.364445
0.324815
0.357654
0.33133
0.317212
0.355295
0.358272
0.364519
0.33625
0.326222
0.349912
0.334235
0.331442
0.335567
0.340364
0.319917
0.325252
0.329372
0.328956
0.333378
0.410802
0.317509
0.679245
0.319704
0.855548
0.345821
0.37384
0.364727
0.319744
0.359038
0.316252
0.346335
0.332211
0.634275
0.881445
0.317285
0.351518
0.32191
0.320913
0.330733
0.330245
0.318744
0.36454
0.335859
0.319515
0.322467
0.328074
0.316232
0.45574
0.319515
0.330193
0.519218
0.592504
0.323943
0.655916
0.60886
0.363556
0.595142
0.789117
0.319757
0.319733
0.321201
0.319224
0.815335
0.346496
0.318158
0.321347
0.3249
0.325429
0.333064
0.322164
0.736225
0.797529
0.529668
0.356413
0.418358
0.501181
0.322989
0.327686
0.368226
0.32637
0.355276
0.363126
0.377803
0.326421
0.369614
0.325048
0.320838
0.350156
0.332101
0.327407
0.324645
0.348765
0.35768
0.373876
0.350121
0.321183
0.35879
0.328022
0.775291
0.36479
0.413108
0.345453
0.364639
0.823922
0.348693
0.319942
0.351302
0.350576
0.331107
0.347763
0.361442
0.311582
0.342363
0.316312
0.339737
0.464555
0.315814
0.364857
0.326521
0.376804
0.318791
0.319769
0.32039
0.324351
0.333044
0.343071
0.324501
0.317048
0.322191
0.337157
0.338036
0.349306
0.346578
0.318942
0.326283
0.311607
0.313737
0.325876
0.346766
0.3244
0.350411
0.363312
0.375397
0.798926
0.33024
0.324235
0.343849
0.365736
0.468483
0.472185
0.350139
0.32157
0.353959
0.444558
0.329089
0.481008
0.362396
0.690723
0.363765
0.365581
0.320276
0.472208
0.323176
0.325031
0.333059
0.325839
0.317144
0.313853
1.03948
0.322329
0.372611
0.322613
0.451616
0.317578
0.319663
0.431566
0.420933
0.33106
0.319038
0.291191
0.317322
0.327108
0.316784
0.318636
0.320103
0.392526
0.463494
0.337998
0.320618
0.333469
0.322522
0.545227
0.329743
0.326076
0.255286
0.329589
0.319451
0.354068
0.775241
0.330951
0.223657
0.242382
0.315576
0.347416
0.316229
0.324407
0.366207
0.354775
0.826124
0.327577
0.357103
0.318145
0.468193
0.387776
0.369794
0.330492
0.848405
2.20989
0.322858
0.336715
0.333056
0.331927
0.37286
0.385096
0.328827
0.339875
0.378955
0.308611
0.360252
0.490337
0.357355
0.322761
0.496384
0.350658
0.324599
0.339667
0.348444
0.317137
0.361942
0.38284
0.377225
0.344624
0.325319
0.321061
1.03479
0.335365
0.40432
0.841996
0.811309
0.321732
0.365803
0.774161
0.360201
0.438559
0.789994
0.376798
0.835171
0.319837
0.320824
0.355032
0.524602
0.381532
0.375573
0.316585
0.376681
0.322409
0.329573
0.320115
0.353394
0.338936
0.757379
0.728191
0.352421
0.357722
0.354911
0.333998
0.377307
0.351807
0.352523
0.360605
0.343612
0.34027
0.358185
0.35481
0.318782
0.409189
0.372791
0.861686
0.57696
0.353624
0.328405
0.363347
0.320318
0.866633
0.326336
0.922989
0.361521
0.450296
0.356211
0.336587
0.337548
0.31222
0.374072
0.325716
0.313283
0.396996
0.404547
0.368558
0.404931
0.361407
1.23898
0.35669
0.379764
0.384281
0.363681
0.318258
0.368113
0.334554
0.402945
0.342199
0.333846
0.371047
0.334611
0.340949
0.326089
0.323296
0.49805
0.575292
0.320175
0.459391
0.320916
0.339352
0.318673
0.318501
0.503102
0.311379
0.32506
0.329697
0.319098
0.695375
1.19822
0.332314
0.336511
0.320247
0.349875
0.313954
0.340376
0.343171
0.570429
0.339671
0.320635
0.334516
0.321403
0.325904
0.32576
0.317482
0.327501
0.321713
0.316667
0.346265
0.56778
0.319219
0.257638
0.629595
0.577216
0.247943
0.347145
0.939972
0.376213
0.353069
0.528055
0.296311
0.849626
0.346457
0.317522
0.481093
0.348979
0.583098
0.332497
0.355266
0.318961
0.324921
0.438307
0.359087
0.338242
0.355591
0.48968
0.39322
0.348576
0.378432
0.511425
0.487468
0.560498
0.919712
1.0299
0.646188
0.678405
0.363108
0.364973
0.323003
0.319602
0.353886
0.298425
0.344684
0.348842
0.358486
0.322509
0.301992
0.303043
0.3204
0.390529
0.338753
0.320927
0.374863
0.320946
0.325105
0.323392
0.354902
0.449912
0.320305
0.320845
0.319429
0.366298
0.358025
0.548952
0.459977
0.317109
0.35465
0.31505
0.32235
0.322775
0.358376
0.364821
0.539838
0.32589
0.321736
0.322833
0.414902
0.901094
0.336796
0.33649
0.422717
0.35552
0.343478
0.357265
0.34465
0.376802
1.3184
0.452374
0.870287
0.366858
0.413779
0.319442
0.40653
0.324834
0.345902
0.352884
0.326951
1.19359
0.457536
0.37759
0.498783
0.377575
0.315607
0.342225
0.419678
0.326564
0.359847
0.236679
0.32325
0.407542
0.377807
0.399012
0.744839
0.379875
0.376176
0.525503
0.324234
0.324585
0.456217
0.555748
0.340178
0.432761
0.474665
0.336445
0.335952
0.319825
0.344197
0.359651
0.35738
2.12485
0.721483
0.383817
0.549583
0.53042
1.49102
2.38383
0.543579
0.367858
0.360779
0.373549
0.37649
1.10312
0.323071
0.349108
0.372812
0.353883
0.34626
0.351238
0.363407
0.317805
0.388313
0.498676
0.363489
0.996284
0.320579
0.400371
0.376584
0.365708
0.357316
0.350059
0.374815
0.468906
0.36849
0.389867
0.487425
0.345287
0.324968
0.352359
0.442209
0.31985
0.417621
0.370401
0.378635
0.671151
1.09856
0.317935
0.363504
0.33728
0.361899
0.36508
0.700627
0.553974
1.5421
0.325148
0.386707
0.343012
0.880004
0.324432
1.45675
0.405373
0.385748
0.512565
0.618999
0.331284
0.316827
0.325563
0.340598
0.473621
0.336552
0.418738
0.857782
0.417049
0.318032
0.319528
0.709218
0.906066
0.527691
0.56191
0.944738
0.40443
0.365427
0.414831
0.322978
0.501459
0.376155
0.391173
1.39433
0.34568
0.318637
0.322465
0.357408
0.405629
0.377949
0.341555
0.336637
0.477294
0.322953
0.339091
0.320802
0.352928
0.374118
0.393711
0.362167
0.348423
0.331355
0.387603
0.323345
0.320905
0.331993
0.335791
0.395868
0.492367
0.348672
0.382795
0.320993
1.64036
0.384254
0.369408
0.341675
0.988733
0.686428
1.08463
0.329155
0.34959
0.351979
0.744442
0.374321
0.357458
0.397148
0.36116
0.362123
0.868608
0.369866
0.332938
0.368057
0.371612
0.318476
0.611709
1.01916
0.323624
1.01035
0.3488
0.687416
0.618215
0.321734
0.357297
0.374657
0.643315
0.350023
0.353146
0.352537
0.776575
0.488363
0.626509
0.322871
0.336124
0.318967
0.327828
1.14639
1.17353
0.356576
0.381148
0.396252
0.72774
0.327217
0.316041
1.44838
1.10554
0.35685
0.333734
0.914651
1.338
0.916046
0.375621
0.698844
1.05558
0.784467
0.331875
0.470277
0.462453
0.343455
0.354233
1.18897
1.43593
0.379757
0.386196
0.347623
0.33386
0.358491
0.33796
0.512018
0.33548
0.366939
0.321369
0.353887
0.995864
0.957863
0.333877
0.603726
0.447771
0.329057
0.545524
0.315207
0.345373
0.323684
0.355433
0.392626
0.318263
0.772131
0.325633
0.889727
0.694911
0.76419
0.408477
0.417303
0.347736
0.36428
0.326058
0.570957
1.14809
0.359277
0.90082
0.54519
0.831384
0.492416
0.932868
0.735747
0.338395
0.325339
0.940514
0.33878
0.334898
0.326508
0.729765
0.715569
0.326218
0.348773
0.653555
0.433914
1.02623
0.824651
0.357027
0.480858
1.04996
0.35162
0.344391
0.758972
0.329259
0.79904
0.853291
0.32863
0.321149
0.334515
0.320483
0.376363
0.321809
0.327399
0.367099
0.375119
0.494987
0.362402
0.336276
0.523732
0.848522
0.848865
0.363575
0.359301
0.562681
0.333231
1.00292
0.342277
0.355982
0.362218
1.42332
0.348555
1.87982
0.387493
0.523246
0.363496
0.814017
0.650473
0.633893
0.43984
0.566099
0.3877
0.363531
0.408479
0.60454
0.474117
0.479169
0.815988
0.388163
0.471148
0.896075
0.367237
0.321378
0.777854
1.93895
0.328158
0.348326
0.359398
0.379489
0.971181
0.989654
0.318604
0.337984
0.359161
0.783348
0.356002
0.625348
0.394811
0.347352
0.352822
0.494396
0.376333
0.644251
0.633867
0.360104
0.396179
0.455978
0.3368
0.940132
1.71822
0.350057
0.888817
0.852023
0.376773
0.693119
0.360632
0.381118
1.02013
0.381824
0.983032
1.4274
0.342659
0.387066
0.445849
0.365351
0.353383
0.409208
0.513448
0.430561
0.335153
0.408835
0.339558
0.886526
0.411704
0.368245
0.379953
0.56516
0.324747
0.863232
0.721265
0.380992
0.819081
0.867324
0.319317
0.495826
0.5688
0.364599
0.359889
0.531464
0.724232
0.521727
0.792758
0.32615
0.788634
0.465416
0.31765
0.402109
0.375431
0.514563
0.355166
0.404024
0.638415
0.317888
0.608132
0.365439
1.37222
0.388152
0.314163
0.379502
0.548656
0.376975
0.684398
0.455311
0.339989
0.838539
0.321384
0.347094
1.15376
0.317925
0.384423
0.737763
0.353446
0.77221
1.38171
0.375434
0.423929
0.321048
0.921746
0.671031
0.800657
0.744068
0.428548
0.355922
0.447958
0.905795
1.07644
0.825473
0.356077
0.357606
0.362005
0.332826
0.381055
0.741635
0.352999
0.336274
0.355865
0.318268
0.341214
0.359081
0.335416
0.349847
0.36597
0.45659
0.324226
0.369547
0.591802
0.337675
0.321936
0.381363
0.365607
0.359504
0.318843
0.349272
0.346495
0.334348
0.376161
0.68763
0.345467
0.340528
0.323384
0.32181
0.545059
0.327063
0.327556
0.69421
1.23694
0.740829
0.334509
0.675588
0.496691
0.330313
0.644581
0.448956
0.624978
0.362633
0.331886
0.353031
0.407721
0.327101
0.369255
0.383265
0.37214
0.325362
0.32509
0.367618
0.526294
0.358407
0.428341
0.879328
0.347598
0.687268
0.418847
0.881946
0.316914
0.368742
0.363573
0.320052
0.334885
0.367124
0.320602
1.39486
0.598886
0.871229
0.383308
1.05738
0.320276
0.343808
0.536215
0.325459
0.804216
0.428777
0.634888
0.316207
0.966312
0.953866
0.330314
0.318017
0.951303
0.337255
0.715494
0.325553
0.366993
0.325486
0.322682
0.327686
0.339503
0.344834
0.627663
0.409165
0.390073
0.350163
0.33196
0.324
0.361769
1.12368
0.368517
1.86559
0.548737
0.324699
0.378535
0.343623
0.339584
0.339639
0.369009
0.350269
0.362912
0.338288
0.307915
0.360154
0.364273
1.34253
1.41223
0.365077
0.367322
1.06289
0.346881
0.319596
0.320026
0.318776
0.35871
0.378173
0.400081
0.379034
0.343443
0.320834
0.414765
0.317712
0.309883
0.334323
0.750126
0.391649
0.858397
0.778561
0.847774
0.335279
0.323012
0.315291
0.316779
0.320649
0.660522
0.337161
0.31972
0.340158
0.360482
0.321155
0.492974
0.31877
0.376293
0.463794
0.34818
0.319387
0.324969
0.343372
0.347206
0.323395
0.351221
0.331786
0.518569
0.329397
0.350378
0.392624
0.331323
0.334757
0.321147
0.345107
0.320758
0.372743
0.393722
0.320431
0.314984
0.323605
0.329166
0.323584
0.364199
0.318988
0.321587
0.319167
0.336711
0.8531
0.331392
0.442746
0.31631
0.320945
0.762005
0.335241
0.366402
0.316596
0.329773
0.356864
0.373855
0.769274
0.37448
2.10329
0.319216
0.327473
0.364724
0.322101
0.319614
0.382329
0.345194
0.320015
0.320976
1.00692
0.450379
0.688357
0.373542
0.581847
0.370306
0.315131
0.389785
0.954394
0.363798
0.325925
0.325919
0.809708
0.321268
0.332254
0.34859
0.341847
0.32835
0.81231
0.324085
0.34125
0.347952
0.340918
0.383597
0.943365
0.837845
0.325537
0.322293
0.321878
0.376963
0.354168
0.318834
0.821298
0.928741
0.320009
0.357782
0.800619
0.328139
0.62262
0.468723
0.319459
0.322311
0.324746
0.32967
0.644068
0.34701
0.342137
0.341308
0.381051
0.333073
0.361548
0.610654
0.362928
0.505674
0.521523
0.444703
0.607944
0.363031
0.387728
0.409353
0.379197
0.350152
0.341723
0.852963
0.615914
0.377904
0.371803
0.3606
0.362727
0.349975
0.380259
0.32418
0.317571
0.357144
0.350243
0.513333
0.441165
0.900794
0.734
0.351787
0.377911
0.333203
0.335086
0.365131
0.321185
0.339034
0.319126
0.320763
0.358851
0.317551
0.321871
0.327943
0.649679
1.11261
0.365727
0.316441
0.471313
0.522536
0.857233
0.332996
0.797866
1.82485
0.704431
0.843335
0.418072
0.320385
0.318067
0.360629
0.888644
0.316825
0.372722
0.348469
0.319891
0.723477
0.66856
0.643846
0.340205
1.52861
0.317198
0.32577
0.356358
0.356875
0.786556
0.855263
0.275313
0.456935
0.280228
0.389762
0.325709
0.932939
0.353736
0.893789
0.371996
0.885462
0.355563
0.5065
0.448679
0.557811
0.380217
0.382764
0.541579
0.352839
0.354456
0.415865
0.397577
0.360743
0.343051
1.27968
0.697373
0.34335
0.632457
0.830498
0.618944
0.328672
0.324451
0.84924
0.716703
0.796666
0.326128
1.07223
0.325632
0.880509
0.733201
0.643941
0.695858
0.317788
0.376465
0.325271
0.335412
0.338714
0.531818
0.430575
0.320323
0.318381
0.365916
0.337659
0.319622
0.322545
0.479303
0.320324
0.314871
0.349084
0.335157
0.444611
0.344886
0.379011
0.37331
0.321127
0.448634
0.461698
0.321604
0.325437
0.500421
0.677243
0.342379
1.42562
0.366191
0.445465
0.749276
0.418336
0.346636
0.320261
0.518829
0.337633
0.315204
0.371826
0.334093
0.324661
0.339671
0.325726
0.31971
0.331504
0.347601
0.336491
0.372961
0.717259
0.331679
0.336465
0.334907
0.343412
0.439291
0.829495
0.345044
0.328103
0.346154
0.602884
0.411459
0.34095
0.34471
0.877174
0.36184
0.387972
0.372646
0.422236
0.350046
0.359101
0.343782
0.539597
0.378909
0.365937
0.956922
0.340224
0.399437
0.353021
0.358925
0.354532
0.391667
0.338493
0.337823
0.32492
0.368629
0.333294
0.357765
1.4418
0.326137
0.435188
0.376278
0.345592
0.693716
0.379055
0.424201
0.366411
0.603474
0.670774
0.35166
0.32737
0.39588
0.405258
0.357243
0.325482
0.819893
0.481624
0.39032
1.47767
0.441164
0.330664
0.531668
0.573745
1.23727
0.662281
0.404846
0.588784
0.3758
0.576763
0.493999
0.888777
0.346422
0.404309
0.333453
0.636707
0.373881
0.410691
0.351955
0.365617
0.360193
0.394882
0.640468
0.345378
0.370726
0.398795
0.522341
0.794334
0.432202
0.76847
0.370346
1.05719
0.37339
0.374655
0.843243
0.565134
0.735445
0.632387
0.684501
0.584309
0.334765
0.32907
0.335407
0.395775
0.369776
0.817097
0.367245
0.388884
0.324634
0.490606
0.362665
0.324119
0.894385
0.407306
0.531161
0.275426
0.410399
0.351331
0.362665
0.366456
0.394167
0.32683
0.3145
0.353296
0.408757
0.240329
0.232658
0.483856
0.371693
0.35671
0.433685
0.470882
0.380553
0.364856
0.36854
0.216511
0.383913
0.411314
0.264785
0.373875
0.833502
0.598956
0.347767
1.0363
0.391694
0.498332
1.42795
0.394224
0.376524
0.328534
0.733388
0.32349
0.320762
0.375441
0.374774
0.403469
0.349612
0.566541
0.3606
0.504653
0.32779
0.380403
0.369048
0.316183
1.12209
0.522161
1.07792
0.557367
0.31607
0.911372
0.502925
0.322301
2.35064
0.322927
0.319225
0.478968
0.48351
0.982644
0.722571
0.364502
0.714272
1.40293
0.33924
0.599424
0.988754
0.51329
1.36672
0.396777
0.335342
0.617913
0.696257
0.388844
0.971724
0.377255
0.350343
0.546703
0.377029
0.329214
0.370316
0.798439
0.749028
0.315876
0.54036
0.330719
0.380843
0.352205
0.378276
0.602239
0.445057
0.767723
0.351569
0.36069
0.753057
0.322264
0.337104
0.476275
0.325878
0.35977
1.01968
0.351497
0.924197
0.83508
0.851577
0.815045
0.376381
0.412101
0.318639
0.316758
0.43504
0.323863
0.327615
0.397369
0.33105
0.430313
0.920214
0.323662
0.536751
0.331854
0.487287
0.378803
0.885095
0.365334
0.474406
0.329145
0.338886
0.40845
0.325463
0.345545
0.334452
0.318972
0.554313
0.326373
0.376129
0.374739
0.336551
0.364845
0.357098
0.37509
0.701761
0.349727
0.326572
0.335632
0.405873
0.241272
0.67072
0.499681
0.687642
1.01977
0.419747
0.440458
0.144706
0.314446
0.910387
0.418141
0.550401
0.41339
0.758553
0.723448
1.30939
0.377625
0.348036
0.549624
1.04217
0.361861
0.348316
0.46654
0.385517
0.42644
0.419033
0.866004
1.37763
0.286551
0.391577
0.20893
0.351763
1.15869
0.343306
0.359158
0.330728
0.325766
0.463868
0.331632
0.611375
0.487575
0.327243
0.383575
0.327077
0.567039
0.651535
0.342801
0.435528
0.377344
0.926833
0.45896
0.356465
0.546393
0.543144
0.318255
0.327512
0.359631
0.321329
0.669436
0.325255
0.450707
0.625375
0.33429
0.357663
0.328313
0.329331
0.594191
0.39038
0.53838
0.318467
0.319562
0.581578
0.803926
0.326832
0.345092
0.326313
0.324412
0.646568
0.451948
0.813355
0.357657
0.323912
0.463973
0.39711
0.358579
0.328254
0.387123
0.37857
0.562454
0.464548
1.54682
0.418355
0.431656
0.327984
0.374372
0.839305
0.992164
0.409517
0.906314
0.362502
0.968682
0.43648
0.746709
0.481788
0.528485
0.393459
0.340067
0.370601
0.425245
0.572583
0.358412
0.378647
0.993343
0.374537
1.61196
0.373298
0.348517
0.374371
0.581516
0.419731
0.326312
0.849202
0.321121
0.334333
0.31975
0.366212
0.853478
0.495405
0.335806
0.526903
0.347292
0.356388
0.327771
0.337822
0.42787
0.406651
0.417871
0.35944
0.332808
0.410322
0.35147
0.316617
0.416722
0.373847
1.55019
0.378566
0.468833
0.361346
0.412953
0.36488
0.433108
0.317608
0.365677
0.346507
0.349133
0.378371
0.842318
0.317905
0.635841
0.512372
0.391321
0.379799
0.363586
0.382527
0.449603
0.656275
0.327468
0.352685
0.358586
0.512326
0.392163
0.318553
1.2264
1.04411
0.657845
0.322398
0.326914
0.513534
0.353424
0.353807
0.511912
0.364432
0.34075
0.374342
1.09493
0.325442
0.585253
0.32313
0.340351
0.434588
0.340028
0.384123
0.468028
0.326614
0.596656
0.41403
0.411053
0.454162
0.945181
0.330908
0.35997
0.372336
0.40203
0.363516
0.366531
0.317128
0.317269
0.374473
0.590025
0.377114
0.367056
0.962099
0.374794
0.633044
0.358412
0.383032
0.402925
0.347863
0.757504
0.358354
0.509329
0.375641
0.35509
0.350667
0.397105
0.573737
0.460007
0.33015
0.632895
0.376944
0.759214
0.766993
1.01715
0.333033
0.463578
0.377705
0.24673
0.401738
0.271438
0.44879
0.236834
0.406487
0.73667
0.411117
0.631419
0.698001
0.370283
0.259132
0.437978
0.996709
0.527468
0.693937
1.36893
1.68053
0.666252
0.835314
0.332648
0.357693
0.756543
0.397819
0.929377
0.381073
0.774204
0.776731
0.345289
0.371249
0.338274
0.31819
0.360874
0.317921
0.736202
0.392905
0.368698
0.560874
0.333767
0.360651
0.316558
0.347916
0.358603
0.360111
0.396967
0.320045
0.417175
0.910459
0.320258
0.329649
0.35309
0.326104
0.741915
0.879001
0.400364
0.423564
0.556921
0.320675
0.312362
0.350066
0.3723
0.335919
0.343109
0.330941
0.324722
0.425942
0.323023
0.376296
0.340841
0.319684
0.325194
0.788432
0.336512
0.35197
0.322523
0.435019
0.358578
0.356766
0.717049
0.41771
0.34981
0.395165
0.349454
0.379904
0.391698
0.370846
0.333047
0.379765
0.366521
0.338407
0.363096
0.359609
0.439601
0.461971
0.341605
0.345766
0.408747
0.439974
0.487371
0.575474
0.89959
0.939504
0.34894
0.328078
0.922186
0.540555
0.570024
0.333031
0.322219
0.342641
0.31696
0.34153
0.326097
0.330499
0.359916
0.322569
0.328059
0.325662
0.334102
0.326699
0.539745
0.384986
0.354715
0.329168
0.332876
0.637589
0.320253
0.327267
0.404107
1.05417
0.558629
0.374201
0.362265
0.338358
0.37362
0.476791
0.708822
0.412351
0.337647
0.368296
0.336815
0.334342
0.375798
0.439953
0.367564
0.329414
0.404918
0.406326
0.63597
0.401299
0.747568
0.586049
0.390576
0.398213
0.336828
0.348859
0.377183
0.318194
0.333928
0.616291
0.336039
0.35276
0.721737
0.355126
0.371731
0.525064
0.403907
0.327497
0.357069
0.330155
0.362101
0.734483
0.35382
0.436276
2.51971
0.586171
1.14464
0.850237
0.338022
0.348054
0.540477
0.322631
0.565034
0.501215
0.705896
0.369858
0.32172
0.78519
0.321469
0.554746
0.422922
0.330112
0.73085
0.85592
0.319443
0.330784
0.907457
0.319046
0.324237
0.323387
0.321178
0.351746
0.564123
0.586328
0.34814
0.813101
0.338067
0.345935
0.328478
0.880704
0.342705
0.922275
0.322937
0.362304
0.323875
0.440033
0.336198
0.51744
0.320789
0.661818
0.481835
0.483514
0.714853
0.341637
0.341277
0.865702
0.455647
0.352542
0.425984
0.644109
0.346503
0.435071
0.332779
0.603063
0.413386
0.32806
0.31825
0.466022
0.337158
0.391338
0.358259
0.320145
0.345634
0.324823
0.326777
0.341845
0.734
0.332719
0.325827
0.324053
0.33574
0.325774
0.344129
0.322427
0.370184
0.439749
0.386199
0.383553
0.328472
0.349311
0.340411
0.387111
0.88673
0.403874
0.773576
0.334312
1.45591
0.372781
0.520586
0.379521
0.376947
0.385962
0.330283
0.319454
0.355199
0.360897
0.314237
0.335722
0.322546
0.684603
0.321857
0.338019
0.376415
0.83659
0.21465
0.347178
0.819297
0.899929
0.624233
0.566223
1.07461
0.170439
0.415388
0.335198
0.355402
0.422537
2.10251
0.574962
0.394347
0.322419
0.322324
0.770027
0.35307
0.576242
0.581122
0.381355
0.593706
0.372833
0.614052
0.327479
0.366334
0.349558
0.318572
0.392635
0.316278
0.355248
1.11943
1.10341
1.0933
0.459282
0.807752
0.340903
0.315146
0.321194
0.37352
0.322279
0.378127
0.328818
0.418793
0.381016
0.318282
0.321844
0.367578
0.319697
0.340084
0.365659
0.328662
0.36424
0.521942
0.342371
0.38109
0.82988
0.372406
0.71681
0.836024
0.359684
0.392783
0.320914
0.485608
0.36676
0.378769
0.663672
0.324169
0.390418
0.354413
0.374938
0.328716
0.33327
0.488897
0.52908
0.375504
0.361524
0.796717
0.391423
0.642474
0.591028
0.360519
1.02904
0.445119
0.385655
0.36232
0.351665
0.406343
0.362632
0.30856
0.332851
0.243535
0.594616
0.227409
0.336612
0.369977
0.434907
0.211888
0.805641
0.342385
0.369652
0.398925
0.274437
0.402735
0.701169
1.79572
0.372913
0.334825
0.366671
0.620709
0.327439
0.383575
0.377789
0.334375
0.356624
0.341069
0.593117
0.331768
1.56356
0.389698
0.974513
0.337872
1.20348
0.834215
1.13234
0.353839
0.347276
0.475131
0.372359
0.339557
0.375165
0.343137
0.821028
0.319335
0.476749
0.623776
0.319338
0.327713
0.330114
0.331357
0.359251
0.360525
0.397029
0.397606
0.372077
0.353469
0.405463
0.343975
0.450169
0.334721
0.372155
0.326372
1.70559
1.11482
0.380488
0.446973
0.318342
2.24604
0.316242
0.321586
0.361692
0.318807
0.379582
0.362403
0.319865
0.314945
0.345424
0.94455
0.620578
0.37089
0.818392
0.322747
0.36142
0.334754
0.359573
0.806214
0.388831
0.850657
0.317196
0.338058
0.802419
0.895413
0.345624
0.345014
0.64471
0.377049
0.368366
0.493099
0.391657
0.376806
0.422124
0.377407
0.31418
0.384969
0.358115
0.486991
0.322097
0.365741
0.320048
0.341015
0.799008
0.688772
0.336005
0.350639
0.345269
0.360662
0.335509
0.538349
0.337493
0.354444
0.38015
0.356058
0.447343
0.405186
0.492893
0.381355
0.314791
0.329388
0.322401
0.381632
0.313283
0.539282
0.444574
0.328537
0.677004
0.344247
0.320548
0.362887
0.323214
0.375887
0.643371
0.343333
0.438531
0.369201
0.970737
0.397958
0.379457
0.373792
0.725323
0.375785
0.540006
0.374318
0.408003
0.352731
0.416839
0.391566
0.725713
0.458187
0.363196
0.336458
0.331813
0.561989
0.346683
1.05501
1.65091
0.375895
0.427954
0.357457
0.479701
0.455944
0.391366
0.896957
0.484959
0.669293
0.322815
0.393885
0.9957
0.490187
0.359031
0.476049
0.337068
1.11816
0.392536
0.386486
0.333174
0.32159
0.32557
0.347802
0.322739
1.53144
0.326673
0.651038
0.323151
0.430629
0.397993
0.534259
0.346752
0.351801
0.339479
0.590724
0.469533
0.515209
0.32388
0.326055
0.457389
0.374975
0.362549
0.321743
0.320195
0.321831
0.341572
0.320555
0.377321
0.32677
0.56218
0.434729
0.977211
0.772755
0.620245
0.571163
0.392853
0.400125
0.318106
0.598959
0.332754
0.34616
0.331154
0.463548
0.503531
0.333409
0.427514
0.797348
0.490822
0.323326
0.322697
1.31867
0.830714
0.386135
0.876438
0.888018
0.651268
0.769403
0.584934
0.73935
0.407651
0.648565
0.786283
0.319365
0.327157
0.313637
0.474864
0.615095
0.33571
0.321324
0.404099
0.365265
0.387581
0.842978
0.485891
0.963152
0.352292
0.321581
0.339638
0.320101
0.36433
0.825412
0.71161
0.693238
0.773809
0.325924
1.00547
0.831704
0.322641
0.533205
0.47709
0.786631
0.374531
0.480094
0.782623
0.798942
0.476062
0.855652
0.508784
0.765847
0.372033
0.346248
0.384832
1.08446
0.776344
0.396188
0.339837
0.565271
0.447262
0.588453
0.358744
0.379475
1.11762
1.2113
0.249997
0.325197
0.264611
0.321886
0.242904
0.387128
0.466365
0.616534
0.223092
0.440028
0.498772
0.150096
0.463791
1.54961
0.420633
0.386521
0.734024
0.339854
0.503677
0.332772
0.317516
0.33693
0.350467
0.824902
0.71191
1.40535
0.396722
0.392946
0.619821
0.37985
0.461871
0.412806
0.364528
0.339849
0.597301
0.379924
0.403082
0.330998
0.426595
0.410273
0.77198
0.474311
0.817071
0.96528
0.788605
0.373731
0.407455
0.734554
0.33037
0.56315
0.363616
0.393733
0.328506
0.816072
0.614428
0.600956
1.03052
0.619492
0.320689
0.438405
0.873613
0.82973
0.394016
0.359335
0.470053
1.02228
0.359356
0.322903
0.363859
0.343899
0.765193
0.33385
0.629635
1.07125
0.84826
1.64339
0.550052
0.467955
0.808067
1.27462
0.877919
0.59933
0.754178
0.919404
0.54195
0.385066
0.454362
0.356508
0.312785
0.325842
0.428076
0.530234
1.54548
0.364947
0.391396
0.405335
0.377832
0.462016
0.574535
0.481844
0.370734
0.38183
1.02043
1.10918
0.225189
0.399986
0.338756
0.372169
1.44076
0.828543
0.372125
0.672326
0.337549
0.433381
0.477202
0.580932
0.346953
0.3453
0.331318
0.394761
0.904308
0.45591
0.360377
0.814415
0.321732
0.92997
0.710367
0.475843
0.704454
0.370285
0.322831
0.329341
0.328119
0.361904
0.407979
0.333081
0.347112
0.332982
0.328504
0.521804
0.700184
0.741704
0.330396
0.482102
0.369495
0.397263
0.351943
0.674924
0.363848
0.345525
0.343639
0.32097
0.336293
0.337345
0.463264
0.31699
0.362351
0.377859
0.624106
0.332929
0.400069
0.500159
0.811128
0.881773
0.392192
1.03372
0.566477
0.378614
0.355698
0.539559
0.335813
1.52708
0.434467
0.325819
0.433413
0.537371
0.413748
0.467372
0.734343
0.800341
0.465568
0.835669
0.348705
0.318893
0.403249
0.324202
0.323495
0.418142
0.328761
0.326397
0.584704
0.321652
0.298517
0.956166
0.618584
0.321387
0.323691
0.736948
0.340359
0.334104
0.593627
0.331897
0.744347
0.412707
0.782198
0.327218
0.553327
0.452921
0.688335
0.33116
0.446831
0.328915
1.15687
0.364331
0.323948
0.860107
0.431522
0.507599
0.361812
0.377722
0.373685
0.329438
0.506305
0.328745
0.328913
0.314719
0.450921
0.5569
0.326972
0.33298
0.327638
0.326492
0.339958
1.07415
0.323877
0.458085
0.323225
0.589682
0.357515
0.375441
0.364624
0.476929
0.342072
0.436604
0.314133
0.343137
0.344233
0.36007
0.325693
0.441871
0.418694
0.869363
0.926863
0.80627
0.400659
0.352953
0.349095
0.32186
0.323248
1.03376
0.64988
0.405371
0.376035
0.31598
0.343426
0.316878
0.328352
0.534191
0.516836
0.776167
0.858738
0.378876
0.349497
0.421955
0.323974
0.611868
0.356594
0.457041
0.365474
0.368644
1.05736
0.426176
0.316244
0.340318
0.407954
0.32381
0.462262
0.322126
0.702035
0.380339
0.917147
0.493722
0.784499
0.328475
0.347205
0.363532
0.374433
0.369805
0.358268
0.321842
0.322137
0.328254
0.336917
0.354949
0.594939
0.383063
0.874152
0.423554
0.328955
0.520709
0.38169
0.361475
0.312388
1.06172
0.902281
0.324621
0.323854
0.32984
0.856143
0.336096
0.43497
0.383644
0.371511
0.288359
0.365691
0.362692
0.320867
0.423277
0.562935
0.965546
0.540345
0.445423
0.316329
0.407814
0.661977
0.357482
0.325749
0.854752
0.823952
0.436771
0.725334
0.327104
0.320141
0.407994
0.327737
0.874685
0.324641
0.323084
0.327523
0.682373
0.322475
0.3657
0.466516
0.474278
0.323282
0.340405
0.346284
0.340549
0.319322
0.355484
0.377223
0.592887
0.443355
0.372227
0.597037
0.364529
0.646308
0.370363
0.913069
0.453086
0.362931
0.70128
0.296403
0.438066
0.540935
0.59371
0.410044
0.32145
0.325092
0.318887
0.366186
0.853349
0.376957
0.322963
0.358307
0.380866
0.320607
0.492918
0.350861
0.372305
0.469153
0.3443
0.326681
0.359091
0.350092
1.39649
0.903354
0.395456
0.36087
0.433096
0.358396
0.814146
1.09534
1.18189
0.791874