/*--------------------------------*- C++ -*----------------------------------*\
| =========                 |                                                 |
| \\      /  F ield         | OpenFOAM: The Open Source CFD Toolbox           |
|  \\    /   O peration     | Version:  2506                                  |
|   \\  /    A nd           | Website:  www.openfoam.com                      |
|    \\/     M anipulation  |                                                 |
\*---------------------------------------------------------------------------*/
FoamFile
{
    version     2.0;
    format      ascii;
    arch        "LSB;label=32;scalar=64";
    class       volScalarField;
    location    "0.0502279";
    object      nut;
}
// * * * * * * * * * * * * * * * * * * * * * * * * * * * * * * * * * * * * * //

dimensions      [0 2 -1 0 0 0 0];

internalField   nonuniform List<scalar> 
47425
(
0.00550044
0.00518472
0.00448767
0.00199898
0.00342859
0.00461015
0.00471697
0.0032801
0.00742779
0.00199968
0.00247391
0.00735826
0.0053697
0.00406347
0.00334557
0.00381259
0.00466985
0.00265197
0.000274314
0.00297221
0.00384923
0.00706122
0.00315759
0.00511167
0.0068871
0.00708673
0.00400546
0.00051274
0.00442012
0.00568992
0.00741251
0.00710597
0.00745927
0.00472735
0.0058414
0.00493724
0.00713631
0.00537829
0.00494357
0.00438587
0.00509907
0.00497896
0.00514404
0.00260977
0.000824194
0.00340455
0.00350426
0.00452178
0.00406206
0.00659677
0.000673745
0.00271468
0.00628489
0.00101716
0.00330151
0.00297675
0.00710922
0.00547599
0.00237185
0.00526447
0.000908506
0.000741491
0.000989101
0.00329682
0.00738491
0.00707487
0.00555569
0.00440182
0.00109337
0.00534099
0.00407965
0.00607425
0.00657058
0.00359294
0.00133037
0.00746319
0.00102352
0.00396316
0.000258802
0.00210037
0.00131877
0.00503065
0.0074167
0.00742828
0.00686799
0.00398357
0.00587966
0.00624108
0.00474196
0.00145195
0.00723372
0.00450973
0.00726175
0.00324421
0.00260639
0.00189154
0.0065164
0.00603258
0.00362355
0.0046044
0.00557476
0.00101694
0.00624016
0.00102097
0.00643755
0.00692753
0.00667452
0.00349074
0.00690295
0.00703507
0.00300759
0.00526243
0.00610482
0.00228808
0.00733546
0.000357641
0.00733829
0.000772635
0.00438898
0.00556444
0.00412518
0.00747143
0.00591707
0.00286188
0.00365075
0.00694023
0.00389854
0.00741792
0.00337546
0.00732949
0.00720813
0.00349386
0.00106122
0.00295396
0.00544785
0.00526365
0.00682422
0.00674156
0.00467554
0.00327702
0.00499242
0.0028402
0.00477141
0.00542957
0.00648999
0.00742416
0.00409591
0.00543276
0.0024255
0.00499812
0.00549393
0.00055576
0.00739003
0.00043317
0.0032362
0.00394807
0.00309767
0.000308775
0.00388913
0.00466232
0.00751806
0.00717346
0.00632577
0.00693557
0.00124683
0.000516638
0.00743756
0.00133067
0.00322925
0.000827242
0.00133935
0.00415524
0.00479152
0.00370573
0.00493608
0.00133258
0.000404423
0.00442546
0.00601188
0.00712353
0.000330793
0.00663071
0.00518388
0.00691138
0.00674284
0.00695296
0.00571182
0.00115774
0.0023934
0.00571046
0.00746962
0.00440927
0.00543567
0.00474275
0.00679158
0.00745387
0.0058273
0.00459473
0.00756232
0.00371097
0.00519057
0.00297991
0.0068757
0.00739185
0.00258732
0.00237255
0.00583405
0.00737272
0.00404619
0.00747113
0.00498724
0.0048173
0.00745937
0.00339273
0.00511342
0.00511971
0.0042265
0.0017018
0.00356286
0.00383145
0.00200366
0.00249082
0.00504973
0.00326221
0.00239094
0.00165715
0.00677112
0.00257381
0.00729207
0.00436319
0.00442111
0.00452383
0.00339615
0.00748891
0.00224744
0.00354721
0.00183885
0.00304237
0.00207807
0.00204001
0.00407687
0.00530572
0.00728518
0.0031613
0.00716026
0.00733137
0.00467331
0.00590033
0.00719225
0.0041305
0.00734696
0.00241825
0.00484777
0.00742027
0.00358632
0.00724499
0.00687364
0.00306023
0.00335299
0.00739655
0.00307563
0.00746104
0.00413104
0.0027049
0.00554858
0.00395665
0.00709954
0.00514259
0.005061
0.00407084
0.00410554
0.00230521
0.00188253
0.00659942
0.00241326
0.00210434
0.00241127
0.00055535
0.00193134
0.000637729
0.000933504
0.00560079
0.000933523
0.00299781
0.00409247
0.00365001
0.00343355
0.00361168
0.00406204
0.00740424
0.000794768
0.00532143
0.00737543
0.00556051
0.00472284
0.00340911
0.00303933
0.00684076
0.00496142
0.00490331
0.00389847
0.00711142
0.00390056
0.00524474
0.00109744
0.000846525
0.000586229
0.00729491
0.00648958
0.00727858
0.00328498
0.000858122
0.00380744
0.00288659
0.00168576
0.00475509
0.00334738
0.00305911
0.00353649
0.00160053
0.00181681
0.00713573
0.00526852
0.00664613
0.00421751
0.00712069
0.00411896
0.00512603
0.00605493
0.00441015
0.00380554
0.00109783
0.0043824
0.00425439
0.00297254
0.00726262
0.000885981
0.00639641
0.00686559
0.00610905
0.00704327
0.00699445
0.00707655
0.00611218
0.0063561
0.00623557
0.00534967
0.0068293
0.00388187
0.00414251
0.00688784
0.00706646
0.00526818
0.00674346
0.00671546
0.00274617
0.00413626
0.00742938
0.00656204
0.00385746
0.00197564
0.0059635
0.00427514
0.00352428
0.00662995
0.00672847
0.00283517
0.0074343
0.00495899
0.00725235
0.00281804
0.00109499
0.00406449
0.00740592
0.00192609
0.00737793
0.00489387
0.00388048
0.0050233
0.0070922
0.00563162
0.00726946
0.00720607
0.00481606
0.00410496
0.00439948
0.00397411
0.00616821
0.00717502
0.00397754
0.00677649
0.00665272
0.00416592
0.00563644
0.00492592
0.0067199
0.00524339
0.00369042
0.00325281
0.0064959
0.000861313
0.00689828
0.00212945
0.00484151
0.00350795
0.00349798
0.00668028
0.00244225
0.00671834
0.00362907
0.00703646
0.00110354
0.0010627
0.00723774
0.00294221
0.00396668
0.00369587
0.00402447
0.0043709
0.00391259
0.00405063
0.00493295
0.00707739
0.00313839
0.00459709
0.00640817
0.00341991
0.0040638
0.00619139
0.000952865
0.00042529
0.00677106
0.000508816
0.000527305
0.00401957
0.000501367
0.000747072
0.00658279
0.00394467
0.00419986
0.0040139
0.000948148
0.00388965
0.00636892
0.00639552
0.00430898
0.00428354
0.00408225
0.00398063
0.000941309
0.000728835
0.0013211
0.00543764
0.00108053
0.00375358
0.00563621
0.00729903
0.00546413
0.00735398
0.00423021
0.00478991
0.00284693
0.00471232
0.00748961
0.00407565
0.00536183
0.00441915
0.00740255
0.00502449
0.00478908
0.00523128
0.00562933
0.00341492
0.00285337
0.00513651
0.0042298
0.00736049
0.0011914
0.00279409
0.00219648
0.00744279
0.00264469
0.00330588
0.00319238
0.0072523
0.0041972
0.00740283
0.00488677
0.00313706
0.00335338
0.00370077
0.00349147
0.00584005
0.00233593
0.000911459
0.00671892
0.00170451
0.00562515
0.00169408
0.00660371
0.0061575
0.00712537
0.00465959
0.00558709
0.00304441
0.00525023
0.00665261
0.0072726
0.00700431
0.00449465
0.00270823
0.00400953
0.00726883
0.00580546
0.00555002
0.00551706
0.00542973
0.00490425
0.00444818
0.00274158
0.00472305
0.0037204
0.000710204
0.00533196
0.00467254
0.00638013
0.00741181
0.00180916
0.00201482
0.00451011
0.0064933
0.00434534
0.00435095
0.00683811
0.00198111
0.00747838
0.00265307
0.00249224
0.00280784
0.00547617
0.00295237
0.00739226
0.00445328
0.00451185
0.00674004
0.00714063
0.00609618
0.000905488
0.00509814
0.00249416
0.00692533
0.00178734
0.00678999
0.00542205
0.00223698
0.00247598
0.00467398
0.00690137
0.000725757
0.00580939
0.00552978
0.00574799
0.00646097
0.00714407
0.00234167
0.00300131
0.00625894
0.00592891
0.00489987
0.00715465
0.00222136
0.00725921
0.00528483
0.000496638
0.00454392
0.00721489
0.000980016
0.00137295
0.00713162
0.000331286
0.00034529
0.00440916
0.00744565
0.0060274
0.00721677
0.00428493
0.00393157
0.00133405
0.00721977
0.00276698
0.00634952
0.00211815
0.00229516
0.00433297
0.00489272
0.00158722
0.00618283
0.00617098
0.00354164
0.00343754
0.0027432
0.00302766
0.00304087
0.0066892
0.00344909
0.00285127
0.00323952
0.00533345
0.00312406
0.00362089
0.0066854
0.00269258
0.00372493
0.00412473
0.00277131
0.0034109
0.00465301
0.0049303
0.0064987
0.00181775
0.00507897
0.00673732
0.00680599
0.000315025
0.00397792
0.00537607
0.000571344
0.000810702
0.00725136
0.00471882
0.000203549
0.00209926
0.000836135
0.0026973
0.00315411
0.000681549
0.00539217
0.00655151
0.00591127
0.00317118
0.00335463
0.00332832
0.00679645
0.00316011
0.00479726
0.00392272
0.00653847
0.0043481
0.00409397
0.00174264
0.000970855
0.00285309
0.00312705
0.00408017
0.00661025
0.00343344
0.00741589
0.006054
0.00567857
0.00526895
0.00649532
0.00197904
0.00469516
0.00667108
0.00187085
0.00196976
0.000928949
0.0012615
0.00400009
0.00744285
0.00484909
0.00716609
0.0010921
0.00458888
0.0011634
0.00425852
0.0042118
0.00539149
0.00480651
0.0056459
0.00357738
0.00208169
0.0036759
0.00553248
0.00190554
0.00451614
0.00748588
0.00433595
0.00401477
0.00111642
0.00540508
0.00186368
0.00366147
0.00747323
0.00712944
0.00254831
0.00417711
0.00394937
0.00743063
0.00518349
0.00437556
0.00453056
0.00420227
0.00405835
0.00498972
0.000948989
0.000647002
0.00449598
0.000846825
0.00472484
0.00295788
0.00343466
0.00656406
0.00377188
0.00504782
0.00422696
0.00414391
0.00705411
0.000599112
0.00286664
0.00343848
0.00508223
0.00674772
0.00380185
0.00573581
0.00246174
0.0074838
0.00134489
0.00411546
0.00701843
0.00427355
0.00671535
0.00546126
0.00461694
0.00637104
0.00362731
0.00732301
0.00687901
0.00417035
0.00105539
0.00736713
0.000711157
0.00232718
0.00227347
0.000696068
0.00429117
0.00402422
0.00226081
0.00392283
0.00081387
0.00054324
0.000954805
0.0033372
0.0051963
0.00366988
0.00297283
0.000920895
0.00254371
0.00372962
0.00595825
0.00457628
0.00438478
0.00313884
0.00592911
0.00428012
0.00134331
0.00211745
0.00555927
0.00246468
0.00112681
0.000726731
0.00349915
0.000546162
0.00211336
0.000684805
0.000878808
0.00450055
0.00304039
0.00719346
0.00672774
0.00487174
0.000704022
0.00136057
0.00481542
0.00487097
0.00719785
0.000832566
0.000581826
0.00725483
0.00228283
0.00371447
0.00725999
0.00223652
0.00726468
0.00728272
0.00442652
0.00486368
0.00167435
0.00653033
0.00723697
0.00520459
0.00526054
0.00524283
0.00110138
0.00179907
0.00712937
0.0014006
0.00652729
0.00690989
0.00685348
0.00180657
0.0045686
0.00204754
0.00269894
0.00585769
0.00730112
0.00134188
0.000692576
0.00459283
0.00397843
0.0019373
0.00541196
0.00561461
0.00305514
0.00281715
0.00294508
0.00476646
0.0023741
0.00110966
0.0074237
0.00116256
0.00573609
0.00392925
0.00713385
0.00205057
0.00275932
0.00727146
0.00317316
0.00133435
0.00359232
0.00195648
0.00491298
0.0058263
0.0047353
0.0035501
0.00466814
0.00319279
0.000589778
0.00482228
0.00274958
0.00180461
0.0017894
0.00104408
0.00174591
0.00417119
0.000568519
0.00712966
0.00670512
0.00437118
0.00269082
0.00390572
0.00151442
0.00139147
0.00323661
0.00532948
0.00466606
0.00324133
0.0035918
0.00393887
0.00649486
0.00137008
0.00403643
0.00460983
0.00237619
0.00209888
0.00595912
0.000569967
0.003942
0.00537261
0.00386736
0.00400215
0.00566129
0.00699661
0.00343104
0.00386353
0.00081378
0.00283741
0.00484496
0.00369552
0.00581191
0.00353187
0.000818896
0.00462425
0.00205843
0.00594302
0.00197359
0.00286743
0.00376013
0.00546195
0.00529341
0.00357871
0.0018483
0.00398732
0.00169817
0.000753999
0.00534486
0.00712403
0.0053193
0.00111912
0.00550674
0.00274494
0.00687603
0.00171386
0.00192481
0.00404459
0.00320916
0.00434296
0.00723608
0.00514776
0.00317566
0.00110392
0.00234239
0.00107398
0.00710049
0.00240108
0.00273384
0.00273221
0.00364843
0.00461139
0.00169636
0.00165473
0.00375808
0.000964516
0.00363897
0.00364793
0.00442436
0.00511335
0.00384335
0.00494122
0.00132495
0.00366557
0.00371165
0.00472939
0.00625312
0.000836017
0.00222257
0.000736025
0.00165508
0.00119936
0.0020959
0.00393621
0.00132967
0.00359979
0.00134013
0.00202073
0.00206122
0.00143623
0.00319724
0.00547365
0.00442132
0.00747049
0.0015431
0.00371644
0.00349966
0.00439507
0.00145588
0.00608534
0.00435638
0.0061584
0.00746068
0.0029681
0.00196471
0.00302066
0.00335621
0.00576199
0.00235781
0.00674704
0.00321513
0.00312984
0.0073042
0.00249557
0.00217592
0.00439625
0.00223364
0.00399272
0.00295529
0.00206993
0.00294722
0.00314632
0.000231339
0.000668837
0.00165826
0.000573397
0.00336454
0.00341385
0.000617665
0.000806072
0.00550081
0.00109627
0.00335514
0.00418628
0.000548184
0.00264552
0.00710921
0.00321386
0.00160506
0.0064637
0.000725629
0.000349807
0.00230299
0.000843127
0.0022664
0.000992924
0.000870113
0.00564599
0.00456815
0.00278213
0.00211443
0.00373271
0.00736519
0.00222963
0.000716688
0.00507914
0.00175369
0.00437587
0.00205391
0.0064833
0.00608304
0.00207295
0.00206606
0.0042544
0.0018304
0.00531891
0.0014905
0.0072547
0.00621946
0.00330798
0.00193518
0.00490733
0.00733373
0.000803479
0.0016312
0.00163316
0.00373901
0.00282582
0.00209248
0.0011848
0.00413746
0.00118677
0.00229841
0.00532714
0.00324508
0.00218373
0.00081689
0.00222736
0.00190326
0.00589624
0.0053942
0.00207299
0.00411443
0.00275274
0.0050431
0.00740451
0.00663857
0.00417192
0.00276081
0.00078388
0.00433324
0.000508523
0.004299
0.00445616
0.00295901
0.00550834
0.0038023
0.00423834
0.00464288
0.00195746
0.00595268
0.00153064
0.00718983
0.000384056
0.00133738
0.00140893
0.00199663
0.00426014
0.00544505
0.00349779
0.00593364
0.000681042
0.00079109
0.00342104
0.00231147
0.000977688
0.000969659
0.00235781
0.00118673
0.000533882
0.00364005
0.006042
0.0005317
0.00391231
0.00472282
0.00439408
0.000927531
0.00064657
0.0040377
0.00408715
0.0013815
0.00253945
0.0010742
0.000803818
0.00328467
0.00109866
0.00121514
0.00338439
0.00476836
0.00120018
0.00626484
0.00137093
0.000240514
0.00735438
0.00461697
0.00393244
0.00565815
0.00303281
0.00312889
0.00744355
0.00299526
0.00416078
0.000895626
0.00167102
0.00489015
0.00140417
0.00460897
0.000402282
0.00691031
0.00370377
0.002401
0.00603564
0.00104575
0.00396448
0.00310782
0.00238367
0.00266236
0.00399896
0.00420292
0.00212366
0.00073847
0.00637424
0.00133995
0.000754745
0.00164388
0.00403843
0.00107739
0.00184228
0.00478133
0.00543854
0.00111231
0.00184468
0.00233583
0.000839643
0.00258601
0.00100418
0.00312896
0.00288351
0.00220969
0.00100355
0.00559149
0.00634849
0.00219825
0.00428552
0.00255693
0.00317603
0.000888315
0.00545724
0.00391676
0.00575633
0.00144211
0.00560584
0.000606926
0.00230662
0.00557405
0.00739751
0.00196087
0.00176974
0.00095052
0.00199559
0.00229703
0.0011921
0.000918463
0.00413665
0.000947065
0.00451658
0.0029913
0.000466064
0.00161204
0.00308878
0.00296215
0.00561353
0.00158839
0.000524024
0.00174409
0.0024827
0.00440346
0.00724875
0.00195085
0.00508355
0.00379523
0.00627917
0.00111585
0.00257771
0.00160921
0.00424471
0.00165994
0.00412337
0.00352621
0.00119842
0.00188275
0.00242239
0.00281307
0.00575322
0.00041538
0.00168538
0.00161911
0.00148203
0.00360188
0.00555228
0.0011059
0.000734826
0.00165731
0.00291047
0.00290436
0.00178021
0.00272627
0.00119985
0.00561489
0.00138256
0.00147783
0.00576909
0.00130856
0.0034178
0.00258499
0.00283569
0.00138709
0.0024981
0.00633277
0.000739943
0.00337199
0.000670249
0.00266808
0.00389012
0.00269498
0.00212895
0.00142071
0.00265866
0.00419383
0.00306784
0.00128774
0.00404141
0.00442363
0.000654337
0.00716385
0.00368717
0.000891268
0.00403804
0.00283493
0.00184393
0.0024519
0.00120158
0.00384143
0.000176008
0.00220979
0.00176487
0.00235228
0.00122598
0.00298526
0.000914645
0.00135217
0.00138333
0.00284455
0.00399992
0.00741035
0.00414323
0.00376646
0.00291468
0.000723298
0.00378642
0.00599943
0.00480435
0.00518251
0.00334458
0.00418859
0.00741239
0.00745683
0.00301744
0.0010093
0.00700985
0.00283938
0.00250019
0.00539295
0.00671548
0.00288444
0.00247244
0.00747095
0.00571889
0.00341508
0.00360736
0.00660609
0.00388084
0.00116469
0.00390067
0.00377818
0.00584995
0.00715991
0.00212786
0.00478687
0.00598432
0.000817438
0.00151246
0.00099741
0.00685156
0.000990355
0.000447201
0.00668941
0.000367417
0.000818634
0.000610791
0.00396419
0.0049667
0.00428635
0.00152827
0.00702625
0.00444863
0.00453217
0.00397889
0.00280217
0.00360524
0.00349842
0.00113151
0.00439969
0.00287029
0.00089447
0.0040128
0.000395187
0.00184786
0.0012925
0.00678347
0.00307406
0.00199448
0.00606193
0.00485055
0.00193104
0.00726693
0.00262479
0.00181841
0.000416128
0.00730657
0.00164753
0.00546085
0.00307678
0.00319661
0.00563998
0.00140767
0.00493498
0.00224852
0.00480412
0.00132203
0.000279104
0.00411802
0.00712218
0.00220218
0.00478113
0.000517965
0.0037948
0.00379971
0.00457422
0.00440413
0.00564643
0.00722351
0.00394088
0.00232956
0.00558688
0.00219693
0.00410221
0.00379554
0.00727802
0.00232297
0.00106277
0.00406315
0.0048362
0.00518136
0.00478585
0.00312239
0.00426556
0.0045539
0.00598699
0.00240284
0.00265293
0.00747211
0.00393052
0.0037382
0.00520903
0.00386009
0.00333643
0.00329396
0.00362129
0.00400455
0.00341912
0.00393214
0.00597891
0.00490078
0.00645594
0.0021092
0.00225785
0.00196179
0.00362429
0.00487902
0.00427914
0.00129189
0.00568262
0.00540224
0.00556849
0.00159501
0.00299901
0.00129427
0.00127486
0.00126477
0.00351221
0.00466086
0.00444851
0.00435248
0.0065461
0.00122555
0.00411841
0.00671199
0.00423916
0.00323613
0.00426108
0.00140054
0.00433288
0.00238318
0.00286084
0.00348792
0.00623078
0.00454208
0.00379345
0.0038637
0.00470359
0.00305846
0.00336572
0.00291828
0.00376926
0.00508309
0.00496381
0.00217471
0.00194284
0.00487886
0.00421654
0.00236255
0.0037965
0.00230409
0.00697895
0.00560421
0.00235647
0.004748
0.00592932
0.00472807
0.00696651
0.00687082
0.00364204
0.00442314
0.00200911
0.00455163
0.00251552
0.00635776
0.004523
0.000981566
0.00413563
0.00426998
0.00525411
0.00527382
0.00402084
0.00431321
0.0003379
0.00348253
0.00443508
0.00620848
0.00538751
0.00505546
0.00729188
0.00646387
0.00351885
0.00417093
0.00657369
0.00694129
0.00313317
0.000994528
0.00136655
0.00306856
0.00182132
0.00352638
0.00400253
0.00355299
0.00167401
0.00198378
0.0034447
0.00407528
0.000861634
0.00492126
0.00407899
0.00394005
0.0040605
0.00694893
0.000321958
0.00476095
0.00367946
0.00742897
0.00270616
0.00284143
0.000410828
0.000246797
0.00476661
0.00599492
0.00713145
0.00407062
0.0037231
0.00531827
0.000225742
0.0011455
0.00489286
0.00256273
0.00142562
0.00505756
0.00477054
0.00320823
0.0071245
0.00512101
0.00686787
0.00438803
0.00288244
0.0039798
0.00431546
0.0052738
0.00204092
0.00437304
0.00743717
0.00130216
0.00571942
0.00366152
0.00328812
0.0010444
0.00148537
0.00350667
0.00287966
0.00546784
0.00284779
0.00290624
0.00613343
0.000602097
0.00160799
0.00287975
0.00396298
0.0034005
0.00394083
0.0039068
0.00121132
0.00731545
0.00685868
0.00574263
0.00538714
0.000932811
0.00134618
0.0013478
0.00185055
0.00318435
0.00287978
0.00735573
0.00729536
0.00454928
0.00516386
0.00521122
0.00576254
0.00728361
0.00113405
0.000552946
0.00720588
0.00694751
0.00317605
0.00192537
0.00319327
0.00721949
0.00539811
0.00167572
0.000925741
0.00350553
0.00205619
0.00472372
0.00156924
0.000557789
0.00302336
0.00644219
0.00722211
0.00617165
0.000927044
0.00562257
0.00435011
0.00432019
0.00726976
0.000968775
0.000333139
0.000523412
0.00168811
0.00269664
0.00633889
0.00709668
0.0024541
0.00421695
0.00097907
0.000812188
0.000734705
0.000460956
0.000752557
0.00178886
0.00655153
0.000858607
0.00739776
0.000376589
0.00390527
0.000734621
0.00445928
0.00183473
0.00611963
0.00304539
0.00224759
0.0022551
0.00500515
0.00559894
0.00399001
0.000930564
0.00115108
0.00500431
0.00517314
0.000484844
0.000390109
0.0037863
0.00178298
0.000674411
0.00122182
0.00475191
0.00695612
0.00086216
0.000602325
0.00157597
0.00713662
0.00131299
0.0064539
0.000730723
0.00111272
0.000508006
0.0024552
0.00587916
0.00166137
0.00687488
0.00465065
0.0039444
0.00231995
0.00641161
0.00376878
0.00509792
0.00383578
0.0042584
0.00704497
0.00658895
0.00363268
0.00680886
0.00605971
0.00439947
0.00402994
0.00168657
0.00388124
0.00243522
0.00407613
0.0060521
0.00415521
0.000961567
0.00352761
0.00342272
0.00208804
0.000609019
0.00429165
0.00361764
0.00343979
0.00102179
0.00172086
0.00135063
0.00470872
0.00681969
0.00499255
0.00347975
0.00572787
0.00343889
0.00324038
0.00381876
0.00716996
0.00477865
0.00557312
0.00462758
0.00317852
0.00457078
0.00373009
0.0006917
0.00361339
0.00409878
0.00433606
0.00301102
0.0011508
0.00241109
0.00415301
0.00473416
0.00319884
0.00118933
0.00137472
0.00389128
0.00330391
0.000384142
0.00153336
0.00206457
0.00408396
0.00151842
0.00315072
0.00403916
0.00304197
0.00118975
0.00478534
0.00413161
0.00235889
0.00658328
0.0023936
0.00273543
0.00318023
0.00333517
0.0019465
0.00426496
0.00585337
0.00724285
0.00197416
0.00331796
0.00438351
0.00286593
0.00514204
0.000878505
0.00294084
0.00333226
0.000456265
0.00189607
0.00564621
0.00347707
0.000904585
0.00173593
0.00235563
0.0071929
0.00291037
0.00111032
0.00559585
0.00739581
0.000692995
0.00195512
0.00144086
0.00353167
0.00444232
0.00473978
0.0014845
0.000595381
0.000736334
0.00415344
0.0057804
0.000641253
0.00623576
0.00183185
0.0030899
0.00156119
0.00109623
0.00465129
0.00347265
0.00118568
0.00403892
0.00466745
0.00461103
0.0036232
0.00544197
0.00095827
0.000302366
0.00401398
0.00362037
0.000711245
0.000563902
0.000702773
0.0022137
0.00116237
0.00205857
0.000582621
0.00352583
0.00353181
0.000828248
0.00242639
0.00250638
0.000869948
0.000861335
0.000410496
0.00673563
0.00622967
0.00052747
0.00622754
0.00428333
0.000873472
0.00548921
0.00299295
0.00412964
0.003246
0.00507216
0.00640037
0.000489124
0.000425465
0.00191782
0.000801374
0.00242628
0.003795
0.00438227
0.00458433
0.00336936
0.00492191
0.00551644
0.00413827
0.00483197
0.000762263
0.000709253
0.00385344
0.00184036
0.00405009
0.00416204
0.00277954
0.00356473
0.00369023
0.00471872
0.000639077
0.00118482
0.00436314
0.000735785
0.0028198
0.00144815
0.00286956
0.00350404
0.000963126
0.00282273
0.00114375
0.0036739
0.0029209
0.00291933
0.00648881
0.00125611
0.00720459
0.00561693
0.00252038
0.00431334
0.00150162
0.00340277
0.00203141
0.0034141
0.000907046
0.00396976
0.00342365
0.00367241
0.0071451
0.00310156
0.0034512
0.00181712
0.000387575
0.0029307
0.000674898
0.00351619
0.00454212
0.00395401
0.00462981
0.00520192
0.00500627
0.00326553
0.00130133
0.00180057
0.00133083
0.000654101
0.00371639
0.00425136
0.000165156
0.00102942
0.00438615
0.00363842
0.00134988
0.00377323
0.000767524
0.000465426
0.00266122
0.00109589
0.00136991
0.00285431
0.000804619
0.00179705
0.00659903
0.00348699
0.00109242
0.00119224
0.00674665
0.00101466
0.00726671
0.00263371
0.00498001
0.0026248
0.00192075
0.000908854
0.00105949
0.00589195
0.00568933
0.000252031
0.00712293
0.00449669
0.00119683
0.00609005
0.00284369
0.0035967
0.00355175
0.000532035
0.00153065
0.000703448
0.00174674
0.00315236
0.00118289
0.00594458
0.00510477
0.00109489
0.00677737
0.0037424
0.00264542
0.00519109
0.00137016
0.000572673
0.00698222
0.00241337
0.00720824
0.00079485
0.00441772
0.000610159
0.00282768
0.00265392
0.00631925
0.00254587
0.00268209
0.00665285
0.00517332
0.00331587
0.00727694
0.0013575
0.0033398
0.00353872
0.00613958
0.00433184
0.003528
0.00265383
0.00290616
0.00191947
0.00316583
0.00385058
0.00408181
0.00152527
0.000607989
0.000829914
0.000735855
0.00125682
0.000859833
0.000986921
0.00289329
0.000267617
0.000740337
0.00127542
0.00195054
0.00276035
0.00110919
0.00102223
0.00242229
0.00140064
0.00214167
0.00612033
0.00279672
0.00127823
0.00391675
0.000666871
0.00314535
0.000471346
0.00195559
0.00119836
0.00144018
0.00133408
0.000798801
0.00192174
0.000690762
0.00266966
0.0020792
0.00432475
0.00173606
0.00508044
0.00578112
0.000990522
0.00340441
0.000957107
0.00174466
0.00507938
0.00235987
0.00407229
0.00137788
0.00114424
0.00752727
0.00567944
0.0015977
0.000993741
0.00368408
0.00269786
0.00114312
0.00113649
0.0044499
0.0072227
0.00389766
0.00416678
0.000787347
0.00733156
0.000937789
0.00036183
0.0050774
0.00272441
0.0041907
0.00376491
0.00086365
0.00279857
0.00076258
0.00327472
0.00434425
0.000549965
0.00100186
0.00539604
0.00236271
0.00537426
0.00663726
0.00122015
0.00280923
0.000776886
0.00371087
0.00630855
0.00243813
0.00699807
0.00486821
0.00532413
0.00505518
0.00275263
0.00244443
0.00143746
0.00362314
0.00114815
0.00478301
0.0069137
0.00217451
0.0013101
0.000867233
0.000894039
0.00175131
0.00198168
0.00106568
0.000984894
0.000806785
0.000882212
0.00322204
0.00301783
0.00404253
0.00139935
0.00510103
0.00287479
0.00316799
0.00145454
0.000542494
0.00348145
0.00310519
0.00347568
0.00464895
0.00339903
0.0042988
0.00616486
0.00473302
0.00267043
0.00298323
0.00270231
0.00556781
0.00295669
0.00148291
0.000773774
0.00419694
0.000593848
0.00744514
0.0032715
0.00694912
0.00444848
0.000948394
0.00272263
0.00119862
0.003728
0.00353926
0.00353957
0.0044833
0.00487631
0.00353649
0.00327433
0.00481534
0.00743517
0.000828753
0.00309088
0.00129086
0.00288631
0.00103944
0.00585581
0.00456939
0.00343953
0.00390813
0.00293926
0.000991934
0.00654012
0.00398099
0.000920406
0.0024674
0.00243078
0.00277981
0.0024395
0.00238806
0.00221497
0.00500005
0.00752021
0.00665643
0.00201014
0.00156941
0.00473824
0.000480755
0.0054081
0.00181747
0.00700254
0.00635472
0.00192834
0.00435448
0.00635668
0.00101929
0.00742106
0.00416276
0.00149472
0.00278663
0.0070517
0.0013491
0.00679252
0.00719262
0.00115529
0.00304398
0.0028832
0.000808723
0.00740139
0.002036
0.00139573
0.00171478
0.000988925
0.00117511
0.00484939
0.00582452
0.00288791
0.00601238
0.00194891
0.00292678
0.00537552
0.00611052
0.00348116
0.00119955
0.00298756
0.0043205
0.00234757
0.00341679
0.00250911
0.00738844
0.00209994
0.001212
0.00364698
0.00354498
0.00507605
0.00494672
0.00322043
0.00432475
0.0022126
0.00344544
0.000630793
0.00423129
0.00693555
0.00103584
0.0028688
0.000667448
0.000989159
0.00579969
0.00340315
0.00127946
0.00309259
0.000571033
0.00146495
0.00060634
0.00149247
0.000647842
0.00303907
0.00193376
0.00158968
0.000563009
0.00117968
0.00294165
0.000704781
0.000501729
0.00239625
0.00033005
0.00106359
0.00250314
0.00287429
0.000990346
0.000954092
0.00742827
0.00369764
0.00101832
0.000777295
0.00109406
0.00134808
0.00160526
0.000815289
0.00284058
0.0036655
0.00438036
0.00703965
0.00313231
0.0065444
0.00106808
0.00296486
0.00435849
0.000700033
0.003886
0.00231231
0.0043676
0.00640635
0.00317228
0.00437252
0.00179049
0.00672807
0.00183532
0.000605123
0.0048569
0.00697146
0.00333184
0.00512228
0.00105541
0.00308885
0.00560241
0.00641549
0.000596723
0.00637774
0.00369546
0.00697622
0.00173547
0.00315206
0.0044003
0.00580103
0.00512563
0.00141475
0.00359995
0.00254613
0.00751075
0.00714589
0.00694685
0.00418819
0.00458616
0.00359424
0.00585226
0.00337012
0.00361735
0.00255778
0.00130938
0.00118076
0.00334509
0.00188111
0.00417085
0.00269954
0.0034954
0.00372381
0.00646048
0.00316265
0.00429185
0.00634345
0.00217344
0.00461327
0.00309962
0.00110055
0.00488075
0.00275102
0.00124955
0.00386168
0.00114764
0.0019478
0.00119378
0.000356099
0.00279565
0.00533824
0.00196378
0.000470277
0.00363532
0.00714396
0.00628443
0.00549857
0.00346965
0.00455826
0.00727261
0.00713761
0.00380404
0.00283535
0.00744291
0.00656816
0.00742697
0.00539094
0.00304525
0.00181191
0.00304577
0.00620688
0.00342073
0.000946182
0.00529374
0.00599104
0.00370703
0.000560257
0.00062239
0.0037488
0.00539656
0.00492877
0.0031995
0.00492864
0.00065683
0.00183484
0.00492533
0.00403342
0.00607496
0.00348476
0.00186089
0.00411826
0.00324236
0.00357173
0.0013501
0.00197038
0.00164414
0.000975969
0.000317195
0.00251193
0.00193176
0.00378517
0.00389209
0.00342578
0.00325348
0.00589298
0.00437099
0.000477352
0.00670516
0.00180505
0.00119561
0.00332405
0.00297092
0.000696436
0.00203203
0.00403327
0.0038403
0.00743284
0.00300616
0.00103005
0.00381344
0.00158686
0.00563193
0.00276269
0.000739766
0.000880385
0.00338011
0.00323431
0.00109992
0.00466815
0.00070135
0.000634316
0.00125403
0.0074196
0.00698056
0.00036033
0.00609943
0.000509101
0.00205525
0.00315037
0.00111969
0.00100334
0.00626022
0.00739326
0.000971235
0.00633609
0.00594767
0.00491544
0.00668693
0.00427848
0.00378975
0.00225845
0.00563257
0.000365485
0.00316921
0.00420575
0.0037833
0.000319547
0.00420133
0.000575813
0.00486892
0.00332618
0.00370003
0.00113079
0.00559896
0.00470841
0.0049074
0.000977545
0.00197055
0.00199187
0.00138125
0.00273692
0.00625978
0.000811561
0.00324621
0.00326175
0.0032546
0.00428718
0.00314937
0.00385699
0.0071597
0.000384537
0.00135092
0.00444928
0.00487774
0.00252604
0.00412448
0.00275731
0.00299227
0.00483364
0.00229808
0.00455776
0.00486587
0.0041735
0.00153686
0.00449124
0.00462381
0.00477282
0.00351679
0.00673152
0.00537593
0.00508382
0.00277906
0.00420571
0.00271403
0.00256014
0.00361593
0.000576864
0.00494096
0.00289442
0.00135839
0.00105453
0.00152007
0.00368444
0.00438417
0.00189517
0.000549095
0.0039694
0.0010777
0.00400297
0.00726703
0.00273796
0.00175278
0.00383819
0.00451971
0.00743806
0.00505362
0.000348511
0.00502002
0.00659068
0.002503
0.000444823
0.000605637
0.00373137
0.000294581
0.000830948
0.00114097
0.00199331
0.00097721
0.000564552
0.00516865
0.000962444
0.00393828
0.00529571
0.00518022
0.000550382
0.00210246
0.00692059
0.00579556
0.00102355
0.00443529
0.000550998
0.00541528
0.00292703
0.00482381
0.00293874
0.000648889
0.00739957
0.00315284
0.0028257
0.00570597
0.00370196
0.00592473
0.00288135
0.000499643
0.000492569
0.000695631
0.00149933
0.00129829
0.00589352
0.0063654
0.0051008
0.00367222
0.00713962
0.00153513
0.00733114
0.000982499
0.00419815
0.00675328
0.00590298
0.00475781
0.00683953
0.00335916
0.00298928
0.0071742
0.00312852
0.000922575
0.00558512
0.0010863
0.000932721
0.00656224
0.000295162
0.000566875
0.00280114
0.00292734
0.00380071
0.00127246
0.00447134
0.00205641
0.0013269
0.00553984
0.00166403
0.00727238
0.00209695
0.00415386
0.00233103
0.00196087
0.000832207
0.00332801
0.00391358
0.000701993
0.00134849
0.00207237
0.00178234
0.00566126
0.00155236
0.00424108
0.00190002
0.00319632
0.00612312
0.00132733
0.00263219
0.00235799
0.00648066
0.000642745
0.000849496
0.000594669
0.00589419
0.00424545
0.000904762
0.000619484
0.00181901
0.00381933
0.00250644
0.00110982
0.000809997
0.00183951
0.00466931
0.0037107
0.00433882
0.0051774
0.00399651
0.000601046
0.00512651
0.00180923
0.00312833
0.00683958
0.00258772
0.00264091
0.00518528
0.00389404
0.00563708
0.00228266
0.0016152
0.00470093
0.00444293
0.00213409
0.00332633
0.00281994
0.00195921
0.00211182
0.00359478
0.00614825
0.00596977
0.00541276
0.000788152
0.00371397
0.00101045
0.00282433
0.00384651
0.00518838
0.00335933
0.00701111
0.00247691
0.00747154
0.00213817
0.0023798
0.00359089
0.00441051