/*--------------------------------*- C++ -*----------------------------------*\
| =========                 |                                                 |
| \\      /  F ield         | OpenFOAM: The Open Source CFD Toolbox           |
|  \\    /   O peration     | Version:  2506                                  |
|   \\  /    A nd           | Website:  www.openfoam.com                      |
|    \\/     M anipulation  |                                                 |
\*---------------------------------------------------------------------------*/
FoamFile
{
    version     2.0;
    format      ascii;
    arch        "LSB;label=32;scalar=64";
    class       volVectorField;
    location    "0.0502279";
    object      U;
}
// * * * * * * * * * * * * * * * * * * * * * * * * * * * * * * * * * * * * * //

dimensions      [0 1 -1 0 0 0 0];

internalField   nonuniform List<vector> 
47425
(
(10.1571 0.137142 -0.0150697)
(10.0264 -0.120481 0.0130609)
(10.0514 -0.0284179 -0.0062341)
(11.3938 -0.517071 -0.20157)
(12.346 0.532973 0.701088)
(10.1049 0.00766374 0.0103059)
(12.2457 0.37409 0.670475)
(10.0875 0.00590912 0.00199677)
(10.0054 0.00868152 0.00517736)
(3.0644 5.52579 -0.795894)
(10.0619 0.00430749 -0.00253711)
(9.94744 0.0661755 0.00762611)
(12.0507 0.422712 0.226364)
(10.0622 -0.0171352 -0.00139549)
(10.9347 0.373279 -0.128697)
(10.0717 -0.19524 -0.0364935)
(10.0738 -0.0183123 0.000333937)
(8.72488 -0.49382 -1.4386)
(8.62316 1.22829 -4.90721)
(13.3156 -0.475825 -0.980852)
(10.8265 -0.706022 -0.557607)
(9.80992 -0.0545065 -0.0114824)
(9.96929 0.0379455 0.00558453)
(10.022 0.0145481 0.0128295)
(9.91254 -0.100155 -0.0126159)
(9.98556 0.0499403 -0.018681)
(9.99204 0.0248365 0.0124364)
(11.397 -0.320055 -8.63584)
(10.0087 0.0255261 0.0135289)
(10.0426 0.00867937 -0.0196945)
(9.73032 0.73353 0.0907942)
(10.0056 0.101329 -0.000139753)
(10.0017 0.00569765 0.00585312)
(10.0026 -0.00427776 -0.00597448)
(9.9554 0.010402 -0.0103263)
(9.918 0.00197971 0.00156434)
(9.74474 -0.0481976 -0.0458774)
(10.0015 0.0166011 0.00770068)
(10.5479 0.353313 0.0186915)
(10.0123 0.019982 -0.00903387)
(9.87313 0.0782429 0.0148603)
(9.33055 0.289714 -1.05337)
(6.55177 -1.94196 -1.42459)
(9.9836 0.0132237 0.00515139)
(-0.138067 -0.540548 1.33784)
(10.0109 0.0685145 0.0242062)
(9.96988 -0.0158721 -0.0303616)
(9.9966 0.0320136 0.00438135)
(10.0522 -0.0105071 -0.01281)
(10.052 0.0122142 -0.0156437)
(2.10844 -0.581306 -5.71546)
(9.06232 1.00587 1.50747)
(10.0316 0.00379385 0.00547944)
(6.89226 -5.8028 2.75784)
(10.0117 0.0148346 -0.0148867)
(10.1718 0.0187614 0.0409391)
(10.1637 -0.104942 0.037098)
(10.0732 -0.0169826 0.0249294)
(12.3606 1.23264 1.57295)
(9.99519 0.00220895 0.0221417)
(5.19119 -5.7363 2.18419)
(4.97621 -0.172833 2.47856)
(5.62649 -4.97615 1.16218)
(9.15956 -1.13839 -0.0205853)
(10.0073 0.0102984 -0.00688069)
(10.7805 -0.281903 0.0323722)
(9.99402 -0.0180411 -0.00704289)
(10.6604 0.00929407 0.436372)
(8.60895 -5.70788 2.86816)
(9.06454 0.537553 0.364977)
(10.8361 -0.511118 0.169959)
(10.0258 0.00614769 0.0277679)
(10.857 -0.0686018 -0.0166468)
(10.7627 0.238097 -0.614949)
(5.37551 3.15025 1.09278)
(9.9989 -0.00378484 0.000737092)
(5.99314 -4.65281 1.96605)
(9.9951 -0.00572392 0.00816222)
(8.19989 -4.60969 2.26135)
(11.7459 0.236303 1.65364)
(5.64643 2.38569 1.1582)
(10.2114 0.292935 0.0208467)
(9.19388 0.0853577 -0.241804)
(10.0108 0.0199536 -0.00723574)
(9.86869 -0.0040085 0.0662518)
(10.1975 -0.0650308 0.0181217)
(10.6522 -0.190976 -0.0135463)
(10.1334 0.0623777 -0.0204796)
(10.8976 0.712061 -1.76757)
(10.8535 -0.261832 2.3891)
(9.80613 0.385242 -0.00940401)
(10.6375 -0.00680182 -0.00479989)
(10.0478 0.0354946 -0.00126962)
(10.0854 -0.0537931 0.006882)
(10.026 -0.0423228 0.00941091)
(10.0126 -0.00592335 0.0110442)
(10.0377 -0.0258672 -0.0365486)
(10.2163 -0.243747 -0.0108695)
(10.145 -0.0180457 0.00914906)
(10.0053 0.0136258 0.0187771)
(10.0483 0.0304774 -0.0152157)
(8.7453 0.111172 -3.97863)
(10.2593 0.186194 0.04735)
(5.31684 1.95398 -0.600487)
(10.2799 0.103649 -0.0246996)
(10.4692 -0.757709 0.157479)
(10.0771 0.150647 0.0351124)
(10.0887 -0.0454719 0.00643012)
(9.46178 -0.0544222 0.0283286)
(9.91344 0.0843029 0.0363244)
(-2.49538 -2.0718 -0.211335)
(10.0644 -0.0998667 0.036457)
(10.4189 -0.950825 0.262555)
(10.1974 -0.0170398 0.0049647)
(10.7893 -0.461662 0.139626)
(1.77957 -4.29 -5.70793)
(10.7878 -0.432661 0.11018)
(4.0953 0.0201633 -4.26264)
(10.3394 0.188515 -0.00959598)
(10.9882 0.323352 0.474702)
(10.2749 -0.0421671 0.00189102)
(10.0002 0.00374128 0.00586706)
(10.0044 0.050617 0.00369288)
(11.6925 0.808178 -0.637423)
(10.0933 -0.0399133 0.00965458)
(10.6948 -0.865648 0.254625)
(10.1229 -0.0791662 -0.00240922)
(10.0071 0.00371705 -0.00689835)
(9.98162 -0.00429166 0.0140081)
(9.98915 0.0138842 -0.0201451)
(9.25849 -0.299582 0.354127)
(10.2832 0.459025 -0.0345369)
(4.29922 0.0337134 0.64779)
(10.341 -0.409281 0.0450573)
(9.70316 -0.341917 -1.02694)
(11.9145 -0.516419 -0.835126)
(10.9821 0.726612 0.24768)
(10.7203 -0.857846 0.392122)
(10.148 -0.0868632 0.0273557)
(11.0331 0.113536 -0.0347595)
(9.98547 6.29301e-05 0.00185429)
(12.4349 0.0990639 0.186589)
(10.5118 0.0421612 -0.0567969)
(10.492 -1.21899 0.386968)
(10.1897 0.222816 0.0232723)
(10.0051 0.00515172 0.00568056)
(11.882 0.107322 0.974034)
(10.0313 -0.0214281 -0.0118411)
(10.4869 0.0185134 -0.0295574)
(9.97617 -0.014314 0.00590684)
(10.4107 -1.27391 0.243301)
(2.96046 -0.377919 -6.76275)
(10.0089 0.0154087 -0.00783402)
(5.69162 0.079354 -11.3499)
(9.02398 -1.15223 -0.687531)
(9.97742 0.0323528 -0.00278473)
(10.8584 0.413982 -1.62562)
(7.5399 -3.79933 -2.57959)
(10.0113 -0.0246465 0.026208)
(10.0015 -0.0343211 -0.0110231)
(11.0639 -0.365336 0.114052)
(9.98658 0.0421226 -0.024021)
(10.0091 -0.000638494 0.0553491)
(10.1648 0.282505 0.0404409)
(12.168 0.13367 -0.331787)
(0.573978 -1.80613 -2.0452)
(9.99598 -0.0260326 0.00234405)
(5.77505 2.92025 1.03512)
(9.9322 -0.0050638 0.0212992)
(12.1691 0.666023 -4.14553)
(6.72685 2.28328 0.63955)
(9.97877 0.00672931 -0.00970453)
(10.004 0.0242524 -0.00252143)
(9.48334 -0.964356 -0.610598)
(10.1697 -0.0292873 0.0369173)
(9.29139 -3.05082 -1.2379)
(2.75749 0.973446 -7.47968)
(10.005 0.0248995 0.0171223)
(10.0208 0.0158191 0.0238985)
(10.058 0.00269855 0.0171985)
(2.58271 0.429946 -10.7988)
(10.0308 -0.0869998 0.0100984)
(10.0116 0.0186826 0.014939)
(9.99167 0.0194856 0.0155268)
(10.0397 -0.0354676 0.00188493)
(10.0317 0.00613872 -8.46128e-05)
(10.2097 0.0749317 -0.0231308)
(5.66609 -0.440707 -0.522291)
(9.87849 -0.000315963 -0.0276613)
(10.0804 0.113144 0.0373018)
(10.0009 -0.00882602 -0.00213419)
(9.98186 0.0014474 0.0195461)
(12.1584 -0.205304 -0.941574)
(9.99715 0.00181456 0.00388336)
(9.98999 0.0135291 0.0322962)
(11.0249 -0.116242 0.0113575)
(10.002 0.000936308 0.00747135)
(9.97992 -0.00374063 -0.0039137)
(11.2047 -0.0782548 0.0328261)
(10.2133 -0.234799 0.0548823)
(9.98273 -0.0177608 0.0189334)
(10.3181 -0.0280906 0.00411865)
(9.76337 0.111255 0.119263)
(10.9646 -0.254945 0.028373)
(10.2013 -1.5071 -0.849889)
(10.5489 -0.00867951 -0.0135582)
(10.0129 0.00315617 0.0140376)
(10.9539 -0.160418 0.013598)
(10.0233 0.111657 -0.00965924)
(10.0018 0.0129256 -0.00381643)
(10.1899 -0.134044 0.0205636)
(10.9848 0.100151 -0.00912361)
(10.0071 0.0350511 -0.00238933)
(10.0343 -0.0333438 0.0357137)
(10.6005 -0.0554609 0.0266863)
(11.2329 -0.113314 -0.160706)
(10.7154 0.0161948 -0.0529822)
(10.6385 0.391145 1.6068)
(8.77506 -1.26019 -0.599846)
(9.96874 -0.0116861 0.0101231)
(11.6752 -0.223253 1.89742)
(10.9935 0.108503 0.158014)
(9.88138 -1.56829 -0.855856)
(10.7512 0.0783576 0.00428693)
(10.5457 -0.00498484 -0.0142983)
(11.7439 -0.492074 1.83876)
(10.0378 0.0170479 -0.00310377)
(11.151 -0.0984438 -0.078104)
(11.3261 0.35632 0.246209)
(11.8521 0.380977 -0.258339)
(10.7201 0.007651 -0.0682627)
(10.01 -0.0320462 -0.0183144)
(10.3488 -0.105647 -0.0087559)
(10.0013 -0.00369114 -8.49996e-05)
(9.83887 0.0013835 0.00589403)
(9.9855 0.203741 -0.0224146)
(11.5623 0.348876 1.72916)
(9.96539 0.0311327 -0.00733147)
(11.887 0.350035 1.53821)
(9.79111 -0.00379218 0.00261407)
(9.87964 -0.0125509 0.0249353)
(10.0113 0.00720882 -0.000482943)
(10.0324 -0.0211733 0.0181453)
(11.8255 0.504126 0.0129051)
(10.4559 0.370593 0.065448)
(10.0071 -0.00344013 0.0123428)
(10.2415 -0.0454039 0.0124965)
(10.009 -0.00262137 0.00557271)
(10.016 -0.0129508 -0.00270752)
(9.95565 -0.00262196 -0.00638986)
(10.0057 0.0307979 -0.00513904)
(11.7233 -0.0984003 1.71819)
(9.9206 -0.00185478 -0.00883715)
(10.003 0.00423887 0.00601592)
(9.94066 -0.0234557 0.00406595)
(9.93458 -0.00814412 0.0169575)
(9.85346 0.111869 0.00205707)
(9.77943 -0.00943462 0.00142187)
(10.4516 -0.588644 0.150402)
(10.0102 0.00150128 -0.00678509)
(9.76411 -0.00425723 -0.00308691)
(9.99629 0.0170448 -0.00161618)
(10.219 0.0753273 -0.0161146)
(10.1506 0.024582 0.022515)
(11.6222 0.214395 0.731757)
(10.0305 -0.450926 -0.0715547)
(9.99619 0.0153097 -0.0324262)
(11.7012 0.21954 0.574441)
(9.9961 -0.0058879 -0.0194271)
(10.2382 0.0682686 -0.0286152)
(10.193 0.0694449 -0.0038687)
(11.9478 0.462427 1.23668)
(11.406 0.469716 1.4557)
(10.1807 -0.137738 -0.00103281)
(11.7953 0.169992 1.59457)
(10.0762 0.010336 0.0281039)
(11.8669 0.322115 1.42362)
(6.75808 3.32906 2.37698)
(11.3668 0.360136 1.53917)
(5.86282 1.24213 -5.04523)
(4.23024 -5.62949 2.01472)
(10.1688 0.126592 -0.0241656)
(3.8756 -5.90503 1.33332)
(9.90363 -0.0062898 -0.00389405)
(9.99785 -0.0016245 -0.00165704)
(11.2141 -0.131251 0.0843424)
(9.91384 -0.00522299 0.0152581)
(9.99257 -0.0353009 -0.0050176)
(9.90486 -0.156368 0.0119629)
(10.7991 -0.618254 0.0299484)
(1.41079 1.74826 -3.39778)
(9.21842 0.809995 0.100931)
(10.0029 -0.00156881 -0.00212643)
(9.97909 0.0186592 0.0101279)
(10.0348 -0.0413922 -0.0128426)
(10.457 0.31194 0.455735)
(11.8548 0.60905 0.185222)
(10.2264 -0.6343 0.177278)
(10.076 -0.14571 0.0137943)
(11.7681 -0.0819939 0.330575)
(10.0137 0.143386 0.0163129)
(10.0742 0.0170289 0.0494774)
(9.98496 -0.0179918 -0.00763075)
(10.0376 -0.0459854 -0.00737902)
(11.1659 3.99286 -0.252713)
(6.519 1.82476 0.225893)
(1.48454 1.18252 -6.12671)
(9.9632 0.00250223 -0.0209772)
(10.071 -0.069038 0.0133092)
(10.0665 -0.610436 0.0311317)
(10.1653 -0.530411 -0.156031)
(1.21336 -0.71225 -5.71605)
(9.99177 -0.0202331 -0.0383563)
(9.97155 -0.0220761 -0.0413338)
(10.8328 2.55225 1.39392)
(10.1314 -0.121531 0.0202072)
(9.8796 0.0186154 -0.000497165)
(9.81524 0.00901997 0.0130579)
(9.93158 -0.00513596 0.0170515)
(13.0943 1.97443 -0.657196)
(11.1358 2.25255 1.28347)
(9.98326 0.162368 0.0305026)
(10.1292 0.136768 -0.0415896)
(10.0107 -0.0121814 -0.0436604)
(10.1883 -0.0243471 0.0107566)
(10.0434 0.0124431 -0.00888938)
(10.053 0.236346 -0.0239348)
(10.0799 0.0700484 0.0054348)
(10.0459 -0.00242537 -0.0062281)
(10.0104 -0.0148343 -0.00700385)
(11.2829 0.0301902 0.273514)
(10.8415 -0.602837 0.384328)
(10.4865 -0.73411 -1.2885)
(9.98715 0.0259245 -0.00275023)
(9.96584 -0.00576545 0.00764065)
(9.98318 0.0226648 0.0444504)
(10.713 -0.0562834 0.400515)
(9.93478 0.138625 -0.00322051)
(10.0612 -0.0113896 0.0173881)
(10.0066 -0.0156873 -0.0121224)
(10.0257 0.251619 0.0131291)
(10.0383 0.28022 0.0180423)
(10.0852 0.0470384 3.96641e-05)
(9.91459 0.275848 -0.0161751)
(10.0222 -0.0129302 0.0083832)
(9.98249 0.00809032 -0.0188112)
(10.063 -0.0106885 0.0224507)
(9.6521 0.393328 -0.156249)
(9.97835 0.00456123 -0.0174007)
(10 -0.0182688 -0.0100175)
(10.0092 0.238599 0.00902946)
(10.4042 -0.432373 -0.0306929)
(10.1021 0.238818 0.0187912)
(9.93486 0.239713 0.00741201)
(10.006 0.187478 0.0113024)
(11.2092 -1.24915 -0.0724205)
(9.95159 0.00746873 -0.00200916)
(9.2529 0.214113 0.131704)
(9.95643 0.173318 0.00573079)
(9.99916 0.0234799 -0.00668258)
(9.7097 0.268594 2.06714)
(11.3187 -0.396256 -0.519035)
(10.0606 -0.00601524 -0.0118804)
(9.97519 -0.00756361 -0.0217625)
(10.3641 -0.378578 0.0663233)
(10.4731 0.478656 -0.0260194)
(9.83745 -0.00418295 -0.00746405)
(10.0123 -0.00568733 -0.00363701)
(10.065 -0.139007 0.0126639)
(10.2205 0.699357 -0.109627)
(9.86995 -0.0111527 -0.0116206)
(0.0245686 -0.0933727 0.238066)
(10.5876 -0.0668057 0.0375686)
(10.0747 0.93438 -0.0767933)
(9.97936 -0.00172501 0.00750713)
(10.0699 0.822494 -0.0511769)
(10.3182 -0.280276 -1.03832)
(10.0021 -0.0154554 0.00456798)
(10.0033 0.00572716 0.00417981)
(9.78481 -0.0348541 -0.0334258)
(10.0113 0.00275637 0.00481458)
(10.0588 0.829976 -0.110273)
(10.1157 -0.0548685 -0.0302488)
(10.007 0.0228902 0.00301283)
(9.95412 -0.0160102 0.0103024)
(10.0023 0.0183006 0.00530303)
(10.0218 -0.0076868 0.0123834)
(10.1902 0.185845 0.0401699)
(10.002 0.0029424 0.00742847)
(9.98872 0.00114925 0.0101902)
(10.4791 0.878495 -0.316006)
(10.3131 1.08124 -0.363129)
(9.97027 0.0174375 0.0134074)
(10.5181 -0.440793 0.0717267)
(9.95442 -0.0377099 0.0209803)
(10.4061 0.819603 -0.28231)
(9.9776 -0.059902 0.0321237)
(9.93817 0.0211608 0.00952314)
(12.16 0.0606158 -0.610452)
(10.0029 0.0124928 -0.0132352)
(10.4285 -0.694102 1.57267)
(10.0218 -0.0124948 -0.0170293)
(10.8027 0.504697 -2.99924)
(9.99735 -0.00567496 -0.00966938)
(10.5838 0.120201 0.00779708)
(9.9691 -0.00684213 -0.0232376)
(10.0188 0.00747644 -0.0207946)
(9.8417 0.00891114 0.00638388)
(10.0486 0.000954446 0.0216997)
(9.99277 0.00421723 -0.0243337)
(10.3058 0.959319 -0.282793)
(1.70944 -2.08149 1.75889)
(2.07597 -0.622561 -2.48205)
(10.0495 0.0452818 0.0209479)
(10.3393 1.4919 -0.848465)
(10.6682 0.720642 -0.294355)
(10.7601 0.676775 -0.288075)
(9.98838 -0.0279536 0.00854382)
(9.97268 0.00903135 -0.00498742)
(9.99436 0.0125921 0.0119018)
(9.9506 -0.0082881 -0.00792608)
(9.95247 -0.0326834 0.011478)
(10.1392 -0.204376 -0.0192578)
(10.7639 0.609265 -0.200668)
(9.98514 -0.0123698 0.0158418)
(10.0419 -0.00398721 0.0143025)
(11.2737 -1.2835 0.429815)
(11.4227 0.529166 -0.185934)
(11.0551 0.548487 -0.126572)
(8.10424 -1.31275 -4.98297)
(-0.0430077 5.01619 0.764684)
(10.4851 -0.283788 0.0587392)
(7.45292 -0.97171 -5.50643)
(-0.0835279 4.76155 1.11338)
(9.89604 -0.172108 0.0112996)
(-0.165573 4.96337 0.956557)
(8.87079 -1.56734 1.41468)
(10.0285 -0.000991297 0.00485105)
(10.9902 0.638468 -0.303719)
(10.9414 0.689252 -0.328466)
(11.2123 0.611273 -0.300203)
(-1.31741 4.08355 1.32538)
(10.0922 0.119128 0.00378812)
(10.0014 0.0243419 -0.012625)
(10.0099 -0.0140606 -0.0213959)
(11.2824 0.654757 -0.398658)
(11.1621 0.688874 -0.457368)
(10.0478 0.0018878 0.0204272)
(10.075 0.0946927 0.00517716)
(9.85183 3.65159 3.0086)
(-1.21441 4.01972 1.30707)
(12.8361 -0.393758 -2.97254)
(10.0072 -0.0128714 0.00766333)
(8.7512 -0.704324 -3.22585)
(10.0392 0.0405292 1.11289)
(9.98133 -0.0216359 -0.0117809)
(10.9007 0.405227 -0.0448886)
(11.875 0.348178 0.249371)
(10.8892 0.315448 -0.03708)
(9.9964 -0.0144179 0.00452342)
(9.99869 -0.00462704 0.00697054)
(9.98292 -0.00654543 0.000715969)
(10.4593 0.342263 0.0176227)
(9.99916 0.00210978 -0.00025708)
(9.99046 -0.0179725 0.0193882)
(10.1466 0.0903057 -0.0372746)
(9.96224 -0.00552572 0.0127176)
(11.04 0.15173 -0.0350124)
(10.0298 0.00268027 -0.00545131)
(9.99777 0.0337255 0.0263742)
(9.99882 -0.0155961 0.000835386)
(10.0058 -0.00687547 0.0085858)
(9.94376 -0.00274933 0.013775)
(10.3893 0.308061 0.00678247)
(10.1607 0.0518424 -0.000917419)
(10.0502 -0.00128982 0.044825)
(10.967 0.169438 -0.042551)
(9.21888 4.34364 2.50706)
(9.96175 0.00541155 0.00899509)
(11.9329 1.60085 -1.32592)
(9.99818 -0.0089902 -0.00138143)
(10.7952 -0.205469 -0.0437269)
(6.56496 -0.894877 1.67333)
(9.75656 1.40823 -0.571834)
(9.97824 0.0572654 -0.0237656)
(9.83303 1.49091 -0.638706)
(10.008 0.0254785 -0.00741397)
(10.0619 0.0163115 0.0283142)
(10.0587 1.27831 -0.857047)
(9.9855 -0.00189821 0.0153244)
(10.6407 -0.183891 0.0627025)
(9.933 1.16545 -0.598339)
(10.2414 -0.0545626 0.0442132)
(10.5386 0.0162661 -0.259599)
(8.17798 0.280111 -4.09058)
(10.0408 -0.0219379 -0.0146399)
(9.64668 1.88227 -0.578327)
(10.0515 0.0164115 0.0382199)
(9.053 2.02425 -0.979868)
(10.0631 -0.0775594 0.016936)
(10.0111 -0.0345471 -0.00888551)
(9.99235 0.0201478 0.00719334)
(9.97839 0.0172308 0.0053436)
(10.8934 0.93069 0.856883)
(9.96468 0.00734743 -0.00267372)
(9.98304 0.0219232 0.00655669)
(10.0454 -0.0249588 0.000182567)
(9.9871 0.0317776 -0.00512237)
(11.1269 0.539447 0.00255821)
(10.0866 0.0149137 0.000746081)
(10.0591 0.0173594 -0.00130461)
(8.63887 0.243521 -0.573842)
(9.96008 -0.0147635 0.0468176)
(9.88438 0.0729978 -0.00439472)
(10.0583 -0.11909 0.0276604)
(10.0491 -0.0222268 -0.0187544)
(10.1134 0.017421 0.028002)
(9.97811 0.0172248 0.00773916)
(10.1269 0.0362568 -0.00276126)
(10.3319 1.32691 -0.994815)
(10.0048 0.0097454 0.00674111)
(9.98887 0.00467951 0.0026076)
(2.96612 -0.470033 -5.71578)
(10.0466 -0.013036 0.0184639)
(10.032 0.00666667 0.00714199)
(10.0431 0.12495 -0.0303598)
(10.0043 0.0112032 0.00644075)
(12.6374 1.27997 -0.432082)
(12.7439 0.936914 -0.150168)
(9.95406 -0.0223889 -0.0140855)
(9.97033 -0.0823174 0.0165462)
(9.91102 -0.00543561 0.0202599)
(11.282 -0.126382 1.21481)
(10.041 0.060085 -0.0324071)
(12.7032 1.35598 -0.387172)
(9.99899 0.00630732 -0.00343902)
(-0.802108 -1.33514 2.76015)
(8.16352 -0.506316 -0.6576)
(9.2433 -0.873155 1.9366)
(10.0437 -0.0124846 0.00896525)
(12.6479 1.26736 -0.31565)
(10.072 0.0339948 -0.0279276)
(10.0826 0.113758 0.0072724)
(10.0248 0.0134638 -0.0639097)
(9.82961 0.0559091 0.130923)
(10.0251 -0.00969438 -0.00585048)
(10.0438 0.0360157 -0.0151343)
(7.10399 -1.03006 -0.0782938)
(10.0056 0.00782121 -0.0148122)
(9.96594 0.00090778 0.00484764)
(9.98768 -0.0140909 0.0159952)
(12.5401 1.32563 -0.37556)
(10.054 0.00938044 0.0302596)
(10.0317 0.0004916 0.00567285)
(12.3652 1.32771 -0.444688)
(12.2679 0.704183 -0.0586134)
(10.041 -0.0114615 0.0190127)
(10.0134 -0.00604223 -0.00167593)
(-0.294277 1.98792 0.87658)
(10.0399 0.0047453 -0.00807172)
(10.5708 -0.339021 0.17433)
(9.97139 0.00681688 0.0214243)
(10.0669 0.0205441 0.0343184)
(10.0422 -0.00906082 0.010148)
(11.925 0.834833 -0.231424)
(11.1328 -0.023281 1.38202)
(9.29664 0.681042 0.853989)
(9.93299 0.0584182 0.0997317)
(10.0128 -0.0322289 0.0248842)
(10.0052 0.012116 -0.0172106)
(12.6208 -0.442254 0.512805)
(9.29349 0.151653 -0.394839)
(9.8516 0.054559 -0.0366933)
(-0.177583 1.85026 0.600369)
(10.0042 -0.0277142 -0.0203758)
(10.0149 0.0121019 0.00850514)
(-0.921598 1.73057 0.918069)
(12.0323 1.91861 -1.13967)
(9.85435 0.105204 0.0271868)
(0.0320078 1.9349 0.532088)
(-0.000821984 1.95921 0.836438)
(10.0089 0.0263788 -0.00177909)
(9.99858 0.00696016 0.00167871)
(10.0469 -0.00727195 -0.014938)
(9.65829 -0.388455 0.0530591)
(9.99503 0.0127914 -0.00124139)
(9.96804 0.00454853 -0.00210115)
(11.3506 1.08639 0.22801)
(10.0273 0.25137 0.0555057)
(9.95287 0.0441258 -0.00257876)
(10.0644 0.00620872 0.0198444)
(12.6145 0.836294 -0.0727174)
(11.8425 1.14774 -0.236604)
(9.97052 0.00421096 -0.00108199)
(10.3682 0.370953 -0.0467381)
(-4.5226 -2.68666 -0.422386)
(-0.0563858 -2.13336 -0.198653)
(10.7106 0.364427 -0.164833)
(9.96039 -0.00354986 0.00630736)
(10.3451 -0.154421 0.149634)
(10.8955 -0.132873 -0.713826)
(9.89173 6.24422e-05 -0.022324)
(9.89182 0.00261517 -0.020509)
(10.041 -0.00146427 0.0249782)
(10.3107 0.163538 -0.00897401)
(9.97975 -0.0126337 0.00691429)
(10.7349 0.168559 0.250703)
(10.0082 -0.0021673 0.0107461)
(12.8952 0.897684 -0.608695)
(10.317 1.51528 -1.08287)
(10.6507 0.351814 -0.0944611)
(12.9308 1.0833 -0.92671)
(10.0991 0.0665442 -0.0218138)
(10.0019 -0.00453142 -0.0135618)
(10.5357 0.677875 0.150319)
(10.1693 -0.0942729 0.0280398)
(10.0168 -0.001103 -0.00626299)
(10.0069 0.0061025 -0.00261712)
(10.9374 0.770833 -0.482973)
(7.97772 -0.743928 -1.40687)
(10.0209 -0.00543875 0.00325103)
(10.7887 0.194324 0.0563984)
(9.98559 0.11651 0.0336185)
(12.0338 -5.45151 -1.97621)
(10.5657 -0.822522 0.944443)
(11.4952 -0.15368 0.857059)
(6.30981 1.00346 0.332385)
(6.13602 0.97719 0.179506)
(10.0606 -0.0142493 0.0174774)
(9.89358 0.132159 -0.0068414)
(5.00685 0.844376 -0.170697)
(10.0341 0.00635413 -0.00444262)
(9.94373 -1.74725 -3.40037)
(7.05368 0.5433 1.98971)
(9.98496 0.000630375 -0.00237694)
(9.93338 1.24275 0.675085)
(10.017 -0.0433113 0.00329841)
(10.0192 0.00492314 0.0199545)
(10.021 -0.00227011 0.00176926)
(13.0753 0.416373 -0.0847112)
(9.97688 0.0104386 -0.00405556)
(9.98482 0.00440386 -0.00111952)
(10.0289 -0.0229104 0.00720111)
(9.89199 -0.00406192 -0.0480941)
(10.0218 -0.00905922 0.00948328)
(10.0489 -0.0143358 -0.00300916)
(10.0351 -0.00306316 0.0403079)
(9.97549 0.00529432 -0.00766337)
(11.1682 0.958465 0.642581)
(9.97856 0.34602 -3.10494)
(13.0973 3.31825 1.40542)
(10.792 0.421067 0.0242097)
(9.77699 1.37084 1.38579)
(10.0227 0.0345664 0.000509624)
(9.40668 -0.952982 0.105037)
(10.0166 0.0181449 0.0114148)
(10.0003 -0.00104576 -0.00854749)
(10.0029 0.00187321 -0.00701698)
(9.99972 0.00102939 -0.00688608)
(9.98567 0.0145966 0.000181142)
(9.12724 0.330952 -0.874903)
(11.3793 0.57392 0.232588)
(9.98546 0.0119026 -0.00450374)
(10.2285 -0.512861 0.136605)
(11.5261 1.42407 1.93218)
(10.0123 0.0234133 -0.00121663)
(4.14674 -0.100342 2.00418)
(13.0413 -0.999171 -2.81543)
(9.9511 0.0245937 -0.00565243)
(9.40079 -0.579184 0.0519508)
(10.4326 0.0356005 -0.00750948)
(10.0283 -0.00457811 -0.0309028)
(4.58382 1.03601 1.55521)
(9.99935 -0.00393641 0.00160671)
(8.03258 -3.53391 0.815827)
(10.046 -0.00476418 -0.00437741)
(11.471 -0.233259 1.07462)
(11.9297 0.479275 -0.0109256)
(9.97995 -0.0286953 -0.00605471)
(9.96997 0.0195876 -0.00482166)
(10.2397 0.538145 0.0627711)
(8.57456 -0.57189 -2.24771)
(9.94981 -0.026119 0.0125849)
(10.0313 0.00714757 0.0292229)
(10.1974 0.00225732 0.00707062)
(11.8353 -0.0863769 0.721434)
(10.0013 0.00406613 0.00214784)
(12.1568 0.470602 0.282103)
(10.3413 -0.0195682 0.0127283)
(1.09477 -0.745069 0.407789)
(11.8744 0.412385 0.0887008)
(10.2736 -0.00960048 0.00868936)
(11.9822 0.440375 0.20377)
(10.0008 -0.00358794 -0.00292249)
(10.1119 -0.0707226 -0.0204676)
(10.5329 0.361538 0.022346)
(10.3078 -0.0368757 0.00105698)
(12.1768 0.533991 0.113089)
(9.99805 -0.0178457 0.00300373)
(10.0404 -0.214477 0.0219519)
(12.0207 0.485082 0.0443245)
(9.99838 0.000494831 2.85254e-05)
(10.3461 -0.0470051 0.00478217)
(10.003 0.00933132 -0.00213286)
(10.0199 0.00876334 -0.000945948)
(6.87457 0.368186 -5.10082)
(6.6934 -0.12718 -5.68015)
(9.80488 0.0704078 0.399868)
(8.79131 0.33384 -4.15023)
(10.0092 0.0121057 -0.00119627)
(9.98306 0.0031089 -0.000272309)
(10.7536 0.643536 -0.225867)
(10.3348 -0.143038 0.0325362)
(8.81133 0.13979 0.341691)
(10.0259 -0.0031418 -0.00557955)
(10.051 0.0246443 -0.0124074)
(9.95421 -0.0173408 0.00931183)
(9.98668 0.0362245 -0.0224012)
(5.27678 0.233296 -6.32746)
(2.58771 -0.730443 0.917203)
(9.95003 -0.0123207 0.0093187)
(10.0192 0.0541749 0.00327901)
(9.95631 -0.0559269 -0.0183109)
(9.94273 0.0130522 -0.00705533)
(10.119 -0.117296 0.0323548)
(9.9403 -0.019297 0.00574514)
(11.1333 -0.125134 0.046299)
(11.6883 -1.41081 1.87906)
(10.0824 -0.00720461 0.0132852)
(10.0548 0.0216151 -0.0242638)
(9.96342 -0.0279709 -0.00457584)
(10.0086 0.0209275 0.00865254)
(9.7624 0.214167 0.038987)
(9.98605 -0.0271439 -0.0157422)
(10.5586 -0.194151 0.0145909)
(9.9646 -0.0133696 -0.0381379)
(10.0204 -0.0184863 -0.0221306)
(10.0531 0.0130095 0.00468536)
(9.25111 -0.85268 -1.22912)
(5.15554 0.723058 -4.76085)
(10.0234 -0.0619638 -0.00265046)
(-0.244975 -1.81937 0.646162)
(10.1146 -2.65545 1.26158)
(12.9718 -1.32882 -1.02664)
(-0.1579 -1.94549 0.483597)
(10.2223 0.0456288 0.0214453)
(5.75165 -0.235967 0.674963)
(10.4376 -0.468326 -2.54216)
(10.9951 -1.44551 0.425329)
(5.69351 0.301848 -3.73598)
(-0.426256 1.8408 1.49611)
(1.49463 0.591584 -3.51736)
(11.2769 -0.0310202 0.491344)
(10.6831 -0.0389746 -0.0276524)
(10.8338 -0.0216145 1.12767)
(9.92987 0.00504162 -0.00913466)
(3.76825 -0.220251 -0.23887)
(10.7386 -0.0102035 -0.326455)
(10.6078 -0.0252931 0.0225184)
(10.0048 -0.0138265 0.0136409)
(10.0151 0.0132994 -0.0249147)
(11.2878 -0.157411 1.08596)
(9.91433 0.112019 0.0376188)
(10.1375 -0.0339798 0.0176142)
(9.96982 0.0614295 -0.0132827)
(-1.4593 1.1035 0.412541)
(8.10826 0.262533 -2.4648)
(10.0207 -0.00380813 0.000921876)
(9.98482 -0.00489443 0.00411568)
(5.05763 0.283655 -2.35488)
(5.95328 0.146094 -3.0181)
(10.9748 -0.393801 -1.80432)
(-3.24795 -3.54262 -1.13137)
(3.59578 0.621919 1.54815)
(4.0959 -0.00360587 -3.83989)
(3.82325 -0.0756886 -4.70795)
(10.0064 -0.00393286 0.00859552)
(9.7603 -0.00013493 0.00458743)
(9.46154 -0.0333584 0.102269)
(10.0022 -0.043084 0.0177322)
(10.4223 0.041739 -0.0460111)
(-0.464596 1.99674 0.83208)
(10.8637 -0.100163 -0.253291)
(10.4754 0.0368401 -0.0463794)
(10.366 0.0408787 -0.0397088)
(10.0649 0.0255581 0.009604)
(-0.357863 1.93434 1.70548)
(-0.435194 2.20231 1.68396)
(10.0362 0.00315502 -0.0266336)
(10.4481 0.00215235 -0.0539735)
(9.93052 0.0526399 0.0163189)
(9.9933 0.00856342 -0.016278)
(10.3987 0.0189077 -0.037822)
(10.0177 0.017844 -0.0289948)
(9.69177 -0.032147 -0.019029)
(10.0378 0.0142714 -0.0444807)
(9.99012 0.00440569 -0.0138021)
(6.92557 -0.673865 -3.08944)
(10.0244 0.00778057 -0.00013515)
(9.99034 0.0247155 0.0382209)
(10.0313 -0.0346546 -0.0133635)
(9.88949 0.0315106 -0.0103176)
(9.91002 0.0252355 -0.0124626)
(4.24195 -0.50016 -2.35462)
(12.5227 -1.34574 -0.389236)
(10.0137 -0.0114662 -0.00715426)
(10.7356 0.404012 -0.20677)
(10.0396 0.0257518 -0.0110709)
(9.75851 -0.352013 0.131881)
(9.73977 -0.428649 0.191011)
(12.0279 -0.0690124 -0.0521228)
(9.92354 0.00489414 -0.00732713)
(-0.369034 -1.086 2.20047)
(12.1264 -0.13802 -0.0625687)
(10.4453 0.0711736 0.0177617)
(10.763 0.344563 -0.0416782)
(8.11644 0.304725 -3.39221)
(12.1283 2.69158 1.09862)
(9.99606 -0.0338158 0.000672233)
(10.0019 -0.030618 0.00108241)
(11.8449 1.57744 2.06035)
(10.0434 -0.00118503 -0.0219249)
(10.0031 0.0302418 0.000346364)
(11.0765 0.578841 0.361567)
(9.99315 -0.0323386 -0.0035568)
(9.98359 -0.00283968 0.00162906)
(-1.68455 0.391056 2.68109)
(12.5034 0.236981 0.0991895)
(11.4447 3.23876 -0.106968)
(10.0019 0.0007316 0.00494707)
(7.65467 0.528334 -2.63488)
(9.958 0.0101087 -0.00693768)
(11.8871 -0.390773 -0.262632)
(9.58684 -0.419167 0.2987)
(12.0733 -0.083968 -0.0234588)
(9.90993 0.00622743 -0.00347025)
(9.3976 -0.455737 0.262556)
(-1.08941 0.409897 2.87412)
(11.8713 1.68042 2.52389)
(12.3057 -0.377753 -0.830519)
(-1.01362 1.78321 1.80913)
(12.0228 0.335931 0.20337)
(10.404 0.166271 0.0591592)
(9.91553 -0.00714027 0.00849425)
(12.0978 0.272529 -0.208233)
(9.97496 0.00502919 -0.00125876)
(12.1998 -0.0936674 0.15231)
(-0.166924 -1.1562 1.36353)
(9.98774 0.00325641 -0.00244799)
(12.6849 0.0460014 -1.18119)
(9.98431 0.00487253 0.028712)
(9.96715 0.00565716 0.0217222)
(11.328 -1.7944 0.740268)
(9.97865 0.000967847 0.0190947)
(10.1304 0.106321 -0.0319828)
(8.23244 -5.83514 0.188434)
(9.5844 0.404382 0.0758532)
(10.0072 -0.247106 0.00583501)
(12.4953 -0.794858 0.187475)
(10.4864 1.41179 1.42767)
(10.0446 -0.00141082 0.0436109)
(11.8227 -2.52355 -0.762913)
(5.25492 -0.837384 -0.0814805)
(10.6503 0.0418425 0.0569379)
(9.61536 -0.72537 -0.852334)
(9.99282 0.0820282 0.00756928)
(10.4148 0.176306 0.014816)
(9.99453 -0.0101921 0.0221579)
(9.98717 -0.0115668 0.010233)
(1.87955 1.90131 -0.987384)
(1.08532 -3.97756 1.7402)
(12.331 -0.423163 -0.010037)
(10.0721 -1.66645 -0.345017)
(12.1802 -1.50366 -0.226093)
(1.59293 4.62352 1.14156)
(-1.94855 0.496422 1.06042)
(9.68159 -3.5966 4.36134)
(9.97378 -0.00814482 0.00204256)
(10.0039 0.0118706 -0.0086602)
(9.98901 0.013047 -0.00361644)
(9.86504 -0.0646876 -0.0588502)
(5.47996 0.730139 -1.96549)
(9.68563 -0.550901 0.181736)
(9.04285 -0.632982 1.12145)
(9.98829 0.0194454 -0.00831977)
(-0.918981 -1.5088 0.428036)
(12.1489 -0.0813494 0.0130362)
(9.95093 0.212063 -0.184373)
(10.0674 0.0435599 0.0149201)
(10.0096 -0.0434326 0.0261284)
(10.0723 0.0430608 0.0117443)
(6.27026 -1.84436 -3.14113)
(10.0048 -0.00300335 -0.00613663)
(5.79882 5.37589 0.100981)
(10.0228 -0.00836152 -0.000720262)
(10.1666 -0.564019 -3.0366)
(9.98841 -0.00381832 -0.0026111)
(9.99991 -0.00651486 -0.00584401)
(10.0123 -0.00942706 -0.00262648)
(10.0217 -0.00768651 -0.00693348)
(9.98805 -0.0120649 0.00296324)
(12.8369 1.00878 0.207152)
(12.1265 0.222561 0.729038)
(9.04313 1.44536 2.49966)
(7.13381 4.05718 2.52278)
(9.41143 1.17952 0.529536)
(10.3764 0.520513 -0.0644118)
(11.2318 1.04438 0.0469385)
(6.57808 -0.362595 -2.86794)
(10.5157 -0.128386 0.0470013)
(12.1852 -0.118496 -0.034566)
(10.4324 -0.736293 0.14084)
(11.9334 0.0262509 -0.0450167)
(8.17709 -0.109286 4.63774)
(5.37072 -1.34605 1.37885)
(10.5342 -0.241948 0.206643)
(9.99934 -0.00923911 0.00491926)
(9.53466 0.895858 -0.283212)
(10.0059 -0.00551593 0.00957505)
(10.1188 -0.004243 0.00332902)
(13.5613 -2.3548 2.68578)
(12.19 -0.577308 0.78896)
(-1.67688 2.85582 0.555044)
(10.163 -0.877855 0.270644)
(11.7524 -1.0254 -0.344758)
(10.4163 -1.09397 -1.10935)
(10.8306 -0.157935 1.61204)
(10.1687 -0.00736921 0.00676013)
(-3.98495 -2.84632 1.42761)
(10.0096 0.000665564 0.00629846)
(10.0606 -0.00353586 0.00407645)
(10.396 -0.0461987 0.73784)
(9.79348 -0.0669347 4.95548)
(10.1827 -0.0154547 0.0136196)
(10.2261 0.547886 -0.387406)
(9.98547 -0.00209489 0.00481672)
(10.6158 -1.26709 0.629516)
(10.5993 0.0925039 1.05316)
(9.96049 -0.0244139 0.0035477)
(10.982 -0.390719 -2.99521)
(10.3244 0.711595 -2.42506)
(12.5507 0.386883 1.42872)
(10.6429 0.517037 -0.126058)
(9.57224 0.114882 0.30504)
(3.13367 0.958704 -3.69904)
(0.494778 2.91423 3.29649)
(5.33542 3.18943 0.819168)
(13.0441 -0.833365 -2.67844)
(5.38084 -0.540573 -0.107004)
(9.82447 -0.0025132 -0.068315)
(9.89517 -0.0268482 -0.00272329)
(8.42236 1.69568 2.82532)
(9.95778 -0.0105983 0.0011976)
(4.49373 -0.767558 -0.146903)
(9.85819 -0.00522273 -0.0453423)
(9.84663 -0.00927514 -0.0498156)
(-0.373214 -0.378802 0.329302)
(9.63877 -1.25436 0.892561)
(10.8932 -0.456787 0.14261)
(9.97709 0.0112935 0.00924337)
(9.99161 0.020291 0.00856134)
(8.26421 0.296083 -2.80632)
(10.0272 0.01982 0.0240673)
(9.95019 0.000436134 -0.0159132)
(10.0582 0.901281 0.995929)
(12.2601 -0.721457 -2.79124)
(10.258 0.326421 0.0733007)
(9.89041 0.0847819 0.00679735)
(9.90958 -0.105564 0.000371949)
(9.997 -0.00246779 0.000190447)
(9.86667 0.00646744 -0.011717)