/*--------------------------------*- C++ -*----------------------------------*\
| =========                 |                                                 |
| \\      /  F ield         | OpenFOAM: The Open Source CFD Toolbox           |
|  \\    /   O peration     | Version:  2506                                  |
|   \\  /    A nd           | Website:  www.openfoam.com                      |
|    \\/     M anipulation  |                                                 |
\*---------------------------------------------------------------------------*/
FoamFile
{
    version     2.0;
    format      ascii;
    arch        "LSB;label=32;scalar=64";
    class       volScalarField;
    location    "0.0785492";
    object      k;
}
// * * * * * * * * * * * * * * * * * * * * * * * * * * * * * * * * * * * * * //

dimensions      [0 2 -2 0 0 0 0];

internalField   nonuniform List<scalar> 
47425
(
0.28401
0.316635
0.300543
0.307535
0.452692
0.304077
0.40969
0.310776
0.366887
1.46482
0.319853
0.322686
0.35054
0.301152
0.293893
0.319214
0.296852
0.323522
1.0746
0.51318
0.306612
0.292789
0.307322
0.301212
0.29652
0.284556
0.28589
0.805084
0.283908
0.288475
0.299442
0.316596
0.356124
0.287592
0.28089
0.300328
0.291397
0.363339
0.294038
0.30318
0.349286
0.605457
1.03578
0.3784
1.67221
0.331472
0.319408
0.350647
0.291536
0.285443
0.757898
0.59804
0.284244
0.831296
0.357029
0.355686
0.28618
0.286799
0.392069
0.296428
0.814132
0.843241
0.907618
0.309621
0.364462
0.289309
0.341111
0.350353
0.819151
0.30118
0.29345
0.280183
0.283678
0.299304
0.933425
0.368709
0.966553
0.297421
0.83772
0.507869
0.920132
0.300642
0.296442
0.348597
0.328357
0.305181
0.280744
0.278946
0.504854
0.568952
0.295779
0.327473
0.286953
0.364959
0.376338
0.35968
0.286586
0.286875
0.300362
0.348106
0.334414
0.412759
0.296417
0.431739
0.289525
0.356962
0.297883
0.310441
0.446153
0.308604
1.3381
0.319173
0.412544
0.344666
0.313411
0.789621
0.308946
0.610753
0.324785
0.319234
0.311046
0.362698
0.342924
0.332335
0.340037
0.377409
0.309045
0.364887
0.345941
0.287685
0.296199
0.313786
0.478995
0.335944
0.517588
0.332074
0.297368
0.383107
0.297719
0.296833
0.354005
0.346012
0.319914
0.443054
0.315894
0.366223
0.419794
0.339874
0.350737
0.361578
0.446796
0.77386
0.360297
0.776885
0.315816
0.309534
0.324725
0.901838
0.336184
0.313664
0.320041
0.285048
0.280329
0.297519
0.739915
0.818647
0.337815
0.923509
0.327324
0.859635
1.09747
0.335753
0.353841
0.303833
0.332517
0.361413
0.823751
0.28258
0.285151
0.287632
0.82637
0.279312
0.28234
0.28534
0.286233
0.336741
0.297052
0.399059
0.342436
0.284766
0.357975
0.288475
0.399072
0.365296
0.286711
0.301712
0.360532
0.308925
0.314759
0.27957
0.320605
0.361823
0.391743
0.303216
0.318517
0.372419
0.281994
0.298993
0.346784
0.361897
0.286429
0.292155
0.352104
0.304416
0.292011
0.290362
0.296273
0.574983
0.321788
0.353102
0.511346
0.281037
0.582291
0.291169
0.392958
0.492721
0.286969
0.306568
0.335919
0.368949
0.296872
0.301783
0.327859
0.36937
0.360953
0.309589
0.548765
0.319607
0.511959
0.359629
0.328783
0.280792
0.285183
0.293419
0.290249
0.362565
0.295456
0.357551
0.284643
0.294461
0.287461
0.483773
0.293852
0.365695
0.303026
0.286516
0.295048
0.356003
0.296462
0.357613
0.372876
0.352135
0.304234
0.354397
0.3589
0.340847
0.287571
0.356728
0.287104
0.316695
0.308716
0.500465
0.549794
0.287919
0.489777
0.366596
0.491744
0.431938
0.5348
0.519211
0.829284
0.281105
0.867682
0.354048
0.300642
0.293313
0.343145
0.312402
0.353574
0.329007
0.74928
0.304032
0.371308
0.287342
0.296695
0.312365
0.306573
0.290635
0.310826
0.344887
0.318386
0.282631
0.313129
0.29066
0.866798
0.811947
0.762237
0.286272
0.284306
0.291774
0.30798
0.768826
0.30968
0.319489
0.559321
0.326231
0.33655
0.364874
0.306287
0.641475
0.529488
0.298667
0.301323
0.281273
0.32267
0.285909
0.303605
0.284358
0.284663
0.289791
0.29197
0.964503
0.311217
0.292729
0.383804
0.286862
0.896939
0.312143
0.282309
0.290383
0.297932
0.298169
0.282553
0.295521
0.278883
0.289407
0.288812
0.29416
0.295319
0.322414
0.299759
0.288486
0.307881
0.297707
0.301568
0.322975
0.310296
0.296515
0.301703
0.360265
0.333004
0.321406
0.307152
0.307557
0.288949
0.308077
0.357968
0.358444
0.317741
0.297663
0.350281
1.15273
0.291782
0.300495
0.385664
0.29894
0.430148
0.356168
0.364437
0.291619
0.357607
0.298941
0.286296
0.355245
0.333493
0.364513
0.307245
0.294829
0.349719
0.305359
0.301758
0.303365
0.312405
0.291325
0.292046
0.299953
0.317265
0.304075
0.380906
0.283595
0.612599
0.284606
0.968224
0.314326
0.353219
0.34003
0.286511
0.34012
0.285129
0.319573
0.300669
0.551125
0.819675
0.284361
0.318768
0.298696
0.298462
0.306275
0.296606
0.295607
0.348843
0.310748
0.286881
0.300982
0.307089
0.286078
0.430458
0.296658
0.301077
0.473913
0.428547
0.294627
0.5964
0.449869
0.346885
0.437582
0.70152
0.286748
0.29693
0.297927
0.29674
0.658776
0.315201
0.282739
0.287874
0.302094
0.302682
0.309177
0.289847
0.675509
0.640469
0.486399
0.35638
0.379662
0.467
0.286826
0.298827
0.338658
0.298229
0.355173
0.363124
0.377802
0.297458
0.369613
0.30022
0.296522
0.31852
0.302569
0.301037
0.297703
0.348577
0.357669
0.36759
0.319584
0.307203
0.331321
0.298921
0.78201
0.360633
0.379373
0.344931
0.332491
0.728223
0.31474
0.285286
0.317466
0.350143
0.327057
0.314974
0.329551
0.287869
0.309464
0.284964
0.311243
0.424803
0.282768
0.33013
0.31713
0.341655
0.28411
0.285746
0.286387
0.29431
0.295247
0.314633
0.293453
0.286676
0.289904
0.309192
0.309041
0.322745
0.31257
0.286434
0.302558
0.277024
0.284746
0.294398
0.318795
0.310938
0.318403
0.363305
0.375393
0.730642
0.300675
0.293992
0.325633
0.365735
0.437253
0.439272
0.322709
0.290035
0.328692
0.419425
0.316774
0.44618
0.362381
1.30642
0.327407
0.328826
0.288963
0.438494
0.287946
0.294221
0.300165
0.345645
0.285868
0.280271
1.01709
0.289167
0.342501
0.287045
0.419408
0.279737
0.288515
0.401093
0.389382
0.301702
0.284464
0.2744
0.283957
0.300563
0.283751
0.284104
0.282819
0.360778
0.43576
0.302641
0.309511
0.301578
0.286738
0.506005
0.296541
0.317226
0.191596
0.299515
0.287045
0.257693
0.737785
0.30067
0.200004
0.221045
0.286078
0.346967
0.281973
0.290557
0.362032
0.324255
0.925693
0.29582
0.327532
0.284245
0.441772
0.355935
0.369484
0.306189
0.728665
2.02733
0.294949
0.312947
0.335121
0.304018
0.352717
0.364117
0.318333
0.317069
0.378947
0.285388
0.35913
0.455049
0.324474
0.294405
0.460423
0.331955
0.296256
0.310227
0.328274
0.28738
0.361918
0.350589
0.340328
0.3433
0.291027
0.297035
0.946693
0.302664
0.383261
0.82794
0.788595
0.288149
0.351168
0.700979
0.33545
0.40153
0.771943
0.376793
0.758578
0.285847
0.283703
0.354828
0.49522
0.381506
0.375568
0.282075
0.361297
0.29025
0.307031
0.281021
0.329035
0.300786
0.784918
0.680052
0.324932
0.319815
0.332864
0.302153
0.374405
0.351686
0.352409
0.360588
0.342628
0.303999
0.323769
0.354473
0.289811
0.366033
0.347364
0.915754
0.546089
0.324712
0.296453
0.355205
0.285971
0.889962
0.296641
1.23794
0.339269
0.427514
0.328575
0.308832
0.316463
0.285606
0.338983
0.297975
0.282143
0.385613
0.368217
0.368557
0.37236
0.349594
0.949173
0.328896
0.368053
0.353592
0.363677
0.286733
0.33675
0.316172
0.370944
0.341386
0.308133
0.341695
0.305867
0.322201
0.297685
0.293339
0.457093
0.528563
0.292661
0.421544
0.291762
0.31102
0.297762
0.286096
0.667804
0.281369
0.303562
0.300642
0.284402
0.639963
0.923014
0.303749
0.33397
0.287088
0.330279
0.282788
0.310864
0.311971
0.521954
0.310679
0.28624
0.30346
0.288673
0.300879
0.295203
0.28142
0.303555
0.286621
0.282313
0.311327
0.520844
0.285282
0.261243
0.601378
0.539322
0.287502
0.314182
0.827034
0.341804
0.319064
0.482035
0.25248
0.790741
0.323853
0.289875
0.442082
0.322954
0.538254
0.303949
0.333228
0.288841
0.29102
0.41728
0.34154
0.304164
0.327189
0.366606
0.358427
0.348331
0.37843
0.467623
0.446221
0.732007
0.862612
0.823486
0.587246
0.615889
0.363099
0.351016
0.292393
0.285671
0.328423
0.30953
0.314939
0.324098
0.338641
0.28784
0.329893
0.368441
0.287687
0.369928
0.313569
0.286422
0.354488
0.286965
0.292353
0.296115
0.332378
0.405695
0.289482
0.286748
0.292744
0.347808
0.338748
0.49656
0.416796
0.285798
0.329557
0.281354
0.288681
0.291191
0.332828
0.346258
0.422645
0.30194
0.291289
0.294722
0.379621
0.894578
0.302967
0.302945
0.377619
0.329942
0.342933
0.324943
0.31144
0.3768
2.17298
0.423073
0.859864
0.366857
0.375251
0.281458
0.382711
0.291867
0.320446
0.320225
0.293704
1.54252
0.410767
0.346428
0.567423
0.349876
0.279269
0.308105
0.383968
0.292748
0.329297
0.208361
0.289769
0.370745
0.360858
0.381189
0.693172
0.362901
0.349815
0.470396
0.293606
0.293627
0.418727
0.50866
0.318528
0.390344
0.425221
0.321682
0.301034
0.290134
0.313675
0.34367
0.342149
3.97222
0.653604
0.34949
0.52434
0.50128
1.10446
2.23483
0.486152
0.352764
0.360762
0.373541
0.353097
2.49254
0.292146
0.314561
0.372763
0.244005
0.316552
0.368881
0.347657
0.286516
0.374151
0.44988
0.363484
1.25439
0.283132
0.364544
0.376583
0.365703
0.357266
0.349851
0.37481
0.431211
0.329799
0.347461
0.442628
0.308883
0.295389
0.321273
0.399251
0.288352
0.395066
0.358484
0.349458
0.620309
0.873043
0.288743
0.3635
0.303149
0.36189
0.353877
0.636215
0.531407
1.26505
0.294506
0.348201
0.310354
0.908793
0.303665
1.74491
0.394373
0.37472
0.468101
0.558295
0.310071
0.294019
0.297374
0.307225
0.441665
0.306615
0.382363
1.20203
0.36583
0.287119
0.291798
0.652651
1.06914
0.48643
0.526274
0.912944
0.389924
0.339585
0.372177
0.299783
0.448569
0.358632
0.375036
1.00213
0.311648
0.288596
0.294157
0.357111
0.368474
0.367014
0.315831
0.300017
0.441785
0.292532
0.31877
0.291024
0.352838
0.352199
0.36116
0.326591
0.317523
0.299294
0.366722
0.29742
0.302873
0.313128
0.301426
0.357181
0.427936
0.329188
0.352305
0.293832
1.61296
0.371257
0.355445
0.321453
0.89972
0.666867
1.12901
0.338094
0.325219
0.316698
0.719338
0.367799
0.321464
0.358876
0.346043
0.362852
0.882167
0.35389
0.299757
0.350508
0.338161
0.283176
0.554377
0.985692
0.300589
0.97943
0.330513
0.629884
0.545828
0.299954
0.333957
0.363259
0.600211
0.328228
0.32018
0.319135
0.708609
0.483343
0.595634
0.305433
0.316972
0.289362
0.300834
1.42068
1.38038
0.332516
0.34355
0.371795
0.809773
0.294146
0.284622
2.17108
1.28563
0.355639
0.298892
0.855141
1.40163
1.11538
0.362613
0.751726
1.31496
0.879512
0.312056
0.42195
0.419377
0.315744
0.323059
1.43463
1.23249
0.339727
0.350111
0.345123
0.301685
0.320848
0.319019
0.452354
0.327257
0.366939
0.291428
0.368556
1.28481
0.960698
0.303091
0.544594
0.418629
0.310197
0.482134
0.28463
0.328576
0.299485
0.320886
0.379194
0.290678
0.740889
0.295618
0.826554
0.581191
0.937138
0.39528
0.422129
0.326677
0.348316
0.333279
0.52514
1.06171
0.348489
1.01834
0.485188
0.734637
0.450159
0.849326
0.661251
0.312851
0.339553
0.956524
0.337199
0.29583
0.299105
0.76746
0.690565
0.30083
0.317253
0.613347
0.382917
0.942958
0.773807
0.345721
0.432998
1.01661
0.342255
0.307733
0.849845
0.298284
0.810299
0.787069
0.296476
0.291445
0.309528
0.287723
0.36361
0.300461
0.299893
0.355415
0.363728
0.450296
0.319916
0.306062
0.48576
1.53914
0.772683
0.335965
0.321247
0.532342
0.30041
0.966805
0.329336
0.331778
0.354015
1.9026
0.335107
1.95732
0.380277
0.479799
0.321297
0.73226
0.596953
0.626856
0.409262
0.517409
0.352468
0.363526
0.368809
0.566473
0.357229
0.438141
0.773467
0.388158
0.431513
0.882996
0.330593
0.299324
0.681531
1.48068
0.358615
0.320007
0.359332
0.379488
1.24971
0.966812
0.287314
0.305527
0.359141
0.785082
0.355932
0.557621
0.35462
0.346822
0.352535
0.455814
0.337195
0.57912
0.591131
0.328023
0.359746
0.416205
0.312113
0.878583
2.08124
0.321325
0.825079
0.83696
0.376772
0.801515
0.360611
0.345859
1.02555
0.347987
1.06318
3.07814
0.309234
0.351983
0.412739
0.365345
0.353176
0.373274
0.479704
0.378821
0.313721
0.371919
0.315752
0.686205
0.374463
0.338814
0.360341
0.55107
0.295845
0.805686
0.715964
0.342906
0.829285
1.7419
0.292075
0.441555
0.484238
0.347754
0.325799
0.493892
0.795856
0.473631
0.96011
0.297234
0.740102
0.434379
0.285184
0.362497
0.355499
0.467917
0.319499
0.367279
0.557566
0.285209
0.549109
0.346313
1.39584
0.367195
0.284521
0.350236
0.500047
0.341853
0.693244
0.422347
0.30683
0.659616
0.29406
0.322834
1.2312
0.284496
0.363703
0.686551
0.32501
0.831064
1.22448
0.355065
0.378779
0.292712
0.869607
0.521225
0.941831
0.766023
0.391897
0.324114
0.40341
0.951645
0.936423
1.05188
0.34569
0.357546
0.338045
0.304748
0.371388
0.697958
0.347353
0.330188
0.32704
0.288856
0.309001
0.353233
0.301472
0.348883
0.355503
0.402638
0.293682
0.351145
0.543329
0.308462
0.291475
0.362677
0.336274
0.3594
0.288402
0.322645
0.322982
0.302779
0.37596
0.582975
0.337271
0.304955
0.291957
0.287359
0.502354
0.304967
0.303017
0.559597
1.06816
0.687232
0.302057
0.545005
0.446689
0.361981
0.501034
0.400503
0.480369
0.351445
0.302112
0.345244
0.370157
0.296257
0.358036
0.370249
0.344154
0.300172
0.300608
0.348899
0.486286
0.339845
0.392637
0.804647
0.346493
0.655347
0.380272
0.851733
0.282684
0.351453
0.333561
0.288336
0.304575
0.365896
0.286864
1.376
0.539308
0.775077
0.35326
0.884427
0.292087
0.317515
0.504483
0.29883
0.777986
0.399421
0.60218
0.326234
0.965799
0.933755
0.299067
0.285679
1.04904
0.30688
1.0577
0.318367
0.350931
0.29836
0.292356
0.294396
0.312211
0.325211
0.642942
0.380063
0.385406
0.319621
0.326774
0.284878
0.355319
1.41854
0.352832
1.55958
0.557366
0.296292
0.363206
0.316924
0.315841
0.311543
0.342247
0.336483
0.362906
0.32163
0.287177
0.328095
0.34943
1.27254
1.58054
0.326521
0.337997
1.97203
0.329238
0.289385
0.289693
0.286731
0.328122
0.363983
0.400062
0.377944
0.318203
0.295422
0.375182
0.283696
0.280416
0.303433
0.700151
0.38654
0.802385
0.733806
0.795998
0.303169
0.292891
0.287594
0.28711
0.288464
0.616292
0.313928
0.282806
0.307786
0.349249
0.298137
0.427176
0.294033
0.365322
0.428947
0.315948
0.289607
0.296919
0.317671
0.318727
0.296021
0.325837
0.31074
0.481184
0.311067
0.350195
0.386371
0.309989
0.313503
0.293334
0.31839
0.302395
0.351786
0.381373
0.290081
0.280949
0.304805
0.306734
0.295548
0.34228
0.286947
0.305646
0.293015
0.305955
0.820688
0.303562
0.400375
0.280258
0.290213
0.652547
0.304303
0.350619
0.285402
0.29546
0.336382
0.358042
0.725056
0.369629
1.55718
0.288938
0.296223
0.343959
0.2869
0.283356
0.377533
0.318392
0.282179
0.284097
0.829967
0.407716
0.638295
0.348561
0.516991
0.364682
0.293954
0.384804
1.31354
0.346946
0.300531
0.299923
0.760438
0.294302
0.304687
0.317461
0.315806
0.365848
0.751382
0.297594
0.31132
0.347462
0.313586
0.34399
0.872621
0.777385
0.295954
0.289704
0.287494
0.344523
0.326695
0.28421
0.767176
1.08631
0.291737
0.338242
0.808824
0.300867
1.19836
0.427477
0.285899
0.29442
0.292315
0.301001
0.558255
0.318221
0.315871
0.304647
0.341891
0.304863
0.361543
0.572155
0.362926
0.46693
0.476227
0.453845
0.549036
0.340769
0.38772
0.380137
0.379196
0.32735
0.30563
0.789212
0.552166
0.377901
0.342119
0.360541
0.334239
0.321801
0.259075
0.285217
0.285158
0.357062
0.349905
0.473356
0.395894
0.831238
0.685487
0.315675
0.377892
0.299695
0.301742
0.365123
0.289052
0.309859
0.288964
0.286357
0.248918
0.249112
0.286438
0.360764
0.631115
0.977859
0.328063
0.28574
0.450805
0.476131
0.803116
0.309064
0.787535
1.01745
0.885515
0.860387
0.379164
0.287043
0.283527
0.360613
0.830962
0.28456
0.372716
0.32737
0.286792
0.546539
0.499709
0.479099
0.316079
1.24987
0.285943
0.294907
0.322793
0.324456
0.613203
0.696739
0.358172
0.430122
0.332499
0.350982
0.307866
0.872361
0.353672
0.840192
0.371897
0.834672
0.352788
0.470398
0.570489
0.516287
0.380212
0.382691
0.657222
0.352516
0.353871
0.375278
0.363295
0.360715
0.341011
1.253
0.544221
0.317528
0.559575
0.6325
0.553344
0.300178
0.292866
0.703391
0.627963
0.778026
0.301355
1.07522
0.297236
0.918798
0.621996
0.552184
0.666445
0.289075
0.342709
0.291386
0.327103
0.321527
0.495234
0.40768
0.290396
0.29396
0.348376
0.314859
0.286432
0.285621
0.444684
0.287807
0.28234
0.31968
0.388526
0.410597
0.319157
0.352446
0.356514
0.319527
0.503323
0.415149
0.300126
0.300011
0.465355
0.544317
0.305749
1.81091
0.330717
0.402202
0.859974
0.370081
0.305595
0.287415
0.473248
0.310396
0.282548
0.359581
0.306344
0.294585
0.307916
0.291552
0.318396
0.307442
0.318142
0.297756
0.348311
0.651031
0.298594
0.308444
0.301658
0.310173
0.398397
1.05862
0.31024
0.293709
0.315926
0.539203
0.269913
0.329471
0.315995
0.818452
0.338079
0.374629
0.359074
0.381308
0.33246
0.344939
0.310201
0.490192
0.362272
0.347795
1.1249
0.312926
0.380517
0.338079
0.327958
0.353485
0.39079
0.307537
0.336534
0.292225
0.332523
0.315145
0.336894
3.25647
0.296841
0.394946
0.375975
0.34392
0.629576
0.342447
0.611562
0.358178
0.542958
0.639279
0.321097
0.29046
0.391251
0.368125
0.324061
0.29323
0.758401
0.434726
0.353016
1.04102
0.603343
0.302176
0.470957
0.431636
1.26507
0.899493
0.373432
0.448769
0.456961
0.552168
0.455105
0.88486
0.228854
0.559666
0.30981
0.589806
0.358406
0.379641
0.371512
0.351162
0.320705
0.356081
0.573846
0.31275
0.354181
0.380354
0.476701
0.738842
0.397483
0.712074
0.331909
1.02279
0.373325
0.374643
0.819975
0.540051
0.676615
0.621693
0.609727
0.523153
0.394823
0.369063
0.316892
0.366961
0.356714
0.745758
0.34174
0.344938
0.303138
0.470306
0.349146
0.29729
0.826938
0.475714
0.486655
0.182848
0.394476
0.323786
0.342798
0.339183
0.363715
0.319094
0.279332
0.327001
0.379279
0.181618
0.174423
0.509057
0.336113
0.406941
0.395875
0.434822
0.367038
0.350896
0.341229
0.147721
0.347307
0.379447
0.155887
0.365432
0.819512
0.574025
0.328542
1.37631
0.382658
0.450234
1.20291
0.387069
0.370428
0.297627
0.581029
0.287242
0.292436
0.337153
0.359548
0.36546
0.323472
0.559222
0.353971
0.448828
0.302454
0.376505
0.360188
0.285652
1.75814
0.499272
0.997686
0.450876
0.293783
0.898705
0.463031
0.291269
2.33404
0.293252
0.288773
0.457833
0.442404
0.956063
0.888861
0.329942
0.656186
1.20079
0.371696
0.615131
0.963474
0.826563
1.92449
0.358356
0.330425
0.562172
0.627483
0.386463
0.928144
0.339343
0.313025
0.494176
0.339066
0.295759
0.369795
0.737558
0.682859
0.282019
0.486343
0.299298
0.379558
0.32317
0.376412
0.569111
0.406143
0.756871
0.351378
0.360678
0.71399
0.290624
0.301469
0.423025
0.293769
0.333476
1.07316
0.316376
0.864683
0.78754
0.798127
0.79171
0.376377
0.371312
0.286503
0.285006
0.396342
0.292856
0.303553
0.387189
0.302675
0.385374
0.907279
0.293175
0.499093
0.294253
0.445469
0.347823
0.821988
0.351113
0.437279
0.297701
0.315507
0.3981
0.292091
0.315218
0.306548
0.28858
0.495963
0.308106
0.357673
0.337775
0.30208
0.34759
0.322893
0.358708
0.838981
0.317194
0.301194
0.301346
0.364712
0.151516
0.601386
0.446462
0.651227
1.00084
0.256168
0.40498
0.0823155
0.218026
0.991709
0.384243
0.515635
0.284431
0.698588
0.663628
1.18198
0.337569
0.31364
0.517247
1.2779
0.322877
0.386178
0.425871
0.418806
0.387483
0.376449
0.906111
1.36998
0.200245
0.353039
0.163632
0.337692
1.25259
0.308954
0.336022
0.308189
0.298163
0.418085
0.306751
0.549301
0.42902
0.318484
0.372623
0.305264
0.511231
0.60073
0.309
0.404771
0.340703
0.778552
0.425525
0.345879
0.501424
0.48937
0.28677
0.290605
0.345099
0.297897
0.65122
0.293567
0.408499
0.564253
0.311678
0.321866
0.307241
0.306487
0.583076
0.376779
0.488299
0.297375
0.302402
0.470823
0.607976
0.299917
0.325123
0.2988
0.296174
0.583717
0.417144
0.746031
0.320618
0.29667
0.41224
0.367288
0.324222
0.301683
0.360535
0.365516
0.508387
0.337613
1.99825
0.382039
0.382707
0.295838
0.362241
0.82607
0.962228
0.366372
0.801947
0.342004
0.977457
0.39302
0.668712
0.439947
0.50428
0.385321
0.312047
0.344365
0.387337
0.528038
0.346041
0.340752
0.922723
0.374529
1.53861
0.373238
0.323246
0.362195
0.55569
0.395615
0.294944
0.949204
0.292638
0.315145
0.294251
0.349212
0.723107
0.451545
0.32706
0.47921
0.345918
0.319931
0.301653
0.325876
0.389307
0.392878
0.379207
0.329602
0.320028
0.373424
0.321841
0.28752
0.365165
0.332019
5.45939
0.349998
0.4286
0.323342
0.373125
0.33459
0.385351
0.288145
0.344849
0.324883
0.322797
0.355972
0.788137
0.285911
0.768617
0.509651
0.391246
0.379798
0.327093
0.382509
0.416841
0.691888
0.30231
0.322178
0.326723
0.463852
0.351204
0.289518
1.2191
1.53073
0.63135
0.289526
0.295038
0.477957
0.352977
0.353596
0.468676
0.364427
0.313563
0.337426
1.51203
0.292411
0.531226
0.289172
0.312716
0.391452
0.308457
0.376196
0.424224
0.295075
0.554859
0.372822
0.367206
0.41201
0.91039
0.305282
0.35995
0.344213
0.368184
0.332044
0.341938
0.287225
0.280324
0.374465
0.553709
0.36568
0.340903
1.29801
0.367029
0.571593
0.358354
0.383028
0.366591
0.333954
0.761793
0.326147
0.486885
0.345638
0.355007
0.32778
0.364831
0.535796
0.425029
0.309252
0.589864
0.376929
0.625095
0.72047
1.44795
0.299349
0.423349
0.377687
0.242932
0.362122
0.251395
0.411004
0.221476
0.363814
0.799188
0.372878
0.586847
0.639517
0.340332
0.203465
0.427656
0.959477
0.484922
0.621622
2.05661
1.45259
0.707755
0.766795
0.299026
0.340683
0.718449
0.362567
0.917357
0.34749
0.763082
0.733109
0.316919
0.353656
0.313935
0.285673
0.343477
0.286861
0.679467
0.379272
0.350309
0.519854
0.311833
0.345476
0.293327
0.312839
0.340404
0.327908
0.379594
0.286685
0.381721
0.866879
0.294786
0.300023
0.326505
0.296525
0.808316
1.1982
0.371201
0.406183
0.501405
0.291499
0.280577
0.318694
0.333882
0.310456
0.316824
0.30678
0.298657
0.487187
0.302007
0.335388
0.312283
0.290981
0.292802
0.978835
0.307091
0.323875
0.306328
0.408841
0.345995
0.325136
0.634673
0.379918
0.312847
0.36077
0.337088
0.347337
0.381443
0.362825
0.302026
0.372045
0.354426
0.30707
0.32438
0.335485
0.412264
0.42539
0.312172
0.322705
0.373692
0.40214
0.445848
0.542389
0.908135
0.879081
0.324836
0.292735
1.06877
0.495093
0.523554
0.301118
0.291057
0.311493
0.28593
0.307097
0.293589
0.297281
0.321097
0.295161
0.300485
0.3
0.299699
0.291328
0.514046
0.345169
0.323274
0.30153
0.308944
0.577332
0.293485
0.29976
0.378727
1.03185
0.49969
0.374181
0.362233
0.299102
0.332231
0.442905
0.619573
0.369478
0.30915
0.356469
0.309208
0.311622
0.337773
0.403868
0.348618
0.305955
0.368785
0.386788
0.573614
0.363565
0.731929
0.556279
0.370558
0.36629
0.312646
0.318859
0.360343
0.284419
0.310791
0.566039
0.301687
0.330712
0.689333
0.336703
0.356777
0.441295
0.361114
0.303593
0.337723
0.297725
0.332777
0.696602
0.340039
0.401095
4.23507
0.551147
0.969681
0.796338
0.31099
0.314829
0.490682
0.293302
0.518051
0.461411
0.654463
0.369858
0.289208
0.775363
0.288543
0.507516
0.386369
0.305489
0.681358
0.877271
0.289903
0.296963
0.843405
0.289124
0.297968
0.297363
0.290957
0.340701
0.545358
0.547756
0.31862
0.76446
0.311995
0.311065
0.306569
0.823807
0.31356
0.861241
0.292272
0.331437
0.295283
0.400708
0.334786
0.468552
0.295547
0.645353
0.445022
0.447574
0.663967
0.316944
0.310987
0.915143
0.417923
0.325381
0.391856
0.79946
0.317433
0.398703
0.319588
0.556313
0.375976
0.298578
0.289717
0.42788
0.306249
0.359546
0.324193
0.290822
0.316215
0.297798
0.300284
0.326592
0.751925
0.312421
0.299411
0.298399
0.310337
0.311164
0.343427
0.286775
0.357861
0.412719
0.378231
0.371172
0.305366
0.409214
0.301554
0.355587
0.910385
0.437976
0.704046
0.310053
2.96148
0.337038
0.483286
0.36645
0.290363
0.373739
0.299389
0.298678
0.335094
0.348091
0.280885
0.306293
0.289416
0.624587
0.289044
0.305883
0.342113
0.696315
0.135
0.310893
0.759352
0.845852
0.565396
0.534821
0.821197
0.132256
0.378457
0.190881
0.33435
0.464893
3.31756
0.419889
0.35177
0.287515
0.292435
0.72536
0.322574
0.419042
0.702122
0.363045
0.577418
0.35215
0.558749
0.298474
0.354528
0.337696
0.286624
0.374661
0.282395
0.330458
1.05704
0.970849
1.08806
0.422887
0.882151
0.305646
0.283793
0.294929
0.355465
0.290442
0.343469
0.297863
0.384319
0.368736
0.289678
0.295363
0.352739
0.290418
0.316921
0.347316
0.311372
0.345002
0.467221
0.310641
0.343611
0.787991
0.340978
0.738479
0.767569
0.334985
0.373944
0.292241
0.443277
0.327095
0.341658
0.707691
0.293378
0.351017
0.324787
0.336353
0.303553
0.301964
0.456165
0.482424
0.3755
0.329097
0.761935
0.352394
0.612727
0.563572
0.360507
0.863291
0.417774
0.34671
0.319722
0.351536
0.362444
0.324859
0.291829
0.328356
0.170156
0.552979
0.17846
0.301839
0.331093
0.399286
0.150315
0.995386
0.337118
0.363585
0.364239
0.167442
0.368756
0.883593
2.46674
0.351758
0.298989
0.365545
0.48792
0.302598
0.347209
0.367408
0.304641
0.349921
0.312436
0.692504
0.32477
1.53879
0.386133
0.854606
0.334628
1.67723
0.952006
0.889494
0.318151
0.330913
0.415505
0.361062
0.304056
0.358178
0.315602
0.783322
0.291128
0.431457
0.623863
0.28999
0.292506
0.304511
0.318018
0.340064
0.360467
0.360983
0.378683
0.371667
0.317053
0.384796
0.321268
0.419961
0.314468
0.356694
0.294031
2.61185
1.29242
0.352662
0.418728
0.28498
1.81564
0.286017
0.287536
0.346682
0.285523
0.365124
0.348387
0.281774
0.281889
0.335105
1.75696
0.556497
0.370891
0.773628
0.292096
0.36122
0.315675
0.35956
0.766767
0.372092
0.786843
0.281944
0.312404
0.744945
0.834154
0.317039
0.324293
0.589225
0.377036
0.331392
0.450623
0.35698
0.359341
0.382494
0.362312
0.280602
0.373452
0.344356
0.442735
0.291679
0.351269
0.287013
0.322047
0.802214
0.763765
0.3051
0.428005
0.31637
0.345704
0.307088
0.497758
0.305926
0.319285
0.335065
0.337943
0.408187
0.367047
0.449404
0.340741
0.284797
0.322722
0.29309
0.348777
0.290801
0.485468
0.41707
0.318639
0.574302
0.320167
0.2893
0.344834
0.29282
0.364045
0.590901
0.310871
0.396863
0.360092
1.04941
0.365535
0.347534
0.36608
0.679591
0.36703
0.495439
0.343921
0.372445
0.444714
0.383107
0.353116
0.754
0.419193
0.363187
0.31089
0.298602
0.508523
0.312951
0.884439
1.45342
0.375887
0.390873
0.357432
0.442917
0.413323
0.353772
0.805532
0.443848
0.606689
0.294392
0.384299
1.12771
0.449995
0.325096
0.434431
0.305495
1.12143
0.355014
0.359708
0.306107
0.288311
0.294574
0.3252
0.294582
4.42209
0.292189
0.618518
0.288501
0.392609
0.353775
0.489492
0.32416
0.329151
0.316217
0.640045
0.432313
0.468711
0.298464
0.297161
0.419401
0.342291
0.329226
0.292775
0.289952
0.288274
0.311559
0.288019
0.347204
0.292881
0.52542
0.398246
1.20716
0.718969
0.54204
0.518617
0.358977
0.366568
0.287138
0.544419
0.30324
0.309182
0.302864
0.425296
0.458127
0.303963
0.38778
0.736574
0.456146
0.293538
0.295317
1.71726
0.769157
0.353499
0.811696
0.815382
0.59377
0.725133
0.527966
0.706813
0.37307
0.584499
0.716943
0.289623
0.297808
0.283236
0.439094
0.570339
0.306535
0.289797
0.37047
0.335824
0.376878
0.732843
0.444949
0.930887
0.338223
0.297087
0.314194
0.297203
0.332792
0.715471
0.993764
0.820652
0.735322
0.314601
1.24226
0.569905
0.30815
0.503122
0.438996
0.725462
0.365967
0.443699
0.723193
0.725836
0.440973
0.825899
0.466017
0.79224
0.355611
0.311159
0.370156
1.11565
0.736034
0.359349
0.312896
0.51061
0.410456
0.547242
0.330291
0.350265
1.09729
1.14623
0.185535
0.35234
0.180151
0.291787
0.1817
0.343871
0.432654
0.555649
0.164373
0.401168
0.463044
0.125959
0.428409
1.32326
0.379005
0.349454
0.784371
0.3064
0.458515
0.297858
0.28599
0.302603
0.311251
0.830203
0.655955
2.13267
0.358258
0.35742
0.599343
0.344157
0.406121
0.376347
0.331529
0.309657
0.549692
0.379922
0.399914
0.29973
0.387566
0.37199
0.701098
0.42726
0.760992
0.93613
0.725849
0.373699
0.368718
0.709395
0.240209
0.507996
0.330932
0.355049
0.298916
0.760107
0.590428
0.646481
0.693849
0.570026
0.292642
0.395346
0.84239
0.769669
0.35637
0.355786
0.423827
1.65413
0.32272
0.294158
0.361716
0.320583
0.814368
0.325973
0.565391
0.720464
1.07729
2.00195
0.501331
0.418589
0.76335
1.22789
0.827465
0.540762
0.796194
0.912
0.487913
0.346849
0.412802
0.356454
0.281848
0.3044
0.391983
0.473899
1.85997
0.345267
0.387471
0.402713
0.372683
0.436867
0.525721
0.450777
0.362395
0.376641
1.04853
1.03783
0.160872
0.366461
0.318469
0.340006
1.50214
0.829138
0.366901
0.596973
0.309879
0.401087
0.498549
0.520253
0.311116
0.310017
0.306605
0.361046
0.883861
0.42374
0.329849
0.706998
0.295694
0.917676
0.687049
0.437881
0.670318
0.339274
0.292497
0.312306
0.296188
0.346991
0.363533
0.307141
0.322489
0.308531
0.294134
0.466847
0.565468
0.693121
0.29881
0.439314
0.332237
0.36217
0.318958
0.54457
0.325709
0.314496
0.31083
0.294265
0.301134
0.304458
0.424363
0.288484
0.331428
0.33912
0.574262
0.300824
0.35781
0.470238
0.754502
0.910775
0.356204
0.806419
0.455707
0.342296
0.317263
0.498473
0.314341
3.79237
0.383239
0.300623
0.392447
0.407054
0.376212
0.420174
0.682548
0.974708
0.408688
0.823831
0.315271
0.287219
0.361586
0.29344
0.29156
0.376493
0.292981
0.297398
0.547032
0.296579
0.218461
1.82055
0.521211
0.291482
0.292094
0.577165
0.311263
0.304176
0.535937
0.305311
0.715547
0.366061
0.750039
0.292868
0.509588
0.409017
0.628404
0.297336
0.405894
0.298474
0.936866
0.364327
0.291918
1.30225
0.396345
0.472942
0.326754
0.345025
0.373675
0.291534
0.470963
0.291281
0.299206
0.295393
0.417327
0.544088
0.303637
0.298403
0.300359
0.295364
0.308188
2.5183
0.292034
0.423943
0.29151
0.53278
0.330668
0.33972
0.335466
0.435357
0.311881
0.385045
0.283627
0.31547
0.309574
0.321481
0.292799
0.404858
0.375327
0.926241
0.950265
0.752558
0.365296
0.315532
0.315429
0.292069
0.295949
1.01378
0.598465
0.368607
0.341481
0.285413
0.308603
0.283127
0.298011
0.493083
0.482592
0.727491
0.941581
0.340842
0.360589
0.37079
0.29194
0.533463
0.343536
0.4257
0.35281
0.330861
1.04475
0.384147
0.286053
0.312541
0.373432
0.301207
0.473878
0.292125
0.629094
0.345078
0.868487
0.462935
0.731335
0.300122
0.310384
0.326922
0.374405
0.334189
0.358235
0.299609
0.291628
0.297079
0.303944
0.354884
0.558153
0.341841
0.815802
0.387702
0.315762
0.484753
0.381689
0.36145
0.247771
1.01839
0.835377
0.226505
0.305805
0.298063
0.807001
0.29857
0.383338
0.350082
0.33776
0.267959
0.354204
0.353187
0.292384
0.390544
0.364676
0.934935
0.497246
0.408427
0.281845
0.369363
0.448088
0.321866
0.295408
0.848781
0.790088
0.311873
0.732748
0.301029
0.29099
0.36892
0.300065
0.851585
0.288779
0.289979
0.294921
0.618806
0.291156
0.330457
0.42372
0.429295
0.290193
0.308632
0.312568
0.313082
0.299676
0.340787
0.33747
0.556516
0.398717
0.360246
0.540868
0.352128
0.559423
0.334914
0.845894
0.415275
0.247476
0.61408
0.147763
0.402484
0.492435
0.549535
0.366671
0.2913
0.293392
0.288246
0.349627
0.78807
0.364624
0.290081
0.341435
0.346988
0.282617
0.450778
0.314508
0.36216
0.431806
0.31038
0.298716
0.32412
0.314433
2.44014
0.9097
0.355623
0.350036
0.394756
0.345253
0.765664
0.870352
0.946526
0.739514
0.336888
0.309444