/*--------------------------------*- C++ -*----------------------------------*\
| =========                 |                                                 |
| \\      /  F ield         | OpenFOAM: The Open Source CFD Toolbox           |
|  \\    /   O peration     | Version:  2506                                  |
|   \\  /    A nd           | Website:  www.openfoam.com                      |
|    \\/     M anipulation  |                                                 |
\*---------------------------------------------------------------------------*/
FoamFile
{
    version     2.0;
    format      ascii;
    arch        "LSB;label=32;scalar=64";
    class       volScalarField;
    location    "0.0785492";
    object      nut;
}
// * * * * * * * * * * * * * * * * * * * * * * * * * * * * * * * * * * * * * //

dimensions      [0 2 -1 0 0 0 0];

internalField   nonuniform List<scalar> 
47425
(
0.00478411
0.00473436
0.00423664
0.00193585
0.00309656
0.00433981
0.00419771
0.00311349
0.00742777
0.00255976
0.00237204
0.00738738
0.00484105
0.00383793
0.00309296
0.00367878
0.00437994
0.00231356
0.000240061
0.00259605
0.00367382
0.00667766
0.0029918
0.00484903
0.006632
0.0065774
0.00372682
0.000471745
0.0040991
0.00529236
0.00700185
0.00714079
0.00745915
0.00423644
0.00505643
0.00456482
0.00669865
0.00537819
0.00449331
0.0041151
0.00494732
0.00478502
0.00490802
0.00260976
0.000898435
0.00325691
0.00338133
0.00451866
0.00374248
0.00614543
0.000618971
0.00253836
0.00582641
0.00121658
0.00320953
0.00291692
0.00645296
0.00496998
0.00248608
0.00490346
0.000940364
0.000693571
0.00111247
0.00280556
0.0073849
0.00653477
0.005555
0.00400765
0.00109279
0.00505457
0.00377832
0.00538169
0.00582379
0.00334326
0.00157955
0.00746319
0.00116408
0.00371724
0.000188942
0.0018227
0.00151345
0.00466383
0.00695107
0.00742905
0.0055556
0.00378238
0.00519296
0.0051856
0.00391412
0.00141518
0.00680193
0.00435481
0.00701567
0.00320576
0.00257447
0.00186018
0.00611553
0.00544881
0.00343737
0.00448966
0.00556518
0.000913904
0.00573032
0.000936545
0.00584931
0.00685884
0.00574578
0.00334397
0.00582241
0.0070415
0.00375936
0.00516204
0.00551674
0.00223777
0.0072579
0.000328136
0.00728194
0.000711304
0.00423275
0.00516618
0.00393657
0.0074714
0.00590272
0.00241676
0.00355819
0.00648493
0.00367285
0.0074179
0.00331417
0.00698706
0.00665856
0.00335167
0.000974206
0.00285369
0.00454665
0.00422649
0.006276
0.00622104
0.00436745
0.00310072
0.00499001
0.00214936
0.00460213
0.00468678
0.00618752
0.00742414
0.00352757
0.00542175
0.00236293
0.00499668
0.00469227
0.000532446
0.00738984
0.000407069
0.00278001
0.00373129
0.00273663
0.000295596
0.00373562
0.00446087
0.0073546
0.00667237
0.00568743
0.00651229
0.00115933
0.000406089
0.00743214
0.00154508
0.00310646
0.000768878
0.00165396
0.00400632
0.00479065
0.00309962
0.00473479
0.00119314
0.000380228
0.00407556
0.00546759
0.00677191
0.000308744
0.00573178
0.00473705
0.0063206
0.00626421
0.00696033
0.0052956
0.00105221
0.00231709
0.00498287
0.00746955
0.00404844
0.00485412
0.00474285
0.0063503
0.00722789
0.00582738
0.00436252
0.00736499
0.00337171
0.00490661
0.00294708
0.00537239
0.00719488
0.00230514
0.00235384
0.00535551
0.00712769
0.0040054
0.00747105
0.00457532
0.00446832
0.00745916
0.00328387
0.0045818
0.00458898
0.00388854
0.00194919
0.00313555
0.00380046
0.0017494
0.00235429
0.00418732
0.00304596
0.00236862
0.00159969
0.00639968
0.00239566
0.00705233
0.00377876
0.00414113
0.0042419
0.00324984
0.00748889
0.00220729
0.00340332
0.00161879
0.00291264
0.0018097
0.00200112
0.0039786
0.00472554
0.00690532
0.00291511
0.00655921
0.00733162
0.00435108
0.0059
0.00668932
0.00385674
0.00693715
0.00204895
0.00443859
0.00742026
0.00333667
0.00690357
0.00663189
0.00299597
0.00317667
0.00739659
0.00301877
0.00745957
0.0038967
0.00264411
0.00494369
0.00385324
0.00666523
0.00418125
0.00459279
0.00390233
0.00389442
0.00202109
0.00169627
0.00595019
0.00210628
0.00206422
0.00210799
0.000525475
0.0017414
0.000572529
0.000925014
0.00478086
0.000859401
0.00291568
0.00382239
0.00350118
0.00333687
0.00347311
0.00396404
0.00738685
0.000723271
0.0048566
0.00737543
0.00513787
0.00443559
0.00325058
0.0027977
0.00630864
0.00479461
0.00476976
0.00372629
0.00654752
0.00373427
0.00486626
0.000935605
0.00080198
0.000526722
0.0069242
0.00596983
0.00681286
0.00313351
0.000793371
0.00363671
0.00278547
0.00192122
0.00454712
0.00325402
0.00301293
0.00330975
0.00141683
0.0019854
0.00693294
0.00506134
0.00601465
0.00405075
0.0067038
0.00393722
0.00451869
0.00543613
0.00407878
0.00352284
0.000963025
0.00362425
0.00398357
0.00297232
0.00689723
0.00081932
0.00631446
0.0062532
0.00554528
0.00674111
0.00668411
0.0062198
0.00572121
0.0054368
0.00581925
0.00491153
0.00636104
0.0035679
0.00395766
0.00664461
0.00646717
0.00501979
0.00644924
0.00652701
0.00246569
0.00391258
0.00696769
0.00637441
0.00385728
0.00189819
0.00533222
0.00405693
0.00328703
0.00604439
0.00640731
0.00276918
0.00743424
0.00479589
0.00680971
0.00273925
0.00127054
0.00377468
0.00703301
0.00192608
0.00698908
0.00398886
0.0038301
0.00502326
0.00667838
0.00563158
0.00685619
0.00681899
0.00481455
0.00396042
0.00439932
0.00373931
0.00566821
0.007174
0.00376576
0.00578323
0.00579303
0.00396245
0.00514067
0.00451305
0.00625179
0.00515832
0.00349986
0.00328015
0.00584905
0.00104369
0.00642879
0.0022115
0.00461581
0.00340972
0.00337738
0.00621289
0.0023613
0.00628466
0.00347104
0.00630382
0.00114055
0.00096878
0.00670454
0.0024921
0.00378005
0.00352734
0.00374635
0.00404315
0.0036996
0.00396186
0.00471521
0.00622363
0.00302077
0.00437015
0.00600623
0.00364264
0.00384871
0.00581604
0.000852798
0.000360238
0.00657213
0.000465185
0.000457427
0.0039264
0.000434216
0.00100561
0.00613376
0.00375835
0.00398821
0.00380956
0.00101997
0.00370983
0.00575218
0.00600725
0.00408618
0.00399433
0.00391873
0.00365596
0.00117672
0.000740673
0.00118838
0.00543754
0.000936797
0.00372862
0.0049941
0.00694054
0.0049549
0.00700217
0.00422914
0.00478999
0.00284693
0.00430513
0.0074896
0.00376264
0.00501772
0.0042147
0.0070942
0.00468591
0.00447824
0.00523091
0.00562938
0.00338622
0.00272607
0.0050016
0.0040645
0.00701808
0.00138656
0.00277662
0.00189923
0.00744304
0.00252538
0.00297871
0.00278033
0.00678822
0.00373997
0.00740267
0.00486101
0.00270067
0.00320197
0.0034395
0.00302272
0.00517752
0.00223582
0.000828505
0.00608851
0.00150007
0.00558383
0.00149989
0.00579806
0.00562031
0.00666306
0.00429838
0.00498275
0.00288449
0.00480871
0.00633109
0.00673727
0.0057465
0.00424742
0.00258771
0.0034266
0.00693164
0.0053997
0.00464379
0.00493376
0.00501731
0.00470226
0.0043442
0.00236458
0.00472285
0.00372038
0.000642261
0.00498041
0.00430552
0.00620922
0.0074118
0.00166768
0.00215041
0.00432984
0.00572366
0.00418731
0.00391055
0.00683787
0.00203858
0.00747828
0.00498482
0.00226453
0.00265983
0.00498777
0.0027413
0.00709839
0.00410824
0.00414579
0.00517719
0.00676195
0.00547088
0.000913418
0.0046457
0.00239121
0.00642347
0.00188437
0.00605037
0.00494094
0.00197296
0.00232075
0.00438014
0.00642114
0.000707979
0.00521232
0.00515473
0.00510504
0.00597604
0.00650739
0.00214314
0.00287071
0.00596283
0.00464205
0.00450484
0.00673411
0.00184912
0.0067508
0.00492805
0.00040845
0.00424968
0.00688541
0.000778138
0.00124397
0.00704648
0.000312705
0.000329291
0.00410698
0.00744586
0.0054774
0.00667053
0.00426059
0.00375857
0.00131313
0.00686069
0.00264989
0.00583906
0.00194824
0.00220076
0.00433117
0.00464525
0.00154581
0.00670594
0.00574755
0.00335576
0.00332727
0.00236882
0.00294356
0.00295687
0.00667614
0.00329091
0.00285124
0.00289823
0.0053252
0.00283558
0.00312485
0.00620928
0.00240568
0.00360623
0.0038418
0.0026488
0.00331069
0.00425236
0.00492958
0.00571811
0.00157841
0.0050767
0.00626991
0.00605753
0.000284764
0.00384635
0.00462968
0.000499085
0.000788348
0.00689154
0.00462383
0.000141449
0.00202577
0.000739524
0.00252093
0.00315409
0.000781924
0.0048321
0.00593697
0.00590931
0.00280955
0.00335451
0.0033283
0.00615665
0.00309484
0.00433367
0.00373066
0.0058679
0.00419774
0.00367232
0.0016964
0.000953503
0.00271893
0.00276166
0.00393562
0.00552255
0.00342029
0.00741649
0.00605403
0.00567852
0.00526686
0.00534531
0.0018815
0.00469477
0.00614244
0.00179603
0.00190132
0.00107742
0.00112971
0.00382836
0.00700109
0.00479345
0.0067116
0.00128946
0.00429175
0.00131943
0.00411961
0.0037578
0.00481655
0.00456602
0.00546708
0.00328487
0.00178249
0.00339996
0.00496676
0.001878
0.00404142
0.00748588
0.00410689
0.00394775
0.00181946
0.00473083
0.0018347
0.0032473
0.00747321
0.0066316
0.00243727
0.00398081
0.00342798
0.00743285
0.00496193
0.00393437
0.00431272
0.00402003
0.00379048
0.00456217
0.000844272
0.000580512
0.00416669
0.000755046
0.00436436
0.00280592
0.00331824
0.00600521
0.0044268
0.00460099
0.00393975
0.00391347
0.00650689
0.000545914
0.00229722
0.00326317
0.00506675
0.00625812
0.00368123
0.00508492
0.0023416
0.00724698
0.00183335
0.00393582
0.00659543
0.00401179
0.00630489
0.00514302
0.00429338
0.00569367
0.00345719
0.00696327
0.00622743
0.00352338
0.00097244
0.00700266
0.00075495
0.00219191
0.00200693
0.000749925
0.00407824
0.00370301
0.00200808
0.00323472
0.000771362
0.000814011
0.000894308
0.00310491
0.00464944
0.00334688
0.00285979
0.000818462
0.00241742
0.00357902
0.00531381
0.00418126
0.00396656
0.00306145
0.00549897
0.0041057
0.00123013
0.00185808
0.00555493
0.00246468
0.0010324
0.000666161
0.00393871
0.000575015
0.00178789
0.000636605
0.000814231
0.00449992
0.00298162
0.00668156
0.00627832
0.00469113
0.00072477
0.00117646
0.00464275
0.00473365
0.00688312
0.000891831
0.000875447
0.00691308
0.00222175
0.00355727
0.00689952
0.00217485
0.00693312
0.00685621
0.00412995
0.00467703
0.0014949
0.00615776
0.00686445
0.00485125
0.00512614
0.00509852
0.000970671
0.001882
0.0067459
0.00117224
0.00590108
0.00622476
0.00619593
0.00174095
0.00445094
0.00204825
0.00255178
0.00538795
0.00687192
0.0012013
0.000626577
0.00431388
0.00374561
0.00191123
0.00517867
0.00560961
0.00291366
0.00266854
0.00294507
0.00722888
0.00246056
0.00105507
0.0074237
0.00103582
0.00498838
0.00394544
0.00651169
0.00196518
0.0026087
0.0066843
0.00450141
0.00119338
0.00308751
0.0018414
0.00444739
0.00511466
0.00444851
0.00355989
0.00428975
0.00297422
0.000660711
0.00441669
0.00248268
0.00176325
0.00174895
0.00103354
0.00170643
0.00402228
0.000529989
0.00661499
0.00630176
0.00386292
0.00272709
0.00372278
0.00133188
0.00127178
0.00314864
0.00434982
0.00427376
0.00309429
0.00351058
0.00384882
0.010567
0.00140043
0.00384834
0.00351526
0.00266457
0.00173675
0.00642706
0.000536056
0.0038603
0.00537197
0.00386731
0.00387566
0.00985377
0.00641498
0.00322699
0.00386328
0.000661926
0.00266439
0.00472246
0.00359536
0.00538505
0.00346683
0.000739639
0.00462404
0.00236563
0.00527343
0.00172682
0.00286743
0.00376016
0.00546092
0.00528981
0.00357869
0.00225177
0.00374278
0.00156866
0.000726001
0.0051352
0.00667402
0.00467381
0.000997521
0.00503975
0.00266946
0.0068696
0.00164644
0.00153328
0.00342786
0.0029143
0.0043428
0.00681131
0.00514754
0.00312559
0.00121988
0.00209125
0.00110692
0.00626242
0.00212847
0.00233182
0.00294256
0.00346355
0.00542586
0.00167316
0.00163088
0.0035492
0.000868673
0.00346731
0.00345713
0.00412487
0.00465994
0.00347548
0.00458808
0.00116379
0.00456849
0.00435604
0.00417891
0.00574799
0.000753559
0.00275367
0.000674774
0.00148682
0.000737582
0.00205787
0.00379442
0.00122951
0.0033803
0.00120578
0.00197084
0.00201816
0.00170802
0.00283496
0.00495577
0.00411228
0.00746826
0.00136624
0.00366242
0.00334594
0.00421957
0.00127309
0.00556201
0.00422632
0.00577532
0.00746033
0.00287857
0.001727
0.00290439
0.0030089
0.00499686
0.00229333
0.00649359
0.00309867
0.00302919
0.0063676
0.00222851
0.0022566
0.00416034
0.00195033
0.00370351
0.00333738
0.00203455
0.00289023
0.00304005
0.000212583
0.000663411
0.00184246
0.000757676
0.00324513
0.00317238
0.000577743
0.000909966
0.00461567
0.000985697
0.00328321
0.00419077
0.000555988
0.00258627
0.00674985
0.00313623
0.00138417
0.00569774
0.00066041
0.000333898
0.00219137
0.000800101
0.00219807
0.000908674
0.000830961
0.00524375
0.00441662
0.00273821
0.00175523
0.00361477
0.00711642
0.0019794
0.000672889
0.00412246
0.00159112
0.00419811
0.00198771
0.00604927
0.00570505
0.00273552
0.00255419
0.00410848
0.00169508
0.00465553
0.00143007
0.00679398
0.00552025
0.00512845
0.00244542
0.00489909
0.00692036
0.000758226
0.0020765
0.00190721
0.00367298
0.0024822
0.00253552
0.00121412
0.00393882
0.00109324
0.00305896
0.00493477
0.00304913
0.00277913
0.000916737
0.00189786
0.00168384
0.00587707
0.0046277
0.00193836
0.00394547
0.00288337
0.00499218
0.00740451
0.00605488
0.0037959
0.00325314
0.000790075
0.00376311
0.000488954
0.00367852
0.00432273
0.00297246
0.00497446
0.00366925
0.00395217
0.00433074
0.00192367
0.00545984
0.00138829
0.00688907
0.000357535
0.00136173
0.00144268
0.00196408
0.00410995
0.00527775
0.00342052
0.00470011
0.000613692
0.000728514
0.0033694
0.00213964
0.000988489
0.000899164
0.0022987
0.00113475
0.000638101
0.00347256
0.00443132
0.000552415
0.00381142
0.00435455
0.00411405
0.00114986
0.000496684
0.00381705
0.00350194
0.00126224
0.00251471
0.00153973
0.000736953
0.00323077
0.00106883
0.00115651
0.0033391
0.0043833
0.0011767
0.00564448
0.00183717
0.000230835
0.00694172
0.0042054
0.00371981
0.00509352
0.002981
0.00298659
0.0071473
0.0029472
0.00409696
0.000789846
0.00154456
0.00436316
0.00140352
0.00669688
0.000381608
0.00667385
0.00345241
0.00225379
0.00504568
0.000966051
0.00385956
0.00300027
0.00235108
0.00427005
0.00389455
0.00588897
0.00210375
0.000663376
0.00565554
0.00152675
0.000690391
0.00241243
0.00344774
0.000969054
0.00162876
0.00478123
0.00500814
0.00100171
0.00171478
0.0023015
0.000806203
0.00258599
0.000888888
0.00348928
0.00273581
0.00211851
0.000986577
0.00558173
0.00517005
0.0020825
0.00428461
0.00255693
0.00403447
0.00147508
0.00493699
0.00346427
0.00575592
0.00145057
0.00560387
0.000602205
0.00216203
0.00556584
0.00739774
0.00185667
0.00159158
0.000848919
0.00187703
0.00196089
0.00106783
0.000841819
0.00394554
0.000914348
0.00507161
0.00278502
0.000399031
0.00147787
0.00308877
0.00348086
0.00561304
0.00141958
0.000898978
0.00152412
0.0030526
0.00816677
0.00693286
0.00172753
0.00365122
0.0037948
0.00627772
0.000998745
0.00294834
0.00159147
0.00405698
0.00149601
0.00394651
0.00286672
0.00106602
0.00180588
0.00235898
0.00236903
0.00535429
0.000394358
0.00161881
0.00148803
0.00140243
0.00675117
0.00515884
0.00101401
0.000795894
0.00161853
0.00262245
0.0027195
0.00161431
0.00231041
0.00158971
0.00523579
0.00126829
0.00129017
0.00522676
0.00114008
0.00332584
0.00247168
0.00268949
0.00122982
0.00244854
0.00557778
0.000666871
0.00328257
0.000652189
0.00259502
0.00355077
0.00300153
0.00185336
0.00123865
0.00230682
0.00378471
0.00287246
0.00115724
0.00377009
0.00412223
0.000697229
0.00662653
0.00356593
0.00083393
0.00337079
0.00267461
0.00260767
0.00237492
0.00115051
0.00354253
0.000152322
0.00227842
0.000748678
0.00313223
0.00109393
0.00261573
0.000869072
0.00138609
0.00140347
0.00338824
0.00394028
0.00741052
0.00398053
0.00354403
0.00287742
0.000703867
0.00375618
0.00595437
0.00404444
0.00473595
0.00289534
0.00415454
0.00695775
0.00745247
0.00297395
0.000943494
0.00647144
0.00276777
0.00229235
0.00515441
0.00617526
0.00281286
0.00211785
0.00747109
0.00531211
0.00328224
0.0034799
0.00552968
0.00387982
0.00114555
0.00385265
0.00321024
0.0053894
0.00670152
0.00199782
0.00460268
0.00577055
0.00084237
0.00225877
0.000942104
0.00629151
0.000904719
0.00041596
0.00533956
0.000387738
0.00076306
0.000534533
0.00389667
0.00454099
0.00423904
0.00135272
0.00675133
0.00438051
0.00445462
0.00382624
0.00266678
0.0034089
0.00340816
0.00100861
0.00428191
0.00263564
0.000803398
0.00400511
0.000308072
0.00161337
0.00121884
0.00613311
0.00300114
0.00191026
0.00560868
0.00452001
0.00192716
0.00678229
0.00286622
0.00162053
0.000457292
0.00702784
0.00144371
0.0049244
0.00295501
0.00268069
0.00503485
0.00131502
0.00447113
0.00204431
0.00436277
0.00128324
0.000277495
0.00378987
0.00669586
0.00232658
0.00456081
0.000998547
0.00374283
0.00371554
0.00431135
0.00406412
0.00528161
0.00715204
0.00368687
0.00214551
0.00504883
0.00218381
0.00391907
0.00376121
0.00694486
0.00229676
0.00351612
0.00397297
0.00517628
0.00430012
0.00437525
0.00305846
0.00409646
0.00431697
0.00567179
0.00231399
0.00258933
0.0074721
0.00380262
0.00349969
0.00497159
0.0037798
0.00344909
0.00399162
0.00379046
0.00384135
0.00594293
0.003806
0.00557436
0.00454918
0.00607598
0.00201719
0.00221503
0.00196174
0.00361912
0.00462627
0.00399531
0.00116767
0.0049931
0.00481983
0.00525366
0.00144205
0.00297939
0.00121443
0.00122401
0.00126171
0.00307045
0.00435685
0.00392833
0.00405562
0.00607436
0.00118477
0.00387213
0.00611878
0.00399428
0.00312781
0.00385916
0.00152186
0.00386188
0.00234815
0.0026662
0.00332243
0.00590997
0.00427223
0.00363271
0.00370186
0.00440419
0.00294579
0.00320709
0.00267142
0.00361634
0.00508201
0.00492387
0.00209501
0.0018774
0.00453886
0.0040501
0.00228157
0.00368812
0.00226762
0.00612486
0.00497277
0.0022746
0.00449825
0.00552777
0.0045835
0.0065821
0.00609535
0.00332558
0.00419894
0.00220117
0.00428405
0.0022392
0.00559927
0.0041868
0.000981988
0.0039029
0.004177
0.00479018
0.00493589
0.00390368
0.00422099
0.000311459
0.00345988
0.00406493
0.00570111
0.00498931
0.00490952
0.00691406
0.0059021
0.0034967
0.00400568
0.00590166
0.00637384
0.00267333
0.000969286
0.0012438
0.0029641
0.00173152
0.00349736
0.00376085
0.00353022
0.00253057
0.00192726
0.00318784
0.00387704
0.000816644
0.0046375
0.0038713
0.00376
0.00390271
0.00558314
0.000291923
0.00450228
0.00351436
0.0074304
0.0025861
0.00240845
0.000404161
0.000222364
0.00447209
0.00547182
0.00669857
0.00389134
0.00357577
0.00471861
0.000201257
0.00158393
0.0045778
0.00249173
0.00122779
0.00470853
0.00620016
0.00346328
0.0066615
0.00482351
0.00630207
0.0041307
0.00270127
0.00379496
0.00413443
0.00497036
0.00181249
0.00413802
0.00743716
0.00159972
0.00571916
0.00324453
0.00276737
0.0010301
0.00162313
0.00339737
0.00287963
0.00484277
0.00284779
0.00281
0.00579592
0.000576983
0.00161106
0.00287974
0.00380935
0.00339962
0.00378282
0.00374625
0.00107943
0.0069256
0.00637399
0.00574167
0.00538216
0.000831207
0.0012292
0.00123178
0.00177955
0.00289663
0.00287971
0.00696109
0.00657033
0.00454909
0.00474872
0.0049492
0.00536226
0.00689489
0.00103992
0.000735723
0.00683929
0.00541376
0.00246434
0.00256192
0.00277593
0.00683318
0.0046025
0.00180774
0.000878761
0.00335569
0.00199388
0.00315739
0.00152472
0.000539833
0.00309298
0.00588511
0.00672981
0.00617168
0.000878574
0.00505345
0.00435008
0.00411934
0.00694313
0.000846507
0.000397963
0.00045036
0.00162705
0.0047173
0.00570807
0.00656018
0.00209374
0.00361251
0.000885545
0.00083753
0.000837998
0.00052358
0.000824731
0.001622
0.00645894
0.000760729
0.00739759
0.000321249
0.00390475
0.000763994
0.00444196
0.00162966
0.00522677
0.00287295
0.00224757
0.00225489
0.00431551
0.00559512
0.00398877
0.00086132
0.00101224
0.00500262
0.00516315
0.000464403
0.000477044
0.00350305
0.00159356
0.000763665
0.00160437
0.00449385
0.00646539
0.000899789
0.000772501
0.00149382
0.00703333
0.00137686
0.0059848
0.00079527
0.00108904
0.00060672
0.00230054
0.00544279
0.00143766
0.00633873
0.00459951
0.00368221
0.00208651
0.00548342
0.00344676
0.00416182
0.00373864
0.00405957
0.00624136
0.00604626
0.00318782
0.00644703
0.00548616
0.00413311
0.00383826
0.00146556
0.0037336
0.00234824
0.00398329
0.00460288
0.0039508
0.000923535
0.00337196
0.00326265
0.00181171
0.000545404
0.00409521
0.00435434
0.00295892
0.00093365
0.00171906
0.00123633
0.00444783
0.00613165
0.0041885
0.00330853
0.00523241
0.00332475
0.00307533
0.00356632
0.00668149
0.0044046
0.00424742
0.00432252
0.00309836
0.00410662
0.00360461
0.000631324
0.00337374
0.00390434
0.00405706
0.00284146
0.00106039
0.00301177
0.00359841
0.00438207
0.00303654
0.00126732
0.00106416
0.00372277
0.00316328
0.00036061
0.00148212
0.00202872
0.00400836
0.00146131
0.00307076
0.00395585
0.00255719
0.00108801
0.00467899
0.00402035
0.00260968
0.00623787
0.00233609
0.00266166
0.00304004
0.00332905
0.00194434
0.0039855
0.00584189
0.00670371
0.00171055
0.00319438
0.0039812
0.00605983
0.00478172
0.000776543
0.00293936
0.00332191
0.000431068
0.00167949
0.00538481
0.00340572
0.00093877
0.00158914
0.00225091
0.00671976
0.00289327
0.000990595
0.00469549
0.00692234
0.000654166
0.00173591
0.00128873
0.0024963
0.00465387
0.00444196
0.00150755
0.000612626
0.000746065
0.00495576
0.00514303
0.000589454
0.00487564
0.00176294
0.00307381
0.00148043
0.000912204
0.00460356
0.00331869
0.00114856
0.0039545
0.00495785
0.00442432
0.00354713
0.00536497
0.000851746
0.00028276
0.00331918
0.00353521
0.000694227
0.00050234
0.000660463
0.0019588
0.00104855
0.00190179
0.000521711
0.00352553
0.00353175
0.000849561
0.00220455
0.00223392
0.00112338
0.000969057
0.000428287
0.00528318
0.00486974
0.000756109
0.00658729
0.00420693
0.000788876
0.00513014
0.00326203
0.00393796
0.00285344
0.0049755
0.00596946
0.000450154
0.000600876
0.00242395
0.000664573
0.00237859
0.00350623
0.00425855
0.00420124
0.00323909
0.00417023
0.00489289
0.00381481
0.00434873
0.00066176
0.000613253
0.00403388
0.001623
0.00387127
0.00417429
0.00250537
0.00350085
0.00361571
0.00433199
0.000434467
0.00104611
0.00417574
0.000589255
0.00278795
0.00138846
0.00283854
0.00334407
0.00110414
0.00278996
0.00102925
0.00328087
0.00289424
0.00289414
0.00601339
0.00112178
0.00684093
0.00520318
0.00226617
0.00422478
0.00140733
0.00325589
0.00236731
0.0033814
0.000828127
0.00379077
0.00340617
0.0036282
0.00677063
0.0046931
0.00323539
0.00174611
0.000436716
0.00271454
0.000744981
0.00319107
0.00421765
0.00507032
0.00433912
0.00475554
0.00435863
0.00329431
0.001171
0.00182078
0.00115517
0.000593595
0.00345258
0.00391494
0.000157848
0.000819295
0.0052775
0.00540069
0.00118351
0.00373834
0.000682846
0.000435692
0.00265312
0.000744156
0.00125754
0.00269259
0.000714649
0.00160789
0.00541309
0.00348348
0.000990217
0.00123578
0.00586913
0.000918393
0.00613205
0.0026293
0.00414793
0.00261837
0.00175923
0.000793666
0.000967338
0.00589215
0.00568909
0.000231379
0.00661612
0.00450613
0.00113348
0.00550406
0.00273771
0.0042817
0.00304845
0.000516723
0.00140691
0.000924522
0.00163944
0.00315235
0.00105533
0.00542985
0.0046211
0.000966525
0.00634404
0.00359325
0.00261134
0.00491843
0.00122879
0.000627006
0.00645976
0.0021736
0.00674179
0.000707788
0.00375572
0.000558725
0.00276043
0.0030625
0.00528805
0.00245614
0.00264789
0.00599302
0.00409844
0.00316028
0.00676872
0.00138055
0.00320051
0.00345076
0.00616485
0.00373943
0.00344068
0.00233214
0.0028419
0.00184608
0.0029782
0.00329641
0.00356692
0.0013663
0.00054533
0.000764566
0.000679928
0.00109959
0.00080242
0.000901686
0.00248634
0.0001983
0.000694989
0.00153697
0.00166898
0.00243589
0.000984264
0.000950985
0.00214834
0.00145275
0.00203394
0.00597895
0.00245764
0.00181048
0.0037232
0.000896236
0.00333199
0.00063705
0.00179342
0.00112328
0.00136341
0.00138206
0.000712512
0.0017481
0.000616476
0.00259786
0.00293273
0.00375175
0.00157532
0.00485017
0.00529373
0.000890238
0.00323206
0.000934668
0.00179285
0.00502452
0.00232593
0.00386197
0.00146883
0.00119898
0.00628347
0.00512807
0.00155494
0.000913867
0.00360382
0.00265004
0.00120657
0.00104203
0.00404388
0.00670616
0.00381812
0.00395754
0.000731435
0.00687575
0.000854039
0.000353955
0.00485749
0.0023669
0.0040043
0.00320265
0.000855313
0.00274927
0.00076103
0.00314626
0.00413556
0.000494084
0.0010264
0.00503657
0.00228838
0.00500352
0.00623205
0.00125153
0.00326047
0.000726844
0.00350494
0.00592262
0.00261592
0.00628057
0.00461395
0.00498739
0.00445799
0.00270472
0.00196162
0.00138142
0.00445772
0.00103211
0.00514432
0.00632491
0.00213624
0.00121438
0.000790625
0.00082728
0.00187495
0.00192482
0.00101856
0.000876843
0.000821797
0.000808682
0.00286695
0.00298639
0.00387243
0.00134884
0.00503546
0.00258708
0.00306759
0.00126501
0.000497948
0.00348142
0.00288695
0.00347541
0.00416713
0.00334189
0.00339844
0.00564162
0.00436587
0.00248504
0.00281218
0.00262074
0.00515137
0.00284938
0.00151419
0.000726657
0.00414111
0.000549847
0.00744381
0.00273354
0.00684136
0.00438262
0.000854096
0.00267615
0.00108857
0.00356979
0.00335675
0.00315838
0.00428929
0.00453043
0.00408436
0.00309885
0.0128657
0.00718672
0.000742554
0.00280821
0.00115605
0.00276387
0.00106999
0.00539582
0.0044364
0.00330394
0.00375788
0.00285097
0.000923473
0.00611813
0.00418294
0.00117379
0.00246716
0.00243077
0.00244839
0.00243944
0.00220049
0.00203887
0.00467346
0.00732934
0.00625394
0.00190288
0.00140216
0.00441592
0.000483423
0.00687918
0.00167794
0.00654015
0.00584899
0.00173896
0.00435075
0.00635553
0.000900168
0.00742105
0.00399316
0.00132369
0.00384828
0.00652928
0.00121618
0.00645697
0.00721916
0.00102464
0.00263085
0.00285327
0.000715238
0.0069866
0.00181852
0.00124739
0.00160171
0.000887623
0.00112901
0.00417976
0.00582478
0.00277661
0.0056206
0.00171659
0.0028268
0.00479534
0.00544496
0.00348112
0.00114225
0.00294186
0.00416371
0.00328244
0.00338117
0.00238336
0.00738817
0.00209993
0.00105323
0.00355433
0.00316473
0.0044024
0.0039295
0.00273974
0.0043233
0.00213913
0.00312582
0.000585273
0.00376688
0.00702583
0.000932744
0.00286875
0.000645257
0.000945401
0.00645558
0.00326979
0.00115208
0.00309252
0.000656352
0.00135329
0.000562715
0.001348
0.00062645
0.00301299
0.0013918
0.00152009
0.000512929
0.00108977
0.00282014
0.000619759
0.000670046
0.00264389
0.000319769
0.00115464
0.00451353
0.00313208
0.00133709
0.000887929
0.00704112
0.00360714
0.000924392
0.00069634
0.00103939
0.00121075
0.00148841
0.000765258
0.00272135
0.00357767
0.00418395
0.0065635
0.00303024
0.0061148
0.000951835
0.002913
0.00424846
0.000639087
0.00369943
0.00226272
0.00408958
0.00575794
0.00309068
0.00406176
0.00175083
0.00602892
0.00165238
0.000582374
0.00451553
0.00596666
0.00318215
0.00466028
0.000978263
0.00407093
0.00504098
0.00568663
0.000533793
0.00585768
0.00329929
0.00620928
0.00158113
0.00299186
0.00421061
0.00560641
0.00483014
0.00151355
0.00343813
0.00248903
0.00727318
0.0066366
0.00639402
0.00478604
0.00433296
0.00344442
0.00574158
0.00326313
0.00354269
0.00223333
0.0011821
0.0010409
0.00302171
0.00166313
0.00409816
0.00258118
0.00344944
0.0036827
0.00607304
0.00313032
0.0042195
0.00597075
0.00205339
0.00445589
0.00296723
0.000998619
0.00463622
0.00265771
0.00110367
0.00343772
0.00106724
0.00175701
0.00113129
0.000318919
0.00269733
0.00488851
0.00206574
0.000428351
0.00248385
0.0067544
0.00574666
0.00473251
0.0032024
0.00428973
0.00680415
0.00681265
0.00343634
0.00269479
0.00714713
0.00635244
0.00704759
0.00492099
0.00269707
0.00163774
0.00289827
0.00581889
0.00319458
0.000887919
0.00496601
0.00561803
0.00379416
0.00057924
0.00058414
0.0037487
0.00539701
0.00437563
0.00279294
0.00412433
0.00096581
0.00161962
0.00461816
0.00396816
0.00537131
0.0033134
0.00170707
0.0045428
0.00315576
0.00337321
0.00121719
0.00192235
0.00144602
0.000885481
0.000213896
0.00203858
0.00188155
0.00386895
0.00372485
0.00324823
0.00317994
0.00525616
0.00417511
0.000459888
0.00605018
0.00174767
0.000636521
0.00323668
0.00291051
0.000725652
0.00195896
0.00385912
0.00373284
0.00704715
0.00288188
0.00103794
0.00373806
0.00141246
0.00749367
0.002467
0.000712681
0.000806125
0.00313597
0.00285871
0.0010054
0.00434255
0.000642466
0.000560575
0.00115805
0.00741959
0.0063389
0.000305398
0.00544308
0.000495026
0.00184145
0.00298137
0.0010321
0.00118351
0.0057912
0.00690506
0.000920613
0.00581688
0.00560007
0.00452897
0.00607657
0.00421104
0.00340524
0.00199831
0.00523316
0.000344855
0.00303187
0.00351484
0.00364705
0.000295937
0.00400607
0.000537348
0.0044995
0.00284963
0.00346407
0.0010393
0.00559059
0.00401321
0.0045878
0.000944276
0.00175859
0.00173269
0.00126058
0.00261491
0.00585316
0.00076413
0.00324428
0.00313355
0.00328715
0.00449155
0.00299376
0.0037831
0.00717949
0.000351859
0.00119388
0.00417721
0.00454583
0.00337621
0.00362975
0.00263644
0.00261161
0.00430391
0.00219804
0.00412456
0.00457815
0.00408812
0.00153334
0.00433731
0.00418892
0.00429549
0.00337138
0.00675275
0.00536801
0.00451064
0.00273066
0.00393062
0.00268588
0.00251846
0.00343255
0.000798145
0.00462291
0.00252546
0.00164184
0.00114345
0.00145676
0.0035218
0.00761409
0.00172335
0.000859006
0.00390038
0.00097839
0.00393899
0.00683448
0.00263156
0.00170242
0.00375421
0.00402013
0.00689587
0.00456498
0.000336333
0.00454313
0.00620315
0.00227219
0.000496038
0.000478766
0.00329122
0.000285504
0.00150726
0.00112089
0.0021593
0.00126375
0.000496472
0.00445103
0.000731445
0.00381999
0.00471441
0.00782481
0.000469179
0.00196851
0.00651886
0.00539274
0.000969799
0.00372043
0.000468695
0.00489125
0.00285582
0.00386013
0.00285601
0.000611795
0.00707184
0.0031016
0.00277199
0.00513039
0.00361616
0.00529736
0.0027789
0.000440884
0.000448243
0.000770317
0.00134802
0.00123671
0.00549749
0.0057929
0.00477801
0.00357758
0.00657691
0.00134127
0.00694621
0.000830516
0.00412981
0.00614624
0.00543094
0.00465902
0.00624263
0.00316727
0.00290845
0.0072019
0.00303419
0.000836898
0.00488269
0.000966011
0.000908197
0.00612027
0.000315103
0.000532297
0.00270326
0.00285624
0.00350096
0.00117301
0.00465226
0.00187416
0.00113606
0.00502438
0.00153655
0.00686549
0.00190664
0.00390736
0.00220147
0.00215253
0.000865445
0.00332799
0.00366779
0.000623694
0.00120563
0.00186657
0.00141117
0.00566126
0.00215211
0.00390009
0.00174585
0.003143
0.00612339
0.00123011
0.00254829
0.0022836
0.00646514
0.000544257
0.00078884
0.000526029
0.00532352
0.00376937
0.000816982
0.000520716
0.00197934
0.00359213
0.00248353
0.000987295
0.000617609
0.00164244
0.00483686
0.00592679
0.00421396
0.00454909
0.00399034
0.000530344
0.00486334
0.00159083
0.00308501
0.00646259
0.00255899
0.00252762
0.0047204
0.0038525
0.00507753
0.00227225
0.00214363
0.00468822
0.00604964
0.00220776
0.00286275
0.0027091
0.00191242
0.00212523
0.00353996
0.00567823
0.00549012
0.00502531
0.000720453
0.00342064
0.000889593
0.00201021
0.00353391
0.00469542
0.00317389
0.00703638
0.00240898
0.0074711
0.00192739
0.0023225
0.00358893
0.00404543