/*--------------------------------*- C++ -*----------------------------------*\
| =========                 |                                                 |
| \\      /  F ield         | OpenFOAM: The Open Source CFD Toolbox           |
|  \\    /   O peration     | Version:  2506                                  |
|   \\  /    A nd           | Website:  www.openfoam.com                      |
|    \\/     M anipulation  |                                                 |
\*---------------------------------------------------------------------------*/
FoamFile
{
    version     2.0;
    format      ascii;
    arch        "LSB;label=32;scalar=64";
    class       volScalarField;
    location    "0.0785492";
    object      omega;
}
// * * * * * * * * * * * * * * * * * * * * * * * * * * * * * * * * * * * * * //

dimensions      [0 0 -1 0 0 0 0];

internalField   nonuniform List<scalar> 
47425
(
59.3653
66.8803
70.9389
158.863
146.192
70.0668
97.5984
99.816
49.394
572.249
134.843
43.6807
72.4098
78.4671
95.02
86.7717
67.7753
47.2721
1366.92
197.677
83.4587
43.8461
102.722
62.1181
44.7104
43.2627
76.7117
688.14
69.2612
54.5079
42.7662
44.3363
47.7433
67.8853
55.5511
65.7919
43.5009
67.5579
65.439
73.6749
70.6009
126.532
211.038
144.994
1861.25
101.775
94.4624
77.5999
77.8991
46.448
569.064
235.6
48.7855
683.308
111.24
121.939
44.3487
57.7063
77.9448
60.4528
865.762
1215.8
815.859
43.4798
49.3523
44.2722
61.4061
87.421
749.596
43.9868
77.6667
52.0624
48.7102
89.5246
590.946
49.4036
830.318
80.0112
1337.18
278.636
607.972
64.4625
42.6469
46.9235
59.1037
80.6849
54.0624
53.7925
128.983
402.036
43.4845
75.198
40.9017
113.845
146.181
193.358
46.8619
52.649
87.3813
77.5351
60.0904
91.7458
51.7278
96.1881
49.4973
52.044
51.8438
92.8359
76.627
43.8265
330.932
61.8308
74.7804
154.022
43.182
874.505
42.4264
226.684
76.7315
61.793
79.0145
48.5449
58.096
62.7593
95.5644
58.1979
84.1431
49.1901
104.383
41.1739
44.484
93.6207
123.951
117.723
113.839
68.0209
47.3818
61.5824
68.1677
95.7305
70.9427
127.899
69.5144
94.5328
51.0534
49.3287
119.004
62.6872
148.433
72.3636
95.2195
502.672
48.7557
689.345
45.9477
82.9564
58.9993
883.533
89.9943
70.3146
43.5158
42.7207
49.2891
45.6857
428.449
806.328
45.4533
597.708
105.369
725.981
663.538
83.8058
73.8607
45.4127
70.2284
65.6142
724.097
69.3352
52.153
42.4742
984.535
48.7305
59.6024
45.1445
45.6934
48.3801
56.0942
74.961
147.787
57.1491
47.9245
71.2557
82.2131
77.0204
45.1492
41.7428
61.8686
70.8134
42.7371
82.9163
65.3413
122.773
72.9178
42.1433
48.8872
158.218
52.6549
41.9482
86.579
48.4399
62.603
65.3836
47.2041
92.7004
63.7329
63.2738
76.1913
257.787
46.2192
92.9103
292.298
119.372
139.06
95.5918
165.902
246.466
44.8412
127.968
47.6324
61.0591
71.6885
71.1434
100.885
49.3224
163.528
90.9666
338.997
109.731
282.898
179.713
82.638
59.42
41.2991
100.655
44.2506
49.4523
67.904
60.6018
42.5518
76.3497
41.4379
227.812
66.204
49.2833
90.8168
41.5025
44.4894
118.827
93.3249
48.3484
123.519
47.2058
78.0748
134.032
72.5976
88.4572
43.1449
72.7315
62.5119
81.1554
79.2714
247.621
324.119
48.3882
232.532
177.596
233.276
109.818
307.109
181.953
896.51
58.798
866.054
121.429
78.6527
83.7755
102.834
89.9487
89.1954
44.5395
627.799
43.1143
50.3438
55.9262
66.8895
96.095
109.581
46.0694
64.8281
55.135
85.4433
43.1661
83.8528
59.7297
834.208
1012.43
654.976
41.3437
47.6238
42.827
98.286
679.601
85.154
114.698
289.984
71.7446
103.426
121.103
92.5409
452.754
251.984
43.0794
59.5343
46.7647
79.6567
42.6489
77.1115
62.9294
52.365
71.0484
82.8791
732.506
55.2013
73.4841
129.126
41.5909
728.67
49.4332
45.1463
52.3657
44.1962
44.6086
45.428
51.6535
51.2954
49.7327
58.8028
46.244
82.771
81.4657
45.1131
44.6078
61.3334
46.1616
46.2031
45.814
79.3074
42.5558
47.3303
93.3985
53.5475
60.2762
75.7106
93.5669
47.8045
48.0821
129.268
48.2153
66.2528
43.7115
127.875
907.273
77.3
42.7264
200.232
42.7725
107.837
92.992
72.5498
43.6661
63.5003
43.6017
41.9851
73.7856
84.2064
82.8568
82.1661
52.0144
48.7481
81.0884
47.8459
46.089
78.8414
56.6705
64.7114
47.9787
61.5055
86.8821
68.6139
48.4857
482.749
44.2705
437.813
68.0977
103.592
100.679
46.1155
144.039
45.3691
92.0684
45.8485
483.21
363.145
42.4133
49.319
79.0189
84.6138
81.7531
73.3603
79.9023
88.0503
65.9032
46.0955
99.6373
70.2698
47.6302
93.8252
77.0799
51.7666
146.167
1189.62
44.8298
282.095
983.477
88.3467
1007.75
697.608
46.7492
79.0054
74.7019
77.8936
632.091
84.9636
49.1533
47.9211
73.9308
74.3336
78.8974
79.2805
499.461
698.791
155.404
65.5406
72.2296
125.247
57.4329
43.0553
68.3481
42.5908
83.9823
75.8089
132.705
69.0937
49.3502
79.7898
59.0949
75.5738
42.6503
64.2429
66.4778
66.6379
63.5361
108.554
117.233
61.4209
81.5157
42.5929
561.625
129.882
75.3198
46.3428
131.66
244.476
46.3595
42.0266
46.4716
47.2996
67.2818
48.7618
102.921
83.6951
47.2181
55.0388
139.208
98.5173
46.4428
49.4103
56.7942
53.2799
49.0009
50.8417
42.9813
68.4701
59.2539
109.077
61.0253
45.2806
43.0299
42.4848
72.7599
124.722
43.7486
41.3226
56.0324
59.6548
57.7139
58.6763
67.7961
71.5754
51.1882
76.9248
100.902
427.861
60.3716
68.2825
52.4434
49.345
135.98
133.79
74.5314
50.6731
78.4973
107.255
46.3263
145.179
48.4578
262.079
46.9137
50.1337
57.9343
129.738
40.565
71.6173
72.4023
66.763
42.276
51.2295
1113.5
62.2439
143.233
44.6869
100.944
46.2348
58.3928
85.9396
72.5836
68.8795
44.3012
387.582
54.478
58.3081
55.5826
47.5406
43.4611
57.2451
120.617
48.294
66.6755
66.9454
42.58
273.646
43.9269
64.3716
469.081
70.4793
41.6889
331.166
593.088
42.6695
639.593
671.275
69.6566
46.5986
51.4793
43.5582
84.9723
86.271
704.952
43.1181
123.602
48.6799
118.396
55.9808
85.3081
65.9144
471.382
302.319
51.3174
93.2568
100.72
83.7977
119.827
123.143
47.6821
96.3469
132.906
98.4698
67.4396
139.387
50.7595
47.4136
140.011
92.0502
77.1137
117.12
99.1557
67.5812
73.4177
61.3121
53.0292
67.6227
46.4164
49.0357
1296.26
61.9489
78.7315
1024.96
1000.31
41.8119
75.9475
1582.75
165.591
94.3441
306.214
119.462
762.855
59.1559
47.7858
60.0456
176.263
113.729
112.841
45.8163
116.742
66.9757
82.2994
47.8913
78.3837
57.8944
462.697
713.215
119.507
48.4866
84.5773
42.3589
109.466
47.4195
58.2107
63.5004
65.0535
43.9058
172.08
75.5039
47.1817
66.1804
182.697
661.05
238.264
84.8176
42.3438
74.1021
42.6084
690.179
69.119
669.538
82.3546
113.767
66.4248
67.6369
57.8851
86.9459
53.8951
87.6406
56.8063
205.332
91.1107
49.2336
72.6812
88.5552
448.825
66.4366
200.607
69.5265
48.664
43.2374
138.167
79.424
72.5785
45.9294
62.0994
67.6887
70.9221
80.1489
78.5349
64.2981
125.744
196.397
70.2383
98.089
66.8511
110.844
89.735
47.6413
150.855
61.154
77.0511
76.8224
43.7079
296.516
401.796
93.084
65.9141
45.8745
89.7197
55.613
132.757
43.0485
273.032
78.9363
43.3998
75.642
45.7857
58.5025
68.7576
49.4269
87.8041
41.1618
45.3338
48.2757
164.608
40.7391
346.04
274.363
268.73
383.375
77.0385
223.341
58.9655
45.6774
143.033
310.168
406.006
104.303
62.3463
132.088
112.929
166.365
125.733
93.1062
54.3568
69.6011
105.2
111.561
55.3128
79.6914
298.023
56.6747
62.7066
153.541
118.426
114.63
185.85
732.697
460.592
219.235
242.027
80.6902
117.727
43.7612
45.5012
70.0094
427.073
172.437
69.8073
71.5391
41.8182
369.906
420.86
41.6149
166.503
88.1487
41.5133
162.994
41.3905
42.6406
71.6994
71.0661
82.9226
47.0109
41.773
60.3441
67.8499
66.4405
136.153
106.929
42.3662
239.586
47.6784
46.3763
46.9971
191.176
77.7945
206.345
118.326
54.0629
42.8879
67.4941
1427.72
70.2306
80.8802
69.3847
63.7116
61.1331
111.524
116.708
127.943
300.597
98.0857
814.98
49.4171
64.8795
56.4227
64.8345
44.822
163.062
122.753
43.9394
281.663
92.7825
71.6449
233.804
78.67
54.6017
69.2602
68.996
68.2437
110.717
315.359
65.6079
74.1026
204.655
217.953
670.678
212.667
86.9693
168.644
44.385
46.5944
108.396
186.521
85.5619
82.1447
90.1616
102.165
47.9252
67.8872
101.372
97.8954
88.8971
354.522
466.718
90.8159
149.161
188.128
635.934
347.723
198.892
91.3825
67.1564
96.5894
91.1063
252.953
45.5412
47.4647
96.4887
368.629
118.808
78.112
96.6961
53.2059
107.923
125.465
78.6074
530.257
53.6903
65.1714
131.331
97.2572
65.4223
66.1368
104.734
106.137
88.116
56.8873
122.093
44.1538
44.2596
44.3316
78.5818
57.2155
147.995
52.1841
212.251
281.996
254.69
99.0781
83.7019
44.5067
70.3035
113.219
486.714
254.109
813.146
44.7479
57.7107
54.4697
308.844
87.6745
321.592
235.705
229.765
131.889
213.561
89.4269
85.047
72.0929
45.8892
127.08
66.8286
75.3996
263.113
69.9954
68.7067
50.7652
266.365
388.259
151.7
208.812
650.696
189.479
89.4958
66.9021
88.6854
102.611
181.969
185.83
377.846
45.6085
58.2344
71.5315
47.8171
61.9997
100.211
94.3925
54.3505
122.96
52.5946
75.4249
50.391
47.2952
122.352
67.5301
112.447
43.8353
44.7039
159.908
45.8021
97.7428
103.37
43.5923
62.4386
97.1403
79.1253
68.6562
79.339
483.302
182.476
122.982
105.74
1850.61
1005.21
612.771
446.225
100.218
49.2107
1245.08
404.19
53.1689
62.6597
105.398
86.5835
396.788
136.834
44.4094
111.761
58.7896
49.6997
200.665
958.193
137.169
1224.13
150.365
249.762
656.863
57.2022
75.6135
132.663
341.955
90.8021
44.9917
45.4777
744.493
117.246
374.35
72.7548
159.465
47.8343
52.7312
519.348
540.437
80.9339
51.6398
76.5056
566.247
43.2951
51.5597
423.34
525.731
72.5929
43.1903
1037.93
674.998
584.822
98.7244
302.847
518.617
615.176
79.2259
86.0408
109.237
63.9835
105.951
516.213
1315.59
64.2232
60.3189
58.7237
51.6892
46.3342
80.857
122.47
65.5539
49.5561
48.1311
97.0933
394.944
1215.96
50.6763
225.686
105.861
71.7594
162.2
57.2183
89.5485
75.7775
45.5799
197.12
53.2392
533.67
42.9112
782.986
426.803
649.583
201.255
102.709
61.897
101.831
70.9089
221.715
1457.37
103.428
396.443
175.22
501.345
162.09
748.471
618.671
90.0925
76.6256
1712.4
88.4708
48.8292
72.7035
657.732
1124.08
78.8122
52.0186
485.919
75.7758
612.419
762.294
107.009
111.544
830.977
102.499
43.8788
622.902
51.0014
441.059
982.834
42.7093
69.3025
83.2107
56.4879
121.976
100.604
41.959
120.594
88.78
117.013
57.5909
42.4767
204.882
229.829
579.734
50.3406
93.05
236.199
44.8871
849.227
85.33
110.583
150.575
445.568
86.0452
332.37
180.761
146.262
56.8109
479.619
222.975
259.844
88.6643
162.599
62.3363
76.0319
73.6419
353.021
208.323
112.125
715.994
150.1
109.18
249.427
120.839
141.29
690.803
265.273
69.3639
153.665
83.8656
148.415
309.757
655.433
58.1962
45.1445
62.395
460.247
63.5154
291.809
57.8201
62.3126
47.6544
156.912
54.2073
203.63
314.928
53.6164
59.8145
91.163
79.1051
960.885
410.371
115.376
752.98
352.021
121.981
230.264
64.2452
56.2169
837.111
56.2254
348.286
376.91
44.6041
58.2429
113.041
96.2753
56.2586
70.685
162.703
71.2857
77.3286
65.8133
80.0081
239.37
65.9831
187.618
152.753
232.614
55.2537
724.175
442.279
53.6014
591.318
258.014
56.6164
103.704
608.42
214.858
45.7473
181.611
493
204.999
554.396
56.7697
583.544
118.494
54.5623
68.9945
106.89
189.311
118.795
64.8832
227.714
51.1331
230.197
105.501
1310.95
141.5
80.1295
116.686
269.806
55.0699
300.52
111.593
106.818
569.992
77.9982
78.3154
1151.68
42.9329
101.994
370.79
61.8235
310.723
469.57
149.506
69.2656
82.6279
934.794
228.766
511.817
244.562
77.2254
69.802
98.9443
686.568
667.219
310.45
87.7322
48.2484
84.9247
85.9891
129.07
326.904
92.475
55.453
62.1336
60.9922
44.3547
85.0235
43.3289
46.8144
119.539
78.7464
45.3812
126.869
237.018
59.8443
47.2005
128.935
64.1026
48.1055
54.2915
98.3003
92.8135
49.1022
96.9015
508.905
87.5424
48.5054
54.1725
42.8797
251.452
66.2586
52.511
619.301
472.894
288.952
47.1189
602.402
147.032
67.7923
917.55
90.234
898.67
90.1912
66.5299
81.4438
66.7357
43.8812
81.7339
83.1157
89.9458
112.56
88.1835
102.372
166.037
79.3676
82.2315
433.538
86.5127
1443.53
70.7247
698.804
46.0915
117.107
174.616
51.4089
67.3838
189.863
42.296
480.076
332.797
1124.95
50.2658
612.606
59.3143
107.45
180.559
59.3524
591.617
89.3333
294.563
74.7769
752.622
692.463
78.9124
42.665
450.895
67.2862
452.697
85.0605
94.4496
69.2033
71.936
55.7398
43.6534
88.2078
299.668
75.2774
176.484
81.5554
86.8799
41.02
154.704
352.253
88.8082
301.293
129.617
67.7201
118.755
77.3653
73.1628
54.9285
147.904
129.95
48.5681
84.5812
82.058
65.9941
92.4465
368.95
339.748
79.2613
87.9893
331.827
86.505
51.9136
63.6802
47.1908
162.663
164.324
203.932
104.43
68.7819
73.9422
63.6746
56.8177
58.1796
57.7565
485.524
129.738
660.708
516.006
630.89
58.0766
67.2255
73.2103
70.7932
47.4888
327.384
81.0737
46.2194
77.0566
111.659
77.2545
280.693
76.1374
155.579
116.584
95.0956
49.0032
69.4999
87.4476
86.0992
67.2134
110.611
96.8914
180.123
86.0172
68.9087
78.4691
147.966
166.987
64.6274
78.6127
132.538
95.3834
168.182
47.3613
56.4976
134.004
68.1898
53.4659
74.6767
43.595
50.1441
88.1092
72.865
372.842
70.8586
88.6598
50.0527
69.3161
609.667
77.9684
83.9405
59.5807
59.8596
86.1704
84.8242
922.548
106.833
383.075
50.681
59.3714
70.0596
41.4951
48.0093
107.968
79.4852
47.8135
44.5724
310.462
106.751
513.18
117.594
256.831
104.274
78.1614
109.003
519.068
180.02
94.2743
77.3587
931.175
63.4613
78.704
84.4311
80.9198
65.5273
923.377
66.0986
88.5851
46.7622
121.258
54.4221
892.835
988.341
66.1779
52.9448
42.9188
88.5359
91.3636
60.2317
1151.01
685.833
63.7286
135.746
475.862
63.8983
193.278
123.431
42.9181
61.0384
46.384
72.8691
206.664
83.8536
76.4003
44.2788
55.2338
73.6737
48.613
336.154
63.458
143.913
172.087
440.583
338.257
100.304
134.642
76.7246
133.155
116.495
42.9207
597.615
342.735
131.227
89.8104
106.053
88.357
85.8995
240.01
41.183
44.7377
62.1877
65.0121
135.971
73.1117
352.769
385.203
44.7889
131.226
43.0528
42.4995
80.263
60.8695
62.6079
53.8886
41.5318
239.363
338.595
41.8812
66.6384
256.099
381.691
47.4748
41.8165
97.9477
180.072
913.919
92.1015
394.976
322.244
580.772
391.864
71.7561
48.7744
42.1299
58.4303
945.807
56.31
85.6803
79.4715
41.3058
645.639
1086.06
1063.81
194.264
264.954
50.0945
44.954
53.2891
83.5083
692.458
565.143
427.414
532.402
403.161
53.8913
47.6651
845.45
47.8092
891.702
95.2421
888.778
79.4216
150.615
109.147
179.706
169.166
169.716
152.293
63.0042
88.7168
69.7417
65.0313
72.1052
66.0471
1279.89
748.998
90.6432
351.147
622.966
342.427
66.7975
45.2975
588.892
489.175
517.881
42.8467
780.924
49.6651
1016.53
571.143
688.486
289.69
53.1115
62.0362
45.9692
71.117
87.319
172.429
74.3477
84.252
70.6326
93.1825
77.5597
45.8925
47.2393
123.862
44.6419
51.464
77.3461
101.224
96.7831
85.4824
150.089
89.5026
69.419
127.398
96.7824
89.0065
91.9532
146.474
998.007
58.9908
328.744
68.9509
88.6275
500.258
63.5247
57.1235
46.8741
112.987
93.8167
53.9995
108.153
99.6134
82.6019
45.8819
66.1927
74.9622
71.1257
102.681
72.5063
96.6293
275.736
88.5054
79.0002
74.3538
109.16
77.1297
351.494
43.6067
67.0252
104.041
317.482
253.64
88.5016
99.8948
928.506
228.104
184.663
89.5814
71.5035
108.266
87.1971
53.8201
128.168
77.4253
86.5087
431.051
50.1655
162.886
127.018
107.88
106.182
200.988
77.1641
57.6071
43.5915
52.9565
98.656
79.2007
439.027
62.0783
91.9715
127.91
103.531
862.258
56.2518
113.572
105.169
268.901
402.281
142.652
43.2247
135.228
65.0537
45.1396
42.36
559.123
99.6156
57.3635
417.028
129.643
68.0275
144.316
704.566
1115.59
181.504
71.5097
761.33
93.7231
250.4
141.011
597.706
250.88
121.573
93.3531
513.519
90.6324
67.3663
83.9703
98.9989
53.7161
62.1684
342.176
44.0924
100.187
547.881
155.218
565.803
88.255
440.282
48.4567
1141.27
105.892
106.079
652.75
244.972
302.882
507.267
437.081
261.04
74.732
75.7869
417.104
55.3667
84.7921
320.562
66.6142
56.6985
76.9784
164.821
70.1731
49.8019
733.567
483.952
187.4
275.136
165.844
92.3458
80.4964
80.7341
112.289
76.5172
57.0893
85.7188
63.1615
274.446
284.423
126.195
54.1435
105.118
81.2962
126.739
104.843
97.0477
78.7695
275.076
58.3671
66.8378
264.549
131.075
590.231
202.225
98.2462
724.683
137.155
111.786
366.642
133.738
127.993
49.4942
517.951
41.9888
56.2034
50.2589
85.1045
67.2414
99.3499
236.227
104.682
119.424
79.7868
110.536
99.2744
42.1899
374.621
154.316
571.378
1032.42
108.226
392.851
145.102
69.0595
428.412
67.5834
60.7235
105.04
124.525
696.269
488.175
53.6924
316.654
347.796
94.9429
1931.65
401.696
156.62
356.342
61.6635
88.3882
242.491
336.345
145.663
731.764
53.1613
51.8013
154.255
50.4684
48.0932
106.157
323.43
552.574
48.0512
137.68
43.1066
144.357
62.5476
143.758
323.5
93.3181
316.542
59.6349
63.3982
772.001
43.9267
53.5228
103.739
53.3731
121.808
250.639
46.0009
937.129
552.958
863.286
482.915
119.396
66.3882
52.7644
61.6749
85.546
46.1624
84.4788
148.272
61.5389
69.6575
655.862
45.3848
170.089
43.6461
136.337
71.4378
726.59
127.195
115.829
44.8985
128.457
150.346
48.7386
59.7467
97.0004
42.6343
195.758
96.2679
103.65
54.7905
44.7402
101.024
45.9766
126.221
454.465
43.8995
75.1402
50.1772
62.5413
277.842
214.934
122.435
458.739
859.661
284.099
82.9578
415.107
313.711
645.237
74.257
211.682
288.978
341.62
308.904
813.615
54.0513
44.2314
210.465
705.834
53.1678
430.889
120.69
448.651
79.7716
65.0039
664.59
593.723
281.041
56.7386
265.431
129.989
361.276
44.0084
200.117
63.542
56.3238
94.2604
94.9086
287.525
101.032
63.386
160.204
79.0438
274.254
412.354
43.1222
78.9325
53.2867
851.931
95.8939
130.518
217.929
136.541
70.9145
43.3341
90.3845
75.2732
499.825
42.6961
104.29
311.505
64.1645
49.555
76.7279
73.2116
681.71
137.047
209.674
94.5169
73.1225
952.921
563.857
59.548
142.076
59.7179
47.5243
409.95
93.4601
537.498
56.3459
50.0909
93.4476
58.4801
46.564
60.4892
70.976
135.14
259.167
244.396
371.11
69.1052
70.6323
46.7735
169.569
614.425
940.622
66.7558
396.329
177.681
687.765
76.1715
345.167
109.294
175.894
129.026
80.5817
255.304
76.9219
192.284
112.805
59.5062
1015.88
107.579
484.382
107.394
77.5705
108.38
163.513
70.1243
67.5568
381.968
104.061
120.25
57.1209
122.557
477.555
125.075
78.9789
156.572
46.4705
62.8996
44.0925
74.3565
76.8705
146.808
69.162
92.3311
95.3389
74.4085
75.0337
63.4641
72.8876
59.853
424.338
48.7006
106.698
48.0774
66.841
121.059
72.2599
53.4015
77.7316
98.3322
85.8986
124.86
346.175
46.7318
183.75
434.192
158.581
156.246
50.5557
156.802
92.5723
339.348
64.2789
43.9572
52.2427
171.464
54.7063
65.5622
866.871
222.516
376.266
44.269
50.4426
192.011
81.1302
55.6359
134.991
49.1072
78.5249
53.8382
392.91
44.7846
154.085
44.7845
43.3175
74.8749
66.6857
131.847
106.117
42.2344
305.115
63.3949
66.5256
88.2794
806.359
64.7029
61.7963
123.969
62.7781
57.0915
120.963
59.8967
51.4832
107.57
212.73
124.303
81.8749
395.439
108.551
239.827
48.5037
182.4
63.4475
93.9568
240.713
49.218
123.905
66.0103
82.1149
153.23
70.8787
567.232
112.315
44.0164
518.773
131.392
968.754
306.674
224.294
85.5605
92.7309
122.129
370.125
59.1968
446.754
92.2406
353.541
65.0574
422.223
62.7931
252.742
218.538
120.679
328.296
527.431
362.903
1103.96
538.37
360.724
463.78
451.115
324.112
42.4685
94.4468
337.909
68.6882
654.21
57.9524
512.682
618.776
116.457
98.851
75.0331
43.5245
113.35
46.9126
250.002
130.2
82.4556
186.981
84.2921
152.682
71.7254
53.8138
110.139
48.348
216.808
47.5516
68.1856
702.638
65.2828
42.5939
102.605
63.6282
826.277
294.329
73.6366
71.4277
171.833
49.7637
85.0417
49.2421
50.1462
103.767
75.2442
54.7194
61.8318
321.882
87.8402
53.8876
42.9362
43.8449
45.7931
204.519
70.8734
94.0289
53.3525
83.1094
97.6645
54.9088
220.325
71.8107
47.5906
59.0379
82.2535
134.565
110.581
98.5213
49.7322
118.852
83.997
51.429
50.9517
75.2904
86.6932
101.725
67.3333
121.422
65.4332
90.743
115.064
308.701
774.574
1112.82
120.428
59.8823
517.377
168.625
210.783
44.5809
50.648
42.941
89.2863
71.5889
43.1485
43.6367
44.5432
109.53
42.0428
47.2259
42.525
59.2011
190.594
51.7109
111.541
51.8192
96.7088
237.199
59.0988
53.3568
65.5368
1086
855.428
99.8161
67.1174
68.3563
58.9651
107.388
467.884
62.5418
66.9424
89.8322
42.4249
94.049
49.6892
88.0202
110.47
90.7015
61.7399
201.206
266.891
62.9601
2058.37
272.876
196.943
61.5505
83.9351
98.164
113.318
54.1116
74.439
297.808
45.2611
189.23
638.323
104.027
122.582
608.136
63.6129
78.6688
90.4736
42.2475
115.472
405.476
90.9668
91.8216
455.52
223.408
1033.72
625.768
99.1685
47.9804
138.465
67.5414
185.82
151.197
565.143
49.8488
45.6243
640.373
53.0109
190.388
78.4475
102.466
660.164
741.248
50.0593
43.0065
916.135
49.7044
53.2079
65.6579
47.8817
80.9067
160.152
274.109
60.8848
577.082
102.905
51.5148
84.0596
721.545
78.2712
602.33
64.9565
61.4864
85.2417
83.8614
59.8839
116.752
64.4202
560.28
116.649
120.806
526.715
121.206
53.1315
729.1
116.138
103.838
85.0584
177.992
106.031
80.2613
44.514
265.411
72.734
71.4778
63.7324
126.734
84.3719
58.7861
45.2946
67.5716
143.862
72.2011
65.5908
79.888
490.385
72.0309
71.4768
69.4681
92.0505
46.0795
63.9766
63.5774
131.053
105.001
140.822
147.38
88.962
456.759
63.458
56.2087
428.2
383.03
483.294
88.0383
332.372
51.9844
549.309
93.9524
296.776
94.8819
43.8056
113.499
196.834
92.72
69.8695
42.8605
63.3992
414.714
63.6222
49.3108
53.4395
1403.75
281.975
44.359
1456.47
561.187
324.198
247.682
649.809
266.392
77.0697
260.964
87.5265
98.6111
389.858
894.944
62.1947
44.1051
54.2274
486.015
44.7958
894.061
143.546
127.124
149.585
123.301
331.268
42.206
114.305
121.824
55.8678
103.607
53.3087
118.917
2007.41
1813.03
820.222
97.1441
713.307
42.9441
48.9898
61.7263
99.359
44.1608
55.1269
42.8815
73.825
89.2864
47.131
54.3852
75.711
46.5217
100.061
119.416
43.2347
113.705
119.155
43.3121
52.7472
867.643
55.7129
848.608
595.775
123.919
130.922
83.4747
121.848
68.2955
51.5714
622.936
58.391
56.8732
47.3072
49.9741
77.6875
137.165
134.677
173.761
112.831
46.5247
571.973
60.7435
328.264
399.364
63.6795
401.138
83.8975
53.2969
60.7989
57.4088
62.2345
46.2179
127.793
50.7887
312.638
219.67
339.259
56.6992
56.5157
82.6367
288.67
502.887
93.8491
146.398
64.1944
271.113
63.9343
182.679
416.202
83.4745
56.2181
91.6073
920.006
62.2202
59.0959
119.095
47.1391
136.742
123.609
146.705
84.3012
303.058
169.934
398.673
71.3764
277.244
431.21
310.713
53.3802
173.034
87.9877
101.996
53.5476
65.2405
62.8025
492.719
85.1091
97.7149
310.348
82.0593
62.296
95.9426
45.1962
141.165
48.2481
63.9509
163.05
103.559
78.3731
164.36
96.6262
95.4281
80.0807
125.042
43.8344
289.515
236.065
104.889
103.785
44.5648
256.709
59.4304
43.6939
84.4268
46.364
106.614
88.3501
50.2322
55.224
98.2621
295.259
218.589
49.6423
807.325
44.0676
97.5324
94.5622
48.1617
760.568
146.442
660.678
49.9845
67.6246
536.59
675.05
86.0541
100.834
186.268
127.983
48.8982
103.432
63.1961
143.913
81.8787
132.506
49.8231
134.164
99.9012
105.262
60.3262
87.3199
42.7267
59.8688
595.896
420.537
104.82
108.15
99.1017
85.4924
84.9739
163.147
43.6562
49.4196
59.4211
85.4658
79.9705
66.3956
110.67
51.2977
57.9933
51.8248
71.7582
57.6929
69.0629
197.458
88.463
67.757
953.711
76.9621
64.2164
77.6759
43.4556
82.4167
205.214
45.504
74.4074
80.6417
383.075
64.3036
63.2991
94.1205
1431.15
94.6683
156.386
117.389
64.8761
81.4541
79.071
62.2231
857.44
93.4174
68.3195
62.7972
42.5343
283.469
45.8454
335.824
418.929
112.119
72.5183
59.3146
118.315
86.989
55.9357
439.469
118.545
293.072
43.0862
137.413
487.131
118.84
48.5836
98.6439
53.3724
476.484
55.7066
54.7929
88.7416
42.1307
59.9279
87.4342
51.1912
413.084
42.2992
386.724
45.6995
72.2586
66.5524
147.034
85.6839
124.286
112.362
575.487
111.016
117.506
74.3747
44.4643
104.254
58.3327
52.5634
79.5971
75.3087
62.6843
121.028
46.7937
66.0446
47.2828
299.07
86.5113
565.229
550.461
317.515
155.116
67.766
70.3667
60.576
191.302
88.7283
43.402
41.8815
111.976
148.466
45.9664
70.5459
1025.79
131.383
65.6042
74.2808
434.906
835.042
59.0738
554.041
544.219
199.819
372.667
160.119
548.197
71.673
215.914
738.481
74.1175
41.9792
61.3096
109.458
314.007
42.8139
44.0577
70.545
140.799
152.386
854.818
107.884
1056.51
118.334
69.0076
83.0309
76.1006
76.8343
490.618
204.906
411.84
471.682
66.4525
349.263
1086.06
65.6112
178.594
120.611
405.514
150.165
130.436
692.59
1025.59
108.937
630.658
124.306
440.788
80.4353
43.6597
150.935
804.546
696.805
62.3587
100.464
144.466
99.1388
259.081
48.4765
72.462
965.147
365.302
341.197
75.9164
321.075
65.9827
337.709
55.4545
117.951
184.13
280.462
86.6362
122.799
275.115
105.61
836.138
70.8654
59.2636
403.336
46.3082
143.459
44.8616
54.5924
42.7193
80.6177
428.33
434.509
319.717
57.991
63.2606
313.962
56.8702
515.303
72.2864
52.9928
79.6438
207.572
153.844
626.609
50.062
71.7716
62.8845
269.317
98.8599
576.373
910.372
422.061
104.579
59.783
433.992
320.366
148.837
46.3672
61.3238
42.293
681.081
283.296
427.688
1146.19
240.116
93.4348
78.5629
766.232
410.516
62.7561
87.4899
100.516
375.043
60.4994
47.1914
88.2157
80.5495
769.877
259.812
221.648
217.541
323.218
319.914
160.602
88.5307
825.716
389.551
711.73
200.125
364.79
670.118
149.35
57.3563
107.921
58.149
59.1615
78.8206
77.8186
133.874
283.177
83.8641
178.117
181.583
146.101
112.968
190.612
115.144
103.248
128.067
772.99
1119.08
407.535
69.2636
116.975
82.208
241.812
592.162
156.419
563.416
79.8777
478.519
403.623
173.054
47.0106
43.0528
69.2015
63.5193
710.451
95.7371
57.9231
454.488
71.3952
868.167
469.058
107.984
469.619
63.3914
44.8747
45.8076
42.4654
96.6473
60.1298
89.4128
128.213
72.4114
44.9064
140.721
614.381
544.227
43.6168
105.169
47.6902
61.9758
56.5498
635.423
47.7496
54.1407
52.931
103.378
45.1773
54.6638
99.4176
55.5837
57.9595
52.2443
238.962
43.6531
55.9004
135.266
407.64
340.943
63.6665
470.11
674.535
53.4553
52.1506
164.401
78.1649
336.138
71.1637
89.6556
82.5347
236.722
67.4681
89.9194
1008.89
507.072
82.8448
625.104
45.8979
46.1023
60.879
44.9506
46.966
70.025
52.8647
79.6064
216.159
88.2595
324.414
241.761
196.395
80.265
42.7849
528.796
128.33
81.8096
533.485
100.526
686.422
60.6259
422.579
44.1457
183.38
85.1827
222.919
46.308
84.4869
76.113
566.581
49.0445
42.5407
194.998
80.8021
139.094
60.3963
73.4858
91.5375
46.847
141.326
47.9867
62.9461
145.374
93.7823
364.315
68.093
45.2423
60.695
43.805
51.1884
312.725
42.4153
96.104
43.026
217.726
113.318
48.9698
109.077
110.695
55.8678
70.0198
75.5331
126.34
145.716
50.9097
48.3234
90.5045
66.1241
286.475
630.625
505.687
59.4108
44.3032
58.6104
64.5355
88.6823
933.18
236.232
62.7056
52.4632
77.3795
45.6065
47.8252
75.5602
153.046
204.649
512.767
345.546
56.3944
78.5558
71.2885
42.551
219.375
71.8748
118.773
112.111
48.7269
988.888
76.7393
57.0906
69.982
73.1458
157.506
611.055
44.5255
447.616
54.0205
727.084
125.258
532.632
68.8785
43.2778
60.2725
104.677
48.1079
48.5082
123.552
44.0458
43.2854
54.3271
60.9067
237.507
52.0948
748.239
70.136
59.9414
156.799
171.477
48.3928
390.847
954.432
738.655
468.083
429.133
54.8588
381.65
287.733
71.8033
56.8575
52.6448
655.123
89.5929
95.3169
47.9075
78.3229
270.916
778.741
159.523
85.6134
45.9577
64.8723
205.053
44.9808
55.465
619.388
452.444
227.726
766.404
73.1787
46.2484
69.7628
80.3459
1126.64
50.6076
45.5317
42.918
264.443
46.2131
49.7257
89.8378
99.7732
44.3107
111.534
45.5254
141.973
85.278
140.284
49.3056
237.671
86.5857
110.938
160.28
109.682
199.825
47.8873
622.109
93.7639
271.951
299.368
296.905
85.2994
128.402
207.334
65.1938
44.2522
50.924
53.1163
85.3938
569.724
115.217
45.7602
81.7655
64.6926
48.2938
119.364
61.916
133.399
102.708
46.3373
96.5451
48.2039
78.2849
297.961
596.376
71.5425
98.9346
79.5468
102.559
518.013
263.837
417.243
831.264
140.341
46.1782
47.7493
43.6074
103.881
818.752
79.0336
751.432
111.807
44.1642
116.855
442.707
45.5782
45.9671
55.0814
73.8181
59.7418
226.044
75.1622
89.7157
320.803
53.1008
96.185
65.6901
128.174
201.58
50.5907
693.973
81.3158
108.108
54.5837
126.978
45.5741
135.546
123.23
93.6676
89.8562
79.9493
66.0109
69.7251
49.6699
224.057
61.7583
49.7989
114.098
198.267
228.025
167.547
97.9102
109.376
193.685
70.4343
257.538
132.724
131.465
99.49
103.529
135.303
72.0053
164.292
328.786
97.7914
52.848
48.7034
265.126
88.2449
100.021
49.0238
98.2552
87.4806
47.9552
92.4923
411.458
98.1943
70.8935
84.7378
663.925
76.7688
88.394
147.035
58.0693
153.202
46.6184
784.214
85.3069
77.4173
81.2029
54.2516
111.453
54.3029
459.462
42.9477
75.4973
661.792
59.438
107.6
195.485
98.2938
49.222
598.281
58.9971
43.9704
102.527
128.341
61.1807
338.559
44.295
344.279
96.8279
43.2421
69.1375
115.36
724.801
181.886
71.5453
43.5316
130.259
408.773
365.937
115.752
122.72
968.08
212.018
251.543
126.739
80.081
101.689
59.7943
513.357
1052.98
152.996
159.086
100.198
1157.23
446.279
543.817
390.946
185.042
64.5757
49.8885
152.802
73.7491
547.717
304.811
73.1854
936.458
105.505
121.93
70.8028
50.502
104.122
86.5985
89.9245
80.3388
148.855
184.326
871.202
57.3935
119.11
638.036
612.891
182.268
175.263
61.0996
610.318
47.3764
65.89
341.241
148.443
42.9522
329.424
423.555
72.4772
122.469
48.2202
92.4905
54.757
80.927
172.285
80.7558
607.259
44.2734
49.9358
85.3402
473.115
172.884
122.007
160.844
266.948
120.361
78.021
435.85
107.013
68.1819
207.645
792.456
223.15
59.4824
347.331
160.407
93.9059
65.494
127.54
46.8831
109.338
79.469
72.9926
63.43
60.0817
85.0756
43.3097
43.1208
49.4743
100.246
49.773
160.565
389.128
729.309
94.4552
88.7924
59.2174
48.2068
102.191
640.664
51.6352
142.033
71.9909
240.126
66.7216
143.433
217.972
440.269
47.8292
57.2351
278.985
52.8583
69.0834
143.802
96.5093
407.273
86.9345
234.685
475.481
193.337
636.367
197.175
379.604
99.2882
171.692
146.292
53.458
493.363
143.672
83.3122
176.875
103.961
93.8377
43.302
51.4462
49.1853
44.3721
87.7144
349.745
42.1022
951.503
109.031
351.298
113.119
382.586
1068.77
54.8614
247.614
805.496
158.63
352.575
76.5084
69.7475
758.885
992.789
289.784
168.044
51.5305
469.029
102.761
636.011
52.8917
52.9244
243.382
1010.6
61.0642
84.76
50.6733
244.296
522.542
47.6915
437.834
200.662
535.977
717.915
49.5077
341.973
73.9066
638.964
299.001
199.349
433.68
258.387
509.197
349.165
228.561
81.9289
78.4896
73.6582
48.5292
53.5803
1428.61
74.2931
111.983
79.8605
80.1795
143.248
1184.75
154.671
207.343
291.497
159.081
234.128
123.786
43.2499
78.773
1063.38
641.766
301.545
191.384
251.985
88.7913
493.402
60.5375
261.146
362.414
58.0689
549.449
89.4055
318.657
307.964
181.607
267.108
270.486
166.201
49.4057
132.715
60.2285
563.11
72.1416
194.697
84.0919
270.065
54.4769
67.0381
323.425
118.879
275.86
44.4802
1377.48
46.1333
58.9796
57.5009
54.0367
101.094
520.3
189.401
104.041
655.165
73.3383
49.6768
56.2202
870.939
92.2403
99.5151
845.341
364.84
909.8
545.586
184.201
261.968
157.005
185.069
725.547
65.7808
436.886
143.57
66.0287
179.857
64.1775
161.954
79.4845
653.842
471.245
577.102
374.476
303.481
281.731