/*--------------------------------*- C++ -*----------------------------------*\
| =========                 |                                                 |
| \\      /  F ield         | OpenFOAM: The Open Source CFD Toolbox           |
|  \\    /   O peration     | Version:  2506                                  |
|   \\  /    A nd           | Website:  www.openfoam.com                      |
|    \\/     M anipulation  |                                                 |
\*---------------------------------------------------------------------------*/
FoamFile
{
    version     2.0;
    format      ascii;
    arch        "LSB;label=32;scalar=64";
    class       volScalarField;
    location    "0.0785492";
    object      p;
}
// * * * * * * * * * * * * * * * * * * * * * * * * * * * * * * * * * * * * * //

dimensions      [0 2 -2 0 0 0 0];

internalField   nonuniform List<scalar> 
47425
(
0.100771
0.319431
0.0976249
-8.52731
-25.6349
0.063426
-23.5128
0.0401132
10.9108
-41.3972
0.0314885
11.3676
-18.7077
0.0380754
-4.32268
10.1979
0.0784022
21.9987
-119.507
-41.4131
0.441086
13.541
-0.0352051
0.50839
12.3224
0.43002
0.0205363
-50.0004
0.0531254
0.15295
13.5562
10.2899
11.546
0.283705
0.100124
0.0409355
14.293
11.3331
4.65124
0.480435
0.713803
-4.52519
-0.514809
11.2508
-42.6452
0.668161
0.0172218
11.1486
0.433855
0.333544
42.2689
-2.54671
0.250978
-38.1132
0.20785
6.42592
0.231407
0.178242
-11.2875
0.145257
-39.9469
-37.7392
-57.0461
18.8227
10.7505
0.882196
11.6294
-4.82487
-47.3326
20.7739
1.52536
0.421472
-1.1265
0.613523
-50.1385
10.5911
-56.1528
0.142537
-64.3453
-25.8265
-52.0341
8.30565
18.7045
10.4662
0.920854
-0.325591
-1.2648
0.378967
-7.11971
-31.5478
12.8277
-0.175381
0.354518
-0.291077
-0.23698
0.0936652
0.21981
-0.167136
0.0567262
9.42787
10.3576
19.012
7.12973
43.6974
7.19074
-1.58711
0.589249
0.0647657
0.62692
11.6309
-34.6287
11.2473
-1.97876
-0.282155
-3.3596
31.5168
-2.94354
43.5157
5.9964
-6.09141
-0.36
11.5694
11.1351
-11.9471
9.12089
-3.60179
-0.143816
10.6461
0.451987
0.494871
19.5356
-1.42451
52.4616
5.97602
-4.15643
-14.7558
0.603215
-3.48961
9.11676
-2.9678
11.6127
-5.91445
3.90583
-3.33315
9.1006
10.7128
-24.4073
10.8911
3.91941
11.5009
-2.75829
34.7831
10.9454
-10.4394
19.1831
0.67788
-1.27325
-127.034
0.0186546
0.150189
-4.87987
0.592433
0.331331
8.82049
-53.4299
-95.4736
10.9352
-50.9669
0.633804
-50.0928
-51.159
0.478027
10.7024
16.3713
-0.0626782
11.6403
24.3629
0.00581223
0.1946
0.237437
17.7203
0.507314
0.0488709
0.256861
0.313612
10.3305
8.08686
47.2334
0.341593
0.391592
11.4542
0.333657
-14.4472
11.6723
0.31399
-4.13054
11.6534
0.402177
-4.879
-0.0382884
0.239347
-0.992378
1.12252
-3.84823
6.73289
-0.185272
0.0283118
-3.35063
10.2218
10.5917
0.0618725
-4.27971
10.6745
0.612125
-0.901442
-5.24394
-0.266139
-30.1623
19.306
11.4606
-28.3088
-6.82451
1.50785
-0.612242
0.173852
-26.1418
0.305945
-5.00046
-7.38286
-11.8483
0.0444137
0.11055
-0.791853
11.2835
0.10286
10.4403
-31.0694
0.416823
-28.1566
0.101053
0.01932
0.276751
0.344669
-8.41861
6.18677
10.6033
-0.0173399
10.4931
0.369499
0.13236
0.522281
-24.1022
0.031079
11.6358
0.24539
0.0742894
12.8714
0.121723
5.54335
10.5257
0.154037
11.1867
7.81042
7.72832
-14.488
-0.664804
0.0594336
-14.2577
0.444952
7.76373
8.26665
-28.2518
-30.7876
8.20049
-25.8693
8.41595
-27.0694
32.0336
-29.2866
29.9343
-36.831
0.238941
-41.6051
0.535797
0.396034
-5.905
0.461527
0.0388178
0.730406
-3.11024
52.971
17.723
10.7828
0.169461
0.0514107
9.42925
-6.869
8.59836
11.0219
-12.1972
0.259602
0.47598
0.0624741
-0.033244
-47.8548
-60.8068
32.2772
0.296734
0.252661
9.37421
8.70673
44.9753
-0.00459767
-0.0388249
-20.8607
0.0625118
0.316406
0.0533155
0.169113
-34.5177
-19.8025
9.97163
9.59501
0.0512741
-0.149974
-0.0659212
9.83677
0.368735
0.301036
0.0442237
-8.98178
-54.9498
2.93459
0.109967
11.4974
-0.016223
-54.0839
11.2463
0.358387
0.558195
9.90828
9.68388
0.626065
11.5189
0.341938
0.0116265
0.172183
14.0458
0.0873978
0.246159
10.1916
5.43524
10.3031
11.1611
10.5692
-4.06263
0.284604
18.2018
10.9632
10.8843
16.6607
-6.59149
0.47067
0.0759061
6.56425
-1.19529
0.0856818
10.923
11.2164
7.95056
0.0195678
-44.7294
-1.40285
9.07873
10.7271
8.91228
-5.63402
10.2424
10.5951
13.8972
10.5139
8.85924
0.560376
11.0791
0.692086
11.1053
0.0944985
8.23549
11.5553
0.105783
4.32746
5.7549
0.0720125
5.09239
0.338158
4.90673
11.5439
0.0578348
-15.3584
0.179857
-33.0169
0.31051
-37.3408
0.222829
0.520907
0.169621
0.0947846
0.26111
-0.0507652
0.058841
5.73133
-54.9971
55.044
0.467658
5.27502
2.48654
0.945142
0.435354
0.0661445
0.287431
0.169025
0.433042
0.425186
0.871795
0.0255749
0.0157094
-10.204
-7.26638
-3.73243
14.3211
-54.4011
-1.04972
24.5113
-53.8003
0.886182
-55.7849
-35.5386
0.514162
-2.13643
-1.1013
-5.1708
-57.045
0.0230882
0.486118
0.338845
-5.77474
-3.42443
0.41656
0.531317
-29.3309
-55.2431
-28.8615
11.397
16.9898
-5.11084
0.393061
-1.13162
-15.5296
-0.929333
11.3667
11.6177
11.6397
5.25167
11.5546
0.61875
8.83936
0.185059
-3.075
0.497676
0.347151
11.4311
11.5444
10.4304
6.33506
9.56731
0.368429
-2.13573
-29.3767
10.5015
-15.4142
11.5784
-3.36131
-12.3876
11.3203
0.378546
9.77892
10.9187
10.5142
7.62859
0.44173
-2.23995
9.90136
0.176322
5.86342
19.3775
0.5018
12.406
10.4271
13.8974
0.319271
0.221805
0.741814
0.00703487
2.05761
0.0108929
0.0244769
0.436445
0.569364
-2.11614
0.0873255
0.0937604
21.9664
-0.00984805
0.883832
0.606518
0.449251
0.144522
0.244855
9.584
5.97389
10.6845
10.6859
42.3943
0.178773
0.0404297
10.919
11.1379
-22.3215
-26.0671
0.31419
0.582505
0.563676
-12.6564
10.2287
-29.4598
11.5436
-31.7536
25.1688
17.9954
0.10496
-23.376
0.30379
0.3549
0.267982
1.22923
-0.00935638
0.384062
-54.9752
0.233796
-0.00131912
0.288515
-20.5621
0.395691
0.108349
-20.9453
-17.2419
0.210767
0.19799
-30.8466
0.342239
-2.16259
0.114669
0.370427
0.410632
-12.5916
-14.4529
17.8447
0.743057
0.44581
0.0378184
-29.5061
16.9105
1.45695
-30.5911
0.148703
0.205092
-30.8061
-43.1306
12.2311
-30.5942
-30.5912
0.101658
11.501
0.115039
15.3992
10.4754
-0.0285462
-45.2888
9.97118
-0.000211132
0.299522
-18.4383
-11.7634
11.5365
5.00723
-51.1718
-27.5635
0.291716
0.298854
-0.632601
1.30683
0.410546
0.496439
10.4707
6.59349
11.5435
-3.63723
10.6975
-30.684
4.28899
2.4148
-32.4896
9.19769
0.37017
5.92118
8.70671
0.38337
10.9571
-4.43874
27.749
10.7163
-2.60013
0.727707
-78.2582
7.8205
-14.3194
-44.925
-45.6969
0.233631
0.425783
-47.9751
0.0257894
2.26333
-30.8412
11.0134
-41.627
0.0382331
0.169093
10.8289
-38.2029
11.6491
11.7163
0.418779
0.250779
0.497159
-0.00539953
0.361342
0.733779
-0.461409
-34.6069
-28.0776
0.488862
12.8385
0.161218
16.6079
10.0072
11.6138
11.6227
11.6788
11.6102
18.0179
1.54207
11.5573
8.23771
-6.30375
0.0887328
-58.2709
-31.9161
0.00197872
16.9822
3.18052
0.111547
-59.0385
0.0188163
-52.4747
0.417294
-16.2166
-16.4706
0.443452
12.0622
8.10426
24.5281
0.0793298
0.360375
-0.372007
-20.4056
11.4819
-19.3849
-0.553939
-56.027
-14.7369
-0.538846
-17.3804
11.5646
0.487097
4.3717
-0.332343
-18.561
11.4504
10.1336
-17.9037
0.137712
-0.59335
-0.0668285
0.383724
27.0924
25.5914
14.4668
14.1016
0.0306198
-0.0449614
0.668256
-0.291712
-2.99834
0.0281567
0.347702
0.0298626
0.486693
29.1837
-14.6188
-0.0670893
10.3972
0.350736
0.441824
0.283563
-0.0152439
-5.07944
-27.5967
0.427072
0.211625
-0.0101559
0.547725
13.5988
0.100781
-1.00499
0.455674
0.415858
0.515795
16.8824
33.9783
0.456987
-30.1167
-13.2992
-36.2229
-30.0598
-0.413329
-8.45445
3.1129
-0.701544
40.8432
-30.6671
53.129
-13.8715
-0.41471
-23.3139
0.232304
55.2908
0.730693
-1.14626
0.67549
0.19609
-13.9424
0.571004
0.415891
0.454987
-30.7238
24.224
10.8725
11.1436
43.1521
39.4864
-18.2017
-47.1837
-31.011
44.6014
41.5873
11.0299
0.345103
16.5084
0.333599
5.06162
-30.7846
0.0601636
4.29858
5.56813
0.326615
-31.4289
-31.2285
0.115914
4.41319
0.616712
0.372962
5.63265
0.328854
14.6786
-0.0207997
0.497004
30.1741
0.0475197
0.0728737
0.0873709
0.2054
0.252439
50.1737
-21.7246
0.114437
3.64126
0.425448
14.3756
14.8394
-17.7656
0.224477
-29.6645
-19.2805
4.78053
0.926108
22.559
-44.6127
0.00655776
-0.0360936
-8.08278
0.388353
11.2038
2.72831
0.00274056
11.7091
-33.2961
-19.9377
-45.6135
11.6776
24.9812
0.0822651
-13.4252
16.0931
-18.6328
-0.0677289
17.6102
-36.4472
-9.5012
-20.1693
-30.7762
-18.9068
-0.762316
0.0637995
-14.8552
-0.0269995
-20.0461
-29.3613
-0.0160605
-21.7527
0.479843
0.59263
-39.9523
0.462547
0.0681172
14.9805
14.4143
10.672
-26.5644
-8.89014
0.620617
-13.143
46.0497
-1.7837
12.8211
0.652132
-1.46776
0.491269
0.444044
-31.8257
-56.2204
-11.3511
-1.73755
-20.9505
-22.3401
-32.5623
5.4546
0.354465
11.2612
11.4558
0.399715
-13.9066
15.2187
22.2107
11.3228
-29.8793
-19.4329
1.7287
0.195621
0.354185
-0.0908701
31.2377
11.0356
-22.9666
0.079325
1.62655
11.142
11.1256
11.0248
10.8372
11.3647
-21.727
-4.82807
22.3655
26.0809
16.1097
5.76991
-2.90705
33.8301
-0.922752
-9.42131
-1.87721
-18.4034
-12.826
-14.0489
-2.01583
11.3686
14.0509
11.1722
-0.0275869
-36.5095
-33.7012
-45.0483
9.31405
-11.1465
4.25166
-22.5076
0.0983322
-39.6347
0.0709629
-0.171004
-12.7018
7.53396
-0.0428856
8.43169
0.307811
3.88397
-13.8713
0.392093
-4.6544
-27.293
-7.65427
-2.9004
15.6419
48.5927
-53.6816
39.2565
-30.2525
-60.0353
0.369219
0.263775
22.7645
0.29878
50.0765
0.332158
0.32284
-55.2591
13.6966
0.867234
0.489125
10.949
20.7649
9.52308
0.284159
12.0501
-21.7952
8.44121
11.8791
12.0834
11.571
0.385736
-16.4296
-9.02148
27.4483
13.1097
0.358835
9.12449
0.323343
0.358686
6.77546
-12.3441
-5.73946
-13.3532
-13.0286
9.25627
-44.3335
0.385429
0.386851
0.30678
-48.2532
-49.8362
-29.2934
-30.4476
-0.924169
-1.97431
-41.6148
-31.3807
-7.6363
10.4595
0.37111
-0.753303
-43.0602
2.62702
-3.42101
0.529661
7.71535
-0.718207
30.5086
-113.486
-18.4142
-34.0472
0.618008
52.931
-54.0585
0.857895
9.42886
0.96845
-34.9963
9.49984
-7.43219
16.458
-29.6342
-0.22381
-31.4683
0.914452
-13.37
-0.329598
5.73772
-34.2457
-32.6351
8.85438
17.6036
-14.4179
-47.4587
8.25229
0.112345
-34.3133
-41.6937
10.2151
7.58861
-63.0376
-54.2288
-44.2002
9.01895
-12.0818
-25.7899
-44.0266
8.44615
23.5008
-23.2134
-11.4337
-9.14186
-31.7408
-42.2999
-7.22986
6.63914
10.7959
11.125
12.5312
8.80225
-5.21218
11.5517
11.5122
12.4536
-1.20572
-29.4912
-39.6645
9.52012
40.362
-22.5825
9.94509
-19.193
4.36344
8.82787
-11.8449
-4.31738
9.00009
7.95642
-56.5701
11.9339
-37.5256
-55.8585
-37.4119
8.56027
-13.3936
10.4741
0.683645
1.23255
-20.9667
-42.4979
-0.152259
-31.2567
-21.1437
57.9389
-24.8089
-48.1036
-32.6897
-0.0855441
-0.152308
-44.7403
-1.26501
13.4357
-0.0256249
-46.3269
-43.2017
-0.0294977
-1.1531
-36.6955
-14.7616
-44.8141
43.8337
0.197076
-6.11296
-47.8418
-1.67936
21.0381
-34.905
13.5481
-58.4762
-20.1019
9.61108
0.279911
0.110279
-0.812665
0.228502
-0.691551
-1.87605
0.212806
5.87102
33.0922
13.7493
23.3558
-21.6097
-11.5853
27.7666
-5.94899
2.80241
-15.187
11.8095
-71.2374
0.489295
-0.201321
0.587799
-41.1112
0.33401
-60.8075
0.441492
5.30782
5.69568
-55.2125
49.3149
-31.4112
-26.8458
33.0283
-5.86475
11.029
-11.7481
-27.8272
-29.7109
-29.2581
42.7121
10.8797
-20.3939
-31.1049
-7.76152
-7.80465
-41.4484
-31.4883
1.53813
-18.0646
10.7585
11.0357
-24.7606
-48.3577
-3.18597
8.81384
10.9199
-54.6197
11.0619
-12.0877
-14.6797
11.0493
11.2862
-24.6646
2.62522
48.6855
-23.7245
2.38275
28.4872
25.4227
8.31067
-89.6465
-43.4631
-18.7636
-120
59.8148
11.3559
-22.1563
11.3552
22.1647
-58.0024
1.43751
-57.1228
-29.7225
-5.435
19.5594
-10.0822
11.2109
11.2559
13.8258
-24.1239
2.04676
0.156712
24.8088
0.185453
-15.6237
11.9832
-15.5663
-2.91696
-27.8931
14.3177
-61.0623
-44.5137
4.60468
-39.7939
-30.4203
0.117844
46.8596
-39.4771
-6.55581
27.9763
-13.7999
-20.7847
-26.9702
-35.9835
6.00844
-48.3642
-24.6276
4.47431
-3.50764
0.538416
-27.1525
-6.01714
23.533
-17.5956
0.167483
22.7277
0.554731
-64.3603
0.04709
0.078593
-8.96011
-26.6539
19.7861
-10.5729
-16.354
-10.1335
-58.0284
0.0504843
-16.0773
-67.9643
0.435014
-10.1516
56.0103
-9.14368
-33.162
-52.8087
0.0647261
8.79324
0.0325218
-130.796
-30.2516
-27.9821
-29.7382
18.131
-7.81211
-1.95055
-41.416
-51.9039
-18.2592
0.276353
11.0988
0.67621
0.460977
0.805495
51.6776
11.4891
10.7992
-10.5903
0.414595
14.4638
11.6738
20.6658
11.2417
0.16842
20.2821
12.1693
8.91026
-20.7044
0.943553
10.5811
8.44364
-13.1611
10.6347
0.446526
0.467222
9.1702
11.4953
11.3862
-55.4746
10.5714
16.4436
0.628782
0.28672
-28.0634
12.3176
11.7985
-53.141
-50.4905
57.0591
13.306
-54.4647
22.1246
0.325854
-51.077
8.5123
-52.89
0.135675
0.0691576
11.1187
17.3971
9.34625
0.241315
0.243736
0.672337
4.85304
7.45627
0.577348
-21.7163
0.444487
-15.6128
56.4522
10.6312
-48.0672
-13.8073
-73.9269
0.532198
9.38364
0.13824
12.0341
0.285854
10.6891
0.656572
-44.3725
-27.688
-40.6586
-6.4025
-13.9229
0.645476
0.737727
-33.9996
0.820302
-54.8068
-3.25082
-49.3665
0.754213
-60.4472
-89.5962
-1.03526
0.0368978
-33.5883
0.277254
-33.4446
10.3809
-0.177206
0.629264
-0.744511
-2.22296
-2.83433
-15.5665
-34.4381
-10.179
10.4113
0.77984
10.4943
0.396749
10.3563
-34.8837
8.2228
-34.2391
-0.582606
0.92049
7.90724
0.385057
8.19662
7.47342
0.184802
0.650328
11.1951
0.441376
-5.90634
0.317151
0.262087
-32.0566
-32.3576
-3.99489
-0.559365
-24.897
0.362401
0.3357
0.296527
0.312414
0.0970607
0.370801
10.5485
10.2651
0.552394
0.498821
39.7806
0.0325614
0.339518
0.51521
-50.533
-0.923998
-54.9503
-39.7723
-49.085
7.68496
0.296319
-0.592985
0.0880722
0.501178
-45.7247
-14.1653
0.449574
0.320652
-0.674051
-0.758628
-29.365
-0.81072
-0.00491609
-19.418
0.569966
0.391392
0.244221
0.44603
0.132439
0.318901
0.498579
-14.3206
-20.2355
0.0540154
10.4487
-5.61922
-12.4632
-11.1782
0.475593
0.596239
-14.2477
0.0487396
-0.038219
0.522238
0.386562
-13.4648
0.0584763
0.739831
0.549042
0.407963
0.610784
-8.71714
-0.0648433
-45.6983
0.285026
-18.3437
-0.347568
-0.00153767
-47.6256
-0.0387801
-1.06341
0.144464
0.515277
0.556059
-0.963663
48.9992
-1.0135
-35.2694
0.360581
0.161955
0.820199
0.430881
0.236763
-0.750007
0.309296
0.39035
0.0821522
-21.9608
-12.2004
-42.3859
9.00393
-17.0148
-0.733797
0.316163
-0.675246
-34.6004
0.11535
0.0921618
-0.0106915
-60.1982
0.0711076
-0.144911
-0.0321465
0.312178
0.395007
-150.317
0.0589834
0.722942
10.5725
0.00763207
-9.12166
28.5971
23.5917
0.0814833
5.64953
-0.0714998
0.421148
0.345838
0.184192
-58.8707
-51.2269
0.0291815
0.353708
-45.6335
0.0610554
-8.84374
-25.3717
0.0777235
0.483403
3.56612
0.0376926
-12.2831
-0.0450099
-0.325679
17.9377
1.18677
0.0412642
10.5679
-28.7455
10.6204
-31.2242
-27.3731
-31.3132
-27.7824
0.538686
10.5519
-21.3717
10.6967
-1.7497
14.8678
-37.5576
-29.414
11.0076
-11.7198
10.9947
0.243268
0.334367
-30.3809
0.418973
0.405728
10.8249
10.8528
39.2594
42.1082
60.5477
-19.6807
26.2743
11.0227
13.1889
21.0734
10.8865
0.298609
-0.0406153
0.345254
0.157202
-30.3577
-30.2129
0.465955
1.65462
-6.89882
-53.8154
-3.62434
0.329676
-2.37617
-25.2963
-60.0373
0.311496
-39.9252
-13.5251
-33.0192
-44.0592
-15.2521
0.392562
0.312993
11.4872
-61.6291
0.134198
11.5895
0.14595
0.234652
-51.0427
-50.9777
-53.3034
-1.34076
-32.6983
14.5585
8.24921
-0.0709334
-17.9077
-55.8243
-54.8073
-30.3157
58.1981
-30.4833
32.1365
10.467
-45.5968
11.1499
-64.5205
10.5316
-60.4428
10.4343
-29.9095
1.00202
-22.7175
11.0511
10.9782
0.0295302
10.8439
10.7235
32.009
1.31338
10.9549
10.7281
-72.9774
-46.0541
-17.1961
-28.3979
-46.8498
-28.3752
0.451604
13.1808
-40.3821
-33.5498
-40.4238
12.0743
-51.7571
4.34605
-54.005
-55.2234
-40.5266
-25.4759
13.3904
1.4866
7.66926
10.8721
0.825394
-35.0544
-3.92465
-1.77547
0.711443
0.0887736
0.194934
0.545151
0.317185
-28.875
0.379026
0.18535
0.314726
-0.0282856
-23.764
0.652942
-0.012846
0.191817
0.782055
-12.7438
-9.01185
0.373751
11.5381
-34.3659
-54.7239
-3.82855
-47.4889
-13.8773
-3.48469
-26.5667
35.1967
7.57576
6.86995
-10.5669
-0.0316076
0.0316381
-6.46471
-0.0643933
0.0515251
-2.6266
0.0457937
0.732134
1.00685
10.1486
-7.47011
-0.170459
41.0579
0.0469534
10.9134
0.031424
-0.0419362
41.2935
-46.1572
22.5286
0.0482998
-0.791444
-29.427
-29.5396
-3.12753
0.0788951
9.57294
-15.0208
0.152301
0.147249
-15.5058
10.7656
0.131331
11.5875
52.8745
-0.597834
-1.03546
-20.7328
-3.83998
0.30232
0.232174
-1.24138
10.7128
10.6934
9.15609
10.7982
11.2161
2.68508
1.38386
-7.6963
-53.6354
3.39812
-8.35388
10.7483
10.6578
58.8847
1.60662
-0.521444
-0.943869
-22.3799
-41.0787
3.79397
14.4087
-1.1254
27.4937
-7.39222
13.3296
-36.3142
45.6887
28.15
-24.0491
3.61631
2.64947
-22.418
-53.541
-83.74
-1.77754
-14.286
-54.5284
0.585256
-18.8052
-10.4893
-41.5075
-29.5996
1.74394
14.0589
-55.7999
8.78529
-10.4434
0.624385
9.09962
-2.67885
14.9297
1.63332
13.0051
8.20039
-39.1988
1.81781
55.4606
-22.6348
53.3796
30.4233
-77.1752
11.6975
11.7385
-63.5255
-17.1268
-4.41941
-33.6237
-28.4268
-0.827189
1.57163
1.21708
-34.2458
-5.60053
5.26514
56.5295
-11.1661
11.124
-9.27868
-22.8331
6.0492
6.16559
-38.3628
-32.9548
-30.2888
-30.3458
0.139505
-19.6677
-0.422985
-20.6047
-11.8574
0.823914
-0.819453
-18.7025
-7.52928
-30.299
-30.0708
-5.205
5.3895
-1.18603
-15.0183
-25.4619
7.47664
7.26451
-19.3093
-29.7819
7.81615
-10.8482
-29.68
-0.396389
-41.5037
-2.55793
-7.80881
-48.6028
-0.236057
50.4136
-13.0441
-1.0427
-1.07684
-2.17916
-54.9702
0.454898
0.511625
-5.44463
0.311112
9.83757
0.345084
-34.0239
9.80123
34.115
10.1882
9.97755
9.72283
0.391307
-21.7388
-13.0695
-14.0503
-52.7112
-3.94371
-42.5602
-14.8654
0.0218819
-57.6635
0.0148677
0.35904
-1.8402
-11.6898
-57.6275
-30.4726
9.58043
36.0858
-18.1332
0.394286
-37.2029
-44.2848
-12.615
-46.0594
32.0012
10.5428
-14.0061
40.9889
10.5794
-72.706
18.624
9.55245
46.8508
32.4982
10.5004
10.746
58.3507
-41.9608
0.534695
52.0971
5.82295
10.7119
-12.4582
10.5901
-34.1962
6.26629
57.7725
10.8097
10.9527
35.0983
9.05998
16.3537
-5.84078
-4.51338
13.7428
-28.8359
22.4348
-24.6109
-57.7658
-74.4304
-29.2761
11.0438
34.8067
12.5693
3.03068
5.66187
10.2531
10.444
-0.141347
0.0218784
38.9039
-46.3671
11.2781
-31.3513
0.109838
5.41683
-20.6752
-73.3437
-0.0333085
-18.8003
12.0314
4.32725
-0.198539
8.88307
-10.6242
-0.00308813
0.564489
-25.5704
0.782947
0.465288
-9.6782
9.09937
0.455171
20.7972
0.509581
-24.1348
25.876
0.332765
14.3451
35.2092
-29.0881
55.0358
39.6282
-34.1811
-66.3663
-29.2901
-29.8497
-29.1624
-29.2344
-32.8316
-26.1746
-36.8112
-29.4313
56.8787
-5.56679
-50.0178
9.90653
-1.69354
-41.223
-48.5928
-6.04016
-30.6593
-19.5706
-29.8995
-17.1833
39.7102
-49.2656
-40.3314
-28.9658
22.3708
-28.8849
0.448509
-52.7667
21.5886
4.45785
0.0924325
-3.62794
43.7485
7.56681
-20.682
-9.76443
11.4265
0.0572242
-9.59634
-29.0109
-34.2587
-3.38289
-7.58089
17.3402
-31.4237
-10.8526
0.33022
-26.2254
44.6692
-4.28102
4.01291
0.346032
0.776948
-40.5544
8.89724
6.90431
0.56652
0.171961
3.55911
-4.39835
-4.98887
60.9059
1.64013
-17.5352
-8.86782
0.414307
-54.3829
-53.2486
7.60344
7.78717
6.95639
9.87753
-26.9936
-12.7499
54.4591
-9.99656
9.6548
-18.4608
-5.82975
-7.10818
7.40624
-15.0979
7.38876
-24.0234
-29.4937
-40.4763
29.9805
-14.9585
16.1924
7.65579
-58.037
-72.3725
31.4785
-52.8479
8.19719
-63.3493
31.2789
-4.63404
17.6422
-23.2089
-1.21566
0.2898
-9.21916
-16.178
-41.9084
-1.30873
7.53756
-95.1456
11.538
-37.4296
11.3935
-3.61649
9.01411
-0.46433
-2.54438
0.244936
-11.5866
6.54065
0.00521264
14.0571
-1.54429
-49.7709
33.4657
9.89863
39.6603
10.839
-1.82114
9.86485
11.6187
29.5857
-1.7
29.4794
0.148915
-1.44265
-22.0219
0.520035
0.121096
-16.5427
-10.2572
-27.375
-6.34429
31.7445
5.76839
25.9734
0.373554
17.0902
13.4962
0.411063
0.353854
0.297257
0.647063
55.567
0.300438
-12.0464
-31.251
10.9012
11.2576
13.4879
11.1072
-24.3946
-32.7131
-2.56435
-6.14356
-6.14849
-18.0075
32.5443
0.256092
-62.8597
-11.8212
-37.9871
-1.71355
7.41998
-25.68
11.0009
11.1528
-22.5713
11.2457
-0.357554
5.54057
-43.8382
16.0285
53.4556
-1.33651
-1.95014
32.577
5.09719
-0.824328
32.8026
6.61098
-17.9082
35.6792
-12.4744
37.5498
-46.4509
0.225642
11.6166
-2.08845
-10.1812
-2.21526
0.542769
-2.97426
0.186461
11.6202
-36.7862
3.23763
0.106677
-38.9249
-0.982817
5.87394
11.0826
11.2082
23.5948
2.64121
-1.51943
-7.54753
-2.63163
-15.0579
10.8793
0.195474
-22.9006
58.1042
-23.5561
-0.687959
56.7455
11.113
-52.0674
52.7803
-3.67532
3.96095
34.5377
11.2409
-29.8854
36.4686
-30.0897
-7.20152
-29.8622
-15.8889
-36.6551
32.3876
-7.62849
58.9201
0.431278
-29.9287
-30.1861
-56.9514
-50.0027
-38.0406
-58.294
-41.7316
-33.0776
55.6394
8.44198
9.07912
48.7775
22.5133
-49.8825
5.83867
-51.9839
42.8511
0.637408
9.42776
0.0704329
0.42687
0.393791
0.417619
57.0737
0.248429
0.406906
9.79399
0.633031
0.761256
9.62228
-7.52901
0.530987
-9.49801
0.414692
5.78655
24.8729
-49.6595
-1.69406
0.568388
-8.3635
-1.58054
-40.4942
-24.3451
-25.0101
-2.14948
36.4158
12.4118
-3.99836
-6.80486
6.92724
2.69367
0.521192
10.3699
9.83319
-30.2967
0.704648
16.8587
-4.7881
1.35713
10.519
-3.22313
6.71122
10.3737
10.1727
-15.6441
9.93484
7.30649
50.6119
23.4568
12.0529
21.0168
9.57489
-3.05275
10.0016
0.26146
-5.37271
0.268785
3.95382
0.0927999
21.2816
9.56995
-19.2918
21.5681
0.0757057
8.43259
26.3959
-16.7801
32.3125
-29.0176
-55.3863
-40.2669
-1.50889
0.131687
-30.0125
34.4243
-12.4839
-3.93042
7.75516
0.381401
-1.03624
0.124578
8.25186
11.5065
27.6183
7.55359
0.0387075
10.346
10.2473
0.0357965
-36.8116
33.6007
0.0402791
6.47101
-14.3473
41.1705
11.4946
8.89251
-12.0656
-50.5602
-50.9274
10.5709
10.5022
-5.57012
-9.4487
-11.5314
-32.5156
30.4332
0.314384
-0.614867
-2.66379
0.53243
17.8295
-18.4287
0.646654
0.427281
28.7014
0.410144
-11.717
24.9733
-37.7407
-27.9268
0.451344
-13.4187
12.448
-0.0826508
0.413836
11.0827
7.89835
-2.96374
19.3091
2.46049
-47.1166
0.531077
0.522877
-36.6883
-4.29341
12.2141
0.592851
6.64171
10.731
58.3602
0.526478
-12.4639
-37.7643
-42.3355
-96.2511
-63.1781
0.526636
15.1057
44.812
0.0177683
5.90675
8.1704
-41.5704
11.7328
4.92921
-40.9679
11.6908
23.1272
-19.0488
7.9455
-41.4895
-56.0881
13.2244
17.3804
-45.093
13.5299
9.52063
1.20627
12.8603
10.997
-0.393062
-37.9222
-8.68674
5.12968
12.6338
10.3084
11.4232
-0.467755
-0.0475057
32.9526
0.0347062
-10.2599
-1.16603
34.8626
11.1317
-14.0891
3.18923
56.1379
-26.2784
-31.4748
-43.2992
1.7452
-7.2545
-58.3194
-21.3414
12.9133
-17.7481
-9.45802
-0.00971169
-11.8851
10.4192
3.26865
1.35995
0.0454184
0.179127
-21.7358
-6.94536
-13.526
-0.202658
-1.3975
0.2853
-1.55715
-7.86684
11.7139
-46.8915
12.093
-1.97336
-1.88987
9.96305
9.84606
10.8451
0.16855
-1.77243
-12.9412
2.48623
-1.60319
-2.09483
-29.9103
2.40938
-9.15018
-41.2001
-30.8946
-30.089
12.8024
-30.7069
16.8517
-32.0935
0.160128
-29.8844
0.235019
1.36764
-1.70188
-6.92708
0.19165
2.35191
-3.55957
10.5543
8.56963
12.0617
-6.75351
-7.3184
-49.8609
-29.5345
21.9213
35.357
-36.0221
-27.4315
-31.5028
-52.655
-29.3042
-11.0022
-29.498
0.0575739
-0.379407
-49.4256
-56.6846
-6.60899
-1.85478
10.3881
51.3292
-4.63924
-56.223
-3.20728
3.42483
-5.33338
-1.77457
-29.921
-0.752065
-0.235019
-0.0377132
0.714538
5.46913
-1.17333
0.59885
-45.7702
-46.761
-43.4447
20.5949
-37.1503
11.358
0.469162
12.9956
4.94376
2.79679
19.8576
10.5848
20.958
-0.0484867
2.26125
3.81774
-0.561652
0.540737
-14.6883
7.39548
11.9797
7.41203
41
0.254732
22.3036
-59.555
-6.98545
-49.8706
39.767
9.03345
7.88533
5.02205
-16.4066
-10.6268
10.9382
-36.7743
6.0895
7.53295
-6.53785
16.7374
8.1874
-7.02512
-18.814
-15.9594
11.628
-2.94919
-61.1081
-1.3158
-46.2463
-31.6462
11.5118
-56.8809
-9.46641
31.9782
-2.56203
11.4874
13.5982
15.9961
-8.36915
10.7415
-29.6328
-16.1961
-29.609
-6.04995
-9.2333
15.1513
-29.0592
-27.0066
0.0746358
-0.775847
14.1596
-29.3706
5.38397
-6.16302
-48.0606
0.188277
-0.677856
10.1869
-53.674
-7.47629
-3.40578
-0.0118812
-3.14427
9.85242
9.64153
-3.77884
9.90992
-31.8925
9.89478
-56.6071
10.1763
-32.3715
-32.855
-9.92608
9.51793
-10.2591
-0.484223
9.50847
-3.84436
-1.13287
-10.2008
50.1545
0.152169
32.4417
-12.3487
0.154318
-4.92132
0.20199
11.0794
9.72821
10.8376
-10.1745
0.102267
10.4039
-2.47045
0.101605
0.567405
-26.958
0.0282974
0.0694914
11.1812
-28.0179
-31.7794
0.185453
-7.53413
0.448054
-30.6861
0.322538
0.176228
-0.302831
0.331276
-0.129364
-0.319458
0.0472612
0.551469
9.80023
-22.7023
-18.6433
11.1392
43.3226
14.4831
10.8972
0.0588708
11.5638
35.7171
0.0680102
31.5728
-1.13577
0.154377
-2.06031
23.4781
0.450686
-0.0465454
53.2322
11.6503
26.208
-11.8994
-15.766
0.0788564
-4.74725
-0.0389538
0.467371
0.473416
0.472246
47.7617
0.399857
0.352209
0.295788
10.4518
-43.0064
-26.2855
-6.40914
2.50874
-0.685577
0.414454
13.4779
-31.6256
23.8703
15.1111
1.84129
0.398787
40.688
-15.854
38.5984
29.864
10.462
11.024
0.281728
-7.29347
0.0674706
-16.9357
-15.0486
11.0147
-51.0214
-0.1783
0.204407
0.442073
9.33174
0.352868
46.1299
-6.22516
43.7938
0.27102
-56.3755
-10.9798
-16.1816
0.244868
-46.1464
0.355635
26.8759
10.6396
30.48
0.231545
-20.0267
3.03502
-49.2086
29.0377
10.5352
10.1784
-2.4461
-27.0619
10.3447
-58.1658
-37.4152
10.6001
32.0829
10.4586
-24.6701
41.4364
6.05416
-8.76435
41.4344
36.2661
-0.302261
1.30263
-54.8914
41.4393
8.62045
37.9632
-7.11729
-54.4554
28.0547
-4.34354
0.0496195
0.27269
0.114423
-0.739471
12.3689
-34.373
-2.02855
-37.6863
14.8049
36.6212
-12.545
34.9039
0.0538143
-0.0328024
-16.7751
56.016
-20.6152
45.9094
14.6307
2.74793
22.9109
2.89693
15.261
0.0251678
0.0596133
0.00154293
-0.0226146
7.34977
-16.9477
11.8056
-34.1476
2.23753
-42.6659
7.8471
-25.5266
42.9521
-4.62605
-3.72682
0.1245
36.7163
0.0569154
21.238
-3.51453
7.59387
-11.5406
-1.17563
29.9734
33.9001
-17.0493
0.214422
-1.32118
-37.0726
-63.8563
-9.25761
49.8342
25.1726
53.0507
56.586
42.2857
-39.296
-2.74738
42.1062
-44.8941
0.0156705
4.01465
0.0646236
-30.1662
-15.5198
-2.96244
0.090814
-10.6785
-0.0178867
9.92392
-38.0662
40.0973
-47.1102
9.88423
-3.50545
8.45697
-0.292195
-8.23791
-58.3996
-0.291436
-35.2508
-18.954
10.2374
-57.7309
-46.8688
10.2291
-15.1747
-16.2914
21.3978
10.256
-15.719
25.1743
-57.2024
-33.6247
-45.7395
38.1838
-36.469
3.30479
23.8818
2.77366
-58.5857
-49.2416
-1.64501
-1.757
47.5497
-4.56785
-39.9833
-3.99616
-19.0092
-66.7939
-33.0954
-30.4784
1.19783
-30.4835
0.211468
-30.4306
13.1059
-24.2685
47.845
-29.3557
18.8957
-33.6183
-28.9286
-21.4267
-47.1323
31.5991
29.3979
-34.3972
9.43219
24.3335
15.5645
4.61116
12.181
-3.73694
-32.0228
-83.7173
-30.3449
14.1915
17.9946
-42.1716
22.1933
-32.2204
-17.2841
4.77613
4.49
-31.2773
11.2245
-31.3204
12.7282
28.9447
30.9708
58.3193
27.739
-30.5131
-61.3726
41.5708
11.2089
35.2058
-50.6138
-30.43
49.4656
28.6741
-5.21025
20.5185
23.22
-44.6958
-32.7874
-48.0986
14.1356
9.65317
34.0804
-59.9594
42.4472
26.9857
11.5456
35.2947
-30.877
0.742844
0.962314
11.4938
-14.5263
-54.135
-29.825
43.1738
-11.3812
-20.5351
-47.5256
40.5838
44.649
36.4887
-35.2977
-99.7501
42.8781
-34.8425
-57.7914
44.3119
-2.9529
-11.3112
11.0565
-0.465654
-0.763655
-10.5549
41.9369
-29.6374
0.687531
-0.506001
-0.672823
-0.281434
-1.76642
2.85668
-34.5879
-8.38802
-0.819247
-55.445
-72.8806
-29.0307
-21.3241
-2.48238
-18.9507
-29.6874
-43.9635
-0.674141
-36.4855
-3.37128
-36.1302
-30.8547
41.0887
17.7209
24.911
0.100799
3.44683
-73.1109
-26.4785
-11.2586
-48.1954
0.0189868
-63.4789
-45.651
-27.7693
-45.5734
-6.55901
14.6502
10.5322
13.937
9.71117
41.2613
0.0553728
-0.000877216
0.00364311
13.4603
-10.7128
-50.7655
-57.5743
15.0009
35.8011
23.2248
28.0776
-1.64454
-51.1351
-6.98652
11.1959
2.54968
-2.60924
17.7496
5.923
-16.4533
13.4229
-12.9031
-10.9249
-8.98973
16.2032
34.7278
-33.0829
51.0249
-28.6322
17.8012
-58.8051
-47.7449
-11.7732
13.2853
32.2973
-10.9735
-33.4348
5.38128
13.1955
-19.1723
-29.4879
14.8754
45.2086
57.1539
-35.1386
-2.87533
-58.3099
13.413
-0.365069
-10.9143
9.70074
5.96549
-16.9928
2.14462
6.95146
-45.0108
-11.1593
-29.0773
-13.8641
-29.8045
-0.0434335
10.8262
-58.5216
-19.5762
-0.0463484
58.0333
11.3304
44.1948
9.59242
-25.4708
15.6592
-1.50261
32.0891
53.8235
14.2436
32.2437
0.0833468
-47.6276
11.2756
11.1541
-6.49952
5.03992
-39.7016
-6.02982
-10.9916
11.4373
2.49982
-24.1154
3.80622
8.34449
-9.05998
-14.184
-28.3173
0.0316734
12.8199
0.0401067
13.0981
0.0750745
-21.5544
11.2249
-25.0266
10.5869
-29.3129
0.00241628
32.0731
-9.93558
33.6546
0.0979994
6.76418
0.155801
0.0175183
-5.662
6.48116
15.7287
32.1038
28.568
-30.4556
-53.2733
40.1962
22.6695
20.2123
3.67297
0.0315837
0.0577074
-77.3422
41.4377
16.9993
12.9907
0.0933672
17.3125
0.149039
0.105459
-23.6364
-26.2058
-40.0888
-34.8633
5.37328
0.624612
-6.29559
11.0543
40.9445
9.49718
-19.8745
9.38929
-8.31601
-78.9652
-17.4781
0.175595
2.22123
-11.3114
-8.83687
-37.3606
11.5702
-36.3637
21.8071
-78.2135
-32.931
-30.7584
0.176316
20.3647
1.21954
11.3518
33.0355
11.4074
-13.0235
9.46088
10.404
7.0579
11.3094
-41.9434
16.4331
2.23051
41.0573
10.717
-24.6581
11.4978
11.4138
-30.8327
-80.0064
-30.9956
-29.955
-30.9369
8.07438
56.3035
-31.1444
-4.62671
10.2078
17.8795
-30.9095
0.233002
0.0466136
9.51188
-24.8649
-29.8794
-50.8529
29.3529
-3.87916
0.477842
1.07622
-29.8068
26.2341
8.30113
-57.1406
-29.2975
-29.6853
57.6528
12.5941
9.17696
0.68494
12.6966
-53.4383
15.2911
9.73844
17.4535
-4.38824
15.7419
21.092
42.3124
34.0602
9.13623
-19.5507
20.602
-11.5667
0.288716
0.346563
29.4693
-33.3636
-14.1968
0.322021
53.1749
0.376054
-29.9313
28.5817
18.1631
36.9953
-29.3527
-20.8102
-29.6324
29.5853
-14.4773
-34.6559
-7.03815
9.91998
0.380417
12.5382
-0.468927
12.3694
-0.801093
9.96548
-0.884878
-14.2336
0.118764
32.7049
1.03223
2.75065
-27.4576
7.6891
-0.0555179
9.17603
-7.75184
-34.0437
-46.7424
-22.3558
3.01427
34.7143
0.543841
56.1498
-33.5681
56.2754
49.9626
0.652289
3.17616
5.12962
0.468325
0.538956
-92.4891
9.09979
-26.3281
-12.9245
3.22426
-0.521816
-30.1584
5.44313
5.38556
7.84706
5.21418
0.389006
-31.6648
-6.23156
-0.182233
-25.7668
0.237417
-0.644141
-0.0474474
-0.180417
-12.1366
6.4466
-57.8944
-0.779255
-0.217005
-13.7022
-14.8984
21.2142
-20.3332
10.6963
10.5826
-0.0106299
0.17716
-12.5096
-18.4201
8.26732
0.176977
-4.13419
9.15587
0.186814
54.5272
0.0789431
-0.47816
0.168125
-0.0265212
-31.7763
0.00158191
-29.4324
-10.1911
50.4523
3.11367
-3.24486
-5.11562
-1.62141
-9.98466
-37.022
0.391138
0.0865838
5.91348
-29.6272
0.0427092
6.45674
25.7711
39.9337
-12.0996
8.14409
7.38585
-42.2552