/*--------------------------------*- C++ -*----------------------------------*\
| =========                 |                                                 |
| \\      /  F ield         | OpenFOAM: The Open Source CFD Toolbox           |
|  \\    /   O peration     | Version:  2506                                  |
|   \\  /    A nd           | Website:  www.openfoam.com                      |
|    \\/     M anipulation  |                                                 |
\*---------------------------------------------------------------------------*/
FoamFile
{
    version     2.0;
    format      ascii;
    arch        "LSB;label=32;scalar=64";
    class       surfaceScalarField;
    location    "0.0785492";
    object      phi;
}
// * * * * * * * * * * * * * * * * * * * * * * * * * * * * * * * * * * * * * //

dimensions      [0 3 -1 0 0 0 0];

oriented        oriented;

internalField   nonuniform List<scalar> 
92401
(
0.149026
-0.0982878
-0.00683372
-0.0439046
-0.0637607
0.0608285
0.0401214
-0.0371892
0.0221706
-0.0396598
0.0429709
-0.0254817
0.00659841
-0.0131746
0.0129992
-0.006423
0.00136891
-0.000548197
-0.00596368
0.00514297
0.0194076
0.00969202
-0.025297
-0.00380258
0.00590623
-0.00483303
0.000295707
0.0322425
-0.0255475
0.0127126
0.0480781
-0.0386428
0.032458
-0.0418933
0.000346182
-0.000641827
0.00017813
0.000117515
0.00468893
-0.0415336
0.0386011
0.0242836
0.0243307
-0.0872153
-0.0175456
0.0110949
-0.00012911
0.00657974
-0.0343923
-0.0399996
-0.0162428
-0.0205492
0.059803
-0.023011
0.00210341
-0.0666872
0.0645838
-0.00252971
-0.00777131
0.00205522
0.00349045
0.00222564
-0.000957963
0.0015499
0.000214958
-0.000806894
-0.00498644
0.0109388
-5.8959e-05
-0.00589343
0.0165029
-0.00577077
-0.005017
-0.00571509
-0.0407652
0.0083485
0.0369732
-0.00455653
-0.0394032
0.010961
-0.0547318
-0.0540712
-0.00271033
0.0548855
0.0018961
0.090704
-0.0892931
0.022027
-0.0234378
0.0503359
0.0601462
-0.0716603
-0.0388219
-0.0325937
0.0511375
-0.057947
-0.00275771
-0.00100553
0.00402617
-0.000262929
0.031413
-0.0635699
-0.00043682
0.0611322
-0.0601439
-0.0323616
0.0313733
0.012499
-0.0173031
0.00136258
0.00344149
-0.0361475
0.106786
0.06182
-0.132458
-0.0846928
0.107527
0.00897079
-0.0318054
-0.131104
0.0324101
0.0295635
0.0691306
0.0148592
-0.0621428
0.0374439
0.00983972
0.0603075
0.00924873
-0.054697
-0.0442156
0.0100869
0.00247708
0.0316516
-0.0504149
-0.0411756
0.0654836
0.0261069
-0.0332256
0.0406379
-0.0137468
0.00633447
-0.0202511
-0.102782
0.0659943
0.0570385
-0.085575
0.0865871
-0.00101214
0.0329745
-0.00342132
-0.0749303
0.0453771
-0.00105717
0.028553
-0.0193556
-0.00814022
0.0268848
-0.0503981
0.0235133
0.000172737
2.25531e-05
-0.000145152
-5.01381e-05
0.000881948
-0.0584694
0.0575875
-0.0685216
0.0429284
0.0623062
-0.036713
0.0901236
-0.0254244
-0.0128064
-0.0518927
-0.000466038
0.0708595
0.000875297
-0.0712687
-0.0476537
0.0732016
0.0397705
-0.0653184
0.000560783
0.00111032
-0.000390205
-0.0012809
-0.0020856
-0.00355992
0.000109883
0.00553564
-0.0383035
0.0840046
-0.046271
0.000569841
0.000334175
-0.000771648
-0.000511124
0.000948597
-0.0549312
0.0542472
0.000683981
0.075483
-0.00782202
-0.0186998
-0.0489612
-0.0996424
0.0920924
0.00456986
0.00298019
-0.054804
0.0273397
0.0110396
0.0164247
-0.0027878
-0.0149573
0.0076587
0.0100865
-0.0125489
0.0258488
0.0374326
-0.0507326
0.000877145
-0.000363882
-0.000179088
9.42332e-05
-9.54628e-05
0.00079784
-0.00079661
0.000417621
0.00015015
-0.000335217
-0.000232555
0.00414887
-0.00919072
0.00503807
3.77107e-06
0.0679085
0.00506152
-0.0171994
-0.0557706
-0.0150332
-0.00476605
0.0107128
0.00908637
-0.0409681
-0.0528825
-0.0547705
0.148621
0.00344641
-0.0348183
-0.00295932
0.0343312
-0.000291233
0.000507275
0.000396138
-0.000612179
0.00425213
0.00450174
-0.0278869
0.019133
0.0188426
-0.00644661
-0.00962794
-0.00276801
0.0418423
-0.0765328
-0.0276608
0.0623513
-0.0292998
-0.00309246
0.0102689
0.0221234
0.0122404
0.0083156
0.0130595
-0.0336154
-0.000311402
-0.000303194
6.31415e-05
0.000551454
0.0252304
-0.00973252
0.0365647
-0.000472948
0.000288654
-0.000544325
0.000728619
0.0442218
-0.0330811
-0.068131
0.0569903
0.000367371
-0.000232585
-0.000134786
-0.00112697
2.64668e-05
0.000559911
0.000540594
0.000628508
-0.000207004
0.000240637
-0.000662141
0.0226553
-0.0231192
-0.0622819
0.0627458
0.0010579
-0.012684
0.00290451
0.00872157
0.0430118
0.0585996
0.0185051
-0.120116
-0.111035
0.0247461
0.123814
-0.0375247
-0.00537955
-0.0447731
0.00376141
0.0463912
0.0551836
-0.0305177
0.0263265
-0.0509924
0.0267332
-0.0032966
-0.153966
0.130529
0.00904265
0.0155751
-0.0287749
0.00415719
0.000685522
-0.000191562
-0.000757812
0.000263852
0.0381141
0.0122934
-0.00132521
-0.0490823
-0.00251172
0.0846302
-0.0862057
0.00408729
-0.0181345
0.0495673
-0.116163
0.0847299
0.0425679
0.0053583
-0.0533058
0.0427018
-0.000133912
-0.00233275
-0.0293209
0.0417985
-0.0101449
0.0708983
0.0171286
-0.0315978
-0.0564292
0.131936
-0.145799
-0.0300633
0.043926
-0.0151346
-0.0458307
0.0586325
-0.0824702
-0.000710746
0.0831809
0.00108278
-0.0978469
0.163105
-0.0663413
-0.00254725
0.00338636
-0.000626919
-0.000212197
0.0899105
-0.149238
0.030399
0.0289281
0.0015579
-0.000450772
0.00090703
-0.00201416
-0.0872545
0.142821
-0.10409
0.0485233
0.0309591
0.0027209
-0.041509
0.00782897
0.0859787
-0.0148802
-0.0833476
0.0122491
0.00576067
0.0318692
-0.0527645
0.0227068
0.0277749
-0.116264
0.0657822
0.0872037
0.11329
-0.0800574
-0.120436
0.000802178
-0.000276365
-0.00051528
-1.05325e-05
-0.0936313
-0.0285836
0.110708
0.0115073
0.00134337
-0.00587041
0.0160435
-0.0115165
-0.0141283
-0.0341279
0.0584845
-0.0102283
-0.00561369
0.0175408
-0.014652
0.00272493
0.000410378
-0.000680872
-0.000610959
0.000881452
0.022404
-0.0264632
-0.00155455
-0.00188368
-0.000698846
0.0015456
0.00103693
-0.0577796
0.0604472
-0.0026676
-0.00258631
-0.00636688
-0.00218139
0.0111346
-0.0369643
0.0284417
-0.00560573
0.0183389
-0.0472354
-0.0557962
-0.0513029
0.0415544
0.0983415
-0.0885931
-0.00764781
-0.00182786
0.00515376
0.0043219
0.0468462
0.0111007
0.00218171
-0.0601286
0.000573314
-0.00959342
0.00708342
0.00193669
-0.0402801
-0.0541144
0.011485
0.0829095
0.0647071
-0.0388771
0.0266298
-0.0524598
-0.00963384
0.0598024
-0.0587874
0.0086188
-0.0590217
-0.0339824
0.00779142
0.0852127
0.0162184
0.00487913
-0.0329152
0.0118177
0.0633119
-0.0633193
7.43849e-06
0.00186371
0.00178492
-0.00157767
-0.00207096
0.0406475
-0.0440485
0.00340103
-0.05763
-0.0381236
0.108021
-0.0122672
0.000836131
-0.00997483
0.00989921
-0.00076051
0.00273842
0.00588946
0.0027697
-0.0113976
0.00169088
0.00676194
-0.00787951
-0.0245881
-0.0579314
-0.00900245
0.091522
0.0257654
-0.00806098
0.0186626
-0.036367
-0.0839999
0.09256
-0.101275
0.0927148
0.0772906
-0.0499391
-0.0273515
0.00161767
-0.0346501
-0.010143
0.0431754
0.00812967
-0.00561777
-0.00959677
0.00708486
0.04636
-0.0700778
-0.0621318
0.0858497
0.0740245
-0.0647096
0.0293656
-0.0386805
-0.0137627
-0.00927724
0.033635
-0.010595
-0.0581683
-0.0867608
0.0572921
0.0876369
-0.0416036
0.0543258
-0.0111045
0.0976985
-0.0482769
-0.0494216
-0.00478629
0.0155992
-0.00268319
0.00100725
0.000684996
-0.000712954
-0.000979296
0.0473388
-0.0157943
-0.0052458
-0.0262987
0.00364232
-0.00189748
-0.00045053
-0.00129432
0.00536956
-0.0101942
0.00872292
-0.00389826
0.0723434
-0.0425449
0.0260167
-0.0558152
0.00895191
-0.000458626
-0.00687232
-0.00162096
0.00165499
-0.000607804
-0.00104719
-0.065992
0.0653655
0.000626594
0.0118852
0.00575033
-0.0966625
0.079027
-0.0119612
0.0143927
-0.0102878
0.00785634
-0.0731187
0.016393
0.083501
-0.0267753
0.0186162
-0.0976501
0.0756707
0.00336323
-0.0526672
0.0429507
-0.00839781
0.0181142
0.00872634
-0.00182908
-0.0029694
-0.00392787
8.8886e-05
-0.000751701
0.000662815
0.0283075
0.170859
-0.24561
0.0464427
0.000283257
3.38495e-05
-0.0248994
0.0602823
-0.0526396
0.0172567
-7.64787e-06
0.00521831
-0.004471
-0.000739666
-6.4447e-05
0.00133671
-0.00147927
-0.0708923
0.000590801
0.0703015
-0.0323774
0.113766
-0.04774
-0.0336491
0.000538128
0.000474967
0.00946747
-0.0104806
0.000447521
0.0920063
-0.0924538
0.00240718
-0.00162703
-0.00123041
0.00045026
0.00137894
0.000705852
-0.00071322
-0.00137157
-0.0367057
-0.00156309
0.0324625
0.0186895
-0.0637008
-0.0724035
-0.0163001
0.00652096
0.0821826
-0.000630381
0.00200932
-0.100916
-0.0418155
0.112774
0.0299579
0.0271698
0.170654
-0.085201
-0.0578195
-0.0276334
-0.0183385
0.119238
-0.0435319
-0.057368
0.0397306
0.0299181
0.0386234
-0.108272
0.104685
-0.249002
0.109493
0.0348234
0.00164849
-0.00146194
-0.00138456
0.00119801
-0.0123258
-0.035377
0.0554557
-0.00775284
0.0263342
0.0404604
-0.0265444
-0.0402502
-0.0353586
-0.025799
-0.0197666
0.0809243
-0.0533713
-0.0139599
0.0550053
0.00118459
-0.0119972
0.00924054
0.00157204
0.0553719
-0.0284436
-0.0508466
0.0239183
-0.0896266
0.105574
-0.0502885
0.0343412
0.0168628
-0.0234459
0.00685862
-0.000275521
0.0517871
-0.0600544
0.0636392
-0.0571964
-0.0034967
-0.0138193
0.0745124
-0.00532854
-0.0132956
0.00253526
0.0160888
0.000176863
0.0591204
-0.0584931
-0.000804084
0.135267
-0.0537663
-0.00244938
-0.0790515
0.0600759
-0.00762479
-0.0491877
-0.00326343
0.0506224
-0.0225374
-0.068204
0.040119
-0.0100458
-0.00172002
0.0151358
-0.00336995
0.00542401
-0.00170316
-0.00476928
0.00104844
0.00257553
-0.0442151
0.0408338
0.000805789
-0.000753926
-0.0863043
0.00346688
0.0197398
-0.0129228
-0.0631257
0.046507
0.0166187
-0.0595508
-0.0170396
0.0109781
0.0656123
-0.101358
-0.000770633
0.104635
-0.00250613
0.00372652
0.0239033
-0.0128698
-0.01476
-0.0713262
0.149763
-0.0659883
-0.0124482
-0.00469804
0.0133373
0.0224126
-0.0310519
-0.0524501
0.100539
0.0392917
-0.0873803
0.0293491
0.0013311
-0.0143912
-0.0162891
-0.0363961
0.0380863
0.000885351
-0.00488753
0.00754944
-0.0102609
0.00759898
-0.000247402
-0.00457967
0.0101966
0.0360233
0.0378069
-0.0738302
0.00108021
-0.00190542
3.09012e-05
0.000794313
0.020116
0.00835772
-0.0192836
-0.0091901
0.022678
0.010337
-0.00154649
-0.0314685
-0.052648
-0.00215226
0.0071069
0.0476934
-0.000210264
-0.0440048
-0.000993392
0.000526403
0.00154719
-0.0518517
0.0371366
0.0519045
-0.0371894
-0.0447873
0.0302412
0.017455
-0.00290887
0.00138712
-0.00364607
-0.00993123
0.0121902
-0.00989377
-0.00508605
-0.00292593
0.0179057
-0.0436995
-0.00489661
0.0122
0.0723491
0.0395782
-0.0720568
-0.0398704
-0.0456912
-0.000204205
0.0458954
0.0861901
-0.0486822
0.0595924
0.00368938
-0.0076498
-0.0372609
0.0412214
0.0359146
0.0112956
-0.00529994
-0.0419103
-0.000471714
0.000345241
0.00102127
-0.0008948
-0.0168614
-0.0449748
0.0618362
-0.00021269
-0.001386
-0.00411608
0.0308229
-0.0230174
0.00618556
0.0278804
-0.0417158
0.0978542
-0.0906687
-0.00209128
-0.00509426
-0.0214608
0.101498
-0.0185411
-0.0614965
-0.0319018
0.00679009
0.0135939
0.0115178
-0.0390758
0.0359024
0.0138038
-0.0106305
0.03257
-0.0251262
0.00134341
-0.00878719
0.0192636
0.072841
-0.123277
0.0311727
0.076298
-0.0752755
-0.024314
0.0232916
-0.143406
0.00203916
0.00364404
0.137722
0.0305547
0.0123863
-0.0412108
-0.00173012
0.040016
-0.0575611
0.0203715
-0.00282638
0.00215341
-0.00121083
0.000242781
-0.00118537
-0.0146567
-0.00112621
0.073399
-0.041642
0.0188075
-0.0505644
-0.0120156
0.0477214
0.000400712
-0.0361065
0.00516676
0.0960106
-0.0933303
-0.00784706
0.0495359
-0.0989668
0.0579074
-0.00847652
-0.0483662
-0.000428378
0.036779
0.0150848
-0.0033503
0.00867839
-0.0204129
-0.0234222
0.047791
-0.01331
-0.0110588
-0.0482979
-6.82821e-05
-0.00557498
-0.122869
0.17589
-0.0474457
0.0101008
0.00980794
-0.0635117
0.043603
0.0494517
0.00546262
-0.0448135
-0.0131199
0.00680184
-0.00370323
0.0100213
-0.0586174
-0.000387568
0.059005
0.110682
0.0442702
-0.136913
-0.0180394
-0.00943818
0.000286804
-0.00396852
0.018532
-0.116259
-0.0226488
0.120375
0.0127096
0.0663584
-0.0692601
0.00281224
-0.0558163
-0.0105077
0.000536353
0.0019413
-0.00269035
0.00206626
-0.00177687
0.000246961
-0.0508295
0.0262017
0.0738628
-0.0492351
-0.00193319
0.000987103
0.000972558
-0.0341759
-0.00772617
0.0447143
0.000298781
-0.000290673
0.000357166
-0.000896723
0.000121483
0.000418075
0.000262202
0.00210284
-0.00182255
0.00146776
0.000142514
0.00021227
0.000308475
-0.000111086
0.000679756
0.106525
0.123096
-0.0805951
0.000179551
-0.000678192
0.000807116
-0.0528708
0.0527199
0.000150891
-0.0105307
0.076111
-0.0716445
0.00606418
0.00167712
-0.0197197
0.00531671
0.0127258
-0.0603696
-0.00303186
-0.0172489
0.00400871
0.0474485
-0.0342083
-0.0628583
-0.00302774
0.065886
-0.0071378
-0.0166028
-0.0127611
0.0365017
0.000344098
-0.00039642
-0.0005477
0.000600022
-0.00389891
-0.00739717
0.00913359
0.00216249
0.054985
0.0439056
-0.0175076
0.048332
0.0896379
-0.0380703
-0.0998996
-0.0126894
-0.0442193
-0.0188961
0.0185523
-0.0537892
0.0541331
-0.0112272
0.028582
-0.00565632
-0.0116985
-0.015091
-0.0134533
0.0133869
0.0151574
0.0965305
-0.0946624
0.0187468
-0.020615
0.00125371
-0.00441878
-0.000479055
0.00364412
0.00124273
-0.0671258
0.065883
-0.0725466
0.00335771
0.0668026
0.00238631
0.038975
0.0382849
-0.0772599
0.0190989
-0.05997
0.0281817
0.00196593
-0.00110736
0.000446129
-0.0013047
0.000256473
-0.000139674
0.00103301
-0.00114981
-9.03082e-05
0.000444254
-0.00102896
0.000675014
0.0641579
0.0566601
-0.0393656
-0.0814524
0.00589525
-0.0870638
0.0824675
-0.00129898
-0.0138094
0.000742427
0.0264765
-0.0134095
0.0535467
-0.0526916
0.0191418
-0.019997
-0.000544323
0.00139731
-0.00070052
-0.000152464
0.0202523
0.0478979
-0.0490514
-0.0469325
-0.00169102
0.00104141
0.00147645
-0.000826837
0.0014011
0.0809867
-0.0823878
-0.0499369
-0.0150338
-0.0222624
0.0872331
-0.0499681
3.12899e-05
0.0116319
0.0167574
0.016689
-0.0450783
0.000558357
-0.00272713
0.000459131
0.00170964
-0.00180532
-0.00047973
0.000594027
-0.106265
-0.00938356
-0.043201
0.15885
-0.00975938
0.00731514
0.13693
-0.134486
-0.0386264
0.0418852
-0.0647577
0.0614989
-0.0800242
0.0796136
0.000410596
0.00127894
-0.0499663
-0.0305305
0.067099
0.0192688
-0.00598576
-0.080382
0.0506215
0.0951924
-0.157644
0.0118298
0.041643
0.0157852
0.0333148
-0.0907429
0.103902
-0.108398
0.0434713
-0.00367625
0.0133905
-0.0121534
0.00243909
-0.00134657
-0.00016575
-0.000547104
0.00205943
-0.00289211
-0.00567542
0.00173739
0.00683015
0.0608347
-0.00621361
-0.0184241
-0.036197
-0.056745
0.0282157
0.0285293
-0.0929938
-0.00756656
0.0118821
0.000721711
-0.000567649
-0.00150064
-0.118182
0.0265195
0.00517122
0.0864915
0.00122658
-0.0532257
-0.0102898
0.0622889
0.0456575
0.0290208
-0.101711
0.0270325
0.0385082
-0.0434061
-0.0191306
0.0240285
0.0484497
-0.060076
0.0501345
0.0318285
-0.0564972
0.0496079
-0.0249392
0.0347176
-0.0360266
0.000304114
0.00100495
0.0162384
-0.142237
0.0913698
0.0346283
0.00142385
-0.0617857
-0.00392096
0.0520672
0.000381114
-0.107252
-0.0339368
-0.00866102
0.0068936
0.0357042
-0.0485368
0.0443958
0.0500287
-0.0458877
-0.0423132
0.0819662
-0.039653
0.0104145
-0.102067
0.0482469
-0.0170589
0.00740519
0.0247029
-0.0150492
-0.0879419
0.0935733
0.0361613
-0.0417926
0.0587468
0.0328745
-0.0828389
-0.00878241
-0.0460931
0.141729
0.0041614
-0.0997974
-0.000547204
0.00289895
0.00367709
-0.00602883
0.0537133
-0.072046
0.0830034
-0.0646707
0.00777002
-0.0389654
-0.00826327
0.0394587
-0.0433838
0.0314136
0.103356
-0.0913857
-0.0499879
-0.0264426
0.0528634
0.0235671
-0.00954044
-0.00049508
0.00619791
0.00383761
-0.0112753
0.0241492
-0.0183729
0.0054991
-0.000146632
0.0744485
-0.0743018
0.0148876
-0.0439549
-0.0194696
0.0480371
-0.0343475
-0.000553222
-0.0131364
0.00178504
-0.026723
-0.0212244
0.0461623
0.0345191
-0.034445
-7.4054e-05
0.0611742
-0.041718
0.0643176
-0.0837738
-0.0989742
0.0970725
0.0984322
-3.11967e-06
-0.010823
-0.00177234
0.0125985
0.0494067
-0.000266937
7.54526e-05
0.000267662
-7.61774e-05
-0.000583661
0.0488457
-0.112457
0.0641946
-0.0085465
-0.000689223
0.00500758
0.00422814
0.026886
0.00996073
-0.0368467
0.0012471
-0.000919438
-0.00887417
-0.0318685
-0.0408527
0.0150911
0.0572427
0.00100263
-0.0582453
0.0728457
-0.0441351
-0.0511898
0.0224792
0.00170007
-0.0251914
-0.0207242
0.0693862
0.0430331
-0.0395737
-0.00803604
0.00928002
0.13341
-0.119442
0.0370803
-0.051049
-0.0450176
0.0364873
0.0218873
-0.013357
-0.0526607
0.0523693
0.000291326
-0.0477771
0.0296442
0.0106986
-0.0466941
-0.0108433
0.0468389
-0.00211083
0.161189
-0.161142
0.00206338
0.107658
0.0159358
-0.0160662
0.0507935
0.00856767
-0.0512118
-0.00814933
-0.0145511
0.00471708
0.0107677
-0.00093364
-0.00955749
-0.00543689
0.00470962
0.0102847
0.0660542
-0.0377573
-0.0526241
0.0243271
0.0295405
-0.015246
0.0240674
-0.0383619
0.0267876
-0.093749
0.0896776
-0.0227163
-0.00594537
0.000495007
-0.00910074
-0.094326
0.106888
-0.0228571
0.0102953
-0.011468
0.0481546
0.0140555
-0.0507421
-0.00403304
-0.000760749
0.00320016
0.00159363
0.0839501
-0.00460509
0.0509231
-0.130268
3.4363e-05
-0.000674056
-5.20229e-05
0.000691716
-0.0671998
0.0589352
0.074217
-0.0659524
0.00315718
0.000697363
-0.00217851
-0.00167603
-0.0775718
0.0754132
0.00215857
0.0636389
-0.0601963
-0.00344257
0.0604553
-0.00078564
-0.0596697
-0.0107806
0.123504
-0.000534044
-0.112189
0.00986666
-0.0310753
0.0328405
-0.0237399
-3.5654e-05
-0.0562314
-0.0675171
0.0115238
0.0663613
-0.010368
-0.0133589
-0.00214395
8.53919e-05
-0.000384907
1.18787e-05
0.000287637
0.00122596
-9.33744e-05
-0.000250159
-0.00088243
-0.0634826
0.00788904
-0.00149117
0.0570847
0.000350892
-0.00550138
0.00197326
0.00317723
0.0123145
-0.014757
-6.74409e-05
0.00250994
0.0082474
-0.00673387
0.010801
0.0556078
-0.00954694
-0.0225548
-0.0235061
0.0362062
-0.00533647
-0.036428
0.00555825
0.000105815
0.066783
-0.000274666
-0.0666141
0.00757078
-0.0711694
0.0191459
0.0444527
-0.0431084
-0.0316823
0.0415735
0.0332172
-0.0355985
0.0219618
-0.0913785
0.105015
-0.00100348
0.0153627
-0.00786062
-0.0064986
0.0489922
-0.0588083
0.0473213
-0.0375052
-0.0626724
-0.00678462
-0.00800244
0.00101806
-0.000358517
0.00438614
-0.00504569
-0.0122243
-0.00274576
0.00178621
0.0131838
-0.00824948
-0.00941664
0.0109131
0.00675303
-0.00014786
-0.00223626
0.00146561
0.000918511
-0.000272042
0.000336147
-6.41052e-05
0.00153876
-0.0742713
-0.0277369
0.100469
-0.000150516
-9.67168e-06
-0.00146935
0.00162954
8.94029e-05
-0.000281276
-8.01689e-05
0.00283945
-0.0656977
-5.68882e-05
-7.16527e-05
0.000464688
0.000590497
0.000201401
-0.000369798
-0.0004221
-0.0281398
0.0630791
0.078603
-0.113542
-0.00926886
-0.00219295
0.00729558
0.00416623
-0.0146804
-0.000363523
0.00577506
-0.00540992
0.00551609
0.0133602
-0.0134663
-0.000340319
0.000508282
-0.000224851
-0.0669134
0.0677376
-0.000824257
0.0303231
0.0473187
-0.0601036
-0.0175382
0.0116297
-0.0754153
-0.0214123
0.0851979
-0.0136804
0.00271723
0.00555326
-0.00454555
-0.00647938
-0.00265549
-0.0165741
0.0587326
0.0127895
-0.054948
0.0694505
0.00489759
-0.0542842
-0.0200639
0.000258313
0.000408849
-0.000698876
3.17142e-05
-6.73537e-05
-0.000183562
-0.00267173
-0.00116822
-0.00140284
0.0052428
0.0650902
-0.045928
0.0120504
-0.0312127
-0.000851826
-0.00268945
0.0013869
0.00215438
-0.0175016
0.0105327
-0.00263068
0.00959952
0.00116208
-0.101577
0.101543
-0.00112751
0.00318079
0.000812892
-0.0106628
0.00666911
0.01044
-0.0109395
0.00154886
-0.00104943
0.00992007
0.00406852
-0.0108078
0.0367732
0.0562757
-0.0279586
-0.0272764
0.0548042
0.028191
-0.0557189
0.0277544
-0.0550308
-0.000940265
0.000640225
-0.0329255
0.0124732
-0.0100483
0.0792179
0.0233659
0.00734249
0.0696973
-0.0541869
0.0977778
-0.113288
0.00481562
0.092556
-0.0973716
-0.00698585
-0.00728233
0.0136565
0.000611632
-0.0341746
-0.0869921
0.0275372
0.0936295
0.0218352
0.0615064
-0.0243875
-0.0589541
-0.0235284
0.113237
-0.0529352
-0.0418487
0.0448976
0.0517553
-0.0558412
0.0558114
2.9826e-05
-0.0391312
0.036717
0.00241423
0.0396598
-0.0779661
0.0725336
-0.0342273
0.0677336
-0.0843077
-0.0100393
-0.00812302
0.0111765
0.000714156
0.000617946
-0.000475751
-0.000856351
-0.00582501
-0.0426524
-0.00736383
0.00122888
0.0014965
-0.00264027
-8.51053e-05
-0.057409
0.0518745
0.085532
-0.0799975
0.0368479
-0.0336677
-0.00318019
0.0129873
0.0205975
-0.0140825
-0.0195023
0.00422083
-0.000392161
0.00217871
-0.00600738
-0.0644423
-0.000811165
0.0200733
0.0451801
-0.00295358
0.0066694
0.000505014
0.0389712
-0.109388
0.10474
-0.0343236
0.0460721
0.0133407
-0.0593715
-4.12837e-05
-0.00364695
0.00697548
0.00172099
-0.00504952
0.000162084
0.0606451
-0.0608072
0.0381901
0.00678222
0.0150946
-0.0600669
0.0043399
-0.00734024
0.00260819
-0.184719
0.0283952
0.16387
-0.00754657
0.0399091
-0.0109257
-0.0289834
-0.00126098
-0.00151214
-0.00118238
0.00395549
-0.0421885
0.0464832
0.12528
-0.129574
-0.00192524
0.000690745
-0.0019136
0.00314809
0.0914081
-0.00207919
-0.0432568
0.000508695
-0.00126357
0.00204856
-0.00129369
-0.0191974
-0.116853
0.0160427
0.120008
0.00370284
0.0524542
-0.00407874
-0.0520783
0.0485898
-0.0701596
0.0604541
-0.0388843
0.0319087
-0.0365554
0.0487377
-0.044091
0.00831426
-0.0014689
0.0055756
-0.012421
0.00123617
-0.0443771
0.0533938
-0.053722
-0.0362273
0.0971242
0.017743
-0.0243621
-0.0905051
0.0465181
0.0188764
-0.133525
0.0681305
-0.00191053
-0.00862791
0.00630624
0.0042322
0.027786
-0.0498344
-0.00324872
0.0288218
-0.0265833
0.00737663
-0.00588168
-5.17107e-06
-0.00148978
-0.0863642
0.00263112
0.000246764
0.0709911
-0.148827
0.0775895
-0.027824
-0.0875101
0.0408784
0.0744557
-0.0728984
0.0203595
0.0031926
0.0493463
-0.0431219
0.0290508
0.0102685
-0.0826159
0.0956082
-0.0129923
-0.0209133
-0.00944973
0.117688
-0.0873252
-0.00365878
-0.00380866
0.00612019
0.00134725
-0.0258024
0.0591807
0.0406462
-0.0721682
0.028033
-0.000827162
-0.000403358
-0.00103804
0.00226856
0.0465679
-0.0489892
0.0544885
-0.0375879
-0.0072164
-0.0448307
-0.123396
0.0476638
0.0757321
-0.0429208
-0.0325211
0.0276649
0.00304116
-0.00222427
0.000875817
-0.00169271
0.00293184
-0.00046516
0.00057448
-0.0864747
0.00365789
0.0828168
0.0612597
0.0124563
-0.122042
0.0483263
-0.0711433
0.000600016
0.0705433
0.00128993
-0.00164907
0.00862258
-0.00826344
0.0487296
0.15653
-0.226485
0.0212253
0.00189706
-0.00233401
0.00136503
-0.000928081
-0.0916442
0.0649447
0.0265284
0.000171039
-0.000423246
1.76334e-05
0.0018895
-0.00148389
-0.000636216
0.0083465
-0.0085156
0.000805312
0.00758469
0.00789605
-0.014748
-0.000732766
0.040754
0.0124346
0.00305148
-0.00279723
0.00164282
-0.0985686
0.105343
0.00704016
-0.0138142
0.0124509
-0.0675755
-0.0234978
0.0786224
0.00193112
-0.00442766
0.0876125
-0.085116
-0.0384452
-0.0353773
0.0843483
-0.0105257
-0.0407195
0.0245252
0.0406076
-0.0244134
0.0536024
0.0206861
-0.0721405
-0.00214807
-0.00119924
0.000176449
0.00139339
-0.000370601
-0.123579
-0.043232
0.0397526
0.127059
0.048333
-0.0376345
-0.0319287
-0.0376364
-0.0310302
0.100595
-0.00182375
0.00425616
0.000472065
-0.00290448
-0.0309581
-0.080613
0.0287446
0.0828264
-0.0297013
-0.0284527
0.0205661
-0.000713084
-0.00333493
-0.00163896
0.00308006
-0.0038172
0.0023761
-0.00573289
0.00560664
0.0253341
-0.0774432
-0.0854963
0.137605
-0.000523847
-0.000101773
0.000304432
0.000321188
0.0571508
-0.0603143
0.0480699
-0.0449064
-0.0148988
0.0447775
-0.007924
-0.0219547
0.0869683
-0.0863993
-0.0187434
0.0181744
0.0265893
0.0221709
-0.0634639
0.0147036
-0.127327
0.0739131
0.0183794
0.0350349
-0.00533828
0.00326612
9.15062e-05
0.00198065
-0.00829809
0.00974018
-0.000152155
-0.0134661
-0.00372173
0.0179313
-0.000743463
-0.0615128
-0.00469034
0.0137782
0.0524249
-0.00800734
0.10314
-0.00508999
-0.0900428
0.00887566
-0.047481
0.0808393
-0.042234
-0.00144466
0.00417403
-0.00146461
-0.00126477
-0.0152656
0.000334684
-0.00203708
0.016968
-0.106062
0.00530339
0.0129908
0.0877676
-5.59239e-05
-0.000292759
0.000512604
-0.000163921
0.0372569
0.00803036
0.0270618
-0.00507756
0.0464226
0.052783
-0.094128
-0.00023006
0.00037369
-0.000199554
-0.000503286
0.00219476
-0.00150104
-0.000190426
0.0172051
0.111397
-0.0479098
-0.0806919
-0.000249677
-4.30826e-05
0.000121822
-0.000371498
0.0618042
0.0170392
-0.0922585
0.0134151
-0.157164
0.0860093
0.0772061
-0.00605159
-0.0181465
0.000195871
-0.0515222
0.0694728
0.0248645
-0.0145033
0.0167197
-0.0270809
-0.0664597
-0.0230922
0.0895519
-0.0779875
0.0387125
0.0392749
-0.00177125
-0.000408069
0.000785915
0.0013934
-0.0379057
0.0410309
0.00778549
-0.0109107
0.0464883
-0.0544982
0.00800993
-0.0604001
0.0336098
0.0450428
-0.0182524
0.00453281
-0.00282448
-0.00154487
-0.000163458
-0.003269
-0.00246111
0.00039182
-0.0422108
-0.0417891
0.0471305
0.0142029
0.00261828
-0.0639517
0.00183761
9.76925e-05
-0.00160319
-0.000332111
0.00336454
0.00704855
0.00262287
-0.013036
0.00712275
0.0229216
-0.0410404
0.010996
-0.0190277
-0.0154102
-0.00923941
0.0436774
-0.0749932
-0.0102744
0.0296248
0.0556427
-0.0018399
0.0152098
-0.00829577
-0.00507409
-0.0529398
0.000640106
0.033272
-0.000219965
0.0253551
-0.135686
0.126357
-0.0160266
0.0285994
-0.0345586
-0.0518204
-0.0271119
0.0548664
-0.000456687
0.0408163
0.00375596
-0.0441155
-0.0551223
-0.0599581
0.11508
-0.00324644
-0.00104007
-0.00175554
0.00604206
0.00316125
-0.00479735
0.00171732
-8.1213e-05
0.0369799
-0.00638797
-0.0281925
-0.00239938
-0.00326758
-0.00232924
0.00235037
0.00351012
-0.0107883
0.065969
-0.0586909
0.0761732
-0.000282153
0.0271293
0.00982291
-0.00686284
-0.0300894
0.0586045
-0.000784634
-0.0578198
-0.0529919
0.113755
-0.0284237
0.059686
0.0200926
-0.0513549
-0.0170424
-0.0253753
0.017956
0.0244617
0.0030728
0.00377032
0.000863522
-0.00770664
-0.0342121
-0.0379641
0.0993361
-0.0271598
0.0455201
-0.0368619
-0.00065069
-0.00800748
-0.0485805
0.116301
-0.0521408
-0.0155799
-0.00131697
0.00158539
-7.22048e-05
-0.000196222
-0.000522526
0.0213992
-0.00486334
-0.0160133
0.00307871
0.00382431
0.000286738
-0.00718976
-0.000295796
-4.17675e-05
3.36744e-05
0.000303889
4.01985e-05
-1.56108e-05
-0.000320384
-0.0092425
0.0230378
0.0702788
-0.0840741
0.0800417
-0.0817463
0.00170459
0.000284161
-0.000270485
-1.36759e-05
-0.0127118
0.000975748
0.00231105
-0.00132211
-0.00196469
-0.00818296
-0.00661388
0.00600685
0.00878999
-0.0557565
0.0273328
0.000306632
0.000213029
-0.000784588
0.000264927
0.0334936
0.0552207
-0.0352989
-0.0534153
0.0117502
0.159574
-0.179894
0.00856957
0.0582912
0.0632944
-0.0618997
0.0018869
-0.0136712
-0.00188611
0.0136704
-0.0334027
-0.0301137
0.0635164
0.0311199
-0.0645225
-0.0544546
-0.0450623
-0.0655466
0.165064
0.04969
-0.0554988
0.00580883
-0.0729024
0.134856
-0.0715006
0.0329547
-0.0299834
0.086075
-0.00347562
-0.0690398
-0.0135596
0.0696635
-0.0698889
0.011624
-0.0113986
0.000140437
-0.00623272
0.00715032
-0.00105804
0.000503413
-0.00443276
0.00678575
-0.0028564
-0.000241543
0.000229229
0.000643291
-0.000630978
0.0221858
0.0233747
-0.0337632
-0.0117973
-0.00542144
-0.00488485
0.00620034
0.00410595
-0.010905
0.0320714
-0.0427212
0.0215548
0.00114402
-0.00856742
0.010676
-0.00325258
0.0485013
-0.00415384
-0.0443474
0.038046
0.0357423
-0.126565
0.0527767
-0.0979
0.059983
0.0759631
0.0329815
-0.0997617
-0.0469277
0.107881
-0.0370637
-0.0238898
0.00162459
0.00925068
-0.0124633
0.00158801
0.0271697
-0.00226225
-0.0249075
-0.0305195
0.0435748
-0.00392517
0.0203076
-0.0314734
0.000934731
-0.000202847
0.00110874
-0.00184062
0.0117545
-0.0383378
-0.000496396
0.000165677
0.000319119
1.16002e-05
0.00279803
-0.000423457
0.00109053
-0.0034651
-0.000734706
-0.00259292
-0.0781737
-0.0127707
0.00156913
-0.0119008
0.0231023
0.0201511
-0.0906495
0.0208863
0.049612
-0.00340672
0.0582234
-0.081856
0.0270394
0.00066603
-0.000411713
0.000304405
-0.000558721
0.0791737
0.0125431
0.00227976
-0.0939966
-0.0003134
-0.000770561
0.00115205
-6.80892e-05
0.00500865
-0.000859526
-0.0690436
0.0648945
0.00683086
-0.00118661
-0.00508054
-0.000563705
0.00652691
0.00462275
-0.00370294
-0.00744673
-0.110441
0.096448
-0.087576
0.101569
-0.0540758
0.109119
-0.0550434
0.00231886
-0.0437526
0.00863964
0.0327941
0.00373489
-0.00352272
0.000687127
-0.000899292
0.0492745
-0.00271489
0.0011618
-0.129552
0.00244338
0.0741164
-0.0342623
0.000134403
0.0015011
0.0327266
-0.0266792
-0.00754855
0.0781818
-0.030772
0.0342072
0.00420959
-0.00512934
9.53101e-05
0.000824438
0.0343899
0.0239159
-0.0759905
0.0176846
2.38125e-06
5.80481e-05
-0.000125945
6.55161e-05
-0.000477011
0.00154834
0.00545558
0.00012765
-0.00810859
0.00659033
0.00572785
0.074626
0.0407459
-0.0370557
-0.0783162
-0.13097
0.142131
-0.00941292
-0.00174849
0.0315388
-0.0327147
0.00117592
-0.0369491
0.000119168
0.000388386
-0.00324381
-0.00227392
0.0146515
0.206774
-0.158927
-0.0624984
0.0293253
-0.0609944
-0.0180754
0.0497445
-0.00309745
0.038941
-0.000993522
-0.0852027
0.0472552
-0.0231524
0.0101193
-0.037988
0.0476993
0.046138
-0.0558493
-0.0668195
0.0896116
-0.152216
0.129424
-0.000203574
4.99711e-05
-0.00145354
0.00160714
0.000185506
0.00230997
-0.000620226
-0.00187525
0.0431903
-0.0143574
0.0379958
-0.0668287
-0.0035701
0.000345691
0.00344405
-0.000219645
-0.0117925
0.0104859
-0.0366813
0.0122323
-0.0461959
0.00594005
-0.00326835
0.0186008
-0.0212725
-0.138076
0.0189788
0.130049
-0.010952
0.0309186
-0.0214571
-0.0126751
0.00321363
0.0344696
-0.0529316
0.00666945
0.00435782
0.0077443
0.0522089
-0.064311
0.0247277
-0.00711225
-0.0251607
0.00754518
-0.0795323
-0.00835764
0.0147713
0.00124828
-0.00111734
5.45667e-05
-0.000308108
0.0029655
0.00226125
-0.00491864
0.0184377
-0.0321303
0.0384203
0.0179812
-0.143328
-0.0230083
0.148355
-0.113777
-0.0150234
0.0263357
0.102465
0.0571042
-0.0347364
0.0283073
-0.0506752
0.112226
-0.00613447
0.00312274
-0.109214
-0.0169813
-0.0370876
-0.0042465
-0.0164245
0.0083086
0.0123624
-0.00130535
0.000451435
-1.07719e-05
0.000864687
0.0153527
-0.0778958
0.0625431
0.108697
-0.00705024
-0.112427
-0.0263902
0.055806
-0.0463971
0.0396627
-0.122232
0.0150728
0.0674961
-0.00396172
-0.0122043
-0.0269036
0.0430696
0.00375437
0.0504082
0.0861461
-0.134916
-0.00163811
0.049229
-0.0829723
0.0890533
-0.05531
-0.0959566
0.0959742
-0.00743318
0.00741553
0.00271464
0.00444043
-0.0951272
0.0879721
-0.00177194
0.00362119
0.0061196
-0.00796885
0.00025087
-0.000965001
-0.000289556
0.00100369
0.0890842
0.000663422
-0.0173203
-0.0724273
-0.000756951
0.000744631
2.94023e-05
-1.70826e-05
0.000704506
0.00329006
-0.00229116
-0.0017034
-0.00181992
-0.000680874