/*--------------------------------*- C++ -*----------------------------------*\
| =========                 |                                                 |
| \\      /  F ield         | OpenFOAM: The Open Source CFD Toolbox           |
|  \\    /   O peration     | Version:  2506                                  |
|   \\  /    A nd           | Website:  www.openfoam.com                      |
|    \\/     M anipulation  |                                                 |
\*---------------------------------------------------------------------------*/
FoamFile
{
    version     2.0;
    format      ascii;
    arch        "LSB;label=32;scalar=64";
    class       volVectorField;
    location    "0.0785492";
    object      U;
}
// * * * * * * * * * * * * * * * * * * * * * * * * * * * * * * * * * * * * * //

dimensions      [0 1 -1 0 0 0 0];

internalField   nonuniform List<vector> 
47425
(
(10.2987 0.222544 0.00480203)
(10.1281 -0.251462 -0.00419652)
(9.99239 0.00326282 -0.0106958)
(11.6215 -0.535414 -0.245037)
(12.6797 0.343231 0.684884)
(10.0275 0.00573179 -0.00112996)
(12.5839 0.180049 0.678442)
(10.0192 0.00685497 0.000813616)
(10.0046 0.00864456 0.00581678)
(1.18228 3.5194 -2.11852)
(9.99583 0.00919374 -0.00109625)
(9.9904 0.0689442 -0.00817466)
(12.3769 0.328774 0.219057)
(10.0007 0.00355223 -0.00875206)
(11.2273 0.0367204 -0.1544)
(10.1039 -0.217489 -4.63262e-05)
(10.014 0.00183635 -0.00688424)
(8.80251 -0.537743 -1.52285)
(8.69593 1.32828 -5.14834)
(13.7319 -0.53054 -1.14047)
(10.9534 -0.693538 -0.625297)
(9.79693 -0.0422503 -0.0231873)
(9.95548 0.0180995 -0.00524579)
(9.94584 0.0121293 0.0142037)
(9.90259 -0.0833228 -0.00353013)
(10.0164 0.0378517 0.00797692)
(9.99604 0.02059 -0.00415883)
(11.5341 -0.434546 -8.96075)
(10.0035 0.0162257 -0.00423213)
(10.0099 0.0231632 0.0189957)
(9.68049 0.758261 0.00357576)
(10.0457 0.0880746 -0.00233802)
(10.0017 0.00648874 0.00602431)
(9.98761 0.0108373 0.0116747)
(10.0134 0.00392562 0.00565993)
(9.97295 -0.00303084 0.00798293)
(9.73424 -0.0266171 -0.0931333)
(10.0015 0.0164815 0.00773594)
(10.5529 0.451636 -0.0240031)
(10.1181 0.0697672 0.013564)
(9.85888 0.20411 -0.0103585)
(9.29112 0.133066 -0.722753)
(5.62642 -2.75741 -0.321595)
(9.98335 0.0133494 0.0052656)
(0.189606 -1.99119 -0.174093)
(9.9667 0.0936829 -0.0015933)
(9.95981 -0.00419098 -0.014623)
(9.99524 0.0294109 0.00581507)
(10.129 -0.0919153 -0.000146466)
(10.0689 0.00525118 -0.00895881)
(2.157 -0.649213 -5.90109)
(9.04136 1.32797 1.33863)
(10.053 -0.0133358 0.00700086)
(6.29229 -4.66162 1.42663)
(10.0085 0.064157 -0.00593169)
(10.2092 0.0182016 0.0150171)
(10.3034 -0.191032 0.0282848)
(10.0036 0.00369323 0.0211909)
(11.9709 1.37249 1.54176)
(9.99489 0.0246407 0.00902733)
(5.26638 -4.59358 0.893654)
(5.44213 -0.78838 2.19771)
(3.03327 -2.04666 0.16882)
(9.03041 -1.19076 -0.0993157)
(10.0075 0.010696 -0.00683478)
(10.8362 -0.382233 -0.0151663)
(9.98673 -0.01112 -0.00670737)
(10.8141 0.305302 0.648719)
(7.41381 -3.50555 1.82646)
(8.97481 0.570887 0.292704)
(10.8211 -0.673764 0.12998)
(10.0648 0.0183959 -0.00015099)
(11.033 -0.179524 -0.0250752)
(10.8708 0.308868 -0.645387)
(3.12298 1.00506 -0.10823)
(9.99892 -0.00379522 0.000737918)
(3.12703 -1.83992 0.784061)
(9.97027 -0.0175433 0.00741396)
(5.59517 -2.00505 1.20729)
(12.0069 -0.138504 1.47567)
(3.61479 0.655944 0.0152673)
(10.2242 0.34927 -0.0102839)
(9.18199 0.149376 -0.348916)
(10.0137 0.0124952 -0.0064364)
(9.51707 -0.00179236 0.0580188)
(10.3363 -0.0629085 0.0174334)
(10.8827 -0.102448 -0.0490968)
(10.1926 0.13675 -0.000823604)
(11.1282 -0.155618 -1.5806)
(11.087 -0.774251 1.98662)
(9.75189 0.448502 -0.0516744)
(10.7297 -0.00701389 -0.0374987)
(10.0516 -0.00629748 0.00887361)
(10.1918 -0.0537022 0.00506074)
(10.1471 -0.0517124 0.0146903)
(10.1095 -0.0111442 -0.00258793)
(10.0469 -0.0110527 -0.00443057)
(10.428 -0.320719 -0.00572325)
(10.2462 -0.0456529 0.0095565)
(10.0442 0.0178237 0.0233475)
(10.0202 0.0373531 0.00289392)
(8.72928 0.128056 -4.15834)
(10.3049 0.184973 -0.0094269)
(5.3214 1.94134 -0.817574)
(10.3108 0.168171 -0.031061)
(10.798 -0.759395 0.0086906)
(10.1829 0.313978 0.07592)
(10.2223 -0.0824724 0.00246947)
(8.61684 -0.145399 -0.501747)
(9.96273 0.0810896 -0.00527829)
(-0.18769 -0.867056 -0.578141)
(10.0014 -0.0799606 -0.00161627)
(10.7178 -0.959032 0.0399381)
(10.3752 -0.0192729 -0.0138684)
(11.054 -0.428973 0.0145306)
(1.79505 -4.14312 -5.94089)
(11.0533 -0.379934 0.00459032)
(4.06442 0.0384396 -4.42566)
(10.3887 0.162539 0.00105659)
(11.2427 0.394095 0.400706)
(10.4624 -0.0585063 -0.00845832)
(10.0002 0.00374182 0.0056598)
(9.99855 0.0530879 -0.00513394)
(11.875 0.774212 -0.766741)
(10.0591 -0.043931 -0.00249822)
(11.0046 -0.805069 0.0255049)
(10.2918 -0.103644 0.000988266)
(10.0073 0.00386744 -0.00694188)
(9.95344 0.0101661 0.00866264)
(10.0111 0.0296331 -0.0070693)
(9.19248 -0.305497 0.287584)
(10.7164 0.379053 -0.0455355)
(4.30203 0.0490438 0.482232)
(10.3972 -0.548222 0.0242157)
(9.98188 -0.0327263 -0.836209)
(12.194 -0.534338 -0.950132)
(10.8797 0.913158 0.25282)
(11.0213 -0.856417 0.154862)
(10.1509 -0.0869255 -0.00795117)
(11.1675 -0.0459585 -0.060114)
(9.98179 0.00672257 0.00263996)
(11.9573 0.290277 0.293592)
(10.5165 0.0420895 -0.0331285)
(10.7272 -1.22607 0.0871182)
(10.1866 0.228316 -0.0148243)
(10.0046 0.00525817 0.00573819)
(12.5183 0.214332 0.715025)
(10.0113 -0.0300902 0.00689232)
(10.4664 0.0232126 -0.0130941)
(9.97593 -0.0173887 0.00656138)
(10.6397 -1.24058 -0.0575346)
(2.92489 -0.392629 -6.9018)
(10.0071 0.0148006 -0.0102636)
(5.58906 0.100833 -11.4615)
(8.96061 -1.18213 -0.770358)
(9.97777 0.100967 0.0149284)
(11.0427 0.486485 -1.71384)
(7.34985 -3.95754 -2.66589)
(10.1693 -0.0714037 0.0130304)
(9.98412 -0.0043202 -0.00408833)
(11.319 -0.245707 -0.00587957)
(10.0235 0.064227 0.0118038)
(10.0185 0.0111921 0.00662914)
(10.1589 0.310024 -0.0173494)
(12.0205 0.200358 -0.546228)
(-0.652041 -1.70472 -2.07592)
(10.015 -0.0292178 -0.000494704)
(3.56759 0.851499 -0.124538)
(9.94362 -0.00603125 0.0265215)
(12.1608 0.739482 -4.35566)
(4.58444 0.652871 -0.265216)
(9.9858 -0.00341122 0.00409399)
(10.0006 0.0236905 -0.00353685)
(9.43811 -0.992846 -0.672583)
(10.3255 -0.0277113 0.0228383)
(9.28889 -3.05558 -1.41681)
(2.76925 0.968164 -7.70918)
(10.0047 0.0218804 -0.00611576)
(10.0291 0.0117244 9.21818e-05)
(10.0502 0.00758184 0.00160269)
(2.61432 0.428633 -11.0392)
(10.0786 -0.150287 0.0261231)
(10.0175 0.0136281 -0.00452871)
(10.0238 0.00754404 0.0124837)
(10.0374 7.00889e-05 -0.000290698)
(10.0264 0.0241196 0.00434487)
(10.2151 0.0860846 0.00471703)
(5.65407 -0.537351 -0.680719)
(9.82809 0.00663699 -0.00832392)
(10.1749 0.198101 0.0721879)
(10.0008 -0.0102423 -0.00365131)
(9.9862 0.00388731 0.000353376)
(12.2393 -0.791512 -0.646578)
(9.99698 0.001599 0.00374558)
(10.0226 0.00429977 0.0246073)
(11.227 0.0203652 -0.0427813)
(10.0017 0.000969722 0.00751192)
(10.0251 -0.0115538 0.0107142)
(11.3947 0.101644 -0.0474139)
(10.3956 -0.249489 0.0755182)
(9.98511 0.0117343 0.00441223)
(10.4604 -0.0517592 0.0116698)
(9.06131 0.350302 -0.28271)
(11.2053 -0.136119 -0.0405945)
(10.3285 -1.47761 -0.982616)
(10.6868 -0.0144487 -0.044331)
(10.001 -0.0113881 0.010886)
(11.1745 -0.0372883 -0.0404028)
(9.9976 0.0890584 -0.0147855)
(10.0026 0.0131726 -0.00302751)
(10.3747 -0.174514 0.000183459)
(11.1791 0.128734 -0.00973104)
(10.0067 0.0246715 -0.000684113)
(9.95248 -0.0236436 0.019291)
(10.7619 -0.0575992 0.0180838)
(11.393 0.18351 -0.158449)
(10.834 0.0292986 -0.0643052)
(11.2898 0.195028 1.70893)
(8.68876 -1.29719 -0.694936)
(9.9443 -0.0414459 0.0100695)
(11.8547 -0.526783 1.43327)
(11.2549 0.190004 0.178535)
(9.95525 -1.09074 -1.0471)
(10.9191 0.18232 -0.0247059)
(10.6678 -0.00676262 -0.0309216)
(11.9566 -0.760901 1.33867)
(10.0339 0.00112295 0.00880237)
(11.3099 0.203286 -0.0613428)
(11.52 0.211313 0.0458642)
(12.0273 -0.0946198 -0.314712)
(10.8307 0.0303788 -0.0613168)
(10.0001 -0.00918892 -0.00495081)
(10.5758 -0.088901 -0.00821319)
(10.001 -0.00444762 -0.00049535)
(9.78363 -0.00607359 -0.0045346)
(10.0081 0.265865 0.0115698)
(11.8029 -0.103515 1.51191)
(9.9775 0.032401 0.00201219)
(12.1298 -0.0241352 1.34412)
(9.7757 0.00097873 -0.0464606)
(9.86555 -0.0126947 -0.00797773)
(10.0049 0.00935165 0.0135021)
(10.0783 -0.0258797 0.000660736)
(11.7431 0.837634 0.066268)
(10.398 0.462399 0.00329701)
(10.0077 -0.00283699 0.0119249)
(10.4068 -0.0789579 -0.00714029)
(10.0107 -0.000180144 0.00290583)
(10.0252 -0.0179823 0.00665175)
(9.96405 0.000145138 -0.0131862)
(9.9944 0.0761149 0.0255635)
(11.9944 -0.453068 1.48646)
(9.9729 -0.00107654 0.00850405)
(10.0033 0.00413632 0.00568858)
(9.91882 0.00437168 0.00824065)
(9.99923 -0.00304053 -0.00877432)
(9.85323 0.0637907 -0.0313988)
(9.73691 0.0177423 0.0102541)
(10.4543 -0.706163 0.121706)
(10.0098 0.000748198 -0.00695272)
(9.74056 0.0271911 0.00850141)
(9.99873 0.0259615 -0.000596989)
(10.2258 0.0532561 -0.00857112)
(10.1254 0.0116525 0.0053267)
(11.969 0.0257972 0.819358)
(10.4553 -0.475044 -0.13941)
(10.0386 -1.64035e-05 -0.00551196)
(12.0467 0.0528304 0.643322)
(10.0213 0.00381009 0.000117882)
(10.2334 0.0911052 -0.00578368)
(10.1919 0.054606 2.57704e-06)
(12.221 0.111926 1.11947)
(11.6876 0.0926064 1.36318)
(10.1783 -0.166685 -0.0228747)
(12.0845 -0.191472 1.48983)
(10.0554 0.00348902 0.00225765)
(12.1559 -0.0297839 1.31736)
(6.62228 3.34712 2.16091)
(11.6659 -0.0295807 1.44116)
(5.93474 1.27711 -5.28315)
(4.61372 -4.7756 0.78555)
(10.2746 0.187465 0.00757842)
(3.4979 -4.39595 0.0334969)
(9.87588 -0.0109919 0.01419)
(9.9975 -0.00245683 0.0120485)
(11.3503 -0.166899 0.0103862)
(9.90313 -0.00571471 0.0111228)
(9.95591 0.00358084 -0.0120722)
(9.80475 -0.212736 -0.00476639)
(11.0868 -0.505632 -0.136212)
(1.38186 1.73442 -3.7121)
(9.21921 0.826004 -0.0218221)
(10.0029 -0.00164916 -0.00218492)
(10.0158 -0.00519209 -0.0207922)
(9.99479 0.00336115 -0.01018)
(10.1756 0.388285 0.421534)
(11.662 0.924731 0.240029)
(10.2028 -0.712152 0.0867411)
(10.0044 -0.13578 0.00677936)
(11.9628 -0.143242 0.0660983)
(10.1579 0.167623 0.0357688)
(10.0828 0.0360266 0.00477576)
(9.95702 -0.0167107 0.00211252)
(10.0193 -0.00148161 -0.0125315)
(10.1184 4.14524 -0.569617)
(5.765 1.7769 -0.535428)
(1.50714 1.21325 -6.39239)
(10.0401 -0.00126288 -0.00359066)
(10.0947 -0.0369764 0.0120208)
(10.0438 -0.640023 -0.0750418)
(10.1752 -0.500991 -0.156825)
(1.25776 -0.778386 -5.88803)
(9.97936 -3.3986e-05 -0.0141197)
(9.95058 8.82947e-05 -0.0153361)
(10.8688 2.27023 0.675126)
(10.2731 -0.142819 0.0212007)
(9.85604 0.00296649 0.00130026)
(9.8152 -0.000558667 0.00978824)
(9.9035 0.00154118 0.00531344)
(12.37 2.54629 -1.06096)
(11.2907 1.97201 0.585617)
(10.0464 0.192898 -0.00994989)
(10.1026 0.137304 -0.00651024)
(10.0234 -0.00643615 0.00740726)
(10.3146 -0.0363006 0.00822688)
(10.0491 0.00108369 0.00357856)
(10.0785 0.241434 -0.000975798)
(10.1478 0.0492076 0.00845371)
(10.0475 -0.0147612 -0.00900935)
(9.98215 -0.0142318 0.00505145)
(11.5305 -0.0727235 0.247252)
(9.01451 0.38258 -0.37914)
(10.6239 -0.731958 -1.39639)
(10.002 0.0132507 -0.00647015)
(9.96587 -0.00742503 0.00732317)
(10.0409 0.00919981 0.0105989)
(9.18957 0.736279 -0.402817)
(9.97765 0.104647 -0.000605865)
(10.0279 0.0199812 -0.000511827)
(10.0238 -0.0267645 -0.011737)
(10.0065 0.258688 -0.0502393)
(10.009 0.287165 -0.0522847)
(10.1483 0.107124 0.0176844)
(9.94001 0.270242 -0.0388889)
(10.0472 -0.0155785 -0.0085779)
(10.0462 0.00770092 0.00386238)
(9.99073 0.00153568 0.0161902)
(9.65762 0.462907 -0.202574)
(9.95219 0.000315703 -0.00672244)
(9.95265 -0.0228091 0.00202507)
(9.99744 0.235975 -0.0457711)
(10.4261 -0.473522 -0.08928)
(10.0733 0.251858 -0.0250155)
(9.95339 0.202685 -0.0282044)
(10.0055 0.192651 -0.0399673)
(11.1921 -1.40066 -0.24661)
(9.94446 0.0047257 -0.00158666)
(9.19573 0.248751 0.0486907)
(9.97779 0.153226 -0.0195643)
(9.99535 0.0221848 -0.00815951)
(9.48995 0.320447 1.92494)
(11.557 0.0463904 -0.483004)
(10.1154 -0.0393069 0.00641098)
(9.93188 0.00214775 -0.00325517)
(10.3617 -0.444206 -0.0180307)
(10.8152 0.455272 -0.0849078)
(9.78697 -0.000298365 -0.00849805)
(10.0111 -0.00645488 -0.00883211)
(9.9891 -0.136877 0.00748632)
(10.245 0.75596 -0.134202)
(9.82354 -0.00427425 -0.00728918)
(-0.741617 -2.06503 -0.345995)
(10.7757 -0.105774 0.0163655)
(10.0515 0.991976 -0.11561)
(9.97932 -0.00181858 0.00747782)
(10.0441 0.876359 -0.0910848)
(10.9955 0.23344 -0.57663)
(10.0116 -0.00208219 -0.00101425)
(10.0034 0.00578418 0.00430223)
(9.7642 -0.0242607 -0.0756272)
(10.0113 0.00322327 0.00457063)
(10.0651 0.888261 -0.141235)
(10.1237 -0.111331 -0.000628794)
(10.0057 0.0237881 0.00657387)
(9.96346 -0.0410784 -0.00423094)
(10.002 0.0181675 0.00600253)
(9.97873 -0.01257 0.00614758)
(10.2323 0.179272 -0.010884)
(10.0008 0.00655398 0.0084512)
(9.97693 0.0220425 0.00757879)
(10.5742 0.938362 -0.352848)
(10.3675 1.14623 -0.405963)
(9.96354 -0.0119452 0.00143207)
(10.5098 -0.547432 0.00365675)
(9.97932 -0.00883834 0.0139664)
(10.4996 0.88027 -0.310273)
(9.95872 -0.0703348 0.00273021)
(9.98015 -0.00255649 -0.00161063)
(12.2298 0.618739 -0.463172)
(10.0455 0.00601796 -0.0109681)
(10.7242 0.000579333 1.2051)
(10.0699 0.00119964 0.00112591)
(9.65746 1.48817 -2.28981)
(9.9365 0.00011803 -0.00679634)
(10.7356 0.14401 0.00885733)
(9.94514 0.000442384 -0.0165346)
(10.0273 0.0231358 -0.00921906)
(9.81856 0.00718549 0.00156144)
(10.0391 0.00641777 0.00656286)
(9.97544 0.00153462 -0.0158993)
(10.3656 1.02636 -0.312656)
(1.06835 -1.7103 0.741621)
(2.04382 -0.714519 -2.62238)
(10.095 0.0815281 0.00310103)
(10.3779 1.54369 -0.962242)
(10.7688 0.769202 -0.35128)
(10.8708 0.725239 -0.340507)
(9.98671 -0.0104349 0.0233193)
(9.99295 0.00489653 0.00346416)
(9.96142 0.0188931 0.0109299)
(9.8648 0.00658049 -0.00136032)
(9.9561 0.00237768 0.00179333)
(10.1729 -0.254314 0.00973714)
(10.8829 0.664287 -0.233384)
(9.945 -0.0192199 0.00107414)
(10.0405 0.0107767 0.00684824)
(11.5944 -1.12376 0.0638381)
(11.6111 0.534159 -0.246886)
(11.2364 0.605457 -0.197221)
(8.10143 -1.33188 -5.2106)
(-0.0236133 3.4829 0.549122)
(10.7089 -0.318205 0.0198991)
(7.43957 -0.984286 -5.75541)
(-0.0814564 3.32854 0.779935)
(9.81349 -0.232244 -0.0140658)
(-0.130343 3.37259 0.700307)
(9.42702 -0.506194 1.00456)
(10.0075 -0.06647 0.01563)
(11.124 0.673896 -0.367863)
(11.0686 0.732135 -0.395461)
(11.3695 0.632613 -0.361017)
(-0.920946 2.47341 0.976618)
(10.2508 0.135883 0.00614939)
(10.014 0.0319249 -0.00203207)
(10.0034 -0.0120839 -0.00780799)
(11.4448 0.666728 -0.476968)
(11.3127 0.711431 -0.542332)
(10.1164 0.0224337 0.0191308)
(10.1422 0.136151 0.0310875)
(9.68827 3.16856 1.87163)
(-0.802391 2.50724 0.988903)
(13.0553 -0.550072 -3.19813)
(10.0064 -0.0145328 0.00824894)
(8.83646 -0.762229 -3.37257)
(10.3551 0.558591 1.21733)
(10.0058 -0.0819942 0.00474774)
(11.0335 0.491242 -0.0618821)
(12.1693 0.226425 0.231808)
(11.0121 0.401182 -0.0515609)
(9.99478 -0.0181704 0.00491734)
(9.99856 -0.00486324 0.00700551)
(9.98288 -0.00670315 0.000684817)
(10.4681 0.429115 -0.0190392)
(9.99928 0.00185109 -0.000425621)
(9.99019 -0.0161982 0.0237347)
(10.155 0.0735063 -0.0146742)
(9.95415 -0.00260019 -0.0187058)
(11.2066 0.273284 -0.0745863)
(10.0136 -0.0187906 -0.0180611)
(9.97279 0.0262698 -0.00127241)
(9.99613 -0.0197575 0.00179612)
(10.0055 -0.00730744 0.00880122)
(9.96272 -0.00167386 0.00469299)
(10.3914 0.348085 -0.017773)
(10.0986 0.0507993 -7.79386e-06)
(10.108 0.0179787 0.0282566)
(11.1157 0.278625 -0.0652174)
(8.62936 3.52834 1.47204)
(9.97268 -0.00565741 -0.0011671)
(12.0495 1.53355 -1.56081)
(9.99706 -0.00835755 -0.00265429)
(11.0363 -0.000885745 -0.0448547)
(7.36267 -0.63009 2.42833)
(9.77689 1.46275 -0.654363)
(10.0144 0.0307505 -0.000840228)
(9.84515 1.54343 -0.729245)
(10.0079 0.0258099 0.00725128)
(10.0332 -0.0146094 -0.00894107)
(10.098 1.32716 -0.95783)
(9.984 -0.00559236 0.01447)
(10.7942 -0.239638 0.00628352)
(9.96911 1.22351 -0.675365)
(10.331 -0.0835299 0.0198238)
(10.6543 0.0979577 -0.285274)
(8.26276 0.338812 -4.22136)
(10.0988 -0.0455749 0.0168728)
(9.61789 1.92416 -0.683803)
(10.0497 -0.0193154 1.90756e-05)
(9.0355 2.05118 -1.10988)
(10.1505 -0.153583 0.0392423)
(10.0132 -0.00688582 0.00807546)
(9.98784 0.0233076 0.0036727)
(9.99468 0.00959855 -0.0176304)
(10.6859 1.12396 0.837648)
(9.96311 0.00765269 -0.0207415)
(9.99975 0.00851254 -0.0223401)
(10.0224 -0.0348806 0.0112909)
(9.93375 0.117685 0.0412697)
(11.151 0.724444 -0.0241571)
(10.0184 0.00483899 0.00110925)
(10.0054 0.00609627 0.000120408)
(8.63153 0.330813 -0.653323)
(9.98308 -0.0041937 -0.00323305)
(9.80021 0.147781 -0.0195115)
(10.1172 -0.204584 0.0580231)
(10.082 0.0398984 -0.00830531)
(10.0562 -0.00390541 0.00153885)
(9.94974 0.0154484 0.00825914)
(10.0935 0.0336165 -0.00762752)
(10.3811 1.36443 -1.1181)
(10.0034 0.00994506 0.0069001)
(9.98897 0.00450453 0.0028596)
(3.03128 -0.579379 -5.91463)
(9.97344 -0.00930213 0.00952325)
(10.0046 -0.012171 0.00373669)
(9.97707 0.134759 -0.0185169)
(10.0042 0.0111144 0.00694469)
(12.6487 1.41031 -0.92006)
(12.7637 1.11278 -0.695359)
(9.96526 -0.00553582 0.00197174)
(9.88562 -0.127482 0.00150179)
(9.88736 0.029029 0.0213959)
(11.6685 0.166978 1.249)
(10.05 0.0613826 -0.00406379)
(12.7922 1.2455 -0.768685)
(9.99943 0.00599375 -0.00319463)
(-1.91139 -0.413132 1.19704)
(8.16229 -0.545638 -0.754882)
(9.12526 -0.898529 1.75998)
(10.0063 0.0149753 0.0175753)
(12.7198 1.19355 -0.714763)
(10.0596 0.015718 -0.00273565)
(10.1881 0.124568 0.0308957)
(9.98489 0.0020151 -0.0234639)
(9.40183 0.174935 0.0101824)
(10.0403 -0.000863397 0.00979444)
(10.0134 0.0258979 -0.0118483)
(6.09373 -1.4065 -0.864101)
(9.98991 -6.77379e-05 -0.00836606)
(9.92752 0.010449 0.00476046)
(10.016 0.00788125 0.0241973)
(12.5199 1.55889 -0.828327)
(10.0612 0.0271941 0.00253625)
(10.0044 -0.0165977 0.00459306)
(12.3667 1.47901 -0.855646)
(12.3096 0.988779 -0.388374)
(9.9775 -0.0115508 0.0112983)
(10.0493 -0.0119548 -0.0044502)
(-0.140216 1.89642 0.421902)
(10.0427 0.011288 -0.00103243)
(10.7797 -0.403559 0.101013)
(10.0121 0.000251212 -0.010072)
(10.0443 0.00953103 0.0315468)
(10.0493 -0.0226809 -0.00108406)
(11.9441 1.10442 -0.44594)
(11.5175 0.304032 1.42344)
(9.1979 0.734792 0.752477)
(9.8033 0.134648 0.10278)
(10.0645 -0.0944735 0.0191811)
(10.0279 0.00434078 -0.00465292)
(12.6159 -0.516802 -0.268762)
(9.31227 0.252638 -0.464708)
(9.68477 0.0678094 -0.0944783)
(-0.0446359 1.74031 0.27836)
(10.007 -0.0141308 -0.00496479)
(10.0418 0.00689706 -0.015041)
(-0.254503 1.65013 0.39289)
(12.1498 1.70613 -1.29018)
(9.90453 0.0795855 -0.00965582)
(0.0188831 1.85363 0.310808)
(0.0197531 1.87724 0.407243)
(10.0061 0.00409285 -0.00731259)
(9.99751 0.0145234 0.00169081)
(10.0205 -0.00387195 -0.00577674)
(9.59629 -0.343935 -0.0151836)
(9.99761 0.00359148 -0.00728155)
(9.96776 -0.0175816 0.000594544)
(10.2333 -0.173476 -0.454585)
(10.0263 0.275925 0.000855213)
(9.93674 0.00926282 0.000160898)
(10.0346 0.0164963 0.00681675)
(12.5587 1.37437 -0.401921)
(11.8514 1.37667 -0.44353)
(9.96938 0.0102697 -0.00032296)
(10.5089 0.38463 -0.0304094)
(-3.48199 -2.20016 -0.0888953)
(-2.24512 -3.23477 1.70786)
(10.9046 0.426614 -0.119886)
(9.93251 0.000356682 -0.00193549)
(10.269 -0.132218 0.171246)
(11.0485 -0.091356 -0.8002)
(9.858 -0.00280213 0.00520927)
(9.85845 -0.00986753 0.012109)
(10.0509 -0.0367834 0.00113081)
(10.3466 0.144662 0.00617577)
(9.97967 -0.0131949 0.00682421)
(10.9215 0.311761 0.323558)
(9.99936 0.00318247 0.000168924)
(13.1565 0.787593 -0.722697)
(10.3545 1.54814 -1.21655)
(10.784 0.409155 -0.0677043)
(13.1761 0.972421 -1.06577)
(10.0658 0.0340204 0.00191811)
(9.99621 0.0026274 0.00803378)
(10.3619 0.798059 0.133403)
(10.167 -0.0966276 0.0322578)
(10.0143 0.00564158 0.00506023)
(10.004 0.00727152 -0.00319826)
(11.2425 0.430065 -0.594032)
(7.94192 -0.79325 -1.53722)
(10.0175 -0.00478457 -0.00848222)
(11.0477 0.135966 -0.020199)
(9.96314 0.282145 -0.00808175)
(11.1329 -5.24536 -2.55294)
(10.4086 -0.907164 0.84455)
(11.9295 0.0508829 0.942306)
(6.58172 0.217071 0.253869)
(6.35077 0.186051 0.0974713)
(10.0534 0.0186547 -0.000863793)
(9.96975 0.330044 -0.0777142)
(4.37773 0.0782725 -0.199818)
(9.96871 0.0102686 -0.00193899)
(10.0442 -1.74878 -3.61628)
(8.03906 0.0578413 1.64707)
(9.98432 0.00148064 -0.00220926)
(10.0176 0.550808 0.329858)
(10.0213 0.00873527 -0.0146422)
(10.0366 -0.00170439 0.0169624)
(10.017 0.00197086 -0.000814141)
(13.405 0.582944 -0.216948)
(9.97652 0.0102322 -0.00390462)
(9.98474 0.00425042 -0.00131306)
(10.0576 -0.0307326 -0.0116895)
(9.81501 0.000483033 -0.010075)
(10.0588 -0.0125365 0.0261345)
(9.97841 0.00205651 -0.00976644)
(10.0492 0.0207928 0.00487798)
(9.86445 -0.06073 0.00616506)
(10.9695 1.19713 0.691769)
(9.22945 -0.947043 -2.42931)
(12.2928 3.7653 1.90629)
(10.7642 0.568849 0.0215567)
(9.6121 1.48997 1.2752)
(9.99988 -0.000659407 0.000589698)
(9.26878 -1.00659 0.0512059)
(9.9736 0.012594 -0.000975719)
(10.0004 0.00216679 -0.0106884)
(10.003 0.00378984 -0.00820492)
(9.99973 0.00118217 -0.00742044)
(9.98453 0.01831 -0.00562099)
(9.20198 0.448536 -0.919182)
(11.1058 0.809414 0.211626)
(9.98639 0.0138768 -0.00536091)
(10.2193 -0.582848 0.0519817)
(11.2001 1.66578 2.00045)
(9.98399 0.00183433 -0.00183025)
(1.98217 0.696457 0.586402)
(13.3286 -1.01059 -3.13612)
(9.96046 -0.0162967 -0.0026122)
(9.31637 -0.560524 -0.00209725)
(10.47 0.0209199 0.0411688)
(10.0285 -0.0105884 -0.0055074)
(2.70773 1.20555 0.531934)
(10.0002 -0.0157138 -0.00238564)
(5.66414 -1.64012 -0.155192)
(9.97292 -0.00201141 0.00554677)
(11.9336 0.0266114 1.13639)
(12.188 0.403596 -0.0637917)
(9.9569 -0.0189913 0.00123136)
(9.90905 -0.00764469 -0.00632908)
(10.1775 0.621871 0.03767)
(8.65763 -0.633728 -2.35795)
(9.92464 0.00358011 0.0105675)
(10.0298 -0.000679226 -0.00164371)
(10.3783 -0.00806225 -0.00250417)
(12.5104 -0.0673311 0.660877)
(10.0012 0.00376311 0.0021123)
(12.4389 0.323768 0.217336)
(10.5202 -0.016046 -0.0191584)
(0.123728 -0.107274 -0.637298)
(12.1374 0.324423 0.0505487)
(10.4503 -0.0178795 -0.0093742)
(12.2701 0.321875 0.160082)
(10.0006 -0.00350308 -0.00362024)
(10.122 -0.160256 0.00366225)
(10.5335 0.428703 0.0164713)
(10.5021 -0.0575961 -0.0164344)
(12.4466 0.404859 0.035333)
(9.999 -0.0221565 -0.0001137)
(10.068 -0.229276 -0.0250939)
(12.2963 0.393541 -0.00140696)
(9.95464 -0.0392515 0.00198824)
(10.5386 -0.0563661 -0.0142387)
(9.98325 -0.0250838 -0.0110333)
(10.0401 -0.0158237 0.0169825)
(6.9063 0.382608 -5.2429)
(6.73279 -0.129085 -5.8459)
(9.66292 0.0897785 0.35231)
(8.86858 0.401322 -4.28146)
(9.99199 -0.0255019 -0.0136102)
(9.95665 -0.0230604 -0.00827115)
(10.8714 0.661442 -0.278649)
(10.5235 -0.177245 0.0165373)
(7.85405 0.0957485 0.964778)
(10.0138 -0.0316595 -0.0113479)
(10.0723 0.0577557 -0.0123775)
(9.99438 -0.0225985 -0.00198142)
(10.0222 0.0698633 0.0144412)
(5.29278 0.235862 -6.50398)
(3.75642 -1.41599 1.70328)
(9.98229 -0.025701 -0.00247749)
(10.0166 0.0399639 -0.00732961)
(10.0324 -0.0798972 -0.00341495)
(9.88962 -0.0545329 0.00995128)
(10.2342 -0.168086 0.0415759)
(9.973 -0.0247412 -0.00491625)
(11.352 0.00249577 -0.0381355)
(11.7898 -1.25832 1.0876)
(10.1519 0.0271393 0.0175192)
(10.0405 0.0181794 -0.0115595)
(10.008 -0.0222539 -0.00537333)
(10.0106 0.0559541 0.00909177)
(9.70025 0.20504 0.0270944)
(10.0159 -0.0172187 -0.00792114)
(10.7858 -0.151336 -0.0356411)
(9.95045 -0.00652318 0.000794081)
(10.0124 0.0268748 -0.0122655)
(10.0904 0.0689661 0.00763387)
(9.26899 -0.880635 -1.31986)
(5.17411 0.705576 -4.90669)
(10.0616 -0.0849752 -0.0017688)
(-0.104259 -2.0015 0.262759)
(9.95991 -2.50472 0.676755)
(13.3076 -1.19081 -1.20787)
(-0.131299 -2.00853 0.229464)
(10.447 0.0511609 0.00110241)
(5.90505 -0.345865 2.29972)
(10.6082 -0.510942 -2.67286)
(10.8918 -1.66825 0.355143)
(5.67871 0.311456 -3.89744)
(-0.192445 1.76343 0.679204)
(1.50745 0.636496 -3.70431)
(11.6473 -0.0660937 0.704297)
(10.8227 -0.0147408 -0.064301)
(11.6031 0.0605456 1.2559)
(9.92051 0.00548923 0.00350266)
(3.7157 -0.301576 -0.418365)
(10.8633 0.0792445 -0.354839)
(10.7302 -0.0177122 -0.0153211)
(9.97403 -0.0580199 0.0447566)
(10.0098 0.015893 -0.0318344)
(11.7118 0.167875 1.2252)
(10.0166 0.1399 0.0459228)
(10.2021 -0.0418992 0.0213724)
(9.95892 0.0148322 9.91042e-06)
(-0.470638 1.07919 0.134595)
(8.11293 0.303243 -2.57548)
(10.0144 -0.0074972 0.00841284)
(9.98443 -0.00480014 0.00439234)
(5.02995 0.296272 -2.52174)
(5.92535 0.149115 -3.18178)
(10.6579 -1.53377 -1.05517)
(-1.9208 -2.59845 -1.17513)
(5.42064 0.214393 1.92339)
(4.04882 0.00627404 -4.01144)
(3.77409 -0.0507929 -4.86767)
(10.0054 -0.00407666 0.0102765)
(9.80748 -0.000431468 0.00152762)
(9.46915 -0.0268509 0.0138095)
(10.019 0.00164662 -0.0089137)
(10.4161 0.0430355 -0.0147813)
(-0.258773 1.86273 0.384732)
(11.0086 -0.0205312 -0.269735)
(10.4687 0.0360776 -0.0163856)
(10.3356 0.037084 -0.00741303)
(10.0512 0.0081795 0.00489413)
(-0.234196 1.76809 0.872526)
(-0.456113 1.82861 0.822785)
(10.0556 0.0207514 -0.0156151)
(10.4119 0.00264199 -0.0265789)
(9.93281 0.0197826 7.23608e-05)
(10.0438 -0.00734101 -0.00793207)
(10.3601 0.0176789 -0.00849602)
(10.0427 -0.00424035 -0.0151881)
(9.68487 -0.00501281 -0.0773231)
(10.0082 0.00497301 -0.00973029)
(10.0001 -0.0125371 -0.00704746)
(7.00227 -0.770401 -3.23653)
(10.048 0.00315101 0.0060841)
(10.0447 0.00394784 0.00506193)
(10.0161 0.00043676 -0.0140036)
(9.84987 0.00113673 0.00386634)
(9.86787 0.00397113 0.00873291)
(4.27345 -0.599656 -2.55637)
(12.6966 -1.23637 -0.780445)
(10.0361 -0.000121841 0.0094556)
(10.8952 0.443182 -0.218591)
(10.014 0.0260149 -0.0137243)
(9.67803 -0.329404 0.0950119)
(9.63843 -0.416784 0.146364)
(12.3503 -0.0447445 -0.0731105)
(9.84984 -0.00369444 -0.00420615)
(-0.234257 -1.0903 0.991951)
(12.4352 -0.17836 -0.132047)
(10.4977 0.144858 -0.0133692)
(10.8469 0.40516 -0.048494)
(8.11613 0.334004 -3.52256)
(10.6046 3.13352 1.51354)
(9.9904 -0.00232742 -0.00204978)
(9.9869 -0.0029067 -0.00396712)
(11.4863 1.73761 2.12878)
(9.99991 -0.0658939 -0.00618832)
(9.99912 0.0334043 0.00542907)
(10.8138 0.79456 0.339269)
(9.97147 -0.00699632 -0.00485514)
(9.98351 -0.00304213 0.00153126)
(-2.70335 0.674584 1.45481)
(12.5473 0.748744 -0.236417)
(10.4224 3.5632 -0.481437)
(10.0019 0.000700997 0.0049022)
(7.72797 0.603301 -2.73432)
(10.0106 0.00220029 0.00634608)
(12.0974 0.145239 -0.285586)
(9.48434 -0.400353 0.235504)
(12.4196 -0.0791412 -0.0696823)
(9.92651 0.0020024 0.00247964)
(9.2939 -0.430818 0.19112)
(-1.15752 -0.442299 1.04428)
(11.4704 1.85774 2.61106)
(12.5966 -0.446087 -0.915724)
(-0.841408 1.199 0.739128)
(12.3942 0.293238 0.207526)
(10.6236 0.189522 0.0247571)
(9.96019 -0.00466262 0.00831448)
(12.2441 -0.272495 -0.263466)
(9.9959 0.00588568 0.00493527)
(12.5892 -0.0949042 0.00953147)
(-0.0712566 -1.35799 0.620382)
(9.99495 0.00890176 0.0063238)
(12.8905 0.0995407 -1.36211)
(9.88801 -0.00208549 -0.00208922)
(9.88258 -0.0127826 -0.000186746)
(11.23 -1.2861 -0.449597)
(9.92538 -0.0139259 -0.00838249)
(10.2944 0.126462 -0.0145466)
(8.0581 -5.76948 -0.0274859)
(9.50569 0.458159 0.0241661)
(10.0044 -0.240361 -0.029848)
(12.8427 -0.587782 -0.0659736)
(10.6716 1.60606 1.04078)
(10.0337 -0.0241266 0.00820495)
(11.7637 -2.65601 -1.08043)
(5.26236 -0.906018 -0.241091)
(10.7531 0.034418 -0.00618741)
(9.62563 -0.73017 -0.915832)
(10.047 0.13661 0.033851)
(10.6151 0.232459 0.0105756)
(9.97782 -0.0175746 -0.0123515)
(10.0176 -0.0239406 -0.00188271)
(-0.823291 1.21008 0.198436)
(0.833344 -4.492 1.91093)
(12.1278 -0.870387 0.311168)
(10.1356 -1.36306 -0.715534)
(12.4084 -0.776036 -0.462318)
(1.05811 4.85747 0.931047)
(-1.05762 0.421872 -0.584434)
(9.18367 -3.61285 4.20231)
(10.0242 -0.0187427 0.00509833)
(10.0023 0.0122282 -0.00986263)
(9.98889 0.0138965 -0.0040205)
(9.8317 -0.0300048 -0.00690255)
(1.38876 1.17968 0.986985)
(9.60223 -0.543248 0.15757)
(8.94706 -0.664313 1.00618)
(9.98718 0.0208288 -0.00929115)
(-0.14438 -1.56593 0.0824315)
(12.5109 -0.0704569 -0.097082)
(10.6417 0.0688401 -0.311092)
(10.1621 0.0371487 0.00812358)
(10.0289 -0.0155115 -0.00667125)
(10.1653 0.0362254 0.0132871)
(6.24234 -1.86911 -3.32622)
(10.0048 -0.0029655 -0.00711783)
(3.78842 4.10171 -0.914609)
(10.0269 0.00958599 -0.00340865)
(10.346 -0.647245 -3.15683)
(9.98816 -0.00366903 -0.00293646)
(9.99888 -0.00611334 -0.00621549)
(10.0092 -0.00987411 -0.00745303)
(10.0143 -0.0100529 -0.0112589)
(9.98809 -0.0118495 0.00336211)
(12.6165 1.57274 0.569485)
(11.5927 0.350725 0.755617)
(8.9124 1.48422 2.34052)
(6.948 4.04228 2.33469)
(9.34152 1.21344 0.407502)
(10.4335 0.565906 -0.0752787)
(11.1753 1.27932 0.0112085)
(6.65526 -0.460529 -3.00261)
(10.7089 -0.149779 0.0256199)
(12.423 -0.429921 0.0902847)
(10.7543 -0.746446 0.00765864)
(12.302 0.0596443 -0.0588584)
(8.28524 -0.23037 4.36287)
(5.99339 -1.5063 2.50172)
(10.7145 -0.341017 0.178404)
(9.99938 -0.00941705 0.00505143)
(9.57348 0.960233 -0.352777)
(10.0041 -0.00547009 0.0099898)
(10.2555 -0.0219606 -0.00298353)
(12.7444 -2.41889 3.0617)
(12.5535 -0.36743 0.729658)
(-1.01586 3.60577 -0.208117)
(10.1119 -0.966903 0.185437)
(11.9318 -1.00088 -0.585893)
(10.547 -1.06354 -1.20759)
(9.90675 -0.41836 1.19616)
(10.2896 -0.0407121 0.00621665)
(-3.77559 -2.94271 1.01776)
(10.101 -0.0117827 0.00509444)
(10.1783 -0.016861 0.00216058)
(10.9464 -0.224581 1.37152)
(9.71306 -0.129405 4.61908)
(10.3233 -0.0493101 0.0115094)
(10.3104 0.561791 -0.441674)
(9.9771 0.00417909 -0.000378777)
(10.5128 -1.43451 0.5683)
(11.1638 -0.0119599 1.52013)
(9.9593 -0.0137519 -0.000211748)
(11.1724 -0.4386 -3.14196)
(9.63533 2.00138 -1.88299)
(11.8582 0.459754 1.40153)
(11.0263 0.35834 -0.176911)
(9.48205 0.121367 0.258678)
(3.11862 0.946249 -3.88634)
(0.285837 3.55031 2.89362)
(5.24552 3.19598 0.6406)
(13.3443 -0.849665 -2.98352)
(4.34319 -0.981824 -0.442769)
(9.7635 -0.00532873 -0.00259976)
(9.88752 -0.0220584 -0.00217847)
(8.27052 1.73419 2.65062)
(9.9476 0.00179791 -0.00197359)
(4.53473 -0.834038 -0.325997)
(9.81218 -0.00395441 -0.00322351)
(9.78728 -0.0105877 -0.000260402)
(-0.0702401 -1.89669 1.04802)
(9.49911 -1.33128 0.802327)
(10.8825 -0.63061 0.100353)
(9.97958 0.0039868 0.00474096)
(10.0006 0.0183137 -0.000282556)
(8.34904 0.384164 -2.89959)
(10.0066 0.0142657 0.003617)