/*--------------------------------*- C++ -*----------------------------------*\
| =========                 |                                                 |
| \\      /  F ield         | OpenFOAM: The Open Source CFD Toolbox           |
|  \\    /   O peration     | Version:  2506                                  |
|   \\  /    A nd           | Website:  www.openfoam.com                      |
|    \\/     M anipulation  |                                                 |
\*---------------------------------------------------------------------------*/
FoamFile
{
    version     2.0;
    format      ascii;
    arch        "LSB;label=32;scalar=64";
    class       volScalarField;
    location    "0.0321319";
    object      p;
}
// * * * * * * * * * * * * * * * * * * * * * * * * * * * * * * * * * * * * * //

dimensions      [0 2 -2 0 0 0 0];

internalField   nonuniform List<scalar> 
3926
(
6.31256
22.2167
24.5529
49.9084
57.2223
41.8097
-1.57644
-111.281
-43.6285
-78.7328
-39.0174
9.98913
21.1549
10.6196
25.6788
20.42
6.7651
22.0069
33.5912
16.2592
20.4869
40.6092
46.9228
6.18516
29.3684
48.7902
45.0832
51.1639
48.4709
5.55055
-10.1576
28.296
-10.6795
-11.8058
-14.2258
-11.4057
-48.9408
26.2442
30.9264
13.8462
36.9904
-96.7357
-1.10991
17.7118
26.6161
-60.2947
0.838868
-21.5373
49.8634
33.4942
31.0258
-77.2434
65.619
-50.9906
31.4689
2.5926
-50.8368
60.7634
24.0002
55.7825
20.8295
-38.4572
-76.9056
44.2842
-45.769
-31.1014
-40.0718
-36.2397
-38.7897
-27.9326
-27.6539
24.1942
-38.7237
18.0554
-10.4991
63.4067
-6.78934
47.858
45.0993
26.3358
57.1112
32.5514
-26.2461
-67.1854
16.0091
10.7649
17.6487
16.2689
-46.374
28.8488
25.4688
35.2179
23.8433
-2.75091
12.9627
-82.1848
3.97203
-14.5332
61.2325
-16.1621
-27.0887
39.7167
-0.160294
37.1515
0.354194
17.3442
30.2096
17.7347
26.2688
22.9983
27.6695
31.4069
37.4801
33.7591
23.181
64.1406
50.1986
20.8601
14.577
40.9677
15.0252
16.2796
25.7611
26.6288
24.8976
26.6989
-35.8271
34.9621
-7.62457
21.2776
19.9959
11.7387
3.02707
-3.269
50.2126
43.4851
39.3765
6.64476
31.7366
53.3322
15.1918
26.8186
45.806
44.2414
32.5569
52.0277
48.456
33.2715
35.2689
36.8616
46.4568
43.3669
41.4147
51.1991
48.8247
42.8242
35.0695
48.0932
53.1463
53.6346
-13.4283
26.8608
35.8059
64.1931
48.8418
39.3208
31.7248
23.5164
6.39724
46.5509
-62.0799
-11.4859
22.2204
28.4092
9.70367
-17.8893
32.7627
57.4379
38.9534
20.1068
64.1955
11.6735
64.065
12.1943
19.1557
11.4328
-6.14712
35.2223
39.2541
37.7541
47.2394
27.9573
48.269
18.3
26.8323
23.8629
6.97794
36.672
17.0819
11.7551
45.4997
-20.6423
60.1575
15.8784
22.9754
35.9296
30.1888
64.4495
6.97245
19.0569
20.9896
25.728
47.733
-11.3058
24.7181
58.7193
31.5888
42.4741
35.2366
38.5562
6.58092
-19.1051
-1.57549
-40.4062
-14.7099
61.8778
56.6474
15.0794
23.8278
-10.9795
2.13286
59.0438
6.15686
28.3539
-5.04666
50.3542
-15.7666
52.6719
-55.4233
2.92239
-45.4554
4.49004
-4.82478
62.2359
19.1498
32.5094
48.6339
10.4339
25.0586
-123.276
26.7799
52.948
-72.104
-6.68391
-2.92192
66.5364
-51.0657
-5.90959
6.34417
-23.3114
12.4709
47.1907
35.8549
62.3051
56.3597
-15.3956
19.8315
45.578
47.3769
-42.4484
50.3857
-59.5921
12.5034
-19.4731
15.4434
20.9043
21.5194
6.48136
29.3572
20.4683
27.9878
-48.0829
8.25964
37.7351
-27.3902
-35.9462
-23.4567
-38.0366
-46.4177
-0.987537
31.846
22.6583
33.0013
-36.3019
20.4577
49.647
13.6365
11.1853
14.7778
64.5534
-74.7725
37.9298
37.7355
32.7101
32.2729
-34.5073
-70.8679
-18.806
24.8658
-0.970043
-58.4508
9.24274
54.5133
18.7939
-18.2141
-15.2528
39.5324
16.5054
41.6517
-20.1961
-34.0296
19.0426
4.75381
59.2552
47.7014
27.6979
-39.7426
59.0149
-58.0366
1.71435
55.3334
31.5618
17.6443
23.2857
19.5154
21.8609
35.7971
64.4925
64.0501
65.8864
63.8921
66.3513
-20.9258
21.5609
18.9381
14.5032
66.0926
60.6076
56.3452
67.0362
52.0937
64.5479
63.7778
65.396
-39.2747
-42.6472
-39.9561
-44.9324
-13.7661
22.8851
18.5223
19.6481
-25.2425
-22.7364
-44.5348
15.5027
-13.0643
24.1698
19.2674
1.20988
0.424213
20.6631
40.3618
30.9955
-35.6697
19.7173
53.8627
33.8614
59.1611
46.2901
23.3529
-22.1879
46.1025
55.3593
25.7403
23.2177
-6.13984
-28.7762
-21.186
-17.9544
-60.2968
22.276
-66.5508
-13.5022
13.027
-16.5006
26.4033
21.0373
45.6631
17.2901
11.3884
-8.6376
31.4837
16.5093
40.4607
46.3315
27.1917
22.4795
-19.2486
16.47
30.5006
-78.044
54.0222
50.8327
32.5922
42.1619
24.3066
-42.3295
35.0874
19.1903
27.6018
11.303
8.8792
28.3725
45.0518
21.135
40.3776
22.8728
15.4821
16.0296
47.553
15.6327
-25.4832
-8.60968
24.4322
26.7988
49.19
17.3979
-40.3649
25.6383
28.5332
-79.8549
59.9041
9.52046
8.2978
-58.8233
49.587
-38.8247
21.4665
19.6494
-78.9443
-1.13384
15.2381
33.5898
11.049
-28.6252
-24.9643
-17.4124
-16.1546
-10.7631
12.9724
51.1045
14.8095
27.8012
10.428
31.4358
6.24155
-88.8179
-4.74181
0.142656
3.25235
5.44725
16.8815
16.1325
-3.69073
-4.73847
-2.92788
8.9308
17.9494
25.0918
30.9028
-21.7454
24.2935
38.9654
17.4609
-10.9347
-91.4654
46.4997
5.11837
-73.7462
42.1751
34.3591
-62.3714
-49.1115
-20.4491
-27.6615
-29.5519
-19.2414
-10.0855
-30.4343
-7.76279
-42.3709
20.5695
24.9527
23.5622
-44.9242
30.7222
-15.4699
24.1126
-34.1376
53.9585
-74.697
-64.1311
48.8512
46.617
44.1669
21.4701
47.1257
-184.031
-40.8443
-66.1002
35.0787
63.6326
29.0031
40.7555
49.0307
36.7289
64.6017
62.1439
31.3755
23.5905
28.0495
20.5609
19.9871
-37.031
-44.9522
-71.1342
-102.518
-4.8808
-3.57812
-5.42159
-42.0738
-69.2376
-76.5129
-72.1282
-51.1756
-39.0887
-12.2298
-13.5348
-11.2736
-12.7138
-19.2809
-22.4279
22.243
23.8487
62.9621
15.7253
31.5989
38.8056
38.454
-16.0307
51.8888
12.435
14.7884
0.401524
0.125641
-56.3559
-42.7646
-31.293
-68.4167
32.1722
24.508
18.8475
15.572
17.6507
-38.2572
-3.53313
3.24773
-57.9472
13.354
58.9702
-4.33134
22.0365
29.1178
43.5319
59.8955
29.225
25.7952
24.4299
23.3021
55.7972
-11.6211
-55.8193
-48.1406
28.4328
26.144
-7.25899
14.3134
0.301668
55.7907
29.3411
33.2602
33.7962
32.7355
21.4583
18.6946
36.8312
33.3691
41.357
43.3418
50.9881
37.538
56.8752
37.0432
28.1689
30.4095
22.0942
15.5047
22.2571
20.2423
18.949
12.8873
9.35485
-3.44792
-48.0608
-41.9073
-33.3529
21.2036
14.2979
13.434
26.5674
25.9006
21.9363
15.2144
48.9175
18.3803
28.0667
-29.0889
-25.9507
-39.4793
-18.0751
14.3571
-6.71078
46.1164
-38.658
36.953
26.9758
42.5926
30.6264
39.3086
30.4459
24.729
34.9175
46.0296
21.9655
53.9415
-3.93097
-3.52432
-6.53622
56.4584
58.67
8.12263
11.2305
7.6871
53.1963
14.7127
18.5635
-19.9328
25.0238
6.12955
44.4084
23.4411
22.3147
46.3184
3.48422
-9.02111
11.5178
48.8172
43.507
42.0937
36.6037
38.3688
49.0779
60.6637
56.8732
28.909
30.9548
27.4153
19.8907
19.3788
43.1664
35.2491
23.22
48.0564
40.885
21.3024
22.5243
23.1982
-9.30816
5.75591
9.45504
5.78627
7.22021
25.8213
15.682
24.1218
9.34009
2.52449
0.656808
-0.171528
18.2572
18.0528
19.3183
18.8799
21.5182
35.6357
31.4036
53.912
58.0721
53.9931
37.595
39.1181
32.5591
36.9712
30.0588
27.1749
21.1748
21.1355
19.9495
42.6519
19.1389
0.10862
16.5068
31.9929
17.0671
38.4616
3.34756
13.0205
19.9722
20.0918
18.8971
16.5443
61.5946
14.0686
23.2609
22.5988
14.9208
17.5799
16.6414
18.8662
22.2405
21.5298
22.0317
20.8565
-8.24181
-8.9354
-56.2446
49.1269
-47.7798
-1.6287
-54.719
-2.29377
1.91216
29.3925
50.1684
28.2234
39.5822
-3.31674
35.6537
-57.5942
23.2984
-49.9745
-51.01
1.88139
28.0566
-33.7187
62.8965
24.6122
27.3977
47.7082
15.951
-32.813
39.29
44.9073
20.1292
22.988
26.7103
20.6489
5.17804
16.1278
12.5406
18.4445
20.5512
-13.3277
-16.5981
1.895
-15.522
22.8809
33.4124
38.3678
2.66107
-4.96415
-36.264
8.36111
20.6494
0.429051
-62.7451
-17.3166
5.4341
41.4134
16.2921
-36.6281
13.9412
17.5042
12.5439
17.7782
21.4416
32.1345
13.8093
32.3137
51.477
59.1383
-54.0069
14.2661
34.7725
28.4299
-9.79091
-104.4
-30.9573
-51.6024
22.5415
20.0021
-40.629
67.5524
63.671
27.9215
21.3813
2.1915
20.9466
-1.83035
30.6789
17.8896
-50.6964
21.9389
15.273
16.6358
-24.0112
8.08759
-13.513
-23.6981
6.4072
-86.9557
-17.0802
32.9584
-13.5332
38.9854
31.9705
61.6612
57.1595
26.5177
35.4085
26.333
19.9675
11.979
37.2527
43.0751
36.9979
29.7762
-47.2131
41.3372
62.6978
51.2486
60.0821
-1.39338
30.3788
16.2151
20.4847
33.2016
-32.2794
35.1019
58.3571
23.4661
30.8222
-16.077
-14.4862
37.725
-46.0429
44.7981
15.2881
12.0593
16.1325
20.0466
0.166173
16.6048
-42.9235
21.7195
-1.71908
35.5282
21.2603
-17.3057
44.2258
59.1295
20.4106
48.2412
-31.0555
12.4237
-0.461933
16.806
-72.4504
-7.8836
17.0253
-129.87
20.6224
16.5452
17.3377
27.7251
-65.2065
60.9589
-85.9874
-2.69048
8.74696
27.7871
-7.67542
54.3809
18.1114
27.6387
-2.9229
60.7489
46.8109
-13.2379
-9.05835
36.2169
-104.547
-39.0034
4.33932
-7.52053
-5.02296
19.9126
-51.1317
-168.106
15.8827
21.7618
17.6727
23.4762
29.4636
15.6334
38.9891
26.2419
-25.9595
34.7334
-60.9119
-16.3078
23.2396
31.6422
29.8947
39.0319
39.4953
-0.165396
0.558901
24.3518
-25.6434
-27.4561
-42.8294
6.92214
38.8901
50.5981
2.45626
-44.5965
32.1687
49.0928
-56.913
-16.9074
38.6232
25.8677
-20.8656
2.08233
-33.982
-29.5601
-16.6121
32.0259
-6.19731
32.7454
-9.53037
-14.3996
-7.70615
1.0374
18.3154
25.8023
11.6547
-8.57877
40.6948
-52.2683
-61.9941
32.7852
22.9861
28.0138
3.45082
9.86804
-20.4559
-5.37356
12.8822
16.457
-5.70745
-34.734
-0.394386
-12.335
11.7619
-0.933349
-80.2073
-11.7342
2.02546
1.1765
-13.6152
-15.2585
-29.46
-18.34
-31.0261
33.3378
23.7764
-5.57138
-57.9479
-24.8334
46.9754
-173.322
-98.1407
-29.5569
-7.57386
21.1685
10.45
30.1256
26.4563
19.9133
29.9953
21.9636
39.7048
55.5169
28.538
30.2781
44.8905
27.5585
25.0945
20.9021
34.9054
28.6226
12.1357
-56.0792
13.8967
-3.10848
27.6424
-61.8602
37.6994
47.318
-10.5991
66.9155
58.7747
-48.3472
9.62618
39.5032
57.8331
52.6556
3.93683
55.7387
32.3604
-59.8697
17.6226
21.8239
13.473
16.4701
19.8433
-57.6436
3.82386
16.8309
60.397
-26.2022
-62.9589
15.3505
29.417
23.7201
62.9677
-19.3467
49.8495
16.6002
24.8731
24.7967
27.6311
22.6865
22.1477
22.7634
29.373
29.4477
14.475
45.801
12.8214
19.8248
28.2216
24.9787
22.5404
10.6904
20.7265
28.2794
23.3987
23.9324
21.7278
14.8859
41.3229
64.0068
12.5819
57.0555
13.4613
24.407
21.3704
18.0154
20.6465
19.9831
-49.6141
-47.5566
-72.0391
-1.48685
28.7512
-31.3768
-35.0011
6.81934
43.0765
-2.00131
-10.2719
-40.4085
8.68798
24.6127
-11.0165
6.75128
47.2414
-32.1336
-24.4344
-41.5408
-15.876
-25.0038
1.10842
38.6156
58.9101
-25.4784
1.94277
41.1578
64.3813
63.7922
18.7006
-22.3092
11.2746
-64.3208
47.4449
35.3062
62.2073
18.9254
65.4783
65.3655
-32.4165
-36.9748
62.8047
62.4184
50.0825
25.2613
-161.365
-20.782
-32.5811
46.62
18.435
30.8795
-55.4183
-186.395
63.5756
64.021
55.1364
48.8841
55.4379
57.0997
39.7328
-63.6669
-100.126
57.3443
51.295
52.2073
32.3987
37.4336
-9.63568
17.2805
58.3972
56.1906
35.4537
25.7405
65.4603
61.1459
61.3853
56.0201
-11.0691
30.6157
33.9046
33.466
28.9385
19.6633
16.5208
-40.9759
-36.4195
-41.2779
-22.0988
20.8198
-55.9124
-52.2622
-57.6566
-46.0207
60.1616
18.0424
-100.101
-71.9673
-152.969
18.0926
-33.4995
22.8528
-37.1506
-33.0181
-35.0891
-36.074
-14.5843
-22.0349
-15.0264
-39.2053
-55.0982
-11.5186
-91.5296
-20.9178
-55.0236
-66.6782
9.46845
-0.688151
-1.06433
1.71408
-11.8448
-8.67093
19.272
15.1424
16.3665
5.5732
15.6944
29.7702
13.7846
27.1703
44.4534
17.8869
18.6865
18.7011
18.7022
-6.1377
25.9533
32.795
9.48999
-1.80901
16.3689
-17.8727
46.4723
-22.6821
-10.3001
-11.8034
-7.16933
-36.3578
39.181
54.6184
21.6182
35.2451
29.7548
17.2561
38.0189
41.9139
16.3792
25.2509
51.7856
63.4121
24.1852
58.2598
39.916
41.04
45.5265
32.7641
-48.1151
21.5985
40.4195
38.8867
37.4121
23.2697
12.6585
35.8792
62.8498
34.4436
29.8401
36.45
27.1565
12.838
1.91514
37.2087
33.8489
-21.4829
-25.4611
18.8118
-42.9248
63.0374
38.4527
62.6222
53.7487
-198.004
-3.2763
21.179
-10.8907
26.454
52.1281
16.8026
29.6342
23.3883
19.9083
20.5514
23.0324
34.2336
51.5774
27.5275
25.1513
18.8148
47.8672
41.717
51.638
28.2387
30.6143
-2.23618
4.79731
6.91388
26.3286
3.59015
-94.8051
-63.0728
-39.9901
-33.9052
4.72189
18.1829
22.3731
25.0194
1.05711
-13.0091
-39.4179
6.02427
-35.134
-49.2478
-31.3591
-23.0877
17.694
31.8413
16.4923
27.0414
18.2461
7.5072
18.7538
1.96805
6.49204
16.9364
18.5003
13.5416
26.3271
-37.4413
-67.7026
-10.6717
13.2629
14.2911
22.8309
23.3187
29.6923
0.923426
47.1618
65.0648
9.98409
33.5213
48.1436
27.4556
25.4749
1.27604
24.277
50.1984
0.0452995
3.57177
24.2917
22.7288
35.2037
54.0657
35.2215
-20.9026
6.34709
40.74
31.0021
17.455
43.6083
-28.332
18.7274
17.4076
57.6499
-3.38178
17.9596
17.794
35.2248
38.7762
42.2376
17.3652
5.79037
25.8657
64.0179
-20.8327
26.0194
-29.2292
31.3654
-13.1023
-90.8958
19.6807
18.1431
16.6448
16.1557
19.059
24.6584
22.3007
28.6489
18.9915
30.0888
-41.7117
-9.3125
-28.5198
12.6228
-32.6732
-4.97857
-15.178
-22.0572
-41.6325
-32.8659
3.56556
16.0813
-73.7314
29.3084
-36.7364
47.7179
39.273
-43.2849
45.8132
50.8998
52.3195
52.2515
44.4524
33.4177
36.1906
20.8856
18.7023
65.5464
57.9118
18.9309
38.5751
-65.9329
41.5684
41.4135
51.0796
64.3658
10.4821
10.1256
-58.5811
33.088
18.4506
-3.69626
21.1019
25.1924
-20.4204
25.8927
1.96617
16.116
14.4144
9.47541
-57.3251
1.3578
27.9849
-19.1624
43.4019
-45.4482
29.3276
-72.6151
-82.6945
23.8082
15.1265
24.6953
12.2542
60.2901
34.6671
59.6488
10.8138
26.5137
-59.0467
8.53354
-28.8206
-39.4331
2.23812
-21.2343
11.2713
18.5411
15.9301
20.3468
16.1658
38.7767
9.36145
58.3133
17.8034
5.74439
55.2228
58.8539
-76.8851
16.9003
-23.3481
-33.1823
19.3379
4.99831
-17.5283
42.9475
40.6843
14.059
35.0446
25.1256
17.5499
2.94035
-15.6122
-6.24562
-13.8599
-10.7664
25.657
32.2441
48.5911
37.9139
54.8067
-7.66876
16.6045
18.6306
12.0386
7.58278
11.3123
56.5306
56.2097
58.2375
59.8456
58.6003
61.7542
47.3231
0.102837
2.16136
12.0745
8.59543
24.8534
13.9947
28.0022
30.3333
30.6601
-24.6261
8.69146
-14.0157
-17.9834
-36.0624
26.2168
28.8164
40.9174
37.4925
37.8523
45.2939
48.7639
64.8283
29.9307
41.6848
31.4531
55.0691
60.221
20.1757
13.1502
62.505
-7.5992
64.9136
34.1885
42.9577
61.4332
51.6084
32.1705
31.6797
32.9968
56.3694
62.5276
29.9032
-45.6117
17.3491
54.6232
-52.5545
-24.0325
65.2372
62.3567
61.5825
65.5553
28.0911
26.9482
30.2536
30.088
65.4063
-56.2902
-10.1945
-39.7103
-61.5093
-19.8879
4.72801
-23.4115
-29.0171
-40.9478
18.5947
12.4745
49.1202
26.6116
31.3481
32.2563
36.967
30.4749
26.9536
-31.9214
-4.55589
-2.5792
2.14791
-2.12181
-55.1866
59.8078
60.4018
59.9394
59.7078
60.4429
57.8889
-6.21954
21.2055
3.48545
-36.1975
14.3098
13.5078
-29.81
36.8229
0.482661
-51.0798
8.08666
-90.207
-48.688
-65.0193
-73.6753
47.2664
-100.4
40.6469
60.8
28.5376
-108.983
-45.8349
2.92821
-16.9894
-15.1079
-40.4366
26.4731
-44.7555
-48.315
59.3762
-35.4115
-56.4991
-51.7033
49.5855
61.7273
-7.76197
60.2026
55.7398
57.0229
-49.3092
54.6916
22.557
-36.7221
-40.2225
-40.4993
38.1845
24.0629
24.9719
48.247
56.5382
51.6963
48.4669
62.4196
62.0747
63.797
62.9177
-99.0526
64.287
26.5419
-44.4996
37.5762
-64.7405
-72.0006
37.6836
57.5911
38.8241
-54.6495
-36.8079
-27.7942
28.7596
37.4024
32.3657
21.4704
37.0442
-35.3997
65.5787
65.7858
40.3979
-54.3161
-64.6843
-82.1251
63.7722
30.3604
-89.4538
-81.7235
39.8185
42.9231
21.6115
45.0886
16.7069
35.3045
26.3215
25.0098
27.5144
39.0245
38.3092
62.1814
64.4391
42.1906
17.7412
12.4175
5.43161
40.3142
44.4537
26.4734
24.3695
14.227
16.9058
32.8376
54.5563
-55.4126
44.8733
52.9518
55.0564
44.7178
0.100233
29.3379
-7.05929
-5.03406
1.25513
4.37489
-4.06709
14.9
16.2935
7.14893
10.1668
19.8449
34.1059
29.7007
24.4847
28.0744
-130.919
21.9394
37.8599
13.3838
44.1684
64.2825
56.8831
-19.966
58.479
22.2291
21.0236
59.1192
62.8983
59.2684
55.6275
49.6235
61.1289
66.3513
55.8964
64.8555
43.7501
-29.3973
-34.8837
-52.8158
26.3825
-30.2372
18.2758
19.3811
16.5811
16.5079
14.6283
-26.6655
3.94856
-17.2283
45.4323
16.0395
55.7976
57.5397
43.6403
63.9816
65.7797
59.0207
61.2098
-36.2246
62.7599
-21.5348
-5.07472
-74.6038
22.0884
-21.5379
-26.6917
25.7845
14.098
13.2441
-10.0892
-5.45794
-3.19849
-41.8647
-2.89698
7.73771
55.7241
-10.0589
32.4414
-4.08097
32.6647
24.6062
35.1998
23.3581
-24.3647
-56.675
25.4618
26.1749
24.8831
25.8959
20.2098
23.8701
22.3069
19.7519
46.2063
31.2868
26.9044
-9.34838
19.4588
11.6353
18.3218
27.3931
-123.673
45.9201
40.2693
17.7685
15.5294
7.30229
-7.89554
5.72231
-13.6935
14.4303
16.0424
20.0885
14.2064
12.796
25.0508
17.6842
22.8668
20.8868
-44.143
60.0199
28.2668
27.9261
-66.4526
16.1999
35.0215
8.45396
-28.0398
-35.8207
-31.9764
62.6383
-88.1305
-82.8973
36.6894
-58.9405
-60.2707
1.67431
8.61848
13.3479
-8.85585
-48.8263
-0.0177203
-45.1904
23.5125
18.922
37.5038
39.8196
14.4349
13.6948
-58.1754
11.5687
-18.8772
-0.688268
-7.8645
-10.1132
-8.46172
-13.7144
6.90153
-24.801
-180.171
-1.53427
18.2869
40.8226
40.5741
18.5685
26.1241
20.5646
52.8387
25.4734
17.5212
24.0564
22.3238
24.9679
28.6843
27.8987
34.3845
58.0311
39.5702
57.0103
-9.67002
34.0611
62.8112
51.5413
55.0167
59.0521
45.6447
-33.7545
20.2762
29.7539
4.27292
-50.6455
8.39359
31.4205
11.0958
30.8167
17.9053
28.764
-0.88986
-12.9433
-4.49832
-2.54644
-8.06242
-8.74325
18.2466
5.85008
19.1011
19.0341
-42.4672
1.83728
-60.1979
-25.995
32.8005
22.5304
32.1867
31.7224
48.701
-38.3976
50.2928
-44.9277
-18.592
-11.9513
-26.0997
-66.0169
-16.2796
11.8839
-43.0144
-22.6858
-63.1085
-72.1255
-24.8085
-87.3071
-70.3159
-78.407
-59.4468
20.217
-21.1518
6.34519
19.2167
29.8685
24.6543
59.035
16.2328
61.1963
37.2949
55.2724
48.3668
27.1565
21.9206
33.0403
12.4787
19.6196
-18.9914
-36.3293
59.0033
17.8986
-79.9722
-70.7913
-25.0478
-21.3997
13.3663
1.29753
61.5711
-109.375
52.6586
16.1853
21.9212
18.23
18.1951
31.0811
14.1515
22.4352
38.5501
26.4094
44.5645
53.044
42.4356
35.359
36.3233
34.1747
59.2865
19.8117
-114.186
-81.7496
46.0358
-19.701
39.3884
53.2594
55.1307
65.6372
0.290253
12.8064
41.1501
3.23575
-13.5621
-14.2306
-17.394
-17.1867
-114.197
-73.0882
7.59516
-45.4368
66.1968
64.0183
45.489
26.6618
-8.38246
-16.5509
19.2936
6.23104
12.3114
14.8063
-59.7209
-16.2159
-8.89443
-4.70255
2.57659
-29.3793
-47.1916
44.751
54.5551
-49.4896
52.0277
-43.4508
55.7582
3.92918
18.0327
-30.7545
8.83299
9.73189
47.2409
62.0879
11.3125
41.5471
17.1847
-21.4364
-6.76566
48.3821
7.68758
26.8842
7.59369
-4.18823
18.0472
-18.8614
-34.2435
-27.638
-95.5372
4.50439
-79.5819
-36.3656
-47.7044
-21.0634
11.7153
24.099
14.2548
23.1005
18.7845
17.938
-7.27937
16.1565
6.33378
15.3131
8.40202
43.5231
18.3738
18.8047
64.0195
23.9436
48.6967
61.9563
50.3422
62.4994
50.5705
63.3819
14.2337
50.7161
59.1678
53.9804
47.2649
-164.242
-8.95536
39.7917
15.4409
16.1792
24.1623
10.7274
16.5294
25.2595
2.1741
20.7732
-45.7206
28.9965
22.6672
59.7522
44.9527
-36.4579
38.606
22.6678
64.0603
33.0209
50.5933
58.402
54.9028
17.5749
-33.0358
-4.66948
-12.4757
12.9881
-5.64669
19.6494
15.8311
20.7406
-6.05997
54.0147
53.6666
-12.7335
26.1752
25.3195
34.747
32.4518
31.5653
22.2234
28.9305
-54.9426
-47.547
-51.7204
-57.1267
12.0365
-8.10157
-10.5877
-100.802
-8.21817
51.3604
61.9579
48.1012
19.8475
51.0181
49.6159
15.2658
22.5151
-3.84115
24.848
11.0321
19.0967
16.3434
28.1505
29.7596
39.3496
32.4339
32.5588
30.2108
29.6398
27.8046
-13.2488
-32.3206
-26.6212
55.6479
53.0085
35.2319
53.2364
48.8327
22.0344
36.1759
22.3582
5.20166
22.9813
42.9068
34.1449
45.2893
38.8023
41.1424
26.6699
33.7834
17.2786
18.9016
20.8592
17.2504
-5.94071
17.1386
66.6456
16.1529
25.457
25.5838
48.4561
-54.8377
-35.1864
-41.4973
6.51725
-21.3579
6.5301
-6.67375
-6.14439
-1.43061
-12.6946
-68.9459
-46.7826
-22.4997
21.7749
-51.3984
15.9188
33.127
29.2926
-80.6256
32.3975
34.4119
-11.6952
-97.4327
-199.782
-29.6693
51.1012
-28.0191
21.2249
-4.44649
-29.0662
19.3768
9.30972
16.2999
-52.181
8.78896
25.7932
26.2065
30.7676
18.5525
62.7156
-64.2158
-19.7528
42.0985
38.2728
26.5183
28.1402
4.54462
56.1897
42.2638
60.4936
19.747
23.3369
3.45909
-11.0695
-10.6414
-57.9432
-12.3625
51.1888
-45.7672
-60.4691
59.8937
-57.5599
63.504
-165.186
36.4133
28.6456
-65.6966
-58.278
65.006
-55.8349
-29.4901
-36.0579
41.1416
49.5742
26.3181
-11.7329
-1.80044
-13.1489
-14.0706
-3.87451
26.9636
-28.8724
54.0405
16.5514
57.5074
3.30281
65.1122
-18.0558
55.9514
52.2111
-11.1654
-35.0284
50.5706
58.0893
54.3464
21.227
24.4296
22.9167
25.5528
24.0043
35.0175
24.9628
39.4708
45.056
-46.4804
32.3772
35.2129
-43.3877
-6.29594
0.133319
-3.02751
-61.9378
-22.4202
0.732954
7.67449
3.66601
33.8388
5.15221
6.75277
11.5182
-51.6327
-49.3531
-37.8961
-9.61475
-11.0209
-10.3163
-19.8868
4.98081
59.4562
18.0141
63.442
62.7425
63.7319
-2.97226
14.8356
63.7897
0.950496
51.0282
20.4547
23.4648
33.5789
-10.67
-1.15005
-3.79424
2.33854
-5.55429
-18.0808
-9.45545
-26.2504
-41.1883
-22.105
55.2454
51.2275
47.216
51.1174
21.4609
19.7667
25.9398
42.9513
32.7857
34.4555
8.18271
-24.9478
19.9006
16.9014
16.6923
21.7427
22.213
37.5139
35.623
32.2733
25.007
25.3833
34.8224
26.2916
44.9786
36.4855
-9.9992
-7.56955
-3.80488
-7.84383
-10.6103
-11.7867
19.3069
-6.92209
-2.17496
-6.0495
23.627
31.637
10.5035
27.403
21.9386
21.7793
24.6971
48.2345
-50.6841
23.5739
-47.2824
15.914
-15.3803
-16.6219
17.8368
-17.7709
-21.9853
23.0383
14.1574
6.00823
-14.4928
-15.5022
-20.2219
-10.6512
-11.9704
39.3594
-15.3467
30.8778
25.996
24.4551
38.5723
52.3764
38.3562
57.594
53.5641
34.9747
34.1784
50.8437
35.5964
32.8835
29.6911
31.2468
18.7658
27.1353
-23.0934
21.3484
20.6686
38.4792
-57.0695
-78.3786
-33.6251
12.7508
47.2982
50.9567
-51.1794
46.3981
55.469
0.842489
10.2381
9.61686
-8.29739
-27.9328
-2.44354
-3.7153
29.9597
18.5959
0.901241
-2.61076
23.5512
12.6459
16.4011
2.35658
-46.8715
25.708
28.9193
42.1532
37.5113
30.7534
39.8745
37.3106
30.9561
24.5465
26.6067
21.0076
25.0757
20.3381
18.7103
-8.59875
20.5248
23.8925
18.3026
24.0223
10.4047
31.5577
18.5478
15.0997
17.8386
0.127413
15.8441
27.7215
53.9303
44.1431
43.2611
20.9678
16.4985
26.4616
32.3792
27.9344
30.0228
33.6775
18.7344
6.45577
22.1275
16.7651
-31.9893
29.1943
-6.22404
15.0873
-3.77085
23.5814
11.713
-8.14749
-23.3979
-13.8339
-10.5435
5.59661
15.3326
21.9715
21.3712
24.9471
20.949
26.7274
25.4722
27.3017
30.1804
30.3309
34.8951
28.6028
16.2812
4.46779
9.9585
-6.71193
11.9298
-1.09656
-4.67887
-5.8956
22.7322
26.6951
7.00764
22.9441
20.3802
22.8821
23.34
48.0265
28.8533
51.6548
21.3953
23.8231
-8.99682
41.154
34.2697
52.8865
37.742
10.8548
5.22094
-8.58002
-10.6735
25.3227
20.6089
25.6645
26.3198
37.1506
60.7661
6.88592
45.4661
15.6013
46.7203
38.6906
24.1472
25.3484
18.3162
21.9933
14.5939
8.87189
-51.5734
-15.2653
-151.794
59.7454
35.01
-15.2334
5.79053
35.6808
5.60618
25.2472
26.2133
35.5778
17.7247
40.843
23.3452
23.3501
26.6354
38.6624
54.0815
62.6197
25.5331
25.2242
30.6492
16.4764
52.7169
30.1402
34.7527
-4.71491
22.7892
-20.9465
-2.40488
-11.0021
-9.42015
-45.6841
2.70426
-12.1536
-5.45183
23.1133
51.9339
64.0914
-12.5242
-14.218
-47.0786
19.7968
29.8481
-3.47351
27.9246
50.222
13.4905
19.9872
8.05799
9.17664
27.5519
5.69692
-30.3154
2.56131
25.6929
24.5988
23.6942
24.1643
16.4692
22.9705
23.1007
30.5079
36.2057
34.7695
32.049
-16.7872
53.1071
33.3986
33.7031
37.0346
3.22878
3.79021
45.44
-14.1473
-4.12071
21.371
-5.39374
-37.0916
-24.1098
-57.2932
21.8089
15.8577
11.5869
14.3402
37.7013
0.384014
9.03393
23.7486
-31.8761
-28.7619
20.7306
11.2916
13.6393
20.9065
18.9513
23.4974
27.455
58.0591
21.3237
-65.8247
17.2103
-9.55863
10.2682
-11.8982
-9.47694
-13.9494
-23.0072
-11.9054
-6.78471
-24.3525
-19.4083
-12.2412
14.8923
3.24925
-8.70369
-8.69072
43.8779
58.1963
38.8861
31.0387
25.8005
23.1123
31.9279
39.643
38.4112
21.4658
41.763
55.9834
53.0138
0.423011
-33.1572
-15.0211
-8.40691
-9.51409
32.3688
14.7485
19.5575
13.3752
32.6289
23.6803
14.7539
-6.52417
-58.9964
-78.0742
7.82593
-3.12729
38.3188
-1.07277
-52.8157
-56.6109
-8.72156
-54.7597
-27.1109
-16.4829
-24.3651
-21.0645
-19.6579
-127.019
-19.2844
-19.65
-39.2653
-50.7749
19.1572
3.34581
17.6767
22.8027
53.3356
25.6435
23.0233
44.7986
24.3862
-83.674
65.719
25.8509
63.5993
59.7151
43.7963
21.0696
6.36217
-35.7774
-9.54415
-2.78925
-16.9116
32.4661
22.8168
20.751
21.3502
48.4196
8.15771
8.18077
-98.4849
53.9421
-21.0914
2.97724
8.15164
-34.2803
4.81493
-8.11132
-7.16914
19.3964
39.2503
-33.7561
-8.57047
-25.1877
16.0133
7.00085
14.2156
16.1969
-51.1723
-19.1898
-15.7489
8.61273
-17.2936
-16.2311
7.36463
-14.8578
-16.1516
-5.33051
14.2241
4.11765
59.061
23.6176
26.6003
21.0673
40.0663
41.0017
-7.55103
55.8166
-12.6912
41.2057
31.7705
-100.51
66.5697
-2.05602
-8.219
46.4171
-6.04224
32.5392
-43.574
1.54124
-33.7714
12.6814
27.2621
-17.1456
19.6822
12.7685
5.8566
4.27715
-9.36489
17.286
27.8535
37.7114
65.5399
40.6401
35.1682
33.7953
30.0729
-25.0316
-34.1672
-62.6445
-2.33209
2.10136
-35.356
41.9911
6.87501
35.4565
16.6501
16.1602
27.5602
47.5909
51.5818
2.55626
20.4296
40.101
-8.98131
62.4111
27.599
29.3157
22.223
13.4934
24.2587
-17.6928
-5.07003
-50.422
-83.1404
-13.0701
-2.53164
-13.5401
4.51916
-22.5765
-25.8913
13.3741
11.0011
4.44013
17.6497
22.2902
22.5962
3.36959
24.7361
-16.7378
3.55564
5.17033
15.3953
12.5038
51.0621
49.6804
63.0702
38.068
48.2063
60.8942
40.5611
58.1909
45.8178
51.9744
58.7889
41.5786
65.5228
58.1104
58.8057
5.13697
55.1313
27.0919
39.647
29.1188
19.832
-51.3227
23.7106
-53.0758
16.4816
-16.0621
44.035
50.1112
44.9071
61.3563
54.2679
27.3769
31.0622
31.0055
-26.5657
62.6683
-71.4177
-53.6614
16.5836
-33.8405
31.9062
49.596
-38.1024
50.4619
-39.4284
-52.7071
21.7466
-38.0336
40.4391
40.8615
29.4396
5.87846
18.2642
-10.6913
-45.4823
-2.93119
-35.702
56.3225
-96.3315
2.8617
-10.7806
0.88459
-2.99102
34.5529
-93.1809
-34.9683
19.8956
-1.9096
22.9903
19.3565
-17.6464
62.957
61.5962
26.8845
58.5213
-30.9533
56.5665
-29.7628
-11.9156
47.901
59.0974
33.9561
-10.3447
55.4251
-77.8803
-12.8888
-17.291
47.4192
-11.5104
42.2581
21.3182
18.9234
33.7896
15.5149
63.0135
30.5015
29.5725
29.9177
33.3821
32.1661
9.60367
10.4172
9.47528
8.32894
12.1706
8.98812
24.3229
22.5686
-36.0913
-51.2711
22.7721
59.0316
15.784
11.1984
9.55948
12.9451
-15.0371
-15.9298
-21.8269
-30.7514
-8.48994
63.4446
29.896
21.1285
26.2716
18.8543
14.0393
15.8598
-6.04739
-5.79252
-8.82126
-14.4813
-67.657
16.7974
13.5254
35.499
44.2998
-25.3282
-32.9143
-47.4789
-34.5945
-42.5079
-37.4583
-39.2275
36.233
26.6834
59.9689
50.2789
10.9316
-12.2859
-71.8314
40.9064
49.7631
36.8001
63.5498
64.1203
7.3787
64.796
26.7701
39.1584
38.5377
10.2688
-15.614
-28.2463
50.9685
-101.748
-102.977
-67.0441
-21.0745
-15.1179
-44.1913
-42.7471
-43.2691
5.96575
33.3539
60.8316
62.8243
-1.05559
8.48989
11.837
-152.982
-75.9575
-102.567
20.4904
15.895
15.4978
45.1337
30.7896
53.8128
31.7612
61.2218
65.055
66.905
67.2102
-61.1899
65.7827
62.96
57.3599
29.6265
41.6639
62.8583
59.9791
46.6608
35.7434
33.1655
-10.8157
57.0556
-23.2825
23.0276
27.4496
53.9007
51.8928
34.357
49.8783
40.0706
35.5186
-18.6648
41.8046
20.5231
35.7122
19.5723
13.1623
-66.9299
-73.363
-52.7957
16.3927
-52.6673
-49.8337
27.6182
-100.06
-113.184
-73.3943
10.516
20.2542
17.9512
20.1267
17.6123
33.3162
34.5099
26.8438
24.5109
-70.9126
-15.4688
-48.4914
-30.8116
3.29892
-52.8605
19.3568
20.1682
16.6917
26.4033
36.0259
22.8863
36.5267
14.0122
25.1757
9.18723
15.5048
29.0846
16.3156
22.071
29.4835
65.5598
24.8737
20.1397
20.0935
21.6537
15.7115
11.8714
25.9353
27.4666
54.3649
40.5588
27.5054
34.227
30.8243
12.548
11.1298
-3.09912
-35.6377
-4.74775
23.3692
24.1867
22.0094
50.505
-84.3095
-127.326
-60.3039
-46.9009
3.82515
-21.4497
-10.5822
27.1157
22.5946
20.1755
16.7203
15.7963
25.7042
40.7374
8.86355
6.11997
19.8745
21.7684
14.3707
26.4611
21.468
21.5712
33.5012
22.48
19.1999
16.2999
27.2537
58.5773
31.4809
23.7711
26.301
32.0009
38.1941
36.0907
62.8821
39.3829
41.0047
45.5995
24.1659
49.4398
58.9706
54.3543
39.7918
-15.0687
-18.5879
-23.2148
-28.8189
-41.8544
-16.7571
-11.933
-36.9233
-174.957
-11.6141
-21.4662
-50.0852
-20.7862
-23.352
-16.3747
-26.2141
-46.3245
-100.591
-15.4007
-51.3023
32.0613
-21.7023
-20.339
2.0142
-0.929442
-18.28
13.7623
-16.6953
-4.40227
-11.8843
-23.0467
-3.05082
-4.86431
-11.6499
-8.36092
-12.6059
-20.4003
-24.2859
-30.0387
19.5476
22.0431
29.1495
22.1389
35.6993
24.3878
31.9507
19.1516
37.3721
36.6963
35.1559
35.0213
40.2345
30.0239
23.1978
31.1806
25.668
25.0476
-9.22506
-34.8991
47.8218
58.787
-54.8139
-48.3548
-5.63648
-50.6836
-33.6847
18.4604
22.0219
5.95086
64.2535
35.4003
-36.0904
-8.8436
10.7926
23.8322
26.4746
13.0589
-8.82346
15.9581
5.6693
17.9009
17.4802
18.4369
11.2273
11.6376
12.9685
15.3246
17.2868
41.638
26.7276
-18.5478
14.0261
-15.3591
-24.7186
-9.21931
21.9226
12.3955
5.6734
-14.221
-56.9207
-22.3748
-11.4797
8.63217
-13.2654
-114.701
-38.6332
-69.2659
-54.1455
-25.1532
21.5666
41.7236
32.4397
28.8039
59.1392
16.3815
25.2673
55.1537
49.7914
46.3124
57.3834
14.5606
17.2911
16.1466
43.2946
13.9716
52.5684
38.1407
-7.81339
-12.2153
-47.7489
-25.3244
19.5672
1.03505
25.1604
-8.35839
-19.3597
-24.4314
-48.3943
-64.1996
-40.3842
-37.3571
-29.6905
-23.6929
-29.3387
21.0122
23.4523
30.4675
20.1899
30.5323
25.585
28.107
58.9395
43.8396
21.8812
47.0024
6.21
41.2117
35.7023
-22.4433
-23.1383
1.34176
17.5749
-55.4295
-3.86002
-48.2155
4.13776
-2.01993
19.109
-12.6904
-48.3868
-24.4856
-18.3605
33.5078
42.8833
-5.70176
33.593
-15.3384
-52.0438
5.24597
17.3027
-10.1725
14.1712
-13.5155
-23.7296
-17.3979
-11.2888
-6.76758
-17.7664
-12.1718
-10.2634
-0.253552
11.5989
5.85897
16.2935
24.5992
19.9694
32.0348
17.1414
39.5495
14.0906
47.3641
1.35022
39.2056
10.333
-0.509956
-5.65084
16.5057
27.853
28.3189
33.2421
42.6415
47.7869
56.9113
36.0761
60.8791
62.8397
22.3361
18.316
-29.5305
22.6898
35.1826
-62.4898
-79.3609
-21.2478
19.5306
36.6709
38.2639
22.2012
27.0867
30.3262
23.8501
19.4258
3.77708
9.78619
21.0305
18.8151
46.4969
-0.207622
37.1934
55.1583
57.8717
54.2266
52.8283
37.2412
50.3547
50.7078
29.7171
66.8673
43.855
47.9091
55.0742
51.0961
-169.157
16.8783
-45.1308
53.031
-7.28592
-47.0032
33.0561
22.4728
-39.4498
-8.04406
32.0339
36.0746
24.6998
24.6735
19.3962
33.4027
25.0482
38.4336
16.6303
22.1584
17.1236
32.4223
51.9119
57.7454
52.0297
40.425
63.2076
56.4825
53.1033
54.887
64.4173
59.8396
33.767
39.2315
33.6888
49.1817
37.7175
15.8114
10.3456
-7.28756
3.13346
43.5521
29.2997
11.7848
4.66559
5.47318
35.6051
43.6603
23.7988
56.3384
20.5161
21.1272
-22.3783
32.9966
6.85936