/*--------------------------------*- C++ -*----------------------------------*\
| =========                 |                                                 |
| \\      /  F ield         | OpenFOAM: The Open Source CFD Toolbox           |
|  \\    /   O peration     | Version:  2506                                  |
|   \\  /    A nd           | Website:  www.openfoam.com                      |
|    \\/     M anipulation  |                                                 |
\*---------------------------------------------------------------------------*/
FoamFile
{
    version     2.0;
    format      ascii;
    arch        "LSB;label=32;scalar=64";
    class       surfaceScalarField;
    location    "0.0321319";
    object      phi;
}
// * * * * * * * * * * * * * * * * * * * * * * * * * * * * * * * * * * * * * //

dimensions      [0 3 -1 0 0 0 0];

oriented        oriented;

internalField   nonuniform List<scalar> 
7488
(
0.0119333
0.00803596
0.012923
-0.0328922
0.00118372
-0.0127522
0.00264815
0.00892032
-0.00239184
0.00330832
-0.000551908
-0.000364566
-0.0017637
-0.000730445
0.00145223
0.00104192
0.00187358
0.0018451
-0.00122599
-0.00249269
0.000948818
0.000649396
-0.000699922
-0.000898292
0.00353925
-0.00178837
-0.000502652
-0.00124823
0.00161913
-0.000570613
-0.00104852
0.0085602
-0.00177265
-0.00286592
-0.00392163
8.40591e-05
-0.000956465
0.000872406
0.005133
-0.00423985
-0.000809468
-0.0208862
0.0203441
-0.0561384
0.00878217
-0.0401319
-0.0085442
0.0398939
0.0389483
-0.010979
-0.0279693
0.00745961
-0.0057798
0.000107399
-0.00178721
-0.0149033
0.000349658
-0.00232347
0.0168771
-0.00170699
0.0148547
-0.00827609
-0.00487164
0.00179519
0.00885081
-0.0123023
0.00165626
-0.000149768
0.000130452
-0.00145657
0.00147588
0.0445596
-0.0156766
0.0397696
-0.0686526
-0.00349309
0.00323871
-0.000134133
0.000164343
-0.000881359
-0.000251003
0.000968019
-0.00172072
0.000117928
0.00173209
-0.000129302
0.0327493
-0.012176
0.018375
0.00133392
0.00207547
-0.00104778
-0.00236161
0.000106178
-0.00188103
0.0017084
6.64578e-05
0.000144049
-0.00175859
0.00190552
-0.00160247
-0.000185122
0.000423478
0.00117533
0.00030671
0.019585
0.0131643
0.0310926
-0.0278607
-0.00323194
-0.00288084
-0.000396143
0.000311013
0.00296597
0.00999263
0.0498828
-0.0287828
-0.0321531
0.0113704
-0.00981673
0.0305994
0.0113428
-0.00343296
-0.0130255
0.00511575
-0.0127586
-0.00940182
0.00236371
-0.00182677
-0.000536946
0.000103721
-0.00388261
0.00177895
0.0039666
-0.00669443
-0.00471904
0.00744687
0.00100099
0.00284122
0.0194227
-0.0232649
0.00225072
-0.000357377
-0.000752993
-0.00127841
0.00293331
0.000584485
-0.00223939
0.00103165
-0.0078071
0.000502763
0.00627268
0.0100569
0.00943101
-0.0167863
-0.00270168
0.00740176
-0.00218088
-0.0104405
0.00521962
0.000819529
-0.000771609
-0.00267527
0.00262735
-0.00322496
0.00512097
0.00300472
-0.00490073
-0.00493776
0.00519337
-0.00266525
0.00240963
6.13601e-06
-0.000331029
-0.00080038
0.00112527
0.00118918
0.00223505
0.000962793
-0.00438702
0.00109396
0.00327702
-0.000642937
-0.00372804
0.000819925
-0.00153907
0.00103348
-0.000314334
3.85154e-05
0.000212508
0.00015012
-0.000401143
0.00259312
0.00169504
-0.00074891
0.00716218
-0.000821747
-0.00295304
-0.00338739
0.00268133
-0.00215229
-0.00437341
0.00384437
-0.000566274
0.00156145
-0.00180945
0.000814276
0.00416758
-0.000902644
-0.00231088
-0.000954053
-0.00192439
0.0018896
0.000873513
-0.000838732
0.00667653
0.0110996
-0.0118665
-0.00213648
0.00290341
-1.55464e-06
0.00282608
-0.00360441
0.00102724
-0.0018241
0.002768
-0.00372367
-0.00199443
0.0029501
-0.00113317
0.000526012
0.00269678
-0.00208962
-0.000507039
-0.0039238
0.00329767
-0.000749725
-0.00201484
0.00329058
-0.00312039
0.00393453
-0.00156386
-0.0034104
0.00502869
0.00977139
-0.0113897
0.00263884
-0.00098829
-0.00210552
0.000454969
0.0142583
-0.0102565
-0.00322279
-0.000779092
0.0158676
-0.0263909
0.0169427
-0.00641937
-0.00637926
-0.00882225
0.00250192
0.0435836
-0.0106216
0.0176112
0.00815138
-0.0105549
-0.0152077
0.000106695
-0.00100934
0.00314117
0.00402957
-0.00706949
-0.000101251
-0.00131608
-0.000243851
0.000946389
0.000613545
-0.00035735
0.000485286
-0.00381317
0.00368523
0.00328045
0.000798336
-0.00777317
0.00369439
0.00190325
0.00156403
0.000596799
-0.00406407
0.000591596
-0.00168141
0.00227899
-0.00046294
-0.00205747
0.00334234
-0.00026083
0.000134615
-0.000691826
0.00081804
0.0382035
-0.0411949
-0.0210084
0.0239999
0.0116527
0.0261613
-0.0213389
-0.0270427
0.0292755
-0.0186629
0.0164301
0.02958
0.0302508
0.00307399
-0.00176221
0.000260525
-0.0015723
0.00115147
0.00932567
0.000168825
-0.010646
-0.00252398
0.00383607
0.0059446
-0.00725669
0.0014055
-0.00150897
0.000743826
-0.000640356
0.0032826
-0.0029205
0.00147931
-0.00184141
0.014598
-0.0265164
0.0119184
-0.00762326
0.000629009
0.00790138
-0.000907123
0.00104861
0.00229411
-0.0025228
-0.00965786
0.0104652
-0.00101931
0.000211918
0.00381585
-0.000156957
0.00768386
-0.000694863
0.000120863
-0.000374257
0.000948256
-0.00181768
-0.00502236
0.00916341
-0.00232337
-0.00370376
0.00309454
0.00084814
-0.000238926
0.00680555
-0.00915504
0.00677834
-0.00442884
-0.000543067
0.0017867
0.00338003
-0.00462366
0.00283446
-0.00225245
0.000812297
-0.00139431
0.00209658
0.000236975
0.000133723
-0.00246728
0.000243362
-0.00131246
0.0027484
-0.0016793
-0.00161449
0.00203699
-0.000880659
0.000458151
0.00935857
-0.00379444
0.00327454
-0.00883867
-0.00106407
0.00148078
0.00185086
-0.00226757
0.00129663
-0.0127748
0.00129881
-0.00230825
-0.000164547
-0.000975357
0.00344816
-0.000638307
-0.00190259
0.000926413
0.000630861
-0.0053359
0.00182385
0.000295445
0.00238592
-0.00331967
0.000131516
0.00745003
-0.00881205
0.00123051
-0.000340152
-0.000184134
6.97616e-05
0.000454524
-0.000717338
0.0013092
-0.000627676
-0.0129756
0.000946321
0.0149289
-0.00289968
0.00203525
-0.000561143
-6.097e-05
-0.00141314
0.000840307
-0.000347821
0.000747496
-0.00123998
-0.0231217
0.0089659
0.0158252
-0.00166937
0.000582868
-0.021529
-0.00217557
0.00944279
0.0027076
-0.0103552
0.000622661
0.00115875
0.000492338
-0.00227375
-0.000824335
0.00222055
-0.00548505
0.00408884
0.000756902
-0.000476119
0.000943612
-0.0012244
-0.00179517
-0.00257588
-0.000693843
0.00506489
-0.00194831
-0.00949213
0.0068066
0.00463385
0.00218187
0.00252096
-0.00260625
0.00124041
-0.00352552
0.00290777
-0.0012064
0.00197899
-0.0036593
0.00288671
0.00199371
0.00101134
0.00287067
-0.00587571
-0.00510235
0.0051176
-0.00824291
0.00822766
-0.00480201
-0.00463377
0.00371903
0.00571675
0.00111521
-0.000594927
-0.000125279
-0.000394999
0.000371439
0.000743766
0.000865417
0.00071373
-0.0012499
-0.000329247
-0.00121054
0.000746047
0.00275803
-0.00229354
-0.00102474
-0.00131162
0.00112582
-0.000580007
0.00146217
-0.00131664
0.000434481
-0.036762
0.0432272
-0.00855557
0.00209037
0.00410229
0.0142507
-0.02372
0.00536699
0.00165374
-0.00211785
-0.000118197
0.00058231
-0.00177611
0.00095021
0.000527324
0.000298581
0.00617335
-0.0137261
0.00377592
-0.000382875
-0.000609062
-0.000771761
0.00128091
-0.00136366
0.00285075
-0.00140799
0.0012489
-0.00252299
0.00268208
0.000907731
-0.00335672
-0.000951222
0.00340021
-0.000402939
-0.00189595
0.00320662
0.00123605
0.00029821
6.28634e-05
-0.00159712
-0.000247099
0.000124725
-0.00161418
-0.00090661
-0.000746249
-0.000731814
0.00070398
0.000774083
0.000921972
0.000287167
0.0003168
-0.00152594
0.000491878
-0.000509747
0.000939841
-0.00265385
0.00209844
0.00085085
-0.00113002
0.00103234
0.000678239
0.00100591
-0.00142796
-0.000272324
0.000163059
-0.000968688
-0.00198017
0.0046671
-0.00171823
-0.00711199
0.00401646
0.00150536
0.00159017
-0.00155306
-0.00235828
0.00246848
0.000279023
0.000378077
-0.00113762
0.000480517
0.000216257
-0.000586352
-0.000711394
0.00108149
-0.00138108
-0.00162578
-0.000716817
0.00277049
-0.00580611
0.00699338
-0.00395776
0.00781142
0.0102029
0.000339251
-0.0183536
0.000942412
-0.00786247
0.00573868
0.00118138
0.00015022
0.000235775
-0.00108707
0.000701078
0.000499735
0.000792515
-0.00220782
0.000915567
-0.00396986
0.0154338
0.00160913
-0.0130731
0.00202365
-0.00292588
-0.00940552
0.0103078
0.00443544
0.0075018
-0.0137099
0.00177263
-0.00146812
0.00176705
0.00320652
-0.00350545
-0.00608607
-0.00328716
-0.00411877
0.000888112
-0.000126062
-0.000338372
-0.000452595
0.00100644
-0.000215476
-0.00108673
0.00101335
-7.639e-05
-0.000249859
0.00267625
-0.00222121
-0.000205189
0.000198938
0.000294326
-0.000493264
0.0222617
-0.0320369
-0.00712943
0.0169046
-0.000377664
-0.000834435
0.0012121
-0.0317342
-0.00767212
-0.032001
-0.0105206
0.0231864
0.00181009
0.000779787
-6.95369e-05
-0.00252034
-0.00223361
-0.00230878
-0.000983924
0.00552631
0.00842426
0.00487748
-0.00872115
-0.00458059
0.00138408
-0.000801006
-0.001638
0.00105492
0.000533577
-0.00193497
0.00117853
0.000222864
-0.000725429
0.00142559
-0.000694025
0.00114103
-0.00268795
4.92456e-05
0.00112573
0.000273394
-0.00144837
0.00295403
-0.00471502
-0.000966868
0.00272786
-0.00117529
0.00309607
-0.00459059
0.00266981
0.0103946
0.00189249
-0.00934792
-0.00293922
-0.00156297
0.00741739
-0.00371674
-0.00213768
-0.00264465
0.0025771
0.00722972
-0.0176378
0.0025804
-0.00020564
0.00338949
-0.0014575
-0.00118594
0.00292668
-0.00567034
0.00371148
-0.000967815
0.00213281
-0.000814839
0.00130418
-0.00262216
-0.00395506
-0.000419817
0.00391546
0.000459415
0.00332653
-0.0010565
-0.00516081
0.00289078
-0.00471144
-0.000349971
0.00195513
0.00310628
-0.00109116
0.00138595
0.000819807
-0.00406905
0.00616617
-0.00291693
-0.000437818
0.00062706
-0.000189242
-0.00150746
0.00059063
0.00563438
-0.00471755
-0.0294229
0.0170705
0.00749825
0.00485419
-0.0278656
0.0073787
0.00558354
0.00196027
-0.0031867
-0.00119477
0.0024212
-0.000107342
0.00040589
0.000935598
-0.00123415
-0.00889514
0.0231944
-0.0254278
-0.00301149
0.00871703
-0.00576341
5.78825e-05
0.00115589
-0.001833
8.65217e-05
0.000590587
0.00951179
-0.0018127
-0.0049286
0.000511052
-0.00145099
-0.000713185
0.00165312
-6.2914e-05
0.00184828
-0.00218151
0.000175078
0.00114609
-0.004972
-0.00624882
-0.00443499
0.0014413
-0.00288746
0.00588115
0.0101005
-0.00958103
0.000512135
0.00178297
-0.00289269
-0.00469457
0.00580429
-7.69853e-05
0.00975546
-0.00819987
-0.0014786
0.000660071
-0.000562642
-0.000435801
0.00111991
-0.000451765
-0.000668144
0.00114199
-0.00073982
-0.00200648
0.00160431
-0.0247977
0.0208043
-0.0157324
0.0197258
-0.00241686
-0.00119337
0.00830492
-0.00469469
-0.00794427
0.00286565
0.00374028
0.00133834
-0.000650549
-0.00229554
-0.00100898
0.0230644
-0.0837144
0.0111419
-0.00250965
-0.00128064
-0.00735158
0.00382866
-0.00257736
0.00101564
-0.00226694
-0.00290492
0.00185357
-0.000473857
0.0015252
0.000896523
0.0155619
-0.0204283
-0.000914625
-0.000358172
0.000937821
0.000334976
-0.00296535
0.00397921
0.000550267
-0.00156413
-0.00359288
0.00165838
0.000547509
0.001387
0.00190777
-0.00167283
0.00315197
-0.00338692
-0.00643834
0.000694013
0.00251937
0.00537264
0.0218125
-0.0125871
-0.000100586
2.15147e-05
-0.000394212
0.000473284
0.0167724
0.00777269
0.00904024
-0.0089331
-0.00787982
-0.000821757
-5.99341e-05
0.00109795
0.00562759
0.00265722
-0.0062911
-0.00660542
0.0123543
-0.00727463
0.00152573
-0.000949251
-0.000589818
-0.00191055
0.00174279
-0.00139043
0.00155819
0.000866998
-0.000386671
-0.000480327
-0.000520322
0.00123513
0.000634057
-0.00134887
0.00427895
7.89144e-05
-0.002176
-0.00267836
-0.00130891
0.010718
-0.00673074
-0.000157311
-0.000220353
-0.000939334
-0.00178541
-0.00134046
0.0040652
0.000118841
0.00153506
0.00174762
-0.00340152
0.00376158
-0.000851498
-0.000640013
-0.00227007
-0.000775476
0.0030746
-0.00152117
-0.000777956
0.000556834
0.00200206
-0.00127455
-0.00128434
0.00134607
-0.00125263
-0.000818874
-0.00147573
-0.00401748
0.00359726
9.47907e-05
0.00108517
-0.000471123
-0.00070884
-0.00067908
-0.000124786
0.000966925
0.00566115
0.0017305
-0.00872371
0.00133206
-0.058282
0.00701785
0.0325524
0.0187117
0.00157607
0.000587768
-0.00197016
-0.000193675
-0.000995745
-0.000793377
-0.00206091
0.00385003
-0.00168187
0.00358965
-0.00123345
0.000555299
0.00103402
-0.000355868
-5.61761e-05
0.00191179
0.000277197
-0.0104413
-0.000215774
0.0162041
-0.00554705
-0.00809391
-0.000808168
0.000400663
0.00850141
0.000977921
0.00526616
-0.00267144
-0.00357265
0.00131065
0.000788354
0.0011836
-0.0138075
0.0062461
0.0033115
0.00424995
-0.0038968
0.00252827
0.00106137
0.000307161
-0.0195063
0.0144296
0.00917902
0.000698513
0.00901056
-0.00828099
-0.00142808
0.0131762
-0.00309664
-0.00464932
-0.00543023
-0.00260681
0.000933988
-0.0276017
0.0194792
0.00878406
-0.000661554
-0.00693013
0.00601622
-0.00425796
0.00517187
0.00116751
-0.0161174
0.00649348
0.00845643
-0.00969514
0.00448339
-3.28746e-05
-0.00289427
-0.00136244
0.00428958
0.0019944
-0.00220235
-0.00359941
0.00380737
0.00382663
-0.00146292
-0.00307467
0.000894892
-0.000918337
0.00309811
-0.00157684
0.00299128
-0.00208608
0.000671643
0.00632935
-0.00906994
-0.0137637
0.0165043
-0.00403274
0.00324085
-0.00356368
0.00435557
-0.00305866
-0.00277979
0.00783285
-0.0150711
0.00845062
0.036234
9.03318e-05
-0.00247808
0.00147313
0.00344611
-0.0060355
-0.00397701
0.0065664
-0.00200323
-0.000751578
-0.00408732
-0.00492513
0.010772
-0.00175952
0.000447405
-0.000294769
-0.000152635
0.000732783
0.00111956
-0.00135261
-0.000108734
-0.00069814
-0.000913041
0.00171991
-0.00317183
0.00763769
-0.0023637
-0.00210216
0.00237809
-0.00139286
-0.0142141
0.00447201
0.00312746
0.00661458
-0.00461211
0.0011487
0.00263693
0.000316376
0.0022031
0.000664097
-0.00318357
0.00656184
0.00550747
-0.0190289
0.0069596
0.0102586
-0.00821404
-0.000599322
-0.00144525
-0.00159832
0.00253519
-0.00171327
0.000776394
0.00179526
0.0016361
-0.0126377
0.00823239
0.00327159
0.00113375
0.000207402
-0.000796327
-0.000242594
0.00083152
-0.0148024
-0.00682963
-0.00181393
0.023446
0.00124949
-0.00241681
-0.0021843
0.00335162
-0.00723725
-0.00646228
0.0203358
-0.00663628
-0.00432123
0.000684206
0.00216129
-0.00505578
0.0259108
-0.0203075
-0.000547505
0.00201201
-0.000170032
-0.00167814
-0.000163842
0.0068429
-0.00282104
0.00514729
-0.00916914
0.000879214
0.00460639
-0.00430575
-0.00117986
-0.0062306
-0.00218199
0.00174558
0.00666701
-0.00119929
-0.000405956
-0.00129764
0.00290288
-0.00170098
0.000563498
0.000128633
0.00100884
-0.00185812
0.000380533
0.000747147
-0.00158023
0.00409789
-0.00252935
1.16905e-05
-0.0070347
-0.00227896
0.00302373
0.00628994
-0.00181531
-0.0015721
0.00168643
0.00094627
-0.00080669
0.00170993
-0.00184951
0.000875658
-0.00822145
0.0107214
-0.00337559
0.000563976
-0.00025492
-0.0010553
0.00370056
-0.000994863
-0.00308925
0.000383545
0.0197812
0.00886837
-0.0319662
-0.0105131
0.0102972
0.00484334
-0.00462748
-0.0374755
-0.00371143
0.0141442
0.00595172
-0.0197734
0.0150054
0.00128331
0.000344014
0.00175922
-0.00338654
-0.000245982
7.36185e-06
0.00023862
0.000340983
-0.000588038
1.07251e-06
-0.000120173
-0.00010556
0.000225733
0.00111482
0.000222577
0.000236961
-0.00157435
0.000547239
-0.000447404
-9.98347e-05
0.00702409
-0.00682187
0.00635963
0.0120801
-0.00707866
-0.00949601
0.00449454
0.00417745
-0.00471885
8.63703e-06
0.000532763
-0.0018768
0.00185159
-0.0340288
0.034054
0.000585907
0.00019861
-0.000432641
-0.000351875
0.00318492
0.00110366
-0.00317376
0.00234112
-0.00069245
0.00153625
0.000465734
0.00481285
-0.00247173
0.00014226
0.000404979
0.000184673
-4.24136e-05
-6.01589e-05
0.000401142
0.00235718
-0.00576758
0.00373332
-0.00197495
0.0024811
-0.00423947
0.0060905
0.00134477
-0.00331972
0.00398891
-0.0171473
-0.0071078
0.0300996
-0.00525472
-0.017737
0.00149277
0.0024087
-0.00760756
0.00370609
-0.0241977
0.00751152
0.032287
-0.0156009
0.0101276
-0.0123378
0.000450368
0.0119171
-0.000946414
-0.0156053
0.00463458
-0.00317232
0.00433141
-0.00169563
0.00299203
-0.000231324
-0.000636908
-0.0021238
-0.000307702
-0.00285548
-0.00209668
0.00525987
-0.0153964
0.00277167
0.00417731
0.00844746
0.000707405
-0.0065024
-0.00532948
-0.000108207
0.00988479
-0.0130016
0.00322499
0.0108299
0.0102143
0.00291999
-0.0239642
-0.000423427
0.00147035
0.0125456
-0.0135925
0.00176119
0.000540785
-0.0012491
-0.00105287
-0.00286437
-0.000994144
0.00473632
-0.000877807
-0.0012676
-0.00370469
0.00242284
0.00254945
0.0031873
0.00132269
-0.000332541
-0.00399791
0.00150113
-0.00155339
0.00405017
0.00549682
-0.0013459
0.00536086
-0.000213183
0.00110732
-0.000690364
-0.000203778
-0.00251842
-0.00478955
0.00501745
0.00229051
-0.00895972
0.00336363
0.00895834
-0.00336225
0.00857935
-0.0126595
-0.000536457
0.00461657
-0.00218981
0.00154104
0.000654346
-5.57514e-06
0.000784986
-0.00145408
0.000159979
-0.00993116
-0.0185683
0.00311341
0.00502512
0.0104298
-0.00297456
0.00417836
0.000359625
-0.00156343
-0.00882588
-0.00920566
-0.00192307
0.00334132
0.00673076
-0.00877945
-0.00129264
0.00319743
0.00930662
-0.00146056
0.00228009
-0.0142807
-0.00750348
0.00414639
-0.00210219
-0.000710924
-0.000152233
-0.00485831
0.00267176
-0.00224845
0.00618515
-0.0126405
-0.00796012
-0.00397711
-0.00401205
-0.00936756
0.0173567
0.000407393
-0.000660661
0.000821005
-0.000567736
0.0445109
-0.0207285
-0.00480558
0.00647868
0.00343562
-0.00310875
0.011744
0.0644306
0.00414655
-0.0142673
0.0323824
0.0106238
0.00496982
-0.0112288
-0.00436476
-0.00332504
0.00212013
-0.00182867
0.00303358
0.00721255
-0.00233143
-0.00565088
-0.000935338
0.0016668
-0.000463786
-0.000267674
0.000559542
-0.000169825
0.00118635
0.000782968
-0.000725733
0.000699667
0.00234353
0.00891667
-0.00211032
-0.00914988
0.0154564
0.0240656
-0.0124756
-0.0270464
-0.0437391
0.0201297
0.0480511
-0.00349593
0.0116079
0.00184465
-0.00995664
-0.00336378
0.00259747
0.00153265
-0.000766345
-0.00156442
0.00729441
-0.0016302
-0.00409978
-0.000876792
0.000194072
0.00170206
-0.00101934
-0.00420432
-0.00835
0.00560009
0.00695422
-0.00756305
0.00499767
0.00149118
0.0010742
0.000914972
0.00613753
-0.00182437
-0.00522814
0.0063505
-0.000740904
0.000247189
0.00327651
0.00216039
-0.00568409
-0.0102218
-0.0289781
0.0337915
0.00540838
0.00189073
0.0106908
-0.0218186
0.00923706
-0.0274466
0.0176737
0.0386732
-0.0289004
-0.0028119
0.00158741
-0.00236839
-0.000614575
0.00218072
0.00554765
-0.0044491
-0.00607591
0.00497735
-0.0170081
0.00417462
0.020165
-0.00733149
0.00245497
-0.00301187
-0.000536482
-0.0140533
-0.00705475
0.0140002
0.0525841
-0.0476227
-0.0390719
0.0341105
0.0516817
0.0383059
-0.0018871
-0.00123194
0.000929235
0.0223017
0.0133869
0.0111249
-0.00263208
-0.002421
-0.00607186
-0.0102719
0.00600035
0.000947822
0.0033237
-0.00195066
-0.00627846
0.000740963
0.00748816
-0.00088009
0.00528853
-0.00741993
-0.00187994
-0.00311371
-0.0115555
0.0486742
-0.0426123
0.0054935
0.00257635
0.00377415
0.000894812
0.00697304
0.000849169
-0.00146748
-0.00249173
0.00250766
0.00145155
-0.00293959
0.00174829
0.000155031
0.00103627
-0.000773085
0.000361044
0.000412041
0.0244587
-0.00616187
0.00565128
-0.0239481
-0.000140499
-0.000426249
-0.00192509
0.00249184
0.00380477
-0.000108048
-0.0028924
-0.00080432
0.000174997
-0.000779856
0.000755079
-0.00241106
0.00596006
0.000907345
-0.0177207
-0.00287798
0.0078239
-0.00702453
0.000448533
-0.0212896
-0.000979076
0.00063886
0.000340217
-0.00321873
0.00398414
-0.00299902
-0.0464518
0.0797393
-0.0557742
0.0018961
-6.25598e-05
-0.000993235
-0.0331126
0.00651188
-0.00221435
-0.000149337
-0.00224843
-0.0016555
-0.00121502
-0.0171901
0.00442009
0.0162563
-0.00348625
-0.0184021
-0.00569299
0.0174278
-0.0194836
0.0365329
-0.0231176
-0.0451494
-0.000707928
-0.00153307
-0.0622752
0.0492952
0.0352817
-0.0045104
-0.00260219
6.01632e-07
-0.00361814
0.00424555
0.0057107
-0.0063381
0.00283424
-0.00181734
0.00625643
-0.00727333
0.00984246
-0.0112894
-6.05132e-05
0.00147282
0.00112313
0.000441853
-0.0030378
0.00113252
-0.00427276
0.00232125
0.000818992
0.00212384
0.00247674
-0.0159647
0.0113641
-0.0164466
-0.00976886
0.0176554
-0.00581205
-0.00619596
-0.000988747
0.0129968
0.0229934
0.00168037
-0.00489249
0.0170126
0.00901752
0.00338116
-0.000871084
-3.98095e-05
-0.00247027
0.00321945
-0.00460884
-0.00261729
0.00400668
-0.00688453
-0.00105015
0.00176507
0.0061696
-0.00312004
-0.00329781
0.00640758
1.02783e-05
-0.000866402
-0.00453213
0.0154555
0.00601972
-0.0127585
-0.00589893
0.00631598
-0.00635381
-0.0128454
-0.00219193
0.0094745
0.00556285
-0.023094
0.0267062
0.0229805
-0.0265927
-0.00280669
0.00103005
-0.0059284
0.0218332
0.0117072
-0.0117223
0.00266118
0.00185892
-0.00172702
-0.00695959
0.00148464
-0.00187319
0.000359687
2.88654e-05
0.00207768
0.000930915
-0.00525591
-0.00282717
0.00184095
0.000930047
-0.000902891
0.00110578
0.00157596
-0.00177885
0.00289995
-0.00166871
0.000228917
-0.00146016
-0.000505814
0.00219262
0.00100997
-0.00348976
-0.000165638
0.00141281
0.00224259
0.00774675
0.0096778
-0.00744978
-0.00579786
-0.00853981
0.0217874
-0.0122139
0.0193317
-0.0145675
0.000697511
-0.00687177
0.0012365
0.00168028
0.000588271
-0.004917
0.00264844
-0.00108776
-0.00218722
0.0029291
0.000345891
0.00216129
-0.00445353
0.00397252
0.00275431
-0.00405112
0.0031259
-0.0018291
-0.00309294
0.000918556
0.00159054
0.00058385
-0.00018134
0.00247187
0.000986489
0.00106982
0.00164879
-0.00335388
-0.00142104
-0.000992655
-0.00109854
0.00301081
0.00521588
-0.00712814
-0.00310589
-0.00423028
0.00832156
-0.000985398
-0.0106561
-0.00570514
0.00740157
0.00392002
0.0106034
-0.00596321
-0.00019975
0.00136687
-0.000858118
-0.000309004
0.000461541
-0.00214553
-0.000418199
0.00159631
-0.00113477
0.000626384
0.00169516
-0.00243974
-0.000207343
0.000299089
0.000834055
-0.000925801
-0.000131265
0.000653591
0.000929899
-0.0010702
0.00054997
0.00171378
-0.00119355
-5.95623e-05
0.00080243
0.00125472
-0.00190426
0.000649539
-0.000983613
0.00805561
0.0013243
-0.00183173
0.000507435
-0.000406364
0.000761756
-4.74933e-05
0.000239528
0.00148174
0.00148628
0.00093971
-0.00147796
0.00244661
0.000312258
0.00179034
-0.00218527
0.000249979
0.000144954
-0.00064804
0.00026939
0.000209376
0.000169274
0.000464735
-0.000261566
0.000273063
-0.000476232
0.00196311
-0.00309327
-0.00367321
0.0087496
0.00378532
-0.00740572
-0.00127396
0.00489437
7.56582e-05
0.00354613
-0.00336916
-0.00025263
0.0247636
-0.0285755
-0.00640995
-0.00250919
-0.0023321
-0.00219341
-0.00214081
0.00325394
-0.00362232
0.00208165
-0.00229648
-0.0018
0.00228561
-0.000884793
0.000680827
-0.00832405
0.00476935
0.0161948
-0.0126401
0.00775553
0.00262793
-0.0187075
-0.0066829
0.0168249
-0.00306871
0.00318688
0.00121485
-0.00133303
-0.000997096
-0.000679277
0.00167637
-0.000652504
-0.00231323
0.00196864
-0.00191174
0.0017603
-0.00052784
-0.00055161
-7.20106e-05
-0.00244509
0.00201975
-0.0060467
-0.000933465
0.00496041
0.00934094
0.00456531
-0.0108883
-0.00301797
-0.00269572
0.0128991
-0.000862404
0.0190681
-0.015576
0.00107321
-0.00303492
0.0148271
0.00727601
-0.0166133
-0.00393757
0.0249709
0.00407765
-0.00381251
-0.00216007
0.00189492
0.020675
0.00884346
-0.0192606
-0.0102579
0.0149822
-0.00452882
1.10243e-05
-0.000439676
0.000181097
0.00264666
-0.00238808
-0.00108803
0.00020825
0.0027162
-0.00183641
-0.000695099
0.00161908
0.000687586
-0.00171482
0.00232028
-0.00129305
-0.00221586
0.00221639
0.00433082
-0.00433136
0.000423695
-0.000740876
0.00181831
0.0035818
-0.00988995
-0.00715526
0.0134634
-0.00315286
0.016148
-0.00941339
0.00890739
-0.00787985
-0.00883464
-0.00115215
0.00825463
-0.00563312
-0.00146936
-0.00278765
-0.00120581
0.000659966
0.00333349
-0.00154544
0.0033946
-0.00463681
0.00523262
-0.00443322
-0.0032056
0.0024062
-0.00179864
0.000611536
0.00184532
-0.000658215
0.00198885
0.00133966
-0.00744729
0.0057706
-0.00718925
0.0116773
-0.00921817
-0.00262733
0.000673777
0.0111717
-0.0127522
-0.0056393
0.0152387
-0.0108708
0.00121555
0.00958585
-0.00606846
-0.00473294
0.00255911
0.00158796
-0.0041788
-0.000272872
-0.00367855
0.00454205
0.00303977
-0.000886931
0.000921154
-0.0010681
-0.00926074
0.0134753
-0.00314642
-0.000660727
0.000253633
0.000630461
-0.000223367
0.00498896
-0.0071085
0.00325206
-0.000788004
-0.00077615
0.00304346
-0.00339017
-0.00444544
0.000720617
0.00711499
0.000353806
-0.00126215
0.00119413
0.000216414
-0.000717236
-0.000693307
-0.00115772
0.00048784
0.0015353
-0.00942625
-0.00308105
0.00911713
0.00692089
0.00257408
0.000176844
-0.00967182
-0.00653678
0.00403142
-0.000152564
3.08727e-05
0.000688299
-0.000566607
0.00570609
0.00248567
0.00258929
-0.00268681
-0.000613408
-0.00157904
0.00186948
0.00117243
-0.00146286
-0.000963339
-0.00136636
0.00112854
0.00120116
-0.0123855
0.0166074
-0.0052547
0.00103287
-0.00335306
0.0015355
0.000207489
0.00161006
0.00236195
0.00084242
-0.00162386
-0.00158051
-0.000521158
0.0001225
-0.00213394
0.0025326
-0.000379064
0.000324749
-0.00039828
0.00115347
-0.00114583
-0.000894899
0.000887251
0.00422437
-0.00891223
0.00193767
0.00275019
-0.00745712
0.00371043
0.00797106
0.000545981
-0.00870745
-0.000750766
-0.00896568
0.00909493
0.00724946
0.00476633
0.0164429
0.0034324
-0.000115792
-0.00815878
0.000817455
-0.00129998
0.00154285
-0.000342922
0.000100054
-0.000285369
-0.00144415
0.00103138
-0.000825446
0.000728912
0.000434393
-0.00033786
-0.00050168
0.00034269
-0.000666455
0.00198012
-0.00137278
-0.00195738
0.00135004
0.000108084
0.00106678
-0.000657413
-0.000517447
0.00450452
-0.00316306
-0.00432286
0.0029814
0.00336826
0.00553351
-0.00946715
0.000565371
-0.00198609
0.00268605
-0.00152171
0.0126838
-0.0282109
0.0182112
-0.00268412
-0.0140973
0.0360749
0.00579168
-0.0277693
-0.0119307
-0.00018325
-0.00034784
0.00738135
-0.00256284
-0.00447068
0.00715822
0.00368463
-0.00467275
-0.0061701
0.000506507
-0.00219254
-7.42459e-05
0.00176028
-0.00315567
0.00413585
0.000302228
-0.0012824
0.000982213
0.00272345
0.00364115
-0.00734681
-0.00437978
0.00153455
0.00600085
-0.00391646
0.0113613
-8.11338e-05
-0.00727158
-0.00400855
0.000141735
-0.00781535
0.00295476
-0.00179504
0.0063747
-0.00503861
0.000458958
0.00104854
-0.017742
0.00625213
-0.00354539
0.00167404
-0.00279991
0.00477098
-0.0010561
0.00322618
-0.00149478
-0.0113571
0.00962568
0.0048234
-9.53072e-05
-0.0118381
0.00710998
0.00170431
-0.00119782
0.00869589
-0.00744181
-0.00508343
0.00382934
0.00219173
-0.00697903
0.00124192
-0.00714066
0.00831318
-0.00697038
-0.001274
0.00587214
-0.0117388
0.00381305
0.000412673
-0.00297754
-0.00124818
0.00243146
0.00789847
-0.00277507
-0.00755485
-0.0455431
0.0533407
-0.00515343
0.00747425
0.00598545
-0.00830627
-0.00132352
0.00089326
-0.000161211
0.000591472
-0.00787664
-0.00420131
-0.00338525
-0.00245496
0.00165681
0.00175757
-0.000959426
0.000461713
-0.00340612
0.00102002
0.000455289
0.000709212
-0.00150947
0.000344965
-0.00253039
0.00181712
0.00117498
-0.000734182
0.00217554
-0.000753774
-0.00410856
-0.00502131
0.0107274
-0.00159751
-0.00250609
-0.000198848
0.00154935
0.00115558
-0.0025712
0.00057438
0.00108067
-0.00514082
0.00269649
0.00196793
0.00799805
-0.00529463
-0.00467135
0.00175583
-0.00132919
-0.00456201
0.00771551
-0.00816593
-0.00999626
0.00641322
0.0145807
-0.00274683
-0.00411833
0.000787699
0.000517406
0.000450723
0.000418228
-0.000426856
0.0425683
-0.0577104
-0.0168713
0.0320134
-0.00966306
-0.0140018
0.00651502
0.0171498
-0.00380564
-0.00233544
-0.000576583
0.00158283
0.000284026
-0.00144112
-0.00136783
0.00252492
-0.00282072
0.000703114
0.00335801
1.17004e-05
0.00226052
-0.000802332
0.000634009
-0.00127335
-0.0183981
-0.00925937
-0.00317827
0.00138568
0.000421147
0.00137144
-0.0186337
0.00931204
0.022102
-0.0127804
0.00384205
0.0024841
-0.0282119
0.0218858
-0.00308535
-0.00307017
0.00297725
0.00167519
0.00048697
-0.00538089
-0.00771415
0.00662551
-0.00316236
0.004251
-0.00368316
0.00226038
0.000869936
0.000552844
0.00481685
0.00197437
-0.00124357
0.0041597
-0.0087547
0.000145902
0.00066318
-0.000795157
-0.00522013
0.0053521
-0.00357307
0.00326315
-0.00744035
0.00775026
-0.00131257
-0.00174596
-0.00326323
0.00318809
-0.00210706
0.0021822
0.00401517
-0.000792282
-0.000986687
-0.0022362
-0.00443362
0.00157179
0.000752573
0.00210926
-0.00200295
-0.00155023
0.00551345
-0.000475619
0.000770498
0.00858584
-0.00888072
0.00225484
0.00567728
-0.00881221
-0.00603724
0.0259952
0.0281366
0.00721953
-0.0013438
4.08792e-05
0.00642082
-0.0051179
0.000772874
0.000828318
0.000913661
-0.00251485
0.00219709
-0.00262976
0.000105449
2.05887e-05
-0.000416542
-0.00156007
0.00195602
0.000792049
-0.000336029
-0.00139136
-0.00411322
-0.0020484
0.00581378
-0.00487417
0.00811042
-0.00734947
-0.0111971
-0.00149042
0.00781338
-0.0168955
-0.0277223
0.0167571
-0.00850478
0.00150292
0.00263434
-0.013009
0.00716455
0.00321007
-0.00942905
-0.00703189
0.00859847
0.0108858
-0.00186409
-0.0165956
-0.00586147
0.00694622
0.00357462
-0.00465937
-0.00314238
-0.00290711
-0.00314175
0.00919123
-0.00582796
0.000840096
-0.00599922
0.000485094
0.00852721
-0.00301308
0.00280571
0.00163187
-0.00190932
0.00126615
0.000254221
-0.00222579
0.000705416
-0.0108032
0.0160113
0.00562177
0.00267992
0.00967218
-0.00424801
-0.00810409
0.00420014
0.0122158
-0.0112856
-0.00513027
-0.00809901
0.00728162
0.00383496
-0.00301756
0.0114233
-0.00265683
-0.00456637
0.00345395
-0.00801531
0.0040741
-0.00117531
0.00230188
-0.00520067
-0.00524027
0.00165262
0.00509102
0.00246183
0.000170546
-0.000613715
-0.00201866
0.000978548
0.00106806
0.00041522
-0.00154587
0.001737
-0.00341482
-0.00539344
0.00577838
0.00302988
0.00674789
-0.00370523
-0.00442373
-0.00537226
-0.00794734
0.00921104
-0.01022
0.00786053
-0.00105538
-0.00582613
-0.000586828
0.00988363
-0.0318249
0.0103909
0.0198659
0.0306411
-0.0251412
-0.0253658
0.00186536
0.000274838
-5.44566e-05
-0.00208574
-0.00728212
0.00656343
0.0140271
-0.0133084
-0.00416139
0.00850607
0.00612057
-0.00565842
0.0116866
0.000594224
-0.00662244
-0.00749253
-0.00522203
0.00375017
-0.0155958
0.0156411
-0.00379549
0.00259701
-0.00117585
-0.00255693
0.00113577
0.00202526
0.00123074
-0.000912791
-0.0407736
0.0620305
0.012004
0.00313496
-0.0299413
-0.00398727
0.0111937
-0.00807279
-0.0332389
-0.00458748
0.0309968
0.0282558
0.0173889
-0.0336408
-0.000873083
-0.000367167
0.000652212
0.0424296
-0.0150866
0.0101006
-0.0176346
0.010669
-0.00523423
-0.0108604
0.016631
-0.0135402
0.00462409
0.0168364
-0.0173566
-0.00401189
0.00158108
0.000267931