/*--------------------------------*- C++ -*----------------------------------*\
| =========                 |                                                 |
| \\      /  F ield         | OpenFOAM: The Open Source CFD Toolbox           |
|  \\    /   O peration     | Version:  2506                                  |
|   \\  /    A nd           | Website:  www.openfoam.com                      |
|    \\/     M anipulation  |                                                 |
\*---------------------------------------------------------------------------*/
FoamFile
{
    version     2.0;
    format      ascii;
    arch        "LSB;label=32;scalar=64";
    class       volScalarField;
    location    "0.0625936";
    object      k;
}
// * * * * * * * * * * * * * * * * * * * * * * * * * * * * * * * * * * * * * //

dimensions      [0 2 -2 0 0 0 0];

internalField   nonuniform List<scalar> 
3989
(
0.366887
0.325699
0.309818
0.309835
0.317022
0.32079
0.356128
0.309596
0.363341
0.30986
0.378401
0.350679
0.364683
0.364462
0.341347
0.318685
0.368709
0.314943
0.348638
0.31354
0.355353
0.335036
0.313233
0.30621
0.316757
0.323499
0.337236
0.362698
0.343341
0.364887
0.354041
0.333163
0.330427
0.366223
0.361489
0.361599
0.360299
0.314303
0.353851
0.337131
0.310725
0.357976
0.365297
0.360532
0.348682
0.361899
0.352159
0.354514
0.36937
0.3226
0.307935
0.362569
0.357566
0.365695
0.310884
0.357615
0.352217
0.314751
0.361928
0.326839
0.318903
0.373941
0.549738
0.782477
0.323973
0.371308
0.318943
0.314093
0.311029
0.314964
0.383809
0.319614
0.315223
0.315462
0.311512
0.311893
0.316794
0.322044
0.313279
0.31721
0.314237
0.360277
0.32659
0.314259
0.318044
0.385664
0.316147
0.364437
0.3096
0.357611
0.31531
0.355249
0.364514
0.310534
0.349737
0.320451
0.315454
0.321055
0.317279
0.311306
0.356383
0.355183
0.363124
0.377801
0.312797
0.369613
0.307745
0.348598
0.35767
0.335765
0.312303
0.344993
0.333896
0.336719
0.350193
0.333235
0.327537
0.315748
0.363306
0.375393
0.332974
0.365736
0.320726
0.362383
0.320984
0.315037
0.347017
0.313052
0.369515
0.320389
0.32869
0.378946
0.340266
0.381508
0.375569
0.375026
0.351696
0.352418
0.360588
0.342761
0.354508
0.325187
0.299046
0.368557
0.363677
0.353834
0.3415
0.309103
0.334428
0.31517
0.309863
0.342113
0.337764
0.349149
0.381369
0.365461
0.310591
0.307965
0.343
0.3768
0.366857
0.310069
0.360763
0.373542
0.372769
0.328914
0.311797
0.3635
0.321817
0.307049
0.306625
0.357148
0.371229
0.308728
0.327293
0.30523
0.352845
0.309199
0.363389
0.316117
0.344338
0.311816
0.355828
0.31765
0.368862
0.322078
0.3193
0.328309
0.32954
0.366938
0.307527
0.319975
0.336999
0.386304
0.31044
0.402829
0.80102
0.327136
0.315744
0.313283
0.371747
0.363526
0.38816
0.35934
0.379489
0.359142
0.352577
0.360613
0.366416
0.372397
0.353205
0.394223
0.393876
0.311942
0.31305
0.769994
0.388944
0.348712
0.354559
0.34905
0.310234
0.307835
0.359413
0.32048
0.375978
0.314711
0.314345
0.320058
0.347273
0.311667
0.361551
0.372095
0.327817
0.325868
0.362907
0.400064
0.378092
0.350215
0.347531
0.307164
0.32434
0.361543
0.362926
0.387721
0.379196
0.324885
0.377901
0.360547
0.35707
0.349944
0.377895
0.317161
0.365125
0.360615
0.372717
0.353678
0.371906
0.353327
0.309723
0.31172
0.304577
0.308906
0.329365
0.305093
0.323562
0.339032
0.310053
0.375151
0.366348
0.358122
0.363996
0.373331
0.374644
0.311748
0.355913
0.316981
0.377362
0.363154
0.302519
0.349037
0.321004
0.313632
0.335556
0.312826
0.31182
0.311753
0.315245
0.37297
0.369488
0.352698
0.374528
0.373241
0.36828
0.308413
0.329572
0.346112
0.313205
0.329445
0.453329
0.396653
0.303921
0.391258
0.379799
0.347369
0.382514
0.375218
0.312122
0.353039
0.353624
0.364427
0.311116
0.312552
0.398013
0.438598
0.359951
0.374465
0.316718
0.30588
0.304613
0.307323
0.324673
0.318745
0.313002
0.309807
0.322636
0.342673
0.341255
0.348238
0.334446
0.307033
0.31105
0.315131
0.342122
0.3118
0.317308
0.317101
0.308118
0.313057
0.374182
0.362235
0.395193
0.325237
0.323983
0.316073
0.315363
0.333732
0.547328
0.369858
0.306887
0.305634
0.317674
0.305738
0.305085
0.31243
0.307134
0.344086
0.325971
0.317601
0.859893
0.335006
0.309336
0.340446
0.323624
0.584413
0.397591
0.331975
0.320898
0.324857
0.316146
0.343517
0.323769
0.309164
0.373856
0.32422
0.30952
0.314601
0.310214
0.316839
0.307278
0.309717
0.375501
0.360508
0.351549
0.365715
0.351877
0.327205
0.326702
0.386906
0.3353
0.365433
0.321903
0.351881
0.360475
0.371713
0.338348
0.308956
0.359561
0.377037
0.338761
0.300351
0.324563
0.321785
0.363187
0.375888
0.357434
0.309312
0.30755
0.453992
0.31227
0.348119
0.305567
0.37771
0.329944
0.847075
0.328396
0.424233
0.316481
0.320613
0.317287
0.307014
0.80668
0.356432
0.36205
0.788452
0.309691
0.31845
0.312139
0.466175
0.331749
0.319816
0.303879
0.31467
0.310272
0.309663
0.536023
0.315769
0.364328
0.373676
0.316792
0.312699
0.310016
0.336955
0.328047
0.374407
0.358238
0.313452
0.354891
0.320038
0.381688
0.361453
0.315667
0.314272
0.314432
0.308878
0.360681
0.303223
0.378997
0.3632
0.310372
0.308981
0.300454
0.357708
0.38187
0.363498
0.380901
0.362408
0.359925
0.376188
0.391909
0.3552
0.366079
0.383198
0.360234
0.37963
0.310555
0.362629
0.329956
0.391895
0.381973
0.360692
0.381056
0.323565
0.355535
0.323958
0.310636
0.369902
0.359574
0.381811
0.319944
0.30937
0.363594
0.310291
0.347382
0.316131
0.340811
0.322047
0.302126
0.307243
0.314579
0.332686
0.314036
0.321262
0.304448
0.307512
0.327851
0.379494
0.349139
0.321914
0.336758
0.353838
0.307611
0.37508
0.373656
0.310785
0.323032
0.367921
0.338198
0.307213
0.347088
0.308367
0.305655
0.31357
0.357413
0.324489
0.361496
0.307305
0.315089
0.343001
0.304267
0.311605
0.327937
0.314518
0.348957
0.31303
0.309831
0.324915
0.325863
0.317217
0.337473
0.320397
0.350449
0.334612
0.347439
1.06975
0.943573
0.310678
0.320959
0.317729
0.326774
0.310886
0.311593
0.333349
0.340059
0.326037
0.308342
0.299739
0.325593
0.303776
0.312249
0.308315
0.340331
0.365882
0.307055
0.323325
0.30912
0.31073
0.32095
0.32871
0.302982
0.304095
0.309589
0.316701
0.33294
0.419743
0.311354
0.311993
0.309985
0.304399
0.316036
0.336584
0.310596
0.312831
0.311626
0.357142
0.330122
0.311006
0.313893
0.306959
0.312448
0.314432
0.308336
0.314595
0.314306
0.722339
0.756844
0.339119
0.369388
0.341645
0.354983
0.347487
0.319902
0.319751
0.317066
0.336648
0.307681
0.358346
0.307993
0.316452
0.300484
0.369378
0.343533
0.34929
0.366972
0.312806
0.323672
0.306923
0.341429
0.341501
0.317803
0.350475
0.332333
0.309627
0.309189
0.339253
0.310213
0.322672
0.310195
0.319275
0.371571
0.375793
0.328288
0.351334
0.355396
0.33256
0.369109
0.35412
0.368351
0.337561
0.358741
0.369818
0.336475
0.371197
0.306263
0.336715
0.333851
0.324245
0.358275
0.362051
0.344218
0.321402
0.330976
0.310263
0.332757
0.315646
0.351185
0.357843
0.36865
0.313772
0.340619
0.349488
0.363508
0.333894
0.302529
0.321225
0.318137
0.333197
0.329369
0.325169
0.353725
0.311624
0.313179
0.335856
0.341148
0.315864
0.309517
0.305131
0.331331
0.334717
0.362866
0.349158
0.343966
0.316098
0.317024
0.313076
0.315607
0.313765
0.313713
0.357259
0.320442
0.326951
0.321624
0.30942
0.318065
0.36035
0.33627
0.306635
0.339444
0.353288
0.314435
0.313173
0.354054
0.311952
0.36037
0.311283
0.337089
0.325928
0.320642
0.33354
0.310757
0.335178
0.36299
0.343941
0.309483
0.31034
0.347572
0.377869
0.313732
0.309729
0.387347
0.308659
0.336838
0.30361
0.349965
0.336563
0.329812
0.349985
0.308394
0.3201
0.319986
0.315686
0.346829
0.309817
0.309724
0.30919
0.310997
0.313529
0.320557
0.315937
0.310759
0.308625
0.31014
0.310835
0.371309
0.329391
0.521668
0.315305
0.31367
0.493056
0.312168
0.336547
0.337152
0.311828
0.307606
0.335378
0.556607
0.76507
0.856247
0.340854
0.309039
0.306059
0.310709
0.31195
0.309955
0.363181
0.358684
0.369619
0.30841
0.343133
0.349906
0.363335
0.345623
0.343395
0.357398
0.324431
0.31617
0.355932
0.325026
0.314231
0.371298
0.371063
0.308719
0.335959
0.3533
0.307752
0.336417
0.314732
0.306595
0.321564
0.310577
0.333884
0.3076
0.30648
0.331359
0.332434
0.310991
0.311563
0.317256
0.313499
0.364999
0.314312
0.346062
0.360349
0.35157
0.33705
0.307304
0.31062
0.310301
0.309736
0.299192
0.300561
0.301609
0.302331
0.312854
0.35482
0.354101
0.365159
0.3844
0.374416
0.378318
0.320162
0.322171
0.340287
0.341168
0.314365
0.362166
0.366386
0.312054
0.319849
0.306877
0.339631
0.305648
0.328266
0.307706
0.304225
0.320082
0.311306
0.305606
0.304272
0.314273
0.311087
0.312711
0.312564
0.439922
0.376093
0.314
0.31251
0.308855
0.356037
0.338751
0.308778
0.31118
0.315314
0.348497
0.320443
0.312264
0.311919
0.317414
0.317283
0.305275
0.33456
0.298124
0.305031
0.315342
0.314881
0.312512
0.313424
0.313757
0.594763
0.426036
0.310686
0.322055
0.423431
0.329542
0.376525
0.425204
0.312819
0.339928
0.324904
0.346548
0.335469
0.312071
0.654878
0.307999
0.308108
0.463031
0.340505
0.308215
0.314649
0.326191
0.32067
0.324078
0.310079
0.309434
0.309821
0.321301
0.315563
0.315256
0.355236
0.308857
0.301869
0.433031
0.309792
0.390783
0.308932
0.310658
0.383124
0.769755
0.518572
0.709159
0.828668
0.528296
0.326431
0.32569
0.319097
1.00019
0.776849
0.317756
0.368414
0.343582
0.784069
0.371322
0.404541
0.310843
0.334124
0.32363
0.328546
0.308984
0.316803
0.321188
0.317787
0.425132
0.320029
0.323507
0.314324
0.3105
0.299741
0.32322
0.336805
0.312864
0.343501
0.76624
0.788108
0.343308
0.355072
0.325382
0.441615
0.31105
0.310998
0.34029
0.316666
0.327559
0.305343
0.326136
0.344242
0.376091
0.324834
0.311882
0.312481
0.317937
0.328637
0.311888
0.307818
0.316168
0.318736
0.31597
0.311143
0.343497
0.316841
0.354017
0.368918
0.309068
0.302485
0.309853
0.360162
0.368458
0.388132
0.337483
0.368967
0.369073
0.301933
0.303022
0.313475
0.363644
0.303764
0.305205
0.340876
0.318163
0.311987
0.370053
0.30203
0.30794
0.313688
0.307121
0.309696
0.301788
0.348175
0.301472
0.308237
0.36912
0.339843
0.308535
0.311331
0.312596
0.309455
0.362406
0.333797
0.33222
0.323566
0.310932
0.304542
0.309039
0.309944
0.304195
0.338648
0.324735
0.335516
0.332359
0.307766
0.342029
0.304207
0.303249
0.301404
0.307913
0.305756
0.305525
0.306062
0.310498
0.318251
0.312828
0.315082
0.316147
0.316045
0.317451
0.302418
0.357856
0.340238
0.30728
0.306691
0.300172
0.304473
0.308725
0.313586
0.318941
0.317438
0.318484
0.327944
0.331713
0.337203
0.340034
0.310722
0.342786
0.335136
0.310326
0.31119
0.370556
0.30691
0.305282
0.303872
0.307381
0.306146
0.3658
0.352588
0.308848
0.309688
0.314599
0.311047
0.312089
0.316062
0.305216
0.305558
0.316846
0.315666
0.318355
0.303418
0.302237
0.309653
0.313582
0.312448
0.351831
0.353444
0.439013
0.419266
0.349439
0.303611
0.31082
0.310602
0.311575
0.308325
0.31598
0.323904
0.315075
0.323612
0.312099
0.318624
0.316054
0.315778
0.314802
0.316363
0.318785
0.312191
0.307782
0.313809
0.31326
0.849253
0.310254
0.319434
0.335742
0.307471
0.307111
0.322904
0.306727
0.370634
0.328421
0.314023
0.309192
0.311752
0.310349
0.312073
0.348493
0.30657
0.313192
0.341833
0.451728
0.359946
0.313102
0.340242
0.309073
0.419427
0.459675
0.457202
0.368962
0.343741
0.382031
0.309693
0.315942
0.321824
0.330267
0.313358
0.335751
0.345172
0.302349
0.351125
0.307641
0.371972
0.325943
0.325701
0.307376
0.309704
0.317505
0.326176
0.342761
0.325793
0.318645
0.311319
0.306786
0.314819
0.307144
0.31585
0.344175
0.313144
0.307659
0.329738
0.322521
0.30974
0.336114
0.315547
0.317597
0.331851
0.381525
0.304104
0.332452
0.339967
0.32498
0.324994
0.310452
0.324897
0.316437
0.313321
0.313205
0.300493
0.317481
0.321125
0.331123
0.307649
0.306191
0.302121
0.356335
0.331555
0.323963
0.328768
0.337665
0.336241
0.340896
0.354178
0.372084
0.303801
0.315479
0.352554
0.324506
0.324765
0.36829
0.340713
0.316542
0.326237
0.319246
0.366935
0.31349
0.335059
0.36166
0.368368
0.357365
0.340542
0.343855
0.343842
0.321434
0.353499
0.344654
0.313148
0.314083
0.312387
0.312643
0.319644
0.314557
0.31651
0.313233
0.313834
0.316239
0.317242
0.319029
0.338691
0.31662
0.319075
0.3125
0.322825
0.315354
0.317872
0.329555
0.305468
0.305738
0.305259
0.305601
0.305212
0.360445
0.33581
0.330195
0.378033
0.345509
0.328434
0.305586
0.37085
0.370099
0.356155
0.368236
0.379236
0.336368
0.348571
0.329723
0.368247
0.387118
0.343671
0.359203
0.345329
0.372122
0.342399
0.38122
0.355053
0.364004
0.311995
0.348571
0.340329
0.339871
0.331597
0.354949
0.342637
0.364026
0.377954
0.368914
0.307856
0.312069
0.316939
0.351138
0.369347
0.354201
0.31951
0.366539
0.314376
0.330146
0.329883
0.334497
0.306561
0.35163
0.313658
0.368414
0.313712
0.36275
0.369113
0.357071
0.33084
0.360087
0.327678
0.32001
0.310092
0.372861
0.313194
0.312083
0.344089
0.324867
0.346537
0.318906
0.308296
0.345396
0.303669
0.309184
0.328719
0.328633
0.315543
0.315987
0.317258
0.328253
0.319918
0.312246
0.356386
0.328913
0.317799
0.310907
0.362167
0.352153
0.35549
0.357063
0.328653
0.35843
0.332038
0.382706
0.368613
0.335318
0.327737
0.310238
0.316506
0.310386
0.370422
0.32628
0.305014
0.368567
0.32725
0.338516
0.632035
0.309743
0.462254
0.793927
0.366976
0.302646
0.344128
0.310089
0.317327
0.320004
0.328839
0.315849
0.308257
0.330275
0.366004
0.371043
0.316269
0.338209
0.339442
0.332944
0.320289
0.34605
0.368844
0.350286
0.362679
0.369552
0.317105
0.336102
0.313453
0.306753
0.310124
0.371494
0.308088
0.370108
0.36428
0.344776
0.360376
0.315735
0.315273
0.314928
0.370638
0.338955
0.324812
0.343795
0.316881
0.320558
0.323291
0.37075
0.319863
0.324523
0.314918
0.315602
0.315126
0.311478
0.315023
0.368588
0.316174
0.368268
0.364417
0.311458
0.309168
0.312481
0.306735
0.304312
0.31116
0.31559
0.306387
0.308783
0.305054
0.314392
0.324321
0.32743
0.356419
0.310993
0.312715
0.331038
0.314001
0.324737
0.310181
0.31691
0.315977
0.341356
0.314068
0.316116
0.300819
0.3144
0.311023
0.843293
0.755324
0.835263
0.733
0.869169
0.514807
0.31259
0.32535
0.3222
0.330538
0.318565
0.363655
0.315434
0.336681
0.330257
0.374516
0.310919
0.434482
0.356889
0.346466
0.308467
0.315149
0.532569
0.311206
0.338333
0.341448
0.307526
0.311146
0.320412
0.325132
0.312402
0.342689
0.319834
0.309151
0.30742
0.316461
0.308123
0.314636
0.331876
0.342797
0.315206
0.477217
0.306478
0.364149
0.327164
0.323597
0.339727
0.312606
0.350247
0.365326
0.309297
0.305796
0.42807
0.31687
0.616645
0.329105
0.312368
0.329625
0.327051
0.345276
0.343572
0.316785
0.312957
0.312505
0.317395
0.360485
0.321284
0.316967
0.3084
0.349965
0.309666
0.314687
0.349963
0.343999
0.327695
0.309909
0.304449
0.516126
0.318471
0.713441
0.701991
0.314973
0.312641
0.332233
0.320773
0.31345
0.307402
0.317507
0.309494
0.306798
0.378614
0.364007
0.3067
0.310125
0.342769
0.29932
0.328957
0.340007
0.381877
0.311327
0.306599
0.321278
0.368168
0.367905
0.332689
0.339884
0.332717
0.360645
0.310304
0.328671
0.302396
0.350945
0.313565
0.348285
0.472155
0.35778
0.312995
0.374175
0.323942
0.313611
0.313847
0.316298
0.335649
0.333403
0.311193
0.310811
0.350823
0.337076
0.311787
0.309405
0.314316
0.373508
0.309621
0.657511
0.900199
0.338068
0.316354
0.954563
0.442592
0.325942
0.320055
0.310493
0.322414
0.331067
0.448336
0.326514
0.36588
0.309931
0.339025
0.30988
0.339135
0.315491
0.337794
0.314667
0.376192
0.32017
0.338202
0.322494
0.336706
0.316635
0.322302
0.343898
0.400492
0.326724
0.441353
0.353818
0.488879
0.557701
0.34489
0.350165
0.332977
0.314203
0.36008
0.337605
0.363379
0.379649
0.395425
0.359286
0.304594
0.310682
0.403143
0.345434
0.331546
0.328844
0.369617
0.357145
0.347996
0.585939
0.330489
0.342139
0.336025
0.330926
0.3116
0.309044
0.324905
0.309453
0.312768
0.341365
0.321579
0.797502
0.335356
0.332311
0.319399
0.31034
0.335947
0.311699
0.369356
0.314901
0.311672
0.316749
0.310298
0.308748
0.320978
0.336386
0.337273
0.348616
0.305756
0.316829
0.334731
0.342347
0.299879
0.304551
0.304595
0.303031
0.361147
0.362959
0.315415
0.307503
0.359916
0.316969
0.346799
0.335992
0.322732
0.317476
0.349072
0.359495
0.308859
0.315269
0.309476
0.308484
0.319858
0.301288
0.335112
0.315633
0.319264
0.355218
0.312865
0.340509
0.355317
0.327259
0.311727
0.310614
0.320375
0.426509
0.407487
0.388818
0.403379
0.338774
0.325008
0.326375
0.320997
0.369505
0.360446
0.319771
0.352136
0.308109
0.378684
0.351958
0.383842
0.364225
0.336068
0.335074
0.32742
0.364151
0.375941
0.344228
0.340188
0.359651
0.340508
0.344952
0.352164
0.369692
0.369676
0.369752
0.362369
0.366278
0.363827
0.368955
0.363525
0.368948
0.369886
0.368599
0.365835
0.327309
0.356477
0.344056
0.345152
0.353301
0.396209
0.318664
0.31885
0.30564
0.321759
0.329671
0.355821
0.331119
0.324283
0.306062
0.311113
0.369578
0.369492
0.369597
0.317468
0.332749
0.356738
0.322478
0.318622
0.368455
0.330554
0.314727
0.318314
0.313147
0.363011
0.309896
0.310322
0.311714
0.309527
0.33839
0.320543
0.312099
0.331825
0.407013
0.331831
0.31511
0.312428
0.316619
0.321456
0.338542
0.310069
0.307352
0.340494
0.334798
0.352267
0.339872
0.312642
0.311808
0.311577
0.309268
0.305548
0.312197
0.314121
0.351423
0.339407
0.308997
0.304808
0.309962
0.319153
0.306956
0.313969
0.32659
0.32438
0.314918
0.331051
0.319556
0.324496
0.345339
0.335819
0.356555
0.347714
0.322252
0.358036
0.314014
0.326223
0.344677
0.36251
0.353683
0.336266
0.363656
0.358293
0.330103
0.337603
0.343735
0.336135
0.343644
0.338382
0.321975
0.328841
0.325576
0.327788
0.33686
0.30887
0.310564
0.307769
0.320569
0.317695
0.318974
0.311875
0.31021
0.305284
0.309699
0.308333
0.30685
0.315699
0.317648
0.314813
0.312749
0.38973
0.428716
0.480224
0.337402
0.318283
0.326996
0.397146
0.305924
0.339732
0.312424
0.308573
0.428569
0.342965
0.326925
0.33457
0.319152
0.310121
0.305649
0.336686
0.322195
0.319133
0.316636
0.310144
0.316627
0.358991
0.320768
0.356973
0.333243
0.31877
0.34522
0.310515
0.311226
0.324999
0.325368
0.364705
0.3684
0.351141
0.32649
0.363214
0.357528
0.36191
0.315644
0.317468
0.313239
0.311366
0.323679
0.313849
0.310767
0.326242
0.341966
0.317849
0.314739
0.332049
0.315698
0.30739
0.309858
0.306939
0.348352
0.355492
0.313174
0.311283
0.31184
0.31065
0.319282
0.354257
0.348695
0.345542
0.336833
0.34134
0.349875
0.298429
0.37208
0.313035
0.311518
0.310113
0.36552
0.341672
0.324548
0.353524
0.346386
0.384408
0.391502
0.364727
0.360973
0.380742
0.375887
0.327526
0.353563
0.804939
0.365974
0.356064
0.365804
0.339082
0.358229
0.375542
0.327023
0.353806
0.369248
0.365782
0.369312
0.35872
0.371973
0.352714
0.359606
0.378519
0.386839
0.373038
0.361067
0.311995
0.326954
0.34289
0.341601
0.37469
0.373382
0.379378
0.30726
0.310052
0.344224
0.311829
0.307092
0.327837
0.31466
0.320456
0.333666
0.31221
0.322529
0.345327
0.307591
0.320873
0.327753
0.3254
0.337266
0.330144
0.315969
0.322408
0.311245
0.337583
0.330012
0.352965
0.310087
0.313797
0.359509
0.315044
0.308921
0.325729
0.301581
0.335944
0.313725
0.352981
0.44476
0.315229
0.33665
0.347229
0.870408
0.327805
0.368764
0.36948
0.36065
0.310747
0.38573
0.328084
0.350838
0.36356
0.313056
0.308941
0.326928
0.32121
0.344073
0.350731
0.326338
0.34703
0.31021
0.332785
0.348092
0.316128
0.347685
0.33256
0.315295
0.314256
0.316373
0.315194
0.361125
0.339211
0.340875
0.309326
0.316124
0.336791
0.318143
0.334447
0.317307
0.313624
0.316892
0.315618
0.369313
0.378828
0.320827
0.341857
0.351057
0.331053
0.364609
0.331731
0.389605
0.312234
0.32325
0.378276
0.312876
0.336101
0.303384
0.35943
0.501261
0.389018
0.893871
0.350557
0.319363
0.350618
0.347471
0.313757
0.340161
0.347637
0.363415
0.355593
0.343699
0.319709
0.323416
0.312771
0.315643
0.35665
0.310555
0.360509
0.309819
0.31354
0.30983
0.361099
0.35791
0.357864
0.324739
0.348181
0.309344
0.356245
0.313348
0.311702
0.312075
0.309914
0.320017
0.319052
0.316444
0.317942
0.327534
0.368869
0.353179
0.325994
0.315196
0.32387
0.414614
0.315125
0.320723
0.307784
0.30515
0.311579
0.326784
0.324027
0.323192
0.301046
0.311139
0.310626
0.315622
0.319146
0.312634
0.317455
0.318439
0.31172
0.314389
0.369111
0.317374
0.335982
0.313857
0.30724
0.321609
0.310178
0.324048
0.319336
0.33587
0.319397
0.370282
0.350582
0.308068
0.308932
0.327627
0.311229
0.310407
0.316118
0.318034
0.314762
0.310898
0.313664
0.54148
0.315361
0.770182
0.339482
0.365141
0.35837
0.308265
0.306521
0.32251
0.3147
0.398624
0.46715
0.384291
0.322129
0.30306
0.317701
0.313262
0.31583
0.312627
0.363036
0.349396
0.308413
0.304825
0.309666
0.312524
0.329379
0.395872
0.333971
0.313982
0.31284
0.31247
0.314595
0.307727
0.31062
0.315902
0.311724
0.3349
0.313571
0.317753
0.314052
0.367266
0.324014
0.315155
0.32371
0.329022
0.308832
0.337375
0.332428
0.312293
0.308106
0.444416
0.466726
0.334881
0.325197
0.327414
0.316511
0.314798
0.330112
0.347864
0.32675
0.333159
0.322721
0.310509
0.304924
0.330198
0.310201
0.308878
0.307178
0.324702
0.36366
0.313482
0.312972
0.367277
0.310952
0.353905
0.314485
0.311601
0.333696
0.331869
0.314542
0.363697
0.32429
0.314339
0.3175
0.384269
0.885733
0.790243
0.305504
0.314062
0.311998
0.311999
0.313788
0.313433
0.314677
0.303194
0.309296
0.310988
0.312971
0.383576
0.330145
0.323433
0.322507
0.321488
0.324259
0.31208
0.581801
0.939679
0.307894
0.419661
0.315067
0.307195
0.886569
0.393711
0.715686
0.311464
0.345211
0.316443
0.323982
0.462798
0.388171
0.336812
0.312414
0.322143
0.305266
0.316812
0.30733
0.309206
0.327243
0.31051
0.306498
0.351348
0.345288
0.313833
0.321177
0.312525
0.309787
0.303869
0.304085
0.309253
0.309968
0.31132
0.312971
0.307457
0.310736
0.306521
0.307765
0.312947
0.310541
0.323926
0.301855
0.330723
0.319587
0.309648
0.314807
0.311305
0.314191
0.327834
0.330302
0.344091
0.320307
0.312685
0.306754
0.30886
0.30787
0.314844
0.323091
0.319632
0.331235
0.306154
0.317868
0.307431
0.315003
0.311784
0.298531
0.311903
0.320976
0.345743
0.352317
0.313244
0.308412
0.34646
0.354951
0.329767
0.331923
0.334824
0.306082
0.334281
0.346834
0.339617
0.335922
0.350208
0.373406
0.333249
0.312205
0.3138
0.314695
0.31333
0.315938
0.318541
0.30874
0.310659
0.346552
0.333286
0.311681
0.309831
0.360783
0.32014
0.345441
0.969409
0.840935
0.341184
0.310269
0.649903
0.385935
0.312691
0.313403
0.307785
0.306588
0.310429
0.309973
0.313129
0.332965
0.314017
0.330126
0.313788
0.318985
0.318362
0.313667
0.321653
0.308203
0.314615
0.310826
0.31397
0.348941
0.318949
0.349744
0.328128
0.326149
0.333336
0.350543
0.353163
0.322058
0.311165
0.345685
0.356242
0.363502
0.312875
0.312631
0.323501
0.320529
0.358445
0.354056
0.311882
0.327784
0.319317
0.33335
0.316832
0.337235
0.34865
0.367624
0.371087
0.361393
0.352623
0.355888
0.327543
0.349063
0.346275
0.315713
0.331989
0.315278
0.312092
0.311264
0.321527
0.313256
0.339906
0.344649
0.335101
0.341636
0.330879
0.32906
0.341828
0.35833
0.324544
0.33065
0.334562
0.362602
0.341675
0.331614
0.320929
0.320121
0.320121
0.329116
0.331234
0.31854
0.363267
0.368649
0.361644
0.350305
0.346301
0.360279
0.368645
0.36882
0.373673
0.339628
0.379147
0.30358
0.310028
0.310413
0.309063
0.360169
0.34068
0.356915
0.355627
0.366291
0.365997
0.368659
0.370942
0.336682
0.369322
0.384974
0.369886
0.31151
0.320505
0.318367
0.307742
0.311557
0.337489
0.369612
0.339911
0.367553
0.304261
0.308126
0.349754
0.345516
0.315273
0.336668
0.323062
0.350701
0.324256
0.316219
0.306779
0.314469
0.312823
0.306429
0.322016
0.312943
0.333136
0.311683
0.307738
0.307764
0.308076
0.30866
0.307453
0.308592
0.308393
0.308392
0.312136
0.311323
0.315426
0.313129
0.305941
0.317379
0.317906
0.314759
0.398252
0.308184
0.305882
0.304604
0.345385
0.364445
0.310546
0.309724
0.310928
0.318907
0.340638
0.348407
0.357443
0.334499
0.367143
0.359856
0.315363
0.311428
0.31232
0.335708
0.322619
0.341829
0.359776
0.311654
0.322248
0.353011
0.313676
0.341716
0.306176
0.314658
0.346825
0.320684
0.309464
0.323112
0.338868
0.31413
0.332222
0.310893
0.3328
0.338924
0.304346
0.308975
0.3239
0.309194
0.341618
0.308523
0.307962
0.826914
0.326789
0.31814
0.311646
0.304749
0.305148
0.305032
0.304981
0.943989
0.394229
0.334339
0.313848
0.333688
0.325218
0.33296
0.335433
0.324548
0.317982
0.309897
0.326096
0.319576
0.363516
0.334209
0.31028
0.348309
0.310328
0.321326
0.336708
0.343827
0.361672
0.36961
0.351154
0.359132
0.301396
0.361889
0.302621
0.312219
0.302643
0.310814
0.311846
0.318661
0.306574
0.509872
0.326224
0.537911
0.329147
0.310265
0.58952
0.348021
0.320471
0.316271
0.305984
0.314926
0.332656
0.332882
0.312621
0.338739
0.320748
0.32583
0.309165
0.30791
0.318293
0.318361
0.314063
0.314028
0.319027
0.312518
0.313069
0.310708
0.321094
0.306731
0.311795
0.310791
0.337587
0.317851
0.317956
0.312585
0.312111
0.310702
0.312867
0.307619
0.30974
0.308604
0.309325
0.311663
0.311378
0.309405
0.354721
0.308404
0.306546
0.312665
0.312671
0.311645
0.311639
0.313561
0.312856
0.310407
0.307747
0.313609
0.317271
0.317884
0.326608
0.304799
0.305948
0.313836
0.304045
0.309495
0.316072
0.327401
0.329826
0.304485
0.322122
0.314642
0.317503
0.366168
0.330908
0.316552
0.346892
0.3471
0.350442
0.314742
0.312359
0.313756
0.312329
0.347865
0.319393
0.309185
0.401648
0.315465
0.312514
0.317032
0.311656
0.310213
0.31092
0.312012
0.312012
0.312464
0.314819
0.310906
0.313585
0.318227
0.311457
0.310643
0.313777
0.312063
0.312038
0.320548
0.320312
0.312598
0.31388
0.31328
0.314784
0.317061
0.330967
0.330032
0.33212
0.323588
0.361053
0.41769
0.364503
0.364874
0.309038
0.309256
0.338796
0.330405
0.309619
0.337649
0.321879
0.318718
0.324524
0.323576
0.321358
0.319933
0.322355
0.32453
0.30576
0.310903
0.340266
0.419662
0.324881
0.744817
0.356966
0.312334
0.319221
0.337716
0.311616
0.311991
0.310617
0.329638
1.00087
0.316505
0.309305
0.418631
0.589604
0.310535
0.328715
0.315232
0.326166
0.556243
0.495823
0.307909
0.323279
0.314031
0.331478
0.332563
0.327248
0.349071
0.317828
0.325237
0.310399
0.408054
0.343015
0.422304
0.327319
0.317434
0.374422
0.343483
0.636806
0.400003
0.310774
0.920423
0.875418
0.314606
0.310392
0.342104
0.302897
0.328632
0.308766
0.332939
0.389282
0.306943
0.313751
0.312714
0.473101
0.31492
0.421235
0.309208
0.358627
0.329401
0.310931
0.310071
0.316241
0.309047
0.311825
0.309736
0.463702
0.349285
0.326995
0.336642
0.370165
0.312504
0.316743
0.330429
0.337422
0.33572
0.338309
0.310524
0.349594
0.400087
0.812548
0.339539
0.324889
0.312376
0.315131
0.312998
0.32907
0.331398
0.313375
0.314562
0.321191
0.325206
0.316365
0.308298
0.31589
0.300466
0.318964
0.322114
0.30948
0.311988
0.3099
0.304773
0.341835
0.305104
0.310035
0.301819
0.300617
0.311207
0.323041
0.311239
0.306429
0.446106
0.328695
0.305548
0.305234
0.310939
0.3414
0.306745
0.315515
0.318644
0.311395
0.323431
0.324908
0.314752
0.310461
0.31266
0.305938
0.308992
0.30786
0.307414
0.307575
0.310583
0.310506
0.310376
0.311319
0.325876
0.349489
0.330746
0.335813
0.328043
0.312871
0.314009
0.335211
0.329
0.325163
0.328135
0.315436
0.310259
0.304378
0.305327
0.307996
0.320277
0.313965
0.319814
0.315819
0.31177
0.313317
0.354275
0.319709
0.320153
0.311454
0.313775
0.300186
0.326293
0.310322
0.313521
0.305562
0.30727
0.305535
0.305012
0.32154
0.309771
0.337833
0.310628
0.310051
0.420412
0.320509
0.306363
0.352453
0.306709
0.338398
0.344881
0.314085
0.311078
0.315071
0.31212
0.317932
0.314005
0.3137
0.312449
0.308109
0.312741
0.304571
0.314213
0.315048
0.321186
0.317669
0.372508
0.313722
0.870554
0.312716
0.30615
0.305644
0.306138
0.30666
0.318437
0.31384
0.333663
0.311813
0.315337
0.315651
0.31192
0.308862
0.318862
0.310548
0.318724
0.375942
0.310062
0.365153
0.311514
0.312301
0.32148
0.306237
0.321146
0.308428
0.3093
0.306703
0.307593
0.311844
0.309458
0.305066
0.310215
0.310563
0.310349
0.33297
0.333839
0.314751
0.805398
0.41121
0.350462
0.813591
0.321
0.324265
0.309704
0.310741
0.412429
0.460976
0.379384
0.310615
0.311883
0.310397
0.305663
0.308758
0.310593
0.322814
0.441195
0.453934
0.411919
0.318447
0.320013
0.32864
0.312726
0.321282
0.311973
0.326866
0.298162
0.309865
0.310205
0.313309
0.315993
0.312406
0.313928
0.311931
0.320994
0.318792
0.321374
0.330741
0.340464
0.321018
0.379305
0.301379
0.315999
0.304906
0.311243
0.32729
0.327728
0.356869
0.352838
0.360436
0.369756
0.338375
0.361642
0.310816
0.310228
0.309836
0.310631
0.375513
0.364103
0.369562
0.364112
0.338053
0.332382
0.323263
0.35363
0.341023
0.318155
0.340255
0.338525
0.335781
0.351335
0.315199
0.337765
0.354618
0.368022
0.32259
0.331054
0.306172
0.330013
0.324826
0.330886
0.326155
0.34763
0.323893
0.374509
0.347057
0.384089
0.370516
0.321988
0.319059
0.314825
0.308755
0.322776
0.328659
0.316814
0.382498
0.310925
0.317293
0.321798
0.339389
0.323591
0.327254
0.323453
0.325621
0.307876
0.330267
0.313535
0.309751
0.306233
0.299268
0.299001
0.305185
0.310022
0.304411
0.316455
0.357024
0.368577
0.368912
0.362884
0.37149
0.337402
0.314712
0.368635
0.368757
0.369385
0.370294
0.349584
0.371625
0.365969
0.360515
0.352121
0.365274
0.316682
0.332545
0.368636
0.312917
0.315651
0.35031
0.357145
0.371177
0.313713
0.330303
0.371444
0.35449
0.313632
0.311226
0.361924
0.339612
0.369348
0.311443
0.313065
0.312624
0.347133
0.313246
0.312204
0.318374
0.348057
0.305237
0.305359
0.349253
0.357714
0.364122
0.314892
0.305265
0.315388
0.326987
0.326272
0.311431
0.309609
0.308602
0.351936
0.338196
0.322342
0.31499
0.334533
0.325126
0.33235
0.323604
0.342508
0.329925
0.320411
0.315621
0.309473
0.337755
0.362226
0.378414
0.351466
0.369373
0.327783
0.335259
0.334798
0.326269
0.360087
0.353522
0.331999
0.354972
0.365905
0.310831
0.313649
0.313362
0.361373
0.305597
0.367473
0.311223
0.322771
0.316646
0.309311
0.313629
0.326416
0.334624
0.329732
0.373058
0.32611
0.321826
0.312683
0.341491
0.326172
0.341979
0.311657
0.312078
0.340874
0.32026
0.324079
0.321716
0.324246
0.313633
0.317345
0.34095
0.325694
0.316771
0.31717
0.316597
0.323796
0.326801
0.328542
0.318137
0.311876
0.321107
0.326527
0.322822
0.308109
0.856112
0.522393
0.31275
0.308944
0.310531
0.316045
0.315228
0.318966
0.322305
0.308931
0.311863
0.308743
0.307018
0.304278
0.304869
0.304713
0.312304
0.314963
0.795005
0.354903
0.313236
0.326782
0.316679
0.318936
0.320161
0.350412
0.327004
0.312994
0.366247
0.340152
0.342633
0.337753
0.351891
0.346611
0.319242
0.331446
0.359227
0.342455
0.318596
0.355012
0.327332
0.352916
0.348731
0.357938
0.347745
0.308651
0.349703
0.320538
0.328301
0.350576
0.329066
0.308291
0.347501
0.371126
0.36372
0.369877
0.369875
0.360862
0.368756
0.308098
0.363299
0.369622
0.357169
0.351885
0.356775
0.341942
0.323013
0.304923
0.3057
0.30697