/*--------------------------------*- C++ -*----------------------------------*\
| =========                 |                                                 |
| \\      /  F ield         | OpenFOAM: The Open Source CFD Toolbox           |
|  \\    /   O peration     | Version:  2506                                  |
|   \\  /    A nd           | Website:  www.openfoam.com                      |
|    \\/     M anipulation  |                                                 |
\*---------------------------------------------------------------------------*/
FoamFile
{
    version     2.0;
    format      ascii;
    arch        "LSB;label=32;scalar=64";
    class       volVectorField;
    location    "0.0625936";
    object      U;
}
// * * * * * * * * * * * * * * * * * * * * * * * * * * * * * * * * * * * * * //

dimensions      [0 1 -1 0 0 0 0];

internalField   nonuniform List<vector> 
3989
(
(10.005 0.00867763 0.00575362)
(9.97894 0.0583777 -0.00317016)
(9.81013 -0.0411969 -0.0301735)
(9.90837 -0.0854838 -0.012255)
(9.72742 0.727504 0.0378474)
(10.0352 0.100756 -0.000615334)
(10.0022 0.00747431 0.00610847)
(9.75406 -0.0188577 -0.0769664)
(10.0027 0.0167814 0.00720092)
(10.5505 0.401637 0.00394357)
(9.98326 0.0137215 0.00525056)
(9.99539 0.0296925 0.00529284)
(10.2059 0.0113727 0.0478722)
(10.0076 0.0107504 -0.0067172)
(9.98892 -0.0125491 -0.00617387)
(9.0257 0.546992 0.329552)
(9.99891 -0.00375676 0.000601288)
(10.222 0.323911 -0.0112114)
(10.0131 0.0133765 -0.00678549)
(9.77873 0.425778 -0.0427671)
(10.0327 0.0177681 0.0332609)
(10.0267 0.0355568 -0.00161)
(10.2872 0.188469 0.0152503)
(10.3007 0.145024 -0.0338016)
(9.94355 0.0702678 0.00718913)
(10.0262 -0.0875477 0.0167003)
(10.37 0.165812 -0.00430045)
(10.0002 0.00373419 0.00550436)
(10.0018 0.0523877 -0.00312403)
(10.0073 0.00395078 -0.00683299)
(9.98329 0.00609843 0.00350879)
(10.5135 0.0430173 -0.0468453)
(10.2097 0.225063 0.0074982)
(10.0049 0.00510609 0.00590503)
(10.4774 0.0243356 -0.02498)
(9.97527 -0.0165372 0.00698036)
(10.007 0.0146746 -0.0101011)
(10.1627 0.294249 0.0210153)
(10.0012 0.0228554 -0.00327108)
(10.0271 0.0206785 0.00324803)
(10.2147 0.0844438 -0.0145567)
(10.0007 -0.00968032 -0.00343065)
(9.99767 0.00162197 0.0038727)
(10.0027 0.000936736 0.00754447)
(10.0065 0.0965677 -0.0121131)
(10.0027 0.0135695 -0.00340058)
(10.0065 0.0268313 -0.00124827)
(9.94857 -0.0295155 0.01073)
(10.0005 -0.00423518 -0.000659213)
(10.0266 0.245946 0.000881367)
(10.4351 0.411224 0.0384878)
(10.0078 -0.00253313 0.011935)
(10.0107 -0.000150327 0.00327982)
(10.0035 0.00410396 0.00583809)
(9.85113 0.088634 -0.0211992)
(10.01 0.00149567 -0.00690928)
(9.9987 0.0239789 -0.000738778)
(10.2338 0.0626834 -0.0161053)
(10.134 0.0174595 0.0119149)
(10.2618 0.0741794 -0.0198761)
(10.2036 0.0599671 -0.00490162)
(10.0666 0.00575585 0.0116462)
(5.90387 1.27931 -5.18977)
(1.40503 1.74622 -3.592)
(9.24102 0.795772 0.0254496)
(10.003 -0.00157401 -0.00210528)
(10.0411 -0.145179 0.0226424)
(10.0013 0.178697 0.00335304)
(10.1139 0.146765 -0.0154553)
(10.0897 0.250544 -0.00968225)
(9.96635 -0.00737196 0.00769445)
(9.96258 0.113618 0.00508393)
(9.99816 0.253133 -0.0257716)
(10.0101 0.285119 -0.0216202)
(9.93421 0.281349 -0.0215912)
(9.65504 0.438455 -0.185773)
(9.98593 0.236312 -0.0268663)
(10.102 0.245938 -0.0028265)
(9.94013 0.21648 -0.0148723)
(9.99043 0.186964 -0.0281467)
(9.96562 0.154055 -0.0181229)
(9.99621 0.0216762 -0.0075462)
(10.0308 -0.1449 0.0188154)
(10.2551 0.726797 -0.105829)
(10.0828 0.962362 -0.0788012)
(9.97931 -0.00161675 0.00744686)
(10.0772 0.848802 -0.0528804)
(10.0034 0.00574988 0.00411987)
(9.78624 -0.0105991 -0.0621066)
(10.0115 0.00304723 0.00455592)
(10.0842 0.858364 -0.107848)
(10.0065 0.023988 0.00616309)
(10.0029 0.0182073 0.00608224)
(10.2214 0.182215 0.0106974)
(10.0016 0.00686797 0.00857893)
(10.3501 1.10565 -0.383069)
(10.4609 0.842654 -0.295452)
(9.9688 -0.0675559 0.013829)
(10.3476 0.986635 -0.293337)
(10.7199 0.740869 -0.324134)
(10.0064 -0.013987 0.00825545)
(9.99495 -0.0171141 0.00496147)
(9.99887 -0.00488147 0.00724393)
(9.98269 -0.00670929 0.000779284)
(10.4634 0.386275 0.00335743)
(9.99958 0.00173816 -0.000377781)
(10.1582 0.0807097 -0.0279203)
(9.9965 -0.0187053 0.00156449)
(10.0061 -0.00736805 0.0089656)
(10.3941 0.327729 -0.00747229)
(10.1248 0.0563235 0.00789492)
(9.99736 -0.00858792 -0.00219685)
(9.76618 1.42625 -0.616093)
(9.83851 1.50691 -0.688873)
(10.0081 0.0260205 0.0049048)
(10.0739 1.28829 -0.914368)
(9.94977 1.18392 -0.63964)
(10.1093 0.0363731 0.00416174)
(10.0039 0.00973328 0.00707862)
(9.98894 0.00468165 0.00275864)
(10.0054 0.130658 -0.0318003)
(10.0048 0.0109863 0.00700521)
(10.0501 0.0625261 -0.0205057)
(9.99971 0.00642374 -0.0036762)
(9.25213 0.711905 0.802786)
(9.88427 0.0810839 0.010515)
(9.99862 0.012717 0.00220885)
(10.0019 0.260634 0.0227606)
(9.97016 0.0101214 0.000247362)
(10.4428 0.378654 -0.032188)
(10.3381 0.140426 -0.00313108)
(9.97956 -0.0130797 0.00695748)
(10.0817 0.0445778 -0.00532841)
(9.97678 0.0109032 -0.00381657)
(9.98482 0.00498471 -0.00077682)
(9.98217 0.0149432 0.002777)
(10.0005 0.00126994 -0.00979114)
(10.0029 0.00347967 -0.00791981)
(9.99954 0.00114965 -0.00693304)
(9.98538 0.0190847 -0.00347187)
(9.98619 0.0144308 -0.00514193)
(9.94259 -0.00813268 -0.010704)
(10.1797 0.582394 0.0490497)
(10.0022 0.00441892 0.00258795)
(10.0011 -0.00445499 -0.00324277)
(10.5311 0.400387 0.0232733)
(9.99799 -0.021195 0.000179807)
(10.8245 0.651965 -0.254664)
(10.0168 0.0431815 -0.00491022)
(9.72259 0.21604 0.0308594)
(9.46461 -0.0311444 0.0498808)
(10.4147 0.0418374 -0.0269493)
(10.4689 0.036381 -0.0314617)
(10.3419 0.0401373 -0.0170745)
(10.4273 0.00393112 -0.0421993)
(10.3724 0.0189602 -0.0205338)
(9.70117 -0.00398024 -0.058633)
(10.4758 0.103561 0.0052907)
(9.9998 0.0320144 0.0046351)
(9.98338 -0.00312541 0.00162177)
(10.0022 0.000556641 0.00493688)
(9.53837 0.436372 0.0463689)
(10.0027 0.012031 -0.00893644)
(9.98957 0.0150247 -0.00339527)
(9.98811 0.0211502 -0.00813323)
(9.38676 1.20273 0.472022)
(10.4247 0.536626 -0.0568212)
(9.99922 -0.00931167 0.00501695)
(9.56114 0.917859 -0.316936)
(10.2898 0.542495 -0.423463)
(9.51076 0.128807 0.280705)
(9.99844 0.018556 0.00102749)
(10.0218 0.015219 0.0173733)
(10.2328 0.362252 0.0239245)
(9.89723 0.0569402 0.00403678)
(9.91037 -0.119974 -0.00872706)
(9.99711 -0.0030127 -0.000232444)
(10.1196 0.106092 -0.00840088)
(10.5504 0.0760289 -0.0116491)
(10.4156 0.407328 -0.0540287)
(10.1853 0.111255 0.0124281)
(10.2698 0.671619 0.138537)
(10.0061 0.00103625 -0.00530528)
(10.3364 0.995185 0.275326)
(10.0451 0.00704591 0.0166383)
(10.1677 0.0580694 0.000826324)
(9.81073 0.653229 -1.04004)
(10.1448 0.0507882 -0.00115882)
(9.97484 -0.0514102 0.00333)
(10.0038 -0.00452582 0.00649547)
(9.80939 0.463682 0.044664)
(10.026 0.934075 -0.654335)
(10.1809 0.0637462 -0.0133476)
(10.0275 -0.000648024 0.0130918)
(9.89318 -0.168162 0.0300889)
(10.0196 -0.00749759 0.00621127)
(0.628905 1.55504 -5.34262)
(8.90666 0.723048 0.414825)
(9.66851 0.75387 -0.581071)
(10.0634 0.605027 0.0130848)
(10.2328 0.0086902 0.0419181)
(10.0012 0.00890433 -0.00909749)
(9.97375 0.0178149 -0.00591596)
(10.0028 0.030248 -0.00533493)
(9.98225 0.00979997 0.00104163)
(10.0109 0.0133797 -0.00975612)
(10.0065 -0.0156527 -0.00671608)
(10.0033 -0.00896929 -0.00809271)
(8.64292 1.4845 -1.73064)
(8.7181 1.51023 -2.05387)
(10.0104 -0.0152194 -0.00576625)
(9.03457 1.6455 -2.84226)
(7.94879 1.41055 -2.2855)
(9.68593 -0.116624 0.0664666)
(10.3991 0.0974086 -0.00825556)
(13.4329 1.20898 -3.32316)
(8.27669 1.47391 -2.46494)
(9.95799 -0.0427136 0.00174539)
(9.94678 -0.0080324 0.00404179)
(9.99527 -0.0226654 -0.00121474)
(9.84005 0.491888 0.0225956)
(9.98549 0.512231 0.0542968)
(10.0029 0.0143648 -0.000261205)
(9.66703 0.93618 -0.764421)
(9.97831 0.0222317 -0.00199746)
(9.94038 0.0236422 -0.0160494)
(9.90358 0.100889 0.00413939)
(9.61787 0.859073 -0.548351)
(9.95937 0.0762019 -0.0075075)
(10.0533 0.190839 -0.0055303)
(10.1372 0.080304 -0.0114445)
(10.1538 0.0713129 -0.0332379)
(10.185 0.072764 -0.0190867)
(10.2478 0.119072 -0.0241223)
(10.0019 0.0121616 0.00172531)
(9.94988 0.00164057 0.00685525)
(9.98538 -0.0054599 0.0112121)
(10.015 0.00965853 0.00661586)
(10.0172 0.0311176 -0.0092427)
(10.4123 0.138433 -0.00367209)
(9.29257 0.82826 0.325373)
(10.006 0.00111931 -0.0081248)
(10.0024 -0.00598317 -0.00703138)
(9.97803 -0.000407324 0.00115643)
(9.99078 0.00124798 -0.00136893)
(9.51205 0.985141 0.0652239)
(9.98557 0.0111436 0.00478716)
(9.99415 0.0268249 0.00467169)
(10.0086 0.0200937 0.00391404)
(10.0077 0.0281036 0.00344897)
(9.9775 0.0195262 0.00325671)
(9.74928 0.80954 -0.088284)
(10.0035 0.015652 0.00571814)
(10.0027 0.0116784 0.00688736)
(9.98991 0.00835594 0.00490015)
(10.0054 0.0223795 0.00645295)
(9.99326 0.0212234 -0.00942229)
(9.99161 0.0563895 -0.00661933)
(9.71706 0.248321 -0.0316921)
(9.93374 -0.0578513 -0.0335816)
(9.81559 0.122775 -0.0349284)
(10.221 0.17345 -0.026739)
(10.0022 0.0810711 -0.0196417)
(10.3766 0.255249 -0.00281188)
(9.95303 0.323083 -0.0200881)
(10.0167 0.15413 0.0309122)
(9.70155 -0.20851 -0.0550853)
(7.83996 1.26073 -1.64316)
(10.0776 0.0495497 -0.0119313)
(10.0483 0.0460642 -0.00607128)
(10.076 0.0144261 0.0175263)
(9.9814 0.00144673 -0.00611747)
(9.98688 -0.00225437 -0.00355312)
(10.4475 0.616389 -0.146074)
(10.0042 0.000700441 -8.39038e-05)
(10.0489 0.463697 -0.194177)
(9.98433 -0.00065583 0.00177963)
(10.0036 0.00926283 0.0132922)
(9.88826 -0.129519 -0.00383967)
(10.558 0.561159 -0.133642)
(9.9892 -0.0486251 0.00461738)
(10.2609 0.104416 -0.0314367)
(10.254 0.0629485 -0.0219118)
(10.3068 0.0885696 -0.0216003)
(10.0799 0.377294 -0.00129917)
(10.1048 0.369698 -0.00763153)
(10.2701 0.0482383 -0.00962017)
(10.1523 0.0253068 0.0234694)
(10.1558 0.0256241 -0.00396449)
(10.2188 0.0575774 -0.0249235)
(9.98741 -0.0134572 -0.00594583)
(9.9874 -0.0178679 -0.0110011)
(10.0715 0.0105149 -0.000323305)
(9.70303 0.319609 0.0900584)
(10.0131 0.00145356 0.00079195)
(10.0054 0.0335294 0.00134169)
(10.0306 0.146145 -0.00136888)
(9.95545 0.0632855 -0.00871729)
(6.81177 1.48258 -3.2195)
(7.87551 1.05592 -2.5453)
(9.83238 0.0671751 -0.0623404)
(9.95926 0.0241571 -0.00912995)
(9.97976 0.0126218 0.0015715)
(9.29304 0.737486 -1.75625)
(9.97678 0.02053 -0.00715673)
(7.51044 1.06409 -1.451)
(10.2871 0.151903 0.0099273)
(9.99668 0.0400919 -0.0018682)
(10.0085 0.0206629 -0.00740968)
(10.0046 0.008695 -0.00759791)
(9.50157 -0.154307 0.0717199)
(10.3802 0.610868 0.0610397)
(6.98619 1.02189 -1.43428)
(6.34968 1.22023 -1.86616)
(10.0008 -0.00513139 -0.00710868)
(9.98344 -0.00490592 -4.35216e-05)
(10.2026 0.810999 0.0700391)
(10.0705 0.316274 -0.00366474)
(10.4487 0.251305 -0.00562643)
(9.84884 0.382329 -0.00523123)
(10.65 0.273966 0.0347837)
(10.0709 0.16684 -0.0352153)
(10.1247 0.377167 -0.0367868)
(9.98579 0.690418 0.157773)
(10.3556 0.32564 -0.0132436)
(10.093 1.04301 -1.68863)
(10.0564 0.00694546 0.0209054)
(10.0652 0.253213 -0.00194096)
(10.0389 0.409285 0.0190009)
(10.2671 0.126776 -0.0349378)
(10.2294 0.576334 0.102953)
(9.86992 0.287483 -0.0217079)
(8.12157 0.561397 -0.291373)
(9.98822 0.15827 0.0243417)
(10.0225 0.91759 0.0926021)
(10.38 0.39805 -0.0584658)
(9.90007 0.318841 -0.0276999)
(10.1634 0.125453 -0.0063688)
(9.98833 -0.000441888 0.00247074)
(10.0063 -0.00260441 0.00387632)
(7.48124 0.849538 -2.29601)
(9.87124 0.100069 -0.0104761)
(10.2831 0.452483 -0.0806444)
(9.85257 0.144871 -0.000401812)
(10.3792 0.763214 0.0415026)
(9.38672 1.0967 -0.910003)
(9.12396 0.859504 -5.62695)
(10.0009 -0.00214842 0.00264683)
(10.5773 0.382604 0.0620282)
(9.93876 0.780511 0.395794)
(10.0912 0.457361 0.034457)
(9.78857 0.185773 -0.0280604)
(9.76456 0.199616 -0.0452929)
(10.1321 0.307402 0.0100608)
(9.77822 0.53645 0.10961)
(9.97573 0.090122 -0.0116922)
(9.87217 0.0695183 -0.00534432)
(9.93567 0.175084 -0.0169905)
(7.88652 0.409452 -8.14719)
(10.0007 0.0481153 0.00420154)
(10.5522 0.0692174 0.00328429)
(9.82434 0.0835779 0.00429478)
(10.0211 0.0794093 -0.0216612)
(9.27758 1.75243 -5.91457)
(10.072 0.815114 -3.20986)
(9.93389 0.0857871 -0.00272293)
(9.91315 0.0736518 0.0116996)
(10.0115 0.471814 -0.0784234)
(10.0826 0.0765488 0.00701245)
(10.0084 0.0327871 0.00282225)
(9.80808 0.175032 -0.029019)
(9.87844 0.624208 -0.475169)
(10.5232 0.0118132 -0.0187362)
(9.86028 1.10772 -0.0490172)
(9.8006 0.264425 -0.000870347)
(9.92643 0.526337 0.0137459)
(10.5305 0.159219 0.0486904)
(9.95817 -0.00131587 -0.0016673)
(10.4603 0.569826 0.0789715)
(10.4254 0.246868 -0.0278948)
(9.98588 0.00846778 -0.00610277)
(10.003 0.0120937 -0.007561)
(10.0047 0.0148035 -0.00689255)
(9.98264 -0.000485313 0.00669318)
(9.9738 -0.00211608 -0.00356476)
(10.099 0.69837 0.108253)
(10.0296 0.0077021 -0.00518131)
(9.94604 0.00189275 0.00581039)
(10.0251 0.0148309 -0.000229368)
(9.99798 0.0066879 -0.0102676)
(9.9886 0.0746686 -0.0236461)
(9.96794 0.321832 -0.0220865)
(10.0019 0.0198432 -0.001687)
(9.99434 -0.000958558 0.00973968)
(10.033 0.00893053 -0.00450665)
(9.67986 0.153112 -0.10053)
(10.0005 -0.00373753 -0.00381621)
(9.97919 -0.00771125 0.00575849)
(9.28461 0.785899 -1.49473)
(9.97946 0.626517 0.153903)
(10.0045 -0.0437636 -0.0053338)
(9.99531 -0.0413888 -0.0171648)
(10.0055 -0.00261847 0.00110086)
(9.98705 -0.000689454 -0.00161085)
(10.0155 0.00086357 -0.00247344)
(9.83273 0.180966 0.00325523)
(9.68004 -0.0980393 -0.170186)
(12.1074 0.804224 -3.16774)
(9.59978 0.0376858 0.142484)
(9.32905 1.24211 -1.65464)
(10.3363 0.263238 -0.00622168)
(11.0773 1.0244 -2.40912)
(8.87639 0.866219 -0.0525434)
(1.58921 1.35554 -4.34719)
(10.1665 0.461551 -0.0510754)
(8.38449 1.49881 -3.43906)
(9.47037 0.825266 0.255999)
(9.73897 0.9536 0.00764566)
(9.66845 0.84118 -0.61484)
(10.1414 0.681497 0.236522)
(3.16547 1.3965 -5.43727)
(9.95491 0.0197104 0.000394832)
(9.96306 0.0260505 0.00974835)
(0.400644 1.68892 -6.33023)
(9.68687 0.0408444 0.00548589)
(9.97929 0.124314 0.0214503)
(9.71305 0.427709 -0.0617602)
(6.09793 1.40519 -3.09176)
(9.90734 0.828411 -1.3694)
(9.29803 0.595708 -0.561446)
(9.80287 0.133567 -0.0469559)
(9.81961 0.112326 -0.0644501)
(10.0189 0.295489 0.0115402)
(10.3843 0.232189 0.0184375)
(10.1985 1.38253 -5.40007)
(9.61293 0.664529 -0.289574)
(10.0036 0.00999903 0.00982944)
(9.99006 0.0135485 0.00259864)
(9.76732 0.895719 0.367139)
(9.766 0.244039 0.0209397)
(9.54166 0.619988 0.320809)
(8.81549 1.13352 -0.156394)
(9.20592 0.91074 -0.512156)
(9.98468 -0.0108097 0.00406848)
(10.0057 -0.0133457 0.00812581)
(9.99755 0.596274 -0.0261725)
(10.0065 -0.0131652 0.0073562)
(10.0268 0.112284 0.0285701)
(9.97904 -0.00792388 -0.000410919)
(10.0016 -0.0120664 0.00333955)
(10.0836 0.551262 -0.841417)
(9.91368 0.02705 -0.00548937)
(9.877 -0.0165979 -0.0238236)
(9.55842 -0.0463087 0.0620228)
(7.79153 0.916053 0.237301)
(9.89861 -0.108678 0.000751406)
(9.9866 -0.00384749 6.39333e-05)
(10.0022 -0.00469107 0.00527916)
(9.50242 0.166833 -0.0127816)
(9.74816 -0.11351 -0.0510633)
(9.80161 0.622325 0.485911)
(10.0003 0.00383912 0.0082343)
(9.96887 -0.00094817 0.00226785)
(9.99143 0.00104759 0.00520963)
(9.98195 -0.000681445 0.00243826)
(9.99996 0.00582897 0.00690618)
(10.3775 0.0986721 0.0172559)
(10.3124 0.0965274 0.0393401)
(9.95956 0.00803028 -0.00324167)
(10.0156 0.00703415 -0.00875449)
(9.99226 0.00256105 -0.00554592)
(9.9791 0.00524083 -0.00254164)
(10.0087 0.00562573 -0.0108123)
(9.98155 0.0092474 -0.00617372)
(9.87314 0.432598 -0.104107)
(10.0055 0.0137783 -0.0080795)
(10.2725 0.123569 -0.0204703)
(10.2091 0.0877431 0.0099782)
(10.193 0.0791474 -0.0225711)
(10.2749 0.0988322 0.000886511)
(9.98101 0.00623237 0.00384034)
(10.0556 0.175482 0.0023772)
(10.009 0.0155395 0.00784582)
(9.94487 0.161145 -0.00910618)
(9.42535 0.268496 0.0537523)
(9.99918 0.000756098 0.00352182)
(9.99927 0.0219586 0.00320365)
(9.97266 0.0143661 0.00260562)
(9.88334 0.02569 -0.00360674)
(9.61248 0.0654994 0.0322169)
(10.4729 0.169389 -0.0235109)
(9.7248 -0.023905 -0.0270401)
(9.96386 0.0666916 7.80865e-05)
(9.98418 -0.0582897 0.00523458)
(9.9941 0.00433757 -0.00354974)
(9.95047 0.0231965 0.00308675)
(9.67193 0.536387 0.267185)
(9.81323 0.335053 -0.0718881)
(9.89798 0.209039 0.0197656)
(10.0082 -0.070467 0.00533363)
(9.95601 -0.0456062 -0.0192994)
(9.97223 -0.00669307 -0.0141951)
(9.93697 -0.0431151 -0.0191704)
(9.75857 0.271863 0.0304794)
(9.7989 0.0139502 -0.00474438)
(9.9767 -0.016228 0.00312587)
(10.0066 0.0329039 -0.000867564)
(9.95355 0.0263453 -0.00262989)
(9.9709 0.0153215 -0.004066)
(10.0176 0.0356721 -0.00262735)
(9.70595 -0.267432 0.120019)
(9.96005 0.00384186 -0.0152503)
(10.0111 0.0146298 -0.00512241)
(9.94421 -0.115942 0.0107238)
(9.85489 0.111671 -0.00969437)
(9.97764 -0.00723486 0.0114382)
(10.0089 0.00155478 0.00623568)
(10.531 0.184119 0.0123225)
(10.4627 0.00959204 -0.00222161)
(10.5008 0.165096 0.000436624)
(10.4733 0.15638 -0.0294399)
(10.5192 0.0553721 0.00583426)
(9.97611 0.023129 0.00952114)
(10.2726 1.17456 -0.167171)
(10.5742 0.0174982 -0.0445447)
(10.6894 0.412346 0.0652918)
(10.2478 0.752546 -0.0133126)
(10.0076 0.0767737 -0.00684673)
(10.1051 0.432958 0.0378943)
(10.3553 0.4382 0.0482038)
(10.0936 1.23671 -0.686271)
(10.2317 0.399128 -0.0242407)
(10.3585 0.0317327 -0.00388206)
(9.74142 0.466407 -0.093)
(9.86733 0.520378 -0.242404)
(10.4872 0.495493 -0.056359)
(9.33972 0.740781 -0.959065)
(10.4689 0.0573787 0.00915631)
(10.3968 0.0302047 0.00697091)
(10.0369 0.102416 -0.0392844)
(9.99875 -0.0183839 0.0019786)
(10.0439 0.0120707 0.0083958)
(10.0258 0.0221259 0.0314086)
(6.75655 2.33727 -2.06778)
(-0.0835389 0.516198 -2.03267)
(9.88813 0.750549 0.201833)
(9.58591 0.952268 0.315539)
(9.60136 0.74471 -0.350073)
(10.0033 0.102583 -0.0253362)
(9.86675 0.0122088 -0.0476962)
(9.39745 -0.202351 0.135577)
(9.99052 -0.0216373 0.00480403)
(9.76688 0.281007 0.013715)
(9.99695 0.571259 0.0758632)
(9.97863 0.692206 0.194017)
(10.0116 0.753267 0.37174)
(9.72174 -0.0906571 -0.00512476)
(9.91835 0.477194 0.11139)
(9.80472 0.616301 0.077959)
(9.97684 0.481673 0.0132687)
(10.5258 0.0361077 -0.0295387)
(10.3028 0.507583 0.0168889)
(10.4925 0.0488874 -0.0303284)
(9.51392 1.01483 0.445797)
(9.94348 0.411321 0.00505861)
(10.2353 0.28709 0.0210331)
(9.30464 0.935164 0.425302)
(10.0694 1.03095 -1.10262)
(10.0818 0.348839 0.00369325)
(10.3596 0.195438 -0.039463)
(10.4215 0.175053 0.0189481)
(10.4029 0.846176 -0.0180931)
(8.80008 0.869661 -0.18186)
(7.08309 1.25997 -2.88662)
(10.0873 0.410227 0.046426)
(10.6042 0.449862 -0.000361904)
(10.6516 0.476826 0.0397854)
(9.93662 0.529226 0.10484)
(9.89741 0.403218 -0.0287287)
(8.45231 0.657838 0.298664)
(9.73544 0.0389476 0.0248083)
(9.61466 -0.117367 0.0951899)
(10.4806 0.364532 -0.0139671)
(8.46782 1.10546 -1.45564)
(9.14919 1.05953 0.254452)
(9.90244 0.609443 0.0521939)
(10.5369 0.0463408 -0.00786799)
(10.5591 0.467858 0.0578938)
(9.46115 0.365357 -0.127084)
(9.92308 0.459806 -0.0461752)
(9.92222 -0.106254 0.00847837)
(10.3658 0.828585 0.229795)
(10.0415 0.297883 -0.0108366)
(0.0281259 0.981229 -4.39638)
(3.07488 1.24173 -5.17959)
(10.1861 0.589069 0.00359454)
(10.0016 -0.00392344 -0.00176416)
(10.0027 -0.122422 0.0137362)
(9.9773 -0.0260524 -0.000829362)
(9.94483 -0.016357 -0.00168555)
(10.0095 -0.0842852 0.0153366)
(9.97072 0.00703308 0.00189219)
(10.0964 0.192369 -0.0291508)
(10.0256 0.0120447 0.00707377)
(10.3049 0.188021 -0.023831)
(9.99889 -0.0150114 0.000779871)
(9.80138 0.437196 0.00812406)
(9.87526 0.228795 -0.0195149)
(10.0845 0.664806 0.176881)
(10.0007 -0.00405783 -0.00196471)
(10.0146 0.0763561 -0.00226198)
(9.83569 0.234754 -0.0128766)
(9.9986 0.00793178 0.000791632)
(10.48 0.576892 0.0152053)
(9.96408 -0.0480792 -0.00947032)
(10.7412 0.432304 0.0528656)
(9.98237 0.0718686 -0.000664055)
(10.0357 0.140233 0.0132904)
(9.99705 -0.0499398 -0.0107723)
(10.0223 0.16508 0.000176029)
(10.0613 0.197213 0.0132836)
(10.4574 0.285345 -0.00762544)
(10.4514 0.0371652 -0.0364544)
(10.0136 0.0371839 -0.00497612)
(9.6539 -0.0212566 -0.105742)
(10.0271 0.382703 0.00687913)
(9.90315 0.691397 0.153451)
(9.97593 -0.0239571 -0.00873845)
(10.0029 0.00132257 -0.00235631)
(9.97759 0.0195462 0.0022973)
(9.98382 0.0529356 -0.00402762)
(10.0011 0.0219828 -0.00112261)
(10.0034 0.0195724 0.00499509)
(10.0295 0.0345373 0.000573517)
(9.99941 0.00461652 0.00495698)
(10.0011 -0.0149169 -0.00417527)
(9.99929 0.00558953 -0.00210939)
(10.002 0.0482504 0.00247364)
(10.007 0.0171428 0.00607203)
(10.0008 -0.00174597 -0.00108422)
(10.0306 0.0240723 -0.00646188)
(9.99995 0.00184244 0.0022513)
(9.82203 0.137149 -0.0252577)
(9.99626 -0.0190607 -0.00249296)
(9.99297 0.0347245 -0.00170876)
(9.98841 -0.0383858 -0.00129001)
(10.0026 0.0120273 -0.00746579)
(9.99929 0.0017327 -0.000488846)
(9.87138 -0.00740729 -0.00154716)
(9.98098 -0.0643134 0.0246447)
(9.97226 -0.0057853 -0.00394868)
(9.858 0.144226 0.00916925)
(9.99181 -0.0282835 0.00534219)
(9.97462 0.0804565 -0.0311419)
(9.96953 -0.0545656 -0.00410718)
(10.0023 -0.00686933 -0.00945236)
(10.003 0.00851851 -0.00543552)
(9.99815 0.237993 0.0136241)
(10.037 0.00812731 0.00370295)
(9.99663 0.022487 -0.00489222)
(9.98599 0.0314368 -0.00537719)
(10.228 0.0499493 0.00495503)
(9.86726 -0.0481056 -0.0438719)
(9.96816 0.0451624 0.00580406)
(9.94185 0.066112 -0.00129613)
(9.99299 0.0373287 -0.00301758)
(9.88529 0.0653701 0.0133254)
(9.9775 0.0621934 0.00311135)
(10.2505 0.463495 0.0545149)
(9.94094 0.354438 -0.00178663)
(10.0283 0.149717 -0.000239075)
(10.0289 0.0378916 -0.000297771)
(10.6056 0.341941 0.00637575)
(10.06 0.148326 0.00688407)
(10.0248 0.333644 0.0072724)
(9.85383 0.674993 0.617286)
(10.3155 0.58665 0.0140865)
(9.95244 0.0968033 -0.000228021)
(9.95107 0.364276 -0.0369998)
(9.96157 -0.023705 -0.00401169)
(9.93948 -0.100813 0.021806)
(10.2456 0.836424 0.134997)
(10.1177 0.918619 0.159909)
(9.9287 0.665119 0.0557164)
(9.86691 0.886263 0.147145)
(9.94857 0.768565 0.133179)
(10.1842 0.896281 -0.364241)
(9.97377 0.0363262 0.00021815)
(10.1394 1.03254 0.313292)
(10.1136 1.25187 0.23142)
(10.3931 1.02315 0.204675)
(9.85059 -0.119705 -0.00757589)
(10.183 1.00278 0.223758)
(9.96708 -0.00592661 -0.00178151)
(10.1031 0.094106 0.0106556)
(10.5117 0.370626 0.0449277)
(9.85114 -0.104374 0.00322317)
(10.0074 0.00829789 0.00619659)
(10.1186 0.0563807 -0.0133193)
(10.3466 0.219223 0.0083489)
(10.6552 0.351852 0.0307711)
(10.4037 0.645904 0.0829113)
(10.0107 0.294247 -0.0140373)
(10.4908 0.46446 0.0325558)
(10.0839 0.0284436 -0.0167718)
(10.3154 0.503205 -0.0872756)
(9.99077 -0.0490461 0.00994743)
(9.94076 -0.0577866 0.0096297)
(9.86964 0.275539 -0.0240919)
(10.1281 0.458786 -0.0335318)
(9.99964 -0.00248692 -0.000497362)
(9.91928 -0.0572275 0.00858291)
(9.75098 -0.186689 -0.04759)
(9.77991 -0.187459 -0.034136)
(10.0097 0.0181591 0.00196547)
(9.95337 -0.00995639 0.00485384)
(9.95275 0.174669 0.00726763)
(9.84193 0.485087 -0.18024)
(10.125 0.022862 0.0558497)
(10.1397 0.11267 -0.00548554)
(9.93981 -0.0613451 0.0163165)
(9.91946 -0.082688 0.00767705)
(9.95423 -0.00512229 0.00591771)
(10.0396 0.09423 -0.002082)
(10.0988 0.225782 -0.00908613)
(10.0287 0.071902 0.00381053)
(9.67793 0.258784 0.0711948)
(9.26323 0.585251 -0.0109733)
(9.86675 0.244889 -0.0234129)
(9.94495 0.00608384 0.00918498)
(9.91259 -0.0641037 0.0128469)
(9.86387 -0.0359432 -0.0331484)
(9.83844 -0.0343531 -0.0315561)
(9.8617 -0.0744303 -0.0258796)
(9.7424 -0.187926 -0.0194251)
(10.146 0.754235 0.14771)
(10.9086 0.786988 -0.827471)
(10.4855 0.515612 -0.551131)
(9.77107 -0.157189 -0.0169409)
(9.85776 0.138233 -0.0181752)
(9.85975 -0.0944102 -0.0374898)
(9.80755 0.0334133 -0.0217571)
(9.97934 0.0249036 -0.00398167)
(9.06668 0.921806 -0.193994)
(8.09532 1.30126 -5.36012)
(9.9629 0.349941 -0.00624952)
(10.4302 0.799523 -0.487765)
(5.94221 1.5936 -3.5692)
(10.363 0.0768376 0.000681032)
(8.37227 0.582335 -0.322454)
(9.82852 0.133698 0.00892095)
(9.83671 0.181617 -0.0197963)
(10.1788 0.10578 -0.00542712)
(10.1628 0.104387 0.00527886)
(8.45224 1.5647 -5.71838)
(5.57792 1.61183 -7.58304)
(2.94303 1.85129 -10.4373)
(10.1242 0.107676 0.00335453)
(9.82419 -0.0598731 -0.0509065)
(9.80873 -0.0511347 -0.0512188)
(9.83073 -0.048717 -0.0374417)
(9.87628 0.022769 -0.038432)
(9.80458 -0.0535267 -0.0252028)
(10.0003 -0.00613579 -0.00250327)
(10.0019 0.0179862 -0.000523348)
(10.001 0.00427186 -0.00187881)
(9.87395 0.305015 -0.028668)
(10.0035 0.0377924 0.00134934)
(10.034 0.227445 0.0079498)
(10.0036 0.00842939 -0.00679214)
(9.99996 0.0256152 -0.00368693)
(10.0095 -0.000265233 0.0138967)
(9.98644 0.0458601 -0.00216154)
(10.0105 0.257226 -0.00211819)
(10.061 0.0444428 -0.0151497)
(9.92613 0.130883 -5.66416e-05)
(9.9429 0.0865384 -0.0035323)
(9.93925 0.0541301 0.00348265)
(9.98686 0.0157913 -0.00422952)
(10.0038 0.00102701 0.00470873)
(10.2915 0.423874 0.0504767)
(10.0273 0.0176976 0.00171683)
(10.0007 0.0108479 0.00167834)
(10.3912 0.132122 -0.0232004)
(10.4985 0.0175049 -0.0127097)
(9.82534 0.175741 0.0241281)
(9.85036 0.0847282 -0.0302535)
(9.83086 -0.161308 0.0191351)
(9.55798 -0.1706 0.1808)
(9.89082 1.45626 -0.588174)
(10.2397 0.131172 -0.0237381)
(10.449 0.211353 -0.00349427)
(10.2171 0.204772 0.00666414)
(8.7033 0.737453 0.320928)
(9.63597 -0.0527117 -0.033143)
(9.55659 -0.0787234 0.0011575)
(10.1551 0.181241 -0.0266349)
(9.55506 0.391323 0.0537824)
(10.0014 -0.000419555 -0.00598531)
(9.80675 0.204441 0.0141534)
(10.381 0.180299 -0.0265506)
(10.3203 0.101684 -0.0257145)
(10.3597 0.0998198 -0.0333599)
(10.441 0.206474 -0.0176338)
(9.78328 -0.212187 0.0226772)
(9.79289 0.00420948 -0.0449776)
(9.85497 -0.0708312 -0.0339265)
(9.84808 0.0162876 -0.0455114)
(9.78344 0.00837736 -0.106271)
(9.80296 0.0153109 -0.080953)
(9.74813 0.0866614 -0.12172)
(9.76682 0.0832191 -0.0979045)
(9.53394 -0.21121 -0.0258891)
(10.0061 0.0146708 -0.00311827)
(9.9898 0.0509838 -0.00154422)
(8.95611 0.572399 -2.15133)
(7.74645 0.833028 -2.11946)
(7.75385 0.831344 -1.72436)
(8.40266 0.824917 -2.32795)
(9.37802 0.682942 -0.138107)
(9.96474 1.02781 -0.50308)
(10.0671 0.224904 0.0166935)
(10.0231 0.0192169 -0.00592199)
(9.93223 0.023221 0.0190346)
(9.96822 0.057492 -0.00297266)
(7.97701 0.781928 -1.5363)
(10.0528 0.480614 -0.298167)
(9.89037 0.18905 -0.0222001)
(9.84916 0.477981 -0.508554)
(10.0954 0.368938 0.00337905)
(10.4926 0.542064 0.132495)
(10.1149 0.555236 0.0509416)
(10.2042 0.25184 0.0048759)
(10.3355 0.633701 0.168361)
(10.3421 0.0681115 0.00563082)
(10.2672 0.602686 0.106337)
(10.535 0.0447261 -0.0273516)
(10.2645 0.627285 0.162349)
(10.0361 0.718867 0.0180611)
(9.8831 0.402398 -0.0823277)
(10.03 0.303672 0.0423835)
(9.77674 0.437395 -0.0737799)
(6.11254 1.20526 -1.12195)
(8.29464 0.785957 -2.13529)
(10.017 0.146872 -0.012184)
(9.93169 0.371072 0.00684344)
(10.4626 0.416766 0.034694)
(9.89158 0.0829826 0.00189852)
(10.1109 0.0299218 -0.0101717)
(9.4683 -0.0414912 0.143893)
(10.1466 0.826334 -0.221259)
(10.2809 0.965625 -0.259685)
(9.79497 1.3422 -1.52971)
(9.9242 0.796033 -0.959909)
(10.2615 0.625342 -0.303602)
(10.4807 0.15461 0.0562788)
(10.3965 0.840147 0.0580802)
(10.1484 0.996968 -0.415428)
(10.5819 0.119015 0.00299055)
(8.76701 0.937617 -0.134782)
(10.1179 0.747211 0.24775)
(9.92881 0.473776 0.0464577)
(9.5404 0.648153 0.133661)
(10.3017 0.758918 0.0258773)
(10.6169 0.695374 -0.290556)
(10.0661 0.0273325 -0.000823153)
(10.412 0.685224 -0.047012)
(6.9404 1.42697 -6.02035)
(10.7037 1.61548 -3.47963)
(10.4777 0.379998 -0.00919296)
(9.97609 0.0147655 0.00127412)
(11.3627 0.882833 -2.94214)
(9.8542 0.246301 -0.0124805)
(11.4127 1.09698 -2.25314)
(10.1727 1.01605 -3.64432)
(10.2977 0.642074 -0.0302394)
(10.3061 0.130911 -0.0264005)
(10.2058 0.242776 0.00431425)
(10.5488 0.890476 -1.80318)
(8.71173 0.694847 -0.400105)
(9.93712 0.39458 0.00423494)
(13.0167 1.39571 -4.87462)
(10.4357 0.287108 0.00672078)
(10.096 0.613235 0.16095)
(10.732 1.46336 -4.60441)
(10.0167 0.869774 -1.66773)
(10.3885 0.243121 -0.0100637)
(10.3206 0.0940347 -0.0187654)
(10.3603 0.366505 0.00763745)
(10.199 0.570844 -0.957321)
(10.3963 0.553341 -0.955741)
(9.79046 0.590863 -0.570784)
(9.80844 0.576683 -0.350935)
(9.85508 0.631955 -0.426356)
(9.84519 0.28711 -0.057856)
(9.8523 0.302094 -0.145584)
(9.9614 0.0933775 -0.0199666)
(7.95644 1.09397 -0.624304)
(9.80694 0.169667 -0.0629864)
(9.8454 -0.0425927 -0.0599119)
(11.2351 1.51219 -3.42656)
(9.64732 -0.0154976 0.0149228)
(10.8316 1.23207 -2.58662)
(9.82831 0.268232 -0.0229065)
(9.83102 -0.0677809 -0.0236977)
(7.10444 1.05006 -0.646068)
(11.8781 1.68677 -5.94045)
(9.75246 0.723402 -5.56556)
(13.7402 1.65622 -4.02005)
(11.1136 2.21673 -8.12564)
(12.905 1.09797 -3.03743)
(9.73506 0.623901 -1.3032)
(9.20286 0.864026 0.644917)
(10.1696 1.02188 -0.506586)
(7.09446 0.505498 -2.42927)
(2.40161 1.46118 -4.27415)
(9.886 0.876909 -0.179529)
(8.39674 0.779506 -1.84682)
(8.88407 0.594006 -1.30629)
(1.3925 2.0007 -6.33465)
(9.74409 1.35658 -2.38967)
(8.74998 1.17656 -3.58979)
(9.61796 0.247153 -0.0331272)
(9.94491 0.00380915 -0.0074249)
(9.30984 0.995997 0.298529)
(10.0036 0.0702531 -0.0151786)
(9.59163 -0.0989441 -0.181578)
(9.51993 0.568404 -0.602335)
(10.0129 0.713852 -1.015)
(9.41588 0.619208 -0.099489)
(9.93149 1.54883 -3.58166)
(10.2433 0.970393 -0.733837)
(10.3434 1.03382 -0.793931)
(9.89241 0.626421 -0.0487886)
(9.75733 0.354608 -0.0929437)
(10.1771 0.656979 0.17137)
(10.0749 0.975286 -0.801529)
(10.597 1.00463 -1.45775)
(9.93128 0.248851 -0.0152674)
(9.06581 0.557577 -1.47379)
(0.835003 1.1858 -2.88705)
(2.05223 1.50853 -1.96915)
(10.104 0.256508 -0.0168465)
(9.52879 0.729922 -2.11654)
(9.49654 0.921285 -0.739396)
(6.59153 1.46552 -2.45093)
(9.98628 0.696027 -0.329263)
(9.84923 0.678822 -0.624701)
(8.48206 0.77011 -0.418976)
(9.38732 0.689311 0.705564)
(9.71171 0.283684 0.0820652)
(9.60614 0.434562 0.257988)
(9.6888 1.2204 0.118429)
(8.32727 0.741066 -0.325428)
(8.26754 1.07981 -2.18231)
(9.69392 1.08504 -0.38035)
(10.8099 0.680913 -0.423544)
(10.6584 0.724687 -0.415273)
(10.9452 0.780615 -0.670437)
(10.2275 0.102394 -0.0173459)
(9.68033 0.408324 -0.112884)
(9.75656 0.449063 -0.207208)
(10.5535 0.786287 -0.485003)
(10.0238 0.967771 -0.208785)
(10.0595 0.866694 0.107949)
(9.80582 0.553828 0.0432299)
(9.99808 -0.0165211 -0.00229544)