/*--------------------------------*- C++ -*----------------------------------*\
| =========                 |                                                 |
| \\      /  F ield         | OpenFOAM: The Open Source CFD Toolbox           |
|  \\    /   O peration     | Version:  2506                                  |
|   \\  /    A nd           | Website:  www.openfoam.com                      |
|    \\/     M anipulation  |                                                 |
\*---------------------------------------------------------------------------*/
FoamFile
{
    version     2.0;
    format      ascii;
    arch        "LSB;label=32;scalar=64";
    class       volScalarField;
    location    "0.0689058";
    object      k;
}
// * * * * * * * * * * * * * * * * * * * * * * * * * * * * * * * * * * * * * //

dimensions      [0 2 -2 0 0 0 0];

internalField   nonuniform List<scalar> 
47425
(
0.294423
0.328251
0.308215
0.314783
0.46335
0.313398
0.419691
0.319664
0.366887
1.36338
0.328263
0.323864
0.358579
0.308928
0.302612
0.326884
0.305191
0.335692
1.09542
0.527464
0.315563
0.302363
0.3167
0.309731
0.303543
0.295716
0.295183
0.83056
0.29319
0.29788
0.309726
0.318447
0.356125
0.29676
0.292915
0.311728
0.302062
0.36334
0.303276
0.311988
0.356242
0.506545
0.978655
0.378401
1.67866
0.341883
0.326592
0.350656
0.30038
0.29581
0.780561
0.612338
0.294701
0.815398
0.36415
0.361465
0.296443
0.296496
0.410585
0.305559
0.832623
0.849798
0.911767
0.320323
0.364462
0.300701
0.341186
0.358585
0.790096
0.311381
0.30201
0.290246
0.295007
0.307828
0.916461
0.368709
0.946334
0.306061
0.828554
0.519792
0.918663
0.309048
0.306617
0.348609
0.318001
0.312914
0.291933
0.291119
0.519797
0.593323
0.306261
0.334975
0.298248
0.366871
0.378521
0.362987
0.297931
0.295767
0.306653
0.351596
0.334638
0.425662
0.306065
0.448024
0.299106
0.366058
0.301473
0.315997
0.411889
0.31234
1.28473
0.32113
0.422222
0.348701
0.323749
0.814961
0.319139
0.629327
0.331981
0.327556
0.31675
0.362698
0.343067
0.341481
0.345205
0.387176
0.317929
0.364887
0.350329
0.299136
0.307662
0.322408
0.493974
0.343147
0.478124
0.342225
0.308443
0.393012
0.305345
0.304999
0.354014
0.358983
0.327761
0.45319
0.324257
0.366223
0.431623
0.339968
0.357109
0.361583
0.456753
0.792796
0.360298
0.797491
0.327508
0.318816
0.337954
0.926088
0.345733
0.322454
0.329357
0.296177
0.292785
0.307496
0.748985
0.844451
0.33807
0.921453
0.333199
0.882029
1.04296
0.344477
0.353844
0.315561
0.341948
0.373002
0.845895
0.292119
0.295013
0.298774
0.847864
0.29066
0.292061
0.29712
0.29707
0.336876
0.304702
0.413607
0.348551
0.292778
0.357975
0.297342
0.416749
0.365297
0.298534
0.310625
0.360532
0.318235
0.323839
0.28814
0.328621
0.36362
0.362703
0.312428
0.329567
0.375471
0.291901
0.308082
0.347544
0.361897
0.296859
0.300141
0.352122
0.309884
0.301286
0.300914
0.301723
0.58155
0.333205
0.353646
0.528197
0.285889
0.581069
0.298929
0.396928
0.509022
0.298228
0.316533
0.348141
0.380472
0.302724
0.310858
0.336823
0.36937
0.365215
0.316962
0.560682
0.329287
0.523605
0.364253
0.333823
0.290688
0.296038
0.304333
0.300828
0.362566
0.304036
0.357555
0.295484
0.303748
0.298626
0.497814
0.304847
0.365695
0.310668
0.297195
0.30387
0.359921
0.303618
0.357614
0.376801
0.352162
0.310245
0.358962
0.367952
0.346218
0.29844
0.365511
0.296721
0.322456
0.31447
0.511035
0.560436
0.297706
0.500536
0.370919
0.502359
0.448861
0.545518
0.538823
0.876963
0.291846
0.877644
0.360353
0.309841
0.30183
0.349175
0.318552
0.358997
0.33829
0.770534
0.315596
0.371308
0.297168
0.304388
0.320849
0.318171
0.299938
0.314929
0.357474
0.327567
0.293746
0.32222
0.299033
0.876857
0.841855
0.792177
0.29736
0.2946
0.302041
0.318046
0.792078
0.31702
0.326234
0.571408
0.336251
0.340979
0.368342
0.313593
0.64946
0.544585
0.307116
0.306274
0.29185
0.331948
0.296158
0.309905
0.295113
0.294757
0.298969
0.298968
0.937034
0.323103
0.302001
0.383806
0.297745
0.882681
0.315592
0.293215
0.300423
0.30804
0.308389
0.294106
0.304719
0.289998
0.298906
0.298662
0.304557
0.304054
0.332071
0.309544
0.299619
0.316161
0.306311
0.310291
0.334314
0.319176
0.30612
0.308207
0.360269
0.345183
0.332882
0.31813
0.315743
0.298349
0.31792
0.363516
0.358445
0.322314
0.307388
0.356776
1.17578
0.299593
0.310577
0.385663
0.308866
0.422583
0.357353
0.364437
0.302056
0.357608
0.308358
0.29678
0.355246
0.341569
0.364514
0.316871
0.303672
0.349723
0.314215
0.310988
0.313266
0.321409
0.300005
0.30202
0.309008
0.318918
0.313693
0.392027
0.294511
0.636417
0.295452
0.926588
0.32386
0.361071
0.348646
0.297245
0.346087
0.294994
0.328862
0.310302
0.582203
0.849741
0.295205
0.329621
0.306269
0.305828
0.314131
0.307294
0.303343
0.35477
0.318623
0.296499
0.308031
0.314437
0.29567
0.440656
0.303449
0.309646
0.489487
0.490559
0.304793
0.616596
0.512323
0.351258
0.497267
0.736128
0.29754
0.304187
0.305375
0.303676
0.724367
0.325122
0.293501
0.298336
0.309067
0.309825
0.317702
0.299424
0.690525
0.706629
0.501961
0.35638
0.3928
0.479402
0.298825
0.307945
0.346809
0.307264
0.355175
0.363124
0.377801
0.306397
0.369613
0.308022
0.302514
0.329126
0.311349
0.309657
0.306774
0.348583
0.357669
0.368272
0.32908
0.309588
0.341272
0.307723
0.762691
0.360977
0.391054
0.344949
0.342389
0.786831
0.326038
0.29654
0.328855
0.350158
0.327358
0.325764
0.339934
0.295324
0.320053
0.294958
0.31975
0.44101
0.293611
0.342284
0.318256
0.354307
0.294934
0.296589
0.297296
0.304665
0.306843
0.32476
0.304
0.296345
0.299007
0.318982
0.318363
0.331533
0.323449
0.29694
0.307642
0.286958
0.294241
0.304205
0.328111
0.313158
0.329031
0.363305
0.375393
0.755574
0.310575
0.303497
0.329173
0.365736
0.449288
0.45178
0.331375
0.299883
0.337472
0.42956
0.318519
0.458991
0.362382
1.07765
0.339698
0.340803
0.298457
0.45114
0.299195
0.303455
0.310839
0.329039
0.295993
0.290558
1.03282
0.299467
0.351987
0.298808
0.432007
0.291046
0.298296
0.412959
0.40151
0.311459
0.295669
0.281566
0.29426
0.310049
0.293994
0.295081
0.294725
0.372592
0.446541
0.313317
0.306918
0.312091
0.29812
0.518599
0.306823
0.314434
0.206525
0.308651
0.297823
0.286025
0.750416
0.30822
0.206631
0.227387
0.295334
0.346981
0.292465
0.301692
0.362354
0.334533
0.905885
0.305795
0.337
0.294941
0.452903
0.36783
0.369493
0.314854
0.751156
2.24714
0.303312
0.320566
0.339237
0.312818
0.359215
0.370738
0.319638
0.323793
0.378946
0.290599
0.359191
0.466465
0.335622
0.303654
0.472389
0.336224
0.305362
0.319182
0.334906
0.296783
0.361919
0.362684
0.352678
0.343373
0.302551
0.301636
0.979461
0.312709
0.391315
0.845898
0.806936
0.299139
0.352511
0.726146
0.343801
0.414823
0.778708
0.376793
0.782251
0.297104
0.294971
0.354838
0.510093
0.381507
0.375568
0.292708
0.366944
0.300762
0.314343
0.293129
0.337763
0.312754
0.781866
0.698761
0.334435
0.332262
0.34047
0.312461
0.37463
0.351689
0.352411
0.360587
0.342668
0.315448
0.334405
0.354482
0.299058
0.380716
0.355955
0.895427
0.559667
0.334669
0.307244
0.358502
0.296777
0.893368
0.306564
1.1022
0.347173
0.437296
0.336493
0.318098
0.320741
0.293309
0.351456
0.305939
0.292021
0.389247
0.383294
0.368557
0.381934
0.353015
0.993356
0.336812
0.371614
0.362311
0.363677
0.297443
0.346787
0.322008
0.380434
0.341421
0.316179
0.349949
0.315052
0.328054
0.306954
0.30314
0.473361
0.548145
0.301121
0.437009
0.301104
0.320359
0.304683
0.296433
0.657565
0.290773
0.310771
0.30973
0.295451
0.663893
0.994692
0.312752
0.334127
0.297647
0.337334
0.292412
0.320249
0.321125
0.534876
0.320492
0.297456
0.313139
0.299509
0.309528
0.304526
0.293014
0.311122
0.297654
0.293615
0.323759
0.539126
0.296058
0.251588
0.608816
0.554932
0.277486
0.324702
0.909123
0.354449
0.329436
0.49673
0.261625
0.813977
0.332905
0.298505
0.455832
0.331633
0.554573
0.312343
0.340635
0.298081
0.302026
0.425742
0.343763
0.314745
0.335547
0.420608
0.37115
0.34834
0.37843
0.48203
0.460079
0.671365
0.857139
0.86003
0.606937
0.636697
0.363099
0.356209
0.302928
0.296525
0.336421
0.317521
0.323604
0.332134
0.344782
0.299295
0.329245
0.361651
0.298665
0.376662
0.321759
0.297407
0.360907
0.29798
0.303119
0.30498
0.340133
0.420358
0.299647
0.297662
0.301155
0.352883
0.344414
0.513737
0.430638
0.29599
0.337665
0.291794
0.299556
0.301718
0.340234
0.351297
0.444961
0.309059
0.301162
0.304291
0.392786
0.904571
0.313582
0.313607
0.393041
0.339329
0.342953
0.334866
0.322296
0.3768
1.94804
0.434988
0.867741
0.366857
0.389898
0.29316
0.392608
0.303075
0.3279
0.331432
0.304987
1.40682
0.427053
0.357
0.510633
0.358137
0.290465
0.319301
0.395989
0.303614
0.338749
0.221507
0.300626
0.383477
0.365969
0.386515
0.704282
0.367988
0.359055
0.486362
0.303416
0.302743
0.432552
0.528144
0.325065
0.403037
0.441463
0.326394
0.313149
0.299454
0.322709
0.348527
0.346842
3.58143
0.665934
0.363123
0.535969
0.515082
1.23026
2.33402
0.502983
0.357405
0.360762
0.373542
0.362002
2.03728
0.30234
0.325927
0.372766
0.26972
0.325369
0.365867
0.352884
0.296216
0.379013
0.465391
0.363484
1.12052
0.294949
0.377364
0.376583
0.365703
0.357267
0.349858
0.37481
0.445435
0.342879
0.361633
0.459971
0.320621
0.305236
0.332543
0.41347
0.298389
0.407311
0.366932
0.358312
0.637939
0.970033
0.297486
0.3635
0.314047
0.36189
0.357625
0.658229
0.542397
1.42457
0.303963
0.360344
0.32171
0.951534
0.31038
1.70765
0.397829
0.378293
0.488078
0.577887
0.317019
0.301968
0.306305
0.317411
0.46169
0.316259
0.395573
1.10192
0.383523
0.297281
0.300695
0.67599
1.00582
0.503385
0.541028
0.933971
0.396038
0.348085
0.387282
0.307246
0.466205
0.365119
0.381434
1.05587
0.321902
0.298009
0.303144
0.357122
0.382653
0.36899
0.32437
0.311306
0.455609
0.302078
0.322948
0.298705
0.352839
0.359019
0.373446
0.3388
0.327984
0.308876
0.373907
0.3036
0.309269
0.319949
0.312589
0.369521
0.447719
0.336152
0.363758
0.30299
1.74
0.376428
0.360924
0.328798
0.92935
0.654775
1.06752
0.349508
0.332983
0.327578
0.72498
0.385255
0.332806
0.369982
0.351726
0.360134
0.882868
0.359653
0.310175
0.356837
0.350514
0.293477
0.573927
1.00727
0.30712
0.993129
0.336373
0.650667
0.565107
0.303622
0.339494
0.368462
0.610151
0.333517
0.332535
0.329503
0.737805
0.497435
0.610552
0.31197
0.322701
0.298689
0.310039
1.29235
1.28305
0.338969
0.357038
0.381025
0.772558
0.30459
0.293953
1.85155
1.2327
0.3557
0.309854
0.876257
1.35604
1.03257
0.365861
0.723049
1.18741
0.817971
0.317633
0.437493
0.433099
0.323948
0.334812
1.32107
1.30603
0.351989
0.362595
0.345279
0.312121
0.333233
0.324057
0.474017
0.328185
0.366938
0.300964
0.368281
1.09357
0.978915
0.313096
0.562724
0.430806
0.31418
0.504678
0.293563
0.333198
0.306221
0.331764
0.383089
0.29916
0.756363
0.303711
0.851729
0.616916
0.881389
0.399618
0.419039
0.33241
0.350405
0.323199
0.54193
1.08804
0.350692
0.977497
0.504105
0.771525
0.464636
0.879011
0.68306
0.321242
0.324424
0.953853
0.337803
0.307864
0.308118
0.748043
0.70506
0.308686
0.327486
0.626676
0.399369
0.928651
0.789029
0.349703
0.450007
1.03021
0.344517
0.318963
0.842735
0.308686
0.785279
0.810214
0.306454
0.300487
0.317611
0.298365
0.367456
0.30784
0.308934
0.359247
0.369013
0.465872
0.332914
0.316621
0.497489
1.27995
0.798785
0.347066
0.333084
0.545994
0.311328
0.983482
0.333995
0.339785
0.357163
1.7271
0.339944
1.93833
0.38319
0.498188
0.333533
0.749919
0.619525
0.659628
0.420831
0.537318
0.366432
0.363526
0.383737
0.580879
0.394478
0.452025
0.792515
0.38816
0.448366
0.913086
0.342364
0.30602
0.716489
1.71312
0.345999
0.329338
0.359335
0.379489
1.25019
0.951412
0.297105
0.315362
0.359141
0.784064
0.355934
0.578133
0.367547
0.346845
0.352548
0.467392
0.350401
0.601308
0.606678
0.338807
0.371828
0.429656
0.319658
0.902281
2.11446
0.331263
0.849899
0.84713
0.376772
0.822551
0.360611
0.358403
1.05394
0.360337
0.988506
2.63912
0.319021
0.364506
0.424445
0.365345
0.353185
0.386241
0.494118
0.394672
0.320997
0.385553
0.323687
0.760888
0.389304
0.348109
0.36717
0.546393
0.305354
0.827433
0.728165
0.353927
0.829384
1.37544
0.300784
0.458929
0.518102
0.353385
0.336252
0.507966
0.749882
0.489891
0.865777
0.30662
0.759606
0.447087
0.294783
0.374962
0.361639
0.484068
0.330827
0.380636
0.58672
0.294543
0.567727
0.352267
1.40413
0.373805
0.293594
0.361605
0.51834
0.354296
0.678605
0.432961
0.317888
0.70641
0.303148
0.329482
1.192
0.29527
0.369694
0.706524
0.334017
0.758357
1.28142
0.361102
0.393687
0.301708
0.891303
0.578697
0.910387
0.792882
0.405196
0.334649
0.416545
0.945791
0.943963
0.912646
0.350215
0.357547
0.347194
0.313701
0.375083
0.716441
0.347871
0.330813
0.336095
0.298223
0.31882
0.353726
0.313258
0.348941
0.359418
0.419173
0.303555
0.356881
0.558546
0.317669
0.30121
0.368805
0.345426
0.359404
0.297918
0.331923
0.329633
0.313341
0.375965
0.626633
0.338233
0.316039
0.302405
0.298625
0.517161
0.309886
0.308919
0.622138
1.11242
0.707427
0.312713
0.603561
0.461228
0.348332
0.562324
0.41509
0.540959
0.355448
0.311631
0.346043
0.383141
0.304753
0.361868
0.373988
0.353827
0.3092
0.308425
0.354857
0.501484
0.345465
0.406233
0.831968
0.346549
0.665761
0.391827
0.871398
0.293687
0.356524
0.344176
0.297128
0.314414
0.365954
0.29748
1.54156
0.561042
0.803886
0.364823
0.939064
0.300494
0.32555
0.515251
0.306395
0.795378
0.412466
0.619181
0.317993
0.975598
0.949716
0.308214
0.296108
1.09757
0.315896
1.04131
0.319118
0.357072
0.307472
0.302314
0.305552
0.322884
0.331515
0.631665
0.390807
0.38584
0.330583
0.327232
0.296572
0.356079
1.50059
0.35793
1.77015
0.558695
0.305277
0.368515
0.325775
0.322595
0.319671
0.351344
0.341483
0.362906
0.32754
0.293784
0.339607
0.354497
1.2499
1.51852
0.339324
0.347353
1.69873
0.335339
0.299054
0.299538
0.297229
0.33815
0.368982
0.400062
0.377989
0.327297
0.302893
0.388788
0.294102
0.289469
0.313846
0.720714
0.388026
0.824388
0.752247
0.816524
0.314836
0.303017
0.29498
0.296346
0.298689
0.63292
0.322106
0.294138
0.318038
0.352325
0.30412
0.453171
0.300339
0.369591
0.44285
0.326989
0.299384
0.305779
0.327164
0.32754
0.3047
0.334364
0.318216
0.493214
0.317783
0.3502
0.390273
0.316831
0.320416
0.302285
0.326355
0.308666
0.359465
0.385747
0.298187
0.291833
0.311348
0.314493
0.303767
0.350115
0.297272
0.305311
0.299922
0.315821
0.833505
0.312981
0.413901
0.291806
0.299714
0.694832
0.313951
0.355717
0.295386
0.305598
0.343561
0.363233
0.744877
0.37129
1.57419
0.298786
0.305927
0.349765
0.29818
0.29528
0.379112
0.327276
0.293829
0.295349
0.849264
0.421039
0.657972
0.357071
0.537859
0.36626
0.30039
0.386373
1.16032
0.352347
0.308113
0.308323
0.78083
0.302991
0.313057
0.327233
0.32454
0.344935
0.774898
0.306151
0.321087
0.347484
0.322522
0.356163
0.896451
0.797677
0.305613
0.299908
0.29839
0.356393
0.335298
0.294396
0.788984
1.01744
0.300888
0.344624
0.809908
0.310106
0.844515
0.442054
0.296484
0.303426
0.302956
0.310413
0.584346
0.327759
0.324583
0.316102
0.355222
0.313912
0.361543
0.579711
0.362926
0.481494
0.491094
0.471096
0.567709
0.348437
0.387721
0.390371
0.379196
0.334689
0.316741
0.812263
0.572236
0.377901
0.354413
0.360543
0.343891
0.330521
0.29331
0.297022
0.295831
0.357064
0.349917
0.489145
0.410733
0.861982
0.702504
0.327541
0.377893
0.309837
0.311893
0.365124
0.298643
0.319538
0.298405
0.297541
0.280874
0.275774
0.29737
0.339437
0.635859
0.995577
0.339402
0.296294
0.462269
0.490232
0.826038
0.317397
0.795182
1.38796
0.808195
0.861163
0.39123
0.29768
0.294286
0.360614
0.855456
0.294754
0.372717
0.334283
0.297723
0.619038
0.565155
0.542451
0.324338
1.30443
0.295831
0.304342
0.334123
0.335045
0.679271
0.75843
0.369327
0.433355
0.338679
0.36399
0.311064
0.89814
0.353674
0.863748
0.3719
0.857354
0.352979
0.483267
0.5341
0.539356
0.380212
0.382693
0.64225
0.352533
0.3539
0.391136
0.376031
0.360717
0.341158
1.26988
0.603836
0.326461
0.582276
0.714859
0.574066
0.309657
0.302862
0.770395
0.658683
0.783841
0.306533
1.07663
0.305995
0.882214
0.64607
0.592167
0.679564
0.298158
0.355358
0.301386
0.328012
0.324378
0.508608
0.416728
0.299429
0.298978
0.354821
0.322599
0.296313
0.297308
0.456801
0.298236
0.292792
0.328743
0.371903
0.422181
0.327912
0.36153
0.362818
0.312053
0.471928
0.431529
0.30797
0.308979
0.47757
0.580594
0.317507
1.68042
0.342774
0.417876
0.802317
0.38494
0.317529
0.297812
0.490354
0.319313
0.292606
0.368024
0.315333
0.304121
0.3189
0.302211
0.310927
0.313432
0.327076
0.309808
0.357214
0.67323
0.309286
0.317293
0.312085
0.320795
0.411271
0.99038
0.321363
0.304095
0.324463
0.560255
0.308882
0.334175
0.325214
0.84296
0.344727
0.379165
0.363751
0.39383
0.335536
0.349928
0.322544
0.507831
0.368457
0.353826
1.02857
0.322279
0.38783
0.344633
0.336287
0.353535
0.390832
0.316939
0.336597
0.302984
0.343893
0.321779
0.343742
2.67614
0.306211
0.407595
0.375987
0.34401
0.656714
0.353969
0.553292
0.36149
0.561682
0.644122
0.330478
0.301783
0.393074
0.380451
0.335227
0.304025
0.785448
0.449593
0.366497
1.329
0.566146
0.31183
0.490929
0.485687
1.29279
0.865448
0.385485
0.497666
0.442234
0.558589
0.470205
0.886618
0.258798
0.513478
0.317789
0.609558
0.362779
0.391002
0.369724
0.354836
0.33313
0.367387
0.594042
0.323139
0.360035
0.401216
0.492528
0.762455
0.410056
0.733016
0.34409
1.04466
0.373327
0.374644
0.834245
0.550758
0.697739
0.65511
0.631826
0.541242
0.363321
0.345072
0.320364
0.378529
0.361374
0.767507
0.351127
0.35857
0.310763
0.480984
0.353809
0.30592
0.852492
0.478193
0.501541
0.209761
0.401598
0.33353
0.349143
0.349299
0.377671
0.317173
0.290035
0.336361
0.391698
0.205332
0.195563
0.541336
0.347499
0.394838
0.410386
0.448809
0.371514
0.355651
0.351516
0.167602
0.358802
0.392648
0.186091
0.368364
0.826089
0.58601
0.33644
1.22042
0.385758
0.465621
1.66381
0.389751
0.372812
0.308469
0.612243
0.298627
0.301496
0.34859
0.364666
0.377285
0.332248
0.55576
0.354785
0.466115
0.311197
0.376822
0.361497
0.295997
1.41027
0.52941
1.01187
0.47833
0.299626
0.91378
0.47913
0.300911
2.5162
0.302846
0.298455
0.468488
0.45927
0.973015
0.799843
0.341283
0.676405
1.66735
0.355306
0.61525
0.981539
0.660641
1.69077
0.371012
0.330814
0.581219
0.648917
0.386604
0.949534
0.350718
0.324512
0.51098
0.35093
0.306934
0.369813
0.762779
0.716307
0.292595
0.503529
0.309248
0.379619
0.333146
0.376503
0.577734
0.419892
0.766788
0.351385
0.360678
0.735998
0.300283
0.31187
0.439651
0.303963
0.34263
1.08157
0.328287
0.890147
0.80883
0.825021
0.789514
0.376377
0.384145
0.29542
0.294251
0.41
0.302197
0.312071
0.389706
0.311453
0.399539
0.921959
0.302434
0.514137
0.306444
0.460138
0.358097
0.846509
0.355658
0.450804
0.307156
0.323326
0.400911
0.303138
0.325183
0.315345
0.298047
0.514441
0.314768
0.363885
0.350429
0.312846
0.353699
0.333395
0.364807
0.761842
0.327936
0.31048
0.313603
0.377189
0.174061
0.625647
0.462354
0.669463
1.01464
0.316809
0.418082
0.105484
0.254358
0.91
0.397024
0.529887
0.335234
0.721702
0.688312
1.2165
0.350286
0.324497
0.530398
1.27029
0.335313
0.397355
0.440996
0.43425
0.400561
0.390516
0.893619
1.36645
0.229764
0.365783
0.184691
0.342009
1.20274
0.320148
0.344019
0.315573
0.306602
0.432388
0.314889
0.568309
0.449794
0.319545
0.375958
0.311344
0.5295
0.613677
0.320305
0.417513
0.351837
0.816683
0.440138
0.349246
0.517112
0.506248
0.296535
0.302005
0.349569
0.305456
0.653344
0.303815
0.421597
0.582239
0.319304
0.333046
0.313986
0.313567
0.598197
0.382637
0.503177
0.304802
0.3085
0.509997
0.654747
0.307766
0.331132
0.306851
0.305615
0.607807
0.431502
0.772312
0.333384
0.305726
0.429723
0.378444
0.335479
0.309439
0.370633
0.370073
0.526541
0.388704
1.96302
0.395734
0.399548
0.305947
0.366686
0.839916
0.981493
0.37941
0.832123
0.348124
0.983685
0.407248
0.695643
0.453827
0.513956
0.388802
0.32045
0.352155
0.401266
0.54407
0.350461
0.352852
0.948689
0.374528
1.28418
0.373237
0.334366
0.365436
0.570308
0.406246
0.304622
0.89625
0.301369
0.32193
0.302796
0.354045
0.768195
0.468744
0.328095
0.497371
0.345979
0.331879
0.307581
0.327368
0.404268
0.396719
0.394081
0.340254
0.325175
0.38624
0.331225
0.296518
0.382691
0.345436
3.95492
0.359337
0.444201
0.335922
0.387363
0.344214
0.401056
0.297327
0.350481
0.332557
0.330812
0.362123
0.810353
0.296302
0.714389
0.561542
0.391252
0.379798
0.339036
0.382513
0.431045
0.672183
0.310322
0.331469
0.336813
0.479512
0.365384
0.298488
1.2402
1.46032
0.638892
0.299005
0.304938
0.490727
0.352998
0.353605
0.486562
0.364427
0.322801
0.348785
1.36055
0.303592
0.552298
0.300546
0.322752
0.407663
0.31933
0.379057
0.438015
0.305567
0.569946
0.387948
0.382008
0.428398
0.923764
0.313623
0.35995
0.353928
0.379393
0.34249
0.350664
0.295733
0.291731
0.374465
0.570963
0.370068
0.349451
1.1581
0.370041
0.590932
0.358355
0.383028
0.38042
0.339329
0.771958
0.337735
0.500619
0.354919
0.35501
0.335214
0.378036
0.550897
0.435439
0.317532
0.606884
0.376929
0.651295
0.735699
1.36414
0.309638
0.439366
0.377687
0.233534
0.37423
0.247738
0.424729
0.215635
0.377853
0.781336
0.385804
0.606364
0.663566
0.349786
0.207475
0.450733
0.93041
0.503787
0.642362
1.91538
1.65586
0.718465
0.79189
0.309328
0.345505
0.733325
0.375722
0.918851
0.359643
0.773782
0.753438
0.326008
0.358283
0.32194
0.296801
0.348515
0.296908
0.70304
0.383266
0.355696
0.537473
0.318426
0.350408
0.300652
0.324217
0.346561
0.337939
0.385079
0.297217
0.395317
0.892698
0.302726
0.310149
0.337293
0.307281
0.786072
1.12368
0.383329
0.416396
0.520042
0.300916
0.289905
0.329649
0.346939
0.318975
0.325762
0.313249
0.307232
0.457992
0.308516
0.347533
0.321815
0.300878
0.30277
0.971362
0.316222
0.332768
0.308909
0.41936
0.348815
0.335784
0.664565
0.393224
0.324853
0.373626
0.338941
0.357665
0.383282
0.365803
0.310883
0.374704
0.35896
0.317091
0.335733
0.342612
0.423211
0.439538
0.321863
0.329699
0.386982
0.413923
0.462129
0.55236
0.914717
0.900168
0.332539
0.303324
1.00747
0.51285
0.537031
0.311181
0.300187
0.322387
0.295688
0.317487
0.303973
0.307622
0.333276
0.30339
0.309854
0.306164
0.309863
0.302228
0.527472
0.358309
0.333612
0.310858
0.315141
0.599089
0.302129
0.307057
0.388564
1.04245
0.520859
0.374181
0.362234
0.311219
0.345667
0.455665
0.641589
0.384734
0.319059
0.3598
0.31863
0.319075
0.351176
0.417881
0.354963
0.313515
0.382101
0.393719
0.592439
0.377857
0.741803
0.566053
0.377291
0.377209
0.319664
0.328432
0.366682
0.294334
0.318774
0.58492
0.312582
0.338019
0.698201
0.342597
0.362237
0.480802
0.375737
0.310581
0.344708
0.308151
0.341472
0.714155
0.345075
0.413608
3.62518
0.56802
1.01923
0.820058
0.319415
0.326137
0.509723
0.303081
0.536708
0.476209
0.671887
0.369858
0.299724
0.78244
0.298438
0.5262
0.399209
0.312606
0.699559
0.869581
0.299158
0.307316
0.867951
0.298505
0.306554
0.306056
0.300523
0.342133
0.5581
0.563561
0.327779
0.786926
0.319977
0.322417
0.312549
0.847648
0.323429
0.885264
0.30154
0.341677
0.304177
0.415677
0.334858
0.487017
0.303778
0.649519
0.45777
0.459794
0.681926
0.32537
0.320022
0.90451
0.429281
0.33425
0.402806
0.711896
0.32675
0.410714
0.321335
0.574453
0.389158
0.307553
0.298448
0.440622
0.314586
0.370544
0.336266
0.299533
0.325733
0.305652
0.30829
0.329023
0.751408
0.316593
0.306869
0.305534
0.319073
0.313414
0.343454
0.297949
0.361715
0.425625
0.38083
0.375103
0.312194
0.445057
0.313291
0.367535
0.911475
0.486354
0.728439
0.318226
2.51978
0.348104
0.522907
0.371194
0.304024
0.378382
0.30983
0.30533
0.341313
0.352091
0.29119
0.315169
0.299257
0.647064
0.298753
0.315293
0.354602
0.729084
0.162956
0.32267
0.779396
0.870189
0.584515
0.547002
0.8869
0.14547
0.389094
0.23594
0.33978
0.465999
2.74902
0.47847
0.366004
0.298024
0.302408
0.737796
0.333755
0.478253
0.642784
0.369548
0.580316
0.359274
0.576568
0.308019
0.358551
0.341732
0.297006
0.381016
0.292442
0.339327
1.08502
1.01577
1.09458
0.437547
0.858533
0.316322
0.293907
0.303594
0.361842
0.300943
0.356388
0.307939
0.39809
0.373865
0.29929
0.304348
0.358507
0.299811
0.323139
0.353522
0.313731
0.351272
0.486622
0.321714
0.357199
0.803059
0.35125
0.730055
0.790667
0.34242
0.380311
0.300893
0.459218
0.339408
0.354778
0.694252
0.302946
0.364814
0.33471
0.349652
0.311391
0.31185
0.468457
0.500147
0.3755
0.340708
0.777906
0.364315
0.627709
0.575067
0.360507
0.84793
0.4282
0.35841
0.333066
0.35154
0.377304
0.337537
0.297682
0.328749
0.189272
0.571408
0.19268
0.312989
0.343788
0.41343
0.169826
0.906626
0.340516
0.365846
0.377883
0.195132
0.38268
0.769755
2.21453
0.358408
0.310558
0.365599
0.527525
0.311889
0.36044
0.371257
0.313592
0.350731
0.32094
0.636486
0.325557
1.47131
0.386413
0.916873
0.334873
1.53294
0.907837
0.973896
0.329364
0.336949
0.43384
0.363109
0.315787
0.368097
0.323906
0.808099
0.29943
0.449491
0.612392
0.298811
0.303241
0.312101
0.319636
0.347424
0.36047
0.374518
0.383655
0.37168
0.328132
0.390494
0.329004
0.432178
0.321198
0.360987
0.303062
2.60096
1.23572
0.362464
0.43223
0.295319
2.09084
0.295979
0.29811
0.35183
0.296039
0.370084
0.352522
0.294127
0.291458
0.336498
1.49551
0.584932
0.370891
0.795174
0.302167
0.361227
0.321912
0.35956
0.787205
0.378217
0.812174
0.292943
0.321145
0.769018
0.860321
0.326238
0.331362
0.610082
0.377036
0.342452
0.466487
0.369211
0.365642
0.394906
0.367822
0.290888
0.378586
0.348735
0.457871
0.301166
0.355808
0.298206
0.326799
0.804722
0.720051
0.316199
0.403609
0.324812
0.35041
0.315676
0.516228
0.315506
0.330809
0.349121
0.343012
0.420782
0.379565
0.463361
0.352768
0.293859
0.323484
0.302323
0.360454
0.297801
0.502728
0.427863
0.320006
0.600156
0.328102
0.299978
0.350002
0.301847
0.367803
0.609081
0.320294
0.411162
0.363051
1.00564
0.377372
0.357415
0.369082
0.702201
0.37005
0.510376
0.353273
0.384074
0.414554
0.393094
0.364732
0.746365
0.434804
0.363187
0.318743
0.309133
0.52767
0.323654
0.885467
1.66673
0.375887
0.402997
0.357432
0.455645
0.429041
0.367386
0.857371
0.459976
0.629288
0.303659
0.387727
1.09323
0.46594
0.33679
0.447842
0.315197
1.11208
0.369374
0.368885
0.314818
0.299507
0.304323
0.332026
0.302946
3.49466
0.302686
0.624058
0.2997
0.404778
0.367938
0.506698
0.331565
0.336576
0.32442
0.622004
0.445871
0.484878
0.306767
0.306622
0.433614
0.353643
0.3407
0.302103
0.299515
0.299059
0.321387
0.298344
0.35645
0.304275
0.537784
0.412296
1.11629
0.738728
0.566031
0.53671
0.370414
0.378345
0.297149
0.563592
0.312819
0.321296
0.311555
0.440319
0.472697
0.31304
0.402069
0.756805
0.469405
0.303135
0.303973
1.72762
0.791948
0.365162
0.832723
0.840076
0.615921
0.738951
0.546953
0.720984
0.385907
0.605734
0.741749
0.299045
0.307983
0.292768
0.453306
0.588341
0.316474
0.299889
0.382067
0.345821
0.378816
0.771389
0.461535
0.945443
0.341088
0.304552
0.322718
0.304452
0.341756
0.769071
0.934155
0.764325
0.761722
0.316091
1.16489
0.603484
0.310398
0.514464
0.452233
0.746436
0.367234
0.456736
0.743714
0.758016
0.455126
0.834782
0.483052
0.789059
0.361891
0.323069
0.376196
1.11385
0.750619
0.372465
0.320673
0.52892
0.423777
0.562266
0.339666
0.358367
1.10861
1.07077
0.202237
0.332987
0.205002
0.301653
0.200447
0.357845
0.443653
0.575744
0.185995
0.415493
0.479081
0.134779
0.44248
1.42387
0.392715
0.362261
0.759614
0.317157
0.475957
0.308681
0.2954
0.313012
0.323499
0.843889
0.675221
2.05759
0.372697
0.370327
0.611771
0.356171
0.439051
0.39022
0.34291
0.31919
0.574356
0.379922
0.423856
0.310198
0.40268
0.386036
0.725936
0.442716
0.786723
0.948675
0.74758
0.373699
0.381915
0.726002
0.261337
0.52925
0.34159
0.367089
0.308798
0.77953
0.603848
0.652362
0.731174
0.590643
0.300897
0.409825
0.858169
0.793667
0.369369
0.356003
0.439505
1.43114
0.335506
0.303329
0.361823
0.327078
0.824235
0.320552
0.586084
0.893623
1.05649
1.88494
0.520244
0.435175
0.77745
1.34977
0.850666
0.559451
0.759987
0.923802
0.504738
0.35869
0.426254
0.356456
0.291225
0.310048
0.403489
0.491159
1.87421
0.352279
0.389825
0.404382
0.375761
0.451739
0.54609
0.465414
0.369462
0.378282
1.04883
1.06535
0.178845
0.380068
0.324922
0.350169
1.51978
0.821906
0.368798
0.643708
0.319373
0.42091
0.548962
0.539529
0.323154
0.320771
0.314646
0.374444
0.900384
0.438237
0.339437
0.728485
0.304022
0.937219
0.698117
0.454029
0.682436
0.349516
0.302771
0.31517
0.306915
0.350298
0.37793
0.315587
0.330418
0.316365
0.304694
0.485417
0.627338
0.709752
0.308639
0.456189
0.345658
0.373768
0.330284
0.605242
0.338439
0.324948
0.322062
0.302673
0.311985
0.316337
0.439011
0.297561
0.341086
0.351854
0.595461
0.310725
0.37268
0.485456
0.775983
0.870339
0.368304
0.873622
0.501092
0.354797
0.328728
0.515714
0.320545
3.0291
0.398926
0.309044
0.405209
0.451418
0.388726
0.437152
0.705296
0.962963
0.425818
0.836416
0.326177
0.297194
0.374361
0.30333
0.30233
0.389262
0.304281
0.305879
0.564319
0.303167
0.249616
1.63345
0.551245
0.300874
0.302309
0.63436
0.320605
0.313672
0.556938
0.313343
0.73002
0.380695
0.761577
0.303148
0.526231
0.425892
0.651593
0.308124
0.421804
0.308095
0.998881
0.364328
0.302569
1.19583
0.410147
0.486029
0.339916
0.354146
0.373675
0.30331
0.487833
0.302799
0.308514
0.301278
0.432345
0.542668
0.311709
0.309129
0.309589
0.305668
0.318151
1.84263
0.302563
0.439463
0.301945
0.551939
0.33979
0.351645
0.346114
0.450578
0.321606
0.400593
0.293202
0.325118
0.320464
0.333559
0.302852
0.418475
0.389493
0.872338
0.950752
0.773003
0.378139
0.328095
0.326871
0.302349
0.304749
1.03166
0.619019
0.383166
0.354809
0.294981
0.32004
0.293637
0.308448
0.51161
0.494401
0.750836
0.952111
0.354642
0.35537
0.387601
0.302443
0.556473
0.347595
0.439475
0.357268
0.343725
1.05834
0.397531
0.295864
0.322132
0.385676
0.307369
0.490264
0.301559
0.67007
0.357054
0.889249
0.4778
0.755967
0.309525
0.321514
0.339515
0.374406
0.344996
0.358236
0.306443
0.30156
0.306873
0.314951
0.354886
0.577604
0.354287
0.840759
0.399493
0.317651
0.502133
0.381688
0.361451
0.266308
1.04324
0.862437
0.253604
0.316401
0.308532
0.825915
0.302139
0.399775
0.362962
0.3502
0.277036
0.359523
0.356582
0.30162
0.404726
0.43994
0.944874
0.515212
0.424151
0.293423
0.384225
0.535761
0.333259
0.304669
0.860419
0.800286
0.341417
0.744563
0.308322
0.300534
0.381783
0.308163
0.867716
0.299294
0.300577
0.305039
0.639086
0.301739
0.341918
0.438964
0.446575
0.300693
0.318014
0.32362
0.321941
0.306518
0.346225
0.351172
0.575648
0.411924
0.364667
0.558164
0.356763
0.593686
0.346041
0.875408
0.428523
0.282885
0.646285
0.194011
0.416145
0.510427
0.568488
0.38149
0.301213
0.303277
0.296466
0.355265
0.815273
0.368472
0.300604
0.347104
0.360577
0.294262
0.466388
0.326253
0.366135
0.446038
0.320564
0.307709
0.334536
0.324635
2.01102
0.91161
0.367955
0.354452
0.409868
0.350127
0.786284
0.971929
1.00374
0.760485
0.342315
0.319727
0.326517