/*--------------------------------*- C++ -*----------------------------------*\
| =========                 |                                                 |
| \\      /  F ield         | OpenFOAM: The Open Source CFD Toolbox           |
|  \\    /   O peration     | Version:  2506                                  |
|   \\  /    A nd           | Website:  www.openfoam.com                      |
|    \\/     M anipulation  |                                                 |
\*---------------------------------------------------------------------------*/
FoamFile
{
    version     2.0;
    format      ascii;
    arch        "LSB;label=32;scalar=64";
    class       volScalarField;
    location    "0.0689058";
    object      nut;
}
// * * * * * * * * * * * * * * * * * * * * * * * * * * * * * * * * * * * * * //

dimensions      [0 2 -1 0 0 0 0];

internalField   nonuniform List<scalar> 
47425
(
0.0049684
0.00487825
0.00430917
0.00195993
0.00321103
0.00442585
0.00437901
0.00316609
0.00742777
0.00229196
0.00240576
0.00738517
0.00496006
0.00390183
0.00316221
0.00372268
0.00446319
0.00241394
0.000249035
0.00271034
0.00374632
0.00675455
0.00304296
0.00492843
0.00666988
0.00675693
0.00380805
0.000486017
0.00419209
0.00540503
0.00714598
0.00713641
0.00745915
0.00434827
0.00528295
0.00468085
0.00681247
0.00537801
0.00462344
0.00420023
0.00499627
0.00442869
0.00487631
0.00260976
0.00090216
0.00330769
0.00342223
0.00451872
0.00382766
0.00630576
0.000635605
0.00264144
0.00596095
0.00112958
0.0032414
0.00294104
0.00666604
0.00509672
0.00247994
0.00500571
0.000904476
0.000714252
0.00103225
0.00292766
0.0073849
0.00673831
0.00555504
0.00411035
0.00107724
0.0051857
0.00386838
0.00556343
0.00604578
0.00340649
0.00145656
0.00746319
0.00107263
0.00378464
0.000196831
0.0019205
0.001421
0.00475564
0.00712368
0.00742905
0.00601782
0.00383815
0.00540401
0.00550181
0.00412695
0.00147408
0.0069325
0.00440747
0.00710244
0.00321454
0.00258192
0.00187007
0.00625959
0.00559204
0.00349024
0.00451202
0.0055662
0.000940557
0.00587171
0.000966816
0.00600356
0.00699371
0.00605197
0.00338729
0.00612894
0.00703436
0.00347836
0.00517768
0.00580375
0.00225397
0.00734172
0.000338608
0.00736511
0.000730908
0.00427936
0.00524421
0.00399521
0.0074714
0.00590389
0.00253065
0.00358546
0.00670419
0.00374672
0.0074179
0.00333563
0.00711429
0.00685805
0.00339742
0.00100498
0.00288412
0.00456629
0.0044639
0.00647896
0.00644307
0.00443952
0.00315467
0.00499008
0.00222536
0.00466007
0.00497474
0.00627634
0.00742414
0.00375222
0.00542248
0.0023845
0.00499671
0.00501189
0.000540251
0.00738985
0.000415842
0.00291455
0.0038017
0.00283372
0.000301939
0.00378831
0.00452367
0.00744479
0.00685731
0.00589837
0.0066311
0.00118368
0.000424066
0.00743274
0.00144347
0.00314229
0.000781075
0.00152111
0.00405804
0.00479069
0.00324611
0.00480147
0.00123497
0.000389978
0.00417372
0.0056149
0.00688266
0.000316884
0.00605247
0.00486096
0.00650882
0.0064036
0.00696007
0.00538644
0.00108853
0.00234236
0.00519531
0.00746955
0.00414061
0.00502909
0.00474278
0.00648768
0.00734283
0.00582736
0.00443339
0.00746341
0.0034636
0.00500377
0.00295827
0.00575974
0.00730525
0.00237521
0.00236395
0.005486
0.00725039
0.00400976
0.00747105
0.00470768
0.00456395
0.00745919
0.00332417
0.00471591
0.00472429
0.00394222
0.00183044
0.00329082
0.00380337
0.00184271
0.00237619
0.00442132
0.00310618
0.00238059
0.00161162
0.00651054
0.00244798
0.00719539
0.00393461
0.00419447
0.0043205
0.00329395
0.00748888
0.00222162
0.00344555
0.00169809
0.00295644
0.00190668
0.00201566
0.00401449
0.0048602
0.00704683
0.00298966
0.00676455
0.00733162
0.00444718
0.0059
0.00688284
0.00393473
0.00710719
0.00220362
0.00456084
0.00742026
0.00340105
0.00702309
0.00666536
0.00301297
0.00322461
0.00739659
0.00303462
0.00745965
0.00395151
0.00266358
0.00509393
0.00388349
0.00681418
0.00437912
0.00472327
0.00394459
0.00394297
0.00212717
0.00176858
0.0061169
0.00222237
0.00207721
0.00222207
0.00054055
0.00181675
0.000596323
0.00090243
0.00498886
0.00082001
0.00294153
0.00390696
0.00355639
0.00336693
0.00351454
0.00399426
0.00747415
0.000753036
0.00499457
0.00737543
0.0052623
0.00451809
0.0032982
0.00287347
0.00647833
0.00482844
0.00492242
0.00377963
0.00676346
0.0037881
0.00497329
0.00100224
0.000818999
0.000546793
0.00705725
0.00612785
0.00698659
0.00318649
0.00081424
0.00368789
0.00281697
0.00183262
0.00461642
0.00328045
0.00302724
0.00337071
0.00147368
0.00190529
0.00695683
0.00509543
0.00620805
0.0041086
0.00683437
0.0039796
0.00469674
0.0056258
0.00417067
0.00357818
0.000959128
0.00382955
0.00406339
0.00297233
0.00702739
0.000844341
0.00632703
0.00645554
0.00568524
0.0068031
0.00675033
0.00652587
0.00581541
0.00567917
0.00593815
0.00502743
0.00650858
0.00365246
0.00401649
0.00668733
0.0066861
0.00508426
0.00649804
0.00655746
0.00255865
0.00397791
0.00713673
0.00640133
0.00385724
0.00194436
0.00550444
0.0041288
0.00335
0.00621926
0.0065598
0.00279057
0.00743424
0.00483186
0.00696512
0.00276453
0.00122108
0.00385247
0.00717901
0.00192608
0.00713489
0.00412341
0.00383643
0.00502323
0.00677805
0.00563155
0.00699881
0.00699311
0.00481462
0.00400808
0.0043993
0.00380863
0.00578767
0.00717401
0.00383016
0.00615867
0.00605137
0.00402571
0.00528488
0.00461878
0.00640383
0.00516864
0.00356093
0.00331528
0.0060424
0.000982383
0.00657416
0.00216758
0.00468526
0.00344746
0.00341992
0.00635771
0.00238595
0.0064108
0.00352448
0.00666691
0.00113077
0.00100493
0.00692342
0.00261729
0.00383786
0.00357943
0.00382084
0.00414743
0.00375899
0.00399558
0.00477814
0.00651898
0.003059
0.00444527
0.00612096
0.00355617
0.00389947
0.00594531
0.000881728
0.000386078
0.00664396
0.000479006
0.000487903
0.00395099
0.000461625
0.000956071
0.00629222
0.00381196
0.00405026
0.00386339
0.00101727
0.00376778
0.00594001
0.00613865
0.00414266
0.00412877
0.00397646
0.00374946
0.00107909
0.000744645
0.00121766
0.00543752
0.000975013
0.00381141
0.00518324
0.0070837
0.00506751
0.00714585
0.00422919
0.00478995
0.00284693
0.00441968
0.00748961
0.00384411
0.00508276
0.00428429
0.00722172
0.00479692
0.00456995
0.00523089
0.00562937
0.00338934
0.00276628
0.00502161
0.00412514
0.00715614
0.00129797
0.00277785
0.00198324
0.00744304
0.0025627
0.00323228
0.00288479
0.00695643
0.00389409
0.00740269
0.00486308
0.00282566
0.00325203
0.00350545
0.00315646
0.00536176
0.00226618
0.000857181
0.00628749
0.00155807
0.00558784
0.00158545
0.00605203
0.00577065
0.00684166
0.00440357
0.00518415
0.00293808
0.00493775
0.00643937
0.00696449
0.00612016
0.00432733
0.00262643
0.00357026
0.0070485
0.00552755
0.00493746
0.0051097
0.00514658
0.0047705
0.00435927
0.00247867
0.00472281
0.00372038
0.000663238
0.00508148
0.00440611
0.00624274
0.0074118
0.00172261
0.00212954
0.0043876
0.00599222
0.0042429
0.00408145
0.00683775
0.00205503
0.00747829
0.00412358
0.00234537
0.00271833
0.00511487
0.00280871
0.00720605
0.00420405
0.00425088
0.00563133
0.00688746
0.00564371
0.000916853
0.00477465
0.00242412
0.00658146
0.00186924
0.0062786
0.00507311
0.00206494
0.00238042
0.0044657
0.00657323
0.000715659
0.0053738
0.00525826
0.00527875
0.00613501
0.00673958
0.00225778
0.00290827
0.00603693
0.00506667
0.00463427
0.00687713
0.00195091
0.00693025
0.00501804
0.000428647
0.0043314
0.00700453
0.000839235
0.00128779
0.00704759
0.000318033
0.000334148
0.00419517
0.00744587
0.00563878
0.00685264
0.00426247
0.00381769
0.0013197
0.00693714
0.00268794
0.00600258
0.00202549
0.00225239
0.00433122
0.00472756
0.00151536
0.00719429
0.00587992
0.00341118
0.00335815
0.0024696
0.00297091
0.00298363
0.00668051
0.0033331
0.00285124
0.00294702
0.00532565
0.00286655
0.00327521
0.00636695
0.00245067
0.00363199
0.00392903
0.00268763
0.00334396
0.00436885
0.00492962
0.00603711
0.00165042
0.00507711
0.0064509
0.00637285
0.000295868
0.0039154
0.00502522
0.000518538
0.000835903
0.00700878
0.0046325
0.000147498
0.00205086
0.000767822
0.00262669
0.00315409
0.000749975
0.00499675
0.00612165
0.00590947
0.00292437
0.00335452
0.0033283
0.0063408
0.00311896
0.0044617
0.00378679
0.00609107
0.00425481
0.00378048
0.00170361
0.000985311
0.00276441
0.00286235
0.00398526
0.00584054
0.00342131
0.00741648
0.00605418
0.00567861
0.00526707
0.0056908
0.00191217
0.00469491
0.00630681
0.00185038
0.00192471
0.00100345
0.00116785
0.00388766
0.00717362
0.00481613
0.00685904
0.00121816
0.00437957
0.00127198
0.00417018
0.00393771
0.00504181
0.00464751
0.00550377
0.00336077
0.00188004
0.00347277
0.00513196
0.00188683
0.00420384
0.00748588
0.00417648
0.00396726
0.00187044
0.00487273
0.00184355
0.00332049
0.00747321
0.0068551
0.00247333
0.00404188
0.00354999
0.00743277
0.00502899
0.00403571
0.00438195
0.00407461
0.00386729
0.00468481
0.000875649
0.000601246
0.00425923
0.000783879
0.00446252
0.00285285
0.00335641
0.00616777
0.00429669
0.00471853
0.00403856
0.00398211
0.00670455
0.000565237
0.00253365
0.0033165
0.00506793
0.00640457
0.00372579
0.00525972
0.00237908
0.00735346
0.00194003
0.00399751
0.00673598
0.00408873
0.00646104
0.00523248
0.00438362
0.00591385
0.0035102
0.00710175
0.00647808
0.00366511
0.00101601
0.00714681
0.000734521
0.00233265
0.00208641
0.000736895
0.00414719
0.00401145
0.00209367
0.00349572
0.00079584
0.000828661
0.000917607
0.00318309
0.00480052
0.00364158
0.002898
0.000852007
0.00245376
0.0036262
0.00550745
0.00429599
0.0041405
0.00307127
0.00563655
0.0041578
0.00128744
0.00193427
0.0055554
0.00246467
0.00106505
0.000684153
0.00370123
0.000569026
0.00187654
0.000652973
0.00083591
0.00449997
0.00300362
0.00684909
0.0064179
0.00474851
0.000734219
0.001224
0.00470129
0.00477657
0.006986
0.000885584
0.000867442
0.00703485
0.00224189
0.00360662
0.00702598
0.00219446
0.00705288
0.00697276
0.00421454
0.00473984
0.00154732
0.00628142
0.00699816
0.00495573
0.00516338
0.00514135
0.00100475
0.00191146
0.00687678
0.00122962
0.00608273
0.00642612
0.00640064
0.00176022
0.00448317
0.00196863
0.00259206
0.0055325
0.00703845
0.00124319
0.000644807
0.00439935
0.0038187
0.00193874
0.00525868
0.00560986
0.00295781
0.00271704
0.00294507
0.00657591
0.00243457
0.00107343
0.0074237
0.00107648
0.0052002
0.00394836
0.00672386
0.00198909
0.00265923
0.00689346
0.00409011
0.00124321
0.00319326
0.0019233
0.00455402
0.00530739
0.0045388
0.00352168
0.00441057
0.00303189
0.000681406
0.00454606
0.00253201
0.00177599
0.00176113
0.00106905
0.00171836
0.00407509
0.000540233
0.00676988
0.00639481
0.00402721
0.00275123
0.00377638
0.00139154
0.00131324
0.00317586
0.00458819
0.00439931
0.0031385
0.00353551
0.00387618
0.0099941
0.00137218
0.00392263
0.0038644
0.00283277
0.00186007
0.00587016
0.000546292
0.0038856
0.00537225
0.00386732
0.00392426
0.00825316
0.00660196
0.00331596
0.0038633
0.000694549
0.00270738
0.00475772
0.00362763
0.00551328
0.00348929
0.000764107
0.00462405
0.00216441
0.00546768
0.0017917
0.00286743
0.0037602
0.00546099
0.00529002
0.00357869
0.00213261
0.00383321
0.00161494
0.000740529
0.00522035
0.00683443
0.00486495
0.00103229
0.00517612
0.00271062
0.00698258
0.00166718
0.00167086
0.00379347
0.00298855
0.00434282
0.00695946
0.0051476
0.00314246
0.00113829
0.00217741
0.00114589
0.00655768
0.00221577
0.0024418
0.0029755
0.00351788
0.00515964
0.00168049
0.00163865
0.0036924
0.000914809
0.00351902
0.00351744
0.00420738
0.00478025
0.00365872
0.00470658
0.00120739
0.00427054
0.0040432
0.00433402
0.00589953
0.000781056
0.00254855
0.000697517
0.00152767
0.000872653
0.00207397
0.00384163
0.00126948
0.00343907
0.00124012
0.00198876
0.00203533
0.00143763
0.00294073
0.00510686
0.00419441
0.00746835
0.0014211
0.00367222
0.00339523
0.00432716
0.00131771
0.00570401
0.00425282
0.00584775
0.00746034
0.00290683
0.00179345
0.0029501
0.00309765
0.00519955
0.00231569
0.00652298
0.0031364
0.00306699
0.00665367
0.0023025
0.0022968
0.0042172
0.00202775
0.00379972
0.00332916
0.0020487
0.00291266
0.00307925
0.00021948
0.000657139
0.0016971
0.000770531
0.00328363
0.00325713
0.000612699
0.000928126
0.00489296
0.00101898
0.00331007
0.00417504
0.000546603
0.00260761
0.00689773
0.00316442
0.00145313
0.00591492
0.0006828
0.000340969
0.00222028
0.000824146
0.00222235
0.000936626
0.000840881
0.00536079
0.00445298
0.00275813
0.0018503
0.0036437
0.00725814
0.00205341
0.000687732
0.00451043
0.00165107
0.00424998
0.00200664
0.00616301
0.00582481
0.00237122
0.00228223
0.00414808
0.00175658
0.00490285
0.0014215
0.00697361
0.00569358
0.00428868
0.00220778
0.0048995
0.00709605
0.000771319
0.00190709
0.00175604
0.00368949
0.00251547
0.00226758
0.00120271
0.00398404
0.00114337
0.00304374
0.0050286
0.00312234
0.00244813
0.00090145
0.00197403
0.0017495
0.00587858
0.00486459
0.00198655
0.00398247
0.00279709
0.00499734
0.00740451
0.00620621
0.00388571
0.00299186
0.000823319
0.00393193
0.000496486
0.00376371
0.0043488
0.002978
0.0051181
0.00369867
0.00400662
0.00443283
0.00193351
0.00559825
0.00143591
0.00694436
0.000366601
0.00134272
0.00140267
0.00197482
0.00410496
0.00532376
0.00343063
0.00501474
0.000633052
0.000750588
0.00338005
0.00218469
0.00099301
0.000928986
0.00231882
0.00115708
0.00059418
0.00352495
0.00478347
0.00054974
0.0038186
0.00449221
0.00419615
0.00114077
0.000559245
0.00388114
0.00367794
0.00130282
0.00257064
0.00130771
0.000755481
0.00324974
0.00109431
0.00117865
0.00335016
0.00452458
0.00111751
0.00587527
0.00158545
0.000234112
0.00708592
0.00430253
0.00377678
0.00527598
0.00299674
0.00303134
0.00728324
0.00296306
0.00412667
0.00081875
0.00158824
0.00449477
0.00141686
0.00571795
0.000388742
0.0067886
0.00353082
0.00233581
0.00525552
0.000988363
0.00389525
0.00303627
0.00236364
0.00363839
0.00393088
0.00548801
0.00211181
0.000687879
0.00586092
0.00146291
0.000716621
0.00236348
0.00356217
0.00100532
0.00168834
0.00478124
0.00527606
0.0010319
0.0017421
0.00226371
0.000819801
0.002586
0.000925229
0.00342275
0.00278409
0.00214588
0.000998533
0.00529788
0.00554161
0.00211533
0.00428453
0.00255694
0.00405835
0.0012272
0.00509391
0.00361553
0.00575593
0.00142392
0.00560399
0.000607188
0.00218423
0.00556661
0.00739777
0.00189152
0.00164303
0.000880687
0.00194004
0.00207957
0.00110341
0.000864317
0.00399863
0.000926623
0.0050811
0.00283987
0.000416322
0.00151063
0.00308877
0.00342602
0.00561304
0.00148182
0.000709398
0.0015922
0.00278809
0.00715362
0.00705087
0.00180787
0.00408251
0.00379479
0.00627785
0.00103832
0.00322681
0.00162029
0.00411871
0.0015591
0.00400418
0.00323301
0.00110355
0.00183049
0.00238123
0.00253467
0.00546491
0.000399194
0.00165169
0.00153013
0.00142828
0.00478358
0.0052773
0.00104627
0.000785324
0.00163161
0.0027116
0.00282408
0.00159311
0.00243109
0.00150944
0.00535394
0.00130613
0.00133673
0.00537751
0.00118178
0.00335443
0.00255744
0.00273676
0.00128081
0.00247131
0.00579089
0.000699175
0.00331067
0.000654621
0.00261826
0.0036465
0.00304991
0.00193881
0.00129047
0.0023329
0.00394712
0.00293804
0.00118711
0.0038463
0.00417526
0.000673273
0.00682814
0.00359704
0.000862618
0.00347733
0.0026556
0.00228012
0.0023984
0.00118327
0.0036241
0.00015794
0.0022514
0.000797545
0.00286781
0.00113436
0.00271593
0.000885545
0.00137922
0.00136591
0.00296342
0.00396631
0.00741052
0.00404073
0.00361225
0.00289172
0.000721315
0.00375896
0.00596017
0.00422093
0.00486572
0.00303469
0.00415741
0.00714211
0.0074528
0.00299033
0.00097656
0.00662624
0.00279027
0.00239448
0.00523071
0.00633626
0.00283652
0.00221157
0.00747109
0.00543957
0.00332913
0.0035162
0.0058636
0.00387984
0.00115783
0.0038589
0.00334305
0.00555424
0.00685788
0.00207739
0.00463903
0.00580681
0.00083982
0.00196414
0.000962566
0.00655533
0.000946743
0.000425597
0.00576607
0.000385259
0.000781086
0.000567675
0.00392138
0.00467836
0.00424392
0.00140394
0.00679434
0.0044039
0.00447707
0.00387962
0.00271819
0.00346572
0.00343713
0.00104208
0.00431803
0.00269491
0.000832376
0.00400578
0.000325104
0.00167772
0.00124379
0.00636162
0.00302268
0.00194045
0.00570563
0.00462323
0.00192738
0.00697684
0.00296426
0.0016892
0.000434309
0.00720306
0.00150701
0.00508579
0.00299268
0.00294071
0.00525326
0.00134491
0.00462081
0.0021054
0.00443817
0.00129934
0.000280138
0.00388099
0.00683195
0.00238051
0.0046273
0.000859883
0.00374794
0.00374796
0.0044067
0.00417782
0.00541535
0.00723579
0.00373745
0.00220751
0.00521905
0.00218503
0.00398576
0.00376433
0.00708866
0.0022995
0.0027757
0.00400285
0.00495043
0.00456765
0.00451966
0.00308073
0.0041533
0.00437732
0.00575967
0.00234456
0.00261108
0.0074721
0.00384527
0.00354088
0.00505809
0.00380742
0.0031566
0.00417238
0.00364012
0.00389415
0.00528826
0.00384759
0.00571538
0.00466033
0.00618873
0.00204781
0.0022302
0.00196174
0.00361934
0.00470979
0.00407103
0.00120669
0.00517788
0.0049808
0.0053591
0.00148732
0.00298512
0.00123886
0.00123156
0.00125649
0.00321882
0.00444948
0.00405062
0.00414209
0.00623782
0.00119065
0.00395015
0.0063051
0.00407108
0.00315673
0.00393832
0.00148795
0.00396174
0.00236197
0.00271551
0.00337999
0.00602157
0.00435084
0.00369133
0.0037527
0.00448929
0.0029841
0.00325827
0.00279244
0.00366942
0.00508203
0.00494859
0.0021201
0.00189885
0.0046461
0.00410046
0.00230643
0.00372819
0.0022806
0.00647854
0.00516101
0.00230142
0.00458222
0.00565771
0.00463571
0.00671945
0.00639777
0.00338356
0.00426985
0.0021173
0.00436294
0.00232636
0.00581924
0.00428255
0.000992087
0.0039736
0.00420725
0.00492543
0.00503832
0.00394515
0.00425148
0.000321032
0.00346765
0.00357302
0.0058469
0.00511781
0.00495067
0.00705224
0.00608413
0.00350401
0.00406119
0.00611145
0.00655118
0.00278826
0.000978324
0.00128143
0.00300008
0.00174982
0.00350572
0.00382434
0.00353741
0.00208258
0.00194465
0.00325245
0.00393889
0.000832148
0.00472125
0.00393205
0.00381743
0.00395633
0.00605664
0.000300781
0.00457966
0.00356906
0.00743041
0.00262473
0.00253938
0.00040798
0.000229072
0.00456113
0.00563231
0.0068478
0.00395785
0.00362254
0.0048723
0.000208792
0.00135426
0.00466908
0.00251514
0.00130906
0.00482072
0.00490112
0.00343989
0.00681039
0.00491476
0.00651121
0.0042084
0.00281816
0.00385507
0.00419418
0.00509132
0.00188334
0.00421062
0.00743716
0.00147667
0.00571921
0.00339445
0.0029196
0.00105725
0.00172794
0.00343541
0.00287963
0.00486241
0.00284779
0.00284134
0.00593395
0.000582408
0.00171153
0.00287974
0.00387668
0.00339966
0.00383706
0.00379665
0.00111357
0.00707992
0.00655207
0.00574174
0.00538246
0.000867031
0.00126985
0.0012773
0.00181692
0.00300684
0.00287971
0.00710071
0.0068194
0.00454908
0.00485188
0.00503863
0.00548646
0.0070373
0.00106464
0.000774384
0.00697675
0.00588308
0.00266994
0.00243933
0.00290555
0.00699319
0.00494151
0.0017375
0.000895572
0.00340632
0.00202262
0.0040933
0.00147957
0.000554778
0.00306128
0.00606458
0.00689623
0.00617157
0.000895778
0.00521458
0.00435008
0.00418408
0.00706482
0.000908053
0.000375052
0.000479707
0.0016482
0.00436902
0.0058673
0.0067334
0.00220573
0.0037771
0.000919907
0.000840835
0.000851331
0.00050614
0.000827557
0.00167606
0.00647325
0.000793777
0.0073976
0.000333306
0.00390477
0.000763238
0.00444316
0.00168186
0.00541046
0.00291451
0.00224757
0.0022549
0.00448873
0.00559552
0.00398892
0.000885816
0.00105775
0.00500274
0.00516444
0.00047246
0.000460639
0.0035821
0.00168292
0.000726109
0.00145619
0.00459475
0.0065905
0.000881964
0.000700978
0.00153898
0.00704197
0.0013627
0.00613135
0.000770573
0.00108589
0.000573104
0.00237564
0.00553608
0.00150282
0.00647815
0.00460693
0.00375665
0.0021442
0.00588775
0.00353363
0.00446802
0.00377442
0.00412577
0.00655186
0.0062029
0.00330412
0.00657301
0.00564397
0.00420888
0.00376549
0.00152805
0.00378449
0.00237834
0.00401837
0.00502599
0.00381558
0.000943615
0.00342372
0.00331701
0.00187017
0.000563469
0.00413877
0.00401894
0.00308839
0.000968304
0.00164825
0.00128383
0.00457599
0.00633086
0.00443416
0.00336205
0.00537601
0.00337842
0.0031268
0.00364211
0.00688948
0.00450753
0.00458869
0.0044192
0.00314155
0.00424917
0.00365041
0.000649448
0.00344493
0.00396338
0.00413797
0.00289402
0.00109329
0.00282637
0.00377648
0.00447645
0.00308241
0.00124656
0.0011637
0.00376296
0.0032091
0.000369576
0.00149664
0.00204098
0.00403468
0.00146927
0.00308487
0.00398548
0.00269859
0.00112705
0.00471877
0.00405719
0.00239254
0.00633164
0.00235845
0.00269039
0.00307834
0.0033295
0.00194444
0.00407194
0.00584295
0.0068922
0.0017881
0.00323338
0.00429667
0.00585602
0.00489475
0.000803376
0.00293942
0.0033227
0.000439274
0.00174491
0.00535044
0.00342978
0.000935643
0.00164413
0.00228356
0.0068637
0.00290002
0.00102362
0.00500147
0.00710309
0.000662616
0.00179986
0.00133753
0.00315179
0.00451672
0.00455939
0.00153389
0.000625096
0.000727759
0.00482333
0.00540218
0.000608639
0.00520792
0.00174834
0.00307821
0.0015033
0.000950802
0.00445839
0.00336985
0.0011657
0.00397851
0.00483139
0.00448518
0.00356631
0.00543007
0.000882018
0.000288992
0.00350505
0.00356494
0.000713196
0.000519698
0.000677792
0.00204755
0.00108108
0.00196595
0.000545168
0.00352554
0.00353175
0.000845255
0.00230563
0.00234219
0.00106097
0.000942979
0.000422929
0.00558762
0.00514983
0.000763807
0.00657491
0.00423433
0.000821735
0.00523223
0.00322662
0.00398961
0.00300372
0.00500809
0.0061053
0.000462668
0.000539961
0.00230806
0.000708555
0.00239999
0.00358912
0.00429855
0.00431192
0.00329765
0.00433306
0.00505659
0.0039065
0.00459919
0.000703986
0.000649703
0.00413829
0.001679
0.00382029
0.00423737
0.00255217
0.00352214
0.00364122
0.00444551
0.000513055
0.001088
0.00428266
0.000637143
0.00279895
0.00141557
0.0029136
0.00339994
0.00100932
0.00280125
0.00106004
0.00432285
0.00290426
0.00290333
0.0061895
0.00113964
0.00697136
0.00531806
0.00235094
0.00425474
0.00143099
0.00330562
0.00249336
0.0033854
0.000864512
0.00385137
0.00340759
0.00363476
0.00691988
0.00373681
0.00347448
0.0017459
0.000450047
0.00274984
0.000728959
0.00348891
0.0043112
0.00499631
0.00442487
0.00489157
0.00464195
0.0033016
0.00121186
0.00172088
0.00120523
0.00061328
0.00459958
0.00387316
0.000156217
0.000876481
0.00459847
0.0046033
0.00123266
0.00374164
0.000705565
0.000445313
0.0026536
0.000821886
0.00129483
0.00275431
0.000739981
0.00167413
0.00568178
0.00348364
0.00102969
0.00125919
0.00619925
0.000949479
0.00645606
0.00262951
0.00436392
0.00261869
0.00182772
0.000825529
0.00101177
0.0058923
0.00568914
0.000240585
0.00675203
0.00456818
0.00116017
0.00568735
0.00277505
0.00428007
0.00318535
0.000523471
0.00145772
0.000920466
0.00168181
0.00315235
0.0010911
0.00553971
0.00474475
0.00100335
0.00644996
0.00364562
0.0026198
0.00499865
0.00126796
0.000634435
0.00662792
0.00221109
0.00693205
0.000733533
0.00387435
0.000575537
0.00278114
0.00288901
0.00559613
0.00248675
0.00265721
0.00621016
0.00439892
0.0032084
0.00697671
0.00137844
0.003243
0.00348059
0.00622394
0.00392016
0.00347133
0.00243226
0.00286597
0.00177445
0.00304231
0.00344094
0.00373626
0.00141195
0.000547189
0.000790855
0.000700621
0.00114082
0.000818678
0.000987971
0.00253612
0.00022642
0.000731014
0.00136842
0.00172681
0.00253449
0.0010539
0.000975787
0.00226291
0.00143936
0.00207756
0.00607465
0.00256666
0.00164027
0.00379045
0.000909313
0.00328248
0.000603757
0.00183239
0.00116155
0.00138312
0.00145113
0.000753334
0.00181039
0.000655374
0.00261886
0.00257373
0.00388574
0.00166374
0.00492234
0.005388
0.000923799
0.00328548
0.000946975
0.00181635
0.0050301
0.00233632
0.00390293
0.00146984
0.00122078
0.00665848
0.0055343
0.00158199
0.000930709
0.00364007
0.0026649
0.0011557
0.00107138
0.00415875
0.00690664
0.00384276
0.00402037
0.000783405
0.00704972
0.000878471
0.000357364
0.00492952
0.00247598
0.00405461
0.00342474
0.000866428
0.00277059
0.000763055
0.003191
0.00418338
0.000514525
0.00100585
0.00512923
0.00230925
0.0051001
0.00633474
0.00126311
0.00307529
0.00074723
0.00354575
0.0060161
0.00257682
0.00661671
0.00462065
0.00507445
0.00462382
0.00272154
0.00211141
0.00143217
0.00382225
0.00106682
0.00518026
0.00650957
0.00214981
0.00125159
0.000819399
0.000849968
0.0019294
0.00194196
0.0010361
0.000910378
0.000824188
0.000828411
0.00301996
0.00299988
0.00392421
0.00136404
0.00497386
0.00267548
0.00309769
0.00131347
0.00051014
0.00348141
0.00255739
0.00347541
0.00432911
0.00335719
0.00370557
0.00587311
0.00446873
0.00249655
0.002864
0.0026499
0.00525725
0.00287806
0.00151226
0.000746498
0.00414645
0.000568867
0.00744393
0.00288447
0.00684689
0.00439087
0.000887514
0.00268919
0.00112396
0.00362706
0.00340603
0.0032338
0.00435152
0.00462809
0.00395424
0.0031672
0.00986244
0.00730931
0.000771568
0.00289828
0.00120444
0.00280335
0.00106008
0.00550063
0.0044728
0.00334779
0.00380426
0.00287548
0.000947849
0.00623829
0.00401158
0.00122847
0.00246718
0.00243078
0.00256494
0.00243945
0.00224934
0.00208986
0.00478814
0.00742479
0.00637501
0.00192618
0.00145428
0.00450734
0.00049205
0.00665616
0.00173396
0.00671959
0.00599406
0.00179843
0.00435115
0.00635578
0.00094035
0.00742105
0.00405157
0.00137393
0.00346838
0.00669896
0.00126336
0.00661039
0.00728994
0.00106664
0.00272768
0.00286411
0.000740076
0.00715482
0.00190154
0.00129719
0.00165232
0.000922403
0.00114667
0.00441253
0.00582467
0.00281556
0.00572285
0.00178575
0.00286268
0.00490975
0.00563869
0.00348112
0.00116159
0.00295947
0.00421559
0.00281683
0.00339504
0.00246099
0.00738819
0.00209993
0.00110444
0.00358752
0.00328218
0.00456252
0.00433298
0.00286057
0.00432332
0.00216328
0.00321172
0.000603165
0.00388205
0.00702367
0.000968195
0.00286875
0.00065265
0.000962743
0.00637774
0.00328632
0.00119918
0.00309252
0.000643465
0.00139657
0.000555037
0.00138472
0.000618022
0.00301708
0.00146241
0.00152558
0.000526813
0.00112827
0.00285905
0.000625885
0.000627594
0.00247385
0.000316015
0.0011973
0.00442761
0.00356218
0.00123593
0.000917609
0.0071969
0.00363287
0.000957764
0.000723863
0.00105491
0.00125608
0.00153214
0.000784273
0.00276012
0.00360094
0.00424395
0.00676737
0.00305774
0.00624992
0.000989771
0.0029283
0.00428098
0.000658543
0.00375662
0.00227903
0.00415246
0.00587789
0.0031185
0.00420305
0.00176344
0.00623915
0.00169463
0.000594238
0.00462214
0.00622673
0.00323527
0.00482044
0.000983769
0.00382489
0.00521548
0.00603763
0.000551799
0.00598132
0.00339783
0.00638119
0.00163034
0.00304408
0.00427439
0.00564933
0.00491341
0.00146734
0.00349414
0.00253143
0.00738869
0.00682183
0.00657605
0.00473968
0.00440755
0.00349268
0.00575227
0.00328189
0.00355816
0.00232684
0.00123176
0.00107284
0.00312308
0.00173004
0.00410927
0.00261928
0.0034577
0.00369814
0.00620049
0.00314151
0.00424671
0.00609632
0.00211149
0.00450289
0.00303416
0.00103135
0.00471712
0.00268638
0.00114557
0.00354739
0.00109798
0.00183076
0.0011671
0.000330491
0.00272915
0.00501269
0.00197331
0.000443692
0.00282845
0.00690554
0.00588034
0.00495596
0.00328362
0.00436939
0.00697854
0.00687804
0.00356805
0.00273788
0.00728406
0.00638789
0.0071967
0.00505394
0.00280493
0.00169712
0.00294759
0.00594019
0.00323298
0.00091333
0.00504046
0.00569295
0.0037797
0.000576715
0.000596097
0.0037487
0.00539702
0.00453934
0.00293158
0.00453536
0.000738854
0.00168787
0.0047153
0.00398664
0.00561182
0.0033643
0.00175915
0.00442116
0.00318489
0.00342958
0.00126275
0.00193951
0.00143656
0.000916327
0.000237131
0.00217406
0.00189858
0.00376863
0.00376922
0.00330411
0.0032078
0.00539875
0.00423781
0.000468913
0.00624087
0.0017669
0.000900288
0.0032649
0.00293272
0.000757537
0.00200649
0.00390442
0.00377176
0.0072083
0.00291926
0.00105828
0.00376577
0.00146874
0.00677484
0.00256321
0.000725644
0.000830874
0.00319943
0.00297612
0.00104037
0.00443596
0.000665322
0.000583784
0.00118725
0.0074196
0.00655825
0.000303056
0.00562892
0.00050475
0.00189243
0.00302678
0.00105903
0.00107764
0.00588673
0.00708237
0.000939384
0.00592644
0.00568133
0.00463329
0.00623933
0.00421983
0.0035597
0.00207622
0.00533941
0.000353046
0.00307311
0.00372679
0.00368043
0.00030472
0.00407129
0.000552201
0.00460108
0.0029901
0.00353434
0.00107316
0.00559131
0.00422234
0.00467749
0.000950016
0.00180529
0.00178797
0.00129778
0.00265572
0.00598376
0.000773164
0.00325163
0.00317595
0.00327251
0.00419127
0.00304227
0.00380762
0.00717766
0.000361605
0.00123917
0.00425693
0.0046382
0.00309548
0.00373987
0.00267749
0.00270709
0.00445158
0.00223089
0.00424053
0.00465844
0.00410171
0.00156867
0.00436605
0.00430105
0.00441454
0.00342089
0.00674701
0.00536856
0.0046828
0.00274578
0.00407545
0.00269511
0.00253177
0.00348569
0.000737834
0.00469027
0.00264027
0.00151649
0.00119719
0.00148621
0.00357148
0.00716912
0.00177858
0.00079634
0.00392555
0.000982279
0.0039634
0.00701836
0.00266557
0.00171816
0.00378145
0.00416811
0.00727018
0.00469803
0.000343352
0.00467277
0.00632728
0.00234836
0.000491148
0.000526719
0.00340866
0.000287727
0.00149877
0.00112823
0.00231944
0.00119965
0.000520999
0.00467097
0.000818751
0.00385085
0.00491345
0.00692827
0.000501339
0.00202669
0.00668908
0.0055204
0.00098665
0.00390754
0.000501222
0.0048208
0.0028813
0.00410706
0.00288477
0.00062478
0.00722302
0.00311915
0.00278994
0.00531762
0.00364672
0.00546451
0.00281599
0.000453874
0.000452532
0.000750016
0.00140231
0.00124329
0.00560105
0.00595798
0.00484901
0.00361016
0.00679225
0.00139537
0.00707074
0.000874258
0.00415848
0.00633303
0.00556897
0.00469753
0.00643541
0.00320006
0.00293549
0.00719702
0.00306401
0.000869269
0.00506839
0.00100395
0.000917056
0.00625488
0.000307677
0.000544282
0.00273306
0.00288045
0.00359169
0.00121089
0.0045408
0.00193329
0.0011683
0.00516355
0.00158372
0.00701725
0.00195813
0.00397443
0.00224106
0.00206324
0.000869453
0.003328
0.0037656
0.000655841
0.0012434
0.00193061
0.00150814
0.00566123
0.00176952
0.00400524
0.00180486
0.00316824
0.00612345
0.0012727
0.00263207
0.00230685
0.0064681
0.000567083
0.000811275
0.000546737
0.00549509
0.00393519
0.000844244
0.000553895
0.00184219
0.0036545
0.00249171
0.00102587
0.000669567
0.00169041
0.00446101
0.00498319
0.0042536
0.00468577
0.00399064
0.000551751
0.00494875
0.00164962
0.00310114
0.00660499
0.00256225
0.00256179
0.00464427
0.00385662
0.00486238
0.00227306
0.0019988
0.00468899
0.00546508
0.0021601
0.00310454
0.00275808
0.00192981
0.0021779
0.00354993
0.00587392
0.00565666
0.00512342
0.00074916
0.00350085
0.000931652
0.00219899
0.0036221
0.00483199
0.00322619
0.00703666
0.00243485
0.00747113
0.00196551
0.00233769
0.003589
0.00414911
0.00235843
0.00336665
0.00246063