/*--------------------------------*- C++ -*----------------------------------*\
| =========                 |                                                 |
| \\      /  F ield         | OpenFOAM: The Open Source CFD Toolbox           |
|  \\    /   O peration     | Version:  2506                                  |
|   \\  /    A nd           | Website:  www.openfoam.com                      |
|    \\/     M anipulation  |                                                 |
\*---------------------------------------------------------------------------*/
FoamFile
{
    version     2.0;
    format      ascii;
    arch        "LSB;label=32;scalar=64";
    class       volScalarField;
    location    "0.0689058";
    object      omega;
}
// * * * * * * * * * * * * * * * * * * * * * * * * * * * * * * * * * * * * * //

dimensions      [0 0 -1 0 0 0 0];

internalField   nonuniform List<scalar> 
47425
(
59.2591
67.2886
71.5253
160.609
142.608
70.8109
95.8416
100.965
49.394
594.855
136.449
43.8533
72.2933
79.1751
95.6961
87.8087
68.3796
47.6023
1349.95
194.612
84.2329
44.7644
104.076
62.8457
45.5095
43.7648
77.5156
691.331
69.9388
55.1116
43.3427
44.6229
47.7434
68.2479
55.4453
66.5965
44.3395
67.5603
65.5954
74.2788
71.3015
114.378
200.696
144.994
1860.71
103.36
95.4325
77.6008
78.4762
46.9111
572.693
231.82
49.4386
702.066
112.344
122.904
44.4707
58.1739
79.3834
61.0421
920.558
1189.77
883.277
43.9005
49.3523
44.6256
61.4192
87.2396
733.445
44.2659
78.0715
52.1703
48.7955
90.3653
629.196
49.4036
882.258
80.8692
1329.89
270.655
646.491
64.9855
43.042
46.925
52.8432
81.5275
54.0214
52.9134
125.952
402.505
44.1775
76.0016
41.9924
114.129
146.605
194.103
47.596
52.8908
87.8601
77.9244
60.1196
91.9717
52.1254
97.1476
49.8214
52.3411
49.814
93.2891
67.204
44.402
347.017
62.022
72.7498
154.705
44.0972
885.764
43.3312
227.929
77.5772
62.4604
79.2824
48.5448
58.1086
63.0825
96.2793
57.7514
84.8551
49.1901
105.026
42.0472
44.8615
94.8981
124.794
118.978
104.707
68.0332
47.6069
60.9976
68.7789
96.6817
70.9437
130.273
70.3341
91.0982
51.6634
49.3287
115.031
62.6961
149.763
72.3642
91.1339
503.807
48.7558
695.598
46.1546
83.8613
59.3296
895.276
91.2632
71.2815
44.2399
43.1914
49.6382
46.3718
420.828
818.88
45.484
638.361
106.037
729.566
685.659
84.8873
73.8608
45.5395
71.2174
65.7078
726.211
69.9901
52.541
43.4097
997.161
48.0233
60.0831
45.6488
46.3911
48.4012
56.5683
75.9242
148.803
56.3543
47.9246
71.8112
82.8676
77.0217
46.0155
42.3032
61.8688
71.7814
43.3902
83.191
65.6748
122.916
62.9722
42.7676
49.1153
158.832
53.2083
42.4917
86.6745
48.4399
63.0585
65.7635
47.2064
93.2215
63.8872
63.6951
76.5361
250.995
46.5103
92.9823
286.641
120.314
131.424
96.2369
166.735
241.368
45.807
129.304
48.3838
60.4811
72.1722
71.9494
102.255
49.3224
164.391
91.9918
330.184
111.379
274.617
180.711
83.1544
59.8098
42.0101
101.795
44.4712
49.4524
68.366
60.6026
42.9305
77.1966
42.0175
222.018
66.8401
49.2833
91.3448
42.3168
45.5894
119.457
94.1567
48.3484
124.168
47.209
78.5129
134.767
72.2335
89.1512
43.7969
72.4176
62.8211
81.7464
79.7547
240.241
316.884
48.6694
225.227
178.566
226.077
111.498
300.271
182.987
971.78
58.4995
929.372
122.505
79.3049
84.8699
103.707
90.6386
89.8781
45.2613
626.352
43.7815
50.3438
56.4712
67.3709
97.2801
110.727
46.2987
65.2238
55.6182
86.6664
43.4313
85.0612
60.1277
828.076
1027.91
663.886
42.1354
48.0757
43.2315
99.8108
685.432
85.9624
115.81
273.488
72.8379
103.943
121.676
93.0346
440.705
238.975
44.1459
60.1076
47.0116
80.7934
43.3335
77.8734
62.8336
52.3937
71.6836
83.5531
717.418
54.975
74.3224
129.126
42.3692
716.358
49.8799
45.4207
52.8426
45.2794
45.6851
45.0677
52.3985
51.0633
50.3365
59.4065
46.7931
83.2465
82.6768
46.2882
44.8123
62.1844
47.1389
47.3187
46.3565
80.237
42.8935
48.1474
93.4007
54.0363
60.4751
77.0514
94.2517
47.9717
48.4648
130.266
48.2154
66.706
44.1324
129.055
962.904
77.7666
43.2618
200.232
43.2896
102.484
93.1475
72.5502
44.5639
63.5008
44.0585
42.4389
73.7849
85.2201
82.8573
83.1981
52.4687
48.7487
82.0371
48.1152
46.4314
79.8393
56.7666
65.3896
48.2537
61.7025
88.0931
67.4208
48.7407
484.73
44.9415
427.476
69.1232
104.735
101.946
46.7535
145.052
46.0152
93.3078
46.182
514.873
365.083
42.6386
49.6854
79.802
85.4404
82.2154
74.0925
80.6981
88.7905
66.6836
45.4824
100.697
70.7353
48.3045
90.3549
77.8181
52.0824
145.629
1270.62
45.8752
282.509
1050.05
88.9039
1077.21
745.818
47.287
79.7981
75.3965
78.6036
672.762
86.29
49.4109
48.5996
74.6057
75.0406
79.8956
79.858
484.714
743.106
154.791
65.5409
72.1196
125.781
57.6522
43.4723
68.4378
42.9989
83.9818
75.8095
132.705
69.3256
49.3502
80.1282
59.5176
76.8216
43.1128
64.5534
67.1286
66.6393
63.5363
108.656
118.961
61.6512
82.73
43.0012
538.009
129.948
75.0784
46.3452
133.605
243.429
46.9639
42.6282
47.0742
47.3014
67.315
49.2239
104.53
84.2471
47.708
55.0115
141.096
99.2647
46.6977
50.1085
56.955
53.9319
48.7331
51.3961
43.4538
69.1859
59.1886
110.535
61.5664
46.0208
42.9331
43.0702
73.5704
126.229
44.1872
42.1282
55.6562
58.1185
57.5848
59.1083
68.7792
71.8372
51.5629
76.9256
100.902
430.347
61.119
68.8811
52.729
49.3451
133.474
131.726
75.5254
50.0454
79.5382
105.247
46.5824
142.52
48.4579
261.338
47.5397
50.5745
58.3508
127.476
41.52
72.1815
73.1235
58.43
42.9757
51.4835
1126.48
62.7203
145.202
45.4015
99.9684
46.3552
58.7994
85.0145
72.5293
69.7448
44.9808
393.436
54.7583
58.9641
55.6939
48.0978
43.7305
57.6097
118.273
48.3348
60.5758
67.3443
43.3495
265.823
44.273
62.6608
481.807
71.259
42.5186
340.816
582.716
43.7341
649.717
680.498
70.3985
46.6004
51.8667
44.0256
85.0104
87.6272
686.433
44.0809
125.375
49.1357
115.713
56.4048
85.3091
66.5997
495.696
312.35
51.5845
93.9752
101.019
84.3794
120.911
124.257
47.8463
97.1448
132.906
98.6076
67.4454
136.54
51.1752
47.6923
137.298
92.573
77.7195
118.76
100.152
67.9315
73.4172
60.0758
53.2224
67.6316
46.9006
47.3314
1310.26
62.1873
77.8701
997.196
965.346
42.6805
76.0952
1610.42
167.638
93.6179
296.46
119.462
764.854
59.4595
48.1849
60.0456
174.429
113.729
112.841
46.1627
117.649
67.4095
83.0104
48.1244
79.3836
57.9182
458.945
709.178
120.979
48.7957
85.4321
42.8117
109.499
47.4199
58.2095
63.4993
65.0585
44.2858
174.883
75.5035
47.4183
66.8225
184.939
732.34
233.665
86.0848
42.8297
74.4379
43.268
733.374
69.9985
658.398
83.2512
111.053
66.7404
68.4448
58.2766
87.2744
53.992
88.0964
56.9025
206.297
91.177
49.2336
72.2628
88.9822
531.08
66.7315
201.575
69.4161
48.6641
43.3901
140.21
79.6678
72.1742
45.9346
62.8712
67.7708
71.8976
80.5117
79.3719
64.707
126.304
197.32
70.6985
98.4696
67.474
112.294
90.7762
48.0616
153.04
61.6237
76.9511
77.7803
44.0673
298.526
392.592
94.3018
65.9297
46.4741
90.5402
55.5947
134.61
43.67
260.941
80.1729
44.1593
76.5859
46.3562
59.1551
69.4692
49.5471
88.6338
41.9127
45.3244
48.2189
165.42
41.4252
342.52
260.998
265.974
376.562
78.2946
226.632
58.6717
46.0661
143.672
315.721
405.37
104.585
62.1817
125.174
114.435
165.367
127.292
93.9372
54.1232
70.3042
102.824
111.929
55.8401
80.7031
326.701
57.2468
62.7028
153.541
119.193
115.42
181.39
730.461
458.306
222.137
245.28
80.6893
118.593
44.2289
46.2029
70.8476
432.461
174.791
70.6474
72.182
42.8421
371.783
416.916
42.4551
168.011
89.2134
42.3296
164.463
42.2494
43.4718
72.3639
71.7604
83.6482
47.7036
42.5343
60.7691
68.3436
66.989
136.896
106.536
43.0419
242.511
47.9709
46.6154
47.1388
193.29
78.3589
226.026
119.233
54.4351
43.2327
68.0255
1402.86
71.2791
82.124
70.2164
64.5274
61.134
113.214
118.62
127.943
296.239
96.7244
808.386
49.4171
65.6148
56.3747
63.7243
45.0746
164.849
124.635
44.243
286.197
93.8522
71.6891
237.468
78.6421
54.7284
70.3492
68.1482
68.8378
111.729
325.073
66.1288
74.1379
206.065
219.47
658.793
214.151
88.1096
170.594
44.8185
47.3419
107.408
180.762
86.0785
82.3133
91.4533
102.773
47.8555
68.0684
102.823
98.5792
89.4803
358.354
485.312
92.5713
138.694
175.352
661.402
397.606
200.955
91.9819
67.1529
96.5894
92.2474
246.849
45.7954
47.7819
96.4891
388.338
120.179
76.8996
97.2767
53.7278
108.622
125.877
78.6072
517.702
53.944
65.0521
131.331
97.2564
65.4216
66.1355
104.734
104.742
89.4495
57.4898
124.075
44.6614
44.6615
45.0571
79.2798
57.6471
150.265
52.5496
214.922
285.083
255.712
99.5419
83.7014
45.1253
70.3027
113.804
489.29
249.102
872.995
45.0078
57.8416
54.3798
319.79
88.2291
330.963
236.734
230.856
132.185
215.144
90.0873
85.8488
72.8017
46.1526
126.189
67.1951
75.0389
258.028
71.9041
68.5924
50.9693
266.485
394.665
152.149
206.077
658.117
190.956
90.6087
67.7654
89.34
104.347
183.591
187.407
436.817
45.9136
58.3546
72.2734
47.818
62.6491
100.482
95.5371
54.2858
121.58
52.9589
75.9375
51.0803
47.2953
123.509
67.0773
114.844
44.3227
44.9719
161.467
46.5432
98.6066
104.32
44.087
62.5076
101.296
79.7098
68.3975
79.7402
522.655
183.74
123.916
106.779
1864.73
996.402
629.027
453.593
101.407
49.3887
1183.26
415.09
53.456
62.8606
106.259
86.2588
396.941
137.924
44.9676
112.765
58.445
49.6164
202.363
961.499
138.324
1205.04
151.359
249.536
672.042
56.6376
76.2396
133.592
329.758
91.5326
45.8154
45.9113
770.738
110.285
369.791
73.4052
160.816
48.4649
53.2274
545.016
562.19
81.717
52.6014
76.1811
543.482
43.6775
51.6288
431.73
558.342
72.5992
43.6657
1045.17
711.055
588.013
99.1629
287.441
523.646
579.924
79.7263
86.9934
108.296
64.4212
107.231
539.625
1352.94
64.2154
60.1463
58.7351
52.0589
47.0382
81.3708
127.602
65.6719
49.5561
48.4941
94.7782
365.514
1188.99
51.1581
226.832
104.561
72.2452
169.469
57.3577
90.0858
76.4287
46.0281
198.131
53.438
526.747
43.7349
789.296
459.453
628.364
202.356
102.081
62.4388
102.14
64.4499
220.628
1449.59
103.754
394.144
178.112
485.565
161.174
759.68
615.909
91.1338
67.822
1654.59
88.4625
48.8833
73.4287
627.583
1104.3
79.535
52.291
481.015
76.5266
710.136
764.98
107.61
113.096
839.703
102.836
44.3575
616.574
51.5929
495.303
993.797
43.2483
69.8397
84.0957
56.5515
122.619
101.553
42.4171
121.242
89.4215
117.646
57.6254
42.9509
199.329
223.847
588.639
51.1249
94.3362
231.34
45.1234
847.126
85.7443
111.909
151.107
474.689
86.4804
353.193
181.451
146.795
56.908
512.623
223.989
279.091
87.7278
163.297
62.5978
76.0316
72.7317
348.793
226.439
110.965
723.254
150.101
109.47
266.77
122.971
142.608
717.542
323.359
62.4366
155.691
83.8679
148.415
308.053
775.272
58.3256
45.434
62.3949
479.315
63.5144
296.49
58.2018
62.3081
47.656
152.552
54.7115
205.622
311.137
53.8813
60.313
91.8547
79.9419
973.73
416.143
116.647
754.249
349.984
121.981
240.089
64.2453
56.7703
966.284
56.689
354.546
368.921
45.2456
58.7203
103.967
96.2755
56.2589
70.9976
153.129
72.7618
77.9363
66.3579
80.8373
235.35
66.644
190.172
154.193
215.568
55.8754
730.866
440.86
54.0372
580.687
253.327
56.9958
105.427
629.172
216.587
46.1836
179.869
470.703
201.511
518.955
57.2699
581.572
116.656
54.8177
68.9343
107.809
187.222
120.883
65.4363
237.413
50.8631
229.609
106.403
1302.32
142.768
80.5139
118.563
267.35
55.1207
290.885
109.69
108.197
595.068
78.8155
78.9128
1106.94
43.2431
102.777
370.702
62.2515
285.569
561.997
150.56
70.4298
83.2505
946.327
257.039
476.482
276.477
77.5856
69.8362
99.4284
685.744
691.09
307.971
88.2976
48.2486
85.9236
86.8435
129.709
331.196
92.5445
55.5039
62.5298
61.2908
44.7053
85.0833
43.8608
46.8201
120.194
80.1919
45.811
127.902
233.264
60.7315
47.5376
130.02
64.3591
48.106
54.7687
99.7026
93.7471
49.6735
96.9021
541.215
87.6502
48.5067
54.4457
43.5448
248.948
66.7997
53.1994
656.307
566.364
288.21
47.7036
637.513
147.724
60.4107
971.356
91.4577
952.937
90.6434
66.6112
81.5387
66.7374
44.8539
82.1697
83.5342
91.2012
113.752
88.9929
103.242
164.623
80.0054
81.7033
430.639
86.5122
1408.78
70.5
700.597
46.1654
117.95
177.369
52.0764
68.0075
189.871
42.6382
520.048
332.135
1179.53
50.6484
623.132
59.0849
108.782
175.213
58.3247
591.398
89.2627
294.092
71.6495
750.839
698.321
79.4164
43.3417
461.065
68.2679
448.946
85.1449
95.2709
69.7737
72.3617
56.4233
44.6232
88.7008
286.144
74.8809
176.584
82.941
86.9297
41.8376
154.851
418.077
89.4188
357.576
122.316
67.5444
119.619
78.4376
73.6969
55.5016
149.855
130.782
48.5681
85.1801
82.9693
67.1413
93.107
395.965
363.946
80.4822
89.1987
321.226
87.1556
52.3244
64.274
48.0274
165.128
165.448
203.932
104.436
69.4929
74.402
64.4858
56.7998
58.1169
58.5633
484.572
129.987
665.442
516.73
632.47
57.9788
68.1017
72.8234
71.545
47.8836
326.577
81.5426
46.6508
78.1212
111.611
77.2206
304.561
75.8099
156.476
114.93
96.7426
49.7186
70.2803
88.6304
87.2814
67.8726
112.048
97.664
176.625
86.603
68.9095
78.8653
149.441
168.743
65.0621
79.59
133.829
96.418
169.143
46.0268
56.5456
135.285
68.6334
53.6908
75.5257
44.2405
47.7215
88.641
73.9655
386.273
71.7363
88.6913
50.1451
69.985
629.051
79.0092
84.5486
59.9717
60.6546
87.0844
85.4369
934.977
107.072
440.577
51.1016
59.777
70.6501
42.2817
48.5328
108.194
80.5862
48.0784
45.0834
304.586
106.896
513.466
119.021
254.187
104.475
78.5468
109.225
557.153
181.188
94.7324
78.2768
938.331
64.176
79.6168
85.7207
82.0306
56.9515
937.635
66.8502
89.9639
46.7651
122.878
54.7401
904.064
1001.07
67.0037
53.2477
43.5746
90.0473
92.5588
60.4225
1167.12
751.292
64.4428
137.02
465.133
64.3277
172.31
122.713
43.5341
61.7377
46.5283
73.7604
207.35
85.0203
77.3889
44.7297
55.7525
74.5526
48.613
322.168
63.4574
141.847
168.206
445.587
328.547
101.425
134.642
76.2457
133.155
117.793
43.5532
601.884
334.342
131.227
91.422
106.053
89.6235
87.0558
263.396
41.9527
45.1508
62.1874
65.0105
135.778
74.2009
357.486
386.646
45.2964
131.226
43.6347
42.9001
80.2633
61.5521
63.4177
54.3893
42.2805
263.821
356.12
42.623
57.6971
238.155
408.136
47.9488
42.3689
93.5483
176.514
922.357
93.1787
393.145
339.082
546.238
392.034
71.6672
49.0849
42.6735
58.4315
954.986
56.5249
85.6804
79.8941
42.1416
681.719
1153.85
1130.8
196.783
298.564
50.4203
45.1989
53.2023
84.2192
738.413
598.464
433.823
534.406
409.252
54.6173
48.0537
852.006
47.8093
904.059
95.2425
900.718
79.4432
148.54
98.7162
185.059
169.166
169.716
143.081
63.0027
88.7207
71.4883
65.3733
72.1038
66.059
1267.95
788.678
91.1366
345.99
668.354
334.466
67.3938
45.9544
624.95
499.85
509.324
43.5294
790.071
49.9066
1004.59
594.966
712.821
286.056
53.8572
61.7057
46.5235
71.1997
86.3477
169.727
70.7788
84.7369
66.9151
94.0067
78.1911
45.2259
47.9305
121.999
45.3728
51.877
78.1071
98.7661
95.7451
86.6461
152.01
90.2897
62.0878
123.685
98.0383
89.9521
93.1497
143.577
1030.39
59.1291
335.493
69.2334
89.7422
486.77
64.4671
56.828
47.0413
110.586
94.9757
54.4282
108.934
100.848
83.5014
46.2879
67.0459
67.7594
70.9251
104.113
72.9103
97.8557
278.502
89.7801
80.0564
75.4197
110.848
77.9806
350.408
44.0506
67.9321
105.263
312.284
265.431
88.8064
101.341
937.24
230.333
185.776
90.156
71.7499
108.768
87.8007
53.5875
129.968
78.0832
87.2097
429.908
50.8998
164.443
128.098
109.243
106.182
200.999
77.8348
57.6073
43.9604
53.0877
99.5178
80.0019
456.989
62.5589
91.7305
127.912
103.533
880.507
56.3239
103.41
105.397
271.438
391.771
144.721
43.968
135.542
65.504
45.6211
42.8018
552.577
99.8599
58.1037
421.664
125.344
68.3929
147.397
746.958
1137.08
179.43
71.3573
817.671
84.9157
230.267
137.577
589.782
272.189
115.171
94.3034
522.912
91.1847
65.0617
82.4323
99.4968
53.9313
62.5356
346.058
44.5105
100.993
562.561
154.645
567.645
87.4465
441.761
49.0345
1143.98
105.892
106.079
640.759
238.875
297.9
538.69
425.833
265.007
65.0225
67.0066
419.43
55.4057
85.3439
316.924
67.1084
57.526
77.893
160.129
70.6475
50.1074
737.889
485.157
181.799
296.041
167.333
92.9282
81.2235
81.0077
114.527
73.1983
57.3578
86.1029
62.7919
291.67
301.004
130.812
54.2191
103.353
80.638
125.175
105.479
97.6734
79.072
292.808
58.4892
66.2871
292.071
131.608
583.575
201.129
98.9549
745.673
137.709
112.045
384.888
134.2
128.408
49.8374
537.224
42.8363
56.6929
50.7042
85.7082
67.4004
100.51
222.896
104.798
120.386
80.8017
110.583
99.4557
42.775
377.4
152.371
579.572
1062.85
108.961
396.122
137.33
69.7976
480.997
68.4417
61.0141
100.925
120.625
695.239
464.788
53.6596
315.312
362.501
91.7354
1931.77
405.434
143.665
367.295
61.7856
88.4142
242.871
338.363
145.69
740.12
53.5285
52.0352
154.442
50.9216
48.1389
106.157
322.723
568.864
47.1984
138.341
43.5031
144.369
62.9379
143.775
316.096
92.8026
305.164
59.6346
63.3976
783.745
44.473
53.762
105.477
53.4455
123.468
252.699
46.2556
946.558
554.86
877.63
469.442
119.396
66.6403
53.3277
62.0161
85.3776
46.8525
85.6016
148.754
62.3073
70.4971
661.106
45.6303
168.528
44.2068
135.676
71.5124
730.165
127.882
110.728
45.1568
130.02
150.877
48.8132
60.1539
98.2872
42.7203
198.244
97.0608
104.547
54.8442
45.0808
101.891
46.394
127.289
429.34
44.4605
75.5291
49.9347
63.0237
318.1
218.089
123.268
456.471
854.895
320.667
82.5897
465.875
347.952
665.001
73.8395
209.07
318.088
340.925
304.172
845.169
54.5011
44.7119
206.649
774.44
53.3837
436.984
118.493
456.752
79.5592
65.9511
646.089
570.399
304.996
56.9401
281.81
130.595
383.68
44.4264
202.479
64.1104
56.9045
94.5661
95.8427
290.679
104.763
63.5266
160.919
79.7719
269.18
393.559
43.7037
75.4409
53.7457
877.486
93.0029
131.054
206.848
137.068
71.3038
43.7267
90.9682
75.9771
479.122
43.096
104.362
313.894
64.7737
49.782
77.4393
73.8885
690.417
138.107
209.808
95.5193
73.7442
991.201
614.117
60.0023
143.394
60.1656
48.2444
409.86
89.3567
536.422
56.5271
50.8179
94.9993
57.1951
46.9436
60.9797
71.083
135.979
249.378
271.409
394.969
69.8323
72.2012
46.9995
170.567
611.743
941.894
67.4735
431.286
179.264
681.533
76.8339
352.043
110.084
170.187
129.606
81.6597
258.171
76.2578
190.932
113.136
59.5318
1026.83
107.579
502.146
107.394
77.2366
108.852
153.906
69.1704
68.1675
358.996
105.227
121.487
57.596
123.015
507.978
126.714
79.1269
158.141
46.478
63.0797
44.9228
74.5565
77.8346
147.524
70.2554
93.81
95.4706
74.4416
76.1169
64.0691
73.8563
60.0033
401.009
49.1615
107.21
48.6342
67.5157
122.787
73.9745
54.0533
78.3584
99.3363
86.9583
125.935
350.773
47.4973
178.082
455.652
158.583
156.246
51.0936
156.803
92.4201
321.64
64.8107
44.6435
52.8334
166.854
55.6501
66.2227
874.283
219.394
368.459
44.4975
50.8735
188.948
81.1274
55.6352
135.165
49.1071
79.6729
54.0417
392.271
45.3193
155.503
45.4657
44.2736
75.9227
67.1277
132.347
106.045
42.7078
299.728
64.4073
67.1197
89.2883
805.603
65.3222
61.7975
125.705
62.2296
57.3639
122.495
60.2339
51.7374
107.57
212.628
125.045
82.8948
411.137
108.995
240.12
48.5038
182.4
64.1837
94.586
235.196
49.6435
115.537
66.1181
82.1152
154.956
71.013
575.131
110.096
45.2088
520.668
131.392
997.923
304.152
213.892
86.4025
93.6412
122.129
362.931
59.8085
446.345
92.3745
348.911
65.3741
407.558
63.7471
253.851
219.863
122.343
331.49
541.364
376.097
1124.82
536.509
403.992
464.845
464.634
325.251
42.9808
95.1053
332.302
69.2072
643.688
58.3898
505.033
623.799
118.114
99.497
75.8586
43.8577
113.978
47.5059
250.959
130.884
83.0875
187.606
84.7639
153.753
72.4033
54.1179
111.131
48.8197
218.368
47.6374
68.7454
708.095
65.4948
43.0203
104.255
63.7455
799.041
293.78
73.4983
68.9668
173.114
50.3094
85.3208
49.6287
50.9042
104.785
76.2125
55.4489
62.5294
312.124
88.2952
54.4577
43.555
44.1052
46.0414
204.942
71.7454
95.2757
53.7021
81.7427
98.0324
55.3424
227.84
72.145
47.8147
59.4902
82.482
136.551
110.849
98.9156
50.1384
119.275
84.5266
52.0135
51.3177
76.0871
85.37
102.026
68.233
122.73
65.9074
89.3832
115.829
301.711
769.156
1116.06
121.847
60.5113
510.548
169.648
189.867
45.0626
51.0492
43.6026
90.0496
72.6615
43.5583
44.7253
45.2163
110.812
42.5387
47.9288
43.0562
59.8005
188.052
52.4829
113.181
52.3313
97.4771
240.479
59.9408
53.9364
63.9283
1079.6
873.783
99.8161
67.1174
68.5605
59.1661
100.469
471.395
63.5562
67.6647
90.2513
42.9887
94.8414
50.6116
88.0022
111.452
91.4151
62.373
202.999
263.268
63.8452
2071.81
260.367
198.723
61.4924
84.809
99.4011
114.309
54.5189
75.2213
300.528
45.5437
191.306
624.183
104.933
123.516
634.571
64.1978
79.5458
91.3916
42.7495
116.972
408.758
91.6346
91.4729
466.493
221.605
1058.63
625.893
99.8348
48.5914
140.143
68.3237
186.243
150.381
565.918
49.8489
45.7019
643.272
53.0186
192.515
78.0766
103.28
660.568
806.933
50.8191
43.3917
923.957
50.3684
53.9581
66.0558
48.1659
81.0775
156.783
271.437
61.3886
579.49
104.121
51.7923
84.9218
721.262
79.4413
604.965
65.5369
61.7073
86.0633
84.5417
59.8889
115.343
64.9446
564.058
115.557
118.867
525.457
122.517
53.4817
698.561
113.297
105.244
83.7608
169.852
107.403
79.3835
44.7687
265.127
73.069
72.2474
64.3456
123.69
84.1168
58.857
46.0872
67.2869
146.01
72.0788
66.1788
80.2159
476.334
72.5124
71.3475
69.2109
93.2719
46.4523
63.975
63.6262
131.735
104.436
141.304
148.159
89.5644
476.128
63.4364
56.6359
446.103
406.246
490.132
89.1019
335.651
52.3856
571.236
94.5585
309.509
95.4692
44.1457
114.546
198.651
93.11
69.8615
43.351
63.6983
419.419
63.9348
49.8308
53.8972
1441.77
309.379
44.8089
1475.3
569.266
327.872
235.834
739.298
279.214
76.333
288.171
88.2351
94.8414
396.782
954.384
62.582
44.5538
54.7801
488.16
45.4957
954.176
133.335
128.258
141.297
124.541
333.598
42.644
114.951
122.487
55.8532
104.482
53.5165
120.5
2018.29
1862.12
820.105
97.689
690.535
43.5561
49.3299
62.6095
100.229
44.3069
55.4779
43.5512
74.0549
89.9043
47.2585
54.6507
76.3182
46.5878
100.979
120.43
43.5918
114.645
120.914
43.9586
53.6333
875.693
56.1562
843.748
600.28
125.288
132.032
83.7748
122.463
68.5026
52.4626
594.243
58.6702
57.7192
47.6982
50.7781
78.3486
139.153
129.27
175.381
112.831
47.2208
566.013
60.9298
325.135
381.309
63.6801
479.186
81.7663
53.8341
60.8795
57.4087
62.9658
47.0087
129.043
50.8262
333.764
220.646
352.418
56.9579
56.7259
83.2993
306.604
492.146
93.1771
146.826
64.5761
291.43
64.3503
172.552
444.401
84.2599
56.3264
91.614
956.093
63.0237
59.2054
119.716
47.478
136.884
125.28
137.047
84.415
302.589
169.996
458.712
71.4168
280.497
420.276
313.701
53.6538
174.602
90.4143
102.286
53.7609
65.0732
63.2207
493.461
85.5308
98.8373
278.488
82.4967
62.7569
96.7396
45.4244
142.688
48.2483
64.081
164.117
103.561
79.0849
165.574
97.7244
94.0051
80.5456
125.776
44.7107
309.315
247.657
106.336
103.535
45.086
287.151
59.8901
44.5216
85.0338
47.0029
107.335
88.8552
50.3077
55.3257
98.4673
292.004
229.023
49.6423
815.264
44.8296
97.5309
95.2945
48.1618
770.588
147.641
666.661
49.9054
68.0651
539.562
679.788
87.2936
101.776
186.982
127.983
49.3993
100.694
63.3087
145.168
81.7477
133.508
49.8396
135.081
100.471
106.142
61.1967
87.8823
43.422
60.2993
588.302
393.521
106.263
105.181
100.416
86.0612
85.7203
163.263
43.8884
49.9544
59.5777
86.0972
80.5694
66.3676
111.483
51.8739
58.1757
51.9114
72.3858
57.9401
69.509
192.549
86.2149
67.8959
982.768
77.7841
64.8035
78.1518
44.1495
82.8407
206.61
46.0622
75.2772
80.9168
459.504
64.368
63.3041
94.5029
1463.49
95.0569
156.928
118.976
65.1338
71.0697
78.0836
62.3709
853.076
94.0616
68.3199
63.5666
43.3504
282.788
46.1062
380.987
430.825
112.119
72.9587
59.3148
117.09
88.0695
56.8563
440.122
119.149
297.014
43.3806
138.024
539.573
119.277
49.1601
99.3082
54.013
553.278
56.8458
54.1585
89.6667
42.9839
60.4477
87.7159
51.9329
397.262
42.9803
377.057
46.2318
72.8543
66.7112
147.882
86.6034
125.641
113.114
567.288
110.391
118.64
75.0279
44.8244
104.067
58.6648
53.0943
80.4935
76.1456
63.1325
122.682
47.0333
66.1244
47.3571
294.31
87.0297
608.284
547.47
316.135
156.683
67.8677
70.4198
61.0285
193.284
89.8218
44.1536
42.4083
112.488
146.37
46.2855
71.3402
1039.67
126.352
66.3327
74.9746
523.788
842.428
59.3104
554.953
547.114
200.46
373.517
161.93
545.215
71.9517
218.654
740.236
74.8062
42.4776
61.7724
108.904
314.921
43.3316
44.2571
70.6368
142.877
152.779
916.4
108.914
1048.36
118.721
69.5246
84.0915
76.7091
76.497
522.92
205.469
369.762
465.989
66.6094
371.817
1125.3
65.8445
168.542
117.275
407.168
150.426
129.252
698.331
1043.81
108.353
623.468
125.39
430.633
81.1369
44.2481
152.16
793.151
688.941
62.7012
101.705
146.233
98.8922
255.917
48.6335
72.3554
960.47
377.447
356.068
65.3706
343.577
66.5308
354.518
55.9751
115.862
186.357
298.162
87.0396
122.28
284.414
105.423
883.51
71.3588
59.5082
391.02
46.5468
144.868
45.1577
54.8396
43.3185
81.3127
435.309
440.834
323.621
58.6528
63.2951
309.45
57.0318
535.635
72.4325
53.3891
80.4151
214.319
153.844
644.827
50.6418
72.5276
63.6039
272.201
99.6511
579.305
909.372
426.908
104.579
60.5552
431.597
334.153
151.745
46.9057
61.457
42.6539
690.071
279.007
451.708
1188.24
240.964
94.4376
79.3722
773.341
410.985
63.0254
87.5167
101.569
344.94
60.7082
47.4583
88.2289
81.2871
774.587
278.126
223.051
232.823
329.235
326.434
161.952
89.6199
833.276
417.903
715.968
200.753
343.878
664.36
149.674
57.5129
107.637
58.1488
59.2951
78.8662
77.0468
135.006
299.463
84.4971
178.655
181.956
146.685
113.132
191.293
114.462
102.819
128.345
764.598
1126.91
429.242
69.5043
118.016
82.5377
253.391
581.708
156.563
595.206
80.5269
490.161
425.439
174.484
47.2468
43.5311
69.9158
63.7392
704.982
95.6833
58.2345
477.655
72.1865
872.1
460.115
107.984
461.709
63.5687
45.6002
46.1404
42.8683
97.1083
61.0652
90.5253
129.662
73.156
45.5337
142.67
653.16
539.43
43.9606
106.063
48.6281
62.2987
56.728
669.687
48.3398
54.603
52.8774
103.949
45.7393
54.4451
99.2715
56.2901
58.2628
52.6707
239.732
44.0023
56.9369
134.8
409.529
315.857
63.5609
513.438
707.05
53.8612
52.4964
165.052
78.7439
326.149
72.5753
90.7384
82.2957
261.827
67.8891
91.0416
1025.43
503.906
84.9667
630.448
46.1686
46.2099
61.3384
45.6629
47.303
70.3007
53.3911
80.1938
214.691
88.9144
346.588
251.977
209.771
81.0736
43.3938
560.61
130.285
82.8705
543.81
101.425
688.964
61.771
423.905
44.4737
182.687
86.2064
225.315
46.8974
85.3379
77.0722
626.324
49.0445
43.0444
191.521
81.2215
136.684
60.741
73.1483
91.5375
47.2524
141.865
48.3564
63.4918
146.777
94.0708
328.812
68.5816
45.5004
61.1401
44.7518
51.7463
301.609
42.9575
96.1448
43.4588
219.53
114.759
49.7186
110.777
111.511
56.5254
71.2915
75.9866
128.027
148.001
51.206
48.392
90.9842
67.0184
283.049
622.606
508.769
60.0082
45.1128
58.4037
65.0971
89.6745
930.274
237.507
63.3269
52.9145
77.8253
46.2495
48.2373
76.507
153.667
200.091
513.444
363.298
56.7804
77.7361
73.0487
43.1296
221.744
72.2924
115.793
112.817
49.3238
992.261
76.9627
57.6646
70.4813
73.0704
158.785
621.423
44.8187
465.774
54.3704
735.686
124.674
532.304
69.7577
43.8177
60.4424
104.677
48.5903
48.5083
124.656
44.5763
43.8794
54.5894
60.9069
238.349
52.7282
755.505
70.6343
60.0961
157.303
171.477
48.3929
405.615
962.717
745.208
494.938
437.593
55.1764
380.455
289.459
72.6904
57.1916
53.0146
665.842
90.2616
95.7645
48.4262
78.4506
291.861
770.887
160.478
86.1613
45.6384
65.4505
219.886
45.506
55.8982
615.309
451.78
241.064
772.491
74.0536
46.6592
69.6059
81.3037
1137.2
50.6085
45.893
43.3024
268.652
46.7139
50.0614
90.9717
100.558
44.6725
112.865
45.8658
143.828
86.0244
141.276
50.2699
238.57
87.1322
111.616
162.404
110.4
224.063
48.4606
624.412
94.1832
292.441
311.302
332.644
85.7432
127.161
207.056
65.803
44.7191
50.9962
53.7282
86.0793
571.664
115.823
46.1445
82.3988
64.9675
48.6218
120.117
62.1239
134.128
102.649
46.594
97.7776
48.5578
78.7471
295.039
587.395
71.6789
99.5407
80.2609
103.279
522.578
297.38
435.286
842.904
141.273
46.4332
47.9967
43.7928
104.563
828.873
79.5268
761.962
115.978
44.5941
117.112
456.681
45.8587
46.2096
55.5228
74.5864
59.9281
259.515
75.8582
90.665
316.227
52.3142
96.6231
65.8925
128.558
180.024
50.9164
689.433
81.7486
109.537
55.0183
123.571
45.8794
132.626
123.23
93.6678
91.0198
80.3528
66.3673
69.8682
49.9727
225.594
62.049
50.0606
114.935
197.425
229.52
160.093
98.4519
110.919
193.332
71.1321
274.28
127.623
133.18
100.639
103.166
139.871
73.6849
146.742
394.387
98.8972
53.3845
48.8162
285.933
89.3282
101.122
49.4774
99.8745
87.5235
48.1102
93.5527
412.257
96.6665
71.7547
85.629
667.686
76.4046
89.9312
147.791
58.3207
154.793
47.2869
776.022
85.6598
78.4366
82.2886
54.837
112.948
54.8592
497.453
43.4796
76.4115
660.872
59.6217
109.077
197.58
99.4169
49.1099
591.249
59.2668
44.7507
102.497
129.908
61.0334
335.773
44.8198
347.055
98.2467
43.6742
69.9266
116.315
731.765
183.177
72.0321
44.0158
131.122
408.78
294.183
116.332
123.272
981.18
213.64
283.02
127.428
81.2599
102.265
59.7943
517.411
1057.65
152.996
160.717
100.198
1084.59
462.27
551.69
401.092
185.562
64.4617
50.562
152.802
73.7496
551.677
307.97
75.2516
891.832
106.463
111.995
71.4069
50.601
105.04
87.3292
90.6288
80.7187
149.388
184.326
880.469
57.3928
119.109
643.082
617.512
182.268
176.324
61.6543
619.881
47.5606
65.8889
344.139
148.443
43.5977
332.639
427.899
72.5497
123.444
48.3406
93.4976
55.4283
80.9258
172.97
81.2935
613.487
43.8409
50.2678
86.379
478.172
172.836
122.845
162.605
311.382
121.226
78.4134
436.289
107.866
68.9879
222.341
797.818
242.413
59.6035
361.921
160.407
93.7303
65.8483
128.385
47.0079
113.747
79.8874
73.4581
64.3468
60.0822
85.8412
43.6274
43.5587
49.4743
100.245
49.8009
160.565
390.274
735.642
95.4054
87.344
59.3893
48.7915
102.744
646.196
51.8729
142.768
71.8664
232.914
67.3603
135.591
224.131
431.419
47.7715
57.3506
277.353
52.9744
69.9414
135.922
94.7854
403.154
87.166
250.102
468.886
209.972
644.105
197.353
379.995
96.3584
162.279
146.988
53.6466
487.05
137.573
84.4289
174.411
100.668
91.4567
43.7434
52.0802
49.523
44.9729
87.8281
346.141
42.7913
952.985
110.494
349.035
114.185
378.349
1111.41
54.794
250.011
830.449
149.637
349.117
76.9058
69.8532
771.119
1002.62
288.04
169.062
52.0463
456.198
103.546
626.738
53.1184
53.511
242.102
1020.56
60.9301
84.1377
50.8837
239.113
530.339
47.8251
460.2
201.662
540.346
721.246
49.5843
339.696
74.1888
670.691
319.854
199.604
417.659
273.793
518.66
342.461
229.881
82.3096
78.4003
74.5051
48.7831
53.7223
1421.21
74.0915
110.862
79.1023
81.9098
137.076
1165.24
149.338
224.321
295.684
154.571
260.08
124.67
44.0883
79.0755
1049.25
639.162
313.539
193.419
249.132
88.5153
489.186
61.4256
258.448
339.634
57.9656
547.778
91.9711
304.227
313.092
170.175
246.115
249.496
156.994
50.2327
135.062
60.7834
554.774
72.5595
196.136
83.617
266.938
55.0073
67.1085
328.248
120.256
287.39
44.7531
1364.31
46.1366
59.1573
57.4888
54.6272
97.8154
520.711
178.89
99.1441
659.792
74.1127
49.4948
56.8952
875.282
85.7174
98.7335
851.059
362.439
911.295
550.417
173.728
240.216
157.513
185.738
736.045
65.7416
444.589
138.101
66.2836
180.355
64.5584