/*--------------------------------*- C++ -*----------------------------------*\
| =========                 |                                                 |
| \\      /  F ield         | OpenFOAM: The Open Source CFD Toolbox           |
|  \\    /   O peration     | Version:  2506                                  |
|   \\  /    A nd           | Website:  www.openfoam.com                      |
|    \\/     M anipulation  |                                                 |
\*---------------------------------------------------------------------------*/
FoamFile
{
    version     2.0;
    format      ascii;
    arch        "LSB;label=32;scalar=64";
    class       volScalarField;
    location    "0.0689058";
    object      p;
}
// * * * * * * * * * * * * * * * * * * * * * * * * * * * * * * * * * * * * * //

dimensions      [0 2 -2 0 0 0 0];

internalField   nonuniform List<scalar> 
47425
(
0.394915
0.574339
0.0622184
-8.05016
-24.7897
0.0620664
-22.6364
0.0393194
11.3865
-40.6996
0.0314494
11.8573
-17.9202
0.0293092
-3.70365
10.5598
0.0596957
22.3478
-119.133
-40.9692
0.82741
14.0149
-0.0330894
0.645421
12.7808
0.575256
0.0423578
-49.6521
0.0437017
0.155688
13.9621
10.7523
12.038
0.31102
0.0556949
0.0232716
14.733
11.8028
5.1135
0.697926
0.920947
-3.24238
1.00417
11.7262
-42.0782
0.80644
0.061496
11.6274
0.644492
0.385448
42.4643
-1.71769
0.239705
-36.4671
0.394579
6.89705
0.512061
0.134271
-11.3182
0.129218
-38.2687
-36.8561
-61.5501
19.225
11.2306
1.3328
12.12
-4.03256
-48.4583
21.2997
1.9651
0.508742
-0.601774
0.804658
-52.5908
11.0663
-60.1591
0.154685
-73.5515
-24.8224
-54.5382
8.75499
19.117
10.9458
1.18748
0.0836141
-0.667622
0.651693
-6.57537
-30.6166
13.2598
0.352797
0.386625
0.100103
0.140839
0.421499
0.277422
0.245506
0.394938
9.90497
10.8316
18.9715
7.60962
44.0419
7.63851
-0.893255
0.792074
0.396287
0.989817
12.107
-35.8522
11.7341
-1.29289
0.157693
-2.64639
32.2255
-2.23145
43.5598
6.42093
-5.29934
0.112492
12.058
11.6017
-11.3965
9.58288
-2.75117
0.22992
11.1242
0.6014
0.502711
20.0513
-0.718107
52.9276
6.44393
-2.39796
-14.3309
0.980571
-2.66906
9.60358
-2.38221
12.0956
-5.76924
4.37367
-2.42328
9.57196
11.1869
-23.4095
11.3776
4.38219
11.9976
-1.84674
34.5117
11.4294
-11.299
19.6196
0.800305
-1.08764
-128.631
0.285763
0.190065
-4.13687
0.697913
0.427502
9.26171
-54.3471
-95.8627
11.4349
-53.1066
0.678115
-50.7856
-53.5124
0.480311
11.178
16.7725
0.267469
11.9099
24.6538
0.0219605
0.156941
0.26599
18.0609
0.678516
0.0571912
0.206364
0.279799
10.8124
8.60451
47.7274
0.364096
0.621371
11.9584
0.381565
-13.8965
12.1679
0.317534
-3.4681
12.1459
0.535102
-4.23794
0.357136
0.252901
-0.443038
1.32033
-3.17041
7.08847
0.35862
0.0295243
-2.68124
10.6999
11.0708
0.392895
-3.67122
11.1485
0.723265
-0.362816
-4.60108
0.278836
-28.6868
19.7197
11.9609
-27.2448
-6.04146
2.21413
-0.045813
0.699317
-25.0713
0.335154
-4.36121
-6.58006
-11.1418
0.591719
0.117884
-0.257701
11.7855
0.104273
10.8791
-30.1107
0.472716
-27.2773
0.108355
0.0384003
0.298342
0.408209
-8.05395
6.57325
11.077
0.337642
10.9701
0.484067
0.0917889
0.663085
-22.9974
0.0279994
12.1222
0.243347
0.117452
13.3232
0.177674
5.95007
11.0031
0.189799
11.6656
8.2414
8.15181
-13.419
-0.0772089
0.0691155
-13.3109
0.388786
8.22613
8.73031
-27.3911
-29.9466
8.68951
-24.94
8.84684
-26.1022
32.0267
-28.3402
30.4109
-35.2948
0.509672
-40.4751
0.567313
0.46926
-5.31542
0.49674
0.0300687
0.915215
-2.37953
53.436
18.1559
11.2586
0.135281
0.061357
10.1151
-6.54463
9.01569
11.4969
-11.6132
0.525354
0.585259
0.105869
0.0291536
-50.3118
-63.8758
32.7886
0.331702
0.413426
9.79878
9.05476
45.279
0.00259993
-0.0133266
-18.9674
0.411783
0.375272
0.142685
0.169181
-35.4427
-18.2295
10.4103
10.0519
0.0585036
0.15997
-0.0207277
10.3001
0.581522
0.403591
0.0851526
-8.16386
-57.3689
3.23775
0.103521
11.9893
0.00897955
-56.4387
11.7073
0.462529
0.620106
10.3462
10.1084
0.784437
11.9742
0.408196
0.0071993
0.14995
14.4314
0.0515742
0.219036
10.623
5.85045
10.7458
11.5966
11.049
-3.87426
0.324047
18.7097
11.3986
11.3579
17.587
-5.87108
0.6348
0.104528
6.99924
-0.604706
0.120622
11.4213
11.6905
8.33762
0.0850507
-44.0102
-0.802235
9.45331
11.2012
9.28741
-4.60263
10.7282
11.0692
14.3382
10.9891
9.23954
0.64622
11.5459
0.795691
11.5794
0.0964951
8.64744
12.0291
0.104383
4.69174
6.08135
0.0394504
5.51131
0.382138
5.27646
12.0279
0.0512375
-14.8795
0.228424
-32.2112
0.365781
-37.2198
0.206494
1.04161
0.190453
0.138671
0.209343
-0.000581907
0.0999245
6.09915
-58.3235
55.5225
0.612029
5.58698
2.89622
1.37277
0.568264
0.052251
0.350821
0.163938
0.503456
0.669009
1.31269
0.0271157
0.0374192
-8.95612
-6.68775
-3.2164
14.7076
-57.1062
-0.526666
24.8767
-56.4126
1.06728
-58.8354
-34.9793
0.568019
-1.64329
-0.639338
-4.68869
-60.6282
0.302082
0.579127
0.382891
-5.25407
-2.93892
0.591863
0.714307
-27.5567
-58.455
-28.9685
11.8873
17.3507
-4.10531
0.561229
-0.67368
-14.7346
-0.450332
11.8543
12.1161
12.1351
5.69232
12.0435
0.668488
9.27115
0.174587
-2.51591
0.52035
0.380954
11.9209
12.0344
10.9243
6.78642
10.0243
0.561328
-1.60383
-27.5459
10.9965
-14.9428
12.0751
-2.7223
-8.46292
11.6362
0.500062
10.0769
11.3962
11.0088
7.96854
0.479206
-1.59146
10.2224
0.483785
5.97517
19.6172
0.598528
12.6478
10.9166
14.1475
0.552847
0.250901
0.79423
0.0452752
2.34657
0.0171196
0.0631212
0.553749
0.731685
-1.71452
0.0908126
0.0935378
22.3534
0.00278702
1.00201
0.809688
0.606551
0.103843
0.228883
10.0692
6.32707
11.16
11.1601
42.7352
0.135673
0.0360802
11.4049
11.6139
-22.0838
-25.848
0.334069
0.7683
0.724195
-11.595
10.725
-29.007
12.0316
-31.0198
25.6001
18.6483
0.111632
-22.9681
0.278092
0.586451
0.307215
1.37529
0.0371641
0.491281
-57.9954
0.238847
-0.0091848
0.299237
-20.4617
0.517409
0.117408
-20.77
-16.9405
0.205767
0.209315
-30.0368
0.339727
-1.51414
0.122675
0.38704
0.364379
-12.3233
-13.2446
18.3781
0.949087
0.639538
0.0525774
-29.3877
17.2782
1.39733
-29.8091
0.111575
0.211364
-30.0972
-42.484
12.714
-29.7997
-29.7403
0.145299
11.9829
0.112143
15.8693
10.9801
-0.000311469
-46.0215
10.4293
0.0182431
0.420603
-18.2665
-11.5597
12.0224
5.42237
-53.1692
-27.7228
0.771899
0.382768
-0.135962
1.34637
0.456722
0.501946
10.9802
7.07124
12.0374
-2.86886
11.1902
-29.9798
4.61093
2.87178
-31.7757
9.6848
0.424494
6.37975
9.16974
0.440256
11.4472
-3.56509
28.1986
11.2083
-1.997
0.865167
-81.3598
8.21426
-13.2287
-44.0573
-45.0574
0.229736
0.72996
-47.0052
0.0467344
2.69132
-28.4117
11.5011
-41.0002
0.0900354
0.179472
11.3122
-38.1702
12.1331
12.2037
0.401092
0.238855
0.622959
-0.00802914
0.473898
0.791954
-0.171051
-33.8642
-29.4856
0.989918
13.105
0.196673
17.0214
10.4811
12.1042
12.1139
12.1743
12.0994
18.3846
2.01856
12.0395
8.65143
-6.56028
0.10037
-61.6901
-31.3558
-0.00394013
17.488
3.65333
0.132773
-63.0385
0.010709
-54.3726
0.403672
-15.1195
-15.7591
0.510913
12.5026
8.56817
24.9066
0.156829
0.435894
0.0417244
-19.0551
11.9685
-18.6215
-0.0492638
-60.5799
-14.0059
-0.0680349
-16.5896
12.0624
0.626089
4.84983
0.0938931
-17.8655
11.9399
10.6399
-17.1988
0.183964
-0.105386
-0.001659
0.50125
27.3051
25.8138
15.0939
14.2106
0.0613801
-0.0261147
1.07695
0.119633
-1.96129
0.0635047
0.547963
0.037555
0.646915
29.3967
-12.6471
-0.0342829
10.8709
0.535747
0.568515
0.56714
-0.00603134
-4.42327
-26.3603
0.640063
0.204024
0.0311532
0.669799
14.0746
0.0765954
-0.438832
0.531683
0.50222
0.672117
17.2841
34.2204
0.578541
-29.1045
-11.2838
-35.5709
-29.0588
-0.0133303
-4.91945
3.45059
-0.581341
41.0862
-29.8313
53.5672
-12.4375
0.162401
-21.4894
0.278738
55.6871
0.807641
-0.549592
0.814951
0.197124
-12.7618
0.752603
0.583786
0.598101
-30.4612
24.4703
11.3658
11.6351
43.4516
39.762
-17.9892
-50.2657
-28.2373
44.8641
41.788
11.5236
0.40754
17.0153
0.353811
5.52329
-29.9007
0.10651
4.75109
6.02866
0.308419
-30.66
-30.4706
0.12854
4.86373
0.635101
0.387232
6.07976
0.31454
15.152
0.00844333
0.533143
30.5313
0.0987489
0.0616009
0.107067
0.262907
0.252707
50.5471
-21.4994
0.0953847
3.8845
0.478262
14.8512
15.3235
-17.4801
0.28524
-28.6737
-18.852
5.24007
1.40854
22.7389
-46.2804
0.0363345
0.0103984
-8.27532
0.576319
11.6811
3.25503
-0.00676556
12.2054
-33.0023
-19.4563
-47.5686
12.1761
25.3149
0.0996488
-12.6459
16.6135
-18.1777
-0.0369305
18.1355
-36.8167
-9.89735
-19.8309
-30.2064
-18.0838
-0.298647
0.0537283
-14.1311
0.00640615
-19.5326
-28.2373
-0.00465081
-22.0021
0.639652
0.729973
-40.318
0.66883
0.366904
15.0596
14.8849
11.1483
-25.9769
-7.52542
0.756511
-13.2339
46.6602
-1.23923
13.1935
0.809413
-0.992976
0.677448
0.635449
-31.9064
-59.6173
-11.2166
-0.811705
-19.9528
-20.1847
-29.6207
5.01569
0.594829
11.7386
11.9278
0.59399
-14.1737
15.7266
22.8172
11.793
-28.9823
-19.0095
2.22572
0.448542
0.380094
0.21969
31.8414
11.5369
-20.1727
0.132143
1.87223
11.6432
11.6277
11.5253
11.3335
11.8555
-21.8755
-4.50671
22.7744
25.9735
16.4771
6.19887
-2.6127
34.107
-0.391079
-9.50788
-1.15199
-17.9667
-10.8366
-10.6852
-1.35276
11.8598
14.4194
11.6671
0.335928
-38.2548
-33.0628
-45.2756
9.69343
-10.8063
4.6513
-22.4345
0.426755
-40.5477
0.400344
0.221797
-10.6995
8.77635
0.326697
8.78706
0.323175
4.12602
-11.9994
0.505644
-4.38847
-27.4035
-7.35878
-2.23098
16.2004
49.0052
-55.7363
39.4361
-29.6652
-61.056
0.341802
0.434865
22.9327
0.35482
50.6948
0.389917
0.332626
-59.3238
14.0555
1.30621
0.442772
11.4263
21.0622
9.97625
0.439389
12.4631
-21.3785
8.86078
12.3487
12.5587
12.0685
0.516688
-15.9916
-8.66804
27.9289
13.5027
0.503651
9.58227
0.392792
0.419297
7.12397
-11.9717
-4.58661
-12.4387
-12.6267
9.47554
-43.5738
0.485853
0.452527
0.408879
-51.5568
-53.5649
-26.3098
-29.4182
-0.427283
-1.79316
-41.2273
-30.566
-7.20705
10.5038
0.49254
0.0669474
-43.0791
3.11534
-2.72996
0.642657
8.03929
-0.131804
30.5434
-114.684
-17.982
-32.8922
0.705754
53.5966
-57.0468
0.970606
9.92733
1.49774
-35.0463
9.9763
-6.79027
16.7997
-28.8169
0.456503
-30.755
1.42913
-12.8721
0.0948542
6.18073
-31.2812
-30.5982
9.2724
17.8317
-13.4982
-48.3567
8.63766
0.454627
-32.2295
-40.8537
10.6997
7.94523
-62.3478
-56.717
-43.7154
9.44416
-10.5513
-23.6248
-43.8199
8.88548
24.5233
-23.1435
-10.7242
-8.56208
-28.8405
-42.1026
-7.32478
6.78994
11.2886
11.4633
12.7696
9.25171
-4.3952
12.0346
12.0043
12.8987
-0.218654
-29.6298
-38.9726
9.87164
40.8547
-21.8868
10.3959
-18.1164
4.8401
9.28239
-11.1341
-4.0422
9.45105
8.36118
-55.4566
12.4126
-37.2723
-59.5771
-37.856
8.98822
-13.3274
10.94
0.853702
1.26606
-20.6195
-41.9864
0.114301
-30.2156
-21.8956
58.8359
-24.5176
-49.9421
-31.3366
-0.0497231
0.336131
-45.0421
-0.816543
13.7438
0.0123611
-47.1705
-42.7224
-0.00813348
-0.765154
-36.1641
-14.9059
-45.3763
44.3305
0.261847
-6.6166
-50.3972
-1.08056
21.5387
-33.3712
13.898
-62.2609
-20.7907
10.0151
0.29359
0.186845
-0.333306
0.279946
-0.136525
-1.36605
0.264008
6.34672
33.2328
14.1439
23.8295
-22.2018
-12.7865
27.7657
-5.10477
3.4226
-13.8686
12.1998
-72.691
0.583315
0.17132
0.675548
-40.4308
0.46755
-63.7401
0.583052
5.51062
6.34348
-58.3961
49.7725
-30.7535
-26.2851
33.3823
-5.87414
11.5075
-10.941
-27.4128
-28.1068
-29.7448
42.6849
11.3607
-20.1667
-31.8148
-7.42835
-7.59283
-40.8898
-31.6127
1.83092
-17.0761
11.233
11.5153
-25.2732
-50.2979
-2.62237
9.11786
11.3979
-57.6589
11.5602
-13.0454
-14.4534
11.5445
11.7858
-23.7262
2.70082
49.1252
-22.0773
2.75009
28.7116
25.3415
8.78957
-91.3561
-43.4995
-17.8359
-119.941
60.3346
11.8616
-22.6721
11.8666
22.4782
-62.9281
1.68481
-60.1312
-33.2645
-4.72853
19.8912
-8.97177
11.7145
11.7598
14.1901
-23.5285
2.89388
0.15213
25.1859
0.217947
-11.2439
12.2084
-15.3509
-2.29855
-25.6674
14.8331
-62.8989
-44.5665
4.68356
-39.7094
-29.7794
0.132695
47.5831
-39.8016
-5.83006
28.4753
-12.4413
-18.7098
-26.1132
-34.2897
6.45311
-47.7779
-24.1278
4.92864
-3.70539
0.533203
-26.4029
-5.68067
23.8897
-16.4064
0.460138
23.8273
0.593159
-63.1035
0.105911
0.121971
-8.82189
-25.7224
20.1109
-8.42663
-15.2385
-9.69948
-61.6411
0.0761949
-15.4366
-67.5755
0.567284
-10.3945
56.5782
-8.64008
-30.8192
-55.8751
0.107564
9.47254
0.0165336
-131.057
-30.2699
-29.2804
-29.8162
18.2212
-7.71311
-2.34206
-42.1067
-54.1568
-16.6427
0.327754
11.5939
0.797084
0.464989
1.33672
52.3617
11.9863
11.2945
-10.0526
0.448768
14.8055
12.1468
21.0546
11.7502
0.257536
21.3549
12.6024
9.3937
-18.7569
1.11437
11.001
8.90896
-12.6237
11.1024
0.460794
0.66827
9.62237
11.8555
11.8567
-59.187
11.0726
16.6389
0.736299
0.276574
-28.2232
12.7763
12.2714
-56.2784
-53.0866
57.9305
13.6725
-57.9939
22.1813
0.782049
-53.4936
8.45503
-55.8473
0.370915
0.338451
11.5999
17.7666
9.78117
0.452305
0.436316
0.842348
5.18144
7.94281
0.670371
-21.2638
0.554665
-14.7021
56.7797
11.1085
-48.0626
-13.8509
-74.8778
0.668437
9.85875
0.12992
12.5011
0.573361
11.1754
0.782394
-44.8905
-26.7978
-40.5637
-5.44523
-11.8904
0.783367
1.23904
-34.4087
0.965479
-55.5308
-2.53031
-49.9917
1.05788
-61.5421
-90.911
-0.549619
0.0540892
-38.0706
0.261996
-38.5517
10.8605
0.379699
0.691855
-0.295389
-1.74204
-2.17428
-14.6319
-33.6711
-9.26314
10.8877
0.917164
10.961
0.513643
10.8458
-39.6506
8.67478
-38.3553
0.23185
0.982768
8.39309
0.45216
8.64785
7.92383
0.189677
0.832617
11.6755
0.642584
-5.16378
0.52372
0.512248
-30.6657
-35.8242
-3.69751
-0.186968
-26.1352
0.558712
0.408601
0.353131
0.349481
0.0849915
0.596282
11.0215
10.7398
0.673014
0.57131
40.3051
0.348984
0.507463
0.708608
-50.1883
-0.365111
-56.3455
-40.8482
-50.3677
8.0136
0.292678
-0.114649
0.10387
0.634562
-46.7509
-13.677
0.55794
0.466929
-0.166202
-0.21408
-28.7314
-0.253414
-0.00607511
-18.4906
0.595005
0.418951
0.261823
0.463644
0.181362
0.333153
0.520056
-13.7895
-18.8029
0.0398981
10.918
-4.59482
-12.0021
-10.7084
0.523383
0.712878
-13.6032
0.391226
0.015522
0.736328
0.551376
-12.8692
0.0504977
0.901328
0.56412
0.459085
0.856033
-7.90248
-0.0399607
-46.988
0.387524
-18.1152
0.108736
0.0053612
-49.1818
-0.0130634
-0.61755
0.119957
0.598478
0.629877
-0.532698
49.4012
-0.459041
-37.3321
0.498939
0.188675
1.01074
0.534712
0.326506
-0.265238
0.352235
0.503675
0.136129
-17.9842
-12.1205
-41.9259
9.42619
-15.5452
-0.275533
0.541049
-0.2524
-32.3581
0.146424
0.139175
0.0381153
-59.7434
0.0817595
0.251063
-0.0230014
0.290723
0.713832
-149.467
0.0698522
0.909412
11.0432
0.00657362
-8.91042
28.2213
23.9634
0.0626189
6.08746
0.000632176
0.57769
0.403326
0.191329
-58.437
-53.8392
0.0284333
0.530537
-46.8333
0.0184626
-8.86206
-24.904
0.0827404
0.583963
3.97505
0.0148409
-10.3537
-0.0206169
0.138112
18.3941
1.20593
0.035499
11.0479
-27.2518
11.0973
-31.0084
-27.1781
-30.6236
-26.7101
0.514147
11.0268
-20.6441
11.1714
-1.14609
15.2628
-38.3942
-28.3855
11.4825
-12.0011
11.4629
0.353223
0.585391
-29.716
0.54375
0.41795
11.2985
11.3204
39.5974
42.6166
61.1239
-17.9575
26.7733
11.4969
13.5873
21.5451
11.3628
0.390634
0.0189591
0.375564
0.0947779
-29.6848
-29.3995
0.518821
1.6893
-5.23619
-56.9609
-3.45004
0.511855
-1.52588
-25.7743
-59.6613
0.428865
-42.6861
-9.71193
-32.7222
-44.3491
-15.296
0.357377
0.414328
11.9692
-61.1739
0.164682
12.0765
0.255034
0.212987
-53.1067
-52.7423
-55.7682
-0.931919
-36.598
14.9733
8.62748
0.283567
-17.8859
-59.0275
-57.9732
-29.1493
58.7025
-29.4341
32.5757
10.9653
-45.1794
11.6261
-63.9966
11.0105
-59.7986
10.9133
-29.3563
1.91246
-23.5451
11.5335
11.4624
0.956712
11.3238
11.2034
32.3278
1.52642
11.4396
11.2149
-72.4439
-46.9825
-16.8271
-27.3694
-48.1472
-27.2461
0.620715
13.6174
-40.7089
-32.6644
-39.9219
12.5638
-54.3019
4.74408
-56.0438
-58.2579
-40.6446
-22.3959
13.8267
1.83325
8.12923
11.3495
1.14159
-34.3695
-2.97549
-1.20415
0.968068
0.0918493
0.172142
0.708185
0.324262
-28.2994
0.348451
0.17545
0.359078
0.413245
-23.2824
0.786923
0.0112965
0.201784
1.02898
-13.6432
-9.38742
0.444072
11.9348
-33.7195
-57.5807
-3.56685
-48.658
-13.9122
-3.88302
-24.8368
35.8389
8.05832
7.27293
-9.72405
-0.0233861
0.0663902
-5.29734
-0.0533407
0.0192691
-2.23101
0.0227579
1.05368
1.12762
10.7282
-7.11128
0.238499
41.2933
0.0108487
11.3364
0.057638
-0.0349989
41.915
-47.7329
22.9147
-0.000319896
-0.35541
-28.3412
-28.4921
-2.43974
0.380841
10.0898
-14.551
0.158767
0.14713
-15.4925
11.2428
0.120345
11.9363
53.3092
-0.14748
-0.589635
-18.3872
-3.12626
0.422307
0.350598
-0.774139
11.1845
11.177
9.75816
11.2979
11.6337
2.99023
1.90924
-6.7
-55.3964
3.79179
-8.24704
11.228
11.1295
60.0908
1.89343
-0.394307
-0.397693
-23.533
-40.6331
4.22749
14.8693
-0.602444
27.6701
-6.87202
13.7685
-36.7877
46.2829
28.5352
-21.3597
3.49912
3.07113
-22.992
-56.534
-84.7337
-0.20157
-13.4102
-57.7903
1.23459
-17.0665
-9.32651
-41.5411
-28.2177
1.70432
14.6383
-59.5386
9.26704
-9.40892
1.47717
9.56993
-2.47438
15.0089
0.976472
13.3337
8.67207
-39.3041
2.21337
56.2198
-22.0831
54.165
31.0222
-76.4185
12.1859
12.2329
-62.6507
-15.7179
-3.15514
-33.1781
-27.2716
-1.44981
1.6788
1.4025
-33.7715
-4.73251
5.71415
56.8956
-10.3234
12.0226
-8.5177
-21.6635
6.52601
6.57543
-37.8018
-32.3364
-30.1166
-29.7203
0.249454
-19.2701
-0.0255442
-20.1356
-12.1286
1.03294
-0.355691
-18.2419
-6.47257
-29.6289
-29.3931
-3.57437
5.72227
-0.614382
-14.1163
-24.7736
7.98264
7.71792
-18.9432
-29.1187
8.10533
-9.87769
-29.0662
0.190041
-41.3586
-1.9688
-6.49254
-50.1978
0.333771
51.026
-10.8495
-0.496324
-0.479128
-1.50515
-58.3347
0.572703
0.603231
-5.33829
0.314288
10.1064
0.447016
-33.4836
10.2642
35.095
10.5559
10.4416
10.1993
0.528928
-18.9706
-10.0601
-11.9017
-55.8772
-3.19149
-43.8242
-13.4113
0.00534502
-59.4016
0.0241096
0.456747
-1.1303
-10.4893
-58.1751
-28.5551
9.87895
36.5883
-15.5495
0.53924
-36.8094
-44.9914
-12.8839
-47.0613
32.4529
11.0411
-13.9106
41.444
11.0754
-72.3047
18.9337
9.95195
47.4763
33.0031
10.8893
11.2424
59.0643
-42.8142
0.693027
52.7334
6.18044
11.2069
-11.8709
11.0866
-33.5567
6.61089
58.47
11.2984
11.4481
35.4745
9.48292
17.0699
-6.05778
-3.97653
14.2302
-30.2477
22.8443
-24.5848
-58.4115
-74.5532
-27.5942
11.5352
35.3015
13.0044
3.47312
5.97638
10.7463
10.8065
0.20588
0.341321
39.3842
-45.6462
11.6827
-30.8838
0.567318
5.86232
-20.2639
-72.8664
0.297713
-17.8743
12.4118
4.79641
0.117497
9.26986
-10.1211
0.334553
0.730677
-26.6223
1.31428
0.585439
-8.98923
9.46505
0.552086
21.1793
0.604337
-21.8287
26.4315
0.674981
14.6746
35.7706
-28.2104
55.6151
40.2308
-33.6326
-65.771
-28.4603
-29.4932
-28.3006
-28.3912
-30.8937
-25.7771
-36.51
-28.647
57.5754
-4.1441
-51.7108
10.3044
-1.46496
-40.8534
-52.0886
-5.84564
-29.7076
-18.7118
-28.7393
-16.7755
40.4032
-48.2842
-41.6167
-28.0695
22.7769
-27.9316
0.665483
-55.8005
21.9521
4.80226
0.385593
-2.90897
44.2936
8.07467
-21.8423
-9.51658
11.9115
0.369956
-9.06101
-28.0793
-33.4378
-2.97783
-6.53676
17.649
-30.0913
-9.63532
0.616821
-24.9999
45.3453
-3.61916
4.41037
0.60276
1.20824
-40.3601
9.29125
7.17406
-0.176828
0.492769
3.88953
-3.95222
-4.55689
61.4246
2.14394
-18.2636
-8.21074
0.94897
-57.7944
-56.5652
8.02339
8.24389
7.41059
10.3028
-25.9203
-11.6497
55.1983
-9.61977
10.0831
-18.5201
-4.87632
-6.63818
7.84173
-14.2669
7.83648
-22.7566
-28.6067
-43.8916
30.2533
-15.0613
16.6742
8.09909
-58.8188
-72.2287
32.0199
-55.6109
8.61641
-63.9396
31.6195
-3.56485
17.6181
-21.2161
-0.662598
0.314502
-9.16074
-15.3602
-42.0272
-0.782446
7.51784
-96.7994
12.0423
-39.1743
11.9015
-2.89889
9.45238
0.363296
-1.80782
0.246604
-9.32163
7.00249
0.557064
14.5429
-1.01285
-51.8197
33.7045
10.3704
39.9134
11.3152
-1.80037
10.3254
12.0962
29.8633
-1.12398
29.7719
0.474349
-0.909163
-22.2203
0.60687
0.164932
-16.6195
-10.022
-30.387
-5.43651
32.1633
5.96285
26.3691
0.5011
18.074
13.9246
0.569471
0.498693
0.332463
0.741045
55.8094
0.324867
-11.7549
-30.2666
11.3737
11.7339
13.8186
11.584
-24.5728
-35.067
-2.0894
-5.31169
-5.3401
-16.7424
32.9854
0.232725
-62.7412
-10.4038
-37.2568
-1.11331
7.86875
-25.1358
11.4727
11.6254
-22.2717
11.7251
0.0442669
5.79028
-45.1652
16.5443
53.9721
-0.751261
-1.26021
32.9979
5.37281
-0.25347
33.3307
7.00264
-16.4045
36.1213
-12.7048
37.995
-48.6945
0.623632
12.1177
-1.51111
-9.40494
-1.79075
0.656535
-2.33731
0.204826
12.1238
-37.2758
3.71854
0.417293
-40.4592
-0.432955
7.58107
11.5827
11.7109
23.8124
3.15198
-0.570988
-7.18911
-1.72836
-14.4801
11.3791
0.494343
-22.8617
58.5518
-22.5634
-0.181054
57.1437
11.6148
-55.1415
53.0481
-3.60528
4.40111
34.7069
11.745
-28.8366
37.2278
-29.0588
-7.45357
-28.8436
-15.6396
-38.7888
32.5434
-7.88609
59.4111
0.551578
-28.9459
-28.9335
-60.0643
-53.0659
-37.7324
-61.1421
-42.7027
-32.563
56.0252
8.81082
9.53499
48.9267
22.7462
-49.4462
6.15467
-51.7102
43.2755
0.767696
9.90945
0.0689049
0.597859
0.535072
0.523399
57.485
0.430038
0.54592
9.79559
0.756559
0.842378
10.0569
-6.99566
0.653214
-8.84285
0.568878
6.22901
25.1201
-49.6376
-1.08045
0.980086
-7.69963
-0.940967
-41.3619
-25.0874
-24.6388
-1.15755
36.9045
12.8448
-3.3656
-6.2979
7.04158
3.19654
0.650259
10.8241
10.2589
-28.5784
0.786191
17.7145
-4.17129
1.8378
10.929
-1.81871
7.15611
10.8511
10.6581
-14.9366
10.4079
7.68016
50.9165
23.6932
12.3427
21.2397
10.0341
-2.35627
10.4874
0.534474
-4.76046
0.485316
4.41628
0.048286
22.1492
10.0329
-18.5158
21.6807
0.111758
8.88021
26.6654
-15.8507
32.5764
-27.9691
-54.6875
-41.994
-0.929916
0.100342
-27.7522
34.4121
-11.1058
-3.25834
8.13787
0.690001
-0.647083
0.12292
8.67438
11.9739
28.1157
7.98238
0.47518
10.8308
10.6248
0.0455135
-37.2736
34.1118
0.00931524
6.89541
-13.5871
41.2533
11.9364
9.33242
-11.2865
-49.8397
-53.9746
11.047
10.9796
-5.26034
-9.2734
-10.5092
-31.4972
30.8492
0.573846
-0.110595
-2.19666
0.513261
18.0843
-18.4396
0.588631
0.414147
29.0021
0.418594
-9.91001
25.1345
-36.8889
-27.1121
0.497648
-12.5382
12.8422
-0.0564313
0.506914
11.5335
8.30774
-3.60815
19.6502
2.88462
-48.3342
0.609832
0.581108
-36.395
-4.47771
12.6544
0.628972
7.00803
11.1558
58.6784
0.592514
-11.9866
-38.6291
-41.8129
-94.536
-62.4214
0.589605
15.444
45.2516
0.00767713
6.36081
8.45827
-42.0374
12.2282
5.35451
-41.0484
12.1226
22.7956
-18.6074
8.40262
-41.346
-59.6209
13.6625
17.7491
-46.269
13.9654
9.94553
1.71026
13.3118
11.4834
0.262931
-37.1853
-7.89625
5.06145
13.0741
10.6234
11.8912
0.0625552
-0.019558
33.1077
0.0449117
-9.81569
-0.598054
35.2451
11.619
-13.482
3.66876
56.4928
-25.6453
-30.8021
-44.2804
2.25898
-6.65935
-56.8135
-20.4681
13.3296
-16.9796
-8.50661
0.00161158
-10.8147
10.9062
3.86279
1.81752
0.0749791
0.216864
-20.8691
-6.11216
-12.9159
0.0151673
-0.874557
0.295234
-1.05165
-7.13744
12.1885
-45.8985
12.5625
-1.3835
-1.30172
10.3559
10.3034
11.3218
0.526183
-1.21696
-11.3081
2.98225
-1.07335
-1.56267
-28.3769
2.77277
-8.88322
-42.2435
-29.7802
-31.5855
13.2419
-29.1932
17.1774
-31.1558
0.411745
-28.8811
0.426136
1.75367
-1.19937
-6.23486
0.417247
2.75435
-3.04327
10.8212
7.74322
12.316
-6.1031
-7.18325
-52.6961
-28.8182
22.3236
34.9961
-37.0498
-28.0504
-31.5355
-55.4452
-28.5171
-10.0116
-28.7401
0.582544
0.208996
-50.4408
-59.7627
-6.58572
-1.23402
10.7582
51.5635
-4.30702
-59.2804
-1.62233
3.8967
-4.39646
-1.19064
-30.4375
-0.253482
0.214148
0.317599
1.22553
5.94136
-0.600425
0.729964
-47.8713
-49.0964
-43.0371
20.7444
-37.2542
11.7019
0.576922
13.4743
5.40717
3.24376
20.1169
11.0377
21.1335
0.279772
2.75173
4.28431
-0.166988
1.05893
-14.0383
7.884
12.4424
7.87213
41.5177
0.550215
22.5084
-58.7437
-6.10743
-49.1879
39.6079
9.51769
8.34697
5.45227
-16.94
-10.1018
11.0715
-37.2187
6.52611
7.51819
-5.71664
16.9431
8.61718
-6.35973
-17.53
-16.7098
12.1079
-2.75926
-59.8407
-1.13161
-46.9234
-32.4039
11.9895
-60.0749
-8.17456
32.6372
-2.39218
11.9594
13.7183
16.3129
-7.67883
11.2347
-28.6915
-16.4594
-28.5819
-5.58948
-8.94072
15.2651
-28.1053
-24.9553
0.799767
-0.202062
14.3252
-28.447
5.48878
-4.60164
-47.2688
0.325705
-0.342376
10.6613
-56.2001
-6.77153
-3.47603
0.326542
-2.68913
10.3219
10.1014
-2.28924
10.3774
-27.811
10.3677
-60.3254
10.6518
-32.7384
-32.0065
-8.72964
10.0605
-9.65963
0.260447
9.98538
-3.45803
-0.552408
-9.57784
50.5876
0.145743
32.8561
-10.7515
0.136182
-4.37382
0.211097
11.5433
10.198
11.3093
-10.276
0.122986
10.8803
-1.97288
0.0887025
0.601013
-26.3087
0.595605
0.137468
11.6521
-28.6135
-31.2401
0.165537
-6.11451
0.515492
-30.8228
0.365209
0.21949
0.0587218
0.313709
0.196001
0.0392423
0.0381502
0.585615
10.2745
-23.8987
-18.3909
11.6335
43.6074
14.8926
11.3857
0.0270333
12.069
35.8547
0.0672475
31.7183
-0.520858
0.154218
-2.24992
23.5263
0.548241
0.00384281
53.6523
12.1432
26.6479
-11.0189
-15.1445
0.114557
-4.56303
-0.0361522
0.609239
1.00117
0.513192
48.2051
0.558092
0.418909
0.376131
10.8881
-42.9245
-24.4307
-5.67915
2.52496
-0.188632
0.434454
14.0986
-31.4755
24.436
15.4498
2.10884
0.426776
40.9511
-15.4311
38.7788
30.5985
10.8948
11.5009
0.30174
-7.01908
0.60046
-15.5039
-13.9545
11.4979
-54.018
0.234148
0.523817
0.580584
9.82101
0.53438
46.2602
-5.53948
44.3533
0.474027
-59.364
-10.761
-15.448
0.401282
-45.7901
0.519795
26.782
11.0921
30.6583
0.600668
-19.217
3.21803
-48.4455
29.1118
11.0123
10.641
-1.80254
-26.1682
10.6898
-61.8852
-33.9235
11.0754
32.2911
10.9352
-24.0962
41.9
6.06798
-7.13741
41.7921
36.1885
0.214697
1.81181
-58.0568
41.7369
8.85763
38.1618
-6.34275
-56.5471
28.3265
-3.51686
0.0182995
0.284368
0.0662538
-0.202766
12.8215
-37.5463
-1.38951
-37.0927
15.2301
36.901
-12.1889
35.1444
0.0166186
-0.0411227
-15.6494
56.1529
-20.1427
46.0947
15.1561
3.17555
23.2066
3.24653
15.6292
0.03387
0.0366578
0.007884
-0.0226189
7.80584
-16.3204
12.2157
-33.6798
1.97689
-41.7145
8.25366
-24.0693
43.0223
-4.24848
-3.30786
0.140441
36.7254
0.0529258
21.6525
-2.93436
7.74547
-10.345
-0.752245
30.3098
34.3165
-15.7533
0.186598
-0.751825
-41.9109
-63.3709
-9.04962
50.2823
25.592
53.5114
56.9747
42.4295
-40.7956
-2.48895
42.1762
-45.0782
0.00711047
4.39531
0.0625973
-29.6605
-16.6452
-2.51451
0.588972
-10.1985
-0.00136322
10.4065
-37.8563
40.4407
-46.3837
10.3573
-3.00437
8.87521
0.19589
-7.31934
-62.2162
0.395917
-37.2291
-17.0949
10.7156
-61.7213
-50.0237
10.7215
-13.5777
-15.0775
21.1156
10.7586
-15.2293
25.1974
-59.2037
-33.2187
-45.1946
38.4462
-38.4673
3.79347
24.296
3.22899
-58.4486
-48.9337
-1.30929
-1.19462
47.7461
-4.12528
-39.4005
-3.22619
-18.2913
-66.1129
-30.5742
-29.688
1.35925
-29.8164
0.23165
-29.7024
13.4601
-23.5845
47.969
-28.3714
19.2415
-33.2987
-27.9955
-21.7378
-46.7312
32.0264
29.8045
-36.7149
9.81555
24.1099
15.9908
5.03996
12.5586
-3.44004
-31.87
-80.3457
-30.559
14.4891
18.3024
-42.1771
22.2964
-31.423
-17.006
5.10292
4.96827
-32.7464
11.7185
-30.8013
13.089
29.2774
31.3704
58.8874
28.1029
-30.598
-60.4897
41.7794
11.6992
35.6886
-50.7892
-29.4989
49.953
29.2751
-5.0192
20.9883
22.7899
-45.3742
-32.2789
-51.4395
14.2863
10.1167
34.4931
-59.2351
42.9503
27.3594
12.0167
35.7174
-30.7438
0.816668
1.43781
11.9635
-14.008
-56.726
-28.483
43.8907
-8.204
-21.5804
-48.3128
40.9282
45.3606
37.0084
-36.5793
-99.0207
43.5453
-34.148
-58.5953
44.9741
-2.66414
-10.9959
11.5504
-0.0210241
-0.19508
-9.57974
42.5922
-27.9353
0.79627
0.0620542
-0.130955
0.289857
-1.07134
3.26028
-34.9078
-6.82882
-0.26662
-56.2824
-74.6829
-28.1875
-21.0164
-1.93183
-18.9287
-30.6705
-44.4427
-0.14798
-36.5078
-3.13703
-35.6848
-29.721
41.7789
18.0188
25.3909
0.0679681
3.50477
-72.9282
-26.6465
-10.6701
-49.8547
0.016241
-62.7045
-45.0191
-27.5128
-44.8944
-6.13246
15.1147
10.9749
14.3374
10.2029
41.8622
0.0635091
-0.0105116
0.0429717
13.8811
-11.3013
-53.1101
-56.7367
15.417
36.2243
23.5924
28.2546
-1.28038
-53.6301
-6.55688
11.5278
2.91875
-1.93339
18.135
6.32494
-16.0683
13.8457
-12.2142
-10.4982
-8.52301
16.6389
35.2246
-33.0575
51.3905
-27.7338
18.1943
-62.6392
-49.4201
-11.2884
14.142
32.5026
-10.4403
-36.7743
6.31739
13.5863
-19.2815
-28.7253
14.9253
45.7568
57.6142
-42.7859
-1.81955
-59.485
13.7774
0.185859
-10.7368
10.1236
6.4151
-17.0202
2.56756
7.16745
-44.4443
-10.3401
-28.0185
-15.7896
-28.8436
0.00265409
11.2917
-62.4726
-19.0518
-0.0286177
58.7207
11.9702
44.6093
10.5524
-22.6851
16.0734
-1.05105
32.4961
54.2267
14.622
32.5912
0.0426429
-48.0909
11.7599
11.6206
-6.12351
5.00334
-39.1395
-5.80466
-9.96658
11.9134
2.89783
-24.1413
4.20456
8.77035
-8.37083
-14.304
-28.1772
0.00778641
13.224
0.0236169
13.5486
0.0266753
-21.7224
11.6598
-24.9587
11.0424
-30.2573
-0.009715
32.6192
-9.8425
33.9486
0.0621306
7.65946
0.0980082
0.00508398
-5.3475
6.79417
16.2146
32.3687
29.347
-29.7255
-54.4788
40.1753
22.8896
20.6202
3.83536
0.0211396
0.0907717
-77.2329
41.6983
17.2589
13.1969
0.0721937
17.6753
0.152097
0.090759
-23.498
-25.5933
-40.0359
-35.2897
5.66366
1.26989
-5.8377
11.5215
41.716
9.97521
-18.0506
9.90129
-7.88643
-79.5138
-17.2658
0.215534
2.54851
-10.938
-8.01029
-37.4272
11.9905
-36.2992
21.9866
-77.8914
-33.2096
-30.3415
0.209504
20.8001
1.25144
11.8421
33.5698
11.8995
-12.6301
9.93928
10.8127
7.36795
11.7978
-42.0268
17.3583
2.1247
41.4663
11.1975
-24.6361
11.9897
11.9051
-30.0667
-79.6844
-31.5195
-29.1808
-30.1309
8.40905
56.9324
-29.0972
-4.47137
10.2865
18.0651
-30.1309
0.326245
0.195022
9.95975
-24.9824
-29.1974
-50.1677
29.5443
-3.69006
0.639509
1.338
-29.2549
26.6821
8.73819
-57.8477
-27.3254
-28.3997
58.1296
13.0256
9.62428
0.539694
13.1276
-55.4663
15.6241
10.1621
17.8582
-2.99521
16.2457
21.3168
42.7208
34.4875
9.56659
-18.9358
20.9202
-11.3843
0.387756
0.411687
29.939
-33.3739
-14.4311
0.385764
53.6234
0.428623
-29.3103
29.225
18.5474
37.2632
-28.3594
-21.0921
-29.041
29.8158
-13.7702
-34.1521
-7.33636
10.3804
0.749979
12.9855
-0.116915
12.6875
-0.394206
10.3987
-0.435785
-14.0436
0.179696
32.9528
1.07034
3.21561
-27.8819
7.94636
0.363628
9.36229
-7.79012
-35.3972
-48.4241
-22.4584
3.509
35.1195
0.755052
56.5288
-35.9396
56.911
50.2751
0.814804
3.45746
5.33558
0.613555
0.720859
-92.9426
8.9724
-27.8367
-11.9646
3.63385
-0.0594054
-28.8501
5.7176
5.66444
8.21075
5.6283
0.547345
-33.3078
-5.70073
0.190955
-21.0751
0.624745
-0.24131
0.398002
0.181559
-11.2549
6.5946
-58.4961
-0.268956
0.177681
-13.1207
-12.0361
21.8133
-19.9232
11.169
11.0548
-0.0278651
0.204721
-11.9409
-18.5713
8.39777
0.19443
-4.02705
9.35045
0.17659
55.1051
0.103657
0.534154
0.18231
-0.0157591
-31.608
0.00337581
-28.4568
-9.73
51.0552
3.54752
-2.08694
-4.0773
-0.728212
-9.2292
-39.8653
0.804057
0.103641
6.27149
-28.6257
0.070106
7.05639
26.4783
40.6843
-12.4732
8.51436
7.79197
-43.9506
-26.3929
0.00318729
46.0511
-61.1469
-23.7926
-9.2783