/*--------------------------------*- C++ -*----------------------------------*\
| =========                 |                                                 |
| \\      /  F ield         | OpenFOAM: The Open Source CFD Toolbox           |
|  \\    /   O peration     | Version:  2506                                  |
|   \\  /    A nd           | Website:  www.openfoam.com                      |
|    \\/     M anipulation  |                                                 |
\*---------------------------------------------------------------------------*/
FoamFile
{
    version     2.0;
    format      ascii;
    arch        "LSB;label=32;scalar=64";
    class       surfaceScalarField;
    location    "0.0689058";
    object      phi;
}
// * * * * * * * * * * * * * * * * * * * * * * * * * * * * * * * * * * * * * //

dimensions      [0 3 -1 0 0 0 0];

oriented        oriented;

internalField   nonuniform List<scalar> 
92401
(
0.148328
-0.0974281
-0.00697071
-0.0439294
-0.0632703
0.0604634
0.039226
-0.036419
0.022216
-0.0397267
0.0430128
-0.0255021
0.00658322
-0.0131221
0.0129476
-0.00640866
0.00134276
-0.00052668
-0.00591863
0.00510254
0.01943
0.00971757
-0.0253162
-0.00383139
0.00586181
-0.00482491
0.000305864
0.0322981
-0.0255755
0.0127074
0.0480795
-0.0386423
0.0324573
-0.0418945
0.000346545
-0.000730806
0.000105115
0.000279146
0.00470137
-0.0416041
0.0385966
0.02423
0.024364
-0.0871906
-0.0173957
0.0110296
-0.000175207
0.00654126
-0.0344337
-0.0400727
-0.0166225
-0.0196708
0.0596217
-0.0233285
0.00215306
-0.0667639
0.0646109
-0.00250013
-0.00775708
0.00205368
0.00347603
0.00222737
-0.000963297
0.00154704
0.000222067
-0.000805806
-0.00495286
0.0108666
-1.35299e-05
-0.00590026
0.0164613
-0.0057787
-0.00499893
-0.00568365
-0.0408281
0.00838076
0.0369993
-0.00455196
-0.0393608
0.0109212
-0.054751
-0.0541573
-0.00272801
0.0549844
0.00190092
0.0907487
-0.0893597
0.0220185
-0.0234075
0.0502897
0.0601707
-0.0714846
-0.0389758
-0.0325935
0.0511639
-0.0579312
-0.00274668
-0.00101959
0.00402135
-0.000255085
0.0314603
-0.0635618
-0.000492053
0.0612173
-0.060221
-0.0323941
0.0313978
0.012543
-0.0173439
0.001329
0.00347191
-0.0360315
0.106656
0.0617909
-0.132415
-0.0846893
0.107518
0.00898032
-0.0318095
-0.131141
0.0323678
0.0295968
0.0691766
0.0148612
-0.0620773
0.0373667
0.0098494
0.0602524
0.00924957
-0.0546408
-0.044306
0.0101308
0.00250454
0.0316706
-0.0504112
-0.0411813
0.0654837
0.0261087
-0.0332381
0.0405836
-0.0138221
0.00647653
-0.0201419
-0.102367
0.0656454
0.0568638
-0.0858125
0.086376
-0.000563548
0.0346485
-0.00627053
-0.0771555
0.0487775
0.0020719
0.0264682
-0.0205476
-0.00799249
0.0268861
-0.0503985
0.0235125
0.000171188
-4.78053e-06
-0.000123141
-4.32661e-05
0.000740127
-0.058419
0.0576789
-0.0685807
0.0429404
0.0623774
-0.0367371
0.0901265
-0.025425
-0.012803
-0.0518985
-0.000363685
0.0706147
0.000655384
-0.0709063
-0.0476949
0.0731098
0.039868
-0.0652829
0.000554032
0.00111283
-0.000383017
-0.00128384
-0.00217012
-0.00350384
0.000205379
0.00546858
-0.0382623
0.0839559
-0.0462665
0.000572863
0.000337915
-0.000803283
-0.000570532
0.0010359
-0.0547422
0.0542485
0.000493686
0.0755769
-0.00788882
-0.0185843
-0.0491038
-0.0990052
0.0915811
0.00471138
0.00271272
-0.0549118
0.0273796
0.0110821
0.0164501
-0.00287813
-0.0150584
0.00768199
0.0102545
-0.0125696
0.0258876
0.0374394
-0.0507574
0.000928011
-0.000368878
-0.000221217
9.93744e-05
-7.09256e-05
0.000774461
-0.000802909
0.000556296
0.00018022
-0.000463086
-0.00027343
0.00416224
-0.00921225
0.00506427
-1.42647e-05
0.06791
0.00505879
-0.0171984
-0.0557704
-0.015074
-0.00473313
0.0106424
0.00916476
-0.0409724
-0.0528845
-0.0547727
0.14863
0.00335703
-0.0343778
-0.00329955
0.0343203
-0.000335248
0.000542431
0.000473759
-0.000680941
0.00434754
0.00449379
-0.0280122
0.0191709
0.0188055
-0.00652114
-0.00958763
-0.0026967
0.0417763
-0.076505
-0.0275132
0.0622418
-0.0291932
-0.0031438
0.0102985
0.0220385
0.0122823
0.00823183
0.0130766
-0.0335907
-0.000400972
-0.000331907
3.1849e-05
0.00070103
0.0252307
-0.00973218
0.0365641
-0.000646608
0.000381295
-0.000730401
0.000995714
0.0442044
-0.0330969
-0.0681722
0.0570646
0.00044864
-0.000270483
-0.000178156
-0.00111904
9.04841e-06
0.000566028
0.000543966
0.000677686
-0.000196013
0.000327508
-0.00080918
0.0226959
-0.0230361
-0.0623519
0.0626921
0.00108064
-0.012687
0.00286844
0.00873796
0.0430145
0.0585928
0.0185077
-0.120115
-0.113401
0.0262866
0.12547
-0.038355
-0.00543237
-0.0445283
0.00374008
0.0462206
0.0547836
-0.0300946
0.0260678
-0.0507569
0.0260775
-0.00335918
-0.153117
0.130398
0.00848104
0.016346
-0.0286582
0.0038311
0.000689518
-0.000207126
-0.000746429
0.000264037
0.0381047
0.0123735
-0.00135148
-0.0491267
-0.00254118
0.0842294
-0.0857389
0.00405063
-0.0181475
0.0496493
-0.116156
0.0846542
0.0424491
0.00531545
-0.0531969
0.0425865
-0.000137439
-0.00232898
-0.0291941
0.0416352
-0.0101121
0.070906
0.0171779
-0.0315672
-0.0565168
0.130944
-0.144537
-0.0295708
0.0431637
-0.0151258
-0.0455819
0.0583787
-0.0824856
-0.000626469
0.083112
0.0010951
-0.0978579
0.163125
-0.0663622
-0.00254174
0.00339679
-0.000626068
-0.000228979
0.0897222
-0.149008
0.0305077
0.0287785
0.00154743
-0.000428223
0.000899895
-0.0020191
-0.0872268
0.14285
-0.104026
0.0484023
0.0308541
0.00287723
-0.0412312
0.00749981
0.0861956
-0.0151194
-0.0824446
0.0113684
0.00574445
0.0316604
-0.0525307
0.025087
0.0274435
-0.12064
0.0681099
0.0871924
0.113184
-0.0800762
-0.1203
0.00111854
-0.000141693
-0.0011827
0.000205855
-0.0936676
-0.0287595
0.110895
0.0115324
0.00122902
-0.00598151
0.0160689
-0.0113164
-0.0140701
-0.0339645
0.058171
-0.0101364
-0.0056123
0.0173637
-0.0145446
0.00279319
0.00040337
-0.00068275
-0.000604628
0.000884008
0.0221322
-0.0262962
-0.00144831
-0.00188891
-0.000700394
0.00154873
0.00104058
-0.0577607
0.0603957
-0.00263496
-0.00258827
-0.00632343
-0.00211561
0.0110273
-0.0367862
0.0282544
-0.00553831
0.0183348
-0.0472312
-0.0557928
-0.0513127
0.0415697
0.0983399
-0.0885969
-0.00763423
-0.0017981
0.00510486
0.00432747
0.0468927
0.011017
0.0022848
-0.0601946
0.00051678
-0.00952759
0.0069962
0.00201461
-0.0400405
-0.0539071
0.011523
0.0824246
0.0647074
-0.0388767
0.026631
-0.0524617
-0.00967564
0.0598297
-0.0587389
0.00858482
-0.0589221
-0.033948
0.00775155
0.0851185
0.0162164
0.00495652
-0.0329665
0.0117935
0.0623063
-0.0628453
0.000538937
0.0018568
0.00178238
-0.00156733
-0.00207185
0.0405948
-0.0437874
0.00319255
-0.0585436
-0.036138
0.107623
-0.0129414
0.000843
-0.00994363
0.00984619
-0.000745566
0.00279419
0.0059289
0.00272854
-0.0114516
0.00175251
0.00662096
-0.00785668
-0.0245823
-0.0579751
-0.00892564
0.091483
0.0258575
-0.0079441
0.0183791
-0.0362925
-0.0839985
0.0925565
-0.101271
0.0927132
0.0783954
-0.0508195
-0.0275759
0.00159041
-0.03463
-0.0101489
0.0431884
0.00822508
-0.00562986
-0.00953612
0.00694089
0.0465403
-0.0702572
-0.062207
0.0859239
0.074025
-0.0647091
0.0293653
-0.0386811
-0.0137267
-0.00873871
0.0330542
-0.0105888
-0.0581659
-0.0867675
0.0572678
0.0876656
-0.041605
0.0543289
-0.0111335
0.0976948
-0.0482713
-0.0494235
-0.00467073
0.0154876
-0.00259177
0.00101259
0.000686881
-0.000715562
-0.000983912
0.0473386
-0.015795
-0.00524316
-0.0263005
0.00366691
-0.00190591
-0.000462589
-0.00129841
0.00539214
-0.01021
0.00874473
-0.00392692
0.0723677
-0.0424195
0.02588
-0.0558281
0.00889564
-0.000413992
-0.00688015
-0.00160149
0.0016667
-0.000608319
-0.00105838
-0.065658
0.0650909
0.000567162
0.0120633
0.00557458
-0.0967596
0.0791217
-0.0118193
0.0143398
-0.0102887
0.00776816
-0.0729201
0.01621
0.0834953
-0.0267853
0.0184613
-0.0974838
0.0756398
0.00338276
-0.052677
0.0430083
-0.00837025
0.018039
0.00881326
-0.00182427
-0.00299702
-0.00399197
8.78653e-05
-0.000812407
0.000724542
0.0283726
0.170782
-0.245573
0.0464182
0.000307565
-3.08515e-05
-0.0248351
0.0603077
-0.0527635
0.0172909
-1.72809e-05
0.00524412
-0.00447598
-0.000750859
6.37287e-05
0.00146367
-0.00172341
-0.0709094
0.000632269
0.0702771
-0.0323727
0.113764
-0.0477414
-0.0336495
0.000526557
0.000495313
0.00948761
-0.0105095
0.000509629
0.0914742
-0.0919838
0.00240485
-0.00163328
-0.00122286
0.000451291
0.00138117
0.000703268
-0.000713534
-0.0013709
-0.0366886
-0.00155894
0.0324243
0.0187364
-0.0637303
-0.0724548
-0.0162753
0.00658687
0.0821432
-0.000627384
0.00200855
-0.100521
-0.0419304
0.112848
0.0296032
0.027196
0.170469
-0.0851092
-0.0577849
-0.0275746
-0.0182994
0.119214
-0.0435232
-0.0573912
0.0397343
0.0299207
0.0386121
-0.108267
0.10469
-0.248953
0.109487
0.0347757
0.00164735
-0.00146548
-0.00138577
0.00120391
-0.0122908
-0.0354129
0.0555114
-0.00780762
0.0260607
0.0403962
-0.0263087
-0.0401482
-0.035353
-0.0257987
-0.0197716
0.0809233
-0.0533728
-0.0139466
0.0550286
0.00115239
-0.0120693
0.00917979
0.00173713
0.0553719
-0.028445
-0.0508465
0.0239196
-0.0895125
0.105479
-0.0502235
0.0342567
0.0167261
-0.0233847
0.00689956
-0.000240973
0.0517858
-0.0600581
0.0636441
-0.0571209
-0.00347214
-0.0138347
0.0744277
-0.00535192
-0.0131931
0.00249139
0.0160537
0.000234084
0.0587967
-0.0582048
-0.000825958
0.13517
-0.0537604
-0.00246243
-0.0789472
0.0596823
-0.00752463
-0.0488134
-0.00334432
0.0510586
-0.0219144
-0.0707327
0.0415885
-0.00999059
-0.0017688
0.0150705
-0.00331109
0.00540983
-0.00168602
-0.00478186
0.00105805
0.0025919
-0.0440927
0.0406759
0.000824936
-0.000773851
-0.0862656
0.00345634
0.0196709
-0.0129354
-0.0631494
0.0465433
0.0166061
-0.0595466
-0.0170409
0.0109757
0.0656117
-0.100613
-0.000802488
0.104101
-0.00268464
0.00371265
0.0237509
-0.0128102
-0.0146534
-0.0713207
0.149768
-0.0659876
-0.0124601
-0.00472108
0.013285
0.022501
-0.0310649
-0.0521286
0.100103
0.0390486
-0.087023
0.0291931
0.00152445
-0.0145131
-0.0162045
-0.0362705
0.037958
0.000904401
-0.00493928
0.00749835
-0.0101616
0.00760249
-0.000269469
-0.00457006
0.0102317
0.0359785
0.0378559
-0.0738344
0.0010903
-0.00190627
4.06913e-05
0.000775272
0.0199347
0.00832416
-0.0191693
-0.00908956
0.0225542
0.0110205
-0.00192067
-0.031654
-0.0524899
-0.0019145
0.00701431
0.0473901
-0.000183135
-0.0439096
-0.000987117
0.000544669
0.00153275
-0.0518185
0.0370107
0.051961
-0.0371533
-0.0448975
0.0302819
0.0177963
-0.00318069
0.00136344
-0.00356253
-0.0099106
0.0121097
-0.009709
-0.00508312
-0.00305504
0.0178472
-0.0436228
-0.00485278
0.0122051
0.0724287
0.0396867
-0.0720918
-0.0400236
-0.0452725
-0.000294432
0.0455669
0.0861906
-0.0486782
0.0595879
0.00367491
-0.00766529
-0.037223
0.0412134
0.0359788
0.01132
-0.00533142
-0.0419674
-0.000478734
0.000338514
0.00102053
-0.000880309
-0.0168398
-0.0450041
0.061844
-0.000228034
-0.00136974
-0.00413322
0.0307955
-0.0229874
0.00617775
0.0278561
-0.0416991
0.0978442
-0.0906386
-0.00206018
-0.00514549
-0.0214787
0.101419
-0.0185867
-0.0613539
-0.0321229
0.00680277
0.014
0.0113201
-0.039171
0.0359656
0.0139392
-0.0107337
0.0325709
-0.025126
0.00134275
-0.00878763
0.0191112
0.0724432
-0.122506
0.0309519
0.0762981
-0.0752737
-0.0243145
0.02329
-0.143435
0.00207218
0.00363557
0.137727
0.0305945
0.0123762
-0.0412671
-0.00170361
0.0399332
-0.057721
0.0203813
-0.00259355
0.0021454
-0.00122334
0.000247425
-0.00116948
-0.0146025
-0.00113256
0.0733999
-0.0416435
0.0188064
-0.0505628
-0.0119472
0.0477429
0.000393031
-0.0361887
0.00516064
0.0958013
-0.0931483
-0.00781362
0.0494813
-0.0989624
0.0579803
-0.00849919
-0.0483379
-0.000397715
0.0367884
0.0150888
-0.00347337
0.0086591
-0.0202746
-0.0234213
0.0477926
-0.0133119
-0.0110594
-0.0482957
-4.22327e-05
-0.00555441
-0.122874
0.175887
-0.0474588
0.0101181
0.00978918
-0.0635707
0.0436634
0.0494727
0.00547973
-0.0448343
-0.0130087
0.00675456
-0.00364325
0.00989743
-0.0574025
-0.000770502
0.058173
0.110593
0.0443808
-0.136843
-0.0181311
-0.00933731
0.00029007
-0.0039615
0.0185203
-0.116234
-0.0225741
0.120287
0.0126825
0.0665518
-0.0694452
0.00282375
-0.0558422
-0.0105522
0.000529278
0.00192612
-0.00268344
0.0020507
-0.00178611
0.000264684
-0.0507174
0.0261261
0.0737791
-0.0491878
-0.00193773
0.000977257
0.000969519
-0.0342094
-0.00772707
0.0447602
0.000292857
-0.000304462
0.000355226
-0.000902121
0.00012239
0.000424506
0.000234152
0.00210941
-0.00181281
0.00145638
0.000137771
0.000218667
0.00035884
-0.000170443
0.000739614
0.106035
0.122304
-0.0800111
0.000151577
-0.000754981
0.000962245
-0.0528571
0.0527253
0.000131749
-0.0105531
0.0760881
-0.0714892
0.0059542
0.00171017
-0.0196681
0.00527845
0.0126794
-0.0603324
-0.00307773
-0.0172462
0.00400194
0.0475182
-0.0342739
-0.0631395
-0.00277368
0.0659132
-0.00694394
-0.0166697
-0.0127611
0.0363748
0.000337228
-0.000391336
-0.000541322
0.00059543
-0.00391628
-0.00742413
0.00911708
0.00222333
0.0549846
0.0439061
-0.0175077
0.0483095
0.0895743
-0.0380523
-0.0998315
-0.0127003
-0.0442725
-0.0190686
0.018639
-0.0540209
0.0544505
-0.0111308
0.0288434
-0.00592923
-0.0117834
-0.01508
-0.0134836
0.013439
0.0151246
0.0967514
-0.0947766
0.0188408
-0.0208156
0.00120583
-0.00439339
-0.000443693
0.00363125
0.00121104
-0.0667633
0.0655523
-0.0724805
0.00336496
0.0666744
0.00244112
0.0389515
0.0383314
-0.0772829
0.0190959
-0.06001
0.0282138
0.0020024
-0.00113609
0.000479902
-0.00134622
0.00023829
-0.000198248
0.00113902
-0.00117907
-8.653e-05
0.000439119
-0.00101834
0.000665753
0.0639621
0.0565907
-0.03918
-0.0813727
0.00587379
-0.086947
0.0823904
-0.00131717
-0.0137616
0.000657868
0.0265196
-0.0134159
0.053539
-0.0526747
0.0190706
-0.0199349
-0.000534153
0.00139729
-0.000700027
-0.000163113
0.0202838
0.0479011
-0.049089
-0.0469592
-0.0017138
0.00100344
0.00150285
-0.000792486
0.00132965
0.0805783
-0.0819079
-0.0499619
-0.0150822
-0.0222364
0.0872805
-0.0499864
2.4524e-05
0.0116555
0.0167617
0.0166972
-0.0451145
0.000546687
-0.00275095
0.000429641
0.00177462
-0.00177928
-0.000533778
0.000599254
-0.106114
-0.00927336
-0.0430335
0.158421
-0.00969904
0.00722864
0.137053
-0.134583
-0.0386201
0.0419066
-0.0647043
0.0614178
-0.0795817
0.0792548
0.000326925
0.00129002
-0.0499903
-0.0305241
0.0671877
0.0192858
-0.00600542
-0.0804681
0.0505809
0.0949006
-0.157126
0.0116449
0.0416381
0.0158491
0.0332246
-0.0907118
0.103979
-0.108452
0.0434247
-0.0036236
0.0132894
-0.0120667
0.00240091
-0.00148612
-0.000124977
-0.000586451
0.00219755
-0.00288923
-0.00566209
0.00173103
0.00682029
0.0607648
-0.00617047
-0.0183524
-0.0362418
-0.0567468
0.0282154
0.0285314
-0.0928798
-0.00764865
0.011989
0.000671018
-0.000557759
-0.00159938
-0.118112
0.0265501
0.00517414
0.0863877
0.00128654
-0.0533683
-0.0102613
0.0623431
0.0455639
0.0292016
-0.101521
0.0267558
0.0384044
-0.0434054
-0.019074
0.0240749
0.0483263
-0.0600495
0.0501276
0.0315243
-0.0562761
0.0496144
-0.0248627
0.034707
-0.036026
0.000253568
0.00106536
0.0161736
-0.142154
0.0913075
0.0346726
0.00143839
-0.0617562
-0.00389297
0.0521829
0.000329433
-0.107424
-0.03392
-0.00869727
0.00686558
0.0357517
-0.0486018
0.0444088
0.0500312
-0.0458382
-0.0423877
0.0821061
-0.0397184
0.0103937
-0.10194
0.0481414
-0.0170278
0.00746826
0.024627
-0.0150674
-0.0881885
0.0937258
0.0362644
-0.0418017
0.0586676
0.0328361
-0.0827971
-0.00870652
-0.0460981
0.141549
0.00413487
-0.0995861
-0.000546382
0.00292882
0.00364798
-0.00603042
0.0536797
-0.0720109
0.0829877
-0.0646566
0.0078611
-0.0390312
-0.00828222
0.0394523
-0.0433422
0.0313634
0.103279
-0.0913005
-0.0499873
-0.0264437
0.0528571
0.0235739
-0.00958626
-0.000447325
0.00619878
0.0038348
-0.0110643
0.023657
-0.0183767
0.0057839
-1.33153e-05
0.074135
-0.0741217
0.014899
-0.0440136
-0.0194872
0.0480877
-0.0342788
-0.00063123
-0.0131777
0.00158343
-0.0264856
-0.0209111
0.0458132
0.0345869
-0.0345074
-7.94773e-05
0.0611773
-0.0417169
0.0643121
-0.0837726
-0.099144
0.0973375
0.0985579
2.95224e-05
-0.010866
-0.00176691
0.0126033
0.049486
-0.000230152
2.60155e-05
0.000231728
-2.75918e-05
-0.000513463
0.0485342
-0.111835
0.063814
-0.00857787
-0.000649331
0.00499259
0.00423461
0.0268863
0.00996067
-0.036847
0.00121952
-0.000930875
-0.00886652
-0.0329547
-0.0382527
0.0126637
0.0572432
0.00101204
-0.0582553
0.0728448
-0.0441356
-0.0511891
0.0224799
0.00163793
-0.0252209
-0.0207231
0.0693857
0.0430323
-0.0395732
-0.00805472
0.00930377
0.133513
-0.119489
0.0366934
-0.0507181
-0.0450182
0.0364882
0.021889
-0.013359
-0.0525204
0.0524076
0.000112846
-0.0477783
0.0296462
0.0107229
-0.0468161
-0.0108594
0.0469526
-0.00218313
0.16115
-0.161075
0.00210729
0.10765
0.0159345
-0.0160665
0.0507986
0.00856781
-0.0512274
-0.00813901
-0.0145359
0.00470612
0.0107331
-0.000903295
-0.00956882
-0.00540799
0.00471657
0.0102602
0.0659723
-0.037678
-0.0525963
0.024302
0.0295569
-0.0153483
0.0240375
-0.0382461
0.026747
-0.0936313
0.0896044
-0.0227201
-0.00591035
0.000469791
-0.00909533
-0.0943443
0.106942
-0.0229318
0.010334
-0.0114518
0.0481087
0.0140189
-0.0506758
-0.00411362
-0.000653739
0.00322699
0.00154037
0.0839558
-0.0046486
0.0508013
-0.130109
3.94578e-05
-0.000684845
-3.85618e-05
0.000683949
-0.0670907
0.0588579
0.0741573
-0.0659245
0.00326484
0.000786465
-0.00224017
-0.00181113
-0.0777361
0.0754993
0.00223681
0.0633271
-0.0599948
-0.00333231
0.0605348
-0.000764556
-0.0597703
-0.0106536
0.123498
-0.00058574
-0.112258
0.00989382
-0.0311025
0.0328642
-0.0237658
-6.91357e-06
-0.0562113
-0.0675437
0.0115457
0.0664152
-0.0104172
-0.013332
-0.0021472
0.000137651
-0.000438534
-1.6541e-05
0.000317424
0.00122619
-9.25078e-05
-0.000263099
-0.000870586
-0.0634809
0.0077916
-0.00144843
0.0571377
0.000368095
-0.00548397
0.00194418
0.00317169
0.0122592
-0.0147224
-4.68345e-05
0.00251001
0.00822355
-0.00673993
0.0107756
0.0556612
-0.0095454
-0.0226421
-0.0234738
0.0361638
-0.00531824
-0.0363947
0.00554909
9.03986e-05
0.0668544
-0.000291998
-0.0666528
0.00760429
-0.0713763
0.0191759
0.0445961
-0.0431897
-0.0316546
0.0415921
0.0332521
-0.0353134
0.0215666
-0.0910577
0.104804
-0.000969286
0.0153045
-0.00784593
-0.00648925
0.0490473
-0.0588614
0.0473324
-0.0375183
-0.0626181
-0.00678012
-0.00803926
0.000955707
-0.000309802
0.00436662
-0.00501253
-0.0121492
-0.00275419
0.00176331
0.0131401
-0.00820878
-0.00935318
0.0108732
0.00668873
-0.000143744
-0.00223816
0.00145741
0.0009245
-0.000299965
0.000375227
-7.52616e-05
0.00170925
-0.0738629
-0.0275317
0.0996854
-0.000149705
-2.15691e-05
-0.00146396
0.00163523
9.99958e-05
-0.000305303
-9.4658e-05
0.00245703
-0.0655965
-6.51885e-05
-8.18192e-05
0.000522234
0.000601078
0.000179131
-0.000380606
-0.000399602
-0.0281779
0.0632067
0.0784964
-0.113525
-0.00921836
-0.00221219
0.00727539
0.00415516
-0.0146427
-0.000333663
0.00575797
-0.00535426
0.00550458
0.0132739
-0.0134242
-0.000388405
0.000577107
-0.000253891
-0.0665154
0.0672584
-0.000742961
0.03039
0.0472414
-0.0600683
-0.017563
0.0114748
-0.0754063
-0.0212986
0.0852301
-0.0136238
0.00273825
0.00553125
-0.00455902
-0.00644599
-0.00261875
-0.0165529
0.0585565
0.012802
-0.0548055
0.069237
0.0048306
-0.0539845
-0.0200831
0.000232801
0.000415665
-0.000729265
8.07992e-05
-7.55912e-05
-0.000212818
-0.00267454
-0.00117379
-0.00137987
0.00522821
0.0650908
-0.045927
0.0120476
-0.0312114
-0.000848104
-0.00268888
0.00138918
0.00214781
-0.0170471
0.0102027
-0.00287415
0.00971853
0.00135531
-0.101539
0.101393
-0.0012097
0.00315781
0.000797386
-0.0106304
0.00667523
0.0103597
-0.0108517
0.00155825
-0.00106617
0.00992413
0.00402781
-0.0107941
0.0367705
0.056278
-0.0279578
-0.0272774
0.0548032
0.0281938
-0.0557196
0.0277532
-0.0550306
-0.000804846
0.000563403
-0.0329966
0.0124773
-0.0100483
0.0792139
0.0233937
0.00743242
0.0696551
-0.0542315
0.0979028
-0.113326
0.00484522
0.0926608
-0.097506
-0.00697159
-0.00722189
0.0135961
0.000597415
-0.0342733
-0.086915
0.0275369
0.0936515
0.0218073
0.0615955
-0.0242746
-0.0591281
-0.0235341
0.113243
-0.0529379
-0.0418497
0.0448965
0.0517563
-0.0558262
0.0558165
9.61874e-06
-0.0390848
0.0367276
0.00235716
0.0396422
-0.0780091
0.0726601
-0.0342932
0.0675473
-0.0841003
-0.00996592
-0.00812413
0.0111185
0.000774587
0.000630899
-0.000515057
-0.000890429
-0.00580086
-0.042647
-0.00737824
0.00123646
0.00148558
-0.00262094
-0.000101091
-0.0574065
0.0518752
0.0855332
-0.0800018
0.0363575
-0.0336063
-0.00275122
0.0129468
0.0186448
-0.0131609
-0.0184306
0.00421404
-0.000410068
0.00219116
-0.00599514
-0.0644316
-0.000726115
0.0201104
0.0450473
-0.00294679
0.00667892
0.000481911
0.0389824
-0.109387
0.104729
-0.0343238
0.0460552
0.0133869
-0.0593716
-7.04664e-05
-0.00364982
0.00697422
0.00170024
-0.00502464
0.000135721
0.0606044
-0.0607401
0.0381101
0.00659748
0.0151164
-0.0598239
0.00431286
-0.00733794
0.00261501
-0.183916
0.0281304
0.16334
-0.00755357
0.0398606
-0.0109616
-0.028899
-0.00126186
-0.00152032
-0.00116945
0.00395164
-0.04202
0.0461472
0.124984
-0.129111
-0.00191211
0.000689852
-0.00193409
0.00315636
0.0914845
-0.00217353
-0.0432558
0.000502198
-0.00125513
0.00204974
-0.0012968
-0.0190042
-0.116612
0.0162028
0.119414
0.00371754
0.0524317
-0.00408601
-0.0520632
0.0486802
-0.0703674
0.0605535
-0.0388663
0.0319503
-0.0365544
0.0487024
-0.0440983
0.00834411
-0.00152882
0.00565176
-0.012467
0.00128399
-0.0443856
0.0533782
-0.0537422
-0.0361904
0.0972245
0.0177303
-0.0244015
-0.0905533
0.0467563
0.0186307
-0.133939
0.0685523
-0.00187038
-0.00864921
0.00632452
0.00419507
0.0278074
-0.0498792
-0.00324434
0.0288721
-0.0266403
0.00737431
-0.00587666
2.6261e-05
-0.00152391
-0.086262
0.00265052
1.39277e-05
0.0716641
-0.149532
0.0778541
-0.0275214
-0.0874823
0.0410426
0.0739611
-0.072797
0.0204147
0.00314869
0.0492337
-0.0432008
0.0290558
0.0103136
-0.0827217
0.0956657
-0.012944
-0.0210003
-0.00947121
0.117783
-0.0873115
-0.00363846
-0.00382983
0.00610965
0.00135863
-0.0258036
0.0591811
0.0406475
-0.072169
0.0280333
-0.000817575
-0.000414194
-0.00103786
0.00226963
0.0466644
-0.0490949
0.0546135
-0.0376731
-0.00718938
-0.0449441
-0.123551
0.0477302
0.0758208
-0.0429211
-0.0325211
0.0276639
0.00305349
-0.00221561
0.000844747
-0.00168263
0.00288736
-0.000441376
0.000607506
-0.0864431
0.00362163
0.0828215
0.0614028
0.0127102
-0.12251
0.0483973
-0.0710592
0.000489296
0.0705699
0.00133737
-0.00167288
0.00847521
-0.0081397
0.0485957
0.156472
-0.226451
0.0213827
0.0018746
-0.00233361
0.00139179
-0.000932787
-0.0916496
0.0649393
0.0265387
0.000171672
-0.000698476
-0.000170585
0.00214787
-0.00127881
-0.000623404
0.00835787
-0.00851464
0.000780176
0.00765851
0.00790009
-0.0148045
-0.000754112
0.0408025
0.0124647
0.00304703
-0.00278676
0.00161433
-0.0985096
0.105231
0.00725418
-0.013976
0.0122909
-0.067205
-0.0233255
0.0782396
0.00202116
-0.00461755
0.0877805
-0.0851841
-0.0399023
-0.0364702
0.0859878
-0.00961526
-0.040706
0.024525
0.0405955
-0.0244145
0.0536071
0.0206435
-0.072123
-0.00212762
-0.00128079
0.000175439
0.00146179
-0.000356432
-0.123634
-0.0432192
0.0396329
0.127221
0.048409
-0.0376861
-0.031911
-0.0375989
-0.0309988
0.100509
-0.00184102
0.0042695
0.000445731
-0.00287422
-0.0309806
-0.0804949
0.0286443
0.0828312
-0.0297116
-0.0285297
0.0205683
-0.000737826
-0.0033188
-0.00164273
0.0031317
-0.00380762
0.00231865
-0.00574938
0.00559765
0.0253331
-0.0773596
-0.0853635
0.13739
-0.000529227
-0.000132637
0.000329796
0.000332068
0.0571817
-0.0603221
0.0480769
-0.0449365
-0.0149769
0.0445261
-0.00779641
-0.0217528
0.0868828
-0.086309
-0.0187369
0.0181632
0.0265546
0.0223217
-0.0635086
0.0146323
-0.127255
0.0738843
0.0183508
0.0350203
-0.00532405
0.00321567
8.70894e-05
0.00202129
-0.00816898
0.00965869
-0.000152345
-0.0134734
-0.00372392
0.0179935
-0.000796145
-0.0619256
-0.00494552
0.0141616
0.0527096
-0.00825764
0.1031
-0.00516675
-0.0896757
0.00897442
-0.0473707
0.080748
-0.0423517
-0.00148412
0.00418437
-0.00150982
-0.00119044
-0.0152149
0.000339412
-0.00208436
0.0169599
-0.106016
0.00437278
0.0131748
0.0884685
-4.46804e-05
-0.000305226
0.000542499
-0.000192592
0.0373151
0.00799892
0.0271148
-0.00502201
0.0463832
0.0527262
-0.0940874
-0.000213403
0.00041832
-0.000249598
-0.00051962
0.00219225
-0.0014914
-0.000181221
0.0173175
0.111285
-0.0479288
-0.0806739
-0.000253482
-5.17441e-05
0.000138493
-0.000391975
0.0618299
0.0169858
-0.0922016
0.0133859
-0.157164
0.0860175
0.0771958
-0.00604967
-0.0180988
0.000183937
-0.0515766
0.0694915
0.0248854
-0.0145548
0.0167333
-0.0270639
-0.066459
-0.0231076
0.0895666
-0.0780564
0.0387052
0.0393512
-0.0018607
-0.000387418
0.000714553
0.00153356
-0.0379031
0.0409924
0.00776115
-0.0108505
0.0465294
-0.0545005
0.00797108
-0.0605523
0.0336585
0.0450479
-0.0181541
0.00453269
-0.0027703
-0.00159943
-0.000162958
-0.00326432
-0.00247921
0.000419479
-0.0422105
-0.041788
0.0469473
0.0141722
0.00263579
-0.0637552
0.00206719
4.01336e-05
-0.00177367
-0.000333653
0.00386817
0.00543259
0.00219247
-0.0114932
0.0070968
0.0227671
-0.0408407
0.0109768
-0.0190351
-0.0154453
-0.0092415
0.0437219
-0.0750493
-0.0097933
0.0291436
0.055699
-0.00182642
0.0151768
-0.00830622
-0.00504413
-0.0529402
0.000605164
0.0332999
-0.000214911
0.0253433
-0.13573
0.12632
-0.0159336
0.0285795
-0.0345682
-0.0517721
-0.0271135
0.0548667
-0.000315867
0.0404874
0.00363135
-0.0438029
-0.0551283
-0.0599598
0.115088
-0.00322076
-0.00102735
-0.00177036
0.00601846
0.0031683
-0.00478363
0.00170842
-9.31004e-05
0.0368563
-0.00634468
-0.0281623
-0.0023494
-0.00326845
-0.00230968
0.00235738
0.00355736
-0.0108438
0.0660077
-0.0587213
0.0761221
-0.000248947
0.0272792
0.00976727
-0.00684246
-0.030204
0.0586395
-0.00081417
-0.0578254
-0.0530637
0.113741
-0.0284238
0.059686
0.0200932
-0.0513553
-0.0167383
-0.0255731
0.0177734
0.0245379
0.00308818
0.00377224
0.000857814
-0.00771824
-0.0342155
-0.0379656
0.0993361
-0.0271549
0.0451589
-0.0366376
-0.000555914
-0.00796545
-0.0494298
0.115922
-0.0514638
-0.0150283
-0.00134725
0.00162003
-8.8079e-05
-0.000184694
-0.00056234
0.0214702
-0.00483829
-0.0160695
0.00305882
0.00376691
0.000264621
-0.00709035
-0.000288697
-4.12138e-05
2.09224e-05
0.000308989
3.88682e-05
-1.94479e-07
-0.000327371
-0.00925941
0.0230859
0.0702854
-0.084112
0.0798609
-0.0809214
0.00106056
0.000291842
-0.000290904
-9.37835e-07
-0.0127319
0.000978135
0.00230907
-0.00133064
-0.00195656
-0.00852822
-0.0061341
0.00650412
0.00815819
-0.055757
0.0273331
0.000292
0.000231388
-0.000791116
0.000267728
0.0335315
0.0551552
-0.0352247
-0.053462
0.0118088
0.159429
-0.179853
0.00861431
0.0582942
0.0632962
-0.0619045
0.00194476
-0.0136312
-0.00184432
0.0135307
-0.0334079
-0.0301096
0.0635175
0.0311148
-0.0645227
-0.0543918
-0.0449601
-0.0655094
0.164861
0.0497589
-0.055596
0.00583712
-0.0727916
0.134676
-0.0714301
0.0329738
-0.0300337
0.0860032
-0.00351993
-0.0690081
-0.0134753
0.0698252
-0.0701259
0.0115121
-0.0112114
0.000123717
-0.00623722
0.0071998
-0.0010863
0.00077216
-0.00462949
0.00678394
-0.00292661
-0.000236616
0.00021741
0.000659752
-0.000640546
0.0222361
0.0233041
-0.0338117
-0.0117285
-0.0053994
-0.00493953
0.00622392
0.00411501
-0.0108736
0.0321145
-0.0428486
0.0216076
0.00113445
-0.00858715
0.0107194
-0.00326669
0.048521
-0.0041538
-0.0443672
0.0380515
0.0357396
-0.126565
0.0527735
-0.0978964
0.0599862
0.0759616
0.0329738
-0.0997554
-0.0469219
0.107884
-0.0370677
-0.0238948
0.0016422
0.00920211
-0.0124521
0.00160781
0.0273569
-0.00237795
-0.024979
-0.0305178
0.0435821
-0.00387499
0.0202605
-0.0314655
0.000955236
-0.0001955
0.00110218
-0.00186191
0.0117472
-0.0383875
-0.000631696
0.0001781
0.000370486
8.311e-05
0.00279212
-0.000403928
0.00107337
-0.00346156
-0.000771866
-0.00251858
-0.0782469
-0.0127461
0.00151868
-0.0119164
0.0231438
0.0201168
-0.0904678
0.0208168
0.0495341
-0.00339448
0.0581128
-0.0818328
0.0271145
0.000763455
-0.000475074
0.00040666
-0.00069504
0.079248
0.0125389
0.00230505
-0.094092
-0.000421467
-0.000791638
0.00136188
-0.00014878
0.00494493
-0.00087199
-0.0690486
0.0649757
0.00671792
-0.00113469
-0.00502409
-0.000559148
0.00648037
0.00462139
-0.00367412
-0.00742763
-0.110436
0.0964503
-0.0875696
0.101555
-0.0541423
0.109317
-0.0551742
0.00229914
-0.0437078
0.00869579
0.0327129
0.00372397
-0.00352429
0.000691453
-0.000891141
0.0493122
-0.00278136
0.0012121
-0.129526
0.00246209
0.0739998
-0.0340523
8.78036e-05
0.001116
0.0323847
-0.0260455
-0.00745522
0.0781772
-0.0307738
0.0342136
0.00415358
-0.0051004
0.000107257
0.000839562
0.0342367
0.0237355
-0.0756743
0.0177021
7.92696e-07
-1.94876e-05
-4.45962e-05
6.32911e-05
-0.000469768
0.00151501
0.00543513
0.000184446
-0.008063
0.00654386
0.00567273
0.0746294
0.0407467
-0.0370551
-0.078321
-0.131081
0.141816
-0.00922431
-0.00151019
0.031535
-0.0326527
0.00111766
-0.0367203
2.19226e-05
0.000358166
-0.00321766
-0.00224091
0.0146636
0.206749
-0.158921
-0.0624917
0.0293404
-0.0610404
-0.0180302
0.0497303
-0.00308345
0.0389981
-0.00102625
-0.0852759
0.047304
-0.0231311
0.0101463
-0.0380248
0.0476734
0.0462324
-0.0558809
-0.0667969
0.0893637
-0.151868
0.129301
-0.000200036
4.45866e-05
-0.00145357
0.00160902
0.000181581
0.00231553
-0.000624498
-0.00187261
0.0433236
-0.0145205
0.0380525
-0.0668556
-0.00356786
0.00033381
0.00344625
-0.0002122
-0.0118265
0.0105238
-0.0367221
0.0121734
-0.0462634
0.00593382
-0.00324692
0.0185467
-0.0212336
-0.137131
0.0187183
0.12922
-0.0108073
0.0315359
-0.0217597
-0.0141689
0.00439277
0.0344921
-0.0529327
0.00661406
0.00447834
0.00766437
0.0520154
-0.0641581
0.0247144
-0.00708073
-0.0251503
0.00751663
-0.0793828
-0.00850335
0.0149661
0.00124964
-0.001121
5.29374e-05
5.19829e-06
0.00275545
0.00180648
-0.00456712
0.0184329
-0.0321076
0.0383892
0.0179833
-0.143332
-0.0229995
0.148348
-0.113403
-0.0150374
0.0260808
0.10236
0.0571271
-0.0350631
0.0286378
-0.0507018
0.111614
-0.00610171
0.00321234
-0.108725
-0.0169663
-0.0370699
-0.0042047
-0.0163432
0.00821326
0.0123346
-0.00132579
0.000466012
1.70554e-05
0.000842727
0.0152777
-0.0776484
0.0623707
0.108754
-0.00709052
-0.112317
-0.0264089
0.0558705
-0.0464279
0.0398046
-0.122232
0.0149892
0.0674385
-0.00394386
-0.0122381
-0.0269386
0.0431206
0.00382542
0.0500653
0.085749
-0.133961
-0.00185325
0.0492205
-0.0829977
0.0890837
-0.0553066
-0.0959496
0.0959236
-0.00741286
0.0074389
0.00243487
0.00453648
-0.0948659
0.0878946
-0.00176683
0.0036238
0.00611328
-0.00797025
0.000251166
-0.000967338
-0.000287251
0.00100342
0.088984
0.000766506
-0.0174574
-0.0722931
-0.000808812
0.000764036
2.1328e-05
2.34484e-05
0.00076691
0.00331294
-0.00231985
-0.00176
-0.00182345