/*--------------------------------*- C++ -*----------------------------------*\
| =========                 |                                                 |
| \\      /  F ield         | OpenFOAM: The Open Source CFD Toolbox           |
|  \\    /   O peration     | Version:  2506                                  |
|   \\  /    A nd           | Website:  www.openfoam.com                      |
|    \\/     M anipulation  |                                                 |
\*---------------------------------------------------------------------------*/
FoamFile
{
    version     2.0;
    format      ascii;
    arch        "LSB;label=32;scalar=64";
    class       volVectorField;
    location    "0.0689058";
    object      U;
}
// * * * * * * * * * * * * * * * * * * * * * * * * * * * * * * * * * * * * * //

dimensions      [0 1 -1 0 0 0 0];

internalField   nonuniform List<vector> 
47425
(
(10.2351 0.195445 0.00457238)
(10.0788 -0.202297 -0.00509224)
(10.0058 -0.00337545 -0.0115795)
(11.5814 -0.532403 -0.236539)
(12.5883 0.362469 0.737973)
(10.04 0.0124695 0.000542696)
(12.4882 0.202941 0.7282)
(10.0331 0.0142287 0.00214441)
(10.0049 0.00866489 0.00575115)
(1.75619 4.14957 -1.61493)
(10.0127 0.0151647 0.000699814)
(9.98607 0.0626677 -0.00581751)
(12.2797 0.336155 0.263987)
(10.017 0.00121845 -0.00692818)
(11.167 0.151046 -0.143855)
(10.1257 -0.216462 -0.0118667)
(10.0278 0.000921458 -0.00625977)
(8.78888 -0.542242 -1.50819)
(8.70903 1.33288 -5.11364)
(13.6702 -0.497381 -1.0885)
(10.9298 -0.707184 -0.617658)
(9.80521 -0.0407927 -0.0294278)
(9.95837 0.0257575 -0.00324055)
(9.96325 0.0115576 0.0114254)
(9.90623 -0.0836918 -0.00791841)
(10.0103 0.0257005 -0.00637774)
(9.99401 0.0266293 -0.0029028)
(11.538 -0.390807 -8.93219)
(10.0018 0.0247203 -0.00372302)
(10.0214 0.0188716 0.0189229)
(9.71078 0.739745 0.0183301)
(10.0417 0.0955119 -0.000995582)
(10.0022 0.00733855 0.00602431)
(9.99359 0.00580022 0.0110846)
(10.0013 0.00563621 0.00347245)
(9.96306 -0.00678635 0.00840811)
(9.74807 -0.0177083 -0.0869047)
(10.0025 0.0166632 0.00726212)
(10.5518 0.423077 -0.00910104)
(10.0764 0.0632845 0.00954902)
(9.85948 0.146021 -0.0022281)
(9.48964 0.221348 -1.01257)
(5.86543 -2.69146 -0.984995)
(9.98322 0.013693 0.00524021)
(-0.0903406 -1.76258 0.355786)
(9.9723 0.0724087 0.0032247)
(9.96907 -0.0057045 -0.0174797)
(9.99516 0.0295353 0.00537655)
(10.0934 -0.0695558 -0.00423066)
(10.0643 0.0187708 -0.00449047)
(2.1613 -0.599174 -5.91006)
(9.01134 1.17449 1.42334)
(10.0469 -0.0115835 0.00269018)
(6.69852 -5.16137 1.92632)
(9.99385 0.038387 -0.00573695)
(10.2129 0.0136784 0.0365837)
(10.2467 -0.163846 0.0290831)
(10.0225 0.00565391 0.0223983)
(12.0569 1.37796 1.58544)
(9.99556 0.0266189 0.0117625)
(5.498 -5.11543 1.37304)
(5.30256 -0.6275 2.34973)
(3.99119 -2.78532 0.550133)
(9.06713 -1.18379 -0.0884273)
(10.0076 0.0107703 -0.00668424)
(10.8307 -0.352102 0.0071133)
(9.98793 -0.0114653 -0.00630024)
(10.7127 0.193336 0.590434)
(8.05604 -4.23139 2.19751)
(9.00234 0.557423 0.310896)
(10.813 -0.621756 0.145085)
(10.0577 0.00798923 0.0006157)
(10.9968 -0.148373 -0.019028)
(10.864 0.276538 -0.637251)
(3.81078 1.55365 0.280308)
(9.9989 -0.00377515 0.000669423)
(4.17481 -2.54704 1.26859)
(9.97932 -0.0198477 0.00819159)
(6.64315 -2.77272 1.53028)
(11.952 -0.0500681 1.56156)
(4.1785 1.06913 0.394219)
(10.2239 0.337324 -0.0145446)
(9.18596 0.137987 -0.324083)
(10.0136 0.0127778 -0.0066276)
(9.69558 -0.00298104 0.121093)
(10.2879 -0.0687662 0.0186409)
(10.8071 -0.128493 -0.0439893)
(10.1644 0.110408 -0.0110585)
(11.1283 0.13189 -1.64605)
(11.0579 -0.636925 2.1461)
(9.76453 0.441333 -0.048609)
(10.6767 -0.00309443 -0.0384484)
(10.0546 0.00410054 0.0117036)
(10.1698 -0.0609585 0.00730569)
(10.1202 -0.0590137 0.0160149)
(10.0644 -0.00909162 -0.00041456)
(10.05 -0.0216618 -0.0121554)
(10.3442 -0.303496 -0.00438047)
(10.1997 -0.0372381 0.00964742)
(10.0395 0.0180177 0.0313809)
(10.0226 0.0364807 0.00104911)
(8.75723 0.116698 -4.13917)
(10.2966 0.187638 0.00278947)
(5.3213 1.96256 -0.764716)
(10.3059 0.15711 -0.0347012)
(10.7059 -0.771349 0.0797441)
(10.1416 0.253856 0.0643658)
(10.1706 -0.0709931 0.00210103)
(8.92599 -0.118538 -0.313102)
(9.95378 0.0732689 -0.000215682)
(-0.675483 -1.49443 -0.491656)
(10.0133 -0.0829357 0.00787229)
(10.6446 -0.966996 0.144891)
(10.3133 -0.0210529 -0.00331129)
(10.971 -0.453113 0.044577)
(1.79568 -4.17934 -5.91105)
(10.9713 -0.408969 0.0282755)
(4.0798 0.0341755 -4.43621)
(10.3815 0.160811 -0.00314172)
(11.1634 0.379296 0.442967)
(10.3958 -0.0578764 0.000297178)
(10.0002 0.0036809 0.00546359)
(10.0003 0.0530161 -0.00433261)
(11.8281 0.766548 -0.716714)
(10.0774 -0.0554332 -0.000920188)
(10.9207 -0.836837 0.0996482)
(10.2308 -0.0964068 0.00248705)
(10.0073 0.00392512 -0.00684467)
(9.95057 0.00266335 0.00444253)
(9.99919 0.0299169 -0.0135377)
(9.2076 -0.31557 0.312223)
(10.5831 0.445082 -0.0412054)
(4.29308 0.0492065 0.487324)
(10.3598 -0.506053 0.0299839)
(9.99876 -0.209987 -1.06172)
(12.1353 -0.525659 -0.924756)
(10.9251 0.86442 0.268599)
(10.938 -0.863921 0.234511)
(10.1486 -0.0964521 -0.00181707)
(11.1404 0.00687381 -0.0520489)
(9.98293 0.00669832 0.00347373)
(12.1464 0.244546 0.292418)
(10.5139 0.042269 -0.0404477)
(10.6785 -1.23124 0.20304)
(10.205 0.22578 -0.00354358)
(10.0049 0.00515221 0.00582661)
(12.3236 0.158222 0.911156)
(10.013 -0.0288987 0.00548156)
(10.4713 0.0243832 -0.0201808)
(9.97539 -0.0168832 0.00699174)
(10.599 -1.26249 0.0647034)
(2.93595 -0.383176 -6.9357)
(10.0068 0.014659 -0.0103055)
(5.64502 0.0885801 -11.5177)
(8.98683 -1.17822 -0.758418)
(9.96905 0.0801967 0.010391)
(11.0067 0.449369 -1.69312)
(7.4302 -3.94035 -2.65724)
(10.1203 -0.061803 0.0168953)
(9.99528 -0.0221899 -0.00503014)
(11.2426 -0.281757 0.0167845)
(10.0142 0.0427537 0.00434381)
(10.0097 0.00886338 0.0192753)
(10.1601 0.30033 0.00472694)
(12.149 0.177302 -0.45277)
(-0.21452 -1.76539 -2.08845)
(10.0129 -0.0283895 0.00139625)
(4.19364 1.39394 0.246968)
(9.95344 -0.0124572 0.0215128)
(12.2081 0.714718 -4.32723)
(5.25044 1.07375 0.0366537)
(9.98864 -0.00275609 0.00728182)
(10.0009 0.0229988 -0.00340332)
(9.45789 -0.987051 -0.663459)
(10.2689 -0.0298424 0.0309107)
(9.31484 -3.05048 -1.3687)
(2.778 0.978281 -7.7017)
(10.0047 0.0261158 -0.00227035)
(10.0262 0.0175175 0.00212996)
(10.0495 0.0140015 -0.000521518)
(2.61845 0.437419 -11.0405)
(10.0657 -0.122932 0.0153404)
(10.0145 0.0197702 -0.00278958)
(10.0164 0.0101173 0.014109)
(10.0394 -0.00294038 -0.00112348)
(10.0266 0.0230615 0.0037743)
(10.2146 0.0861503 -0.00617206)
(5.66415 -0.519804 -0.676962)
(9.83871 0.0054148 -0.013974)
(10.1347 0.166962 0.0555528)
(10.0007 -0.00984649 -0.00354708)
(9.98423 0.000941524 -0.000762451)
(12.2618 -0.664134 -0.706583)
(9.99758 0.00159387 0.00384482)
(10.0154 0.0081604 0.0302956)
(11.1757 -0.0181785 -0.0318869)
(10.0026 0.000941283 0.00749696)
(10.0103 -0.0070456 0.00939592)
(11.3446 0.0528686 -0.0312964)
(10.3401 -0.254419 0.0731606)
(9.97569 0.0109795 0.00693876)
(10.3858 -0.0427638 0.010652)
(9.3689 0.249422 -0.0781294)
(11.1368 -0.171106 -0.0310662)
(10.3148 -1.47896 -0.944772)
(10.6495 -0.0151526 -0.0453642)
(10.0009 -0.00829373 0.0111175)
(11.1156 -0.0708152 -0.0322048)
(10.0017 0.0925606 -0.0136286)
(10.0028 0.0136084 -0.00325058)
(10.3076 -0.162625 0.006905)
(11.1103 0.114241 -0.0127946)
(10.0065 0.0255609 -0.000969349)
(9.96339 -0.0140166 0.026081)
(10.7116 -0.0623792 0.0342448)
(11.3701 0.0895191 -0.169816)
(10.798 0.023332 -0.0686079)
(11.1502 0.194199 1.76871)
(8.71944 -1.29434 -0.678766)
(9.94545 -0.0357518 0.0106741)
(11.8308 -0.455382 1.59802)
(11.1695 0.17588 0.188724)
(10.0221 -1.36849 -0.974249)
(10.8806 0.148469 -0.0186032)
(10.6407 -0.00919919 -0.0323203)
(11.9176 -0.70048 1.51253)
(10.034 0.0101158 0.00729177)
(11.2846 0.107581 -0.0677155)
(11.4611 0.255287 0.109406)
(11.9838 0.0512025 -0.30027)
(10.802 0.0239699 -0.0667073)
(10.0148 -0.0236412 -0.00793066)
(10.4942 -0.0993187 -0.0081253)
(10.0005 -0.00435418 -0.000696366)
(9.77542 -0.00785109 -0.00122614)
(10.0244 0.258865 0.00841807)
(11.7638 0.0139189 1.60706)
(9.98185 0.0383346 0.000375811)
(12.0828 0.0656394 1.4327)
(9.76087 1.43724e-07 -0.0407762)
(9.85676 -0.0158958 -0.0018297)
(10.0038 0.00901398 0.0152772)
(10.065 -0.0183405 0.00613616)
(11.8041 0.741733 0.0559285)
(10.4187 0.432653 0.0221039)
(10.0078 -0.00258756 0.0119131)
(10.3417 -0.0711842 -0.00236162)
(10.0107 -2.75498e-05 0.00305311)
(10.0289 -0.0156846 0.00452702)
(9.97774 -0.000754176 -0.0116947)
(10.0008 0.0535211 0.0110322)
(11.9308 -0.36722 1.58449)
(9.95921 -0.00599121 0.00671208)
(10.0035 0.00406379 0.00575275)
(9.92548 -0.00212746 0.00720348)
(9.97367 -0.00412057 -0.00624284)
(9.85219 0.0756683 -0.027508)
(9.73877 0.00858576 0.00941226)
(10.435 -0.662251 0.127758)
(10.0099 0.00122183 -0.0069088)
(9.73869 0.0191122 0.00624378)
(9.99899 0.0250797 -0.00071058)
(10.2337 0.057556 -0.0132557)
(10.1311 0.0144159 0.00798063)
(11.8491 0.0611766 0.832702)
(10.2918 -0.50644 -0.12038)
(10.0293 0.00392974 -0.0169464)
(11.9308 0.0801584 0.662173)
(10.0168 0.00016995 -0.00464639)
(10.2564 0.0818045 -0.0132787)
(10.2021 0.0567782 -0.00264357)
(12.1642 0.189163 1.18703)
(11.6383 0.178297 1.42304)
(10.1602 -0.165848 -0.020934)
(12.0229 -0.112507 1.55679)
(10.0636 0.00446571 0.00682459)
(12.0931 0.0484109 1.38483)
(6.6679 3.37053 2.22173)
(11.6101 0.0600937 1.50424)
(5.92295 1.28108 -5.24122)
(4.73606 -5.23819 1.2495)
(10.2201 0.166512 0.00388827)
(3.83476 -5.01774 0.52572)
(9.87417 -0.00763818 0.0145519)
(9.99315 0.00314948 0.0085966)
(11.3145 -0.162358 0.0306424)
(9.89684 -0.00413244 0.0141371)
(9.96944 -0.00398371 -0.0131465)
(9.81745 -0.181056 0.00551132)
(11.0047 -0.550127 -0.0920662)
(1.39119 1.74289 -3.65939)
(9.23773 0.804776 -0.00112852)
(10.0029 -0.00161275 -0.00214865)
(10.0092 -0.0061857 -0.0198519)
(10.0061 -0.00476414 -0.0133309)
(10.2336 0.377321 0.433997)
(11.7386 0.847478 0.234918)
(10.2034 -0.696222 0.110721)
(10.024 -0.141001 0.0178711)
(11.8903 -0.134212 0.148208)
(10.1049 0.160377 0.0268036)
(10.0726 0.0259881 0.0131175)
(9.96141 -0.0106322 0.000807558)
(10.0249 -0.00784856 -0.0126075)
(10.3933 4.10962 -0.510928)
(6.02832 1.79855 -0.326106)
(1.50334 1.19984 -6.32989)
(10.0209 0.00590639 -0.00912629)
(10.0814 -0.0413894 0.0135257)
(10.0542 -0.63699 -0.0506177)
(10.168 -0.510752 -0.158708)
(1.25387 -0.739253 -5.88996)
(9.98401 -0.0027428 -0.0178474)
(9.95622 -0.0039131 -0.0213406)
(10.8802 2.38106 0.910364)
(10.2156 -0.138392 0.0188825)
(9.86121 0.00170597 0.00364169)
(9.81799 -0.00419931 0.0131703)
(9.90963 0.0016558 0.0111094)
(12.5935 2.38553 -0.964112)
(11.2582 2.07979 0.80909)
(10.0191 0.185991 -0.00530095)
(10.1087 0.144306 -0.00927172)
(10.0184 -0.00324023 0.00140046)
(10.2615 -0.0314117 0.0099326)
(10.0483 0.00358693 0.000587428)
(10.0893 0.248512 -0.00334225)
(10.1186 0.0452622 0.00476563)
(10.047 -0.0101083 -0.0129557)
(9.98925 -0.0093102 0.00603728)
(11.4468 -0.0577234 0.263785)
(9.61693 0.108325 -0.159735)
(10.6038 -0.735343 -1.38455)
(9.995 0.0197787 -0.00899234)
(9.96629 -0.00753862 0.00761614)
(10.0239 0.0139661 0.0198507)
(9.69396 0.511764 -0.176349)
(9.97095 0.107286 0.00308302)
(10.0375 0.0141598 0.00961242)
(10.0166 -0.00940738 -0.01693)
(9.99616 0.254945 -0.0396687)
(10.0042 0.285796 -0.037881)
(10.122 0.0827921 0.00944845)
(9.93789 0.2767 -0.0292904)
(10.0395 -0.0201687 -0.00274954)
(10.0349 0.0100901 0.00068145)
(10.0088 0.00666213 0.0165644)
(9.65631 0.455496 -0.193857)
(9.95666 -0.00264096 -0.00601721)
(9.96691 -0.0228027 -0.00105314)
(9.98581 0.235704 -0.0390362)
(10.4247 -0.462576 -0.0681184)
(10.0931 0.248371 -0.0138592)
(9.9446 0.207978 -0.023646)
(9.99321 0.18938 -0.0381415)
(11.1973 -1.35337 -0.188569)
(9.94338 0.00612009 0.00349015)
(9.20195 0.246991 0.0678744)
(9.97067 0.151469 -0.0219695)
(9.99576 0.0217659 -0.00773226)
(9.5157 0.314693 1.95998)
(11.5156 -0.097607 -0.504659)
(10.0859 -0.022149 0.00367319)
(9.94587 -0.00195877 -0.00589586)
(10.3555 -0.431817 0.000789303)
(10.7101 0.488125 -0.053537)
(9.80571 -0.000980913 -0.0107157)
(10.0112 -0.00647495 -0.00856124)
(10.0117 -0.141985 0.0154591)
(10.2563 0.739037 -0.113368)
(9.84126 -0.00743709 -0.0102841)
(-1.01481 -1.58723 -0.25917)
(10.717 -0.0987716 0.0250212)
(10.0756 0.974361 -0.0909176)
(9.9793 -0.00168297 0.00743574)
(10.0687 0.860008 -0.0661535)
(10.8751 -0.00356188 -0.849456)
(10.0124 -0.00435949 -0.00201996)
(10.0034 0.0057549 0.00417556)
(9.77832 -0.0128398 -0.0708402)
(10.0114 0.00311866 0.0045577)
(10.0828 0.870787 -0.118097)
(10.1188 -0.0885008 -0.0119462)
(10.0063 0.0240021 0.00653421)
(9.94175 -0.023132 0.00155316)
(10.0027 0.0181694 0.00609706)
(10.0053 -0.010487 0.00771006)
(10.2286 0.180408 -0.00112132)
(10.0015 0.00706112 0.00853057)
(9.98025 0.0250442 0.00744891)
(10.5554 0.914705 -0.340198)
(10.3631 1.12262 -0.389235)
(9.95799 -0.00726451 0.00503962)
(10.5017 -0.520133 0.0276481)
(9.97272 -0.0131083 0.0189201)
(10.4825 0.858012 -0.298527)
(9.96398 -0.0687118 0.00801729)
(9.96927 0.00211691 0.00118967)
(12.244 0.464024 -0.515704)
(10.0332 0.00791138 -0.0166398)
(10.6538 -0.185639 1.32765)
(10.0562 -0.000705243 -0.00130965)
(10.0136 1.29479 -2.51387)
(9.9518 -0.0020557 -0.0158388)
(10.6898 0.129641 0.0138502)
(9.9618 -0.0021903 -0.0185402)
(10.0231 0.0279892 -0.0137379)
(9.82844 0.012262 0.0041377)
(10.0343 0.00711756 0.0119973)
(9.98064 0.00346858 -0.0143623)
(10.361 1.00359 -0.297302)
(1.26897 -1.80331 0.986512)
(2.03661 -0.669663 -2.62459)
(10.0823 0.0685948 0.00941516)
(10.3698 1.5172 -0.934205)
(10.7422 0.751032 -0.336835)
(10.842 0.70846 -0.327119)
(9.99481 -0.0225395 0.0253024)
(9.9857 0.00945414 0.00241239)
(9.96894 0.0203267 0.0124544)
(9.89166 0.00153948 -0.00547512)
(9.95972 0.00536742 0.00102093)
(10.1439 -0.226241 0.00102872)
(10.8481 0.645155 -0.224238)
(9.95547 -0.0240191 0.00408255)
(10.0368 0.0075949 0.00873963)
(11.5004 -1.17993 0.16902)
(11.5578 0.521601 -0.222533)
(11.1827 0.581233 -0.184393)
(8.1272 -1.32522 -5.18458)
(-0.034757 3.86805 0.625296)
(10.6378 -0.310819 0.0452608)
(7.46814 -0.976367 -5.73006)
(-0.0953142 3.67057 0.906505)
(9.81275 -0.194708 -0.00104403)
(-0.143652 3.77583 0.793828)
(9.2713 -0.804464 1.14429)
(10.0124 -0.0536925 0.00991244)
(11.0877 0.656019 -0.349353)
(11.0345 0.71399 -0.377108)
(11.3284 0.619013 -0.339552)
(-1.06031 2.8559 1.08375)
(10.1855 0.123396 0.00672058)
(10.0113 0.0194215 -0.00604255)
(10.001 -0.000357435 -0.0123596)
(11.4035 0.655579 -0.44946)
(11.2745 0.69715 -0.515304)
(10.0902 0.016083 0.0210585)
(10.1041 0.120814 0.0223821)
(9.80039 3.37531 2.26607)
(-0.950717 2.86486 1.09522)
(13.0393 -0.506833 -3.14312)
(10.0062 -0.0141142 0.00834204)
(8.82914 -0.755271 -3.35628)
(10.1953 0.377177 1.22377)
(9.99685 -0.0620139 -0.000747775)
(11.0066 0.464106 -0.0537287)
(12.083 0.240096 0.272663)
(10.9889 0.375002 -0.0427014)
(9.99478 -0.017461 0.00502074)
(9.99883 -0.00486754 0.00723734)
(9.9827 -0.00668026 0.000800798)
(10.4658 0.404308 -0.00795131)
(9.99955 0.00173002 -0.000412631)
(9.99657 -0.0279797 0.0256351)
(10.1582 0.0764683 -0.0222689)
(9.96628 -0.00203338 -0.0177113)
(11.1641 0.241618 -0.0634171)
(10.0193 -0.00554298 -0.0178109)
(9.9801 0.0410319 0.00786871)
(9.9962 -0.019142 0.00169528)
(10.006 -0.00740323 0.00899527)
(9.96109 0.00258758 0.00529231)
(10.3942 0.334755 -0.0136861)
(10.1112 0.0546155 0.00504039)
(10.0843 0.0106513 0.0301187)
(11.0808 0.251588 -0.0574003)
(8.93177 3.85789 1.82133)
(9.9723 -0.00210914 -0.000387847)
(12.0202 1.53251 -1.49044)
(9.99721 -0.00867436 -0.00258111)
(10.9737 -0.0716952 -0.0467595)
(6.94369 -0.862176 2.31992)
(9.77543 1.43956 -0.63118)
(10.0042 0.0295288 -0.012039)
(9.84565 1.52071 -0.705049)
(10.0081 0.0258556 0.00650234)
(10.0368 -0.0108931 -0.00453323)
(10.0867 1.3028 -0.933338)
(9.97799 -0.0024572 0.00900827)
(10.7541 -0.214347 0.0201989)
(9.9619 1.19947 -0.654191)
(10.2906 -0.0733899 0.0273367)
(10.6413 0.0820989 -0.279221)
(8.25529 0.302949 -4.22028)
(10.0746 -0.037291 0.0121335)
(9.63157 1.90739 -0.656828)
(10.0506 -0.0126819 0.00850738)
(9.04189 2.03733 -1.08066)
(10.1153 -0.123701 0.0319115)
(10.0122 -0.0107413 0.00736565)
(10.0041 0.0199435 -0.00147425)
(9.99523 0.0118093 -0.00859495)
(10.7416 1.09423 0.856555)
(9.9638 0.0085877 -0.00846956)
(10.0004 0.0129095 -0.0154239)
(10.0321 -0.0333132 0.00920044)
(9.95978 0.0856391 0.0385914)
(11.1641 0.670175 -0.00987092)
(10.0264 0.0109483 -0.00105235)
(10.0167 0.0149351 0.000436962)
(8.63749 0.305899 -0.635813)
(9.96806 -0.00588893 0.00688047)
(9.83833 0.125352 0.00810341)
(10.0931 -0.167931 0.0487112)
(10.0714 0.0262598 -0.005783)
(10.0715 0.00587505 0.00684507)
(9.95772 0.0242874 0.00869105)
(10.1018 0.0352562 0.000138135)
(10.3661 1.34021 -1.08893)
(10.0037 0.00980358 0.00703638)
(9.98896 0.00464696 0.00277728)
(3.03182 -0.531838 -5.91106)
(9.99824 -0.00662447 0.00951949)
(10.025 -0.00835922 0.00328749)
(9.99079 0.132623 -0.0268253)
(10.0047 0.0109863 0.00697835)
(12.6559 1.35202 -0.78392)
(12.7702 1.03929 -0.541881)
(9.96494 -0.00993008 0.000150258)
(9.9208 -0.112706 0.0138581)
(9.88877 0.013093 0.0174288)
(11.5028 0.0915752 1.2714)
(10.0504 0.0623869 -0.0128432)
(12.7748 1.25393 -0.654204)
(9.99972 0.00626678 -0.00358002)
(-1.66332 -0.563806 1.57601)
(8.1709 -0.554546 -0.735064)
(9.15091 -0.904406 1.79276)
(10.0167 0.0134321 0.0162723)
(12.7086 1.19259 -0.595843)
(10.0573 0.0279447 -0.0121566)
(10.137 0.115934 0.023942)
(10.0017 0.00590514 -0.040844)
(9.62958 0.126758 0.122605)
(10.033 -9.4844e-05 0.00959574)
(10.016 0.03178 -0.0152456)
(6.3871 -1.30632 -0.665829)
(9.99785 0.000847721 -0.0188285)
(9.94296 0.0109456 0.00506027)
(10.0078 0.00926031 0.0224378)
(12.5366 1.47456 -0.707641)
(10.0557 0.0225053 0.00921625)
(10.0192 -0.0127524 0.000908684)
(12.3754 1.41753 -0.746561)
(12.3054 0.892614 -0.305482)
(10.0034 -0.00879216 0.0123689)
(10.0331 -0.0118508 -0.00266237)
(-0.178256 1.98464 0.525752)
(10.0453 0.00808059 0.00106544)
(10.7141 -0.376184 0.133959)
(10.0029 0.000271688 -0.00849073)
(10.0539 0.00930723 0.0415357)
(10.0415 -0.0183282 0.00220596)
(11.9467 1.01668 -0.397868)
(11.35 0.209843 1.44208)
(9.22917 0.721426 0.778553)
(9.89911 0.104967 0.146512)
(10.0442 -0.071939 0.0159691)
(10.0228 0.00722162 -0.0134226)
(12.6408 -0.485411 -0.0473912)
(9.31351 0.237693 -0.446227)
(9.72718 0.0645818 -0.03982)
(-0.0656235 1.79124 0.340642)
(10.0198 -0.0258081 -0.00964349)
(10.0359 0.0117215 -0.0140573)
(-0.379245 1.69523 0.504463)
(12.1461 1.75143 -1.22708)
(9.89483 0.0769241 0.0010828)
(0.0315977 1.91665 0.374448)
(0.019447 1.94857 0.511988)
(10.0025 0.0134562 -0.00962874)
(9.99829 0.0134571 0.00225239)
(10.0248 0.00472247 -0.00651983)
(9.60418 -0.355718 -0.00374496)
(9.99824 0.00440844 -0.00635342)
(9.97678 -0.013773 -0.00271274)
(10.6624 0.153971 -0.280201)
(10.0064 0.266848 0.0114675)
(9.93867 0.0215021 -0.000673284)
(10.0446 0.0116956 0.0194666)
(12.5926 1.21525 -0.319625)
(11.858 1.30182 -0.397249)
(9.97013 0.0105348 0.000223449)
(10.4744 0.381115 -0.0287035)
(-3.924 -2.43995 -0.166029)
(-1.93799 -3.04912 1.23699)
(10.85 0.412715 -0.12354)
(9.93973 0.00189186 0.00338158)
(10.2718 -0.0931993 0.123264)
(11.0182 -0.102642 -0.778977)
(9.86264 -0.00151242 0.00459711)
(9.86031 -0.00497951 0.0100352)
(10.0501 -0.0309141 0.00964001)
(10.3461 0.138562 0.000147078)
(9.97954 -0.0130896 0.00694916)
(10.836 0.273235 0.321266)
(9.99961 0.00247293 0.00066719)
(13.0894 0.796585 -0.65547)
(10.3433 1.5253 -1.18517)
(10.749 0.393068 -0.0633339)
(13.1142 0.98341 -0.995725)
(10.0746 0.0368545 -0.00148164)
(9.99441 0.00603102 0.00718292)
(10.402 0.783807 0.140651)
(10.1722 -0.105237 0.0292595)
(10.0142 0.0103713 0.00518282)
(10.0042 0.00720107 -0.00332614)
(11.1686 0.55553 -0.560301)
(7.95341 -0.793038 -1.52009)
(10.018 -0.00593597 -0.00771258)
(10.9746 0.141037 -0.00321913)
(9.97368 0.207294 0.0178146)
(11.4031 -5.28768 -2.40266)
(10.4472 -0.892311 0.86168)
(11.7598 0.00716713 0.957384)
(6.53745 0.443477 0.281528)
(6.3134 0.408149 0.124273)
(10.0565 0.019631 0.001078)
(9.90484 0.265348 -0.0444464)
(4.55516 0.296515 -0.200258)
(9.98497 0.0146075 -0.000704315)
(10.0486 -1.74453 -3.58302)
(7.73971 0.340312 1.9842)
(9.98433 0.00137897 -0.0022802)
(10.0175 0.748361 0.444921)
(10.0184 0.00314944 -0.00737197)
(10.0335 -0.000795352 0.0160931)
(10.0175 0.00152081 -0.000906818)
(13.3468 0.511321 -0.151986)
(9.97671 0.0107966 -0.00381392)
(9.9848 0.0048926 -0.000866988)
(10.0485 -0.0282391 -0.00649506)
(9.83033 0.00122009 -0.0194782)
(10.0452 -0.014433 0.0270514)
(9.99619 -0.00157795 -0.008196)
(10.0471 0.0178086 0.0124905)
(9.89998 -0.0406182 0.00409877)
(11.033 1.15201 0.697907)
(9.4464 -0.636031 -2.6378)
(12.5066 3.68652 1.78194)
(10.7737 0.527892 0.0266987)
(9.65869 1.48083 1.31465)
(10.0222 0.00628983 0.00189048)
(9.29971 -1.00442 0.0575896)
(9.97669 0.0136781 0.000576199)
(10.0005 0.00161601 -0.0101221)
(10.0029 0.00364303 -0.00812135)
(9.99953 0.00114118 -0.00711324)
(9.98519 0.0194714 -0.00442274)
(9.19512 0.421464 -0.906209)
(11.1826 0.762584 0.220518)
(9.98631 0.0145335 -0.005335)
(10.2141 -0.569146 0.0695614)
(11.2901 1.63367 1.99602)
(9.99703 0.0127494 -7.51126e-05)
(2.64333 0.543765 1.07399)
(13.3005 -0.998684 -3.06294)
(9.96577 -0.00750399 -0.00500321)
(9.32676 -0.572354 0.00647636)
(10.4473 0.0229906 0.0398754)
(10.0233 -0.00453248 -0.0100534)
(3.30999 1.18578 0.854673)
(10.0069 -0.0107533 -0.00507423)
(6.49024 -2.17011 0.221229)
(9.97683 -0.0011685 0.0013512)
(11.758 -0.0318051 1.15559)
(12.118 0.404837 -0.0185841)
(9.96185 -0.0214482 0.000187652)
(9.92722 -0.0103137 -0.00976245)
(10.1697 0.598219 0.0414615)
(8.64342 -0.634872 -2.34517)
(9.93259 -0.00294638 0.0091347)
(10.0281 0.0105599 0.00297885)
(10.3182 -0.00527023 0.00896938)
(12.2752 -0.0710098 0.766099)
(10.002 0.00425102 0.00250364)
(12.3602 0.339294 0.27357)
(10.4614 -0.0181582 -1.8539e-05)
(0.494364 -0.432496 -0.117939)
(12.0637 0.328264 0.0940576)
(10.3925 -0.0158793 0.00570396)
(12.1868 0.33275 0.209353)
(10.0011 -0.00438022 -0.00334594)
(10.1184 -0.136586 -0.00378191)
(10.5317 0.412993 0.0209796)
(10.4356 -0.0555211 -0.0040065)
(12.3725 0.416402 0.0926737)
(9.99816 -0.022119 -0.000137392)
(10.07 -0.222165 -0.0160399)
(12.2178 0.397573 0.0461489)
(9.96586 -0.0383134 0.000270572)
(10.475 -0.0578463 0.000190594)
(9.99181 -0.0142277 -0.00953898)
(10.0287 -0.012802 0.00846491)
(6.91099 0.35673 -5.24938)
(6.73429 -0.150977 -5.85297)
(9.68129 0.0931583 0.362628)
(8.8658 0.360391 -4.28087)
(9.9988 -0.0180452 -0.0131869)
(9.96983 -0.0103229 -0.00573567)
(10.8479 0.652614 -0.267431)
(10.4558 -0.169814 0.0224252)
(7.8942 0.120145 0.543452)
(10.0185 -0.0331387 -0.0136901)
(10.0579 0.0382935 -0.0107791)
(9.98878 -0.0260517 -0.00247872)
(10.0124 0.0468293 0.0068544)
(5.29273 0.226009 -6.51917)
(3.50469 -0.921909 1.61448)
(9.97596 -0.0263037 -0.00267293)
(10.0165 0.0411499 -0.00640422)
(10.0127 -0.0692989 -0.0131964)
(9.91327 -0.0242376 0.00788932)
(10.1814 -0.153098 0.0396937)
(9.96794 -0.0268853 -0.00439007)
(11.2872 -0.0328705 -0.0221403)
(11.8037 -1.32414 1.34367)
(10.1204 0.0172407 0.0112823)
(10.0402 0.0264028 -0.0191308)
(10.0087 -0.0292729 -0.0103547)
(10.0131 0.0409368 0.00247612)
(9.71033 0.21292 0.0277562)
(10.0211 -0.0257368 -0.0130934)
(10.7112 -0.173947 -0.0197555)
(9.95378 -0.0141282 -0.0036099)
(10.0104 0.0248891 -0.0161382)
(10.076 0.04834 -0.000680791)
(9.27035 -0.884148 -1.30735)
(5.17934 0.695818 -4.91898)
(10.0533 -0.0730919 -0.00724379)
(-0.0915174 -2.06081 0.358136)
(10.057 -2.57639 0.873082)
(13.2536 -1.21391 -1.16484)
(-0.11493 -2.13696 0.308791)
(10.369 0.050578 0.0141327)
(5.54753 -0.317953 1.97773)
(10.5727 -0.505847 -2.65553)
(10.931 -1.60813 0.384931)
(5.69616 0.305838 -3.89299)
(-0.259832 1.82931 0.875768)
(1.51468 0.639243 -3.70751)
(11.4568 -0.0512861 0.665272)
(10.7742 -0.0148516 -0.0665607)
(11.3274 0.0132705 1.34686)
(9.91801 0.00635155 0.00679321)
(3.72324 -0.252088 -0.414996)
(10.8503 0.0555917 -0.347278)
(10.6953 -0.0200743 0.00490659)
(9.98196 -0.0449641 0.0298433)
(10.015 0.0210856 -0.0397609)
(11.5309 0.088136 1.22486)
(10.0036 0.127856 0.0597927)
(10.1784 -0.0391191 0.0197305)
(9.95578 0.0246482 -0.00296796)
(-0.679274 1.12111 0.216974)
(8.12041 0.268542 -2.56805)
(10.0143 -0.00687506 0.00796207)
(9.98433 -0.00476965 0.0043938)
(5.03839 0.288432 -2.51537)
(5.9368 0.141195 -3.1738)
(10.7867 -1.21592 -1.25369)
(-2.39337 -2.79897 -1.07211)
(4.95255 0.207614 1.99834)
(4.05438 -0.00587416 -4.01308)
(3.78456 -0.0648557 -4.87251)
(10.0054 -0.00397906 0.0102915)
(9.80231 0.0023143 0.00556924)
(9.46763 -0.0279817 0.0289979)
(10.0143 -0.0003329 -0.00686696)
(10.4136 0.0424687 -0.0202276)
(-0.321705 1.95578 0.479392)
(10.99 -0.0454641 -0.263966)
(10.467 0.035816 -0.0238009)
(10.3371 0.0386028 -0.010831)
(10.0498 0.0190707 -0.000199267)
(-0.280158 1.89481 1.09469)
(-0.495291 2.01638 1.04513)
(10.054 0.0196733 -0.0191002)
(10.4186 0.00307225 -0.0337823)
(9.93221 0.0169834 0.00170151)
(10.0325 0.00527108 -0.010734)
(10.3644 0.0179923 -0.0133235)
(10.0377 0.00782309 -0.0216387)
(9.69649 -0.00018363 -0.0708476)
(10.0181 0.00625683 -0.0137397)
(10.0111 -0.00302183 -0.0109687)
(7.00506 -0.752844 -3.23163)
(10.0457 0.00672737 0.00749168)
(10.0287 0.0103052 0.0136377)
(10.0206 -0.00415707 -0.015541)
(9.85682 0.00639791 0.00273512)
(9.87538 0.0123693 0.00594177)
(4.2761 -0.562308 -2.55316)
(12.666 -1.26494 -0.669485)
(10.0267 0.00126923 0.0115875)
(10.881 0.420214 -0.216706)
(10.0162 0.0324532 -0.0154785)
(9.69232 -0.336023 0.0981912)
(9.66151 -0.422951 0.151037)
(12.2554 -0.0527253 -0.0617443)
(9.86275 -0.00111546 -0.00280661)
(-0.158461 -1.09276 1.27114)
(12.3409 -0.155758 -0.0924595)
(10.4865 0.122186 -0.00293695)
(10.832 0.382547 -0.0382074)
(8.12968 0.300407 -3.51603)
(10.9799 3.06817 1.4053)
(9.98747 -0.0126527 -0.00619152)
(9.98498 -0.0136963 -0.00465142)
(11.5761 1.73123 2.12209)
(10.0045 -0.0411193 -0.013935)
(9.99926 0.0326428 0.00528575)
(10.884 0.755046 0.347306)
(9.97042 -0.0168317 -0.00515009)
(9.98338 -0.00308817 0.0016339)
(-2.65579 0.64437 1.75154)
(12.5483 0.59332 -0.151281)
(10.6897 3.4857 -0.410617)
(10.0022 0.000594869 0.00492478)
(7.72216 0.569702 -2.73116)
(10.0028 0.00400817 0.00329068)
(12.0582 -0.0164366 -0.297846)
(9.50451 -0.411379 0.248119)
(12.3124 -0.0774448 -0.0446628)
(9.91418 0.002244 0.00319579)
(9.31593 -0.445571 0.207075)
(-1.28162 -0.288436 1.61724)
(11.5742 1.84689 2.59909)
(12.5267 -0.417542 -0.884618)
(-0.76949 1.43999 1.00344)
(12.2754 0.291499 0.247132)
(10.5444 0.197457 0.0411572)
(9.95685 -0.0109338 0.00885299)
(12.2147 -0.106085 -0.24772)
(9.98547 0.0103677 0.0043365)
(12.4707 -0.0930328 0.091743)
(-0.118239 -1.30657 0.773467)
(9.98637 0.0135642 0.0052346)
(12.8792 0.0642025 -1.28903)
(9.89684 -0.000851203 0.00544007)
(9.88617 -0.00902433 0.0034753)
(11.3499 -1.42337 -0.11002)
(9.91861 -0.010441 -0.00332849)
(10.2291 0.122643 -0.0138656)
(8.1295 -5.78847 0.026628)
(9.52053 0.449908 0.034069)
(9.98999 -0.240573 -0.028361)
(12.7601 -0.644647 0.00923763)
(10.5958 1.52315 1.19215)
(10.0197 -0.0172027 0.0142894)
(11.7993 -2.61744 -0.993791)
(5.26339 -0.89223 -0.232287)
(10.7331 0.0312098 0.0048011)
(9.63091 -0.731985 -0.909907)
(10.021 0.119944 0.0264069)
(10.5452 0.209737 0.0153255)
(9.96244 -0.0141322 -0.00623248)
(9.99233 -0.0190851 -0.00156966)
(-0.171783 1.23895 -0.110364)
(0.934502 -4.52331 1.90262)
(12.2519 -0.775369 0.270655)
(10.1778 -1.51284 -0.552837)
(12.3801 -1.01272 -0.416835)
(1.11763 4.70635 1.06166)
(-0.717103 0.609094 0.424945)
(9.31998 -3.6187 4.24323)
(9.99478 -0.0147049 0.00219512)
(10.0024 0.0120931 -0.00921871)
(9.98946 0.0148595 -0.00349437)
(9.81987 -0.0377871 -0.0184804)
(2.6233 1.08938 0.312231)
(9.61863 -0.547438 0.155099)
(8.97412 -0.670232 1.0292)
(9.98779 0.0211901 -0.00833185)
(-0.232866 -1.64144 0.150203)
(12.4018 -0.0741495 -0.0352192)
(10.3683 0.161148 -0.307795)
(10.1217 0.0338001 0.00804774)
(10.021 -0.0196203 0.00077275)
(10.1194 0.0321364 0.0113658)
(6.26548 -1.85518 -3.30128)
(10.0048 -0.00306963 -0.00700806)
(4.52984 4.54313 -0.506746)
(10.0256 0.0126119 -0.00133333)
(10.3138 -0.634241 -3.14391)
(9.98815 -0.0037086 -0.00292438)
(9.99894 -0.00603895 -0.00621776)
(10.0094 -0.00962042 -0.00721438)
(10.0148 -0.01015 -0.0109952)
(9.98811 -0.0116634 0.00335887)
(12.7052 1.44346 0.468225)
(11.7419 0.321578 0.795152)
(8.94568 1.49082 2.38765)
(7.00515 4.07177 2.39065)
(9.37233 1.204 0.441016)
(10.4327 0.547386 -0.0601084)
(11.2094 1.21569 0.0266377)
(6.65441 -0.448906 -2.99866)
(10.645 -0.147007 0.0368319)
(12.5263 -0.352808 0.0643286)
(10.6623 -0.75746 0.0793619)
(12.1785 0.039236 -0.052639)
(8.18899 -0.198369 4.39743)
(5.75582 -1.66149 2.37025)
(10.6562 -0.285371 0.185778)
(9.99921 -0.00931022 0.0050359)
(9.57375 0.934924 -0.332022)
(10.0042 -0.00546269 0.00985466)
(10.1973 -0.0195609 -0.00278493)
(12.9754 -2.41518 2.98098)
(12.4811 -0.402435 0.769597)
(-1.35327 3.47616 -0.00616236)
(10.1259 -0.94908 0.210755)
(11.8843 -1.00794 -0.516251)
(10.5313 -1.07109 -1.19451)
(9.93329 -0.390946 1.48672)
(10.2352 -0.032244 0.00784638)
(-3.89007 -3.23508 1.17158)
(10.0538 -0.00931265 0.00446353)
(10.1242 -0.0151908 0.00101832)
(10.7069 -0.189665 1.211)
(9.67189 -0.117121 4.67107)
(10.2632 -0.0412921 0.0114176)
(10.3048 0.547794 -0.433795)
(9.98457 -0.000822604 -0.00125135)
(10.549 -1.39324 0.591956)
(10.8736 0.0600175 1.41911)
(9.962 -0.00586334 -0.00349229)
(11.1443 -0.428285 -3.12239)
(9.84296 1.71003 -1.98302)
(12.0271 0.445316 1.49017)
(10.9245 0.442229 -0.153186)
(9.49361 0.127488 0.269973)
(3.13187 0.955107 -3.88371)
(0.369112 3.57966 3.00701)
(5.2721 3.21868 0.684653)
(13.3112 -0.837112 -2.91671)
(4.76341 -0.834342 -0.291603)
(9.77962 -0.00461839 -0.0196646)
(9.885 -0.0073517 -0.00386123)
(8.31304 1.74942 2.70309)
(9.95566 -0.0026094 -0.00145669)
(4.52776 -0.816628 -0.317834)
(9.82643 -0.00530268 -0.0137231)
(9.80512 -0.0112836 -0.0132054)
(-0.0855581 -1.6071 1.021)
(9.53853 -1.31898 0.814219)
(10.8844 -0.580405 0.118546)
(9.98222 0.00156694 0.000302214)
(9.99953 0.0183984 6.26799e-05)
(8.3396 0.343651 -2.89453)
(10.015 0.0148241 0.0115187)
(9.96393 -0.00309107 0.00289956)
(9.94183 1.00825 0.922493)
(12.4829 -0.73154 -2.98396)