/*--------------------------------*- C++ -*----------------------------------*\
| =========                 |                                                 |
| \\      /  F ield         | OpenFOAM: The Open Source CFD Toolbox           |
|  \\    /   O peration     | Version:  2506                                  |
|   \\  /    A nd           | Website:  www.openfoam.com                      |
|    \\/     M anipulation  |                                                 |
\*---------------------------------------------------------------------------*/
FoamFile
{
    version     2.0;
    format      ascii;
    arch        "LSB;label=32;scalar=64";
    class       volScalarField;
    location    "0.00481384";
    object      nut;
}
// * * * * * * * * * * * * * * * * * * * * * * * * * * * * * * * * * * * * * //

dimensions      [0 2 -1 0 0 0 0];

internalField   nonuniform List<scalar> 
3919
(
0.0063003
0.00426314
0.00466483
0.00299292
0.00582755
0.00714011
0.00401075
0.00707161
0.00686725
0.00610346
0.00456116
0.00302971
0.0069332
0.00735787
0.00668789
0.00495112
0.00452866
0.00387193
0.00285246
0.00274379
0.00388298
0.00356361
0.0070856
0.00579661
0.00747642
0.0056005
0.00745734
0.00440628
0.00332646
0.00218667
0.00692589
0.00720909
0.00754873
0.00559541
0.00453797
0.00744093
0.00277823
0.00272447
0.00750165
0.00649303
0.00605161
0.00421463
0.00683618
0.00564206
0.00274929
0.00283201
0.00252039
0.00512413
0.00382498
0.00756041
0.00750991
0.00437904
0.0075605
0.00485651
0.00496946
0.00607707
0.00346055
0.00307819
0.00747182
0.00384399
0.00237109
0.00483492
0.00420258
0.00683872
0.00539193
0.00738075
0.00519048
0.00263323
0.00738438
0.00752413
0.0073971
0.00568835
0.00366006
0.00435787
0.00309545
0.00508188
0.00746385
0.00746244
0.00740037
0.00387305
0.00656825
0.0041951
0.00751646
0.00304392
0.0073975
0.00400905
0.0028267
0.00660252
0.00151793
0.00541764
0.00433702
0.00288058
0.00287243
0.00757049
0.00495701
0.00543633
0.00400811
0.00635125
0.00500307
0.0074233
0.0075311
0.00155858
0.00295708
0.00743386
0.00312898
0.00748243
0.00318004
0.00442799
0.0053286
0.00316563
0.00354725
0.00354164
0.00659206
0.00736176
0.00616444
0.00736433
0.00739977
0.00405806
0.00546486
0.00207122
0.00532236
0.00290458
0.00651862
0.00345257
0.00430162
0.00253852
0.00746337
0.00512709
0.00312382
0.00232293
0.00518955
0.00577674
0.00327546
0.00534506
0.00738275
0.00360135
0.00203385
0.00374251
0.00454846
0.00382168
0.00319183
0.00762726
0.00537356
0.00741201
0.00663261
0.00729992
0.000815645
0.00522669
0.00320101
0.0039449
0.00568165
0.00539015
0.0074372
0.00361853
0.00733855
0.0074905
0.00749906
0.00433759
0.00738264
0.00706452
0.00740383
0.00166822
0.00288696
0.00419384
0.00552895
0.00352032
0.0030406
0.00476788
0.00614113
0.00752051
0.00117805
0.00299357
0.00747959
0.00747379
0.00308929
0.00666743
0.00603735
0.00727731
0.00371782
0.00467161
0.000880383
0.00387901
0.0075435
0.00495646
0.00375282
0.00586551
0.00286501
0.00717357
0.00271586
0.00386635
0.00572259
0.00636753
0.00395183
0.00350406
0.00644458
0.00671681
0.0053194
0.00549887
0.00486461
0.00310782
0.00749855
0.0049117
0.00751487
0.0029824
0.00479632
0.00745489
0.00759252
0.000770349
0.00708412
0.00443661
0.00159793
0.00746534
0.0075031
0.00754568
0.00415627
0.00755794
0.0075102
0.0026476
0.0054881
0.00747996
0.00751122
0.00444043
0.00299775
0.00300504
0.00757462
0.00590311
0.00406668
0.00389196
0.00579045
0.00404633
0.00302644
0.00668732
0.0032794
0.00341574
0.00534283
0.00455838
0.00749895
0.00745935
0.00666933
0.00565506
0.00206399
0.00118308
0.0058694
0.00262781
0.00122739
0.0038532
0.00580948
0.0036745
0.000741505
0.00318036
0.00285716
0.00125579
0.00355194
0.00530167
0.00285257
0.00328752
0.00458835
0.00622742
0.00641795
0.00281733
0.00524888
0.00386643
0.00206302
0.000880919
0.00630881
0.0029317
0.00548302
0.00211612
0.00652669
0.00450755
0.003519
0.00345848
0.00184063
0.0026954
0.00649466
0.00635256
0.00753215
0.00229836
0.00620149
0.00383206
0.00452282
0.00691693
0.00309503
0.00744491
0.00171737
0.00398236
0.00561571
0.00140672
0.00366963
0.00118631
0.00757137
0.00359645
0.00389799
0.00745869
0.00223039
0.00158248
0.00733538
0.00591381
0.00612592
0.0010125
0.00357323
0.00654089
0.00658334
0.00708396
0.00745005
0.00525517
0.00253844
0.000990496
0.00743934
0.00322233
0.00504357
0.00403182
0.00454782
0.00144785
0.00606749
0.00652631
0.00150286
0.00164314
0.00746037
0.00372902
0.00155583
0.00743639
0.00528362
0.00453784
0.0059434
0.0051425
0.0025342
0.00719297
0.0041531
0.0074928
0.00496419
0.0074294
0.00560496
0.00437439
0.00618962
0.00754129
0.00251993
0.00613641
0.00540639
0.00699036
0.00111419
0.00235031
0.00214633
0.00343753
0.00308122
0.00715429
0.00410108
0.000969261
0.00656945
0.00588565
0.000616132
0.00248273
0.00565197
0.00579334
0.00435915
0.0048292
0.00634041
0.00182209
0.00404132
0.00753417
0.00745692
0.00521418
0.0042803
0.00705231
0.00646642
0.00751184
0.00757047
0.00543132
0.00740265
0.00755216
0.00347956
0.00509444
0.00534006
0.00711269
0.00470862
0.00619312
0.00671216
0.00744538
0.00751814
0.00241441
0.0040815
0.00104453
0.00412103
0.00726124
0.00469508
0.00705722
0.00426797
0.0055146
0.00643295
0.00385051
0.00627123
0.00378837
0.00258141
0.000847813
0.00459225
0.00578563
0.00235617
0.00262399
0.00235977
0.00751514
0.00739772
0.0027346
0.00426513
0.00743752
0.00346131
0.00631627
0.00515555
0.00357184
0.00397317
0.00114963
0.00151828
0.00704138
0.00511963
0.00734325
0.00116225
0.00512641
0.00565556
0.00154409
0.000845746
0.00751523
0.00669833
0.00252988
0.00617831
0.002667
0.000847241
0.00573073
0.0043939
0.00606581
0.00284876
0.00517299
0.0023676
0.00406499
0.00241488
0.00428362
0.00370109
0.00352517
0.00545031
0.00347705
0.00454854
0.00108408
0.00193265
0.00425673
0.00154279
0.00166528
0.00305446
0.00435547
0.00428943
0.00438023
0.00669593
0.00496879
0.00536695
0.00397471
0.00471669
0.00725379
0.00042292
0.000787217
0.00665969
0.00438756
0.00427326
0.00423079
0.0033308
0.00237343
0.000874718
0.00333701
0.0032037
0.0024446
0.00735263
0.00740713
0.0039068
0.00707304
0.00400926
0.00469253
0.00571755
0.0010837
0.00667237
0.00141617
0.004391
0.00258973
0.00296083
0.00271406
0.00404963
0.00325083
0.00141722
0.00454534
0.00266401
0.00280265
0.00252158
0.00538132
0.00425877
0.00379973
0.00754171
0.00691149
0.00542401
0.00341552
0.00659758
0.00691704
0.00678662
0.00341093
0.00390052
0.00363835
0.00305531
0.00624113
0.00319547
0.00133678
0.00671203
0.00326829
0.00568523
0.00495641
0.00327214
0.00653948
0.00646574
0.00513084
0.00606686
0.00341338
0.00713743
0.00274393
0.00347577
0.0034214
0.00544576
0.00325222
0.00658946
0.00587579
0.00422738
0.00750891
0.00309444
0.00441204
0.00627518
0.00111861
0.00443034
0.00461626
0.00271296
0.00337711
0.00198186
0.00751719
0.00736815
0.0034083
0.00452152
0.00546839
0.00169765
0.00366226
0.00170747
0.00296783
0.00387657
0.00565899
0.00371453
0.00474957
0.00424986
0.00604995
0.00529838
0.00693457
0.00362927
0.00581801
0.00345298
0.00386409
0.00149653
0.00218203
0.00372442
0.00397653
0.00147796
0.00351721
0.00130823
0.00465124
0.00497173
0.0075353
0.00486224
0.00271669
0.00751237
0.001779
0.000631884
0.00395906
0.00572534
0.00738207
0.00673326
0.00407108
0.00209814
0.00509545
0.00207125
0.00417017
0.00481084
0.00415714
0.00754495
0.00681166
0.00275559
0.00671803
0.00481478
0.00704793
0.00195035
0.00738175
0.00411149
0.00515966
0.00457906
0.00495646
0.00235883
0.00578803
0.00358479
0.0031855
0.00107712
0.00158011
0.00185366
0.00458869
0.00736168
0.00503625
0.00640965
0.00525226
0.00747558
0.00683444
0.00634396
0.00366119
0.00381501
0.00484825
0.00702979
0.00432012
0.00566936
0.00670465
0.00742179
0.00296277
0.00607745
0.00328548
0.00537342
0.0075278
0.00381161
0.00499721
0.0035195
0.0070078
0.00573234
0.00501747
0.00728286
0.00754589
0.00624196
0.00263858
0.00749388
0.00625983
0.00289077
0.00686501
0.00550442
0.0043901
0.00294716
0.00370787
0.00396983
0.00201263
0.00741909
0.00656716
0.00472269
0.00731273
0.00752775
0.000887336
0.00492059
0.00522724
0.00239719
0.0075644
0.00753615
0.00715287
0.0022822
0.00573571
0.00345696
0.00748375
0.00695806
0.0034189
0.007513
0.0039562
0.00355503
0.00348444
0.00354692
0.0042761
0.00380258
0.00702619
0.00174679
0.00170987
0.00513759
0.00529161
0.00587772
0.00683625
0.00716921
0.00744933
0.00739593
0.00753412
0.00661587
0.00742776
0.00747543
0.00452092
0.00337087
0.00679093
0.00135036
0.00400348
0.00753424
0.00520898
0.0028679
0.00458747
0.00740004
0.00696461
0.00259877
0.00488679
0.00738025
0.00324923
0.0026398
0.00679637
0.00754622
0.00753428
0.00265507
0.00221124
0.00246661
0.00670567
0.00385431
0.00587069
0.00369168
0.00292356
0.00129698
0.0045047
0.00557092
0.00395379
0.00251444
0.00209266
0.00508661
0.00537593
0.00555606
0.00749096
0.00391559
0.00638727
0.00742775
0.0026078
0.00442622
0.00743434
0.00460196
0.00542645
0.0075826
0.00467227
0.00377548
0.00145638
0.00584543
0.00176143
0.00147126
0.00625312
0.000745315
0.00681802
0.00755906
0.00754196
0.00489575
0.00104178
0.00587516
0.00369795
0.00669263
0.00576607
0.0052186
0.00570176
0.0074532
0.00568094
0.00339807
0.000730469
0.00400454
0.00714372
0.00751944
0.0006835
0.00400374
0.00748488
0.00581067
0.00725772
0.00342262
0.0074929
0.0059517
0.0028345
0.00161425
0.00748229
0.00123055
0.00128759
0.00683524
0.00275731
0.0074965
0.00579012
0.00386034
0.00448437
0.00504028
0.0062895
0.00599883
0.00728884
0.00366104
0.00747823
0.00330723
0.00613548
0.00230043
0.00426699
0.00540183
0.00703838
0.00620784
0.000932303
0.00495805
0.00308069
0.00464759
0.00742507
0.00128857
0.000867818
0.00226713
0.00551892
0.0036187
0.00590943
0.00751921
0.00659485
0.00741982
0.00552333
0.0031191
0.00498328
0.00274319
0.00448454
0.00747344
0.00694644
0.00527404
0.00415244
0.00660186
0.00376557
0.0018799
0.00741028
0.00441635
0.00736859
0.00475354
0.00602315
0.00475635
0.00569609
0.00333343
0.00754255
0.00430137
0.00664464
0.00370531
0.00363898
0.0060524
0.00182766
0.00746449
0.00555528
0.00379722
0.00740436
0.005858
0.00418584
0.00474983
0.00753559
0.00359084
0.00758804
0.00519338
0.00713508
0.00440007
0.00750931
0.0051614
0.00302337
0.00748907
0.00740577
0.00740736
0.00490034
0.00357992
0.00701511
0.00346424
0.00764251
0.0075229
0.00107601
0.00677139
0.00663175
0.00718974
0.00738661
0.00411999
0.00276102
0.002361
0.00160515
0.00270626
0.00517178
0.00710871
0.00307356
0.00712974
0.00165653
0.00676371
0.00718474
0.00361845
0.00534046
0.00118951
0.00214793
0.00746941
0.00751758
0.00743501
0.00750322
0.00745807
0.00752609
0.0075308
0.00725229
0.0060683
0.00645424
0.00536878
0.0034263
0.00219526
0.00614754
0.00474349
0.00661613
0.00737587
0.00737521
0.00507334
0.00393425
0.00489366
0.00220319
0.00491204
0.00747701
0.00140392
0.00721924
0.0032659
0.00247398
0.00581582
0.0075226
0.00548061
0.00066297
0.0040823
0.0043736
0.00594496
0.00433297
0.00746964
0.00515887
0.0061043
0.00744278
0.00542653
0.00747043
0.0059311
0.00300796
0.0018859
0.00366083
0.00642293
0.00278439
0.00684443
0.00543575
0.00132357
0.00654607
0.00257366
0.00125626
0.00578275
0.00415863
0.00358182
0.00381401
0.00518269
0.00450888
0.0075667
0.00427787
0.0046803
0.00378821
0.00431635
0.00749936
0.00748298
0.00745906
0.00733235
0.00756476
0.00514108
0.00210132
0.00741625
0.00749737
0.00198586
0.000538427
0.00386318
0.0015643
0.00752682
0.00746049
0.00338983
0.0062139
0.00262437
0.00217455
0.00743199
0.00738348
0.00339279
0.00762373
0.00247859
0.00680247
0.00533631
0.00486742
0.00374858
0.0054722
0.00750767
0.00739869
0.00670373
0.00655801
0.00460888
0.00366978
0.00512105
0.00323988
0.00152998
0.00715209
0.00590937
0.00753505
0.0036947
0.00536295
0.00525498
0.00703415
0.00341145
0.00398551
0.00637666
0.00752865
0.00665472
0.00389031
0.0040094
0.0033944
0.000531375
0.00747497
0.00456003
0.00498602
0.00197525
0.00731196
0.00747996
0.00353147
0.00415689
0.00691778
0.00739351
0.00734657
0.00523279
0.0070336
0.00466143
0.00641574
0.00504774
0.00741386
0.00754944
0.00630328
0.00745232
0.0058775
0.00393178
0.00359079
0.00545376
0.00433147
0.00741453
0.00202375
0.00750791
0.00732289
0.00743999
0.00553141
0.00738201
0.00492205
0.0074031
0.00555156
0.00350278
0.00389218
0.00427687
0.00725422
0.00275439
0.00507065
0.00283127
0.00455914
0.00402653
0.00737194
0.00749648
0.003787
0.00746503
0.00676871
0.00126372
0.00132951
0.00711191
0.00404157
0.00753495
0.00722796
0.00427259
0.00752729
0.00151612
0.00730533
0.00154881
0.00577282
0.00598857
0.00747654
0.00601527
0.00604944
0.00181314
0.00611307
0.00741179
0.00753214
0.0044526
0.00755881
0.00752034
0.00440215
0.00644396
0.00613172
0.00735492
0.00666475
0.0072446
0.00421376
0.00189859
0.00535423
0.00167644
0.00191043
0.00161037
0.00656886
0.00754844
0.0074138
0.00744002
0.00747787
0.00747984
0.00135159
0.00323646
0.00623254
0.00721012
0.00683781
0.00545437
0.00284521
0.00358215
0.00749373
0.0073058
0.00357769
0.00662812
0.00691819
0.00655233
0.00585018
0.00746064
0.00573141
0.00550779
0.00595512
0.00713631
0.00493401
0.00423911
0.00676458
0.00651883
0.00436517
0.00425054
0.00709444
0.00266919
0.00712319
0.00496521
0.00299801
0.00671198
0.00747613
0.00750387
0.00705042
0.00757469
0.0035361
0.00487166
0.00463902
0.00466797
0.00748467
0.00748856
0.000773587
0.00685742
0.00740983
0.00373527
0.0066787
0.00709299
0.00744448
0.00731239
0.00280964
0.00227047
0.00582631
0.00668288
0.00453536
0.00693319
0.0074685
0.00758638
0.00262281
0.00731973
0.0016773
0.00225632
0.00180551
0.00752562
0.00704028
0.00128426
0.00446945
0.00761388
0.00308149
0.00720789
0.00349033
0.00752918
0.00102853
0.00744836
0.00729558
0.00738207
0.00734014
0.00477575
0.00308241
0.00751093
0.00754809
0.00730321
0.00751595
0.00743884
0.00547087
0.0035295
0.0070845
0.00381145
0.00754375
0.0064836
0.00302414
0.0048075
0.00460227
0.00753194
0.0040695
0.00691341
0.00730027
0.00735477
0.00687916
0.00753883
0.00560072
0.00753184
0.00749792
0.00330607
0.00364312
0.00676378
0.00751268
0.00391973
0.0075787
0.00350887
0.00611592
0.00765411
0.00749301
0.00293057
0.00115667
0.0071905
0.0066015
0.00754395
0.00305225
0.00747077
0.00755107
0.00667049
0.00222381
0.0070159
0.00555467
0.00705569
0.00761573
0.00719868
0.00697263
0.00436873
0.00743283
0.00547527
0.00620436
0.00259905
0.00739849
0.00456363
0.00385611
0.0046209
0.00532444
0.00443346
0.00755113
0.00400451
0.00646077
0.00427016
0.00731488
0.00299451
0.00303837
0.0059104
0.00751701
0.00656104
0.00335135
0.00749958
0.00558488
0.00410783
0.00545612
0.00759237
0.00750336
0.00760751
0.00725306
0.00256711
0.00562385
0.00751737
0.00753483
0.00662631
0.0075313
0.00727968
0.00539544
0.00722027
0.00364563
0.000983825
0.00753661
0.0074965
0.00132308
0.00623942
0.00184943
0.00605902
0.000772987
0.00712645
0.00219933
0.00520393
0.000951929
0.00240064
0.00615027
0.00437064
0.00717372
0.00213398
0.00484276
0.00708845
0.00244832
0.00748884
0.0072881
0.00382211
0.00669182
0.00500964
0.00612427
0.00465489
0.00513596
0.00222246
0.00687146
0.00642867
0.00480033
0.00748371
0.00708761
0.00753626
0.00754599
0.00748497
0.0075794
0.00756786
0.00207855
0.00665463
0.0047028
0.00659134
0.00553617
0.00695201
0.00612192
0.00143419
0.00344542
0.00751839
0.0074646
0.00263782
0.00586842
0.00728284
0.00387983
0.00751654
0.007156
0.00576021
0.00760465
0.00369443
0.00310878
0.00759613
0.0075353
0.00627805
0.00291515
0.00650281
0.00468515
0.00748174
0.00391864
0.00446152
0.00428684
0.00560696
0.00688454
0.00687018
0.00423977
0.00746207
0.00756659
0.00737965
0.00498258
0.00358501
0.00501646
0.00508512
0.00611902
0.00519225
0.00706238
0.0029358
0.00523194
0.00487436
0.00352056
0.00594294
0.00240117
0.00713138
0.0074313
0.00742903
0.00221972
0.00412475
0.00484865
0.00747437
0.00746335
0.00703346
0.00748805
0.00712377
0.00721511
0.006389
0.00733038
0.00580773
0.00749698
0.00744296
0.00525611
0.00443317
0.00420091
0.00600606
0.00182231
0.00599746
0.00737175
0.00501467
0.00689307
0.00637184
0.00466992
0.00182882
0.00395067
0.00741519
0.00748709
0.00491199
0.00493478
0.00750868
0.00747691
0.00608443
0.00741
0.00240113
0.00400486
0.00382269
0.00473661
0.00447173
0.00750309
0.00731528
0.00747452
0.00548216
0.0075473
0.00757114
0.0074731
0.00647822
0.00749425
0.00743176
0.00246715
0.00660826
0.00523471
0.00389099
0.00753905
0.00297053
0.00675043
0.00436621
0.00711725
0.00755756
0.00113579
0.00751922
0.0074426
0.00461209
0.00756789
0.00753371
0.00564759
0.00575805
0.00454383
0.00203899
0.00737684
0.00748412
0.00720058
0.00690927
0.00361792
0.00575701
0.00740137
0.00624156
0.00751656
0.00611168
0.00727148
0.00233612
0.00528161
0.00399969
0.00745813
0.00572629
0.00745912
0.00529459
0.0074238
0.00137837
0.00198835
0.00756447
0.0063408
0.00704167
0.00763935
0.00752031
0.00102422
0.005497
0.00694251
0.00478913
0.00142606
0.00624174
0.00749358
0.00692898
0.00398888
0.00645475
0.000973756
0.0011501
0.00372624
0.00500853
0.00257795
0.00706385
0.00492548
0.00593366
0.0074699
0.00438446
0.00564014
0.00753254
0.00129236
0.00485344
0.00153706
0.00352908
0.00212945
0.00750013
0.00369985
0.000556595
0.00602567
0.00634537
0.00268957
0.0027579
0.00413137
0.00552319
0.00417654
0.00736489
0.00618916
0.00117809
0.00684348
0.00588576
0.0071775
0.00756132
0.0041353
0.00642964
0.00564062
0.00411018
0.00460565
0.00335814
0.00683195
0.00477362
0.00739311
0.00373262
0.00483031
0.00595174
0.00583696
0.00318059
0.00746844
0.00420919
0.00713308
0.00584188
0.00513674
0.00721042
0.00669372
0.00400176
0.00133614
0.00265329
0.00745816
0.0045186
0.00376546
0.0037127
0.00513093
0.00343073
0.00727806
0.00598135
0.00745958
0.00748478
0.00452698
0.00620159
0.0075206
0.00749521
0.00649787
0.00748618
0.00443924
0.00614873
0.00633241
0.00402644
0.00500591
0.00520989
0.00400277
0.0016281
0.00479063
0.00744897
0.00752191
0.00756864
0.00528137
0.00754009
0.00177308
0.00201968
0.00754377
0.00260307
0.00599455
0.00257121
0.00755447
0.00745089
0.00461588
0.00546931
0.00301602
0.0073483
0.00693575
0.00749344
0.00501
0.00758197
0.00742224
0.00752498
0.00577965
0.00440026
0.00749102
0.00750066
0.00715824
0.00420573
0.00732127
0.00741145
0.000590441
0.00738487
0.00622545
0.00169139
0.00402409
0.00379817
0.00210958
0.0068617
0.00078363
0.00613489
0.00737294
0.00744398
0.00668619
0.00423549
0.00353331
0.00362075
0.00749039
0.00391567
0.00752446
0.00303592
0.00732896
0.00727567
0.00743606
0.00413907
0.000729091
0.00431844
0.00523138
0.0032454
0.00607491
0.00426752
0.0054076
0.0075704
0.00536059
0.00498832
0.00224713
0.00311695
0.00353542
0.00107091
0.00753835
0.00751111
0.00747805
0.00752952
0.00725895
0.00562939
0.00626783
0.000814392
0.005639
0.00184569
0.00753674
0.00749256
0.00750741
0.0059712
0.00350224
0.00659246
0.00748404
0.00728146
0.00750772
0.00749029
0.00415834
0.00239316
0.00130446
0.00361169
0.00619946
0.00721504
0.00418947
0.00465132
0.00752261
0.00749779
0.00277473
0.00664208
0.00367595
0.00332931
0.00552077
0.00735882
0.00738598
0.00590887
0.001282
0.00117505
0.00381296
0.0044926
0.00543292
0.00509751
0.00503788
0.00573056
0.00573639
0.00706484
0.00387146
0.00738339
0.0075826
0.00388478
0.00376681
0.00420807
0.00494775
0.00379785
0.00317751
0.00333888
0.00204034
0.00354985
0.00421008
0.00752153
0.0010313
0.00104059
0.0053355
0.00446432
0.00140919
0.0024584
0.00330733
0.00387964
0.00689754
0.00450157
0.00451561
0.00604126
0.00561398
0.00662449
0.00756185
0.00311389
0.00593107
0.00754495
0.00574985
0.00175002
0.00325812
0.00689483
0.0022629
0.00303054
0.0017468
0.00548334
0.00283212
0.0017904
0.00510565
0.00453853
0.00711296
0.0043226
0.00589081
0.00583406
0.000661421
0.00703358
0.00251518
0.0035221
0.00590909
0.00327301
0.00332499
0.00649599
0.00448838
0.00447698
0.00434093
0.00486062
0.00684836
0.00215296
0.00186348
0.00579406
0.00556848
0.00177156
0.00595695
0.0036884
0.00670145
0.00217089
0.000973196
0.00733713
0.00420422
0.00703795
0.00512361
0.00354296
0.00739304
0.00593291
0.00165564
0.00472707
0.00735162
0.00711959
0.0013569
0.00262496
0.00735049
0.00445663
0.0024713
0.0012115
0.00144966
0.00110043
0.00698908
0.00459629
0.00672826
0.00152099
0.00691232
0.00222031
0.00412604
0.00162716
0.00249973
0.00449768
0.0053511
0.0014814
0.00299625
0.00479941
0.00626704
0.00379348
0.00367748
0.00105842
0.00277649
0.00674022
0.00123861
0.00485076
0.00744357
0.00630199
0.00487737
0.00744798
0.005809
0.00656524
0.00331444
0.00440523
0.00115701
0.00443983
0.00212769
0.00570883
0.00275334
0.00234734
0.00102275
0.00746067
0.00687952
0.00239084
0.00756656
0.00754697
0.00744541
0.00754554
0.00759761
0.0033526
0.00763154
0.00733666
0.00755045
0.00729547
0.00724727
0.00707178
0.00534218
0.00389908
0.00761602
0.00749417
0.00603101
0.00717076
0.00408509
0.00387125
0.00342477
0.0071862
0.00718045
0.00703489
0.00676495
0.0075323
0.00750281
0.00741646
0.00568174
0.00747057
0.00498818
0.00668897
0.00593999
0.00407026
0.00748128
0.00710493
0.00736272
0.00747946
0.00698984
0.00751328
0.00748127
0.00754809
0.00747777
0.00747954
0.00627468
0.00672733
0.00565735
0.00751655
0.00466597
0.00676783
0.00731992
0.0039861
0.00495454
0.00742117
0.00748185
0.0074024
0.00676053
0.00749345
0.0075933
0.00744644
0.00587426
0.00740186
0.0050678
0.00754232
0.0039174
0.00744824
0.00718622
0.0026372
0.00752255
0.00664548
0.00617689
0.00758072
0.00746035
0.00564289
0.00759781
0.00743916
0.00739533
0.00750749
0.00736987
0.00362412
0.00714615
0.00480218
0.00643198
0.00284214
0.00168584
0.00427263
0.00350761
0.00409588
0.00260677
0.000894372
0.00743625
0.00293439
0.00305643
0.00542952
0.00332535
0.00533054
0.00464182
0.00341567
0.00750017
0.00295185
0.00675305
0.00448105
0.00510834
0.00357875
0.00221095
0.00733665
0.00545445
0.0019548
0.00618026
0.00216248
0.00263492
0.00743468
0.0051637
0.00501309
0.00749877
0.00539788
0.00659493
0.00423641
0.0075196
0.00189598
0.00429087
0.005336
0.00482085
0.0073951
0.00385839
0.00484305
0.00146509
0.00444387
0.00744821
0.00731557
0.00754962
0.00498081
0.00372541
0.00402018
0.00759782
0.0013914
0.0072536
0.00407497
0.00312188
0.00370748
0.0073972
0.00603235
0.00757592
0.00393151
0.00738983
0.00749716
0.00524321
0.00416374
0.00555105
0.0044903
0.0043051
0.00409
0.00442065
0.00357404
0.0013312
0.00751014
0.00709658
0.00414932
0.0073355
0.00751791
0.00521812
0.00435974
0.00073551
0.00320376
0.00739461
0.00748898
0.00384929
0.00133264
0.0072418
0.00756712
0.0015726
0.00369851
0.00749776
0.00728651
0.00446047
0.00605861
0.00477489
0.00741559
0.00741519
0.00748607
0.00750264
0.00756034
0.00724741
0.0034786
0.00756098
0.00749256
0.00749861
0.00400273
0.00618038
0.00431399
0.00212743
0.00109271
0.00492634
0.00367111
0.00715067
0.00576626
0.00199228
0.00748504
0.00148112
0.00730579
0.0030323
0.00540793
0.00432455
0.00569557
0.00149933
0.00396809
0.00568106
0.00225587
0.00265372
0.00107834
0.0075077
0.00374412
0.00366566
0.00682309
0.00292072
0.000896288
0.000561408
0.00296541
0.00174926
0.00745946
0.00563392
0.000723303
0.00227792
0.000523183
0.000976381
0.00309192
0.00745268
0.00162257
0.0040241
0.00375469
0.00446614
0.00128512
0.00752046
0.00733006
0.00373481
0.00468354
0.000515902
0.00665647
0.00733678
0.00500878
0.00480563
0.00112544
0.00465703
0.00709151
0.00377432
0.00322995
0.00547406
0.00500824
0.00748815
0.0039752
0.00293436
0.00277018
0.00720736
0.00572186
0.00475664
0.00175618
0.00365393
0.00237342
0.00649576
0.0012954
0.00244672
0.00470595
0.00753941
0.00534609
0.00573184
0.00115641
0.00125199
0.00706472
0.00612556
0.00742053
0.00581427
0.0015771
0.00702007
0.000546144
0.00249454
0.00744565
0.00375328
0.00405975
0.00244414
0.00656369
0.00703039
0.00287929
0.00750668
0.00493133
0.00678235
0.00344179
0.00698425
0.00289722
0.00442946
0.00210531
0.00494033
0.00736847
0.00393926
0.00288046
0.00755419
0.00592377
0.00546081
0.00710864
0.00752812
0.00529041
0.00489026
0.00499863
0.00611232
0.00400636
0.00748169
0.00463724
0.00348267
0.00329915
0.00705564
0.00328834
0.00478842
0.00215791
0.00487792
0.00198523
0.00578478
0.0030932
0.00755053
0.00753972
0.000991604
0.00375801
0.00227316
0.00738843
0.00751708
0.00744226
0.00750566
0.0074301
0.00754924
0.00255464
0.00748958
0.0060271
0.00569406
0.000595945
0.00346342
0.00550668
0.00540635
0.00425453
0.0040757
0.00627623
0.00755241
0.0048169
0.00724433
0.00624068
0.0074543
0.00754464
0.0076044
0.00237732
0.00322756
0.00434672
0.00154956
0.000391829
0.00728205
0.00357964
0.000856413
0.00706561
0.00709695
0.00645251
0.0073444
0.00757468
0.00744516
0.00572316
0.00395458
0.00277105
0.00300434
0.00456379
0.00758677
0.00489787
0.00295237
0.00752607
0.00713174
0.00749105
0.000810466
0.00361094
0.0016403
0.00743226
0.00467857
0.000651091
0.00352524
0.000547623
0.00146307
0.00389395
0.0033201
0.00320828
0.00628207
0.0047952
0.00439815
0.0028983
0.00612788
0.00601536
0.00519434
0.00652318
0.00755963
0.00502855
0.00754545
0.00200494
0.00522034
0.00392071
0.00130752
0.00388877
0.00144554
0.00310176
0.00250341
0.00249044
0.00752877
0.00603638
0.000974735
0.00698171
0.00655262
0.0072256
0.0036301
0.00744572
0.00663601
0.00557464
0.00739302
0.00243732
0.00209803
0.00749698
0.0043413
0.00414532
0.00125837
0.00271718
0.00109399
0.00720393
0.00580781
0.00755829
0.00327666
0.00545436
0.00425853
0.00753595
0.000912969
0.00734132
0.00758397
0.00668639
0.00731541
0.00468017
0.00745708
0.0070264
0.00278461
0.00649197
0.00468077
0.00730764
0.00723192
0.000444801
0.00454215
0.00748436
0.00637727
0.00750942
0.00710814
0.00740512
0.00756693
0.00744242
0.00210742
0.00515984
0.00261304
0.00744415
0.00598563
0.00663121
0.00731994
0.00126305
0.00750182
0.00665218
0.00748962
0.00632297
0.00286056
0.00746126
0.00655383
0.00220101
0.00358253
0.00200427
0.00753344
0.00750675
0.00750004
0.00404188
0.00738065
0.00754283
0.000671235
0.00755573
0.000913911
0.00717292
0.00244636
0.0056102
0.00729408
0.00728377
0.0071865
0.00395386
0.00493568
0.00730885
0.00709261
0.00314417
0.00297096
0.0039522
0.00755605
0.00743202
0.00744898
0.00757687
0.00653221
0.0073172
0.00748086
0.00433866
0.00731931
0.00506219
0.00733492
0.00361377
0.0073677
0.00449474
0.00470877
0.0073864
0.00462944
0.00717513
0.00655658
0.00724286
0.00694631
0.00505228
0.00641001
0.00725419
0.00652938
0.00263601
0.00613113
0.00580188
0.00737876
0.00751235
0.00659754
0.00752949
0.00754087
0.00668604
0.00255267
0.00721777
0.00360376
0.00449989
0.00740073
0.00641957
0.00283451
0.00561481
0.00427329
0.00616675
0.00754484
0.00525471
0.00388634
0.00738311
0.00450863
0.0048988
0.00588825
0.00167256
0.00742452
0.00759982
0.00291891
0.00628399
0.00633081
0.00694549
0.00571909
0.00748983
0.00753863
0.00756389
0.00693859
0.00417475
0.00469087
0.00542952
0.00469769
0.00420787
0.00569742
0.000776903
0.00229852
0.00671406
0.00314851
0.00560515
0.0042129
0.00738601
0.00492429
0.00743211
0.00737311
0.00751458
0.00573172
0.00746273
0.00687267
0.00745824
0.00149235
0.005706
0.00613235
0.00460718
0.00754925
0.00703811
0.00363471
0.0075038
0.00328466
0.0066972
0.00751431
0.00591565
0.0013904
0.00755231
0.00753983
0.00612416
0.00745845
0.006426
0.00431246
0.00124036
0.0070258
0.00186971
0.00555239
0.00142575
0.00565647
0.00726959
0.00438366
0.00525057
0.00473612
0.00753523
0.00588888
0.00486678
0.00118833
0.00466274
0.0071107
0.00649285
0.0075645
0.000939448
0.0075322
0.00611749
0.00531386
0.00757541
0.00683148
0.00739171
0.00658977
0.00745703
0.00656375
0.00729158
0.00448843
0.000934783
0.00757419
0.00739762
0.00520093
0.00714435
0.00379522
0.00696638
0.00566554
0.00668033
0.00746876
0.00449181
0.00750892
0.00521447
0.00752184
0.00313326
0.00728164
0.00105688
0.00320315
0.00171506
0.00586847
0.0016665
0.00746552
0.00432161
0.00253505
0.00151663
0.00161651
0.00367377
0.00311276
0.00500299
0.00729188
0.00748503
0.00418446
0.0042607
0.00381255
0.00345515
0.00448408
0.00753857
0.00525418
0.00633218
0.0065033
0.00577623
0.000783681
0.00472349
0.00754598
0.00747233
0.00754986
0.00724124
0.00738008
0.00750527
0.00750554
0.000697493
0.00230054
0.00172239
0.00723561
0.00423325
0.00392958
0.00400468
0.00560182
0.00506582
0.00415059
0.00755241
0.00746342
0.0074913
0.00748267
0.00685956
0.00419142
0.00605899
0.00662228
0.0041796
0.00590278
0.00131288
0.000782013
0.00693097
0.00254373
0.00204103
0.0034238
0.00745362
0.00479862
0.00726666
0.000572253
0.0031514
0.00728602
0.00566323
0.00444911
0.00461241
0.00627376
0.00417168
0.00404153
0.00286955
0.00655453
0.00696076
0.00400427
0.00429873
0.00428567
0.00163905
0.00443978
0.00634234
0.00542986
0.00749204
0.00698987
0.00744058
0.00740605
0.00430871
0.00665019
0.00443164
0.00743648
0.00405924
0.0055907
0.00527749
0.00483708
0.00706963
0.0027807
0.00130397
0.00544359
0.00559323
0.00650866
0.00238647
0.00309919
0.00488149
0.00746619
0.00176653
0.00594117
0.00674001
0.00747044
0.00203604
0.00416746
0.00286688
0.00692003
0.00722894
0.00629068
0.00387244
0.00197624
0.00747641
0.00635789
0.00668253
0.00354179
0.00368412
0.00407188
0.00760847
0.00354057
0.00142052
0.00755355
0.00618358
0.00390985
0.0033879
0.0030719
0.00715873
0.00534001
0.00691397
0.00432872
0.0024166
0.00154664
0.00296915
0.00756015
0.00311808
0.00168771
0.00366892
0.00445564
0.00696596
0.0076146
0.00641225
0.00635299
0.00746197
0.00540927
0.00324758
0.00155028
0.00740066
0.00279318
0.00508801
0.00603039
0.00335384
0.00657414
0.00485293
0.00319325
0.00471166
0.00405559
0.00568674
0.00188983
0.00373945
0.00322246
0.0024638
0.00755056
0.00384962
0.00528359
0.00293689
0.00615778
0.00501486
0.004703
0.0073657
0.00247953
0.00318078
0.00667014
0.0074785
0.00688058
0.00706613
0.00102696
0.00525768
0.00311893
0.00749908
0.00723776
0.00375451
0.00269538
0.00256199
0.00535867
0.00318354
0.00746327
0.00333645
0.00685114
0.000564057
0.00754713
0.00736388
0.00758033
0.00417519
0.00760061
0.00756917
0.00465813
0.00752309
0.0073397
0.0075288
0.00621155
0.00487984
0.00552082
0.00138145
0.00680815
0.00750667
0.00446032
0.00315561
0.00503624
0.00530402
0.00735729
0.00652166
0.00485066
0.00413447
0.00748965
0.00408814
0.00723285
0.00672869
0.00369161
0.00438591
0.00751371
0.00309614
0.00583633
0.00711692
0.00747684
0.00716987
0.00372698
0.00201615
0.00567745
0.00315146
0.00729097
0.00597096
0.00463125
0.00655682
0.00723236
0.00183094
0.0021521
0.0071051
0.00748746
0.00761025
0.00357642
0.0015638
0.00208128
0.0073142
0.00751384
0.00542366
0.00753556