/*--------------------------------*- C++ -*----------------------------------*\
| =========                 |                                                 |
| \\      /  F ield         | OpenFOAM: The Open Source CFD Toolbox           |
|  \\    /   O peration     | Version:  2506                                  |
|   \\  /    A nd           | Website:  www.openfoam.com                      |
|    \\/     M anipulation  |                                                 |
\*---------------------------------------------------------------------------*/
FoamFile
{
    version     2.0;
    format      ascii;
    arch        "LSB;label=32;scalar=64";
    class       volScalarField;
    location    "0.00481384";
    object      p;
}
// * * * * * * * * * * * * * * * * * * * * * * * * * * * * * * * * * * * * * //

dimensions      [0 2 -2 0 0 0 0];

internalField   nonuniform List<scalar> 
3919
(
4.57685
5.85115
2.88602
2.08106
2.29205
6.01793
4.18034
84.169
78.9848
6.75619
5.98177
26.5655
34.5196
7.05863
4.36255
11.7993
44.3005
23.4562
7.70745
9.64855
71.2404
31.7647
47.1613
35.1354
61.4315
20.1148
82.9572
64.6232
74.5198
53.752
2.67751
10.7818
36.4103
8.60407
21.57
30.6244
33.2852
28.7428
43.1946
82.3763
37.7394
10.8494
46.3468
15.1458
13.3931
40.0736
12.3656
15.7846
42.1425
46.4261
71.6269
6.17937
89.8545
7.8684
27.2658
14.1365
29.763
27.7885
11.6376
23.9362
54.0105
60.9765
56.9026
3.07647
12.6336
4.90932
83.4254
20.0628
8.1117
38.0516
72.0836
5.55502
2.512
45.1866
42.0077
9.65339
3.20036
3.71684
44.5505
14.9008
11.5427
6.59225
58.1575
73.3655
49.5199
1.17083
9.7525
3.70328
29.1372
45.2212
3.34564
10.0424
4.28748
93.6639
10.3299
9.41432
7.60642
37.9324
10.294
30.7148
36.576
30.1048
21.4433
25.7093
13.3537
5.51843
19.6516
80.8051
2.25795
41.0505
12.2554
60.8744
7.32532
8.59091
75.7996
78.7723
45.7291
88.854
68.3989
16.2131
62.3801
45.3049
75.128
55.2658
76.7638
33.4968
91.9962
6.97129
2.32259
9.65506
72.3756
6.21993
3.94787
1.43544
85.8906
7.70354
28.3957
15.2446
2.68019
37.8958
11.2373
31.9561
39.5316
4.81944
68.6866
24.047
9.68617
20.9686
69.6183
11.9745
17.9956
25.5203
39.9853
15.7372
39.9631
39.7038
6.08709
10.0819
25.1387
11.5701
7.98124
10.2837
4.65326
51.7871
50.2855
52.1327
50.9214
46.5276
48.2913
26.3426
2.93553
9.09619
19.6608
56.3154
22.6794
78.1472
3.30792
66.4016
85.4725
7.45036
9.29526
0.533641
15.7069
13.2034
44.7909
66.7139
27.2335
50.3079
20.113
3.73821
66.1434
14.2867
0.602176
14.308
5.0707
89.3506
3.81544
79.0727
84.1909
2.03981
28.4572
5.37165
83.3396
10.6133
71.4845
59.9364
83.0583
30.0374
25.2662
82.7602
51.9337
37.4467
38.688
11.3549
66.2931
39.4748
35.3692
8.49318
58.8054
19.7442
4.77718
5.01666
37.9942
37.4329
12.2117
62.6626
36.2388
11.5332
5.33853
90.4794
5.16392
7.26494
2.42032
-1.0241
5.91738
0.739949
44.1101
18.8018
38.5619
71.9157
27.4031
86.2449
43.1303
46.8024
42.1203
26.5627
70.6655
71.6173
77.8264
54.9385
56.6555
63.8552
59.748
59.2311
86.7452
90.2719
5.80322
3.38955
4.23589
39.3486
42.1819
41.3856
39.4158
47.6915
86.4839
84.2971
89.4538
84.3778
11.7923
15.1264
15.5809
57.3559
65.2732
-4.04287
13.6851
5.25531
73.5696
12.8839
1.95331
48.9209
45.9325
46.5623
45.091
43.2965
78.8254
96.6698
27.4354
77.0235
78.3158
7.49164
9.94991
26.4431
86.6569
74.1489
47.596
16.2199
51.6367
38.1951
40.9568
13.1996
79.5061
71.1729
16.0059
7.07363
71.9084
64.9897
0.388177
64.4271
55.6487
25.0809
49.5809
23.8133
29.8461
50.8509
3.50661
48.36
93.3925
9.14963
82.3538
8.50837
63.5651
54.8601
7.22952
61.7053
0.438977
5.44465
12.5397
69.6968
76.6396
79.8175
6.31246
70.7275
46.8594
34.2922
70.6483
16.674
11.89
8.44008
7.38181
14.7818
5.00575
24.3482
9.18447
1.42588
8.70267
12.7327
92.9229
43.9956
16.4678
10.9462
81.757
8.44606
7.03245
73.7874
6.35678
4.97864
8.47149
60.532
54.3133
70.3419
55.2022
42.9318
6.34317
45.8178
6.19159
60.2792
83.8333
70.1694
33.2062
60.1077
22.5503
48.5802
23.1742
97.5183
19.2752
15.2982
35.429
33.5345
26.1565
58.5631
78.4659
7.9897
13.7469
64.597
2.7114
8.03638
2.72353
3.18134
14.4484
4.55943
5.99919
2.76213
9.82007
26.7838
20.0588
21.7786
76.0692
60.0975
65.0041
71.8682
76.6079
39.3759
60.4594
73.3228
6.94504
12.9564
60.9959
76.5064
64.142
71.5246
23.2171
28.6211
82.7186
24.2607
78.2423
80.5333
70.3813
39.9343
86.3581
38.4028
21.9023
84.8745
30.8692
74.7715
86.1516
10.4383
95.2618
71.7898
76.533
89.036
4.11739
8.51265
9.02812
8.23234
6.12663
-2.04377
45.9897
52.1825
44.0329
43.1244
47.1093
2.7789
77.5513
60.6654
72.8415
77.9887
81.036
71.9288
11.4579
5.70848
3.30146
4.10839
10.3529
28.8083
21.2647
87.9346
76.5656
65.9197
14.2164
13.4774
26.5617
13.2198
16.1741
69.089
28.9362
22.2914
60.5316
35.1661
33.3285
38.9869
6.36124
72.8895
1.01281
4.28393
20.4954
70.1258
4.49579
11.2426
3.14359
85.0829
59.787
85.9696
58.515
51.5091
48.7351
48.4828
36.3352
86.9805
86.1912
2.96115
22.6145
7.70479
7.38804
3.84523
3.01509
6.15515
8.52064
0.389315
11.6211
7.31034
12.5046
2.4301
5.42974
7.86504
27.9573
9.64094
2.46763
10.4896
2.47962
5.01126
9.82532
6.73519
9.21345
3.04411
11.7637
8.25024
3.24541
12.3523
2.81845
2.49473
1.17465
6.95999
1.67296
15.7211
8.0296
25.6901
29.7861
49.5109
49.3968
55.3892
51.6134
44.5312
51.547
21.1713
86.1016
85.8297
5.73928
15.618
19.2521
16.8744
14.5477
6.899
4.80905
1.38137
19.1129
-0.889557
0.721116
8.49487
6.86614
8.93046
3.48352
7.36593
7.75363
5.58057
30.2366
65.6454
28.4818
69.6372
66.2985
20.2315
33.9852
62.8141
84.9959
10.5369
43.6701
47.0476
51.9686
30.0534
29.7354
37.8092
49.1284
65.4943
61.1531
59.5003
63.3784
90.7148
48.9809
54.6934
42.8691
62.3892
74.2157
78.3471
90.5269
79.6874
90.9256
88.6415
31.6458
16.6721
93.8712
75.3336
1.91111
7.2467
9.17774
7.74561
21.5071
49.3092
44.9976
51.534
51.3688
98.0973
93.2405
80.9246
4.36679
76.6505
94.4787
83.2049
84.9115
57.2376
77.5761
57.7799
83.7355
8.66463
36.6215
0.418268
61.7192
16.2765
41.7269
90.1464
17.5356
41.4412
60.9433
52.5313
26.304
84.7144
76.741
51.658
75.4852
27.2348
59.2952
80.7644
74.3879
62.9844
92.8491
89.2762
67.1815
18.7369
67.8303
3.01297
6.73774
8.55842
73.8781
62.1568
61.3614
8.66407
30.2318
6.46183
38.4533
61.0455
37.0262
89.1532
9.93043
57.2738
68.594
38.9354
59.528
89.0168
70.1695
25.221
45.7946
17.6452
27.1597
44.2056
28.8687
81.2327
76.1907
53.3912
39.8055
64.7996
19.3155
50.0582
73.9742
74.1435
41.6533
85.4181
10.7355
76.8917
42.7743
73.3946
90.0026
86.6917
61.5142
74.8465
35.3516
27.616
35.1454
91.1704
35.5339
58.3215
71.9463
72.3276
61.155
57.3775
16.3373
23.9427
43.9943
65.5186
82.1116
59.7092
17.5934
26.1133
67.3811
50.1252
70.3059
80.2076
34.8803
49.8072
19.6112
30.0734
49.9858
87.9213
72.3575
75.136
6.77807
20.7137
10.4727
24.6006
64.5713
85.3679
12.5914
9.71454
6.61517
38.1712
9.38102
4.51429
60.1443
34.7153
18.9585
91.9553
13.3006
21.4505
92.712
10.1326
6.22742
42.8704
84.1623
27.8197
67.479
12.3748
27.6034
75.1145
50.3668
14.9792
85.4508
75.4625
67.3909
85.9442
8.35304
74.297
33.0105
64.6863
22.6648
3.52924
20.8157
86.9028
40.3723
8.57863
58.8827
41.6035
68.4001
37.8151
3.84319
76.4959
68.2352
45.9433
19.8816
2.68178
53.3552
49.4259
18.6318
44.7952
53.3825
23.9053
23.8069
11.0177
65.4458
33.9206
36.5249
39.2711
29.5703
57.2887
9.05075
49.0456
86.6797
1.84841
73.241
99.4005
50.0006
54.4578
16.7467
20.3561
35.2499
50.4027
68.9187
76.7665
32.9105
6.90015
78.1011
18.4184
71.1379
32.5255
22.1819
70.73
60.1527
86.8292
7.77554
51.2725
23.5132
23.1644
34.1971
73.3975
-0.578123
70.3386
72.6899
74.5904
11.7078
76.3981
87.7137
28.955
87.2169
87.754
50.3016
83.9798
72.7738
85.9696
39.5486
72.9384
58.0471
20.4647
98.0668
70.4848
71.4767
91.9866
89.6452
64.457
25.5501
6.78389
7.84707
31.118
31.7734
8.01883
6.11757
18.3386
21.4395
13.1877
16.2864
9.32073
3.28722
23.379
9.24958
25.2208
52.1514
11.3378
54.3403
46.6882
23.4083
74.6743
84.5567
72.996
80.589
63.4218
63.194
67.851
64.4026
42.0659
24.7578
27.0954
32.803
31.8732
8.74774
25.588
78.483
48.5835
67.6909
66.5865
72.9028
87.6627
68.2895
31.8161
23.5666
81.9688
81.7836
78.6074
81.0481
53.2184
13.5213
57.7288
5.72035
63.21
15.7137
36.7783
23.6865
13.7449
29.0982
15.7917
19.5716
4.42464
18.9843
34.1895
22.5998
31.2761
24.9764
26.7709
38.7805
53.143
69.2986
62.4213
32.2954
51.0954
69.787
11.3791
46.1137
65.1222
71.6953
82.9463
84.6646
68.5523
69.734
40.1499
44.6335
6.08652
56.1183
43.4487
46.9742
56.2551
59.3624
61.9751
61.7902
24.5244
80.4615
58.8879
42.9281
29.1819
30.7631
28.9144
70.2756
45.776
32.7016
35.1752
65.3293
60.1283
60.3246
86.3201
75.4329
86.9365
29.8282
22.5875
45.4733
16.894
77.0258
73.0207
60.531
78.7781
74.8815
56.6322
35.3892
75.1179
63.8783
25.556
79.3424
29.4806
55.9695
27.808
60.9083
77.811
83.8434
91.8763
74.6647
71.0584
31.2947
19.4302
89.8724
61.8019
47.2291
49.6819
9.13754
26.1702
6.981
7.45416
18.4781
53.7138
32.1936
65.4115
72.1446
42.9376
80.7929
26.9175
70.4978
67.9201
30.9146
18.4473
52.6388
52.8057
60.9809
54.0736
65.2832
65.8421
61.7717
83.9606
77.9063
73.4369
42.861
52.964
36.1934
38.4422
51.7618
43.5684
20.9323
36.915
34.6892
80.495
42.4253
83.6647
76.7251
82.7655
84.08
92.3093
64.342
62.7024
67.7331
66.119
59.0141
59.0568
5.33245
9.68295
1.92375
24.5798
14.5669
5.4469
35.3607
29.2308
11.0365
83.886
84.4101
81.8219
68.2598
74.8233
65.1655
57.9689
47.099
54.9207
74.239
90.0923
76.3794
74.0884
82.4368
77.3053
58.1939
43.5543
40.0958
40.1555
36.1905
35.826
40.6033
75.4441
33.0851
60.8434
60.6149
62.9412
58.3924
48.7063
62.4239
28.2902
44.0022
37.227
54.8771
53.284
88.0452
23.052
22.4953
30.1811
57.5686
47.499
55.9314
46.666
67.8393
64.1433
72.3628
89.103
79.8426
96.2071
86.286
77.0534
49.7353
54.6446
60.2272
59.0889
93.023
50.3583
61.3451
74.344
91.5748
48.4618
51.2701
67.1547
63.3358
22.6126
31.2093
64.2032
60.1179
20.2375
56.7177
52.621
25.3086
11.3273
21.5968
33.7437
51.04
85.8336
84.3158
74.6755
76.422
72.5643
60.12
66.9093
87.0071
84.9913
78.9801
90.8447
85.351
74.5896
81.6723
6.3862
14.274
66.0669
74.7277
63.0788
91.0639
78.8084
83.8234
81.2853
86.2041
76.2428
24.2676
32.4545
70.4131
72.1918
59.8611
67.3144
9.71752
45.097
10.1735
14.2787
53.4401
50.3989
3.54187
72.4454
57.96
69.7488
48.4415
65.0474
52.6647
77.9778
74.3829
77.0494
77.6223
81.7217
69.1798
10.2
13.4502
53.0155
9.9341
28.891
81.2903
31.2328
22.4913
28.5444
36.2701
31.4075
17.3752
20.3325
80.199
71.2338
36.583
93.3563
34.1213
89.7188
82.6155
26.1467
23.5149
33.8197
36.5009
49.9753
26.5083
85.7308
62.5181
65.7072
33.0398
63.8323
71.1559
36.1079
39.1986
77.644
39.6276
28.0327
36.5842
42.8391
34.8551
13.0687
43.6959
43.7529
90.0662
13.0643
41.0644
40.0495
82.2932
84.3375
89.8549
58.4437
89.7419
84.2601
90.2496
40.9575
87.86
90.4604
50.9234
82.3673
81.2151
81.1985
81.2705
91.5391
30.7672
46.1038
71.8173
19.6977
17.4279
14.2474
13.438
38.1513
31.1845
5.18354
19.8499
17.1286
69.7743
26.7338
26.1714
26.7037
36.5199
27.4463
87.516
88.5761
79.6432
83.2791
33.5402
88.4519
7.94846
22.3716
7.81122
9.01276
35.5535
86.3987
6.05208
63.9093
48.2968
50.3589
33.0238
68.6969
59.9161
39.6388
68.1949
1.83936
65.4771
70.4907
87.9267
52.5098
53.9921
6.61689
10.5876
4.11395
30.395
72.5825
58.2417
81.0603
71.6839
35.2154
86.1785
88.9748
86.8476
87.3393
87.7228
91.7584
80.5349
28.0401
27.529
34.9854
30.7787
34.1823
32.0062
60.1495
71.1306
61.1868
38.6622
10.6707
10.8
38.6662
39.4344
51.5656
6.15698
23.8182
26.5034
26.6045
26.5975
23.4287
23.0332
80.191
67.925
26.2377
72.6782
64.6458
27.9921
21.0358
6.92764
12.1025
80.3582
90.992
86.4771
76.3565
70.8898
85.7503
73.3034
69.2493
66.548
70.4006
67.2737
10.5037
58.3997
28.8026
33.3338
16.3947
75.1805
24.6254
56.5052
8.20045
11.0771
10.3835
21.9535
13.478
11.3725
22.5781
9.37554
61.2145
72.1401
60.0811
68.0589
61.6269
68.832
71.2996
68.4982
67.1074
72.6913
78.1537
65.6369
80.3127
91.6385
78.1472
82.1273
53.0391
11.3312
6.63353
9.76132
9.39721
40.6085
55.112
35.4698
60.1737
40.543
34.9888
28.7393
65.958
39.5621
38.3466
59.724
6.6364
60.4165
33.7056
32.3024
30.7397
40.23
70.2141
33.3443
35.3315
45.3545
76.8967
47.4752
24.1412
49.3777
54.1404
56.2243
51.6429
14.7113
47.2398
53.1022
8.03511
17.8787
62.293
11.9188
69.0246
24.746
9.87568
53.4412
53.1229
59.2288
58.6037
95.9517
45.1823
70.1113
74.3908
6.79013
21.5705
71.2818
37.3983
67.3718
86.7086
70.7473
61.1075
59.5465
55.5802
64.2687
66.5924
74.0138
56.0195
67.1984
74.6969
59.1452
40.9942
72.1748
20.576
52.3745
88.4527
24.8337
29.5531
91.7885
99.0014
56.4542
72.7236
76.1748
72.9601
58.02
29.6091
80.8636
49.2777
73.6829
57.5941
17.7878
54.2443
66.2898
41.1667
29.9142
36.623
16.322
4.5881
82.3399
14.0817
75.7613
90.3873
94.2894
89.8179
87.7971
88.5199
37.3165
88.5602
72.7115
76.849
10.1553
20.847
4.43854
17.3253
7.03902
70.821
-0.976574
41.0517
84.0406
50.9967
36.692
78.5347
82.4906
39.7703
26.3955
35.6696
72.4262
13.7531
55.8253
18.214
6.32773
13.3435
34.9504
86.8913
55.5512
50.443
63.6113
87.1511
7.23225
50.9956
34.5526
66.0374
77.8383
47.4341
24.3163
56.1513
65.4349
63.4742
95.4236
97.5042
41.579
56.7868
63.9156
42.4913
96.8018
77.5126
56.8465
61.3389
70.3224
56.1134
37.6265
78.9546
33.1555
14.4558
9.48583
7.09426
15.1201
8.8668
25.9706
15.9896
26.546
39.1537
8.50333
26.2467
20.6893
4.49278
2.73558
88.9269
86.2688
57.2443
50.9988
52.885
64.3263
57.8742
83.4277
66.4116
52.9779
38.7317
30.4367
26.9284
45.9582
29.5712
26.4242
32.7381
43.3023
11.5429
85.3417
61.4544
45.7976
80.1295
83.0365
77.9445
81.2622
77.668
16.5513
10.2463
50.0264
69.6067
70.0635
19.8577
16.3947
10.2362
2.24477
23.4117
22.3954
28.7543
85.3002
87.9096
67.736
45.5837
80.413
56.5138
86.5528
72.4445
24.8405
45.9746
75.1714
26.0314
64.7958
22.7882
9.14475
49.5824
9.89767
78.1329
10.0075
75.9107
28.5972
57.4549
47.0381
85.6665
45.4795
69.0198
91.7504
50.6844
22.6366
57.826
49.6776
36.0985
91.4366
8.92225
76.2652
55.181
61.1573
17.3851
45.2018
81.9455
20.2042
42.4109
71.5275
45.1811
40.7011
73.2185
57.7034
48.2807
76.9985
50.6892
69.5434
69.9661
30.6279
51.9043
8.36936
6.77815
34.1087
37.2459
7.4141
62.0171
57.0322
58.8173
35.0231
3.74351
9.23491
9.29392
6.23728
79.7167
41.9553
48.9147
33.8208
21.0794
6.08162
69.4911
72.174
72.0729
74.6722
63.3576
80.1647
43.8654
42.0046
37.9708
47.2508
75.2283
71.0297
75.6587
77.7397
31.966
31.4345
32.9033
32.5585
100.749
39.8495
84.5026
91.064
91.369
36.5848
65.519
30.5504
21.1626
62.9629
85.7354
25.8958
26.0867
73.187
58.5984
25.8518
60.7352
60.1925
48.6228
23.3655
72.8808
91.8324
84.2892
55.1573
63.8281
24.7964
34.1427
65.8991
55.4026
86.7179
17.3349
18.3335
19.8876
8.73764
9.30271
12.6026
9.06821
15.5051
8.71804
9.14897
5.3208
74.1589
7.09492
4.33555
75.0635
69.7012
85.024
79.0498
90.3105
85.0462
88.1635
62.6887
60.8642
60.2407
65.2677
17.5027
100.176
17.2354
89.8213
67.5389
19.9258
77.8543
19.4669
38.5695
89.0188
82.0343
59.6126
55.441
60.2366
47.162
60.4615
66.6172
36.3583
38.5162
39.5696
37.4902
47.6251
31.651
38.7992
43.2311
25.3866
24.2273
25.5226
20.1558
54.5603
56.1302
28.6581
25.3836
45.4529
50.4605
81.9151
81.867
84.6092
6.76039
13.409
56.4898
49.7304
10.5403
11.4148
2.22043
9.03118
39.4196
30.2371
17.0633
14.9818
99.6124
41.5832
40.5861
25.8596
21.7534
35.0921
17.5846
27.5254
40.6194
40.7346
30.6759
33.1755
43.5222
69.5454
69.1751
58.9016
78.6978
77.1949
84.1057
88.8034
81.6712
76.7894
84.7201
89.695
37.4858
25.1644
47.6126
47.8047
39.6828
40.382
68.9293
64.6451
78.5885
72.9476
93.5439
88.0559
76.6803
84.7859
79.1199
78.3497
68.9877
28.8111
37.5236
34.1227
29.7074
36.3027
37.5998
33.2002
26.9311
27.665
22.215
30.7276
11.6795
35.4693
21.4727
23.4245
29.679
21.5565
32.9206
26.2241
41.8134
47.964
39.0106
87.2654
94.9293
86.9957
85.4744
83.6606
86.1087
85.9072
38.6896
29.9371
18.02
84.2968
33.3969
79.7578
34.2017
41.2809
85.5014
60.5623
23.2599
88.0518
10.3067
9.14526
13.2018
20.9654
16.6823
62.2117
64.8297
60.6975
57.5461
53.2383
53.23
64.1387
62.157
84.4738
90.0083
91.7282
49.6074
61.289
53.0174
61.3182
81.5934
90.5238
88.2481
89.3083
70.5956
75.7697
71.5585
81.2773
82.8706
58.0226
77.1504
58.5143
77.477
21.6977
9.55068
36.4586
24.6454
60.9515
67.6466
59.3216
64.2649
81.5552
66.3243
61.0511
48.4139
40.1606
61.6965
17.1986
32.5747
12.8008
33.9903
31.8904
79.8607
80.535
74.8523
63.0657
71.4987
67.9315
56.3085
44.3855
47.336
96.0222
51.2205
86.8532
75.3947
29.5858
86.182
35.2277
11.967
7.62623
85.767
33.6683
23.2204
41.0968
57.671
6.45158
5.15503
73.2156
39.3371
32.989
20.4166
42.1839
28.1382
37.0025
31.8417
20.4423
39.1061
90.0128
69.3486
65.5609
70.0595
63.2699
46.7863
52.9836
51.3272
69.6459
88.3106
72.8338
85.1205
76.9172
38.8046
17.6294
29.0299
21.429
28.5485
72.9391
57.0214
41.9207
61.7574
73.8479
58.3672
39.2372
52.0437
81.7241
81.8735
40.5062
24.0866
22.4612
49.8382
64.3135
75.3954
91.504
86.9806
87.3881
91.5362
94.2996
68.588
83.8139
54.8616
89.2299
66.4938
66.1212
58.7909
33.9455
64.8979
86.7855
26.9139
79.3538
61.8409
77.9276
84.2604
25.3108
84.9714
81.2639
71.8296
26.0297
16.6194
78.0216
85.5941
39.2786
3.08878
57.1456
50.6114
45.9685
44.464
84.1835
68.7631
55.5118
48.674
76.1273
57.0557
86.8467
36.5491
16.1391
14.9332
14.6155
13.495
8.59433
82.4773
32.181
80.7551
66.0018
25.641
64.4172
79.24
16.0108
22.5118
16.6421
4.29494
5.12943
18.5232
99.5484
45.2176
16.9931
5.13828
51.1098
66.509
55.4565
31.3848
28.3864
19.0855
26.323
21.4395
10.0589
8.55879
24.0698
28.3254
28.1002
24.4964
57.9753
16.9037
11.0034
42.4251
68.1909
56.25
61.43
70.7886
37.2087
31.7592
32.8567
36.9078
54.6297
30.4248
42.1782
52.5118
52.8853
52.4155
61.0103
39.8109
49.0296
17.0586
71.8458
13.448
45.8418
69.024
12.7079
84.0092
82.8568
76.0383
51.9101
50.4179
77.5709
64.1953
77.126
85.2626
77.0005
84.4295
72.4902
61.5412
56.2808
60.5679
66.5075
53.0183
74.4786
70.5335
15.4468
7.6896
23.015
33.1006
25.2377
13.0275
8.81879
22.2611
6.20315
6.97336
18.3091
44.9353
13.8868
68.0775
20.4408
37.3003
90.7417
88.2873
85.6949
86.2415
77.1286
36.2208
25.7356
5.61274
12.0484
31.0994
9.84414
33.9549
31.2591
53.065
22.4317
10.6443
60.5464
38.5894
9.14668
3.75025
80.663
-2.65906
7.84229
5.60589
3.65803
3.4262
16.1468
19.4215
-2.69012
71.1919
12.6426
12.046
88.1341
71.97
3.25918
10.1087
8.99156
84.6783
6.04755
45.234
11.7917
41.0891
20.9442
77.9566
60.2282
11.9798
88.3905
2.27941
19.4464
27.2101
16.0486
43.6976
3.2914
15.0635
13.544
22.3249
11.5139
10.5241
21.0504
30.0658
89.0448
93.8647
88.1188
30.6492
27.4924
45.314
29.4679
20.7081
15.9492
18.3492
5.32953
29.8459
4.72586
51.6045
79.1186
47.4512
64.4551
67.9748
67.916
52.7751
54.8637
7.41332
38.4856
7.15547
52.3128
85.7583
80.9317
22.526
82.1571
47.5854
44.4271
67.8771
31.8057
51.9992
47.105
38.5364
82.7787
80.3734
63.5567
45.0339
55.5485
77.6284
33.8277
43.0447
36.2076
57.3614
83.2012
73.486
39.4919
30.4287
51.8292
75.0777
33.8009
51.2576
22.9568
39.9206
56.3932
43.8205
77.6721
47.6645
62.6321
54.1387
53.8004
54.4053
73.5537
22.9688
51.5933
45.5635
59.7014
80.3403
84.4482
75.857
60.3
74.845
86.2465
95.3404
88.8203
60.801
48.1204
58.7918
85.0686
8.03119
24.2118
27.4548
19.9216
44.5656
76.704
83.0745
67.0204
53.1698
82.5348
52.8345
42.6651
59.5635
47.395
38.4849
58.3522
40.8856
52.2545
55.2395
57.409
64.7147
79.8878
33.8694
37.7436
47.9955
59.0836
65.0087
71.867
49.0873
71.6615
59.6526
59.2548
11.0759
64.3628
78.5324
34.9163
91.2486
95.5603
94.0507
41.1227
64.5349
59.6811
43.5
57.7833
58.8575
41.2485
37.5768
87.1175
32.4634
34.867
37.8199
38.2511
15.5476
49.9062
24.8284
29.845
21.279
12.4076
11.9157
30.161
25.3405
23.7645
33.4492
41.199
64.4245
62.0104
47.2734
63.3822
56.9458
65.9921
71.1241
83.373
13.0271
37.7316
23.9021
86.8237
63.1188
22.1008
27.9818
24.6204
91.3212
61.76
74.4099
70.6505
47.9115
75.5664
78.9207
70.0216
59.0918
58.0948
29.4099
31.5581
5.13955
97.191
86.011
77.1185
69.1276
6.95793
31.7096
31.6167
43.4204
67.6879
57.909
41.888
68.3078
24.2508
69.2425
70.5287
73.3256
65.2637
81.0299
83.985
86.771
80.2116
84.0011
84.3022
76.3518
61.9978
77.8557
81.7998
41.3823
49.764
63.4493
75.533
45.3091
74.8617
33.1474
40.1643
36.1213
75.2128
70.5523
70.9352
77.5909
46.6308
73.7213
58.4746
57.1602
69.3118
41.3029
42.8613
65.0454
74.9079
86.498
51.7378
60.2028
60.9329
29.6832
64.101
73.2374
56.6227
65.1824
53.6801
94.497
86.6372
89.3348
82.3349
98.5629
86.6445
77.2484
82.1288
78.498
69.9031
87.3223
86.8828
85.414
82.4241
85.818
89.759
67.237
37.1128
30.5145
46.5568
42.3192
45.8224
95.4897
84.6211
59.4141
14.312
20.9949
92.8383
9.7054
47.0506
66.5018
84.8425
92.6974
84.6937
85.1914
60.9823
77.5692
38.4017
38.7235
39.2522
30.3856
24.5549
30.5691
37.4992
26.9954
23.767
26.6019
41.5987
18.8213
34.0492
73.8055
26.3539
60.8254
63.1573
51.2144
41.9779
51.199
8.14037
9.52041
54.014
54.9175
59.2001
62.6492
58.0026
20.9643
52.875
27.3691
49.028
40.0008
33.4611
13.9431
10.437
69.161
53.4704
66.5851
55.0326
45.7681
38.5902
64.8917
48.1759
41.5519
51.0657
66.4019
67.633
62.1609
64.3279
69.5135
21.6097
29.4665
13.6368
54.3486
10.3757
67.5388
68.3398
18.1943
45.7205
39.4281
34.2591
30.4407
25.2259
32.2682
24.4871
27.9876
35.7239
62.5267
33.0186
40.0643
37.5955
38.8461
33.5632
40.0874
66.4461
67.4719
45.2716
49.5769
15.5323
52.4435
45.9064
52.5447
53.3199
42.2392
58.7352
54.7793
68.9204
91.1703
59.8461
46.6167
52.5083
60.9978
70.4986
58.7299
60.2996
64.9733
72.1694
72.1262
53.117
55.358
86.5926
86.9459
59.7701
59.2057
64.9849
35.9347
80.6793
57.1145
84.8937
5.59142
16.0695
45.8946
14.3261
40.4705
28.2876
8.34002
53.5461
5.58854
11.3593
27.7485
8.96176
3.71009
50.3663
37.029
58.2205
59.2927
59.5005
50.9667
73.43
39.7665
45.9952
25.8688
52.1641
28.2458
29.051
28.665
11.5783
80.8414
91.2935
89.4091
19.497
40.6494
93.8264
93.4076
93.2882
38.4205
17.249
50.706
72.5264
34.5611
29.7456
24.8485
37.0567
11.3767
95.7213
47.4772
40.9693
83.0433
88.7093
19.5346
28.8528
33.6187
7.94715
9.30754
7.29595
12.0285
24.1747
33.4662
58.1906
39.1502
8.28942
-5.09326
7.0962
9.36982
5.04758
14.2388
12.9322
8.48908
80.7643
76.5838
86.8026
68.9775
65.9802
79.1461
76.0951
70.729
72.9167
82.3582
80.0804
77.617
56.3307
58.4708
68.2108
78.1887
58.7379
49.239
47.6985
64.5832
59.0703
13.8915
35.9383
36.0766
84.3705
81.3178
86.6006
62.4899
67.9924
87.5189
88.596
77.2438
24.388
15.1298
10.3187
56.2321
48.4729
11.7111
15.6534
60.6157
37.9159
34.6306
49.6535
18.2943
30.0509
26.2956
44.6498
32.2224
10.0398
14.7435
9.57209
50.4681
67.6999
74.5283
75.7501
77.8786
67.0984
66.9564
67.5565
72.8401
63.7566
70.9607
30.1974
52.9665
43.9859
66.2391
57.1974
67.8846
13.3332
11.6942
15.8393
19.0638
59.1273
37.8967
63.5691
61.2166
44.2755
50.082
50.9649
67.9775
68.2017
72.6586
82.3961
91.3577
91.4285
79.4323
48.6458
56.5126
64.4004
57.2249
78.936
85.9803
92.105
74.5945
77.5272
99.6979
79.801
90.4851
92.5683
84.0165
73.705
20.1965
14.0777
27.8371
27.8999
51.3717
47.1631
81.7223
35.4426
54.8437
20.1071
33.263
31.2538
45.432
61.0726
43.2874
54.1232
65.387
72.1809
89.5268
73.0846
77.1309
73.2623
77.6164
71.7677
62.3806
65.7344
64.5986
42.9712
42.09
56.5926
55.5459
24.6789
34.3035
48.0363
42.8495
40.0546
19.2232
41.8514
58.854
46.834
51.3907
34.1474
32.0743
33.837
38.7026
62.5251
66.931
61.8172
56.7875
68.0303
32.9187
39.6812
67.237
63.0799
71.2394
62.523
65.8502
19.4238
16.9552
77.9473
84.2054
86.5653
77.1386
21.5896
7.03707
15.5513
13.0648
15.343
3.43709
30.0297
82.5686
73.9132
27.3421
64.0827
52.227
56.8763
41.0069
45.1465
66.235
61.4198
61.4421
44.1106
56.9852
34.7902
8.43555
19.6502
4.44832
39.6866
71.9394
64.1382
78.5115
47.7418
82.0099
81.7351
6.62177
10.6605
21.7397
24.5546
38.1938
27.6609
7.50466
33.7031
9.64727
6.01413
7.01631
7.92331
4.12784
5.83171
21.7846
12.4276
9.81009
15.3329
14.3401
6.41396
18.585
23.7238
16.2372
88.4787
67.7278
62.6895
80.6614
66.6879
42.7602
55.6773
74.6698
76.5874
65.2029
59.8199
40.3171
21.9393
27.8376
44.2485
51.9193
55.0819
60.3589
49.7393
66.238
33.3156
56.1456
23.8489
68.4911
65.6963
69.1076
74.663
89.2793
78.2918
93.4934
76.3141
84.8224
94.413
71.0941
80.7898
74.6766
89.6713
90.3908
84.8748
45.2425
50.701
46.4679
54.3646
42.6771
70.2355
44.8467
54.763
64.4408
64.9191
50.0309
47.5272
45.4782
59.8539
57.4502
80.3558
48.011
52.9948
7.59578
23.4784
23.7004
38.7047
9.09576
9.16281
23.1284
7.63627
9.78778
50.6376
50.7054
22.1016
95.9177
67.1371
92.6327
83.9684
74.5691
47.4582
47.6433
67.2741
53.5892
69.4018
-2.63441
73.7448
80.3594
65.2505
70.6432
4.83107
22.7267
83.342
90.2538
48.918
9.06067
80.0347
74.4736
75.6845
20.4055
20.8245
50.6708
34.331
79.2798
69.4878
86.0602
48.1963
57.5848
69.8778
58.2007
12.7232
7.622
23.2021
35.7697
32.5263
38.592
52.9884
44.9039
64.0759
62.9159
50.976
34.9634
39.3082
28.4943
33.6262
22.0565
71.8636
65.0056
87.0078
98.0546
84.9271
27.828
15.0104
44.9538
41.7219
46.4934
39.0769
38.4582
42.2881
58.1439
69.4974
42.2174
41.9864
55.311
48.3156
36.3827
60.8299
52.9767
72.483
83.6812
88.718
54.0835
37.4499
28.2054
43.635
90.1082
66.1975
76.3117
58.4902
79.5738
89.3415
90.7621
86.9881
82.3432
63.6872
78.4706
58.8511
43.4652
27.3074
53.5031
41.6123
32.6068
23.8979
36.1388
58.7749
60.8862
25.7652
6.98559
53.5402
14.8256
2.28321
49.1572
24.2063
50.3775
5.94449
21.7528
11.9217
73.6259
3.8487
43.5804
50.225
43.7763
50.6222
76.4271
15.4693
76.336
65.1849
37.3867
30.9075
36.645
74.2912
62.7506
88.4169
73.6909
56.5281
64.6597
41.6942
48.7936
9.15607
64.5433
62.148
66.1185
53.4806
71.8921
71.4926
77.9267
69.5209
54.5474
65.9236
69.5758
78.9248
26.0285
39.2283
34.6557
23.8801
9.25116
50.1289
47.2552
87.9535
20.2635
22.1619
50.725
64.332
25.3615
27.6309
23.8972
31.0104
32.0656
32.5134
38.6033
38.681
25.4247
7.39782
2.37672
6.28773
48.4191
8.7946
4.92556
15.6692
15.9121
11.5478
22.334
39.3247
23.5218
9.17382
7.75044
1.90931
5.77761
21.6593
2.58373
30.4904
8.76043
25.5439
20.2869
25.269
21.6201
13.7289
60.7035
71.7646
72.645
66.4947
43.0688
36.3179
52.5139
36.987
38.9947
27.6922
22.0255
32.4677
41.7452
37.9932
41.4789
36.3499
61.9953
56.0689
58.4657
62.1433
58.3393
69.1131
65.854
14.0753
54.6768
85.9895
82.8847
65.5151
71.4629
69.2666
73.7318
24.1165
17.8628
15.8225
73.8835
72.4144
74.4247
75.0952
71.8472
26.4914
32.8071
45.9509
43.6435
57.3038
46.8364
47.8634
40.1326
49.1134
49.667
15.1486
51.5031
45.6855
35.6191
19.5531
31.9089
24.7248
15.7114
4.69589
21.2456
80.867
89.0506
80.4584
49.7177
56.9726
55.0082
78.4063
74.3215
83.8154
68.3877
43.2513
67.3479
52.8525
72.3474
80.266
39.3276
21.123
8.84821
41.6111
27.8042
13.2422
15.1565
6.20707
20.5443
29.4357
16.7888
10.3107
17.1538
89.3014
83.9521
98.3787
79.9372
8.03674
19.9882
29.0449
13.5515
54.5489
48.8934
44.8333
43.8323
67.3541
36.3481
36.281
42.8977
47.0729
29.2831
63.2725
57.8652
67.4265
75.7534
63.0811
61.3266
47.0677
37.2118
42.064
42.0722
46.2711
94.4564
45.5813
49.9545
48.3916
66.1937
67.148
56.2075
82.5774
74.6365
86.3133
18.9536
48.2422
87.6776
9.17671
35.0422
82.9349
11.1073
20.5784
59.068
92.8309
43.7661
32.7138
17.873
15.7557
24.4477
31.344
25.198
24.6558
40.3882
17.9235
37.5099
49.8448
34.1671
45.2514
54.0835
49.9019
30.8595
47.195
71.9145
68.2907
72.8989
55.7153
40.4648
71.2027
67.5878
67.5037
82.3784
83.9385
17.0244
9.83775
13.109
14.1132
15.2401
5.89422
10.0453
12.1458
2.82395
1.54756
9.63962
10.4076
7.83482
12.702
6.61268
18.9793
6.77045
9.54317
12.6016
33.9599
95.2049
98.9696
68.6466
77.3134
73.305
57.8148
59.8623
42.8383
37.8153
39.3331
38.8934
24.1665
20.7466
28.8984
63.8839
59.5259
51.8229
82.9836
74.4404
88.1289
82.3495
29.7717
33.5299
85.9229
92.8678
15.3203
4.79239
13.6646
36.4523
52.7615
17.4171
37.3098
25.7337
14.0371
21.25
20.8198
86.9435
75.1869
77.5272
81.6367
73.6765
83.5959
83.1652
72.181
78.1001
54.1806
52.0599
62.7899
13.2257
68.0351
70.6062
71.413
69.685
96.9317
79.2661
94.7456
25.8609
38.5346
31.3729
38.576
45.2247
41.9244
44.0344
79.2762
18.7742
20.5952
66.4718
33.6187
38.551
22.8907
64.4445
87.5282
82.7553
80.222
76.1799
45.7226
23.8036
24.7757
83.5116
74.258
74.3927
52.8793
50.5401
49.5408
72.8483
68.5919
71.924
51.3775
29.9364
9.13285
4.34738
6.99195
1.38292
63.735
79.4841
79.1262
82.9971
79.8329
79.0676
77.5492
74.09
78.2491
5.07959
7.45159
8.15359
5.80744
9.31675
59.6391
53.3835
3.28286
23.5614
39.5919
44.3484
22.2974
85.8527
86.1962
83.4697
82.277
86.3203
69.1803
65.0902
77.4295
72.7812
68.8711
60.284
74.2998
52.1267
75.5578
66.0598
83.5228
49.5846
21.7743
47.269
52.5241
39.1501
36.9527
42.3139
47.4598
28.112
25.6305
24.9202
26.5618
39.6868
57.5208
49.5195
51.6136
52.1285
56.1003
81.6157
77.0261
60.103
87.1203
62.9723
18.9032
15.1595
9.643
25.9872
23.7943
25.3238
27.2681
41.7228
34.1113
34.6772
37.0829
39.8772
33.0777
45.5947
27.7033
42.745
56.5331
40.7736
34.3096
60.7562
82.3738
56.4643
23.1385
53.6687
66.6688
57.5684
67.3378
72.8319
68.9374
59.6109
74.4341
78.4699
61.2264
57.7696
72.738
67.3204
60.0681
60.0188
43.9241
45.1116
75.6496
84.7007
66.7432
60.4771
78.4363
76.5495
44.4817
50.4393
42.2989
44.0474
11.2086
7.97422
17.2657
21.0566
3.80022
11.4766
26.389
12.5154
94.1546
91.9503
87.4422
86.896
88.8984
85.4966
83.0951
71.6392
66.46
57.4608
61.7435
65.4191
58.6222
61.4345
11.1982
17.0473
32.3331
6.18726
-2.40624
1.95497
31.3907
17.0604
68.655
68.9614
75.4483
80.4763
80.1457
73.4033
79.2412
75.4709
72.1021
95.7841
79.959
80.1076
84.6947
25.4105
35.8371
48.508
13.6591
41.0227
36.8655
35.0291
32.9355
38.6068
57.9609
44.0098
40.311
46.9744
35.2634
3.45311
9.43126
18.2689
68.2319
73.4936
83.0554
70.6992
69.297
78.3767
51.2091
39.5127
64.9474
45.4554
57.255
61.5208
40.0896
57.9307
42.877
38.8882
27.5029
19.5001
8.52965
18.4579
57.6405
45.511
55.5651
31.3151
41.4716
37.383
43.4868
39.1757
58.7883
58.06
54.5875
53.6465
39.1122
45.0299
48.4168
46.4221
39.8687
74.7411
85.5336
76.2852
83.1945
86.8585
83.6189
90.2865
57.8341
88.0939
76.4043
90.7781
66.1406
87.7538
98.5333
89.6188
70.6989
77.8614
78.459
71.0772
81.3639
77.1484
34.7718
25.6142
43.5789
43.5587
29.7669
21.7092
62.56
49.9502
56.1825
76.9439
71.1482
47.7265
48.5416
6.65981
10.7298
21.5324
11.5682
65.5498
83.0118
9.79761
20.4012
62.3237
62.7899
59.7022
39.5647
39.9366
83.5667
33.3354
13.8653
78.3235
76.5196
8.0124
19.948
-0.0530511
32.3336
76.4776
54.2059
46.5345
55.6448
67.5134
36.2935
59.865
74.3303
93.6498
26.6535
59.8462
52.2022
82.9506
78.3185
80.0016
62.3083
31.8216
46.8068
49.8547
44.0495
32.4997
40.6299
81.4427
93.3125
86.5886
86.5305
84.3508
91.8226
73.7513
76.193
85.7689
72.1712
97.7709
63.0613
81.2423
73.2589
86.5889
72.3771
91.2157
59.4521
30.0481
77.6724
22.8931
10.4781
53.9964
38.4068
22.0019
18.1845
9.89263
11.0509
7.07268
16.2042