/*--------------------------------*- C++ -*----------------------------------*\
| =========                 |                                                 |
| \\      /  F ield         | OpenFOAM: The Open Source CFD Toolbox           |
|  \\    /   O peration     | Version:  2506                                  |
|   \\  /    A nd           | Website:  www.openfoam.com                      |
|    \\/     M anipulation  |                                                 |
\*---------------------------------------------------------------------------*/
FoamFile
{
    version     2.0;
    format      ascii;
    arch        "LSB;label=32;scalar=64";
    class       surfaceScalarField;
    location    "0.00481384";
    object      phi;
}
// * * * * * * * * * * * * * * * * * * * * * * * * * * * * * * * * * * * * * //

dimensions      [0 3 -1 0 0 0 0];

oriented        oriented;

internalField   nonuniform List<scalar> 
7240
(
0.0194412
-0.037851
0.0426718
-0.0242621
0.0193332
0.00912859
-0.0250411
-0.00342069
0.0325887
-0.0252731
0.0120176
0.00489694
-0.0415843
-0.0323182
-0.0401364
-0.00374835
-0.0393983
0.0120003
-0.0560527
-0.05423
-0.00155117
0.055126
0.000655197
0.0511848
0.0622952
-0.0751544
-0.0383256
-0.0321903
0.0498913
-0.0570992
0.0305221
-0.0626481
-6.44158e-05
0.0596474
-0.0570288
-0.0322578
0.0296392
-0.131359
0.0355028
0.0276219
0.0682347
0.0144243
-0.0635721
0.0407555
0.00839228
0.0590185
0.00775476
-0.052349
-0.0692131
0.044057
0.0618411
-0.036685
-0.0455879
0.0710317
0.0379343
-0.063378
-0.03845
0.0870914
-0.0450836
-0.00355774
-0.054457
0.0250527
0.00792671
0.0214776
-0.0123803
0.0258669
0.0358778
-0.0493644
0.0416606
-0.0799804
-0.0253155
0.0636353
0.0503679
-0.037047
-0.070481
0.0571601
-0.0181905
0.0467912
-0.113068
0.0844671
0.0691965
0.0180577
-0.0315421
-0.0557121
-0.0601942
-0.0314885
0.00794162
0.0837411
0.0144344
0.00598229
-0.09837
0.0779533
-0.0716031
0.0155917
0.0822734
-0.026262
0.0183978
-0.0996619
0.0773244
0.00393966
-0.0265006
0.063521
-0.0559009
0.0188805
-0.0758281
0.00618823
0.0696398
-0.0356526
-0.0022502
0.0294966
0.0222802
-0.0641572
-0.072317
-0.0169083
0.00487074
0.0843546
0.0243662
0.162687
-0.0800497
-0.0484211
-0.034216
-0.0213388
0.119797
-0.0430197
-0.0554381
-0.0126397
-0.0390019
0.0595313
-0.00788973
-0.0566601
-0.015968
0.0599884
-0.0890958
0.104598
-0.0494331
0.0339306
-0.0584859
-0.00374127
-0.00778984
0.070017
0.133809
-0.0504732
-0.00350475
-0.0798314
-0.00147972
-0.0855915
0.00291283
-0.0494522
0.0356859
0.0497017
-0.0359354
0.073466
0.0396586
-0.0733999
-0.0397246
0.00282773
-0.0082356
-0.036317
0.0417249
-0.0185412
-0.0425551
0.0610962
-0.00420991
0.0309101
-0.0238725
0.00534348
0.0273017
-0.0408808
0.0929418
-0.0868218
0.00250522
-0.00862521
-0.0247437
0.103071
-0.0189981
-0.0593288
-0.138978
0.00182205
0.00208222
0.135074
0.0303952
0.0124576
-0.0397256
-0.00312712
0.039956
-0.0583985
0.0193909
-0.000948331
-0.0133681
-0.00181041
-0.0147652
0.0475183
0.00201925
-0.0347724
0.00661845
0.0991762
-0.0952948
-0.0104999
-0.053637
-0.000285284
0.0391572
-0.0521107
-0.00152633
0.1131
0.042448
-0.138194
-0.0173543
0.0181573
-0.11469
-0.0231837
0.119716
-0.0515287
0.0549339
-0.00340516
-0.011361
0.0775175
-0.0684282
0.0022718
-0.0624862
-0.000403581
-0.018133
0.0036162
0.0451039
-0.0305872
0.049868
0.0854243
-0.0367011
-0.0985913
-0.0129533
-0.0430306
-0.0694814
0.00124157
0.0642476
0.00399217
0.0367519
0.0392076
-0.0759595
0.0186638
-0.0590026
0.0273854
0.0649178
0.0546594
-0.0394111
-0.0801661
0.00880713
-0.0897315
0.0784955
0.00242897
0.0199973
0.0489512
-0.0502846
-0.0469556
-0.051575
-0.0147035
-0.0234571
0.0897356
-0.0523042
0.000729258
0.0134122
0.0194655
0.0148925
-0.0477702
-0.0367498
0.0400393
-0.0642877
0.0609982
0.00318053
-0.0483642
-0.0303908
0.0436554
0.0147761
0.0310357
-0.0894672
0.103717
-0.112775
0.0458097
0.0601912
-0.00674594
-0.0189667
-0.0344786
-0.089728
-0.00998034
0.0129699
0.00202747
-0.0515704
-0.0104189
0.0599619
0.0484128
0.0269646
-0.10761
0.0322322
0.0215248
-0.145285
0.0884121
0.0353483
0.00234729
-0.0604505
-0.00244201
0.053427
0.00185533
-0.109739
-0.0487736
0.0444762
0.0477792
-0.0434819
-0.0435292
0.0826161
-0.0390868
0.0503624
-0.0695728
0.0861365
-0.066926
0.0150887
-0.0456678
-0.0181945
0.0363549
-0.0348035
-0.00155144
0.0514436
0.130131
-0.121277
0.0377809
-0.0466355
0.00986162
-0.0482376
-0.00944284
0.0478188
0.0511604
0.00788408
-0.0524257
-0.00661881
0.0664212
-0.0352764
-0.0549072
0.0237625
0.0262839
-0.0959847
0.0915095
-0.0218087
-0.0111124
0.0497178
0.0129853
-0.0515908
0.0851697
-0.00607329
0.0522949
-0.131391
-0.0661846
0.062798
0.0716729
-0.0682862
-0.0794508
0.0798943
-0.000443494
0.0607551
-0.000977437
-0.0597776
-0.0161221
0.128939
0.00199232
-0.114809
0.00963496
-0.0306519
0.0344291
-0.0242262
-0.000988498
-0.056544
-0.0701958
0.0123539
0.0645107
-0.00666876
0.0576939
-0.0113358
-0.0266168
-0.0197413
0.0381897
-0.00584575
-0.03638
0.00403607
0.000172608
0.0683288
-8.96801e-05
-0.0684118
0.0077687
-0.0723615
0.0182159
0.046377
-0.0414167
-0.033969
0.0430466
0.0323391
0.0512326
-0.059219
0.0466439
-0.0386576
-0.0614883
-0.0118312
-0.00445235
-0.0268169
0.057667
0.07971
-0.11056
0.0321352
0.0455181
-0.0595128
-0.0181404
0.0133991
-0.0757629
-0.0210164
0.0833802
0.000258798
0.10224
0.00343876
0.0242
0.00699334
-0.00124802
0.0921499
-0.0909018
-0.0337869
-0.0852203
0.0268805
0.0921267
0.0210922
0.0617222
-0.0229131
-0.0599013
-0.0627152
-0.000718066
0.0210027
0.0424305
0.000974102
0.0601054
-0.0610795
-0.0403186
0.0429782
0.128137
-0.130797
0.00145063
0.0539276
-0.00176827
-0.05361
0.0467536
-0.0656998
0.05715
-0.0382038
0.032368
-0.0368023
0.0491189
-0.0446847
0.00293412
-0.0424119
0.0532157
-0.0564311
-0.0335869
0.101007
0.0171711
-0.0272228
-0.0909551
0.0283748
-0.0498482
-0.00356764
0.0281658
-0.0250641
-0.0903089
0.00389116
0.0186309
0.000177005
0.0519978
-0.0454252
0.0283858
0.0136188
-0.081339
0.0951976
-0.0138586
0.0476863
-0.0497586
0.0554993
-0.0353356
-0.00702748
-0.0448799
-0.0874674
0.00553692
0.0819304
0.0394417
0.0114779
-0.0957789
0.107564
0.00148691
-0.0132719
-0.00145306
-0.00125887
0.0893433
-0.0866314
-0.0381826
0.024011
0.0386577
-0.0244861
0.0496791
0.0214723
-0.0702161
-0.000935331
-0.122062
-0.0403359
0.0394294
0.122969
0.0496323
-0.0397707
-0.0312191
-0.0358077
-0.0322665
0.0992933
-0.0263345
-0.0859138
0.028233
0.0840153
-0.0276917
-0.0278181
0.0201741
-0.00696671
0.00641544
0.019004
-0.0733002
-0.079894
0.13419
0.0525999
-0.0556376
0.0452835
-0.0422458
0.0856579
-0.0860592
-0.0194364
0.0198377
0.0263243
0.0208094
-0.0618754
0.0147417
-0.131576
0.0748698
0.0180543
0.0386516
0.00486634
-0.0476618
0.0805581
-0.0377626
0.0387926
0.00818077
0.0264926
-0.00637704
0.0453929
0.0562892
-0.0953051
0.0618948
0.0168794
-0.0904286
0.0116544
-0.0174524
0.000193327
-0.050035
0.0672941
-0.0750969
0.0369903
0.0381065
0.0477264
-0.0547093
0.00698291
-0.0582147
0.0343904
0.0453604
-0.0215361
-0.0215596
-0.0133683
-0.00776501
0.0426929
-0.0559573
0.00199374
0.0324039
-0.00102338
0.0743218
0.00217226
-0.0547417
0.115695
-0.0091686
0.0293306
0.0649884
-0.0851505
-0.0134185
0.032413
0.0565283
-0.0395312
-0.0494102
0.0167742
0.152264
-0.17568
0.00664161
-0.0531307
-0.0435561
-0.0678539
0.164541
0.0496582
-0.0569204
0.00726216
-0.0708719
0.133453
-0.0739167
0.0322963
-0.0297609
0.0848068
-0.0033502
-0.0683017
-0.0131549
0.0709421
-0.0700264
0.0136928
-0.0146085
-0.00968058
0.0307099
-0.04128
0.0202507
0.0115426
-0.0366068
0.00145122
0.00069849
-0.0769723
-0.00362567
0.0584218
-0.0820572
0.0272611
0.0838948
0.0123118
0.000133875
-0.0963404
0.00681688
-0.00385486
-0.0708852
0.0679232
-0.110275
0.097009
-0.0867023
0.0999678
0.0472162
3.59813e-05
0.00026608
-0.134028
0.00388574
0.075401
0.0373404
-0.000288713
-0.0864173
0.0493656
-0.0386675
0.0485068
0.0469408
-0.05678
-0.06966
0.0858778
-0.145728
0.12951
-0.0110218
0.0111731
-0.0388188
0.0105384
-0.0418324
0.0331386
-0.0571426
0.0129822
0.023845
-0.00645878
-0.0246263
0.00724005
-0.00686033
0.0163852
0.0179896
-0.0313281
0.0371836
-0.109357
-0.0175453
0.0228523
0.10405
0.0538284
-0.0340052
0.0322585
-0.0520818
-0.015946
-0.0364014
0.102893
-0.00446662
-0.114548
-0.0236282
0.0557085
-0.0480263
0.0382651
-0.121092
0.0131075
0.0697199
0.00870563
0.0471721
-0.0840056
0.0927998
-0.0559662
-0.0975255
0.0955073
-0.00552305
0.00754129
0.0870874
0.00257493
-0.0183769
-0.0712855
-0.000978687
0.0513411
0.0234936
-0.129871
0.111031
-0.00465377
-0.0727086
-0.00223854
0.0749472
-0.0557523
0.00100371
0.0547486
-0.0524469
0.0587683
0.0798919
-0.0862134
-0.0688014
0.0482519
-0.0517675
-0.0722297
0.0673097
0.00808477
-0.00316476
0.0588645
-0.0509003
-0.0550365
0.0470722
-0.0303718
-0.0710226
0.110289
-0.00889421
0.0595308
-0.0859793
0.0644392
-0.0379906
-0.0833182
0.0182653
-0.00160067
0.0515625
-0.0670189
-0.0183306
0.0221037
0.101365
-0.0050972
-0.118372
-0.0512627
-0.0352847
-0.0672629
-0.0100783
0.0183386
0.0853711
0.00227283
-0.0876439
0.0576971
-0.00703258
0.0347065
-0.0167055
0.0425652
-0.0640422
0.0567789
-0.0721293
0.0650295
0.0830724
-0.0807995
0.0538787
0.00173688
0.00353985
-0.0591554
0.0572974
0.0594651
-0.0628838
0.027544
-0.0736479
0.0586652
-0.0125613
0.0136227
-0.0389286
-0.113024
0.0103654
0.0390868
-0.0119851
-0.0471583
0.00859642
-0.0596315
-0.00131386
0.0421428
-0.0159382
-0.027376
0.00876888
-0.0487
-0.00853447
0.0669597
-0.00972525
0.0102996
0.0803888
-0.0671948
-0.0352775
0.053359
-0.0578197
0.0397381
-0.0548538
0.0633664
-0.0787915
0.0702789
-0.0384011
-0.000600822
0.0125966
-0.0674504
0.00346966
-0.0433528
0.00460572
0.0355396
-0.0336339
0.0015639
-0.00286144
-0.00390188
-0.010386
0.045796
-0.00094238
-0.0344676
0.0386069
-0.047974
-0.00101893
0.0391926
-0.000585683
-0.0379263
-0.00625505
0.0167753
0.0274061
-0.0340384
-0.00370229
-0.000185588
-0.0328033
-0.000294301
0.0330976
0.0155701
-0.0453309
-0.00304249
0.000910253
-0.0193786
-0.0585847
0.0516708
-0.0197029
0.0604074
-0.00191508
-0.0268433
0.0180469
-0.0622596
-0.0123036
-0.0978579
-0.00891308
0.0522101
-0.05416
0.00164269
0.000307191
-0.0838686
0.045451
-0.0681935
-0.0613463
0.0456712
-0.0507422
-0.00136851
0.00146788
0.0128331
-0.0451342
0.0345704
-0.00226939
-0.0338766
0.0478144
-0.00110474
-0.0258745
-0.0232666
0.00400696
-0.034052
0.000175432
0.0427983
-0.0585578
0.0235282
0.0189705
0.0555541
-0.0317264
-0.0065343
0.0111773
-0.0719059
-0.0615121
-0.0600355
-0.00147654
-0.0480198
0.0464421
0.00157773
0.00543399
-0.0515979
0.0440162
0.00214768
0.0421455
0.0263803
-0.0381307
-0.00149678
-0.089907
-0.047574
-0.0430533
0.000467457
-0.0471985
-0.0118495
0.0507649
-0.0642326
0.0119773
0.0014904
-0.0571209
-0.0468629
0.0892802
0.110812
-0.124278
-0.00153939
-0.0324759
0.0344902
-0.0507143
0.00046235
0.0533241
0.120387
-0.00195744
-0.120759
0.0023297
0.0687727
-0.0707427
-0.0588744
0.0608444
-0.0571057
0.0581315
-0.00102587
-0.0681161
-0.0131702
0.0241806
0.00532398
-0.0413033
0.0359793
-0.0405622
0.0611586
-0.0689606
0.00855016
-0.088001
0.0962782
-0.0272352
-0.0695637
0.000520693
-0.0545773
0.0681793
-0.0040695
-0.00953253
0.0799878
-0.0588957
0.0499052
-0.00786608
-0.0420391
-0.0806471
-0.0160077
0.0510669
-0.0443378
-0.00547719
0.0761394
0.0727233
0.0367794
-0.0653855
-0.0441173
-0.043899
0.0327866
0.0479993
0.0507174
-0.0221712
-0.0755784
-0.00323547
0.077767
0.00104688
-0.103016
-0.00909936
0.0145361
0.0975795
0.059438
-1.81225e-05
0.0486536
-0.0408265
-0.00780899
0.033322
-0.0277428
0.0643887
-0.069968
0.00628434
-0.0431633
-0.042503
0.0311823
0.0236296
-0.0548119
-0.00223864
0.0656743
0.0243544
-0.0877901
0.0756657
-0.0592246
-0.0539572
0.0375161
-0.0653174
-0.0255381
0.0830115
0.00784396
0.0401266
0.0352324
-0.075359
0.0588964
-0.0595746
0.0901479
-0.0894696
-0.032786
0.0510124
-0.0182265
-0.0513571
0.0345222
-0.0751618
0.00816359
-0.00327795
-0.00202846
-0.0411349
0.117781
0.00373927
0.0154331
-0.0219742
-0.0422464
0.0050016
0.0614913
0.0016335
-0.0631248
0.00881742
-0.0270949
-0.0359591
0.0542366
0.0316937
-0.022114
-0.089315
-0.0705431
-0.0920972
0.0658061
0.0968342
0.0440344
0.0647131
-0.104822
-0.00392538
-0.0798903
0.0407144
-0.0516673
0.0213429
0.0026327
0.0129054
-0.121493
0.0807926
0.0277955
0.0791478
-0.0253193
-5.91692e-05
-0.0765469
0.0854132
0.0313009
-0.0864067
0.0486235
-0.00135124
0.00533886
-0.0526111
0.0113329
0.0174998
-0.0997038
0.0708712
0.0887765
-0.0863229
-0.00245361
0.0591605
0.00132214
0.0120332
-0.0725158
-0.155064
0.0161588
0.15568
-0.00401812
-0.0211504
-0.0302204
-0.0378237
0.0323045
0.0456523
-0.0401331
0.0270329
0.0209204
0.0111298
-0.059083
-0.0383182
-0.0415721
0.0845119
-0.0136804
-0.0708315
0.0359046
-0.0466954
-0.0046654
-0.0408397
0.0219919
0.0324046
-0.0106707
-0.0437257
0.0776947
-0.0045295
0.0399349
-0.0668478
0.0671066
-0.0320399
-0.0392567
0.0712966
-0.106173
0.103776
-0.00682957
0.00922645
0.0352657
0.00764663
0.000343856
-0.0364969
0.036153
0.0301688
-0.0150216
-0.0371214
0.0489076
-0.0489607
0.0749038
-0.0748508
-0.0158275
-0.057281
0.0962965
-0.023188
0.0245384
0.000917317
0.0674941
-0.0929497
0.028118
-0.0782214
0.0333766
-0.013957
0.0470016
0.00828583
0.0432767
-0.0670272
0.00199608
0.0650311
0.00976492
-0.00497821
0.073931
-0.0787177
-0.0919354
0.011723
0.120374
-0.0401621
-0.104414
0.0963884
-0.00659804
0.014624
-0.0615248
0.0345144
0.0608285
-0.0338182
0.0290146
0.047119
-0.0149821
-0.0611515
-0.0474094
-0.0975888
0.0937355
-0.0342611
0.0641231
0.0575245
-0.0873865
0.0915672
0.000582258
-0.100168
0.00801846
0.0464318
0.00102695
-0.00166272
-0.105342
0.0271019
0.128577
-0.0503365
-0.0986722
-0.109445
0.0986017
0.109515
-0.0695897
0.0804067
0.0702414
-0.0810584
-0.0665182
0.0472117
0.0647888
-0.0454824
0.100392
-0.109062
0.0154041
-0.00673435
0.0819576
-0.000426713
0.00429328
0.0720763
0.0264641
-0.0394211
-0.0591193
1.40541e-05
-0.0651061
0.0578219
-0.0393527
0.0375198
-0.0559891
-0.0833451
-0.00311203
0.111994
-0.0255364
-0.111208
0.120273
0.0240809
-0.0331459
0.0126803
0.0804543
-0.070291
-0.0228437
0.0661313
-0.0659971
-0.000134235
0.0474825
0.00242271
-0.000285271
0.0297699
0.0147714
0.00189052
-0.0605306
-0.0590046
0.0728204
0.0467149
0.0577712
-0.0583442
0.0441168
-0.0702308
-0.0536978
-0.0266527
0.0363347
-0.0414938
0.00689597
-0.0276267
0.0661696
-0.00807035
0.0123734
-0.0704727
-0.0400354
-0.0492977
-0.000266506
-0.0366969
0.000562381
0.0361345
0.0373159
-0.0714436
-0.00256912
0.0138204
-0.0139309
0.0374263
0.0402195
-0.0395828
0.0682412
0.00111143
0.00063675
-0.0893657
0.0650835
0.0646994
-0.0404172
0.00256403
0.04724
0.00869224
-0.0584963
-0.0727965
-0.00128436
0.0740809
-0.0104415
-0.0534745
0.0607173
0.00319869
-0.0605559
0.085712
0.066411
0.00465914
0.00424197
0.0885331
-0.114889
-0.0608156
0.0593406
0.00343895
-0.00196401
0.0569699
0.00116158
0.0480414
-0.00263111
0.0115597
0.0472436
0.000797781
0.0176165
0.0581293
-0.0757458
-0.118712
0.00520016
0.0477388
-0.0272725
-0.0789522
0.0971708
-0.08537
0.0614477
-0.0732485
-0.00131631
0.0490551
0.0482055
-0.000650571
-0.0748274
-0.00869553
0.0470239
-0.0392708
-0.0627492
-0.0044165
0.0671657
-0.00108485
0.0492903
-0.00942016
0.0652351
0.0177129
0.0970744
-0.0481743
3.83779e-05
0.048136
0.139732
-0.00952721
-0.131658
-0.00162417
0.0479383
-0.0463141
0.000175047
-0.0484427
0.0482676
0.0725619
0.00775639
-0.021247
-0.0590713
-0.00533882
0.0842902
0.0429315
0.0153007
0.075705
0.00168242
-0.0926881
-0.0729355
0.00845245
0.0782697
-0.0137866
-0.063855
-0.0156051
0.05575
0.0237101
-0.0576807
-0.0117101
0.0615472
-0.0680623
0.0100549
-0.086035
-0.0327862
0.0596657
0.0296964
0.000408068
0.0314427
-0.0203204
-0.0451324
-0.0127123
-0.0141431
0.0367455
-0.0303674
-0.0396988
0.0275494
-0.00123349
0.000573577
-0.0348674
-0.00246348
-0.0621522
0.0188276
-0.0267686
0.00182273
0.00348545
-0.00423008
-0.00114991
0.0289971
-0.0499721
0.0221249
-0.0490929
0.02824
0.034259
-0.0620283
0.0539659
-0.0261966
-0.00256199
-0.0850487
0.0199224
-0.0502366
0.000154602
-0.0368017
-0.0525252
0.0177016
-0.135189
0.0321172
0.0432199
-0.00587951
0.0148395
0.00441221
0.0199282
-0.0391799
-0.00317556
-0.0737397
0.0769152
0.0458986
-0.00874817
0.0100658
0.00167677
-0.00737605
-0.0148338
0.0471972
-0.0303441
0.0413765
-0.00195327
-0.0394232
-0.0578291
0.0132568
0.0626723
-0.0181001
0.0365433
-0.0516623
0.0557766
0.00208911
-0.0578657
0.0251416
0.042086
-0.101489
0.0269932
-0.0682416
0.0135068
0.0277416
0.0289922
-0.0337523
-0.0527083
0.0574685
0.0293745
-0.00714484
-0.0932313
0.0710017
0.0546309
-0.050914
0.0370387
0.00297102
0.105914
-0.0672245
-0.023011
-0.0498925
0.0483406
0.00155189
0.0755752
-0.0514552
0.0666514
-0.0675035
0.000852045
-0.015455
-0.0277244
-0.0653475
-0.0545049
-0.0354288
-0.00963642
-0.0732162
0.118281
0.0658642
-0.0565325
-0.00194803
-0.00738364
-0.0926189
0.00960486
0.0815337
0.00148035
0.0678069
-0.00194277
-0.0294701
-0.017484
0.0872827
-0.0403287
-0.0052893
-0.0683102
0.0715849
0.00201467
-0.0713906
-0.00397503
0.0700763
0.000989746
-0.0580467
0.0585076
0.0156127
0.0754128
-0.016981
-0.0636156
0.00368915
-0.0262653
-0.0202519
-0.0825677
-0.0231835
0.023273
0.0824782
-0.00148362
0.00360405
0.0535979
-0.0573422
0.00226065
-0.0371821
-0.0209605
0.0243469
0.0446441
-0.0480306
0.0112612
0.011615
-0.0438367
-0.0386266
0.0225118
-0.0439475
-0.00293697
0.0472917
-0.096022
-0.0459798
0.0190906
-0.0176218
0.044511
-0.00121331
0.000430451
-0.0451969
-0.03645
-0.0363576
-0.0208578
0.0175464
0.0505962
-0.0315055
0.000506883
0.0522521
-0.0753678
0.0226088
0.0306883
0.011356
0.00492431
-0.0469686
0.00720941
-0.0363766
0.00805309
-0.00910678
-0.0390794
-0.0297407
-0.0366064
0.0735094
0.0520176
-0.015331
-0.0929343
0.0562477
0.0499787
-0.0794675
-0.00431926
-0.0314112
-0.00564725
-0.00866292
0.00742054
0.0902898
-0.102222
-0.0519225
0.0580862
-0.0254771
-0.0481091
-0.0079946
-0.036364
-0.0399
-0.0441496
-0.0161877
0.0045036
-0.0668558
0.0420236
0.0212065
-0.0451457
0.00578501
-0.0340239
-0.00710066
0.0368596
0.0042649
0.0163464
-0.05343
0.0375905
0.00284623
-0.0670788
-0.070052
0.017442
0.0645874
0.0216663
0.013999
-0.0419203
-0.0373824
0.0032964
-0.0539874
-0.0529837
-0.108656
0.1125
0.148421
-0.0304471
0.0154207
-0.151089
0.0961255
0.0395432
0.0206079
-0.0654322
-0.0124319
0.0380537
0.018127
-0.0437488
-0.0277568
0.0279657
-0.000208926
0.00946959
0.00681531
0.0146487
0.00539339
-0.0355172
-0.0508913
-0.0316852
0.0915245
-0.0304834
-0.0214316
0.0174476
-0.0527961
-0.0466052
0.0255915
-0.0420371
0.0718676
-0.011178
-0.0534496
-0.0480494
0.00992279
0.0300924
-0.0992016
0.0551522
0.000161805
0.0174847
-0.0232213
0.00261088
-0.0395766
0.0402134
-0.015869
-0.0311088
0.0390881
-0.0484533
-0.00506016
0.0557525
-0.00223899
-0.0493134
0.000860094
-0.0601553
0.00312513
0.0570302
-0.0024582
-0.00667834
-0.0196582
-0.0569493
0.0832858
0.0730856
-0.0921131
0.0859439
0.0700377
-0.0795459
0.0253694
-0.0158612
-0.0394723
-0.0653167
0.0813318
-0.101151
0.0468478
-0.0618354
0.0670428
0.0741119
-0.0793193
-0.0478596
-0.0296001
0.0774597
-0.0474847
0.0405179
-0.00441266
0.0712621
-0.0668495
0.0106239
-0.0451917
-0.0970079
-0.0439489
-0.0172766
-0.00472477
0.0659503
-0.0975989
0.0794201
0.0359461
-0.0177672
0.0433032
-0.00346499
-0.0651728
0.0253346
0.0390599
-0.0393542
0.0605025
-0.0556041
0.023443
-0.0283415
-0.0758729
0.0020857
0.0737872
-0.0841958
-0.00114009
-0.0851542
-0.000409104
0.0867034
-0.095526
0.00202383
0.0935022
0.0278649
0.0766552
-0.0490512
-0.055469
-0.0236903
-0.0509096
0.102465
0.0647613
-0.063851
-0.00091029
0.0964586
0.0117938
-0.0956558
-0.0196283
-0.00057693
0.0771771
0.127827
-0.0246047
0.000888534
0.0821838
0.0822337
-0.105689
0.0975959
-0.0741402
0.0010228
-0.0597484
0.0735102
-0.017503
-0.0152116
-0.0440056
-0.0152346
0.0253872
-0.0675011
0.0421139
-0.00613534
0.00692332
-0.0313752
-0.00568514
-0.0645107
0.069264
-0.0664178
-0.000788015
0.0022051
-0.0686229
-0.0638364
0.0660415
-0.0171935
-0.00670569
0.0500387
0.0887761
0.0220516
-0.0288701
-0.0812033
-0.0280252
0.0494801
-0.0824889
-0.0243029
0.0229137
-0.0626512
0.00551047
0.0718791
-0.0147383
0.00423974
-0.0475609
-0.0209564
0.0642775
-0.0333878
-0.0606804
0.0557979
0.0382704
0.012504
0.0974428
-0.125252
0.0153055
-0.0541614
0.0162428
0.0379187
-0.0907589
0.0619083
0.0156804
0.0120301
0.0686953
-0.0374221
0.0677155
-0.0743657
-0.0509499
0.0576
-0.073169
-0.0163763
0.0475082
-0.0287925
-0.0462634
0.0487902
0.0262657
-0.0470677
-0.00839619
0.0585009
0.00667419
0.0446289
-0.0726792
-0.0157287
0.043779
-0.116108
-0.0439828
0.0573688
0.102722
0.102967
-0.101611
0.00231224
-0.00366873
-0.01251
0.103802
-0.00125983
-0.0900321
-0.0696292
0.079641
-0.0185463
-0.0104607
-0.046955
0.013551
0.0438647
0.0973284
-0.0484695
-0.0488589
-0.0694613
0.00218723
0.0672741
-0.0351539
-0.0609843
0.0419082
0.0231952
-0.0807871
0.0704972
-0.0686923
-0.0397803
0.0736373
0.0348353
-0.0722115
-0.0114623
0.00369345
0.146655
-0.091531
0.0136486
-0.0108352
0.0817035
0.0107709
-0.0816393
0.0426297
-0.0422858
0.00841315
-0.0597685
-0.00322193
-0.00899336
-0.0622637
0.0669886
-0.0039329
0.0040509
-0.0024799
-0.111834
-0.0063355
0.120649
0.000637004
0.125184
-0.127071
0.00125059
-0.0604424
0.00358322
0.00191272
-0.0413886
0.0426286
-0.0779051
-0.0384498
-0.00549774
-0.0371093
0.0575068
0.0339225
-0.05432
0.0993615
-0.0336086
-0.108172
0.0424188
0.0600565
-0.0809409
0.0104236
-0.0612559
0.059484
0.0097072
-0.00793528
0.0224025
-0.0335048
0.10284
-0.091738
-0.0256394
0.00347488
0.0564286
-0.00843646
-0.051467
-0.00179478
-0.00479497
-0.0911099
0.0976997
0.0266602
0.0598784
-0.0935712
0.120862
0.00985168
0.0693617
-0.0673512
0.00969338
-0.0117039
0.0717574
0.0493963
-0.100057
-0.0210971
-0.0602605
-0.000819017
-0.0689213
0.0952103
0.0485808
-0.101815
-0.123255
0.112891
0.112179
0.0646548
0.021293
0.000186461
-0.132875
0.137094
-0.0374251
0.0332063
-0.0811564
0.065881
0.0115551
0.00372021
0.0848395
0.000656955
0.00444202
-0.0899385
-0.0377358
0.0773944
-0.084359
-0.00220004
0.086559
0.0339173
-0.0638816
0.0299643
-0.0634764
-0.0558074
0.0880647
0.0685719
0.00915762
-0.00951178
-0.0682178
-0.0131748
0.0680713
-0.0548965
-0.0836486
-0.02235
0.0517086
0.0542901
0.106383
-0.0373832
-0.0690001
-0.0687974
0.0694344
-0.10018
0.0326517
0.05701
-0.0359342
-0.0537275
-0.0280363
0.0427987
-0.0199906
0.00522817
0.104774
-0.0237749
-0.0176327
0.0884908
0.0785363
-0.122109
-0.0449176
0.036748
-0.0573752
0.0239146
-0.00328738
-0.0208375
0.0319206
-0.115962
0.104879
-0.00276908
-0.0863541
0.00496174
0.0841614
0.11891
0.00280806
0.00014118
-0.12186
0.111967
-0.0014456
-0.108639
-0.00188251
0.0842623
0.00232137
-0.00353449
-0.0830492
0.00782448
-0.0867975
0.043819
0.0384793
-0.0479447
0.0094654
-0.0185944
0.0234498
0.0637166
-0.0373194
-0.0164723
0.0537917
-0.00660032
-0.0895935
0.0566238
0.03957
0.0543626
0.0324218
-0.05741
-0.00580129
0.0860472
-0.0136327
-0.0666132
0.0637644
-0.0681771
-0.0406304
0.0944854
0.00548572
-0.0197419
0.0353265
0.0431184
-0.058703
0.0139251
0.0819147
-0.0874267
-0.0615813
-0.000346065
0.0619274
0.0330747
0.0259689
0.0259912
-0.0850348
0.0622537
0.00142635
-0.0685084
0.00482841
0.0746925
-0.0886478
-0.00370491
0.0176602
0.0486008
-0.0409864
-0.0076144
-0.1149
0.00644707
0.109144
0.0590647
-0.047347
-0.0123581
-0.0659193
0.150624
-0.0723466
-0.0544328
0.0959374
-0.0415045
-0.0725241
0.0361799
0.0363442
0.0507932
-0.0470739
-0.0037193
-0.0122094
0.0873932
-0.0310368
-0.044147
-0.00684737
-0.024627
-0.070341
-0.09659
-0.00359385
0.0815894
0.0332513
0.0346681
-0.0679193
-0.0450168
0.0531968
-0.00818008
0.0550699
0.0526871
0.00314064
-0.0175699
-0.0382579
-0.00924615
-0.0472586
0.0478529
0.0086518
0.000958222
-0.0540389
-0.00379017
0.0875918
-0.0876268
3.49704e-05
0.0550674
-0.093345
0.0891515
-0.00481278
-0.0793311
-0.00500771
0.0867255
-0.128081
-0.0289623
0.0703181
-0.0248957
-0.0522251
0.074405
0.00271585
0.00918246
-0.00836035
-0.0517568
0.0509347
-0.0633599
0.115281
0.0157947
0.0620158
0.0737985
0.0268726
0.0158905
0.065092
-0.0722769
-0.0145646
0.0385993
0.124418
0.00451579
-0.167533
0.0510237
0.0657359
-0.101867
0.0890591
-0.00107493
0.0409544
-0.0262873
-0.0234897
-0.0689872
0.118764
0.0838761
-0.00151573
-0.0823603
0.0399784
-0.012006
-0.107582
0.0796099
0.0373597
0.0335824
-0.0510402
-0.0175239
-0.00803472
0.0765988
-0.000751002
0.0332482
-0.0324972
-0.00392215
0.0560344
-0.00733116
0.00748398
0.0592852
-0.0500115
0.0133846
0.0366269
0.0290125
-0.0841198
0.0717269
-0.0166196
0.14714
-0.0156019
-0.140887
0.00934798
-0.00396878
-0.00572975
-0.10151
0.132357
-0.0176526
-0.0873162
-0.0273887
-0.0803186
0.0395037
0.0408149
0.100868
-0.0170176
0.00433977
0.0604215
0.0634803
-0.0542221
-0.00347314
-0.00578507
0.00776325
-0.0079358
-0.0427353
0.0429078
-0.0402304
-0.0634194
0.0803831
0.044262
-0.013869
-0.0850636
0.0546705
0.00202476
-0.036599
-0.0138248
0.048399
-0.0349571
0.0295684
-0.0664364
0.0718252
-0.0323793
0.0922186
-0.0511023
-0.00351968
0.054622
0.0582564
-0.0141075
-0.0362441
-0.00790479
-0.00124705
0.0680576
-0.0905015
-0.0235356
0.0459794
-0.040045
-0.0896564
0.114383
-0.0114281
-0.0132982
0.0415181
-0.0471762
0.0456142
-0.0274857
0.278212
-0.12821
-0.122517
0.0185891
-0.0731418
-0.00317663
0.0620152
-0.0588386
0.0499516
0.00765139
-0.123788
-0.0878515
0.036816
0.0728856
-0.0218501
-0.0115866
-0.0354762
0.0197472
0.0273156
-0.0606403
0.00133123
-0.0822569
0.0781566
-0.0523803
-0.00161776
0.0539981
-0.0484022
0.0933494
-0.00235104
-0.0919757
-0.0459433
0.0886263
-0.0798491
-0.033521
-0.00102956
-0.100122
-0.0415742
0.0129798
0.0675691
-0.0389747
0.0219087
0.0467215
-0.020319
-0.0483112
-0.00132007
-0.079697
-0.00420323
0.0309042
-0.132714
0.0206537
-0.102241
0.0923184
0.0408263
0.0536029
-0.101888
0.0329544
-0.0307207
-0.0234408
-0.0547723
0.0438107
0.0211065
-0.0101448
0.065816
-0.00577586
0.0185288
-0.0785689
0.0092845
-0.0496637
0.0519505
-0.1313
0.00408974
0.0132755
0.113935
-0.0969369
0.0802377
0.0168331
0.000858935
-0.0680496
-0.0573839
0.124575
0.0901643
-0.0290239
-0.0355928
0.00163255
-0.0949573
0.0933631
0.00187353
-0.0673646
-0.0385945
0.0284777
0.0774814
-0.0863448
0.0600145
-0.020482
0.0468123
-0.0133035
-0.0626896
0.0759932
0.0372863
-0.000743034
-0.00364535
-0.0602633
0.064738
0.0448609
-0.0493356
0.035315
0.048788
-0.0356902
-0.0127063
0.136332
-0.131415
0.0190571
0.0148324
0.035307
-0.0501513
-0.0277438
0.0543923
0.000159761
-0.0916613
-0.11531
0.00116039
0.0840001
0.030149
-0.0448914
-0.027716
0.0733596
0.130536
-0.0706658
-0.133229
-0.00772014
-0.072591
0.0803111
0.11798
0.0871612
-0.0931736
-0.0730135
-0.00353282
-0.00184289
0.0783892
-0.00565839
0.0858133
-0.0703234
0.0644328
-0.0245001
0.000503289
-0.0718939
-0.003804
0.0895131
0.0151588
0.0229536
0.0498135
-0.0727671
-0.0816246
0.0380953
0.0393309
-0.0469212
0.0106889
-0.00309863
-0.0290675
-0.0199693
0.0603045
-0.00100423
0.0401343
-0.0465118
0.0578544
-0.0514769
-0.0211825
-0.017601
0.0789178
0.0660647
-0.0597842
-0.00454881
-0.00173165
0.00516251
0.0521507
-0.0961201
0.0378075
0.0519355
0.039033
-0.0476107
0.0507935
-0.0422158
0.0932651
-0.10525
0.0244885
0.00960241
-0.0468309
-0.103858
0.141086
0.0307032
-0.0296138
-0.0733009
0.109466
0.0165782
-0.102849
0.00641213
0.0597192
0.00591028
-0.0660674
0.0826137
-0.0224566
-0.0502721
0.0131416
0.108669
-0.0715387
-0.0639656
-0.0735467
0.0582218
0.0375888
-0.0222638
-0.0201446
0.109103
-0.00536117
-0.0888896
0.0697912
0.0532227
-0.0341243
0.0468446
0.0743415
-0.0746664
-0.0465197
0.00547365
0.0112717
0.0505451
0.0575845
0.0335408
-0.0288373
0.091467
-0.0961704
-0.101026
0.0857266
0.015299
-0.0231309
-0.0277088
-0.057167
0.0146029
-0.0703381
0.0396826
0.0980082
-0.0673527
0.0224028
-0.0225149
-0.05806
0.0581721
-0.0404903
-0.0359953
0.03676
0.0536116
-0.105075
-0.0346988
0.0861624
-0.0208131
0.0248817
0.0815893
-0.0200729
-0.0358006
-0.0952981
0.151172
0.0452698
-0.0506423
0.0308608
0.0166634
-0.0380546
0.0232902
-0.0753252
-0.0531043
0.0531092
-0.0493693
0.0825772
-0.135411
0.0193291
-0.161815
0.0782829
0.0180271
0.0655046
-0.0399741
0.0463895
0.110988
-0.117597
0.0220054
-0.0153966
-0.0965679
0.00904835
0.0696742
0.0178453
-0.127081
0.0772438
-0.0188552
-0.102108
0.0174921
0.0218067
0.0628089
0.0029326
-0.0991097
-0.00604515
-0.0716659
0.0715368
0.00012907
-0.0726896
0.00102372
0.0492394
-0.0524748
0.0336803
-0.0805409
0.0622812
0.0644745
-0.0635504
0.00135321
-0.00227729
0.00328055
0.0134717
0.0477223
-0.0509759
0.00166249
0.0104745
0.0899797
-0.0217832
-0.0786711
0.0123965
0.0458164
-0.0582129
0.0617128
0.00236719
0.0115857
0.0489501
-0.12514
-0.00557659
-0.0803406
-0.0170991
-0.0841993
-0.0349403
-0.0382287
-0.0473652
0.0842155
-0.0368503
-0.0493968
-0.00357583
0.00699854
0.0459741
0.091957
0.00263411
-0.109287
0.0146958
0.00502468
0.0168884
0.0462663
-0.0122091
-0.0584569
0.0593254
0.0113406
0.0486797
-0.0649288
0.0212738
-0.0715428
0.0203135
0.0567029
0.0416548
0.00530935
-0.0591732
-0.0346692
0.0169918
0.00282199
-0.0910021
0.0725368
0.0156433
0.0469595
0.0212912
-0.0642076
0.0553073
-0.0275966
-0.0421683
-0.0101038
0.0536187
-0.00134657
0.0869934
0.00787005
-0.0948634
0.0743431
0.0763947
-0.0233486
-0.127389
0.0280423
-0.0269087
-0.123374
0.120434
0.0240661
-0.0211262
-0.0344722
-0.0430019
-0.0341789
-0.0301255
0.0763345
-0.0805228
0.0130066
-0.000604585
0.0688375
-0.0740088
-0.0859073
0.00538457
0.00472486
0.0944889
-0.120027
0.00743928
0.12637
0.135349
-0.107178
0.000795405
-0.0289664
0.0357021
0.0389904
0.0216646
0.0802954
0.0387856
0.0534753
-0.0305481
0.025983
-0.0643698
0.0383868
0.106001
-0.0605936
-0.0833639
0.0379566
0.00574557
0.117568
-0.108717
-0.0145972
0.0101597
-0.00786227
-0.0395338
-0.00289332
0.0424272
-0.00623946
-0.0506131
0.0603275
0.0582018
-0.087007
0.0265665
0.0536225
0.00483659
0.0800864
0.0762178
-0.0158332
-0.140471
0.0428827
-0.0678233
0.0717918
-0.0468511
-0.0198193
0.0205757
0.0337659
0.0950309
-0.105156
-0.00584449
-0.106248
0.07153
0.0142884
0.100133
-0.0397042
-0.0747173
0.092795
0.00260247
-0.0891284
-0.00626905
0.0439003
-0.00586685
-0.0421029
-0.000478713
0.0792197
-0.000694049
-0.0719956
-0.00261305
0.0669923
-0.0643792
0.0837156
0.0194922
-0.054528
0.00177561
0.0842327
-0.0791914
0.0344486
-0.102397
0.103694