/*--------------------------------*- C++ -*----------------------------------*\
| =========                 |                                                 |
| \\      /  F ield         | OpenFOAM: The Open Source CFD Toolbox           |
|  \\    /   O peration     | Version:  2506                                  |
|   \\  /    A nd           | Website:  www.openfoam.com                      |
|    \\/     M anipulation  |                                                 |
\*---------------------------------------------------------------------------*/
FoamFile
{
    version     2.0;
    format      ascii;
    arch        "LSB;label=32;scalar=64";
    class       volVectorField;
    location    "0.00481384";
    object      U;
}
// * * * * * * * * * * * * * * * * * * * * * * * * * * * * * * * * * * * * * //

dimensions      [0 1 -1 0 0 0 0];

internalField   nonuniform List<vector> 
3919
(
(9.66435 0.131212 -0.25367)
(9.68369 0.236128 -0.0648861)
(10.0063 0.307425 -0.136841)
(10.0173 0.273591 0.293622)
(9.85041 -0.156729 -0.267724)
(8.74945 0.0426389 -0.226173)
(10.0127 -0.438727 0.575437)
(9.74483 -0.0614042 -0.0290096)
(10.5173 -0.312088 -0.0465762)
(9.83979 -0.0576623 -0.0670682)
(9.82698 0.550106 -0.0394191)
(9.20439 0.23657 0.325206)
(10.0685 1.5289 0.0541781)
(10.1457 -0.397697 0.629984)
(8.82458 -0.366539 0.469566)
(9.95216 0.350524 -0.135962)
(9.99012 -0.0868311 0.269873)
(10.2953 -0.174947 0.471677)
(9.56632 -0.485568 1.00734)
(9.63405 1.05411 0.0643483)
(10.6272 0.0234276 0.236256)
(9.45286 0.411458 -0.0411453)
(10.3076 -0.0221121 0.43101)
(9.97276 -0.102359 -0.146178)
(10.0042 0.302897 0.388603)
(9.85528 -0.617929 -0.348283)
(10.1463 0.502554 -0.733203)
(9.68845 0.640578 -1.41973)
(9.8522 -0.822945 0.138297)
(9.3432 1.9129 -0.737664)
(9.9395 0.281411 -0.747712)
(9.88055 -0.114686 1.04136)
(10.1099 -0.280746 -0.0489425)
(8.79059 -0.336852 0.272405)
(8.72257 -1.44534 -0.219388)
(10.0151 0.0321594 -0.0175129)
(9.10075 0.0420399 0.783531)
(9.5745 -0.607676 -0.278169)
(9.99025 -0.508672 -0.451287)
(9.11531 -0.613845 0.413879)
(9.58579 0.190976 -0.886212)
(9.87844 -0.559973 1.34152)
(9.054 -0.0657449 0.354864)
(10.066 -0.155629 0.238563)
(9.66719 0.0733361 -0.394614)
(9.73259 -0.222125 -0.97415)
(9.92715 0.729175 -0.00265261)
(9.59519 -0.388966 0.498843)
(9.03096 -0.300909 -0.842341)
(9.47669 0.0847693 0.641584)
(9.55961 -0.594415 0.36265)
(9.93143 0.314712 0.0734291)
(9.62154 -0.615448 0.374146)
(9.51438 -0.136569 0.784189)
(8.75885 -0.311627 -1.05139)
(9.77778 0.274249 -0.221636)
(9.35315 0.993117 1.3231)
(10.7618 -0.464011 0.746423)
(10.06 0.475086 -0.522184)
(10.1333 0.121898 0.210369)
(10.1129 0.388027 -0.260541)
(9.50711 0.326153 0.312458)
(9.67933 -0.572446 -0.477692)
(9.4405 0.567961 -0.0762402)
(10.0562 -1.222 0.283823)
(9.74851 0.354421 0.0271877)
(9.88293 -0.443129 0.399381)
(9.28205 -0.802126 0.90165)
(9.76046 0.259035 -0.0785757)
(9.92772 0.239071 0.501157)
(9.75334 -0.0565751 0.727224)
(9.57878 -0.176379 0.0162092)
(9.83957 -0.178081 -0.316484)
(9.91407 -0.122784 0.211241)
(10.1412 0.47598 1.06593)
(10.1876 0.677031 0.360557)
(9.46164 0.00447098 0.237627)
(9.71993 0.214887 0.573003)
(9.8163 0.171066 -0.210025)
(9.71571 -0.226001 1.40332)
(9.38299 -0.0211049 -0.0445274)
(9.68639 0.81627 0.0516645)
(9.61252 0.101554 0.286686)
(9.71309 -1.30045 -0.264069)
(9.5474 -0.232523 1.04237)
(9.61489 0.501705 -0.979389)
(10.5082 0.0442797 -1.04936)
(9.78497 -0.0772085 0.292553)
(9.41792 0.167686 -0.790111)
(10.2329 0.586767 0.93764)
(10.367 0.0972783 -0.0731798)
(10.2584 -0.633689 0.0746204)
(10.1463 -0.642093 -0.0264296)
(9.85937 -0.189291 -0.179258)
(10.2736 -0.837658 0.13187)
(10.0274 -0.917494 0.149113)
(10.4476 -0.0134184 0.16434)
(10.1964 -0.452805 0.618828)
(10.157 -0.702795 0.257247)
(10.0757 0.407838 -0.089198)
(10.3956 0.207117 -0.267012)
(9.88003 0.706744 -1.27474)
(10.0556 1.81176 -0.549375)
(9.73374 0.873631 -0.241774)
(9.85842 -0.0198555 0.452149)
(10.2274 0.0336764 0.87787)
(9.89194 -0.314145 -0.580237)
(9.9771 -0.0602057 0.176971)
(10.1672 -0.80544 0.680653)
(10.2888 0.280623 0.0315754)
(9.3258 -0.630495 -0.413576)
(9.05867 -0.310687 -0.664182)
(10.2807 -0.476849 0.118276)
(9.89132 0.536153 -0.106602)
(9.41648 -1.1359 0.289128)
(9.95217 -0.453717 -0.749675)
(9.77144 -0.0875825 -0.595721)
(10.178 0.509978 -0.060763)
(9.66524 0.781922 0.570697)
(9.64566 -0.294046 -0.365162)
(9.69678 -0.410737 -0.588386)
(9.04302 0.667934 -0.24812)
(9.2677 -0.321076 -0.373629)
(10.1189 -0.231386 0.381071)
(9.97115 -0.610843 -0.039833)
(9.67867 -0.308876 1.04934)
(9.78117 0.354708 -0.288232)
(10.2549 -0.169504 0.500695)
(9.65075 0.930335 0.0449863)
(9.85121 0.0310798 -0.647732)
(9.04144 -0.285243 -0.656544)
(10.1566 -0.222866 0.0955045)
(10.2557 -0.0575494 -0.0549751)
(10.2652 0.117937 0.220224)
(9.93333 0.838898 -1.18244)
(10.0962 -0.125117 0.56189)
(9.41697 1.13945 -1.34431)
(10.2764 -0.370252 -0.264309)
(9.91336 0.268251 -0.666854)
(10.0385 0.806414 0.732413)
(8.17593 -0.156157 0.0428055)
(9.94638 -0.275016 0.180861)
(9.77264 0.517335 -0.640345)
(9.59515 -0.184345 -0.290039)
(9.63294 -0.757471 -0.704237)
(9.9275 -0.278298 0.765645)
(9.55243 1.03249 0.280818)
(10.2396 0.125443 -0.0810848)
(10.0596 0.60411 -0.0314906)
(8.2109 -0.282418 0.21905)
(10.1627 -0.79318 0.393645)
(10.091 -0.0541682 -1.21028)
(8.43541 0.253527 -0.348642)
(9.80232 -0.0778307 -0.22573)
(9.84437 -0.492814 0.0374049)
(10.1676 0.332175 0.950053)
(9.09545 -0.262057 0.144508)
(10.2889 -0.14171 -0.00801143)
(9.95722 0.216177 0.294092)
(10.0307 -0.270584 -0.19593)
(9.63605 0.116793 -0.691052)
(9.66078 0.254761 0.390227)
(10.2258 0.539565 -0.0937827)
(9.52955 0.0446547 -0.123766)
(9.51235 0.129725 -0.507268)
(9.88324 -0.752834 -0.390508)
(10.2088 -0.664953 -0.279204)
(9.87117 0.524875 0.937328)
(10.2094 0.340982 0.883461)
(9.47148 1.3837 0.36159)
(9.71729 -0.114042 0.300955)
(9.63989 0.534905 0.566921)
(9.49541 0.261932 -0.0281936)
(9.4793 0.038634 0.314305)
(10.384 1.14981 -0.00622952)
(9.41919 0.46788 0.251215)
(9.99396 -0.227139 -0.0995013)
(9.49767 0.54506 0.143818)
(9.83403 -0.612809 0.41214)
(9.51548 0.206504 -0.12848)
(9.50247 -0.377485 -0.602917)
(9.1648 -0.0784491 -1.10887)
(10.0005 -0.172697 -0.224277)
(9.44751 -0.690949 -1.01837)
(9.52814 -0.755382 0.58613)
(10.09 -0.0627695 -0.051155)
(9.1527 0.556746 -1.05545)
(10.6786 -0.177076 0.823006)
(9.93074 -0.184096 -0.394386)
(9.85425 -0.0257068 -0.87045)
(9.75342 -0.0536084 0.355174)
(8.32015 0.429038 -0.257373)
(9.6315 -0.362921 -0.431959)
(9.89636 0.269639 0.75934)
(8.98688 0.338826 0.188823)
(9.97243 0.0658649 -0.926224)
(9.77481 -0.0191779 0.319642)
(9.92121 -0.113986 -0.631411)
(9.46995 0.389748 -0.690507)
(9.74397 0.172249 -0.210837)
(9.0046 -0.723233 1.31721)
(9.6351 -0.0390978 -0.52451)
(9.89888 0.440755 0.881683)
(9.30478 -0.446415 -1.15277)
(10.0333 -0.44708 -0.821769)
(10.1053 -0.313026 -0.618862)
(9.64774 -0.410077 -0.334766)
(9.23788 0.359061 0.0680774)
(10.1606 -0.119031 0.551555)
(10.5618 -0.0886742 -0.281143)
(9.86786 -1.05111 -1.52171)
(10.0271 -0.540802 -0.130535)
(10.0515 -0.11996 -0.214702)
(8.81949 -0.115406 0.0262435)
(10.2458 0.278286 0.0839392)
(10.1156 0.0302695 0.469488)
(10.2053 -0.669746 -0.58347)
(10.1661 -0.235025 0.331438)
(10.2195 0.34611 0.512725)
(9.56369 0.674961 0.291489)
(8.89113 0.20276 -0.222535)
(10.1973 -0.358018 -0.0451572)
(9.85222 0.249289 0.167204)
(9.1418 -0.757859 0.293192)
(9.8971 -0.864737 -0.0621288)
(10.2107 -0.332048 -0.140701)
(10.3113 0.102067 -0.0252647)
(9.55473 1.06607 0.457218)
(10.4093 1.19669 0.274785)
(8.95823 0.305947 -0.433349)
(10.0634 0.736197 -0.186026)
(10.1606 -0.190519 -0.0486905)
(10.0671 0.663909 0.555877)
(9.98101 -0.0990882 0.544066)
(10.0544 -0.587312 0.30133)
(10.1331 0.302103 -0.250548)
(9.51589 -0.317695 0.0855771)
(9.24857 0.0952002 -0.551058)
(9.60185 -0.49086 0.417412)
(10.4847 0.390097 0.390639)
(10.8018 -0.777346 0.220369)
(9.63044 1.14395 -0.442044)
(9.0194 -0.648799 0.495246)
(8.50789 -0.306568 0.797244)
(10.2775 0.377719 0.59568)
(9.99805 -0.0801487 1.27122)
(9.52375 -0.152261 0.0049005)
(10.1202 0.355917 0.393496)
(9.11127 -0.2379 -1.29087)
(9.04667 -0.0160752 1.44437)
(9.73843 -0.607016 0.408912)
(9.51657 0.176825 -0.792704)
(9.97306 -0.272676 0.183617)
(9.32523 -0.17799 0.477029)
(9.26044 -1.08802 -0.772818)
(10.4203 -0.112173 0.676364)
(9.38887 -0.860576 -0.796267)
(9.71772 -0.161239 -0.0980942)
(9.92429 0.00159642 0.519769)
(9.92138 -1.17749 -0.151095)
(9.31527 1.07714 -0.120403)
(9.64277 0.207759 0.792198)
(10.2837 -0.030073 -1.90101)
(9.22296 -0.891163 -1.63056)
(10.181 -0.0457852 -0.220783)
(9.88936 -0.16532 -0.0232377)
(9.70187 -0.11032 -0.574125)
(9.88642 -0.647141 -0.556829)
(9.61565 0.360195 -0.131609)
(9.64646 0.12923 -0.147979)
(9.81571 -1.04143 0.465612)
(10.3373 -0.35812 -0.0306809)
(9.87035 1.44766 0.677097)
(10.1771 0.944979 -1.28103)
(9.36107 -1.1494 -0.71191)
(10.5103 0.247485 -0.0938562)
(9.54746 -0.344347 0.377858)
(9.65291 0.45546 0.577867)
(10.1917 -0.465718 -0.170312)
(9.50996 -0.245816 0.333717)
(9.95554 0.024983 -0.388617)
(10.6505 -0.21081 -0.216447)
(10.0288 -0.132537 -0.24757)
(9.90765 -0.258029 -0.20046)
(9.67523 -0.331787 0.0962914)
(9.86973 0.220099 0.497725)
(9.70299 0.713076 -0.369921)
(9.23579 -0.0326903 -1.5106)
(9.68056 -0.159169 0.0958321)
(9.82305 -0.48304 -1.13306)
(9.71987 0.133389 0.0103295)
(9.60213 -0.585839 -0.787865)
(9.45206 0.42223 -0.671482)
(9.65683 -0.426782 -0.894929)
(9.74572 -0.209613 1.7805)
(9.85713 -0.251863 0.325965)
(10.2704 -0.204041 0.688486)
(8.74837 -0.472575 0.688923)
(9.85308 0.182533 0.0221461)
(9.67588 0.738036 -0.398083)
(9.70518 0.00968003 -0.520782)
(9.47527 -0.160549 1.0474)
(10.5852 -0.742247 0.507711)
(10.1643 -0.169623 -0.174925)
(9.67906 -0.029757 -0.104256)
(9.64187 -0.0917472 -0.110724)
(9.97195 0.260832 -0.354631)
(8.95229 -0.713066 1.06073)
(9.3544 0.337485 -0.820362)
(10.1172 0.0274225 -0.0447798)
(9.72427 0.631231 -0.599214)
(9.95704 0.16576 -0.0493842)
(9.99505 -0.425051 0.370396)
(9.83487 0.401651 0.892976)
(10.1936 0.139287 0.677014)
(9.57573 -0.142035 0.445952)
(9.57151 0.342769 -0.424309)
(9.84224 0.280802 0.558507)
(10.5347 -0.0406553 -0.161628)
(9.86223 -0.467304 -0.10582)
(9.42848 -0.0249318 0.447341)
(9.00808 -0.201459 0.555052)
(9.38973 0.790441 -1.30801)
(9.82782 -0.638539 0.0190896)
(9.60233 0.388925 0.196628)
(9.45526 0.393091 -0.690217)
(9.09389 -0.424048 1.22935)
(9.46528 0.351252 0.756356)
(9.736 0.409362 0.120409)
(9.67564 0.0612271 0.3927)
(10.4235 0.143508 0.457718)
(9.65989 0.130259 0.0972094)
(8.96657 -0.220688 0.0313224)
(9.81326 0.847633 -0.485583)
(9.94904 0.5214 -0.117949)
(10.0038 0.0634461 0.770711)
(10.0886 -0.246419 -0.318907)
(10.099 0.653967 0.0695533)
(10.5 0.189015 -0.248311)
(8.72689 -1.04373 0.453582)
(9.51932 0.248784 -0.78711)
(9.25095 -1.01641 -1.27073)
(9.73664 0.646215 -0.0774793)
(10.0615 0.123466 0.373482)
(9.46715 0.574802 0.144829)
(9.61036 0.594414 -0.606591)
(10.1709 -0.235738 0.587027)
(9.34974 -0.216532 -1.30634)
(10.5006 0.0137916 -0.187261)
(8.45099 -0.801825 0.286426)
(9.07414 -0.485795 -0.239652)
(9.01085 0.596368 -0.245784)
(9.95542 -0.539123 0.369392)
(9.58499 0.591704 0.593175)
(9.34309 -0.621002 -0.734649)
(9.37328 -0.662858 -1.13703)
(9.92511 -0.267681 0.199844)
(9.75683 0.585606 0.868512)
(10.3413 -0.206662 0.281806)
(9.98344 0.454638 -0.256529)
(9.30901 0.164309 0.354923)
(10.4294 -0.316385 -0.93776)
(10.5699 -0.641887 -0.525531)
(10.1248 0.132311 -0.113498)
(9.86302 0.390684 0.287497)
(10.1175 0.12984 -0.198036)
(9.66723 -0.354407 0.456583)
(9.51652 -0.422837 0.544474)
(9.02558 -0.0961628 -0.689121)
(9.93173 -0.312294 -0.178638)
(10.043 0.746921 0.357328)
(9.7774 -0.50796 -0.384748)
(10.1458 0.269582 -0.990276)
(9.74185 0.372061 0.352433)
(9.57807 -0.0880235 0.221895)
(10.0489 -0.227828 -0.178856)
(10.0005 0.166698 0.255434)
(10.3267 0.301842 0.322062)
(9.88162 0.0409911 0.493585)
(8.73623 -1.2715 0.548874)
(10.4847 0.403613 -0.552752)
(9.74706 -0.60341 0.105251)
(10.0969 -0.304463 -0.811896)
(8.7129 0.717555 0.802726)
(10.161 0.186952 0.320571)
(10.0848 0.177736 -0.0771573)
(9.75594 0.46946 0.048482)
(9.81724 0.0788304 -0.278594)
(8.74847 -1.2131 -0.302503)
(9.90107 -0.530464 0.440148)
(10.274 -0.243048 0.552799)
(10.1232 -0.17643 0.0884816)
(9.72689 -0.556531 -0.43186)
(9.52668 0.7154 0.818096)
(10.2383 -0.169788 0.286519)
(9.30702 0.6174 0.0308507)
(10.0861 -0.0459146 -1.49579)
(9.44675 0.737844 0.0189497)
(10.1321 1.01556 1.16854)
(10.1216 -0.00429021 -0.136705)
(9.56238 0.218995 0.677829)
(10.4758 -0.368934 1.69542)
(9.53034 0.365168 0.326742)
(10.1631 -0.42326 0.41212)
(10.0314 -0.182239 -0.411468)
(9.65426 0.770272 -1.15177)
(9.3049 0.672039 -0.850903)
(9.96042 0.31702 -1.17686)
(9.95411 -0.796232 -0.0252663)
(9.25446 -0.664801 -1.24066)
(9.08481 0.0531919 -1.12882)
(9.61709 -0.587195 1.03735)
(10.4633 0.194742 0.112223)
(10.2415 -0.365354 0.373671)
(9.70895 -0.206344 0.435704)
(9.66397 0.568488 -0.189585)
(9.80913 0.365349 -0.0898264)
(10.4787 -0.799642 -1.5705)
(8.82406 -0.329585 -1.70018)
(9.67776 0.355297 0.175885)
(10.0883 -0.811958 0.22124)
(9.80322 -1.23052 -1.36598)
(9.91726 -1.54333 -0.319328)
(10.0068 0.424586 -0.00136147)
(8.83753 0.820131 -1.03734)
(10.268 -0.276586 0.335599)
(9.9185 -0.251787 0.590233)
(10.3039 -0.533437 -0.486812)
(9.98147 0.599625 0.0933107)
(9.96392 -0.366046 0.337242)
(9.85907 -0.225968 -0.848945)
(10.2063 -0.56121 -1.14783)
(9.36182 0.743074 -1.06981)
(10.3123 0.241431 -0.276309)
(8.80285 -0.232762 -1.22831)
(9.80679 0.298713 -0.157348)
(9.38189 -0.0425645 0.793246)
(10.2887 0.29127 0.481906)
(9.70017 0.453947 0.132033)
(9.6169 -0.834239 -0.264907)
(10.2281 -0.0349584 -0.454655)
(9.60494 -0.895329 -0.684499)
(9.77582 -1.02882 -0.846428)
(9.29849 1.49012 0.273021)
(9.94751 -2.22778 0.711978)
(10.388 -0.191206 0.225027)
(10.2999 0.599407 -0.33709)
(10.3286 0.416307 0.372235)
(10.5907 0.639772 -1.68944)
(9.4691 -0.694501 -1.08918)
(9.90623 0.341386 -0.854379)
(9.92333 -0.365929 0.854425)
(9.86412 0.0246892 -0.0246705)
(9.59182 0.306597 0.228312)
(8.03514 -0.97986 -1.04631)
(8.6027 -0.786735 -1.17002)
(9.77426 0.395063 0.42505)
(10.3167 0.37428 0.368049)
(9.76309 0.0832783 -0.110025)
(9.15709 -1.03935 -0.732518)
(8.70229 -0.858705 0.330446)
(10.5823 0.753341 -1.10568)
(9.65841 0.965611 0.781958)
(9.79152 0.0291004 0.121389)
(9.14137 0.977306 0.807018)
(9.90607 -0.152114 0.082676)
(10.0771 0.21654 0.0527197)
(10.1107 0.204568 -0.0393587)
(9.13633 0.188952 0.246555)
(10.0414 -0.399329 0.0434042)
(9.10682 0.0424653 -0.165871)
(9.69261 -0.130096 -0.288786)
(9.93419 0.0845355 -0.200422)
(9.62562 0.823285 0.0497876)
(9.23652 -0.578919 0.30902)
(9.37987 -0.812617 -1.4481)
(10.1717 -0.447227 -0.033651)
(10.2067 0.00887369 -1.06741)
(9.81248 -0.582051 0.444403)
(9.46178 0.143071 1.29608)
(9.28519 0.671056 -0.209746)
(9.56374 0.653565 0.846732)
(9.55555 0.141595 0.615367)
(9.12599 0.711057 -0.642256)
(9.41469 0.787162 0.179244)
(9.16833 -0.156217 -0.770031)
(9.08247 -1.17748 -0.31445)
(9.50834 -1.07198 0.431212)
(9.77544 -0.111032 -0.195415)
(9.77206 -0.451469 -0.49175)
(9.9219 -0.0805983 -0.446443)
(8.92709 -1.01914 0.0559375)
(9.49604 0.795748 0.53601)
(9.86709 0.83796 0.599506)
(10.0363 0.0288284 0.167965)
(9.83117 -0.226903 0.146379)
(9.2501 0.522277 0.120049)
(10.2833 0.093543 0.325142)
(10.0655 -0.139708 0.187443)
(10.1984 -0.441448 0.157536)
(10.1193 -0.525548 0.553209)
(9.89404 0.321279 -0.589122)
(9.12395 -0.357368 -0.185331)
(10.0825 0.592699 0.214366)
(9.77396 0.141703 0.409339)
(9.02224 0.0386404 0.592863)
(10.2633 0.383784 -0.812609)
(10.2165 -0.425841 0.344365)
(10.0623 0.177894 0.190651)
(10.2544 -0.00214248 0.245214)
(9.99506 -0.638307 0.178402)
(9.5553 -0.523487 -0.599182)
(10.2768 -0.120077 -0.601171)
(9.93328 -0.0380397 0.684139)
(8.02278 0.788845 0.292967)
(10.3287 -0.169674 0.801078)
(10.3596 -0.825799 -0.423348)
(10.4486 -0.0669813 0.471064)
(9.17649 0.0755438 0.211515)
(10.383 0.40895 -0.401836)
(10.3436 -0.621726 -0.211334)
(9.38459 -0.189158 0.616681)
(9.93637 -0.0662089 -0.193998)
(9.7448 -0.0272694 0.222012)
(9.84209 0.223277 1.26867)
(9.54605 0.248248 0.679942)
(9.91223 0.0993149 -0.246018)
(9.85238 0.524202 -0.227826)
(9.28645 -1.28512 0.270645)
(8.65624 1.07924 -0.710797)
(9.12509 0.522562 -1.37094)
(10.5035 0.00596756 -0.987741)
(9.82832 -0.98434 -0.990567)
(9.80722 -0.0981263 0.146641)
(9.83283 -1.3425 -0.420558)
(10.2247 0.418253 -0.960966)
(9.26005 -1.34935 0.168747)
(9.20248 -0.258879 0.629526)
(10.0962 0.445954 0.138316)
(9.96866 -0.0442036 0.234152)
(10.3819 -0.129109 -0.634387)
(9.74791 0.295876 0.405546)
(10.0198 -0.19505 0.832499)
(10.3362 0.529824 -0.64175)
(9.20935 0.49941 0.450507)
(10.4555 -0.0644333 0.90344)
(9.95079 -0.223708 -0.417916)
(10.1841 -0.262278 0.140759)
(9.93595 0.174936 -0.428017)
(9.43692 -0.501947 -0.713871)
(9.94851 -0.587668 -0.277309)
(10.5353 0.125452 -0.204905)
(10.2041 0.209301 -0.371134)
(9.99497 -0.0619513 -0.0741634)
(9.78888 1.91801 0.543439)
(10.4281 -1.24199 -0.589209)
(10.1992 0.582263 -0.244416)
(8.81103 0.895796 -0.496641)
(9.68421 -0.194408 -1.01361)
(10.4101 0.957358 -1.12036)
(9.44091 0.280528 -0.954707)
(9.997 0.501722 -0.05996)
(10.2595 -0.0714061 -0.217952)
(9.57575 -0.257768 -0.166962)
(9.8808 -0.348962 -0.113477)
(10.0515 1.08235 0.102836)
(9.98287 0.308611 0.809954)
(10.599 0.0527488 0.761013)
(8.93913 -0.383534 -0.879195)
(10.2103 -0.0173367 -0.0342074)
(10.0735 -0.51898 -0.080849)
(9.94918 0.616772 -0.131265)
(10.4934 0.0233422 -0.193861)
(9.13971 -0.150969 0.881274)
(9.84267 -0.865431 0.141691)
(9.83665 0.401313 0.200114)
(9.44799 1.14198 0.431996)
(9.5539 -0.164128 0.343954)
(10.4845 -0.36277 -0.635468)
(10.0822 1.9208 0.68224)
(8.9843 0.694873 -0.230471)
(8.69757 -0.943422 0.235707)
(9.91211 -1.61032 0.413878)
(10.1896 -0.324317 0.0719908)
(9.04434 -0.733692 -0.423356)
(10.4296 0.259199 -0.851709)
(9.61827 -1.21592 0.837681)
(10.5916 -0.151913 -0.676018)
(10.3521 -0.0121612 -1.54789)
(9.42865 0.124698 -0.179072)
(10.1769 0.211101 -0.146865)
(10.1054 -0.161024 -0.17183)
(10.0981 -0.562639 0.294815)
(9.30005 0.689959 -0.112671)
(10.4407 -0.400978 -0.0893935)
(10.7966 0.489167 -0.0702011)
(9.61495 -1.20201 0.682769)
(10.0031 1.7002 -0.341441)
(9.62917 0.912511 0.989943)
(7.13418 -1.48978 -0.365274)
(10.1363 -0.21918 0.753542)
(10.5847 0.232261 0.100416)
(9.70086 0.699887 0.574308)
(9.07383 0.0654854 -0.78142)
(9.98333 -0.455661 -0.103854)
(10.3182 0.00920002 -0.177549)
(10.1342 -0.503475 0.169799)
(10.1109 -0.538165 -0.966555)
(9.51231 0.175893 -0.533306)
(9.4418 -0.553371 0.376719)
(10.5248 0.292497 -0.139758)
(9.61718 0.235938 -0.0672908)
(9.9681 -0.0334996 0.228494)
(10.2316 -0.0305903 0.0709071)
(9.49024 -0.102468 -0.180389)
(9.70169 0.0453867 0.397537)
(10.3269 0.599776 0.356874)
(9.96485 -0.688017 1.37164)
(9.60276 -1.21237 0.174952)
(9.98262 -0.24382 0.00776355)
(8.93825 -0.231981 -0.479083)
(10.5579 -0.292864 0.107467)
(9.78048 0.370154 1.05149)
(9.5206 -0.0529167 -0.429071)
(9.41116 -0.383986 -0.781646)
(9.83456 -0.100895 0.37772)
(10.703 -0.307664 -0.587241)
(9.86515 -0.404342 0.47425)
(10.0756 -0.336465 0.786489)
(9.80967 -0.618636 0.158027)
(9.1799 0.351284 -0.870322)
(10.0451 -0.0262335 0.0814088)
(8.83858 0.83255 0.174672)
(10.1167 -0.400544 -0.258031)
(10.2754 0.501562 -0.21857)
(9.51525 0.647451 0.135061)
(9.88463 0.149026 -1.22664)
(10.2039 -0.20019 0.524733)
(10.5901 0.881215 0.408148)
(10.0711 0.846106 -0.376008)
(10.1299 0.23816 0.576645)
(10.2499 0.484113 0.407892)
(9.47703 1.11843 -0.0524729)
(9.50646 -0.4679 -0.0743119)
(9.35231 0.428523 -1.01641)
(9.28318 -0.14061 0.0236359)
(9.31886 0.0268192 0.831308)
(10.4804 -0.823478 -0.534907)
(9.40928 1.0842 -0.155963)
(9.81646 0.23171 0.0287403)
(9.66798 -0.728452 0.0615733)
(10.3835 0.553017 -0.709788)
(9.88677 0.965409 -0.995703)
(8.98385 0.155493 -0.372089)
(10.7862 0.295525 -0.275837)
(9.30505 -0.473278 -1.15652)
(10.2396 0.872778 0.168838)
(9.18207 -1.58612 0.186741)
(9.62028 -0.118476 -1.3455)
(9.96344 0.625237 0.620573)
(9.82442 -0.887279 0.215919)
(10.4965 0.00310074 0.958709)
(9.89864 -0.311239 -0.621115)
(10.8955 -0.305445 0.0620622)
(10.2283 -0.00337397 0.217224)
(9.46587 0.106458 0.404795)
(8.68964 1.79055 0.646176)
(9.82224 0.665682 -0.96538)
(9.77381 -0.0627457 -1.03713)
(9.98753 0.179729 0.581325)
(10.3368 0.35305 -0.095819)
(9.45924 -0.438186 -0.18748)
(9.58139 -0.965753 -0.62698)
(9.05076 0.433129 -0.731214)
(10.0988 -0.271697 -0.0389111)
(9.85432 0.670152 0.918347)
(10.5327 0.474871 -0.186713)
(9.55634 0.346653 -0.43818)
(9.09923 0.811213 -1.44912)
(9.72223 0.205936 -0.151294)
(10.1068 -0.266907 0.778275)
(8.91431 -0.399701 -0.671393)
(9.35086 0.335738 0.193572)
(9.83766 -0.0999073 0.180797)
(9.89753 0.212662 0.272076)
(9.63375 0.588023 0.325011)
(9.80872 0.212056 -0.304344)
(9.77753 0.945561 0.373704)
(10.0973 0.541871 0.241748)
(9.84536 0.60969 0.548377)
(9.96224 -0.293886 1.83036)
(9.18714 0.0071522 -0.301602)
(8.7396 -0.582337 0.813725)
(9.74385 -0.444309 0.101746)
(10.4846 -0.30887 -0.738363)
(9.95692 0.189341 -0.19738)
(9.93198 -0.0908227 0.122479)
(9.80776 0.0854901 -0.0211424)
(10.0173 -0.199511 0.878744)
(9.88455 -0.00444395 -0.971328)
(10.0801 -0.889525 1.13801)
(8.96873 -0.564368 0.508326)
(9.09704 1.20582 -0.485251)
(10.2289 0.352838 0.812443)
(10.2189 -0.417134 -0.481567)
(9.68677 0.364375 -1.04848)
(9.96023 0.721456 0.339627)
(9.22665 -0.402667 0.0494009)
(9.76037 -0.0182652 0.367601)
(10.0074 0.390083 0.181184)
(9.95898 0.365786 0.0888331)
(9.59474 -0.182338 -1.42714)
(10.1235 -0.16934 1.06046)
(9.19346 0.292456 0.341796)
(10.4866 0.277026 0.181824)
(9.24224 0.974854 -0.0663935)
(10.1837 -0.863823 -0.0827438)
(10.0536 -0.296951 0.634642)
(9.93381 -0.00183012 0.128989)
(8.42066 -0.827768 0.901669)
(9.97025 -1.11494 -0.100945)
(9.99444 -0.500138 1.4732)
(10.161 -0.299204 1.4589)
(10.5316 -0.589736 -0.342216)
(9.3765 0.362526 -0.108757)
(10.3928 0.735469 0.197027)
(10.1546 0.276691 -1.33067)
(8.96122 -0.171298 1.14569)
(9.44484 0.235133 -0.956693)
(9.98011 -0.371415 -0.0122247)
(9.0277 -0.301724 1.08122)
(10.1256 -0.496681 -0.0808698)
(9.28988 -0.359905 -0.901385)
(10.0342 -0.684905 -0.459515)
(9.71317 -0.831592 -0.57556)
(10.1833 -0.0501052 0.149173)
(9.45848 -0.0900456 -0.571034)
(9.1853 -0.311012 0.802046)
(9.35985 -0.721028 -0.0552524)
(10.1702 -0.0907509 -0.195533)
(8.81923 -0.224734 -0.246701)
(10.0123 -0.470877 0.257862)
(9.82817 -0.0272196 -0.131465)
(10.4603 0.325472 0.552463)
(9.92076 0.215143 0.145308)
(9.66482 0.0520788 0.0921493)
(9.8613 0.725266 0.596522)
(8.78004 0.956244 1.1677)
(9.9144 0.377652 0.286707)
(9.98207 0.0845861 -0.765773)
(9.60073 -0.335343 0.637084)
(8.68268 -0.924614 0.0331544)
(9.57217 0.897814 0.674465)
(9.86848 -0.471486 0.0488542)
(10.0029 -0.158735 -0.139947)
(9.94438 0.70449 -0.448031)
(10.3136 0.262535 -0.519249)
(10.2236 0.368188 -0.571113)
(9.95336 -0.238616 0.24046)
(8.82818 -0.0163853 0.441698)
(9.53086 -1.05658 -0.245117)
(9.49073 -0.74639 -0.529538)
(9.47629 -0.150893 -0.548771)
(9.29291 0.553964 -0.440778)
(10.2433 -0.896564 -1.20815)
(10.1954 0.373996 -0.743323)
(9.71392 0.362488 -0.848549)
(10.941 -0.442322 -0.735771)
(9.18121 0.444498 0.526246)
(10.2944 -0.226011 0.232211)
(9.57884 -0.59261 -0.45726)
(10.8132 -0.924553 0.510709)
(10.6044 -0.201417 0.538842)
(10.0565 -0.1527 -0.222397)
(10.0593 -0.641213 0.295439)
(9.13212 0.361401 -0.0574546)
(9.54779 1.33254 -1.15236)
(9.69917 -0.480956 -0.307477)
(9.9629 0.965451 1.92456)
(10.5272 -0.678789 -0.355311)
(8.7231 -0.43712 1.47822)
(9.94195 -0.0968241 0.339124)
(8.50317 0.430196 -1.36023)
(9.3473 0.221572 -0.819301)
(10.091 -0.0180091 0.778081)
(9.89316 0.881838 -0.238916)
(10.1894 0.478425 -0.232014)
(10.0137 -0.151786 -0.0687368)
(9.51415 -1.15198 -0.194954)
(9.62428 -1.21725 0.436701)
(9.14469 1.14524 0.500127)
(10.0375 -0.199842 -0.0149793)
(8.63226 -0.511423 -0.0569791)
(10.1044 0.692337 -0.0484458)
(9.66504 -0.0692432 -0.462816)
(10.158 0.651907 0.331937)
(10.3562 -0.208565 0.533446)
(9.83279 -0.865368 0.060112)
(9.20843 0.666338 0.606518)
(10.441 0.0563081 0.673699)
(9.92736 0.262158 -0.282445)
(10.4523 -0.0766658 -0.0870685)
(8.79877 1.31408 -0.0978364)
(9.67406 0.791889 0.049882)
(8.75968 0.144969 -0.33734)
(10.3272 -0.170499 0.389265)
(9.67254 -0.574707 -0.653197)
(9.36083 1.10339 -0.533127)
(10.2543 0.301842 1.12563)
(9.93429 -0.41698 0.495638)
(10.2358 0.0835252 -0.379258)
(9.88222 0.00412729 0.317112)
(9.93002 0.276685 0.185759)
(10.0222 -0.26248 -0.239631)
(10.3803 -0.66097 0.172203)
(9.92429 -0.963612 -0.0853905)
(9.88887 -0.16424 -0.420473)
(9.80479 -0.678547 -0.169442)
(10.3084 -0.513991 0.0516794)
(10.4422 0.112194 -0.113919)
(10.592 0.216788 -0.783641)
(9.73234 0.886517 -0.479565)
(9.80912 -0.0372729 -0.171232)
(9.76276 0.836462 0.889074)
(9.67227 0.556134 -0.214761)
(9.85975 0.281501 -0.0785097)
(9.74664 -0.356794 -1.05673)
(9.47612 -0.573221 -0.152617)
(9.31326 0.130629 -0.434028)
(9.94311 -0.383704 -0.0615508)
(9.35612 -0.24943 0.844379)
(9.27606 -0.717413 -0.414825)
(10.3592 -0.327755 -1.34882)
(10.2597 -0.358057 -0.0395281)
(10.0864 0.0946197 0.121841)
(10.1995 -0.869352 0.0831892)
(9.39734 1.07569 0.0692066)
(10.2212 -0.215751 0.173653)
(9.64947 -0.113612 -0.144135)
(9.95928 -0.622025 0.487303)
(10.5011 0.0294019 0.506964)
(9.73525 0.183313 -0.847574)
(9.44444 -0.752912 0.0667775)
(10.1726 -0.425964 0.690535)
(9.73542 0.0186653 -0.531417)
(9.88989 -1.19043 0.486263)
(10.575 -0.105572 -0.31534)
(9.32701 0.338211 -0.673345)
(10.0424 0.375775 0.361063)
(9.57486 0.489837 -0.862752)
(9.99769 -0.855569 1.19744)
(9.92912 1.36617 0.113552)
(10.2332 0.336159 0.00168312)
(9.82491 0.639732 0.318125)
(9.55768 0.283427 1.02465)
(10.2849 0.763912 0.058313)
(9.68064 -0.98205 1.98241)
(9.65886 0.239117 -1.05851)
(9.63288 -0.578621 0.277098)
(9.96432 -0.900261 0.0552848)
(9.54754 0.0233073 -0.654523)
(10.3609 0.326122 0.364737)
(9.57366 0.211045 0.738442)
(10.002 -0.196166 0.794914)
(9.72027 0.517913 -0.646568)
(10.5217 -0.50013 -0.669462)
(9.94826 -0.822424 0.693153)
(9.87956 0.0224862 0.449832)
(9.34198 0.516088 -0.0735218)
(9.97672 0.00760181 -0.247066)
(9.54683 -0.215501 0.0743863)
(10.4492 -0.60342 -0.827562)
(10.0296 -0.341335 -0.0738124)
(9.77497 -0.351264 0.32157)
(9.98333 0.233667 -0.263686)
(9.64987 0.0782813 0.0656615)
(9.55312 0.245396 0.132985)
(9.60671 -0.762885 0.511655)
(10.3173 0.56448 -0.162528)
(9.50161 0.0484995 0.395399)
(9.976 -0.192544 0.0595339)
(9.60794 0.621244 -0.516558)
(9.61861 0.461705 0.71987)
(9.61543 -0.337413 0.781343)
(9.37668 0.264978 0.377838)
(9.642 1.13263 0.873242)
(9.74943 -0.591092 -0.498521)
(9.35647 -0.0281356 0.30253)
(10.2707 -0.444012 0.976069)
(9.45654 -0.608546 -0.575548)
(9.97115 -0.540201 0.991192)
(8.84279 0.222924 0.884373)
(10.2957 -0.147195 -0.224128)
(10.3438 0.082316 -0.282821)
(9.00543 -0.183436 1.13665)
(9.34444 -0.456636 -0.536605)
(9.51012 0.217249 -0.0653843)
(10.0472 -0.418514 0.189633)
(10.4341 -0.274108 0.0693346)
(9.61638 -0.181505 -0.43129)
(9.5066 -0.963252 -0.615122)
(9.1501 -1.44505 0.917808)
(9.80843 -0.151394 -0.72586)
(9.00178 0.172924 0.422722)
(9.07291 0.436968 0.591936)
(10.4912 -0.338131 -0.0324893)
(10.015 0.457234 -0.228279)
(9.32985 -0.128451 0.0787498)
(10.1954 -0.359518 -0.028611)
(10.6943 -0.340235 -0.493054)
(9.97033 0.926861 -0.747232)
(10.081 0.576074 0.400697)
(9.32188 0.278161 0.0840881)
(10.1403 -0.28151 0.493693)
(9.002 -0.684516 1.53346)
(10.4802 0.548914 -0.918061)
(10.0119 0.185525 -0.0226267)
(8.36189 0.440588 -0.912776)
(10.0819 -0.0793388 0.246074)
(9.34585 0.0599254 -0.144616)
(9.38398 -0.366636 0.536413)
(9.77614 0.317574 0.342601)
(9.69585 -0.136862 0.980297)
(9.19123 -0.205612 0.459119)
(9.33966 -0.456181 0.542528)
(8.246 1.13514 0.359878)
(10.2226 0.403656 1.19785)
(9.99906 -0.143647 0.154104)
(9.98707 -0.415257 -0.744932)
(9.83256 -0.329248 0.487851)
(8.99436 0.0961129 -0.456919)
(9.68982 0.921275 -0.484603)
(10.0177 0.756295 0.055937)
(9.49538 -0.871599 1.12663)
(9.59769 0.887282 -0.616859)
(9.11139 0.39035 0.921005)
(9.30565 -0.725028 0.656638)
(8.72502 -0.356384 -0.0698298)
(10.1965 -0.398156 -0.10196)
(9.646 0.100202 0.185155)
(9.90275 0.441076 0.283577)
(9.28524 -0.237996 1.67222)
(9.43837 -0.0282814 0.747072)
(9.88596 -0.326019 -0.261069)
(9.21171 0.153271 0.849277)
(9.06384 -0.520174 0.667332)
(10.2537 0.888438 -0.321745)
(9.68187 0.0708787 0.455107)
(9.98532 -0.00645008 0.0575309)
(10.1993 -0.227533 0.00913765)
(10.4205 0.0242439 0.517806)
(9.99049 0.480798 -0.123603)
(10.9013 -0.194108 0.366354)
(10.1376 -0.421606 0.435803)
(8.78509 0.949399 -0.448563)
(10.0035 -0.0921009 0.0824516)
(9.60594 0.14334 0.104955)
(9.80195 -0.129929 0.17163)
(10.0372 0.08966 0.979425)
(9.49934 -0.185375 0.247695)
(9.99001 0.246735 -0.667477)
(9.82961 -0.00160203 -0.76655)
(9.84051 0.233412 -0.159039)
(9.63286 0.46538 -1.40397)
(9.78233 0.351946 -0.262978)
(10.4541 -0.538684 0.197099)
(9.87926 -0.303524 0.0280403)
(9.76113 0.271955 0.541953)
(10.1223 0.45301 -0.333146)
(8.448 -0.26436 0.814305)
(10.0443 0.0130902 -0.51469)
(9.98629 -0.524457 0.436689)
(9.77668 -0.211731 0.903344)
(9.90595 0.306315 -0.414001)
(10.507 0.0166516 0.0992287)
(9.70569 -0.25627 -0.60429)
(10.5258 0.608723 0.447176)
(10.3894 0.604857 0.398585)
(9.47104 0.0161945 -0.315389)
(10.0034 0.0722781 0.00274951)
(9.55891 1.1283 0.524777)
(9.90595 1.01402 -0.16078)
(10.022 -0.579331 -0.122146)
(9.73198 -0.0424075 -0.211506)
(8.97377 0.853348 -0.122477)
(9.96807 -0.279362 1.23304)
(10.6678 -0.0331508 0.213117)
(10.0746 -1.07592 -0.176813)
(9.05105 0.0826274 0.0327855)
(10.0504 -0.0900548 -0.346058)
(9.73361 0.130629 -0.00790235)
(10.6661 0.420365 0.076737)
(9.27587 -0.436246 0.935277)
(10.304 0.0645314 -0.240893)
(9.00973 -0.0124632 1.06054)
(8.33321 0.75789 -1.19602)
(9.8042 0.11289 0.504078)
(9.77831 -0.0533629 -0.0792137)
(9.9714 -0.0837606 -0.0544626)
(9.93019 -0.430154 0.315696)
(9.76252 0.387987 0.27518)
(9.08399 0.160341 -0.194111)
(9.95644 0.220299 0.944406)
(10.0484 0.406079 0.417532)
(9.69164 0.388653 0.561013)
(9.94943 0.225846 0.124724)
(9.80735 -0.144668 -0.516594)
(9.92528 -0.978536 -0.0548321)