/*--------------------------------*- C++ -*----------------------------------*\
| =========                 |                                                 |
| \\      /  F ield         | OpenFOAM: The Open Source CFD Toolbox           |
|  \\    /   O peration     | Version:  2506                                  |
|   \\  /    A nd           | Website:  www.openfoam.com                      |
|    \\/     M anipulation  |                                                 |
\*---------------------------------------------------------------------------*/
FoamFile
{
    version     2.0;
    format      ascii;
    arch        "LSB;label=32;scalar=64";
    class       volScalarField;
    location    "0.0982622";
    object      k;
}
// * * * * * * * * * * * * * * * * * * * * * * * * * * * * * * * * * * * * * //

dimensions      [0 2 -2 0 0 0 0];

internalField   nonuniform List<scalar> 
47425
(
0.265677
0.296631
0.285478
0.291532
0.426431
0.286597
0.386635
0.29387
0.366887
1.50325
0.303589
0.322226
0.333257
0.286074
0.277179
0.309485
0.280967
0.299549
1.01827
0.479982
0.288549
0.281494
0.289938
0.2851
0.290089
0.264296
0.268838
0.752356
0.266596
0.271173
0.280596
0.315555
0.356124
0.270368
0.260657
0.28079
0.27613
0.363339
0.277856
0.28722
0.343878
1.10935
1.11108
0.3784
1.72332
0.311081
0.304827
0.350646
0.275342
0.266032
0.712418
0.568202
0.264027
0.960983
0.342078
0.344448
0.269135
0.267829
0.361974
0.279007
0.886901
0.792956
0.959681
0.288957
0.364462
0.269196
0.341094
0.335049
0.91739
0.282476
0.27924
0.261817
0.264434
0.284385
1.0061
0.368709
0.985411
0.281216
0.81076
0.484772
1.01171
0.287553
0.27742
0.348596
0.368161
0.29182
0.262035
0.257999
0.478395
0.533785
0.277951
0.311716
0.267139
0.361926
0.373165
0.353171
0.265637
0.26983
0.288399
0.345807
0.334341
0.385062
0.282562
0.39986
0.275956
0.338307
0.295115
0.29943
0.499327
0.306453
1.49389
0.318084
0.393229
0.337997
0.29574
0.743386
0.291341
0.571984
0.313142
0.301282
0.301423
0.362698
0.342882
0.313842
0.334422
0.357154
0.292006
0.364887
0.336014
0.266662
0.275528
0.297634
0.448479
0.32232
0.800146
0.309568
0.27711
0.362722
0.288766
0.281324
0.354005
0.322768
0.306249
0.425051
0.304812
0.366223
0.398233
0.339848
0.339442
0.361576
0.430251
0.725104
0.360297
0.732628
0.293459
0.292326
0.302424
0.848973
0.319198
0.297061
0.302235
0.265368
0.258822
0.281566
0.711338
0.764088
0.337719
1.00857
0.31548
0.805659
1.18016
0.320011
0.353842
0.282211
0.315183
0.338092
0.769665
0.265332
0.266675
0.266902
0.773153
0.262464
0.264519
0.264544
0.265984
0.3367
0.288048
0.370262
0.329997
0.27356
0.357974
0.272474
0.367949
0.365297
0.266054
0.283286
0.360532
0.291637
0.296208
0.264194
0.303257
0.357201
0.450403
0.285642
0.297484
0.363008
0.263699
0.28096
0.346468
0.361897
0.267391
0.27781
0.352098
0.294737
0.276989
0.270258
0.28433
0.566369
0.299575
0.352893
0.485511
0.270497
0.638599
0.276115
0.382142
0.46678
0.267384
0.288614
0.313427
0.348094
0.284133
0.285377
0.312883
0.36937
0.351834
0.301194
0.526715
0.301065
0.489098
0.349058
0.317999
0.261815
0.26518
0.274425
0.271232
0.362565
0.279771
0.35755
0.264783
0.277636
0.269485
0.457467
0.274539
0.365695
0.289224
0.266002
0.285756
0.348306
0.283968
0.357613
0.364487
0.352127
0.296626
0.34751
0.3412
0.327951
0.266973
0.339282
0.269649
0.309633
0.301906
0.477818
0.529042
0.274077
0.467784
0.361242
0.469681
0.400015
0.514469
0.48164
0.862223
0.26238
0.949131
0.342503
0.283239
0.277005
0.331725
0.299595
0.350932
0.31087
0.701572
0.284306
0.371308
0.269743
0.281624
0.297151
0.286922
0.273486
0.307637
0.322962
0.301905
0.261074
0.296344
0.274448
0.840308
0.755631
0.71048
0.265885
0.264407
0.273589
0.290054
0.722002
0.294686
0.305407
0.562481
0.308275
0.325926
0.354293
0.292592
0.616611
0.521085
0.289852
0.297369
0.261429
0.30499
0.266156
0.297089
0.26442
0.266201
0.273097
0.279417
0.999416
0.28809
0.275027
0.383801
0.265987
0.906158
0.31014
0.262768
0.271941
0.284377
0.283907
0.262536
0.283412
0.260813
0.270807
0.269614
0.275952
0.279437
0.304993
0.287982
0.26961
0.296747
0.288771
0.292137
0.302353
0.292145
0.277874
0.296347
0.360265
0.312298
0.299005
0.28702
0.292302
0.272322
0.287365
0.346854
0.358444
0.313999
0.27933
0.337829
1.08676
0.278615
0.281819
0.385664
0.280275
0.509822
0.355611
0.364436
0.277531
0.357607
0.280641
0.265853
0.355244
0.319284
0.364513
0.28811
0.28346
0.349717
0.288188
0.284809
0.285524
0.295883
0.275712
0.275113
0.283058
0.316446
0.286536
0.356548
0.263725
0.58565
0.264773
1.09358
0.2977
0.335265
0.324203
0.266649
0.328366
0.266383
0.301649
0.283042
0.498266
0.760914
0.263313
0.29974
0.283721
0.283873
0.291741
0.277847
0.279658
0.336895
0.295411
0.273876
0.286887
0.292051
0.267734
0.407105
0.283101
0.285323
0.442039
0.336886
0.275367
0.557165
0.355514
0.347201
0.35096
0.657129
0.266222
0.282693
0.283397
0.282754
0.559414
0.295999
0.263119
0.268579
0.287582
0.287933
0.292364
0.273558
0.689555
0.540124
0.451833
0.356379
0.352504
0.440825
0.265272
0.279987
0.322214
0.279133
0.355171
0.363124
0.377802
0.281814
0.369613
0.285749
0.290703
0.299855
0.284319
0.284246
0.279785
0.348574
0.357668
0.367319
0.30322
0.305712
0.31133
0.280387
0.876409
0.360516
0.356269
0.344928
0.313655
0.699703
0.294885
0.264445
0.29757
0.350141
0.326961
0.295655
0.309632
0.274748
0.290575
0.266876
0.295321
0.395476
0.261848
0.309261
0.316584
0.319441
0.266486
0.266018
0.269176
0.274905
0.276255
0.294722
0.273973
0.268312
0.283241
0.288983
0.291422
0.305806
0.292834
0.266134
0.307608
0.265875
0.266413
0.276626
0.300327
0.3096
0.299235
0.363305
0.375393
0.681053
0.28141
0.275503
0.323347
0.365735
0.412613
0.413901
0.306099
0.278451
0.312968
0.39373
0.315822
0.419615
0.362381
1.49371
0.303712
0.306147
0.270933
0.412262
0.267036
0.277254
0.281235
0.396851
0.266135
0.261519
0.980701
0.270879
0.323673
0.265337
0.394761
0.259498
0.26984
0.377887
0.366178
0.282542
0.264059
0.242808
0.265112
0.28366
0.265305
0.264506
0.261735
0.338867
0.409494
0.283745
0.340031
0.282626
0.266246
0.485137
0.277849
0.334298
0.168112
0.283177
0.266735
0.223297
0.700037
0.294129
0.177799
0.196284
0.268328
0.346964
0.262786
0.273127
0.361924
0.305261
0.956224
0.282491
0.309454
0.265037
0.417958
0.334291
0.369484
0.289964
0.801223
1.935
0.278481
0.299128
0.318003
0.287077
0.341271
0.352324
0.317681
0.306656
0.378945
0.275242
0.359111
0.427848
0.304611
0.276159
0.432111
0.328512
0.279158
0.295117
0.318856
0.269896
0.361918
0.327717
0.315988
0.343277
0.269333
0.297631
0.89075
0.285555
0.360627
0.772952
0.737221
0.267156
0.355101
0.661796
0.319083
0.373842
0.812558
0.376793
0.714508
0.264989
0.263124
0.354825
0.46101
0.381506
0.375569
0.263129
0.348839
0.27108
0.292491
0.260469
0.312514
0.280755
0.810205
0.638465
0.308471
0.298303
0.317252
0.282497
0.374333
0.351687
0.35241
0.360589
0.342618
0.284533
0.306027
0.354472
0.273102
0.339816
0.330409
0.90593
0.514051
0.305849
0.277133
0.345461
0.265541
0.856269
0.278238
1.52878
0.323197
0.401556
0.312218
0.291236
0.313527
0.272006
0.31411
0.2841
0.263784
0.379801
0.341335
0.368556
0.352055
0.343719
0.915201
0.312625
0.362281
0.335238
0.363677
0.267277
0.318915
0.306347
0.350696
0.341378
0.296799
0.324381
0.289315
0.312271
0.280943
0.2745
0.426316
0.491552
0.276798
0.392733
0.275045
0.2939
0.283136
0.266763
0.560034
0.264611
0.288815
0.28442
0.265099
0.592858
0.889285
0.287611
0.333927
0.267751
0.315483
0.266687
0.294174
0.294226
0.507035
0.29246
0.265632
0.286509
0.269191
0.286465
0.278789
0.261255
0.289975
0.265988
0.260952
0.288086
0.486059
0.265204
0.234604
0.602775
0.507212
0.242867
0.296803
0.834154
0.315975
0.299496
0.450506
0.238496
0.737969
0.306933
0.273343
0.442436
0.304877
0.501778
0.288417
0.319301
0.275803
0.270964
0.392752
0.349639
0.285012
0.311656
0.293597
0.334872
0.348331
0.37843
0.437672
0.416956
0.781611
0.947608
0.830673
0.549438
0.576538
0.3631
0.339536
0.274081
0.265942
0.314938
0.27138
0.299086
0.310327
0.327981
0.267037
0.30436
0.339243
0.266849
0.358128
0.297698
0.266051
0.343265
0.26651
0.276412
0.278734
0.31578
0.376563
0.269334
0.265747
0.276416
0.337892
0.32874
0.461801
0.390936
0.265908
0.314446
0.262005
0.272162
0.273717
0.319252
0.336861
0.499748
0.287902
0.274094
0.275006
0.354562
0.848874
0.285053
0.285
0.349777
0.310952
0.342929
0.307962
0.293072
0.3768
2.47934
0.398328
0.83712
0.366857
0.349994
0.261791
0.360837
0.272757
0.306793
0.300038
0.273962
1.85414
0.380949
0.323106
0.808913
0.332485
0.25973
0.289127
0.362503
0.273652
0.31205
0.196426
0.270596
0.346875
0.352259
0.372136
0.673553
0.354159
0.331162
0.440887
0.275552
0.282349
0.391786
0.47688
0.307124
0.366097
0.395119
0.311686
0.278849
0.275558
0.299594
0.335181
0.33378
4.34617
0.636936
0.323806
0.51914
0.47315
1.1522
1.3576
0.457239
0.344334
0.360762
0.373541
0.338008
3.17475
0.274331
0.292805
0.372762
0.217206
0.300854
0.367299
0.337281
0.26846
0.364308
0.420117
0.363484
1.62659
0.261808
0.337469
0.376584
0.365703
0.357266
0.34985
0.37481
0.402834
0.308028
0.322904
0.41017
0.288722
0.276826
0.300293
0.370441
0.270962
0.366348
0.340214
0.334646
0.584608
0.846822
0.275792
0.3635
0.283886
0.36189
0.346858
0.600752
0.507854
1.17974
0.276625
0.325808
0.288406
0.785131
0.291069
1.88722
0.387695
0.367836
0.436933
0.52326
0.297145
0.278469
0.280965
0.288823
0.406654
0.289084
0.354114
1.3062
0.337466
0.26885
0.274563
0.605461
1.13156
0.451267
0.492689
0.880245
0.377567
0.323475
0.345549
0.286133
0.416407
0.346954
0.362956
0.977782
0.29263
0.272693
0.27781
0.357108
0.34351
0.36582
0.300499
0.281134
0.410965
0.276718
0.315972
0.28316
0.352838
0.341457
0.334576
0.305112
0.295826
0.281278
0.355253
0.29176
0.289692
0.299475
0.281611
0.334085
0.397406
0.311406
0.327223
0.276557
1.63437
0.360237
0.34444
0.307326
0.851369
0.78507
1.38641
0.294456
0.311863
0.297954
0.719918
0.319399
0.300998
0.337175
0.33501
0.362722
0.865827
0.343086
0.280158
0.339461
0.313214
0.26445
0.515364
0.928141
0.287427
0.990116
0.320678
0.589901
0.500678
0.308365
0.32935
0.351834
0.590289
0.32365
0.297796
0.298594
0.662699
0.460237
0.57093
0.291972
0.304432
0.271368
0.283979
1.66362
1.54699
0.325922
0.320629
0.350091
0.89599
0.274992
0.267746
2.50504
1.42212
0.355627
0.279414
0.805047
1.56371
1.29013
0.359992
0.822555
1.56558
1.0694
0.305944
0.396315
0.394409
0.300122
0.299889
1.66629
1.28484
0.317268
0.324166
0.345077
0.282749
0.299937
0.314039
0.416967
0.326871
0.366938
0.274648
0.390968
1.63539
0.938713
0.284611
0.511042
0.39203
0.307361
0.447714
0.268723
0.323834
0.286417
0.301001
0.375504
0.27505
0.702242
0.287379
0.775623
0.498571
1.01412
0.390415
0.413848
0.321083
0.351354
0.370863
0.489388
1.01721
0.339342
1.0698
0.455677
0.673785
0.422222
0.801067
0.65333
0.295961
0.384961
0.922338
0.324815
0.276165
0.281447
0.801797
0.666626
0.28532
0.29876
0.583377
0.354671
1.16384
0.734121
0.336326
0.40137
0.980737
0.331826
0.287963
0.864639
0.27943
0.795072
0.735251
0.277795
0.273829
0.292931
0.268635
0.354858
0.2868
0.280479
0.346452
0.352127
0.417353
0.298393
0.285118
0.462444
2.23011
0.725826
0.313498
0.302042
0.504118
0.279972
0.923726
0.32002
0.317376
0.347628
2.24606
0.325527
2.15786
0.374479
0.445871
0.300853
0.762527
0.552723
0.583265
0.383888
0.480576
0.32762
0.363526
0.342202
0.532143
0.313405
0.410403
0.729962
0.388159
0.40098
0.915059
0.310547
0.285169
0.629647
1.69456
0.371419
0.304286
0.35933
0.379488
1.10964
1.18884
0.2696
0.287109
0.359141
0.814494
0.355931
0.523734
0.331717
0.346816
0.35253
0.429616
0.314224
0.537191
0.571874
0.308348
0.336156
0.387146
0.30318
0.830524
2.04524
0.304065
0.773852
0.802237
0.376772
0.676854
0.360612
0.322884
1.00846
0.325985
1.20436
2.93839
0.292241
0.328598
0.39733
0.365345
0.353173
0.34837
0.452277
0.354037
0.299307
0.346637
0.300051
0.749933
0.348543
0.323301
0.347186
0.611498
0.281372
0.759488
0.688906
0.322185
0.80488
2.17622
0.275343
0.410619
0.402565
0.335644
0.305376
0.470198
0.919667
0.44732
1.24805
0.281021
0.692658
0.405177
0.268124
0.338576
0.343428
0.441068
0.300434
0.342417
0.515125
0.269539
0.51746
0.334311
1.41748
0.357225
0.269638
0.327979
0.471474
0.316917
0.748849
0.399132
0.28649
0.616548
0.27741
0.308143
1.30388
0.264974
0.346175
0.644906
0.306984
1.18161
1.0873
0.345985
0.35215
0.276697
0.822922
0.463589
0.918552
0.753424
0.366219
0.302883
0.379893
0.977409
0.955157
1.3867
0.333504
0.357545
0.321954
0.287365
0.362716
0.657137
0.347166
0.329924
0.308632
0.271213
0.290028
0.353063
0.27953
0.348863
0.343979
0.376244
0.276205
0.344081
0.525625
0.298395
0.274002
0.354247
0.317318
0.359399
0.270357
0.304946
0.315952
0.283486
0.375958
0.499832
0.336838
0.284757
0.273693
0.2662
0.474212
0.301379
0.297998
0.446715
1.0015
0.649895
0.282734
0.43984
0.419989
0.371885
0.393155
0.375556
0.373961
0.343252
0.284701
0.344934
0.343409
0.286933
0.349854
0.362186
0.330004
0.28251
0.288431
0.338762
0.453052
0.330092
0.367501
0.750714
0.346476
0.627792
0.359073
0.802662
0.262798
0.346432
0.314023
0.278472
0.28558
0.36588
0.270602
1.25326
0.51119
0.765475
0.330728
0.876287
0.281092
0.303327
0.481085
0.29457
0.73344
0.380097
0.563131
0.332255
0.925423
0.884635
0.283349
0.265574
0.845379
0.290706
0.871502
0.31805
0.335361
0.280885
0.276319
0.27489
0.290641
0.308232
0.64921
0.356819
0.38525
0.297453
0.326593
0.264064
0.354994
1.23659
0.346114
1.36256
0.599856
0.285935
0.355358
0.299412
0.307361
0.300595
0.32373
0.326556
0.362906
0.310272
0.27332
0.306752
0.339481
1.26421
1.40805
0.305693
0.321246
2.08589
0.317675
0.271109
0.271424
0.267481
0.309652
0.354083
0.400063
0.377933
0.299546
0.282024
0.351092
0.266442
0.262581
0.284822
0.656133
0.381499
0.756146
0.694212
0.750438
0.281206
0.274152
0.275487
0.269593
0.269281
0.578501
0.295242
0.262284
0.289837
0.342903
0.286695
0.393551
0.282894
0.35592
0.400588
0.296699
0.270961
0.280615
0.29836
0.3023
0.279777
0.309176
0.293273
0.458313
0.296875
0.350193
0.386191
0.294686
0.298309
0.276108
0.302902
0.287367
0.335799
0.372465
0.287614
0.261622
0.289347
0.291005
0.289348
0.324965
0.267548
0.323803
0.281059
0.287939
0.775728
0.285844
0.374763
0.259711
0.27309
0.598356
0.286866
0.341691
0.266806
0.277523
0.321259
0.348797
0.677839
0.36541
1.39763
0.26964
0.278553
0.341895
0.26609
0.260632
0.373692
0.301481
0.261796
0.263653
1.01351
0.381289
0.600276
0.334638
0.486166
0.36146
0.281729
0.381278
1.70841
0.335818
0.286526
0.283745
0.721309
0.277909
0.289946
0.299694
0.298633
0.398002
0.707037
0.281263
0.29732
0.347455
0.296575
0.321925
0.817046
0.730129
0.2784
0.273292
0.266943
0.322036
0.310928
0.266041
0.726149
1.27832
0.274728
0.325816
0.797236
0.282692
2.18904
0.400368
0.265669
0.277692
0.27265
0.283703
0.528147
0.300494
0.301284
0.284944
0.318563
0.288217
0.361543
0.570042
0.362926
0.436477
0.451624
0.407445
0.534657
0.324355
0.387717
0.354662
0.379195
0.314044
0.286306
0.741678
0.536925
0.377901
0.314551
0.360539
0.316384
0.307348
0.234427
0.264057
0.264435
0.357061
0.349904
0.439736
0.36759
0.771326
0.649974
0.293161
0.37789
0.280929
0.282962
0.365123
0.272194
0.29189
0.271066
0.265036
0.216625
0.215355
0.266206
0.414355
0.668626
1.002
0.307234
0.264794
0.426639
0.450354
0.759328
0.293929
0.763743
0.85735
1.00992
0.844425
0.357916
0.267592
0.264072
0.360613
0.783759
0.266117
0.372716
0.312655
0.266128
0.439255
0.400559
0.382651
0.302304
1.22266
0.269365
0.277178
0.300425
0.305859
0.520344
0.607744
0.278763
0.427136
0.264213
0.325557
0.305761
0.822431
0.353672
0.794867
0.371897
0.790708
0.35273
0.440779
0.755814
0.467734
0.380213
0.382691
0.676148
0.35251
0.353862
0.347714
0.340185
0.360714
0.340953
1.19149
0.454427
0.300438
0.541846
0.521664
0.536561
0.282206
0.276743
0.597768
0.597564
0.770929
0.297395
1.0654
0.28086
0.990719
0.618198
0.478228
0.663251
0.276463
0.316936
0.277725
0.326744
0.326681
0.463888
0.387177
0.274246
0.301679
0.336769
0.299829
0.276411
0.265163
0.41696
0.268044
0.263368
0.302841
0.370405
0.384968
0.301623
0.33396
0.344422
0.358977
0.502336
0.384981
0.285308
0.284188
0.43654
0.511509
0.287726
1.99637
0.309913
0.373815
0.994762
0.345596
0.28609
0.270383
0.438506
0.293331
0.263579
0.340167
0.289238
0.276936
0.286762
0.273513
0.351733
0.305286
0.302271
0.276969
0.330837
0.610299
0.28039
0.295563
0.283758
0.291927
0.372254
1.13279
0.290592
0.276033
0.305399
0.520322
0.265706
0.317494
0.299685
0.772241
0.324559
0.364891
0.349165
0.358731
0.330554
0.334335
0.286855
0.455407
0.351427
0.33791
1.38149
0.292509
0.368307
0.325025
0.317587
0.35347
0.390777
0.289896
0.336519
0.273396
0.310518
0.302636
0.324369
2.96737
0.279587
0.369579
0.37597
0.343892
0.581195
0.31987
0.69123
0.350765
0.511998
0.627366
0.305358
0.274347
0.386593
0.343859
0.303654
0.274156
0.706199
0.4058
0.329069
0.909715
0.595508
0.283377
0.440451
0.338238
1.20864
0.808654
0.350032
0.361401
0.466643
0.5645
0.424782
0.874479
0.211491
0.578265
0.294276
0.510943
0.354116
0.358676
0.39069
0.348071
0.301147
0.334479
0.539277
0.292324
0.346482
0.340022
0.443275
0.690669
0.371064
0.676135
0.308544
0.981463
0.373324
0.374643
0.781831
0.516562
0.665263
0.560887
0.599991
0.492586
0.460557
0.422763
0.330241
0.343067
0.347138
0.69492
0.322064
0.320879
0.287773
0.443402
0.339627
0.280745
0.775244
0.454131
0.462315
0.145419
0.381651
0.305296
0.332844
0.318425
0.336794
0.329313
0.260157
0.308459
0.354324
0.147035
0.139418
0.431662
0.313614
0.385705
0.37038
0.407309
0.358315
0.341477
0.320421
0.121147
0.324452
0.355757
0.125945
0.358864
0.812129
0.544168
0.31214
1.57245
0.375428
0.420251
1.02576
0.381116
0.365039
0.277193
0.530614
0.266699
0.275495
0.316011
0.350174
0.341734
0.307014
0.593062
0.353589
0.420417
0.286388
0.376393
0.359519
0.264935
2.41129
0.459713
1.11906
0.401735
0.281434
0.860229
0.438393
0.273891
2.31809
0.275758
0.271373
0.432365
0.413268
0.912692
1.10781
0.307395
0.614318
0.85227
0.377282
0.596161
0.918932
1.10149
2.39469
0.33302
0.3303
0.522174
0.588686
0.386425
0.880978
0.318567
0.293733
0.462458
0.315696
0.275479
0.369791
0.688278
0.620739
0.268245
0.453383
0.280528
0.379544
0.303653
0.376391
0.550627
0.376943
0.726787
0.351377
0.360678
0.66844
0.277252
0.282701
0.395676
0.2755
0.31811
1.06119
0.293662
0.814731
0.738745
0.744146
0.796854
0.376378
0.345964
0.276118
0.268877
0.367604
0.280729
0.287209
0.383718
0.28771
0.358235
0.874774
0.27569
0.464843
0.273163
0.415607
0.324678
0.772015
0.343954
0.413739
0.279867
0.300669
0.394316
0.272463
0.296598
0.291551
0.278148
0.467187
0.295465
0.347089
0.315896
0.282268
0.336964
0.30202
0.347647
1.04252
0.295037
0.282335
0.278779
0.340811
0.123965
0.55914
0.417027
0.617065
0.963412
0.189042
0.374923
0.0673865
0.151857
1.26362
0.355657
0.483407
0.212576
0.652899
0.647198
1.13403
0.315714
0.293945
0.48661
1.26321
0.303196
0.334966
0.398763
0.363489
0.362436
0.349546
0.891385
1.47565
0.155092
0.327901
0.121867
0.329434
1.38323
0.289128
0.319435
0.293201
0.279872
0.389971
0.291397
0.517833
0.396931
0.317965
0.366213
0.291596
0.490435
0.604483
0.28851
0.381026
0.318572
0.78479
0.399609
0.338703
0.486212
0.459311
0.269082
0.270823
0.336771
0.283193
0.658355
0.274887
0.382236
0.532013
0.296362
0.300632
0.291891
0.291283
0.540473
0.364701
0.460941
0.282834
0.289267
0.394528
0.538086
0.289113
0.317156
0.287318
0.280081
0.551974
0.393131
0.697241
0.300189
0.281853
0.385147
0.345447
0.303992
0.29117
0.33899
0.357825
0.489683
0.270395
2.01921
0.356576
0.355766
0.27748
0.35512
0.785656
0.915497
0.34309
0.816135
0.334266
0.937644
0.364779
0.624302
0.411017
0.491088
0.375161
0.296694
0.329358
0.363113
0.491701
0.335069
0.318167
0.871291
0.374529
1.73213
0.373237
0.301388
0.359364
0.545955
0.37562
0.277508
1.13627
0.277945
0.302332
0.278919
0.340487
0.695032
0.419151
0.326605
0.443771
0.345902
0.299738
0.296629
0.325216
0.362545
0.385232
0.352937
0.308586
0.308605
0.349289
0.304349
0.270829
0.335438
0.308145
6.69205
0.330624
0.398639
0.301807
0.347912
0.316767
0.357675
0.275671
0.334943
0.310168
0.306862
0.345717
0.736953
0.266592
0.849055
0.409617
0.391242
0.379798
0.305952
0.382508
0.387756
0.718038
0.286875
0.304139
0.308903
0.436501
0.327666
0.273117
1.14752
1.66966
0.617447
0.271885
0.280304
0.449642
0.352969
0.353594
0.436195
0.364427
0.296201
0.315444
1.68923
0.27429
0.492462
0.269333
0.293988
0.364695
0.289417
0.369896
0.39672
0.275484
0.528764
0.347374
0.340696
0.383155
0.875417
0.289001
0.35995
0.325099
0.343771
0.312135
0.323284
0.2699
0.259421
0.374465
0.516011
0.356281
0.324822
1.4773
0.359814
0.539189
0.358353
0.383028
0.342258
0.321217
0.784916
0.303935
0.467011
0.326114
0.355007
0.312593
0.339229
0.503869
0.400504
0.291088
0.556465
0.376929
0.550994
0.675064
1.54887
0.282403
0.391973
0.377686
0.224145
0.339885
0.219343
0.38394
0.209996
0.337558
0.819156
0.345463
0.546828
0.590666
0.322529
0.194819
0.361934
1.11855
0.438329
0.589067
2.08788
1.31494
0.647991
0.711637
0.280023
0.335808
0.671988
0.338921
0.904602
0.325381
0.732789
0.686066
0.299235
0.349425
0.29707
0.264711
0.333779
0.267893
0.62867
0.370926
0.340521
0.484389
0.300472
0.337006
0.283452
0.290446
0.329948
0.309572
0.370541
0.269134
0.356416
0.806904
0.279504
0.279666
0.303839
0.277323
0.854266
1.12824
0.345422
0.386614
0.465727
0.275647
0.262957
0.296791
0.31162
0.294641
0.299221
0.30064
0.283673
0.576168
0.290886
0.313589
0.29241
0.270978
0.27471
0.840197
0.291825
0.310944
0.3048
0.386085
0.344032
0.304578
0.583287
0.352083
0.292094
0.337022
0.336099
0.328082
0.380421
0.354286
0.286147
0.364277
0.345003
0.288775
0.304417
0.327911
0.388835
0.397385
0.29421
0.309481
0.349095
0.378552
0.413921
0.523489
0.888859
0.830228
0.309632
0.274997
1.25946
0.459746
0.510181
0.281191
0.278559
0.291048
0.269379
0.28938
0.274724
0.283937
0.300715
0.280914
0.280835
0.294506
0.281048
0.273259
0.480908
0.322946
0.305222
0.28484
0.296473
0.531711
0.280951
0.29177
0.355013
0.989079
0.451608
0.374181
0.362234
0.278869
0.308584
0.415103
0.611025
0.344579
0.289866
0.350361
0.28928
0.297813
0.315231
0.372216
0.337768
0.292193
0.344409
0.374585
0.555937
0.338782
0.701209
0.533009
0.358741
0.345476
0.305277
0.301264
0.348729
0.271425
0.295598
0.526938
0.282474
0.315876
0.666269
0.32471
0.345496
0.372897
0.33517
0.296085
0.323944
0.278247
0.32187
0.658989
0.330143
0.375316
5.39612
0.514771
0.911085
0.741953
0.295362
0.294416
0.456544
0.274928
0.481477
0.430507
0.621898
0.369858
0.269977
0.748908
0.271352
0.470505
0.361076
0.292192
0.645271
1.0267
0.277138
0.278312
0.800493
0.275438
0.285001
0.280239
0.273964
0.340053
0.527757
0.515063
0.302551
0.713988
0.302617
0.291005
0.301033
0.767319
0.294852
0.808039
0.274974
0.311216
0.279611
0.372566
0.334769
0.431206
0.279483
0.615828
0.416411
0.419519
0.630856
0.301157
0.295037
0.908977
0.394002
0.313018
0.369866
1.02987
0.300144
0.374926
0.318674
0.517416
0.351087
0.281563
0.273365
0.402856
0.2941
0.339112
0.302911
0.277149
0.299158
0.285077
0.286006
0.325285
0.740492
0.309524
0.28648
0.285739
0.294328
0.309872
0.343422
0.268133
0.349891
0.386169
0.370156
0.36345
0.291613
0.313961
0.282377
0.333832
0.853549
0.339964
0.652857
0.297992
3.88694
0.314923
0.405155
0.358387
0.317127
0.365282
0.279077
0.285346
0.32329
0.339773
0.264008
0.28786
0.272689
0.578506
0.272438
0.289534
0.319069
0.645616
0.0952108
0.290931
0.713935
0.77387
0.53019
0.509811
0.79428
0.110286
0.359044
0.132243
0.324005
0.448177
4.18095
0.335488
0.326721
0.269713
0.274343
0.687426
0.30107
0.332956
1.03123
0.351292
0.5849
0.338732
0.52506
0.278622
0.347606
0.331045
0.268183
0.362446
0.266134
0.31178
0.97759
0.882832
1.07725
0.394425
0.898864
0.286612
0.264802
0.28208
0.343168
0.270561
0.320646
0.279156
0.35859
0.357628
0.270724
0.278299
0.341943
0.271567
0.303504
0.336888
0.310223
0.334805
0.433204
0.289815
0.320463
0.749536
0.322074
0.717425
0.715481
0.32611
0.364242
0.277494
0.412582
0.303445
0.319652
0.71413
0.277494
0.327136
0.303496
0.313872
0.292905
0.283981
0.431891
0.44848
0.3755
0.308294
0.728973
0.329384
0.576333
0.537493
0.360507
1.08779
0.394712
0.325405
0.297495
0.351536
0.336338
0.30368
0.279587
0.328199
0.164896
0.514849
0.17342
0.280509
0.307747
0.372246
0.120795
1.20959
0.3262
0.356116
0.339566
0.136648
0.343277
1.36447
3.00819
0.338861
0.278728
0.365532
0.446217
0.285204
0.323577
0.360016
0.287813
0.349569
0.297473
1.00042
0.324432
1.6521
0.386045
0.839837
0.334546
1.83639
1.07569
0.794101
0.29806
0.317285
0.388022
0.35986
0.282805
0.339526
0.299685
0.727848
0.277162
0.401215
0.676851
0.275477
0.271904
0.291097
0.317291
0.327983
0.360465
0.336231
0.370649
0.371664
0.298494
0.376028
0.305269
0.391878
0.299637
0.348564
0.284025
2.58997
1.62486
0.333882
0.395403
0.265628
1.80672
0.267222
0.267508
0.336604
0.266468
0.355139
0.340819
0.260214
0.264188
0.334434
1.94829
0.512804
0.370891
0.727524
0.275898
0.361217
0.3028
0.35956
0.721999
0.358812
0.740121
0.263301
0.294769
0.695464
0.78022
0.299915
0.309877
0.54598
0.377035
0.310121
0.418436
0.334361
0.345986
0.357699
0.350013
0.260882
0.361102
0.336337
0.414453
0.27336
0.342919
0.264834
0.317993
0.798766
0.869163
0.284553
0.416249
0.302049
0.337094
0.291089
0.461902
0.286997
0.298607
0.311582
0.328732
0.381411
0.343757
0.42013
0.3197
0.268547
0.322369
0.276171
0.32766
0.277095
0.457984
0.393975
0.31795
0.508105
0.30609
0.270454
0.334799
0.281555
0.355863
0.553367
0.29381
0.371366
0.353805
1.15055
0.343863
0.328403
0.360265
0.632776
0.360971
0.463409
0.331136
0.347274
0.492534
0.362344
0.330566
0.732626
0.388957
0.363187
0.300354
0.281158
0.478968
0.292263
1.00729
1.47478
0.375887
0.365043
0.357432
0.414691
0.385523
0.330698
0.735304
0.412374
0.559741
0.275018
0.375215
1.19425
0.417741
0.304852
0.406041
0.289289
1.29121
0.330725
0.338766
0.289552
0.266726
0.276879
0.313133
0.284661
5.00563
0.274421
0.607046
0.271369
0.366696
0.327426
0.453926
0.308644
0.313722
0.298425
0.627067
0.404049
0.435142
0.282549
0.278817
0.390989
0.320829
0.307792
0.275726
0.272798
0.26931
0.293688
0.271343
0.327734
0.272845
0.49965
0.372859
1.48386
0.670912
0.511423
0.481735
0.336053
0.343667
0.268565
0.505249
0.285653
0.288797
0.284289
0.397049
0.431882
0.286797
0.362302
0.691576
0.430215
0.275969
0.279951
1.66515
0.719642
0.332477
0.762784
0.757613
0.551061
0.678743
0.490597
0.67492
0.349268
0.543314
0.672114
0.272359
0.277766
0.266061
0.410163
0.531641
0.28615
0.269841
0.34689
0.31629
0.375728
0.670877
0.412343
0.887732
0.336275
0.282927
0.298286
0.282889
0.318406
0.620013
0.929752
0.864595
0.709949
0.313863
1.38826
0.5011
0.306904
0.483474
0.41291
0.674209
0.365333
0.415165
0.676363
0.657862
0.411628
0.804765
0.431619
0.781869
0.343056
0.288727
0.357546
1.1051
0.697727
0.335781
0.299762
0.474153
0.383601
0.511779
0.310776
0.332702
1.0542
1.45496
0.162233
0.397108
0.151833
0.273133
0.156478
0.319783
0.406957
0.516331
0.143763
0.373937
0.431157
0.105873
0.400088
1.2096
0.352157
0.324259
0.789871
0.285911
0.425404
0.279148
0.269082
0.283719
0.290951
0.789004
0.620975
2.13183
0.333934
0.330901
0.569859
0.318965
0.337983
0.350973
0.311153
0.292237
0.499495
0.379922
0.330175
0.280724
0.361235
0.347291
0.658343
0.396585
0.707332
0.894841
0.685092
0.373698
0.345125
0.666088
0.240532
0.469299
0.308567
0.33181
0.279596
0.711512
0.556413
0.598799
0.609989
0.530514
0.27824
0.366934
0.805519
0.716049
0.330629
0.355726
0.393393
2.06797
0.301253
0.27595
0.361686
0.306005
0.801622
0.38317
0.528594
0.597218
0.93782
2.16903
0.466726
0.390504
0.726079
1.12265
0.772944
0.50624
0.879541
0.867994
0.456379
0.324104
0.38613
0.356454
0.265441
0.292652
0.369395
0.442786
1.75146
0.3346
0.37894
0.395286
0.363732
0.41381
0.487946
0.419122
0.342602
0.370676
1.01062
0.979953
0.133994
0.340874
0.305073
0.319845
1.725
0.837845
0.359998
0.51265
0.292707
0.371694
0.395242
0.486001
0.290747
0.290676
0.289829
0.33648
0.837185
0.393812
0.312188
0.77021
0.279688
0.889448
0.655516
0.40747
0.636705
0.318512
0.276759
0.310458
0.276406
0.344614
0.3396
0.290747
0.306244
0.292135
0.276385
0.431873
0.458225
0.651273
0.280201
0.408053
0.309811
0.337353
0.29817
0.438315
0.30369
0.294601
0.289123
0.278682
0.281783
0.282036
0.395962
0.275187
0.313742
0.316877
0.532964
0.282038
0.333849
0.434541
0.710165
0.963398
0.331727
0.75717
0.374181
0.320374
0.297311
0.464777
0.299677
4.5534
0.358472
0.286647
0.369073
0.3661
0.35138
0.391443
0.644258
0.915584
0.380735
0.783337
0.293946
0.267628
0.338404
0.279223
0.273682
0.35318
0.273608
0.28216
0.511117
0.284576
0.166955
2.66449
0.520603
0.274449
0.277245
0.503646
0.295381
0.286891
0.515673
0.290401
0.673192
0.341955
0.72665
0.274662
0.474483
0.380794
0.581646
0.278279
0.378027
0.281
1.00867
0.364327
0.274338
1.30295
0.369706
0.443127
0.304274
0.329359
0.373675
0.271562
0.437046
0.271798
0.284244
0.283718
0.387925
0.55109
0.287477
0.279675
0.28239
0.280058
0.289904
4.00523
0.275262
0.393768
0.273569
0.495723
0.312794
0.315274
0.315089
0.406985
0.293632
0.360112
0.267229
0.297109
0.291414
0.301119
0.274899
0.378258
0.34875
1.07188
0.924004
0.709025
0.341255
0.294582
0.292979
0.272619
0.27917
0.959506
0.557501
0.343182
0.318083
0.269587
0.288547
0.26328
0.278663
0.457188
0.454587
0.677073
0.857222
0.317551
0.361246
0.344394
0.275806
0.497647
0.339702
0.398914
0.347798
0.308729
0.994558
0.35952
0.267101
0.294131
0.349374
0.290969
0.421004
0.274455
0.515424
0.322562
0.817486
0.430007
0.680037
0.281884
0.290957
0.305449
0.374406
0.313508
0.358234
0.284708
0.27645
0.278377
0.284344
0.354883
0.5167
0.319895
0.765598
0.362074
0.314741
0.449724
0.381688
0.36145
0.218027
0.9532
0.781738
0.196786
0.268817
0.279152
0.76926
0.314769
0.355216
0.326618
0.315421
0.23498
0.341165
0.343431
0.278237
0.362435
0.292357
0.913339
0.46303
0.379558
0.260399
0.34388
0.340024
0.301528
0.281157
0.810722
0.798701
0.345629
0.687087
0.293667
0.275207
0.342115
0.290704
0.816826
0.270911
0.272146
0.27636
0.584268
0.274201
0.308652
0.396108
0.400038
0.272714
0.29283
0.292443
0.298095
0.285947
0.329103
0.314717
0.516071
0.373695
0.3499
0.505903
0.341414
0.554661
0.312899
0.785015
0.38803
0.206987
0.56777
0.101468
0.375821
0.455264
0.511231
0.340179
0.275307
0.276434
0.279302
0.339085
0.732306
0.357114
0.272667
0.331134
0.322448
0.261845
0.42141
0.294765
0.351796
0.403214
0.291908
0.282864
0.304593
0.29615
3.15548
0.887763
0.333199
0.339173
0.367903
0.335267
0.721332
0.865631
0.902993
0.695874
0.326417
0.290931
0.297211
0.260895