/*--------------------------------*- C++ -*----------------------------------*\
| =========                 |                                                 |
| \\      /  F ield         | OpenFOAM: The Open Source CFD Toolbox           |
|  \\    /   O peration     | Version:  2506                                  |
|   \\  /    A nd           | Website:  www.openfoam.com                      |
|    \\/     M anipulation  |                                                 |
\*---------------------------------------------------------------------------*/
FoamFile
{
    version     2.0;
    format      ascii;
    arch        "LSB;label=32;scalar=64";
    class       volScalarField;
    location    "0.0982622";
    object      nut;
}
// * * * * * * * * * * * * * * * * * * * * * * * * * * * * * * * * * * * * * //

dimensions      [0 2 -1 0 0 0 0];

internalField   nonuniform List<scalar> 
47425
(
0.00449968
0.00451221
0.00409665
0.00187955
0.00281841
0.00417616
0.00386828
0.00301236
0.00742777
0.00312264
0.00230627
0.00738804
0.00463703
0.00371515
0.00296666
0.00362241
0.0042211
0.00213488
0.000226282
0.00240658
0.00353205
0.00662508
0.00289755
0.00470335
0.00660997
0.00617058
0.00358464
0.000445252
0.00393616
0.00509062
0.00680364
0.00714114
0.00745914
0.00405922
0.00472511
0.00437323
0.00659654
0.00537818
0.00430447
0.00396869
0.00490916
0.00724493
0.00515288
0.00260976
0.000979335
0.00315511
0.00329897
0.00451835
0.00359961
0.00582145
0.000584656
0.00230123
0.00556072
0.00141119
0.00314156
0.00286902
0.00613881
0.00475695
0.00239331
0.00472447
0.00111681
0.000636169
0.00147602
0.00260384
0.0073849
0.006129
0.00555472
0.00382702
0.00117039
0.00470495
0.00364304
0.00504971
0.00545349
0.00324343
0.00190701
0.00746319
0.00145222
0.00359767
0.00021705
0.00165104
0.00181864
0.00454814
0.00670829
0.00742906
0.00509282
0.00368514
0.00486002
0.00473046
0.0036668
0.00129746
0.00666423
0.00424521
0.00680447
0.00319174
0.0025636
0.00184099
0.00581878
0.00519994
0.00334349
0.0044749
0.00556443
0.00086342
0.00556165
0.000873505
0.00568932
0.00641434
0.00530385
0.00326595
0.00544896
0.00704639
0.00414367
0.00515205
0.00486977
0.0022103
0.00701156
0.000310706
0.00702766
0.000671889
0.00415625
0.00497156
0.00383346
0.0074714
0.00590226
0.00224785
0.00352841
0.0059612
0.00354073
0.0074179
0.00326511
0.00669947
0.00633972
0.00326424
0.000912463
0.0027952
0.0060267
0.00396199
0.00589009
0.00571288
0.00429166
0.00299898
0.00499002
0.00257473
0.00449706
0.00411851
0.00607563
0.00742414
0.00315719
0.00542154
0.00232388
0.00499667
0.00407739
0.000516105
0.00738985
0.000387654
0.0025459
0.00359557
0.00256439
0.0002793
0.00364003
0.00433991
0.007079
0.00620417
0.00529613
0.00637949
0.00111493
0.000371664
0.00743188
0.00184588
0.00303851
0.000734191
0.00194431
0.00391129
0.00479058
0.00286679
0.00460972
0.00112401
0.000357885
0.00390715
0.00522523
0.00656112
0.000290761
0.00508831
0.0045315
0.00598779
0.00602612
0.00696054
0.00521209
0.00098
0.00226923
0.00465937
0.00746955
0.00389797
0.00453826
0.00474269
0.00610482
0.00690562
0.00582726
0.00422776
0.00706693
0.00323653
0.00470964
0.00292497
0.00508199
0.00689699
0.00213004
0.00232312
0.00513029
0.00680837
0.0040036
0.00747105
0.00434924
0.00430392
0.00745915
0.00321144
0.00438608
0.0043148
0.00379867
0.0020691
0.00288196
0.00379935
0.00157659
0.00230671
0.00420353
0.00293442
0.00233574
0.0015347
0.00619096
0.00230164
0.00668491
0.00366591
0.00404033
0.00410774
0.00317476
0.00748888
0.00217764
0.00335416
0.00147841
0.00282686
0.00164115
0.00197147
0.00390378
0.00448935
0.00661116
0.00278781
0.00625903
0.00733161
0.00418613
0.00590018
0.00627108
0.00372017
0.00645945
0.0018975
0.00423643
0.00742026
0.00323649
0.0066457
0.00661541
0.00296242
0.00310068
0.00739659
0.00298458
0.00745955
0.00383473
0.00261573
0.00471448
0.00377953
0.00636774
0.00408318
0.0043807
0.00385442
0.00384053
0.00183252
0.00155952
0.00578305
0.00189762
0.00204805
0.00190128
0.00049537
0.00159431
0.000533933
0.00109835
0.00447363
0.00116869
0.00286773
0.00367592
0.00339175
0.00327982
0.00338784
0.00394941
0.00709622
0.000672526
0.00441809
0.00737543
0.00492412
0.00427766
0.00316492
0.00267421
0.00604589
0.00476617
0.00454802
0.00362856
0.00603925
0.00363279
0.00466891
0.000853968
0.000767201
0.000493339
0.00666099
0.00562599
0.00654121
0.00303787
0.000753192
0.00353445
0.00271946
0.00171729
0.00442022
0.00319479
0.00296884
0.0032114
0.00131413
0.00184187
0.00692694
0.00503676
0.00569203
0.0039382
0.00644425
0.00389503
0.00422685
0.00513303
0.0039283
0.00344296
0.000954781
0.00333971
0.00383652
0.00297231
0.00660472
0.00078053
0.0063061
0.00590706
0.00532506
0.00669733
0.00663346
0.00567457
0.00562119
0.00511786
0.00559092
0.00470848
0.0061691
0.00343348
0.00384926
0.00661269
0.00611894
0.00493921
0.00641262
0.0065013
0.00229301
0.00378102
0.00673796
0.0063528
0.00385723
0.00177197
0.00500165
0.00392172
0.0031821
0.00579554
0.00600119
0.00272582
0.00743423
0.00476553
0.00656413
0.00269009
0.00135432
0.00364633
0.0067867
0.00192608
0.00675262
0.00437678
0.00382712
0.00502322
0.00659564
0.00563146
0.00662904
0.00634159
0.00481448
0.00387515
0.00439928
0.00361051
0.00555046
0.00717389
0.00364398
0.00522333
0.00534184
0.00384907
0.00493572
0.00435533
0.00585609
0.00515315
0.00338935
0.00317471
0.0055192
0.00107891
0.00612627
0.00239375
0.00449208
0.00332187
0.00329784
0.00595859
0.00231542
0.0060496
0.00336627
0.00582767
0.00116456
0.000902652
0.00617453
0.00229137
0.00367102
0.00342782
0.00361672
0.00387088
0.00357613
0.00389305
0.00459131
0.00577631
0.00294713
0.00422097
0.00579191
0.00375444
0.00374987
0.00558486
0.000797949
0.000318276
0.0063445
0.000438139
0.000405597
0.0039284
0.000391735
0.000972794
0.00576309
0.00365833
0.00387271
0.00370419
0.000983635
0.00359503
0.0054043
0.0057454
0.00396892
0.00370035
0.00380413
0.00349971
0.00125771
0.000734061
0.00112828
0.00543748
0.000870642
0.00344591
0.00464952
0.00662007
0.00476427
0.00667147
0.00422912
0.00478985
0.00284693
0.00414071
0.0074896
0.0036272
0.00496625
0.00408937
0.00677844
0.00450076
0.00431527
0.00523067
0.00562919
0.00338499
0.00265537
0.00498806
0.00393994
0.00669213
0.00141724
0.00277632
0.00177073
0.00744304
0.00245276
0.00270897
0.00260691
0.00640988
0.00345094
0.00740266
0.00486007
0.00250626
0.00310365
0.00332903
0.00279836
0.00489117
0.00217784
0.000774997
0.00568382
0.00139646
0.00558159
0.00140525
0.00539992
0.00538176
0.00620555
0.00411266
0.00468964
0.00278312
0.00458959
0.00605456
0.0060269
0.00526065
0.00409493
0.00251188
0.00320001
0.0066808
0.00516907
0.00419763
0.0046076
0.00477452
0.00456399
0.00433425
0.00219421
0.00472287
0.00372038
0.000604037
0.00479653
0.00413295
0.00618751
0.00741179
0.00156423
0.00212883
0.00421691
0.00519098
0.004086
0.00356199
0.00683656
0.0020125
0.00747828
0.00597988
0.00208921
0.00250137
0.00478085
0.00264062
0.0068751
0.00394116
0.00397114
0.00489419
0.00650241
0.0051702
0.00089896
0.00443841
0.00232451
0.00614396
0.00185172
0.00562064
0.00471959
0.00181384
0.00220011
0.00422438
0.00613492
0.000667833
0.00492845
0.00496916
0.00483167
0.00568533
0.00610249
0.00196862
0.00287002
0.00551428
0.00432547
0.00428688
0.00646407
0.00167977
0.00650206
0.00480579
0.000383093
0.00411297
0.00663182
0.000721066
0.00116856
0.00705451
0.000294164
0.000309646
0.00394566
0.00744585
0.00520607
0.00644325
0.00425996
0.00364682
0.00131814
0.00681022
0.00257568
0.00554209
0.00180778
0.00207844
0.00433117
0.00450323
0.00178534
0.00665088
0.00551447
0.0032568
0.00320167
0.00221699
0.00289474
0.00290858
0.00667257
0.00323131
0.00285124
0.0028431
0.00532507
0.00278101
0.00288225
0.00592568
0.00237733
0.00358636
0.00369053
0.00258148
0.00326294
0.00405097
0.0049296
0.00513606
0.00146025
0.00507651
0.00592545
0.00538395
0.00026395
0.00364111
0.00436238
0.000472349
0.000718349
0.00667011
0.00464973
0.000136213
0.00197569
0.000688435
0.00247695
0.00315409
0.00080057
0.0045572
0.00562062
0.00590921
0.00260703
0.00335451
0.0033283
0.00584872
0.00304098
0.0041104
0.00362122
0.00547469
0.00408178
0.00346577
0.00171635
0.00088987
0.00264015
0.00259199
0.00383134
0.00503016
0.00341996
0.00741649
0.00605393
0.0056784
0.00526679
0.00493568
0.00182919
0.00469464
0.00590683
0.00169289
0.00185428
0.0015252
0.0010601
0.00371404
0.0067193
0.00472663
0.0064245
0.00141784
0.00413534
0.00142864
0.00401798
0.0033981
0.00453471
0.00440725
0.00544181
0.00317551
0.00163218
0.0032895
0.00468767
0.00186379
0.00377303
0.00748587
0.00400679
0.00391398
0.00205488
0.00456804
0.00182024
0.00321963
0.00747321
0.00608587
0.00237183
0.00387692
0.00328975
0.00743286
0.00487036
0.00386138
0.00418753
0.00393242
0.00366168
0.00435025
0.000792189
0.000548061
0.00401414
0.000707844
0.00420475
0.00272063
0.00323355
0.00571835
0.00387332
0.00441361
0.00375937
0.00379582
0.00601145
0.000511768
0.00211175
0.00317031
0.00506615
0.00592857
0.00358492
0.0048307
0.00227521
0.00695435
0.00160778
0.00381867
0.00632671
0.00388248
0.00594683
0.00501909
0.00414679
0.00530074
0.0033631
0.00665752
0.0056901
0.00327531
0.000898173
0.00660453
0.00074065
0.00197118
0.0018684
0.000688598
0.00396201
0.00350439
0.00185573
0.0029606
0.000723228
0.00079101
0.000841715
0.0029718
0.00443008
0.00292686
0.00277855
0.000758117
0.00235157
0.00349047
0.00492202
0.00398596
0.00359957
0.00309772
0.00525489
0.00400703
0.00116373
0.00174417
0.00555464
0.00246468
0.000972725
0.000628431
0.0042714
0.000649034
0.00176236
0.000600104
0.000768791
0.00449996
0.00293242
0.00647654
0.00601301
0.00459291
0.000678231
0.00111361
0.00453782
0.00465822
0.00667998
0.000870638
0.000839686
0.00666466
0.00218602
0.00346224
0.00663743
0.00214014
0.00667549
0.00675279
0.00397404
0.00454901
0.00139354
0.00588348
0.0065643
0.0046567
0.00505248
0.00502196
0.000908999
0.00180771
0.00647814
0.00111852
0.00557645
0.00598772
0.00591733
0.00170503
0.00439009
0.00277808
0.00247181
0.00515874
0.00652406
0.0011302
0.000592425
0.00417204
0.00362372
0.00182271
0.00501396
0.00560946
0.0028365
0.00258646
0.00294507
0.00842727
0.00247031
0.0010106
0.0074237
0.000971347
0.00468261
0.00378848
0.00620283
0.00192034
0.0025173
0.00636002
0.00487952
0.00109868
0.00293679
0.00255959
0.00427147
0.0048128
0.0042959
0.00368703
0.00409015
0.00287325
0.000641485
0.00420182
0.00241117
0.00174138
0.00172805
0.000969259
0.00168574
0.00391354
0.000504934
0.0064311
0.00621304
0.0035654
0.00236537
0.00363488
0.00124092
0.0011808
0.00309208
0.00403487
0.0040419
0.00302405
0.00346657
0.00379996
0.0111657
0.00150117
0.00368696
0.00304036
0.00226327
0.00199283
0.00601548
0.00051359
0.00381389
0.00537197
0.00386731
0.00379203
0.0125754
0.00613999
0.002961
0.00386328
0.000629202
0.00258944
0.00467134
0.00353208
0.00514879
0.0034209
0.000693163
0.00462404
0.00307052
0.00494592
0.00162396
0.00286743
0.00376015
0.00546096
0.00528976
0.00357869
0.00235836
0.00357744
0.00147811
0.000693393
0.00483054
0.00641064
0.00435574
0.000924926
0.00480814
0.00257052
0.00641986
0.00161113
0.00137079
0.0031391
0.00282301
0.00434286
0.00628536
0.00514757
0.00309384
0.00123059
0.00193839
0.00125179
0.00584057
0.00200168
0.00216436
0.00271518
0.00336654
0.00630633
0.00165892
0.00161582
0.00320126
0.00078893
0.00337588
0.00334715
0.00397692
0.00446504
0.00308915
0.00437378
0.00108501
0.00491868
0.00442825
0.00391978
0.00552696
0.000704311
0.00309899
0.000629846
0.00142196
0.000760759
0.00202498
0.00370331
0.00115315
0.00327468
0.00113311
0.00193664
0.00198538
0.00236767
0.00264982
0.00472169
0.00396435
0.00746824
0.0012783
0.00365649
0.00325519
0.00396444
0.00119621
0.00538991
0.00420737
0.00572133
0.00746033
0.00283338
0.0016056
0.00280643
0.00283038
0.00470243
0.00225719
0.00648143
0.00301788
0.00295265
0.00592978
0.00209926
0.00206332
0.00398557
0.001813
0.00354238
0.00379877
0.0020041
0.00284425
0.0029653
0.000200408
0.000720206
0.00248155
0.000706699
0.0031778
0.00300204
0.000545943
0.000854653
0.00428247
0.000924956
0.00323022
0.00418984
0.000573039
0.0025461
0.00639236
0.00308642
0.00127214
0.00534329
0.00061545
0.000316755
0.00213187
0.000777175
0.00215635
0.000849619
0.000804983
0.00507049
0.0043862
0.00269413
0.0016124
0.00358958
0.00675655
0.00184711
0.000657085
0.00352822
0.00149124
0.00409389
0.00194688
0.00584482
0.00551329
0.00368948
0.00325271
0.00406768
0.0015796
0.00454261
0.00149516
0.00650651
0.00525642
0.00585025
0.00324023
0.004899
0.00659776
0.000720371
0.00253477
0.00235942
0.00365968
0.00255589
0.00330628
0.00131125
0.00388968
0.000995193
0.0029546
0.00476908
0.0029108
0.00371081
0.000767429
0.00178033
0.00156009
0.00587656
0.0043154
0.0018074
0.00390995
0.00291632
0.00499016
0.00740451
0.0058892
0.0039051
0.00374848
0.000767352
0.00348049
0.000466262
0.00364662
0.00430284
0.00288205
0.00475129
0.0036404
0.00385745
0.00414146
0.00191432
0.00526524
0.00130531
0.00685228
0.000339177
0.00133846
0.00152622
0.00195199
0.0041254
0.00523254
0.00343544
0.00458046
0.00057816
0.000721649
0.00332474
0.00213464
0.000970214
0.000841578
0.00224304
0.00109133
0.00071426
0.00336854
0.00433568
0.000534834
0.00371388
0.00412337
0.00396114
0.00101698
0.000448385
0.00369282
0.0031996
0.00118761
0.00235299
0.00236386
0.000700768
0.0031858
0.00100841
0.00112901
0.002893
0.0040787
0.00127294
0.00525791
0.00232486
0.000220884
0.00674606
0.00403445
0.003607
0.00476538
0.00294487
0.00291073
0.00680084
0.00290976
0.0040311
0.000738439
0.00145145
0.00410843
0.0013494
0.00942333
0.000367283
0.00635164
0.00332326
0.00204818
0.00469506
0.000927339
0.00378583
0.00293443
0.00232432
0.00548082
0.00382014
0.00685316
0.00208764
0.000624441
0.00533148
0.00179186
0.000642084
0.00257504
0.00336685
0.000907944
0.00153715
0.00478143
0.00456561
0.000951201
0.00176701
0.00234366
0.00077089
0.002586
0.000836349
0.00333661
0.00265157
0.00205972
0.000939656
0.00789772
0.00468226
0.00203263
0.0042849
0.00255693
0.00362843
0.00213637
0.004656
0.00323214
0.00575609
0.00147809
0.00560391
0.000584862
0.00212514
0.00556554
0.00739773
0.00184805
0.00149299
0.000792546
0.00171007
0.00178782
0.00100185
0.000794733
0.00388619
0.0008894
0.00535068
0.00270977
0.000372349
0.00139588
0.00308877
0.00322511
0.005613
0.00131093
0.00151352
0.00141297
0.0036495
0.00804893
0.00665268
0.00159997
0.00309551
0.00379483
0.00627761
0.000928897
0.00252134
0.00148097
0.00393724
0.00139093
0.0038325
0.00279374
0.00100404
0.00176402
0.00231547
0.00227268
0.00522009
0.000381033
0.0015705
0.00139226
0.00135314
0.00850215
0.00494031
0.000945216
0.000725224
0.00159005
0.00245788
0.0024368
0.00181247
0.00209409
0.00163408
0.00505106
0.00119643
0.00121084
0.00497766
0.00106879
0.00326886
0.00225322
0.00260802
0.00114631
0.00237283
0.00524055
0.00061184
0.00322516
0.0005949
0.00255957
0.00340819
0.00290457
0.00169342
0.00114856
0.00244901
0.00343749
0.00275176
0.00113432
0.00363697
0.00401121
0.00065581
0.0061967
0.00350901
0.000776849
0.00316293
0.003436
0.00309515
0.00234012
0.0010637
0.00340729
0.000144421
0.00244618
0.000781622
0.00375014
0.00102783
0.00243798
0.000831701
0.0014138
0.00157424
0.00445509
0.00386958
0.00741053
0.00386851
0.00342074
0.00284359
0.000659094
0.00375518
0.00595131
0.00378546
0.00452297
0.00268233
0.00415355
0.0066349
0.00745234
0.00292528
0.000873125
0.00629697
0.00273985
0.00209239
0.00507001
0.00597775
0.00278004
0.00198122
0.00747109
0.00508025
0.00319094
0.00344119
0.00514389
0.00387981
0.00110415
0.00384963
0.00301674
0.00506451
0.00640318
0.00185064
0.00457695
0.00574375
0.000814303
0.00255997
0.000899725
0.00584424
0.000819954
0.000395506
0.00476452
0.000381369
0.000727634
0.000470805
0.00384675
0.00431816
0.00423716
0.0012596
0.00672911
0.00433016
0.00440583
0.00374689
0.00257278
0.00332679
0.00335829
0.00094849
0.00421944
0.0026208
0.000749639
0.00400476
0.000292037
0.00150365
0.00116602
0.00561823
0.0029797
0.00185343
0.00552748
0.00432507
0.00192707
0.00621455
0.00301356
0.00147978
0.000513494
0.00657619
0.00143121
0.00463374
0.00288746
0.00196175
0.00471221
0.00125577
0.00415536
0.00193748
0.00423338
0.00124132
0.00026771
0.00364863
0.006424
0.00208822
0.00443898
0.000942449
0.00374031
0.00363209
0.0041093
0.00390058
0.00502441
0.00685649
0.00354171
0.00205605
0.00469144
0.00218337
0.00378068
0.00375963
0.00656898
0.00229558
0.00409901
0.00393425
0.00607712
0.004214
0.00411041
0.00302529
0.00398165
0.00425044
0.00556103
0.00225046
0.00254633
0.0074721
0.00372286
0.00340751
0.00480719
0.00372507
0.00506657
0.00427382
0.00392099
0.00374496
0.00606288
0.00372863
0.00531073
0.00435569
0.00586432
0.00195955
0.00218468
0.00196175
0.00361907
0.00446324
0.00386642
0.00109368
0.00473345
0.00452462
0.00505957
0.00136301
0.00295984
0.00116674
0.00117929
0.00120422
0.00281856
0.00419395
0.00378828
0.00389992
0.00571291
0.00115322
0.00368974
0.00574751
0.00386295
0.00308567
0.00375934
0.00161727
0.00375146
0.00231715
0.0026463
0.00321963
0.00566796
0.00413448
0.00351471
0.00360519
0.00425208
0.00286945
0.00307777
0.00239461
0.00351103
0.00508193
0.00492279
0.0020365
0.00182924
0.00435061
0.00395033
0.00221225
0.0036033
0.00224095
0.00532161
0.00465784
0.00220314
0.0043347
0.00526758
0.00446598
0.00631724
0.00547127
0.00325799
0.00406849
0.00217391
0.00414333
0.00211376
0.00523287
0.00402801
0.00102488
0.00377757
0.00412349
0.0045647
0.00474576
0.00381488
0.00416615
0.000292971
0.00344005
0.00543552
0.00541484
0.0047512
0.00489505
0.00659729
0.00552668
0.00347884
0.00389783
0.00552614
0.00605645
0.00313503
0.0009417
0.00117944
0.00290434
0.00172651
0.00348062
0.00365079
0.00351399
0.0036955
0.00189324
0.00308486
0.00375984
0.000790119
0.00448574
0.00376428
0.00365326
0.00379507
0.00494246
0.00027498
0.00435983
0.0034346
0.00743038
0.00251222
0.0022303
0.0003891
0.000208415
0.00431307
0.00525358
0.00639951
0.00376219
0.0034884
0.0044933
0.000188761
0.00232041
0.00441564
0.00244551
0.00111679
0.00449947
0.0100502
0.0031971
0.00638059
0.00465609
0.00593065
0.00399452
0.00244344
0.00368316
0.00403364
0.00460742
0.00167841
0.00400819
0.00743715
0.00154692
0.00571884
0.00296412
0.00250661
0.000998211
0.00145478
0.00331448
0.00287962
0.00460195
0.00284779
0.0027523
0.00528336
0.000561476
0.00144562
0.00287974
0.00365164
0.00339964
0.00368038
0.00366119
0.00112459
0.00654197
0.00598489
0.00574163
0.00538211
0.000772103
0.00114278
0.00116108
0.00169085
0.00268138
0.0028797
0.00674912
0.0060887
0.00454905
0.00458427
0.00477434
0.00511981
0.0065848
0.00105244
0.000683905
0.006547
0.00503111
0.00230201
0.00298254
0.00256636
0.00641673
0.00397484
0.00189971
0.000850453
0.00326141
0.00193721
0.00258855
0.00163485
0.000534034
0.00300841
0.00556025
0.00642003
0.00617168
0.000849056
0.00479361
0.00435008
0.00399557
0.00668061
0.000744996
0.000411139
0.000401642
0.00159118
0.00538962
0.00552037
0.0062562
0.00192268
0.00341887
0.000847851
0.000843794
0.000738599
0.000530063
0.0007466
0.00150703
0.00644705
0.000710288
0.00739758
0.000315751
0.00390475
0.000732185
0.0044416
0.00154815
0.00592193
0.00278465
0.00224757
0.00225489
0.0041494
0.00559503
0.00398861
0.000811284
0.000942294
0.00500285
0.00516236
0.000447769
0.000498669
0.0033732
0.00143474
0.000848488
0.00144787
0.00426244
0.00634715
0.000955885
0.000877752
0.00135667
0.00703072
0.00139447
0.00575961
0.000956264
0.0011552
0.000643808
0.00219458
0.00534828
0.00132762
0.00620603
0.004596
0.00364762
0.00200442
0.00468363
0.00330031
0.00385555
0.00367493
0.00393436
0.00548169
0.00579582
0.00300634
0.00617036
0.00522656
0.00400476
0.00374847
0.0013775
0.00362957
0.00228577
0.00391516
0.00437098
0.00414006
0.000872046
0.00327483
0.00316978
0.00173535
0.000528587
0.00399102
0.00535627
0.00275417
0.00086917
0.00195147
0.00114718
0.00420911
0.00588841
0.00379729
0.00320819
0.00498404
0.00322134
0.00297935
0.00343172
0.00624525
0.00424326
0.00408485
0.00421147
0.00302007
0.00386744
0.00351299
0.000597892
0.00325813
0.00382011
0.00392323
0.00275208
0.00099048
0.00317283
0.00333761
0.00422914
0.00297842
0.001087
0.00113375
0.00362551
0.00308057
0.000344895
0.00145212
0.00200215
0.00395203
0.00142864
0.00306199
0.00389245
0.00235011
0.00101067
0.00460846
0.00395993
0.00336986
0.00599894
0.00229832
0.00260338
0.00299163
0.00332888
0.00194431
0.00382799
0.00584155
0.00642253
0.00157969
0.00312443
0.00357672
0.00640757
0.00458878
0.000732828
0.00293936
0.00332154
0.000409697
0.0015666
0.00552464
0.00336389
0.000928295
0.00149032
0.00219504
0.00656721
0.00287597
0.000933514
0.00418558
0.00664378
0.000627692
0.00162402
0.00120101
0.00213088
0.00458978
0.0042362
0.00142788
0.000532004
0.000723264
0.00446577
0.00485403
0.000547543
0.00444559
0.00185065
0.00286427
0.00144078
0.000946036
0.00467804
0.00322562
0.00106178
0.00393085
0.0049891
0.00447649
0.00353131
0.00512417
0.000795681
0.000270547
0.00305677
0.00349593
0.000656112
0.000470528
0.000622147
0.00182905
0.00100047
0.00176616
0.000481952
0.00352553
0.00353175
0.000843416
0.00201629
0.00205685
0.00114384
0.000928843
0.00041503
0.00516398
0.00478405
0.00071814
0.0061242
0.00415005
0.000731505
0.00487807
0.00312685
0.00381363
0.00257906
0.00490756
0.00575819
0.000426136
0.00067005
0.00233076
0.000594121
0.0023396
0.0033673
0.00419474
0.00400958
0.0031173
0.00412736
0.0046266
0.00366029
0.00401114
0.000594937
0.000547639
0.00356783
0.00152137
0.0036432
0.00415555
0.00247361
0.00345901
0.00356535
0.0041349
0.00038669
0.000979478
0.00412275
0.00052826
0.00276195
0.00133845
0.00259373
0.00324594
0.00146046
0.00276344
0.000968632
0.0026495
0.00287187
0.00287255
0.00564954
0.00110708
0.00653164
0.00499292
0.00211548
0.00416934
0.00135713
0.00316273
0.0022513
0.00337952
0.000762356
0.00368274
0.00340567
0.00362486
0.00637392
0.00687166
0.00273815
0.00199152
0.000411762
0.0026544
0.000739054
0.0027033
0.00405975
0.00530034
0.00418761
0.0045303
0.00380656
0.00307419
0.00110405
0.00218421
0.00106909
0.000556866
0.00239367
0.00394028
0.000154666
0.000745148
0.00659764
0.00719035
0.0010997
0.00373703
0.000641493
0.000415825
0.00265299
0.000658459
0.00118444
0.00255634
0.000667934
0.00149613
0.00504283
0.00348345
0.000918524
0.00119031
0.0052289
0.000858331
0.00567205
0.00262925
0.00385081
0.0026183
0.00162888
0.000738212
0.000893024
0.00589199
0.005689
0.000215954
0.00648362
0.00426217
0.00107965
0.00518823
0.00267393
0.00393527
0.00281201
0.000497771
0.0012128
0.000892581
0.00158269
0.00315235
0.000984049
0.00533363
0.00442523
0.000899933
0.00623938
0.0034923
0.00259962
0.00478522
0.00115045
0.000579959
0.00607868
0.00210456
0.00633468
0.00066335
0.00363658
0.000528031
0.00272839
0.0032957
0.00484742
0.00239664
0.00263529
0.00567363
0.00374629
0.00307821
0.00615248
0.00137316
0.00312724
0.00339933
0.00577911
0.00345638
0.00338755
0.00215275
0.00279774
0.00217189
0.00279911
0.00307078
0.00328617
0.00127714
0.000501725
0.00071189
0.000637702
0.00102923
0.00077051
0.000784311
0.00245242
0.000177974
0.000550922
0.00206483
0.00157473
0.00226545
0.000852913
0.000894276
0.00196069
0.00150062
0.00192375
0.00550266
0.00227152
0.00213777
0.00357963
0.000834331
0.00316874
0.00064367
0.00171313
0.00103583
0.00131976
0.00143273
0.000627582
0.00161448
0.000531144
0.00255866
0.00378039
0.00353372
0.00144344
0.00471122
0.0051062
0.000827581
0.00313904
0.00089646
0.00167366
0.00502166
0.00230583
0.00376085
0.00137178
0.00102824
0.00567366
0.00439606
0.0014554
0.00094157
0.00361263
0.00261975
0.00130882
0.000984589
0.00383933
0.00633003
0.00377176
0.00384161
0.000633645
0.00657298
0.00080482
0.000342383
0.00471928
0.00218972
0.00388009
0.00287634
0.00082329
0.00270483
0.000742359
0.0030573
0.00403904
0.000451634
0.000988436
0.00492502
0.0022608
0.00488399
0.00611787
0.00124417
0.00383368
0.000681817
0.00346365
0.00581283
0.0026195
0.0056061
0.00454627
0.00488363
0.00438943
0.00267614
0.00172012
0.00131796
0.0055106
0.000972435
0.00480998
0.00602786
0.00211457
0.00113216
0.000734465
0.00077587
0.00203586
0.00190296
0.000970002
0.000815522
0.000792828
0.00076689
0.00261947
0.00294669
0.00377595
0.00131906
0.00458845
0.00244795
0.00300773
0.00118941
0.000476709
0.00348142
0.00246969
0.00347541
0.00387903
0.00332836
0.00296282
0.00514292
0.00419995
0.0026899
0.00272921
0.00256477
0.00501277
0.0028049
0.00159803
0.000682982
0.00413908
0.000514304
0.00744377
0.00251249
0.00684092
0.0043789
0.000797196
0.00264995
0.00103052
0.00345407
0.0032583
0.00301427
0.00417113
0.00436471
0.00401157
0.00295979
0.0153578
0.00684027
0.000693411
0.00261879
0.00107872
0.00268922
0.00102219
0.00528488
0.0043716
0.00322288
0.00366391
0.00280961
0.000874518
0.00589957
0.00450903
0.00105203
0.00246715
0.00243077
0.00227552
0.00243944
0.002114
0.0019832
0.00430563
0.00704189
0.00598293
0.00187657
0.00131058
0.00426094
0.000457077
0.007167
0.00157256
0.00619107
0.00567068
0.00164911
0.00435094
0.00635548
0.00084683
0.00742105
0.00388102
0.00123477
0.00432405
0.00632242
0.00113117
0.00610923
0.0069521
0.000956433
0.00250716
0.00282925
0.000671463
0.00670636
0.00164434
0.0011643
0.00149845
0.000826031
0.00108294
0.00379841
0.00582482
0.00269839
0.00543171
0.00161086
0.00274855
0.00462062
0.00511115
0.00348112
0.0010991
0.00290377
0.0040643
0.00420991
0.00334775
0.00222264
0.00738817
0.00209993
0.000972385
0.00348197
0.00315055
0.0040573
0.00332076
0.00256324
0.00432335
0.00208894
0.00300503
0.000554569
0.00345276
0.0068508
0.000877908
0.00286875
0.0006277
0.000893962
0.00672666
0.00314856
0.00107811
0.00309252
0.000630003
0.00126873
0.000536617
0.0012843
0.000609633
0.00289563
0.0013236
0.00148781
0.000488124
0.00100917
0.00274535
0.000609548
0.000665859
0.00333761
0.0003108
0.00107765
0.00542653
0.00336787
0.00141788
0.00082633
0.0067756
0.00358097
0.000858258
0.000648898
0.001007
0.00113564
0.00140438
0.000722451
0.00264429
0.00355628
0.00406041
0.00610255
0.00297742
0.00583799
0.000885433
0.00288074
0.00418867
0.00060364
0.0036007
0.00223433
0.00401673
0.00543636
0.00304286
0.00383726
0.00172981
0.00575297
0.0015727
0.000553951
0.00433198
0.00555716
0.00306697
0.0043876
0.000995602
0.00400755
0.00473001
0.00494091
0.000500556
0.0057275
0.00311764
0.00583643
0.00147819
0.00290022
0.00408288
0.00556429
0.00470891
0.00164623
0.00334266
0.00232384
0.00692845
0.00626589
0.00614016
0.00417074
0.00421555
0.00337224
0.00573554
0.00316671
0.003532
0.00208853
0.0010939
0.000975401
0.00283953
0.00155866
0.00409178
0.00250857
0.00344484
0.00363827
0.00582326
0.00309741
0.00416256
0.0057263
0.00191081
0.00440546
0.00282079
0.000941845
0.00447752
0.00260269
0.00103477
0.00339306
0.00100665
0.00161377
0.00107885
0.000293465
0.00263341
0.00469564
0.00247215
0.000400769
0.00208207
0.00637306
0.00561168
0.00440947
0.00306888
0.00415511
0.00654916
0.00677102
0.00319168
0.00262427
0.00681629
0.00632148
0.00680286
0.00471774
0.00251571
0.00152764
0.00281089
0.00562988
0.00312896
0.000832744
0.00487989
0.00555455
0.0042844
0.000561427
0.000557817
0.0037487
0.00539697
0.00411784
0.00253644
0.00351298
0.00108472
0.00151199
0.00444059
0.00393399
0.00501866
0.00322514
0.00160476
0.00431433
0.00310561
0.00327101
0.0011461
0.00189177
0.00154024
0.000829339
0.000185958
0.00185357
0.00185128
0.0040373
0.0036811
0.00314816
0.00312828
0.00511065
0.00406525
0.000437847
0.0056239
0.00170796
0.000464397
0.00317849
0.00286411
0.000666651
0.00186251
0.00381131
0.00365495
0.00676062
0.00283436
0.000976575
0.00368296
0.00131859
0.00934042
0.00229901
0.000716693
0.00076829
0.00302642
0.00265635
0.00093731
0.00417897
0.000598254
0.00052213
0.0011024
0.0074196
0.00599787
0.000314196
0.00520192
0.000471575
0.00175962
0.00290834
0.000984329
0.00174574
0.00570445
0.00665421
0.000880247
0.00571515
0.00550151
0.0043556
0.00589317
0.00420706
0.00308903
0.00186255
0.0050363
0.00032727
0.00298475
0.0032537
0.00361542
0.000277046
0.00388123
0.00050691
0.0043268
0.00263424
0.00334664
0.000969751
0.00559029
0.00366093
0.00442786
0.0009311
0.00167129
0.00164765
0.00118885
0.00254076
0.00561306
0.000745091
0.00324782
0.00307354
0.00327723
0.005454
0.0029049
0.0038615
0.00717929
0.000328886
0.00111347
0.00403353
0.00438569
0.00300345
0.00353175
0.0025227
0.00243748
0.00409241
0.0021379
0.00395191
0.00442908
0.00408075
0.00146499
0.0043178
0.00402482
0.00412125
0.00328128
0.0067548
0.00536788
0.00423845
0.00269921
0.00359168
0.00265699
0.0024921
0.00333353
0.000784172
0.00448106
0.00233579
0.00181207
0.00102538
0.00138236
0.00345197
0.0103746
0.0016217
0.000804675
0.00385726
0.00117337
0.00389419
0.00637438
0.00256526
0.00167212
0.00370211
0.00380161
0.00625115
0.00437245
0.000319425
0.00435633
0.00594638
0.0021137
0.000478294
0.000400817
0.00306497
0.000276361
0.0014413
0.00109767
0.00190157
0.0014309
0.000452693
0.00426051
0.000581908
0.00376036
0.00423817
0.0091793
0.000418586
0.00184223
0.00616468
0.00518084
0.000921515
0.0034387
0.000416967
0.0063312
0.00280921
0.00363421
0.00280106
0.00058522
0.00669562
0.00307118
0.00274196
0.00481671
0.00355673
0.00502538
0.00269917
0.000419757
0.000400422
0.000763849
0.00126669
0.00122973
0.00505645
0.00548085
0.00469299
0.00351366
0.00619144
0.00126175
0.00680173
0.000772944
0.00406712
0.00581649
0.00520167
0.00458634
0.00590166
0.00310058
0.00286251
0.00720362
0.00298706
0.000777565
0.00460107
0.000902481
0.000884999
0.00582431
0.000312707
0.000502842
0.00266729
0.00281899
0.00336835
0.00109471
0.00447972
0.00175889
0.0010929
0.00484401
0.00144631
0.00649707
0.00179799
0.00382462
0.00212579
0.00226966
0.000836158
0.00332799
0.00346973
0.000564891
0.00115616
0.00175718
0.00127445
0.00566131
0.00310141
0.0037321
0.00163374
0.00305723
0.00612341
0.00114832
0.0023656
0.00223086
0.00646342
0.000554935
0.000745096
0.000518483
0.00497601
0.0034503
0.000768726
0.000466089
0.00237741
0.0034761
0.0024579
0.000927703
0.000553002
0.00155948
0.00674799
0.00808469
0.00413595
0.00427197
0.00399027
0.000506932
0.00467758
0.00150289
0.00305382
0.00619329
0.00255756
0.00246634
0.0060599
0.00385075
0.00654544
0.00227199
0.00249718
0.00468795
0.00740116
0.00239155
0.00249829
0.00256588
0.00187256
0.00188286
0.0035341
0.00530801
0.00518023
0.00484694
0.000672718
0.00330108
0.00082537
0.00191704
0.00340292
0.00440742
0.00308845
0.00703464
0.00236559
0.00747109
0.00185083
0.00229772
0.00358892
0.00387846
0.00231435
0.00323726