/*--------------------------------*- C++ -*----------------------------------*\
| =========                 |                                                 |
| \\      /  F ield         | OpenFOAM: The Open Source CFD Toolbox           |
|  \\    /   O peration     | Version:  2506                                  |
|   \\  /    A nd           | Website:  www.openfoam.com                      |
|    \\/     M anipulation  |                                                 |
\*---------------------------------------------------------------------------*/
FoamFile
{
    version     2.0;
    format      ascii;
    arch        "LSB;label=32;scalar=64";
    class       volScalarField;
    location    "0.0982622";
    object      omega;
}
// * * * * * * * * * * * * * * * * * * * * * * * * * * * * * * * * * * * * * //

dimensions      [0 0 -1 0 0 0 0];

internalField   nonuniform List<scalar> 
47425
(
59.0436
65.7395
69.6857
155.107
151.302
68.6269
99.9501
97.5548
49.394
481.404
131.637
43.6145
71.8686
77.0021
93.431
85.4362
66.5625
46.4983
1362.61
199.446
81.6946
42.4891
100.063
60.6164
43.8866
42.8316
74.9974
676.387
67.7299
53.2692
41.2421
44.1884
47.7432
66.6057
55.1644
64.2065
41.8597
67.558
64.5506
72.3716
70.0481
153.12
215.624
144.994
1675.45
98.5959
92.4006
77.6049
76.4922
45.6985
561.589
246.912
47.4808
680.974
108.888
120.058
43.8415
56.3027
76.3724
59.0557
794.139
1246.45
650.183
42.6625
49.3524
43.9218
61.406
87.5483
783.834
43.052
76.6505
51.8479
48.4889
87.6803
527.583
49.4036
678.554
78.166
1315.8
293.617
556.297
63.2242
41.3548
46.9233
72.2901
79.1882
53.9164
54.5399
130.467
411.407
41.7079
73.4277
39.2594
113.395
145.563
191.837
45.6516
51.8909
86.2568
77.2772
60.0854
90.3463
50.8055
94.2802
48.5043
52.7422
55.6417
91.6826
91.6371
43.4908
310.036
61.7392
80.749
152.919
42.179
855.316
41.4564
223.933
75.3423
60.6011
78.6296
48.5449
58.0933
61.8361
94.7798
59.9132
82.4707
49.19
102.91
39.8034
43.4607
91.1801
122.768
115.312
132.767
67.7578
47.0468
63.4919
67.2854
93.8066
70.9426
123.529
68.0998
103.205
50.1696
49.3287
126.135
62.6847
146.067
72.3635
105.521
490.127
48.7557
674.596
45.3657
81.3017
58.3558
857.345
87.6909
68.4487
42.6946
42.7725
48.8701
44.1362
435.242
779.1
45.4419
546.391
103.827
711.944
606.982
81.8173
73.862
44.7514
68.3735
65.3784
712.389
67.9093
51.0361
40.6793
952.487
51.5818
58.3735
44.1805
44.1385
48.3727
55.2654
73.5817
145.423
58.7117
47.9245
69.9014
81.077
77.0232
43.581
41.0226
61.87
68.9813
41.9147
81.6289
64.3906
122.121
88.6273
41.4155
48.3859
156.259
51.4004
41.2669
86.5393
48.44
61.4798
64.5482
47.2034
91.777
63.1518
62.6351
74.8499
273.728
45.6201
92.8825
307.95
117.265
151.92
94.0951
163.606
261.523
43.1894
125.395
46.8857
62.2313
70.3242
69.473
98.5533
49.3224
161.566
89.7973
356.271
106.502
298.022
177.055
81.4592
58.3191
40.1109
98.4374
43.3345
49.4523
66.833
60.5998
42.2228
74.6299
41.7195
241.09
64.8044
49.2833
89.3636
40.0263
43.1954
117.575
91.5823
48.3484
122.123
47.2049
77.3525
132.854
72.3729
86.7704
41.9258
72.4108
61.5538
80.3319
78.6104
260.743
339.234
47.3931
246.511
176.383
247.034
107.167
322.691
179.927
785.015
58.6504
756.885
119.433
77.0524
81.6704
101.141
88.4326
88.8568
43.8079
615.164
41.8724
50.3438
54.78
65.836
93.8888
107.292
45.235
64.5459
54.7923
83.2024
43.2295
81.5746
58.7821
847.062
984.919
643.28
39.9167
46.9974
41.8254
95.4792
666.202
83.3755
112.304
327.539
69.742
102.018
119.337
91.1102
469.216
282.911
41.8442
59.0398
45.929
77.4441
41.3013
76.2739
62.5572
51.8605
69.5205
81.1561
747.494
55.0952
71.6867
129.125
40.2723
742.671
49.181
44.4838
51.0682
42.4613
42.7992
46.2654
50.4184
50.9614
48.4368
57.2614
44.7314
81.3859
79.2343
43.5499
44.0616
60.0799
45.0317
44.9351
45.2303
77.2661
41.2401
46.6482
93.3999
53.0604
59.7812
73.1873
91.8583
46.9883
47.8846
127.247
48.2153
65.8897
42.5539
125.583
802.443
76.4097
41.5251
200.232
41.5061
116.483
92.9186
72.5504
42.078
63.5016
42.335
41.9221
73.7867
82.3927
82.8575
79.7975
51.0697
48.7486
79.0859
47.0046
45.1855
76.8714
55.8605
63.1669
47.0803
61.4081
84.54
70.1466
47.7832
494.477
43.2193
456.849
66.2723
100.927
98.3076
44.7502
141.817
44.0332
89.6092
44.9114
427.858
360.333
42.645
48.5171
77.2867
82.8144
80.6646
71.7787
78.2011
86.5374
64.3412
47.4137
97.3445
69.1904
46.2255
101.317
75.4962
51.0887
146.097
1058.47
43.4024
280.499
876.519
88.3823
895.912
675.507
46.1944
77.2739
73.1779
76.3335
568.721
82.3358
48.6869
46.7468
72.4583
72.811
76.8544
78.1659
548.263
623.2
153.551
65.5412
71.9227
127.927
57.0536
42.2936
67.6314
41.8399
83.9823
75.8111
132.705
68.0594
49.3502
78.7794
58.5358
73.3256
41.9446
63.1552
64.8361
66.6405
63.5382
108.514
114.191
61.2887
79.019
41.898
618.392
129.854
75.0971
46.3424
127.879
258.291
45.2419
41.2559
45.414
47.2993
67.2749
47.766
99.7637
82.5307
46.1611
54.5628
135.603
97.1979
46.069
48.3665
56.7193
52.2117
49.3499
49.4297
43.3766
66.8436
58.9075
105.897
59.6944
44.3157
46.996
41.6494
71.1665
121.744
42.861
39.8356
59.5094
63.3394
57.8203
57.9381
65.8035
71.4311
50.2873
76.9247
100.902
420.947
58.6694
66.66
52.258
49.345
140.171
137.436
72.5884
53.6413
76.5953
110.537
46.196
148.746
48.4578
249.789
45.8983
49.3698
56.6706
132.62
38.841
70.3483
70.8198
81.086
40.9286
50.5819
1090.93
61.0307
139.244
43.1867
102.847
46.1688
57.1745
87.4018
72.8925
66.8836
43.0419
363.576
53.7921
57.0842
54.9096
46.5242
42.8898
56.8104
124.838
47.6861
78.6113
65.9281
41.1885
288.812
42.7324
69.5614
438.828
68.8497
40.2204
309.676
599.061
41.6937
604.422
633.9
68.0059
46.5982
50.4769
42.3897
84.9595
83.7061
725.435
41.4805
120.144
47.8226
122.537
55.4854
85.3081
64.3901
448.78
290.94
50.5
91.8471
99.3241
82.4023
117.893
121.133
47.6101
94.9012
132.906
96.8107
67.4379
142.074
49.8809
46.6039
142.06
91.6006
75.6417
114.321
97.7204
66.625
73.4172
63.8071
52.4825
67.6207
45.4536
55.2812
1276.32
61.0276
79.7344
1044.27
1026.27
40.0528
76.3702
1538.68
161.505
94.8486
328.048
119.462
758.738
58.1473
46.8141
60.0461
176.834
113.729
112.841
44.9891
114.713
65.9496
80.7715
47.577
76.5631
57.6387
472.05
717.482
116.838
47.8803
82.8044
41.451
109.455
47.4195
58.2118
63.5018
65.0524
43.081
167.302
75.5058
46.2349
65.2681
178.187
488.783
242.17
82.3493
41.2443
73.0882
41.3326
603.924
67.2828
679.156
80.4377
118.171
65.4421
66.0811
57.6145
85.6576
53.345
86.3658
56.2719
203.779
90.4672
49.2336
72.6914
87.8183
363.603
65.4637
199.029
69.0684
48.6641
43.9177
134.459
79.0181
72.5602
45.9282
60.9399
66.9729
69.0897
79.4094
76.7252
63.0998
124.337
193.328
68.9556
97.0116
65.413
108.026
87.562
46.6503
144.588
59.9533
76.8255
74.9297
44.099
291.176
421.113
90.7202
65.9133
45.1628
88.0028
55.2067
129.295
42.3082
302.33
76.5869
41.9858
73.7954
45.2663
57.0752
67.2299
49.2864
86.2226
39.9531
45.8607
47.9015
162.83
40.1548
316.755
305.794
271.468
352.698
74.9123
238.031
59.0042
45.135
140.851
301.508
398.403
103.282
61.7016
151.164
109.726
165.941
122.649
91.4779
56.0345
67.9796
109.111
112.87
54.2375
77.7773
252.289
55.7642
62.7099
153.542
116.902
112.726
182.987
767.725
471.341
216.175
238.771
80.6895
115.787
42.3191
44.2278
68.5704
400.129
168.045
68.3867
70.4091
39.9758
349.582
404.011
40.0394
163.827
85.9843
40.0835
160.394
39.9236
40.933
70.1386
69.4173
81.6972
45.7779
40.4836
59.3587
66.8764
65.4605
134.804
108.202
41.047
234.04
46.9842
45.4533
46.2569
187.242
76.7321
179.89
116.474
53.1321
42.1527
66.4306
1432.88
68.3247
78.6487
68.1396
62.0173
61.1341
108.571
113.31
127.943
294.205
100.382
828.343
49.4171
63.9724
55.9071
67.0204
43.9729
159.759
119.191
43.0756
285.195
91.4603
71.3123
222.912
77.8386
53.9666
67.3031
70.6374
66.9051
108.605
306.205
64.3997
73.583
202.288
215.351
694.915
210.092
84.6194
166.827
42.8467
45.4445
109.886
201.609
84.4935
81.9624
88.9682
100.801
47.4644
68.1755
99.0705
96.6897
87.8377
345.278
424.294
87.8246
170.749
209.056
578.176
225.684
197.349
90.2841
67.1564
96.5893
89.1363
252.458
44.6794
46.8266
96.4886
345.208
116.185
78.6283
95.491
52.1403
106.495
125.109
78.6075
529.745
52.9341
64.8086
131.331
97.2576
65.4217
66.1372
104.734
108.266
86.1031
55.9826
119.106
43.1985
43.1824
43.4267
77.4355
56.3549
142.519
52.994
207.709
275.987
269.765
97.6943
83.7006
43.2566
70.3031
112.112
488.181
261.997
677.774
44.0331
57.5121
54.0917
289.164
86.4595
299.258
233.703
227.647
136.488
214.833
88.0202
83.1958
70.6489
45.4018
131.639
66.0947
75.2794
265.56
67.9048
68.588
49.677
264.09
365.138
149.519
209.995
638.949
186.455
87.3474
65.7803
87.3775
100.982
179.153
182.815
314.062
45.0128
57.7533
70.0769
47.8169
61.0752
100.047
92.3138
53.9076
123.345
51.3401
75.0997
49.4919
47.2952
120.512
67.771
108.719
42.7321
44.0478
157.387
45.0147
95.9917
101.426
42.8276
62.3818
93.7692
78.1335
68.696
78.0708
430.237
179.75
121.1
103.641
1831.19
1090.06
558.689
416.664
98.1379
48.8847
1318.67
373.718
52.6531
62.3844
103.711
86.5719
393.113
134.75
43.8269
109.985
58.841
49.4919
198.107
941.712
134.824
1273.99
148.713
249.981
621.973
60.8156
75.0879
130.593
366.094
90.1639
44.0752
44.7801
736.465
130.444
382.857
71.3189
156.369
46.4287
51.5081
450.908
475.602
80.1247
50.3783
77.0681
599.261
42.2642
50.937
401.242
438.895
72.5918
42.3499
1014.74
616.904
546.8
98.3672
321.828
473.517
688.837
78.6552
85.9649
111.71
62.9308
103.026
449.038
1270.82
63.8154
60.1618
58.721
50.7752
45.458
80.3179
117.828
65.5031
49.5561
46.6359
100.117
436.28
1223.32
49.5221
224.051
107.505
71.4321
155.346
56.5578
88.9555
74.2502
45.0577
196.156
52.2388
537.988
41.9392
768.445
372.496
664.468
200.009
100.317
61.3627
102.273
80.9665
220.601
1409.56
102.066
394.542
174.04
519.912
163.71
734.031
647.727
87.8603
88.7892
1724.53
87.4599
48.3398
71.0519
716.276
1139.81
77.2635
51.2586
491.221
74.9977
492.349
749.316
105.57
109.487
812.049
100.93
42.8683
634.832
49.7636
341.988
958.179
41.1789
67.8728
81.2117
56.3721
120.5
98.5317
41.2417
119.066
87.3527
114.743
57.2341
41.2375
212.403
236.658
568.461
49.3571
90.8873
246.129
44.1693
841.706
84.5312
108.156
149.561
409.803
85.2135
314.87
179.379
144.396
56.4296
425.552
220.203
226.507
89.101
160.73
61.6943
76.0288
74.9521
353.973
177.364
112.695
697.116
150.1
107.876
231.578
117.118
138.45
670.082
214.563
79.3247
149.701
83.8596
148.415
305.819
530.142
57.9036
44.5841
62.3932
406.73
63.5148
287.507
57.5206
62.3148
47.6539
163.691
53.6446
200.402
334.416
52.8913
58.8351
89.3084
78.0148
933.802
382.24
112.21
743.602
353.897
121.981
209.87
64.2458
55.2465
592.113
55.388
330.007
365.066
43.9283
57.3183
128.357
96.2744
56.2592
69.8348
179.379
70.3834
76.0194
64.8218
78.2913
268.433
64.9583
183.276
149.942
269.065
53.9018
709.385
438.653
53.249
594.825
255.961
55.734
102.299
555.09
211.091
44.9737
192.957
507.41
213.611
617.691
55.6362
578.938
119.794
53.8655
68.5837
105.061
195.75
115.196
63.8594
217.093
51.4334
233.089
103.657
1370.12
139.565
79.1148
112.918
278.415
54.6738
305.776
116.111
104.112
543.54
76.275
76.8204
1229.76
42.7604
98.6532
370.804
60.781
343.893
351.292
147.85
68.2332
81.2074
909.476
189.515
509.236
200.906
76.2531
69.4149
98.72
691.333
606.741
311.261
86.1862
48.2483
83.2242
84.0067
127.556
317.213
92.4498
55.4372
61.1228
59.9636
43.7074
85.0028
42.1302
46.8125
117.589
77.9833
43.8632
125.584
251.208
58.8549
45.837
127.425
63.2175
48.1053
53.2173
95.5659
91.8147
47.9146
96.9012
452.686
87.4988
47.9182
54.0413
41.5731
256.242
65.847
51.8821
548.585
391.214
290.301
45.8873
536.42
146.433
78.0529
814.103
89.1587
794.301
89.2318
65.931
81.4069
66.3322
42.6406
80.7948
82.2061
88.074
109.807
86.6994
100.873
165.915
78.2312
83.8258
437.943
86.516
1457.63
71.3009
688.38
46.7759
116.264
169.428
50.3795
66.0289
189.863
43.5433
415.873
345.45
1070.9
50.2918
612.27
60.662
105.05
187.978
62.512
584.057
91.4715
290.652
78.4846
745.514
674.06
77.659
41.3409
404.832
65.4893
411.042
85.033
92.3328
68.3534
70.8405
54.711
42.3892
87.029
315.755
76.0574
176.448
78.6771
86.8685
40.1987
154.642
274.077
87.9745
224.212
142.348
69.5637
117.463
75.198
72.3126
54.0538
143.851
128.246
48.5681
83.3425
80.211
63.8111
91.1341
249.521
265.224
77.3337
85.7809
344.042
85.1988
51.0493
62.3147
45.6116
158.021
162.076
203.932
104.428
67.114
72.9417
62.7932
56.2891
58.0337
56.2936
481.383
128.892
648.086
511.817
623.172
57.7158
65.3684
72.7207
69.1279
47.1355
323.774
80.0172
45.6344
75.03
111.128
76.262
243.343
75.4089
153.602
119.004
92.1529
47.8057
67.8719
84.8889
83.8514
65.7978
107.748
95.2875
191.393
84.5551
68.9094
78.4496
144.702
163.078
63.4643
76.6776
129.898
93.1922
166.208
54.0464
56.1682
131.334
67.1338
54.9299
72.7645
42.3521
59.1824
86.2674
70.773
355.889
68.9891
88.7385
49.6308
67.7978
583.832
75.9393
82.8647
58.4497
58.478
84.2121
83.7216
892.197
106.222
257.129
49.7965
58.628
69.845
40.3332
47.1588
107.419
77.3459
47.3741
43.5326
323.285
106.243
508.949
115.22
272.704
103.85
77.1694
108.503
462.295
177.377
92.8816
75.4673
912.911
61.9538
77.0256
82.0346
78.6895
80.527
895.871
64.5125
86.566
46.7614
118.053
54.1119
867.672
958.03
64.5479
52.0201
41.7131
85.598
89.1321
59.2085
1120.06
550.905
62.2171
133.231
491.838
62.8278
217.81
125.229
41.637
59.6407
45.9731
71.023
216.149
81.5858
74.693
43.2198
54.6814
71.9069
48.6131
368.501
63.4614
147.253
180.174
408.175
367.516
97.8602
134.642
77.0678
133.154
114.103
41.6471
586.12
371.416
131.227
86.1395
106.052
85.965
83.9477
208.455
40.3635
44.1838
62.1881
65.0124
134.826
71.9356
345.177
384.406
43.9009
131.225
41.6245
41.4396
80.2636
59.3757
61.1374
52.9445
40.2496
205.83
314.891
40.6608
82.3586
290.454
335.956
46.9509
41.2662
107.335
185.761
892.851
90.1234
394.249
331.209
617.748
388.227
72.4513
48.1259
41.1325
58.4302
923.095
55.5149
85.6803
78.2504
39.8358
589.607
974.268
952.716
189.988
226.855
48.7947
44.3045
53.0951
82.0526
613.721
513.833
377.421
530.571
353.888
52.8175
47.4265
827.936
47.8092
867.418
95.2421
865.154
79.415
151.165
127.63
167.968
169.166
169.716
162.951
63.0041
88.718
67.6847
64.3201
72.1018
66.0459
1276.06
684.802
89.0661
377.662
559.137
370.586
66.2075
43.6011
523.753
497.257
537.32
42.2993
764.021
48.7637
968.323
535.143
640.99
302.222
51.692
62.0631
44.7509
71.0931
89.5599
173.371
82.6661
83.0971
78.2453
91.6397
76.2077
50.4245
45.7507
124.485
43.4406
50.3904
75.6202
98.8148
96.81
83.1017
146.104
87.9712
82.1274
121.336
95.2026
87.1216
89.6555
148.193
967.693
58.4338
307.488
68.192
87.3169
509.751
62.7487
57.0141
45.9178
115.479
91.432
52.8846
105.598
97.0806
80.6989
45.4025
64.4583
86.1067
72.4892
100.087
71.6157
94.1752
272.845
86.0586
77.3703
72.3275
106.075
75.9657
357.029
42.7228
65.2692
102.537
341.637
234.359
87.5723
97.2823
910.083
223.507
182.25
88.3507
71.6473
107.954
85.8932
53.6606
125.619
76.2569
85.3324
409.955
48.7601
160.251
124.847
106.158
106.183
200.985
75.7306
57.6078
42.5682
52.5993
96.8614
77.7152
367.935
60.9285
91.9307
127.909
103.534
828.67
55.9647
125.118
104.274
268.313
420.961
139.113
41.7753
134.422
64.036
44.6272
41.265
547.046
99.0889
56.3085
426.921
129.746
66.8942
143.15
624.513
1098.41
181.078
72.1117
660.042
104.968
290.522
148.304
606.948
223.555
123.613
91.2309
481.214
90.0863
71.8919
87.2759
98.5673
53.2005
61.7433
338.198
43.3723
99.1102
518.237
154.221
559.353
89.0373
435.063
47.5958
1137.19
105.892
106.079
659.787
256.195
323.438
465.609
477.96
258.937
89.1863
88.3691
425.749
56.0183
83.6466
321.483
66.0229
55.7787
75.4591
171.924
69.205
48.7557
721.458
472.897
198.354
244.764
163.126
90.6647
79.3478
79.416
108.04
79.7877
56.2307
84.2716
64.4976
247.143
254.58
120.987
53.7867
105.87
83.6241
129.357
103.589
95.7765
77.4919
249.43
58.0274
68.6498
238.416
129.931
606.768
209.801
96.1632
615.923
135.856
111.228
387.153
132.707
127.078
49.0647
479.293
40.8319
55.1771
49.7975
83.9877
66.9017
97.0724
263.43
104.627
119.795
77.765
110.52
99.1816
41.5656
350.903
167.892
561.914
975.649
106.025
384.364
162.17
67.4651
372.183
65.8509
59.9017
113.584
134.432
691.423
507.188
53.4238
315.962
356.052
95.75
1902.75
392.315
166.953
333.042
61.1375
88.3857
239.279
332.844
145.656
712.981
52.6629
51.1334
154.266
49.6698
47.4524
106.157
322.044
521.495
51.3005
136.326
42.4064
144.354
61.8305
143.754
338.041
93.1355
329.492
59.6363
63.3992
747.082
42.7619
52.7926
102.371
53.1008
118.967
269.662
45.346
918.659
541.613
833.702
503.482
119.396
65.9597
51.7693
60.7599
85.0795
44.9932
82.2406
147.606
60.1246
68.5812
644.018
44.6439
169.783
43.1218
136.73
71.071
715.796
126.065
125.539
44.2479
125.455
149.629
48.0226
58.9415
94.7146
45.2091
195.679
94.481
102.105
54.6618
44.0411
99.4711
45.3048
124.26
480.007
42.7594
73.9909
49.8698
61.8277
247.077
213.232
121.861
460.238
858.752
241.03
82.7464
378.632
275.642
611.975
74.315
213.383
249.235
337.175
330.087
755.711
53.4072
43.7209
214.222
590.901
52.7377
401.479
125.843
418.128
80.0975
64.0653
675.412
629.226
247.127
56.3563
229.443
128.752
322.392
43.1019
195.122
62.2347
54.8101
93.6228
92.83
286.479
97.8919
63.3186
158.821
77.5345
293.222
460.521
42.4841
86.6744
52.6561
833.492
103.009
129.288
244.423
136.509
70.0856
42.7839
89.2875
73.7172
543.935
41.8207
103.94
309.851
62.798
49.0832
75.2279
71.7327
656.48
134.833
210
92.5113
71.6177
873.556
490.038
58.7029
140.285
58.8285
45.7807
427.63
102.547
533.357
55.8817
48.4881
92.5417
61.6198
46.1254
59.6217
70.9373
133.709
284.679
205.162
328.936
67.8648
69.0561
46.0329
167.94
610.734
931.593
65.966
349.103
175.656
686.767
75.0672
339.096
107.332
187.476
127.316
78.5747
249.692
79.1362
190.855
111.403
59.0229
993.262
107.579
383.008
107.394
77.6967
107.97
184.269
73.0362
66.0741
422.422
101.841
117.879
55.6418
121.39
434.93
122.583
78.9076
153.297
46.4687
62.3166
43.3609
74.269
75.4105
145.373
67.5698
89.3397
94.7134
73.8917
72.9654
62.0497
71.4439
59.4681
426.235
48.335
105.524
47.4074
65.8745
117.791
70.8283
52.1622
76.6179
96.2394
83.7527
123.048
338.653
45.1884
188.301
389.36
158.581
156.246
49.6279
156.802
91.7228
362.06
63.0368
43.19
51.6308
184.5
53.5941
64.0979
841.11
232.964
392.639
43.9157
49.4303
194.659
81.1247
55.636
133.735
49.1072
76.3204
53.4803
390.659
43.3837
152.074
44.0862
42.2876
73.716
65.6542
130.74
105.876
41.078
321.566
62.193
65.7079
86.8883
808.373
63.3669
61.7959
120.479
63.2897
56.2664
117.62
58.4121
50.7559
107.57
209.608
122.696
79.9206
350.91
107.479
242.589
48.5037
182.4
62.4177
92.2516
249.136
48.7606
140.634
65.275
82.1137
149.642
70.087
550.145
115.995
42.4896
507.298
131.392
877.798
306.166
230.259
83.8557
90.7179
122.129
355.784
58.5538
408.752
91.1481
344.462
64.5298
442.117
60.861
248.241
214.897
117.482
319.613
485.508
335.135
1050.66
546.623
312.003
390.437
416.756
321.273
41.3281
93.7757
339.202
67.7688
669.078
57.0779
521.788
603.346
113.163
98.2555
73.1626
43.3771
112.104
45.8879
246.85
128.761
81.2957
184.296
83.4482
150.831
70.5679
53.4266
108.434
47.8669
214.208
46.7816
67.1992
686.83
64.5211
41.9468
99.0682
63.2061
858.039
281.529
73.0277
78.2475
169.576
48.1269
84.345
48.7885
49.3192
101.593
73.2867
54.0303
60.2418
349.992
87.0223
53.2102
42.2042
43.2466
44.7399
201.45
69.2259
92.2071
53.1423
85.6704
97.4042
53.8992
213.839
70.8391
46.996
58.2272
82.1402
130.785
110.432
97.3776
49.1386
117.607
82.8823
50.4296
50.458
74.4327
89.1014
100.355
65.7082
118.908
64.5749
93.5972
113.052
324.388
777.504
1102.92
117.578
58.5642
509.461
166.068
245.036
44.1219
49.6391
42.0237
87.7776
69.6444
41.948
41.9341
43.6168
107.045
41.2005
46.5882
41.3131
57.9216
191.162
50.8664
108.585
50.5943
94.7512
230.683
57.5733
52.5281
67.9524
1085.77
809.598
99.8161
67.118
67.722
58.6038
118.163
496.401
61.4191
65.2764
89.0599
41.6381
92.3409
48.5308
86.2743
108.761
89.3281
60.7219
198.008
287.73
61.8863
2015.99
287.558
193.78
61.9997
82.931
95.6955
111.476
53.1096
72.7135
291.902
44.3624
184.943
660.075
102.159
120.629
559.359
62.7211
77.6859
88.6314
41.157
113.56
397.174
89.6406
91.2566
426.516
223.909
996.753
615.878
97.5946
46.8335
136.516
65.7884
184.116
150.723
564.129
49.8488
45.0122
629.398
52.1638
186.639
78.8833
100.467
655.545
588.117
48.5828
41.825
909.396
48.1943
51.8042
64.34
46.4883
80.829
170.849
276.536
60.074
566.852
101.388
50.8029
83.2639
713.171
75.9688
596.2
63.5514
60.6761
83.5496
82.6122
59.884
117.786
63.1194
546.096
116.572
121.806
530.644
118.53
52.5626
760.395
120.719
101.843
87.2259
188.828
103.324
83.0264
44.388
263.898
71.8873
69.8057
62.331
134.131
83.2732
58.8901
44.3743
67.7226
139.931
72.1366
64.5745
79.7122
505.458
71.6855
71.1785
69.333
89.6992
45.8743
63.9772
63.262
129.627
107.518
139.314
145.841
87.4785
400.373
63.0156
55.6809
388.239
331.549
472.275
86.3251
362.153
51.3329
503.197
92.9124
270.271
93.8017
43.2816
111.235
193.341
91.7782
69.4464
42.1291
62.3652
406.614
62.5384
48.6908
52.9956
1349.83
237.542
43.5715
1412.85
536.924
319.647
268.1
555.09
243.621
78.8568
227.257
86.1633
105.748
373.655
801.479
61.5922
43.7513
52.9533
478.898
43.949
798.52
162.88
125.05
160.943
120.93
328.274
41.6126
113.183
120.733
55.6776
101.904
52.958
115.509
1946.02
1730.71
826.922
95.6398
730.947
41.7721
48.3141
60.1068
97.6667
43.6991
54.4638
41.0419
73.0082
87.9314
46.5442
53.5018
74.5567
46.0154
97.8862
117.69
43.065
112.085
117.355
42.4662
51.5594
846.934
55.2982
836.568
585.218
122.262
129.21
82.3826
121.182
67.7375
50.5322
653.427
57.286
55.9245
46.7127
49.0365
76.5841
133.588
145.081
171.794
112.831
45.6355
581.447
60.2725
327.988
421.747
63.6791
303.384
88.7836
52.6417
60.419
57.4086
61.2048
45.1752
125.327
50.7779
297.145
215.468
334.476
56.3723
56.2066
81.0906
259.166
508.787
93.841
144.886
63.3857
247.102
63.0883
202.205
372.084
81.9306
56.0018
91.6057
880.231
60.9727
58.6338
117.89
46.4718
136.68
120.613
165.089
84.2515
252.405
169.915
336.314
71.3631
248.122
449.789
317.857
52.752
169.439
86.7435
101.825
53.2789
65.5426
61.8297
483.507
83.9611
96.3766
353.071
80.9533
61.6924
94.2534
45.1041
138.647
48.248
63.4196
161.311
103.559
76.9619
162.477
94.2985
96.8165
78.667
123.645
42.7055
263.354
231.617
102.059
106.595
43.5405
231.644
58.3931
42.2385
83.2256
45.1176
105.147
87.4157
49.7552
54.9294
98.163
292.583
205.393
49.6423
788.485
42.264
97.5305
92.9586
48.1617
738.119
143.808
649.396
49.956
66.579
527.687
663.828
83.6986
98.8086
184.18
127.983
48.1804
106.745
63.2372
141.216
81.7834
130.254
49.8815
131.929
98.8146
104.155
59.1833
86.2758
41.4674
59.4853
613.994
449.59
102.217
106.584
96.8326
84.4385
83.2826
160.92
42.8067
48.4442
59.0604
84.3066
78.6626
66.6392
108.888
50.7085
56.8399
51.7899
70.1781
57.1488
67.9813
213.996
93.1636
67.6853
871.113
75.4926
62.9089
76.7424
42.2988
81.4855
202.633
44.8896
73.4848
80.0308
303.789
64.1759
62.9505
93.3777
1397.84
93.8841
154.209
115.183
63.8858
96.8307
80.2428
61.968
845.339
91.9864
68.3204
61.7018
41.7328
289.412
45.2978
276.987
415.82
112.119
71.3712
59.3161
118.552
85.6561
54.9231
448.471
117.254
286.004
42.4277
135.782
400.591
117.412
47.6158
97.0819
52.6238
376.649
54.4115
56.0546
86.9495
40.5319
59.0777
86.3706
50.0674
414.777
41.6951
404.825
44.3024
71.0383
65.9732
144.626
83.7249
121.425
109.55
569.712
110.613
115.117
72.71
43.6084
103.593
57.4854
51.5367
77.7053
73.5913
61.5877
117.824
45.7334
65.3427
46.5128
308.403
85.9672
480.991
548.316
334.912
152.273
67.0223
69.7708
59.3367
187.523
86.5453
42.2095
41.1418
110.774
157.866
45.2754
69.5611
994.201
141.313
64.1334
73.0371
325.672
816.269
58.6512
547.133
535.947
198.17
367.217
157.547
555.888
71.0012
212.547
736.777
72.5127
41.0249
60.1141
109.068
310.376
42.1497
43.7202
69.792
136.645
152.153
794.945
105.959
1053.38
118.062
67.8055
80.9356
74.5945
76.2531
435.76
196.885
434.327
493.526
66.3866
308.147
1002.86
65.4983
199.062
129.314
399.307
150.034
130.213
678.274
986.264
108.467
643.072
122.036
451.53
79.0111
42.6159
148.344
821.597
699.749
61.6463
98.3324
141.96
98.4755
259.859
48.3758
71.9417
961.723
322.125
319.315
91.2722
289.901
64.8103
313.683
54.7106
119.189
181.414
262.404
85.781
122.325
252.645
104.66
740.388
70.1105
58.6572
414.401
45.6526
141.206
43.87
53.8361
41.4071
79.3594
412.783
422.782
326.84
57.0996
62.7392
319.794
56.0353
470.372
71.6338
52.1571
78.0909
195.044
153.844
569.92
48.8563
70.7561
61.9344
268.865
97.4405
566.147
902.147
414.331
104.578
58.8917
430.542
320.487
145.709
45.3677
61.0626
41.047
663.673
285.198
374.268
1047.96
237.262
91.4021
77.3582
749.334
405.389
62.0954
87.4824
99.0487
425.003
59.9125
46.4196
88.2121
78.8532
763.856
235.031
220.284
216.247
304.408
301.498
158.365
87.6135
805.421
358.828
695.71
199.584
397.371
668.026
149.053
57.0373
108.037
58.1488
58.3973
77.678
80.3646
133.119
258.317
83.0082
176.15
179.906
144.373
115.735
188.4
114.602
104.42
127.052
770.637
1096.99
372.756
68.457
114.696
81.3823
233.28
608.047
155.071
511.195
78.3244
460.759
354.855
171.731
46.4219
42.1393
67.5313
62.8443
709.015
94.6878
57.2652
429.567
69.707
852.82
478.843
107.101
476.585
62.5779
43.2158
45.6233
41.5079
96.314
59.1692
87.1731
125.108
70.6736
43.266
137.949
548.935
544.416
42.8021
103.718
46.4765
60.8856
55.8567
570.394
47.1567
53.0929
52.5864
101.915
43.99
54.4338
98.7624
54.1
57.3504
51.8986
236.27
42.8664
54.7758
133.337
401.95
373.705
63.5262
411.662
611.746
53.1784
51.55
162.773
76.7948
342.401
70.3723
87.6987
83.3805
200.432
66.4556
88.6685
980.392
491.503
81.5496
607.711
45.3101
45.7065
60.3788
43.4773
46.0477
69.8994
52.0716
78.0146
216.41
86.3676
283.933
247.325
177.482
78.4961
41.5155
477.316
124.417
79.72
523.298
98.5748
668.955
59.7226
417.907
42.9291
182.098
83.9944
220.318
44.9917
83.2719
74.2072
462.924
49.0445
41.3151
198.374
79.6047
140.907
59.6884
73.1079
91.5374
46.3164
138.838
47.4121
61.7455
142.14
92.4834
414.326
66.9694
44.3636
59.6756
41.9544
50.2216
326.752
41.1421
95.2713
41.9147
215.535
110.427
47.7145
105.984
109.274
54.6517
69.3108
74.3898
122.905
141.95
50.2792
47.4208
89.0334
65.1793
312.99
634.966
495.862
58.4341
43.1194
58.4239
63.1017
86.5389
923.342
232.672
61.7551
51.7182
76.2908
44.448
46.8622
73.6425
150.355
208.485
505.012
320.751
55.8293
78.8614
69.6912
41.2551
219.008
71.4738
124.339
111.309
48.1936
969.997
76.676
55.8705
68.7501
72.5147
154.802
576.216
43.6756
403.479
53.2905
705.479
124.206
527.344
67.0823
42.292
59.7097
104.677
47.4329
48.5081
121.175
42.7953
41.5838
53.5457
60.9062
232.532
51.5014
732.181
69.0693
59.8633
154.069
171.477
48.3928
362.769
926.553
723.271
436.729
400.683
53.9541
386.323
295.346
70.9403
56.1484
51.9263
614.448
87.9294
94.0156
46.6711
77.3754
233.833
790.616
157.229
84.4364
46.6074
64.0292
180.84
44.1399
54.4224
617.69
460.361
201.721
742.273
72.2983
45.0573
69.3708
79.1259
1103.57
49.7422
44.516
41.5895
261.176
44.8288
48.9275
88.5622
98.7386
43.3067
108.908
44.6954
138.465
83.8315
138.142
48.1573
232.829
85.919
109.335
156.948
108.002
165.844
47.0025
612.875
92.1734
245.236
288.802
255.363
83.9271
129.28
205.757
64.2894
43.0398
50.5661
52.1947
84.0963
561.792
114.025
44.6985
80.5871
63.9514
47.4591
117.905
61.2593
131.479
101.645
45.8583
94.1954
47.7003
77.122
297.282
602.252
70.9523
97.3273
78.1707
101.065
505.951
227.052
424.316
806.483
138.482
45.7155
47.3139
43.7922
102.414
794.293
77.7744
728.371
108.816
43.5654
116.373
388.477
45.0723
45.4814
54.1476
72.2816
59.6077
185.097
73.6405
87.9715
315.193
53.9704
95.0361
64.9558
127.452
221.271
50.1543
690.065
80.3886
105.563
54.2835
146.83
44.585
141.874
123.23
93.6684
87.4728
78.6139
65.4412
69.0341
49.2407
220.542
61.0622
49.4226
112.185
202.549
224.637
179.994
96.351
106.447
191.72
68.8752
238.321
140.721
129.516
97.2582
105.765
132.11
70.8795
184.738
254.447
95.6173
51.6964
48.1955
237.333
86.0627
97.8811
48.1883
97.2178
86.6576
47.3651
90.4027
405.406
100.346
69.1274
83.8282
650.311
76.8431
85.6324
144.064
57.8782
150.072
45.6339
789.919
84.0383
75.4076
79.1379
53.0418
108.636
53.0918
398.35
41.2638
73.6613
657.097
58.9002
104.789
191.416
96.0879
48.8701
603.28
58.1856
42.4971
101.23
125.647
60.4419
338.863
43.0323
341.315
95.3205
41.8478
68.5342
113.296
706.433
179.356
70.4967
42.664
128.215
403.489
441.768
114.647
121.615
941.523
208.834
210.395
125.185
78.0289
100.388
59.7947
503.041
1027.5
152.996
158.055
100.194
1241.77
427.685
518.694
379.557
181.749
64.4313
48.8746
152.802
73.7491
537.463
302.255
70.8722
983.187
103.89
135.775
69.5243
50.1739
102.56
85.1113
88.4982
79.1207
146.468
184.326
849.465
57.3924
119.103
626.789
600.612
182.268
174.919
59.9421
600.799
46.5646
65.8866
335.471
148.443
41.8055
322.643
418.59
71.9663
120.058
47.3434
91.3033
53.1807
80.9268
172.115
79.6169
591.018
48.4778
49.4947
83.8591
461.723
171.476
120.477
157.807
225.746
118.932
76.834
428.563
105.52
66.5773
182.847
781.374
211.262
58.9166
316.061
160.407
93.091
64.6166
125.177
46.1078
102.287
78.3536
72.6698
62.0151
60.0817
84.4828
42.448
41.5291
49.4743
100.245
49.0413
160.565
387.054
713.41
92.4614
92.0558
58.6124
47.0492
100.945
632.84
51.2466
140.393
71.6326
247.419
65.6554
159.167
210.396
448.264
48.2311
56.6638
279.566
52.3998
67.5696
161.973
99.3291
411.094
85.7509
197.523
489.014
170.552
622.15
193.953
378.26
106.965
191.171
143.526
53.2269
506.285
157.807
82.0666
180.074
112.577
100.199
42.0206
50.1582
48.496
42.7293
87.1319
355.317
40.5519
945.006
106.23
352.258
110.71
385.703
952.015
54.476
242.622
760.315
180.426
354.454
75.4689
68.8888
736.142
968.18
290.213
164.909
50.4653
490.149
100.489
651.24
52.0999
52.0338
239.034
984.911
60.888
85.1738
49.9603
254.944
498.783
47.4341
405.197
202.212
520.076
706.408
49.3708
320.98
73.13
592.253
268.535
199.726
449.6
253.852
468.409
328.79
227.274
80.9966
77.9202
71.9823
47.9557
53.3787
1421.19
74.7195
112.319
80.2485
77.3351
158.207
1213.8
169.462
181.296
282.749
173.391
204.993
123.172
41.6416
77.168
1086.81
660.936
267.428
187.468
264.153
88.7043
490.402
59.0659
273.198
406.46
58.4688
557.978
87.8301
345.028
303.926
205.515
302.09
305.331
188.197
48.2003
131.234
59.0396
578.494
70.8184
191.575
84.2449
271.22
53.8022
67.0109
318.516
116.073
262.353
44.3389
1437.86
46.1329
58.8988
56.4798
53.2111
109.352
515.738
212.366
112.784
654.003
71.8662
49.2821
55.3602
865.219
102.311
101.441
826.823
348.084
904.456
539.611
206.236
296.48
155.794
182.393
702.187
65.4623
422.556
156.973
65.453
177.836
63.405
179.512
85.133
638.925
480.323
593.649
393.388