/*--------------------------------*- C++ -*----------------------------------*\
| =========                 |                                                 |
| \\      /  F ield         | OpenFOAM: The Open Source CFD Toolbox           |
|  \\    /   O peration     | Version:  2506                                  |
|   \\  /    A nd           | Website:  www.openfoam.com                      |
|    \\/     M anipulation  |                                                 |
\*---------------------------------------------------------------------------*/
FoamFile
{
    version     2.0;
    format      ascii;
    arch        "LSB;label=32;scalar=64";
    class       volScalarField;
    location    "0.0982622";
    object      p;
}
// * * * * * * * * * * * * * * * * * * * * * * * * * * * * * * * * * * * * * //

dimensions      [0 2 -2 0 0 0 0];

internalField   nonuniform List<scalar> 
47425
(
-0.295914
0.0575196
0.0845366
-8.59567
-26.0692
0.0386454
-23.9999
0.0331673
10.5593
-41.4186
0.00661728
11.0149
-19.1687
0.0216126
-5.08659
9.86231
0.0610966
22.0163
-117.438
-40.6947
0.386437
13.2094
-0.0402057
0.372043
12.0031
0.27879
-0.00921795
-48.7704
0.036255
0.150381
13.3417
9.94668
11.2103
0.209285
0.136343
0.015088
14.0097
10.9906
4.28601
0.0414159
0.314706
-4.17494
-2.67771
10.9047
-43.8497
0.364305
0.0134714
10.8097
0.088557
0.16733
42.4912
-3.93628
0.13328
-38.8928
-0.0226744
6.13817
-0.0499372
0.0970963
-11.5931
0.042838
-40.7268
-38.1797
-50.7101
18.6786
10.397
0.527093
11.3013
-6.02493
-45.1185
20.3741
1.16536
0.264197
-1.64708
1.09316
-46.6972
10.2341
-50.8248
0.0837113
-53.9479
-26.5036
-48.3008
7.97041
18.5327
10.1157
0.725413
-0.660837
-1.90422
0.0314251
-7.7596
-31.862
12.523
-0.697755
0.248743
-0.612323
-0.621434
-0.376739
0.101024
-0.731255
-0.348371
9.05532
10.0036
19.6496
6.77582
43.4161
6.81279
-2.41302
0.278612
-0.387814
-0.457136
11.2885
-32.9821
10.923
-2.79263
-0.890462
-4.18705
31.1556
-3.74899
44.103
5.67549
-7.08808
-0.962129
11.2353
10.7875
-12.0374
8.79431
-4.62514
-0.650577
10.2952
0.0230007
0.373234
19.071
-2.05636
52.2316
5.62608
-5.67898
-14.5696
0.312501
-4.51384
8.75808
-3.65
11.2824
-6.974
3.47942
-4.54094
8.78305
10.3564
-24.4651
10.5562
3.4971
11.1589
-3.95075
36.1414
10.5924
-7.80125
19.0441
0.434789
-0.78305
-122.699
-0.193102
-0.00248242
-5.68936
0.483741
0.198357
8.48435
-50.8492
-94.3407
10.5922
-47.4281
0.366598
-47.6669
-47.5484
0.308407
10.3548
16.2114
-0.368139
11.7875
24.814
-0.0268668
0.104967
0.130235
18.2966
0.358501
-6.79679e-05
0.163816
0.201612
9.96204
7.71969
46.9696
0.0986909
0.0572711
11.1205
0.0853263
-15.2007
11.3382
0.234991
-4.7855
11.3193
0.143885
-5.51553
-0.555342
0.100076
-1.5484
0.626848
-4.52026
6.7188
-0.748045
0.0205696
-4.02913
9.87095
10.2357
-0.428811
-4.81119
10.3125
0.279582
-1.4433
-5.9688
-0.83886
-30.7169
19.1743
11.1196
-29.1747
-7.81427
0.494258
-1.1578
-0.333765
-26.9978
0.214586
-5.65903
-8.31852
-12.6378
-0.472388
0.0651375
-1.42651
10.9437
0.0483634
10.1108
-31.4374
0.283291
-28.5798
0.0494178
-0.0529541
0.189038
0.191792
-8.88582
5.88495
10.2463
-0.488348
10.1307
0.328493
0.0528616
0.377964
-25.0273
-0.0250884
11.3021
0.173741
-0.0440808
12.5688
0.0422807
5.21033
10.1713
0.109798
10.8314
7.47698
7.36107
-15.5783
-1.4767
0.0809426
-15.1761
0.241009
7.43275
7.86612
-28.6683
-31.0523
7.83226
-26.5022
8.02699
-27.6572
32.1073
-29.7715
29.9453
-38.0702
-0.135294
-41.6799
0.172743
0.0857242
-6.38348
0.124941
0.0432259
0.514034
-3.94204
52.7159
17.4757
10.4316
0.117034
0.0543926
8.3647
-7.33978
8.30623
10.6994
-12.6591
-0.0837111
0.273585
0.0232877
-0.0442161
-44.0639
-55.6551
32.1561
0.132655
0.112101
9.11715
8.64759
45.0741
0.0115368
-0.0302408
-23.3902
-0.303289
0.245165
0.0246357
0.0645521
-32.7694
-21.7354
9.66267
9.19936
0.00997854
-0.400783
-0.0643529
9.48564
-0.00442756
0.155609
0.0591764
-9.83005
-51.1371
3.06663
0.064314
11.1652
-0.0290608
-50.3142
10.9153
0.202681
0.417946
9.5906
9.37219
0.375356
11.1849
0.220717
-0.00119199
0.118899
13.8285
0.0284851
0.137057
9.87235
5.17529
10.0056
10.8425
10.1926
-3.94362
0.234308
17.8224
10.6976
10.5403
15.46
-7.46001
0.244604
0.0176397
6.26149
-1.97965
0.0263081
10.5844
10.8843
7.73775
-0.0248699
-43.5482
-1.97656
8.89055
10.3699
8.73106
-5.43411
9.9075
10.2378
13.6093
10.1553
8.65928
0.386004
10.7353
0.367323
10.7582
0.00624135
7.93643
11.234
0.0204511
4.20482
5.67361
0.0696355
4.76003
0.266695
4.77378
11.2081
0.0216451
-15.8381
0.0364321
-33.2727
0.0848521
-37.6407
0.121915
0.127242
0.103797
-0.0228802
0.153678
-0.0805209
0.0126299
5.5912
-50.2836
54.8618
0.226766
5.2662
2.37223
0.818758
0.105528
0.0241134
0.160418
0.0857121
0.286735
0.221921
0.714312
0.0106828
-0.0145606
-11.807
-7.55098
-4.06482
14.5728
-49.4393
-1.58681
24.6037
-48.9446
0.535037
-50.4429
-35.4836
0.40099
-2.31763
-1.24754
-5.34696
-51.0856
-0.334203
0.32733
0.186806
-5.90297
-3.52254
0.0476663
0.206456
-31.0801
-49.701
-27.6506
11.062
17.1465
-6.70453
0.279296
-1.43811
-16.111
-1.27046
11.033
11.2827
11.3059
4.91949
11.2158
0.329378
8.57319
0.0924877
-3.54521
0.310528
0.207651
11.0989
11.2152
10.0918
5.97018
9.24931
-0.015421
-2.55107
-31.2981
10.1714
-15.35
11.2468
-4.07583
-18.3729
11.2707
0.283642
9.74926
10.5628
10.1933
7.57232
0.186339
-2.88263
9.84313
-0.139713
6.29303
19.7442
0.307285
12.4141
10.1035
13.8734
0.123089
0.107029
0.636485
-0.0501047
1.85059
-0.0146402
-0.0859684
0.22168
0.394712
-2.37868
0.0332159
0.0225959
21.8354
-0.00962841
0.793958
0.353904
0.245902
0.0994863
0.12501
9.23129
5.95628
10.3275
10.3295
42.4863
0.0997673
0.00429208
10.5708
10.79
-22.0491
-25.7597
0.122314
0.450997
0.496643
-14.1217
9.85818
-29.2327
11.2041
-33.9999
25.0166
17.3192
-0.00469739
-23.2566
0.168212
0.00798941
0.0721475
1.1493
-0.0935821
0.269338
-50.2768
0.0753391
-0.0558406
0.141463
-20.1593
0.217796
0.0229261
-20.6002
-17.1994
0.0988489
0.0922225
-32.0742
0.183347
-2.92181
0.0201803
0.302299
0.264636
-12.5282
-16.0429
17.3883
0.516063
0.286558
0.0103767
-29.1024
16.7865
1.37047
-31.8713
0.107102
0.108021
-32.0309
-42.8345
11.8915
-31.8522
-31.9024
-0.00984448
11.157
0.0796249
15.0778
10.1304
-0.0551847
-43.5669
9.62947
-0.0341381
0.170844
-18.2454
-11.5931
11.2058
4.73966
-46.9964
-27.3046
-0.0266169
0.0395368
-1.42027
1.84446
0.106671
0.193958
10.1326
6.15268
11.2086
-4.7473
10.3384
-30.6791
4.33152
2.10127
-32.4623
8.84246
0.178069
5.46934
8.36621
0.224069
10.6077
-5.57378
27.6518
10.3696
-3.2836
0.533656
-73.2522
7.42248
-15.61
-44.8968
-45.4327
0.126482
-0.149827
-47.9388
-0.0405316
2.44918
-31.0048
10.6679
-41.4478
-0.100846
0.152317
10.4862
-36.8144
11.3065
11.3753
0.413072
0.0821456
0.266976
-0.0142303
0.209411
0.62178
-0.638608
-35.5749
-25.8311
0.0735861
12.7299
0.0194441
16.3887
9.66008
11.272
11.2861
11.3366
11.262
17.9821
0.764657
11.2209
7.94848
-5.72451
-0.0219342
-53.0849
-31.5164
-0.0110834
16.6693
2.80095
0.0490091
-53.2876
0.0179054
-49.6506
0.174148
-17.4332
-16.8403
0.412596
11.7503
7.74858
24.543
-0.0287654
0.200663
-0.986872
-21.1443
11.1452
-19.7732
-1.1858
-50.4097
-15.1761
-1.10985
-17.8444
11.2261
0.284759
3.96513
-0.935339
-18.8423
11.1193
9.82842
-18.201
0.0111007
-1.21562
-0.120466
0.127828
27.4367
25.9875
13.6918
14.6185
-0.0317475
-0.0799593
0.617896
-0.778797
-5.60279
-0.0292067
0.111068
0.00315196
0.292308
29.5663
-18.2126
-0.0824824
10.0496
0.196276
0.306919
-0.0349456
-0.0342732
-5.70777
-28.8582
0.0181201
0.0550301
-0.061295
0.377407
13.211
0.0600637
-1.64786
0.250659
0.244225
0.256153
16.8332
34.2659
0.392001
-31.8972
-16.0744
-36.2305
-31.8256
-1.00517
-15.5356
3.36153
-0.585832
41.15
-32.0151
53.0676
-15.8784
-0.990783
-24.6671
0.147943
55.1012
1.26187
-1.6722
0.623972
0.0706064
-15.4263
0.449765
0.371519
0.199245
-31.7637
24.4527
10.5262
10.7998
43.2775
39.6635
-18.1769
-41.9425
-32.9975
44.8831
42.007
10.6819
0.221432
16.1048
0.179545
4.67744
-32.0634
0.633327
3.90071
5.15852
0.240209
-32.5567
-32.5571
0.0407774
3.97945
0.379401
0.218067
5.21914
0.187331
14.3572
-0.0285882
0.277617
30.26
-0.00727198
0.0554567
0.0498622
0.155212
0.147572
50.0743
-21.4956
0.0400183
3.92207
0.34412
14.0127
14.4468
-17.5053
0.195837
-32.1617
-19.165
4.35322
0.572914
22.9399
-41.8859
-0.0347164
-0.071691
-7.62404
0.231155
10.8607
1.93446
0.000718558
11.3762
-35.8887
-20.2053
-42.3422
11.3438
25.1186
0.0769303
-14.3248
15.6801
-18.6426
-0.0718081
17.2168
-38.0619
-8.71951
-19.7611
-32.319
-19.4233
-1.34412
-0.00197574
-15.649
-0.0528058
-20.1265
-31.5671
-0.0204462
-20.4427
0.139589
0.237999
-38.5905
0.147513
-0.411617
15.4769
14.0012
10.3589
-26.7335
-10.9455
0.297793
-12.5449
45.6749
-2.39919
12.7506
0.407252
-2.01566
0.187586
0.0456319
-30.374
-51.2064
-11.656
-2.90313
-22.1392
-25.2911
-29.7111
6.32467
-0.0285269
10.9094
11.1093
0.455948
-14.114
14.8271
21.631
10.9751
-31.6767
-19.39
0.585145
-0.184177
0.201147
-0.534329
31.1215
10.6899
-26.603
-0.0347644
2.07978
10.7972
10.7819
10.6816
10.4996
11.0239
-21.2585
-5.9412
22.0587
26.3339
15.8962
5.46959
-2.98683
33.9012
-1.47915
-8.97849
-2.74852
-18.1944
-15.4581
-20.3547
-2.81736
11.0302
13.878
10.8275
-0.605888
-34.21
-33.5219
-42.8657
9.09552
-11.1717
4.23495
-25.4169
-0.379779
-38.2545
-0.453227
-0.737305
-15.3059
5.99526
-0.568223
8.40994
0.151475
3.84596
-16.1334
0.421386
-4.18356
-27.0205
-9.0722
-3.66374
15.1001
48.5279
-50.0786
39.0799
-29.9149
-57.9029
0.146348
0.249285
22.7547
0.0989432
49.7064
0.125381
0.0979472
-49.5874
13.5037
0.49449
0.273886
10.595
20.9878
9.17992
0.109977
11.7031
-21.3192
8.14912
11.5235
11.7551
11.2319
0.118448
-16.1763
-9.5213
27.1385
12.8624
0.0998039
8.81188
0.240315
0.206916
6.59547
-12.3732
-7.83865
-14.2979
-12.8399
9.47073
-43.8627
0.156637
0.205861
0.139148
-44.061
-44.8764
-31.8415
-31.7904
-1.36579
-1.97328
-40.6456
-32.4922
-7.79405
10.7943
0.0694432
-2.22984
-41.7355
2.17122
-4.19106
0.237411
7.85505
-1.31797
31.0491
-109.499
-18.3313
-34.4503
0.304309
52.6481
-49.8475
0.76032
9.1043
0.457184
-34.7249
9.18064
-8.04998
16.3921
-30.3341
-0.878193
-31.3126
0.422965
-13.3608
-0.784821
5.37198
-37.4845
-35.0554
8.52019
17.5846
-15.437
-45.9308
7.98865
-0.352576
-35.5815
-41.8721
9.84437
7.36066
-62.477
-50.394
-44.3681
8.68079
-13.9569
-29.1357
-43.5059
8.05821
22.3017
-22.7936
-11.8958
-9.47692
-34.8491
-40.781
-6.39221
7.06239
10.4677
11.1386
12.5235
8.42338
-6.74709
11.2186
11.1745
12.1025
-2.6325
-32.7586
-38.826
9.42743
40.246
-22.8343
9.65762
-21.9528
3.98567
8.44652
-12.3315
-4.44721
8.58638
7.66504
-56.5058
11.6006
-36.4377
-50.3677
-36.9151
8.16792
-12.7937
10.1381
0.451438
1.12619
-20.3579
-41.1407
-1.22429
-35.0168
-20.0939
57.4033
-24.6503
-45.499
-33.7616
-0.0821468
-0.632768
-42.3874
-2.25407
13.5039
-0.0496105
-44.9282
-41.5695
-0.0179586
-1.15401
-36.4029
-14.6347
-42.7839
43.6995
0.0787494
-5.15446
-44.3259
-3.31081
20.6857
-35.6191
13.4591
-53.2248
-18.75
9.36185
0.194538
0.0473176
-1.24133
0.111941
-1.21958
-2.28758
0.114421
5.54059
33.3628
13.4123
23.0521
-20.547
-11.4958
28.2189
-6.96125
1.54293
-16.9509
11.6847
-67.4952
0.348294
-0.710287
0.428431
-41.4997
0.201793
-55.3082
0.228208
5.92212
4.75779
-50.7009
49.1435
-32.8872
-26.5687
33.2018
-5.05545
10.6786
-12.7137
-27.5224
-32.4011
-27.6517
43.4629
10.5266
-19.459
-31.119
-8.28533
-7.45279
-40.0123
-29.1941
0.816916
-18.9185
10.4129
10.6853
-27.8331
-44.3299
-3.78573
8.69955
10.5728
-50.0354
10.7235
-10.5947
-14.5523
10.7107
10.9432
-25.3066
2.79591
48.5665
-25.5708
2.42659
28.7131
26.1901
8.00788
-85.3199
-38.4455
-19.3825
-117.679
59.6685
11.0164
-24.6564
11.0155
22.0967
-52.0072
1.59599
-52.4215
-29.9981
-6.16486
19.512
-11.587
10.8704
10.9189
13.8353
-24.6115
0.434487
0.0572869
24.7428
0.0494487
-21.3858
12.4055
-14.9628
-3.50749
-27.3064
13.8627
-56.3568
-42.3424
4.90974
-38.514
-32.7575
0.0492725
46.3223
-38.8461
-7.42434
27.6473
-15.7856
-23.8489
-27.4773
-37.8727
5.60179
-47.5258
-24.2827
4.11797
-2.4922
0.273582
-27.5137
-6.62138
23.5008
-20.3633
-0.275913
21.3852
0.269795
-64.3709
-0.057057
0.0556196
-9.27932
-27.2089
19.8673
-13.5784
-17.586
-10.5037
-52.4212
-0.00540149
-16.2429
-64.4628
0.343721
-9.4318
55.6662
-9.19326
-32.0534
-48.2503
0.0660816
7.91685
0.0310541
-128.129
-31.3805
-25.2829
-31.1257
18.6651
-7.24783
-1.15526
-40.6087
-48.7387
-20.2521
0.210524
10.7517
0.620319
0.343922
0.282339
51.156
11.1584
10.4564
-10.6254
0.294106
14.3183
11.3678
20.526
10.9045
0.102855
19.0444
11.8351
8.58216
-22.8506
0.743481
10.2778
8.11207
-13.1814
10.2835
0.253468
0.285437
8.84986
11.3823
11.0371
-50.0519
10.2444
16.6474
0.411733
0.17285
-27.268
11.9874
11.4318
-48.4356
-47.0652
56.5057
13.1857
-49.2909
22.4447
-0.573547
-47.2977
8.86184
-48.443
-0.0836646
-0.144617
10.7822
17.554
9.009
-0.0466666
0.052722
0.659757
4.91764
7.09815
0.391109
-21.2595
0.226134
-16.5218
56.3931
10.2872
-45.7564
-13.4481
-70.8457
0.277667
9.09126
-0.000855212
11.7315
-0.100171
10.3393
0.500755
-42.4234
-28.2398
-39.8069
-7.60935
-17.4111
0.67946
0.282801
-32.0477
0.681257
-52.319
-4.31164
-47.0877
0.0193251
-57.2585
-85.6804
-1.62623
-0.0107222
-30.2121
0.163168
-29.7473
10.028
-0.766904
0.579183
-1.36102
-2.54617
-3.57797
-16.5128
-32.0636
-11.402
10.0628
0.474424
10.1527
0.171999
9.9939
-29.7355
7.91169
-29.4859
-1.54991
0.854261
7.51249
0.271641
7.88613
7.12424
0.0852089
0.227609
10.8479
-2.82762e-05
-6.77441
-0.0124792
-0.144664
-30.5698
-29.4375
-5.10058
-1.05194
-27.8715
-0.080739
0.124855
0.18759
0.21057
0.0326232
-0.0273687
10.1904
9.90774
0.353379
0.231197
39.5462
-0.252998
0.108989
0.267557
-49.4502
-1.52259
-51.682
-37.1579
-45.9221
7.75862
0.155447
-1.18477
0.0204716
0.281466
-42.9335
-14.1439
0.284552
0.170295
-1.29073
-1.32562
-31.0953
-1.38964
-0.00366086
-20.2162
0.359619
0.327594
0.0957403
0.250861
0.0480415
0.145734
0.250036
-14.3807
-21.8243
0.0527562
10.1011
-6.04957
-12.4547
-11.2046
0.219761
0.309992
-14.5305
-0.377453
-0.0753645
0.304622
0.130089
-13.6767
0.0479362
0.401809
0.286632
0.206681
0.283833
-9.66992
-0.048419
-43.4537
0.203039
-18.1656
-0.889955
0.0498719
-44.7734
-0.0429349
-1.6101
0.0756994
0.325279
0.401555
-1.53044
48.97
-1.50448
-28.8738
0.176407
0.0518687
0.42992
0.243896
0.0652967
-1.1542
0.133444
0.229461
0.0494135
-27.1804
-11.5681
-42.0405
8.72931
-18.8349
-1.2142
-0.0147386
-1.13776
-37.4289
0.0268489
-0.000879555
-0.0464229
-59.6243
-0.00835656
-0.507993
-0.0109698
0.182414
-0.30369
-148.851
-0.00803849
0.647072
10.2272
-0.00518491
-8.96652
29.1321
23.4059
0.0196954
5.26968
-0.0359318
0.296396
0.22991
0.112519
-58.3487
-47.0452
-0.0241899
0.130677
-44.063
0.065221
-5.86893
-25.4332
0.0459829
0.351489
3.26358
0.0749193
-14.9753
-0.0470052
-0.954867
17.6341
1.43717
0.0356948
10.2114
-30.3103
10.2661
-30.3875
-27.1918
-32.3314
-28.6737
0.331535
10.2004
-21.5814
10.3457
-2.34634
14.6646
-34.9537
-30.1691
10.6572
-11.8098
10.6513
0.124391
0.0136663
-31.8135
0.261289
0.337736
10.4724
10.5078
39.0486
41.8546
60.1368
-22.1323
25.9542
10.6755
12.9956
20.7871
10.5335
0.257082
-0.0528883
0.169102
0.187701
-31.8464
-31.7748
0.300303
1.41419
-9.50447
-49.8048
-3.47285
0.0962778
-3.51648
-24.2214
-59.3831
0.239168
-36.262
-17.3872
-32.8365
-42.2788
-14.9493
0.232528
0.19505
11.1474
-61.1853
0.0326637
11.2521
0.154622
0.131729
-46.8298
-46.9917
-48.5485
-1.76056
-29.565
14.3643
8.02818
-0.0428096
-17.0297
-50.1659
-49.1792
-32.1508
58.0114
-32.1972
32.0232
10.1232
-45.3563
10.807
-64.2559
10.1834
-60.1733
10.087
-29.6139
-0.241458
-22.6413
10.7048
10.6308
-1.31399
10.4974
10.3792
31.7971
1.53011
10.6072
10.3744
-71.383
-43.5597
-16.7711
-29.175
-44.0145
-29.2625
0.274597
12.9111
-39.6842
-33.9535
-39.5779
11.7479
-47.9868
4.18032
-49.3969
-50.7558
-39.9127
-27.4912
13.1593
1.68419
7.36244
10.541
0.513378
-34.7436
-5.11641
-2.3451
0.485153
-0.0179778
0.0744593
0.467609
0.199678
-28.6237
0.238383
0.11148
0.35332
-1.13585
-23.5
0.474447
-0.0643601
0.0881469
0.368666
-10.6918
-8.25802
0.306647
11.4277
-34.1269
-50.2999
-4.0281
-46.0564
-12.9531
-2.62979
-28.9145
34.6257
6.95546
6.56998
-11.4401
-0.0286457
-0.0244067
-6.66555
-0.0626379
0.0408139
-2.89551
0.0550581
0.445563
1.04691
9.43681
-7.90655
-0.721214
41.4267
0.0451034
10.6164
-0.00110095
-0.0524453
40.8198
-44.1127
22.4089
0.0832666
-1.43848
-30.1267
-31.7991
-4.60312
-0.3404
10.0283
-15.0226
0.061083
0.0685969
-15.1477
10.39
0.0631602
11.6614
52.6502
-1.13427
-1.60651
-23.5305
-4.67798
0.155915
0.106082
-1.91987
10.3756
10.341
8.26977
10.4549
11.0096
2.74097
0.952054
-9.22731
-50.5218
3.24975
-7.87549
10.4025
10.3159
57.9933
1.69959
-0.181284
-1.46694
-20.734
-40.3568
3.33834
14.1086
-1.60808
27.7701
-7.89209
13.0752
-34.5777
45.4027
28.073
-26.7533
3.14545
2.55803
-21.9128
-49.0681
-80.5209
-5.41951
-15.1904
-49.6513
-0.56356
-20.9996
-12.1668
-40.1991
-32.3424
1.28383
13.3917
-50.3776
8.4645
-11.7554
-0.77526
8.75447
-2.78351
15.2266
2.76455
12.9466
7.87395
-38.7372
2.21872
55.1095
-22.6757
52.9378
30.0185
-76.4915
11.3592
11.3999
-62.9089
-18.9639
-6.59237
-34.5903
-29.5817
0.244197
1.68815
1.34737
-35.1303
-6.6941
4.88903
56.105
-12.1186
9.92162
-10.0434
-23.7892
5.66317
5.93101
-37.6852
-33.4087
-30.0339
-31.7393
0.0465152
-19.2883
-0.965069
-20.2947
-11.7397
0.541185
-1.41203
-18.3911
-8.86838
-31.6785
-31.5386
-7.97383
5.43265
-2.70046
-15.9309
-25.7705
7.12544
6.95854
-18.8502
-31.2984
7.92142
-12.0354
-31.1958
-0.885779
-39.6401
-3.94917
-10.4624
-45.8238
-0.705811
50.1185
-16.8314
-1.54625
-1.6213
-2.99896
-50.1489
0.25184
0.369492
-5.19858
0.213881
10.0391
0.25502
-31.0679
9.46158
33.0544
10.0373
9.62654
9.35379
0.22628
-24.8762
-17.5866
-17.5939
-48.4701
-4.92694
-39.9306
-16.7736
0.0400534
-53.9059
-0.00474703
0.259403
-2.81254
-13.2565
-55.4082
-32.9027
9.6263
36.0824
-21.1418
0.371942
-36.5085
-42.242
-10.476
-43.7881
31.8766
10.2006
-13.0483
40.8696
10.2373
-71.2715
18.5546
9.1712
46.5837
32.2559
10.3837
10.4001
57.9807
-40.4283
0.338498
51.6999
5.639
10.3618
-12.8072
10.2535
-33.9122
6.57935
57.5126
10.4721
10.6044
35.3996
8.7583
15.418
-5.47743
-5.07402
13.2449
-30.7937
22.3255
-23.433
-55.6592
-72.2181
-30.8814
10.6988
34.6518
12.3234
2.71093
6.01195
9.92359
10.4034
-0.497059
-0.304418
38.7567
-46.128
11.016
-30.818
-0.230915
5.51582
-20.4256
-72.0863
-0.296426
-19.8084
11.8084
3.75379
-0.466867
8.75659
-10.883
-0.295537
0.439818
-24.0958
0.322658
0.231941
-10.4923
9.00298
0.210832
20.6957
0.268815
-27.209
25.3903
0.43656
14.4045
34.911
-30.865
54.662
39.4291
-34.0518
-65.2559
-31.0928
-29.2108
-30.8741
-30.943
-34.2762
-25.6657
-35.8676
-31.1569
56.5649
-8.00065
-47.4794
9.53759
-1.73374
-40.1638
-44.6981
-6.13279
-32.0224
-20.3712
-31.4731
-17.2431
39.1809
-48.9334
-35.0793
-30.8979
22.3666
-30.8578
0.0587962
-47.7345
21.5256
4.5735
-0.219035
-4.51238
43.4614
6.94083
-19.0175
-10.5489
11.1068
-0.384875
-9.72867
-29.6496
-34.4714
-3.69175
-8.95338
17.3827
-32.8341
-12.4195
-0.186022
-27.3383
44.2568
-5.08517
3.73241
-0.0672033
0.640962
-39.9302
8.68613
7.15217
1.90746
-0.212556
3.57411
-4.37337
-4.95461
60.5079
1.17373
-16.2355
-9.41857
-0.100753
-49.4881
-48.7902
7.25841
7.38429
6.56604
9.57346
-28.09
-14.1603
54.1572
-10.3782
9.31933
-18.3707
-7.10046
-7.56458
7.06418
-15.8922
7.0147
-25.3724
-31.3808
-34.7609
30.1215
-15.0795
15.797
7.26219
-55.3691
-70.5516
31.1805
-47.7492
7.76716
-60.5951
31.3316
-6.32814
18.3821
-24.4209
-1.73663
0.166134
-8.576
-16.9765
-40.4856
-1.8629
8.21069
-90.8206
11.2008
-29.3216
11.0595
-4.38661
8.64145
-1.58111
-3.52271
0.0968962
-14.7717
6.14959
-0.534378
13.5971
-2.16693
-45.6956
33.3472
9.56446
39.4085
10.4844
-1.14504
9.50316
11.2726
29.4498
-2.3414
29.3239
-0.234159
-2.56473
-20.8404
0.278647
0.045638
-16.5128
-10.4338
-24.8905
-7.40127
31.6677
5.81782
25.9337
0.110724
16.0603
13.2419
0.118462
0.15469
0.201269
0.410371
55.7431
0.20128
-11.7242
-32.7932
10.5545
10.9083
13.5609
10.7583
-23.064
-27.3395
-2.68183
-7.05036
-7.05782
-19.3715
32.415
0.195005
-61.0306
-14.3734
-37.6641
-2.29563
7.09483
-25.5912
10.6558
10.8045
-21.615
10.8941
-0.6629
5.67643
-41.9864
15.6068
53.0157
-1.99487
-2.77793
32.5436
5.3587
-1.29912
32.6691
6.32802
-19.7983
35.5024
-11.9493
37.3821
-43.1965
0.219389
11.2761
-2.7143
-11.1461
-2.22186
0.315247
-3.73708
0.107675
11.2837
-34.8898
2.75631
-0.258847
-32.1098
-1.44804
3.57756
10.7433
10.8659
23.5542
2.25007
-3.14344
-7.78391
-4.02354
-15.097
10.5392
-0.27123
-21.8606
57.766
-24.3218
-1.26031
56.4519
10.7684
-47.9118
52.4115
-5.97897
3.45825
34.4164
10.9018
-31.7405
35.7946
-31.839
-5.9631
-31.6866
-16.0836
-32.9874
32.6299
-6.3961
58.4822
0.204228
-31.822
-31.7605
-52.0588
-46.0004
-37.8709
-53.5227
-38.2734
-33.7045
55.3907
8.18906
8.75657
48.5324
22.4846
-48.9081
5.90214
-50.6303
42.9161
0.384061
9.07423
0.026214
0.262638
0.258539
0.29394
56.761
0.0619141
0.217426
10.577
0.322204
0.415811
9.27946
-8.06097
0.257684
-10.004
0.0512908
5.4099
25.1025
-47.8791
-2.25631
0.255393
-8.67965
-2.40804
-39.1477
-27.3619
-24.4177
-3.37647
36.3783
12.1141
-4.65595
-7.30774
7.09056
2.2789
0.305316
10.0238
9.56292
-33.3402
0.394042
15.7819
-5.40454
0.96732
10.2439
-6.93257
6.36079
10.0973
9.83743
-16.3528
9.60437
7.3395
50.1929
23.6483
11.9472
21.2733
9.25481
-3.77627
9.6609
-0.109816
-5.84883
-0.120235
3.52742
0.0810898
20.2881
9.17898
-20.0307
22.0867
-0.0124913
8.07038
26.5354
-17.6533
32.1848
-29.6302
-54.6747
-36.8663
-2.09828
0.0920177
-32.8448
34.4538
-14.4915
-4.66305
7.46731
0.285455
-1.42637
0.0411214
7.93061
11.1581
27.3351
7.1163
-0.265626
9.93328
10.0505
0.00530025
-34.8663
33.3412
0.0517744
6.16679
-14.9319
41.0532
11.1445
8.61978
-13.0313
-50.3129
-46.9062
10.2126
10.1444
-5.84658
-9.49166
-12.7809
-33.5336
30.3668
-0.0899411
-1.23659
-3.03465
0.178811
17.7934
-18.0102
0.292682
0.251243
28.7942
0.206433
-14.1865
24.9607
-37.8528
-28.7041
0.14551
-14.2935
12.1905
-0.0852129
0.147099
10.8237
7.66872
-1.81417
19.2629
2.26466
-44.7374
0.244422
0.221088
-37.2336
-3.83223
11.9218
0.228986
6.41938
10.4306
58.4452
0.209921
-12.3431
-37.2227
-41.5999
-97.551
-62.0158
0.232041
15.0196
44.7497
0.00949921
6.20741
8.2416
-40.1075
11.3988
4.57394
-39.6534
11.3797
23.5877
-19.1379
7.59293
-40.7261
-50.3774
12.9691
17.2382
-42.5817
13.2727
9.19445
0.737654
12.4928
10.665
-1.35539
-37.9127
-9.50052
6.23454
12.3469
10.458
11.0491
-0.275745
-0.0565837
33.3926
-0.0154715
-10.0128
-1.80043
34.7113
10.7807
-14.9725
2.78549
55.753
-26.1687
-31.3597
-41.2006
1.30803
-7.65587
-58.61
-21.9466
12.6985
-18.2547
-9.88211
-0.04275
-13.1344
10.064
3.36196
1.59026
-0.0304852
0.104946
-22.4463
-8.04532
-13.8913
-0.215617
-1.97345
0.152132
-2.16237
-8.46584
11.3708
-46.8598
11.7493
-2.59358
-2.52518
9.81483
9.5102
10.4847
-0.0960761
-2.34899
-15.0799
2.09612
-2.22626
-2.45538
-32.0899
2.05436
-9.1127
-40.0623
-32.6778
-27.7269
12.5582
-35.7578
16.8767
-33.4478
0.0302148
-31.8214
0.0909226
1.09779
-1.94136
-7.5381
-0.0409991
2.03536
-3.96367
10.6833
9.89989
12.1788
-7.30834
-7.17045
-45.9909
-31.0681
21.8244
35.7792
-34.0703
-25.9343
-31.0936
-49.0283
-30.9319
-12.2093
-31.1185
-0.818188
-1.08233
-49.1265
-51.4202
-6.44638
-2.4463
10.2889
51.0372
-4.80749
-50.9785
-4.97231
2.9652
-6.04508
-2.4167
-28.5399
-1.18985
-0.888012
-0.643107
0.258327
5.14705
-1.71415
0.341337
-42.9653
-43.675
-42.2413
21.028
-36.6715
11.2347
0.331219
12.5771
4.61076
2.42575
20.0702
10.2553
21.3387
-0.472563
1.85026
3.43028
-1.09091
0.110322
-14.9586
7.0355
11.6588
7.06152
40.4986
0.141491
22.2803
-59.0659
-7.97677
-49.4926
39.8921
8.68124
7.57135
4.6572
-15.3878
-11.2574
11.0711
-35.9057
5.78853
7.86304
-7.48175
16.7443
7.86584
-7.72888
-20.2845
-14.6156
11.2851
-2.84422
-61.8037
-1.09412
-43.9376
-30.4642
11.1661
-52.2839
-11.1063
31.3741
-2.66396
11.1466
13.6396
15.8675
-9.01118
10.3997
-31.6602
-14.8001
-31.6046
-6.46883
-9.42693
15.661
-31.0787
-29.6641
-0.957437
-1.37505
14.6159
-31.4271
5.99404
-7.60725
-44.8395
0.0844392
-0.922596
9.82723
-49.5517
-8.18789
-2.52853
-0.604019
-3.38017
9.50538
9.21509
-5.31518
9.57722
-30.4345
9.54734
-51.1439
9.8218
-33.0013
-34.0644
-12.4178
8.92098
-10.6891
-2.00397
9.1619
-4.13509
-1.86529
-10.5298
50.0611
0.0919869
32.521
-14.7715
0.193153
-5.49675
0.13076
10.7509
9.38382
10.4875
-9.20067
0.134706
10.0411
-3.61922
0.164858
0.336525
-26.9539
-0.447545
-0.00449513
10.8728
-29.3488
-34.2367
0.0833722
-9.47635
0.305462
-29.0216
0.202034
0.0982052
-0.855729
0.260733
-0.659232
-0.844302
0.0457365
0.411719
9.46998
-24.8093
-21.0014
10.7942
43.6564
14.233
10.559
0.0697786
11.2292
36.2597
0.00956035
32.2422
-1.73372
0.0636144
-0.615826
24.3084
0.309474
-0.127482
52.7771
11.3179
26.0527
-12.8832
-16.1807
-0.0703751
-4.39853
-0.047856
0.204303
0.00251398
0.248192
47.7061
0.288548
0.200136
0.141071
10.1692
-40.8038
-28.7083
-7.06548
1.77934
-1.31533
0.197713
12.7084
-30.431
23.3982
15.1727
1.54186
0.17942
40.8127
-15.9335
38.8948
29.1348
10.1625
10.6854
0.170075
-7.11484
-0.458007
-18.683
-16.3272
10.683
-47.0306
-0.74732
-0.298097
0.293352
8.96612
0.0706683
46.4977
-6.84201
43.4857
0.0722728
-52.0938
-10.7478
-16.6023
0.109499
-43.6346
0.24823
27.7137
10.3665
30.7134
-0.757208
-20.502
3.29673
-48.9342
29.0527
10.1792
9.88699
-3.16003
-27.5902
10.3223
-52.4588
-38.1206
10.2469
32.2694
10.1044
-24.5062
41.3178
6.35423
-11.3831
41.2384
36.3522
-0.694967
0.857316
-50.6388
41.2227
8.66819
38.2045
-7.92109
-51.1092
27.9082
-5.34071
0.0455147
0.114833
0.112228
-1.36836
12.0501
-32.5464
-2.7064
-37.2099
14.5624
36.7026
-13.0082
34.7361
0.0622873
-0.039168
-17.856
55.7112
-20.2786
46.1168
14.0616
2.467
22.8369
2.9375
15.2389
-0.00266906
0.0701182
0.00577155
-0.0212377
7.01768
-17.055
11.6328
-33.8814
2.87496
-43.5465
7.78127
-26.9828
43.3686
-4.40313
-3.65828
0.0562017
37.2803
0.012873
21.0013
-4.04839
7.81071
-13.1311
-1.37492
30.047
33.6125
-18.6118
0.15318
-1.89849
-31.0716
-63.1356
-9.03972
49.6416
24.9855
52.8018
56.2358
42.5791
-36.8007
-2.52703
42.5255
-43.4301
-0.00111192
3.76091
0.0293327
-29.6724
-13.6787
-3.31162
-0.374996
-10.5732
-0.0797937
9.57058
-37.9533
39.8408
-46.8491
9.53831
-3.76948
8.22389
-0.552064
-9.48404
-52.2886
-2.1764
-29.9847
-21.7481
9.88956
-51.0642
-43.2734
9.8701
-17.2077
-17.7131
21.9027
9.88699
-15.6044
25.3049
-53.1916
-32.9919
-45.0879
38.0221
-32.8537
2.92091
23.6588
2.44474
-56.7725
-48.511
-1.24462
-2.3885
47.7385
-4.48886
-39.559
-4.91808
-19.3535
-65.7255
-30.9637
-31.7903
1.06967
-31.7819
0.132929
-31.7321
12.8126
-24.4006
48.1633
-31.4233
18.9316
-32.7664
-30.8391
-20.0005
-44.8789
31.5368
29.3501
-30.3538
9.35763
24.7448
15.2983
4.28979
12.0007
-4.18296
-32.3695
-89.7679
-33.2511
14.5032
18.2144
-40.6379
22.5039
-33.4725
-16.667
4.81373
3.73487
-30.3804
10.8808
-32.4037
12.6158
29.0756
30.9834
58.0738
27.8634
-28.8503
-60.876
42.0514
10.8698
34.9796
-48.6135
-31.8767
49.0318
28.1647
-4.96482
20.2001
23.698
-42.3325
-34.0826
-44.2427
14.7576
9.15864
34.0679
-59.2821
42.3696
27.013
11.2218
35.2684
-34.4951
1.32215
0.649219
11.1648
-14.5639
-48.257
-32.4547
42.8945
-15.3721
-22.816
-47.5259
40.6645
44.0846
36.5396
-33.1938
-97.8285
42.6186
-32.1815
-54.9101
44.0531
-2.83761
-11.1629
10.7151
-0.884665
-1.32786
-11.7275
41.6768
-30.8749
0.682229
-1.07959
-1.23374
-0.830511
-2.89297
3.44861
-32.9076
-10.7723
-1.41421
-52.5828
-68.2954
-30.9114
-20.6583
-2.84226
-18.2464
-29.3386
-41.8135
-1.2628
-36.8091
-2.89744
-36.9315
-32.5756
40.8343
17.8379
24.6245
0.0863919
4.10109
-71.177
-25.1339
-11.5543
-44.9521
0.00367982
-62.4922
-45.0103
-26.8646
-45.145
-6.35925
14.2905
10.2178
13.7525
9.36518
40.8208
0.00606301
-0.0135664
-0.0319848
13.1679
-9.73398
-46.8578
-57.1308
14.7272
35.7261
23.0437
28.2784
-1.39521
-47.1638
-7.21157
11.2308
2.51228
-3.35195
17.5913
5.93177
-16.0159
13.1983
-13.3079
-11.1429
-8.2714
15.9234
34.5282
-31.7826
51.164
-32.078
17.7965
-52.5384
-44.7981
-12.0336
12.145
32.6043
-10.982
-32.3057
3.85422
13.0291
-18.6305
-31.3542
15.3902
44.9114
57.2207
-29.0167
-4.67115
-55.1803
13.3459
-0.870053
-10.7435
9.36475
5.59604
-16.4945
1.87831
7.17243
-44.2844
-11.9602
-31.2628
-15.5148
-32.8095
-0.0777697
10.5221
-52.2129
-19.4573
-0.0489767
57.6549
10.4096
44.2609
8.15127
-29.5328
15.483
-1.20365
32.1082
53.536
14.0651
32.3471
0.0621834
-44.7478
10.9298
10.843
-7.075
5.84733
-39.2314
-5.45003
-12.2764
11.0968
2.25849
-22.9364
3.57563
8.07587
-9.55342
-13.0752
-28.5374
0.0336802
12.5844
0.00879685
12.7687
0.0788561
-21.3172
10.9271
-23.9281
10.3027
-27.8251
0.00980616
31.6277
-10.2413
33.8173
0.0525967
5.41417
0.11273
0.00873267
-6.17849
6.19848
15.3712
32.3302
27.8415
-34.4669
-50.2146
40.9742
22.9688
20.0081
4.06073
0.0116409
0.0270125
-75.1315
41.6858
17.2731
13.3245
0.0525838
17.1796
0.102869
-0.00310614
-22.5771
-26.1869
-38.4961
-34.7319
5.73332
-0.777215
-7.86122
10.7524
40.0818
9.16829
-21.313
9.04385
-8.56784
-75.9501
-17.2346
0.0641537
2.44778
-10.9425
-9.84968
-37.0531
11.2922
-36.3863
22.1193
-76.1921
-31.3131
-29.2556
0.104166
20.161
1.86885
11.0106
32.6732
11.0714
-12.9202
9.10488
10.1421
7.21772
10.9694
-40.3873
15.222
3.58757
40.9068
10.3656
-23.473
11.1592
11.0754
-32.0975
-77.9674
-28.7702
-31.7331
-32.1266
8.12615
55.832
-34.5713
-4.83375
10.742
18.1974
-32.1007
0.216849
-0.0273905
9.1408
-23.5899
-31.7041
-50.4553
29.6931
-3.20781
0.237017
1.63579
-31.7692
26.0646
8.02342
-54.5607
-33.4876
-32.3503
57.6383
12.3352
8.83491
1.51967
12.4369
-50.1697
15.2806
9.47789
17.2912
-6.36074
15.3142
21.3032
42.282
34.0668
8.88472
-19.7638
20.6201
-10.9564
0.187702
0.252013
29.2009
-31.9976
-13.3373
0.166166
53.067
0.249544
-31.8665
27.9931
18.6553
37.1814
-31.361
-20.9966
-31.0984
29.836
-15.1767
-33.8658
-6.42615
9.56551
0.101122
12.2729
-1.00562
13.0261
-1.37562
9.69656
-1.46586
-13.5147
0.0167451
32.9485
1.65317
2.41271
-25.7749
7.63376
-0.655442
9.28441
-6.98122
-33.5229
-44.7731
-21.3787
2.62472
34.6887
0.092784
56.1658
-31.7255
55.9326
50.2139
0.242937
3.08479
5.15755
0.199668
0.0751756
-89.5058
9.9622
-23.9273
-15.108
3.01866
-1.00326
-32.2126
5.36751
5.3057
7.85224
4.93608
0.242541
-31.0444
-6.43603
-0.490765
-27.0992
-0.339802
-1.43078
-0.658407
-0.483433
-9.55072
6.58078
-55.1779
-1.26728
-0.603072
-14.1025
-19.0815
20.6717
-20.5786
10.3393
10.2219
-0.0256174
0.0339766
-12.7541
-17.2842
8.44223
0.00604
-3.4978
9.25066
-0.0139818
54.2274
-0.0540633
-2.0457