/*--------------------------------*- C++ -*----------------------------------*\
| =========                 |                                                 |
| \\      /  F ield         | OpenFOAM: The Open Source CFD Toolbox           |
|  \\    /   O peration     | Version:  2506                                  |
|   \\  /    A nd           | Website:  www.openfoam.com                      |
|    \\/     M anipulation  |                                                 |
\*---------------------------------------------------------------------------*/
FoamFile
{
    version     2.0;
    format      ascii;
    arch        "LSB;label=32;scalar=64";
    class       surfaceScalarField;
    location    "0.0982622";
    object      phi;
}
// * * * * * * * * * * * * * * * * * * * * * * * * * * * * * * * * * * * * * //

dimensions      [0 3 -1 0 0 0 0];

oriented        oriented;

internalField   nonuniform List<scalar> 
92401
(
0.151127
-0.10003
-0.00664517
-0.044452
-0.0649031
0.0617473
0.0416674
-0.0385115
0.0221274
-0.0395527
0.0428972
-0.025472
0.00661167
-0.0132265
0.0130494
-0.00643459
0.00146109
-0.000580565
-0.00605669
0.00517617
0.0193834
0.00968198
-0.0252808
-0.00378455
0.00592338
-0.0047886
0.000326301
0.0321853
-0.0255046
0.0127027
0.0480789
-0.0386429
0.0324575
-0.0418935
0.000315766
-0.000499369
0.000287673
-0.00010407
0.00468191
-0.0414382
0.0385928
0.0243272
0.0243123
-0.0872323
-0.0177585
0.0112477
-2.84976e-05
0.00653928
-0.0343331
-0.0399063
-0.01563
-0.0217028
0.0598335
-0.0225008
0.00207959
-0.0664068
0.0643272
-0.00252372
-0.00776677
0.00204753
0.00349647
0.00222277
-0.000944315
0.00154035
0.000210026
-0.000806063
-0.00499825
0.010962
-0.000135181
-0.00582852
0.0165379
-0.00576884
-0.00503935
-0.00572975
-0.0406713
0.00832993
0.0369346
-0.00459325
-0.0395054
0.0110373
-0.0547904
-0.054008
-0.00255955
0.0547922
0.00177532
0.0906703
-0.0892008
0.021991
-0.0234605
0.0502406
0.0601381
-0.0720375
-0.0383412
-0.0325995
0.0511518
-0.0580577
-0.00275013
-0.000986393
0.00400569
-0.000269167
0.0314246
-0.0636568
-0.000367273
0.0609315
-0.0602127
-0.0322227
0.0315038
0.0124755
-0.0172721
0.00137634
0.00342019
-0.0362665
0.106881
0.0618458
-0.13246
-0.0846923
0.107517
0.00897529
-0.0317996
-0.131154
0.0325798
0.0294673
0.0691073
0.0148093
-0.0621507
0.0375428
0.0097987
0.060256
0.00926319
-0.05471
-0.0440999
0.0101075
0.0023969
0.0315955
-0.0504159
-0.0411779
0.0654818
0.026112
-0.0331817
0.0406841
-0.0137003
0.00619788
-0.0205183
-0.103735
0.066786
0.0574674
-0.0858784
0.0876712
-0.00179286
0.027747
0.00377471
-0.066176
0.0346542
-0.00579176
0.0309223
-0.0183176
-0.00681302
0.0268857
-0.0503977
0.023512
0.000126793
2.8767e-05
-0.000132019
-2.35413e-05
0.00142952
-0.0589259
0.0574964
-0.068347
0.0428567
0.0621136
-0.0366233
0.0901235
-0.0254204
-0.0128082
-0.0518949
-0.000590066
0.071484
0.00115761
-0.0720516
-0.0474617
0.0734154
0.0395278
-0.0654815
0.000568439
0.00109447
-0.000401413
-0.0012615
-0.00196241
-0.00364427
-3.67165e-05
0.0056434
-0.0382993
0.0840316
-0.0462242
0.000491858
0.000306226
-0.00063634
-0.000397187
0.0007273
-0.0553958
0.0544342
0.000961609
0.0752506
-0.00770915
-0.018728
-0.0488134
-0.101016
0.0932069
0.00440441
0.00340507
-0.054788
0.0273866
0.0109509
0.0164506
-0.00266026
-0.0148655
0.00749608
0.0100297
-0.0124402
0.0257194
0.0374239
-0.0507031
0.000708713
-0.000291614
-0.000110872
6.93702e-05
-0.000108299
0.000798006
-0.000759077
0.000220847
9.23873e-05
-0.000113519
-0.000199715
0.0041338
-0.009163
0.00502593
3.27025e-06
0.0679123
0.00506089
-0.0172013
-0.055772
-0.0149748
-0.00481612
0.0108094
0.00898152
-0.0409775
-0.0528728
-0.054767
0.148617
0.0036968
-0.0358059
-0.00266914
0.0347783
-0.000212118
0.000411483
0.000280271
-0.000479636
0.00426071
0.00449708
-0.0278643
0.0191065
0.0189482
-0.00639036
-0.00968735
-0.00287052
0.041919
-0.0765878
-0.0279016
0.0625703
-0.0293938
-0.00299007
0.0102386
0.0221452
0.0121729
0.00836511
0.0129703
-0.0335083
-0.000221706
-0.000249241
9.44801e-05
0.000376467
0.0252298
-0.00973263
0.0365655
-0.000189401
0.000165931
-0.000269734
0.000293204
0.0443829
-0.0330232
-0.0681355
0.0567757
0.000239106
-0.00015633
-8.27762e-05
-0.00113826
4.23819e-05
0.000540815
0.000555066
0.000548439
-0.00024693
0.000159153
-0.000460662
0.0225851
-0.0230662
-0.062256
0.0627371
0.00108513
-0.0126945
0.00290144
0.00870796
0.0430095
0.0585864
0.0185257
-0.120122
-0.103971
0.0205212
0.11899
-0.0355401
-0.00547457
-0.045113
0.00372737
0.0468602
0.0557773
-0.0311525
0.0266971
-0.0513219
0.0279186
-0.00307034
-0.156276
0.131428
0.00965125
0.0145527
-0.028559
0.00435498
0.000685714
-0.000161779
-0.000767657
0.000243722
0.0381299
0.0123387
-0.00129081
-0.0491778
-0.0025857
0.0854332
-0.0869269
0.00407934
-0.0180246
0.0494544
-0.116162
0.0847317
0.0427561
0.00541615
-0.0536468
0.0428719
-0.000115827
-0.00232799
-0.0295945
0.0421767
-0.0102542
0.070864
0.0169842
-0.0315833
-0.0562649
0.134025
-0.148543
-0.0304445
0.0449627
-0.0152413
-0.0463189
0.0592322
-0.0824297
-0.000818971
0.0832487
0.00106358
-0.0978542
0.163139
-0.0663486
-0.00254718
0.00336047
-0.000612954
-0.000200339
0.0899092
-0.149275
0.0303627
0.0290035
0.00155267
-0.000460147
0.000913791
-0.00200631
-0.0872163
0.142894
-0.104249
0.0485715
0.0310938
0.00261768
-0.0420641
0.00835268
0.0861049
-0.0147624
-0.0849875
0.013645
0.00581336
0.0322074
-0.0532621
0.0214587
0.0238783
-0.106348
0.0610105
0.08709
0.113401
-0.0799508
-0.12054
0.00023905
-0.000214814
-9.0318e-05
6.60823e-05
-0.0936112
-0.0284348
0.110577
0.0114686
0.00158498
-0.00571583
0.0159462
-0.0118154
-0.0141685
-0.0344195
0.0590504
-0.0104623
-0.00559568
0.0178217
-0.0148528
0.00262674
0.00041575
-0.000681219
-0.000613281
0.000878749
0.0228214
-0.0267301
-0.00168692
-0.00185702
-0.000702377
0.00152988
0.00102951
-0.0576018
0.0604432
-0.00284143
-0.00259697
-0.00645658
-0.00229771
0.0113513
-0.0372208
0.0288639
-0.00581163
0.0183403
-0.0472358
-0.0557968
-0.0512988
0.041554
0.0983289
-0.0885841
-0.00766004
-0.00185299
0.00523203
0.00428101
0.0467443
0.0111974
0.00210073
-0.0600424
0.000626468
-0.00969326
0.00725235
0.00181444
-0.0407628
-0.0547552
0.0116294
0.0838887
0.06471
-0.0388775
0.0266247
-0.0524573
-0.00961104
0.0599546
-0.0590235
0.00867991
-0.0591748
-0.0341267
0.00788118
0.0854203
0.0162659
0.00481913
-0.0329016
0.0118165
0.0651692
-0.0634547
-0.00171446
0.00188548
0.00178035
-0.00156355
-0.00210228
0.0407799
-0.0443427
0.00356277
-0.0529446
-0.0406747
0.103987
-0.0103674
0.000820364
-0.00998415
0.00993737
-0.000773585
0.00266763
0.00584223
0.00283035
-0.0113402
0.00159869
0.00697644
-0.00794866
-0.0247048
-0.0578269
-0.009123
0.0916547
0.0255406
-0.0082444
0.0191937
-0.0364899
-0.0840067
0.0925771
-0.101288
0.092718
0.0756285
-0.0488348
-0.0267937
0.00164163
-0.0346773
-0.0101413
0.043177
0.00798434
-0.00559978
-0.00967242
0.00728785
0.0461085
-0.0698315
-0.0618067
0.0855296
0.0740277
-0.0647099
0.0293632
-0.0386811
-0.0135147
-0.0101572
0.0341277
-0.0104558
-0.0581756
-0.0867519
0.057296
0.0876315
-0.041617
0.0543489
-0.0110903
0.0977006
-0.0482746
-0.049426
-0.00490279
0.015705
-0.00281783
0.000984446
0.000675176
-0.000701849
-0.000957774
0.0473399
-0.0157959
-0.0052474
-0.0262966
0.00357639
-0.00186508
-0.000424627
-0.00128668
0.00535045
-0.0101635
0.00869212
-0.00387909
0.0724713
-0.0428614
0.0263008
-0.0559107
0.00899237
-0.000525698
-0.0068169
-0.00164977
0.00164083
-0.000597678
-0.00104315
-0.0665463
0.0658979
0.000648421
0.0118007
0.00587507
-0.0965317
0.0788559
-0.0121814
0.0144527
-0.0102519
0.00798055
-0.0734944
0.0168939
0.0834082
-0.0268077
0.0188074
-0.0980169
0.0759638
0.00324582
-0.0526968
0.0429759
-0.00844036
0.0181613
0.00853993
-0.00182896
-0.00292388
-0.00378709
7.43254e-05
-0.000607217
0.000532892
0.0282554
0.170924
-0.245675
0.0464959
0.000221753
0.000104979
-0.0247537
0.0600566
-0.0524184
0.0171155
3.12749e-05
0.00513038
-0.00443778
-0.000723872
-0.000223101
0.00109181
-0.00111563
-0.0707273
0.000558243
0.0701691
-0.0323864
0.113782
-0.047741
-0.0336546
0.00054793
0.000472971
0.00944266
-0.0104636
0.000379189
0.0930518
-0.093431
0.00239977
-0.00161538
-0.0012359
0.000451501
0.00136762
0.000695956
-0.000708297
-0.00135528
-0.036687
-0.00165152
0.0325243
0.0186993
-0.0636638
-0.072341
-0.016392
0.00637227
0.0823608
-0.000621811
0.00198943
-0.102124
-0.0411829
0.112567
0.0307404
0.027262
0.171085
-0.0854808
-0.0578759
-0.0277283
-0.0183613
0.119367
-0.0435662
-0.0574398
0.0397212
0.0299358
0.0386255
-0.108282
0.104796
-0.249159
0.109606
0.0347573
0.00163808
-0.00145287
-0.00138102
0.00119581
-0.0123452
-0.0353051
0.0553344
-0.00768407
0.0268794
0.0407438
-0.0270244
-0.0405988
-0.0353562
-0.0258018
-0.0197626
0.0809206
-0.0533804
-0.0138879
0.0549231
0.00124504
-0.0119473
0.00923638
0.00146587
0.0553756
-0.0284482
-0.0508475
0.0239201
-0.0897815
0.105633
-0.0503118
0.0344602
0.0170575
-0.0234454
0.00672313
-0.000335228
0.051796
-0.0600584
0.063638
-0.0575429
-0.00353045
-0.0135684
0.0746417
-0.00526398
-0.0134378
0.00261631
0.0160855
0.000515823
0.0596186
-0.0590199
-0.00111459
0.135413
-0.0538784
-0.00241667
-0.0791184
0.0607612
-0.00784406
-0.0496305
-0.00328667
0.0484421
-0.023553
-0.0627642
0.0378751
-0.0101167
-0.00161653
0.0151961
-0.00346291
0.00542707
-0.00171007
-0.00473611
0.00101911
0.00253241
-0.0442578
0.0409308
0.000794611
-0.000735307
-0.0863616
0.00343978
0.0197602
-0.0128193
-0.063113
0.0465011
0.0166119
-0.0595535
-0.0170394
0.0109743
0.0656185
-0.102725
-0.000977691
0.106041
-0.0023387
0.0037296
0.0241681
-0.0129568
-0.0149409
-0.0713352
0.149755
-0.0659874
-0.0124326
-0.00476596
0.0135913
0.0223299
-0.0311553
-0.0529488
0.101244
0.039731
-0.0880264
0.0294592
0.00109511
-0.0141414
-0.0164129
-0.0365196
0.0382212
0.000830829
-0.00458462
0.00751163
-0.0102176
0.00729061
-0.00024033
-0.00456304
0.0101538
0.036071
0.0377716
-0.0738426
0.00107319
-0.0018869
4.87302e-06
0.000808835
0.0205
0.00839735
-0.0195155
-0.00938183
0.0226211
0.00860515
-0.000582538
-0.0306437
-0.0529051
-0.00250448
0.00732343
0.0480861
-0.000197906
-0.0440599
-0.000979946
0.00049222
0.00156092
-0.0518159
0.0373246
0.0517849
-0.0372936
-0.0444167
0.0300171
0.0168854
-0.00248569
0.00141273
-0.0037894
-0.00996645
0.0123431
-0.0101378
-0.00508853
-0.0027283
0.0179547
-0.043762
-0.00493377
0.0121761
0.072209
0.0393676
-0.0719516
-0.039625
-0.0463891
-5.8426e-05
0.0464476
0.0861925
-0.0486818
0.0595896
0.00368354
-0.00766193
-0.0373268
0.0413052
0.035814
0.0113113
-0.00533014
-0.0417951
-0.000452427
0.000337316
0.00101571
-0.000900594
-0.0168776
-0.0448717
0.0617494
-0.000199673
-0.00139102
-0.00417543
0.0308946
-0.0230356
0.00618278
0.0279108
-0.0417555
0.0978838
-0.0907299
-0.00217276
-0.00498108
-0.0213945
0.101622
-0.0184809
-0.0617469
-0.0315989
0.00675798
0.0132254
0.0116155
-0.0390266
0.0359057
0.0136625
-0.0105416
0.0325685
-0.0251267
0.00134334
-0.00878517
0.0193361
0.0736865
-0.124726
0.0317033
0.0762908
-0.0752768
-0.0243103
0.0232962
-0.143173
0.0019369
0.00386352
0.137373
0.0304656
0.0123465
-0.0411006
-0.00171155
0.0400088
-0.0570363
0.0204673
-0.00343987
0.00216494
-0.00119139
0.000215985
-0.00118953
-0.0146696
-0.0011115
0.0734008
-0.0416422
0.0188066
-0.0505653
-0.0120942
0.0477267
0.000333241
-0.0359657
0.00511904
0.0964978
-0.0936442
-0.00797262
0.0495242
-0.0989952
0.057951
-0.00848007
-0.0483794
-0.000479245
0.0367645
0.0151254
-0.00323682
0.0086875
-0.0205761
-0.0234258
0.0477888
-0.0133066
-0.0110564
-0.0482912
-8.82277e-05
-0.00559833
-0.122879
0.175914
-0.047437
0.0100459
0.00976068
-0.0633408
0.0435342
0.0493672
0.00541853
-0.0447398
-0.0132806
0.00695837
-0.00384246
0.0101647
-0.0615361
0.00130568
0.0602305
0.110843
0.0441628
-0.137002
-0.0180043
-0.00961974
0.000350238
-0.00401112
0.0184126
-0.116212
-0.0226788
0.120479
0.0126808
0.066007
-0.0689271
0.00277819
-0.0556429
-0.0104761
0.000520269
0.00196314
-0.00268308
0.00208031
-0.00178849
0.000228448
-0.0510511
0.0262567
0.0742102
-0.0494158
-0.0019397
0.00103005
0.000952031
-0.034095
-0.00773047
0.0446037
0.000273152
-0.000249712
0.000357447
-0.000889811
0.000123702
0.000408662
0.000255103
0.00209836
-0.00182222
0.00145927
0.00014945
0.000213504
0.000251233
-3.04035e-05
0.000487883
0.108019
0.124989
-0.0818809
0.000217104
-0.00051273
0.000546859
-0.0528568
0.0527348
0.000121956
-0.0104396
0.0762529
-0.0720882
0.00627495
0.00161584
-0.0198223
0.00539166
0.0128148
-0.0602518
-0.00304454
-0.0172104
0.00403079
0.0472521
-0.0340725
-0.0629464
-0.00374873
0.0666952
-0.00741781
-0.0164671
-0.0128122
0.0366971
0.000341178
-0.000391933
-0.000546873
0.000597629
-0.00388884
-0.00736459
0.00912461
0.00212881
0.0549849
0.043905
-0.0175069
0.0483379
0.0897112
-0.0381693
-0.0998797
-0.0126218
-0.0441412
-0.0188944
0.0186616
-0.0537349
0.0539677
-0.0112128
0.0282796
-0.00549398
-0.0115727
-0.0150612
-0.013516
0.0133836
0.0151936
0.0963001
-0.0946027
0.0186441
-0.0203415
0.0013204
-0.00443521
-0.000549651
0.00366446
0.00122176
-0.0677581
0.0665364
-0.0728202
0.00344369
0.0671931
0.00218345
0.0390173
0.0382878
-0.0773052
0.0190801
-0.0599134
0.0282114
0.00190556
-0.00106089
0.000399364
-0.00124404
0.000286869
-7.32604e-05
0.00087784
-0.00109145
-9.14933e-05
0.000443908
-0.00102964
0.000677221
0.0644169
0.0567334
-0.0397457
-0.0814046
0.00581846
-0.0874292
0.0827374
-0.00112667
-0.0137978
0.000717846
0.0264876
-0.0134077
0.0536059
-0.0527295
0.0191162
-0.0199925
-0.000556661
0.00138523
-0.000693887
-0.000134682
0.0201717
0.0478609
-0.0489525
-0.0468376
-0.00162287
0.00105727
0.00142602
-0.000860421
0.00154519
0.0818704
-0.0834156
-0.0498483
-0.0149875
-0.0222301
0.0870659
-0.0499436
9.53081e-05
0.0116034
0.0167382
0.01667
-0.0450116
0.000579574
-0.00268274
0.00049406
0.0016091
-0.00181829
-0.000402446
0.000597863
-0.106628
-0.00939847
-0.043418
0.159444
-0.00978806
0.00738817
0.136792
-0.134393
-0.0385573
0.0418886
-0.0649108
0.0615795
-0.0809711
0.0804493
0.000521757
0.00119557
-0.049954
-0.0304773
0.0668738
0.0193533
-0.00595291
-0.0802742
0.0505968
0.0961397
-0.159222
0.0124852
0.0416472
0.015708
0.0335259
-0.0908811
0.103848
-0.108334
0.0435035
-0.0037524
0.0135781
-0.0122659
0.00244021
-0.00114287
-0.000216194
-0.00047632
0.00183538
-0.00289967
-0.00567434
0.00174418
0.00682983
0.0609073
-0.00623336
-0.0185085
-0.0361654
-0.0567442
0.0282178
0.0285263
-0.0930659
-0.00750777
0.0117494
0.000766683
-0.000573297
-0.00133625
-0.118225
0.0265001
0.0051152
0.0866094
0.00121239
-0.0531563
-0.0103002
0.0622441
0.0458429
0.0284756
-0.102107
0.0277882
0.0385939
-0.0436115
-0.0191381
0.0241557
0.0486018
-0.0603027
0.0502948
0.0326008
-0.0570581
0.0496751
-0.0252178
0.0347156
-0.0360435
0.000315206
0.00101276
0.0161982
-0.142361
0.0915025
0.0346602
0.00137561
-0.061762
-0.00392018
0.0520107
0.000442525
-0.107241
-0.033983
-0.00862852
0.00685232
0.0357592
-0.0484912
0.0444141
0.0499772
-0.0459001
-0.0423281
0.081793
-0.039465
0.0105295
-0.102483
0.0483423
-0.0170838
0.00737352
0.0247758
-0.0150655
-0.0876921
0.093277
0.0360693
-0.0416542
0.0588094
0.032966
-0.0830053
-0.00877014
-0.0463604
0.142136
0.0042779
-0.100053
-0.000552455
0.00284629
0.0037125
-0.00600633
0.0537773
-0.0721256
0.0830876
-0.0647394
0.00777835
-0.0390695
-0.00820887
0.0395
-0.0435291
0.0315438
0.103422
-0.0914368
-0.0499876
-0.0264453
0.0528809
0.0235521
-0.00955481
-0.00054244
0.00621924
0.00387801
-0.0115165
0.0246685
-0.0182711
0.00511912
-0.00027628
0.0750626
-0.0747864
0.0148665
-0.0438886
-0.0194691
0.0481448
-0.0343184
-0.000588722
-0.0132377
0.00229055
-0.0269552
-0.0218655
0.0465302
0.034434
-0.0343656
-6.84025e-05
0.0611715
-0.0417172
0.0643208
-0.0837751
-0.0988472
0.0967799
0.0983674
-5.7038e-05
-0.0107416
-0.00178915
0.0125878
0.0493005
-0.000280124
0.000115482
0.000340551
-0.00017591
-0.000634552
0.0492492
-0.113462
0.064847
-0.00850065
-0.000749818
0.00503258
0.00421789
0.0268865
0.00996028
-0.0368468
0.00129131
-0.000903956
-0.008888
-0.0288366
-0.0437243
0.0196163
0.0572485
0.000976768
-0.0582252
0.0728505
-0.044138
-0.0511903
0.0224778
0.00173711
-0.025093
-0.0207441
0.0693842
0.0430354
-0.0395691
-0.00800096
0.00923523
0.133357
-0.119602
0.038019
-0.0517748
-0.0450173
0.0364896
0.0218831
-0.0133554
-0.053061
0.0524911
0.000569888
-0.0477765
0.0296449
0.0106802
-0.0465912
-0.0108218
0.0467328
-0.00219495
0.161164
-0.161073
0.002104
0.107651
0.0159361
-0.0160709
0.050785
0.00860023
-0.0511898
-0.00819541
-0.014532
0.00474853
0.010787
-0.00100353
-0.00951228
-0.00547284
0.00467042
0.0103147
0.066138
-0.0377807
-0.0526487
0.0242914
0.0295845
-0.0152897
0.0241718
-0.0384667
0.0268248
-0.093813
0.0896941
-0.0227059
-0.00601237
0.00052849
-0.00904809
-0.0943438
0.106872
-0.0227959
0.0102675
-0.0114826
0.048233
0.0140349
-0.0507853
-0.00393951
-0.000875755
0.0031675
0.00164777
0.0838488
-0.00450216
0.0511021
-0.130449
2.36322e-05
-0.00065505
-5.97171e-05
0.000691135
-0.0671767
0.0589154
0.0742742
-0.0660129
0.00298142
0.000563169
-0.00202916
-0.00151543
-0.0774494
0.0753094
0.00214002
0.0640647
-0.0604458
-0.00361889
0.0603136
-0.000757507
-0.0595561
-0.0111823
0.123458
-0.000375408
-0.1119
0.0098396
-0.0310162
0.0327799
-0.0237324
-0.000101985
-0.0562147
-0.0675496
0.0114811
0.0663246
-0.0102562
-0.0133726
-0.00215205
4.91623e-06
-0.000323617
3.48605e-05
0.00028384
0.00121115
-0.000101503
-0.000228561
-0.000881089
-0.0634824
0.00811936
-0.00168856
0.0570516
0.000316758
-0.0055155
0.00202259
0.00317615
0.0123825
-0.0147828
-0.000107795
0.00250811
0.00828185
-0.00671068
0.0108113
0.055414
-0.0094072
-0.0225551
-0.0234517
0.0362518
-0.00535663
-0.0364306
0.00553549
8.02027e-05
0.066691
-0.000186457
-0.0665848
0.00759316
-0.0709083
0.0190737
0.0442415
-0.0427416
-0.0318592
0.041672
0.0329288
-0.0365756
0.0227847
-0.0923961
0.106187
-0.0010711
0.0154329
-0.00786312
-0.00649868
0.0489905
-0.0588192
0.0473607
-0.0375319
-0.0626819
-0.00687419
-0.00793262
0.00108722
-0.00043944
0.00442658
-0.00507436
-0.0123364
-0.00275607
0.0018585
0.0132339
-0.00830063
-0.00950821
0.010939
0.0068698
-0.000151008
-0.00222347
0.00146517
0.000909308
-0.000243301
0.000291393
-4.80917e-05
0.00111681
-0.0751388
-0.0279357
0.101958
-0.000150102
-1.41358e-06
-0.00146421
0.00161572
7.29297e-05
-0.000257777
-5.84541e-05
0.00391136
-0.0668578
-5.16886e-05
-5.77329e-05
0.000400814
0.000570417
0.000216451
-0.000348237
-0.000438632
-0.0281149
0.0627436
0.078819
-0.113448
-0.00934677
-0.00214035
0.007325
0.00416213
-0.0147107
-0.000411644
0.00577561
-0.00551261
0.00554654
0.0134688
-0.0135027
-0.000289217
0.000430504
-0.000192976
-0.0677323
0.0687183
-0.000986008
0.0300965
0.0475217
-0.0602249
-0.0173933
0.0119653
-0.0755212
-0.0215947
0.0851507
-0.0137412
0.00269704
0.00553156
-0.00449887
-0.00655009
-0.00269225
-0.0165524
0.0592565
0.012738
-0.0554421
0.0700703
0.0050459
-0.0550176
-0.0200986
0.000272179
0.000388008
-0.000628144
-3.20432e-05
-6.78441e-05
-0.000148443
-0.0026518
-0.00115886
-0.00141847
0.00522913
0.0650871
-0.0459257
0.01205
-0.0312115
-0.000849699
-0.00268327
0.00138286
0.0021501
-0.0182217
0.0110904
-0.00244242
0.0095737
0.000748216
-0.101713
0.101862
-0.000897201
0.00321594
0.000863465
-0.0107015
0.00662206
0.0104911
-0.0110767
0.0015903
-0.00100465
0.00986327
0.00416936
-0.0108167
0.0367792
0.0562646
-0.0279567
-0.0272798
0.0548044
0.0281952
-0.0557199
0.0277505
-0.0550302
-0.00108177
0.000753341
-0.0328533
0.0124729
-0.0100478
0.0792178
0.0232158
0.00744457
0.0696249
-0.0540814
0.0976603
-0.113204
0.0046892
0.0924148
-0.097104
-0.00700034
-0.00738991
0.0137311
0.000659197
-0.0339297
-0.0872027
0.0274222
0.0937102
0.0218228
0.0613349
-0.0244029
-0.0587549
-0.0235279
0.113235
-0.0529277
-0.041844
0.044894
0.0517544
-0.0558444
0.0557997
4.47267e-05
-0.0391578
0.0366561
0.0025017
0.0397235
-0.0779411
0.0723964
-0.0341788
0.0684448
-0.0849972
-0.0101837
-0.00807293
0.0112563
0.000589032
0.000567346
-0.000402974
-0.000753404
-0.00583946
-0.0426469
-0.00735801
0.00122351
0.00149868
-0.00265903
-6.31556e-05
-0.0574152
0.0518807
0.0855351
-0.0800006
0.0375108
-0.0336104
-0.00390041
0.0114076
0.0238053
-0.0147818
-0.0204311
0.00421655
-0.00035792
0.00214941
-0.00600804
-0.064468
-0.000790639
0.0198946
0.045364
-0.00295923
0.00662928
0.000546509
0.0389755
-0.109392
0.104743
-0.0343266
0.0460721
0.0133209
-0.0593652
-2.77001e-05
-0.00363115
0.00695304
0.00175255
-0.00507444
0.000220165
0.0607507
-0.0609708
0.0385145
0.00700937
0.0152416
-0.0607655
0.00437163
-0.00731876
0.00258921
-0.186683
0.0288407
0.165358
-0.00751576
0.0398238
-0.0109618
-0.028862
-0.001247
-0.00149326
-0.00119764
0.0039379
-0.0427624
0.0471814
0.125986
-0.130405
-0.00194251
0.000685512
-0.00187042
0.00312742
0.0913648
-0.00203528
-0.0432575
0.000521564
-0.00127029
0.00203831
-0.00128959
-0.0195349
-0.117619
0.0157192
0.121434
0.00371359
0.0525089
-0.00407382
-0.0521487
0.0483105
-0.0693255
0.059926
-0.038911
0.0319239
-0.0365449
0.0486703
-0.0440493
0.00827371
-0.00142469
0.00552757
-0.0123766
0.00125372
-0.0443112
0.0532906
-0.0536715
-0.036164
0.0968339
0.0175778
-0.0239558
-0.0904559
0.0464203
0.01934
-0.132148
0.0663878
-0.00198268
-0.0085803
0.00627779
0.0042852
0.0277568
-0.0497994
-0.00323814
0.0287637
-0.0265116
0.00737105
-0.00588391
-1.1811e-05
-0.00147533
-0.0867652
0.00261315
0.000938254
0.0690659
-0.147778
0.077774
-0.0282582
-0.087752
0.0404554
0.0755548
-0.0732212
0.0202863
0.00337194
0.0495629
-0.0430263
0.0290022
0.0102395
-0.0825566
0.0956162
-0.0130596
-0.0208181
-0.00939406
0.117608
-0.087396
-0.00367856
-0.00376259
0.00612068
0.00132047
-0.0258036
0.0591852
0.0406461
-0.0721681
0.0280301
-0.00082924
-0.000385783
-0.0010307
0.00224572
0.0465026
-0.0489185
0.0544266
-0.0374613
-0.0072008
-0.0447154
-0.123318
0.0475839
0.0757341
-0.0429202
-0.032522
0.0276656
0.0030158
-0.00222203
0.000919759
-0.00171353
0.00298978
-0.000483743
0.000509765
-0.0864027
0.00362484
0.0827779
0.0609333
0.011611
-0.121132
0.0485875
-0.0715433
0.000774046
0.0707693
0.00124238
-0.00167962
0.00886781
-0.00843057
0.0488715
0.156573
-0.226586
0.0211413
0.00193191
-0.00231262
0.00131577
-0.000935059
-0.0916439
0.0649487
0.0265254
0.000169747
-0.000160223
-0.000142932
0.00179067
-0.00148751
-0.000665457
0.00833029
-0.00848916
0.000824327
0.00753852
0.00787568
-0.0147282
-0.000686028
0.0406986
0.0124074
0.00305314
-0.00279678
0.00167555
-0.0986307
0.105684
0.00662078
-0.0136739
0.0127697
-0.068375
-0.0239584
0.0795637
0.00180508
-0.00415647
0.0873734
-0.085022
-0.0347133
-0.0328802
0.0795873
-0.0119938
-0.0407547
0.0245632
0.0405867
-0.0243952
0.0537659
0.020619
-0.0721164
-0.00226856
-0.00106882
0.000169516
0.00128655
-0.000387246
-0.123527
-0.0432016
0.0398697
0.126859
0.0482272
-0.037547
-0.0319163
-0.0377039
-0.0311406
0.100761
-0.00180099
0.00422307
0.000520566
-0.00294265
-0.0311163
-0.0809048
0.0289614
0.0830597
-0.0296381
-0.0284032
0.0205801
-0.000667825
-0.00335519
-0.00163675
0.00298847
-0.0038182
0.00246648
-0.00570962
0.00562099
0.0253342
-0.0775532
-0.0856963
0.137915
-0.000457022
-8.97677e-05
0.000263409
0.00028338
0.0571435
-0.0600999
0.0479705
-0.0450142
-0.0149488
0.0453756
-0.00807417
-0.0223526
0.0870061
-0.0865255
-0.0187248
0.0182442
0.0266416
0.0218429
-0.0633618
0.0148773
-0.127447
0.0739566
0.0183828
0.0351075
-0.00534912
0.00334332
0.000101443
0.00190436
-0.00847552
0.0099285
-0.000210608
-0.0134356
-0.0037206
0.0178764
-0.000720225
-0.0595346
-0.00368427
0.0125388
0.0506801
-0.00753436
0.103471
-0.00494703
-0.09099
0.00873856
-0.0476105
0.0810244
-0.0421525
-0.00137133
0.00413124
-0.00140992
-0.00134999
-0.0152641
0.000291301
-0.00200084
0.0169737
-0.107566
0.00778695
0.0127833
0.086996
-5.70438e-05
-0.000259676
0.000461053
-0.000144333
0.0371699
0.00812118
0.026918
-0.00515409
0.0463613
0.0529853
-0.0941925
-0.000212316
0.000321063
-0.000165791
-0.000491706
0.00218339
-0.00150519
-0.000186497
0.0170981
0.11142
-0.0477576
-0.0807601
-0.000223057
-3.66189e-05
0.000104185
-0.000327243
0.0618821
0.0170921
-0.0923579
0.0133837
-0.15717
0.0860138
0.0772046
-0.00604799
-0.018163
0.00019341
-0.0515184
0.069488
0.024866
-0.0144909
0.0167472
-0.0271224
-0.0664624
-0.0230888
0.0895513
-0.0778591
0.0386689
0.0391902
-0.00163829
-0.000416075
0.000861845
0.00119252
-0.038039
0.0412154
0.0078032
-0.0109796
0.0465323
-0.0545553
0.00802295
-0.0602573
0.0335193
0.0450282
-0.0182902
0.00452478
-0.00290206
-0.00145264
-0.000170075
-0.00326754
-0.00242306
0.000341472
-0.0422104
-0.0417963
0.0472948
0.0142254
0.00250059
-0.0640208
0.0015059
0.000139777
-0.00132439
-0.000321286
0.00423947
0.0058048
0.00191122
-0.0119555
0.00723166
0.0231275
-0.0413238
0.0109646
-0.0190639
-0.0154432
-0.00912675
0.0436338
-0.0761563
-0.0121563
0.0318601
0.0564525
-0.00186579
0.0151996
-0.00826848
-0.00506536
-0.0529599
0.000652099
0.0332438
-0.000225056
0.0253549
-0.135674
0.126389
-0.0160697
0.0285561
-0.0344154
-0.0517425
-0.0271146
0.0548651
-0.00069962
0.0416763
0.00389145
-0.0448681
-0.0551248
-0.0599581
0.115083
-0.0032651
-0.00108436
-0.0017249
0.00607437
0.00313926
-0.00480559
0.00173
-6.36697e-05
0.0371322
-0.00636377
-0.0282099
-0.00255856
-0.0032492
-0.00237021
0.0023543
0.00353568
-0.0107809
0.0658922
-0.058647
0.0764495
-0.000421684
0.0270327
0.00984969
-0.00686885
-0.0300135
0.0584597
-0.000769772
-0.05769
-0.0528593
0.113866
-0.0284229
0.0596883
0.0200889
-0.0513543
-0.0174284
-0.0250226
0.0181805
0.0242705
0.00306756
0.00375731
0.000865033
-0.0076899
-0.0342083
-0.0379598
0.0993256
-0.0271574
0.0459652
-0.0371473
-0.000799617
-0.0080183
-0.0471335
0.117803
-0.053719
-0.0169508
-0.00126984
0.00153109
-4.97114e-05
-0.000211529
-0.000552832
0.0213429
-0.0048321
-0.0159579
0.0030873
0.00396967
0.000255878
-0.00731285
-0.000302267
-4.04398e-05
4.57524e-05
0.000296954
4.28201e-05
-3.02856e-05
-0.000314801
-0.0090831
0.0229344
0.0702235
-0.0840748
0.0819309
-0.0842156
0.00228467
0.00028079
-0.000256369
-2.44214e-05
-0.0126745
0.000962387
0.00230727
-0.00130785
-0.00196181
-0.00693621
-0.00684759
0.0043353
0.0094485
-0.0557559
0.027333
0.000318447
0.000186501
-0.000774706
0.000269758
0.0334689
0.0552388
-0.0352419
-0.0534659
0.0119458
0.159669
-0.180069
0.00845413
0.0582865
0.0632949
-0.0618932
0.001756
-0.0135933
-0.0019493
0.0137866
-0.033398
-0.0301137
0.0635117
0.0311239
-0.064522
-0.0544552
-0.0452289
-0.0657491
0.165433
0.0495488
-0.0553406
0.00579176
-0.0729369
0.135283
-0.0717532
0.0329268
-0.0299359
0.0862431
-0.00337812
-0.0691744
-0.0136906
0.0693364
-0.0694772
0.0117949
-0.0116541
0.00015783
-0.00622888
0.00710562
-0.00103458
0.000190453
-0.00414529
0.006606
-0.00265117
-0.000250345
0.000244802
0.000620028
-0.000614485
0.0221793
0.0235465
-0.0337888
-0.011937
-0.00541763
-0.00483033
0.00617566
0.00407231
-0.0108985
0.0319769
-0.0425531
0.0214747
0.00112983
-0.00853724
0.0106633
-0.00325589
0.0484677
-0.00413992
-0.0443278
0.0380476
0.0357519
-0.126571
0.052771
-0.0979044
0.0599811
0.0759709
0.0329849
-0.0997654
-0.0469238
0.107873
-0.0370625
-0.0238866
0.00161378
0.00926427
-0.0124682
0.00159013
0.0269932
-0.00224876
-0.0247444
-0.0305214
0.0435787
-0.0038611
0.0203501
-0.0315501
0.000905136
-0.000205919
0.00111429
-0.00181351
0.0117305
-0.0382421
-0.000278234
0.000132155
0.000215134
-6.9055e-05
0.00278628
-0.000448949
0.00111226
-0.00344959
-0.000735083
-0.00262458
-0.0779822
-0.0128396
0.00160474
-0.0118693
0.0231042
0.0203173
-0.0907806
0.0207041
0.0497592
-0.00340181
0.0582847
-0.0819799
0.0270971
0.000516901
-0.000291599
0.000142496
-0.000367799
0.0790418
0.012558
0.00226196
-0.0938618
-0.000174299
-0.000696155
0.000817392
5.30616e-05
0.00501404
-0.000922144
-0.0689161
0.0648242
0.0069678
-0.00120843
-0.00513427
-0.00062511
0.00662047
0.00459389
-0.00372166
-0.00749269
-0.110347
0.0964885
-0.087655
0.101513
-0.0540579
0.108961
-0.054903
0.00227164
-0.0438104
0.00857765
0.0329611
0.00373092
-0.00351962
0.000690183
-0.000901483
0.0491895
-0.00258964
0.00112687
-0.129766
0.00253066
0.0743762
-0.0346412
0.000221727
0.00267588
0.0325744
-0.0276584
-0.00759193
0.0781812
-0.0307716
0.0342073
0.00429805
-0.00517533
0.000108057
0.000769222
0.0346795
0.0241997
-0.0766072
0.017728
2.22332e-05
0.000120165
-0.000182121
3.97237e-05
-0.000464171
0.00161006
0.00547458
3.82321e-05
-0.00818197
0.00661541
0.00586462
0.0746298
0.0407463
-0.037057
-0.0783191
-0.131098
0.143126
-0.00982235
-0.00220569
0.0315047
-0.0328061
0.0013014
-0.037343
0.000344009
0.000431993
-0.00325807
-0.00234926
0.0146345
0.206833
-0.158953
-0.0625146
0.0291706
-0.0608151
-0.0180177
0.0496622
-0.00315609
0.0389725
-0.000844636
-0.0852957
0.0471679
-0.0231962
0.0100529
-0.0379216
0.0476263
0.0461971
-0.0559017
-0.0670617
0.0900679
-0.152826
0.12982
-0.0002079
6.58849e-05
-0.00144912
0.00159113
0.00020182
0.00227687
-0.000609115
-0.00186958
0.043167
-0.0143102
0.0381581
-0.0670148
-0.00355568
0.00036596
0.00341894
-0.000229212
-0.0118399
0.0106482
-0.03673
0.012189
-0.0461416
0.00595985
-0.00332319
0.0186658
-0.0213025
-0.140002
0.0196056
0.131448
-0.0110511
0.0318568
-0.0221729
-0.0112677
0.00158376
0.034318
-0.0530068
0.00684895
0.00427218
0.00779365
0.0526629
-0.0647288
0.024738
-0.00721449
-0.0251467
0.0076232
-0.0798201
-0.00799719
0.0143229
0.00123995
-0.00110248
6.43514e-05
-0.000637598
0.00311856
0.00252711
-0.00500808
0.0183516
-0.0321305
0.0385169
0.0179676
-0.143343
-0.0230061
0.148381
-0.114444
-0.0147932
0.0267625
0.102474
0.0570051
-0.0340721
0.0277559
-0.0506889
0.113549
-0.0061616
0.00297516
-0.110362
-0.0170388
-0.0370505
-0.00431895
-0.0165103
0.00846963
0.0123596
-0.00126739
0.000437128
-4.88773e-05
0.000879135
0.0156223
-0.078645
0.0630227
0.108517
-0.00700966
-0.11269
-0.0262674
0.0555103
-0.0462817
0.0391622
-0.122143
0.0154224
0.0675587
-0.00401676
-0.0121551
-0.0268884
0.0430602
0.00368796
0.0511058
0.0868291
-0.13656
-0.00137437
0.0492866
-0.0830379
0.0891923
-0.0554411
-0.0958944
0.0961617
-0.00755105
0.00728382
0.00338424
0.00419487
-0.0959379
0.0883588
-0.00176726
0.00361554
0.00611441
-0.0079627
0.000246305
-0.000952048
-0.000297892
0.00100363
0.089166
0.000402822
-0.0169279
-0.0726409
-0.000573276
0.000609702
5.54202e-06
-4.19685e-05
0.000608818
0.00319886
-0.0021984
-0.00160928