/*--------------------------------*- C++ -*----------------------------------*\
| =========                 |                                                 |
| \\      /  F ield         | OpenFOAM: The Open Source CFD Toolbox           |
|  \\    /   O peration     | Version:  2506                                  |
|   \\  /    A nd           | Website:  www.openfoam.com                      |
|    \\/     M anipulation  |                                                 |
\*---------------------------------------------------------------------------*/
FoamFile
{
    version     2.0;
    format      ascii;
    arch        "LSB;label=32;scalar=64";
    class       volVectorField;
    location    "0.0982622";
    object      U;
}
// * * * * * * * * * * * * * * * * * * * * * * * * * * * * * * * * * * * * * //

dimensions      [0 1 -1 0 0 0 0];

internalField   nonuniform List<vector> 
47425
(
(10.4586 0.252914 -0.00311313)
(10.2684 -0.31856 -0.00495734)
(9.97587 0.00945847 -0.00335867)
(11.6594 -0.538801 -0.2548)
(12.7934 0.417856 0.538602)
(10.0166 0.00394449 -0.00035294)
(12.7205 0.249151 0.549036)
(10.0034 0.0027017 -0.0016132)
(10.0047 0.00871788 0.00589139)
(0.169062 2.51269 -2.70715)
(9.97435 0.00645503 -0.00456492)
(9.99136 0.0742695 -0.00957314)
(12.5072 0.39324 0.123219)
(9.98076 0.00723918 -0.00608245)
(11.2748 -0.132392 -0.173256)
(10.0545 -0.214517 0.00480459)
(9.9991 0.00303912 -0.00118227)
(8.79388 -0.525455 -1.53006)
(8.63771 1.29284 -5.14994)
(13.7117 -0.584447 -1.22699)
(10.9717 -0.689458 -0.63751)
(9.78659 -0.0366112 -0.0116899)
(9.96275 0.00670247 -0.0044115)
(9.931 0.0328938 0.0209132)
(9.8972 -0.0804346 -0.000960273)
(10.0219 0.0851843 0.025254)
(10.0102 0.00823286 -0.00155292)
(11.4604 -0.478417 -8.92674)
(10.0164 0.0057977 0.000284038)
(9.99722 0.0200334 0.0081135)
(9.65981 0.764982 0.00481439)
(10.044 0.081502 -0.00205493)
(10.0006 0.0059984 0.00584766)
(9.98016 0.0228869 0.00933557)
(10.0142 0.00250665 0.0120826)
(9.97421 0.0072381 0.00271784)
(9.7136 -0.0397227 -0.0842477)
(10.0011 0.0167573 0.0081606)
(10.5507 0.481739 -0.0314561)
(10.2169 0.0875965 0.0160725)
(9.93603 0.330894 -0.0447088)
(8.30524 -0.114131 0.0293259)
(5.49431 -2.3834 0.913059)
(9.98342 0.0133493 0.00539018)
(0.159383 -1.72986 -0.416812)
(9.99093 0.169834 -0.0191561)
(9.93137 -0.00142408 -0.011879)
(9.99467 0.0295712 0.00517721)
(10.2147 -0.128662 0.000812701)
(10.0734 -0.0327338 -0.00992103)
(2.13065 -0.744507 -5.81508)
(9.08903 1.57089 1.18347)
(10.0524 -0.00333034 0.00449416)
(5.03384 -3.69518 0.684631)
(10.0734 0.0938965 -0.00119851)
(10.1938 0.0180214 -0.00544917)
(10.4291 -0.231468 0.0229737)
(9.99154 -0.00810284 0.0235961)
(11.8917 1.28561 1.47432)
(9.99459 0.0110106 0.00621007)
(4.22778 -3.61355 0.242447)
(5.46031 -0.815173 1.84041)
(1.26937 -1.18855 -0.507898)
(9.00348 -1.18453 -0.0917193)
(10.0076 0.0106397 -0.0065239)
(10.8415 -0.419057 -0.0497983)
(9.98568 -0.0111796 -0.00634729)
(11.0909 0.454136 0.696945)
(5.90403 -2.49302 1.21651)
(8.96255 0.573499 0.29237)
(10.8631 -0.738891 0.119929)
(10.0802 0.0428547 -0.00962771)
(11.0622 -0.227829 -0.0543482)
(10.833 0.337375 -0.659796)
(2.21235 0.500861 -0.52569)
(9.99887 -0.00387686 0.00100193)
(1.30656 -0.989997 -0.0172019)
(9.95761 -0.00433181 0.00605942)
(3.77138 -1.1525 0.784133)
(12.0555 -0.12402 1.28999)
(2.82447 0.254596 -0.485063)
(10.2139 0.349676 0.00134246)
(9.17037 0.135412 -0.355732)
(10.0132 0.0138524 -0.00707694)
(8.98125 -0.0265887 -0.133537)
(10.4358 -0.0724299 0.0194908)
(10.9934 -0.0636035 -0.0577521)
(10.2958 0.183588 0.0124734)
(10.9973 -0.4756 -1.53837)
(11.0348 -0.78525 1.69803)
(9.76901 0.437867 -0.0515153)
(10.8272 0.00191368 -0.037152)
(10.0375 -0.0106127 -0.00191019)
(10.251 -0.0602983 0.0164698)
(10.1991 -0.0508607 0.0230128)
(10.2088 -0.0118042 -0.00527315)
(10.0371 0.00712672 -0.00540583)
(10.6051 -0.311356 -0.0281885)
(10.3544 -0.0612342 -0.00145363)
(10.047 0.0171797 0.0124639)
(10.0197 0.0384526 0.00303943)
(8.66543 0.164701 -4.13612)
(10.3031 0.186304 -0.00869255)
(5.30135 1.94959 -0.842785)
(10.3154 0.169607 -0.02261)
(10.9476 -0.718792 -0.0886121)
(10.3011 0.401411 0.0866638)
(10.3299 -0.0937926 -0.00968823)
(7.93003 -0.190027 -0.361088)
(9.96739 0.092389 -0.00698632)
(-0.318768 -0.152426 -0.512365)
(9.99148 -0.079591 -0.00829248)
(10.816 -0.929333 -0.11509)
(10.4894 -0.017127 -0.0392239)
(11.1985 -0.389253 -0.0122948)
(1.77811 -4.12962 -5.94474)
(11.1845 -0.335884 -0.0168573)
(4.03467 0.0643357 -4.33499)
(10.3607 0.178009 0.0083676)
(11.412 0.425216 0.331314)
(10.5772 -0.0562047 -0.0333901)
(10.0001 0.00368994 0.005482)
(9.99646 0.0525068 -0.00457386)
(11.9232 0.828865 -0.830809)
(10.0356 -0.0302234 -0.00363185)
(11.1498 -0.741754 -0.0622715)
(10.4197 -0.102111 -0.00551867)
(10.0072 0.00362514 -0.00680013)
(9.998 0.0231204 0.0122499)
(10.0302 0.0363689 0.00511135)
(9.18869 -0.282327 0.276686)
(10.8857 0.18688 -0.071237)
(4.32229 0.0694195 0.526922)
(10.4537 -0.582304 0.0270646)
(9.44612 0.417405 -0.194407)
(12.2317 -0.549958 -0.980419)
(10.8307 0.979341 0.228274)
(11.182 -0.825461 0.0585452)
(10.1551 -0.071186 -0.00326146)
(11.2072 -0.149202 -0.0770401)
(9.98124 0.00601275 0.00178456)
(11.7205 0.310988 0.239655)
(10.5235 0.0404743 -0.0241975)
(10.7917 -1.20373 -0.0705621)
(10.1442 0.236654 -0.0159968)
(10.0048 0.00522954 0.00560149)
(12.662 0.363 0.275545)
(10.0106 -0.0306299 0.0073146)
(10.4675 0.0217119 -0.0093015)
(9.97662 -0.0171639 0.00614631)
(10.6655 -1.18702 -0.226176)
(2.88512 -0.408168 -6.7428)
(10.0071 0.0149882 -0.009868)
(5.47323 0.153638 -11.2672)
(8.93141 -1.17773 -0.771573)
(10.0147 0.136643 0.0226774)
(11.0367 0.540748 -1.73984)
(7.2609 -3.88402 -2.67468)
(10.256 -0.0688788 0.0127827)
(9.96611 0.0111155 -0.00301024)
(11.4214 -0.176351 -0.0372065)
(10.0343 0.11589 0.0233518)
(10.046 0.0211808 -0.00493678)
(10.1692 0.324244 -0.0322734)
(11.7421 0.263359 -0.689789)
(-1.49446 -1.48237 -1.97317)
(10.0162 -0.0301752 -0.00200874)
(2.76946 0.356489 -0.531396)
(9.90022 -0.00599207 0.0143978)
(12.0236 0.812069 -4.3634)
(3.52162 0.168544 -0.750258)
(9.95972 -0.00734574 0.00157622)
(10.0013 0.024415 -0.00328689)
(9.42087 -0.990249 -0.679689)
(10.4342 -0.0304338 0.0157615)
(9.22145 -3.06132 -1.46225)
(2.74136 0.9789 -7.6268)
(10.0152 0.00686137 -0.000278472)
(10.0358 -0.00379372 0.00693541)
(10.057 -0.00591761 0.00667621)
(2.59091 0.440923 -10.9243)
(10.1087 -0.226032 0.0393731)
(10.0314 -0.000721723 0.00629964)
(10.0367 0.00450514 0.0122028)
(10.0424 -0.00489021 0.00626411)
(10.0271 0.0237551 0.00539455)
(10.2152 0.0822327 0.0074126)
(5.6321 -0.527564 -0.659546)
(9.81173 0.00694446 -0.00576335)
(10.2844 0.246661 0.100035)
(10.0004 -0.00999766 -0.00265903)
(9.98261 3.4942e-05 -0.00214975)
(12.1881 -0.887835 -0.561935)
(9.99717 0.0018889 0.00413406)
(10.0252 0.000958622 0.0111816)
(11.2742 0.0969743 -0.0757137)
(10.0016 0.00113196 0.00760284)
(10.0705 -0.0333543 0.0208641)
(11.4415 0.194447 -0.0829945)
(10.4875 -0.296529 0.0638523)
(9.99757 0.0149962 0.0024574)
(10.5738 -0.050568 0.000747994)
(8.37821 0.577134 -0.43446)
(11.2893 -0.0741116 -0.0618586)
(10.3042 -1.48899 -1.03247)
(10.7123 -0.011913 -0.0366318)
(10.0055 -0.0115055 0.00442691)
(11.237 0.0290467 -0.0667435)
(9.99424 0.0862408 -0.0138359)
(10.0029 0.0134013 -0.0027135)
(10.5118 -0.172389 -0.0105331)
(11.295 0.162915 -0.0150814)
(10.0071 0.024035 -0.000150223)
(9.9831 -0.0567567 0.0138235)
(10.8474 -0.0505593 -0.0057835)
(11.3832 0.311783 -0.166218)
(10.8732 0.0431541 -0.0610308)
(11.3172 0.312779 1.4868)
(8.65441 -1.29019 -0.697221)
(9.94477 -0.0449866 0.0104526)
(11.8326 -0.498267 1.17959)
(11.4196 0.229115 0.162015)
(9.6661 -0.420229 -1.22276)
(10.9698 0.221508 -0.0429059)
(10.6804 -0.00387258 -0.019825)
(11.9613 -0.71997 1.08219)
(10.0276 -0.00925703 0.00380238)
(11.2906 0.341452 -0.0577589)
(11.6279 0.124593 -0.0583114)
(12.0665 -0.305627 -0.337326)
(10.8615 0.040252 -0.0544247)
(9.97407 0.0142849 -0.00364907)
(10.7079 -0.065127 -0.00744503)
(10.0005 -0.00439157 -0.000609753)
(9.80587 -0.0076675 -0.00961117)
(9.97992 0.259166 0.00642635)
(11.7987 -0.126098 1.32401)
(9.95635 0.0212237 0.00444404)
(12.1605 -0.0161656 1.16436)
(9.7907 0.000242722 -0.034453)
(9.8818 -0.0140589 -0.0135075)
(10.0079 0.00849549 0.00563811)
(10.098 -0.0401317 -0.00815919)
(11.6463 0.902194 0.0675734)
(10.3901 0.504026 -0.0117264)
(10.0078 -0.00298059 0.0119838)
(10.5339 -0.0757416 -0.0281731)
(10.0108 -0.000664793 0.0027896)
(9.99379 -0.0355741 0.0198372)
(9.93696 -0.0005539 -0.00402827)
(9.96726 0.141046 0.032353)
(12.0732 -0.430018 1.30136)
(9.97157 0.0132252 0.00378128)
(10.0033 0.00419079 0.00562854)
(9.91702 0.0144445 -0.000525493)
(10.0558 -0.000462764 -0.00299863)
(9.85099 0.067231 -0.0283808)
(9.74686 0.0166662 0.0134337)
(10.4889 -0.750264 0.12718)
(10.0099 -7.98854e-05 -0.00672148)
(9.7417 0.0235229 0.0119896)
(9.99946 0.0259173 -0.000654126)
(10.1969 0.0489006 -0.0108161)
(10.1056 0.0106225 0.0005675)
(12.1777 0.0685683 0.725707)
(10.7653 -0.267569 -0.148695)
(10.0412 -0.000250541 0.000465336)
(12.2416 0.104309 0.552071)
(10.0134 -0.00362673 0.00558479)
(10.183 0.0963333 -0.0038523)
(10.1687 0.0486137 -0.00622952)
(12.2683 0.13526 0.963669)
(11.6965 0.103085 1.19962)
(10.2317 -0.160297 -0.0137869)
(12.1539 -0.159895 1.31726)
(10.038 0.00288701 -0.00864858)
(12.2205 -0.00351216 1.15483)
(6.53905 3.33294 2.09504)
(11.6877 -0.0190441 1.27186)
(5.9149 1.31132 -5.2725)
(3.69746 -3.79922 0.117435)
(10.4254 0.208969 0.00425587)
(2.52935 -3.39304 -0.587146)
(9.87552 -0.0099634 0.00903938)
(10.0192 -0.0129056 0.0225595)
(11.4209 -0.174187 -0.0256209)
(9.89658 -0.00619322 0.0111489)
(9.91955 0.0079206 -0.00233216)
(9.90211 -0.307753 -0.0422724)
(11.2038 -0.426474 -0.183339)
(1.3926 1.7171 -3.70111)
(9.19624 0.840448 -0.0257436)
(10.0028 -0.00174813 -0.00229392)
(10.0179 -0.00520067 -0.010873)
(9.97721 0.00695196 0.00149476)
(10.1593 0.377323 0.411201)
(11.5634 0.95264 0.230167)
(10.2159 -0.719634 0.101057)
(9.98818 -0.131126 -0.00735817)
(12.0527 -0.202445 -0.0651321)
(10.2549 0.173302 0.0496253)
(10.1131 0.0611527 0.00302335)
(9.9603 -0.019901 0.00545117)
(10.0078 0.00295203 -0.003646)
(9.68742 4.16867 -0.610623)
(5.32172 1.78639 -0.710349)
(1.49918 1.21953 -6.39379)
(10.0601 -0.0218539 0.00277562)
(10.1301 -0.0483428 0.0111898)
(10.0489 -0.635078 -0.0673332)
(10.176 -0.511693 -0.158147)
(1.25148 -0.841918 -5.82705)
(9.9609 0.00102889 -0.00883936)
(9.93135 0.00321271 -0.00686928)
(10.6546 1.99432 0.362545)
(10.3931 -0.155969 0.0224183)
(9.84463 0.0141845 -0.00864513)
(9.8071 0.0152754 -0.00264425)
(9.89247 0.00057051 -0.00227474)
(12.0099 2.78016 -1.16244)
(11.1826 1.70922 0.290503)
(10.0774 0.194808 -0.00602891)
(10.0981 0.122147 -0.00876032)
(10.032 -0.0143287 0.00608847)
(10.4278 -0.0397882 -0.00104167)
(10.0551 -0.00616601 0.00544156)
(10.0558 0.224381 -0.00691726)
(10.2407 0.0687819 0.0248989)
(10.0565 -0.0200784 0.00210928)
(9.97938 -0.0165515 -0.00322416)
(11.6865 -0.0448579 0.209412)
(8.03697 0.770766 -0.609606)
(10.6242 -0.736812 -1.40399)
(10.0106 0.0128889 0.00290678)
(9.96507 -0.0071461 0.00720329)
(10.0607 -0.00455188 -0.000785361)
(8.35778 1.06697 -0.64884)
(9.97943 0.105273 -0.00452253)
(10.023 0.023594 -0.00346343)
(10.0278 -0.0819116 0.00147772)
(10.0456 0.265084 -0.0442241)
(10.0399 0.289497 -0.0464288)
(10.2311 0.161771 0.026697)
(9.94121 0.268562 -0.0384036)
(10.0484 -0.0190072 -0.00440472)
(10.051 -0.00346598 0.00421007)
(9.98574 -0.0082507 0.0226249)
(9.6702 0.448336 -0.215997)
(9.94628 0.00110153 -0.001415)
(9.93246 -0.00553653 0.00371638)
(10.0298 0.238002 -0.034515)
(10.437 -0.477229 -0.101966)
(10.0401 0.26076 -0.0225361)
(9.96947 0.206307 -0.0181487)
(10.0297 0.197042 -0.0236828)
(11.1549 -1.47337 -0.325023)
(9.94568 0.00475455 -0.0065976)
(9.20562 0.231178 0.0445534)
(9.98226 0.158732 -0.00862895)
(9.99523 0.0236868 -0.00770446)
(9.52365 0.305137 1.90259)
(11.5492 0.23468 -0.467211)
(10.1824 -0.0551733 0.0082227)
(9.91901 0.00327283 -0.000947334)
(10.3764 -0.441817 0.00069922)
(10.9707 0.338579 -0.161605)
(9.76237 0.0047274 -0.00673426)
(10.0103 -0.00629012 -0.00857881)
(9.96837 -0.131816 -0.0032675)
(10.2261 0.78266 -0.174786)
(9.80091 0.00264793 -0.00571544)
(-0.425981 -2.56959 -0.705744)
(10.8733 -0.103606 0.009207)
(10.0143 1.02007 -0.154617)
(9.97935 -0.00175759 0.00732535)
(10.0113 0.900486 -0.128428)
(10.806 0.67227 -0.00812485)
(10.0094 -0.000120757 0.00195563)
(10.0035 0.00579755 0.00455719)
(9.74595 -0.0364278 -0.0665064)
(10.0109 0.00326686 0.00504798)
(10.0324 0.913451 -0.182057)
(10.1465 -0.157406 0.0221063)
(10.0051 0.0236121 0.00733748)
(10.0241 -0.0668537 -0.00423023)
(10.0017 0.0182028 0.00615979)
(9.95333 -0.0120304 0.00641129)
(10.2262 0.182746 -0.00667278)
(9.99928 0.0059525 0.00773816)
(9.97146 0.00775926 0.00762443)
(10.5687 0.976166 -0.39432)
(10.3439 1.18209 -0.45246)
(9.96459 -0.00760828 -0.00281509)
(10.5302 -0.560805 0.00782015)
(9.97606 -0.00521165 0.00293727)
(10.4912 0.915 -0.350781)
(9.95514 -0.0725944 6.3768e-05)
(9.98949 -0.000166084 -0.000382302)
(12.195 0.787673 -0.409406)
(10.0652 0.00668798 -0.00914973)
(10.6407 0.136404 1.00182)
(10.0875 -0.0116351 -0.00288928)
(9.10062 1.57418 -1.90253)
(9.92158 0.00747312 -0.00714778)
(10.7953 0.16086 -0.00186019)
(9.92092 0.00144994 -0.0149321)
(10.0351 0.00616337 0.0101377)
(9.8004 0.00587157 -0.00509612)
(10.0467 -0.00193722 -0.00193662)
(9.97658 -0.00518579 -0.0196625)
(10.3444 1.06016 -0.357776)
(0.785846 -1.70932 0.547298)
(2.04869 -0.76423 -2.57781)
(10.1319 0.118075 0.0143222)
(10.3582 1.5871 -1.01295)
(10.7894 0.803683 -0.372997)
(10.8964 0.76007 -0.359373)
(9.97458 -0.013705 0.007504)
(9.99467 0.00202606 0.0106231)
(9.95703 0.0287079 0.00934702)
(9.82768 0.00435497 0.0134019)
(9.93403 -0.0287693 -0.00356452)
(10.2863 -0.324177 0.012237)
(10.9185 0.701605 -0.252045)
(9.94013 -0.0138062 0.00229401)
(10.0477 0.00632295 0.00399456)
(11.7212 -0.994642 -0.0672651)
(11.6812 0.580266 -0.286297)
(11.2954 0.660391 -0.231711)
(8.0374 -1.33472 -5.20128)
(-0.00836418 3.06344 0.426836)
(10.8453 -0.309729 -0.0232955)
(7.38039 -0.980973 -5.73628)
(-0.059258 2.949 0.573466)
(9.95781 -0.323466 -0.0553629)
(-0.126952 2.93993 0.558507)
(9.38619 -0.215402 0.78339)
(9.98925 -0.0947873 0.021053)
(11.1646 0.716558 -0.396569)
(11.1032 0.773699 -0.423365)
(11.4185 0.677201 -0.392135)
(-0.776267 2.08406 0.83041)
(10.3862 0.161303 0.00117858)
(10.0299 0.0753256 0.00763473)
(10.0152 -0.0358008 -0.00177031)
(11.4902 0.712797 -0.511229)
(11.3511 0.756763 -0.574459)
(10.193 0.030863 0.03106)
(10.2489 0.168698 0.0464663)
(9.11884 2.69868 1.34758)
(-0.640538 2.14035 0.823796)
(13.0012 -0.581175 -3.24399)
(10.006 -0.0138855 0.00842437)
(8.81643 -0.758295 -3.36604)
(10.6876 0.773444 1.21791)
(10.0288 -0.130066 0.0152791)
(11.0574 0.553143 -0.0979663)
(12.3033 0.28139 0.146448)
(11.0329 0.465323 -0.0869159)
(9.99418 -0.0175032 0.00486587)
(9.99837 -0.0046094 0.00728423)
(9.98284 -0.00632882 0.00101097)
(10.4635 0.451991 -0.0230028)
(9.99917 0.00196464 -0.000451013)
(9.96772 -0.0136763 0.00194564)
(10.1437 0.0801633 -0.00874276)
(9.93245 0.00852322 -0.0134786)
(11.2501 0.342544 -0.111344)
(10.0041 -0.0457722 -0.010564)
(9.95908 0.011667 -0.00377935)
(9.99558 -0.0192259 0.00273477)
(10.0047 -0.00696686 0.00948854)
(9.96328 -0.00343174 0.00391158)
(10.3794 0.360671 -0.0137901)
(10.0858 0.0492567 -0.00818424)
(10.1899 0.0253682 0.0439711)
(11.1526 0.341859 -0.0987821)
(7.67326 2.86615 0.983638)
(9.97205 -0.00583591 -0.00213736)
(12.0607 1.58024 -1.65442)
(9.997 -0.00877591 -0.00259549)
(11.0809 0.12332 -0.0408306)
(7.94797 -0.0744667 2.15777)
(9.74452 1.49314 -0.692602)
(10.027 0.0647044 0.00793646)
(9.81042 1.57918 -0.77225)
(10.0082 0.0252447 0.00721887)
(10.0305 -0.0161831 -0.00879847)
(10.0823 1.36498 -0.998102)
(10.0051 -0.00593823 0.0249412)
(10.9133 -0.264533 0.00404369)
(9.94604 1.25679 -0.714487)
(10.4355 -0.0970452 0.00908196)
(10.6307 0.0793975 -0.290987)
(8.22833 0.395161 -4.18827)
(10.1478 -0.0734771 0.0139234)
(9.56441 1.96018 -0.727498)
(10.0492 -0.0229573 -0.0058984)
(8.99591 2.08387 -1.14673)
(10.243 -0.210502 0.0463175)
(10.0237 -0.00597775 0.00480923)
(9.90984 0.0344711 0.0289793)
(9.98491 0.00643497 -0.00966369)
(10.6367 1.13998 0.834008)
(9.95194 0.00238251 -0.0183844)
(9.99066 0.00285252 -0.0109917)
(9.98952 -0.0500634 0.00951002)
(9.82412 0.230633 -0.0387146)
(11.1153 0.81663 -0.0621345)
(10.0105 0.00372537 0.00412144)
(9.98802 -0.000943807 -0.000753587)
(8.62348 0.334217 -0.658719)
(10.0285 -0.00340694 -0.0127364)
(9.76367 0.206626 -0.161587)
(10.1699 -0.270581 0.0631708)
(10.1155 0.0668719 -0.00374271)
(10.035 -0.006334 -0.000883536)
(9.94755 0.00574189 0.00879462)
(10.0865 0.0296198 -0.0164153)
(10.372 1.40686 -1.16223)
(10.0035 0.00987636 0.00694176)
(9.9889 0.00470427 0.00290411)
(3.0115 -0.630599 -5.85592)
(9.96061 -0.00969663 0.0137929)
(9.9747 -0.0132197 0.00713658)
(9.96859 0.135562 -0.00878373)
(10.004 0.0112288 0.00707188)
(12.6045 1.54702 -1.1079)
(12.7223 1.27312 -0.904517)
(9.95855 -0.00974124 -0.00324203)
(9.83336 -0.174514 -0.0788416)
(9.92428 0.0562474 0.0302004)
(11.9152 0.179302 1.17541)
(10.0504 0.0601204 0.00142232)
(12.776 1.29706 -0.934236)
(9.99939 0.00586669 -0.00297594)
(-1.8942 -0.23233 1.1074)
(8.14426 -0.522695 -0.762449)
(9.11372 -0.864772 1.74918)
(9.99919 0.00103975 0.0204959)
(12.6998 1.25605 -0.885467)
(10.0671 -0.0100344 0.00546994)
(10.308 0.148332 0.0386363)
(9.96043 0.00211995 -0.00887381)
(8.7665 0.28169 -0.17125)
(10.0551 -0.0063021 -0.00124449)
(10.0138 0.0406774 0.00175524)
(5.60967 -1.51905 -1.09479)
(9.97998 0.00212909 0.00210071)
(9.90948 0.00148782 0.00353536)
(10.0309 0.00392171 0.0202174)
(12.4623 1.7228 -0.991904)
(10.0899 0.0432888 0.00233688)
(9.98791 -0.0141291 0.012714)
(12.3203 1.61212 -1.00683)
(12.2841 1.16077 -0.508019)
(9.95953 -0.0122571 0.0133022)
(10.0724 -0.0109385 -0.00468042)
(-0.118448 1.64371 0.342112)
(10.0392 -0.00108903 -0.00815867)
(10.931 -0.432596 0.0693307)
(10.0198 -0.00297355 -0.00669058)
(10.0254 0.00541397 0.0126822)
(10.0587 -0.029432 -0.00331675)
(11.9065 1.25487 -0.522591)
(11.7668 0.337322 1.35692)
(9.17119 0.739417 0.744562)
(9.38245 0.200794 -0.055505)
(10.1283 -0.140306 0.0256071)
(10.0451 0.00465814 0.00408706)
(12.4824 -0.630009 -0.562173)
(9.30422 0.235709 -0.475457)
(9.72871 0.0739396 -0.24098)
(-0.0486613 1.57296 0.230869)
(9.98064 0.00991083 -0.0026264)
(10.049 -0.0152878 -0.0114341)
(-0.202173 1.47932 0.319507)
(12.0954 1.71075 -1.37781)
(9.91084 0.0979564 -0.020578)
(0.00239846 1.6517 0.246825)
(0.00990482 1.66808 0.321296)
(10.0217 0.00125956 -0.000617471)
(9.99758 0.0149851 0.00161998)
(10.0228 -0.00626011 -0.00357612)
(9.60018 -0.334912 -0.0170097)
(9.99788 0.00226561 -0.00653968)
(9.94721 -0.0129592 0.0038889)
(9.53069 -0.588095 -0.625244)
(10.0759 0.285777 -0.00189013)
(9.94443 0.00379913 0.00766099)
(10.0233 0.0199269 -0.00518453)
(12.4763 1.62008 -0.518406)
(11.8065 1.50658 -0.519925)
(9.96917 0.0095914 -0.00040133)
(10.5237 0.39099 -0.0381203)
(-2.82247 -1.8537 -0.00689662)
(-2.37296 -2.96726 1.31604)
(10.9666 0.455465 -0.137424)
(9.93187 -0.0108152 0.000284855)
(10.4247 -0.296059 0.310401)
(11.0471 -0.10585 -0.818965)
(9.86645 -0.0116364 0.00120815)
(9.86199 -0.0154892 0.0116943)
(10.0507 -0.0386631 -0.00438279)
(10.3132 0.155764 0.0184284)
(9.97933 -0.0128761 0.00699798)
(11.1231 0.377934 0.300101)
(10.0007 0.00331645 0.000671138)
(13.2073 0.853364 -0.830495)
(10.3392 1.58997 -1.26393)
(10.8257 0.443733 -0.0959202)
(13.2156 1.03172 -1.17016)
(10.0603 0.0400699 0.00565775)
(10.0105 -0.00782629 0.0142647)
(10.3405 0.808531 0.132879)
(10.1443 -0.0941933 0.0300036)
(10.0247 -0.0103043 0.0154573)
(10.0039 0.00717594 -0.00298258)
(11.3217 0.245754 -0.648256)
(7.92697 -0.782118 -1.53054)
(10.0169 -0.00312545 -0.00653907)
(11.1422 0.115448 -0.0461216)
(9.99184 0.46037 -0.097502)
(10.7072 -5.20476 -2.80298)
(10.3753 -0.899518 0.855828)
(12.1687 0.0426321 0.868353)
(6.61518 -0.0054665 0.209796)
(6.38693 -0.0188817 0.0542436)
(10.0547 0.0038339 0.00897932)
(10.2542 0.38643 -0.146189)
(4.27024 -0.0963409 -0.184259)
(9.94758 0.00905348 -0.00378774)
(9.9961 -1.76462 -3.63489)
(7.90747 -0.528526 0.845694)
(9.98446 0.00175156 -0.00213938)
(9.95909 0.360754 0.156439)
(10.0243 0.0113302 -0.00952196)
(10.0393 0.00967557 0.0136822)
(10.0163 0.0024093 -0.000526175)
(13.3675 0.708429 -0.358434)
(9.97604 0.00972589 -0.00414195)
(9.98476 0.00380811 -0.00161864)
(10.0644 -0.0457557 -0.0126774)
(9.78797 0.00452676 -0.00641085)
(10.0875 -0.0233776 0.0181602)
(9.95662 0.00857664 -0.00790373)
(10.0609 0.0270802 -0.000750477)
(9.79361 -0.0950114 0.00935642)
(10.9139 1.23509 0.692536)
(8.81798 -1.21286 -2.06673)
(11.9858 3.82805 2.11125)
(10.7851 0.63234 0.0159851)
(9.54556 1.50829 1.25934)
(9.9667 -0.00776616 0.00563986)
(9.25481 -0.996914 0.0631013)
(9.97225 0.0122353 -0.0012946)
(10.0005 0.00231706 -0.0110578)
(10.0028 0.00326545 -0.00883993)
(9.99976 0.00107294 -0.00781234)
(9.984 0.0171893 -0.00638062)
(9.20101 0.452614 -0.927078)
(11.0268 0.808571 0.198181)
(9.98686 0.0126533 -0.00584277)
(10.2354 -0.586817 0.0753463)
(11.0753 1.68577 2.02079)
(9.95889 -0.00758745 -0.000881967)
(0.976537 0.704846 -0.0564177)
(13.2808 -1.03087 -3.22232)
(9.94034 -0.0175653 0.00664597)
(9.32343 -0.545642 0.00122036)
(10.483 0.0261319 0.0199457)
(10.0439 -0.0017825 -0.0059985)
(1.75611 1.22169 0.176441)
(9.98475 -0.0192519 0.000374509)
(4.32338 -1.00009 -0.658839)
(9.96385 -0.00944691 0.00145451)
(12.1618 0.0160996 1.05664)
(12.2844 0.462909 -0.138441)
(9.94449 -0.0294165 0.00747731)
(9.89304 -0.00221125 0.000184348)
(10.2045 0.652731 0.0480702)
(8.65116 -0.624293 -2.35401)
(9.92339 0.0154364 -0.00497657)
(10.0446 -0.0247463 0.00400248)
(10.4861 -0.0154512 -0.0254313)
(12.7902 -0.0487811 0.328679)
(10.0008 0.00363673 0.00175582)
(12.5522 0.384273 0.108552)
(10.6215 -0.00936246 -0.0366903)
(-0.417982 0.158308 -0.9589)
(12.2434 0.382806 -0.0264396)
(10.5542 -0.0215043 -0.0308845)
(12.3931 0.382589 0.0641245)
(10.0007 -0.00367131 -0.00345736)
(10.1569 -0.212311 0.0144272)
(10.5326 0.461976 0.0212539)
(10.6122 -0.0541456 -0.0407895)
(12.5493 0.465972 -0.0695485)
(9.99973 -0.0225511 0.000299277)
(10.0512 -0.252455 -0.022416)
(12.4053 0.455114 -0.0864205)
(9.9543 -0.0229055 0.00410726)
(10.6446 -0.047556 -0.0370299)
(9.98214 -0.0135135 -0.00373025)
(10.0691 -0.0217105 0.015287)
(6.86775 0.437606 -5.18877)
(6.6949 -0.0685773 -5.77925)
(9.6818 0.0746366 0.345405)
(8.82602 0.461436 -4.25206)
(9.9958 -0.0105384 -0.00234704)
(9.94357 -0.0152115 -0.00943472)
(10.8854 0.692031 -0.290308)
(10.6546 -0.177672 -0.00878869)
(8.2333 0.0944147 1.64403)
(10.0114 -0.00690008 -0.00464473)
(10.1327 0.0829272 -0.000754192)
(9.99254 0.0013094 -0.00203704)
(10.0329 0.122159 0.029659)
(5.27807 0.281066 -6.41815)
(3.89055 -1.77175 1.61112)
(9.9829 -0.00159853 -0.00226255)
(10.0176 0.0394173 -0.00629619)
(10.0554 -0.127273 0.00867269)
(9.84375 -0.107308 0.00679599)
(10.3512 -0.19106 0.0504957)
(9.9635 -0.0015295 -0.00279032)
(11.4288 0.0782466 -0.069969)
(11.6444 -1.08342 0.749151)
(10.2438 0.0405544 0.037049)
(10.0447 -0.00404813 0.00918183)
(9.98869 0.00147858 -2.38806e-05)
(9.99424 0.111919 0.0161165)
(9.69587 0.191397 0.0258904)
(9.99559 0.00514452 -0.00627731)
(10.9137 -0.120559 -0.0509282)
(9.96194 0.0106173 0.00337696)
(10.0233 0.0364473 0.00130193)
(10.1403 0.121598 0.0335258)
(9.25964 -0.87498 -1.32008)
(5.14117 0.749621 -4.83943)
(10.0659 -0.114067 0.0135656)
(-0.138937 -1.57524 0.178646)
(9.65818 -2.30968 0.423472)
(13.2893 -1.20944 -1.27408)
(-0.134356 -1.52362 0.151763)
(10.5968 0.0466652 -0.0287146)
(6.28245 -0.258757 1.95491)
(10.6116 -0.516194 -2.68052)
(10.8395 -1.73432 0.325906)
(5.65334 0.349831 -3.84282)
(-0.10543 1.53622 0.539576)
(1.49105 0.644289 -3.63186)
(12.06 -0.117248 0.608162)
(10.9073 -0.00402085 -0.0532984)
(11.8303 0.206692 0.74755)
(9.92572 0.004912 -0.00454374)
(3.71309 -0.341649 -0.375766)
(10.8375 0.0733651 -0.363037)
(10.8094 -0.0151546 -0.0325475)
(9.94921 -0.0770267 0.0649098)
(9.99617 0.00585703 -0.00900965)
(11.9767 0.182672 1.16645)
(9.8354 0.171992 0.0111146)
(10.2657 -0.0518077 0.0174763)
(9.99258 0.0319028 0.00429168)
(-0.365454 0.978694 0.095962)
(8.07939 0.349048 -2.56191)
(10.0155 -0.00832601 0.00806427)
(9.98465 -0.00478542 0.00448223)
(5.0214 0.335306 -2.47232)
(5.90376 0.188693 -3.14072)
(10.4559 -1.68138 -0.952833)
(-1.58997 -2.3151 -1.24921)
(5.76735 0.0844922 1.64173)
(4.0486 0.0592146 -3.93997)
(3.76583 0.00507857 -4.79037)
(10.0057 -0.00419348 0.00982602)
(9.8154 0.00486789 0.00159215)
(9.47012 -0.0273211 0.0268024)
(10.0254 -0.0205954 -0.00174224)
(10.4136 0.0439137 -0.00841878)
(-0.213797 1.60855 0.325595)
(10.9869 -0.0211466 -0.277092)
(10.4701 0.035476 -0.00782535)
(10.3305 0.0313765 -0.00351009)
(10.0506 -0.00855241 0.00568141)
(-0.199898 1.39324 0.698628)
(-0.367632 1.42385 0.697404)
(10.0646 0.00526399 -0.00450353)
(10.4108 -0.0031557 -0.0190773)
(9.92972 0.0450948 -0.00383174)
(10.0537 -0.031456 -0.00258151)
(10.3574 0.0113499 -0.00486782)
(10.0519 -0.0322306 -0.00771)
(9.6685 -0.0147325 -0.0672565)
(9.99947 0.00214979 -0.0144273)
(9.97097 -0.0367186 -0.00151016)
(6.97449 -0.765246 -3.21726)
(10.0477 -0.00409102 0.00324843)
(10.0622 -0.00802774 -0.00299238)
(10.0049 0.00153586 -0.00385083)
(9.83511 0.00759426 -0.0114533)
(9.85451 0.00740429 0.000232655)
(4.24837 -0.622973 -2.51468)
(12.6631 -1.25829 -0.942211)
(10.0495 -0.00686076 -0.00278139)
(10.8648 0.472292 -0.216974)
(10.0142 0.0367943 0.00198916)
(9.67096 -0.325242 0.0952258)
(9.62305 -0.40839 0.148761)
(12.4577 -0.0475303 -0.0918378)
(9.82823 0.00646281 -0.00337611)
(-0.539135 -1.03634 0.826532)
(12.5598 -0.212058 -0.199934)
(10.5128 0.165928 -0.0175469)
(10.866 0.459206 -0.0823966)
(8.07125 0.386038 -3.49707)
(10.0682 3.14086 1.70298)
(9.98954 0.0131514 0.00737451)
(9.98523 0.014344 0.000552487)
(11.3634 1.72039 2.15171)
(10.0157 -0.126951 -0.0122356)
(9.99897 0.0340533 0.00535194)
(10.7442 0.789228 0.333567)
(9.96729 0.0107594 0.000769005)
(9.98344 -0.00255716 0.00188942)
(-2.53783 0.872169 1.21703)
(12.512 0.994955 -0.358846)
(9.99131 3.64747 -0.538079)
(10.002 0.000810007 0.00508825)
(7.70529 0.646824 -2.71339)
(10.0107 0.00346601 0.0147217)
(12.1259 0.369362 -0.272446)
(9.47723 -0.383546 0.235731)
(12.5484 -0.0921322 -0.113677)
(9.93821 0.0048834 -0.00149785)
(9.28574 -0.410803 0.191229)
(-0.906857 -0.756945 0.567715)
(11.3217 1.84883 2.64389)
(12.6487 -0.476448 -0.971861)
(-1.18995 0.876994 0.408073)
(12.5443 0.366973 0.104753)
(10.7802 0.168097 -0.0157532)
(9.95839 0.0132965 0.00459025)
(12.2579 -0.508839 -0.281481)
(10.0027 0.00150677 0.0068107)
(12.7254 -0.0994081 -0.146018)
(-0.0462085 -1.43081 0.535332)
(10.0032 0.00184046 0.00558114)
(12.8298 0.160257 -1.47309)
(9.9256 -0.00759708 -0.00544472)
(9.92435 -0.0205008 -0.00161576)
(10.9083 -1.17967 -0.872202)
(9.97533 -0.0194061 -0.0113234)
(10.4332 0.136162 -0.0159091)
(7.93867 -5.74026 -0.0754378)
(9.5171 0.449503 0.0219539)
(10.034 -0.246204 -0.0174707)
(12.8849 -0.581565 -0.188676)
(10.7415 1.63781 0.835313)
(10.0862 -0.0365073 0.00792737)
(11.6617 -2.73268 -1.19174)
(5.25256 -0.895269 -0.227319)
(10.8246 0.0497591 -0.0132899)
(9.61448 -0.729869 -0.920424)
(10.1112 0.171586 0.0432244)
(10.7513 0.273518 -0.00430167)
(10.034 -0.0197155 -0.0130377)
(10.0932 -0.0271057 0.01249)
(-1.53038 1.03062 0.271732)
(0.587696 -4.13051 1.92484)
(11.9248 -0.881065 0.257341)
(9.90777 -1.0548 -0.971164)
(12.3977 -0.429517 -0.502346)
(0.599464 4.66824 0.274637)
(-1.86786 -0.311799 -1.43619)
(9.01186 -3.59057 4.18736)
(10.1038 -0.0205628 0.0194686)
(10.0024 0.0124815 -0.0100336)
(9.98853 0.0138418 -0.0043827)
(9.90421 -0.0258516 0.006721)
(0.0441302 1.38599 0.312369)
(9.59615 -0.532826 0.164821)
(8.92967 -0.636485 0.999414)
(9.98691 0.0212196 -0.0100354)
(-0.260575 -1.33686 0.0463962)
(12.6347 -0.0716048 -0.207656)
(11.021 -0.251864 -0.180046)
(10.266 0.0449407 0.00709987)
(10.0384 -0.0220027 -0.0148451)
(10.2753 0.045097 0.0161385)
(6.19501 -1.87288 -3.32259)
(10.0048 -0.00300722 -0.00689142)
(2.32334 3.24235 -1.42197)
(10.0189 0.00316551 0.00220936)
(10.3351 -0.649271 -3.15897)
(9.98819 -0.00378222 -0.00294499)
(9.99894 -0.00632694 -0.00614885)
(10.0092 -0.0103013 -0.00727334)
(10.0138 -0.00960787 -0.0104813)
(9.98811 -0.011569 0.00325524)
(12.4926 1.70534 0.698207)
(11.4835 0.359771 0.65978)
(8.85903 1.48328 2.31401)
(6.84687 4.01368 2.27123)
(9.28996 1.236 0.399837)
(10.4318 0.599373 -0.111382)
(11.1116 1.37687 -0.0274492)
(6.62792 -0.446582 -2.98529)
(10.8176 -0.144082 -0.000585982)
(11.9915 -0.477079 0.0878915)
(10.9053 -0.704719 -0.102432)
(12.4396 0.0915939 -0.0673866)
(8.41061 -0.24883 4.40044)
(6.16107 -0.93235 2.18662)
(10.8657 -0.43292 0.172578)
(9.99928 -0.00935454 0.00485187)
(9.55238 0.977558 -0.378895)
(10.0044 -0.00595658 0.00996892)
(10.3656 -0.0231053 -0.0145957)
(12.4421 -2.42094 3.2175)
(12.5386 -0.400368 0.631339)
(-0.75413 3.44815 -0.559957)
(10.1078 -0.9738 0.193534)
(11.9429 -1.03233 -0.696101)
(10.543 -1.0683 -1.22421)
(10.2251 -0.423875 0.838992)
(10.4127 -0.054629 -0.00533748)
(-3.38666 -1.94856 0.766676)
(10.2063 -0.0143653 0.00523797)
(10.288 -0.0204999 -0.00363899)
(11.3524 -0.127407 1.40901)
(9.81325 -0.12702 4.62766)
(10.4495 -0.0568764 -0.00112617)
(10.2984 0.581321 -0.45168)
(9.9691 -0.00224911 0.00158461)
(10.4786 -1.4719 0.559988)
(11.6797 -0.211472 1.42402)
(9.94628 -0.0377055 0.0109655)
(11.1562 -0.446583 -3.15192)
(9.4416 2.07225 -1.76525)
(11.7845 0.459869 1.23279)
(11.1414 0.189117 -0.220942)
(9.48468 0.104867 0.257034)
(3.09765 0.969061 -3.82844)
(0.208015 3.17112 2.68825)
(5.19069 3.19061 0.601035)
(13.3049 -0.867862 -3.05697)
(3.74895 -0.67992 -0.345602)
(9.7405 -0.00848103 0.00979949)
(9.89253 -0.0524174 -0.00121121)
(8.19564 1.72661 2.6116)
(9.93838 -0.00771156 0.00697368)
(4.52375 -0.828978 -0.303695)
(9.80579 -0.0121527 0.00276011)
(9.77137 -0.0116446 0.00289481)
(-0.159306 -2.08377 1.12912)
(9.46722 -1.32887 0.82039)
(10.9073 -0.690508 0.0842186)
(9.97046 -0.00277201 0.00528898)
(10.0016 0.018935 0.000155093)
(8.3273 0.43121 -2.88436)