/*--------------------------------*- C++ -*----------------------------------*\
| =========                 |                                                 |
| \\      /  F ield         | OpenFOAM: The Open Source CFD Toolbox           |
|  \\    /   O peration     | Version:  2506                                  |
|   \\  /    A nd           | Website:  www.openfoam.com                      |
|    \\/     M anipulation  |                                                 |
\*---------------------------------------------------------------------------*/
FoamFile
{
    version     2.0;
    format      ascii;
    arch        "LSB;label=32;scalar=64";
    class       volScalarField;
    location    "0.0689058";
    object      omega;
}
// * * * * * * * * * * * * * * * * * * * * * * * * * * * * * * * * * * * * * //

dimensions      [0 0 -1 0 0 0 0];

internalField   nonuniform List<scalar> 
3926
(
90.3653
43.042
91.9717
227.929
124.794
503.807
695.598
895.276
420.828
818.88
729.566
97.2801
42.8935
141.096
44.1872
44.273
84.3794
44.2858
126.304
70.6985
98.4696
165.42
143.672
127.292
57.2468
119.193
115.42
222.137
245.28
174.791
193.29
68.0255
164.849
111.729
74.1379
120.179
658.117
62.6491
44.3227
79.7402
202.363
961.499
64.2154
48.8833
42.9509
847.126
62.5978
110.965
723.254
60.313
91.8547
973.73
349.984
730.866
46.1836
68.9343
1106.94
370.702
77.5856
331.196
48.5067
294.092
698.321
64.4858
665.442
516.73
632.47
326.577
465.133
601.884
386.646
42.9001
393.145
50.4203
84.2192
534.406
69.2334
278.502
77.9806
44.0506
129.968
65.504
552.577
1137.08
94.3034
57.526
53.762
123.468
554.86
44.4605
44.4264
69.8323
110.084
258.171
59.5318
1026.83
63.0797
74.4416
350.773
92.4201
212.628
59.8085
92.3745
63.7471
253.851
187.606
68.7454
54.4577
59.4902
51.3177
102.026
65.9074
52.4829
62.373
45.5437
408.758
140.143
43.3917
579.49
604.965
63.6983
63.9348
44.8089
97.689
55.4779
74.0549
325.135
53.8341
220.646
83.2993
64.5761
64.3503
59.2054
64.081
815.264
770.588
666.661
539.562
679.788
106.142
85.7203
43.8884
80.5694
111.483
51.8739
206.61
75.2772
156.928
65.1338
72.9587
88.0695
99.3082
72.8543
118.64
156.683
193.284
71.3402
218.654
146.233
186.357
105.423
57.0318
63.6039
272.201
426.908
60.5552
46.9057
42.6539
60.7082
161.952
1126.91
82.5377
47.2468
43.5311
63.7392
95.6833
62.2987
409.529
165.052
67.8891
1025.43
80.1938
543.81
101.425
44.4737
81.2215
94.0708
49.7186
111.511
90.9842
508.769
60.0082
237.507
52.9145
54.3704
43.8177
60.4424
48.5903
52.7282
755.505
70.6343
745.208
380.455
57.1916
53.0146
160.478
45.506
772.491
69.6059
50.6085
43.3024
50.0614
90.9717
112.865
45.8658
162.404
48.4606
94.1832
85.7432
120.117
62.1239
102.649
78.7471
587.395
71.6789
522.578
842.904
79.5268
45.8794
69.8682
62.049
197.425
101.122
49.4774
87.5235
85.629
76.4046
147.791
776.022
85.6598
660.872
59.6217
197.58
335.773
43.6742
69.9266
731.765
72.0321
44.0158
981.18
517.411
1057.65
1084.59
185.562
64.4617
551.677
891.832
80.7187
149.388
880.469
643.082
617.512
61.6543
332.639
427.899
72.5497
48.3406
93.4976
81.2935
613.487
478.172
797.818
59.6035
93.7303
65.8483
128.385
47.0079
79.8874
43.6274
49.8009
390.274
735.642
95.4054
48.7915
232.914
431.419
277.353
403.154
644.105
197.353
146.988
43.7434
52.0802
346.141
42.7913
114.185
54.794
76.9058
69.8532
771.119
1002.62
169.062
52.0463
103.546
53.511
242.102
1020.56
84.1377
50.8837
540.346
721.246
199.604
229.881
48.7831
110.862
88.5153
60.7834
72.5595
196.136
83.617
266.938
49.4948
851.059
157.513
180.355
64.5584
463.923
127.47
770.669
62.1297
110.242
47.1325
52.9926
43.2448
52.7197
43.0097
90.781
624.185
445.949
532.471
218.694
636.084
85.486
46.2428
58.9763
90.0967
384.666
234.493
396.338
496.265
514.382
545.156
526.404
590.193
446.392
662.009
450.484
576.218
85.562
47.2903
55.3658
43.7362
142.392
110.47
556.151
149.308
94.2615
48.8479
166.576
84.798
131.997
49.0746
459.043
47.4369
235.195
63.2856
90.7915
50.4822
344.95
71.4202
47.1613
111.499
92.5578
136.462
57.417
49.1466
160.236
256.044
101.582
78.7329
599.312
50.6054
895.18
96.5539
65.235
85.9269
92.9909
42.9665
77.3218
62.0894
83.1314
82.6252
52.1819
50.6968
109.987
118.587
86.3023
47.9891
114.327
118.491
45.149
709.123
201.407
128.761
58.5197
55.7628
68.0118
608.768
53.1257
47.9736
46.1924
95.5508
82.6339
119.742
60.0842
50.5481
66.3683
45.8407
79.8656
63.6171
82.7901
88.0971
184.867
69.3375
43.534
44.9539
74.2881
55.3374
451.709
47.1909
56.0668
847.559
908.573
88.11
316.177
769.048
189.622
527.325
49.268
43.4776
924.245
75.0584
104.442
580.121
96.1127
240.483
212.763
89.3781
81.3538
148.416
112.942
157.153
107.54
52.9142
65.1723
45.6445
57.7375
823.197
78.5447
75.8067
143.786
65.7795
60.3568
59.0233
132.2
126.048
68.5349
127.709
49.3421
180.005
157.249
99.9764
43.2325
55.1271
47.5647
70.1375
405.618
150.184
108.509
985.145
70.4206
155.422
761.608
774.498
101.986
192.962
289.376
85.7467
173.754
489.522
112.325
449.087
80.6826
110.149
171.52
593.654
51.2698
120.794
46.1579
387.939
127.74
919.827
787.927
93.3437
159.411
267.593
683.011
141.961
893.357
524.193
675.509
660.767
477.516
264.516
722.913
88.8953
104.454
326.578
381.777
106.322
48.2101
45.6928
59.8544
43.9647
433.171
492.932
734.336
875.332
143.583
92.7802
134.926
436.915
696.847
941.617
1123.23
515.341
407.615
85.0247
81.9499
96.1547
93.5676
114.741
261.128
45.4001
47.3964
271.674
110.811
212.093
272.262
82.3748
78.3417
108.697
70.0981
61.7464
62.5102
66.762
585.691
481.737
352.159
1200.65
57.1137
53.3443
51.2401
51.3959
50.5219
295.33
115.666
85.2743
604.045
55.4162
416.089
70.1404
109.361
52.1911
107.851
154.064
650.434
49.3326
47.7685
48.2079
259.454
84.1077
563.636
641.526
684.999
43.388
167.22
630.017
357.055
254.259
146.584
57.4257
65.1196
51.1043
43.2145
44.072
60.1819
197.283
163.749
372.052
289.08
106.382
225.674
49.0313
43.3927
44.9787
44.41
94.6515
45.2459
48.0187
49.3559
142.791
98.6869
63.745
584.788
466.134
277.783
55.6709
64.6416
56.8474
47.3058
64.0421
50.2333
52.688
203.322
52.6699
46.6415
220.68
159.026
490.129
122.18
93.7703
64.9762
87.8945
470.864
67.6893
73.4989
93.0645
90.7479
127.666
46.1716
83.6973
81.4186
72.3123
48.0737
120.582
90.4416
79.312
83.0541
154.102
179.328
72.1687
55.5491
81.4128
98.3887
91.7614
76.0426
783.934
88.2635
55.4868
70.1151
42.69
43.5737
64.8781
67.3259
73.1253
140.1
72.5637
54.1209
95.9504
46.9432
52.3301
99.8241
377.523
118.898
52.786
44.7127
44.1814
42.9181
43.2477
104.044
78.6705
254.203
109.738
89.7193
44.224
43.5682
43.5179
175.61
61.4817
59.0809
59.5234
73.7239
48.6004
55.2641
48.5361
58.74
80.7278
183.118
126.248
49.8975
51.2607
48.2913
51.4659
43.4835
51.5693
45.9106
98.4342
128.121
119.352
53.1019
53.696
45.257
48.9164
44.3997
44.2661
43.3259
43.165
43.6951
75.5431
53.472
62.7994
72.1023
50.843
60.1462
84.0193
61.2353
90.3826
48.0958
45.9687
49.2332
53.0394
312.316
52.5905
46.1845
47.9825
53.1613
50.8618
50.885
43.4033
42.8215
42.6914
43.1526
43.2554
69.639
80.9376
532.268
90.3538
496.102
63.7925
782.964
63.1993
78.9538
59.3798
246.626
72.5667
303.577
254.413
68.2121
856.503
44.1915
783.449
805.039
121.8
43.2917
245.223
269.73
43.7997
43.392
79.0609
77.2404
391.065
83.1563
72.8228
44.0407
44.1505
45.129
48.6461
115.382
55.7836
52.3757
47.4121
48.367
197.403
74.2273
60.6487
76.0831
43.7089
50.7034
85.6915
252.108
77.9171
590.265
58.6969
81.3076
984.159
730.754
80.7883
75.0313
67.3766
49.6906
351.811
57.0553
58.5143
92.7083
49.1765
43.8855
45.8441
55.216
47.2186
309.627
175.362
776.58
102.995
74.2992
56.6784
86.5021
1068.68
146.496
1102.29
43.4263
43.8378
620.491
606.792
267.911
80.1774
43.6059
70.1351
43.5432
801.8
50.8905
50.5024
510.841
57.0407
52.3801
100.95
212.782
94.6324
80.1117
122.99
63.0606
833.453
84.3637
47.0417
805.651
250.059
49.8506
415.268
693.99
48.7134
780.901
44.24
48.924
55.8349
169.781
57.1758
57.9779
43.6385
970.833
635.079
831.086
108.59
523.062
104.027
46.2151
80.0789
56.4091
54.3362
293.687
145.19
355.829
47.7589
44.2632
126.33
73.8308
105.697
530.303
69.762
77.6465
97.7201
94.2905
49.2111
62.8642
81.8189
423.415
46.5541
288.684
52.5642
46.0063
88.3091
198.019
699.266
145.89
76.3166
227.498
56.3024
71.1274
54.2128
954.652
152.09
72.1945
1192.37
42.945
84.6132
55.5844
76.3952
890.942
183.078
345.322
113.468
107.988
45.011
87.3675
180.069
53.4869
49.0863
429.87
185.638
254.704
142.673
118.15
92.2229
1031.03
448.492
69.2725
64.8822
121.764
47.5857
978.426
858.648
84.6682
42.6766
56.4072
42.8101
43.5682
79.0059
56.8904
55.6838
140.882
757.447
342.949
154.073
47.8404
89.1909
641.748
286.645
717.996
301.074
67.4418
45.4265
129.563
221.424
592.688
80.1277
62.9473
104.437
81.0288
424.603
49.5993
617.974
692.005
123.2
110.023
46.202
86.9709
111.209
459.973
208.74
93.1191
68.1278
64.4299
51.4096
79.0893
89.7831
169.451
61.8138
49.9775
46.6564
95.2217
574.36
84.8783
604.132
884.681
477.897
269.71
129.584
58.8407
55.9555
128.503
144.18
123.241
57.9627
585.114
466.108
80.342
70.2753
89.1948
78.6063
797.216
75.3666
61.443
65.535
130.941
79.7667
295.678
91.1234
236.133
47.3535
46.7203
68.3513
775.217
149.318
85.6708
785.175
863.346
170.84
65.9032
93.4907
76.9026
43.5208
43.3255
43.1532
87.505
49.6712
55.3762
232.281
57.644
750.552
125.822
71.2888
49.9833
565.847
47.8824
55.6793
80.9886
790.746
59.2454
88.8845
45.6179
884.233
54.4155
101.607
67.4113
522.793
226.245
577.256
58.9683
246.868
427.039
168.609
58.2377
231.47
262.291
919.496
55.4103
48.9198
55.9148
60.3076
55.2558
817.026
58.2861
64.2079
373.412
182.569
898.692
114.437
44.6873
44.5855
279.048
127.381
85.3282
54.2134
43.4341
42.9401
44.6116
43.4051
43.3253
43.1946
44.9131
44.5245
53.7228
124.6
52.763
53.0713
44.3847
43.4931
42.8573
117.422
46.8055
45.3488
43.1722
42.7972
45.8368
52.9121
900.925
618.91
70.1654
612.59
52.9363
47.2496
44.7685
50.0604
51.1862
47.6595
620.351
1002.89
990.839
65.2172
51.0146
265.983
371.583
87.9153
66.1632
150.754
99.8733
624.895
178.19
60.1167
83.1419
57.0609
427.443
237.9
160.536
481.379
87.0712
185.133
86.6204
57.8571
526.873
374.119
59.5043
1058.99
558.327
207.395
207.63
246.05
84.4612
646.999
96.5456
47.5301
294.004
141.792
449.813
353.89
331.067
514.047
320.327
381.089
178.751
42.7503
891.155
88.6943
275.182
132.757
54.1175
44.364
979.216
921.52
471.442
525.812
612.123
75.0379
326.552
1024.62
132.244
812.365
882.609
226.737
141.432
102.09
45.7706
52.5722
81.2325
55.647
416.697
896.947
709.022
953.015
732.684
1051.84
436.88
903.697
69.3114
44.2445
45.9438
46.8787
43.5474
67.6455
140.561
401.506
382.306
607.8
101.43
47.1057
603.633
912.119
782.856
568.075
172.329
58.8957
891.129
1209.34
1050.22
58.3137
325.375
44.6637
445.168
283.529
410.507
353.255
80.0876
149.226
166.925
666.077
784.855
570.398
922.156
670.899
804.833
971.386
938.071
173.075
110.739
134.597
80.9682
68.2634
43.1019
80.5838
54.5236
64.3651
54.7116
44.0036
53.8118
44.9174
129.544
49.2827
48.7094
44.0954
49.5536
192.735
44.9609
105.676
65.4147
71.0614
57.34
105.401
83.6348
153.893
66.4552
107.806
195.964
450.828
217.173
270.727
48.2667
54.4974
48.2793
62.802
66.1673
66.2519
50.7668
43.835
84.5699
493.785
46.5189
175.102
56.8974
73.1745
97.5423
63.5897
779.621
64.7929
71.6132
77.7495
52.8217
54.7194
89.0336
47.5648
263.765
161.19
45.2839
53.8152
77.7885
97.4099
915.338
184.827
45.6687
207.79
166.342
173.118
667.135
280.298
131.273
224.923
190.338
791.366
71.8479
56.2296
95.6074
52.0792
142.558
50.1888
69.694
44.6063
43.4395
43.0774
45.9387
91.2746
86.7487
46.24
45.6823
51.3343
106.568
69.4983
104.807
43.9586
47.4958
126.228
112.185
1054.7
171.844
166.463
1056.03
686.643
447.556
290.96
95.1657
68.0599
48.3617
48.4441
83.5548
82.377
532.822
78.4161
283.564
784.979
291.278
367.848
94.7773
44.488
90.9328
50.7911
53.2603
68.7613
63.5291
61.0102
60.1746
53.6237
67.1308
58.6426
100.59
390.694
1036.32
70.5537
70.4733
84.2366
42.9878
46.4315
44.9414
65.1955
75.2755
365.283
57.826
51.3566
160.206
76.3113
43.0563
61.9357
43.0108
424.83
192.429
69.4133
60.2801
46.4836
46.593
420.631
49.5372
118.268
498.815
57.8853
235.333
234.422
60.785
282.692
51.357
51.3928
829.846
63.5061
53.287
55.3176
49.8932
61.4824
64.5117
47.0836
58.3403
42.8881
218.212
313.679
1019.25
198.412
166.279
83.6632
1000.93
44.5529
54.2505
92.2095
81.6296
50.9162
43.1235
46.4941
58.0125
51.9881
58.1545
433.315
90.5575
216.078
100.408
284.543
190.199
71.8908
203.635
453.753
249.417
90.0267
80.758
988.772
1009.96
304.235
101.1
91.5643
465.889
104.848
212.825
152.385
81.6627
77.528
215.52
49.1717
135.55
46.805
361.348
129.69
111.41
343.191
699.213
69.9096
63.3622
89.9274
360.004
94.1679
54.5256
677.048
600.499
156.672
67.7576
49.2475
47.481
113.688
44.8346
67.3383
105.974
60.4827
392.326
644.61
67.0539
88.6312
136.663
99.0781
654.922
46.5234
849.563
976.564
45.1848
65.5968
46.4853
68.7151
412.094
57.5923
417.619
58.073
62.1329
620.9
58.9861
190.137
447.09
71.8207
85.8513
72.5345
110.91
51.283
43.3585
127.564
54.4961
62.4595
123.58
50.4004
70.7451
215.613
238.012
845.899
636.328
141.081
410.358
50.2774
68.0734
78.1612
71.1607
55.469
54.4767
74.1306
44.9017
63.2808
94.578
80.5771
101.678
81.788
114.001
46.1091
45.5864
93.4801
47.8195
364.223
64.2441
54.926
52.8648
70.836
56.1331
56.4657
164.682
196.227
174.055
192.737
222.731
378.542
69.5151
63.2694
61.3947
54.5352
603.303
57.1501
56.2643
92.4606
44.636
696.562
227.797
69.7807
83.8486
94.2618
423.768
53.6061
44.3229
80.9648
66.7911
697.854
60.5528
67.2546
322.51
47.1472
160.1
46.3717
178.97
159.902
152.245
72.8677
457.556
79.2819
765.123
52.5098
717.486
319.321
161.638
49.7151
57.6333
105.225
122.55
360.07
706.395
378.731
53.2316
153.983
627.452
135.297
394.991
336.933
261.574
712.06
57.7421
44.7804
45.2204
45.1373
549.036
950.368
97.4853
262.072
1122.24
121.947
112.701
127.16
185.748
342.624
59.2127
133.668
81.7058
47.4392
47.0019
46.1522
56.7057
44.9691
43.6264
270.961
177.542
261.653
204.996
208.391
818.765
183.565
242.2
255.111
210.898
238.036
208.603
167.793
42.9323
82.3494
392.266
60.6411
56.5019
283.047
662.213
287.321
969.176
61.6922
884.433
525.689
1168.7
754.272
82.6157
1022.66
716.18
393.781
951.791
915.423
609.035
165.011
689.544
81.6242
413.565
47.4647
703.034
460.373
265.123
263.59
565.458
604.963
136.792
218.98
202.917
569.396
604.592
310.598
1038.39
117.427
248.383
388.584
613.064
573.775
62.4374
46.4125
190.616
84.5985
155.363
250.425
107.878
705.419
727.418
466.027
271.352
381.677
363.007
43.7394
1027.36
61.2905
1149.7
1224.83
115.165
926.995
100.382
870.172
389.105
183.497
77.804
49.2603
46.0355
55.4415
75.12
399.657
680.342
414.92
65.8758
704.459
803.604
1272.96
343.298
44.6886
1120.93
1483.99
634.82
1024.59
43.8649
792.315
816.718
814.475
51.1384
43.3931
311.155
54.1924
77.113
457.415
344.21
60.1917
59.0449
103.434
75.6452
51.4497
81.4684
58.0001
61.9963
54.2351
56.73
50.2176
229.323
932.085
89.5753
156.769
197.411
75.9789
63.916
46.1182
72.1092
69.3257
74.0728
91.9603
95.935
75.4238
63.4192
82.1243
75.0784
45.9505
253.721
49.1684
43.2529
76.123
1013.52
52.2028
75.5967
55.0149
59.5182
469.975
389.4
187.683
705.949
44.0874
44.3872
175.52
291.067
1097.89
422.632
594.738
955.281
468.975
461.272
715.527
55.2031
389.666
392.658
456.452
70.0212
707.764
47.8481
50.8307
101.658
78.2921
73.1722
169.738
150.913
75.3308
65.7545
51.0211
129.073
204.152
834.477
276.499
301.903
174.417
218.725
439.123
394.007
193.176
127.948
1170.67
46.9058
196.199
476.868
45.1521
55.1683
91.0995
129.301
90.9449
64.6582
419.821
82.721
60.1005
684.719
87.5971
269.8
163.315
51.4106
58.7034
64.7477
46.6363
165.197
842.112
47.4796
62.3541
46.6433
48.9013
50.64
46.8275
46.596
43.2643
88.5163
47.6205
53.0962
74.6391
49.5763
68.2126
59.377
45.7105
1047.05
93.9171
61.5239
266.567
70.5358
56.1863
79.3237
202.424
70.6923
85.3313
58.0724
55.7882
99.7271
64.831
43.0786
50.3457
42.8127
44.7249
292.625
268.475
62.4505
51.2711
719.592
58.6955
102.034
111.61
273.622
285.765
269.045
197.921
1016.39
1013.13
777.364
1000.5
773.659
148.878
58.5218
63.7731
67.8661
447.9
97.1208
430.152
50.2348
53.4083
73.4014
113.334
66.7152
54.1387
874.157
60.9037
86.5925
495.043
88.8512
82.2636
88.8995
70.9891
126.817
150.671
853.318
64.7735
157.852
90.6659
55.3823
50.3843
42.9907
43.2099
103.734
78.4038
50.2618
43.2152
63.3774
44.6631
72.8547
52.6406
53.4738
143.369
68.2022
107.111
66.9484
49.8742
857.792
228.203
191.444
173.675
1242.7
197.677
50.7758
71.4166
63.0496
867.15
74.3573
47.6195
68.4127
51.23
135.838
536.023
76.3324
68.4691
122.196
75.6189
67.365
770.995
50.7969
94.5691
50.9702
54.3913
471.337
77.1206
888.963
233.391
47.3023
45.9822
45.8436
73.0865
119.036
290.767
760.406
594.388
103.887
89.8276
164.09
726.256
173.432
152.7
554.069
220.727
1198.71
1035.5
96.8858
1298.31
1041.54
968.586
914.425
48.8209
130.115
66.9809
43.0593
43.7413
47.3232
174.629
53.4269
447.695
57.9449
814.62
248.809
43.3107
50.3426
52.2828
61.3636
61.0508
88.007
365.909
800.531
222.003
799.766
1003.96
143.492
254.484
61.0612
59.9397
207.481
822.442
408.048
72.3557
45.4452
51.4841
56.5213
44.6864
53.868
43.1087
55.1625
46.1841
62.96
94.3355
61.5501
49.1697
51.8005
67.1463
160.378
255.32
853.893
946.493
67.2633
254.332
74.1644
748.373
118.071
455.777
86.3903
103.82
648.003
74.8089
75.5817
80.3041
104.602
83.6238
962.279
1322.26
64.7885
517.269
585.036
836.073
962.306
79.5297
120.022
158.734
50.6412
73.7891
54.8325
61.0546
697.635
88.2907
134.571
63.0335
58.4902
236.829
638.797
948.293
171.36
623.844
438.24
612.829
418.354
60.038
51.6923
362.791
56.1755
561.421
101.92
302.431
56.1644
59.2445
55.1587
118.061
142.03
84.1727
94.0863
45.6678
72.6093
76.2129
60.9477
226.727
300.265
156.4
891.436
176.909
854.071
412.671
583.992
130.491
79.4796
45.8067
61.7459
45.4141
43.33
55.6331
65.2057
97.0817
60.7057
76.2698
58.9657
841.272
128.352
57.0984
747.643
284.267
154.878
283.525
74.0107
386.926
172.744
483.159
55.3544
198.164
485.51
479.425
172.648
974.833
113.974
299.512
52.7915
61.2091
66.8528
55.6951
51.8323
48.4862
148.225
51.626
478.994
44.1516
214.421
146.808
893.305
451.859
75.9294
66.4781
310.955
46.5274
104.166
165.856
137.24
54.1902
498.336
65.1695
78.1159
63.0324
151.905
50.0917
90.3131
48.6025
127.567
160.55
96.2212
95.1326
43.5303
42.939
49.8331
46.3306
45.5126
136.278
107.718
839.383
550.467
701.37
948.688
84.5166
95.3982
121.988
942.385
92.5011
516.156
890.123
140.397
47.598
120.714
252.152
477.923
44.1933
132.27
48.8511
55.6153
53.0648
118.009
130.463
80.0488
144.518
68.9227
59.5533
65.8986
73.7547
86.7814
105.5
598.957
312.923
182.548
356.96
239.108
185.863
211.623
164.567
155.417
50.3932
60.7619
49.0083
57.4173
54.9187
137.431
64.4644
55.9074
46.9222
59.4605
61.216
54.7922
44.3932
53.6697
78.8977
55.2124
753.573
76.0754
42.8631
43.7267
424.17
899.072
383.371
443.56
57.8004
87.9635
78.2431
79.8491
84.6442
86.335
71.0555
947.509
515.655
204.022
86.2077
450.09
53.6474
733.174
61.9567
884.827
138.95
290.993
490.563
1015.89
1166.01
671.873
670.207
379.165
90.5509
84.9678
792.145
68.1819
70.8231
52.0121
472.365
56.2917
48.4109
44.4398
48.3426
56.8968
218.125
894.452
122.397
69.2248
49.9655
42.9515
43.1531
182.82
149.181
84.0671
178.74
43.6241
43.4308
62.8281
83.1711
86.0176
669.523
159.476
457.379
447.52
858.317
389.811
848.785
849.2
805.789
648.84
738.47
873.294
814.006
345.544
757.516
255.625
333.742
55.4822
309.543
52.9085
102.32
68.8677
81.4956
81.8351
180.107
43.0698
153.603
226.544
149.236
188.271
172.939
832.361
92.5718
574.642
544.416
79.0097
379.606
91.3012
796.829
794.773
46.8524
46.9632
50.7479
49.2579
46.2953
46.4598
44.3104
69.491
129.141
698.07
1006.42
139.3
361.918
97.3508
65.603
64.1951
1011.81
287.276
70.6515
68.0789
58.8415
863.444
80.5716
61.0585
58.5629
587.507
363.422
332.855
69.5009
68.796
84.3343
102.894
98.6662
869.8
98.9461
231.749
873.275
283.019
75.8033
90.6895
625.471
78.5575
150.048
42.7776
42.6662
47.2434
97.486
70.8245
63.3169
61.7504
219.837
226.925
413.807
523.526
344.718
323.222
161.298
97.7947
100.575
79.1214
58.1532
70.8946
53.4661
63.3588
62.506
57.7293
90.4778
187.275
53.6053
56.0345
92.4518
46.7468
46.986
49.2894
47.7124
47.0344
43.1785
43.924
83.3005
92.1819
158.911
55.3522
74.8558
97.581
70.869
78.4131
67.4013
70.8062
44.2119
147.938
80.8457
69.718
260.926
52.4136
300.985
61.1026
47.8561
49.3071
48.1282
67.1131
753.493
44.3669
657.849
122.58
82.2891
86.4618
51.8364
82.9356
143.1
42.6656
56.0638
88.4313
71.9714
70.9802
84.4854
70.0357
67.7095
134.675
548.872
72.9009
66.7844
74.3026
59.7777
149.749
236.845
198.543
103.137
159.839
75.0192
161.976
289.356
47.313
44.3417
46.6177
55.644
44.6438
366.297
43.3642
51.4769
55.1349
1140.17
806.995
371.081
762.279
108.509
708.031
843.518
148.139
485.685
62.4057
88.8067
109.817
139.769
198.269
96.2423
81.8758
45.7624
63.0525
88.2983
292.884
48.4656
58.5191
83.0563
87.2854
528.347
59.6258
56.2592
74.4112
51.3572
46.033
95.8898
51.0868
46.1408
44.5613
43.0551
42.8796
42.958
43.5463
48.2307
68.0043
44.3106
43.619
46.4436
43.046
88.645
49.8678
51.0361
63.8319
50.3781
61.7033
76.1758
56.9009
224.734
62.8878
69.0678
44.352
74.6361
54.1007
53.8167
50.5172
44.3588
47.3633
50.2734
161.614
47.974
116.243
292.512
43.5876
105.838
80.2067
79.1499
48.2795
62.7926
64.169
133.006
85.8479
103.09
90.1218
52.5279
43.42
50.1913
43.6893
50.4352
46.3098
42.7014
43.4264
46.5348
45.5439
168.158
43.7124
50.4294
158.381
113.571
134.212
313.478
77.0526
64.7061
65.0148
45.3046
44.4948
125.066
47.1963
46.7401
47.4501
55.8482
110.807
46.077
98.5415
44.5232
46.2063
74.4124
185.117
87.5945
202.145
55.368
56.6775
68.977
93.6275
71.9169
45.9176
45.7587
44.4477
46.534
48.2832
148.595
63.6537
72.4015
60.7552
66.9814
113.943
43.2022
50.1957
49.9463
51.7526
55.0589
73.9034
516.246
138.967
882.259
255.599
49.5389
122.411
81.6801
670.567
89.2253
43.7244
43.1884
48.3977
51.5151
54.2613
44.3418
44.8468
42.9862
51.5394
534.98
277.012
43.8741
43.3385
49.0613
55.2211
428.528
206.306
198.374
63.9268
163.508
94.4742
132.626
123.635
209.403
509.931
62.4218
80.067
72.7253
72.111
356.762
408.655
77.0413
71.8984
621.112
53.6328
44.0131
101.097
43.6161
88.6278
65.5449
56.3067
55.4581
122.899
44.701
95.2034
332.649
73.38
43.3016
43.4042
53.3917
42.9619
88.4443
42.9433
42.9218
44.4202
212.143
51.3494
47.1393
72.4167
122.371
51.6687
51.5939
49.1524
147.585
82.4369
94.2147
74.2235
711.091
246.166
73.109
440.489
159.82
569.866
44.1986
81.6207
131.709
69.3559
74.5997
139.288
67.6064
83.3412
920.995
207.396
42.9105
62.6368
93.0509
49.0489
50.5102
42.849
97.2565
121.332
62.0853
1076.42
77.1842
121.825
70.0785
120.911
142.352
80.8741
111.673
71.5173
68.2708
172.758
124.837
73.618
99.9208
63.8664
187.999
69.0031
75.978
124.685
310.215
52.1603
43.1471
42.7625
49.1334
52.0485
157.222
46.9975
58.6191
465.078
114.798
175.358
339.417
105.73
100.26
65.6886
54.6685
52.3937
47.7226
59.4689
47.9111
42.6866
89.3176
77.6322
851.999
992.831
74.9281
62.7839
60.3738
136.123
556.689
665.982
123.579
664.203
222.158
85.1642
193.582
190.752
109.131
922.958
110.195
89.9476
474.238
536.696
49.7388
72.2994
51.9666
43.6082
84.403
43.1678
42.9896
81.6223
65.7445
721.6
460.311
59.4512
271.616
171.855
81.1975
104.805
460.613
550.066
94.7546
134.281
148.836
57.4276
45.0567
45.5696
47.1021
96.1016
57.5589
57.7303
953.107
253.2
133.266
70.4448
77.7718
381.417
59.6296
70.534
66.5652
44.7558
56.9201
282.494
173.135
210.856
62.7568
58.3681
55.5675
65.8051
701.583
91.2955
86.3337
60.0541
88.3373
81.189
182.69
222.699
85.2737
125.345
55.9855
62.0466
167.25
49.5389
93.5351
55.8687
63.7949
64.7188
434.111
218.015
134.503
82.2373
111.856
769.854
816.209
125.44
72.3222
242.095
553.411
75.4146
741.955
199.089
362.102
53.8447
177.25
107.663
55.2429
100.567
60.4371
61.2821
216.454
48.965
52.865
70.7602
500.454
62.3221
57.8869
54.574
44.93
193.092
366.643
748.143
80.2646
61.2035
353.3
173.731
77.2089
320.45
53.3817
51.3869
45.7446
206.707
151.34
75.8934
49.0967
97.8867
501.605
194.493
44.5993
47.8279
74.8067
228.988
52.871
147.958
735.635
1011.04
839.518
81.7449
89.1068
69.2238
125.562
789.652
147.531
126.672
111.528
170.239
50.6769
43.5227
43.4077
60.3639
70.3278
236.174
76.1996
66.2982
80.2404
89.4704
157.607
503.236
518.194
79.6715
142.984
723.072
143.461
302.039
213.865
127.184
177.31
61.4599
598.603
175.712
148.228
76.9224
460.685
52.753
75.3528
65.5776
48.7351
633.144
57.1242
636.971
57.7941
86.1015
63.1506
110.372
61.8933
359.306
222.382
69.9471
49.7662
45.6465
145.697
343.215
731.599
635.581
52.3049
467.415
46.4547
65.5827
359.267
72.3697
449.857
957.434
43.8422
533.756
60.3266
61.9424
49.0706
56.1472
52.5495
132.363
478.355
62.0843
353.562
133.213
410.487
60.2388
117.723
61.414
61.8354
47.9921
711.417
267.934
47.3097
416.295
42.7548
68.4553
113.468
264.86
702.451
70.112
122.545
248.427
144.777
190.484
80.3191
79.3493
184.698
932.235
139.222
355.431
931.922
98.1608
119.128
82.1928
73.0221
901.671
45.7483
51.071
582.301
91.2321
737.649
44.0617
43.7934
44.3794
47.6066
45.0585
58.2056
62.713
97.4185
63.3738
63.5923
79.2098
46.5404
47.2205
274.474
760.494
46.7622
791.525
131.338
90.7275
83.9142
71.2734
256.822
103.361
219.028
241.62
78.163
580.782
55.4385
43.1141
43.955
51.1698
167.623
78.4632
158.761
202.841
75.2136
103.382
936.486
53.413
53.4971
843.698
987.799
232.21
476.531
637.932
350.453
613.082
351.692
443.633
149.069
297.418
200.583
159.015
870.067
744.529
793.63
259.998
80.5844
965.483
358.326
356.113
85.9499
297.572
690.691
146.521
260.942
169.081
81.0764
246.353
155.579
899.629
773.533
1080.88
158.272
79.1088
722.542
459.092
651.001
56.7728
48.1563
1010.94
761.964
76.1438
62.9303
61.0464
821.616
1220.09
1073.78
49.899
51.0725
54.4767
66.8646
47.8415
91.5559
49.4975
348.591
409.493
913.493
977.299
706.291
771.993
552.925
116.292
82.1825
55.2941
194.746
210.833
83.3807
46.5266
49.0033
170.628
126.181
584.395
42.758
66.8055
118.5
90.8864
61.9981
110.265
66.0523
201.157
82.4714
618.02
572.655
66.0199
49.3639
90.0943
1088.35
726.371
991.426
83.8952
815.431
739.67
43.3097
887.002
849.164
1040.4
92.8372
47.6301
53.9901
47.2661
59.6084
45.31
48.2611
43.4096
42.7177
787.139
590.571
656.864
508.709
537.874
771.783
43.6757
43.385
50.9455
43.1499
855.601
45.8378
50.3887
58.0735
50.2486
58.3941
69.8792
62.8998
56.7859
51.0545
43.7038
673.423
43.0042
44.445
53.2828
47.4082
72.5662
90.1494
43.6792
43.8173
695.28
118.347
109.772
57.0051
44.9881
52.4703
170.25
115.72
308.673
186.415
43.1808
43.2234
128.451
85.3782
811.82
900.086
610.504
739.031
176.503
96.0734
89.0087
51.9921
46.1186
48.8722
50.4004
94.9549
77.8445
230.709
62.9869
229.501
57.4507
44.495
93.553
43.4095
45.5959
45.8633
130.714
43.6095
54.9039
121.214
43.4435
141.337
48.1144
43.156
44.1646
45.1475
49.311
57.3101
448.107
56.2926
204.595
77.3117
50.36
118.078
174.701
91.6905
177.365
791.928
126.861
98.8475
204.795
417.018
123.675
77.1863
352.096
886.481
92.8783
141.03
727.187
88.118
112.938
81.3558
168.521
744.68
941.003
431.949
798.397
949.135
156.299
134.466
133.304
62.6143
95.6596
64.7241
92.8598
82.2804
73.8785
96.193
76.1302
70.3748
81.8661
80.6601
181.557
126.731
167.698
290.863
49.0603
46.1218
44.0152
45.6296
51.8051
44.1798
45.057
51.3739
143.763
79.7849
49.9173
54.1528
71.9235
44.0573
44.1459
45.732
45.8558
45.9868
161.077
339.657
507.495
325.162
690.767
560.347
69.6032
687.608
345.161
56.1869
42.8292
591.517
499.127
65.8245
293.784
78.9934
67.2229
47.6922
45.4019
100.996
137.807
98.8745
114.59
53.3489
51.5152
51.0258
219.23
95.9097
77.7833
78.2386
59.7885
996.492
119.716
253.531
60.8403
93.3118
267.108
158.479
114.547
85.847
70.3821
85.8232
1185.66
138.104
113.933
70.0145
78.1175
799.574
588.526
872.327
581.223
348.967
47.6034
55.8204
45.8643
43.4994
154.249
191.385
44.0823
217.315
114.128
94.5676
553.872
66.6768
58.4078
52.0617
93.4494
106.183
161.873
533.37
133.411
65.833
390.208
149.479
59.624
759.515
118.613
67.1189
86.2959
139.514
546.288
668.23
310.747
498.711
200.253
204.133
272.305
42.7387
42.6024
43.6897
48.0636
50.795
44.6505
45.4537
123.935
256.285
739.713
127.717
161.442
186.722
687.314
629.145
89.4909
71.2469
51.7485
743.937
91.4519
934.605
58.174
60.1209
49.5906
79.3118
997.475
133.083
93.7282
208.631
61.4608
74.6831
109.813
722.483
409.237
109.086
50.3349
78.7046
51.5403
83.0565
167.607
138.018
70.2334
161.128
82.7852
82.8466
147.955
67.1308
64.4451
194.212
75.7447
77.5383
270.553
49.6886
76.7109
55.5084
69.0058
66.1036
66.0028
58.8986
58.0779
70.7344
80.9736
51.5737
44.9915
47.9895
56.9659
73.7904
108.242
124.433
57.8755
157.481
449.128
42.6968
45.1772
327.476
42.767
91.8867
911.424
940.811
262.524
43.5593
58.6067
62.0447
45.5406
44.9428
45.9222
52.3413
47.3989
57.1876
154.915
48.0338
49.6957
121.958
893.272
69.7724
405.15
135.603
102.322
145.202
97.5132
231.882
90.2496
190.835
739.264
128.202
105.912
240.344
484.296
765.818
51.575
471.289
124.579
147.326
614.341
124.124
311.712
560.267
103.654
555.171
54.8564
46.1883
68.1656
65.3575
68.7022
74.6044
101.95
74.8237
46.7627
60.4845
46.6458
297.514
128.641
269.499
51.2083
513.751
321.661
96.489
104.545
409.125
269.703
79.9239
53.0383
65.4511
101.874
58.1495
116.287
115.555
92.389
120.838
103.115
44.5644
61.2979
61.2149
59.6618
46.879
120.414
42.6962
151.872
45.5374
42.7884
197.388
49.5044
63.267
106.362
58.5485
105.53
45.3223
60.4043
51.866
52.9598
54.0411
60.3634
52.3162
49.322
79.5734
111.934
95.8335
67.3569
45.3829
44.7206
43.7305
61.5887
60.9557
52.3994
49.1945
52.6319
58.3697
58.4376
114.918
60.4096
92.864
65.68
97.3833
60.7422
85.268
87.2454
54.0074
139.199
69.1074
63.0129
44.3761
151.512
44.3448
44.3017
79.7241
87.1209
168.779
159.545
50.7646
48.221
49.6824
44.3755
45.1953
180.465
111.073
110.358
267.254
217.84
110.279
202.822
91.2072
93.4259
156.95
73.054
76.2436
117.551
107.726
153.444
153.635
192.965
298.59
345.021
598.976
550.262
536.926
382.559
550.074
581.524
81.5408
83.9222
81.4891
517.189
182.029
142.489
173.557
131.276
169.046
124.174
81.1951
84.9901
84.6642
84.6003
113.09
94.5676
63.2033
61.0795
76.2579
71.4781
78.4761
97.8304
94.0511
115.457
59.7201
42.9332
43.4074
42.9909
243.408
120.639
63.5109
126.627
69.8498
112.22
63.2178
62.3717
73.9056
55.7413
333.014
226.437
243.897
112.453
221.654
138.834
289.732
251.549
402.096
328.049
499.658
574.964
79.3534
779.694
451.424
70.1564
760.743
1102.94
819.373
833.397
175.073
230.795
477.841
62.8496
93.5635
74.6297
457.928
97.8364
708.775
898.605
297.404
112.749
552.393