/*--------------------------------*- C++ -*----------------------------------*\
| =========                 |                                                 |
| \\      /  F ield         | OpenFOAM: The Open Source CFD Toolbox           |
|  \\    /   O peration     | Version:  2506                                  |
|   \\  /    A nd           | Website:  www.openfoam.com                      |
|    \\/     M anipulation  |                                                 |
\*---------------------------------------------------------------------------*/
FoamFile
{
    version     2.0;
    format      ascii;
    arch        "LSB;label=32;scalar=64";
    class       volScalarField;
    location    "0.0689058";
    object      p;
}
// * * * * * * * * * * * * * * * * * * * * * * * * * * * * * * * * * * * * * //

dimensions      [0 2 -2 0 0 0 0];

internalField   nonuniform List<scalar> 
3926
(
0.804658
19.117
18.9715
43.5598
52.9276
34.5117
-11.299
-128.631
-54.3471
-95.8627
-50.7856
10.1151
18.7097
5.97517
22.3534
17.2782
1.34637
18.3846
27.3051
15.0939
14.2106
34.2204
41.0862
0.807641
24.4703
43.4516
39.762
44.8641
41.788
0.10651
-17.4801
22.7389
-18.1777
-19.5326
-22.0021
-19.0095
-61.056
21.0622
27.9289
9.47554
30.5434
-114.684
-7.32478
13.7438
23.8295
-72.691
-5.87414
-29.7448
42.6849
28.7116
25.3415
-91.3561
60.3346
-62.8989
28.4753
-3.70539
-67.5755
56.5782
18.2212
52.3617
16.6389
-49.9917
-90.911
40.3051
-56.3455
-40.8482
-50.3677
-46.7509
-46.8333
-38.3942
-17.9575
21.5451
-42.6861
14.9733
-17.8859
58.7025
-13.9122
41.2933
41.915
22.9147
53.3092
27.6701
-36.7877
-84.7337
14.6383
12.0226
17.0699
14.2302
-58.4115
26.4315
21.9521
30.2533
17.6181
-9.16074
7.51784
-96.7994
-1.80037
-22.2203
55.8094
-24.5728
-37.2758
37.2278
-7.45357
32.5434
-7.88609
9.79559
25.1201
17.7145
21.2397
22.1492
21.6807
26.6654
34.1118
29.0021
19.6502
58.6784
45.2516
17.7491
5.06145
33.1077
10.8212
12.316
22.3236
20.7444
20.1169
21.1335
-46.9234
32.6372
-16.4594
15.2651
14.3252
5.48878
-3.47603
-10.276
43.6074
35.8547
31.7183
-2.24992
23.5263
48.2051
14.0986
24.436
40.9511
38.7788
30.5985
46.2602
44.3533
26.782
30.6583
32.2911
41.9
38.1618
36.901
46.0947
43.0223
36.7254
30.3098
42.1762
47.7461
47.969
-21.7378
22.2964
31.3704
58.8874
41.7794
35.6886
29.2751
20.9883
0.816668
40.9282
-74.6829
-18.9287
18.0188
25.3909
3.50477
-26.6465
28.2546
51.3905
32.5026
14.9253
57.6142
7.16745
58.7207
11.9702
16.0734
5.00334
-14.304
32.6192
33.9486
32.3687
40.1753
22.8896
41.6983
13.1969
21.9866
20.8001
1.25144
33.5698
17.3583
2.1247
41.4663
-31.5195
56.9324
10.2865
18.0651
29.5443
26.6821
58.1296
0.539694
15.6241
17.8582
21.3168
42.7208
-18.9358
20.9202
53.6234
29.225
37.2632
29.8158
32.9528
1.07034
-27.8819
-7.79012
-48.4241
-22.4584
56.5288
50.2751
8.9724
21.8133
-18.5713
-4.02705
55.1051
7.05639
26.4783
-12.4732
46.0511
-23.7926
47.6817
-67.7594
-4.45474
-54.9825
-1.68714
-11.5314
57.3171
16.2208
31.1814
41.3984
3.88529
22.5939
-141.547
18.6092
45.8448
-82.9429
-15.3571
-9.67935
61.4794
-64.2257
-13.4675
-1.31057
-34.0899
3.3797
39.7849
31.2279
56.9848
50.4953
-23.135
18.1989
40.7657
43.4487
-50.905
43.6006
-72.9055
7.55817
-28.0478
9.44663
14.2699
17.8089
-0.279305
26.5964
16.6281
29.2075
-58.6172
3.10685
34.6776
-35.9965
-42.2365
-33.0659
-49.4955
-56.363
-8.94312
25.7206
19.6637
28.8128
-47.705
17.8963
44.4925
8.47238
4.88019
9.22499
59.4425
-88.0327
32.062
33.9756
27.2265
30.3841
-45.5938
-86.455
-26.8829
20.6044
-9.69762
-71.1856
11.9087
48.6941
17.9082
-26.9584
-23.1952
35.041
12.5094
35.442
-28.2985
-43.8586
14.891
-5.4957
53.9818
41.5707
22.4665
-51.8443
54.116
-71.315
-4.46874
50.5872
27.9104
14.0639
20.1526
18.5889
18.7888
30.3614
60.6521
59.9056
61.0623
58.4875
61.7651
-29.1409
18.0301
13.6277
10.5132
60.8606
56.357
53.2563
61.5486
49.8991
60.1385
59.5283
60.7627
-47.3708
-51.7814
-46.5895
-54.5899
-21.5998
20.9088
13.248
16.8682
-34.3631
-31.3229
-57.1127
8.35435
-20.8917
22.8223
20.7689
-4.91094
-5.64278
16.8774
32.3715
27.2779
-46.7814
14.2262
49.5622
31.7072
53.3818
43.0534
19.3598
-31.0841
41.074
50.9546
24.5328
22.3309
-13.5129
-37.2361
-30.0407
-25.9195
-72.3001
21.7563
-79.8063
-21.6934
14.3138
-24.6798
20.3066
18.4316
42.4764
14.2149
6.64133
-15.6188
27.254
11.7606
35.1393
40.9145
21.2916
18.6819
-27.8927
13.2068
27.7339
-90.0408
50.8535
45.8056
31.0321
38.8613
19.2269
-50.3834
31.0056
15.9786
25.7033
11.2534
2.15292
22.2514
41.6359
19.9372
36.2413
21.0412
14.2205
14.1173
42.9703
14.421
-34.4815
-15.8984
21.2353
23.1767
45.1083
16.2199
-47.2807
21.5889
23.6985
-94.5307
53.9308
4.67649
-0.181622
-74.1807
43.8103
-48.7423
20.5025
16.6611
-94.5029
-8.51744
13.7097
25.9251
6.23269
-38.991
-35.0742
-26.137
-24.6813
-18.3568
12.5618
45.6493
13.9343
23.5366
12.3961
27.9074
0.000825749
-103.679
-12.2671
-6.14576
-2.54344
-0.140203
13.2479
12.195
-11.1522
-12.745
-9.94768
2.09677
13.9591
26.0214
30.9506
-29.9942
21.9147
36.014
14.4926
-18.6378
-70.7056
40.5127
-2.36663
-87.3917
37.7229
28.2043
-74.7615
-61.6596
-28.7159
-35.9545
-37.8764
-27.3334
-18.366
-40.8328
-15.4887
-54.0668
14.3652
18.8577
16.8437
-55.3272
26.3213
-24.0036
20.4524
-43.0435
49.0426
-90.0443
-77.5242
43.9474
40.9509
37.5771
13.2116
41.3022
-205.063
-50.0521
-80.4501
26.9653
60.1114
21.9966
32.5309
44.8626
30.8838
59.8784
56.4003
25.2813
19.4592
24.2734
15.2298
16.862
-48.0804
-57.3473
-84.2519
-116.909
-11.5308
-10.1197
-12.1596
-52.8314
-82.6346
-90.1983
-85.6176
-63.1644
-48.4744
-19.7273
-21.138
-18.7694
-20.3918
-27.9969
-31.8945
20.3785
22.2477
59.1065
8.9508
24.8656
31.7721
33.0935
-24.0209
47.1152
7.60999
10.2153
-5.92279
-6.27833
-69.4051
-54.3767
-41.5883
-81.6823
27.7895
19.7359
14.1594
10.9154
13.0428
-48.4371
-11.6511
-3.77824
-71.4048
8.57278
52.7297
-11.6967
15.9483
25.0139
38.4833
54.7604
20.8208
21.3433
20.3233
19.0009
50.1087
-19.1541
-68.6954
-59.1161
20.2002
23.6584
-15.4795
5.26997
-8.32155
49.9975
22.8935
31.3673
32.02
30.5847
18.3866
15.7825
34.5172
26.5666
35.6727
36.3744
44.7547
31.6348
51.2569
33.9021
25.2356
27.3651
19.8882
14.4671
20.0368
16.5942
14.9217
6.09443
2.65142
-10.511
-62.0866
-55.0567
-43.1969
16.1071
8.29889
8.57789
22.4071
20.891
17.7942
10.0531
42.948
13.913
24.201
-37.3951
-34.2584
-51.6361
-26.4871
13.5356
-13.7589
41.188
-44.971
32.0889
21.3526
37.2544
24.9233
33.81
27.15
18.7863
29.5337
42.3434
17.6017
49.0938
-10.6346
-10.179
-13.6308
51.1946
53.4277
8.82386
12.1928
8.62265
48.8211
8.27678
12.6591
-29.8361
19.1974
7.79595
40.0075
20.6318
20.1743
42.301
-3.22714
-16.9747
3.80802
45.1095
39.7908
39.9708
33.3666
35.3532
45.507
56.3514
52.5563
24.3492
27.7296
23.8566
17.2298
16.9235
40.9584
30.0031
15.4751
43.4018
35.7618
17.7668
19.0173
19.8105
-16.6252
0.119855
4.08607
0.016594
1.81514
21.5932
10.8901
20.0385
3.96766
-4.33096
-7.72417
-6.34292
14.1952
13.5793
15.2952
14.2839
18.5125
31.9502
28.305
49.4707
53.3052
49.4228
34.5482
35.4689
29.206
34.0872
26.9765
24.1694
18.2344
17.9433
17.0844
38.2622
15.5718
-6.21499
17.7082
29.5659
12.8614
33.1963
-2.72901
13.0956
18.8499
16.0092
17.837
15.9218
57.2159
13.9737
21.9522
21.5471
11.0453
13.7259
12.6431
16.1112
19.7897
18.7392
19.1066
18.0238
-15.6956
-16.3063
-68.3117
45.6345
-59.0228
-8.4437
-67.0901
-9.21249
-4.17996
24.6704
43.6945
22.7091
32.33
-12.1464
30.7135
-71.1409
21.0809
-62.1376
-63.9654
-3.97244
25.0366
-44.1041
58.1877
21.0963
24.1872
44.1551
12.4821
-43.5136
33.9614
40.8446
18.0764
19.8644
24.6243
16.1775
-0.353101
11.8666
7.25718
14.8293
16.7639
-21.6175
-24.4947
-4.33244
-23.5608
19.5268
29.1685
33.1046
-3.05416
-11.7049
-45.6372
2.83004
14.6814
-10.0363
-75.6014
-25.4411
-0.232429
36.9688
11.9144
-46.855
8.50085
13.6772
6.02836
13.4996
19.2651
28.977
14.6057
30.0674
45.5152
54.4242
-67.1052
13.3301
32.9961
23.7669
-17.0335
-120.896
-41.3879
-64.8155
19.4582
17.0351
-48.9355
62.3133
58.1319
22.6349
18.3195
-3.66002
17.7847
-12.1286
26.3957
14.9572
-61.5207
16.8189
10.4331
13.3986
-33.8871
3.00265
-21.3151
-33.057
0.817265
-102.105
-25.0628
30.2731
-23.7637
32.0727
27.9905
55.8382
50.4811
22.2813
26.9242
22.8197
15.9262
6.54315
30.8973
39.433
34.5685
26.7165
-60.7906
33.53
57.5953
46.2304
54.086
-8.79982
26.5461
10.0907
15.3804
28.6302
-42.2859
28.8695
52.27
22.2426
27.6456
-25.0062
-22.4842
32.0624
-57.8189
40.8996
9.08426
7.53776
12.5748
16.7062
-6.11203
13.2117
-53.7662
19.5277
4.88288
31.299
17.9089
-25.6951
41.4822
52.9443
14.1514
44.2603
-38.9717
7.5727
-6.74636
11.6937
-85.575
-14.9622
11.4631
-145.602
18.0309
13.1713
16.4173
22.1851
-79.3196
56.7831
-65.706
-10.2865
9.00105
25.7788
-14.6142
48.8145
14.0119
23.5518
-11.7866
55.6008
40.3254
-22.0198
-17.1407
30.9754
-120.559
-50.7383
-1.30831
-14.5682
-12.6727
15.8519
-66.3557
-185.968
14.0283
19.2466
16.4141
20.5177
26.8375
14.5304
34.8138
25.2578
-35.9472
26.6272
-46.5351
-25.1665
19.0769
25.9914
21.8444
32.2723
32.2572
3.98004
4.23869
22.777
-34.9236
-37.4753
-55.6107
0.400096
35.4629
45.7249
-4.65377
-56.7761
30.2106
41.8901
-69.6077
-25.6933
33.1522
21.9066
-28.9876
-3.6891
-37.3315
-39.0443
-24.5262
27.494
-13.0901
28.6067
-17.4725
-23.3956
-16.5159
-5.13145
15.0655
21.8365
6.94478
-17.8889
35.6491
-65.545
-75.2737
33.7736
24.9568
21.6994
-2.47016
4.39216
-29.1951
-13.9595
12.408
12.2855
-15.4966
-41.9986
-7.68896
-20.3396
7.30475
-7.34314
-95.0319
-19.6739
-4.62529
-5.0217
-22.1893
-23.359
-36.9268
-26.7446
-40.4127
29.6026
21.8981
-12.6332
-73.0779
-34.5818
41.9704
-193.751
-115.245
-39.5355
-14.7543
14.6412
10.6858
27.3265
24.0246
17.316
24.271
17.3409
36.8098
50.069
23.8089
21.3395
39.1416
22.0011
20.8232
11.7679
32.3242
24.2952
5.54853
-68.1574
9.33773
-10.7605
24.1148
-75.3544
34.3825
42.1372
-17.8963
61.4782
53.4832
-62.4046
4.46472
32.8406
51.2399
46.9098
6.10354
49.8705
25.0534
-73.1203
16.9621
20.8505
13.7539
15.39
18.1138
-71.3071
6.00141
15.5695
56.4457
-35.0851
-75.4746
14.301
26.047
21.9307
58.3607
-27.8435
45.6742
16.4772
21.9615
21.8663
24.2144
19.5672
19.0774
19.4485
25.8169
26.4087
14.4297
40.5892
12.9948
18.4367
25.0018
21.7748
19.7517
10.7735
17.4704
24.8259
20.4545
21.1354
18.2587
10.8101
33.6309
57.8167
8.17002
50.4382
9.02497
22.8081
17.5303
13.6156
16.0352
18.462
-62.9546
-64.4706
-85.7078
-8.11743
24.4096
-41.7556
-45.6111
1.4435
38.7831
-8.29526
-17.6147
-49.5137
1.28562
19.7624
-18.3057
8.43265
40.1465
-42.557
-33.7797
-51.4306
-23.8947
-34.5819
-5.70354
34.7918
52.8232
-35.6026
-4.53225
32.8435
59.1233
58.7184
11.1838
-13.4658
11.3047
-76.9192
42.6035
31.8688
57.2592
11.8773
61.1048
59.9242
-38.7786
-47.1514
57.4478
56.331
44.4815
22.5614
-177.897
-29.238
-42.7165
41.3812
18.4666
28.0436
-67.529
-206.402
58.2148
58.8287
48.6427
45.0157
48.7351
50.53
33.8204
-77.5651
-115.265
51.6003
47.8673
48.1114
29.741
34.8043
-16.7557
16.3771
52.3236
49.1971
27.5102
16.8992
57.8136
54.5317
55.6454
48.5125
-18.3097
27.8941
31.0386
29.8839
26.3028
20.2062
13.3877
-51.4311
-46.0883
-51.0726
-30.538
17.3002
-69.7773
-65.8911
-71.4082
-59.2141
55.0954
18.0229
-115.504
-86.9657
-158.936
16.4045
-43.0983
20.7775
-47.9516
-42.8196
-42.0847
-45.4531
-22.6142
-31.157
-24.2897
-50.437
-67.6647
-21.278
-104.992
-31.1262
-67.5789
-83.2715
-0.623691
-6.87324
-7.36308
-4.21536
-19.2374
-15.8759
16.5693
11.4208
12.1085
8.40175
15.6841
27.4245
13.9583
23.657
38.9617
16.5274
16.9738
15.8327
15.2915
-12.9501
22.3288
26.9011
11.3865
-8.92593
11.1597
-27.0101
41.8751
-31.7921
-17.805
-19.5485
-14.129
-44.7994
32.5222
48.8203
19.9084
30.6595
27.3319
13.394
33.4343
37.4884
11.9639
22.7834
47.192
58.3101
22.3751
53.0856
36.875
36.391
40.496
27.6179
-59.4861
16.3362
35.4471
33.8044
33.0444
18.7189
12.2945
32.8377
58.5059
28.2767
26.2097
33.78
21.6945
12.2604
-8.3967
30.5916
30.5234
-31.0282
-34.812
11.7086
-52.5066
58.5578
32.631
58.0101
48.3555
-224.175
-10.6378
16.0703
-19.1365
21.7083
46.7627
12.0134
24.8062
19.8982
16.9763
18.0707
21.1528
28.4051
46.6167
23.776
21.4274
15.2798
42.9075
36.9367
47.1671
25.1747
28.241
-10.361
-0.924846
-3.65916
19.1098
-4.1109
-110.269
-75.8622
-45.3039
-42.855
-0.960246
12.396
21.1002
23.7743
-5.11401
-20.7089
-47.2212
0.490366
-45.5115
-61.238
-40.8367
-13.8476
18.1665
28.5544
13.3236
22.6364
14.786
2.20459
13.2331
-4.29749
0.256617
11.8914
12.9998
8.72077
20.4695
-48.1797
-82.9855
-18.101
8.89361
10.2188
20.0325
19.6853
27.1597
-5.58908
42.8196
59.6465
4.61654
29.1961
42.1849
26.4477
22.5397
-5.21063
21.1831
43.5824
-8.03275
-3.08513
19.1279
19.0759
31.9848
47.5283
31.3085
-29.8175
-2.01201
36.6608
24.1445
18.4516
39.5636
-36.2772
15.6255
14.0855
51.9245
-10.5263
14.6947
14.5279
31.458
34.2777
37.9182
14.2364
-0.395726
23.0611
59.6048
-30.2333
17.4215
-38.2279
24.7348
-20.8164
-105.562
16.528
14.966
13.5122
12.7186
15.8815
21.3093
18.5004
23.7032
14.8395
25.9748
-53.6457
-17.0969
-38.8872
6.25781
-42.9769
-11.7216
-22.902
-31.333
-47.7646
-42.6254
-2.22438
12.1587
-87.3323
20.5846
-47.5801
42.6375
33.8269
-55.7092
40.5975
44.7154
46.6245
47.8613
40.1094
26.6875
33.485
14.3947
15.3609
60.9777
53.3607
12.5428
31.7953
-80.0091
36.8972
37.0318
46.7268
58.5825
10.481
10.7871
-71.1968
25.1311
11.3498
-10.3948
17.0827
21.0692
-29.4962
22.4132
-4.84164
12.4151
9.81428
1.56265
-71.3655
-4.92689
22.3618
-28.4257
38.2476
-55.2712
27.1081
-85.7963
-95.2653
21.8919
15.7782
20.8384
7.45778
54.8752
30.1754
53.8702
5.62818
21.5648
-71.9661
2.99582
-39.1201
-42.7154
-4.33531
-29.7113
5.10361
11.9731
11.135
17.3874
12.7469
35.9217
4.11042
53.8732
13.1548
0.233797
49.4999
55.0257
-90.199
8.01868
-32.5858
-40.5442
15.0688
-0.723953
-25.4957
38.4848
37.4227
8.79502
33.2459
21.633
13.7136
-2.74222
-23.4728
-14.403
-21.5932
-18.4156
24.1099
29.5552
45.2322
34.4104
52.2463
-14.7719
15.696
17.1709
11.8932
9.03562
11.6596
52.1358
51.2924
53.5363
55.5066
53.6989
56.6519
43.5511
-6.37084
-4.09051
6.8959
-0.383163
19.9012
8.56396
22.5474
27.5019
21.364
-34.4232
2.30042
-22.3948
-26.5263
-44.2133
25.1954
25.3051
36.0885
32.984
30.1028
41.1023
44.933
59.3649
26.0084
35.599
28.0017
51.1179
55.1979
13.1029
8.5521
57.6651
-14.8943
61.1857
30.2292
35.2794
57.5801
45.9399
30.2327
29.8434
27.3136
51.9298
58.2408
21.6317
-57.6558
16.0423
50.5754
-66.3163
-33.1762
61.2047
56.9433
56.2953
61.6389
26.8971
24.9709
27.9485
27.6715
60.5772
-70.3194
-18.0963
-51.1941
-75.8389
-28.9154
-2.25974
-32.5268
-39.1682
-52.7924
17.1648
12.0893
45.9235
25.0605
29.1435
29.8417
34.6884
28.0053
24.6382
-41.8924
-11.2933
-9.14489
-3.7338
-8.65011
-68.9368
54.8525
55.179
54.4131
54.4186
55.3594
52.8272
-13.1544
18.6209
-2.3195
-45.9513
9.8534
8.82634
-36.9616
28.9152
-7.96508
-63.7455
2.73188
-106.445
-60.6489
-77.9315
-85.7997
42.6604
-113.08
33.1072
55.9238
19.8074
-123.184
-55.5183
-4.17223
-26.8792
-23.0485
-51.0687
24.9509
-54.5018
-61.2674
55.0066
-46.4876
-70.6056
-65.1406
44.3163
56.7267
-16.7106
54.2868
49.5281
50.7126
-68.6618
49.8133
15.9495
-45.2474
-46.9521
-47.0325
36.2534
22.9576
25.7339
45.4565
51.5412
45.5728
43.3282
55.9091
56.245
58.4409
57.5491
-75.6439
58.7934
24.0578
-56.9144
33.0353
-77.5231
-84.4581
31.8992
51.4098
34.1519
-66.7557
-47.5579
-37.4603
27.7596
34.3542
30.0207
21.1671
35.1707
-46.0561
60.1041
60.1697
35.8395
-70.8414
-78.8672
-90.8529
58.1789
27.6721
-101.173
-90.0591
32.1425
35.6137
18.5835
37.921
7.3216
27.1853
25.1912
21.9847
28.7352
35.9325
36.328
58.0409
59.7328
39.1256
16.1574
12.0975
6.71524
36.6881
39.9853
21.7283
19.2701
9.69941
16.8841
28.8691
48.6884
-68.9011
39.9715
47.4708
49.0176
40.2596
-6.50032
27.157
-14.4574
-12.2812
-5.72067
-2.76111
-11.7821
8.91025
10.6405
0.405978
5.28783
17.8063
27.0724
27.6112
22.0854
22.3518
-146.955
16.8701
32.9989
7.92963
40.3143
60.3816
51.4626
-29.6581
52.1852
19.991
17.4421
54.6795
58.6446
52.3314
49.1728
42.3255
54.5756
60.7168
49.1214
59.0659
40.0598
-40.1674
-46.0077
-65.8163
20.8647
-42.6144
14.5179
16.032
13.1956
12.646
10.1405
-35.0516
-3.47869
-25.4327
41.7761
12.2311
51.2895
53.0244
36.3023
58.7876
60.9
54.223
56.2709
-43.0845
57.2373
-30.5251
-13.0276
-88.3503
21.0382
-30.6701
-36.7041
22.1097
9.61365
9.20042
-18.0767
-12.9342
-9.97113
-54.4626
-10.0432
2.21883
48.7475
-17.9465
25.3552
-10.8146
28.5271
23.8037
30.617
19.3675
-34.0386
-67.5197
23.7913
21.1357
20.8864
21.8586
15.5079
19.7902
18.4792
17.278
41.9928
27.5055
22.333
-16.6467
15.1601
7.00579
12.9825
23.5931
-139.849
40.5919
36.0925
9.98107
9.49108
1.37347
-15.557
0.234134
-21.3781
10.5479
11.8786
14.8958
10.3925
8.03843
22.0847
13.7101
20.2049
18.6571
-56.2622
56.3628
27.3787
26.4623
-80.8743
10.9362
29.3721
1.43575
-38.1415
-46.5817
-41.7133
57.8155
-102.941
-96.685
28.7072
-72.7203
-72.7558
-5.90172
2.88166
8.98664
-16.1473
-60.717
-7.06451
-56.981
19.0399
15.0136
32.4723
34.2623
9.86759
8.56346
-72.3179
6.61574
-27.0011
-9.60634
-14.8809
-17.7273
-15.5921
-21.273
1.55601
-33.3661
-195.829
-8.10384
11.2697
35.9865
36.6148
14.8828
23.122
18.025
48.1335
19.6739
12.8944
21.598
16.6036
21.7044
27.6976
26.4211
32.4605
52.3876
35.3825
52.775
-17.0671
29.7624
57.5883
45.4735
49.259
53.7618
37.9333
-42.7335
16.2344
24.7694
-1.44333
-63.656
3.21196
27.7235
5.05662
28.7579
11.0796
20.7662
-7.71623
-20.6281
-11.9289
-9.07687
-15.5383
-18.2403
14.8236
0.452562
14.4419
13.8743
-53.8384
-4.77683
-72.6463
-35.0578
30.3695
18.9956
29.1044
26.6795
43.4538
-48.9525
43.6577
-56.9785
-27.3782
-19.5781
-34.192
-82.3047
-24.5898
4.65423
-51.1284
-32.2698
-73.3941
-85.9514
-33.1691
-102.134
-85.095
-92.4191
-72.2943
16.3561
-30.0505
-0.114314
16.619
26.7848
23.1415
54.317
16.0779
55.016
32.7966
48.5132
41.8048
24.419
17.2534
30.8695
7.71654
14.3733
-27.3318
-47.3855
52.4053
10.4674
-87.6281
-84.1187
-34.3241
-33.1345
14.5433
-5.02717
56.6424
-117.688
45.7874
14.5563
18.574
14.2235
16.8341
28.1932
9.55573
20.0553
35.0974
24.4234
40.4562
48.6159
39.7272
31.6521
33.1401
29.4921
54.7709
12.4891
-130.169
-96.6245
42.532
-29.3255
34.7542
46.4117
50.6945
60.0607
-5.79469
8.53974
33.6205
-3.63582
-21.5736
-22.3925
-26.0718
-25.6823
-130.478
-86.9527
1.57658
-58.0259
60.7841
58.4734
37.7526
21.1051
-16.6281
-25.2618
15.8592
-0.273541
6.87001
10.502
-74.73
-24.4571
-16.2502
-11.3399
-3.66842
-38.7768
-58.376
37.6595
49.035
-60.4205
45.3848
-53.7924
49.7681
-2.162
13.2521
-38.5391
3.11028
0.148757
42.2618
56.9316
12.4731
38.3663
16.3186
-30.3311
-13.6262
45.0129
2.43662
24.802
2.18585
-10.6721
12.59
-28.0396
-44.735
-36.8457
-114.076
-1.02377
-94.8573
-46.6562
-61.3851
-30.3241
7.04077
20.3474
8.84228
19.3701
16.2249
16.2066
-14.5876
12.4764
0.688871
11.5424
2.4924
36.2223
11.1918
13.3711
58.2629
16.7085
42.6389
57.3102
45.6961
57.3712
47.9602
58.9967
8.73356
44.852
53.4679
47.7828
41.1217
-184.236
-16.3421
32.8806
10.7203
15.2071
18.9259
5.60453
11.9903
21.064
-3.66451
19.7023
-56.6849
26.5845
23.3302
54.9003
37.5198
-47.3118
33.7963
22.4952
59.0148
30.1529
46.6061
54.5394
50.1801
14.2794
-41.2544
-11.6749
-20.0807
7.32252
-12.4529
15.6287
12.1859
16.6362
-13.0829
49.2145
49.3672
-20.5199
23.6922
22.799
30.924
29.0764
28.8579
15.3843
23.0313
-68.008
-60.1595
-64.463
-70.0893
5.71997
-16.1116
-19.1891
-115.4
-15.9976
45.0675
56.5979
42.724
15.8216
45.901
43.269
6.31854
19.3199
-10.5749
20.4531
11.5333
18.3592
14.9865
21.851
24.2393
33.4918
27.3377
27.9985
25.5559
24.6315
22.1027
-21.6709
-43.7008
-36.7663
50.2373
46.5074
28.4784
47.7867
42.4965
15.2888
29.9186
21.5904
7.31064
21.7887
39.0061
32.3697
42.3823
36.4745
37.8656
24.9047
31.8357
15.4478
17.5807
18.5701
15.3358
-13.2269
15.3022
60.7754
14.4417
22.5468
22.2932
41.4013
-68.4671
-39.2333
-44.9402
0.776549
-30.1085
1.04727
-13.5403
-12.8374
-7.74259
-20.2881
-82.3093
-58.3824
-31.855
15.7292
-63.7179
11.1979
24.7853
24.205
-96.2158
26.1781
27.3912
-20.6679
-113.559
-219.027
-41.1925
44.5943
-38.3657
15.2267
-11.8749
-37.9974
13.7047
3.04071
11.7844
-64.2936
3.06859
21.5474
22.5561
26.9427
17.1642
57.5429
-78.5276
-28.2927
39.4251
35.1335
23.6312
25.1655
-3.271
51.0297
36.9311
55.2294
16.8358
20.2459
-2.7842
-18.7629
-18.3423
-70.1486
-21.3159
44.0909
-58.5979
-73.1339
53.9675
-70.0777
58.075
-179.876
28.4509
19.7567
-79.559
-70.4533
59.438
-67.8889
-39.4554
-46.7628
37.2211
47.4566
25.3209
-19.3538
-8.37254
-21.0279
-21.7277
-10.4042
23.9595
-38.6719
47.9413
9.31122
53.3276
-4.22754
58.7428
-26.1785
49.0213
45.4791
-18.4784
-42.1036
45.9814
52.5248
48.5044
17.2106
20.4208
18.2682
21.1832
20.236
32.1432
21.5469
34.9895
39.461
-56.6364
23.6922
29.1085
-54.4538
-13.1139
-6.25647
-9.77107
-75.5617
-31.6577
-5.41376
2.32373
-2.47267
25.5505
-0.453327
0.778766
5.83358
-64.1387
-62.047
-48.1814
-16.8935
-18.4847
-17.656
-28.144
-1.90696
53.8021
12.0237
58.1835
56.5444
58.5432
-9.87556
8.56309
58.3157
-5.97258
45.6666
17.9427
20.4894
30.0193
-18.9126
-8.21546
-10.7592
-4.24203
-13.9159
-27.4192
-18.5248
-36.7253
-53.1118
-31.971
50.1169
46.4063
41.9285
46.3657
21.2269
20.0691
24.8946
40.0633
31.2244
32.2323
1.45028
-34.3584
19.5328
16.4131
15.3464
19.9275
20.265
33.8812
32.3569
28.6735
21.9873
21.9576
29.6348
20.2688
38.7603
32.152
-17.3222
-14.6301
-10.4552
-14.8401
-18.0469
-19.2493
16.3074
-13.9723
-9.25085
-13.1293
16.2685
27.697
2.55589
22.8177
17.6187
17.2416
20.3785
43.9915
-61.8162
21.3394
-57.936
14.657
-23.2029
-24.6667
14.6339
-25.7469
-29.9874
20.3706
14.7806
-0.738714
-22.414
-23.5347
-28.6208
-18.0826
-19.5753
33.8039
-26.2138
25.8565
20.6173
18.7583
34.2259
46.9791
31.5942
51.8454
48.9255
28.5832
28.9287
45.5186
28.841
29.4156
26.6498
27.8587
17.4385
25.0864
-33.5205
18.2909
16.477
34.7943
-71.1294
-94.708
-44.1795
1.87398
42.1025
44.1962
-64.1222
40.6066
48.9366
-5.54319
5.56396
4.9086
-16.9102
-38.1562
-8.95487
-10.3627
27.4593
13.216
-5.13447
-10.6733
19.3199
7.6539
14.7889
-4.40659
-58.8618
20.5593
23.9664
37.4359
34.352
28.0264
35.1829
33.9795
28.3923
21.0705
23.774
18.5335
22.5341
17.3149
17.2336
-16.309
17.2542
20.7489
14.8108
21.151
3.83589
27.8673
14.4756
10.8598
13.9515
-6.3209
14.7502
22.9631
48.1385
40.8758
39.1993
17.8193
15.1406
22.0508
28.3194
23.7853
27.3769
30.8732
17.0311
-1.57887
20.6056
15.0925
-42.7446
26.4349
-13.228
11.0315
-10.2444
19.2417
6.77082
-15.2878
-31.5929
-21.6349
-17.9087
0.127985
10.4765
19.0682
17.5915
21.5968
17.3579
22.8391
22.6479
24.6825
26.5747
26.7607
33.9114
25.4958
12.528
-3.29108
5.04752
-14.7039
4.52765
-7.30312
-11.662
-13.193
20.6067
23.0866
-0.471012
18.755
16.0288
18.6364
18.2304
43.2133
25.0834
47.1744
17.625
20.0001
-16.7776
34.7132
28.7078
47.1788
33.5368
5.05699
-1.34158
-16.506
-18.3056
23.7387
16.6913
22.4027
22.623
33.9396
56.2929
9.33156
42.7101
14.8327
42.6645
33.2172
21.6459
24.1967
15.217
17.1032
9.15376
2.51648
-65.6693
-24.1607
-162.406
55.8131
31.3594
-24.4412
-1.18944
27.8905
0.0430096
22.7469
23.5298
32.1524
14.2662
37.1251
20.1519
19.6295
23.5496
35.5503
47.5319
57.2832
21.9847
22.7199
28.5316
16.927
46.7053
23.0176
28.1242
-11.6932
15.7761
-29.2157
-8.87237
-18.6646
-16.7915
-57.514
-3.73643
-20.1964
-12.3923
23.061
50.304
58.9042
-20.1807
-22.215
-57.3177
18.8101
26.4646
-11.0186
24.7629
46.7504
7.52373
14.8082
2.23068
4.26366
23.8786
0.25099
-40.5983
-4.08702
22.6123
21.3862
22.9868
21.2149
14.7914
20.5415
20.6819
27.53
35.5064
32.3233
29.6601
-24.7365
47.7802
29.4514
29.5051
33.5537
-4.34044
-3.0102
39.8925
-22.1476
-13.7794
13.8605
-12.9184
-47.4689
-33.2316
-69.6424
18.5599
12.1059
6.96606
9.82332
32.7963
-7.31627
3.87339
23.641
-44.1399
-38.4621
18.0084
6.25889
9.44342
16.9272
15.3539
20.6494
21.5363
52.8927
15.91
-79.8894
11.0031
-17.6469
3.87562
-19.7156
-16.7842
-22.0228
-31.5986
-19.3952
-13.5709
-32.6748
-28.1417
-19.8947
10.9511
-2.72113
-15.8793
-15.9358
38.8531
53.4746
32.0261
26.6868
23.3581
20.6555
27.7718
35.8983
37.1964
17.9072
37.8515
49.3726
49.3903
-7.37702
-43.7676
-23.436
-16.1526
-16.7202
28.0501
9.69843
15.8315
8.66705
29.0561
21.1311
10.677
-13.6143
-71.6188
-91.0962
1.48179
-9.71677
33.9041
-7.33877
-63.8751
-68.7475
-16.8086
-69.9358
-35.5098
-24.6299
-32.243
-29.9386
-28.3321
-143.752
-27.5275
-27.9864
-49.6074
-63.6879
14.987
7.02472
13.909
19.69
48.9423
22.6368
20.0951
42.0951
18.9927
-98.7179
60.5494
24.9846
58.9739
55.3905
39.4502
14.7949
-2.18238
-47.6248
-17.5997
-10.5563
-25.971
28.0116
19.4532
17.3806
17.926
43.6742
2.54199
2.59542
-114.425
47.7849
-30.2131
-2.79254
1.40187
-40.0865
-0.889052
-15.4011
-14.5171
16.4654
35.6156
-44.1149
-16.7449
-33.4131
10.5764
1.21982
9.44052
12.4271
-63.7173
-27.518
-23.9112
3.27332
-25.4621
-24.5599
2.17969
-23.9205
-24.6162
-13.2368
9.64637
-1.76528
54.209
19.2148
20.9174
15.9289
35.5107
36.6577
-16.1376
50.2709
-21.3794
36.9371
25.6003
-115.493
59.9853
-9.4516
-15.9971
40.1858
-14.2983
27.4793
-55.6255
-6.24444
-45.2004
7.3438
20.3818
-25.8001
14.5366
6.10512
-0.36773
-2.18545
-17.8916
13.5062
23.504
32.8642
59.7594
37.6395
30.6718
29.1733
27.2364
-35.1051
-45.1023
-76.0114
-9.31927
-4.07862
-45.7109
35.643
0.425111
28.0315
12.2554
11.246
24.0423
41.3739
46.1864
-3.3591
16.8385
37.7198
-19.0774
57.6695
25.3301
25.2757
16.5455
5.91239
19.4532
-26.7599
-15.6715
-62.4984
-95.3391
-20.7195
-8.94871
-21.1945
-2.63019
-33.3732
-34.4273
6.43435
4.29972
-2.86081
14.0723
19.0246
19.2959
-2.9034
19.1196
-25.8821
-3.43204
-1.31474
9.3329
8.00701
47.8309
42.8274
56.7109
32.9776
42.6653
55.1071
34.8013
52.6583
39.3447
47.0087
54.2793
38.0059
60.79
53.2779
54.1896
7.85679
52.4688
22.6488
37.7938
23.8764
15.6843
-63.9483
23.1663
-65.1101
14.6172
-24.3926
40.8655
46.7199
41.4813
56.2644
48.155
26.8527
29.0101
27.5672
-35.3841
56.7713
-83.9854
-68.158
14.5503
-42.5813
29.2264
45.5923
-49.0463
45.9277
-50.7781
-67.0064
19.4993
-44.5703
36.9348
37.2819
25.3664
7.70718
18.2242
-18.1835
-58.9158
-9.56043
-46.3538
52.0287
-74.0021
-3.20103
-18.3713
-5.44562
-9.58
31.7756
-110.578
-45.8821
16.2483
-11.3413
20.4627
13.7799
-26.3148
57.701
55.0948
21.5949
53.8551
-40.7249
51.2636
-38.7022
-19.9874
43.6033
53.7453
25.1854
-17.7812
48.9556
-89.5332
-21.8461
-26.3301
42.8115
-19.1472
34.0037
17.5669
15.1209
25.7776
14.0187
57.3771
27.3187
26.4334
26.4753
29.8122
28.7197
4.20849
5.25844
4.59602
3.08331
7.34401
3.90352
20.3917
18.977
-46.2959
-62.6946
19.0151
53.1767
13.8774
11.6628
9.87955
12.6174
-24.1496
-24.1321
-31.186
-40.5449
-15.9403
58.188
25.7457
18.1027
22.931
15.5975
10.2571
12.1419
-12.8862
-12.5544
-15.9735
-23.2382
-81.038
11.6355
8.13104
27.4348
36.6357
-34.378
-43.7465
-58.9237
-41.4099
-52.9022
-47.3253
-50.1127
30.0949
19.2146
54.9138
44.3039
1.35644
-22.4973
-84.2833
34.1202
45.4155
28.9828
58.3693
58.8891
0.692103
59.8
18.5693
33.6381
31.3735
2.82357
-23.5618
-36.8246
46.0365
-117.475
-119.364
-82.5194
-29.8478
-23.0612
-55.4446
-54.9194
-51.2503
-0.0693074
29.718
54.4634
55.7056
-7.79668
3.03529
6.79764
-164.521
-89.9418
-116.486
19.4096
16.0184
15.8897
41.6836
28.5849
49.2469
27.9461
55.4295
59.0264
60.5986
60.8918
-75.0264
60.2533
56.7549
52.3844
23.8808
37.6696
58.021
55.5435
43.405
32.8649
30.913
-19.4142
52.1259
-33.2056
20.4439
26.5304
49.6106
48.1906
32.471
46.7419
37.5614
34.5947
-27.4173
34.1054
12.0218
30.7222
18.0668
8.95209
-90.3638
-85.9375
-66.8354
13.1348
-64.4576
-61.3103
24.9529
-118.109
-127.865
-91.0976
5.91754
16.8055
14.1134
16.7499
13.8808
29.8808
30.824
23.7659
21.8671
-85.5565
-25.9092
-61.7787
-41.5725
-5.98315
-66.147
16.5781
17.4043
13.421
23.3665
27.3793
19.2797
32.7771
8.34474
20.7051
3.51406
9.45637
24.2001
10.7334
17.5191
26.3692
61.8038
21.938
16.9699
15.1325
17.7039
11.8088
7.45168
22.6265
25.0238
47.8223
35.1193
21.4165
29.4987
27.5237
7.2317
6.71164
-9.68966
-39.1983
-11.4964
20.4453
21.4127
15.1143
46.6896
-99.6659
-145.342
-73.7347
-57.3098
-1.72689
-29.9806
-17.8872
22.856
18.8585
16.4767
13.1668
11.9725
20.0235
34.1671
2.68883
-2.46777
14.5326
18.3245
10.2527
23.315
18.1523
18.1271
27.5059
20.5414
17.576
14.8667
24.0777
53.7339
29.1332
20.8709
22.9654
28.9668
34.9955
33.9565
58.814
36.2125
39.4384
42.2518
23.3089
44.2468
54.5271
49.5916
33.2934
-25.8483
-26.9205
-31.9973
-39.1626
-54.0666
-25.785
-19.6644
-47.1086
-195.814
-19.7967
-30.9038
-61.2614
-29.2835
-32.0723
-24.3617
-35.0663
-57.0043
-117.539
-24.733
-62.4454
23.9093
-30.7181
-29.5869
-3.8438
-7.46063
-26.74
9.16986
-25.243
-11.0166
-19.4033
-31.9163
-9.63544
-11.6353
-19.1262
-15.2496
-21.1905
-29.4181
-33.4249
-40.4103
15.079
18.0687
26.4045
18.6775
33.3478
20.9467
29.0904
14.6891
31.0534
31.5485
32.7533
32.87
35.6753
27.4957
21.2184
28.2091
24.0074
23.0122
-17.4075
-45.5406
40.7042
52.8064
-65.9788
-60.3926
-12.8067
-61.79
-42.3556
15.1043
19.3834
-2.36942
59.5975
30.5589
-47.1923
-16.4402
4.35893
19.5769
22.6904
12.6157
-16.0408
12.227
0.247925
12.9285
13.2838
14.7809
6.70365
7.0825
8.62705
11.2034
13.325
33.8444
20.4646
-27.9358
9.4591
-23.3708
-34.2507
-16.4429
15.3846
5.80542
-0.731942
-21.9779
-71.5269
-31.5075
-19.237
3.37608
-21.5435
-125.602
-47.4388
-82.1689
-67.245
-34.7281
17.905
37.6991
29.0261
25.7395
54.753
18.1795
23.21
51.3953
44.2506
41.5603
50.9278
10.0319
13.1918
11.1263
38.6584
7.34668
46.7558
30.317
-14.8473
-19.8295
-59.7629
-34.7512
14.4951
-8.26422
19.2358
-15.4852
-27.5916
-33.7391
-60.3397
-77.0657
-51.3243
-48.1302
-39.4247
-33.0647
-39.2578
18.5696
20.7541
27.1627
16.6485
26.4237
21.9301
24.417
55.1676
42.2857
13.344
41.4063
-1.7248
34.8582
27.5364
-31.9406
-31.9329
-5.24941
13.3805
-66.673
-11.4837
-61.177
-2.0544
-8.79568
14.7074
-20.5573
-62.5452
-34.1534
-26.9657
26.663
38.8417
-13.143
27.7093
-27.1044
-64.5391
-2.15255
13.3617
-17.7321
9.1521
-21.2928
-33.3202
-26.1385
-18.9645
-13.6699
-25.8033
-19.7404
-17.8275
3.68038
13.1172
9.61138
17.2095
24.5444
20.9134
27.8691
11.2293
36.1206
8.11833
44.1136
-5.21848
36.217
5.10885
-6.70751
-12.1509
12.1254
24.5562
24.2366
28.8826
38.5272
42.465
52.7272
31.7976
55.7117
57.1846
19.7919
15.4179
-36.1231
20.178
29.5268
-76.0085
-93.5978
-30.3945
16.6253
34.2589
33.9013
18.2596
23.5339
26.4902
18.9595
15.5769
-2.603
5.03613
16.5618
14.8312
41.1398
-10.0836
32.3365
48.7837
54.106
49.8463
48.3467
31.8591
44.1053
46.1431
22.9482
62.2615
38.3793
42.7168
49.1939
44.1737
-191.138
13.8336
-57.3313
49.5115
-15.4231
-57.8879
26.9511
15.1763
-50.9422
-15.9107
23.8666
33.6975
20.7662
19.1457
13.6462
28.3372
19.2601
33.2262
10.6137
18.2987
15.9099
29.5782
49.2096
52.8285
49.3633
36.913
58.874
53.559
48.7859
50.4853
59.473
55.4629
28.4881
36.3282
28.7711