/*--------------------------------*- C++ -*----------------------------------*\
| =========                 |                                                 |
| \\      /  F ield         | OpenFOAM: The Open Source CFD Toolbox           |
|  \\    /   O peration     | Version:  2506                                  |
|   \\  /    A nd           | Website:  www.openfoam.com                      |
|    \\/     M anipulation  |                                                 |
\*---------------------------------------------------------------------------*/
FoamFile
{
    version     2.0;
    format      ascii;
    arch        "LSB;label=32;scalar=64";
    class       volScalarField;
    location    "0.085047";
    object      k;
}
// * * * * * * * * * * * * * * * * * * * * * * * * * * * * * * * * * * * * * //

dimensions      [0 2 -2 0 0 0 0];

internalField   nonuniform List<scalar> 
47425
(
0.277604
0.309479
0.29549
0.302352
0.444675
0.298095
0.402617
0.305029
0.366887
1.51205
0.314358
0.322399
0.345174
0.296083
0.288262
0.315085
0.291473
0.315325
1.05739
0.502673
0.300535
0.287854
0.301382
0.29577
0.293427
0.277467
0.280057
0.7876
0.278022
0.282537
0.292894
0.316018
0.356124
0.281805
0.273617
0.293313
0.285226
0.363339
0.28831
0.297614
0.346035
0.7304
1.07542
0.3784
1.66705
0.324507
0.314479
0.350646
0.286049
0.278787
0.743166
0.586738
0.27737
0.863536
0.352145
0.351652
0.28011
0.280391
0.381044
0.290552
0.823417
0.831718
0.910238
0.302564
0.364462
0.282278
0.341099
0.345629
0.848919
0.294762
0.288399
0.273957
0.276812
0.294171
0.954269
0.368709
0.974927
0.291875
0.833372
0.500395
0.941804
0.295579
0.289837
0.348596
0.339865
0.300438
0.274098
0.271439
0.495794
0.555324
0.289181
0.322368
0.280065
0.363855
0.375154
0.357489
0.279326
0.281258
0.296293
0.346868
0.334366
0.403844
0.29095
0.420465
0.284103
0.350699
0.29691
0.306707
0.464213
0.307398
1.37047
0.31856
0.405992
0.342218
0.307246
0.773607
0.302837
0.598283
0.320444
0.313311
0.307598
0.362698
0.342896
0.32618
0.337479
0.370909
0.303173
0.364887
0.342746
0.280439
0.28878
0.308312
0.46912
0.331389
0.578268
0.324761
0.29027
0.376496
0.293796
0.291477
0.354005
0.337691
0.315038
0.436788
0.311279
0.366223
0.411885
0.339856
0.346765
0.361577
0.44076
0.759121
0.360297
0.762822
0.308133
0.303476
0.316714
0.884294
0.330192
0.308091
0.314164
0.278067
0.272667
0.291407
0.731423
0.800539
0.337755
0.944541
0.323328
0.84202
1.13687
0.330211
0.353841
0.296236
0.326569
0.353725
0.80617
0.276643
0.278881
0.280435
0.809065
0.272633
0.276241
0.278065
0.279242
0.336714
0.293125
0.389441
0.338199
0.280573
0.357975
0.282913
0.387695
0.365297
0.279405
0.295837
0.360532
0.303
0.308805
0.274179
0.315009
0.360444
0.411896
0.297459
0.311374
0.369644
0.27569
0.293167
0.346591
0.361897
0.279769
0.287333
0.3521
0.300972
0.286563
0.283592
0.292459
0.572366
0.314241
0.352973
0.501878
0.277705
0.592627
0.286093
0.389623
0.483268
0.280078
0.300307
0.328041
0.361831
0.292722
0.296153
0.322553
0.36937
0.358021
0.305832
0.541371
0.313276
0.504594
0.356219
0.32527
0.274396
0.278286
0.286615
0.283464
0.362565
0.29002
0.35755
0.277757
0.28853
0.280668
0.474865
0.286961
0.365695
0.298342
0.279542
0.290759
0.353537
0.292184
0.357613
0.370253
0.35213
0.300996
0.351632
0.353304
0.337143
0.280552
0.351243
0.281083
0.313651
0.30573
0.493464
0.543372
0.282352
0.482897
0.364253
0.484871
0.420487
0.528445
0.505909
0.821289
0.274536
0.880761
0.350145
0.294721
0.287732
0.339341
0.308202
0.351342
0.323028
0.733783
0.297049
0.371308
0.281188
0.291627
0.307132
0.299492
0.284678
0.309208
0.33723
0.312663
0.275396
0.307337
0.285178
0.858308
0.793338
0.743912
0.279243
0.277616
0.28527
0.301595
0.753426
0.30472
0.314895
0.555957
0.319964
0.333348
0.361855
0.301614
0.633959
0.523559
0.29463
0.299325
0.274459
0.316643
0.279242
0.300591
0.277482
0.278277
0.284003
0.287742
0.97901
0.303268
0.28676
0.383803
0.2798
0.902794
0.311021
0.275537
0.284029
0.292274
0.292294
0.275301
0.290446
0.272365
0.283203
0.282291
0.287596
0.289828
0.316362
0.294611
0.281672
0.303223
0.293572
0.297286
0.316004
0.304214
0.290118
0.299012
0.360265
0.325799
0.314008
0.30015
0.302339
0.283038
0.30116
0.35432
0.358444
0.315866
0.291383
0.346113
1.09393
0.287144
0.294179
0.385664
0.292626
0.447593
0.355838
0.364436
0.285771
0.357607
0.292813
0.279346
0.355244
0.328471
0.364513
0.300791
0.290085
0.349718
0.299607
0.296014
0.297246
0.306711
0.285919
0.286049
0.294236
0.316784
0.297955
0.372738
0.276692
0.601857
0.277776
1.00203
0.308556
0.347437
0.334511
0.279671
0.336205
0.278766
0.31345
0.294675
0.536576
0.799182
0.277193
0.312124
0.293681
0.293591
0.301237
0.289976
0.290314
0.344724
0.305641
0.281783
0.296285
0.302121
0.279871
0.42293
0.292158
0.295719
0.463499
0.392941
0.287954
0.583511
0.413344
0.345674
0.403585
0.68347
0.279747
0.292156
0.293049
0.292105
0.620533
0.308719
0.276006
0.28126
0.297329
0.29781
0.303439
0.284091
0.672964
0.601607
0.475355
0.356379
0.37065
0.459169
0.279262
0.292627
0.333335
0.291983
0.355172
0.363124
0.377802
0.29189
0.369613
0.295224
0.293788
0.311909
0.296661
0.295413
0.291627
0.348575
0.357669
0.367421
0.313658
0.30639
0.324578
0.292919
0.804069
0.360557
0.371463
0.344929
0.326157
0.701349
0.307771
0.278093
0.3105
0.350141
0.326994
0.308249
0.322803
0.283204
0.302917
0.278708
0.30586
0.414404
0.27567
0.322705
0.316812
0.333764
0.277632
0.278863
0.279841
0.287574
0.288321
0.307855
0.28667
0.280442
0.285686
0.302515
0.303021
0.317013
0.305811
0.279561
0.302009
0.272055
0.278536
0.28824
0.312563
0.3102
0.311751
0.363305
0.375393
0.714034
0.294119
0.28775
0.324388
0.365735
0.428817
0.430559
0.317103
0.28462
0.322921
0.411479
0.316236
0.437098
0.362381
1.40841
0.319303
0.321108
0.28286
0.429531
0.280737
0.288433
0.293478
0.361494
0.279224
0.273825
1.00616
0.282814
0.336232
0.2795
0.410799
0.272801
0.282152
0.393009
0.381262
0.295201
0.277372
0.265724
0.277467
0.294547
0.277305
0.277261
0.275391
0.353104
0.427412
0.296045
0.316426
0.294955
0.279622
0.498964
0.290068
0.321954
0.183406
0.293871
0.28008
0.243713
0.726692
0.297448
0.193852
0.214332
0.28008
0.346965
0.275379
0.283891
0.361961
0.31765
0.936884
0.29027
0.321398
0.277573
0.433702
0.348302
0.369484
0.300498
0.73462
1.94816
0.289429
0.308189
0.329801
0.298287
0.348749
0.360079
0.317956
0.313074
0.378946
0.282249
0.359118
0.446388
0.317525
0.288221
0.451328
0.330217
0.290418
0.304875
0.324426
0.281384
0.361918
0.342712
0.332129
0.343285
0.283529
0.296209
0.927181
0.296643
0.37661
0.809896
0.771971
0.280968
0.352001
0.687645
0.329944
0.39246
0.777968
0.376793
0.743679
0.278633
0.276662
0.354826
0.483716
0.381506
0.375568
0.275495
0.357225
0.283569
0.302177
0.273741
0.323246
0.293479
0.790023
0.66632
0.319055
0.312152
0.327718
0.295397
0.374358
0.351686
0.352409
0.360588
0.342621
0.297194
0.317408
0.354473
0.283926
0.356681
0.341682
0.918152
0.536204
0.318204
0.289534
0.352362
0.279025
0.878654
0.290258
1.34193
0.333846
0.419604
0.32326
0.302839
0.314897
0.280881
0.330556
0.293175
0.275841
0.383497
0.358573
0.368556
0.365848
0.347636
0.939133
0.323614
0.366028
0.347726
0.363677
0.27978
0.330485
0.312672
0.364428
0.34138
0.303571
0.336139
0.30015
0.318704
0.291805
0.286942
0.446397
0.51562
0.287236
0.411401
0.285885
0.305032
0.292948
0.279508
0.643566
0.275513
0.298665
0.294985
0.277513
0.623544
0.899668
0.298124
0.333941
0.280459
0.325402
0.276998
0.305021
0.3062
0.515847
0.304342
0.279113
0.297508
0.281776
0.295413
0.289471
0.274219
0.298878
0.279589
0.274906
0.303267
0.508804
0.278448
0.259281
0.59825
0.528847
0.279045
0.307894
0.792023
0.333085
0.312472
0.471967
0.248006
0.773549
0.318221
0.284333
0.438327
0.316991
0.526704
0.298676
0.328484
0.283514
0.284021
0.410036
0.342777
0.297548
0.321967
0.334515
0.350282
0.34833
0.37843
0.458104
0.436827
0.758354
0.878014
0.822475
0.57478
0.60281
0.363099
0.347306
0.285655
0.27884
0.323541
0.298763
0.309549
0.31916
0.33483
0.280549
0.324454
0.363947
0.28055
0.365763
0.308266
0.279436
0.350512
0.279959
0.286004
0.290273
0.327013
0.395951
0.282715
0.279636
0.287206
0.344664
0.335407
0.485152
0.408188
0.279087
0.324445
0.274734
0.282297
0.284715
0.328326
0.343212
0.431067
0.297442
0.285097
0.288144
0.371025
0.87682
0.29659
0.296541
0.367717
0.323668
0.34293
0.318937
0.304873
0.3768
2.28747
0.414589
0.85263
0.366857
0.36625
0.274414
0.37533
0.28486
0.31592
0.313087
0.286572
1.63358
0.40014
0.338879
0.623219
0.344421
0.272488
0.301283
0.376649
0.285983
0.323517
0.201409
0.282987
0.3625
0.35777
0.377954
0.687442
0.359802
0.343531
0.460503
0.287224
0.288841
0.409753
0.495895
0.314506
0.382268
0.415008
0.318474
0.293262
0.284601
0.308659
0.340689
0.33926
4.09977
0.64581
0.340455
0.519757
0.490943
1.0754
1.77328
0.476273
0.349874
0.360762
0.373541
0.347387
2.7577
0.2857
0.307139
0.372762
0.23265
0.311264
0.36847
0.344203
0.280343
0.370871
0.439986
0.363484
1.36705
0.275713
0.355547
0.376584
0.365703
0.357266
0.34985
0.37481
0.421331
0.321849
0.338656
0.430998
0.301712
0.288953
0.314064
0.38964
0.282163
0.385647
0.352482
0.344298
0.608768
0.830413
0.283901
0.3635
0.296449
0.36189
0.351393
0.623743
0.523727
1.20167
0.288378
0.340621
0.302841
0.863367
0.299346
1.78039
0.392102
0.372342
0.456749
0.546376
0.305595
0.288695
0.291709
0.300961
0.428663
0.300515
0.373013
1.25169
0.355216
0.280815
0.285827
0.636259
1.09793
0.474114
0.515693
0.900278
0.385683
0.334082
0.362619
0.295037
0.437576
0.354531
0.370822
0.987745
0.305204
0.282929
0.288507
0.357109
0.3596
0.366351
0.31049
0.293253
0.431872
0.28663
0.31726
0.287412
0.352838
0.348273
0.35242
0.31892
0.31025
0.293199
0.362505
0.294712
0.298472
0.308503
0.294523
0.349427
0.416594
0.323828
0.344108
0.287876
1.56744
0.367575
0.351672
0.316562
0.882599
0.706417
1.2057
0.32496
0.320449
0.31018
0.718987
0.35189
0.314423
0.351737
0.342212
0.364036
0.878825
0.350158
0.29322
0.346549
0.329777
0.276783
0.541585
0.967683
0.296388
0.967435
0.326962
0.616659
0.531178
0.300594
0.331657
0.359464
0.595153
0.325975
0.31231
0.312257
0.690846
0.47393
0.586597
0.300899
0.313027
0.283322
0.294892
1.50951
1.44743
0.329463
0.335281
0.364979
0.840441
0.287442
0.278921
2.34397
1.32075
0.35563
0.292118
0.839266
1.4511
1.16944
0.361284
0.77404
1.41703
0.935819
0.3093
0.412992
0.410977
0.31049
0.315141
1.524
1.2771
0.332025
0.341456
0.345092
0.295153
0.31341
0.316683
0.439472
0.327019
0.366938
0.285354
0.369714
1.42347
0.952083
0.29673
0.533508
0.4101
0.308706
0.46926
0.279092
0.326375
0.295236
0.314129
0.37742
0.285247
0.729259
0.291806
0.80969
0.554636
0.964687
0.393072
0.422023
0.324041
0.348963
0.344386
0.513574
1.04773
0.346387
1.0385
0.474574
0.711529
0.440907
0.831819
0.654393
0.307232
0.354505
0.93827
0.334503
0.288756
0.29316
0.779092
0.680757
0.295674
0.310862
0.603633
0.372777
1.00725
0.762335
0.342804
0.421788
1.00707
0.339731
0.300813
0.851075
0.291682
0.819319
0.770206
0.289932
0.285576
0.304077
0.280983
0.3609
0.295717
0.293594
0.35265
0.359777
0.439465
0.312101
0.298838
0.478334
1.7294
0.756793
0.328239
0.314263
0.522363
0.293327
0.953962
0.326227
0.326735
0.351841
2.02328
0.331921
2.01227
0.378288
0.467719
0.313965
0.732126
0.581395
0.612141
0.400915
0.504265
0.343576
0.363526
0.359159
0.555312
0.33774
0.42893
0.75963
0.388159
0.420651
0.878954
0.323379
0.294756
0.662171
1.45305
0.364506
0.314452
0.35933
0.379488
1.20437
1.02771
0.281075
0.299296
0.359141
0.78814
0.355932
0.545857
0.346775
0.346818
0.352532
0.447662
0.328975
0.564774
0.583683
0.321185
0.351833
0.40691
0.308203
0.862807
2.05018
0.315307
0.808308
0.828084
0.376772
0.758358
0.360611
0.337791
1.00898
0.340217
1.11595
3.16578
0.303466
0.343805
0.406518
0.365346
0.353174
0.364612
0.469855
0.369811
0.308832
0.363018
0.310465
0.669888
0.365198
0.333351
0.356014
0.565704
0.290193
0.790883
0.707917
0.336036
0.824944
1.89792
0.286362
0.430933
0.457254
0.343827
0.319031
0.485785
0.832948
0.464386
1.04867
0.291335
0.72471
0.425093
0.279232
0.354451
0.351517
0.45855
0.312622
0.358519
0.540911
0.279748
0.538159
0.342353
1.39849
0.363441
0.27913
0.342588
0.489512
0.333443
0.70857
0.41535
0.29969
0.638117
0.288207
0.318324
1.25562
0.277672
0.359975
0.672795
0.318996
0.922076
1.1819
0.351689
0.369611
0.287013
0.854509
0.494219
0.941551
0.750871
0.383174
0.317023
0.395435
0.957057
0.94972
1.17388
0.34188
0.357545
0.332099
0.298866
0.368657
0.684727
0.347234
0.330028
0.320923
0.282819
0.302616
0.353125
0.293747
0.34887
0.352068
0.393128
0.287347
0.348084
0.536444
0.303459
0.285198
0.359199
0.330017
0.359399
0.282267
0.316457
0.319756
0.296073
0.375959
0.554149
0.337011
0.297974
0.285377
0.280104
0.49299
0.303079
0.300533
0.518726
1.02525
0.674792
0.295338
0.506659
0.437807
0.367904
0.461491
0.391906
0.441333
0.34863
0.296025
0.34505
0.361257
0.292091
0.355293
0.367619
0.338457
0.294165
0.295916
0.345336
0.4756
0.336477
0.384001
0.786676
0.346482
0.647286
0.373197
0.835843
0.275653
0.349078
0.326706
0.283971
0.298107
0.365885
0.280532
1.28503
0.528149
0.766347
0.345487
0.866139
0.287394
0.31261
0.497219
0.295644
0.763632
0.392287
0.589183
0.330442
0.954275
0.919092
0.293551
0.278873
0.983166
0.301354
1.00602
0.318177
0.346122
0.292345
0.28653
0.287487
0.304941
0.320259
0.648867
0.372427
0.385306
0.312102
0.326664
0.27774
0.35512
1.34175
0.349991
1.42153
0.564058
0.291327
0.360049
0.311011
0.312245
0.30707
0.336132
0.333111
0.362906
0.317737
0.282605
0.320607
0.346094
1.31973
1.51637
0.318953
0.332116
2.09941
0.325269
0.283148
0.283391
0.280044
0.321708
0.360641
0.400062
0.377937
0.311966
0.290828
0.366797
0.277516
0.274441
0.296779
0.685993
0.385286
0.787431
0.721178
0.781728
0.295546
0.286388
0.283393
0.281187
0.281833
0.604481
0.307949
0.275787
0.301553
0.347337
0.294423
0.41141
0.290324
0.36232
0.419574
0.309122
0.283279
0.291305
0.311131
0.313095
0.290476
0.32024
0.305214
0.473869
0.306417
0.350194
0.385549
0.305119
0.308627
0.287507
0.313239
0.297733
0.346548
0.378471
0.286865
0.274142
0.299968
0.301515
0.291649
0.336696
0.280302
0.309674
0.289009
0.299705
0.803626
0.297494
0.391858
0.273108
0.284262
0.629192
0.298244
0.347477
0.278991
0.289236
0.331421
0.354783
0.709711
0.368389
1.54361
0.282448
0.290114
0.341834
0.279748
0.275558
0.376395
0.312636
0.275099
0.277084
0.855547
0.399011
0.625649
0.343345
0.505303
0.363655
0.28982
0.383726
1.43744
0.343318
0.295737
0.294438
0.746821
0.288694
0.299508
0.3113
0.310037
0.379346
0.736457
0.292037
0.305488
0.347458
0.307775
0.336482
0.85512
0.762524
0.289824
0.283555
0.280486
0.336773
0.321304
0.277956
0.753329
1.15306
0.285863
0.334067
0.806727
0.294755
1.51942
0.418241
0.279056
0.288689
0.285487
0.295006
0.545887
0.312091
0.310638
0.297624
0.333554
0.299121
0.361543
0.569769
0.362926
0.456857
0.46762
0.436842
0.54196
0.335476
0.387719
0.372397
0.379195
0.32266
0.298835
0.773786
0.544555
0.377901
0.332857
0.36054
0.328113
0.316588
0.243621
0.277954
0.27817
0.357061
0.349904
0.461857
0.386362
0.810433
0.67415
0.307919
0.377891
0.293256
0.295344
0.365123
0.283193
0.303694
0.282876
0.279078
0.232779
0.233009
0.279538
0.378282
0.636066
0.970321
0.320997
0.278704
0.44209
0.46753
0.788216
0.303787
0.78194
0.915974
0.933033
0.857026
0.371955
0.280297
0.276836
0.360613
0.815003
0.278141
0.372716
0.322607
0.2797
0.503567
0.461008
0.441838
0.311113
1.21662
0.279808
0.288854
0.315272
0.317912
0.576228
0.661512
0.334212
0.429573
0.312738
0.342377
0.306742
0.855505
0.353672
0.824824
0.371897
0.819777
0.352749
0.460713
0.609491
0.499043
0.380213
0.38269
0.661664
0.352512
0.353865
0.365203
0.355134
0.360715
0.340976
1.23666
0.508494
0.311685
0.550573
0.585328
0.544998
0.293944
0.286694
0.661462
0.615114
0.776167
0.299331
1.07535
0.291694
0.941051
0.613991
0.525615
0.664177
0.283875
0.334023
0.285837
0.326879
0.321898
0.485057
0.401184
0.284867
0.293873
0.344218
0.309713
0.281309
0.278366
0.435684
0.281106
0.275736
0.313975
0.389664
0.402214
0.313235
0.346338
0.352263
0.330134
0.517263
0.404393
0.294995
0.294289
0.456026
0.527552
0.299078
1.88601
0.323305
0.39215
0.901416
0.361338
0.298596
0.281051
0.461643
0.304577
0.276106
0.353188
0.300519
0.288537
0.30066
0.285111
0.328314
0.305106
0.312648
0.290232
0.342462
0.637063
0.292098
0.303283
0.295312
0.303694
0.389871
1.09668
0.303446
0.287443
0.311693
0.530778
0.256901
0.325714
0.310197
0.802774
0.333778
0.371468
0.355809
0.373686
0.331418
0.341448
0.302111
0.478575
0.358353
0.344237
1.21487
0.30616
0.376039
0.333559
0.323895
0.353475
0.390782
0.301527
0.336524
0.285417
0.32513
0.310852
0.332752
3.16942
0.290862
0.386599
0.375972
0.343902
0.611558
0.334909
0.644507
0.355711
0.532173
0.636406
0.315485
0.284009
0.389837
0.360013
0.317015
0.286361
0.741546
0.425216
0.344484
0.953832
0.613194
0.295789
0.45969
0.397867
1.24495
0.888826
0.365562
0.417844
0.460864
0.552169
0.444614
0.882884
0.217335
0.577781
0.304467
0.567036
0.356365
0.372517
0.372427
0.349614
0.313626
0.348905
0.562117
0.305878
0.350886
0.365375
0.465783
0.722795
0.388902
0.699672
0.323985
1.0086
0.373324
0.374643
0.80867
0.531819
0.669233
0.600528
0.601769
0.512725
0.418055
0.388027
0.320916
0.358805
0.353559
0.729474
0.335341
0.336647
0.298061
0.46188
0.345983
0.291631
0.809898
0.468734
0.478078
0.167952
0.389851
0.317395
0.33908
0.332155
0.354189
0.322697
0.272743
0.320697
0.370608
0.167771
0.161534
0.479679
0.328591
0.405684
0.386918
0.42569
0.363973
0.347639
0.334147
0.137695
0.33971
0.371132
0.142957
0.363425
0.817333
0.565671
0.323136
1.46082
0.3805
0.440388
1.07112
0.385198
0.368719
0.290617
0.563257
0.280152
0.286671
0.330024
0.356301
0.357629
0.317842
0.568697
0.353745
0.438674
0.296801
0.376434
0.359802
0.278733
2.00967
0.479881
1.01763
0.434427
0.28982
0.887073
0.453771
0.285225
2.26901
0.287186
0.282747
0.449027
0.431771
0.942986
0.957295
0.322375
0.642744
0.995669
0.379135
0.610468
0.949744
0.946528
2.08091
0.349889
0.330343
0.549038
0.614556
0.386437
0.913032
0.332325
0.306237
0.483672
0.33124
0.288598
0.369792
0.721116
0.65696
0.276187
0.4754
0.292902
0.379548
0.316695
0.376396
0.563647
0.396537
0.748428
0.351377
0.360678
0.69877
0.285215
0.294987
0.413393
0.287325
0.327751
1.08089
0.308599
0.847756
0.772098
0.779143
0.793106
0.376378
0.362886
0.281965
0.27937
0.386829
0.287811
0.297902
0.385867
0.297387
0.376246
0.895178
0.287222
0.488171
0.286799
0.435707
0.340427
0.805578
0.348498
0.429274
0.291677
0.310488
0.396637
0.285093
0.308907
0.301225
0.283493
0.485647
0.303763
0.353919
0.329874
0.295221
0.343805
0.315915
0.354798
0.900997
0.309724
0.294835
0.293404
0.35677
0.139522
0.586627
0.436577
0.639524
0.989795
0.225054
0.395333
0.0737159
0.193738
1.07708
0.374962
0.505392
0.254694
0.683423
0.651344
1.16316
0.329947
0.306875
0.507588
1.27771
0.315736
0.37094
0.416497
0.401282
0.379151
0.367416
0.906744
1.40935
0.182824
0.344619
0.148709
0.334911
1.28563
0.302085
0.330484
0.303192
0.292172
0.408803
0.301537
0.538332
0.417201
0.318184
0.37046
0.300974
0.502826
0.598213
0.301922
0.396405
0.333302
0.770443
0.416224
0.343498
0.494109
0.479265
0.280665
0.283614
0.342275
0.292961
0.652928
0.286998
0.399849
0.553469
0.306522
0.314666
0.302313
0.301554
0.56976
0.372685
0.479205
0.292525
0.298065
0.445367
0.578468
0.295526
0.321798
0.294213
0.290148
0.570809
0.408516
0.72923
0.313063
0.291011
0.402208
0.359814
0.317241
0.297373
0.353574
0.362584
0.499783
0.309582
2.00051
0.373214
0.372885
0.28941
0.359455
0.813449
0.947465
0.358449
0.792295
0.338705
0.967092
0.383554
0.652476
0.430601
0.499558
0.38235
0.306825
0.339413
0.378945
0.51652
0.342673
0.333029
0.905723
0.374529
1.76328
0.373238
0.315845
0.360796
0.548665
0.388973
0.288949
0.998828
0.287375
0.310727
0.288681
0.346322
0.700437
0.439931
0.326785
0.466662
0.345907
0.312732
0.299183
0.325476
0.379636
0.390439
0.369696
0.322469
0.316349
0.365094
0.315854
0.281825
0.354343
0.32344
6.2745
0.3437
0.418025
0.315652
0.364155
0.328491
0.375758
0.282965
0.341442
0.319822
0.317524
0.352362
0.77164
0.279233
0.802087
0.472457
0.391244
0.379798
0.319718
0.382509
0.406821
0.703427
0.297088
0.316257
0.32057
0.454206
0.342736
0.283898
1.19762
1.53354
0.627325
0.28365
0.289293
0.468587
0.352972
0.353594
0.457112
0.364427
0.307619
0.330059
1.58562
0.285534
0.517379
0.28215
0.306319
0.381756
0.301758
0.374237
0.415154
0.288217
0.545884
0.363628
0.357723
0.401651
0.899097
0.299795
0.35995
0.337703
0.360241
0.325227
0.335861
0.281566
0.273131
0.374465
0.541046
0.362613
0.335421
1.34558
0.36472
0.560207
0.358353
0.383028
0.35782
0.329902
0.761614
0.318462
0.47828
0.339232
0.355007
0.322746
0.355852
0.525181
0.4176
0.303239
0.57895
0.376929
0.603227
0.707168
1.48368
0.293217
0.412277
0.377687
0.243231
0.35462
0.245693
0.40187
0.223186
0.354524
0.808729
0.363926
0.573232
0.622582
0.334328
0.203558
0.407742
0.997557
0.470711
0.609693
2.08475
1.3482
0.688953
0.748599
0.29249
0.338397
0.704563
0.354149
0.915025
0.339744
0.75357
0.717932
0.310974
0.351603
0.30844
0.278467
0.340279
0.28037
0.662132
0.376594
0.347019
0.507719
0.307819
0.342435
0.289232
0.305142
0.336632
0.321636
0.376319
0.280215
0.37294
0.846794
0.289726
0.293198
0.319109
0.289803
0.823582
1.20183
0.362411
0.399376
0.48942
0.285571
0.274598
0.311179
0.325914
0.304974
0.310868
0.303847
0.293173
0.512812
0.298046
0.327916
0.305793
0.284246
0.286469
0.948339
0.301442
0.318756
0.305484
0.401222
0.34495
0.31809
0.615897
0.370685
0.305476
0.352525
0.336522
0.340855
0.380859
0.360319
0.296619
0.369828
0.351331
0.300784
0.317523
0.332011
0.404362
0.415927
0.306012
0.318039
0.365151
0.394226
0.434579
0.536568
0.902971
0.863535
0.319771
0.286443
1.11978
0.482566
0.517468
0.294537
0.285978
0.304508
0.279928
0.30084
0.286901
0.291606
0.313924
0.290192
0.294014
0.297337
0.293327
0.284864
0.503207
0.337321
0.316901
0.295575
0.305067
0.561533
0.288409
0.296181
0.371049
1.02052
0.484586
0.374181
0.362234
0.291694
0.32371
0.433673
0.613176
0.360458
0.302509
0.354519
0.302698
0.306849
0.329632
0.393601
0.344801
0.301186
0.360292
0.382495
0.564728
0.354602
0.723379
0.548359
0.366417
0.35915
0.309238
0.312776
0.35623
0.279059
0.305505
0.552466
0.295028
0.325816
0.683096
0.332713
0.352951
0.416336
0.351845
0.300152
0.333022
0.290986
0.328165
0.684161
0.336628
0.392351
4.62377
0.538682
0.9438
0.778484
0.305611
0.307707
0.478545
0.286957
0.505231
0.450853
0.643704
0.369858
0.282446
0.768017
0.282506
0.494381
0.378042
0.300838
0.669505
0.906251
0.28463
0.290484
0.828825
0.283621
0.292822
0.291592
0.284874
0.340311
0.537629
0.537126
0.313069
0.747872
0.307842
0.304082
0.303885
0.805045
0.307114
0.84373
0.28641
0.324623
0.289865
0.390756
0.334774
0.455866
0.290116
0.638641
0.435624
0.438419
0.653007
0.311499
0.305514
0.916719
0.410118
0.320291
0.384457
0.875537
0.311547
0.390697
0.319067
0.543084
0.367329
0.292845
0.284172
0.419244
0.301985
0.352431
0.316703
0.285885
0.310277
0.293332
0.295388
0.325842
0.749576
0.310881
0.295013
0.294142
0.304689
0.310444
0.343423
0.279934
0.35536
0.403945
0.37606
0.368673
0.300871
0.376006
0.294594
0.347911
0.901365
0.401741
0.6868
0.305199
3.20372
0.329647
0.456163
0.363508
0.291583
0.370698
0.29248
0.294268
0.331171
0.345283
0.274705
0.300299
0.283544
0.608568
0.283211
0.300278
0.333979
0.683446
0.11939
0.303888
0.744855
0.831136
0.55357
0.52645
0.799255
0.124936
0.37214
0.167119
0.331154
0.459785
3.70453
0.386512
0.342754
0.281313
0.286104
0.715093
0.315208
0.385197
0.775397
0.358921
0.577964
0.347454
0.54753
0.291959
0.352001
0.335293
0.280142
0.370451
0.276529
0.324298
1.02217
0.932256
1.08158
0.413096
0.890705
0.299094
0.277285
0.289778
0.351259
0.283605
0.33544
0.291196
0.375329
0.364995
0.283239
0.289419
0.348911
0.284103
0.312805
0.343412
0.310694
0.34112
0.454959
0.3035
0.335252
0.776677
0.334506
0.736129
0.750685
0.331102
0.370125
0.287038
0.43247
0.318953
0.333745
0.711698
0.287508
0.342443
0.317867
0.32822
0.299178
0.295742
0.447736
0.470495
0.3755
0.321819
0.751325
0.344688
0.60096
0.554222
0.360507
0.934165
0.410265
0.33946
0.311625
0.351536
0.353083
0.317249
0.28786
0.32826
0.165318
0.53999
0.175758
0.294401
0.3228
0.389916
0.138959
1.06258
0.333801
0.361513
0.355533
0.153197
0.359766
1.00911
2.60996
0.347522
0.291693
0.365536
0.467869
0.296605
0.338874
0.364805
0.298952
0.349708
0.307243
0.762971
0.324565
1.62575
0.386075
0.832717
0.334576
1.7327
0.986163
0.846122
0.311212
0.326629
0.405367
0.360389
0.296511
0.351553
0.310237
0.764349
0.286193
0.420431
0.638799
0.284796
0.285396
0.29992
0.31758
0.335363
0.360466
0.35229
0.375888
0.371665
0.310393
0.381609
0.316024
0.411086
0.309756
0.354058
0.28958
2.62546
1.37595
0.346225
0.410941
0.278389
1.72518
0.279565
0.280747
0.343248
0.278868
0.361784
0.345794
0.274117
0.27592
0.33471
1.88466
0.539991
0.370891
0.758393
0.285858
0.361218
0.311457
0.35956
0.752036
0.367761
0.770479
0.275372
0.306523
0.728334
0.816108
0.311234
0.319487
0.57436
0.377035
0.324261
0.439701
0.349329
0.354914
0.374307
0.358343
0.273976
0.36952
0.341571
0.433188
0.285559
0.348376
0.279508
0.320042
0.8018
0.797155
0.298102
0.433251
0.311324
0.342731
0.301636
0.485148
0.299599
0.312083
0.326533
0.334833
0.399601
0.359227
0.440071
0.333487
0.279111
0.322515
0.287215
0.341369
0.286165
0.475389
0.409327
0.31824
0.554138
0.315204
0.282642
0.341477
0.288051
0.36135
0.578781
0.305153
0.388015
0.358138
1.08132
0.357913
0.341065
0.364119
0.663095
0.365075
0.485287
0.338718
0.364348
0.460117
0.376367
0.345582
0.751603
0.40849
0.363187
0.306554
0.292455
0.497705
0.305967
0.915632
1.37206
0.375887
0.382576
0.357432
0.433583
0.403502
0.34543
0.774977
0.432803
0.59041
0.288007
0.381653
1.13345
0.438769
0.317933
0.42537
0.29984
1.16946
0.346171
0.353224
0.300494
0.280955
0.288447
0.321088
0.290228
4.85142
0.286
0.615625
0.281869
0.384282
0.344534
0.477142
0.31911
0.324114
0.310375
0.64136
0.42277
0.457778
0.292948
0.290941
0.409571
0.334883
0.321772
0.286852
0.283971
0.281566
0.305341
0.281735
0.34083
0.285672
0.516743
0.389131
1.28934
0.703342
0.529687
0.506547
0.351188
0.358694
0.280729
0.531592
0.297137
0.301905
0.296953
0.415281
0.449349
0.298152
0.378822
0.72217
0.44708
0.28745
0.289869
1.66515
0.752626
0.346097
0.796289
0.796763
0.578701
0.711161
0.515657
0.696158
0.364716
0.570894
0.701121
0.283628
0.290979
0.277246
0.42922
0.557093
0.299787
0.283091
0.362478
0.329176
0.376233
0.708826
0.433455
0.918136
0.337179
0.292301
0.308616
0.292424
0.327944
0.680225
1.01148
0.846013
0.723096
0.314173
1.29159
0.547682
0.307446
0.49584
0.430023
0.708878
0.365592
0.434182
0.708089
0.703097
0.431005
0.820084
0.453919
0.79125
0.351385
0.30338
0.365968
1.1142
0.724178
0.351116
0.308227
0.498615
0.401272
0.535704
0.324043
0.344785
1.08632
1.20442
0.176856
0.368374
0.167598
0.285412
0.171947
0.335265
0.424427
0.542672
0.153558
0.39162
0.451924
0.11936
0.418783
1.25757
0.370001
0.340942
0.795084
0.29938
0.446731
0.291261
0.280074
0.296114
0.303856
0.811842
0.643908
2.14326
0.349593
0.348517
0.589668
0.335815
0.382014
0.367455
0.324396
0.30366
0.531736
0.379922
0.377211
0.293089
0.378176
0.36326
0.685888
0.416989
0.742715
0.924503
0.71209
0.373698
0.360543
0.695386
0.235967
0.493944
0.323581
0.347285
0.292273
0.744962
0.579505
0.636888
0.66769
0.556285
0.287626
0.385801
0.830584
0.751874
0.347697
0.355746
0.413587
1.80384
0.314987
0.288012
0.361697
0.316104
0.812421
0.335916
0.552907
0.655859
1.03523
2.06315
0.489129
0.408588
0.752732
1.14513
0.809582
0.529243
0.829305
0.899263
0.477401
0.339224
0.404012
0.356454
0.276079
0.300696
0.38445
0.463397
1.8198
0.340901
0.38511
0.400806
0.369967
0.428427
0.512291
0.44001
0.356566
0.375124
1.04035
1.01895
0.150979
0.357493
0.314121
0.333426
1.58951
0.833837
0.365074
0.567202
0.303928
0.391581
0.460629
0.508598
0.303929
0.303386
0.301125
0.352433
0.869105
0.413418
0.323754
0.710088
0.290275
0.908721
0.677522
0.427158
0.66015
0.332315
0.28629
0.31132
0.289217
0.345742
0.354969
0.301594
0.317154
0.303193
0.287557
0.454502
0.525831
0.679858
0.292425
0.428219
0.324127
0.354111
0.311745
0.505613
0.318018
0.307648
0.303427
0.289001
0.294411
0.296674
0.414564
0.283135
0.325336
0.331432
0.559758
0.294399
0.349137
0.458225
0.739662
0.942511
0.348061
0.775757
0.42665
0.334713
0.310325
0.486898
0.309814
4.10375
0.374295
0.295336
0.384591
0.384793
0.367941
0.409845
0.668644
0.955724
0.398707
0.81148
0.308064
0.280621
0.353715
0.287706
0.28493
0.368624
0.286078
0.292195
0.534623
0.292675
0.198986
1.93939
0.508857
0.285573
0.286197
0.545286
0.30566
0.298182
0.525832
0.300241
0.70256
0.357488
0.741725
0.286467
0.497635
0.398779
0.612262
0.290623
0.395909
0.292415
0.927118
0.364327
0.285353
1.29515
0.38717
0.463183
0.318685
0.339904
0.373675
0.284401
0.459169
0.284314
0.293617
0.291587
0.407086
0.546333
0.298244
0.291825
0.294289
0.289237
0.301938
3.03919
0.285654
0.413383
0.284967
0.520039
0.324664
0.331623
0.328423
0.425571
0.305681
0.376101
0.277726
0.3091
0.303007
0.314331
0.28651
0.395876
0.366342
0.977087
0.944222
0.738376
0.357015
0.30801
0.30777
0.285344
0.290228
0.996986
0.584477
0.359533
0.33316
0.27967
0.301553
0.276376
0.291264
0.480441
0.473565
0.71038
0.921296
0.332513
0.362219
0.360984
0.285689
0.520286
0.341683
0.416208
0.350528
0.323102
1.03004
0.375862
0.279619
0.306264
0.365233
0.297681
0.458362
0.286015
0.591843
0.337404
0.852129
0.451802
0.713603
0.293948
0.303669
0.319258
0.374406
0.327314
0.358234
0.294825
0.285744
0.290554
0.297089
0.354884
0.543894
0.334304
0.798748
0.379542
0.315183
0.472564
0.381689
0.36145
0.237019
0.997956
0.817106
0.213967
0.294766
0.291469
0.794205
0.299619
0.373236
0.341878
0.329948
0.258402
0.349973
0.350296
0.286903
0.380732
0.327965
0.929065
0.485321
0.398237
0.274346
0.360277
0.400558
0.314843
0.289956
0.837186
0.78785
0.308608
0.719539
0.297575
0.285114
0.360095
0.295925
0.840514
0.282414
0.283464
0.288467
0.606891
0.2847
0.323047
0.414151
0.418732
0.283761
0.30313
0.305641
0.307813
0.295055
0.336948
0.329281
0.542573
0.390371
0.357003
0.529569
0.34871
0.546944
0.327607
0.824956
0.406343
0.229595
0.596371
0.126411
0.393436
0.47997
0.536243
0.357226
0.28526
0.287403
0.28423
0.345953
0.768857
0.362116
0.283649
0.337802
0.338246
0.275416
0.440667
0.307481
0.359005
0.422135
0.304112
0.293049
0.317571
0.308163
2.70926
0.905656
0.347958
0.346616
0.385236
0.341892
0.751016
0.840191
0.925051
0.724872
0.333237
0.303124