/*--------------------------------*- C++ -*----------------------------------*\
| =========                 |                                                 |
| \\      /  F ield         | OpenFOAM: The Open Source CFD Toolbox           |
|  \\    /   O peration     | Version:  2506                                  |
|   \\  /    A nd           | Website:  www.openfoam.com                      |
|    \\/     M anipulation  |                                                 |
\*---------------------------------------------------------------------------*/
FoamFile
{
    version     2.0;
    format      ascii;
    arch        "LSB;label=32;scalar=64";
    class       volScalarField;
    location    "0.085047";
    object      nut;
}
// * * * * * * * * * * * * * * * * * * * * * * * * * * * * * * * * * * * * * //

dimensions      [0 2 -1 0 0 0 0];

internalField   nonuniform List<scalar> 
47425
(
0.00468077
0.00465148
0.00418931
0.00191764
0.00299682
0.00428396
0.00408162
0.00307919
0.00742777
0.00275459
0.00234997
0.00738782
0.00477291
0.00379669
0.00305048
0.00365495
0.00432638
0.00225192
0.000235218
0.00252882
0.00362448
0.00664958
0.00295959
0.00480051
0.00661995
0.00645207
0.00367713
0.000462783
0.00404231
0.0052226
0.00691877
0.00714149
0.00745914
0.00417426
0.00492946
0.00449394
0.00664895
0.00537822
0.00442028
0.00406332
0.00492434
0.00537827
0.00500994
0.00260976
0.000937067
0.00322249
0.00335351
0.00451852
0.00369268
0.00603528
0.000608305
0.00245804
0.0057379
0.00127192
0.00318748
0.00289993
0.00633257
0.004895
0.00246944
0.00484129
0.000989166
0.000673809
0.00120155
0.00273624
0.0073849
0.00639486
0.00555488
0.00395061
0.00111506
0.00494474
0.0037271
0.00527133
0.00569045
0.00330792
0.00168572
0.00746319
0.00125098
0.00367584
0.000188962
0.00176024
0.00160277
0.00461596
0.00685095
0.00742906
0.00533387
0.00374901
0.00507132
0.00501015
0.00381722
0.0013741
0.00673809
0.00431907
0.00695316
0.00320071
0.00257042
0.00185374
0.00601628
0.00536653
0.00340453
0.00448171
0.00556482
0.000897204
0.00565828
0.000915204
0.00577682
0.00672938
0.0055718
0.00331692
0.0056471
0.00704418
0.00374905
0.00515674
0.00530703
0.00222807
0.00718723
0.000321958
0.00720877
0.000698733
0.00420438
0.00510871
0.00389911
0.0074714
0.00590245
0.00235113
0.00354465
0.00632428
0.00362645
0.0074179
0.00329848
0.00689732
0.00653441
0.0033223
0.000953916
0.00283427
0.00481014
0.0041199
0.0061375
0.00606375
0.00433345
0.0030659
0.00499002
0.00221786
0.00456487
0.00449551
0.00614008
0.00742414
0.0033889
0.00542161
0.00234922
0.00499667
0.00448011
0.000527139
0.00738985
0.000400955
0.00269824
0.00368524
0.00267588
0.000290445
0.00370217
0.00442059
0.0072771
0.00653549
0.00555124
0.00645356
0.00114347
0.000394508
0.00743199
0.00163428
0.00308341
0.00075988
0.0017576
0.00397312
0.00479058
0.00301564
0.00469225
0.00117024
0.000372799
0.00401588
0.00538205
0.00670097
0.000302681
0.00551212
0.00466416
0.00620385
0.00618011
0.0069604
0.00525631
0.0010286
0.00230095
0.00486013
0.00746955
0.00399526
0.00474491
0.00474275
0.00626508
0.00713339
0.00582732
0.00431722
0.0072795
0.00332035
0.00484084
0.00293978
0.00521657
0.00710668
0.00225163
0.00234478
0.00527654
0.00703165
0.0040043
0.00747105
0.00449415
0.00441081
0.00745916
0.00325794
0.0045092
0.00450104
0.00385742
0.00201332
0.00304474
0.00379977
0.00168811
0.00234018
0.00412045
0.00300756
0.00235852
0.0015874
0.00633064
0.00236319
0.00693805
0.00371872
0.00410711
0.00419503
0.00322344
0.00748888
0.00219777
0.00338158
0.00156767
0.00288363
0.00174821
0.00199154
0.00395403
0.00464551
0.0068076
0.0028694
0.00643869
0.00733162
0.00429264
0.00590012
0.00655452
0.00380868
0.00680409
0.00199352
0.00436475
0.00742026
0.00330068
0.00682022
0.00662242
0.0029852
0.00314957
0.00739659
0.00300812
0.00745955
0.00387007
0.00263264
0.00486396
0.00383221
0.00656544
0.00411534
0.00451714
0.00388138
0.00387089
0.00195257
0.00164781
0.00587385
0.00203049
0.00205723
0.00203316
0.00051504
0.0016897
0.000557987
0.000968923
0.00466736
0.000924553
0.00289956
0.00377112
0.00346394
0.00331779
0.00344493
0.00395158
0.00730613
0.000705076
0.00471608
0.00737543
0.00506165
0.00438194
0.00322107
0.00275241
0.00620731
0.00478078
0.00467651
0.00369264
0.00638808
0.00369957
0.00479836
0.000903357
0.000790653
0.00051468
0.00683609
0.00586112
0.00670656
0.00309968
0.000780605
0.00360255
0.0027637
0.001841
0.00450323
0.0032356
0.00300041
0.00327444
0.00138143
0.00200078
0.00692827
0.00504877
0.0058982
0.00401273
0.00661863
0.00391761
0.00441275
0.00532422
0.00402473
0.0034948
0.000960882
0.00351686
0.00393337
0.00297232
0.00680489
0.000804513
0.00631003
0.0061298
0.00546876
0.0067185
0.00665875
0.00602487
0.00567705
0.00531156
0.00574386
0.00484057
0.00627986
0.00351902
0.00392034
0.00662925
0.00633254
0.0049859
0.00643141
0.00651527
0.00240668
0.00386864
0.00687158
0.00636403
0.00385724
0.00186234
0.00522505
0.00401041
0.00324947
0.00594563
0.00628197
0.00275502
0.00743424
0.00478098
0.00671483
0.00272289
0.00128962
0.0037292
0.00694008
0.00192608
0.00689811
0.0040283
0.00382834
0.00502325
0.00663714
0.00563152
0.00676877
0.0066764
0.00481453
0.00393049
0.00439932
0.00369549
0.00561413
0.00717395
0.0037247
0.00554834
0.00562969
0.00392309
0.00506011
0.00445493
0.00616211
0.00515534
0.00346158
0.00323536
0.00573279
0.00106532
0.00633097
0.00225544
0.00457326
0.00338166
0.00334986
0.00612427
0.00234585
0.00620534
0.00343534
0.00611007
0.0011523
0.000945596
0.00653895
0.00241919
0.00374233
0.00349331
0.00370083
0.0039807
0.0036592
0.00393827
0.00467466
0.00605054
0.00299567
0.00431995
0.00593435
0.00369483
0.00381558
0.00573276
0.000834407
0.000344538
0.00650892
0.00045634
0.000438156
0.00391963
0.000417714
0.000997414
0.0060199
0.00372399
0.00394819
0.00377415
0.00100829
0.00367148
0.00563519
0.00591866
0.00404743
0.0038764
0.0038798
0.00360024
0.0012275
0.000733612
0.0011698
0.0054375
0.000913265
0.00364865
0.00487686
0.00683524
0.00489045
0.00689485
0.00422913
0.0047899
0.00284693
0.0042413
0.0074896
0.00371485
0.00499205
0.00417073
0.00699537
0.00461971
0.00442122
0.0052308
0.00562928
0.00338545
0.00270067
0.00499455
0.00402291
0.00691447
0.0013856
0.00277641
0.00185152
0.00744304
0.00250119
0.00283033
0.00273131
0.00667029
0.00360203
0.00740266
0.00486049
0.00263156
0.003169
0.0034002
0.00293675
0.00507276
0.00221638
0.000809976
0.00595497
0.00146523
0.00558265
0.00146381
0.00564885
0.00553303
0.00652896
0.00423332
0.00486864
0.00284995
0.00473022
0.00624889
0.0065384
0.00555788
0.00419565
0.0025622
0.0033444
0.00685087
0.00531801
0.00446998
0.00482049
0.00493337
0.00465605
0.00433896
0.00230045
0.00472288
0.00372038
0.000629155
0.00491687
0.00424448
0.0061974
0.00741179
0.00163038
0.00214605
0.00429206
0.00554495
0.00415039
0.00379691
0.00683745
0.00202797
0.00747828
0.0054103
0.00220659
0.00261101
0.00491426
0.00270365
0.00702454
0.00405006
0.00408318
0.00500827
0.00667726
0.00536645
0.000909965
0.00457073
0.00236921
0.00632521
0.00187866
0.00590687
0.00486194
0.00191355
0.00227708
0.00432756
0.00632448
0.000697437
0.00511397
0.00509209
0.00500432
0.00587545
0.00636165
0.00206506
0.00285985
0.00576029
0.00445717
0.00442658
0.00664243
0.00178857
0.00664912
0.00488083
0.000398879
0.00420147
0.0068031
0.000751057
0.001217
0.00704937
0.000307676
0.000324077
0.00405207
0.00744586
0.00538158
0.00657287
0.00426018
0.00372008
0.00131344
0.00683312
0.00262495
0.00573528
0.00189458
0.002158
0.00433117
0.00459396
0.00160057
0.00652961
0.00566434
0.00332025
0.00329102
0.00231642
0.00292672
0.00294042
0.00667434
0.00326732
0.00285124
0.00288054
0.00532511
0.00281667
0.00303798
0.00610843
0.00239509
0.00359601
0.00378844
0.002625
0.00329125
0.00418081
0.00492961
0.00551183
0.00153592
0.00507658
0.00615119
0.00582456
0.000277597
0.00379583
0.00448329
0.000489476
0.000759019
0.00681637
0.00462938
0.000139936
0.00200906
0.000722187
0.00247092
0.00315409
0.000796265
0.00473338
0.00582631
0.00590925
0.00273706
0.00335451
0.0033283
0.00604809
0.00307733
0.00425484
0.00369417
0.00573072
0.00415883
0.00361459
0.001699
0.000930642
0.00269064
0.00270076
0.00390144
0.00532954
0.00342008
0.00741649
0.00605399
0.00567844
0.00526679
0.00515137
0.00186291
0.00469471
0.00604878
0.00175907
0.00188568
0.00116495
0.00110517
0.00378939
0.0068921
0.004774
0.00661677
0.00133298
0.00423698
0.00134499
0.00408547
0.0036387
0.00470166
0.00451227
0.00545361
0.00324319
0.00172414
0.0033591
0.00486654
0.00187284
0.00394396
0.00748587
0.00405968
0.00393654
0.00185572
0.00466656
0.00182964
0.0032213
0.00747321
0.00645833
0.00241448
0.00394212
0.00336419
0.00743286
0.00492465
0.00389074
0.00426944
0.00398827
0.00374393
0.00448868
0.0008254
0.000568379
0.00411131
0.000738168
0.00430663
0.00277614
0.00329077
0.00590682
0.00435459
0.00453292
0.00387608
0.00387194
0.00636121
0.000533726
0.00219995
0.00323052
0.00506644
0.0061591
0.00365001
0.00498805
0.00231827
0.00716038
0.00174877
0.00389547
0.00650439
0.00396574
0.0061942
0.00509314
0.00424085
0.00555365
0.00342454
0.00686645
0.00604959
0.00344408
0.000943789
0.00689003
0.000761771
0.00210223
0.00195915
0.000738607
0.00403653
0.00350605
0.00195584
0.00314255
0.000755284
0.000806732
0.000877346
0.00305926
0.00456699
0.00316895
0.00283324
0.000797258
0.00239495
0.00354884
0.00518434
0.00411182
0.00384697
0.00306709
0.0054134
0.0040728
0.00119666
0.0018159
0.00555476
0.00246468
0.00101094
0.000654303
0.00407254
0.000583711
0.0017668
0.000625341
0.000799939
0.00449996
0.0029658
0.0065925
0.00618882
0.00465578
0.000711922
0.00115005
0.00460514
0.00470682
0.0068159
0.000888745
0.000869993
0.00683059
0.0022092
0.00352571
0.00681421
0.00216262
0.00685041
0.00680509
0.00407591
0.00463495
0.00146123
0.00607041
0.00676928
0.00478439
0.00510291
0.00507309
0.000949696
0.00185302
0.00665753
0.00115566
0.00578969
0.0061223
0.00608263
0.00172913
0.00443131
0.00220823
0.00252653
0.00530069
0.00675435
0.00117617
0.000615129
0.0042632
0.00370212
0.00188391
0.00512509
0.00560957
0.00288661
0.00263963
0.00294507
0.00763976
0.00246686
0.00104114
0.0074237
0.0010121
0.00487124
0.00391024
0.00638803
0.00195067
0.00257604
0.00655746
0.00480626
0.00116106
0.00303265
0.00191905
0.0043882
0.00500792
0.00439237
0.00360748
0.00421692
0.00294066
0.000649536
0.00433838
0.00246034
0.00175538
0.00174151
0.00101082
0.00169912
0.00398597
0.000522254
0.00653503
0.00626089
0.00376006
0.00260142
0.0036913
0.0012988
0.00124276
0.0031303
0.00422774
0.00419214
0.00306947
0.00349521
0.00383198
0.0106628
0.00142217
0.00379536
0.00331821
0.00251247
0.00173825
0.0061552
0.000529082
0.00384445
0.00537198
0.00386731
0.00384421
0.0108448
0.00630642
0.00313669
0.00386328
0.00064747
0.00263977
0.00469711
0.00357391
0.00530346
0.00345159
0.000724388
0.00462405
0.0025588
0.00515719
0.00168806
0.00286743
0.00376018
0.00546096
0.00528977
0.00357869
0.00230095
0.00368435
0.00153792
0.000715265
0.00506325
0.00657418
0.00454727
0.000974885
0.00495837
0.00263739
0.00674313
0.00163423
0.00146277
0.00321911
0.00287808
0.00434286
0.0066242
0.00514754
0.0031144
0.00127593
0.00203876
0.00112686
0.00613293
0.00208208
0.00227128
0.00287238
0.00342955
0.00567016
0.00166833
0.00162569
0.0034379
0.000839456
0.00343562
0.0034182
0.00407385
0.00460251
0.00334199
0.00451398
0.00113686
0.00472819
0.00449232
0.00408699
0.0056611
0.000736546
0.00287711
0.00065909
0.00146453
0.000727709
0.00204664
0.00376355
0.00120212
0.00334324
0.00118213
0.00195893
0.00200678
0.00192256
0.00277337
0.00486725
0.00406158
0.00746824
0.00133447
0.00365913
0.00331495
0.0041377
0.00124584
0.00548915
0.00421635
0.00574788
0.00746033
0.00286216
0.0016848
0.00287227
0.00295138
0.00489841
0.00228011
0.00648609
0.00307155
0.00300251
0.00623582
0.00217949
0.0022023
0.00411014
0.00190221
0.00364449
0.00339431
0.00202442
0.00287467
0.0030141
0.000208449
0.00068301
0.00202097
0.00074268
0.00322124
0.00312205
0.000563045
0.000892154
0.00448167
0.000965639
0.00326495
0.00419755
0.000562697
0.00257245
0.00664187
0.00311846
0.00134234
0.00557109
0.000645681
0.000328417
0.0021726
0.00078288
0.00218336
0.00088945
0.000822291
0.00517715
0.00440145
0.00272364
0.00170475
0.00360239
0.00700453
0.00193597
0.000664716
0.00388274
0.00155582
0.00416255
0.00197491
0.00598255
0.00563333
0.00303131
0.00278141
0.00408963
0.00165163
0.00460288
0.00144972
0.00668134
0.00542705
0.00554004
0.00266326
0.00489902
0.00680162
0.000747298
0.00220907
0.0020304
0.00366623
0.00249074
0.00278988
0.00122637
0.00391693
0.00105822
0.00303586
0.00487745
0.00300133
0.00307197
0.000840068
0.00185642
0.00164071
0.00587673
0.00450879
0.0018954
0.0039289
0.00292852
0.00499096
0.00740451
0.005982
0.00377069
0.00344068
0.000776094
0.00366005
0.000482535
0.00365695
0.00431269
0.00295501
0.00489136
0.00365591
0.00392123
0.00426768
0.00191918
0.00538312
0.00135899
0.00686971
0.00035157
0.00136966
0.00146948
0.0019586
0.00412067
0.00525648
0.00342376
0.00459957
0.00060153
0.000718252
0.00335917
0.00212251
0.000983993
0.000879312
0.00228156
0.00112027
0.000665705
0.00343747
0.00433915
0.000543913
0.00379266
0.00428327
0.00406088
0.00111455
0.000472639
0.00377459
0.00339014
0.00123625
0.00247023
0.0017882
0.000726274
0.00321687
0.0010474
0.00114611
0.0033267
0.00428151
0.00122502
0.00552243
0.00203347
0.000227687
0.00685928
0.00414733
0.00368283
0.00497462
0.00296986
0.00295942
0.00703891
0.0029357
0.00407463
0.00077261
0.00151576
0.0042803
0.00138749
0.0074506
0.000377106
0.00657644
0.00340589
0.00218334
0.00491453
0.000952451
0.00383519
0.00297738
0.00234216
0.00469744
0.00386984
0.00617144
0.00209824
0.000649009
0.00553453
0.00158981
0.000673282
0.00247226
0.00340939
0.000947558
0.00159404
0.00478135
0.00484708
0.000983233
0.00171469
0.00232583
0.00079519
0.00258599
0.000868763
0.0030828
0.00270579
0.00209941
0.000974859
0.00610965
0.00497192
0.00206467
0.00428473
0.00255693
0.00389872
0.00171911
0.00483802
0.00338902
0.005756
0.00145864
0.00560389
0.00059753
0.0021488
0.00556566
0.00739773
0.00184443
0.00155762
0.000829543
0.00182065
0.00189992
0.00104611
0.000827025
0.00391913
0.00090622
0.00508995
0.00275796
0.000389328
0.00145838
0.00308877
0.00341371
0.00561301
0.00137935
0.00104838
0.00148281
0.00324315
0.00841048
0.00684621
0.00167928
0.00342246
0.0037948
0.00627765
0.000972996
0.00279434
0.00156016
0.00401599
0.0014571
0.00390801
0.00270734
0.00104503
0.00179125
0.00234476
0.00230531
0.00529752
0.000390993
0.00160179
0.00145675
0.00138697
0.00740994
0.00508386
0.000992218
0.000773235
0.00160935
0.00256332
0.00262972
0.0016618
0.00223515
0.00163171
0.00516505
0.00124342
0.00126238
0.00513561
0.00111618
0.00330715
0.00239741
0.00266039
0.00119972
0.00242992
0.00545487
0.000646949
0.00326373
0.000639419
0.00258173
0.00349699
0.00296856
0.00179929
0.00120798
0.00233544
0.00366927
0.00283029
0.00114321
0.00372338
0.00408914
0.000685485
0.00648848
0.00355552
0.000814278
0.00330064
0.00284537
0.00280069
0.00236213
0.00112338
0.00349377
0.000149604
0.00232157
0.0007455
0.00334006
0.00107008
0.00255163
0.000857632
0.00139205
0.00145875
0.00377291
0.00391832
0.00741052
0.00394053
0.00350172
0.00286681
0.000689429
0.00375554
0.00595264
0.00394826
0.00465902
0.00282429
0.00415391
0.00683704
0.00745239
0.00295951
0.000920478
0.00639421
0.0027557
0.00222216
0.00511253
0.00609121
0.00279936
0.00206316
0.00747109
0.00523119
0.00325059
0.00346219
0.00534989
0.00387981
0.00113549
0.00385086
0.00314351
0.00528166
0.00660012
0.00194737
0.00458905
0.00575698
0.000841401
0.00234381
0.000928718
0.00612763
0.000875522
0.000409261
0.00511353
0.000388359
0.000751388
0.000512066
0.00387951
0.00445942
0.00423786
0.00132073
0.00673858
0.00436368
0.00443876
0.00379447
0.0026329
0.00337653
0.00339072
0.000988064
0.00426048
0.00262153
0.000784655
0.00400491
0.00030051
0.00157643
0.00120147
0.00597047
0.00299101
0.00189051
0.00556896
0.00445292
0.00192711
0.00662353
0.00283222
0.00157344
0.000478264
0.00688675
0.00142259
0.00482022
0.00293181
0.00239754
0.00490102
0.00129515
0.00437411
0.00200669
0.00432299
0.00127018
0.000274767
0.00373816
0.0066062
0.00225214
0.00451957
0.00112724
0.00374144
0.00368995
0.00424551
0.00400039
0.00519302
0.00706784
0.0036462
0.00211225
0.00493399
0.00218352
0.00387267
0.00376035
0.00683389
0.00229606
0.00391696
0.00395644
0.00531217
0.00420097
0.00427731
0.00304515
0.00405805
0.00428747
0.00562542
0.0022932
0.00257493
0.0074721
0.00377508
0.00347103
0.00491452
0.00376156
0.00392232
0.00416205
0.00387708
0.00380778
0.00619053
0.00377928
0.00548232
0.00448102
0.00600467
0.00199736
0.00220483
0.00196174
0.00361909
0.00457153
0.00395101
0.00114144
0.00489391
0.00471803
0.0051852
0.00141507
0.00297454
0.00119907
0.00121358
0.00124287
0.00297728
0.00429967
0.00387155
0.0040022
0.00595989
0.0011768
0.00381236
0.0059983
0.00394815
0.00311265
0.00382184
0.00154438
0.00381763
0.0023383
0.00265146
0.00328634
0.00583279
0.00422422
0.00359281
0.003669
0.00435212
0.00292036
0.00316594
0.00257832
0.00358111
0.00508198
0.00491873
0.00207651
0.00186203
0.00447202
0.0040172
0.00226055
0.00366054
0.00225897
0.00585167
0.00485848
0.00225252
0.00444305
0.00544089
0.00454592
0.00649213
0.00587641
0.00330116
0.00415385
0.00219812
0.00423567
0.00219138
0.00546941
0.0041296
0.000987773
0.00385899
0.00415824
0.00470872
0.0048712
0.00387477
0.00420174
0.000305037
0.00345407
0.00465954
0.00560667
0.00490639
0.00489444
0.00681583
0.00577772
0.00349141
0.0039693
0.00577362
0.00626468
0.00270595
0.000961783
0.00122166
0.00294185
0.00172864
0.00349206
0.00372248
0.00352527
0.00290014
0.00191616
0.00315027
0.00383753
0.000807335
0.00458505
0.00383414
0.00372333
0.00386688
0.00532729
0.000285687
0.00445336
0.00348132
0.00743039
0.00256123
0.00233967
0.000399716
0.000217718
0.0044163
0.00538253
0.00659888
0.00384731
0.00354614
0.0046357
0.00019674
0.001805
0.0045212
0.0024763
0.00117554
0.00463672
0.00741982
0.00337251
0.00656693
0.0047669
0.00616568
0.00408268
0.00261472
0.0037563
0.00409858
0.00487586
0.00176584
0.00409243
0.00743716
0.00164327
0.00571901
0.00314685
0.00267538
0.0010119
0.00156109
0.00337086
0.00287963
0.00483984
0.00284779
0.00278979
0.00564467
0.000572758
0.00155046
0.00287974
0.00375824
0.00339963
0.00374799
0.00371579
0.00107176
0.00681054
0.00624773
0.00574166
0.00538212
0.000808878
0.00120025
0.00120714
0.00175105
0.00281911
0.0028797
0.00687651
0.00640888
0.00454909
0.00468973
0.00489066
0.0052791
0.00679473
0.00103072
0.000711408
0.00674515
0.00521615
0.00237447
0.00262453
0.00270329
0.0067073
0.00438306
0.00184489
0.000868885
0.00332336
0.00197648
0.00284685
0.0015639
0.000535396
0.0030912
0.00577152
0.0066255
0.00617169
0.000868381
0.00495908
0.00435008
0.00407715
0.00685716
0.000806182
0.00041085
0.000432181
0.00161421
0.00490782
0.00562873
0.00644949
0.00202775
0.00353326
0.000867107
0.00083289
0.000809234
0.000529863
0.000803631
0.00158414
0.0064532
0.000742934
0.00739759
0.000318308
0.00390475
0.000756457
0.00444172
0.0015996
0.00527636
0.00284826
0.00224757
0.00225489
0.00422135
0.005595
0.00398871
0.000844733
0.000986525
0.00500272
0.00516273
0.000458484
0.000483207
0.00345678
0.00153633
0.000791001
0.00155427
0.00441875
0.00640925
0.000914769
0.000816832
0.00144783
0.00703159
0.00138552
0.00590002
0.000830057
0.0011003
0.000619937
0.00226168
0.00540039
0.00139793
0.00627607
0.00459741
0.00365433
0.00205503
0.0051993
0.00339608
0.00400784
0.00371595
0.00401622
0.00600105
0.00595521
0.00312227
0.00635884
0.0053932
0.00408865
0.00385617
0.00143143
0.00369877
0.00232779
0.00395946
0.00444594
0.0040648
0.000907468
0.00333858
0.00322871
0.00178224
0.000536866
0.0040616
0.00466896
0.00288198
0.000909915
0.00178537
0.00120543
0.00435801
0.00602762
0.00404483
0.00327418
0.00514593
0.00328804
0.00304239
0.00351889
0.00653264
0.00434608
0.00413257
0.00426928
0.00307148
0.00401923
0.0035742
0.00062023
0.00333188
0.0038706
0.00400919
0.00280999
0.00103815
0.00310936
0.00350017
0.00432746
0.0030133
0.0011636
0.00103946
0.00369335
0.00313412
0.000355289
0.00147265
0.00202013
0.00398986
0.00145422
0.00306596
0.00393503
0.00248131
0.00106177
0.00465362
0.00399858
0.00283493
0.00616732
0.00232231
0.00264159
0.00302118
0.00332895
0.00194432
0.00393024
0.00584165
0.00659234
0.00166198
0.00317004
0.00371917
0.00595452
0.00471222
0.000761021
0.00293937
0.00332169
0.000424237
0.00163954
0.00543215
0.00339088
0.000937323
0.00155447
0.00223115
0.00664956
0.00288803
0.000971047
0.0045189
0.0068124
0.000645708
0.00169795
0.0012597
0.00227285
0.00470355
0.00436718
0.00148389
0.000582497
0.000745033
0.00490809
0.00503816
0.000576677
0.00469928
0.00178799
0.00307965
0.00146723
0.000907416
0.00468378
0.00328572
0.00112452
0.00394326
0.00509212
0.00439246
0.00353914
0.00528857
0.000832027
0.000278849
0.00321037
0.00351845
0.000680324
0.000491577
0.000647935
0.00191099
0.00103162
0.00185599
0.000507663
0.00352553
0.00353175
0.000849687
0.00213846
0.00216915
0.00114601
0.000964838
0.000424622
0.00519758
0.0047977
0.000717052
0.00646976
0.00418827
0.000768678
0.00505046
0.00324
0.00389745
0.0027575
0.00495325
0.00588972
0.000442107
0.000628278
0.00247945
0.000637761
0.0023646
0.00345652
0.00423489
0.00413378
0.00319749
0.00412959
0.00479992
0.00376011
0.00419542
0.000635832
0.000589934
0.00388687
0.00158957
0.00385151
0.00414963
0.00249033
0.00348619
0.00359832
0.00426264
0.000391597
0.00102251
0.00413798
0.000566234
0.00278006
0.00137154
0.00276709
0.00330977
0.00118613
0.00278207
0.00100936
0.00289176
0.00288722
0.00288745
0.00589205
0.00111519
0.00674674
0.00513258
0.00221147
0.00420566
0.0013916
0.00322405
0.00231094
0.0033803
0.000804901
0.00375221
0.00340585
0.00362627
0.00665237
0.00544801
0.00304585
0.00179296
0.000428524
0.00269601
0.000748424
0.00301175
0.00416117
0.00513675
0.00428602
0.00467364
0.00416906
0.0033065
0.00114622
0.00192308
0.0011257
0.000581414
0.00286668
0.00395781
0.000157071
0.000788499
0.00580749
0.0059704
0.00115437
0.00373754
0.000668847
0.000429451
0.00265303
0.000707476
0.00123437
0.00265179
0.000698697
0.0015698
0.00527512
0.00348347
0.000964778
0.00121616
0.00564397
0.000899237
0.00586295
0.00262927
0.00403438
0.00261832
0.00171404
0.000774612
0.000940992
0.00589209
0.00568903
0.00022589
0.0065546
0.00443953
0.0011152
0.00539108
0.00271411
0.00420481
0.00296205
0.000511369
0.00134539
0.000913413
0.00161707
0.00315235
0.00103151
0.00538366
0.00454926
0.000943183
0.0062963
0.00355846
0.00260688
0.0048719
0.00120348
0.000615627
0.00635486
0.00215067
0.00660525
0.000692367
0.00370397
0.000548326
0.00274847
0.00320888
0.00510528
0.00243626
0.00264303
0.00586827
0.00395022
0.00313136
0.00659439
0.00137973
0.00317459
0.00343261
0.00602525
0.00363761
0.00342185
0.00226775
0.00282637
0.00193319
0.00292882
0.00321462
0.00346192
0.00133574
0.000536084
0.000746638
0.000666798
0.00107443
0.000791911
0.000850936
0.00247421
0.000186847
0.000653736
0.00169986
0.00163572
0.00237623
0.00093522
0.000933142
0.00207406
0.00146356
0.00200084
0.00588059
0.00239155
0.001928
0.00367998
0.00087824
0.00336567
0.000648312
0.0017666
0.00109498
0.00135042
0.00137603
0.000682693
0.00170225
0.000587393
0.00258462
0.00317055
0.00368099
0.00151766
0.00480338
0.00523548
0.000869076
0.00319961
0.000923511
0.00176226
0.00502289
0.00231917
0.00383194
0.00144736
0.00114402
0.00603338
0.00486504
0.0015293
0.000914457
0.00359627
0.00263993
0.0012484
0.00102359
0.00397412
0.00657091
0.00380246
0.00391726
0.000691476
0.00676229
0.000837605
0.0003509
0.00481068
0.00230131
0.00396505
0.00306024
0.000845425
0.00273428
0.000757203
0.00311645
0.00410298
0.000480333
0.00101872
0.00498942
0.00227702
0.00495355
0.00618245
0.0012512
0.0034361
0.000712427
0.00348899
0.00587658
0.0026288
0.00604665
0.00459701
0.00494331
0.0044028
0.00269385
0.00187261
0.00135157
0.0048511
0.00101095
0.00503628
0.0062136
0.00212776
0.00118652
0.000770894
0.000811146
0.00187582
0.00191552
0.00100377
0.00085629
0.000820001
0.000795029
0.00277419
0.00297483
0.00383989
0.00133909
0.004884
0.00253885
0.00304755
0.0012391
0.000490857
0.00348142
0.00271877
0.00347541
0.0040666
0.00333522
0.00321899
0.00548508
0.00430647
0.00251723
0.00278141
0.00260157
0.00509548
0.00283338
0.00152121
0.000711709
0.00413988
0.000536792
0.00744379
0.00264914
0.00684112
0.00438039
0.000833685
0.00266782
0.00106806
0.00353092
0.00332389
0.00310968
0.00424918
0.00447211
0.00411416
0.00305387
0.0143612
0.00708685
0.000725096
0.00274713
0.00112792
0.00273855
0.00106395
0.00534645
0.00441425
0.00327637
0.00372705
0.00283648
0.000906939
0.00604355
0.00430896
0.00113002
0.00246716
0.00243077
0.00238512
0.00243944
0.00216949
0.00201585
0.0045425
0.00724749
0.0061687
0.00189487
0.00136858
0.0043614
0.000475231
0.00683378
0.00164161
0.00642152
0.0057734
0.00170419
0.00435083
0.0063555
0.000878829
0.00742105
0.00395512
0.00129267
0.00404344
0.00643926
0.00118566
0.0063432
0.00714403
0.000999589
0.00258906
0.00284582
0.000700887
0.00687804
0.00175833
0.0012175
0.00156726
0.000865536
0.0011147
0.0040369
0.00582481
0.00275021
0.00558588
0.00167961
0.00280154
0.00473575
0.00532769
0.00348112
0.00112924
0.00292948
0.00413009
0.00356373
0.00337051
0.00232847
0.00738817
0.00209993
0.00102373
0.00353103
0.00312216
0.0042735
0.00369366
0.00266995
0.00432333
0.00212262
0.00308094
0.000574277
0.00366896
0.00699213
0.000911788
0.00286875
0.000640088
0.000930556
0.00649832
0.00324585
0.00112371
0.00309252
0.000656669
0.00132631
0.000559585
0.00132562
0.000628823
0.00300454
0.00136174
0.00151482
0.000504463
0.00106194
0.00279514
0.000620469
0.000680853
0.00281116
0.00031947
0.00112817
0.00471841
0.00304724
0.00137827
0.000866324
0.00694022
0.00359489
0.0009015
0.000679889
0.00102926
0.00118427
0.00145922
0.000751459
0.00269569
0.0035673
0.0041437
0.0064136
0.0030126
0.00602597
0.000928094
0.00290269
0.00422846
0.000626694
0.00366308
0.0022526
0.00405855
0.00568822
0.00307351
0.00396905
0.00174326
0.00591445
0.0016235
0.00057318
0.00445007
0.00580101
0.00314671
0.00456217
0.000985455
0.00412642
0.00493126
0.00543158
0.00052282
0.0058001
0.00323784
0.00609195
0.00154641
0.00295912
0.00416793
0.00558685
0.00478305
0.00155299
0.00340427
0.00244037
0.00717215
0.00651039
0.00629059
0.00467595
0.00428859
0.00341635
0.00573835
0.00323278
0.003537
0.00217925
0.00114964
0.00101955
0.00295939
0.00162506
0.00409459
0.00255696
0.00344681
0.00366988
0.00598669
0.00312096
0.00420087
0.00588815
0.00200648
0.00443281
0.00292034
0.000978336
0.00458319
0.00263842
0.00107834
0.00339683
0.00104665
0.00170656
0.00111079
0.000310122
0.00267621
0.00481817
0.00216647
0.000418472
0.00230886
0.00663811
0.00568519
0.00461047
0.00315263
0.00424222
0.00670032
0.00679001
0.00335399
0.00266933
0.00703989
0.00633799
0.00695328
0.00484598
0.00263193
0.00159954
0.00286834
0.0057474
0.00317505
0.000868787
0.00492932
0.00558736
0.00392431
0.000576053
0.000575976
0.0037487
0.00539698
0.00427841
0.00270414
0.00388241
0.00101772
0.00158157
0.00455638
0.0039573
0.00524099
0.00328201
0.00166972
0.00449304
0.00313817
0.00333692
0.00119128
0.00191165
0.0014749
0.00086679
0.000202674
0.00197046
0.001871
0.00392488
0.00370416
0.00321335
0.00316173
0.00519123
0.00413579
0.000452592
0.00589331
0.00173467
0.000546789
0.00321743
0.00289485
0.000704693
0.00192376
0.00383724
0.00370646
0.00693963
0.00286187
0.00101947
0.00371918
0.00137832
0.00806418
0.0024068
0.000708302
0.00079161
0.00309822
0.00278556
0.000981168
0.00428513
0.000627255
0.000546276
0.00113955
0.0074196
0.00620663
0.000308306
0.00534424
0.000487737
0.00181236
0.00295465
0.00101603
0.00131962
0.00575071
0.00680256
0.000907482
0.00576974
0.0055593
0.00446796
0.00599671
0.00420864
0.00330041
0.00195144
0.00516627
0.000339089
0.00301073
0.00340823
0.00363195
0.000289454
0.00396324
0.00052702
0.00443873
0.00276539
0.00342285
0.00101556
0.00559043
0.00388747
0.00453219
0.000948168
0.00172941
0.00170234
0.00123638
0.00258897
0.00576802
0.000756804
0.00324591
0.00310896
0.0032782
0.00479646
0.00296342
0.00378131
0.0071796
0.000344156
0.00116585
0.00412772
0.00449001
0.00324792
0.00358693
0.0025992
0.00255024
0.00422334
0.00217729
0.00406034
0.00452645
0.00408387
0.00150845
0.0043269
0.00412766
0.00422988
0.00333951
0.00675428
0.0053679
0.00440614
0.00272082
0.00382258
0.00267814
0.00250997
0.00339883
0.000834561
0.00456252
0.00245387
0.00171637
0.00109993
0.00143287
0.00349341
0.00838459
0.00168965
0.000854638
0.0038847
0.00100935
0.00392293
0.00670113
0.00260915
0.00169241
0.0037363
0.00393424
0.00662451
0.00449133
0.000330919
0.00447146
0.00611703
0.00221956
0.00049118
0.000449789
0.00321999
0.00028409
0.00149398
0.00111526
0.00206603
0.00130329
0.000482329
0.00435051
0.000676643
0.00380168
0.00455653
0.00785036
0.000449845
0.00192821
0.00639956
0.00531388
0.000955923
0.00361897
0.000449062
0.00516279
0.00283955
0.00375129
0.0028369
0.000603649
0.00695241
0.00309053
0.00276135
0.00501484
0.00359578
0.00520019
0.00275286
0.000432998
0.000436875
0.00077619
0.00131665
0.00123252
0.00539103
0.00568934
0.00474226
0.00355589
0.00643629
0.00131223
0.00688109
0.000809137
0.0041088
0.00602958
0.00534645
0.00463337
0.00612252
0.00314816
0.00289144
0.00720309
0.00301617
0.000815737
0.00477847
0.000943206
0.000901446
0.00602633
0.000316606
0.000522988
0.00268757
0.00284162
0.00344985
0.00114672
0.0046825
0.00183355
0.00112071
0.00495069
0.00150537
0.00675419
0.00188153
0.00387242
0.00217599
0.00220081
0.000855408
0.00332799
0.00359367
0.000603566
0.00118831
0.00182711
0.00136045
0.0056613
0.00258925
0.00383966
0.00171072
0.0031113
0.0061234
0.00120161
0.00249503
0.00226672
0.00646418
0.000543263
0.000773864
0.000522038
0.00520421
0.00366538
0.000800458
0.000500399
0.00209784
0.00355158
0.00247646
0.000965223
0.000589029
0.00161005
0.00532614
0.0065667
0.0041885
0.00447422
0.00399029
0.000519159
0.00480104
0.00155756
0.00307406
0.00636743
0.0025581
0.00250652
0.00498463
0.00385145
0.00547299
0.00227208
0.00224342
0.00468807
0.00646535
0.0022531
0.00272064
0.00267134
0.00189998
0.00204292
0.00353668
0.00554667
0.00538609
0.00496364
0.00070321
0.00337586
0.000864795
0.0019471
0.00348477
0.00459918
0.00314342
0.00703558
0.00239228
0.0074711
0.00190042
0.00231392
0.00358892
0.00398446