/*--------------------------------*- C++ -*----------------------------------*\
| =========                 |                                                 |
| \\      /  F ield         | OpenFOAM: The Open Source CFD Toolbox           |
|  \\    /   O peration     | Version:  2506                                  |
|   \\  /    A nd           | Website:  www.openfoam.com                      |
|    \\/     M anipulation  |                                                 |
\*---------------------------------------------------------------------------*/
FoamFile
{
    version     2.0;
    format      ascii;
    arch        "LSB;label=32;scalar=64";
    class       volScalarField;
    location    "0.085047";
    object      omega;
}
// * * * * * * * * * * * * * * * * * * * * * * * * * * * * * * * * * * * * * //

dimensions      [0 0 -1 0 0 0 0];

internalField   nonuniform List<scalar> 
47425
(
59.3073
66.5335
70.5344
157.669
148.382
69.584
98.6415
99.0614
49.394
548.92
133.771
43.6393
72.3195
77.9845
94.4975
86.2078
67.371
47.0429
1369.07
198.778
82.918
43.289
101.832
61.6122
44.3247
43.0043
76.1618
684.736
68.7781
54.0989
42.3332
44.2511
47.7433
67.5101
55.5065
65.2684
42.8979
67.5576
65.2244
73.2441
70.2703
135.806
214.657
144.994
1779.01
100.701
93.7761
77.602
77.4637
46.1929
567.07
238.702
48.3399
678.925
110.477
121.262
44.2332
57.2811
77.2421
60.0153
832.436
1234.35
757.551
43.2346
49.3523
44.1414
61.4052
87.4874
761.319
43.769
77.379
51.9712
48.645
88.9294
566.091
49.4036
779.333
79.4036
1333.81
284.277
587.611
64.0342
42.3061
46.9233
63.7183
80.138
54.0487
54.1777
129.883
404.137
42.9173
74.6383
40.2788
113.68
145.95
192.848
46.4283
52.4096
87.0291
77.3964
60.0856
91.3847
51.4202
95.4429
49.1798
52.1147
53.288
92.4673
82.2038
43.6385
323.077
61.7755
76.5007
153.594
42.7489
867.635
42.0096
225.829
76.2167
61.3288
78.8894
48.5449
58.0939
62.4874
95.2081
58.6485
83.6006
49.1901
103.91
40.6592
44.1938
92.8009
123.528
116.922
120.219
68.0189
47.2945
62.0896
67.7973
95.0705
70.9425
126.352
69.0135
97.161
50.6963
49.3287
121.539
62.6855
147.609
72.3636
98.3814
499.768
48.7557
684.83
45.8039
82.3491
58.8047
874.932
89.1886
69.6944
43.1716
42.5473
49.1183
45.1544
431.835
797.396
45.4461
577.956
104.86
721.638
646.83
83.1112
73.8618
45.267
69.5975
65.5941
720.668
68.8872
51.8168
41.85
974.238
49.4606
59.2264
44.8214
45.1839
48.3757
55.7664
74.4169
146.982
57.7296
47.9245
70.8123
81.7076
77.0221
44.5972
41.4721
61.8693
70.184
42.4213
82.5751
65.0733
122.609
78.9591
41.8562
48.755
157.645
52.2483
41.6924
86.5548
48.4399
62.2519
65.143
47.2037
92.3812
63.5507
63.006
75.8171
263.339
46.053
92.8931
297.303
118.668
143.826
95.1244
165.198
251.141
44.2417
127.077
47.2814
61.4724
71.2721
70.5961
100.065
49.3224
162.902
90.4406
345.336
108.639
288.635
178.866
82.2628
59.0669
40.8787
99.8866
44.0251
49.4523
67.5621
60.6005
42.3764
75.756
41.2499
232.383
65.745
49.2833
90.3879
40.9872
43.9054
118.43
92.7694
48.3484
123.084
47.2053
77.7755
133.566
72.6372
87.976
42.7316
72.7365
62.2258
80.8093
78.9819
252.725
329.754
48.0693
237.823
177.06
238.482
108.703
312.745
181.181
847.631
58.8205
824.472
120.758
78.1523
83.065
102.279
89.4652
88.9118
44.2133
625.069
42.7334
50.3438
55.5527
66.5521
95.3509
108.811
45.8617
64.6773
54.9724
84.6719
43.111
83.0738
59.4324
837.984
1003.4
650.512
40.8483
47.3657
42.536
97.2989
675.538
84.5845
113.94
301.986
71.052
103.025
120.602
92.1116
458.914
261.677
42.5258
59.2868
46.5326
78.9095
42.1904
76.728
62.882
52.2663
70.5646
82.3343
739.281
55.2787
72.9044
129.126
41.1174
734.643
49.29
44.9503
51.9367
43.5029
43.8962
45.6942
51.1613
51.2777
49.3052
58.3177
45.7965
82.3604
80.6975
44.4411
44.4801
60.8161
45.6466
45.6291
45.5917
78.6358
42.22
46.9847
93.3996
53.3678
60.0966
74.8427
93.0425
47.6044
47.9403
128.609
48.2153
66.0673
43.3939
127.112
848.254
76.9987
42.3884
200.232
42.4212
111.112
92.9486
72.55
43.0563
63.5009
43.2593
41.8409
73.7858
83.5699
82.8567
81.3941
51.6705
48.7483
80.438
47.6334
45.8479
78.1811
56.5046
64.2095
47.7492
61.4477
86.0749
69.1725
48.2648
485.369
43.8758
444.272
67.4696
102.741
99.8582
45.6661
143.319
44.9236
91.2427
45.6041
465.655
361.715
42.3911
49.0842
78.4755
84.0436
81.3971
72.8455
79.338
87.5317
65.3825
46.5715
98.9043
69.9364
47.1611
96.299
76.5697
51.584
146.295
1140.49
44.2399
281.72
943.371
88.1906
966.176
685.242
46.4704
78.4525
74.2237
77.3961
608.846
84.0859
48.9789
47.521
73.4612
73.8467
78.2099
78.9087
512.829
672.069
155.049
65.541
72.2152
125.846
57.2627
42.8115
68.1604
42.348
83.9824
75.8103
132.705
68.8209
49.3502
79.4714
58.8511
74.7851
42.4082
63.9462
65.9608
66.639
63.5372
108.529
116.141
61.3449
80.6824
42.3631
580.305
129.865
75.3193
46.3425
130.401
247.797
45.9911
41.6913
46.1285
47.2994
67.2759
48.4552
101.863
83.2905
46.9021
54.942
138
98.0299
46.2925
49.0237
56.7494
52.8959
49.1485
50.3998
42.8614
67.9311
59.22
108.021
60.604
44.8786
43.6936
42.185
72.2226
123.727
43.5089
40.8066
56.79
60.8627
57.7817
58.4266
67.1304
71.4918
50.9206
76.9244
100.902
425.768
59.8184
67.7938
52.3426
49.345
137.442
135.027
73.8813
51.3296
77.8051
108.372
46.2506
146.54
48.4578
260.32
46.5616
49.8802
57.5591
130.859
39.9651
71.217
71.8749
72.1794
41.8171
51.0254
1105.71
61.8751
141.917
44.1883
101.529
46.1837
58.0328
86.4318
72.6521
68.2142
43.8569
381.001
54.2568
57.8441
55.4132
47.1898
43.2892
57.0794
121.971
48.2045
70.9925
66.6326
42.0963
278.974
43.6251
65.963
459.802
69.9447
41.1694
324.493
597.115
42.1949
630.053
661.362
69.1201
46.5983
51.1706
43.1913
84.964
85.3878
713.308
42.4798
122.44
48.3974
119.88
55.7758
85.3081
65.4116
458.975
298.358
51.0967
92.821
100.212
83.381
119.16
122.458
47.6386
95.8196
132.906
97.9846
67.4385
140.734
50.4836
47.1841
141.17
91.8286
76.6591
116.143
98.5722
67.3036
73.4171
62.1776
52.897
67.6214
46.0933
50.8553
1288.75
61.6954
79.1531
1038.12
1017.06
41.2196
76.0364
1567.88
164.228
94.6772
314.849
119.462
761.654
58.8655
47.485
60.0459
176.728
113.729
112.841
45.5507
116.083
66.6462
81.7985
47.7673
77.7253
57.8663
464.993
715.979
118.58
48.319
83.9994
42.0864
109.459
47.4195
58.2111
63.5013
65.0532
43.6967
170.383
75.5047
46.9394
65.8334
181.198
603.972
240.364
83.9723
42.0096
73.8085
42.1693
659.165
68.5058
675.404
81.7156
115.317
66.1252
67.1145
57.741
86.6065
53.7768
87.278
56.6812
204.768
90.917
49.2336
72.8082
88.31
413.856
66.1417
200.054
69.4593
48.6641
43.3207
136.876
79.3157
72.6919
45.9285
61.6432
67.5079
70.3019
79.9104
77.9408
63.9257
125.305
195.452
69.8647
97.7297
66.3826
109.876
89.0212
47.3196
147.79
60.7803
77.0535
76.1854
43.6258
294.627
408.949
92.2834
65.9122
45.5357
89.151
55.5323
131.573
42.7631
282.975
78.1273
42.9115
75.0197
45.4902
58.0021
68.2578
49.3764
87.2754
40.7182
45.442
48.2426
164.026
40.4131
340.366
284.578
269.937
377.799
76.2768
225.901
59.0863
45.483
142.433
307.42
404.18
104.019
62.2584
138.319
111.883
166.552
124.711
92.561
54.6866
69.0743
106.587
111.76
54.965
79.0529
279.542
56.3671
62.7084
153.542
118.069
114.045
186.212
739.158
465.517
217.974
240.607
80.6895
117.104
43.3302
45.0555
69.4924
419.656
170.956
69.3051
71.1374
41.1609
365.07
418.333
41.0726
165.563
87.4337
41.0079
162.078
40.8674
42.0279
71.2167
70.5538
82.4638
46.5727
41.3096
60.0298
67.5426
66.115
135.726
107.4
41.9205
237.724
47.4523
46.1096
46.8079
189.88
77.4515
195.209
117.727
53.7849
42.6604
67.1503
1425.42
69.5698
80.1003
68.9089
63.1535
61.133
110.489
115.498
127.943
299.417
98.8935
818.941
49.4171
64.5335
56.3336
65.4662
44.5927
161.955
121.538
43.7017
279.891
92.2011
71.6034
232.241
78.4882
54.4114
68.5923
69.5819
67.8179
110.015
310.082
65.2287
73.9979
203.814
217.027
680.087
211.757
86.1851
167.771
43.9514
46.1341
108.975
190.625
85.2021
82.09
89.6077
101.739
47.8763
67.8892
100.558
97.4732
88.5338
351.201
454.101
89.7029
156.638
195.402
618.667
288.094
198.159
91.0074
67.1563
96.5893
90.3664
254.287
45.303
47.2808
96.4886
359.322
117.913
78.4462
96.31
52.8603
107.449
125.322
78.6073
534.254
53.4618
65.1455
131.331
97.2569
65.4218
66.1371
104.734
106.794
87.3556
56.5607
120.875
43.8685
43.9527
43.9882
78.1248
56.9064
146.223
52.2728
210.68
280.127
257.964
98.6426
83.7007
44.1287
70.3035
112.829
486.409
256.885
765.953
44.5618
57.685
54.4511
300.576
87.2841
313.992
235.026
229.036
132.857
213.682
88.9491
84.4581
71.6053
45.749
128.266
66.5743
75.4735
264.729
69.0369
68.7096
50.4896
265.597
381.608
150.913
209.783
646.162
188.447
88.7679
66.4562
88.2489
101.841
180.982
184.784
352.689
45.4313
58.1291
71.0332
47.817
61.6593
100.12
93.6636
54.3173
123.406
52.2175
75.2452
50.003
47.2952
121.682
67.7495
111.034
43.5151
44.5294
158.986
45.4375
97.1731
102.748
43.3588
62.476
95.33
78.7876
68.7875
78.9894
461.783
181.57
122.335
105.027
1842.76
1034.27
596.596
437.551
99.48
49.1177
1276.96
394.427
53.0171
62.5814
104.814
86.7259
396.042
136.119
44.1472
111.128
58.9444
49.6819
199.733
953.668
136.421
1235.74
149.752
249.944
645.973
58.0617
75.3517
131.98
349.115
90.4887
44.5869
45.2499
737.114
122.06
377.033
72.2872
158.502
47.3582
52.3477
497.971
520.396
80.5605
51.1361
76.695
579.725
43.0216
51.3945
415.227
495.913
72.592
42.9483
1031.25
656.884
575.965
98.5436
310.768
507.919
640.277
78.9649
85.9185
110.066
63.6583
105.001
496.099
1335.61
64.1697
60.3651
58.7218
51.429
46.0173
80.6034
120.136
65.5223
49.5561
47.7021
98.0493
413.717
1226.76
50.3343
225.138
106.547
71.5809
158.802
57.0581
89.2731
75.2916
45.3771
196.657
52.9893
536.62
42.4772
778.135
404.945
656.482
200.691
102.416
61.646
101.924
74.8735
221.725
1458.72
103.117
395.84
174.285
509.801
162.717
742.514
626.157
89.3773
81.6992
1725.04
88.1974
48.7584
72.1912
676.966
1130.72
78.3326
51.8111
488.279
75.4261
563.273
758.931
106.564
110.709
825.724
102.122
43.5961
625.448
50.6156
402.916
975.166
42.2687
68.8578
82.566
56.4833
121.521
99.9241
41.7102
120.125
88.2968
116.237
57.5265
42.1269
207.931
232.115
575.127
49.9113
92.2703
239.25
44.7064
848.45
85.0614
109.739
150.221
430.719
85.7712
326.062
180.288
145.633
56.7285
460.512
221.992
247.604
88.9788
161.883
62.148
76.03
74.098
354.145
196.968
112.588
710.053
150.1
108.805
242.551
119.514
140.399
679.248
237.829
73.3128
152.302
83.8631
148.415
308.914
597.817
58.0971
44.9833
62.3941
445.53
63.5151
289.883
57.7114
62.3138
47.6541
159.718
53.9883
202.288
320.591
53.4021
59.5027
90.6023
78.6406
952.094
402.79
114.326
750.562
353.523
121.981
222.151
64.2456
55.884
756.572
55.9348
344.095
376.409
44.3262
57.9329
118.779
96.2753
56.2589
70.4209
168.145
70.7663
76.9005
65.4597
79.4432
247.434
65.5919
186.1
151.834
245.392
54.7791
719.359
441.954
53.4803
594.783
256.131
56.3276
103.006
591.352
213.644
45.5389
184.729
501.234
207.765
578.329
56.4051
582.838
119.271
54.3716
68.9484
106.29
191.269
117.51
64.502
222.604
51.284
231.23
104.896
1323.39
140.774
79.8201
115.406
272.058
55.003
303.398
113.197
105.887
558.178
77.4047
77.8462
1175.45
42.7946
101.244
371.008
61.5023
324.062
422.004
148.887
68.7838
82.1498
926.682
212.882
518.305
224.807
76.9471
69.7512
98.7933
687.516
651.051
311.133
87.2518
48.2483
84.2779
85.3482
128.595
323.796
92.459
55.4422
61.8245
60.7036
44.1576
85.0104
42.9641
46.8132
118.962
78.2769
44.9386
126.314
241.406
59.356
46.8212
128.315
63.8531
48.1053
53.9586
97.3535
92.3566
48.7337
96.9013
488.028
87.5158
48.4173
54.0316
42.4392
253.157
66.0439
52.2033
594.09
437.43
289.564
46.7439
578.693
146.85
71.9472
881.058
89.7608
861.868
89.8644
66.3819
81.4207
66.6822
43.3461
81.4203
82.8201
89.1976
111.726
87.639
101.847
166.365
78.9762
82.6718
435.963
86.5143
1455.12
70.9302
695.682
46.1694
116.709
172.814
50.9918
66.9464
189.863
42.3538
453.718
335.666
1099.19
50.167
608.845
59.6227
106.627
183.627
60.323
589.607
89.6837
293.61
76.4381
751.289
687.026
78.5284
42.2139
436.547
66.6777
441.567
85.0412
93.8012
68.8598
71.6254
55.3602
43.1448
87.8334
307.192
75.4819
176.461
80.591
86.8707
40.6416
154.665
320.275
88.4611
267.598
134.268
68.11
118.237
76.6405
72.8272
54.5862
146.578
129.367
48.5681
84.167
81.4181
65.2366
92.0082
336.468
312.419
78.545
87.2203
339.133
86.0665
51.6475
63.2424
46.6377
161.066
163.569
203.932
104.429
68.2412
73.6084
63.3335
56.7064
58.1685
57.2359
484.776
129.528
656.701
514.849
628.97
58.0681
66.6068
73.1989
70.258
47.2883
326.795
80.7765
45.9775
76.3782
111.589
77.037
266.392
76.0484
154.95
117.448
94.0626
48.5666
68.9607
86.5982
85.3353
66.7436
109.657
96.4052
183.79
85.5647
68.9089
78.3838
146.938
165.748
64.2902
77.9746
131.708
94.6712
167.542
49.0227
56.4254
133.17
67.8622
53.6032
74.0655
43.1756
52.6978
87.5478
72.151
365.597
70.2354
88.7558
49.9336
68.8353
598.669
77.2856
83.5633
59.2498
59.3767
85.5331
84.4372
912.801
106.654
331.279
50.3772
59.1298
69.8414
41.0439
47.6933
107.806
78.7636
47.6475
44.2295
316.173
106.66
512.128
116.711
261.141
104.138
77.8565
108.85
495.644
179.17
93.877
76.7259
925.044
62.9642
78.116
83.608
80.1774
71.2079
914.211
65.5768
87.7508
46.7617
120.167
54.3187
884.865
978.915
65.626
52.6806
42.5052
87.5346
90.6067
59.9599
1140.66
638.815
63.2272
134.906
482.078
63.5699
204.778
124.015
42.4941
60.561
46.3026
72.2578
208.774
83.0848
75.7916
43.9824
55.0111
73.0913
48.6131
346.728
63.4596
145.179
174.786
431.707
347.168
99.5224
134.642
76.9441
133.154
115.657
42.5393
594.154
351.222
131.227
88.5672
106.053
87.5437
85.2006
227.31
40.8124
44.5234
62.1878
65.0123
135.721
72.6238
349.742
384.999
44.5039
131.226
42.646
42.2288
80.2629
60.3857
62.0967
53.5842
41.0727
225.842
327.532
41.4429
72.5214
267.877
369.712
47.2724
41.5523
100.863
182.19
907.157
91.4097
395.623
321.75
596.607
391.103
72.0232
48.5656
41.7834
58.4301
938.532
56.0873
85.6803
79.1256
40.7894
624.632
1043.88
1022.35
192.733
247.894
49.7107
44.7872
53.3234
83.0245
664.541
546.619
412.998
532.06
389.156
53.4925
47.5334
839.899
47.8091
883.542
95.2421
880.844
79.4172
151.197
115.514
175.21
169.166
169.716
156.742
63.0048
88.7167
68.8255
64.7808
72.1038
66.0458
1283.33
724.157
90.166
358.369
597.929
350.645
66.5221
44.7313
565.416
488.731
524.698
42.5694
776.131
49.4394
1007.36
558.021
671.819
293.666
52.5657
62.1698
45.544
71.1007
88.0867
173.282
77.1612
83.8812
73.3244
92.6325
77.1154
46.8767
46.7433
124.452
44.207
51.1265
76.7919
101.05
97.0325
84.686
148.784
88.9674
74.2551
127.254
96.0781
88.3595
91.1476
147.544
982.651
58.8576
322.195
68.738
88.1267
504.89
63.1816
57.2046
46.6272
114.132
93.0239
53.6552
107.416
98.777
81.9966
45.7012
65.6019
79.4457
71.4653
101.791
72.2109
95.8149
274.448
87.6675
78.3555
73.6587
108.076
76.6935
352.703
43.3679
66.4231
103.439
324.353
247.148
88.1894
98.9742
922.343
226.652
183.883
89.1782
71.5005
108.096
86.7714
53.8843
127.134
77.0052
86.0898
428.535
49.6423
161.924
126.272
107.208
106.182
200.986
76.7196
57.6076
43.2953
52.8877
98.0591
78.7123
411.664
61.7251
92.0572
127.909
103.532
849.909
56.2138
118.647
104.902
268.15
409.403
141.4
42.7109
134.984
64.7422
44.9105
42.0352
555.525
99.5032
56.9492
419.663
130.368
67.7301
143.252
676.727
1106
181.094
71.6764
724.572
98.0714
263.99
143.061
601.735
239.51
123.358
92.6638
504.25
90.3732
68.9967
84.7878
98.7851
53.5734
62.0231
340.747
43.8689
99.7274
537.059
155.129
564.19
88.6772
438.651
48.1644
1139.54
105.892
106.079
657.356
248.693
308.524
489.294
448.654
259.961
80.4326
80.8778
419.71
55.4588
84.4165
321.663
66.3981
56.3235
76.4759
167.5
69.8497
49.5153
729.873
480.411
191.13
263.346
164.87
91.8249
80.0683
80.3513
110.771
78.1426
56.8225
85.2892
63.46
263.86
273.817
123.41
54.0843
105.331
81.9152
127.662
104.404
96.6116
78.3896
265.687
58.3039
67.3438
252.47
130.726
595.922
204.428
97.6309
691.634
136.769
111.682
370.403
133.415
127.697
49.3235
505.078
41.524
55.8533
50.0833
84.7195
67.1771
98.5848
246.09
104.649
119.335
79.1003
110.526
99.2208
41.8998
368.881
157.552
567.571
1013.77
107.5
390.306
150.667
68.5443
402.58
67.0054
60.4981
107.704
127.321
695.721
497.792
53.677
316.954
347.325
95.794
1924.61
398.829
162.984
348.538
61.5415
88.3851
241.65
335.221
145.659
725.799
53.0001
51.6155
154.282
50.2081
47.9661
106.156
323.441
540.192
48.9349
137.232
42.8952
144.355
62.3512
143.755
328.841
93.4169
322.364
59.6354
63.3988
763.766
43.5137
53.3309
103.06
53.2964
120.758
257.061
45.8307
930.48
549.808
853.002
490.459
119.396
66.2734
52.3742
61.41
85.496
45.7112
83.7165
148.019
61.0413
69.2365
651.478
45.1972
170.381
43.4199
136.66
71.3736
723.443
126.797
119.257
44.7311
127.445
150.069
48.5822
59.5076
96.1961
42.9901
195.172
95.6857
103.105
54.7487
44.5345
100.473
45.7623
125.531
466.068
43.5481
74.8247
50.1941
62.3193
260.262
213.837
122.124
459.31
860.834
264.478
83.0175
394.526
296.356
633.626
74.4178
212.686
272.336
340.792
314.043
794.744
53.821
44.0222
212.242
662.713
53.0372
422.367
122.267
439.227
79.9595
64.6088
671.455
612.996
267.799
56.6584
253.169
129.578
347.614
43.7679
198.463
63.1205
55.806
94.0803
94.2421
286.47
99.4347
63.3467
159.739
78.5437
279.711
426.362
42.8523
81.4802
53.0445
842.514
98.0203
130.117
226.161
136.451
70.623
43.162
90.014
74.7872
514.877
42.441
104.214
310.659
63.717
49.4314
76.2443
72.7424
673.934
136.301
209.756
93.8648
72.6459
927.206
535.929
59.2306
141.325
59.3944
46.9308
413.584
96.4862
537.147
56.2136
49.5204
92.8434
59.5064
46.3817
60.1566
70.9666
134.597
266.891
229.053
354.452
68.6742
69.9241
46.5768
168.936
613.867
938.464
66.4401
376.785
176.821
688.963
75.7559
341.856
108.692
180.074
128.529
79.9045
253.466
77.5891
192.195
112.442
59.4317
1008.4
107.579
461.313
107.394
77.6683
108.178
170.446
70.9147
67.0964
396.796
103.32
119.438
56.6542
122.23
460.446
124.02
78.9359
155.407
46.4693
62.7601
43.733
74.303
76.2444
146.351
68.4912
91.327
95.1745
74.3023
74.333
63.0184
72.3099
59.7198
431.559
48.4983
106.25
47.8293
66.4717
119.95
71.543
52.9257
77.35
97.6148
85.1946
124.225
343.524
46.2035
186.144
418.098
158.581
156.246
50.2462
156.802
92.3954
348.948
63.8985
43.6367
51.9673
175.506
54.2686
65.0934
859.229
224.407
382.141
44.1719
50.1079
193.328
81.1275
55.636
134.659
49.1072
77.7773
53.7494
392.146
44.3427
153.203
44.4807
42.8777
74.3987
66.3625
131.504
106.061
41.9039
310.456
62.8985
66.193
87.7227
806.581
64.2802
61.796
122.792
63.0197
56.848
119.884
59.4554
51.2664
107.57
211.964
123.781
81.2141
377.575
108.209
240.59
48.5037
182.4
63.0061
93.4294
243.938
49.0222
129.487
65.8269
82.1142
152.05
70.6462
561.611
113.82
43.3686
515.773
131.392
942.412
307.313
228.318
85.0016
92.005
122.129
370.401
58.9483
439.063
91.9767
354.926
64.8377
430.706
62.1252
251.368
217.233
119.61
328.071
515.102
354.856
1088
540.427
341.184
442.433
439.208
323.336
42.1443
94.1327
339.557
68.3416
660.367
57.66
516.42
614.139
115.36
98.5627
74.4358
43.4183
112.952
46.5269
248.842
129.74
82.0675
186.175
84.0328
152.018
71.2649
53.6446
109.527
48.162
215.871
47.3781
67.8591
697.592
65.1059
42.3809
101.41
63.5231
835.738
291.252
73.4925
73.5285
171.015
49.2355
84.8091
49.0367
49.8097
103.063
74.5858
54.3861
61.2941
330.21
87.5505
53.6335
42.6361
43.6604
45.5393
202.812
70.2893
93.303
53.2356
83.9954
97.5262
54.5912
216.998
71.5159
47.449
58.7756
82.1871
133.304
110.496
98.1829
49.5464
118.498
83.6329
51.083
50.8096
74.8984
87.5326
101.361
66.7684
120.542
65.1579
91.7095
114.343
314.414
776.677
1110.18
119.487
59.4505
516.868
167.614
224.123
44.3707
50.3022
42.6166
88.7919
70.9158
42.819
42.9463
44.2317
108.713
41.764
46.9135
42.1854
58.7835
191.193
51.3899
110.482
51.4277
96.0825
234.748
58.5088
53.0092
66.3928
1088.24
841.331
99.8161
67.1178
68.1782
58.8359
111.702
474.409
62.0835
66.3925
89.5862
42.1361
93.4941
49.2287
87.6024
109.873
90.2587
61.3854
200.086
272.347
62.4953
2046.68
278.289
195.841
61.6755
83.484
97.3365
112.669
53.7558
73.8686
295.602
45.0525
187.827
647.74
103.41
121.924
590.805
63.2862
78.221
89.8491
41.9311
114.668
402.676
90.5113
91.7724
444.462
223.817
1019.37
623.408
98.641
47.6074
137.6
66.9658
185.278
151.246
564.875
49.8488
45.5072
637.348
52.8617
188.815
78.6923
101.818
658.944
686.75
49.4947
42.7022
913.324
49.1566
52.6725
65.2629
47.5051
80.8599
162.898
275.246
60.5986
574.137
102.248
51.3206
83.6698
719.339
77.4905
600.313
64.5252
61.2676
84.6851
83.3947
59.8834
117.265
64.0123
555.992
116.897
121.501
528.162
120.318
52.9668
743.196
117.927
103.022
85.8634
182.538
105.131
81.0668
44.4407
265.118
72.4671
70.946
63.2899
129.081
84.1906
58.8085
44.9308
67.6916
142.506
72.2433
65.2582
79.7877
496.92
71.8483
71.4723
69.5391
91.2376
45.9626
63.9771
63.5327
130.608
105.673
140.418
146.884
88.522
437.946
63.3984
55.9867
415.594
365.242
479.317
87.3643
333.756
51.7547
533.75
93.5743
288.882
94.495
43.6463
112.783
195.68
92.4131
69.8241
42.6076
63.1315
411.605
63.3376
49.0888
53.2258
1391.44
265.436
44.1376
1442.7
556.323
322.379
254.812
613.258
259.027
77.6977
246.983
87.1073
100.907
385.949
859.212
61.9629
43.9582
53.8408
484.458
44.4567
857.781
150.19
126.4
154.071
122.477
330.101
41.9939
113.897
121.424
55.8626
103.024
53.1767
117.804
1970.19
1770.31
819.704
96.6802
722.671
42.5916
48.7377
61.1055
98.7824
44.0635
54.9365
42.3183
73.5721
88.8326
46.9748
54.133
75.3039
46.4029
99.3612
118.768
43.1334
113.097
118.317
43.0058
52.2795
861.589
55.5073
847.307
592.191
123.198
130.251
83.2032
121.483
68.1158
51.1423
635.044
58.0742
56.4633
47.0622
49.5761
77.2585
135.911
138.289
172.972
112.831
46.186
575.315
60.6246
328.912
407.38
63.6791
360.785
85.4675
53.0647
60.7113
57.4086
61.84
45.8243
126.994
50.7814
304.306
218.37
336.677
56.5698
56.3868
82.1013
277.697
506.512
93.9866
145.98
63.9352
260.084
63.6681
189.465
397.454
82.9705
56.1777
91.6062
901.205
61.7793
59.0043
118.672
46.9502
136.706
122.577
153.065
84.2708
297.049
169.922
371.182
71.3675
267.998
437.691
311.001
53.1931
171.912
87.201
101.9
53.4575
65.2705
62.502
489.614
84.7764
97.1593
328.077
81.7258
62.0538
95.4118
45.1392
140.186
48.2481
63.8345
162.447
103.559
77.901
163.678
95.87
96.1537
79.6862
124.591
43.3514
280.433
232.322
103.928
104.48
44.2165
244.48
59.1034
43.1854
84.0196
45.9421
106.126
88.0314
50.1213
55.1072
98.2037
296.158
212.832
49.6423
801.222
43.4452
97.5316
94.0501
48.1617
753.257
145.589
656.714
50.0294
67.2938
533.953
671.535
85.2628
100.158
185.487
127.983
48.6572
104.889
63.2203
143.025
81.923
131.782
49.8268
133.457
99.5277
104.863
59.857
86.9595
42.282
59.6808
602.181
433.28
103.902
108.239
98.308
85.1303
84.4571
162.535
43.4715
49.1026
59.3176
85.0764
79.5562
66.5229
110.177
51.0805
57.7141
51.8029
71.2642
57.5279
68.7266
202.391
90.0339
67.7139
928.676
76.4485
63.7897
77.3681
43.0038
82.1112
204.37
45.2685
74.0417
80.4579
349.618
64.2588
63.2341
93.8702
1416.77
94.4159
155.842
116.497
64.6288
87.3286
79.6143
62.1611
856.124
92.8774
68.3201
62.3562
42.1846
284.879
45.7047
310.464
414.778
112.119
72.199
59.3155
118.66
86.4563
55.4875
440.744
118.073
290.336
42.8861
136.94
454.931
118.36
48.2427
98.2024
53.0736
437.955
55.1386
55.2555
88.1408
41.5753
59.6259
87.1518
50.7248
417.61
42.0366
393.522
45.2454
71.8676
66.3699
146.194
85.0524
123.349
111.551
576.111
111.063
116.691
73.8467
44.2192
104.127
58.0765
52.2162
78.9678
74.7409
62.3474
119.929
46.4997
65.8727
47.1116
302.216
86.1944
534.538
550.589
322.031
154.109
67.5725
70.2185
60.207
189.99
87.9984
43.0021
41.6139
111.513
151.11
45.7725
70.1554
1015.79
134.798
65.1171
73.8144
384.546
829.066
58.9307
551.557
541.609
199.093
371.022
159.154
550.278
71.4482
214.617
737.426
73.6124
41.6859
60.9395
109.489
312.947
42.5657
43.9539
70.3481
139.399
152.255
821.144
107.148
1058.18
118.187
68.6544
82.312
75.65
76.7788
471.108
202.183
424.45
478.238
66.4106
336.587
1059.22
65.543
185.623
123.264
403.78
150.088
130.651
688.249
1012.78
108.955
635.633
123.389
445.822
79.9591
43.3167
150.08
810.77
699.4
62.1427
99.7114
143.536
99.0506
259.997
48.4189
72.3779
966.466
351.874
333.21
82.1997
309.027
65.6072
328.623
55.1967
118.77
183.098
271.15
86.3422
122.761
267.944
105.433
802.112
70.6032
59.1165
409.772
46.1367
142.575
44.6182
54.3903
42.3398
80.1916
422.183
430.505
320.778
57.6912
63.1535
316.288
56.6695
499.875
72.111
52.7303
79.1375
202.584
153.844
608.762
49.6868
71.3806
62.5282
268.663
98.3137
573.309
909.064
419.217
104.578
59.4415
433.562
317.506
147.221
46.0604
61.2817
41.9728
675.395
284.634
409.723
1115.62
239.279
92.7747
78.0984
760.861
408.746
62.5883
87.4849
99.9386
400.138
60.349
46.9736
88.2134
80.0076
768.978
249.191
221.008
213.903
315.506
313.913
159.765
88.1042
819.989
378.322
707.103
199.871
378.892
670.907
149.206
57.2907
108.064
58.1491
58.963
78.5538
78.5646
133.48
273.582
83.4775
177.575
181.154
145.577
113.208
189.951
115.127
103.66
127.81
774.543
1112.52
395.089
69.0155
116.257
81.984
240.84
598.366
156.096
544.332
79.3715
472.835
386.692
172.403
46.8862
42.798
68.6732
63.3524
711.151
95.4788
57.7218
441.751
70.8418
864.119
473.581
107.764
473.182
63.1758
44.2909
45.7022
42.1882
96.4723
59.6987
88.6491
127.197
71.8623
44.3924
139.56
590.274
545.528
43.3853
104.634
47.2155
61.6904
56.3656
612.396
47.5064
53.8151
52.9141
102.93
44.8294
54.7102
99.3191
55.0316
57.7743
52.11
238.118
43.4259
55.4442
134.806
405.896
358.047
63.6999
448.047
652.857
53.3368
51.9639
163.901
77.7397
338.656
70.6914
88.9306
82.8131
222.66
67.1674
89.3907
998.635
502.143
82.0671
619.87
45.7407
45.995
60.6969
44.4121
46.6943
69.9675
52.5903
79.1388
216.44
87.6562
309.738
238.251
188.706
79.7057
42.3373
509.934
126.975
81.1107
528.434
99.9191
681.896
60.1746
421.28
43.8344
183.27
84.6886
221.663
45.9181
83.9805
75.482
525.912
49.0445
42.154
194.982
80.4234
140.118
60.1702
73.4764
91.5374
46.6688
140.563
47.8088
62.5382
144.357
93.413
382.759
67.7401
45.039
60.376
43.1187
50.8558
318.662
41.9997
95.8938
42.6928
216.818
112.349
48.5466
107.99
110.193
55.4567
69.604
75.17
125.155
144.346
50.7218
48.1428
90.0607
65.7428
294.024
633.54
502.805
59.0763
43.884
58.6615
64.0787
87.9806
931.305
235.069
62.353
52.221
77.0367
45.2357
47.5109
74.8958
152.217
206.583
510.659
335.578
56.2095
78.8577
70.5004
42.1136
218.761
71.6814
120.756
111.747
48.4909
983.72
76.747
56.6906
69.6021
73.0339
156.614
601.053
44.3001
431.981
53.8235
720.23
125.081
531.311
68.2873
42.9952
60.1406
104.677
47.9083
48.5082
122.815
43.6264
42.7843
54.1117
60.9064
235.983
51.8543
742.883
69.8276
59.8956
155.974
171.477
48.3928
381.243
946.481
733.596
455.118
420.707
54.6054
383.399
288.22
71.4162
56.6595
52.4386
643.614
89.0569
94.9353
47.486
78.0499
257.044
783.909
158.74
85.2576
46.1835
64.6004
196.466
44.7237
55.1128
619.607
454.764
218.642
759.51
72.7618
45.8813
69.7335
79.817
1119.34
50.4469
45.2335
42.5712
262.915
45.7738
49.5167
89.3241
99.3471
44.0167
110.624
45.316
140.758
84.7957
139.566
48.8561
236.174
86.3362
110.438
159.125
109.149
185.902
47.6004
619.44
93.3053
261.095
293.755
279.084
84.9119
128.824
206.97
64.8564
43.8665
50.8536
52.7349
84.944
567.336
114.82
45.4399
81.3533
64.4542
48.0429
118.865
61.7558
132.818
102.476
46.202
95.7227
48.0392
77.9458
298.212
600.451
71.3994
98.428
79.047
102.058
514.361
249.049
415.367
823.034
139.677
46.0402
47.6186
43.5992
103.396
811.211
78.6279
744.018
110.136
43.9628
116.694
425.493
45.4308
45.835
54.7929
73.3046
59.6728
210.405
74.6756
89.1047
323.77
53.4288
95.8708
65.4804
127.932
212.888
50.4503
694.209
81.0062
107.215
54.4553
131.905
45.3145
137.665
123.23
93.6683
89.063
79.5545
65.8547
69.5477
49.5335
222.949
61.5554
49.6894
113.485
199.755
226.963
172.108
97.4606
108.357
193.226
69.9326
249.263
136.03
130.575
98.7397
103.73
133.615
71.3718
174.049
296.999
97.062
52.4693
48.5976
254.933
87.5033
99.3082
48.7726
97.6563
87.2807
47.8203
91.7685
409.917
99.0879
70.3006
84.3749
659.817
76.9175
87.3954
146.163
58.0211
152.172
46.27
787.826
84.9323
76.7311
80.5028
53.8631
110.488
53.9265
433.529
42.4378
74.8891
660.693
59.3046
106.641
194.147
97.5547
49.2059
601.332
58.7698
43.4258
102.188
127.387
61.0756
339.483
43.8813
343.081
96.1534
42.8632
68.8592
114.676
719.023
181.004
71.1941
43.2869
129.566
407.628
431.628
115.381
122.36
959.426
210.836
233.828
126.246
79.3681
101.271
59.7945
510.349
1045.94
152.996
158.48
100.195
1198.22
437.064
535.545
385.701
184.066
64.6259
49.5412
152.802
73.7489
544.691
303.567
72.1352
959.338
104.931
128.047
70.3763
50.4285
103.583
86.0896
89.4329
79.9627
148.132
184.326
864.217
57.3934
119.105
634.432
609.036
182.268
174.994
60.7465
606.037
47.1545
65.8885
339.229
148.443
42.5749
327.134
421.776
72.3706
121.718
48.0335
92.0394
54.2416
80.9266
172.136
80.3986
602.09
45.1162
49.7836
84.7591
469.515
172.586
121.448
159.814
249.172
119.815
77.6927
433.824
106.471
67.6494
199.156
788.367
217.755
59.3752
336.342
160.407
93.7501
65.2277
126.89
46.7331
106.434
79.1385
72.8216
62.9016
60.0817
84.7729
43.1039
42.6674
49.4743
100.246
49.6319
160.565
388.535
723.632
93.8103
89.8761
59.0645
47.8487
101.795
638.005
51.5169
141.514
71.9655
243.631
66.3161
148.822
213.978
444.504
47.937
57.1051
279.496
52.7515
68.5619
149.599
97.5731
409.126
86.5858
220.769
480.202
184.241
631.152
196.404
379.475
101.634
178.305
145.51
53.3858
497.929
148.298
82.7449
178.12
106.626
95.7363
42.9345
51.0274
48.9786
43.8339
87.5157
351.517
41.6045
949.81
108.046
352.002
112.311
383.998
1035.53
54.8252
246.027
789.991
165.698
354.198
76.202
69.6072
750.941
985.2
290.303
167.119
51.2103
476.32
102.039
642.194
52.6806
52.6124
242.262
1002.69
61.1037
85.0409
50.5207
247.424
513.99
47.6136
425.538
200.91
531.579
714.741
49.4642
339.334
73.7171
619.895
286.895
199.48
441.123
249.392
496.792
349.474
228.102
81.6539
78.3844
73.0806
48.3805
53.5133
1425.42
74.4617
112.322
79.9983
78.9972
148.007
1195.21
159.159
197.615
288.66
163.286
220.736
123.452
42.6526
78.326
1071.56
648.684
289.973
189.875
254.68
88.8691
493.714
59.9884
264.164
378.445
58.1052
551.268
88.4495
328.619
306.052
189.711
280.452
283.497
173.328
48.9106
131.837
59.8577
569.199
71.7648
193.657
84.2811
271.216
54.2133
67.0212
321.368
117.965
269.464
44.3984
1393.67
46.1329
58.9306
57.2921
53.7266
103.696
519.157
197
107.367
653.793
72.8454
49.6611
55.9056
869.725
95.804
100.18
840.166
359.876
908.871
542.189
191.613
275.272
156.715
184.276
717.845
65.74
428.946
147.872
65.8472
179.389
63.9635
167.655
81.1889
625.64
475.486
583.698
381.237
316.974
265.156
52.6311