/*--------------------------------*- C++ -*----------------------------------*\
| =========                 |                                                 |
| \\      /  F ield         | OpenFOAM: The Open Source CFD Toolbox           |
|  \\    /   O peration     | Version:  2506                                  |
|   \\  /    A nd           | Website:  www.openfoam.com                      |
|    \\/     M anipulation  |                                                 |
\*---------------------------------------------------------------------------*/
FoamFile
{
    version     2.0;
    format      ascii;
    arch        "LSB;label=32;scalar=64";
    class       volScalarField;
    location    "0.085047";
    object      p;
}
// * * * * * * * * * * * * * * * * * * * * * * * * * * * * * * * * * * * * * //

dimensions      [0 2 -2 0 0 0 0];

internalField   nonuniform List<scalar> 
47425
(
-0.0962738
0.22012
0.093254
-8.68792
-25.9158
0.0413353
-23.8121
0.0297377
10.6474
-41.5371
0.016433
11.0965
-18.9867
0.0292593
-4.64407
9.96152
0.0692255
21.8574
-119.091
-41.3448
0.286822
13.2831
-0.0408642
0.400519
12.0788
0.318859
-0.00699109
-49.7879
0.0309043
0.135376
13.3625
10.0368
11.2855
0.230274
0.118795
0.0149538
14.0501
11.0718
4.42142
0.201157
0.495704
-4.90662
-1.42711
10.9883
-43.1735
0.455651
0.0156201
10.89
0.232723
0.205183
42.2177
-3.03261
0.165485
-38.6333
0.0722683
6.20463
0.104421
0.12197
-11.3713
0.0740968
-40.4802
-38.0083
-54.3295
18.6458
10.4853
0.677006
11.3741
-5.26455
-46.4178
20.4971
1.31066
0.315123
-1.37996
0.654586
-48.7276
10.3259
-53.8395
0.0957295
-59.7649
-26.1669
-50.54
8.06965
18.502
10.2035
0.802404
-0.449888
-1.5463
0.195159
-7.35011
-31.7429
12.5911
-0.433545
0.26923
-0.421178
-0.385383
-0.153709
0.125212
-0.420609
-0.146858
9.1566
10.0902
19.1242
6.87269
43.5167
6.92168
-1.93016
0.443076
-0.16098
0.304007
11.3696
-34.0508
10.9934
-2.32607
-0.588389
-3.70123
31.2616
-3.28601
43.5974
5.7897
-6.49719
-0.647522
11.3098
10.8757
-12.0964
8.88037
-4.02626
-0.408904
10.3839
0.178227
0.39936
19.2345
-1.63504
52.2501
5.732
-5.07529
-14.8359
0.410952
-3.91179
8.84932
-3.26944
11.3544
-6.20513
3.63431
-3.81955
8.8569
10.4471
-24.701
10.6372
3.64826
11.235
-3.24327
35.1089
10.6808
-9.64438
18.9919
0.501484
-1.23926
-125.625
-0.0450816
0.0378398
-5.2263
0.496173
0.232843
8.56652
-52.5651
-94.971
10.6729
-49.5909
0.422746
-49.3792
-49.7134
0.355425
10.4423
16.1784
-0.181296
11.5947
24.3749
-0.0224596
0.133621
0.153025
17.7501
0.413115
0.00727081
0.199759
0.234688
10.0533
7.81642
46.9921
0.147686
0.233059
11.1945
0.141973
-14.7311
11.4119
0.257239
-4.44276
11.3916
0.235228
-5.17179
-0.258571
0.125524
-1.20989
0.954999
-4.1616
6.61178
-0.460271
0.0234591
-3.66522
9.96316
10.3259
-0.169808
-4.53511
10.4063
0.383024
-1.10929
-5.56078
-0.543748
-30.6569
19.1326
11.1922
-28.6886
-7.22345
1.122
-0.879764
-0.0797732
-26.5322
0.235035
-5.29069
-7.77506
-12.176
-0.219782
0.0595087
-1.09796
11.0195
0.0560885
10.1961
-31.3205
0.309715
-28.4049
0.0585546
-0.0399559
0.21156
0.220873
-8.62531
5.97266
10.339
-0.228706
10.2233
0.338985
0.0896568
0.413007
-24.5199
-0.0116808
11.3762
0.196462
-0.0171577
12.6265
0.055732
5.33621
10.2618
0.110369
10.9189
7.56915
7.4717
-14.9766
-0.999779
0.0577026
-14.6736
0.280629
7.5215
7.9744
-28.5102
-30.997
7.93197
-26.1937
8.14046
-27.392
32.0396
-29.5774
29.8073
-37.4889
0.0549329
-41.8293
0.262419
0.179931
-6.15876
0.226371
0.0423745
0.59525
-3.46521
52.7779
17.5138
10.5218
0.122948
0.054309
8.9432
-7.0697
8.37712
10.7704
-12.4289
0.104578
0.335246
0.0324734
-0.0414758
-46.3799
-58.8889
32.1055
0.176437
0.161831
9.17098
8.57251
44.8685
0.0110929
-0.0328358
-21.8527
-0.101225
0.275604
0.0254682
0.0894411
-33.8632
-20.5799
9.74536
9.31219
0.0209141
-0.233728
-0.0675938
9.58512
0.147899
0.200894
0.0542683
-9.35487
-53.4766
2.86828
0.0526649
11.2387
-0.0338357
-52.6442
10.998
0.233593
0.448479
9.66501
9.44844
0.461118
11.2577
0.251806
-0.0053795
0.14231
13.8361
0.0504566
0.170087
9.96003
5.24541
10.062
10.9154
10.2941
-4.09664
0.256178
17.9278
10.7567
10.6275
16.1113
-6.95354
0.350594
0.0354193
6.35799
-1.49877
0.0353475
10.6635
10.9576
7.76048
-0.00481925
-44.4923
-1.6366
8.89662
10.4625
8.7424
-5.91519
9.98966
10.3299
13.6531
10.2473
8.66937
0.442749
10.8186
0.460887
10.8426
0.0359819
8.02222
11.3065
0.0408276
4.17925
5.62234
0.0761704
4.87287
0.298792
4.76244
11.2814
0.0239354
-15.5465
0.0802865
-33.2152
0.146175
-37.3839
0.149668
0.287111
0.13971
-0.0071092
0.177167
-0.080376
0.0115635
5.5712
-53.1607
54.8349
0.315406
5.16557
2.32109
0.78053
0.198592
0.0360182
0.204637
0.107115
0.311537
0.326959
0.698644
0.0147205
-0.0149929
-10.8434
-7.47136
-3.93937
14.2646
-52.6122
-1.27383
24.3934
-52.0581
0.693852
-53.8314
-35.6313
0.426344
-2.31634
-1.26922
-5.33179
-54.8301
-0.133218
0.380881
0.222965
-5.93844
-3.57159
0.17776
0.342368
-30.177
-53.2048
-28.5666
11.1396
16.8956
-5.69081
0.318631
-1.32863
-15.8272
-1.13229
11.1095
11.3572
11.3807
5.03127
11.2928
0.398634
8.62875
0.114849
-3.31949
0.354259
0.23859
11.1738
11.2881
10.1736
6.07017
9.33135
0.142997
-2.35387
-30.212
10.2489
-15.5064
11.3201
-3.64953
-14.8849
11.1956
0.307775
9.66562
10.65
10.2688
7.48986
0.261761
-2.49851
9.77661
0.0218103
5.90125
19.3674
0.36568
12.3101
10.1806
13.7967
0.217722
0.125909
0.64247
-0.0355647
1.91887
-0.00899072
-0.0640389
0.253239
0.432531
-2.27276
0.039825
0.0438737
21.7851
-0.0145774
0.747174
0.464385
0.320608
0.105373
0.163398
9.31239
5.85152
10.4179
10.4209
42.28
0.12543
0.0159254
10.6561
10.8746
-22.2907
-26.0147
0.164029
0.47759
0.50403
-13.2422
9.9487
-29.4933
11.2803
-32.5143
24.9641
17.626
0.0282757
-23.4199
0.199436
0.188806
0.15274
1.13867
-0.0770439
0.302998
-53.176
0.110237
-0.0342024
0.191337
-20.4654
0.264061
0.0491887
-20.8871
-17.2697
0.139514
0.112466
-31.2926
0.212061
-2.47328
0.0417407
0.317224
0.301005
-12.6293
-15.1067
17.5601
0.613584
0.35797
0.000477506
-29.4269
16.728
1.4023
-31.0578
0.106555
0.132598
-31.2501
-43.2055
11.9677
-31.0545
-31.0779
0.00923142
11.2363
0.0893499
15.1501
10.2101
-0.0562265
-44.6805
9.71649
-0.0203285
0.197739
-18.4097
-11.7559
11.2787
4.80273
-49.7237
-27.5264
0.0899927
0.107315
-0.932213
1.37964
0.195152
0.286339
10.2119
6.30169
11.2846
-4.06293
10.4273
-30.8371
4.20357
2.19088
-32.6445
8.92794
0.23049
5.65597
8.46885
0.272653
10.6927
-4.90028
27.5668
10.4535
-2.88767
0.579695
-76.389
7.5922
-14.8812
-45.0788
-45.7542
0.149123
0.223121
-48.1665
-0.0171445
2.18543
-31.6548
10.7524
-41.6959
-0.0690746
0.14919
10.5708
-37.8528
11.3872
11.4539
0.405251
0.124172
0.337591
-0.0155049
0.251795
0.610984
-0.597658
-34.9991
-27.2428
0.258611
12.6964
0.0621615
16.4007
9.74776
11.3471
11.3623
11.4143
11.3425
17.8686
1.22498
11.2992
8.02839
-6.12377
0.0111305
-56.2354
-31.9508
-0.00546686
16.7171
2.94259
0.0612374
-56.7636
0.0144851
-51.3147
0.243813
-16.7534
-16.7087
0.425021
11.8277
7.85688
24.3823
-0.00372478
0.248698
-0.683534
-20.9874
11.2222
-19.6379
-0.84913
-53.6882
-14.9899
-0.823022
-17.6497
11.3
0.364839
4.10349
-0.619001
-18.7697
11.1954
9.87253
-18.1155
0.0374804
-0.883415
-0.109577
0.20597
27.0708
25.5902
14.0487
14.1558
-0.0230417
-0.0677487
0.524821
-0.479914
-3.78125
-0.021946
0.21851
-0.0106579
0.34713
29.1856
-16.1119
-0.0917124
10.1373
0.224766
0.325539
0.120726
-0.0330305
-5.36823
-28.1078
0.183554
0.101056
-0.0559538
0.413895
13.3323
0.0610932
-1.28303
0.29765
0.284217
0.333095
16.7201
33.9393
0.415012
-30.754
-14.3888
-36.3902
-30.6852
-0.649451
-11.0786
3.05133
-0.726599
40.8223
-31.1721
52.9697
-14.7322
-0.691277
-24.1742
0.182893
55.0955
0.804531
-1.36678
0.601472
0.0936295
-14.5645
0.488221
0.417014
0.267865
-31.0201
24.1669
10.6111
10.8838
43.0644
39.409
-18.1889
-45.0814
-32.1423
44.5682
41.6058
10.7668
0.260071
16.2185
0.213152
4.79978
-31.252
0.148657
4.04559
5.29347
0.265844
-31.8351
-31.6862
0.0585221
4.14138
0.437733
0.258232
5.36771
0.22874
14.4149
-0.02116
0.33694
30.0562
-0.0108436
0.048229
0.05879
0.170185
0.200414
49.9978
-21.7404
0.0516017
3.60903
0.363564
14.1145
14.5741
-17.7904
0.20527
-30.5011
-19.3803
4.50302
0.709443
22.5546
-43.6446
-0.034789
-0.0614224
-7.95647
0.27391
10.9418
2.39697
-0.000153412
11.4498
-34.0889
-20.0731
-44.3694
11.4175
24.8936
0.0805234
-13.7905
15.8067
-18.7673
-0.07514
17.3233
-36.8368
-9.24608
-20.1616
-31.2848
-19.2255
-0.98639
0.0152434
-15.1925
-0.0529675
-20.2206
-30.1497
-0.0250432
-21.3901
0.243828
0.351508
-39.5513
0.240502
-0.139875
15.0714
14.1101
10.4241
-26.7407
-9.67733
0.412728
-12.9823
45.7642
-2.05121
12.6605
0.49787
-1.67028
0.291944
0.221463
-31.4629
-54.3336
-11.4377
-2.21761
-21.3891
-23.6336
-32.559
5.73768
0.139696
10.9966
11.1948
0.384892
-13.9981
14.9408
21.8656
11.0618
-30.4979
-19.5506
1.33914
0.00771291
0.241337
-0.310606
31.0459
10.7697
-24.4444
-0.0295414
1.63605
10.8768
10.8612
10.7605
10.5784
11.1052
-21.5509
-5.1871
22.1484
26.1646
15.9108
5.53624
-3.01054
33.7153
-1.15943
-9.23849
-2.23517
-18.4741
-14.0238
-16.4991
-2.33967
11.1102
13.8579
10.9101
-0.326663
-35.5955
-33.7969
-44.4708
9.12719
-11.242
4.11657
-23.3073
-0.145353
-39.0573
-0.209374
-0.478523
-13.8271
6.82577
-0.304994
8.27278
0.179299
3.77848
-14.8946
0.394933
-4.63266
-27.1839
-8.09421
-3.21443
15.2906
48.4371
-52.4101
39.1365
-30.3162
-59.0074
0.207703
0.253635
22.6959
0.130808
49.7855
0.17113
0.153168
-53.0417
13.5224
0.651938
0.331829
10.6849
20.7066
9.27594
0.171244
11.8135
-21.7907
8.23207
11.6009
11.8176
11.3064
0.204234
-16.4852
-9.21957
27.2003
12.8995
0.191197
8.89359
0.260713
0.251542
6.61484
-12.45
-6.57024
-13.7819
-13.0959
9.17972
-44.4435
0.222634
0.250671
0.174322
-46.576
-47.6983
-30.5276
-30.9552
-1.08757
-2.03764
-41.4424
-31.7775
-7.78863
10.5015
0.161403
-1.32955
-42.7289
2.36214
-3.75919
0.334364
7.63492
-0.998252
30.5688
-112.281
-18.5241
-34.1921
0.385526
52.6633
-52.4345
0.704196
9.18081
0.697526
-34.8994
9.26512
-7.71797
16.3213
-29.9127
-0.533568
-31.5685
0.657251
-13.4905
-0.520196
5.48129
-35.8167
-33.7016
8.63003
17.513
-14.8666
-46.8089
8.04848
-0.095534
-35.1823
-41.8822
9.93728
7.39491
-63.0827
-52.7772
-44.2378
8.77907
-12.8151
-27.071
-43.8307
8.17497
22.9457
-23.13
-11.6963
-9.35118
-33.2019
-41.8531
-7.04342
6.64554
10.5414
10.9874
12.4377
8.53103
-5.80435
11.2944
11.2521
12.1923
-1.83177
-30.2557
-39.5521
9.3635
40.2028
-22.7937
9.72369
-20.1775
4.12482
8.54776
-12.1121
-4.42246
8.71479
7.74968
-56.8234
11.6737
-37.3514
-53.7363
-37.1547
8.2935
-13.218
10.2158
0.606012
1.20821
-20.929
-42.1446
-0.45412
-32.447
-20.7426
57.5598
-24.8688
-47.1731
-33.2303
-0.0878821
-0.390408
-44.0167
-1.57471
13.3202
-0.048401
-45.7716
-42.7995
-0.0217245
-1.26568
-36.7248
-14.7206
-44.1292
43.6732
0.112284
-5.78536
-46.4577
-2.19502
20.7892
-35.3468
13.3899
-56.405
-19.6736
9.40669
0.215983
0.0595072
-1.04421
0.155506
-0.964467
-2.11623
0.142548
5.63465
33.0618
13.558
23.1051
-21.2129
-11.1895
27.8611
-6.36103
2.32678
-15.9098
11.6398
-69.9749
0.405421
-0.44158
0.478944
-41.3198
0.262107
-58.813
0.319299
5.36944
5.28546
-53.5125
49.1216
-31.8951
-26.898
32.9464
-5.7061
10.7662
-12.1334
-27.855
-30.7985
-28.7446
42.8599
10.6143
-20.2426
-30.9158
-7.97086
-7.80973
-40.9485
-30.8503
1.30618
-18.551
10.4993
10.7731
-25.3805
-46.8444
-3.46737
8.67064
10.6599
-52.9502
10.8016
-11.5384
-14.6971
10.7901
11.0201
-24.9938
2.62519
48.4968
-24.532
2.29204
28.4337
25.5589
8.0861
-88.2025
-42.1568
-19.1823
-119.463
59.6156
11.093
-22.6307
11.0912
22.024
-55.4676
1.40679
-55.3678
-28.932
-5.75535
19.4244
-10.6763
10.9482
10.9935
13.7153
-24.3199
1.41369
0.0799982
24.6654
0.0751762
-18.2525
11.9844
-15.4747
-3.19026
-28.5317
14.0035
-59.5429
-43.9844
4.63644
-39.4993
-31.1678
0.0625177
46.5064
-39.26
-6.91451
27.725
-14.6151
-21.8966
-27.2623
-36.6728
5.74169
-48.3083
-24.6659
4.24746
-3.24447
0.347561
-27.3924
-6.26801
23.4084
-18.6032
-0.0335299
22.1189
0.342723
-64.3672
-0.002288
0.0501415
-9.05319
-26.9676
19.6742
-11.7716
-16.9016
-10.3119
-55.9159
0.0139338
-16.266
-66.8418
0.349343
-9.84423
55.7502
-9.26332
-33.7193
-50.8768
0.0503038
8.37273
0.0327997
-130.125
-30.5379
-26.8239
-30.0551
18.19
-7.74636
-1.68978
-41.0299
-50.5965
-19.1186
0.246835
10.8347
0.608332
0.375892
0.523814
51.3445
11.2334
10.5338
-10.7186
0.331255
14.2901
11.4311
20.4657
10.982
0.111227
19.7116
11.9156
8.6663
-21.6826
0.783501
10.3523
8.21007
-13.2726
10.3757
0.304251
0.332414
8.93595
11.3271
11.1235
-53.3887
10.3173
16.377
0.467155
0.192007
-27.8279
12.0525
11.514
-51.351
-49.0087
56.6972
13.1311
-52.4792
22.1671
-0.00572857
-49.6683
8.55976
-51.1929
0.0567664
-0.0246255
10.8604
17.2999
9.1085
0.102953
0.12837
0.617751
4.74489
7.19302
0.452444
-21.7285
0.304679
-16.0194
56.2977
10.3744
-47.4889
-13.6957
-73.0124
0.365709
9.15682
0.0707665
11.7913
0.123884
10.4279
0.502984
-43.7426
-27.9959
-40.4554
-6.88627
-15.2172
0.607571
0.498902
-33.4359
0.748811
-54.0732
-3.66745
-48.6984
0.527965
-59.4324
-88.3741
-1.24364
-0.00189638
-31.8741
0.190054
-31.4768
10.1196
-0.470215
0.562561
-0.980233
-2.43552
-3.14088
-16.0191
-34.0256
-10.673
10.1543
0.578508
10.2408
0.243981
10.0889
-32.3853
7.98204
-32.245
-1.00904
0.818893
7.63813
0.298556
7.95223
7.21953
0.129715
0.379559
10.931
0.17064
-6.26806
0.140601
0.0453987
-31.9711
-30.9554
-4.36124
-0.755371
-25.2975
0.113616
0.171018
0.215269
0.242184
0.0655655
0.147182
10.2835
9.99948
0.408232
0.302741
39.5537
-0.0815187
0.189033
0.326875
-50.3612
-1.20146
-53.9064
-38.9192
-48.0813
7.57949
0.191465
-0.862543
0.0294944
0.355228
-44.8305
-14.2957
0.33033
0.205157
-0.954107
-1.01533
-29.9416
-1.07359
0.00155675
-19.802
0.419118
0.365
0.122528
0.294467
0.0651551
0.197222
0.317906
-14.4665
-20.9424
0.0540049
10.1915
-5.98125
-12.5902
-11.3186
0.290483
0.387247
-14.4774
-0.140622
-0.0542255
0.381634
0.204241
-13.6671
0.0396637
0.550158
0.354576
0.261874
0.432457
-9.12401
-0.0626852
-44.9503
0.223661
-18.3708
-0.5832
0.0392625
-46.6559
-0.0381528
-1.27983
0.0985559
0.362548
0.442007
-1.18726
48.8722
-1.19501
-33.5728
0.244875
0.0785422
0.603226
0.29574
0.106136
-0.890606
0.181344
0.277797
0.0407603
-24.2142
-12.0674
-42.4513
8.78443
-17.7424
-0.915604
0.144484
-0.837493
-35.7386
0.0469424
0.0273096
-0.0312691
-60.2104
-0.00250104
-0.289025
-0.00860569
0.21516
0.163482
-150.129
0.00386143
0.631802
10.3164
-0.00310099
-9.14076
28.802
23.4597
0.0257465
5.3892
-0.060208
0.355368
0.269422
0.121886
-58.9054
-49.5776
-0.0316288
0.22272
-44.881
0.0494599
-7.98448
-25.4959
0.0502898
0.373091
3.37335
0.0508047
-13.431
-0.0527964
-0.632896
17.6931
1.21932
0.0335745
10.3016
-29.3836
10.3562
-31.0858
-27.3535
-31.6512
-28.2018
0.383539
10.2911
-21.6055
10.436
-1.99659
14.6833
-36.7477
-29.7911
10.7444
-11.6266
10.7355
0.157828
0.195552
-30.8745
0.299013
0.35809
10.5603
10.5939
39.0917
41.8621
60.2622
-20.7419
26.0233
10.7609
12.9958
20.8472
10.6215
0.266649
-0.0502603
0.20831
0.163652
-30.8721
-30.7818
0.348669
1.58885
-7.88034
-52.1768
-3.63628
0.172283
-2.82186
-24.9223
-60.0197
0.265896
-38.3822
-15.4265
-32.963
-43.5481
-15.1591
0.265794
0.209368
11.2249
-61.6973
0.0729639
11.3284
0.155867
0.159442
-49.593
-49.6405
-51.6197
-1.55405
-31.03
14.3432
8.06152
-0.176865
-17.7123
-53.767
-52.7682
-31.0009
57.9915
-31.1062
31.9439
10.2087
-45.7018
10.8887
-64.6432
10.2703
-60.5705
10.1719
-29.9705
0.439774
-22.4928
10.7914
10.717
-0.512417
10.5847
10.466
31.8403
1.30185
10.694
10.4632
-72.7685
-45.2588
-17.1787
-28.779
-45.9231
-28.791
0.321707
12.9445
-40.176
-33.815
-40.3116
11.8179
-50.3337
4.16948
-52.2488
-53.565
-40.3519
-26.7326
13.1665
1.41123
7.44843
10.6158
0.648193
-35.1348
-4.41193
-2.04301
0.549016
0.0174783
0.0983358
0.458011
0.22888
-28.9594
0.282222
0.133887
0.309214
-0.37103
-23.8187
0.529514
-0.0379803
0.12219
0.604841
-11.8541
-8.76801
0.328972
11.362
-34.4639
-53.1304
-3.94982
-46.9056
-13.6643
-3.1942
-27.4279
34.8699
7.28279
6.6536
-10.9317
-0.0261571
-0.0201562
-6.83035
-0.0633298
0.0406963
-2.79284
0.0363917
0.565036
0.965218
9.79338
-7.65977
-0.402886
41.0574
0.042482
10.6665
0.00965628
-0.0520956
40.9903
-45.316
22.3523
0.0511202
-1.02309
-29.8029
-30.318
-3.6245
-0.0842058
9.54198
-15.1601
0.0759442
0.0700262
-15.4124
10.4962
0.068423
11.4739
52.6657
-0.800997
-1.24853
-21.9778
-4.17833
0.21203
0.135243
-1.49912
10.4602
10.4309
8.75615
10.5348
11.0188
2.60078
1.12736
-8.2863
-52.569
3.22579
-8.27453
10.4896
10.4027
58.3422
1.53561
-0.492469
-1.15052
-21.7372
-40.9946
3.55414
14.1555
-1.30793
27.468
-7.63604
13.105
-35.8474
45.4303
28.0068
-25.4033
3.58713
2.47174
-22.1922
-51.8132
-82.7434
-2.94792
-14.6843
-52.6496
0.162845
-19.6862
-11.147
-41.1772
-30.6146
1.65151
13.6882
-53.6869
8.54821
-10.9713
0.0421885
8.84122
-2.77663
14.9551
2.02654
12.8725
7.95314
-39.0817
1.78349
55.1438
-22.7852
53.0598
30.1269
-77.2147
11.436
11.4763
-63.5572
-17.892
-5.21101
-33.9407
-28.9288
-0.444882
1.56282
1.16792
-34.5598
-6.04151
5.03402
56.2961
-11.5719
10.5876
-9.62402
-23.3345
5.7993
5.96446
-38.3636
-33.1543
-30.2367
-30.8193
0.0706329
-19.6705
-0.62477
-20.6458
-11.7175
0.699987
-1.05452
-18.7403
-8.06952
-30.7727
-30.5776
-6.20142
5.29412
-1.63771
-15.4296
-25.6848
7.23736
7.0551
-19.289
-30.3063
7.75293
-11.3262
-30.1948
-0.625161
-41.0379
-3.00645
-8.75188
-47.5035
-0.459423
50.145
-14.587
-1.2479
-1.30415
-2.51503
-53.1369
0.307836
0.388519
-5.41545
0.214497
9.81289
0.269774
-33.5786
9.54952
33.6121
10.0102
9.72029
9.4525
0.271342
-23.3317
-14.9307
-15.3979
-51.0313
-4.34993
-41.6034
-15.621
0.0322136
-56.3048
7.13815e-05
0.282801
-2.22015
-12.3074
-56.9465
-31.4429
9.48797
35.9204
-19.5283
0.376287
-37.0776
-43.6068
-11.9402
-45.3505
31.8192
10.2773
-13.8257
40.8379
10.3198
-72.4488
18.4914
9.31944
46.5962
32.2729
10.3284
10.4822
58.0482
-41.4501
0.424463
51.7995
5.65879
10.4472
-12.6885
10.331
-34.2642
6.21902
57.5061
10.5528
10.6865
35.0525
8.84467
15.9135
-5.7487
-4.77325
13.4268
-29.0257
22.2711
-24.3575
-57.1314
-73.847
-30.0918
10.7813
34.5996
12.3419
2.83267
5.63271
9.99236
10.2836
-0.272988
-0.110082
38.709
-46.5038
11.0638
-31.3275
-0.101686
5.31026
-20.7229
-73.1849
-0.126671
-19.2252
11.8344
4.04709
-0.280752
8.70868
-10.8133
-0.119131
0.449634
-25.0092
0.525214
0.30554
-10.0137
8.9504
0.285574
20.6366
0.340893
-25.35
25.56
0.239022
14.2182
34.9562
-29.7308
54.7516
39.4055
-34.2686
-66.2318
-29.9316
-29.7811
-29.7873
-29.8538
-33.6028
-26.1507
-36.6469
-30.0443
56.5963
-6.46651
-49.0034
9.66815
-1.77866
-41.0446
-46.8239
-6.12098
-31.153
-19.9341
-30.4905
-17.3052
39.3658
-49.4032
-38.3034
-29.6509
22.2315
-29.5884
0.241943
-50.8623
21.4199
4.40366
-0.0503196
-3.99887
43.5026
7.24181
-20.0426
-10.0537
11.1769
-0.178578
-9.7553
-29.3373
-34.5133
-3.55985
-8.12629
17.2424
-32.0205
-11.4784
0.0640099
-26.7375
44.3691
-4.62346
3.82539
0.122265
0.607821
-40.41
8.71026
6.90438
1.04305
-0.0127373
3.4568
-4.51496
-5.09019
60.6351
1.38521
-17.0584
-9.15546
0.144924
-52.4805
-51.4653
7.35261
7.50306
6.68093
9.64027
-27.4667
-13.3106
54.1608
-10.1655
9.40108
-18.4219
-6.33848
-7.33163
7.16284
-15.4634
7.12732
-24.5946
-30.1786
-38.4101
29.8937
-14.985
15.9235
7.3798
-57.2248
-71.958
31.2399
-51.0123
7.91223
-62.5517
31.1526
-5.40068
17.7804
-24.0122
-1.47141
0.209068
-9.107
-16.5407
-41.5369
-1.56775
7.65267
-93.7064
11.2753
-34.3669
11.1344
-3.9514
8.74883
-0.933618
-2.93554
0.135132
-12.8502
6.29407
-0.276694
13.7569
-1.78026
-48.3476
33.3418
9.64463
39.5032
10.5733
-1.70312
9.60518
11.3567
29.4409
-1.94587
29.3242
-0.0211249
-1.80661
-21.7008
0.357514
0.0592777
-16.5052
-10.3517
-25.899
-6.78145
31.6025
5.71115
25.8286
0.19486
16.585
13.2658
0.224126
0.230826
0.248009
0.502722
55.5052
0.229764
-11.9655
-31.8207
10.6422
10.9958
13.3836
10.8461
-24.034
-30.9385
-2.72739
-6.54105
-6.53223
-18.5785
32.3698
0.212187
-62.4316
-13.06
-38.0751
-1.98233
7.18383
-25.7693
10.7435
10.8914
-22.4216
10.9818
-0.473897
5.49498
-43.057
15.7283
53.1842
-1.619
-2.29983
32.4313
5.06901
-1.03085
32.6337
6.39068
-18.6789
35.4862
-12.2998
37.3725
-45.219
0.110585
11.3507
-2.36172
-10.5617
-2.3277
0.381571
-3.29311
0.128922
11.3574
-36.2515
2.96428
-0.0792382
-37.0489
-1.1533
4.89778
10.8215
10.9446
23.4888
2.39092
-2.10429
-7.67637
-3.15499
-15.1911
10.6176
-0.0301428
-22.653
57.8796
-23.9517
-0.920475
56.5504
10.8478
-50.4387
52.5978
-4.107
3.71595
34.4343
10.9791
-30.5477
36.0862
-30.7199
-6.8742
-30.512
-15.972
-35.1967
32.3355
-7.32204
58.6519
0.260042
-30.5976
-30.7857
-55.1393
-48.4114
-38.0395
-56.5107
-40.5968
-33.2972
55.4501
8.24249
8.84239
48.6608
22.413
-49.7388
5.7597
-51.7044
42.7283
0.470572
9.16909
0.0322551
0.317884
0.275085
0.32466
56.8582
0.10912
0.268746
9.92857
0.418368
0.521472
9.37476
-7.76393
0.337748
-9.74797
0.156027
5.54062
24.8101
-49.2717
-1.95626
0.366972
-8.63272
-1.91565
-39.9986
-24.9105
-24.9565
-2.6637
36.2401
12.1943
-4.28475
-7.03769
6.92018
2.44011
0.363796
10.1106
9.59137
-31.4831
0.485438
16.3533
-5.07623
1.12689
10.304
-4.45995
6.46914
10.1341
9.92103
-15.9383
9.68731
7.18331
50.399
23.3715
11.9399
20.9655
9.33101
-3.34765
9.74359
0.0572605
-5.62146
0.0648722
3.69447
0.075671
20.8024
9.2821
-19.6144
21.6199
0.0193391
8.17174
26.3033
-17.1643
32.1798
-29.3678
-55.3764
-39.0619
-1.75934
0.088303
-31.1158
34.3903
-13.2274
-4.25554
7.5546
0.274193
-1.24624
0.053186
8.02131
11.2374
27.3684
7.28664
-0.162619
10.0521
10.0535
0.00259051
-36.2381
33.37
0.052297
6.24973
-14.6619
41.102
11.2431
8.68593
-12.4481
-50.6616
-49.338
10.3041
10.2355
-5.71776
-9.49918
-12.0222
-32.9445
30.2709
0.113022
-0.898867
-2.86825
0.29923
17.7248
-18.2944
0.407194
0.285446
28.5911
0.260631
-12.6888
24.899
-37.9201
-28.2433
0.2177
-13.7987
12.2309
-0.0850805
0.234075
10.8566
7.69817
-2.5752
19.1544
2.25909
-46.3006
0.31266
0.3097
-36.9168
-4.16275
11.9622
0.333924
6.45848
10.4952
58.2671
0.309357
-12.5438
-37.3608
-42.2658
-96.7825
-63.07
0.304431
14.9573
44.6512
0.0105678
5.86206
8.09444
-41.1318
11.4726
4.68668
-40.622
11.4658
23.3137
-19.1875
7.71634
-41.3571
-53.7906
12.9988
17.2005
-44.2036
13.2971
9.27432
0.949786
12.5855
10.7426
-0.763608
-38.0946
-9.03761
5.36115
12.3795
10.226
11.1472
-0.582644
-0.0558741
32.9706
0.00128992
-10.311
-1.44596
34.7044
10.8631
-14.396
2.93286
55.9367
-26.3993
-31.596
-42.5753
1.50158
-7.47604
-58.6832
-21.6456
12.6986
-18.0043
-9.76865
-0.0371805
-12.393
10.1563
3.12739
1.2803
-0.0109884
0.111188
-22.0621
-7.3937
-13.7339
-0.284389
-1.6059
0.187872
-1.78333
-8.16431
11.4562
-47.1279
11.8321
-2.21185
-2.14776
9.78005
9.5934
10.5728
-0.00538079
-2.00796
-13.8572
2.24891
-1.8542
-2.31364
-30.7647
2.20373
-9.1989
-40.6774
-31.5537
-29.2253
12.5624
-32.5356
16.7486
-32.5965
0.145597
-30.5696
0.215335
1.18353
-1.88289
-7.22746
0.102701
2.15383
-3.78156
10.4581
9.17953
11.9699
-7.01625
-7.30081
-48.507
-30.0756
21.7481
35.5992
-35.2867
-26.9309
-31.3614
-51.2096
-29.8821
-11.5011
-30.0718
-0.313795
-0.680196
-49.3312
-54.7454
-6.59775
-2.11032
10.2303
51.1809
-4.76373
-54.2912
-4.02494
3.14366
-5.70324
-2.03853
-29.4646
-0.988671
-0.575843
-0.334522
0.454006
5.2428
-1.39479
0.424658
-44.812
-45.7369
-43.2889
20.6082
-36.9086
11.2005
0.349028
12.7135
4.71765
2.56551
19.7823
10.3456
20.954
-0.217021
2.02145
3.57334
-0.762272
0.296238
-14.9051
7.14262
11.7352
7.16707
40.717
0.135289
22.2188
-59.6358
-7.40462
-49.8942
39.8491
8.77717
7.66366
4.79056
-16.0416
-10.8905
10.9031
-36.4053
5.8763
7.59722
-6.94014
16.6527
7.97002
-7.34388
-19.3881
-15.4797
11.3668
-2.97756
-61.6447
-1.32845
-45.5489
-31.2008
11.2491
-55.0636
-10.121
31.6268
-2.64941
11.2285
13.5563
15.8451
-8.68378
10.4807
-30.3235
-15.8506
-30.3129
-6.2574
-9.34327
15.1918
-29.762
-27.9772
-0.361736
-1.05202
14.1868
-30.0689
5.45537
-6.89716
-47.2411
0.119818
-0.8433
9.91874
-52.2355
-7.80765
-3.21318
-0.310971
-3.31812
9.59218
9.37477
-4.54024
9.65669
-32.8944
9.63584
-54.4708
9.91111
-32.4804
-33.2529
-10.8625
9.19374
-10.5135
-1.05013
9.24865
-4.00547
-1.43841
-10.4162
49.9854
0.105359
32.3277
-13.2428
0.164862
-5.18662
0.147838
10.8286
9.47845
10.5771
-9.9559
0.118746
10.1346
-2.90122
0.13451
0.395672
-27.1076
-0.227194
-0.00154271
10.9284
-28.1446
-32.4655
0.11459
-8.33807
0.346357
-29.595
0.237334
0.110563
-0.560348
0.284392
-0.386536
-0.558082
0.0304986
0.457613
9.5511
-22.8891
-19.333
10.8775
43.2979
14.2607
10.6411
0.0640464
11.3031
35.7756
0.0357912
31.6659
-1.40479
0.0702376
-1.71309
23.6331
0.349955
-0.10378
52.9837
11.3919
26.0287
-12.3021
-16.0049
-0.0207138
-4.71576
-0.0430316
0.310219
0.218394
0.318065
47.606
0.322444
0.219236
0.174655
10.23
-42.4362
-27.1814
-6.72792
2.38472
-0.968732
0.272317
13.0924
-31.3813
23.5649
15.0058
1.66875
0.249729
40.606
-15.9857
38.5776
29.4699
10.2449
10.7673
0.19906
-7.32798
-0.204079
-17.6301
-15.5646
10.7588
-49.4531
-0.437157
-0.0351709
0.32722
9.06507
0.212234
46.1337
-6.51691
43.5454
0.159205
-54.6259
-10.9698
-16.4245
0.162514
-45.1459
0.284428
27.0521
10.4073
30.4381
-0.0655365
-20.2981
3.04544
-49.2906
28.9948
10.2703
9.93846
-2.76353
-27.3605
10.222
-55.963
-38.4985
10.3378
32.0232
10.1952
-24.7754
41.2504
6.09644
-9.79553
41.2752
36.3035
-0.529494
1.0487
-53.1213
41.2804
8.54379
37.9205
-7.46384
-53.1562
27.9105
-4.75835
0.0419595
0.159881
0.104318
-1.0283
12.1077
-33.0456
-2.3258
-37.7051
14.5751
36.5218
-12.727
34.7758
0.0501233
-0.038786
-17.3196
55.8795
-20.6692
45.8506
14.2963
2.53398
22.7856
2.80422
15.1202
-0.000551752
0.0537645
-0.00841686
-0.0260573
7.1184
-17.1171
11.612
-34.1642
2.42666
-43.0174
7.72264
-26.151
42.9732
-4.67011
-3.81383
0.0808256
36.7853
0.0243748
21.0173
-3.78438
7.58545
-12.1748
-1.34325
29.8516
33.7298
-17.6708
0.182847
-1.56054
-34.4696
-63.841
-9.24878
49.6566
25.002
52.8387
56.3671
42.2523
-38.3437
-2.75874
42.1274
-44.4719
0.00258977
3.82271
0.0363788
-30.1608
-14.7767
-3.15455
-0.161287
-10.7753
-0.0503447
9.66563
-38.0436
39.9172
-47.1958
9.63159
-3.69546
8.24256
-0.490271
-8.74634
-56.1248
-0.931973
-33.5703
-20.0554
9.97945
-55.2746
-45.3587
9.96588
-15.9787
-16.8452
21.5473
9.98303
-15.8058
25.1896
-55.8113
-33.5552
-45.6985
38.0477
-35.0866
3.0588
23.6598
2.56171
-58.1711
-49.1223
-1.6405
-1.99384
47.4862
-4.66436
-40.0288
-4.38718
-19.2495
-66.7217
-32.9748
-30.9608
1.12046
-30.9329
0.146784
-30.8917
12.9246
-24.4389
47.8326
-30.0691
18.7912
-33.4816
-29.6169
-21.0311
-46.5984
31.434
29.2407
-32.8421
9.28367
24.49
15.3492
4.40894
12.0084
-3.93929
-32.1625
-86.2296
-31.0676
14.148
17.9237
-41.7732
22.1697
-32.6787
-17.1985
4.67876
4.16065
-30.6933
10.9636
-31.6709
12.5559
28.8527
30.8354
58.0927
27.6288
-30.1269
-61.4652
41.6088
10.9516
34.9866
-50.069
-30.9899
49.2103
28.3551
-5.21844
20.2761
23.3924
-43.9748
-33.2038
-46.4876
14.1971
9.36448
33.9234
-60.0163
42.2854
26.8559
11.2952
35.1357
-31.8357
0.834443
0.754851
11.2393
-14.6645
-52.064
-30.7822
42.9169
-13.1484
-20.9294
-47.4422
40.4741
44.3106
36.3932
-34.5526
-99.4779
42.618
-34.3776
-56.9091
44.0657
-3.0129
-11.3668
10.7968
-0.645296
-1.02616
-11.0383
41.687
-30.4445
0.628502
-0.784474
-0.933351
-0.552817
-2.18915
2.8828
-34.1104
-9.33119
-1.09878
-54.5518
-71.3656
-29.6908
-21.2371
-2.69508
-18.7949
-29.4089
-43.3352
-0.946207
-36.5533
-3.32326
-36.4581
-31.4983
40.8418
17.6287
24.6639
0.0732389
3.53416
-72.6706
-26.1298
-11.4511
-47.0498
0.00527791
-63.395
-45.6252
-27.6073
-45.6355
-6.61511
14.3892
10.2983
13.7439
9.44995
40.9722
0.0231356
-0.0143415
-0.0291443
13.2196
-10.3604
-49.3555
-57.7071
14.7827
35.6608
23.0404
28.0248
-1.69887
-49.6708
-7.14789
11.0819
2.41149
-2.90637
17.5647
5.77646
-16.4537
13.1995
-13.1407
-11.0759
-8.93304
15.9721
34.531
-32.7719
50.9365
-29.7829
17.6761
-56.5062
-46.724
-11.9507
12.7728
32.2658
-11.1078
-32.2365
4.76079
13.0047
-19.0103
-30.1374
14.9376
44.9655
57.0333
-31.6904
-3.59156
-57.2839
13.2621
-0.631988
-10.9176
9.46152
5.7026
-16.8621
1.95909
6.89598
-44.9535
-11.5221
-29.8709
-13.5691
-30.822
-0.0686093
10.5854
-56.1541
-19.7039
-0.0467251
57.7446
10.9003
44.0771
8.9746
-27.1719
15.4544
-1.55828
31.9692
53.6204
14.06
32.1417
0.0740967
-46.7271
11.0122
10.9038
-6.93675
5.1948
-39.726
-5.96397
-11.5224
11.1768
2.31846
-23.8491
3.62353
8.13071
-9.32913
-13.9286
-28.2533
0.0341979
12.6318
0.0111137
12.8483
0.0636255
-21.3378
10.9985
-24.7803
10.3555
-28.7793
0.0110294
31.7743
-10.0229
33.5758
0.0647552
6.19856
0.139109
0.0119503
-5.88697
6.2939
15.4868
32.05
28.1616
-31.6456
-52.2518
40.3451
22.6332
20.0124
3.66557
0.0176672
0.0250382
-76.8132
41.39
16.9554
12.9719
0.0558928
17.1397
0.110044
0.0373909
-23.4249
-26.3298
-39.7326
-34.733
5.35741
0.135511
-6.80624
10.817
40.5279
9.24775
-20.7065
9.13855
-8.47241
-78.1098
-17.479
0.0974874
2.17642
-11.3188
-9.25866
-37.2839
11.3482
-36.3879
21.7868
-77.7861
-32.4798
-30.5364
0.111542
20.1698
1.33159
11.091
32.7676
11.1493
-13.1154
9.20098
10.1929
6.98663
11.0499
-41.555
15.8792
2.54353
40.8663
10.4529
-24.3993
11.2375
11.1528
-31.2942
-79.5769
-30.3762
-30.5479
-31.3664
7.95701
56.0029
-32.4887
-4.7399
10.2709
17.8592
-31.339
0.221185
0.0110839
9.25099
-24.5266
-30.4716
-50.9161
29.3321
-3.79814
0.322326
1.1337
-30.3983
26.0246
8.07954
-56.3617
-30.8895
-30.6404
57.5027
12.3652
8.9258
0.854526
12.4654
-52.2439
15.1549
9.51467
17.2608
-5.22247
15.4442
21.0275
42.1623
33.915
8.92103
-19.7782
20.4649
-11.4839
0.210331
0.278517
29.2523
-33.0417
-13.9335
0.221232
53.0098
0.281721
-30.583
28.2282
18.1493
36.9278
-30.0958
-20.8257
-30.1254
29.5406
-14.7605
-34.587
-6.84424
9.65344
0.203596
12.302
-0.703526
12.4172
-1.04175
9.75046
-1.12726
-14.1094
0.0430334
32.6552
1.14137
2.53052
-26.9712
7.57753
-0.299987
9.12706
-7.59656
-33.5281
-45.8165
-22.1013
2.76668
34.5627
0.243394
56.0288
-32.5627
56.0102
49.9202
0.391609
3.06049
5.06268
0.301635
0.22627
-91.6444
9.29474
-25.4566
-13.724
3.04512
-0.730484
-30.9296
5.32653
5.27314
7.7282
5.03101
0.297125
-31.168
-6.40503
-0.290097
-27.8154
0.0206059
-0.896003
-0.30984
-0.300875
-11.5314
6.42069
-57.0921
-0.967387
-0.380385
-13.9303
-16.6491
20.8828
-20.4666
10.4325
10.3158
-0.014865
0.0701933
-12.7104
-18.1271
8.24587
0.0396864
-4.03961
9.10664
0.0404089
54.2901
-0.0191517
-1.0832
0.0809447
-0.0429034
-31.5358
-0.0132384
-30.1715
-9.78827
50.126
2.87846
-4.16646
-5.85163
-2.29948
-9.41263
-35.3699
0.168516