/*--------------------------------*- C++ -*----------------------------------*\
| =========                 |                                                 |
| \\      /  F ield         | OpenFOAM: The Open Source CFD Toolbox           |
|  \\    /   O peration     | Version:  2506                                  |
|   \\  /    A nd           | Website:  www.openfoam.com                      |
|    \\/     M anipulation  |                                                 |
\*---------------------------------------------------------------------------*/
FoamFile
{
    version     2.0;
    format      ascii;
    arch        "LSB;label=32;scalar=64";
    class       surfaceScalarField;
    location    "0.085047";
    object      phi;
}
// * * * * * * * * * * * * * * * * * * * * * * * * * * * * * * * * * * * * * //

dimensions      [0 3 -1 0 0 0 0];

oriented        oriented;

internalField   nonuniform List<scalar> 
92401
(
0.149688
-0.098905
-0.00678109
-0.0440024
-0.0641264
0.0610873
0.0407103
-0.0376712
0.0221513
-0.0396184
0.0429527
-0.0254856
0.00660562
-0.0131959
0.013021
-0.00643071
0.00139778
-0.000561938
-0.0059986
0.00516276
0.0194007
0.00968566
-0.0252962
-0.00379023
0.00592282
-0.00482509
0.000300053
0.0322255
-0.025536
0.0127113
0.048079
-0.0386433
0.0324573
-0.041893
0.000345455
-0.000591166
0.000219858
2.58529e-05
0.00468679
-0.0414997
0.0385982
0.0243048
0.024322
-0.0872251
-0.0176342
0.0111455
-9.26417e-05
0.00658128
-0.0343714
-0.0399626
-0.0160159
-0.0210089
0.0598434
-0.0228186
0.00209372
-0.0666022
0.0645085
-0.00253441
-0.00777441
0.00205352
0.00349662
0.00222426
-0.000952703
0.00154739
0.000212685
-0.000807375
-0.0049983
0.0109607
-8.69904e-05
-0.00587546
0.0165225
-0.00576758
-0.00502467
-0.00573021
-0.0407274
0.00833458
0.0369557
-0.00456289
-0.0394524
0.0109985
-0.0547484
-0.0540535
-0.00265598
0.0548338
0.0018757
0.0906906
-0.0892536
0.0220102
-0.0234473
0.0503355
0.0601524
-0.0718202
-0.0386677
-0.0325947
0.0511426
-0.0580004
-0.00275874
-0.000996961
0.00402248
-0.000266785
0.0314
-0.063599
-0.000395612
0.0610386
-0.0601596
-0.0322846
0.0314056
0.0124808
-0.0172795
0.00137462
0.0034241
-0.0362109
0.106835
0.0618364
-0.13246
-0.0846926
0.107521
0.00897291
-0.0318015
-0.131142
0.0324842
0.0295256
0.069132
0.014831
-0.0621349
0.0374898
0.0098141
0.0603018
0.00923822
-0.054709
-0.0441648
0.0100839
0.00244616
0.0316347
-0.0504164
-0.041176
0.0654822
0.0261101
-0.033218
0.040657
-0.0137178
0.00627874
-0.020303
-0.103086
0.0662389
0.0571498
-0.0855234
0.0868217
-0.00129829
0.0313689
-0.000968279
-0.0723921
0.0419915
-0.00304807
0.029572
-0.0187695
-0.00775444
0.0268849
-0.0503977
0.0235129
0.000161325
2.96138e-05
-0.000146863
-4.40762e-05
0.00100722
-0.0585506
0.0575434
-0.0684718
0.0429173
0.0622459
-0.0366914
0.0901247
-0.0254222
-0.0128086
-0.0518939
-0.000509251
0.0710358
0.000982671
-0.0715093
-0.047583
0.0732583
0.0396802
-0.0653555
0.000564726
0.00110567
-0.000395249
-0.00127515
-0.00203513
-0.00359836
4.52411e-05
0.00558825
-0.0383222
0.0840301
-0.0462702
0.000562363
0.00032708
-0.000735013
-0.000469631
0.000877564
-0.0550764
0.054294
0.00078233
0.0753618
-0.00777444
-0.0187172
-0.0488702
-0.100106
0.0924766
0.00448957
0.00313962
-0.0547631
0.0273496
0.0109951
0.0164184
-0.00272693
-0.0149105
0.00761286
0.0100246
-0.0124993
0.025779
0.0374329
-0.0507127
0.00082644
-0.000347263
-0.000152097
8.78741e-05
-0.000106064
0.000805536
-0.000787346
0.00034198
0.000130196
-0.000254425
-0.000217751
0.00414086
-0.00917714
0.00502956
6.7229e-06
0.067912
0.00506069
-0.0172011
-0.0557716
-0.0150029
-0.00478829
0.0107524
0.00903879
-0.0409742
-0.052876
-0.054768
0.148618
0.0035336
-0.0351577
-0.00281244
0.0344365
-0.000262102
0.000476932
0.000350873
-0.000565704
0.00423544
0.00450084
-0.0278514
0.0191151
0.0188732
-0.00641131
-0.0096529
-0.002809
0.0419023
-0.0765378
-0.027766
0.0624014
-0.0293407
-0.00305601
0.0102547
0.022142
0.0122135
0.00835428
0.0130361
-0.0336038
-0.000272176
-0.000285581
7.80201e-05
0.000479737
0.0252296
-0.00973268
0.0365657
-0.000365283
0.000241451
-0.000437512
0.000561344
0.044296
-0.0330644
-0.0681247
0.0568931
0.00031988
-0.000206677
-0.000113203
-0.00113202
3.4604e-05
0.000554033
0.000543384
0.000602853
-0.000223361
0.000203796
-0.000583287
0.0226209
-0.023121
-0.0622624
0.0627624
0.00106141
-0.0126876
0.00291278
0.00871344
0.0430112
0.0585908
0.0185175
-0.120119
-0.108952
0.0232768
0.122511
-0.0368357
-0.00537589
-0.0448968
0.00375954
0.0465131
0.055403
-0.0307562
0.026482
-0.0511287
0.0271772
-0.00324184
-0.154693
0.130758
0.00932846
0.0151312
-0.0287408
0.00428114
0.000685125
-0.000180565
-0.000763325
0.000258766
0.038131
0.0122777
-0.00130633
-0.0491024
-0.00250653
0.0849373
-0.0865135
0.00408283
-0.0180823
0.0495128
-0.116205
0.0847748
0.0426102
0.00538869
-0.0533748
0.0427362
-0.000126029
-0.00233014
-0.0294031
0.04191
-0.0101768
0.0708801
0.0171117
-0.0316095
-0.0563823
0.132652
-0.146705
-0.0302965
0.0443499
-0.0151367
-0.0459972
0.0588037
-0.0824587
-0.000752877
0.0832115
0.00106805
-0.0978504
0.163128
-0.0663454
-0.00254945
0.00337885
-0.000623113
-0.000206293
0.0899388
-0.149313
0.0303619
0.029012
0.00155957
-0.000458354
0.000909764
-0.00201098
-0.0872513
0.142865
-0.104167
0.0485528
0.0310067
0.00265752
-0.0416958
0.00803162
0.0859201
-0.0147903
-0.0839251
0.0127954
0.00577468
0.0319874
-0.0528987
0.0217068
0.0272832
-0.113199
0.0642092
0.0871632
0.113345
-0.0800093
-0.120499
0.00060472
-0.000311988
-0.000247163
-4.55686e-05
-0.0936243
-0.0285042
0.110637
0.011492
0.00142208
-0.00580577
0.0160161
-0.0116324
-0.0141494
-0.0342152
0.0586692
-0.0103046
-0.00561142
0.0176454
-0.0147247
0.00269066
0.000413233
-0.000680725
-0.000612752
0.000880244
0.0225601
-0.026569
-0.00160255
-0.00187642
-0.000699382
0.00154082
0.00103499
-0.0577391
0.0604783
-0.0027392
-0.0025889
-0.00639647
-0.00222363
0.011209
-0.0370474
0.0285682
-0.00567018
0.0183405
-0.0472363
-0.0557968
-0.0513001
0.0415533
0.0983329
-0.0885861
-0.00765692
-0.00184067
0.00518414
0.00431345
0.0467993
0.0111471
0.00214021
-0.0600866
0.000599162
-0.00963508
0.00714281
0.00189311
-0.0404283
-0.05429
0.0114888
0.0832296
0.0647097
-0.0388775
0.0266259
-0.0524581
-0.00962311
0.0598246
-0.0588294
0.00862791
-0.0591009
-0.0339989
0.00779378
0.085306
0.0162358
0.00483591
-0.0329
0.0118284
0.0639876
-0.0634588
-0.000528759
0.00186961
0.00178672
-0.00157703
-0.00207929
0.0407026
-0.0441871
0.00348448
-0.056389
-0.0393504
0.107409
-0.01167
0.000832191
-0.00998538
0.0099205
-0.000767309
0.00270986
0.00586728
0.00279497
-0.0113721
0.00165814
0.00684434
-0.00790332
-0.024621
-0.0578975
-0.00905624
0.0915747
0.0256906
-0.00813151
0.0188439
-0.036403
-0.0840057
0.0925725
-0.101285
0.0927181
0.076592
-0.0494429
-0.0271491
0.00162581
-0.0346654
-0.0101398
0.0431794
0.00807687
-0.00561038
-0.00963282
0.00716632
0.0462504
-0.0699818
-0.062025
0.0857565
0.0740273
-0.0647103
0.0293636
-0.0386807
-0.0137212
-0.00962028
0.0339111
-0.0105696
-0.0581758
-0.0867556
0.0572959
0.0876355
-0.0416089
0.0543284
-0.0110936
0.0977007
-0.0482756
-0.0494251
-0.00484126
0.0156525
-0.00273435
0.00100075
0.000682689
-0.000710085
-0.00097335
0.0473399
-0.0157959
-0.00524704
-0.0262969
0.00362137
-0.00188796
-0.00044275
-0.00129066
0.00536163
-0.0101838
0.00870865
-0.00388647
0.072379
-0.042658
0.0261121
-0.0558332
0.00897591
-0.000488773
-0.00685393
-0.00163321
0.00164842
-0.000605357
-0.00104306
-0.0661658
0.0655262
0.000639576
0.0118442
0.00584484
-0.0966576
0.0789686
-0.0120422
0.0144253
-0.0102876
0.00790449
-0.0732586
0.0165395
0.0834957
-0.0267766
0.0186767
-0.097773
0.0757773
0.00331895
-0.0526749
0.0429362
-0.00840946
0.0181482
0.00866256
-0.00183113
-0.00295202
-0.00387941
8.64786e-05
-0.00070857
0.000622092
0.0282787
0.170893
-0.245646
0.0464739
0.000264253
6.64242e-05
-0.0248673
0.0602117
-0.0525496
0.0172052
4.39582e-06
0.00519153
-0.00446216
-0.000733761
-0.000135705
0.00124987
-0.00133753
-0.0708322
0.00056961
0.0702626
-0.0323835
0.113778
-0.0477408
-0.0336535
0.000542984
0.000470856
0.00945564
-0.0104695
0.000412527
0.0923783
-0.0927908
0.00240587
-0.00162283
-0.00123356
0.000450517
0.00137525
0.000703869
-0.00071126
-0.00136785
-0.036692
-0.00159453
0.032486
0.0186566
-0.0636419
-0.072403
-0.0163301
0.00647137
0.0822618
-0.000629242
0.00200449
-0.101262
-0.0416153
0.112663
0.0302143
0.0271939
0.170902
-0.0854024
-0.0578223
-0.0276775
-0.0183747
0.119323
-0.043561
-0.0573877
0.0397256
0.0299301
0.0386236
-0.108279
0.104744
-0.249115
0.10955
0.034821
0.00164609
-0.00145868
-0.00138336
0.00119594
-0.0123521
-0.0353343
0.0554025
-0.00771612
0.0265226
0.0405361
-0.0267081
-0.0403506
-0.0353569
-0.0258015
-0.0197638
0.0809222
-0.0533646
-0.0139547
0.0549672
0.00119898
-0.0119607
0.00925321
0.00150854
0.055375
-0.0284471
-0.0508474
0.0239195
-0.089706
0.105625
-0.050326
0.0344068
0.0169352
-0.0234609
0.00682288
-0.000297258
0.0517945
-0.060058
0.0636385
-0.0572778
-0.0034961
-0.0137764
0.0745504
-0.00530838
-0.013352
0.00256227
0.0160981
0.000215507
0.0593026
-0.0586697
-0.000848339
0.13532
-0.0537888
-0.00242029
-0.0791107
0.0603217
-0.00770985
-0.0493668
-0.00324506
0.0501806
-0.0229748
-0.0663898
0.039184
-0.010074
-0.00169231
0.0151696
-0.00340331
0.00542687
-0.00170761
-0.00475754
0.00103829
0.00256734
-0.044238
0.040879
0.000791615
-0.000737767
-0.0863422
0.00346809
0.0197649
-0.0129037
-0.0631189
0.0465097
0.0166092
-0.0595524
-0.0170397
0.0109755
0.0656166
-0.101844
-0.00082741
0.105084
-0.00241258
0.00373266
0.0239993
-0.0129043
-0.0148276
-0.0713315
0.149755
-0.0659863
-0.0124367
-0.00471109
0.0134081
0.0223603
-0.0310573
-0.0526401
0.100788
0.0394491
-0.0875972
0.0294045
0.00122583
-0.0143019
-0.0163284
-0.0364284
0.0381421
0.000853623
-0.00480108
0.00755257
-0.0102753
0.00752378
-0.000239919
-0.00457672
0.0101783
0.0360535
0.0377868
-0.0738404
0.00107668
-0.00190172
2.22789e-05
0.000802759
0.0202432
0.0083749
-0.0193614
-0.00925672
0.0227043
0.0097716
-0.00124078
-0.0312351
-0.0527429
-0.00229188
0.00718282
0.0478519
-0.00021459
-0.0440234
-0.000992115
0.000514209
0.00155459
-0.0518508
0.0372415
0.0518485
-0.0372391
-0.0446563
0.0301711
0.0172292
-0.00274405
0.00139958
-0.0036989
-0.00994738
0.0122467
-0.00999253
-0.00508753
-0.0028492
0.0179293
-0.0437243
-0.00490532
0.0122013
0.0722948
0.0395114
-0.0720324
-0.0397738
-0.0459378
-0.000156548
0.0460944
0.0861923
-0.0486818
0.0595898
0.00369771
-0.0076565
-0.0372961
0.0412549
0.0358716
0.0112973
-0.0053033
-0.0418656
-0.000465564
0.000345168
0.00102051
-0.000900117
-0.0168747
-0.0449459
0.0618205
-0.00020583
-0.00139176
-0.00413462
0.0308586
-0.0230263
0.00619119
0.0278946
-0.0417423
0.0978356
-0.090675
-0.00213078
-0.00502983
-0.0214424
0.10155
-0.0185272
-0.06158
-0.0317641
0.00677727
0.0134007
0.0115861
-0.0390384
0.0358846
0.0137428
-0.010589
0.0325681
-0.0251266
0.00134366
-0.00878519
0.0192925
0.073167
-0.123776
0.0313163
0.0762927
-0.075277
-0.0243108
0.0232951
-0.14337
0.00200694
0.00368492
0.137679
0.0305381
0.0123739
-0.0411691
-0.00174284
0.040069
-0.0574358
0.020374
-0.00300721
0.00215891
-0.00120357
0.00023535
-0.00119069
-0.0146506
-0.00112305
0.0734007
-0.0416421
0.0188071
-0.0505657
-0.0120688
0.0477145
0.000370117
-0.0360159
0.00513399
0.0962069
-0.0934244
-0.00791648
0.0495484
-0.0989902
0.0579049
-0.00846309
-0.0483764
-0.000457725
0.0367654
0.0150942
-0.00329804
0.0086872
-0.0204834
-0.0234244
0.0477893
-0.0133083
-0.0110567
-0.0482938
-8.26464e-05
-0.00558941
-0.122875
0.175906
-0.047442
0.0100793
0.00979218
-0.0634405
0.0435691
0.0494249
0.00544399
-0.0447896
-0.0131833
0.00684912
-0.00375271
0.0100869
-0.0595437
6.01426e-05
0.0594836
0.11079
0.0441996
-0.136953
-0.0180366
-0.00950701
0.000301279
-0.0039776
0.0184886
-0.116253
-0.0226865
0.120451
0.0127088
0.0662013
-0.0691179
0.00280202
-0.0557621
-0.0104804
0.000534422
0.00195101
-0.00269126
0.00207435
-0.00177791
0.000237984
-0.0509196
0.0262398
0.0739613
-0.0492815
-0.00193426
0.00100008
0.000968791
-0.0341453
-0.00772582
0.0446732
0.000294284
-0.000277536
0.000357591
-0.000893526
0.000121568
0.000414367
0.000267867
0.00210076
-0.00182448
0.0014685
0.000144974
0.000211005
0.000280196
-7.70489e-05
0.000623293
0.106966
0.123732
-0.0810093
0.000195284
-0.000621345
0.000706257
-0.0528908
0.052745
0.000145798
-0.0104794
0.0761642
-0.0718432
0.00615845
0.00166044
-0.0197583
0.00534551
0.0127524
-0.0603515
-0.00301867
-0.0172408
0.00401602
0.0473857
-0.0341609
-0.0627658
-0.00324073
0.0660065
-0.00724564
-0.0165633
-0.0127817
0.0365907
0.000344314
-0.000395847
-0.000548546
0.000600079
-0.00389222
-0.00737712
0.0091346
0.00213474
0.0549852
0.0439049
-0.0175071
0.0483214
0.0896819
-0.0381062
-0.099897
-0.012663
-0.0441963
-0.0188471
0.0185684
-0.0537341
0.0540127
-0.0112445
0.0284369
-0.00554951
-0.0116429
-0.0150873
-0.0134601
0.013376
0.0151714
0.0964269
-0.0946226
0.0186943
-0.0204986
0.00128006
-0.00443001
-0.000502812
0.00365276
0.00123987
-0.0673487
0.0661088
-0.0726144
0.00336662
0.0669151
0.00233265
0.0390178
0.0382722
-0.0772899
0.0190916
-0.0599602
0.0282057
0.00194575
-0.00109208
0.000428985
-0.00128265
0.000267152
-0.000110582
0.000973868
-0.00113044
-9.19311e-05
0.000446128
-0.00103168
0.000677483
0.0642984
0.0566731
-0.0395248
-0.0814467
0.00586502
-0.0871319
0.0825274
-0.00126048
-0.0138135
0.000752571
0.0264646
-0.0134036
0.0535745
-0.0527096
0.0191556
-0.0200205
-0.000550313
0.00139432
-0.000699142
-0.000144869
0.020217
0.0478924
-0.0490178
-0.0469129
-0.00167097
0.00105495
0.0014601
-0.000844091
0.00144067
0.0812778
-0.0827185
-0.049899
-0.0149892
-0.0222584
0.0871467
-0.0499559
5.68753e-05
0.0116242
0.0167561
0.0166742
-0.0450545
0.000565622
-0.00271285
0.000473701
0.00167353
-0.0018156
-0.000449608
0.000594242
-0.106416
-0.00940181
-0.0432794
0.159098
-0.00975631
0.00734217
0.136875
-0.134461
-0.0385819
0.0418732
-0.0648275
0.0615362
-0.080323
0.0798665
0.000456475
0.0012538
-0.0499586
-0.0305029
0.0670113
0.0192933
-0.00598134
-0.0803232
0.0505658
0.0954719
-0.158079
0.012041
0.0416717
0.015736
0.0333879
-0.0907957
0.103858
-0.108369
0.0435282
-0.00370718
0.0134579
-0.0121999
0.00244917
-0.00126869
-0.000186481
-0.000522912
0.00197809
-0.00289356
-0.00567851
0.00173915
0.00683292
0.0608735
-0.00623922
-0.0184704
-0.0361639
-0.0567447
0.028218
0.0285267
-0.0930299
-0.00751836
0.0118202
0.0007445
-0.000571512
-0.00144168
-0.118208
0.0265124
0.00515014
0.086545
0.0011978
-0.0531678
-0.0102953
0.0622652
0.045721
0.028849
-0.10185
0.0272798
0.0385513
-0.0434603
-0.0191464
0.0240555
0.0485211
-0.0601519
0.0501821
0.0320442
-0.0566545
0.0496134
-0.0250031
0.0347157
-0.0360347
0.000323294
0.00099575
0.0162492
-0.14229
0.0914453
0.034596
0.00140739
-0.0617798
-0.0039323
0.0520298
0.000411195
-0.107204
-0.0339511
-0.00864732
0.0068839
0.0357146
-0.0485218
0.0444146
0.0500169
-0.0459098
-0.042293
0.0818746
-0.0395816
0.0104538
-0.102219
0.0483051
-0.0170667
0.00737641
0.0247347
-0.0150444
-0.0878387
0.0934682
0.036131
-0.0417605
0.0587751
0.0329104
-0.0828974
-0.00878803
-0.0461722
0.141876
0.00421319
-0.0999173
-0.000547835
0.00287885
0.00369279
-0.00602381
0.0537461
-0.0720873
0.0830422
-0.0647009
0.00775669
-0.0389856
-0.00824316
0.039472
-0.0434446
0.0314533
0.103396
-0.0914048
-0.0499881
-0.0264448
0.052876
0.023557
-0.00953085
-0.000521414
0.00620372
0.00384855
-0.0113772
0.0243876
-0.0183434
0.00533294
-0.000194838
0.0746534
-0.0744585
0.014876
-0.0439341
-0.0194637
0.0480501
-0.0343483
-0.000546734
-0.0131551
0.00195529
-0.0268334
-0.0214495
0.0463277
0.0344975
-0.034419
-7.84463e-05
0.0611732
-0.0417173
0.0643191
-0.083775
-0.0989113
0.0969319
0.0984064
-2.40328e-05
-0.0107901
-0.00177921
0.0125933
0.0493735
-0.000279414
9.91786e-05
0.000295762
-0.000115526
-0.000617102
0.0490071
-0.112827
0.064437
-0.0085264
-0.000714154
0.00501804
0.00422251
0.0268862
0.00996044
-0.0368467
0.00126452
-0.000913792
-0.00887712
-0.0308983
-0.0422849
0.0167942
0.0572479
0.000987486
-0.0582354
0.0728495
-0.0441368
-0.0511907
0.022478
0.00172851
-0.0251605
-0.0207328
0.0693848
0.0430354
-0.0395707
-0.00802088
0.00926136
0.133367
-0.119447
0.0373386
-0.051259
-0.0450174
0.0364888
0.0218849
-0.0133562
-0.0527799
0.0523707
0.000409222
-0.047777
0.0296444
0.0106885
-0.0466403
-0.0108403
0.0467921
-0.00213305
0.161194
-0.161147
0.00208659
0.107655
0.0159358
-0.0160693
0.0508033
0.00857269
-0.0512049
-0.00817108
-0.0145516
0.00472922
0.0107807
-0.000958314
-0.00954487
-0.00545229
0.00469817
0.010299
0.0661162
-0.037786
-0.0526549
0.0243248
0.0295516
-0.0152319
0.024092
-0.0384117
0.0268261
-0.0938251
0.0897235
-0.0227244
-0.00597067
0.000507727
-0.00908868
-0.0943398
0.106888
-0.0228236
0.0102754
-0.0114748
0.0481997
0.0140527
-0.0507776
-0.00399386
-0.000809542
0.00318575
0.00161765
0.0838837
-0.004573
0.0510244
-0.130335
3.05713e-05
-0.000667365
-5.67634e-05
0.000693558
-0.0672421
0.0589547
0.0742128
-0.0659255
0.00309463
0.000648362
-0.00213024
-0.00161276
-0.0775047
0.0753542
0.00215053
0.063818
-0.0603016
-0.00351639
0.0604026
-0.000777551
-0.059625
-0.0108694
0.123467
-0.000470516
-0.112127
0.00986235
-0.0310516
0.0328134
-0.0237248
-5.85122e-05
-0.0562328
-0.0675297
0.011498
0.0663458
-0.0103141
-0.0133687
-0.00214686
5.73711e-05
-0.000358652
2.37705e-05
0.00027751
0.00122261
-9.61422e-05
-0.000241044
-0.000885426
-0.0634813
0.00793945
-0.00152024
0.0570621
0.000339096
-0.00550998
0.00199214
0.00317874
0.0123449
-0.014776
-8.14972e-05
0.00251254
0.00826481
-0.00673159
0.0108117
0.055499
-0.00950222
-0.0225335
-0.0234633
0.0362417
-0.005348
-0.0364434
0.0055497
9.78878e-05
0.0667323
-0.000239888
-0.0665903
0.00757201
-0.0710467
0.0191251
0.0443496
-0.042993
-0.0317211
0.0415933
0.0331209
-0.0359003
0.0222497
-0.0916692
0.10532
-0.00102735
0.0153949
-0.00786827
-0.00649925
0.0490034
-0.0588267
0.0473463
-0.037523
-0.062688
-0.00681059
-0.00797373
0.00104811
-0.000388781
0.00440224
-0.00506157
-0.0122677
-0.00274742
0.00180713
0.0132079
-0.00827091
-0.00945448
0.0109319
0.00679354
-0.00014979
-0.00223269
0.00146726
0.000915226
-0.000259598
0.000317449
-5.78503e-05
0.00138903
-0.0745551
-0.0278252
0.100991
-0.000150846
-4.4914e-06
-0.00146942
0.00162476
8.34771e-05
-0.000271233
-7.18422e-05
0.00315651
-0.0659223
-5.37349e-05
-6.61335e-05
0.000437317
0.000583322
0.000210123
-0.000362291
-0.000431154
-0.0280863
0.0629348
0.0786865
-0.113535
-0.00930025
-0.00217529
0.00730796
0.00416758
-0.0146997
-0.000380532
0.00577998
-0.00544596
0.00552628
0.0134061
-0.0134864
-0.000317812
0.000475373
-0.000211295
-0.0671898
0.0680754
-0.000885528
0.0302505
0.0473953
-0.0601318
-0.017514
0.0117527
-0.0754551
-0.0214627
0.0851651
-0.0137095
0.00270908
0.00555442
-0.0045326
-0.00650555
-0.0026713
-0.0165411
0.0588652
0.0127455
-0.0550697
0.0696442
0.00494215
-0.0545209
-0.0200655
0.000267274
0.00040338
-0.00067629
5.63637e-06
-6.55903e-05
-0.000168745
-0.00266701
-0.00116463
-0.00141175
0.00524339
0.0650881
-0.0459265
0.0120501
-0.0312117
-0.000851989
-0.00268819
0.00138548
0.0021547
-0.0177903
0.0107518
-0.00252301
0.00956143
0.00102265
-0.101654
0.101695
-0.0010639
0.00319366
0.000828046
-0.0106792
0.00665749
0.010473
-0.0109945
0.00155563
-0.00103412
0.00990522
0.00410088
-0.0108124
0.0367771
0.0562681
-0.0279572
-0.0272793
0.0548047
0.0281944
-0.0557198
0.0277512
-0.0550305
-0.00100786
0.000679977
-0.0328901
0.0124733
-0.0100488
0.0792184
0.0232721
0.00735964
0.069688
-0.0541398
0.0977172
-0.113265
0.00477061
0.0925235
-0.0972941
-0.00699219
-0.00732032
0.0136874
0.000625111
-0.0340957
-0.0870581
0.0274694
0.0936844
0.0218157
0.0614202
-0.0244151
-0.0588209
-0.023528
0.113235
-0.0529302
-0.0418456
0.044895
0.0517553
-0.0558437
0.0558044
3.93707e-05
-0.0391487
0.0366893
0.00245938
0.039692
-0.0779486
0.0724612
-0.0342046
0.0679311
-0.0844722
-0.0100875
-0.00811128
0.0112066
0.000671441
0.000605017
-0.000450572
-0.000825886
-0.00583444
-0.0426486
-0.00736073
0.00122657
0.00149985
-0.00264959
-7.68266e-05
-0.0574128
0.0518784
0.0855349
-0.0800005
0.0371137
-0.0336606
-0.00345308
0.0126918
0.0218529
-0.0145023
-0.0200425
0.00422185
-0.000380064
0.00216855
-0.00601033
-0.0644521
-0.000834146
0.0200385
0.0452477
-0.00295679
0.00665999
0.000518654
0.0389735
-0.109391
0.104741
-0.0343243
0.0460706
0.0133295
-0.059368
-3.21261e-05
-0.00364294
0.00697202
0.00173325
-0.00506234
0.000194227
0.0606718
-0.060866
0.0382698
0.00688696
0.0151203
-0.060277
0.00435421
-0.00733636
0.00260208
-0.185343
0.0285374
0.164371
-0.00756499
0.0399036
-0.0109215
-0.028982
-0.00125739
-0.00150546
-0.00118957
0.00395241
-0.0423786
0.0467562
0.125511
-0.129889
-0.00193245
0.000689539
-0.00189938
0.00314229
0.0913831
-0.00205276
-0.0432597
0.000513399
-0.001267
0.0020464
-0.0012928
-0.0192998
-0.117073
0.0159386
0.120435
0.00370115
0.0524809
-0.00406278
-0.0521193
0.0485071
-0.069901
0.0603258
-0.0389319
0.0319149
-0.0365639
0.0487488
-0.0440997
0.0083039
-0.00144859
0.00554359
-0.0123989
0.00123176
-0.0443541
0.0533883
-0.053725
-0.0362273
0.0970697
0.017675
-0.0242357
-0.090509
0.0464402
0.0190495
-0.133189
0.0676988
-0.00193631
-0.0086104
0.00629626
0.00425046
0.0277803
-0.0498329
-0.00324362
0.0288043
-0.02656
0.00737642
-0.00588428
-1.52676e-05
-0.00147688
-0.0864898
0.00262318
0.000449366
0.0704368
-0.148394
0.0775078
-0.0279717
-0.0875664
0.0407025
0.0748356
-0.0729741
0.0203362
0.00323773
0.0494001
-0.043078
0.0290392
0.0102486
-0.0825843
0.0956124
-0.0130281
-0.0208638
-0.00941819
0.117649
-0.0873669
-0.00366751
-0.00379597
0.00612459
0.00133888
-0.0258029
0.0591842
0.0406459
-0.0721681
0.0280313
-0.000830376
-0.000395918
-0.00103598
0.00226227
0.0465409
-0.0489534
0.0544422
-0.037534
-0.00722161
-0.0447796
-0.123356
0.0476157
0.0757403
-0.0429209
-0.0325213
0.0276652
0.00303362
-0.00222629
0.000893037
-0.00170036
0.00295603
-0.000474733
0.000552321
-0.0864795
0.00368238
0.0827971
0.0611495
0.0122472
-0.12174
0.0483434
-0.0712736
0.000668194
0.0706054
0.00126877
-0.00165037
0.00871631
-0.00833471
0.0488068
0.156548
-0.226545
0.0211896
0.00191072
-0.00233046
0.00134849
-0.000928746
-0.0916447
0.0649484
0.0265254
0.000170938
-0.000308432
3.53836e-05
0.00180143
-0.00152838
-0.000647367
0.00834055
-0.00851084
0.000817655
0.00755457
0.00789105
-0.01473
-0.000715636
0.04073
0.0123986
0.00305407
-0.00280062
0.00165727
-0.0985916
0.105485
0.00685079
-0.0137444
0.0125627
-0.0678412
-0.0236517
0.0789302
0.00186684
-0.00428711
0.0875374
-0.0851171
-0.037267
-0.0344462
0.082917
-0.0112038
-0.0407271
0.0245151
0.040602
-0.0243899
0.0536524
0.0206775
-0.0721458
-0.00218416
-0.00115039
0.000173818
0.00135376
-0.000377185
-0.123592
-0.0432405
0.0398411
0.126992
0.0482902
-0.0376018
-0.0319236
-0.037656
-0.0310748
0.100654
-0.00181536
0.00424691
0.000488948
-0.0029205
-0.0309705
-0.0807416
0.028813
0.0828992
-0.0296853
-0.0284038
0.0205552
-0.000697583
-0.00334406
-0.0016383
0.00304881
-0.00382016
0.00240965
-0.00571715
0.00561781
0.0252942
-0.0774578
-0.0855807
0.137744
-0.000507894
-9.17753e-05
0.000289462
0.000310208
0.0571138
-0.0602383
0.0480333
-0.0449088
-0.0148887
0.0449625
-0.00798564
-0.0220881
0.0869699
-0.0864738
-0.0187145
0.0182185
0.0266193
0.0220143
-0.0634082
0.0147746
-0.127324
0.0739221
0.0183487
0.0350537
-0.00534451
0.0032945
9.5333e-05
0.00195467
-0.00837342
0.00980629
-0.000164101
-0.0134564
-0.00372281
0.0179003
-0.000721124
-0.0610594
-0.00435341
0.0134285
0.0519843
-0.00783888
0.103234
-0.00506435
-0.0903307
0.00879621
-0.0475597
0.0809292
-0.0421657
-0.00141869
0.00416197
-0.00144196
-0.00130131
-0.0152786
0.000320164
-0.00201441
0.0169729
-0.10641
0.00616343
0.0128759
0.0873704
-5.87122e-05
-0.000282172
0.000495218
-0.000154333
0.0372225
0.00806523
0.0270071
-0.00508816
0.0464198
0.0528311
-0.0941628
-0.000230206
0.000353725
-0.000182231
-0.000496838
0.00219358
-0.001505
-0.000191747
0.0171608
0.111423
-0.047865
-0.0807185
-0.000242497
-3.96748e-05
0.000114257
-0.000356754
0.061842
0.0170753
-0.0923252
0.0134079
-0.157168
0.0860122
0.0772062
-0.00604999
-0.0181691
0.000198383
-0.0514922
0.0694628
0.0248587
-0.0144909
0.01673
-0.0270978
-0.0664625
-0.02309
0.0895525
-0.0779579
0.0387295
0.0392284
-0.00172081
-0.000414876
0.000818668
0.00131702
-0.0379457
0.0410904
0.00779828
-0.010943
0.0465022
-0.0545222
0.00801999
-0.0603415
0.0335625
0.045053
-0.018274
0.00453167
-0.00285448
-0.00151225
-0.000164937
-0.00326981
-0.00244913
0.000374435
-0.0422102
-0.0417955
0.0472142
0.0142293
0.0025749
-0.0640184
0.00169914
0.000117525
-0.00148444
-0.000332225
0.0033801
0.00723592
0.00252932
-0.0131454
0.00714754
0.0230081
-0.0411556
0.011
-0.0190565
-0.0153783
-0.00920873
0.0436435
-0.0751961
-0.0108404
0.0302555
0.055781
-0.00184647
0.0152185
-0.00829059
-0.00508143
-0.0529538
0.000647994
0.0332493
-0.000208843
0.0253565
-0.135679
0.12637
-0.0160468
0.0285904
-0.0345218
-0.0518077
-0.0271145
0.0548657
-0.000533943
0.0410922
0.00380552
-0.0443638
-0.0551236
-0.0599576
0.115081
-0.00325832
-0.00105389
-0.00174527
0.00605749
0.00315623
-0.00480365
0.00172291
-7.5482e-05
0.0370452
-0.00638217
-0.0282146
-0.00244834
-0.0032643
-0.00234425
0.00235023
0.00350461
-0.0107703
0.0659379
-0.0586722
0.0762583
-0.000302978
0.0270633
0.00983679
-0.00685692
-0.0300431
0.0585578
-0.000765166
-0.0577927
-0.0529397
0.11382
-0.0284227
0.0596877
0.0200902
-0.0513553
-0.0172034
-0.0252453
0.0180458
0.0244029
0.00306812
0.00376709
0.000865552
-0.00770076
-0.0342097
-0.0379615
0.0993291
-0.0271579
0.0456999
-0.0369771
-0.000699391
-0.00802347
-0.0479793
0.116662
-0.0526676
-0.0160154
-0.00129934
0.00156497
-6.32523e-05
-0.000202378
-0.000518797
0.0213704
-0.00486404
-0.0159875
0.00308672
0.00387186
0.000284967
-0.00724355
-0.000299497
-4.15899e-05
4.00298e-05
0.000301057
4.11629e-05
-2.26975e-05
-0.000317962
-0.00920187
0.023018
0.0702447
-0.0840608
0.0804115
-0.0824851
0.00207356
0.000282893
-0.000263652
-1.92415e-05
-0.0126953
0.000971728
0.00231059
-0.001317
-0.00196532
-0.00782625
-0.00686644
0.00552804
0.00916466
-0.0557559
0.0273332
0.000313283
0.000202759
-0.000781412
0.00026537
0.0334769
0.0552724
-0.0353127
-0.0534366
0.0117883
0.159671
-0.179948
0.00848835
0.0582881
0.0632949
-0.0618953
0.00184262
-0.0136635
-0.00191255
0.0137335
-0.0333987
-0.0301141
0.0635128
0.0311233
-0.0645221
-0.0544915
-0.0451248
-0.0656209
0.165237
0.0496284
-0.0554357
0.00580728
-0.0728983
0.134974
-0.0715783
0.0329589
-0.0299688
0.0861251
-0.00343412
-0.0690655
-0.0136255
0.0695979
-0.069728
0.0116456
-0.0115155
0.000144559
-0.00622939
0.00712997
-0.00104515
0.00037459
-0.00432961
0.00675453
-0.00279951
-0.000245613
0.000235384
0.000635058
-0.000624829
0.0221648
0.0234263
-0.0337491
-0.011842
-0.00542971
-0.00485752
0.00618848
0.00409875
-0.0109081
0.0320354
-0.0426524
0.0215252
0.00114377
-0.00855394
0.0106621
-0.00325196
0.0484792
-0.00414688
-0.0443323
0.0380467
0.0357492
-0.126569
0.0527734
-0.0979034
0.0599812
0.0759689
0.0329838
-0.0997638
-0.0469248
0.107874
-0.0370603
-0.0238893
0.00161597
0.00926579
-0.012466
0.00158421
0.0270812
-0.00223467
-0.0248466
-0.0305212
0.0435777
-0.00392056
0.0203299
-0.0314967
0.000925736
-0.000204258
0.00110952
-0.001831
0.0117456
-0.0383056
-0.000414045
0.000156921
0.000280551
-2.34274e-05
0.00279648
-0.000433757
0.00109972
-0.00346244
-0.000730234
-0.00262599
-0.0780967
-0.0127917
0.00159002
-0.0118898
0.0230915
0.0202202
-0.0907216
0.0208275
0.0496739
-0.00340121
0.0582752
-0.0819067
0.0270327
0.000608081
-0.000370003
0.000244129
-0.000482207
0.079129
0.0125431
0.00227082
-0.093943
-0.000257382
-0.000747945
0.00102354
-1.82083e-05
0.00500793
-0.000876152
-0.0689992
0.0648674
0.00689138
-0.00120459
-0.00510824
-0.00057855
0.00656068
0.00461727
-0.00371505
-0.0074629
-0.110442
0.0964932
-0.0876257
0.101575
-0.0540699
0.109048
-0.0549779
0.00231418
-0.0437908
0.00861832
0.0328583
0.00373674
-0.00352089
0.000686956
-0.000902804
0.0492186
-0.00264468
0.00114059
-0.129605
0.00244999
0.0742152
-0.034389
0.00017387
0.00187364
0.0327889
-0.0270791
-0.00758343
0.0781811
-0.0307709
0.0342069
0.00424519
-0.00514821
9.5217e-05
0.000807805
0.0344787
0.0240192
-0.0761792
0.0176813
6.3819e-06
9.56605e-05
-0.000163745
6.17031e-05
-0.000476169
0.00157146
0.00546539
8.96445e-05
-0.00813778
0.00660891
0.00577405
0.0746291
0.0407462
-0.0370567
-0.0783186
-0.13101
0.142439
-0.0095238
-0.00190597
0.0315251
-0.0327497
0.00122467
-0.0370793
0.000205792
0.000406284
-0.00325431
-0.00230018
0.0146412
0.206812
-0.158945
-0.0625087
0.0292955
-0.0609451
-0.0180741
0.0497238
-0.00311422
0.0389491
-0.000930248
-0.0852406
0.0472218
-0.0231417
0.0100816
-0.0379478
0.0476933
0.046142
-0.0558874
-0.06688
0.0897978
-0.152493
0.129575
-0.000205822
5.56343e-05
-0.0014527
0.00160289
0.000190855
0.0023003
-0.000616194
-0.00187496
0.0431671
-0.0143027
0.0380208
-0.0668853
-0.00356753
0.000354095
0.00343767
-0.00022423
-0.0118021
0.0105422
-0.0366879
0.0122382
-0.0461649
0.00595041
-0.00328815
0.018632
-0.0212942
-0.138722
0.0191669
0.130572
-0.0110163
0.0310485
-0.0215825
-0.0119515
0.00248552
0.034399
-0.0529565
0.00675532
0.00430887
0.00777916
0.0523548
-0.0644428
0.0247384
-0.00715115
-0.0251701
0.00758291
-0.0796207
-0.00825508
0.0146171
0.001246
-0.00111285
5.77105e-05
-0.000460333
0.00306055
0.00244041
-0.00504063
0.0184196
-0.0321451
0.0384639
0.0179738
-0.143339
-0.0230075
0.148373
-0.114049
-0.0149991
0.0265553
0.102493
0.0570426
-0.0344858
0.0281013
-0.050658
0.11268
-0.00614793
0.00307049
-0.109603
-0.016995
-0.0370827
-0.00427392
-0.0164641
0.00836559
0.0123724
-0.00129214
0.00044479
-2.62965e-05
0.000873644
0.0154375
-0.0781102
0.0626727
0.108634
-0.00700363
-0.1125
-0.0263546
0.0557258
-0.0463661
0.03953
-0.122228
0.0151519
0.067546
-0.00398408
-0.0121743
-0.0268987
0.0430571
0.00371667
0.0506543
0.0863681
-0.135507
-0.0015151
0.0492352
-0.0829954
0.0891073
-0.0553471
-0.0959356
0.0960234
-0.00748083
0.00739302
0.00292042
0.0043554
-0.0953639
0.0880881
-0.00177118
0.00361956
0.00611958
-0.00796796
0.000249817
-0.000961457
-0.000292638
0.00100428
0.08908
0.000597727
-0.0171936
-0.0724841
-0.0006987
0.000708252
2.39654e-05
-3.35174e-05
0.000667359
0.00326628
-0.00226379
-0.00166985