/*--------------------------------*- C++ -*----------------------------------*\
| =========                 |                                                 |
| \\      /  F ield         | OpenFOAM: The Open Source CFD Toolbox           |
|  \\    /   O peration     | Version:  2506                                  |
|   \\  /    A nd           | Website:  www.openfoam.com                      |
|    \\/     M anipulation  |                                                 |
\*---------------------------------------------------------------------------*/
FoamFile
{
    version     2.0;
    format      ascii;
    arch        "LSB;label=32;scalar=64";
    class       volVectorField;
    location    "0.085047";
    object      U;
}
// * * * * * * * * * * * * * * * * * * * * * * * * * * * * * * * * * * * * * //

dimensions      [0 1 -1 0 0 0 0];

internalField   nonuniform List<vector> 
47425
(
(10.3492 0.237582 0.00298035)
(10.1689 -0.277986 -0.00341463)
(9.98602 0.00765944 -0.00731863)
(11.639 -0.533971 -0.24902)
(12.7333 0.354575 0.635967)
(10.024 0.00452681 -0.00125767)
(12.6422 0.189696 0.634677)
(10.0142 0.00447564 -0.000595719)
(10.0046 0.00862183 0.00580803)
(0.83884 3.15532 -2.40078)
(9.9881 0.00775622 -0.00267661)
(9.99042 0.0716247 -0.00890914)
(12.432 0.340574 0.183882)
(9.99287 0.00502564 -0.00835806)
(11.2495 -0.0282501 -0.160235)
(10.0856 -0.21728 0.00387563)
(10.0081 0.00151379 -0.00430901)
(8.80484 -0.532145 -1.52943)
(8.6783 1.31443 -5.15634)
(13.7412 -0.553319 -1.17277)
(10.9637 -0.687037 -0.629473)
(9.79199 -0.0415554 -0.0186996)
(9.95701 0.013268 -0.00656429)
(9.93623 0.0171541 0.0157099)
(9.90044 -0.0823069 -0.00263637)
(10.0209 0.050918 0.0150108)
(10.0021 0.0149922 -0.00384045)
(11.5151 -0.457106 -8.9585)
(10.0085 0.00965166 -0.0039043)
(10.002 0.0235004 0.0164098)
(9.66438 0.765486 0.00178894)
(10.0448 0.0852431 -0.0012598)
(10.001 0.00608639 0.00587495)
(9.98309 0.0171877 0.0117519)
(10.0134 0.00250843 0.00782005)
(9.97437 0.000678725 0.0044346)
(9.72627 -0.0328822 -0.091984)
(10.0012 0.0164631 0.00799515)
(10.5518 0.464366 -0.0305804)
(10.1484 0.0761568 0.0146386)
(9.86885 0.245831 -0.017299)
(9.0199 0.0522358 -0.469169)
(5.51329 -2.64929 0.175704)
(9.98337 0.0132603 0.00532064)
(0.245557 -1.97354 -0.342014)
(9.96665 0.111597 -0.0109563)
(9.95057 -0.00257437 -0.0130652)
(9.99492 0.0294294 0.00536922)
(10.1512 -0.110219 -0.00170197)
(10.0698 -0.00905909 -0.0107042)
(2.1491 -0.68864 -5.87612)
(9.07084 1.43084 1.2829)
(10.0562 -0.0118072 0.00567831)
(5.91188 -4.31048 1.11806)
(10.027 0.0752174 -0.00379464)
(10.2017 0.0192367 0.00246743)
(10.3428 -0.207202 0.0263054)
(9.99449 -0.00105253 0.0204202)
(11.9315 1.34933 1.51066)
(9.99591 0.0204385 0.00589941)
(4.98302 -4.23332 0.628325)
(5.49338 -0.852121 2.07853)
(2.4024 -1.70327 -0.0818672)
(9.01427 -1.19004 -0.0987186)
(10.0076 0.0106574 -0.00650803)
(10.8366 -0.398473 -0.0306508)
(9.98605 -0.0112155 -0.00660592)
(10.9037 0.368386 0.672679)
(6.91499 -3.10181 1.59197)
(8.96342 0.575931 0.287164)
(10.8326 -0.701871 0.122167)
(10.0671 0.0255461 -0.00387587)
(11.046 -0.198738 -0.0345415)
(10.8642 0.325657 -0.651392)
(2.77081 0.768151 -0.297124)
(9.99887 -0.00385492 0.000981935)
(2.44144 -1.49054 0.474033)
(9.96393 -0.0124403 0.0082237)
(4.93863 -1.63908 1.0296)
(12.0366 -0.157417 1.41015)
(3.31838 0.480137 -0.19151)
(10.2208 0.352981 -0.00524872)
(9.17805 0.148612 -0.356583)
(10.0133 0.013318 -0.00663452)
(9.36187 -0.00520248 -0.0129601)
(10.3686 -0.0623555 0.0180659)
(10.9255 -0.0876508 -0.0512663)
(10.2218 0.152391 0.00532832)
(11.0935 -0.304638 -1.55549)
(11.0878 -0.808971 1.87796)
(9.75441 0.447626 -0.0520391)
(10.7681 -0.0058614 -0.0365726)
(10.0473 -0.0095399 0.00547648)
(10.2051 -0.0535081 0.00827364)
(10.1602 -0.0486781 0.0168154)
(10.1418 -0.0120833 -0.00400855)
(10.0453 -0.00647701 -0.00337671)
(10.4857 -0.322685 -0.0107018)
(10.2794 -0.0545108 0.0059103)
(10.0459 0.0176753 0.0194462)
(10.0197 0.038106 0.00286657)
(8.71073 0.140843 -4.15613)
(10.3056 0.185635 -0.010829)
(5.31652 1.93771 -0.835185)
(10.313 0.168734 -0.0280255)
(10.8525 -0.746818 -0.0314987)
(10.2196 0.349091 0.0821071)
(10.2573 -0.0913208 -0.00380983)
(8.40122 -0.162663 -0.548211)
(9.96544 0.0859228 -0.00654443)
(-0.0633475 -0.564564 -0.613454)
(9.99579 -0.0789411 -0.00481096)
(10.7578 -0.951161 -0.0213738)
(10.4147 -0.0181755 -0.02402)
(11.1081 -0.415063 0.0030332)
(1.78911 -4.13366 -5.94754)
(11.1042 -0.364047 -0.00354147)
(4.0543 0.0433276 -4.40138)
(10.3827 0.168425 0.00228544)
(11.2999 0.406121 0.37419)
(10.5031 -0.060039 -0.0169512)
(10.0002 0.00365289 0.0054933)
(9.99702 0.0525977 -0.0046747)
(11.9009 0.788644 -0.791503)
(10.0489 -0.0377991 -0.00384226)
(11.0595 -0.784323 -0.0100474)
(10.3342 -0.105319 -0.00120682)
(10.0072 0.00368185 -0.00679054)
(9.96641 0.0191819 0.0102915)
(10.0168 0.0279537 -0.00423194)
(9.18856 -0.295645 0.27651)
(10.787 0.320363 -0.0546952)
(4.31064 0.0521234 0.492837)
(10.4216 -0.566527 0.0248224)
(9.8742 0.116371 -0.633523)
(12.2164 -0.539105 -0.961817)
(10.857 0.938445 0.239601)
(11.0798 -0.850782 0.115282)
(10.1533 -0.0789371 -0.00685286)
(11.1806 -0.0819669 -0.0651983)
(9.98133 0.00610223 0.00205541)
(11.8496 0.306386 0.279006)
(10.5206 0.0402896 -0.0294886)
(10.756 -1.22203 0.0241967)
(10.17 0.231708 -0.01774)
(10.0047 0.0052163 0.00556168)
(12.6059 0.261633 0.565097)
(10.0109 -0.0304868 0.00723498)
(10.4672 0.0231229 -0.0125011)
(9.97653 -0.0172286 0.00624165)
(10.6574 -1.2249 -0.124169)
(2.9148 -0.401078 -6.85808)
(10.0071 0.0149322 -0.00991938)
(5.55014 0.112527 -11.4022)
(8.94637 -1.18164 -0.772506)
(9.98733 0.113513 0.0184741)
(11.0513 0.509671 -1.7252)
(7.30872 -3.94558 -2.66994)
(10.1973 -0.071678 0.0118264)
(9.9797 0.00489884 -0.00361727)
(11.3627 -0.224136 -0.0162828)
(10.0279 0.0777089 0.0173081)
(10.0264 0.0132977 -0.000681911)
(10.1623 0.315628 -0.0270009)
(11.9246 0.220421 -0.603645)
(-0.925236 -1.64998 -2.05521)
(10.0157 -0.0295788 -0.00136647)
(3.27092 0.620843 -0.301158)
(9.92878 -0.00383576 0.0225647)
(12.1181 0.762808 -4.36283)
(4.18137 0.449298 -0.470173)
(9.976 -0.00502391 0.00358883)
(10.0011 0.0241157 -0.0034241)
(9.42865 -0.993587 -0.676676)
(10.3626 -0.0281511 0.0185382)
(9.26665 -3.05841 -1.43841)
(2.76124 0.966133 -7.68908)
(10.0079 0.0154188 -0.00421352)
(10.0318 0.00408643 0.00187372)
(10.0546 0.00406774 0.00421642)
(2.60832 0.427722 -11.0099)
(10.0894 -0.17302 0.0315933)
(10.0243 0.00656744 0.000502477)
(10.0296 0.0056786 0.0130177)
(10.0386 0.000476594 0.00247716)
(10.0268 0.0238888 0.00490882)
(10.2143 0.0847564 0.00853509)
(5.6462 -0.539811 -0.676264)
(9.8239 0.00844047 -0.00892789)
(10.2081 0.216993 0.0831579)
(10.0006 -0.0100408 -0.00298901)
(9.98807 0.00436593 -0.00138639)
(12.2184 -0.842267 -0.616775)
(9.99716 0.00181827 0.00404454)
(10.0237 0.00224774 0.0206398)
(11.2498 0.0451395 -0.052381)
(10.0017 0.00107116 0.00755986)
(10.0412 -0.0192437 0.0152187)
(11.4175 0.132414 -0.0576531)
(10.4276 -0.256196 0.0738388)
(9.99078 0.0135266 0.00241531)
(10.5057 -0.0525 0.00764625)
(8.83646 0.426211 -0.394649)
(11.2416 -0.116453 -0.045958)
(10.3238 -1.48033 -1.00298)
(10.7005 -0.0133855 -0.0424748)
(10.0012 -0.0117663 0.00892825)
(11.2029 -0.0169487 -0.0474027)
(9.99598 0.0875104 -0.0144616)
(10.0028 0.0132968 -0.00272458)
(10.4209 -0.176879 -0.00404976)
(11.2218 0.13957 -0.00941088)
(10.0067 0.0241261 -0.000320989)
(9.95557 -0.0373478 0.0185407)
(10.7916 -0.0537235 0.00582225)
(11.3926 0.236824 -0.155614)
(10.8505 0.0357472 -0.0658784)
(11.3317 0.223906 1.63981)
(8.67273 -1.29522 -0.699076)
(9.94477 -0.0434569 0.0100044)
(11.8607 -0.537365 1.33469)
(11.3111 0.201822 0.172347)
(9.87514 -0.868931 -1.10283)
(10.9393 0.196735 -0.0306783)
(10.6742 -0.00539211 -0.0283167)
(11.9726 -0.765579 1.23773)
(10.0325 -0.00360046 0.0091056)
(11.3074 0.260547 -0.0580634)
(11.5615 0.182116 0.00770971)
(12.0454 -0.178118 -0.32383)
(10.8436 0.035074 -0.0598793)
(9.9901 0.00138629 -0.00514427)
(10.6253 -0.0830249 -0.00898814)
(10.0006 -0.00435457 -0.000552184)
(9.79549 -0.0069465 -0.00869059)
(9.99621 0.265096 0.0104957)
(11.8162 -0.137769 1.44406)
(9.97059 0.0266172 0.00469927)
(12.1533 -0.0447479 1.27986)
(9.78694 0.00131939 -0.0451416)
(9.87548 -0.0144212 -0.0125833)
(10.0058 0.00606717 0.0115588)
(10.0879 -0.0297939 -0.00398391)
(11.7025 0.876406 0.0681457)
(10.3902 0.479247 -0.00486519)
(10.0077 -0.00306487 0.012024)
(10.4502 -0.0795872 -0.015124)
(10.0107 -0.000562676 0.00275431)
(10.0169 -0.0216194 0.00930218)
(9.9547 -0.00260675 -0.0110829)
(9.98866 0.0938097 0.0333716)
(12.0329 -0.468891 1.41909)
(9.97445 0.00741646 0.00634546)
(10.0033 0.00409713 0.00562658)
(9.91984 0.00998379 0.00244246)
(10.0269 -0.00113461 -0.0069256)
(9.85264 0.0615877 -0.0315212)
(9.74314 0.0177898 0.0115127)
(10.4686 -0.725833 0.120961)
(10.0098 0.000111163 -0.00672166)
(9.74217 0.0274822 0.0105392)
(9.9992 0.0257357 -0.000603369)
(10.2142 0.0522377 -0.0082806)
(10.1192 0.0109981 0.00437876)
(12.048 0.0252279 0.791701)
(10.5642 -0.424056 -0.146817)
(10.0404 -0.000446947 -0.00120116)
(12.1213 0.056351 0.61483)
(10.0182 0.00366731 0.00406749)
(10.213 0.0956431 -0.00274636)
(10.1835 0.0525015 -0.00161077)
(12.2508 0.0981263 1.0657)
(11.7061 0.0726234 1.30923)
(10.1964 -0.165201 -0.0199702)
(12.1206 -0.204047 1.43234)
(10.0503 0.00311089 -0.00381329)
(12.1913 -0.0430886 1.26232)
(6.59209 3.33566 2.12995)
(11.6892 -0.0501988 1.38549)
(5.93302 1.28248 -5.29037)
(4.38665 -4.42947 0.524299)
(10.3209 0.196695 0.00769589)
(3.20183 -3.99547 -0.236595)
(9.8801 -0.0116007 0.00981985)
(10.0064 -0.00784342 0.0145363)
(11.374 -0.166492 -0.00182515)
(9.90786 -0.00703953 0.00822087)
(9.94302 0.00674713 -0.00761905)
(9.81715 -0.239904 -0.013684)
(11.1351 -0.477534 -0.154587)
(1.38457 1.7262 -3.71903)
(9.20765 0.837147 -0.0269443)
(10.0028 -0.00174589 -0.00227798)
(10.0166 -0.00410364 -0.0183097)
(9.98909 0.00686717 -0.00367623)
(10.1579 0.3886 0.416625)
(11.6176 0.949579 0.237075)
(10.207 -0.716881 0.0828901)
(9.99674 -0.133286 0.000725943)
(12.0037 -0.157915 0.0184046)
(10.1923 0.170008 0.0415825)
(10.0912 0.0425367 0.000132629)
(9.959 -0.0216795 0.00508148)
(10.0172 0.00220484 -0.0095436)
(9.9687 4.1552 -0.594987)
(5.60697 1.77005 -0.626112)
(1.50601 1.21392 -6.40689)
(10.051 -0.00737739 0.000147013)
(10.1051 -0.037542 0.00900214)
(10.0405 -0.638878 -0.078799)
(10.1775 -0.501783 -0.155864)
(1.25623 -0.806015 -5.8724)
(9.97387 0.000748909 -0.0125129)
(9.946 0.00222278 -0.0109309)
(10.8273 2.18045 0.547551)
(10.3127 -0.145064 0.0232488)
(9.85084 0.00969125 -0.00397845)
(9.81188 0.00704511 0.00344336)
(9.90088 0.00181308 -0.00185755)
(12.2436 2.63438 -1.106)
(11.2808 1.88533 0.46546)
(10.0591 0.194958 -0.0106506)
(10.1003 0.130163 -0.00736497)
(10.0255 -0.0107426 0.00886306)
(10.3487 -0.0390112 0.00550499)
(10.0509 -0.00103312 0.00571269)
(10.0692 0.234102 -0.000966697)
(10.1742 0.0520295 0.0143107)
(10.05 -0.0167552 -0.00536437)
(9.9789 -0.0175021 0.00103319)
(11.5862 -0.0708127 0.234247)
(8.65858 0.532013 -0.484986)
(10.628 -0.731605 -1.39908)
(10.0075 0.0134086 -0.00253232)
(9.96544 -0.00718941 0.00711358)
(10.0492 0.00301324 0.00463059)
(8.88976 0.863414 -0.514337)
(9.97843 0.10367 -0.00246708)
(10.0255 0.0218521 -0.00492767)
(10.0238 -0.0439523 -0.00976397)
(10.0202 0.261666 -0.0508349)
(10.0172 0.287159 -0.0536278)
(10.1717 0.12451 0.019282)
(9.94018 0.266878 -0.04067)
(10.0467 -0.0164971 -0.0086178)
(10.0503 0.00225699 0.00600537)
(9.98375 -0.00375271 0.0191516)
(9.66142 0.459108 -0.208263)
(9.95 0.00159538 -0.00360355)
(9.94164 -0.0173788 0.00407079)
(10.0086 0.236391 -0.0445834)
(10.4257 -0.476378 -0.0978916)
(10.0597 0.256917 -0.0271627)
(9.95951 0.203522 -0.0256953)
(10.0141 0.195583 -0.0359478)
(11.1816 -1.42946 -0.280645)
(9.94264 0.00339332 -0.00499791)
(9.1975 0.243289 0.0431943)
(9.9788 0.154569 -0.0157895)
(9.99536 0.0232929 -0.00788382)
(9.49244 0.317689 1.90854)
(11.5628 0.127199 -0.470718)
(10.1331 -0.0455778 0.00790428)
(9.927 0.0039073 -0.00312948)
(10.3655 -0.445577 -0.0180373)
(10.8755 0.419754 -0.110793)
(9.77992 0.00272896 -0.00989592)
(10.0107 -0.00629121 -0.00855505)
(9.97857 -0.134105 0.0026587)
(10.2369 0.765508 -0.14924)
(9.81577 -0.000133944 -0.00758329)
(-0.58639 -2.32521 -0.470971)
(10.8109 -0.106795 0.0131529)
(10.0354 1.00324 -0.131569)
(9.97932 -0.00182191 0.00737604)
(10.0283 0.885899 -0.10687)
(10.9933 0.400295 -0.370631)
(10.0106 -0.000927822 0.000520681)
(10.0034 0.0057354 0.00448688)
(9.75706 -0.0315603 -0.0740826)
(10.0109 0.00323308 0.00487667)
(10.0509 0.898283 -0.157968)
(10.1266 -0.12483 0.00981227)
(10.0053 0.0234376 0.00709687)
(9.97876 -0.0507582 -0.00563577)
(10.0017 0.0180699 0.00606794)
(9.96661 -0.0131761 0.00508606)
(10.2312 0.179895 -0.011364)
(9.99986 0.00610867 0.00791458)
(9.97579 0.0172606 0.00745814)
(10.5787 0.951527 -0.364842)
(10.363 1.15994 -0.421517)
(9.96616 -0.0113588 -0.00047722)
(10.5172 -0.555991 -0.0035229)
(9.97959 -0.0062769 0.00988922)
(10.5018 0.892731 -0.322585)
(9.95689 -0.0715309 0.00152228)
(9.9859 -0.00232011 -0.00188035)
(12.2153 0.691195 -0.438316)
(10.0571 0.00892139 -0.00982459)
(10.7233 0.0730035 1.12975)
(10.0796 -0.000677826 0.00223393)
(9.45775 1.542 -2.15441)
(9.9289 0.00366322 -0.00855167)
(10.7597 0.151193 0.0043438)
(9.93457 0.00309313 -0.0168063)
(10.0323 0.0188348 -0.000577495)
(9.81227 0.00878685 -0.00311737)
(10.0426 0.0021545 0.00333615)
(9.97776 -0.00103396 -0.0193954)
(10.3612 1.03924 -0.327707)
(0.963812 -1.6802 0.643809)
(2.04814 -0.740507 -2.60865)
(10.1065 0.0918123 0.00683163)
(10.3775 1.55984 -0.980039)
(10.7829 0.781639 -0.359289)
(10.8865 0.737107 -0.346889)
(9.97961 -0.00826614 0.0152649)
(9.99645 0.002213 0.00687111)
(9.95856 0.0224709 0.0107452)
(9.84952 0.00907603 0.00671549)
(9.95258 -0.00664465 -5.65279e-05)
(10.2027 -0.279513 0.0109164)
(10.9021 0.677163 -0.239655)
(9.94166 -0.0170243 0.00325798)
(10.0446 0.0112676 0.00733479)
(11.65 -1.08118 0.0112464)
(11.6412 0.545761 -0.261037)
(11.2648 0.622991 -0.206377)
(8.07939 -1.33531 -5.21321)
(-0.0167921 3.30427 0.504976)
(10.7547 -0.31794 0.000649679)
(7.41931 -0.985518 -5.75569)
(-0.0727443 3.17111 0.704592)
(9.83767 -0.260681 -0.0260822)
(-0.125986 3.18492 0.647235)
(9.45307 -0.368749 0.919886)
(10.0004 -0.0758469 0.0195937)
(11.144 0.688303 -0.377892)
(11.0874 0.746812 -0.404839)
(11.392 0.645832 -0.372269)
(-0.856304 2.29666 0.921393)
(10.2952 0.144812 0.00463069)
(10.016 0.0466069 -0.00028995)
(10.0055 -0.0194328 -0.00554801)
(11.4674 0.680326 -0.4889)
(11.3329 0.725957 -0.554219)
(10.1384 0.0250178 0.0220273)
(10.1733 0.146801 0.0364828)
(9.55251 3.00707 1.65814)
(-0.729863 2.34298 0.929631)
(13.0483 -0.566963 -3.22095)
(10.0061 -0.0140813 0.00827331)
(8.83436 -0.761371 -3.3746)
(10.4748 0.656361 1.21534)
(10.0115 -0.0983867 0.00841072)
(11.0454 0.51096 -0.0722193)
(12.2231 0.235162 0.200731)
(11.0213 0.422254 -0.0620413)
(9.99448 -0.0176955 0.00480638)
(9.99844 -0.00461296 0.00720606)
(9.98287 -0.00630478 0.000947995)
(10.4667 0.438642 -0.0239485)
(9.99923 0.00185165 -0.000488585)
(9.97844 -0.0113235 0.0111159)
(10.15 0.0759058 -0.0116557)
(9.94769 0.00155337 -0.0202966)
(11.2267 0.294747 -0.0847616)
(10.0072 -0.0288052 -0.0170668)
(9.96615 0.0157253 -0.00368519)
(9.9958 -0.0195014 0.00235617)
(10.0049 -0.0070141 0.00924413)
(9.96316 -0.00287856 0.00421765)
(10.387 0.354355 -0.0166143)
(10.091 0.051251 -0.00495155)
(10.1304 0.0204676 0.0332682)
(11.1316 0.298259 -0.0747919)
(8.35412 3.29573 1.28046)
(9.97246 -0.00570857 -0.001783)
(12.0641 1.54568 -1.59713)
(9.99703 -0.00864381 -0.00272833)
(11.059 0.0460605 -0.0430839)
(7.62564 -0.452611 2.39747)
(9.76978 1.47497 -0.667671)
(10.019 0.0373387 0.000121143)
(9.83855 1.55821 -0.744451)
(10.0079 0.0253237 0.00731841)
(10.0317 -0.0156192 -0.00864766)
(10.0991 1.34281 -0.972487)
(9.9905 -0.00680754 0.0189125)
(10.8292 -0.253318 0.00195926)
(9.96602 1.23798 -0.68965)
(10.3624 -0.0894388 0.0151255)
(10.652 0.0967954 -0.288776)
(8.25642 0.362862 -4.21392)
(10.1132 -0.0536228 0.0150168)
(9.60387 1.93786 -0.70037)
(10.0494 -0.0216646 -0.0033951)
(9.02654 2.06322 -1.12448)
(10.1778 -0.173939 0.0406972)
(10.0176 -0.0049329 0.00645387)
(9.96965 0.0256302 0.0133304)
(9.99554 0.00831963 -0.0177133)
(10.6619 1.12994 0.828663)
(9.95997 0.00514932 -0.0239824)
(10.0006 0.00426917 -0.0218288)
(10.0172 -0.0371169 0.00998513)
(9.90823 0.150094 0.0318477)
(11.1374 0.757134 -0.037236)
(10.0169 0.00428549 0.0036969)
(10.0002 0.00191461 3.85943e-05)
(8.62805 0.337635 -0.658935)
(9.99591 -0.0044469 -0.0114223)
(9.77926 0.16647 -0.0573618)
(10.1339 -0.227908 0.0608733)
(10.0883 0.0476742 -0.00908022)
(10.0472 -0.00639737 -0.000689906)
(9.94671 0.0119603 0.0090002)
(10.0899 0.0314806 -0.0110457)
(10.3849 1.38092 -1.1344)
(10.0034 0.00986812 0.00687481)
(9.98893 0.00458045 0.00288152)
(3.02627 -0.605861 -5.89988)
(9.96363 -0.0100822 0.0108068)
(9.99237 -0.01404 0.00419406)
(9.97253 0.134546 -0.0138962)
(10.004 0.0110983 0.00698335)
(12.6413 1.45487 -0.993358)
(12.7567 1.16659 -0.777212)
(9.96298 -0.00365667 -0.000697948)
(9.86393 -0.13932 -0.0159116)
(9.89524 0.0399309 0.0239514)
(11.7697 0.189259 1.22889)
(10.0502 0.0609753 -0.00167556)
(12.7976 1.2557 -0.831915)
(9.99945 0.00576035 -0.00299666)
(-1.96415 -0.348544 1.08698)
(8.15638 -0.536956 -0.762789)
(9.11678 -0.888286 1.74851)
(10.004 0.0104514 0.0189734)
(12.7231 1.20814 -0.779692)
(10.0621 0.00574602 0.000596918)
(10.2253 0.131318 0.0339659)
(9.97651 0.00346066 -0.0162318)
(9.20887 0.207942 -0.079129)
(10.049 -0.00278416 0.00625118)
(10.0114 0.0271998 -0.00945703)
(5.91637 -1.45844 -0.962784)
(9.98658 0.00109638 -0.00310836)
(9.92062 0.00756787 0.00300576)
(10.0209 0.00713175 0.0250716)
(12.5068 1.61492 -0.892246)
(10.0697 0.0320458 0.00208118)
(9.99734 -0.0170467 0.00762688)
(12.3577 1.52335 -0.914164)
(12.3074 1.04972 -0.433015)
(9.9667 -0.0128945 0.0109632)
(10.0596 -0.0110535 -0.00556412)
(-0.127079 1.81752 0.377804)
(10.039 0.0109235 -0.00625192)
(10.8272 -0.416645 0.0856028)
(10.0148 -0.0027213 -0.0083452)
(10.0351 0.00648367 0.0258333)
(10.0499 -0.0266887 -0.00278939)
(11.9373 1.15795 -0.472177)
(11.6202 0.336136 1.40617)
(9.18255 0.739023 0.742955)
(9.69179 0.154588 0.0472627)
(10.082 -0.10933 0.0205286)
(10.0368 0.00559296 0.000690798)
(12.5795 -0.550753 -0.386996)
(9.31008 0.251009 -0.472201)
(9.67729 0.0693216 -0.144277)
(-0.042608 1.69263 0.255381)
(9.9968 -0.00513088 -0.00435817)
(10.0442 3.77174e-05 -0.0147005)
(-0.218716 1.60766 0.354163)
(12.1438 1.69685 -1.3265)
(9.90763 0.0863291 -0.0157847)
(0.0122539 1.79129 0.281021)
(0.0176302 1.81272 0.363322)
(10.0151 -0.000992222 -0.00492288)
(9.99758 0.0148141 0.00162778)
(10.0184 -0.00724652 -0.00512397)
(9.59557 -0.339696 -0.0179432)
(9.99781 0.00292778 -0.00674972)
(9.96155 -0.0170088 0.00306095)
(9.97482 -0.339059 -0.530073)
(10.0455 0.28094 -0.00256708)
(9.93885 0.00436412 0.00411578)
(10.0319 0.0184694 -0.000333244)
(12.535 1.46558 -0.445677)
(11.8414 1.42243 -0.469744)
(9.96931 0.00969663 -0.00031897)
(10.5212 0.385735 -0.0309033)
(-3.20475 -2.06693 -0.0567677)
(-2.31366 -3.22373 1.7317)
(10.9328 0.435446 -0.122783)
(9.93093 -0.00289295 -0.00828207)
(10.2963 -0.182394 0.216429)
(11.0572 -0.0907887 -0.809346)
(9.86412 -0.00842887 0.000306973)
(9.86171 -0.0153575 0.0112015)
(10.0505 -0.0378627 -0.00174035)
(10.3381 0.148173 0.0119697)
(9.97946 -0.0128607 0.00692169)
(10.9872 0.333316 0.315661)
(10.0002 0.00324144 0.000426332)
(13.1892 0.800922 -0.764543)
(10.3567 1.56387 -1.23366)
(10.8028 0.421127 -0.0746934)
(13.2049 0.983778 -1.10746)
(10.0632 0.0353096 0.00430913)
(10.0002 -0.00231357 0.00703309)
(10.3475 0.802986 0.1318)
(10.1601 -0.0928986 0.0319219)
(10.0163 -0.000161898 0.00768827)
(10.0039 0.0072211 -0.00293632)
(11.2786 0.35756 -0.612833)
(7.93613 -0.789758 -1.53973)
(10.0171 -0.00366125 -0.00727916)
(11.085 0.13115 -0.0285762)
(9.96428 0.339971 -0.034759)
(10.9746 -5.22341 -2.64521)
(10.3906 -0.908393 0.843933)
(12.0284 0.0595283 0.922403)
(6.60968 0.106409 0.237767)
(6.37918 0.0838577 0.0812379)
(10.0514 0.0155036 0.00304506)
(10.0417 0.368403 -0.103735)
(4.32954 -0.0124061 -0.19303)
(9.96107 0.00995623 -0.00247824)
(10.0313 -1.75389 -3.6269)
(8.13825 -0.163489 1.3702)
(9.98437 0.00165436 -0.00209973)
(10.0138 0.459284 0.263683)
(10.0286 0.0129014 -0.0147224)
(10.0366 0.0025743 0.015611)
(10.0164 0.00229646 -0.000591717)
(13.4118 0.6288 -0.267022)
(9.97611 0.00976472 -0.00400966)
(9.98475 0.00380623 -0.0015763)
(10.0578 -0.0363647 -0.0162745)
(9.80371 0.00227978 -0.00822522)
(10.0646 -0.0146857 0.0239247)
(9.96916 0.00573645 -0.0100821)
(10.05 0.0224832 0.00222056)
(9.83832 -0.070824 0.0117236)
(10.9417 1.21298 0.685701)
(9.0984 -1.079 -2.3038)
(12.1872 3.7875 1.99299)
(10.764 0.593771 0.0197663)
(9.58718 1.49592 1.25931)
(9.98636 -0.00327628 0.0034867)
(9.25831 -1.00415 0.0518881)
(9.97269 0.0115353 -0.00103172)
(10.0005 0.00218485 -0.0110028)
(10.0028 0.00331122 -0.00870088)
(9.99974 0.00100953 -0.00774169)
(9.98416 0.0176154 -0.00627103)
(9.20195 0.456207 -0.925328)
(11.0659 0.818845 0.205406)
(9.98673 0.0129639 -0.00564154)
(10.2245 -0.586585 0.0530201)
(11.1535 1.67375 2.001)
(9.97582 -0.0034242 -0.0016309)
(1.59304 0.730521 0.304706)
(13.3233 -1.01951 -3.17218)
(9.95357 -0.0185613 0.00314066)
(9.31647 -0.553936 -0.00288165)
(10.4791 0.0221111 0.0355639)
(10.0356 -0.00881471 -0.00512585)
(2.34615 1.21136 0.365385)
(9.9939 -0.0183369 -0.000650034)
(5.16151 -1.37557 -0.36636)
(9.97168 -0.00529605 0.00368417)
(12.0315 0.0387338 1.11542)
(12.2291 0.416374 -0.0924334)
(9.95011 -0.0202665 0.00304038)
(9.90053 -0.00581765 -0.0027127)
(10.1892 0.632933 0.0401383)
(8.66028 -0.629947 -2.36033)
(9.92555 0.0092745 0.000821921)
(10.0346 -0.0109505 -0.00221617)
(10.4143 -0.013143 -0.0104635)
(12.6398 -0.0611846 0.556601)
(10.0009 0.00359888 0.00182096)
(12.4877 0.334018 0.177672)
(10.5563 -0.0139588 -0.0293141)
(-0.0952067 0.0421443 -0.888006)
(12.1813 0.336492 0.0214222)
(10.486 -0.0211266 -0.0194404)
(12.3212 0.332744 0.125194)
(10.0007 -0.00364673 -0.00349446)
(10.1284 -0.175813 0.00811343)
(10.5343 0.442407 0.0182885)
(10.5407 -0.0592074 -0.0258989)
(12.4918 0.416397 -0.00356751)
(9.99958 -0.0224042 0.000168779)
(10.0635 -0.235452 -0.026576)
(12.3425 0.405896 -0.0335435)
(9.95441 -0.0349414 0.00348463)
(10.5752 -0.0549862 -0.0244207)
(9.98306 -0.0241211 -0.00750687)
(10.0484 -0.0171333 0.0168926)
(6.89659 0.405127 -5.22864)
(6.72415 -0.107453 -5.82838)
(9.66584 0.0848745 0.348047)
(8.85903 0.427403 -4.27451)
(9.99493 -0.0227006 -0.00860459)
(9.94939 -0.0233775 -0.00958394)
(10.8819 0.670611 -0.28487)
(10.5661 -0.178358 0.0095272)
(7.9532 0.0880618 1.24909)
(10.0139 -0.0213803 -0.00885442)
(10.0889 0.0689235 -0.007888)
(9.99879 -0.014828 -0.00176099)
(10.0271 0.0829321 0.0224046)
(5.28959 0.250553 -6.47885)
(3.86324 -1.6179 1.70656)
(9.98655 -0.0186076 -0.00173282)
(10.0173 0.0395383 -0.00671466)
(10.0445 -0.0952978 -0.000295872)
(9.87165 -0.0692833 0.0105349)
(10.2728 -0.176601 0.0443132)
(9.97124 -0.0188736 -0.00395036)
(11.3862 0.0257215 -0.0475802)
(11.7558 -1.20515 0.94955)
(10.1766 0.032217 0.0255626)
(10.0404 0.00963709 -0.00261075)
(10.0043 -0.0156887 -0.00294975)
(10.007 0.072146 0.0137538)
(9.69665 0.198829 0.0258845)
(10.011 -0.0100384 -0.008142)
(10.8318 -0.13749 -0.0442941)
(9.95121 0.000332611 0.00377051)
(10.0152 0.0281446 -0.0101764)
(10.1059 0.0845244 0.0187382)
(9.26681 -0.877322 -1.3221)
(5.16522 0.721331 -4.88794)
(10.0601 -0.0914291 0.00375155)
(-0.121668 -1.8805 0.221829)
(9.87512 -2.44138 0.570397)
(13.3151 -1.19145 -1.23108)
(-0.136437 -1.85739 0.191482)
(10.4969 0.0506706 -0.00978248)
(6.12315 -0.3456 2.31875)
(10.6179 -0.512187 -2.67907)
(10.87 -1.69736 0.338008)
(5.67087 0.323314 -3.88456)
(-0.155042 1.70124 0.60386)
(1.5013 0.634414 -3.68443)
(11.7902 -0.0822867 0.69726)
(10.8545 -0.0134703 -0.0602824)
(11.7334 0.103694 1.11995)
(9.92241 0.00522357 0.000301718)
(3.71374 -0.325746 -0.407236)
(10.8603 0.0846355 -0.359125)
(10.7555 -0.0162158 -0.0260182)
(9.97001 -0.061519 0.0547519)
(10.0091 0.0127785 -0.0208281)
(11.8205 0.19134 1.21333)
(9.98712 0.14979 0.0318656)
(10.215 -0.0433261 0.0213987)
(9.9687 0.0183098 0.00133027)
(-0.391953 1.04776 0.0996343)
(8.1044 0.325171 -2.57505)
(10.0151 -0.00789625 0.00828314)
(9.98457 -0.00470805 0.00439738)
(5.0278 0.308571 -2.51137)
(5.92031 0.162773 -3.17361)
(10.5718 -1.6551 -0.980078)
(-1.6897 -2.49298 -1.23308)
(5.60918 0.197526 1.83155)
(4.0491 0.0217144 -3.99365)
(3.77157 -0.0340802 -4.84737)
(10.0056 -0.00408893 0.00995016)
(9.80842 0.00196849 0.00146583)
(9.47124 -0.026817 0.0144289)
(10.0208 -0.00410198 -0.00645773)
(10.416 0.0434981 -0.01259)
(-0.231483 1.78445 0.350893)
(11.0076 -0.0134345 -0.273649)
(10.4696 0.0346257 -0.012967)
(10.3361 0.0335961 -0.00534928)
(10.0513 0.00167062 0.00672544)
(-0.213689 1.65339 0.776732)
(-0.422047 1.68941 0.737155)
(10.0608 0.01558 -0.0133929)
(10.4115 -0.000419362 -0.022696)
(9.93297 0.0272677 -0.00363458)
(10.0496 -0.0156846 -0.00690891)
(10.3596 0.0141 -0.00693486)
(10.0461 -0.016151 -0.0121121)
(9.67882 -0.0102397 -0.0765901)
(10.0037 0.00426179 -0.0127598)
(9.98628 -0.0189682 -0.00412897)
(6.99492 -0.773232 -3.23358)
(10.0478 0.00185374 0.0058875)
(10.0522 -0.0021014 -0.000157977)
(10.0146 0.00181052 -0.00898458)
(9.84293 0.00406889 -0.00194714)
(9.86326 0.00541782 0.00689)
(4.26587 -0.6161 -2.54615)
(12.6967 -1.23646 -0.842077)
(10.0432 -0.00240751 0.00533537)
(10.8909 0.45802 -0.217969)
(10.0114 0.0262047 -0.0110682)
(9.67403 -0.327242 0.0950629)
(9.62938 -0.413163 0.145859)
(12.399 -0.0412922 -0.0806616)
(9.84032 0.000974105 -0.00474571)
(-0.33083 -1.08128 0.884481)
(12.4893 -0.191846 -0.157773)
(10.5037 0.154809 -0.0180119)
(10.854 0.422628 -0.0590011)
(8.1039 0.357736 -3.51868)
(10.4202 3.14392 1.6036)
(9.99405 0.00392034 0.00396295)
(9.98937 0.00442107 -0.00170777)
(11.4401 1.73116 2.13009)
(10.0045 -0.0866027 -0.00799477)
(9.99923 0.033834 0.00543243)
(10.7779 0.802295 0.335679)
(9.97218 -7.15728e-05 -0.00182137)
(9.98346 -0.00263654 0.00179734)
(-2.66877 0.740208 1.32132)
(12.5402 0.83996 -0.28379)
(10.2749 3.59715 -0.513104)
(10.002 0.000801213 0.00505063)
(7.72295 0.623468 -2.73078)
(10.0102 0.00274467 0.0102604)
(12.1132 0.231977 -0.278917)
(9.47971 -0.392538 0.231775)
(12.477 -0.0807454 -0.0868007)
(9.93187 0.00179966 -0.000763174)
(9.28764 -0.422174 0.187683)
(-1.07926 -0.543928 0.773919)
(11.416 1.85335 2.61493)
(12.6268 -0.458951 -0.936274)
(-0.934459 1.05196 0.612014)
(12.4598 0.308446 0.172032)
(10.6775 0.181021 0.0114907)
(9.95943 0.00380296 0.00649743)
(12.2532 -0.36688 -0.272281)
(10.0027 0.00255426 0.00457901)
(12.6525 -0.0946486 -0.0491001)
(-0.0501636 -1.39289 0.56885)
(10.001 0.00438774 0.00487708)
(12.8803 0.126197 -1.4063)
(9.89548 -0.00518542 -0.00415582)
(9.89105 -0.0182829 -0.0006562)
(11.1241 -1.23259 -0.622451)
(9.93765 -0.0169562 -0.0116247)
(10.3389 0.130774 -0.0165551)
(8.01487 -5.75763 -0.0518428)
(9.50592 0.458569 0.0222539)
(10.0154 -0.240199 -0.0264742)
(12.8731 -0.573646 -0.110067)
(10.7171 1.63706 0.958824)
(10.0466 -0.0306078 0.00633715)
(11.7312 -2.68361 -1.12657)
(5.25937 -0.906801 -0.23966)
(10.77 0.0401332 -0.0102417)
(9.62205 -0.72958 -0.917964)
(10.0672 0.147087 0.0387498)
(10.6625 0.24911 0.00611205)
(9.99316 -0.0192637 -0.0163649)
(10.0392 -0.0265261 0.00473775)
(-1.14454 1.20732 0.303033)
(0.760578 -4.40632 1.91579)
(12.0443 -0.89553 0.305212)
(10.0779 -1.25483 -0.814722)
(12.4119 -0.642428 -0.478883)
(0.978748 4.87928 0.75737)
(-1.36595 0.0436812 -0.942458)
(9.11538 -3.60587 4.18873)
(10.047 -0.0205122 0.0143503)
(10.0023 0.012382 -0.0100019)
(9.9886 0.0137677 -0.00427208)
(9.85097 -0.0264872 -0.00178963)
(0.753256 1.25841 1.01365)
(9.59747 -0.538938 0.159076)
(8.93622 -0.656773 0.999329)
(9.98689 0.0210438 -0.00978527)
(-0.162668 -1.4972 0.0603362)
(12.5684 -0.0677297 -0.139661)
(10.8048 -0.0220126 -0.284586)
(10.1931 0.0389804 0.00705417)
(10.0323 -0.0154851 -0.0118334)
(10.2008 0.0403196 0.0142909)
(6.22391 -1.87243 -3.33074)
(10.0048 -0.00291972 -0.00695712)
(3.29318 3.81958 -1.15489)
(10.0221 0.00771082 -0.000138204)
(10.3517 -0.648746 -3.15981)
(9.9882 -0.00370482 -0.00291595)
(9.99894 -0.0061657 -0.00615031)
(10.0093 -0.0101543 -0.00729856)
(10.0141 -0.00967576 -0.0107642)
(9.98811 -0.0115907 0.00331939)
(12.5701 1.62602 0.61734)
(11.5283 0.360429 0.720616)
(8.8928 1.48338 2.32184)
(6.91193 4.02533 2.30531)
(9.32087 1.22288 0.397863)
(10.4326 0.577548 -0.0882749)
(11.1525 1.31462 -0.00282044)
(6.64896 -0.459284 -2.99861)
(10.7471 -0.149087 0.0162377)
(12.2904 -0.460319 0.0963636)
(10.8096 -0.733934 -0.0357265)
(12.365 0.0737895 -0.0638366)
(8.34034 -0.244836 4.36584)
(6.10983 -1.34869 2.47983)
(10.7586 -0.378976 0.176131)
(9.9993 -0.00925305 0.00488786)
(9.56808 0.970675 -0.36314)
(10.0043 -0.00574868 0.0100112)
(10.2918 -0.0238131 -0.00423614)
(12.6262 -2.41936 3.11211)
(12.569 -0.368464 0.699492)
(-0.847433 3.60138 -0.353499)
(10.1069 -0.972105 0.180377)
(11.9451 -1.00707 -0.627562)
(10.5498 -1.0627 -1.21301)
(9.99335 -0.422662 1.0292)
(10.3314 -0.0496731 0.00352791)
(-3.64552 -2.63422 0.905294)
(10.1352 -0.0140123 0.00816472)
(10.2154 -0.0186063 0.00320025)
(11.1048 -0.215001 1.42257)
(9.75067 -0.134323 4.60975)
(10.367 -0.0552423 0.00883269)
(10.3107 0.570653 -0.447285)
(9.97019 0.00381708 -0.00275158)
(10.4966 -1.45252 0.557135)
(11.3629 -0.0765925 1.52938)
(9.95426 -0.021343 0.00211602)
(11.1748 -0.442709 -3.14867)
(9.54771 2.09161 -1.84479)
(11.7972 0.462989 1.33466)
(11.0766 0.297695 -0.191579)
(9.47992 0.113964 0.255828)
(3.11061 0.948923 -3.8721)
(0.242883 3.45617 2.8206)
(5.22822 3.18783 0.620564)
(13.3421 -0.858107 -3.01482)
(4.10307 -0.910112 -0.463034)
(9.75087 -0.00671666 0.00526559)
(9.88842 -0.0322751 -0.00590461)
(8.24271 1.72716 2.62759)
(9.94312 0.000528313 -0.00148471)
(4.5333 -0.837839 -0.322258)
(9.80868 -0.00886663 -0.000282077)
(9.77689 -0.00940968 0.000180633)
(-0.0826847 -2.01487 1.05612)
(9.48255 -1.33361 0.803075)
(10.8867 -0.657127 0.0893632)
(9.97303 0.00166068 0.00401062)
(10.0011 0.0186473 6.9589e-05)
(8.3458 0.405964 -2.89715)