/*--------------------------------*- C++ -*----------------------------------*\
| =========                 |                                                 |
| \\      /  F ield         | OpenFOAM: The Open Source CFD Toolbox           |
|  \\    /   O peration     | Version:  2506                                  |
|   \\  /    A nd           | Website:  www.openfoam.com                      |
|    \\/     M anipulation  |                                                 |
\*---------------------------------------------------------------------------*/
FoamFile
{
    version     2.0;
    format      ascii;
    arch        "LSB;label=32;scalar=64";
    class       surfaceScalarField;
    location    "0.0625936";
    object      phi;
}
// * * * * * * * * * * * * * * * * * * * * * * * * * * * * * * * * * * * * * //

dimensions      [0 3 -1 0 0 0 0];

oriented        oriented;

internalField   nonuniform List<scalar> 
7321
(
0.00125068
-1.26569e-05
-0.00166017
0.000422144
-0.0584529
-0.0350302
0.0790174
-0.051384
-0.0276334
-0.0136317
-0.00843479
0.0325962
-0.0105297
0.00884726
-0.00687361
-0.00158473
0.00137796
0.000697061
-0.000710226
-0.0013648
-0.00062277
0.00200073
-0.000409393
0.00620938
0.00384518
-0.0364903
0.0113813
0.0125366
0.0176848
-0.0124784
-0.0177431
-0.00125659
-0.00152307
0.00394197
-0.000975681
-0.000371541
0.00237482
-0.0010276
0.00416574
0.00431748
0.00146755
-0.00995077
0.00197228
-0.0135712
-0.00181495
0.0134139
0.00102553
0.0319999
-0.0256487
-0.00737673
0.000184491
0.00230987
-0.000626713
0.00124841
-0.00111736
5.34491e-05
-0.000812141
0.000757962
-4.60895e-06
5.87873e-05
-0.000726162
-8.59785e-05
-0.00235537
-0.00655964
0.0277443
-0.0188293
-0.000991966
0.000626704
0.000289774
7.54888e-05
-0.00781994
-0.00231929
-0.0162704
0.0264096
-0.00630295
0.0232117
0.000311193
-0.000828668
0.000914227
-0.000396751
-0.0448548
0.00768621
0.00010009
-0.00145797
-0.00127281
0.00263069
0.00307793
-0.00182233
0.00214654
-0.00340213
-0.00991747
0.0123274
-0.00950132
0.000575278
-0.000309359
-0.000265918
0.00358157
-0.00252128
0.000688349
-0.00174864
0.000337075
8.77477e-05
-0.000469771
4.49486e-05
-0.018808
-0.031787
0.0625726
-0.0119776
0.0285524
-0.00208837
-0.00661763
0.0221206
-0.00296634
0.0013406
0.00432473
-0.0122646
0.00659922
-0.00248866
-0.00292884
0.00152821
0.00388929
0.00247188
0.00809422
-0.00352437
-0.00704173
-0.0221029
-0.0037272
-0.0119115
0.0377416
-0.00117089
0.000761867
-8.57599e-05
0.000494781
-0.00668207
0.0358746
-0.0129423
-0.00149681
-0.00644887
0.0208879
0.0112936
-0.0129394
0.000767559
0.00139934
0.00709345
0.000347901
0.0224989
-0.00748975
-0.00502031
-0.00998885
-0.0293322
0.0224102
-0.0232008
0.0301228
0.00100684
0.00242054
-0.00301861
-0.00040878
0.0242776
-0.0272507
0.000607064
-0.000951724
0.00210781
-0.000149235
-0.00100686
-0.00157384
0.000379106
0.00059186
0.00060287
0.000118321
-0.0100075
0.0125949
-0.00270576
-0.00184107
0.00222099
-0.000119217
-0.000260708
0.00252803
-0.000473976
-0.000993226
-0.00106083
-0.000468912
0.00221415
0.000960667
-0.00270591
-0.000274607
-0.00376812
0.00423482
-0.000192093
0.0112745
-0.012087
-0.0490119
0.0498244
-0.00613522
0.00646612
-0.00405188
0.00372098
0.0560643
-0.0437643
0.015606
-0.00785762
-0.0084172
0.000668808
-0.0176889
0.0111974
0.0125997
-0.00610816
0.017361
0.0123622
-0.0149926
-0.0147306
-0.00174815
-0.00677439
0.00224641
0.00627613
-0.000559145
0.0312459
0.0140921
-0.014953
0.00387124
-0.00301034
-0.0132263
0.0128669
0.00658807
-0.0062287
0.00897221
0.00249795
-0.00498818
-0.0379847
-0.0214407
0.0644135
0.00733779
0.00770857
-0.013478
-0.00156838
-0.000619408
0.000909655
0.000234727
-0.000524974
0.000108963
0.000314037
0.00633589
-0.00675889
0.000602936
0.000149185
-0.000935485
0.000183364
0.00916121
-0.00599694
-0.00361593
0.000451658
0.00261945
0.00242688
-0.000468012
0.00281992
0.000574683
-0.00200754
0.000559026
-0.000581231
0.00202975
0.000523931
-0.00105971
0.000535783
-0.000172012
0.000695943
-0.000774168
-0.000975931
0.00157809
0.00108661
-0.00154802
-0.00140827
0.00186968
-0.000139362
0.00123105
-5.07901e-06
-0.0663283
0.068316
-0.0302525
0.0282649
-0.000377979
0.000116701
-0.000143855
0.000405132
0.000765022
-0.000101368
-0.000663654
-0.00274853
-0.000311323
0.00151183
0.00250963
0.00344127
-0.00890458
0.00295367
-0.000244417
0.0137942
0.0566049
-0.0701546
0.00216901
-0.00105594
-0.000306038
-0.000807033
0.000744126
-0.000564179
-0.000179946
0.000771884
0.000251817
-0.000279575
-0.00262638
0.000178367
0.000837282
0.00161073
0.0147359
0.00158373
0.00101027
-0.0173299
-0.013041
0.0132015
-0.0102845
0.010124
-0.0262194
0.0249824
0.039975
-0.0387381
0.00171516
-0.000915538
0.00138895
-0.00218857
0.0029104
0.00151364
-0.00398006
-0.000443979
-0.0600796
0.0413411
0.0361119
0.00623272
-0.0423446
0.00071073
-0.000180803
0.000120871
-0.000650798
-0.0976774
0.0137405
-9.56836e-05
-0.000997719
-0.000353249
0.00144665
-0.00209906
0.000194789
-0.00118271
0.00308698
0.0108519
-0.0120747
0.011086
-0.00986324
-0.0131384
0.00443507
0.0154646
-0.00676128
0.0473833
-0.0591216
-0.0097059
0.0113034
0.00586006
0.00645041
-0.0220164
-0.000120773
0.000109521
0.000224853
0.0129534
-0.00129407
-0.00712866
-0.0045307
-0.00850781
-0.00163202
0.00915164
0.000988187
0.0115095
-0.0339042
0.00577378
-0.00633187
0.00368205
0.00387631
-0.00122649
4.94689e-05
-4.41965e-05
-9.03111e-05
8.50387e-05
2.31808e-05
-0.000222552
0.00024884
-1.11171e-05
-3.30794e-05
-2.48914e-05
0.000188617
-0.000174842
0.000221066
-0.000222777
-0.000199103
0.000234412
-0.000271701
0.000236392
-7.17064e-05
-0.000127397
-0.000151795
-0.000279839
-0.000156019
0.000587653
0.00317183
-0.000370689
1.87714e-05
0.00432827
-0.000197654
-0.00176731
-0.00236331
0.00604163
-0.0195835
0.0031016
0.0104402
-0.00299954
0.00225049
-0.00199948
-0.0174526
0.00656763
-0.00167191
0.0125569
0.00106708
-0.000639793
-0.000427283
0.0052763
-0.00836747
0.0121537
-0.00906254
-0.000749706
-0.00073381
0.00148352
0.0102156
-0.0100032
0.00507323
-0.00528559
0.000999301
0.000112304
-0.00301754
0.00190594
-7.13667e-05
-0.00123492
0.00151065
-0.000204359
0.00212932
0.000826435
-0.000813917
0.00954544
0.0115155
-0.0043931
0.00521646
-0.000630785
0.00402381
-0.00860949
0.00903213
-0.0135986
0.00295974
0.00160673
-0.00381274
-0.0104786
0.00515557
0.00913581
0.000674667
-9.28127e-05
-0.000581855
1.03203e-05
0.000794867
-0.00013052
0.000460096
0.000297866
0.000428447
-0.000368056
-6.49999e-05
0.000552635
-9.25394e-05
-0.010118
0.0106626
-0.00179724
0.00125261
-0.000354544
-0.000793424
0.000574441
0.000573527
0.000230327
0.000514932
-0.000192624
-0.0008452
-0.00168551
0.0026509
-0.000120184
-0.00113971
0.000505139
0.000541761
-0.00362739
0.00248556
-0.00428451
0.00198944
-0.00740115
1.18827e-05
0.00539983
-0.000899069
0.00132262
-0.000104041
-0.000319511
8.73746e-05
-0.00100092
-0.000226169
-0.000747176
-0.00317433
0.0021785
0.001743
-0.00447372
-0.0121104
0.0247589
-0.0081747
-0.00875441
0.00737976
0.00967512
-0.00830047
-0.00251349
0.000313748
0.00219974
-0.0201884
0.0137406
0.012816
-0.00636824
0.000567218
-0.000602472
0.0078138
-0.0085914
-0.00733117
0.00810878
0.00150619
-0.00564683
0.00201283
0.00212781
0.00016654
8.92533e-05
-0.000200855
-5.49382e-05
-0.00519495
0.0016803
-0.000477237
0.00399188
0.00154411
0.00672214
-0.00163437
0.00325676
0.00426274
0.00144961
-0.00896911
-0.00454878
-0.0149101
0.0219308
-0.000797692
0.00102499
-0.000227295
-0.000877224
-0.000421157
0.000500689
-0.00233429
0.00034918
-0.00157179
0.0035569
8.25582e-05
0.000260989
0.000607857
-0.000201401
-0.000176129
-0.000132404
1.34975e-05
0.000118907
-0.00030905
0.000970201
-0.000661151
6.47288e-05
3.06719e-05
-9.54008e-05
0.00026026
-0.000289962
9.44305e-05
-0.000800703
-0.00216023
0.00504109
-0.000562389
3.69277e-05
-0.000131956
0.000657417
-0.000464918
-9.74708e-05
0.00027933
-0.000195702
-8.36272e-05
-0.000452697
0.000256115
0.000375629
-0.000179047
-0.00148315
0.00182375
0.00152523
-0.00186583
-0.00391034
-0.00176909
0.00438974
0.00128969
0.000523483
-0.0102242
-0.0140678
0.0237685
-0.000386701
-0.00101449
0.000616302
0.00078489
0.00142898
-0.000706991
0.00135949
-0.00208148
-0.00647577
-0.0636612
0.0190242
0.0511128
-0.00397882
-0.000807884
0.00086368
0.00392302
-0.00216828
0.000954902
-0.00128796
0.00250133
0.000962024
-0.000900229
-0.00404061
0.00897968
-0.00980028
-0.00683939
0.00765999
-0.013215
-0.0149624
-0.000948372
0.0291258
-0.0011653
-0.00330606
0.0023723
-0.00167231
-0.00339467
0.00492857
0.000138404
0.00667028
-0.00618785
-0.00306244
0.00258001
-0.00228607
0.000439468
-0.032354
0.0200727
0.0187923
-0.00651106
-0.00209585
-0.00104122
-0.000432174
0.00356924
0.000420266
-0.000417773
0.00089107
-0.000893563
-0.000236333
0.00119279
-0.000946134
0.00663977
0.00863198
-0.00770532
-0.00756643
-0.00377343
-0.00753511
0.0165848
0.00274957
0.00424223
-0.000352027
0.011523
0.00119216
0.00387401
-0.00335278
0.000685499
0.00465672
0.00200575
0.00173144
0.000863763
-0.00460096
0.00117283
0.000600823
-0.00127169
-0.000501959
0.00540204
-0.00307394
0.00288836
-0.00010464
-0.000348057
-0.000679885
-0.0087553
0.00464172
0.00479347
-6.45915e-05
0.000112229
-4.76371e-05
-0.0076536
0.00469341
-0.00399995
0.00696014
0.00569053
-0.0057118
0.00477456
0.00211318
0.00687274
-0.00898592
-0.00214656
-0.0015505
0.00545087
-0.00175381
0.00394993
-0.00709776
0.00139969
0.00931397
0.00330325
-0.0123154
-0.000301867
0.000249621
0.000183972
-0.000433593
-0.00262174
0.00599393
0.00403235
-0.00740454
0.000507466
-0.000126722
-0.000380744
0.000778039
0.00148067
0.00081922
0.00132347
0.000596443
-0.00308611
0.0011662
0.00267743
0.00542186
-0.00438435
-0.00371495
-0.00574012
-0.000168641
0.00298517
0.00292359
-0.000665841
-0.000424485
-8.95497e-05
0.00117988
0.00225358
0.000420061
0.000844527
-0.000825083
-0.00105442
0.00163498
-0.000786941
0.000206376
5.31835e-05
-0.00068304
0.00157646
-0.000946603
-0.00213746
0.000274698
0.0101982
-0.00833544
-0.0114746
-0.00916144
0.00466632
0.0159697
0.00268922
-0.000376407
0.00253705
0.00257236
-0.000944645
-0.00416477
0.000662396
0.000100935
0.000487348
0.00214454
-0.00113336
0.000785865
-0.00179704
0.000119696
0.0093981
-0.00301376
-0.00650404
0.00252068
-0.00214668
-0.000325091
-4.89076e-05
0.00860783
-0.00141163
-0.00699182
-0.000204377
0.00452655
-0.00223218
0.000226287
-0.00252066
0.00254179
-0.00396706
-0.00240902
0.00383429
-0.0563723
0.0306242
0.0128901
0.0128579
-0.00242443
-0.00135508
0.00230189
0.00147762
-7.96193e-05
7.14674e-05
8.15198e-06
0.013604
-0.00454644
-0.00539542
-0.0036621
0.00155771
-0.00314457
0.00254888
-0.00394801
-0.0107081
0.00637385
0.00828222
-0.000486607
0.000676461
-0.00157532
0.000714933
-0.00199385
0.00285424
-0.00320372
-0.000349843
0.0109559
-0.00740237
0.00462285
0.00280552
-0.00341734
-0.00401103
-0.00163748
0.0094537
-0.00231557
-0.00550065
0.000166006
-0.00733014
0.00477221
0.00239192
0.00283482
0.00969719
0.000121647
-0.0126537
0.000537087
-0.00206799
0.00571081
-0.0041799
-0.000765167
-0.00371722
0.00126505
0.00321735
0.000158645
0.00204371
0.00260343
0.00945735
-0.00650445
0.00603503
-0.00898793
-0.0011117
0.00456776
-0.00116766
-0.0022884
0.00939786
0.0147511
0.00489412
-0.0170578
-0.0055252
0.000176207
0.000566383
-0.000285831
-0.000456759
0.00253035
-0.0020224
-0.00153238
0.00102443
0.00167289
-0.00128084
-0.000392051
0.0114185
0.0125155
-0.0134822
0.000389751
-0.0019245
0.00186978
-0.000335038
0.00544766
-0.00142608
-0.00462012
0.00059854
0.000645432
-0.000360616
-0.000284816
-0.00272765
-0.00560329
0.00383574
0.00449519
0.00230004
-0.000892155
-0.00112348
-0.000284407
-0.00733113
0.0101098
0.0322675
-0.0350462
0.00109496
-0.000243862
1.74391e-05
-0.000868537
-0.00165256
-0.013979
0.0226708
-0.00703923
0.00655045
0.00309958
-0.00836898
-0.00128105
0.00103868
0.00120399
0.000508953
0.000313882
-0.000435436
-0.000387399
0.00101901
-0.0026389
0.00239792
-0.00989735
0.00107402
0.0165379
-0.00771456
-0.00746538
0.00858649
0.000287264
0.0100446
0.00498894
-0.00618626
-6.91081e-05
0.00117127
0.0033528
-0.00445496
-0.00487161
-5.81786e-05
-0.000437396
0.00536719
0.0162458
0.00573159
-0.0128162
0.00259428
-0.00204189
-0.00394657
0.00339419
-0.00021956
0.00592417
-0.00253538
0.000396041
0.000564021
-0.00130519
-0.00212546
-0.000347176
0.00102112
0.00199235
-0.0026663
-0.000737121
0.00255762
-0.00147683
-0.000343664
-0.00353174
-0.000513986
0.00211929
0.00192644
0.00178465
0.00252067
0.00401592
-0.00832124
0.0122214
-0.0190693
-0.0137308
0.0205788
-0.00516284
0.005726
-0.000268819
-0.000294338
0.0238367
0.00373461
-0.0178393
-0.00973196
-0.000574631
0.00110624
0.000168612
-0.000700224
-0.00707596
0.0135641
-0.00258013
-0.00390803
-0.00159662
-0.00362633
0.00576003
-0.000193077
0.000805533
-0.000612457
-0.00312073
-0.00346449
0.00912701
-0.000832518
0.000638354
-0.0023526
0.00254677
-0.00273853
0.0140624
-0.0037721
4.70457e-05
0.00259932
0.00112574
0.00323335
0.00104541
-0.00434787
-0.000732446
0.000925133
-0.00149011
0.00129743
0.000229194
0.00010788
-0.00236681
0.0003177
0.00204911
0.00447614
-0.00908662
0.000797744
0.000376818
-0.000500375
0.000367912
-0.000244355
0.00282914
-0.0039449
-0.00389226
0.00500802
0.00218737
-0.00569742
0.000198355
0.0033117
-0.000630927
-0.000369629
0.000921113
7.94434e-05
-0.000174887
0.000459278
0.00288744
0.00107511
0.00417236
-0.0024971
-0.0101117
0.00843648
0.00165727
-0.000274582
-0.00200856
0.00062588
0.0205235
-0.00315014
0.000816701
-0.00135545
0.001332
-0.000435814
-0.000719978
-0.00126766
0.00181002
-0.00173559
0.00119323
0.000791547
-2.35456e-05
-0.000387902
-0.000380099
0.000155676
-0.000149415
-0.000127035
0.00171769
0.00075804
-0.00392919
0.00145346
-0.00107753
0.00244844
0.000452492
-0.00182341
0.00993603
-0.00692833
-0.00217338
-0.000834326
-0.00130463
0.00270545
-2.7158e-05
0.000119219
-0.000279744
0.000719509
-0.000867182
-1.81076e-05
0.00088529
0.0146008
0.00584775
-0.0132002
-0.00724834
0.000460807
0.00115358
0.000114785
-0.000555724
-0.000712641
-0.00605268
0.00491201
0.00525225
-0.00411158
0.00298792
-0.0137622
0.0270648
-0.0162905
0.00311877
-0.00103325
0.00224275
0.0245031
-0.0276098
0.00824246
-0.00513577
-0.00243246
0.00208833
-0.00132818
-0.000144097
0.000519159
-0.000118947
0.0118221
-0.0546128
0.0142869
0.000355981
-0.00290777
-0.00053999
0.00309177
-0.0017532
0.0155699
-0.0049319
-0.00888483
0.0261327
-0.00627498
-0.00866034
-0.00126825
0.00157456
-0.000937093
-0.000252403
-0.000448048
0.000737379
-0.000572235
-0.00210667
-0.00248393
0.00323388
0.00282391
-0.00807766
-0.00370229
-0.00338509
0.015165
-0.00191916
0.056702
-0.0492303
-0.0333288
0.0258572
0.0148797
-0.0109213
-0.0217978
0.0178394
0.000123936
-0.000760544
0.000636608
0.00333701
-0.00138255
0.00402413
-0.00597858
-0.00515318
0.00650859
-0.000812484
-0.000963878
0.000915154
0.000861208
0.00657089
-0.000188582
0.000684481
0.00110409
-0.00159999
0.00173391
0.00074587
-0.00210793
-0.00037185
0.000461898
-0.00047278
-0.000241521
0.000826687
-0.00152688
0.00323725
0.00354511
-0.00899714
0.00526344
0.000955789
-0.000555849
-0.000399939
-0.00574132
0.00735406
0.000213579
-0.00182632
0.0299143
-0.0228853
-0.0122568
0.00522784
0.0177325
-0.0613484
-0.0493242
-0.013857
0.0215046
-0.00991279
0.00226517
-0.00189148
0.00340043
-0.00120339
-0.000305557
-0.00325196
0.000955011
0.002344
0.000870117
-0.000139204
0.000202553
-0.000933466
0.0751664
-0.041876
-0.0134075
-0.0198829
-0.00411862
0.00259515
-0.00620581
0.00772928
3.23041e-05
0.00183848
0.000657249
-0.000683158
-0.000283204
0.0034316
-0.00246524
0.00372991
-0.00187076
0.00827635
-0.00760693
0.0071094
0.00589956
-0.000736481
0.00152803
0.00152897
-0.00978748
-0.00203085
-0.00026678
0.000168716
0.00212892
0.0109055
-0.00468319
-0.00770548
-0.008398
-0.00153145
0.00992945
-0.0193738
0.0113277
0.00242336
0.00562281
0.00295798
0.00359288
-0.0127692
0.00621831
0.00360709
0.00909596
-0.00286474
-0.00983831
-0.00496655
-0.00767315
0.0108865
0.00373968
-0.00948745
0.014245
-0.00849719
0.00139484
-0.00103387
-0.000401522
-0.000660453
0.000708696
8.18279e-05
-0.000187588
0.0043462
-0.0133117
0.00896561
-6.9511e-08
-0.0471808
-0.0620962
0.0279016
0.0184847
-0.00544229
0.00635497
0.00204529
-0.00346632
-0.0081151
0.0136899
-0.00210844
-0.00454695
0.000908815
-0.00123348
0.000515551
-0.00409867
-0.00129
-0.00264952
0.00268643
0.00125309
0.000974006
-0.000244069
-0.00130596
0.000576026
0.00202051
-0.00107974
-0.000940767
-0.00175122
-0.00445543
0.00435087
0.00185578
-0.00249107
-0.00441218
0.000391591
0.00651166
-0.000683206
0.000276571
0.000349916
5.67184e-05
0.00139502
0.00567654
-0.00442697
-0.00264458
0.00126935
0.00112952
-0.00512651
0.00563149
-0.00269266
-0.001417
-0.00152183
0.0209285
-0.0296849
0.0202234
-0.011467
0.00320012
-0.00133034
0.00181757
0.0073471
-0.0157182
0.0322078
0.00354704
0.00390202
0.00563666
-0.00208961
9.70064e-05
0.000241229
0.0114908
0.00252335
-0.010022
-0.0039922
0.0105091
0.000920498
-0.00731571
-0.00286817
0.0161241
-0.00594026
-0.0112231
-0.00898423
0.00194643
0.0182609
0.0292108
-0.00423077
-0.00761899
-0.00223504
-0.00139068
0.00294139
0.000684332
0.00014662
7.768e-06
0.000814198
0.000757671
0.000255243
-0.00182711
-0.000759471
0.00175143
-0.00118498
0.000193018
-0.00112961
0.00331743
-0.0043561
0.00051604
-0.000295041
-0.00768637
-0.0036746
0.0248971
-0.0212225
0.0108011
-0.000618631
-0.00361486
-0.00327108
-0.00280223
-0.00306802
0.00914133
-0.00673818
-0.00924033
-0.000238362
0.0162169
-0.0056119
0.00434722
-0.000347051
0.00161174
-0.0247972
-0.00114733
-0.0197183
0.0456628
0.00196288
-0.00206653
0.0122572
-0.0121535
-0.0166047
-0.00548967
0.0254381
-0.00334375
-0.0236601
0.0220965
-0.00298512
-0.00486446
-0.000437313
0.00445658
0.00600596
-0.00690554
-0.0105249
0.0114245
0.0108564
-0.00877518
-0.00412033
0.0117398
-0.00650278
0.00987305
-0.0101528
-0.00425568
0.00453547
-0.00404296
0.011105
-0.00315105
0.00315039
-0.0168431
-0.00293615
-0.00157259
0.00253861
-0.00013958
-0.0180512
0.0329283
-0.0143536
-0.0114146
-0.0148432
0.0215441
0.00471369
0.000761919
-0.000276013
-0.000485906
-0.000484867
-0.000543506
0.00102837
0.00357671
-0.00385368
-0.00109103
0.001368
-0.00077934
0.000697529
0.000636188
-0.000554377
-0.000849456
-0.000343351
0.00188987
0.0141649
-0.0120539
-0.00197716
-0.000133867
-0.0182955
0.0019899
-0.00433513
0.0206408
-0.0160476
-0.00373922
0.00887059
0.0109162
0.00112192
-0.000670804
0.00830674
-0.00875786
0.000409383
-0.0146415
0.000660849
0.00185058
-0.00548139
-0.00250441
0.00565433
-0.0153355
0.00555977
-0.000419935
-0.00633144
0.00119161
0.0603985
-0.00984068
-0.0570837
0.0065259
-0.0114811
0.00544196
0.00373792
0.00230117
0.00163585
0.0164571
-0.0246934
0.00660046
-0.00797122
-0.00350167
0.00650633
0.00064818
0.011195
0.00186083
-0.013704
0.000789867
-0.00602866
-0.0053261
0.0143062
-0.0029514
-0.00327376
0.000792069
0.000590016
0.00189168
0.00214329
0.00902885
-0.0121381
0.000965993
0.00466354
-0.00459899
0.00253477
0.00109727
-0.00785331
-0.0015701
0.00832615
0.000596818
0.00243698
-0.00171033
0.0141903
0.000722166
-0.0119351
-0.0016099
-0.000377247
0.000469769
0.00151738
-0.00329158
-0.00422531
0.00190499
-0.0568678
0.0140151
0.0384285
0.00442413
0.00108962
-0.000695021
-0.000394594
0.000883979
-4.52635e-05
0.041892
0.0133919
-0.0617597
2.22078e-07
-0.00258634
-0.00132421
-0.0012988
0.000820419
0.0509527
-0.0669254
0.0159727
4.55768e-05
-0.000274319
0.000228743
-0.0467164
-0.0538816
0.0500981
0.0504998
-0.0304262
0.0389372
0.0284546
-0.0369656
4.57214e-05
-0.00807518
0.0143016
0.000319823
-0.00107375
0.00231997
-0.00156605
-0.00178149
0.00402249
-0.00214091
-0.0327831
0.0202713
-0.0249006
0.0374125
0.00596015
0.00299465
-0.00526584
-0.000294775
0.000253472
4.13034e-05
0.00172051
-0.000173762
-0.000156395
-0.00139036
0.0014584
0.000202126
-0.00239297
0.00802399
0.00359885
0.00276942
0.00168714
-0.000950619
-0.000525399
-0.000211117
-0.00271337
0.000425438
0.00228793
-0.00117893
0.000796434
-0.000106547
0.000489039
-0.0177916
0.00476415
0.0179257
-0.00489823
0.000204101
0.00091909
-0.0033302
-0.0281935
0.0449014
-0.0133777
0.00274584
-0.0107171
-0.00129435
-0.000125929
0.00184791
-0.000427628
-0.00369428
0.00322831
0.000652504
-0.000186537
0.000103577
0.000121032
-0.000224609
0.00123659
-0.00203534
0.000155363
0.000643391
-0.00215028
0.00211485
0.00744062
-0.00740519
0.000607181
-6.50987e-05
-0.000542083
-0.00210205
0.00144856
0.000653484
0.00673785
-0.0045439
0.00412868
0.0006591
-0.000464312
0.00113224
0.00281742
-0.000488592
-0.00346107
-0.0837631
-0.00223625
0.0859994
0.00106566
0.000462215
-0.00136134
-0.0111417
-0.0469511
0.0099068
0.048186
-0.0582907
-0.00557563
-0.0198968
0.0135901
0.00528213
0.0218557
-0.0407279
-0.041393
-0.0438344
0.0082542
-0.00257688
-0.00419403
-0.0014833
0.0549093
-0.00596881
-0.00394027
-0.031774
0.018429
0.0172853
-0.0107819
-0.0282308
0.0319014
0.00539279
0.00625676
-0.00339535
-0.0652522
0.0412062
-0.0173469
0.0207266
-0.00573248
-0.000884985
2.24948e-05
0.00659497
-0.00109586
0.00128211
-0.00473321
-0.0621348
0.0662257
-0.00409097
-0.0204804
0.0137702
0.00329063
0.00341957
0.102778
0.0234045
-0.0588055
-0.0673774
-0.0460572
-0.00130639
-0.0017285
0.0157792
-0.00120568
-0.00253094
0.000684616
0.003052
0.0144705
-0.000184679
0.0411382
-0.0166363
-0.0232899
-0.001212
-0.00200371
0.0032677
0.00371798
-0.00498197
-0.00561222
0.00593044
-0.0980732
-0.0562622
0.0922007
0.00368471
0.00148583
-0.00247609
-0.00269445
0.00673076
0.00363153
0.00827772
0.0106891
-0.00721423
-0.0166012
0.0131263
0.00232352
-0.00358249
0.00107718
0.000181794
0.00784553
-0.0111093
0.00282974
0.000433993
-0.00533966
0.00819175
-0.0206437
0.0130559
-0.021887
0.00349135
0.0214847
0.0233613
-0.03179
-6.34463e-05
9.48066e-05
-0.00265774
0.00198535
-7.06894e-05
-0.00272715
-0.00185235
-0.00163052
0.00317356
0.000309323
-0.0234637
0.0119763
0.0219562
-0.0104687
-0.00804297
-0.0145414
0.000395342
0.022189
0.00255199
0.00098577
-0.0010741
-0.00246366
-0.00180378
-0.00359121
0.00354263
-0.00432885
0.0166239
-0.01704
0.004745
0.00300893
-0.00445197
0.0249877
-0.0131264
0.0156896
-0.027551
-0.0254204
-0.0283061
0.0251102
0.0286163
0.00246885
0.0042118
-0.00342389
0.0258713
-0.0223655
-0.00497012
0.014667
-0.00455497
-0.000651587
0.00118623
-0.0122842
-0.00175716
0.00638772
0.00741535
0.00397909
-0.00339574
-0.0104082
0.0113352
0.00900908
0.00193949
0.0118528
-0.00540883
-0.00838351
0.0160735
-0.00284351
-0.0183345
0.00510447
0.00114506
-0.00169529
0.000273473
0.00027676
0.000569595
0.00725546
-0.000409706
-0.000718973
-3.16496e-05
0.000585621
0.000209245
-7.17857e-05
0.000183189
-0.000711504
0.000600101
-8.43494e-05
0.000690977
-0.00109149
-0.00336254
0.00327396
-0.000805726
0.000894307
-0.00630142
0.00174021
0.000134069
-0.000711413
-3.72421e-05
0.00755381
0.00142446
-0.00197217
-0.0070061
0.000123127
-9.76865e-06
0.000602539
-0.000715897
-9.95726e-06
-0.000337201
0.000275452
0.000918136
0.000834875
0.000254641
-0.00363665
-0.00217807
-0.00200706
0.00782178
0.000624378
0.00481754
-0.00343187
-0.00201005
0.000244505
0.0166314
-0.00957713
-0.00729882
-0.0123456
-0.00381769
0.00615581
0.000142713
0.00145642
-0.00159913
-0.000621742
0.0142709
-0.0112262
-0.002423
-0.00201888
7.09948e-05
0.00264733
-0.000699449
0.000843755
0.00131444
-0.00101314
0.000857652
-0.000595737
-0.0201679
-0.00159223
0.0202754
0.00148471
0.00567106
-0.00297853
-0.000729131
-0.0019634
-0.000889634
-0.00267126
0.000308934
0.000358497
0.00189685
0.000274998
0.00659953
0.00679406
0.000771333
0.00100998
0.00257744
0.00126021
-0.00484763
-0.00793179
-0.0185633
0.0128633
0.00129547
-0.00506626
0.00218166
0.00158913
0.00845504
0.00213851
-0.00144041
-0.00367228
0.00297418
-0.000290576
0.000267759
0.000257229
-0.00620206
0.00440693
0.00689923
0.000781534
-0.0100858
0.000846286
-0.00290883
0.000715901
-0.00306526
0.00134063
0.00100873
0.00195204
-0.00172525
-0.000801425
-0.000150559
-0.0014829
0.00163346
0.0111279
-0.0102272
0.00584837
-0.00674912
0.00044853
-0.000450309
1.7791e-06
-0.00348331
-0.00206383
-0.000505539
-0.00743127
0.0154916
-0.0010973
-0.00196287
0.00108482
-0.000474257
-0.00166498
-0.000477982
0.000329802
-0.000907758
-0.00485785
0.00186599
-0.00126793
0.00425979
0.000964039
0.00100069
-0.00271191
0.00325019
0.000257991
-0.00434362
0.00083544
0.0317562
0.00237056
-0.0283574
-0.00576933
-0.00210363
0.00332654
0.000645085
-0.00179581
0.00130209
0.00148578
-0.00099206
-0.00089014
0.00138459
0.000832987
-0.000553486
-6.30588e-05
0.00201156
0.000278794
-0.000361435
0.0011483
0.000243022
0.000713297
-0.000214827
-0.000741493
-0.00454105
-0.00655237
0.0130329
0.000125492
0.000152073
-0.000908491
-0.0079781
-3.18784e-05
-0.00427418
-0.00330453
-0.010552
0.0179633
-0.00251712
-0.00178035
0.000721765
-0.000806283
0.00186487
3.69901e-05
0.000672627
-0.00180567
0.00109605
-0.0127255
-0.0281853
-0.00046967
8.29699e-05
-0.00102323
0.00286082
-0.00211734
0.000531523
-0.000200806
0.000883096
-0.0007276
-0.000558836
0.00040334
3.17804e-05
0.000424357
7.53851e-05
-2.80788e-05
-0.0013738
-0.000835072
0.00223695
-0.00175436
0.000683165
0.00104311
-0.00342522
0.00968166
-0.00257174
-0.00121531
0.000407178
-0.000888712
0.00169684
-5.04978e-05
-5.47559e-05
0.000105254
0.000523857
0.000576898
0.000845556
-0.00194631
0.00033218
0.000635205
-0.000451234
0.000260394
0.000757234
-3.90583e-05
-0.00166657
0.000948395
-0.00650778
0.0154883
0.00978406
-0.0187646
0.0288576
0.0357747
-0.027527
-0.0371053
-0.000102347
0.000125329
0.000211575
-0.000234558
-0.000153183
-0.000364498
0.000415334
0.000170906
0.00059036
0.00809456
-0.00272476
-0.0111275
0.0177178
0.00641904
-0.00408087
-0.00905014
-0.00790614
-0.00246695
-0.000490197
0.00190673
0.00105042
0.0111941
-0.00421004
0.0117121
-0.00318525
0.00630165
-0.0071396
0.00205661
-0.0132126
-0.000626786
-0.00156878
0.00476793
0.00122734
0.000266336
-0.000161939
-0.00133174
-0.00187717
0.0160208
-0.0175216
-0.00406199
0.0103605
-0.00874492
-0.093304
-0.000181057
-0.0148423
-0.00686363
0.0625457
-0.0129071
-0.0611988
0.0150369
0.0083569
-0.059276
-0.00251539
0.00230828
-0.0082798
0.00940694
0.030183
-0.0255221
-0.00701631
-0.00987343
0.0089598
0.00856797
-0.00765434
-0.000215413
-0.0085361
0.00609405
0.000294798
-0.000889544
-0.00451665
-0.000210513
0.0191857
0.00530906
-0.0157975
-0.00869729
0.00716903
-0.00150513
-4.83408e-06
-0.00565907
-0.00820865
0.0344575
0.00370613
-0.00196294
-0.00153853
-0.000204667
0.00283538
0.000417545
0.0096218
-0.0128747
-0.00870696
0.000975314
0.00984483
0.011425
0.00168796
-0.00172275
-0.0024379
0.00123591
0.0102341
0.00898706
-0.00293844
-7.22095e-05
0.000710129
0.000589419
-0.000607522
0.000165538
-0.000241222
-0.000184988
-0.000495347
0.000406015
-0.00530792
-0.00117346
-0.00501065
0.011492
-0.000127334
0.000619586
0.000390845
0.0276853
-0.0621737
-0.0291728
-0.000386129
0.000897007
-0.000739064
8.14243e-05
-0.000239367
0.00204179
-0.00382354
0.000715412
-0.000710674
0.00228304
-0.00228778
0.000373487
0.000565848
-0.00101154
0.000195302
0.00214459
-3.98482e-05
0.0236709
-0.00726686
0.00710292
-0.0143369
0.0396575
-0.0137166
-0.0337608
0.0243422
-0.0241356
-0.00303111
0.00282459
0.0114411
0.0026915
0.000923427
-0.00533727
0.0117563
0.00795491
-0.0143739
-0.00442479
0.00246303
0.0246921
-0.00538564
-0.00989327
-0.00941316
0.000224057
-0.00625811
0.00191543
-0.00339333
0.00925927
-0.00327079
0.00411691
-0.00196286
0.00275796
-0.00484946
0.00611967
0.000378696
0.00152948
-0.00401181
0.000358715
-0.0014841
0.00112539
-0.0162782
-0.00224813
0.00711179
0.00216629
-0.00091841
-0.00211506
-0.000555136
0.00091385
-0.000253323
0.000753811
-0.00105817
0.000537176
0.000267671
0.000780708
-0.000754251
0.000801643
-0.000828101
-0.000434981
-0.00106866
0.000811166
0.000692471
0.000645916
-0.000252095
-0.000828802
-0.000893859
0.00159607
7.84931e-05
0.0198666
-0.00649549
-0.0255024
0.00683175
0.00303086
-0.0053997
-0.00446291
0.0087196
-0.000399763
-0.00148809
-0.00295933
0.00670751
0.000874669
-0.00670744
-0.00462685
0.00360028
0.00773401
-0.00203943
0.000211023
0.00175704
0.00221421
-0.00109797
-0.000289552
0.000169859
-5.76921e-05
-0.000335348
-0.000669695
1.30766e-05
-0.000493755
-5.44945e-05
-0.00232361
0.00287186
-0.000135588
-0.00321221
0.00285405
0.00047409
0.00172592
-0.000542743
-6.71542e-05
-0.00129982
-0.000164196
0.00183562
-0.00493048
0.0202175
0.000999864
-0.005613
0.0309761
-0.0142771
-0.0121343
0.00574989
0.00582224
0.000562134
0.00278182
-0.00212906
-0.0104776
-0.00166234
0.0131398
0.00639085
-0.000544193
0.00961793
-0.0161331
0.0197441
0.0237152
-0.0273263
0.0106195
-0.0126016
-0.00663745
0.00861955
0.0107136
0.00486469
0.00306771
-0.018646
0.0198574
0.00362315
-0.0189294
-0.0045511
-0.0213977
0.0117666
0.0203447
-0.00890779
-0.0156713
0.00282406
0.0217551
-0.00453662
0.00535199
-0.00303689
0.00222153
-0.0015287
0.00426919
-0.00148417
-0.00125632
-0.00214297
-0.00227396
0.00517034
-0.00533615
0.00523686
-0.003435
0.00355013
0.000803332
0.0569598
-0.0577632
-0.00646832
0.0104555
-0.00305864
-0.000928588
-0.0164225
0.00175997
0.00444608
0.0102165
0.00922505
-0.0107143
0.000925853
-0.000923424
0.00200332
0.0597974
0.00684115
-0.0592831
-0.00735545
-0.0011533
-0.00745049
-0.000393347
-0.000125028
-0.00348637
0.00224567
0.00136573
0.00487513
-0.0105742
0.00321045
0.0301932
0.0274166
-0.0800494
0.0224396
0.00249014
-0.00114148
-0.000307146
-0.00104151
-0.00962419
0.0072715
0.00531243
0.00173857
0.000421628
-0.00328981
0.035714
-0.0252534
0.00144752
0.00154067
-0.00327576
0.000287563
0.00170714
0.00122696
-0.00231109
-0.000623006
0.00326019
-0.000770048
-0.00754927
0.00262014
-0.000307466
0.000702648
-0.000395182
0.00186383
-0.000504434
0.000861598
0.000917103
0.00296956
0.00328237
-0.00702164
-0.0173176
-0.0055342
0.00421876
0.018633
0.000812439
-0.000456053
0.0004899
-0.00120726
-0.000323876
-0.000223215
-0.00455012
-0.00167466
0.000100424
0.00118103
0.000393203
-0.0103866
-0.00265158
0.0155616
-0.0195934
0.00455092
0.011387
0.00365546
-0.00556665
-0.0187616
-0.0030141
0.0119133
0.00568755
-0.00779716
-0.00980365
-0.0003632
-0.0105957
0.014566
0.0152277
0.00741175
-0.000687547
0.00237176
-0.00787114
0.0116692
0.0280604
-0.00859007
-0.00337105
-0.0015593