/*--------------------------------*- C++ -*----------------------------------*\
| =========                 |                                                 |
| \\      /  F ield         | OpenFOAM: The Open Source CFD Toolbox           |
|  \\    /   O peration     | Version:  2506                                  |
|   \\  /    A nd           | Website:  www.openfoam.com                      |
|    \\/     M anipulation  |                                                 |
\*---------------------------------------------------------------------------*/
FoamFile
{
    version     2.0;
    format      ascii;
    arch        "LSB;label=32;scalar=64";
    class       volScalarField;
    location    "0.0263738";
    object      nut;
}
// * * * * * * * * * * * * * * * * * * * * * * * * * * * * * * * * * * * * * //

dimensions      [0 2 -1 0 0 0 0];

internalField   nonuniform List<scalar> 
3975
(
0.00615474
0.00661357
0.00462875
0.007019
0.00707281
0.0034414
0.00663944
0.00649804
0.00714335
0.00720393
0.00728183
0.00301525
0.00714602
0.00238349
0.00716346
0.00561426
0.00576679
0.00588437
0.00529905
0.0037651
0.00239599
0.00282893
0.00555857
0.00621521
0.0058084
0.00695868
0.00182447
0.00475058
0.00648562
0.00452157
0.0071622
0.00358282
0.00341749
0.00408426
0.00334468
0.00332021
0.00489764
0.00674679
0.00449327
0.00479409
0.00471714
0.00504924
0.00494342
0.00738839
0.00637517
0.00739074
0.00731769
0.00732628
0.00255567
0.00272471
0.0045249
0.00739453
0.00309779
0.00184718
0.00174088
0.00181639
0.00302222
0.00178909
0.00247205
0.00264068
0.00262943
0.00142678
0.00210207
0.00245963
0.00684837
0.00339915
0.004147
0.00717867
0.00280682
0.0005702
0.000760038
0.000245704
0.00059031
0.00490456
0.00634448
0.00498714
0.00638931
0.00434546
0.00467297
0.00491996
0.00723548
0.00705964
0.00599575
0.0039137
0.00742715
0.00240439
0.00401188
0.00615344
0.00611446
0.00349477
0.00700805
0.00705776
0.00279154
0.00521459
0.000795547
0.00638271
0.0052847
0.000735227
0.00484377
0.00146249
0.00731573
0.00117783
0.00266071
0.00198256
0.00712255
0.00246663
0.00536389
0.00431621
0.00569606
0.00299018
0.00386912
0.00524258
0.00492516
0.00501967
0.00449258
0.00351228
0.00356181
0.00360972
0.00201962
0.00128449
0.00694916
0.00250206
0.00423193
0.00434443
0.00196305
0.00230035
0.0035443
0.00291389
0.00285045
0.00284512
0.00293097
0.00293325
0.00488994
0.00469682
0.00490116
0.00450795
0.00280545
0.00534639
0.00281493
0.00699514
0.0057268
0.00716578
0.00681338
0.0070538
0.00203753
0.0070053
0.00697207
0.00289754
0.00565929
0.00294099
0.00223425
0.00346282
0.00374723
0.00378105
0.000890219
0.00145805
0.00484178
0.00548787
0.00739857
0.00457215
0.00719351
0.00732485
0.00353735
0.00276671
0.00701398
0.00307993
0.00401761
0.00038239
0.00289453
0.00711342
0.00655524
0.00740924
0.00404504
0.00354923
0.000531288
0.0072816
0.00409125
0.00186113
0.00179979
0.00542621
0.00648876
0.00404094
0.00215422
0.00214927
0.00291415
0.0069251
0.0031318
0.00316659
0.00378691
0.00209227
0.00294139
0.00584644
0.00274646
0.00399801
0.0034148
0.00294342
0.00181626
0.00735002
0.00706977
0.00707282
0.00300243
0.00730758
0.00681322
0.00734517
0.00719725
0.00716321
0.00387094
0.000906887
0.00670053
0.00027042
0.00692687
0.00197665
0.00407801
0.00444612
0.00253564
0.00716752
0.00641815
0.00446333
0.00699447
0.00280646
0.00566375
0.00242509
0.00719607
0.00243661
0.00495879
0.00397507
0.000261422
0.00707975
0.00219331
0.00737351
0.00286267
0.00672594
0.00673231
0.0042568
0.00713173
0.00731237
0.00206476
0.00447673
0.00186507
0.00134632
0.00726228
0.000829395
0.00726525
0.00223524
0.00485296
0.000535324
0.00252003
0.00157982
0.00107845
0.00748353
0.00732653
0.00725544
0.00168781
0.000940694
0.00517146
0.00448067
0.00268858
0.00081597
0.00135117
0.000501125
0.00160298
0.00182945
0.00684242
0.00612666
0.00247579
0.00186256
0.000688904
0.0072008
0.00512151
0.00492771
0.00445432
0.00219135
0.00222806
0.00257361
0.00298038
0.00297765
0.00242459
0.00605904
0.00104729
0.00159119
0.00144846
0.00534368
0.00517139
0.00721289
0.00451029
0.00232504
0.00188764
0.00218504
0.000729735
0.002786
0.00363802
0.00204841
0.00496964
0.00104533
0.00649626
0.00509223
0.00527404
0.0048701
0.00354407
0.00355313
0.00306655
0.00414642
0.0044317
0.00337644
0.0042729
0.0049056
0.00244165
0.00230371
0.0029673
0.0035609
0.00706239
0.00706013
0.0055694
0.00684408
0.00602222
0.00319426
0.00451551
0.0056928
0.00715931
0.00719681
0.00720832
0.00293481
0.0045975
0.00516393
0.00141749
0.00655316
0.00585084
0.00476069
0.00183426
0.0028105
0.00555797
0.00669486
0.00525702
0.006288
0.00256468
0.00331613
0.00402313
0.00257259
0.00131528
0.00207735
0.00298984
0.0014401
0.0045276
0.0027143
0.00198926
0.00560043
0.00716985
0.00724113
0.00732185
0.00721639
0.00203535
0.00343886
0.00291097
0.00369982
0.0044252
0.00651507
0.00658823
0.00145861
0.00706673
0.00693477
0.00567401
0.000482943
0.00286061
0.00693204
0.00692855
0.00695143
0.00512284
0.00694771
0.00565945
0.00706855
0.0069283
0.00151713
0.00535905
0.00618757
0.00304928
0.00222059
0.00703829
0.000472131
0.00264391
0.00111785
0.00152771
0.003691
0.00708179
0.0021852
0.00345294
0.00337789
0.00372574
0.00175286
0.00349987
0.0033818
0.00421844
0.00692119
0.00333807
0.004838
0.00697708
0.00675802
0.00505056
0.00192759
0.00533627
0.00558243
0.0057073
0.0050068
0.00322103
0.00422293
0.00473675
0.0045305
0.00334423
0.00587052
0.00597248
0.00403381
0.00522556
0.00516532
0.00211635
0.00141148
0.00683499
0.000551746
0.00653607
0.00707683
0.00366362
0.00640335
0.00497373
0.00606527
0.00710458
0.00180412
0.00223008
0.0022281
0.00613071
0.001957
0.00731664
0.00233226
0.00229209
0.0065497
0.00645673
0.00169017
0.00337785
0.00424384
0.0068389
0.00343571
0.00244999
0.00646233
0.00364173
0.00575617
0.00240016
0.00109083
0.00103791
0.00654275
0.00708556
0.00178208
0.000471193
0.00701928
0.00696741
0.006807
0.00680323
0.00664347
0.00212968
0.00723776
0.00405062
0.00733429
0.00554229
0.0068157
0.00699322
0.00210921
0.00728479
0.00730464
0.00320826
0.00712195
0.00636401
0.00742704
0.00690223
0.00730191
0.00355463
0.00727657
0.00620809
0.00469603
0.00423953
0.000390766
0.00731798
0.0060864
0.00588516
0.00726508
0.00260732
0.00727982
0.00685087
0.0069618
0.00240524
0.00350081
0.0019938
0.00116609
0.000689076
0.00182723
0.00296477
0.00676024
0.00653451
0.00151852
0.00655404
0.00691094
0.0071736
0.00695242
0.00334774
0.00200422
0.000855183
0.00712267
0.00734067
0.00668041
0.00710623
0.00731769
0.00517081
0.000725152
0.00663819
0.00374618
0.00115521
0.00728055
0.00313543
0.000546817
0.00450027
0.00527998
0.00736441
0.0029503
0.00704851
0.00241567
0.00391744
0.0028289
0.00300333
0.000743297
0.000217284
0.00349489
0.000962276
0.000826556
0.00428164
0.00504852
0.00561303
0.00302513
0.00715262
0.00744483
0.00210397
0.00313329
0.00297783
0.00183603
0.000179053
0.00261571
0.00739644
0.00659963
0.00713488
0.00146811
0.00172707
0.000889629
0.00261914
0.000600481
0.0017907
0.0033853
0.00321906
0.0072349
0.00227916
0.0047055
0.00201057
0.00365938
0.00557308
0.00563593
0.00677707
0.00623448
0.0059916
0.00234293
0.00101293
0.000829024
0.00154279
0.00106745
0.000251935
0.00158995
0.00035251
0.00103292
0.00716229
0.00652511
0.0073073
0.00725065
0.00684762
0.00704728
0.00726835
0.00515358
0.00730986
0.00491903
0.00718789
0.00370515
0.00242127
0.00338323
0.00712863
0.00741578
0.00747836
0.00726906
0.00326
0.00241915
0.00534179
0.00741421
0.00509996
0.00287116
0.00577418
0.00685092
0.00723465
0.0062938
0.00713209
0.00744277
0.00709539
0.00678503
0.000418593
0.00074592
0.00464954
0.002454
0.00437882
0.0056013
0.00467497
0.00463051
0.00229992
0.0019963
0.00727793
0.0069591
0.00361675
0.00698844
0.00466136
0.00708548
0.00703146
0.00173967
0.00726746
0.00727892
0.00729496
0.00733437
0.00619934
0.00689191
0.00214234
0.00737533
0.00583867
0.0074085
0.00460523
0.00676518
0.00391703
0.00577156
0.00714688
0.00706275
0.00731693
0.00696136
0.00512872
0.00595302
0.0073661
0.00285065
0.00322598
0.00734745
0.00616941
0.00374344
0.00245114
0.00598523
0.00119086
0.00214148
0.00638031
0.00645454
0.0016892
0.000909604
0.00399669
0.00075045
0.00176417
0.000744022
0.000855694
0.00106049
0.000954451
0.000275278
0.00424284
0.000406718
0.000702287
0.000655411
0.000389
0.000321252
0.00328906
0.00306795
0.00258044
0.00248714
0.00203781
0.00233498
0.00630398
0.0013709
0.00704397
0.00741529
0.00749208
0.00524346
0.00498326
0.00707771
0.00742855
0.0041886
0.00337849
0.0069625
0.00653185
0.00728667
0.00707128
0.00279613
0.00637589
0.00132632
0.00328849
0.00470445
0.00270936
0.00572787
0.00176152
0.0059346
0.00679676
0.0069095
0.000607096
0.00737404
0.00592593
0.000296232
0.00705034
0.00345065
0.0043779
0.00697865
0.00713348
0.00148098
0.00577003
0.00700986
0.00706607
0.00422525
0.00391221
0.00695657
0.00470211
0.00300567
0.00163722
0.00404596
0.00707179
0.00246297
0.00480923
0.00726569
0.00423749
0.00720547
0.00261025
0.00722711
0.00707329
0.00680276
0.00527447
0.00310178
0.0062595
0.00414826
0.00318491
0.00238254
0.00226913
0.00611222
0.000502594
0.00654571
0.000833806
0.00447724
0.00250641
0.00310205
0.00097195
0.00217727
0.00661317
0.00722217
0.00177784
0.00674657
0.00234655
0.00428742
0.00588778
0.00702411
0.00182437
0.00536341
0.00718463
0.00400385
0.00730572
0.00729262
0.00732277
0.00733463
0.00335108
0.00669723
0.00714868
0.00468324
0.00728367
0.00725126
0.00270373
0.00736118
0.00135538
0.00721593
0.00726455
0.00726685
0.00467093
0.00729123
0.00683942
0.00633842
0.00687198
0.00568004
0.00284736
0.00022666
0.00356319
0.00675215
0.00711249
0.00592383
0.00314519
0.00740187
0.00556906
0.00690187
0.00375605
0.00318785
0.000881066
0.0061815
0.00248477
0.00333806
0.0023471
0.00176282
0.00707026
0.00449256
0.00518666
0.00276731
0.0061577
0.00331768
0.000306329
0.00721656
0.00480521
0.00674305
0.00060057
0.00394292
0.00168637
0.00377048
0.00739224
0.00293234
0.00231634
0.00271607
0.000391088
0.00238837
0.00201997
0.00108954
0.00188084
0.00362312
0.00137845
0.00464702
0.00127594
0.00150557
0.00161998
0.00294091
0.00102676
0.00156655
0.00131231
0.00105192
0.000470402
0.000833918
0.000824577
0.00158783
0.00113149
0.00162707
0.000270979
0.00114896
0.00138283
0.00100807
0.000658134
0.000893574
0.00208183
0.00564854
0.00394268
0.00187681
0.00202561
0.00357862
0.00439184
0.0022773
0.00256306
0.00189415
0.00183875
0.00247679
0.00543548
0.00119561
0.00165755
0.00256884
0.00219311
0.00422312
0.00145309
0.00172468
0.00351989
0.00270946
0.00445791
0.00375758
0.00577979
0.00734791
0.00560519
0.00567834
0.00340163
0.00703748
0.00433263
0.00523142
0.00666321
0.00718951
0.00315336
0.00224927
0.00333244
0.00539774
0.00436929
0.00438765
0.00533686
0.00735873
0.0072919
0.00365857
0.00455705
0.00369776
0.00378305
0.00307495
0.00328762
0.00360113
0.00282884
0.00228158
0.00638804
0.00638598
0.00574255
0.00331173
0.00147428
0.000898104
0.00154595
0.00193954
0.000916016
0.00180943
0.0035994
0.0034405
0.00336793
0.00291808
0.00211685
0.00467258
0.00584772
0.00502933
0.00315974
0.00359395
0.00390705
0.00355769
0.00333979
0.00233917
0.000791626
0.00430321
0.00172952
0.00479723
0.0050837
0.00693372
0.00701335
0.00352344
0.00287975
0.00145158
0.00345927
0.00398305
0.00166513
0.00256786
0.00205925
0.000746899
0.002529
0.00345386
0.00261703
0.001613
0.00168579
0.00130278
0.00256428
0.00274307
0.00261851
0.0029028
0.00236759
0.00290673
0.00295424
0.0017635
0.00238835
0.0056479
0.00442443
0.00522028
0.00619359
0.00648684
0.00645055
0.00641907
0.00704395
0.00657697
0.00622938
0.00689513
0.00672579
0.00699045
0.00715223
0.00702518
0.00724159
0.00713278
0.00591083
0.00738664
0.00740009
0.0072943
0.0070399
0.00711576
0.00549227
0.0066671
0.00709215
0.00685677
0.00688538
0.0060037
0.00349182
0.000767543
0.00425012
0.00372207
0.00663842
0.00262297
0.00343288
0.00144396
0.00221722
0.0049954
0.00255936
0.00683556
0.00257066
0.00623962
0.00465488
0.00640645
0.00361764
0.000883664
0.00497449
0.00392905
0.00350846
0.00489371
0.00601078
0.00348866
0.00713073
0.00695757
0.0067418
0.00305776
0.00151524
0.00321587
0.000849024
0.00720691
0.00729632
0.00544335
0.00376185
0.00693946
0.00709099
0.00649185
0.00334302
0.00620213
0.00653769
0.00549216
0.0052397
0.0028191
0.00244651
0.00296247
0.00660324
0.00711603
0.00297091
0.00729349
0.000974982
0.00385749
0.00659136
0.00428435
0.00482287
0.00301008
0.00285936
0.00355611
0.0044004
0.00640548
0.00491052
0.00659235
0.00434081
0.00630642
0.00616566
0.00551787
0.00404417
0.00433074
0.00349414
0.00408954
0.00660592
0.00669987
0.00585937
0.00290758
0.00282024
0.00714622
0.00713703
0.0030195
0.00376288
0.00221215
0.00744408
0.00570532
0.002929
0.00299697
0.00123496
0.00728275
0.00416853
0.0072183
0.00712497
0.00517542
0.00584944
0.00709243
0.00598474
0.00600634
0.00398374
0.00720572
0.00327577
0.00251182
0.00434838
0.00344301
0.00727589
0.00239699
0.00214875
0.00710796
0.00201347
0.00106193
0.00324774
0.00500633
0.00667813
0.00589636
0.00348389
0.00664818
0.0057399
0.00712367
0.0049796
0.00718062
0.00725566
0.00701235
0.00189775
0.00509764
0.00383824
0.00685011
0.000224783
0.00216136
0.00174674
0.00180503
0.00482529
0.00572478
0.00719502
0.00701416
0.0045964
0.00370137
0.0054998
0.0042398
0.00648989
0.00719115
0.00698758
0.00157524
0.00716116
0.00402304
0.0056427
0.00680425
0.0064953
0.00292146
0.000545816
0.00314677
0.00126107
0.000348451
0.000513174
0.000499972
0.000624026
0.00682147
0.00347422
0.00452306
0.00260354
0.00413174
0.000588768
0.00181583
0.0020924
0.000514757
0.00150301
0.00169556
0.00047708
0.00120466
0.00574255
0.002224
0.00475483
0.00682155
0.00429522
0.00631821
0.00708001
0.00469452
0.00720289
0.00327798
0.000178728
0.00162516
0.00204044
0.00458233
0.00147717
0.00157939
0.00296682
0.00424855
0.00684855
0.00747667
0.00747174
0.00645104
0.00636147
0.00704078
0.00724066
0.00682658
0.00712534
0.00752461
0.00705475
0.00678979
0.00713292
0.00429611
0.00216241
0.00298746
0.0072872
0.00181898
0.00744838
0.00131966
0.0073567
0.00745521
0.00540319
0.000609373
0.00042098
0.00237974
0.00486008
0.00687761
0.00643478
0.00512909
0.00299378
0.0066821
0.0018126
0.00746422
0.0071757
0.00732717
0.00646484
0.00741667
0.00339049
0.00398098
0.00286568
0.00723705
0.00190548
0.00698337
0.00711671
0.00707102
0.00722968
0.00707427
0.00715474
0.00723807
0.00357695
0.00588597
0.00591875
0.00191606
0.00364191
0.00627878
0.00588252
0.00323683
0.00707416
0.00707177
0.00679343
0.00709258
0.00304651
0.00715401
0.00530232
0.00149145
0.000260277
0.00690731
0.00701474
0.00598654
0.00507229
0.00710274
0.00058912
0.00462061
0.000247162
0.00199869
0.00113452
0.0010772
0.00316571
0.000802702
0.00296157
0.00741158
0.0074118
0.00107616
0.0073793
0.00201508
0.000642328
0.000532303
0.00360261
0.000368602
0.00184641
0.000637247
0.00351299
0.00732364
0.00457902
0.00512709
0.000577574
0.000649512
0.00101942
0.000647956
0.000827716
0.000289087
0.000551215
0.00445447
0.00669949
0.00377338
0.00642608
0.00271286
0.00379025
0.00669298
0.00503193
0.00200303
0.00719275
0.00184334
0.00650903
0.00664497
0.00181439
0.00602833
0.000650959
0.00356335
0.00716678
0.00398686
0.00592552
0.00477569
0.00469258
0.00418703
0.00500926
0.00495423
0.00448281
0.00461792
0.00700687
0.00719451
0.00687291
0.00720773
0.00186609
0.00749312
0.00683036
0.00196798
0.00594438
0.0041613
0.00677159
0.00227553
0.00636707
0.00330574
0.00514772
0.00112159
0.000948368
0.00357256
0.00451558
0.00249685
0.00193262
0.00245452
0.00174429
0.00284534
0.00459788
0.0036173
0.00737397
0.00738524
0.00652863
0.00481408
0.00456529
0.00572354
0.00657451
0.00589912
0.00180274
0.00456715
0.00227914
0.00248483
0.00192331
0.00251725
0.000949271
0.00274201
0.00687009
0.00709595
0.00210335
0.00701888
0.00707155
0.00662388
0.00692472
0.00655293
0.00723587
0.00492614
0.00711838
0.0072551
0.0071491
0.00297603
0.00317734
0.00716147
0.00656539
0.00714372
0.00702159
0.00297203
0.00704062
0.00703602
0.00489352
0.00211532
0.000626377
0.0028517
0.00546896
0.000170954
0.000668909
0.00284429
0.00162998
0.00336115
0.00330167
0.00580278
0.00694289
0.00378987
0.00625122
0.00186779
0.00160509
0.00543562
0.00736394
0.000865355
0.0030735
0.00191097
0.00501674
0.000929284
0.00193142
0.00235239
0.00161479
0.00540556
0.00319727
0.00210286
0.0017878
0.00417747
0.00540951
0.0040338
0.00491314
0.00578838
0.00633459
0.000858724
0.000166394
0.00392855
0.00535371
0.00267105
0.00534522
0.0033453
0.00573447
0.00226938
0.0029206
0.00269658
0.0027055
0.0029469
0.00346628
0.00259322
0.0024096
0.00170784
0.00161933
0.00165349
0.000976424
0.00726562
0.00723043
0.00465175
0.00732929
0.00300716
0.00216151
0.00105742
0.000995544
0.000699585
0.00695457
0.00335459
0.00639545
0.00648548
0.0037347
0.00661983
0.00585277
0.00721448
0.00657693
0.00714868
0.00738874
0.00199799
0.00142826
0.00665116
0.000812257
0.00298295
0.002674
0.00157081
0.005066
0.00391144
0.00651132
0.00281822
0.00420156
0.00278795
0.0065826
0.00354351
0.00325634
0.00369004
0.00441806
0.00258107
0.00675637
0.00689357
0.00439545
0.00724795
0.00487088
0.00538924
0.00361687
0.000879883
0.00574433
0.00296811
0.00181475
0.00690235
0.00192458
0.0044903
0.000850729
0.00304796
0.00573013
0.00687735
0.0064054
0.00179559
0.00370178
0.000582677
0.00727287
0.00597475
0.0067293
0.000585289
0.00730253
0.000305676
0.000737076
0.000590042
0.00289794
0.00275733
0.00324026
0.0035861
0.00331908
0.000913667
0.00658291
0.000500337
0.00337112
0.0011821
0.00550859
0.00474916
0.00642957
0.0068566
0.00688578
0.00516026
0.00299655
0.00186711
0.00384706
0.0056029
0.0026622
0.00685674
0.00256587
0.00689284
0.00377672
0.0048856
0.00474943
0.00450547
0.00650404
0.00385729
0.00578061
0.00186781
0.00188045
0.00609704
0.0068548
0.00588195
0.00706833
0.00243472
0.00710841
0.00228705
0.00634764
0.00499211
0.00585146
0.0018521
0.0018867
0.00338206
0.00211713
0.00427742
0.00714988
0.00696581
0.00656655
0.00677279
0.00667151
0.00459495
0.00348046
0.00399808
0.0018535
0.00709543
0.00366684
0.00644057
0.0028701
0.0033034
0.0030092
0.00703312
0.0073598
0.00639816
0.0023939
0.00703855
0.00445655
0.00603971
0.00155039
0.00558255
0.00387662
0.000901219
0.000803644
0.000513806
0.00282512
0.00182688
0.00303581
0.00710544
0.00427476
0.00166736
0.00539183
0.00337914
0.00743025
0.00111167
0.00350257
0.0014073
0.000412398
0.00707056
0.00731667
0.00280627
0.00130434
0.00186093
0.00145674
0.00176728
0.00356602
0.00142462
0.00290907
0.00239062
0.00212594
0.000992912
0.00275575
0.000955416
0.00196621
0.000468875
0.0016919
0.00269418
0.000702143
0.00153226
0.00135001
0.00180902
0.00174385
0.00249971
0.00555545
0.00515805
0.00309807
0.00119366
0.00548666
0.0031763
0.0019931
0.000663442
0.000728065
0.000597068
0.00312355
0.00163543
0.00233276
0.000881883
0.0002928
0.00366739
0.00249106
0.0027917
0.00463591
0.00300149
0.00138475
0.000332895
0.000732144
0.00686145
0.00557386
0.00388098
0.00273816
0.00699631
0.00727037
0.00420641
0.00328008
0.00232599
0.00291628
0.00714187
0.00205177
0.0071292
0.00319672
0.00612096
0.00400473
0.00140683
0.00195844
0.00743298
0.00641602
0.00266891
0.00749267
0.00708724
0.00217927
0.00246966
0.000219824
0.0023954
0.00558062
0.00735687
0.00271628
0.00732105
0.00275395
0.00133766
0.00700648
0.00709252
0.00705425
0.00726867
0.00715314
0.00215723
0.00113404
0.00220943
0.00455189
0.00513589
0.00245372
0.00732745
0.00735063
0.00352891
0.00737097
0.00620488
0.00272747
0.00741937
0.00161314
0.000774434
0.00220541
0.00448696
0.00455714
0.00361256
0.00590223
0.00231891
0.00356078
0.0027229
0.00182619
0.0032335
0.00422996
0.00290673
0.00278446
0.00297791
0.00349947
0.00516058
0.0033941
0.00512713
0.00467511
0.00509644
0.00490261
0.00108566
0.00408182
0.00424815
0.00696992
0.00306757
0.00344406
0.00452384
0.00336705
0.00202964
0.00083264
0.00158643
0.00749997
0.00454117
0.00299168
0.00257673
0.00238101
0.00737219
0.00728998
0.00738858
0.00692293
0.00681649
0.00308845
0.00149406
0.00133877
0.00129036
0.000406546
0.000991848
0.00265859
0.00320058
0.00272078
0.00633148
0.0018205
0.00253494
0.00542348
0.00396737
0.00399019
0.00335415
0.00172215
0.00699884
0.00423696
0.00392515
0.00640575
0.00545491
0.00664525
0.00256704
0.00723769
0.00146575
0.000637587
0.00739738
0.00729016
0.00730898
0.00725303
0.00284272
0.00725196
0.00205144
0.00603226
0.00495231
0.00170313
0.000466168
0.000959043
0.00263976
0.000503416
0.000484861
0.00138774
0.00121584
0.000251528
0.00232105
0.00239192
0.00263712
0.000300252
0.00502224
0.00162013
0.00485025
0.000878335
0.00103682
0.00216007
0.00273961
0.00166069
0.00109459
0.00475572
0.00416643
0.000822985
0.00102737
0.000271365
0.000243325
0.000154479
0.00100039
0.000928839
0.00217015
0.000240931
0.00234827
0.00212837
0.00549323
0.00433235
0.00743998
0.00720966
0.00722078
0.00533358
0.00472513
0.00289066
0.00653273
0.00236485
0.00730888
0.00330991
0.00577147
0.00696753
0.00747703
0.006091
0.00209596
0.00614308
0.00131089
0.00399553
0.00681442
0.00750426
0.00738889
0.006166
0.00564797
0.0074346
0.00741241
0.00464996
0.00528518
0.00601239
0.00132497
0.00184306
0.00563265
0.00735054
0.00556617
0.00276604
0.00251954
0.00162489
0.00747347
0.00606997
0.00464748
0.00674419
0.00390482
0.00239931
0.00459022
0.00594811
0.00153752
0.00625642
0.00597129
0.00277801
0.00603386
0.00375024
0.00538825
0.00443617
0.00194908
0.00749144
0.00307231
0.00691596
0.0059932
0.00728733
0.00711929
0.00535383
0.00706102
0.000681185
0.00160696
0.000711798
0.00172683
0.00742587
0.00730838
0.0057192
0.00734231
0.00706124
0.00705974
0.00738373
0.000651413
0.00149059
0.00743177
0.0073005
0.00739833
0.00166372
0.00639977
0.00500542
0.00735691
0.00494396
0.00282585
0.000217362
0.00568842
0.001404
0.00327612
0.0022649
0.0020133
0.00725353
0.00729455
0.0073616
0.00155121
0.007358
0.00734962
0.000742398
0.00144548
0.00387428
0.00238236
0.000778458
0.000189428
0.00724184
0.00732249
0.0073435
0.00736445
0.00266611
0.00101385
0.00743196
0.0074697
0.00732261
0.007276
0.00655127
0.00109265
0.00719592
0.00723465
0.00732712
0.0073732
0.00686476
0.00284254
0.00282519
0.00403681
0.00368205
0.00320098
0.00644601
0.00223004
0.00413937
0.00676432
0.00586902
0.00365127
0.00678096
0.00721843
0.00705259
0.00494926
0.00339307
0.00565337
0.0051275
0.00491521
0.00324277
0.0035497
0.0042834
0.00582318
0.0066277
0.00648217
0.0027181
0.00719475
0.00728659
0.00128223
0.00686733
0.00040873
0.00529721
0.00405577
0.00113989
0.000432813
0.000564014
0.000735808
0.00588246
0.00197644
0.00607769
0.00152717
0.000460101
0.00285579
0.000876783
0.00129118
0.000769863
0.00167054
0.00383783
0.00057391
0.00343721
0.00284584
0.00050524
0.000799247
0.000802732
0.00439826
0.00352706
0.00440532
0.00418296
0.00143128
0.00139228
0.00128008
0.00281114
0.00149339
0.00305494
0.00611656
0.00290811
0.00184512
0.00625607
0.00621633
0.00244369
0.00389911
0.00588207
0.00296649
0.00487539
0.00259321
0.00336784
0.00362811
0.00162867
0.00279131
0.00649027
0.00326834
0.00288287
0.00280586
0.00289512
0.00624673
0.00279777
0.00553383
0.00344656
0.00356462
0.0029545
0.00497999
0.00471525
0.00516096
0.00387208
0.00466374
0.00382258
0.00196301
0.00284725
0.00230179
0.00228378
0.00395838
0.00311246
0.00143471
0.00680842
0.00135816
0.00103903
0.00297556
0.00488758
0.00343693
0.00714302
0.00715692
0.00704332
0.00374106
0.0046838
0.00505002
0.0025815
0.0028832
0.00192058
0.00200375
0.00731554
0.00577357
0.00587052
0.00584383
0.00686836
0.00692393
0.0058987
0.00482197
0.00591483
0.0037547
0.00194673
0.00373297
0.00446957
0.00629694
0.00379174
0.00464092
0.00430796
0.00325823
0.00198107
0.00712424
0.0022506
0.00726765
0.00729975
0.00491661
0.00434876
0.00470674
0.00448953
0.00328954
0.00544441
0.00543367
0.00650222
0.00404666
0.00305656
0.00600628
0.00680479
0.00702916
0.00719043
0.00506654
0.00428847
0.00468067
0.00587045
0.00325769
0.00361225
0.00311651
0.00398243
0.00605207
0.00685911
0.00323402
0.00427183
0.00711161
0.00645181
0.00415151
0.00278499
0.00311926
0.0044998
0.00323527
0.00617033
0.00259143
0.00493356
0.00315571
0.00248283
0.00667366
0.00687153
0.00691687
0.00700626
0.00665556
0.00695597
0.00708389
0.00148698
0.00240662
0.00136451
0.00271228
0.00215531
0.000985099
0.00241363
0.00357621
0.00376366
0.0021301
0.00275566
0.000167806
0.002194
0.0056512
0.00408428
0.00579286
0.00438413
0.00608422
0.00165094
0.00460242
0.0061798
0.00386437
0.00475171
0.00663471
0.00509509
0.00403096
0.00244142
0.0070963
0.00684248
0.00702193
0.00647915
0.0032562
0.00589633
0.00249252
0.00379554
0.00079534
0.00278463
0.00389395
0.00484261
0.00410906
0.00307044
0.00369005
0.00597168
0.00330219
0.00130736
0.0043585
0.00625886
0.00526059
0.00564628
0.00324136
0.00348236
0.00397662
0.00498383
0.003207
0.00212608
0.00176864
0.00515114
0.00299915
0.00520118
0.00684121
0.00732497
0.00690629
0.00535579
0.00247866
0.00656734
0.00495211
0.00692819
0.00386044
0.00730361
0.00724712
0.0031685
0.00147705
0.00212749
0.00661149
0.00165993
0.00355076
0.00549463
0.00549485
0.00680072
0.00141795
0.00570414
0.00211943
0.0070287
0.00712248
0.00424344
0.00573173
0.00235969
0.00313049
0.00696548
0.00705239
0.00680059
0.00718043
0.00276253
0.00581257
0.00590289
0.00586116
0.00621953
0.00484538
0.00419092
0.00561427
0.00697488
0.0070876
0.00200774
0.00400311
0.00494944
0.00409256
0.00672032
0.00293552
0.00569803
0.00364589
0.00312393
0.00186947
0.00247283
0.00651724
0.00290461
0.00297882
0.00176497
0.00249801
0.0045601
0.00485067
0.00700079
0.00709598
0.00695405
0.00701454
0.00711644
0.00652739
0.00661716
0.00287618
0.00379833
0.0025758
0.0038842
0.00333203
0.00713104
0.00425577
0.0069544
0.00242836
0.00331675
0.00379095
0.00386542
0.00311631
0.000359317
0.00318195
0.000790948
0.000560039
0.00250531
0.00196773
0.007235
0.00721524
0.00403789
0.00741796
0.00481138
0.00596942
0.00465725
0.00465868
0.00676593
0.00165081
0.0021865
0.002346
0.00723936
0.00247098
0.000800652
0.00733215
0.00483566
0.000942034
0.00275273
0.00362049
0.00234199
0.00482031
0.00228217
0.00366242
0.00348669
0.00198696
0.00132335
0.000150013
0.00182268
0.00188391
0.00167789
0.00396915
0.00741663
0.00739071
0.00745326
0.00187119
0.000660043
0.00243526
0.00280355
0.0042939
0.00256811
0.00141928
0.00708619
0.00499671
0.00194755
0.00347505
0.00465444
0.0001626
0.0054202
0.00660784
0.0071189
0.00719094
0.00728067
0.00729359
0.00743932
0.00722608
0.00265668
0.00744328
0.00364322
0.00723802
0.00136934
0.0017707
0.00315916
0.00398811
0.00168509
0.00667119
0.00359614
0.00729394
0.00477454
0.00413969
0.0027803
0.00159756
0.00676928
0.00367922
0.000515676
0.00101165
0.00251127
0.00372582
0.00247431
0.0035914
0.00421834
0.00741403
0.00735192
0.00260125
0.00526785
0.00414906
0.00710189
0.00673096
0.00414909
0.00650997
0.00692753
0.00625293
0.00686291
0.00715084
0.00730397
0.00697015
0.00507836
0.00626076
0.00340908
0.00372159
0.00242731
0.00618723
0.00701091
0.00680755
0.00519005
0.00389832
0.0014766
0.00181972
0.00188244
0.00715669
0.00679338
0.00205818
0.00482806
0.00614011
0.00117499
0.0018286
0.000328159
0.000591501
0.000218842
0.00729933
0.00201324
0.00037499
0.0025276
0.00561484
0.00317352
0.000813217
0.00669274
0.000312835
0.00691122
0.00593081
0.00685868
0.00712656
0.00690296
0.00712663
0.00681492
0.00220472
0.00175168
0.000843989
0.00728416
0.00288255
0.00420594
0.00690478
0.00369721
0.00292266
0.000997461
0.00230189
0.00636413
0.00209174
0.00615428
0.00706112
0.00724058
0.00384306
0.00179111
0.00727697
0.00372413
0.00238904
0.00627497
0.004272
0.0068067
0.0036252
0.0071903
0.0055076
0.00272068
0.00669165
0.00647529
0.00261305
0.00441866
0.0069835
0.00356453
0.00456839
0.00317373
0.00150892
0.00185996
0.00326764
0.00470657
0.00416339
0.00362681
0.00158828
0.00482814
0.00173403
0.00311873
0.00539441
0.0056234
0.00728355
0.00605044
0.00389174
0.00541083
0.0060987
0.00263919
0.00589691
0.00482964
0.00203231
0.00162529
0.00575975
0.00619181
0.00654647
0.00689621
0.00361076
0.00365636
0.00184826
0.00416914
0.00725064
0.00201463
0.00579971
0.00325349
0.00365796
0.007019
0.00603789
0.00612636
0.00616553
0.00602174
0.00266148
0.00439074
0.0036304
0.00598732
0.00521503
0.00446233
0.00194922
0.00352845
0.00441482
0.00380814
0.00314779
0.00582448
0.00514233
0.00299304
0.00436563
0.0071656
0.0067826
0.00721087
0.00689899
0.00680712
0.00732213
0.00730614
0.0019604
0.00476081
0.00345874
0.00205851
0.0020521
0.00316147
0.00423531
0.0056922
0.000491052
0.00225088
0.00142936
0.00154745
0.00177947
0.00583958
0.000518488
0.000933302
0.00181213
0.000820015
0.000479016
0.00240052
0.00202313
0.00207252
0.00339707
0.00704509
0.00103403
0.00329597
0.00356548
0.00481696
0.00378644
0.000688093
0.00311923
0.00517919
0.00496991
0.00548183
0.00493716
0.00306243
0.00478189
0.00322745
0.00311265
0.00310553
0.00352805
0.00596303
0.00088084
0.0013952
0.000722343
0.00069276
0.00148782
0.000235565
0.000796354
0.00128288
0.00230155
0.00468935
0.00118852
0.00160819
0.00275218
0.00105791
0.00167529
0.000988485
0.000786638
0.00143882
0.00149238
0.0011302
0.00102908
0.000553639
0.00202102
0.00162498
0.00595743
0.00699338
0.00725792
0.00737345
0.00731616
0.00734645
0.00729293
0.00734315
0.000823196
0.00159811
0.00281561
0.00609963
0.00379085
0.00599845
0.00444284
0.00640715
0.00558336
0.00650201
0.0028174
0.00528833
0.00628727
0.00607988
0.00299012
0.00589714
0.00663496
0.00592319
0.00715898
0.00709353
0.00424033
0.00315239
0.00676485
0.00367291
0.00567128
0.00205453
0.00714947
0.00329088
0.00156863
0.00101372
0.00370353
0.00357368
0.00309262
0.00234286
0.0069944
0.00709816
0.00715812
0.00241501
0.00742681
0.0062401
0.00253179
0.00662876
0.00137819
0.00143593
0.00324184
0.0032221
0.00331777
0.00698475
0.00239736
0.000502305
0.000377002
0.00133295
0.00735114
0.00221237
0.0025124
0.0027352
0.00156194
0.000648973
0.0019975
0.0072287
0.00687537
0.00347686
0.000847071
0.00202859
0.000857628
0.0071416
0.000663768
0.00639888
0.00732818
0.00744181
0.00588342
0.00732831
0.0073529
0.00705494
0.00340477
0.00469567
0.00443961
0.00453041
0.00206127
0.00542314
0.00546159
0.00512259
0.0037345
0.00366413
0.00723593
0.00375644
0.00171826
0.00421735
0.00727952
0.00705195
0.00741216
0.00730952
0.00723103
0.00380922
0.0019779
0.00204442
0.00168272
0.000977826
0.00427592
0.00572146
0.00294549
0.00732887
0.00739924
0.00656557
0.00350806
0.00226497
0.00186381
0.00174702