/*--------------------------------*- C++ -*----------------------------------*\
| =========                 |                                                 |
| \\      /  F ield         | OpenFOAM: The Open Source CFD Toolbox           |
|  \\    /   O peration     | Version:  2506                                  |
|   \\  /    A nd           | Website:  www.openfoam.com                      |
|    \\/     M anipulation  |                                                 |
\*---------------------------------------------------------------------------*/
FoamFile
{
    version     2.0;
    format      ascii;
    arch        "LSB;label=32;scalar=64";
    class       volScalarField;
    location    "0.0263738";
    object      omega;
}
// * * * * * * * * * * * * * * * * * * * * * * * * * * * * * * * * * * * * * //

dimensions      [0 0 -1 0 0 0 0];

internalField   nonuniform List<scalar> 
3975
(
65.7536
53.4649
79.2832
51.2506
50.7108
60.9624
58.6677
60.3294
51.6385
50.5538
51.1559
123.176
50.6945
159.219
50.5305
62.2779
61.4564
60.8289
67.0988
91.0273
167.808
128.617
63.7655
65.0433
65.3496
52.5286
349.995
74.4844
58.1154
76.3013
50.4161
108.839
51.9976
85.092
103.352
77.9292
72.2418
53.7421
77.7031
73.2021
74.3774
70.7772
72.1433
49.5406
61.9859
49.3588
50.0216
49.7159
74.0685
142.027
76.3138
49.7625
53.0425
117.502
118.087
128.995
115.131
92.4721
79.3913
71.7558
60.302
528.512
98.5312
59.1025
52.511
125.305
53.5048
50.3987
126.289
1049.94
1010.45
1631.26
744.914
75.6822
61.2125
68.0794
60.7819
64.2475
68.2129
62.5472
50.9444
50.0186
58.3615
95.4097
48.6256
87.2639
64.2866
50.6668
57.2832
107.93
51.0902
50.1372
134.783
67.6204
1032.51
59.1407
68.3719
504.424
53.3945
448.698
49.9207
317.715
55.1638
59.419
51.1374
159.711
71.7503
60.3366
60.6284
62.0419
98.3461
66.783
71.9107
70.1636
79.2707
108.457
109.989
111.468
134.32
67.2653
51.5533
152.023
83.3912
110.113
88.2319
129.318
105.602
136.187
132.886
139.858
135.427
129.012
74.1065
74.5746
74.0173
71.2644
139.831
66.2085
123.825
55.2357
62.7082
51.9189
54.882
51.0067
172.812
50.9015
51.6653
133.884
63.8931
131.277
57.2212
111.178
96.1215
63.5275
532.034
60.5895
53.3644
63.8722
48.8892
76.6013
51.3049
48.899
74.9385
144.211
51.5885
78.0968
83.4648
1094.79
129.232
50.5962
49.0693
49.037
90.5688
63.5104
1010.31
50.3963
61.9128
201.488
87.9017
64.5562
57.4547
88.6021
108.081
110.852
125.022
53.6002
101.665
79.1245
75.2267
111.194
60.8816
61.322
143.996
88.1656
58.9633
116.475
209.975
50.2457
51.3633
50.5019
129.608
49.6387
51.429
48.3825
49.3742
49.7702
96.5802
866.394
57.2389
811.007
53.8071
105.62
52.1192
74.3618
148.513
51.28
58.8357
80.2467
50.5917
59.8066
61.7218
77.3933
51.0479
65.0424
61.1669
73.0796
804.859
50.497
110.227
49.0349
140.65
53.7626
57.5987
86.7081
50.1254
49.566
59.3771
63.4072
274.46
69.8903
50.4831
113.954
50.5038
104.147
72.4226
842.877
61.028
72.8256
736.716
47.5032
50.0557
49.2129
68.9559
951.79
67.7976
77.1586
102.246
120.986
564.334
633.824
96.0867
233.64
53.9837
66.288
106.5
55.6629
862.641
50.1976
74.5659
72.826
72.8202
179.416
182.415
147.197
129.779
120.135
155.855
57.5217
773.055
418.274
500.278
57.4642
72.3849
49.2367
79.6767
148.349
178.367
161.105
700.213
136.892
101.464
57.2479
71.2662
87.0468
62.44
67.1872
73.9665
66.4452
84.3751
109.728
87.1206
79.8448
78.4952
97.8008
105.452
92.3417
110.626
145.027
137.45
68.023
50.5406
50.3873
54.3579
52.8222
58.486
114.238
62.1931
74.1867
50.9182
50.564
50.096
115.095
75.8221
68.191
215.206
59.5382
63.76
73.6293
210.652
110.115
60.1298
59.7406
59.9364
59.5678
117.913
92.3796
75.149
129.476
167.521
180.647
87.6067
103.182
69.4954
90.7803
82.6178
63.259
50.7985
52.9385
51.4041
50.4772
113.84
68.7518
87.2112
87.1522
61.9515
61.235
54.3786
105.57
54.345
52.7883
55.2408
801.072
62.3668
51.565
51.54
51.3715
70.5019
51.4498
62.5559
50.2635
51.3942
147.41
55.3805
65.4956
123.545
73.6871
50.3713
1068.31
212.051
73.3462
442.355
139.035
50.3964
186.572
149.379
152.676
104.074
190.41
146.994
141.921
85.4723
51.8765
152.081
54.1876
50.5052
53.3948
71.4255
76.3831
68.4548
66.4618
62.6529
76.0152
111.02
84.9177
62.7265
81.4195
66.3817
65.4895
65.0449
55.9476
70.0785
64.4565
263.675
479
51.811
800.141
59.8507
50.1767
134.029
61.6239
74.1318
65.7769
51.8421
229.728
229.051
251.927
59.9697
148.415
49.5593
235.194
114.409
60.0763
59.8292
363.927
70.5317
82.0448
56.1329
103.537
207.873
59.4384
94.1639
61.6975
210.716
667.544
679.587
59.5261
50.748
102.524
866.438
53.3514
52.1337
54.6109
53.1743
53.5915
108.391
50.9405
61.6507
50.9401
60.9767
52.0133
50.4315
194.428
51.3981
50.6393
155.032
52.5139
51.2213
48.5999
52.0116
49.6955
139.644
49.6083
51.2351
79.2556
51.708
456.557
51.8738
52.672
52.2373
50.5188
134.724
50.9308
51.7134
54.01
148.224
142.117
123.594
619.878
1132.13
115.694
63.2194
53.4587
54.4394
251.508
53.7413
53.4404
52.5323
54.5373
74.3484
285.442
846.407
50.8265
50.3347
55.97
50.7081
51.9914
59.9163
707.895
55.9745
55.1046
72.95
51.2788
56.9949
1288.77
79.7626
66.1152
49.3939
59.4643
51.1176
144.189
73.0678
122.742
86.7635
426.382
497.218
138.3
92.1928
1110.8
50.9976
58.251
48.8553
58.1116
50.6301
47.987
70.2881
60.6002
56.1229
210.981
1058.37
63.3167
50.073
51.102
50.4985
108.045
359.122
784.48
60.7238
1055.71
340.493
59.7058
157.406
50.4682
72.7991
55.6602
126.273
138.4
65.4833
64.9461
53.3998
60.5422
59.1476
63.2377
186.729
472.442
438.651
794.961
1470.69
272.949
1093.69
769.718
49.4527
49.9899
48.9515
49.1659
50.4634
51.0587
49.6089
56.4278
48.7329
72.7143
49.8266
105.357
77.0491
101.266
50.5443
48.2695
47.5808
50.809
52.2435
56.8803
63.127
51.078
51.8447
183.577
61.0069
51.5658
49.9178
55.8172
50.2802
50.8536
50.8517
54.4563
870.706
113.451
73.7266
87.7381
80.2508
62.7246
66.3616
77.5697
70.1215
64.7467
49.253
51.527
95.8601
50.2237
51.2577
50.4222
50.1542
212.956
50.3798
49.9034
50.1062
48.7207
57.2683
51.8278
67.753
49.5353
60.2252
48.0079
76.0711
52.9129
98.6173
52.2342
50.1072
50.4894
49.4851
50.8172
65.6442
59.7344
49.2857
120.396
109.283
51.146
49.7642
103.663
148.248
58.9751
138.473
107.59
59.4747
60.3292
378.802
824.95
76.3599
703.428
171.496
194.402
101.903
681.524
408.201
925.41
56.3422
1032.15
829.542
940.666
880.533
843.553
52.166
53.1052
59.2616
59.7183
59.0076
54.1379
55.6957
199.787
49.8734
49.4392
48.1229
50.6591
70.9963
50.6825
50.1922
88.2803
111.696
53.4175
55.527
48.8665
51.7033
130.702
56.4717
90.7579
54.6578
54.5278
136.677
62.1686
257.924
72.7417
55.0276
54.5707
212.199
49.6553
60
906.702
51.1154
97.1523
60.6711
51.7291
50.1811
394.82
59.245
51.4832
50.4723
87.0952
50.9466
53.6858
75.1714
113.471
66.677
57.1744
51.5926
53.0783
73.5426
49.4929
89.4531
49.336
148.679
49.3681
50.5776
51.725
62.4298
62.4338
54.9645
60.4795
63.9522
57.8389
60.1914
60.3229
641.768
58.9193
528.257
62.2552
210.218
77.3108
862.273
59.8162
51.8571
49.7085
88.7376
53.573
245.595
55.2414
58.9213
52.3736
343.426
65.561
52.3101
51.5964
50.1364
49.4094
49.3547
51.6131
114.483
50.8845
52.5304
75.9867
50.0723
49.92
130.177
49.9248
115.542
49.7463
49.3793
49.4551
66.6576
49.4414
54.2208
55.9862
52.5029
59.1381
131.116
740.404
142.087
52.967
50.1507
61.7973
70.1235
50.9267
64.313
52.1158
60.8116
62.9613
1024.31
51.5612
103.943
152.646
57.4646
68.46
50.8746
67.4946
67.0127
59.4276
61.9213
65.6801
1115.25
49.2489
52.1415
52.482
1054.36
90.2513
67.2772
53.785
48.8525
181.152
242.613
93.1513
995.255
106.452
110.504
496.322
70.3126
62.1987
72.3892
63.1544
86.109
445.937
405.483
53.2114
768.798
417.887
553.75
529.544
1116.44
781.197
848.178
407.837
107.952
109.211
848.167
421.736
208.879
850.962
799.555
99.0271
156.449
63.3302
94.5915
132.471
157.625
65.8761
56.5924
155.176
131.317
335.454
333.748
104.098
73.0468
367.587
383.765
56.8332
160.816
82.778
74.6166
63.991
66.4647
62.957
52.7174
53.5182
52.8574
50.846
62.9128
62.1112
55.2268
51.3709
54.1921
50.3409
54.1679
50.3423
53.0933
52.4763
150.83
67.2393
82.97
79.9661
62.9723
50.9004
51.3004
81.836
54.7826
74.95
75.0229
94.6792
84.7647
86.5208
74.2913
105.758
61.8052
58.5582
63.1459
117.213
175.321
353.244
258.156
317.867
308.799
347.275
72.2369
82.3689
79.9302
75.3634
59.9317
62.3447
63.5082
72.5172
53.4849
54.8462
54.2797
114.221
80.8339
134.074
571.422
81.7454
210.631
74.2127
70.9495
54.2643
52.5964
57.7042
134.592
80.8487
151.33
126.966
89.9697
109.848
68.1465
669.254
68.4234
59.0226
83.3635
81.3599
97.07
105.454
151.662
141.545
141.416
121.983
75.7613
72.8134
78.74
89.1772
79.9275
63.1417
78.4981
67.3411
57.8362
55.4762
57.9534
58.046
53.5776
56.5662
58.0275
52.3574
54.6521
51.652
50.4854
50.7612
50.5596
52.2327
51.4139
51.5331
50.5549
50.6751
51.0586
50.1359
65.6184
53.7537
49.8669
52.6529
52.2779
58.9307
151.097
315.13
70.5127
64.7352
59.0281
128.839
81.5129
432.396
151.292
54.6542
135.195
55.8999
98.1224
60.0249
52.7103
55.0922
95.0416
105.05
54.342
63.7819
68.0345
63.8399
59.28
104.758
51.8956
51.6394
54.878
182.95
477.859
56.894
957.777
50.1831
48.805
63.9681
105.08
53.8613
50.829
54.8409
116.5
56.8101
52.7102
55.5972
62.8086
64.6777
72.3519
74.7381
55.9622
50.3726
123.769
49.1035
715.804
83.9054
58.2802
72.6012
98.7982
104.702
180.793
138.796
70.6643
61.3219
76.7275
60.3628
79.1544
59.2013
63.1448
62.3564
74.4489
80.9094
108.839
84.9296
56.8924
55.1144
66.3659
117.037
133.746
50.4689
50.6817
58.0991
74.8269
145.64
47.8591
61.8923
121.251
137.175
76.4949
51.8606
57.8139
52.4156
52.8723
58.4132
63.8185
50.6935
59.3232
57.6111
87.0047
51.4768
55.0758
55.5612
62.1837
84.3613
50.0347
108.701
83.5302
50.9656
283.924
697.445
83.4572
70.9894
55.2304
62.4496
76.7428
62.5697
61.6873
50.7353
73.1229
49.4464
51.52
52.9717
119.721
56.3757
75.9315
55.927
1333.02
164.169
215.718
338.092
88.4198
57.672
49.5535
50.7892
77.3189
101.675
64.1989
83.0773
54.6533
49.5566
50.7153
63.105
49.6009
93.6858
62.4047
54.5647
58.9918
63.2412
163.684
53.619
562.294
847.113
1233.39
1189.42
893.256
53.0921
95.3671
53.0138
76.0177
53.8883
634.073
104.021
273.048
813.21
431.077
371.139
1320.05
542.516
63.5744
80.3016
58.5607
52.8114
53.9926
59.7681
54.5435
50.8084
51.7507
162.637
943.922
177.77
58.8496
58.0383
257.141
418.656
64.2396
86.266
53.0945
47.4132
47.7712
54.9732
56.2913
50.864
50.5635
51.6738
50.6852
49.2356
50.4221
53.0778
50.2565
51.1569
67.3258
53.6042
50.2467
118.282
47.5635
358.644
49.6542
48.0686
58.3383
823.745
732.753
59.7029
52.9571
53.6597
55.7302
68.4325
57.775
60.4404
356.372
47.9007
50.2449
50.6463
50.3336
49.0401
75.9828
58.7348
67.7619
50.5397
68.8422
51.0873
49.9851
50.3407
49.3046
50.3612
49.711
49.6719
103.716
59.4327
58.9399
74.0411
101.934
56.1
59.7728
117.118
51.3673
50.9355
53.1427
51.315
114.298
50.5555
68.0789
109.754
1495.58
51.0591
53.7007
59.0275
70.707
49.7516
513.608
52.4596
870.188
307.326
165.096
259.73
112.99
564.502
52.2801
48.669
48.9353
462.759
49.1423
174.827
658.796
1087.8
139.738
1327.34
323.8
887.914
112.789
51.313
78.6995
73.8015
905.071
885.118
794.58
702.692
716.283
738.955
190.361
79.9797
53.2818
91.7219
55.1426
55.0474
70.7846
59.0093
55.1021
183.064
50.7098
87.9288
54.4759
55.1448
123.803
61.4818
1273.35
93.7853
49.9137
53.7159
55.0271
55.1779
56.1962
84.0631
64.9166
56.1616
78.8993
49.9296
50.8092
50.4808
51.9881
49.9879
208.179
47.8616
52.7653
186.098
59.011
85.8591
57.2139
161.687
56.0851
153.23
59.599
694.443
729.944
62.858
79.7187
137.393
188.335
140.203
217.189
120.684
75.6278
94.2805
48.5877
48.3811
53.9441
59.7269
55.0508
60.9655
53.8237
60.7182
61.2601
59.3674
130.977
108.012
61.0388
135.299
107.197
125.113
51.7325
50.9541
83.9467
50.6443
50.6665
54.2668
51.5351
57.2001
51.661
51.3087
50.307
49.5693
50.0086
132.841
61.899
50.3357
54.6087
50.1553
50.7807
58.7759
53.8179
50.4333
57.7194
122.524
538.911
194.456
61.0679
1174.81
804.704
59.2477
233.039
99.5663
115.06
60.0926
51.2684
93.2049
62.1742
73.7187
65.7829
65.1557
48.4521
803.049
73.9612
307.923
65.1372
867.634
55.5953
76.3656
66.7361
68.7699
110.136
171.537
345.028
82.4651
73.8712
61.1078
60.2356
61.4646
57.311
1033.42
1066.04
89.489
73.7201
144.237
65.3278
118.402
63.0808
69.9153
118.642
140.004
146.097
181.329
150.233
213.208
170.67
376.146
415.725
390.356
464.549
49.7195
50.0151
75.8995
48.7916
119.208
62.9474
167.41
121.436
167.897
52.9912
65.3231
60.8751
63.5249
98.9164
59.9182
72.6427
49.0934
56.7811
52.1875
51.1838
116.705
277.634
49.0072
1053.86
71.2258
69.4488
95.7238
62.9244
62.3853
58.7163
185.391
83.6504
111.698
54.506
97.0497
86.8926
94.455
81.1895
58.2329
57.3701
51.7337
79.6821
49.142
73.5862
66.0777
64.5923
198.387
64.9127
177.033
218.058
51.7395
94.1266
96.1089
938.121
128.389
62.1059
52.9251
62.617
330.379
59.514
785.616
49.6016
60.0276
53.6248
831.155
49.7414
984.525
961.682
730.638
83.5778
89.5006
64.4562
69.4233
69.5871
825.778
60.3562
1560.62
152.967
322.375
63.8015
65.9899
62.0672
55.8584
57.8416
52.8379
62.2802
203.546
85.6441
80.215
98.2569
54.1144
208.358
52.6927
91.3175
64.5403
82.4054
78.3294
54.0081
88.9181
70.2854
212.44
81.54
57.2846
52.4107
61.3691
51.0042
104.682
51.6227
155.506
62.9649
56.4177
51.4099
323.229
196.041
63.4572
262.46
76.5171
49.5849
53.5013
52.6565
52.5496
53.511
67.4852
72.2327
125.53
124.408
52.0649
97.7251
55.4153
98.701
57.7255
126.76
53.3091
49.2605
55.2365
98.5711
53.4083
65.3271
67.1888
212.723
65.299
56.8386
812.722
777.049
1043.34
138.811
205.629
121.519
50.9483
53.9677
63.2252
65.1748
101.672
48.6618
114.557
58.3872
481.43
547.095
48.1656
48.6663
58.3771
130.53
59.4634
78.57
59.3619
79.9272
474.038
57.4005
55.472
56.698
79.1173
55.6395
738.914
64.7132
805.624
107.067
119.764
837.18
186.622
510.099
349.654
86.5132
99.6921
62.8105
76.3753
59.0479
594.369
68.7266
65.6163
80.055
721.431
785.145
548.366
90.0757
406.716
106.552
73.2101
881.957
67.6351
75.6535
64.7436
61.8311
66.2125
535.266
1020.23
913.31
56.5718
65.0771
73.6791
88.7488
50.6095
49.0313
55.6231
58.003
104.513
60.0226
54.1818
67.4306
51.5147
116.931
58.5281
51.3475
157.429
64.3149
48.3894
49.0999
62.6572
47.9374
50.2914
62.6064
59.9781
1061.59
61.6444
63.527
49.5724
139.241
49.5059
141.168
233.868
50.8594
50.4504
50.1901
49.3707
50.5726
73.0591
208.681
247.679
51.0913
51.4203
56.0875
49.753
49.4945
91.5715
49.6837
69.473
91.3116
48.195
421.054
564.01
273.351
83.3941
102.205
56.9542
65.6633
61.3702
53.5044
54.9149
61.6729
55.9376
53.3603
131.573
145.983
127.031
112.356
68.0451
108.98
69.4038
77.5621
69.391
72.8371
437.806
90.2151
85.5589
50.7008
117.867
103.199
78.5791
108.215
294.503
391.452
107.09
48.3168
48.9978
122.707
137.539
155.925
48.795
49.7712
48.5314
50.9121
53.0504
125.127
67.328
91.6464
147.692
579.157
192.046
57.5359
60.0453
57.8466
57.0378
213.035
135.787
67.3
88.5339
87.2692
104.751
221.728
50.6871
87.3703
88.5871
55.8829
63.5235
54.338
151.731
50.715
272.063
611.669
49.3736
50.3353
50.3284
51.9823
125.57
49.9199
71.8598
60.9904
65.2852
217.28
727.772
884.374
57.5863
1107.67
829.193
483.961
624.54
1048.49
262.004
56.705
57.444
506.653
71.6526
75.4785
72.7468
204.092
529.745
215.118
125.829
387.202
467.891
61.6468
57.9768
1029.75
853.298
835.887
894.316
1113.02
809.466
891.693
59.5703
793.11
60.2236
71.2615
60.7915
63.6665
47.5426
49.4826
50.9445
67.1756
75.1844
57.3427
50.3842
54.5118
50.4584
56.7197
53.3711
50.415
49.2912
58.5981
55.2711
58.0816
152.535
52.719
51.9706
48.4982
48.696
59.5527
58.5083
49.4527
48.72
55.5402
55.6042
58.6827
91.2278
152.318
60.1803
49.8009
62.6492
130.532
56.9438
186.629
49.6708
49.5567
76.6533
55.2401
88.833
142.621
104.491
59.0948
99.4824
57.2094
60.7111
70.4561
58.5837
92.0942
65.5771
78.4496
66.6666
49.135
120.4
58.2677
58.6914
52.3051
50.7095
65.9128
50.8026
971.417
370.754
873.414
103.712
47.9049
50.3556
61.8246
51.2313
52.0844
51.0565
50.1844
488.414
455.069
49.2004
49.117
49.7743
60.8142
55.2066
70.0585
49.0126
73.2775
60.6957
1002.4
52.2881
87.0039
58.5221
57.6535
82.8596
50.1194
50.3165
50.0075
427.778
50.9515
49.3386
503.947
134.866
64.0097
79.4036
640.899
1066.97
49.3137
49.3545
49.3621
49.283
72.3843
855.15
48.1916
47.6186
49.1271
49.2976
55.0296
445.531
51.8735
51.2665
49.7543
50.5611
57.7247
67.2085
69.5437
60.7188
60.7476
89.9786
61.6097
62.9152
83.7698
55.1576
62.7588
57.9599
55.4642
49.0334
50.1848
58.9272
105.35
61.8926
67.7907
70.8745
59.7212
76.8481
56.8343
61.2048
59.1913
59.1523
184.961
50.9602
51.9966
99.2746
52.8031
361.299
52.0231
98.549
330.189
1013.23
972.088
1133.69
60.0092
163.246
57.9526
172.249
812.607
98.6919
592.521
95.0801
441.999
376.223
66.2142
862.596
148.837
62.5251
1390.78
974.161
698.289
70.6766
98.2827
71.5928
62.2833
551.007
116.101
132.297
194.697
92.0312
173.704
57.7518
63.542
82.4369
56.702
65.9629
83.6444
95.2669
65.73
111.383
63.1899
71.2079
59.0471
61.1103
166.264
62.8445
54.4417
74.2306
65.7324
99.1582
100.336
60.1754
115.994
66.6035
147.198
64.2895
76.7904
71.7971
65.2228
70.1743
61.7986
76.0732
89.8552
63.3447
65.4033
99.2629
65.0523
63.8326
55.4237
109.081
52.462
81.7821
108.652
56.1266
52.1706
51.7351
50.1472
50.2374
51.3968
92.8227
73.8064
69.2879
69.2847
67.5062
300.551
70.161
50.1566
57.4051
64.382
56.0978
56.7916
54.9984
58.5098
57.8513
57.6707
70.7267
77.2595
74.0142
62.7657
56.6527
70.3995
72.3478
62.2598
73.1449
132.426
50.2085
72.5646
49.6547
49.1774
67.0893
65.7042
61.6527
63.0052
103.844
66.6887
83.7367
57.8816
69.167
111.93
70.0391
53.6774
50.9986
49.1816
69.5716
56.8798
52.9249
50.7551
102.009
138.843
165.406
61.4582
49.3776
55.8956
156.893
98.7613
50.5343
55.7906
68.5312
136.921
98.5714
105.413
143.736
70.3477
82.6162
71.0221
110.536
146.874
52.8143
51.7113
51.2297
50.6323
52.6919
50.957
50.4987
126.831
153.641
80.1098
57.6949
278.927
759.875
67.5392
141.424
133.232
79.6261
102.529
1602.77
279.329
64.7182
85.8026
63.2163
79.5397
59.7018
108.735
76.6886
65.3694
64.3273
92.7343
59.3355
59.0276
70.558
86.5425
50.6096
52.4869
51.5479
58.9159
65.5158
59.963
131.754
62.0623
980.351
78.4366
106.659
73.5543
52.2803
66.536
57.6929
61.663
60.511
530.689
79.2791
65.3347
68.4815
60.1302
157.413
144.102
68.0054
63.1516
75.5902
83.1147
177.708
56.2584
69.6603
64.4363
53.6975
48.8947
52.1974
66.3778
152.784
57.6449
71.2119
51.494
76.2885
50.0083
49.8025
64.69
471.347
65.9326
63.7035
270.671
70.4274
58.2364
69.4855
53.6918
106.804
62.1505
173.753
52.2223
50.7311
63.0621
61.0337
151.23
107.291
53.3214
51.3879
58.4316
52.7117
123.69
57.3318
61.378
58.7928
57.6358
73.0051
87.7015
61.4004
51.1069
52.2476
177.314
103.447
60.5076
60.3434
57.2351
81.7862
62.7468
76.2558
71.5837
193.574
215.446
60.5941
127.028
115.236
341.495
144.488
86.7129
53.6939
52.1494
50.3645
53.6219
53.278
50.3175
57.9405
50.6278
74.0209
56.1015
77.9866
63.4392
112.59
50.4688
71.6736
51.5775
59.2194
77.0515
59.8188
59.9213
107.958
701.284
97.524
130.827
982.618
63.2488
194.779
49.5535
49.4254
54.2199
49.9346
52.5278
60.8373
75.3158
76.5197
53.4021
61.8105
61.277
56.2863
49.4384
62.1185
191.965
49.0918
52.2619
160.459
59.4688
56.4911
65.5107
57.272
147.743
55.9609
57.7764
77.7632
290.837
1281.75
106.091
64.6446
368.143
73.6542
49.8082
50.3768
48.1469
329.45
900.095
65.0439
70.632
57.045
82.2016
458.126
52.9989
54.4676
318.321
102.718
66.6088
1125.21
73.5738
53.0613
50.311
49.8507
49.2817
50.6515
48.6404
50.3036
65.1064
48.5083
59.9249
49.9075
64.6889
59.4026
51.1465
53.8728
57.5024
51.2959
81.4274
49.7966
54.5907
52.6347
92.089
82.8277
57.4425
57.2986
1062.95
650.586
160.281
78.8154
157.924
103.133
49.7334
49.3162
49.2527
153.846
66.1587
85.2102
50.4443
52.9485
52.0639
59.8564
55.615
56.9659
51.7449
55.1604
49.6467
51.2395
73.1012
55.8021
114.848
98.9254
157.17
58.1718
50.5031
53.3824
68.5494
90.1983
117.792
120.519
98.9281
51.9902
52.9358
177.967
67.6768
52.7515
100.282
61.4154
989.466
1081.04
938.583
50.0487
83.0986
1911.87
56.7723
53.8625
67.3763
950.518
53.559
764.38
51.5552
59.3542
54.5481
49.9742
51.0302
49.5666
54.6409
98.7309
347.777
562.782
50.7471
123.816
88.1539
51.1424
103.441
120.496
439.836
154.258
63.1072
166.714
57.5132
50.9233
49.9195
97.2954
274.706
49.9898
99.141
96.2317
50.4718
82.8071
52.7325
102.36
51.0685
63.5558
57.8676
55.3969
54.4048
56.1779
81.0277
56.2699
67.9483
64.9626
98.4805
251.995
325.493
75.3788
61.7186
83.2586
73.9424
76.4592
73.6956
107.751
58.2495
65.3805
62.3968
49.2054
57.3618
59.5916
56.7397
54.5392
69.9033
61.9627
78.4386
306.815
118.969
53.9415
57.6654
54.3905
55.6216
56.7838
67.0661
195.364
59.6154
49.7706
302.245
62.6059
160.572
106.47
51.6165
59.1902
59.6579
61.8284
65.4225
130.106
80.3891
57.63
61.5355
69.6667
78.6741
180.839
99.5998
79.6674
62.3341
164.321
66.2643
51.6602
53.5421
52.3822
49.6646
52.2807
49.0789
51.518
51.7911
48.6756
49.334
72.0997
61.6419
55.1992
94.7906
180.2
64.4417
65.2376
51.9285
550.353
70.3805
149.849
69.0705
75.5028
53.6364
713.795
94.9434
196.976
356.137
642.925
66.8424
71.4076
66.4105
74.5632
50.481
760.02
117.791
125.413
99.4199
59.5964
888.95
84.4789
70.0519
71.2971
58.8392
53.1894
60.2984
64.5325
70.4557
58.3132
150.023
77.5942
69.5587
129.076
213.141
870.37
851.141
356.876
840.165
826.893
546.893
210.089
77.4147
77.9354
82.2183
67.8464
87.7127
89.7301
821.806
806.296
495.896
173.049
706.849
353.658
488.053
84.1458
83.1278
49.9718
52.9532
51.2237
51.1622
50.1046
49.8058
50.2303
49.7324
584.592
406.305
67.9034
57.5325
69.4012
60.8976
63.553
58.8675
59.1162
58.8705
188.881
66.5694
66.129
70.6565
112.726
59.9408
55.9954
59.1824
49.6881
50.632
81.3709
110.38
52.9267
102.936
61.7907
69.1309
49.7229
158.121
87.686
813.282
133.796
138.877
137.973
229.997
54.7619
50.1081
49.4827
76.0708
49.5217
60.8718
138.193
49.9541
86.3501
495.663
83.0425
79.2542
71.132
56.0798
84.5177
191.999
889.925
71.9561
51.093
89.8136
148.511
53.4645
91.0103
200.587
56.1351
51.8863
52.6785
52.661
118.236
90.7362
176.34
50.616
1119.75
55.1718
48.8144
48.1917
52.2138
48.5212
48.1425
50.2763
78.1944
50.4926
58.3107
80.6787
181.471
64.3534
65.5695
76.3678
95.9136
111.098
50.1562
91.8636
104.459
55.5178
49.1828
50.3703
48.8444
50.1861
50.2983
62.2332
89.8256
73.7851
104.874
397.133
51.198
75.2977
118.961
49.7802
49.3411
58.6656
69.6881
77.4974
318.846
343.904
48.3748
1498.41
174.923
438.205
419.66
51.2474
49.0619
89.4024
61.8257
50.1181
49.6305
60.4897
51.9072
50.8593
50.4074
49.1849
76.3034
196.795
83.9285
100.308
89.9459
91.6597
66.7594
52.411
48.5906
49.1288
58.9544
51.0959
48.3785
78.71
72.8478
62.1647
74.5221
63.5778
65.9294
68.7832
59.2021
117.815
78.3296
115.624
61.3133
65.5944
52.3796
53.8488
86.7382
62.7056
106.189
59.681
68.2885
51.3239
51.2247
54.3821
50.6037
56.5955
80.5108
69.506
61.7066
65.2405
179.143
167.441
62.9066
56.5309
148.724
67.5119
77.2206
50.6424
96.4702
115.666
119.917
61.495
50.587
81.7054
51.4317
55.868
123.816
128.72
62.2514
94.5306
66.8621
75.1935
76.9064
120.389
86.6984
210.07
64.1301
53.1418
109.757
50.831
51.6043
51.4528
50.3795
56.0297
58.978
59.8314
53.9804
50.5781
50.6108
50.1538
50.8832
57.0054
66.8104
71.1669
69.1726
54.5148
101.184
128.122
73.4656
53.7437
65.3401
234.04
54.3678
491.184
50.3215
69.792
58.7332
59.0614
68.2782
51.6456
51.7776
51.3148
69.0623
94.1626
63.7035
100.628
55.0138
47.9577
57.3574
53.8575
49.6851
50.292
49.2386
49.4736
48.1197
48.2657
100.038
100.693
70.3857
237.677
58.4554
57.0242
180.391
79.4786
389.721
569.286
860.928
402.051
207.132
51.5817
59.6164
52.5367
48.3411
96.75
69.8774
50.3373
49.5808
49.8455
1300.44
1123.43
52.2824
49.5067
277.633
51.4359
50.2497
64.9834
58.5105
191.001
49.7619
53.5032
53.8288
1403.77
765.08
596.458
986.003
55.4232
50.0915
49.4835
49.0314
49.2054
334.707
50.5251
50.6537
50.5367
64.3285
50.328
58.2814
56.4527
53.9817
50.9534
52.5542
72.789
49.8095
336.335
814.369
896.342
49.5153
756.175
1285.14
48.9313
62.9917
1118.05
973.325
1069.24
109.105
82.1875
65.3397
812.683
1468.3
81.253
49.4564
54.5744
1337.72
945.725
62.6748
60.6669
73.8132
60.5889
50.1547
61.2016
50.852
48.7861
49.5958
49.1143
49.3776
61.9394
51.3343
53.9424
52.5963
52.9014
51.4393
56.09
113.335
52.3721
53.693
52.2165
52.5494
49.5864
54.3515
75.5432
48.5573
50.4122
48.5902
55.6185
51.3977
49.3565
49.6704
49.9761
56.1246
121.386
47.8043
99.0497
53.6987
50.4504
53.3706
378.7
125.599
49.8644
53.0646
48.4392
56.0067
50.6972
51.2637
52.7799
51.9025
48.8175
49.0118
50.333
52.038
59.5333
1706.43
52.8009
65.5203
55.592
52.2069
52.2036
58.7649
62.5197
64.6032
69.7616
52.9502
71.2235
64.9101
85.6973
53.1441
427.71
56.2191
48.9022
137.726
133.655
83.6561
70.1964
106.97
51.6919
48.0302
48.0291
57.7009
50.536
49.9711
50.0432
58.244
94.2465
86.0218
79.8817
50.0224
49.2018
48.9673
49.7342
51.3069
50.1807
50.5017
49.2222
49.4121
113.343
49.5934
49.8768
56.0872
62.6657
66.0148
63.4558
74.3606
51.1017
95.7078
93.7199
69.6518
59.0196
140.816
67.2362
177.438
68.0908
47.8719
57.9366
97.7042
56.6737
55.9825
49.6224
52.048
1036.97
49.9533
51.1456
88.9021
81.7908
106.263
74.9293
65.963
56.2236
68.7631
50.1203
48.7608
50.1269
107.885
49.7737
49.7167
50.1468
50.7077
104.85
48.7623
49.7822
114.39
48.8808
113.353
60.6517
59.5437
49.946
51.5067
50.1815
48.0358
48.6051
49.2325
47.7241
48.9549
59.1964
60.4833
52.5345
53.503
55.8901
57.2712
54.9527
57.5675
56.6392
50.3261
59.386
214.529
52.6436
53.5784
79.2852
115.841
52.1215
77.5526
539.261
54.326
1149.37
1539.38
130.873
1694.33
54.763
68.2771
49.2681
1124.47
167.31
194.831
80.6537
81.963
55.5499
52.5229
56.5019
54.3385
54.0601
908.683
319.228
98.4712
57.9377
1044.87
168.978
133.738
60.8958
61.1261
56.5878
97.9085
737.085
473.602
49.8178
60.7625
162.917
52.7418
81.0325
1100.19
201.085
394.468
71.0246
399.176
575.926
51.8798
1188.38
946.851
51.1204
53.5251
59.5234
55.1073
56.2205
57.3256
53.6385
53.0025
56.6562
48.744
49.5674
51.2601
50.7262
49.6869
57.2507
55.024
65.2209
301.415
454.916
658.315
59.801
61.8339
50.207
50.6176
53.6475
124.761
49.3849
57.0139
55.8638
57.3717
57.1119
56.2619
50.5045
57.8997
141.842
68.9677
56.7379
63.7108
59.515
59.1023
77.906
149.721
60.7149
68.8328
328.176
830.95
166.919
73.0026
57.334
55.8795
67.0657
100.529
60.3829
210.541
52.7571
64.6556
54.7648
121.385
69.7355
53.4485
52.4824
64.3339
76.4503
77.0775
52.4533
54.3989
62.6711
60.861
59.4174
60.0515
131.384
77.7934
55.3739
54.3033
77.5201
48.4767
51.5273
89.4855
48.9537
49.0611
48.4148
47.7412
48.1686
50.6892
49.2004
50.763
53.2108
81.3512
58.9861
54.831
101.356
935.931
51.3963
56.1784
50.7602
79.7985
1025.13
60.3829
107.221
59.3094
54.1381
71.401
62.2128
57.1917
61.0529
60.0278
58.2513
64.6822
69.0822
71.482
59.9346
73.4529
59.111
53.3665
48.7056
49.4147
149.123
129.506
83.3358
63.2224
68.6694
109.27
98.5572
57.7453
48.7041
58.4962
58.1325
52.1728
50.4692
58.1621
49.4364
92.258
62.2842
116.479
97.9305
54.9561
54.1404
73.7561
116.9
56.5425
53.2654
50.7113
54.2542
53.8365
54.2629
54.3277
54.1631
1055.14
50.4733
47.4918
48.832
49.9682
48.4725
52.0563
62.5869
58.888
50.2386
57.1898
63.5929
141.781
78.3635
1055.27
821.05
49.0833
991.546
48.8302
50.2542
50.9286
57.9133
50.7426
51.6775
49.9866
50.1638
49.6712
56.7999
49.9678
51.226
50.8341
49.9157
55.195
56.3887
56.8423
55.7469
50.1207
49.9373
366.82
62.5462
57.3717
49.3261
50.5151
51.0927
53.7093
231.71
68.672
73.6054
55.8696
57.343
67.6081
60.1686
114.762
50.2611
174.231
60.2246
126.883
429.795
60.6957
56.1985
74.6401
307.34
57.4296
65.7865
51.6614
64.021
66.8313
70.4531
70.24
150.809
779.251
62.9626
56.253
83.0273
66.7728
78.9557
169.506
422.928
1013.66
59.5498
162.337
82.7565
50.5181
878.375
782.136
50.1801
49.9936
80.2238
124.129
104.969
718.073
54.8658
126.591
59.5851
875.202
58.8327
498.059
85.3127
80.9111
106.61
158.963
108.306
166.829
62.9641
67.1197
69.2569
171.955
73.7833
65.782
99.9057
58.0238
155.884
177.042
85.8179
60.31
148.76
59.1075
60.8515
216.256
217.994
58.7814
1260.56
52.3203
53.2498
74.9951
53.8653
62.1202
64.178
56.5722
61.7002
58.9684
59.7026
91.6664
59.0134
131.414
75.3925
160.961
191.406
56.3477
56.6986
53.8749
55.5052
59.7973
113.711
62.0381
50.4979
355.94
61.592
105.914
62.4401
100.229
88.7558
50.3591
50.6618
61.0024
65.5603
53.1418
51.3676
673.288
60.0181
1097.56
52.2072
102.972
50.8266
864.376
86.7865
49.0689
374.296
96.7878
432.834
101.011
66.5905
97.2823
110.727
63.3499
75.302
122.221
126.136
123.612
51.053
758.206
52.006
52.9782
72.2659
60.0408
101.012
64.1016
57.7791
51.8675
54.2
52.6066
58.3999
118.564
138.162
74.521
71.4832
70.5336
70.4308
416.033
90.8641
57.7937
120.239
66.899
580.552
74.0142
101.634
220.269
108.106
74.9635
105.01
104.649
52.4237
51.6334
60.8947
62.205
95.2443
117.918
67.5031
107.138
51.2606
56.5537
56.8511
57.4856
55.0593
71.9631
61.268
55.4548
138.036
90.9296
61.3426
69.1733
170.961
192.855
136.127
55.072
55.109
107.504
76.6784
135.336
75.4937
91.7687
157.446
178.253
59.7423
63.6025
66.9717
60.4087
94.7977
830.029
105.058
66.5072
61.2168
210.861
141.088
610.15
299.277
319.535
52.9095
50.5863
89.4989
71.9742
101.178
53.6827
105.702
97.0772
54.4641
91.0756
122.631
50.364
71.6315
121.094
63.5515
132.044
57.8621
57.1507
128.093
56.1737
67.9498
106.038
59.3189
57.4118
51.4998
119.057
52.701
49.6721
67.6079
62.9106
51.0813
72.0512
78.022
52.3153
51.9134
62.3405
140.559
61.1936
73.0706
83.3521
67.6099
53.6394
55.0874
79.6814
51.9648
55.0453
107.817
240.828
113.23
87.6966
85.8878
51.2537
82.722
70.9428
586.649
52.4561
73.4491
68.2477
53.8548
54.3974
50.1985
131.415
142.467
85.5572
70.687
50.2537
50.2459
58.1863
158.423
157.085
125.205
54.6563
69.619
55.52
130.036
92.8162
131.588
335.599
108.972
114.271
84.4582
68.4748
66.3855
51.4064
1330.33
237.608
49.9141
76.8844
53.5934
55.727
61.0142
59.8109
65.3808
50.9437
68.8944
111.637
50.3286
50.2062
49.8417
68.7066
50.6287
53.2337
66.5535
52.494
330.41
51.6203
47.5788
52.7071
83.6436
49.0335
47.7543
49.6577
48.9195
51.2731
51.5067
53.6339
57.0432
77.2716
53.2654
64.1386
523.757
49.8637
77.5235
54.0061
60.0556
52.873
48.7931
52.3695
48.5132
654.118
335.782
53.6447
54.8213
72.1614
350.737
59.9497
281.654
402.591
75.1632
74.5615
386.052
55.7817
68.0294
139.711
133.392
1482.78
823.415
443.549
234.061
564.307
691.959
752.847
170.641
1114.86
1713.63
404.244
710.018
668.412
82.9446
80.7557
80.3818
65.9458
56.0876
64.205
74.2417
78.512
61.9723
65.1229
64.5761
653.753
450.646
557.25
325.491
320.952
496.145
422.347
405.93
466.614
1275.43
719.579
60.9755
57.4301
80.8496
215.031
487.951
322.91
175.827
151.496
70.5539
53.131
65.9506
52.0458
57.8017
59.121
61.2643
62.1819
63.3481
64.0126