/*--------------------------------*- C++ -*----------------------------------*\
| =========                 |                                                 |
| \\      /  F ield         | OpenFOAM: The Open Source CFD Toolbox           |
|  \\    /   O peration     | Version:  2506                                  |
|   \\  /    A nd           | Website:  www.openfoam.com                      |
|    \\/     M anipulation  |                                                 |
\*---------------------------------------------------------------------------*/
FoamFile
{
    version     2.0;
    format      ascii;
    arch        "LSB;label=32;scalar=64";
    class       volVectorField;
    location    "0.0263738";
    object      U;
}
// * * * * * * * * * * * * * * * * * * * * * * * * * * * * * * * * * * * * * //

dimensions      [0 1 -1 0 0 0 0];

internalField   nonuniform List<vector> 
3975
(
(11.7141 0.475556 0.186119)
(10.4078 -0.140274 -0.0142765)
(10.4798 -0.0767477 0.0227797)
(10.5006 -0.451472 0.128816)
(10.4995 -0.42242 0.0909834)
(11.4343 0.82068 -0.592901)
(10.2959 -0.770364 0.258262)
(10.3312 -0.76692 0.380288)
(10.7306 -0.405156 0.181813)
(10.7594 -0.220556 0.0575889)
(10.9076 -0.202769 0.132211)
(10.214 -0.119142 -0.00418008)
(10.6797 -0.298686 0.0616198)
(10.3873 -0.0149288 0.0897124)
(10.6922 -0.230571 0.0495864)
(10.8206 0.0433022 0.0910747)
(10.3577 -0.00840312 -0.0156171)
(10.903 -0.319927 -0.16551)
(10.5468 0.0270299 -0.0110482)
(10.5509 -0.0390081 0.0190628)
(10.3786 -0.0103781 0.1229)
(10.7842 -0.26654 -0.0726688)
(10.5756 0.0018218 -0.0270452)
(11.3251 0.250737 0.64489)
(11.3937 0.263556 0.512263)
(10.4325 -0.575997 0.047122)
(13.6552 1.09293 -0.0706166)
(11.0021 0.0602712 0.321126)
(10.8128 -0.619574 -0.424191)
(10.3922 -0.0812641 0.0633618)
(10.4117 0.813827 -0.199056)
(10.5106 0.125542 0.00129821)
(10.2496 1.41869 -0.681988)
(10.6643 0.619874 -0.300003)
(10.6342 0.582082 -0.175374)
(10.7585 -1.3156 0.57545)
(11.2011 0.524692 -0.157152)
(10.8515 0.50186 0.0179232)
(10.8377 0.618818 -0.309242)
(10.8032 0.648149 -0.340971)
(11.0327 0.576061 -0.3017)
(11.0862 0.602082 -0.409281)
(10.9844 0.623735 -0.477779)
(10.6936 0.293007 0.0364467)
(11.5618 0.411108 0.310395)
(10.6742 0.174667 0.0364161)
(10.8104 0.0702799 0.0715626)
(10.7531 0.080779 0.041883)
(11.6752 1.64866 -1.15645)
(10.498 -0.235311 0.00888758)
(10.343 -0.174367 0.00153968)
(10.9956 0.296369 0.113305)
(10.2092 1.28721 -0.904852)
(12.4235 1.06445 0.0378514)
(12.5076 0.688762 0.357504)
(12.4401 1.39994 -0.043957)
(12.3827 1.27624 0.0359565)
(12.3773 0.993437 0.0718005)
(12.19 1.09467 -0.0397648)
(12.053 0.355969 0.2611)
(11.7837 0.492238 0.0295295)
(11.7814 2.07709 -0.989619)
(12.4088 0.164847 0.270119)
(11.7283 0.820148 0.026419)
(10.61 0.283795 -0.169211)
(12.468 1.00211 -0.519548)
(10.2131 1.4744 -0.946369)
(10.4964 0.210644 -0.172082)
(12.5229 1.18729 -0.804305)
(6.10518 1.57939 0.428918)
(5.9877 1.58576 0.299716)
(5.23153 1.37639 -0.166326)
(9.82667 1.69653 1.01664)
(10.4823 -0.0728062 0.093688)
(11.6323 0.527185 0.0549734)
(11.7972 0.542622 0.350681)
(11.5777 0.468101 0.152908)
(11.6531 0.500625 0.263514)
(11.8191 0.601673 0.190658)
(11.7052 0.539277 0.100303)
(10.8477 -0.176729 0.148417)
(10.3664 -0.11592 0.0207324)
(10.4787 -0.021499 -0.00768831)
(10.4438 -0.000866206 -0.0175912)
(10.576 0.177703 0.0208613)
(12.2078 -0.32225 0.41225)
(11.4041 -0.902099 -0.203083)
(11.1483 0.706468 0.18959)
(10.3289 -0.10774 0.0463929)
(10.2246 -0.156595 -0.0170385)
(10.6233 -0.401358 -0.113224)
(10.5476 -0.146298 0.0337294)
(10.4814 -0.000282418 0.0932712)
(10.6129 -0.0162022 -0.0319601)
(5.71321 2.93655 -0.893791)
(11.3413 0.406244 0.10547)
(11.3439 0.375671 0.156172)
(11.3357 -2.39721 3.13732)
(10.6307 1.183 -0.799711)
(12.0717 1.80658 -0.047264)
(10.7586 0.108875 0.0714417)
(12.4646 2.51786 -2.32491)
(10.4343 1.40185 -1.07262)
(10.3661 2.09749 -1.09891)
(10.789 -0.237847 0.24854)
(10.5879 0.00383198 0.0287139)
(11.6377 0.40381 -0.208336)
(11.3011 0.803088 -0.73986)
(11.3481 0.896411 -0.787803)
(11.5126 0.855142 -0.70844)
(10.4935 -0.0865895 -0.00288151)
(10.3559 -0.00292645 -0.0350262)
(10.397 -0.00293559 -0.0150458)
(10.3739 0.0178047 -0.0468076)
(11.0044 0.0223986 0.326981)
(10.177 -0.105913 -0.0230001)
(10.1427 -0.066487 -0.0661228)
(10.1379 -0.028446 -0.128534)
(12.4925 1.28664 -1.94649)
(10.4287 2.32863 -1.33983)
(10.3576 0.685447 -0.167565)
(12.6581 1.12497 -1.6141)
(10.4966 -0.167875 -0.0684903)
(12.4289 0.950606 -1.26778)
(12.2002 0.82886 -1.28574)
(12.5272 1.2139 -1.79844)
(10.26 -0.0496017 0.0587327)
(10.2936 -0.113628 0.0523043)
(10.2822 0.0223665 -0.00575327)
(10.2082 0.0428971 -0.00255117)
(10.3284 -0.0167115 0.0262835)
(10.3413 -0.0785269 0.0203504)
(11.3489 0.539187 -0.284285)
(10.71 0.665975 -0.351683)
(10.9239 0.575877 -0.593299)
(11.0267 0.660117 -0.560087)
(10.4438 0.0117556 0.0956779)
(10.5807 -0.00839983 -0.049581)
(10.3919 0.0345903 -0.0327892)
(10.6297 -0.736181 0.239041)
(10.8227 0.780264 -0.529083)
(10.8129 -0.412132 0.193801)
(10.7163 -0.31937 0.412247)
(10.6342 -0.0972075 0.0677468)
(12.4543 2.02722 -1.07279)
(10.3985 -0.224707 0.0259316)
(10.3362 -0.401846 0.00369678)
(10.326 -0.00355891 -0.00462759)
(10.6837 0.746735 -0.72824)
(10.6097 -0.0245065 -0.0600275)
(10.8002 1.19726 -1.17874)
(10.2286 -0.00734779 0.0698152)
(10.3725 0.0407126 0.0808189)
(11.6703 0.826254 -0.65567)
(11.0811 0.916962 2.13847)
(10.0469 1.91147 -1.314)
(11.0752 -0.0509563 0.344263)
(10.5008 0.0616372 0.0451588)
(10.8164 0.319968 0.100827)
(10.8473 -0.23793 -0.0993983)
(10.945 -0.250241 0.0325403)
(10.5728 0.107457 0.04664)
(11.6711 -0.79306 0.506347)
(10.4025 -0.233136 0.0272697)
(10.9316 0.172344 0.143379)
(11.8748 -0.691682 0.471271)
(11.5345 -0.0295785 1.10144)
(7.07248 1.81198 0.365044)
(10.5174 -0.0708876 -0.00813456)
(10.7748 -0.351662 -0.0682075)
(10.8739 0.697587 0.13814)
(10.7266 0.323635 0.0553648)
(11.4538 0.319636 0.122034)
(11.2885 -0.915737 -0.533085)
(6.90448 1.43028 0.206131)
(10.9732 0.123641 0.0879866)
(11.2596 -0.261837 0.694089)
(10.5735 0.513834 -0.0401995)
(11.253 1.72357 -2.22206)
(10.512 -0.0456107 0.00344851)
(10.9277 -0.100055 0.489127)
(10.4219 -0.167219 -0.0739577)
(12.3659 1.27913 -1.66319)
(12.4665 1.42645 -1.42277)
(10.5039 0.228156 0.0993652)
(11.0506 0.269153 0.181274)
(11.8131 0.398402 0.855355)
(11.7958 0.326835 0.677706)
(10.9608 -0.535932 1.05754)
(11.7622 -0.205946 1.18379)
(11.5519 0.171642 0.411505)
(11.0386 0.117177 0.228801)
(10.3941 -0.0772916 0.128314)
(10.7503 0.27278 0.0164115)
(11.6324 0.943213 0.0284389)
(10.7736 0.494482 -0.0580665)
(10.845 0.0817065 0.0174329)
(10.8482 0.101427 0.109668)
(10.9255 -0.039744 0.259815)
(10.5585 -0.177171 0.0788613)
(10.3144 -0.0791169 0.0246924)
(10.7949 0.104179 0.0525483)
(10.4488 -0.0861723 0.0962493)
(10.5794 0.266374 -0.00736992)
(10.4974 0.0770651 0.0437507)
(10.561 0.0673441 0.0451752)
(11.5482 0.356659 -0.0934202)
(5.01556 1.21847 -0.728868)
(10.7293 -0.365982 0.522481)
(4.06101 0.928764 -0.0155282)
(10.8466 -0.612827 -0.193894)
(11.3001 -1.51627 0.903752)
(11.1275 1.0649 0.153582)
(10.6694 -1.15723 0.656392)
(10.3963 -0.107638 -0.0484906)
(10.7863 0.626666 0.0121089)
(11.3256 0.560595 -0.0509881)
(10.5106 0.0993381 0.0506406)
(10.4308 -0.133765 0.0331948)
(11.2555 1.55404 -0.548892)
(10.6671 0.0026169 -0.0682097)
(11.1994 -1.12089 0.658466)
(10.8771 -0.13685 0.237722)
(11.6883 1.22904 -0.247223)
(11.5831 0.518122 0.242486)
(11.7227 0.486621 0.569623)
(4.26316 0.764927 -0.00340945)
(10.5234 -0.305888 0.0650237)
(12.1808 1.54807 -2.02196)
(10.6589 0.109951 0.0371698)
(10.1561 0.03705 0.0483403)
(10.842 -0.18528 0.369239)
(10.4765 -0.833958 -0.259349)
(10.307 -0.0119745 -0.00861789)
(10.5257 -0.244952 0.0597057)
(10.4572 0.528742 -0.0165063)
(10.3295 1.50203 -1.58536)
(11.7581 0.801352 -0.480867)
(12.5673 1.02273 0.442474)
(10.8783 1.72938 -1.69969)
(10.817 -0.052886 0.0604149)
(9.35229 3.96009 -1.8547)
(10.6838 0.707808 -0.0655074)
(11.1387 -1.52195 1.02386)
(10.2929 -0.135437 0.0328436)
(10.4332 4.41954 -2.70246)
(11.5078 1.28194 -0.189222)
(10.691 2.29332 -1.5489)
(11.5101 1.82353 0.488522)
(10.553 0.471049 0.0538141)
(11.0226 0.134927 0.126931)
(10.6812 0.0465478 0.0531802)
(11.0571 1.42765 -1.86582)
(6.25299 1.15483 0.173626)
(10.8809 0.487948 -0.0760723)
(10.6641 0.48054 -0.0767566)
(11.1564 -0.913232 1.38815)
(11.7346 1.7053 -2.33981)
(9.10521 0.508471 0.841417)
(11.5564 2.08782 -0.611315)
(10.6059 2.10749 -2.77542)
(12.7884 1.45197 -2.80689)
(10.5001 -0.632437 -0.123383)
(11.7489 0.510978 0.103409)
(12.2945 1.06926 -0.371997)
(10.2189 1.60392 -1.07965)
(6.79232 0.86514 -0.218675)
(10.554 0.213182 -0.165801)
(11.5902 0.438972 -0.333611)
(10.4244 -0.00410275 0.000863487)
(10.88 -0.477959 1.00435)
(10.3472 0.006723 0.0939625)
(10.2986 -0.00898309 0.0933328)
(10.4716 -0.076397 -0.0352133)
(10.2536 -0.020964 0.0156132)
(10.7351 0.400087 -0.00613735)
(10.3059 -0.0171 0.023935)
(11.41 0.535378 0.109984)
(3.08079 0.727956 0.0531045)
(12.3188 0.931894 -0.541108)
(12.686 0.590772 -2.9153)
(11.4189 0.451402 0.226865)
(11.4267 0.438956 -0.408251)
(10.6555 -0.0315274 0.0443476)
(11.2017 0.0951796 0.307016)
(11.1021 0.240437 0.0887765)
(12.4559 1.57992 -0.63928)
(10.8637 -0.0539705 0.138869)
(7.78264 0.183868 0.976442)
(10.341 -0.0100666 0.062987)
(10.3729 -0.0222746 0.0906582)
(9.77764 1.53186 -1.57826)
(11.0955 0.560066 -0.205232)
(10.3946 2.86449 -1.80984)
(10.4903 -0.89933 0.471952)
(10.6108 -0.931065 0.581731)
(10.6044 -1.15103 0.654317)
(10.5687 -0.839098 0.620313)
(10.6061 -1.60368 0.415442)
(10.2166 -0.195123 -0.0733594)
(10.9231 -1.64858 0.422717)
(10.7114 -1.61438 0.231251)
(10.8694 0.60378 -0.293626)
(11.4635 0.0727375 1.14139)
(11.8914 0.552518 0.801233)
(11.3783 -0.0788901 1.19166)
(11.6269 -0.304012 1.28136)
(11.8403 -0.145895 1.46947)
(11.9776 0.201581 1.22923)
(11.1137 -0.615465 0.924982)
(10.8673 -0.0126058 0.141443)
(10.8484 0.0127802 0.105804)
(11.2441 0.240301 0.310167)
(10.9425 0.268814 0.126256)
(10.9128 0.244386 0.0967883)
(11.3621 -0.859227 1.4472)
(11.3762 0.151054 0.714836)
(10.9728 -0.797259 0.933651)
(10.8202 -0.190286 0.229574)
(10.8093 -0.167617 0.180842)
(10.7826 -0.0584264 0.0805301)
(10.7983 -0.0228124 0.124416)
(10.7961 -0.0952071 0.23489)
(10.7638 -0.155613 0.293548)
(13.4927 1.1052 0.219772)
(11.0348 0.0475271 0.649943)
(10.9555 -0.0301877 0.496681)
(10.747 -0.162175 0.30446)
(10.5679 -0.120505 0.0517548)
(12.0338 0.694045 0.518404)
(11.5935 0.493909 0.223376)
(11.5428 0.535 0.190512)
(11.5184 0.529885 0.116592)
(11.5255 0.493581 0.171177)
(11.9036 -1.42808 0.486036)
(11.2987 -0.397728 1.30603)
(11.0663 -0.785916 0.999833)
(11.5736 -0.307841 1.56176)
(11.8712 -0.875465 1.77818)
(11.5886 -0.644252 1.9577)
(11.7888 -0.713858 0.92094)
(12.0844 -0.972594 0.880359)
(11.6108 0.197463 0.731552)
(12.0875 -0.558956 0.575434)
(11.8565 -0.532872 0.755506)
(10.3226 -0.0932412 0.0301821)
(10.7028 -0.338368 0.0173395)
(10.9733 -0.522413 0.182056)
(11.0851 -0.124907 0.127553)
(10.7602 -0.145989 0.0419047)
(11.5533 -0.602648 1.40126)
(11.2594 -0.654036 0.887128)
(11.0133 -0.831941 1.19651)
(10.9197 -0.86798 1.18232)
(10.918 -0.722498 0.598242)
(10.5694 -0.61036 0.571467)
(10.6685 0.15665 0.0338186)
(12.1643 1.47963 -0.22017)
(10.9422 -0.704618 0.0564166)
(10.648 -0.373332 0.24299)
(11.2346 -0.448201 0.296918)
(12.2159 4.75718 -3.83324)
(11.5694 1.28926 -0.333629)
(10.486 -0.394208 -0.0844846)
(10.528 -0.402539 -0.0982693)
(10.5723 -0.381579 -0.0972959)
(11.3461 -0.742066 0.740074)
(10.5202 -0.376429 -0.0886613)
(10.4117 -0.341091 -0.0942609)
(10.3591 -0.316539 0.04934)
(10.4005 -0.332298 0.0789643)
(13.0051 0.218747 0.516663)
(11.1512 -0.21008 0.374278)
(11.6115 0.416447 0.378204)
(10.5309 -0.020652 0.0408197)
(11.697 1.01095 -1.64943)
(10.2927 -0.238002 0.0458582)
(7.88079 2.53909 -0.62983)
(12.7285 1.13359 -1.44319)
(10.4953 2.16564 -1.67456)
(11.8482 1.64075 0.281657)
(12.4193 1.16906 -0.168499)
(10.4588 -0.376062 0.0611711)
(11.8547 -0.508332 1.87768)
(12.4048 1.08343 -0.0996794)
(12.367 1.03197 0.224579)
(10.319 -0.070811 -0.0182805)
(13.0732 -0.307919 0.395147)
(12.3564 1.11513 0.0517005)
(12.1175 0.749802 0.647123)
(11.3882 0.323503 0.18711)
(10.8272 -0.088798 0.00459059)
(12.2259 0.842608 0.520729)
(11.4745 -0.110379 0.034191)
(10.281 -0.115519 0.0172401)
(10.4197 0.0270596 0.0809108)
(11.3781 0.424731 -0.037456)
(12.1076 1.19522 -0.236401)
(11.4129 0.449226 0.0412718)
(11.4667 0.498698 0.0147045)
(10.7663 0.688267 -0.24394)
(11.5849 0.418278 0.0207489)
(11.4099 0.36424 -0.0105105)
(11.2758 0.205777 0.248346)
(11.5312 0.640328 -0.276274)
(11.2256 0.161136 0.348052)
(11.6232 0.272396 0.556145)
(11.6497 0.51768 -0.146864)
(11.6719 0.487548 -0.0955872)
(11.1592 1.02004 -0.595067)
(11.499 0.478257 -0.0885884)
(11.4924 0.288942 0.539002)
(12.4289 1.75438 -1.17955)
(11.7063 0.627728 2.00131)
(10.4053 -0.139188 0.00329197)
(5.17889 0.497592 -0.0217457)
(11.2756 0.175231 0.539636)
(10.8023 0.0106321 0.0879554)
(11.7931 0.49562 1.20708)
(11.3549 0.225926 0.523396)
(11.0259 0.0548008 0.433045)
(11.2227 0.148109 0.588428)
(10.6704 -0.524092 0.172041)
(12.3137 1.08017 0.81561)
(11.9693 0.418445 1.50864)
(12.0478 1.12072 0.822782)
(11.0134 0.00321894 0.722238)
(12.2036 0.922054 0.649867)
(11.0152 0.28896 0.135948)
(11.8151 0.801109 1.23009)
(11.6226 -0.572311 1.36404)
(10.5195 -0.584795 0.514116)
(10.6751 -0.334544 0.596486)
(12.1178 1.44417 0.858866)
(11.5064 -0.301917 0.885711)
(10.4613 -0.156921 0.0181873)
(10.5628 -0.865978 -0.0621117)
(11.3676 0.347296 0.0678127)
(12.181 0.694442 1.10038)
(10.6144 -0.33987 0.559966)
(10.5702 -0.14113 0.039615)
(11.4089 0.235568 0.669224)
(13.099 -1.15428 0.226511)
(12.2771 1.53799 0.253491)
(11.7566 0.744467 0.334497)
(11.1092 0.0851617 0.592791)
(10.8514 -0.0954003 0.223941)
(12.0974 1.05873 -0.294938)
(11.6492 4.30854 -0.569066)
(11.0409 0.125533 0.332731)
(10.9093 0.264189 0.170849)
(10.5567 -0.471204 0.33303)
(10.9202 0.349037 0.108963)
(11.0736 0.204149 0.284852)
(11.6398 -0.923566 1.26281)
(10.8773 -0.235402 0.0648049)
(11.5851 0.491167 0.300233)
(10.9736 0.0235772 0.170083)
(11.3799 0.539905 -0.0633569)
(11.0426 -0.154269 0.25038)
(10.4441 -0.166738 0.0910187)
(12.6511 -1.4144 0.43662)
(10.924 -0.152133 0.214985)
(10.8864 -0.0318263 0.151339)
(12.1675 0.675016 0.346562)
(10.7683 -0.582046 0.0267504)
(10.8634 0.50806 0.060049)
(10.5143 0.297314 -0.0427282)
(10.4663 -0.394522 0.136857)
(10.8127 0.0852467 0.072381)
(11.9297 0.683334 0.896253)
(10.7908 0.0320853 0.0587096)
(11.2189 0.108379 0.157723)
(10.8717 -0.885161 1.03433)
(10.8549 1.1513 -0.274875)
(12.0433 3.86885 -3.78495)
(11.1105 -0.251181 0.174689)
(11.0173 -0.396184 0.198544)
(11.1325 0.0159726 0.282667)
(10.8755 -0.0367935 0.209711)
(10.7478 0.239699 0.018238)
(10.9137 -0.139871 0.0905348)
(10.5258 0.0221931 0.0213297)
(10.9411 -0.561473 -0.150638)
(10.4964 -0.200864 0.067069)
(12.0035 0.751806 0.763283)
(11.9538 -0.362469 1.32363)
(11.6722 -0.45672 1.52451)
(6.33103 1.51089 0.456699)
(11.2576 -0.782456 1.52917)
(11.1625 0.799444 -0.867801)
(10.9945 -0.195161 0.426042)
(10.922 0.0681269 0.225489)
(12.0385 0.630528 1.33871)
(10.5504 -0.0270462 -0.0112372)
(10.3807 -0.629116 0.151616)
(10.8478 -0.549908 0.164564)
(10.6848 -0.520648 0.395876)
(11.4153 -0.997241 0.458472)
(11.579 0.770291 1.50044)
(8.23349 1.41187 0.484548)
(10.7124 -0.250796 0.150265)
(11.1604 0.271853 0.153736)
(10.7898 -0.772907 -0.311497)
(10.6266 -0.24832 0.0789539)
(11.0529 -0.292804 0.177868)
(11.4014 0.245878 0.561725)
(10.1184 1.16373 2.88267)
(10.5714 -0.849027 0.201136)
(11.4949 -0.304752 -0.0484989)
(11.0454 2.16755 -1.34449)
(11.0581 0.621558 0.106646)
(11.0187 1.40955 -0.827919)
(7.78776 2.59068 0.854347)
(10.3255 -0.0944917 0.0328336)
(10.3655 -0.105576 0.00778197)
(10.5856 0.360462 -0.0496802)
(10.778 1.37711 -1.56317)
(10.663 -0.120676 0.0596341)
(10.9961 0.359599 -0.00320348)
(10.9078 -1.1128 0.57158)
(10.9099 0.56766 -0.0852851)
(11.9259 -0.269881 0.843779)
(12.0503 -0.626734 2.77432)
(9.54789 4.72805 -3.83948)
(12.3476 1.04736 0.179753)
(11.0044 2.49427 -1.71255)
(7.4759 2.39982 -0.284832)
(10.7987 0.977169 -0.167504)
(11.311 0.723435 -0.308768)
(10.5611 0.96064 -0.00897197)
(11.7211 0.57215 0.140133)
(10.428 0.633873 -0.0970456)
(10.6683 0.423457 0.0677028)
(11.0921 1.52686 -1.98307)
(11.4967 1.0408 -0.713534)
(11.0866 1.38369 -0.526863)
(10.9696 0.0409255 0.0522691)
(5.88145 5.58069 -2.59032)
(11.604 -0.275536 0.58451)
(11.0934 0.348966 0.140194)
(11.1013 -0.00141049 0.0969766)
(10.6111 -0.331557 0.0452597)
(12.4987 1.60206 -0.110015)
(11.6969 0.714283 0.324443)
(8.61708 1.38352 0.363377)
(11.235 1.27154 -1.24106)
(6.40881 3.96336 -1.14377)
(11.7399 1.25585 0.0876915)
(11.5442 0.186855 0.362411)
(11.9895 0.811275 0.858444)
(10.5704 0.709945 -0.0853836)
(11.5132 -0.604917 0.687864)
(11.3846 -0.449316 -0.0914499)
(11.7164 -0.900331 1.52627)
(12.4368 0.890301 -0.170003)
(11.28 0.247345 0.316655)
(11.2307 0.436376 0.0326206)
(10.6978 0.624085 -0.0929964)
(11.3661 0.320333 0.311758)
(10.4001 0.00459813 -0.0808045)
(11.6143 1.04228 -0.365115)
(12.2208 2.13218 -1.59235)
(12.5632 2.92592 -2.56829)
(11.6682 1.51845 -1.10297)
(12.7345 2.54729 -5.46724)
(5.006 1.35448 0.0293928)
(12.2839 0.7421 1.14299)
(9.72475 2.29802 -1.35845)
(5.93722 1.14741 0.524912)
(10.6064 0.00913493 0.0335988)
(10.9828 0.616432 0.133666)
(10.6355 0.160789 0.066868)
(10.7087 -0.0124754 0.0523369)
(10.7911 0.780491 0.0115016)
(10.6395 -0.124631 0.076113)
(10.7244 0.0395567 0.0247425)
(11.0806 -0.806154 -0.0921046)
(10.639 0.199566 0.0368049)
(10.4849 0.358155 -0.0850479)
(10.7159 0.334338 0.0813384)
(10.6344 0.315601 -0.103576)
(11.8236 1.56845 -0.916173)
(10.6053 0.490602 -0.00740738)
(10.6595 -0.0481365 0.0310893)
(10.6801 0.36023 0.0577105)
(10.5103 0.455911 0.0463233)
(11.0282 -0.0674749 0.0854086)
(9.9925 1.34645 -0.866449)
(10.9287 1.62701 -0.729325)
(10.8942 -0.206045 0.804104)
(11.1447 0.315193 0.173425)
(11.0188 0.625219 0.0675339)
(12.1365 0.270421 1.36309)
(10.8286 0.258187 0.0138541)
(10.3759 0.0806736 0.0903614)
(10.6877 0.024519 0.0618058)
(10.4354 -0.068296 0.0216763)
(10.8356 0.255878 0.10738)
(11.1581 0.57393 0.173697)
(10.888 -0.0823531 0.236329)
(10.5316 -0.458158 0.302407)
(10.1716 -2.82211 4.81713)
(10.6726 1.9173 -3.49829)
(11.7921 0.206725 0.602809)
(12.1964 -0.190038 0.407084)
(11.0405 0.146113 0.27323)
(11.2997 0.0684844 0.755017)
(11.2877 -0.714376 0.643109)
(11.6684 0.141298 0.804879)
(10.9501 1.49249 -2.26689)
(11.9775 0.372228 0.247743)
(10.8234 0.173345 0.0497959)
(10.7911 -0.13107 -0.0196305)
(10.5773 0.0246712 0.0551769)
(10.4402 -0.109732 0.0858366)
(11.0494 0.766815 0.0997418)
(10.4612 -0.19845 0.0324597)
(10.4713 -0.140058 0.0745934)
(11.2675 0.175653 0.0377946)
(10.899 -0.0828732 0.0503429)
(10.8441 -0.0207703 0.0417586)
(11.0988 0.278473 0.15289)
(10.7153 0.276856 0.0430169)
(10.4579 -0.194532 -0.0365506)
(10.4449 -0.215222 0.0133672)
(11.332 1.65984 -1.26737)
(11.0431 0.396243 0.185458)
(10.5993 0.0500127 -0.219386)
(10.5088 0.153936 0.10456)
(10.9003 -0.0245832 0.255822)
(10.7534 0.021825 0.031337)
(10.4953 -0.067885 0.0329649)
(11.1798 -0.206469 0.175085)
(10.7769 0.245517 0.0692619)
(10.7102 0.19643 0.0107132)
(10.9859 0.318443 0.14159)
(10.5205 -0.12292 0.065911)
(10.3477 -1.21232 -0.0525671)
(10.5394 0.00819726 -0.0283846)
(10.9831 0.329885 0.159944)
(10.8637 -0.0245256 0.159697)
(10.4507 0.0421802 0.0495134)
(11.2715 0.536712 0.197509)
(11.0298 0.409143 0.144439)
(12.5214 0.88504 -1.19332)
(10.9653 0.433431 -0.209753)
(10.5763 -0.197233 0.110603)
(12.4847 2.71914 -0.0352388)
(11.9734 -0.360112 1.09926)
(11.0463 0.830159 -0.92506)
(10.481 -0.479511 0.543027)
(11.7643 1.40657 -0.207394)
(4.26957 0.135157 0.755541)
(11.9737 0.543429 0.251564)
(7.1259 0.68423 0.59959)
(12.3268 0.0287736 1.36143)
(8.81605 4.27263 -3.234)
(10.2246 2.06023 -3.00989)
(5.5523 0.450865 0.236572)
(13.1322 1.58521 -0.101066)
(5.05703 0.984853 -1.26648)
(11.4379 0.74086 0.070608)
(9.38314 2.85575 -0.213138)
(10.8298 1.92129 1.08216)
(9.90659 -1.37209 3.68175)
(2.57616 -0.687007 -0.401088)
(5.01344 0.911046 0.37318)
(10.8618 1.34652 0.0645376)
(11.1918 1.18348 0.0172813)
(11.408 1.41561 -0.0341098)
(10.7859 1.94909 -0.708579)
(10.5701 2.02613 -0.565856)
(10.6959 1.68045 -0.307211)
(10.4896 -0.0809722 0.104034)
(13.3533 1.6005 0.155452)
(10.9358 0.696336 0.141032)
(10.7722 0.464225 0.112691)
(10.5805 0.604513 0.0599443)
(10.9002 0.685968 0.0457078)
(10.6607 0.330115 -0.0279757)
(10.6788 0.202794 -0.122184)
(11.0344 0.402194 0.129664)
(10.3553 -0.188794 -0.059968)
(10.6398 -0.00427961 -0.0258169)
(11.0839 -0.281897 -0.143232)
(10.9616 -0.150225 -0.0999352)
(10.5598 0.141694 0.0300452)
(10.632 -0.478703 0.197627)
(10.3127 -0.0335646 0.0401355)
(10.7687 -0.403003 -0.190202)
(11.5472 1.88128 -1.95915)
(11.1377 1.13946 -0.302598)
(11.207 -0.554203 0.0883857)
(10.8009 -0.222888 -0.0892555)
(10.694 -0.212786 0.277222)
(11.4439 0.0234696 2.08158)
(11.8724 0.447504 0.13785)
(10.6111 -0.438601 0.363022)
(11.2043 -0.0157657 0.458742)
(12.1089 2.66144 -1.73231)
(10.7473 0.190898 0.0600319)
(11.3852 -0.21572 0.553098)
(3.47777 -0.35836 0.45905)
(10.4339 0.770104 -0.195694)
(11.8234 0.365391 1.01228)
(11.1706 -0.245144 0.744195)
(10.3947 -0.452289 -0.00343658)
(10.6138 -0.198296 0.0297357)
(12.5921 0.50661 1.23968)
(11.3974 0.364052 0.253842)
(10.8471 0.310178 0.0366081)
(10.856 -0.0508301 0.140704)
(11.4289 0.257628 0.174374)
(10.7394 1.21613 0.0336239)
(10.8783 -0.562129 -0.157657)
(11.2532 0.359768 0.0562342)
(10.9571 0.160262 0.127897)
(11.5559 1.65411 -0.64631)
(11.4605 0.375849 0.25343)
(10.6636 -0.396266 0.185069)
(10.1189 1.42198 -0.863861)
(10.6973 -0.0904172 0.0420263)
(10.6009 0.0461437 0.0688044)
(10.5315 0.0302222 0.0306483)
(10.6624 -0.135147 0.0418988)
(10.3455 -0.123783 -0.0315106)
(10.722 0.178851 0.0343349)
(10.5452 -0.198171 0.02761)
(10.5059 -0.0938038 0.0495241)
(11.5142 0.291217 0.605325)
(11.6088 0.901713 -0.186963)
(11.2761 -0.345015 0.271297)
(11.5854 0.64434 0.0809513)
(11.7564 0.366998 0.27518)
(10.2401 2.03993 -1.03028)
(11.0046 1.3384 -1.46324)
(11.2787 0.626952 -0.222111)
(13.7186 3.5262 -2.57063)
(10.99 -0.0648389 0.636605)
(12.8857 4.31491 -0.778713)
(11.5509 1.03202 -0.903995)
(11.6363 0.693617 1.25368)
(11.8078 -0.280065 0.694424)
(3.72023 0.184987 0.0345969)
(11.1132 1.05349 -1.09559)
(10.9382 1.11763 -0.269767)
(10.7754 -0.166885 -0.0126367)
(12.2055 0.903734 0.226872)
(10.5948 0.695105 -0.145193)
(13.2406 -0.222423 0.509764)
(11.4118 0.112678 0.271518)
(10.544 -0.0685909 0.0231331)
(10.7342 0.785146 -0.278117)
(11.8974 1.47171 0.326507)
(10.5216 0.0887491 0.0536674)
(10.9253 -0.440308 0.0401338)
(11.0128 1.12651 0.131726)
(10.6698 0.865246 -0.0624642)
(10.6615 0.0642598 0.0408696)
(10.7362 0.193501 -0.0298068)
(11.0993 -0.151569 0.162586)
(10.606 0.0666321 0.0313099)
(11.2017 0.294514 0.187924)
(10.8731 -0.524091 0.0404193)
(10.7436 -0.0669809 0.0283118)
(11.1355 0.207691 0.132055)
(10.7298 -0.0281829 0.0125224)
(10.715 -0.00106946 0.0449197)
(11.0842 0.319072 0.186995)
(12.8058 1.35233 0.094634)
(10.6611 -0.0277168 0.0408448)
(10.6308 0.0694593 -0.0294052)
(10.8692 0.0862486 0.0492008)
(11.1263 -0.0418233 0.936054)
(10.7598 0.0659069 0.0276005)
(10.4035 -0.731866 -0.0498894)
(10.5637 -0.0544897 0.0596805)
(10.6943 -0.249888 0.212939)
(10.9483 -0.0882427 0.651266)
(10.4055 -0.392653 -0.0545419)
(5.03122 0.400803 0.762148)
(12.3708 0.911973 -0.0277818)
(10.7494 0.292667 -0.0574924)
(10.5212 -0.192843 0.0768413)
(10.8898 -0.102805 0.451612)
(11.9466 0.8985 -0.737367)
(11.1683 0.237507 0.167418)
(11.1643 -0.334941 0.838035)
(10.9628 0.0943206 0.243388)
(11.4441 -0.179966 0.562058)
(11.674 1.0078 -0.0480334)
(6.34782 1.73729 -2.89531)
(11.1464 -0.0185905 0.200745)
(12.3003 0.628102 0.427493)
(12.3676 1.22961 0.0275572)
(10.3852 1.69974 -1.31757)
(11.7201 1.55607 -0.512983)
(10.8718 0.137289 0.112207)
(11.9375 0.649002 -0.446965)
(11.8233 0.563135 -0.235731)
(11.5148 -0.123725 0.350789)
(11.5138 0.712233 -0.363741)
(11.7959 0.993113 -0.46741)
(9.53901 3.51013 -1.30489)
(10.645 0.00775156 0.0430965)
(10.266 1.04297 -0.77124)
(10.5695 -0.0211944 0.053405)
(9.09812 -0.353734 4.76655)
(10.7136 0.317007 -0.00510485)
(11.6683 1.44074 -0.0103787)
(11.4713 0.522712 0.240038)
(10.4717 0.563242 -0.031282)
(12.5893 0.990681 -0.490406)
(12.531 1.80076 -0.175492)
(12.1815 0.335877 0.505295)
(8.9849 2.83731 -4.49882)
(11.5439 -0.750026 1.27268)
(12.4188 1.44782 -1.5409)
(11.6518 1.70979 -0.0935103)
(11.6826 1.51929 -0.33839)
(11.4768 1.06937 -0.979079)
(11.357 1.71258 -1.10447)
(11.7762 0.686642 -0.431373)
(11.4582 1.35229 -2.15586)
(12.1999 1.71144 -2.83384)
(11.9935 1.73002 -3.83529)
(10.5678 1.37843 -0.691858)
(6.22088 1.05831 -0.139382)
(12.3187 1.7499 -0.271136)
(10.4727 1.09409 1.72029)
(11.7393 1.97498 -0.67746)
(7.18159 2.75819 -0.418669)
(3.71848 0.946266 0.105587)
(10.3783 0.948422 -3.99454)
(12.3065 0.896106 -0.44551)
(11.0542 2.35128 -2.72647)
(10.7429 2.45317 -2.65623)
(3.49731 0.681435 -0.0287031)
(12.6533 2.4388 -3.33383)
(12.3631 1.97867 -3.25282)
(6.82851 1.16254 -0.223167)
(6.17349 0.44408 0.49443)
(9.21 2.8329 -2.71308)
(12.2614 1.71486 -1.50046)
(10.7026 0.799518 -0.551555)
(12.1442 0.781056 0.164336)
(12.161 1.44459 -0.904281)
(12.2693 1.64952 -1.32656)
(11.8218 0.981787 -0.635018)
(11.1466 1.14172 -0.703483)
(12.3361 1.19611 -0.00599184)
(12.3691 1.34614 -0.52917)
(11.9716 1.4983 -0.0657783)
(12.6888 1.74203 -0.52573)
(11.3231 -0.236371 1.41862)
(11.5264 0.245718 0.276534)
(13.0951 2.63841 -0.80841)
(13.0468 3.24228 -0.729522)
(11.1127 1.41106 -0.320405)
(11.3697 0.344977 -0.0494915)
(10.7616 0.573505 -0.426436)
(10.9134 1.26248 -2.17698)
(11.0918 1.05069 -1.55135)
(11.5321 0.991593 -1.47629)
(11.3481 1.03433 -1.39927)
(11.1724 0.864688 -0.0946879)
(11.2641 0.830005 -0.0303935)
(11.2016 0.162143 0.278083)
(10.9828 0.089819 0.14294)
(10.7304 0.486983 -0.0437344)
(10.7768 0.470786 -0.00832039)
(11.4162 0.634497 0.100308)
(10.966 0.0969445 0.182996)
(11.1052 0.715223 -0.128578)
(10.5664 0.919636 -0.18429)
(10.6686 0.656101 -0.10377)
(10.4732 0.860878 -0.179812)
(10.1017 1.63134 -0.621774)
(9.97713 1.58019 -0.631469)
(12.0097 0.754325 0.859952)
(11.3225 0.339686 0.209082)
(11.3396 0.257226 0.263888)
(11.2145 0.288366 0.0885433)
(11.7851 0.630497 -0.122608)
(11.1588 0.101419 0.0984539)
(10.9821 0.0374609 0.245041)
(10.5017 -1.47391 0.43301)
(10.9768 -0.735106 0.123808)
(11.0365 -0.487902 1.05389)
(11.4247 -0.379324 1.07147)
(11.2229 -0.475323 1.36927)
(11.1313 -0.846703 1.08657)
(10.9194 -1.20524 0.921283)
(11.3319 -0.323234 1.09663)
(11.3845 -0.441799 1.38707)
(10.724 -0.277323 0.707748)
(10.7803 -0.214898 0.459513)
(10.9388 -0.0124535 0.377673)
(10.4439 -0.107704 0.0410329)
(13.1504 0.759472 0.228158)
(11.7073 -1.22054 2.61216)
(11.2584 0.233562 -0.000412479)
(11.7374 -1.44717 2.63392)
(11.8823 -1.45322 2.43956)
(11.757 -1.19913 2.58988)
(11.2141 -1.51103 0.00734067)
(11.3872 -1.76128 0.164187)
(11.9522 -1.02437 -0.293838)
(12.0199 -0.926276 -0.0903018)
(11.2235 1.44859 -0.389253)
(11.4293 0.751325 -0.445939)
(11.2907 0.709291 -0.443893)
(11.0758 0.561867 -0.543336)
(10.2149 1.12265 -1.15811)
(10.5576 1.07647 -1.12919)
(10.4521 1.05977 -0.865046)
(10.1415 0.120169 0.07302)
(12.1577 0.935057 -0.872017)
(12.4368 1.25068 -2.25453)
(10.3977 0.772263 0.258248)
(11.3019 0.467971 -0.0130222)
(10.8094 0.512765 -0.0103633)
(11.191 0.428237 -0.288072)
(11.3701 0.491927 -0.284452)
(10.6351 -0.524531 0.365925)
(10.695 -0.420766 0.255607)
(11.2616 0.939203 -0.481678)
(10.3387 -0.127835 0.0282662)
(11.8759 1.36984 -1.12858)
(12.4749 1.26841 -0.59202)
(12.5267 1.19532 -0.554007)
(11.9671 1.53951 -1.69729)
(12.1937 1.69875 -1.70707)
(11.498 1.37422 -1.27067)
(11.2997 2.40415 -1.24943)
(11.8873 -0.00508661 0.387668)
(11.6501 0.258821 0.11873)
(12.0554 -0.298929 0.421744)
(12.1845 1.00919 0.140789)
(12.2808 1.53048 -0.0112804)
(12.7461 1.19755 0.0446338)
(10.4044 -0.0324073 0.00991377)
(10.5293 0.116388 -0.0211624)
(10.4022 0.101443 -0.0913696)
(10.4371 0.10679 -0.107165)
(12.2083 -0.251476 0.133241)
(12.0949 -0.281096 0.154831)
(11.948 -0.487715 0.428664)
(12.3827 -0.554369 0.299554)
(12.2938 -0.0366369 0.280699)
(10.67 0.727847 -0.264583)
(10.5931 0.487944 -0.0934969)
(10.5812 0.644995 -0.19857)
(10.834 -0.33558 -0.175078)
(10.8372 -0.315719 -0.172195)
(10.9473 -0.496546 -0.412386)
(11.037 -0.440377 -0.338074)
(10.8552 -0.307314 0.410662)
(10.6379 -0.298199 0.383144)
(11.0096 0.041423 0.297782)
(10.6298 -0.265342 0.184882)
(10.4839 -0.465589 0.291762)
(10.7178 -0.222246 0.214412)
(10.694 -0.145276 0.0386546)
(10.622 -0.0644752 0.0273384)
(10.7891 -0.105326 0.0472204)
(10.8074 -0.49641 0.0382579)
(11.199 0.0535672 0.206614)
(11.1161 0.252088 0.125035)
(11.0727 0.224212 0.129083)
(10.9173 -0.038806 0.0847408)
(10.4983 -0.370175 -0.0373631)
(10.3924 -0.242532 0.0390373)
(10.8567 -0.0960874 0.410555)
(10.7425 0.0687824 0.0196333)
(10.3994 -0.212513 0.0813466)
(10.504 -0.50843 -0.12535)
(10.5686 0.00804155 0.0738168)
(10.7376 0.372122 -0.0513438)
(12.5404 1.55047 -1.2922)
(11.6265 0.162599 2.09486)
(11.575 0.107607 0.797705)
(11.6028 1.03286 -1.16251)
(10.3489 -0.833375 0.280269)
(12.4231 1.36442 -0.969532)
(11.6916 0.126182 0.906679)
(12.1176 1.05158 0.86439)
(12.3224 0.954531 0.450953)
(11.3518 0.553043 0.0939605)
(11.1101 0.489094 -0.0260875)
(10.4328 -0.83017 0.025451)
(12.1405 1.1741 0.163785)
(11.3937 0.450225 0.09344)
(11.3259 0.638943 0.165108)
(10.5086 -0.0815565 0.0502368)
(12.1382 0.754271 0.329866)
(11.0642 1.92527 -2.55524)
(11.0618 0.426382 0.0715313)
(11.3028 0.108016 0.787548)
(11.8493 0.946605 -1.15062)
(11.2392 0.0165944 0.87143)
(10.5513 -0.243994 0.222891)
(10.3025 -0.124364 0.0155681)
(10.6843 -0.491459 0.190675)
(10.7506 -0.169371 0.201737)
(10.6815 -0.317782 0.330978)
(13.1787 -0.597757 0.0640413)
(10.8481 0.56317 0.524255)
(11.482 0.328023 0.239103)
(3.86952 0.150278 0.191434)
(10.7017 -0.014814 0.0563162)
(10.6444 0.1965 0.0298481)
(10.3384 -0.103859 0.0251864)
(10.2817 -0.0407185 0.00110601)
(10.4377 -0.665799 0.179602)
(10.6417 -0.175096 0.0719771)