/*--------------------------------*- C++ -*----------------------------------*\
| =========                 |                                                 |
| \\      /  F ield         | OpenFOAM: The Open Source CFD Toolbox           |
|  \\    /   O peration     | Version:  2506                                  |
|   \\  /    A nd           | Website:  www.openfoam.com                      |
|    \\/     M anipulation  |                                                 |
\*---------------------------------------------------------------------------*/
FoamFile
{
    version     2.0;
    format      ascii;
    arch        "LSB;label=32;scalar=64";
    class       volScalarField;
    location    "0.0100456";
    object      k;
}
// * * * * * * * * * * * * * * * * * * * * * * * * * * * * * * * * * * * * * //

dimensions      [0 2 -2 0 0 0 0];

internalField   nonuniform List<scalar> 
47425
(
0.372078
0.386364
0.378111
0.374335
0.411347
0.378931
0.401542
0.3753
0.377487
0.572113
0.376213
0.385845
0.390738
0.375075
0.384887
0.379355
0.376563
0.403353
0.727028
0.468228
0.377696
0.375602
0.37959
0.371368
0.382723
0.381077
0.377041
0.688109
0.377226
0.390389
0.399931
0.377399
0.393703
0.38086
0.372226
0.384641
0.377226
0.392766
0.395144
0.371594
0.387028
0.37099
0.37799
0.386375
0.79074
0.391543
0.378591
0.385246
0.388991
0.377884
0.579176
0.391255
0.385537
0.594954
0.389718
0.378408
0.375594
0.397815
0.421127
0.393173
0.599205
0.84361
0.659291
0.388592
0.379078
0.382939
0.380642
0.37771
0.648327
0.400657
0.378087
0.3858
0.38081
0.384376
0.653288
0.378261
0.677837
0.379181
0.687292
0.422678
0.662136
0.381295
0.383722
0.389856
0.377638
0.376302
0.375582
0.368219
0.391981
0.46004
0.379368
0.374857
0.382563
0.383996
0.38838
0.380146
0.372681
0.371888
0.388029
0.383157
0.370762
0.450812
0.380006
0.467755
0.37625
0.388543
0.379496
0.36877
0.369063
0.391885
0.531011
0.370249
0.37989
0.376043
0.382587
0.640275
0.381985
0.556918
0.393704
0.380711
0.370756
0.385407
0.379632
0.394496
0.391651
0.382039
0.373147
0.376369
0.375865
0.383283
0.384352
0.383605
0.496905
0.384517
0.382641
0.400616
0.384118
0.38012
0.387238
0.371962
0.383168
0.388594
0.377564
0.38178
0.380539
0.379971
0.393595
0.372497
0.377168
0.382528
0.381835
0.635588
0.386274
0.647887
0.389811
0.379824
0.395378
0.708728
0.390527
0.379557
0.378982
0.380282
0.382761
0.379989
0.524513
0.654906
0.378562
0.659078
0.386673
0.684062
0.661295
0.393036
0.384548
0.38499
0.388502
0.425198
0.646667
0.378562
0.381163
0.368807
0.631135
0.376696
0.381365
0.388673
0.375637
0.380371
0.379823
0.445975
0.385504
0.377683
0.393934
0.391902
0.413595
0.385289
0.374914
0.378522
0.387718
0.369323
0.37832
0.37498
0.377296
0.391516
0.374414
0.377015
0.394373
0.379809
0.385298
0.377763
0.379358
0.395403
0.383602
0.382179
0.393145
0.386515
0.378225
0.382909
0.390228
0.399713
0.393413
0.388517
0.450993
0.382224
0.380547
0.389669
0.399755
0.443651
0.377984
0.388292
0.386203
0.399926
0.388637
0.377512
0.38639
0.374606
0.377048
0.368903
0.43092
0.391181
0.426112
0.375661
0.372844
0.38027
0.377597
0.38456
0.378989
0.401267
0.369699
0.411531
0.371835
0.389355
0.374277
0.422815
0.380458
0.381834
0.389596
0.383234
0.381993
0.386164
0.370141
0.3923
0.400615
0.403181
0.393164
0.382225
0.387051
0.387582
0.375349
0.386696
0.383732
0.384915
0.395713
0.416674
0.41606
0.388205
0.408699
0.383862
0.411163
0.493184
0.407926
0.531968
0.588153
0.373476
0.578024
0.385393
0.379165
0.381908
0.37851
0.369928
0.386002
0.383782
0.568162
0.398333
0.375718
0.374032
0.377325
0.384023
0.379625
0.388625
0.37131
0.391511
0.388217
0.378492
0.377011
0.380001
0.671324
0.695414
0.622416
0.371741
0.376364
0.386043
0.370217
0.572647
0.375007
0.372883
0.464473
0.383188
0.377743
0.392537
0.377697
0.540176
0.456756
0.383828
0.376844
0.373769
0.386991
0.374667
0.388768
0.376938
0.379786
0.387164
0.381219
0.620121
0.387447
0.374314
0.39591
0.38209
0.616792
0.37666
0.370924
0.385168
0.394247
0.39303
0.374689
0.373625
0.378751
0.390709
0.392208
0.383466
0.379862
0.386551
0.390815
0.38776
0.374678
0.385496
0.386288
0.39879
0.384868
0.380358
0.398646
0.381317
0.416146
0.381756
0.390877
0.383469
0.382286
0.380392
0.389815
0.393859
0.3732
0.386677
0.392673
0.464069
0.367812
0.377182
0.386512
0.376806
0.379133
0.388958
0.391531
0.3791
0.391388
0.380175
0.372481
0.375016
0.378489
0.377268
0.384617
0.37681
0.393194
0.383888
0.383318
0.38541
0.381203
0.387219
0.381754
0.382407
0.371573
0.376367
0.409485
0.38
0.489757
0.374279
0.544969
0.379834
0.394441
0.390463
0.376512
0.375701
0.370416
0.384598
0.384777
0.9218
0.601252
0.393456
0.393859
0.384515
0.385385
0.378725
0.375757
0.388944
0.377838
0.385509
0.379687
0.375104
0.380598
0.376206
0.40199
0.382243
0.378981
0.497399
0.371846
0.385564
0.580644
0.373141
0.3848
0.389318
0.54415
0.379829
0.381929
0.384393
0.384517
0.497619
0.387727
0.371645
0.37628
0.384155
0.385744
0.390073
0.368483
0.526663
0.501127
0.485879
0.381266
0.435714
0.383251
0.381336
0.380217
0.387642
0.383962
0.380702
0.38212
0.386871
0.391049
0.378484
0.384594
0.381987
0.383583
0.380544
0.376932
0.382044
0.382773
0.381565
0.379081
0.389232
0.386711
0.38808
0.382573
0.54994
0.373108
0.426755
0.392162
0.391522
0.415425
0.388144
0.386125
0.389657
0.398085
0.380411
0.39225
0.392085
0.374808
0.386651
0.379796
0.385203
0.455748
0.374659
0.399281
0.378101
0.408934
0.371193
0.385792
0.3786
0.3841
0.391197
0.382007
0.381799
0.373354
0.37179
0.386888
0.377183
0.378983
0.390005
0.382547
0.374109
0.376038
0.384054
0.382099
0.385869
0.39403
0.392925
0.379355
0.395435
0.613705
0.3887
0.388272
0.381191
0.375262
0.445373
0.448476
0.385685
0.382028
0.385669
0.388706
0.39272
0.45771
0.387323
0.596373
0.399375
0.402054
0.399805
0.45053
0.375558
0.374486
0.375684
0.381271
0.378096
0.380656
0.766118
0.370914
0.396712
0.383211
0.437448
0.396386
0.392614
0.42663
0.420922
0.387471
0.379389
0.323382
0.373483
0.377837
0.381143
0.373761
0.373824
0.40879
0.390751
0.393989
0.377978
0.378392
0.37326
0.48229
0.381152
0.3733
0.328574
0.375674
0.384338
0.40627
0.593668
0.380092
0.224545
0.242545
0.374477
0.40655
0.373626
0.380507
0.392992
0.384952
0.577672
0.398196
0.393185
0.376658
0.438268
0.406455
0.3902
0.378487
0.44019
0.447324
0.376928
0.378358
0.374647
0.382331
0.379326
0.390548
0.380305
0.389978
0.391007
0.386353
0.386198
0.446848
0.397535
0.37608
0.457742
0.37916
0.38033
0.381661
0.380728
0.376315
0.390392
0.379754
0.414911
0.389276
0.382059
0.383136
0.871719
0.392407
0.390716
0.60614
0.596038
0.370068
0.387854
0.547103
0.388086
0.445142
0.425469
0.388948
0.590486
0.388027
0.371108
0.39245
0.436823
0.39491
0.393776
0.379635
0.39742
0.374103
0.376085
0.386529
0.379259
0.388993
0.539971
0.644716
0.393854
0.402278
0.380907
0.387115
0.387628
0.390398
0.390351
0.399201
0.383854
0.383529
0.39333
0.381535
0.381941
0.430358
0.395176
0.658144
0.50514
0.37924
0.395563
0.382047
0.371619
0.614855
0.380747
0.642257
0.383461
0.392228
0.389818
0.368533
0.382327
0.383473
0.418473
0.392356
0.372653
0.400827
0.387775
0.379415
0.398586
0.378863
0.769359
0.38907
0.39116
0.393698
0.380308
0.37412
0.395422
0.371409
0.40059
0.378562
0.380183
0.392627
0.379447
0.371682
0.388867
0.374345
0.481048
0.537993
0.384463
0.456745
0.386851
0.382202
0.379179
0.36933
0.378056
0.390525
0.375533
0.374541
0.379779
0.612867
0.45379
0.371143
0.381352
0.379052
0.378004
0.377185
0.374198
0.380061
0.477219
0.379593
0.371341
0.380945
0.376699
0.371968
0.386678
0.379597
0.377728
0.383708
0.380666
0.39298
0.514299
0.374832
0.362131
0.448872
0.499193
0.280851
0.378687
0.396432
0.407047
0.399179
0.495372
0.308956
0.618451
0.379244
0.3788
0.393236
0.389277
0.51535
0.376397
0.376911
0.375234
0.369622
0.391712
0.38732
0.38219
0.387475
0.375311
0.416372
0.389489
0.388179
0.479003
0.468483
0.400212
0.472594
0.460704
0.559855
0.579456
0.389439
0.397831
0.379216
0.37536
0.372168
0.288998
0.385528
0.37094
0.379402
0.37287
0.334306
0.293325
0.375691
0.396014
0.374977
0.376154
0.388886
0.376326
0.376106
0.383307
0.377168
0.450509
0.374441
0.37717
0.380444
0.383759
0.384447
0.499522
0.446039
0.373435
0.405546
0.381744
0.373095
0.375807
0.393495
0.386315
0.590988
0.378368
0.375696
0.393724
0.42885
0.749298
0.382415
0.378608
0.437836
0.389509
0.378289
0.389127
0.378716
0.390278
0.614096
0.428183
0.683401
0.380215
0.422183
0.37313
0.401343
0.378489
0.379528
0.382904
0.383335
0.648927
0.461702
0.401387
0.477235
0.388528
0.377895
0.389351
0.407437
0.376036
0.381308
0.300541
0.37904
0.409496
0.378244
0.400602
0.65136
0.390992
0.390565
0.524381
0.393609
0.378753
0.431083
0.412866
0.372158
0.44006
0.458011
0.372345
0.382981
0.372347
0.378566
0.378518
0.382544
0.433276
1.79583
0.385312
0.381695
0.436866
0.476224
0.486956
0.54056
0.388354
0.383836
0.395377
0.385961
0.397924
0.378741
0.392427
0.391798
0.359176
0.380031
0.381527
0.376342
0.371108
0.388499
0.492276
0.389657
0.49408
0.373693
0.423881
0.384789
0.383193
0.388981
0.385889
0.39495
0.45512
0.380807
0.41932
0.497869
0.399015
0.398502
0.384419
0.449118
0.375886
0.39471
0.390085
0.406546
0.583979
0.421642
0.374044
0.384619
0.387189
0.380693
0.378521
0.625146
0.42774
0.421752
0.389206
0.405985
0.38929
0.528876
0.387431
0.622106
0.4068
0.394492
0.390754
0.571337
0.374947
0.379409
0.378725
0.393982
0.387922
0.382988
0.431089
0.441285
0.405102
0.373847
0.394189
0.582052
0.701828
0.498532
0.499333
0.592561
0.402191
0.386509
0.437279
0.375842
0.469129
0.378164
0.39182
0.675049
0.39268
0.383292
0.383288
0.413595
0.421311
0.39321
0.369244
0.396113
0.455386
0.378724
0.381434
0.379373
0.399951
0.374571
0.408398
0.380621
0.401526
0.390094
0.383644
0.387211
0.382824
0.374785
0.390816
0.412885
0.466087
0.387698
0.406735
0.383008
0.452618
0.38643
0.377064
0.368781
0.873749
0.477048
0.490984
0.300389
0.392789
0.393654
0.868616
0.323583
0.391315
0.420297
0.38201
0.383019
0.474739
0.37523
0.38773
0.390896
0.404731
0.378564
0.548884
0.763264
0.376268
0.808453
0.375989
0.588384
0.796497
0.370122
0.382932
0.380617
0.507649
0.384463
0.382762
0.397309
0.539486
0.378639
0.402919
0.389663
0.374939
0.371477
0.384834
0.537511
0.543527
0.391081
0.407467
0.387184
0.571505
0.37908
0.373086
0.480452
0.583955
0.382675
0.388764
0.71953
0.89025
0.602094
0.383644
0.418764
0.499318
0.596205
0.395297
0.477558
0.443537
0.385903
0.391509
0.51971
0.612103
0.405842
0.408959
0.375496
0.38248
0.398424
0.39481
0.470948
0.374192
0.375776
0.380142
0.38308
0.552635
0.989245
0.388595
0.572449
0.41057
0.368463
0.466117
0.376108
0.383826
0.384638
0.394077
0.396407
0.382153
0.603806
0.380218
0.699184
0.727654
0.575408
0.405884
0.383569
0.378475
0.387416
0.376699
0.53073
1.10536
0.388206
0.563173
0.52728
0.611676
0.467755
0.721286
0.542081
0.375979
0.380031
1.1786
0.375367
0.383845
0.377772
0.591749
0.507765
0.372665
0.390184
0.544724
0.42498
0.554485
0.560798
0.393408
0.48465
0.82943
0.384331
0.402871
0.577517
0.384471
0.760144
0.721716
0.376874
0.382425
0.383418
0.382916
0.400863
0.373032
0.383809
0.399398
0.385691
0.479907
0.4097
0.397686
0.476533
0.393089
0.719376
0.384287
0.386825
0.396236
0.379989
0.68117
0.36858
0.381419
0.37151
0.606
0.370524
1.15532
0.388795
0.494146
0.398904
1.01536
0.553991
0.440959
0.412402
0.513007
0.414077
0.378998
0.393651
0.542914
0.597553
0.433927
0.576871
0.394448
0.458843
0.502763
0.392332
0.373873
0.511144
0.467646
0.372753
0.382967
0.378182
0.386851
0.538382
0.543418
0.377369
0.39308
0.382648
0.765367
0.384807
0.603001
0.405569
0.381674
0.38673
0.407032
0.405413
0.544517
0.383858
0.397153
0.424509
0.452072
0.370452
0.701754
0.462319
0.381245
0.710087
0.550994
0.38682
0.475573
0.387129
0.41105
0.688807
0.410375
0.851996
0.481514
0.383076
0.414696
0.397436
0.381177
0.386644
0.431267
0.442988
0.438512
0.375263
0.425224
0.377655
0.405312
0.418151
0.402113
0.396309
0.406054
0.383046
0.679442
0.42218
0.418981
0.473449
0.632959
0.377364
0.483468
0.313634
0.400468
0.402849
0.399398
0.469693
0.450361
0.561194
0.373565
0.634549
0.444411
0.382486
0.416929
0.394498
0.449611
0.384131
0.420447
0.512631
0.368844
0.607301
0.395416
0.751171
0.402405
0.39014
0.389615
0.424007
0.41172
0.412106
0.39528
0.383876
0.932739
0.391411
0.385078
0.726496
0.375393
0.376908
0.572035
0.391684
0.430104
0.96081
0.392288
0.441412
0.385644
0.727913
0.526304
0.436199
0.46895
0.440289
0.395289
0.459342
0.697288
0.870242
0.431389
0.383504
0.398375
0.380879
0.377457
0.391615
0.551166
0.384267
0.371092
0.393019
0.377936
0.394029
0.389516
0.402482
0.424151
0.389343
0.460054
0.382619
0.399572
0.397787
0.379957
0.383439
0.401076
0.397895
0.401147
0.372817
0.385099
0.382671
0.386794
0.394284
0.638003
0.370426
0.391479
0.375154
0.385901
0.492412
0.369952
0.377843
0.398809
0.914666
0.594202
0.385988
0.463922
0.502824
0.379345
0.380187
0.470731
0.36717
0.412186
0.392312
0.390041
0.429064
0.378274
0.413319
0.398671
0.379605
0.369404
0.372375
0.388395
0.491686
0.381765
0.40001
0.645504
0.385919
0.467743
0.424863
0.643031
0.380258
0.389073
0.39211
0.380182
0.382784
0.379417
0.378379
0.431968
0.448341
0.634623
0.386271
0.516801
0.384342
0.372034
0.403883
0.370172
0.590574
0.379815
0.531042
0.383694
0.605378
0.677403
0.379892
0.376258
0.4127
0.375227
0.38722
0.384313
0.386078
0.384745
0.376994
0.380196
0.388554
0.381709
0.398987
0.385736
0.398084
0.381355
0.387427
0.384613
0.382065
0.43522
0.379387
0.473081
0.378361
0.373369
0.389472
0.388007
0.374131
0.373773
0.38742
0.380516
0.38301
0.371233
0.386263
0.387042
0.375407
0.478405
0.456872
0.380629
0.396068
0.505497
0.369886
0.377728
0.379828
0.375234
0.38809
0.385725
0.39581
0.396046
0.38215
0.383123
0.429585
0.380381
0.384211
0.378689
0.624515
0.391213
0.6747
0.622476
0.664457
0.386518
0.385477
0.382168
0.373284
0.384794
0.553955
0.394664
0.372434
0.375538
0.379558
0.383066
0.422681
0.38301
0.381883
0.399889
0.382777
0.370649
0.381245
0.372751
0.380403
0.375219
0.385606
0.389949
0.393989
0.380015
0.383611
0.380574
0.382014
0.386165
0.372104
0.384779
0.37896
0.392491
0.39586
0.382175
0.37227
0.380505
0.383479
0.374527
0.380641
0.379313
0.385983
0.385228
0.378409
0.461376
0.381448
0.437826
0.382845
0.383327
0.35918
0.380079
0.3848
0.385251
0.37843
0.383004
0.387694
0.527597
0.402994
0.488686
0.369161
0.379012
0.384724
0.380489
0.387237
0.404623
0.38544
0.377229
0.37128
0.443262
0.456407
0.583709
0.386126
0.444813
0.389677
0.400625
0.400826
0.543118
0.379732
0.380987
0.385166
0.616013
0.379703
0.380311
0.388691
0.385364
0.386616
0.667761
0.389187
0.386664
0.400194
0.381245
0.402533
0.731197
0.651967
0.384884
0.374501
0.37548
0.390375
0.391629
0.382492
0.650063
0.614456
0.381125
0.382575
0.472037
0.386277
0.378405
0.438064
0.382709
0.380726
0.379693
0.383715
0.403706
0.378371
0.380698
0.391504
0.40708
0.378181
0.382375
0.499519
0.377963
0.409727
0.466939
0.357007
0.481806
0.381212
0.392251
0.395332
0.386931
0.400951
0.395858
0.675145
0.482269
0.385579
0.386374
0.376371
0.388086
0.380577
0.378744
0.379985
0.374891
0.393717
0.386023
0.496154
0.4434
0.61881
0.605005
0.395838
0.38851
0.383524
0.384258
0.3789
0.388407
0.386733
0.374187
0.387489
0.358948
0.30687
0.377158
0.382459
0.413657
1.12696
0.399147
0.379917
0.381624
0.481615
0.656078
0.372687
0.442141
0.43152
0.534765
0.461062
0.425953
0.377686
0.377925
0.397278
0.690072
0.378396
0.389972
0.379529
0.38653
0.415227
0.287506
0.284691
0.388565
0.404353
0.384345
0.391435
0.395541
0.390776
0.475645
0.489145
0.281987
0.367507
0.323478
0.414646
0.38353
0.725099
0.385126
0.682309
0.390099
0.669051
0.386415
0.474254
0.386695
0.443225
0.393657
0.399303
0.379476
0.381892
0.384999
0.446457
0.420775
0.387799
0.38483
0.835522
0.293455
0.386042
0.484978
0.303456
0.482419
0.37545
0.37976
0.306697
0.527084
0.431007
0.397507
0.833296
0.379514
0.642436
0.940495
0.298277
0.403978
0.387208
0.40508
0.364786
0.381764
0.3702
0.483153
0.386448
0.380164
0.373659
0.378455
0.374805
0.379137
0.37368
0.448802
0.376768
0.373746
0.390595
0.387008
0.435492
0.386424
0.391852
0.382213
0.379327
0.390785
0.463299
0.370166
0.373868
0.469777
0.842835
0.388501
0.774385
0.399414
0.456803
0.483729
0.431621
0.404268
0.379087
0.395939
0.37957
0.373912
0.384142
0.374375
0.372003
0.387531
0.387584
0.371239
0.36674
0.392763
0.382468
0.387156
0.590366
0.382734
0.378314
0.376824
0.378383
0.44418
0.514718
0.389527
0.3859
0.380438
0.468837
0.476419
0.383166
0.389606
0.666223
0.400817
0.388465
0.38156
0.422325
0.382102
0.370472
0.387566
0.491616
0.385527
0.378455
0.446824
0.380891
0.392011
0.382135
0.396828
0.38325
0.398114
0.385714
0.376728
0.386563
0.399487
0.370457
0.382374
0.690035
0.37474
0.443458
0.392122
0.386819
0.470361
0.404445
0.377171
0.396786
0.570143
0.441093
0.387798
0.37812
0.395032
0.427914
0.386082
0.385717
0.660427
0.463827
0.41375
0.464328
0.384627
0.382947
0.496993
0.419612
0.736897
0.380056
0.392097
0.488935
0.383789
0.447144
0.400851
0.462601
0.479587
0.38012
0.384801
0.714947
0.382306
0.391912
0.376805
0.375064
0.392829
0.424231
0.610896
0.390787
0.373846
0.326623
0.509059
0.591493
0.431852
0.549104
0.400474
0.723947
0.397013
0.392941
0.614438
0.395146
0.419868
0.320155
0.506908
0.569889
0.382655
0.380591
0.308282
0.383255
0.382539
0.592786
0.384346
0.408061
0.379189
0.398704
0.378995
0.382475
0.716161
0.307891
0.469883
0.351465
0.398306
0.384165
0.384863
0.389269
0.387459
0.387519
0.379561
0.387854
0.387099
0.283976
0.274807
0.37932
0.40192
0.374184
0.40122
0.42521
0.387155
0.380653
0.394159
0.28654
0.413563
0.397566
0.37896
0.378385
0.436312
0.387315
0.381852
0.629803
0.394994
0.474381
0.429654
0.393693
0.380244
0.380544
0.83417
0.378229
0.370276
0.40438
0.393191
0.429392
0.378936
0.397144
0.382862
0.506212
0.376667
0.392033
0.391141
0.378921
0.426142
0.383372
0.496262
0.429574
0.376335
0.485109
0.421443
0.381564
0.727309
0.380913
0.380701
0.381795
0.408119
0.583066
0.495498
0.399912
0.610604
0.440549
0.388159
0.458458
0.552173
0.390571
0.505127
0.424875
0.37568
0.546496
0.634059
0.391307
0.688449
0.412168
0.390345
0.50962
0.403213
0.385966
0.389019
0.591603
0.335107
0.372508
0.497111
0.392009
0.38971
0.38836
0.387164
0.423845
0.450604
0.581424
0.38723
0.39268
0.507223
0.381275
0.386519
0.483041
0.38104
0.394118
0.544174
0.397699
0.707343
0.65079
0.592908
0.391636
0.389631
0.429984
0.373091
0.383313
0.448206
0.381131
0.37302
0.393502
0.376376
0.436804
0.532939
0.384753
0.474142
0.383191
0.478698
0.397903
0.68374
0.378859
0.421965
0.388011
0.37859
0.397594
0.386736
0.385961
0.37948
0.375652
0.524936
0.373905
0.390638
0.389155
0.389216
0.381301
0.399321
0.388838
0.477184
0.394091
0.390367
0.388999
0.420021
0.353436
0.560831
0.491126
0.489328
0.607162
0.401803
0.416076
0.215476
0.347307
0.552085
0.41503
0.449652
0.409412
0.589676
0.432161
0.876501
0.410563
0.390477
0.442843
0.700806
0.39678
0.299547
0.410324
0.307484
0.427456
0.430998
0.528343
0.391347
0.382834
0.419729
0.284289
0.382493
0.585751
0.393546
0.392213
0.376405
0.382753
0.454403
0.375767
0.580719
0.455763
0.384999
0.39255
0.386637
0.459872
0.507177
0.381022
0.388006
0.409107
0.625119
0.402115
0.374026
0.453124
0.498751
0.380131
0.387667
0.387471
0.384735
0.545571
0.38905
0.462423
0.599749
0.377252
0.394865
0.389133
0.384895
0.286485
0.393844
0.506813
0.380052
0.386139
0.708262
1.03245
0.37669
0.380425
0.378362
0.383237
0.45242
0.4031
0.610393
0.392748
0.380368
0.44319
0.383799
0.389674
0.382777
0.38782
0.389259
0.457707
0.45387
0.446403
0.432059
0.428252
0.383157
0.381106
0.582605
0.663331
0.432585
0.430649
0.39598
0.59646
0.44831
0.599563
0.471141
0.396429
0.391918
0.386831
0.404044
0.409359
0.490722
0.38183
0.408235
0.748157
0.396576
0.623686
0.393875
0.378734
0.37712
0.381224
0.379498
0.371052
0.442859
0.373487
0.370177
0.370416
0.381719
0.430795
0.488078
0.386163
0.508539
0.410684
0.396925
0.374232
0.379684
0.439452
0.401672
0.433497
0.388997
0.376458
0.406621
0.377573
0.37265
0.405861
0.392811
0.442948
0.383558
0.459783
0.397483
0.425646
0.385267
0.436704
0.392175
0.380567
0.372793
0.384654
0.387427
0.613798
0.371874
0.404116
0.313354
0.398737
0.387642
0.396807
0.39376
0.436847
0.395608
0.383315
0.379951
0.385777
0.42686
0.411865
0.37546
0.709134
0.394986
0.417433
0.384452
0.374892
0.47838
0.384684
0.392226
0.486473
0.383246
0.385725
0.405155
0.551698
0.377075
0.509959
0.375504
0.383448
0.442445
0.402882
0.38806
0.462584
0.381194
0.407973
0.425682
0.42826
0.460943
0.728369
0.385097
0.397987
0.392836
0.392971
0.397745
0.392642
0.384926
0.379885
0.391863
0.531235
0.389043
0.391135
0.505126
0.404139
0.618313
0.385642
0.391208
0.421692
0.373752
0.383885
0.391299
0.380297
0.401818
0.390667
0.388125
0.402568
0.34821
0.399179
0.387455
0.52272
0.39177
0.988992
0.605101
0.386831
0.384047
0.46637
0.39117
0.309737
0.427497
0.343903
0.448869
0.275524
0.408013
0.409761
0.420735
0.56796
0.556797
0.394001
0.361741
0.295211
0.820852
0.615189
0.527676
1.17743
0.470776
0.316286
0.642417
0.382712
0.397662
0.586854
0.425109
0.510742
0.409798
0.510523
0.533058
0.385332
0.390508
0.380501
0.377145
0.378625
0.378479
0.57884
0.397984
0.383956
0.523121
0.37308
0.37279
0.388991
0.382955
0.385397
0.386873
0.394746
0.382269
0.432109
0.711708
0.374996
0.384973
0.387315
0.377228
0.607827
0.508314
0.39832
0.382871
0.525808
0.376332
0.394724
0.384188
0.404813
0.377092
0.376276
0.375765
0.374707
0.41098
0.377509
0.4247
0.384393
0.388592
0.38478
0.393605
0.383548
0.382192
0.375663
0.408342
0.374391
0.404642
0.549008
0.433117
0.400952
0.420012
0.380057
0.396368
0.388813
0.383025
0.381622
0.38517
0.379234
0.395959
0.409584
0.385764
0.414023
0.461028
0.386396
0.39365
0.430044
0.402052
0.479707
0.396024
0.537133
0.764961
0.395923
0.395896
0.507666
0.511131
0.414923
0.380847
0.378058
0.383175
0.379253
0.380845
0.37695
0.39428
0.392872
0.376314
0.38641
0.384569
0.378257
0.400095
0.447201
0.410276
0.384393
0.384446
0.378003
0.58685
0.380204
0.373795
0.396921
0.694974
0.89585
0.396356
0.403063
0.385126
0.396438
0.398493
0.538532
0.426773
0.379536
0.385749
0.384184
0.377197
0.402994
0.400945
0.382552
0.376782
0.424621
0.402453
0.451079
0.42039
0.488369
0.47864
0.394787
0.39606
0.375114
0.376782
0.392506
0.380388
0.376227
0.572842
0.389053
0.392926
0.623236
0.394547
0.393223
0.29854
0.425475
0.379456
0.376008
0.383699
0.391291
0.590262
0.381669
0.444438
0.480217
0.498633
0.70325
0.678587
0.375914
0.390894
0.49849
0.378743
0.522441
0.501868
0.612913
0.381944
0.374333
0.461871
0.386721
0.54687
0.425042
0.38047
0.638835
0.635791
0.390739
0.37896
0.684897
0.386969
0.376437
0.368824
0.381154
0.38688
0.379513
0.507729
0.3862
0.679163
0.376137
0.393635
0.371181
0.724518
0.378073
0.688267
0.393809
0.399268
0.377438
0.450894
0.378014
0.404696
0.372332
0.426402
0.460501
0.460617
0.588784
0.374945
0.381173
0.605369
0.410401
0.391143
0.412139
0.387727
0.381146
0.396005
0.392232
0.561099
0.429313
0.38776
0.370667
0.428051
0.386016
0.401806
0.39148
0.378365
0.392986
0.378571
0.378415
0.377911
0.497325
0.374844
0.380118
0.383167
0.377584
0.374348
0.38091
0.382077
0.380358
0.387237
0.396815
0.390365
0.375539
0.311569
0.393578
0.404819
0.394052
0.346545
0.697909
0.382496
0.562344
0.406613
0.314534
0.390887
0.397934
0.391054
0.384799
0.377086
0.392008
0.398793
0.382872
0.379725
0.378894
0.645356
0.377398
0.387829
0.402532
0.997192
0.27357
0.390348
0.641832
0.384255
0.573512
0.486197
0.974501
0.269561
0.386187
0.384544
0.384644
0.383798
0.548277
0.40538
0.417036
0.381641
0.381892
0.560698
0.391647
0.385904
0.375771
0.385162
0.389144
0.39167
0.568997
0.381985
0.385367
0.376537
0.380984
0.393168
0.373553
0.389548
0.865507
0.897063
0.504429
0.457362
0.600578
0.379178
0.381349
0.372086
0.378771
0.376815
0.411298
0.38023
0.436616
0.394794
0.382758
0.382948
0.384128
0.387215
0.376531
0.381743
0.380867
0.381425
0.494432
0.388246
0.405714
0.606687
0.385305
0.555859
0.680424
0.38849
0.40047
0.396024
0.473904
0.389322
0.404714
0.564212
0.383065
0.418248
0.38142
0.406965
0.378898
0.379785
0.425395
0.517179
0.390783
0.390277
0.614141
0.41289
0.531633
0.527308
0.395101
0.965753
0.399818
0.416867
0.400824
0.38854
0.435968
0.396496
0.378174
0.377931
0.374893
0.54444
0.265688
0.381825
0.397087
0.444805
0.26798
0.48168
0.379928
0.378034
0.423557
0.380071
0.422534
0.381907
0.527569
0.386801
0.385922
0.380211
0.701572
0.383418
0.411994
0.392507
0.382171
0.383795
0.394848
0.375678
0.376549
0.480217
0.396297
0.649915
0.374564
0.563771
0.51549
0.424259
0.4014
0.395821
0.450856
0.394553
0.387601
0.3784
0.386766
0.609345
0.395858
0.471761
0.424924
0.39493
0.383835
0.382785
0.381001
0.375538
0.382085
0.416681
0.406484
0.399091
0.381976
0.40712
0.37747
0.433485
0.378915
0.387518
0.382017
0.476722
0.714127
0.392007
0.384829
0.38057
0.469517
0.373117
0.385344
0.377056
0.376865
0.384998
0.380783
0.373985
0.383712
0.386444
0.459225
0.483747
0.373998
0.567908
0.378226
0.38095
0.371032
0.391855
0.544607
0.395429
0.616269
0.377749
0.370427
0.68049
0.722963
0.380729
0.377527
0.532482
0.392883
0.405467
0.394805
0.403085
0.392456
0.435357
0.379984
0.391274
0.389035
0.380724
0.471829
0.379593
0.387605
0.385429
0.373813
0.421539
0.453821
0.375249
0.383041
0.382953
0.38774
0.38578
0.49373
0.394574
0.393909
0.411669
0.386899
0.447059
0.415254
0.471783
0.414259
0.388555
0.380311
0.383153
0.406871
0.377172
0.433465
0.405293
0.377481
1.0096
0.37446
0.387645
0.38283
0.394025
0.407077
0.543362
0.386234
0.443975
0.379158
1.00737
0.413807
0.397275
0.378886
0.505347
0.386511
0.50186
0.393085
0.432015
0.374025
0.40005
0.418523
0.55704
0.45825
0.386483
0.373462
0.380165
0.444189
0.392311
0.819978
0.472643
0.391333
0.436745
0.389704
0.463537
0.455715
0.416689
0.477845
0.477848
0.621581
0.395967
0.396329
0.712376
0.483116
0.39848
0.462331
0.384508
0.839918
0.416831
0.385996
0.377791
0.381522
0.382261
0.380352
0.38187
0.46026
0.380144
0.426648
0.385161
0.439277
0.39809
0.503548
0.375736
0.375418
0.376521
0.467455
0.461552
0.488845
0.386953
0.384671
0.466693
0.405641
0.400361
0.374159
0.376759
0.378363
0.378693
0.379195
0.401291
0.379834
0.500882
0.440959
0.630063
0.669245
0.473195
0.522028
0.420164
0.421579
0.375262
0.542979
0.388683
0.396337
0.378501
0.466191
0.402153
0.383505
0.436598
0.641541
0.420635
0.382949
0.37411
0.532825
0.708083
0.40853
0.633977
0.706991
0.548937
0.572268
0.52336
0.595354
0.427231
0.561438
0.683412
0.383996
0.391126
0.391414
0.447734
0.575972
0.385455
0.383724
0.422136
0.397057
0.400978
0.579812
0.476513
0.641715
0.380853
0.38052
0.377232
0.377298
0.386388
0.765469
0.37856
0.397693
0.492764
0.379038
0.631338
0.970248
0.381364
0.423399
0.41427
0.660441
0.395241
0.472079
0.649035
0.735565
0.444347
0.5077
0.490274
0.4372
0.379482
0.394438
0.389412
0.570496
0.626205
0.414078
0.387757
0.502882
0.457677
0.527028
0.381785
0.39293
0.709274
0.483381
0.297741
0.377407
0.337038
0.381399
0.273105
0.416918
0.437872
0.537811
0.277202
0.443148
0.456676
0.260256
0.451204
0.408123
0.444882
0.42989
0.418429
0.390259
0.506872
0.391061
0.383628
0.38289
0.384678
0.585617
0.616523
0.565719
0.414048
0.43003
0.461949
0.410453
0.296185
0.424499
0.40204
0.381639
0.467657
0.387437
0.293541
0.384777
0.430352
0.424927
0.60612
0.468186
0.706598
0.646922
0.611213
0.39109
0.423075
0.545564
0.350934
0.502019
0.409687
0.412118
0.37983
0.670474
0.500423
0.389072
0.979656
0.569985
0.387788
0.444612
0.564167
0.635522
0.432891
0.391508
0.463022
0.622862
0.402013
0.376081
0.394752
0.3875
0.390546
0.485857
0.556844
0.404152
0.532623
0.715756
0.52661
0.460476
0.539075
0.387951
0.666331
0.542468
0.437196
0.593798
0.50764
0.407088
0.453538
0.389477
0.385929
0.385052
0.392584
0.501504
0.491106
0.3772
0.393373
0.400947
0.379994
0.378448
0.531422
0.442881
0.389402
0.386125
0.565338
0.812283
0.270971
0.411222
0.375419
0.393502
0.474356
0.426653
0.377978
0.312748
0.397395
0.309441
0.344804
0.528746
0.394687
0.387829
0.386252
0.415832
0.637102
0.439279
0.392402
0.441114
0.386734
0.6062
0.503165
0.453045
0.523648
0.401656
0.385247
0.374757
0.380407
0.391306
0.426616
0.380234
0.378736
0.379291
0.383912
0.510356
0.43018
0.604227
0.383968
0.469095
0.406737
0.427794
0.402751
0.34409
0.389932
0.397883
0.388452
0.373178
0.389704
0.385598
0.454212
0.384278
0.391954
0.396083
0.559865
0.384072
0.420179
0.429635
0.610262
0.597466
0.418077
0.701416
0.3171
0.395231
0.405915
0.504277
0.393687
0.479028
0.442523
0.376206
0.42726
0.46939
0.42713
0.452959
0.494526
0.431198
0.456568
0.523891
0.391358
0.389487
0.411547
0.379882
0.382334
0.419584
0.376833
0.386969
0.508251
0.385648
0.33371
0.403512
0.819596
0.379269
0.377193
0.727772
0.38119
0.378888
0.446093
0.375666
0.51126
0.43263
0.598071
0.376514
0.518647
0.455513
0.540703
0.38728
0.442785
0.373005
0.434564
0.386342
0.389165
0.387987
0.441211
0.453615
0.396776
0.387171
0.393337
0.379834
0.47102
0.380286
0.376332
0.382997
0.446462
0.484907
0.38358
0.392998
0.38403
0.38461
0.392173
0.414054
0.383571
0.438944
0.389018
0.53248
0.382645
0.40799
0.383763
0.47519
0.386416
0.442636
0.39027
0.385699
0.377424
0.396419
0.390192
0.449421
0.433326
0.605875
0.541058
0.615256
0.42022
0.401108
0.394938
0.384191
0.37849
0.711534
0.568509
0.413473
0.405691
0.393871
0.391503
0.373903
0.383203
0.499291
0.47035
0.630043
0.500605
0.411589
0.382496
0.417899
0.381931
0.567743
0.383132
0.389931
0.388769
0.391768
0.706197
0.426287
0.376646
0.395547
0.424473
0.375227
0.30307
0.38432
0.316631
0.409595
0.709444
0.44327
0.64842
0.373301
0.391404
0.402346
0.39271
0.409374
0.383687
0.381545
0.370807
0.378372
0.398392
0.386648
0.51229
0.416747
0.668966
0.440462
0.37951
0.475507
0.389443
0.380784
0.342969
0.763767
0.727806
0.288892
0.337095
0.391393
0.614531
0.446546
0.432733
0.409836
0.405283
0.27644
0.391403
0.379716
0.369168
0.41618
0.44505
0.562971
0.504258
0.439626
0.375987
0.423053
0.571851
0.395951
0.376589
0.572491
0.576797
0.570532
0.493594
0.371294
0.37063
0.422158
0.369012
0.671694
0.380943
0.383205
0.378461
0.580513
0.377713
0.40418
0.465759
0.462374
0.381692
0.379036
0.39328
0.375666
0.380092
0.387031
0.410619
0.514489
0.453187
0.400863
0.516238
0.397356
0.487528
0.407354
0.707937
0.453772
0.439446
0.561257
0.357948
0.44389
0.408037
0.530611
0.428588
0.372612
0.385146
0.374577
0.392135
0.681145
0.394383
0.382894
0.384431
0.401695
0.369396
0.482906
0.394995
0.38936
0.449496
0.393952
0.376111
0.398392
0.392207
0.484711