/*--------------------------------*- C++ -*----------------------------------*\
| =========                 |                                                 |
| \\      /  F ield         | OpenFOAM: The Open Source CFD Toolbox           |
|  \\    /   O peration     | Version:  2506                                  |
|   \\  /    A nd           | Website:  www.openfoam.com                      |
|    \\/     M anipulation  |                                                 |
\*---------------------------------------------------------------------------*/
FoamFile
{
    version     2.0;
    format      ascii;
    arch        "LSB;label=32;scalar=64";
    class       surfaceScalarField;
    location    "0.0100456";
    object      phi;
}
// * * * * * * * * * * * * * * * * * * * * * * * * * * * * * * * * * * * * * //

dimensions      [0 3 -1 0 0 0 0];

oriented        oriented;

internalField   nonuniform List<scalar> 
92401
(
0.147676
-0.0934979
-0.00861735
-0.0455605
-0.0674848
0.0606085
0.0416254
-0.0347491
0.0208837
-0.0383519
0.0429211
-0.0254529
0.00621731
-0.0119705
0.0120761
-0.00632294
0.00116844
-0.000495149
-0.00529964
0.00462635
0.0196987
0.00964508
-0.0257474
-0.00359637
0.00531251
-0.0043788
0.000234725
0.0322962
-0.0253442
0.0127467
0.0501542
-0.0400759
0.031728
-0.0418063
0.000939692
-0.000951569
-0.00058814
0.000600016
0.00445656
-0.0416717
0.0396474
0.0283282
0.0247117
-0.0926873
-0.0158719
0.00990228
-0.000127982
0.00609756
-0.0342171
-0.0394568
-0.0152214
-0.0169472
0.0539378
-0.0217692
0.00152695
-0.0646375
0.0631105
-0.00368834
-0.00778831
0.00186809
0.00335587
0.00256434
-0.000927603
0.00135232
0.000452152
-0.000876868
-0.00456396
0.00983626
0.000578826
-0.00585113
0.0159178
-0.00551157
-0.00461747
-0.0057888
-0.0408041
0.00896048
0.0370063
-0.00516267
-0.040006
0.0112668
-0.0562421
-0.0548919
-0.00208202
0.0552485
0.00172542
0.0899855
-0.0887387
0.0227523
-0.0239992
0.0511311
0.0616282
-0.0731351
-0.0396241
-0.0326636
0.0506056
-0.057948
-0.00253111
-0.00115182
0.00397898
-0.000296039
0.0304403
-0.062993
-0.000111
0.0610958
-0.0596929
-0.032475
0.0310721
0.0125741
-0.0169305
0.000493597
0.00386279
-0.0359206
0.105808
0.0593086
-0.129196
-0.0837711
0.109673
0.00749637
-0.0333984
-0.129596
0.0348401
0.0289544
0.0658014
0.0153111
-0.062302
0.0381726
0.0088183
0.0603772
0.0101501
-0.0552162
-0.0441561
0.0103978
0.00226123
0.0314971
-0.0497819
-0.0413575
0.0630522
0.0280873
-0.0341061
0.0393408
-0.0132854
0.00805067
-0.0206023
-0.101465
0.0654244
0.0566433
-0.0860259
0.0852738
0.000752089
0.0321985
0.00428809
-0.0781766
0.04169
-0.000427876
0.0288996
-0.0326892
0.00421741
0.0282852
-0.0511228
0.0228376
0.000250168
0.000182782
-0.000186956
-0.000245994
0.000776934
-0.0600402
0.0592633
-0.0689257
0.0432846
0.0627743
-0.0371333
0.0900669
-0.0256999
-0.013906
-0.050461
-0.000363035
0.0713188
0.00215044
-0.0731062
-0.0460093
0.0732137
0.0369176
-0.064122
0.000465382
0.000966651
-0.000292727
-0.00113931
-0.00205489
-0.00425968
0.0010681
0.00524646
-0.0384161
0.085982
-0.0461959
-0.00137006
0.000427925
-0.0010178
-0.000578838
0.00116872
-0.0546952
0.0542273
0.000467904
0.0750015
-0.00654897
-0.0198
-0.0486525
-0.0978008
0.0891009
0.00573636
0.00296346
-0.0521119
0.0260143
0.0111324
0.0149652
0.00118991
-0.0159983
0.00543968
0.00936871
-0.0133254
0.024735
0.0378295
-0.0492391
0.00113062
-0.00054512
-0.000157578
-7.86502e-05
-1.18383e-05
0.000906072
-0.000815583
0.00123667
0.000307676
-0.000831929
-0.000712412
0.00415979
-0.00899397
0.00525872
-0.000424532
0.0694803
0.00507777
-0.0190921
-0.055466
-0.014849
-0.00447537
0.00995142
0.009373
-0.0422172
-0.0491327
-0.055008
0.146358
0.00346047
-0.0323295
-0.00438095
0.03325
-0.000365694
0.000576093
0.000630183
-0.000840582
0.00597757
0.00378993
-0.0288434
0.0190759
0.018068
-0.00672134
-0.00936813
-0.0019785
0.0405385
-0.0769801
-0.0269604
0.0634019
-0.0278207
-0.00339542
0.0101713
0.0210448
0.0118532
0.00762071
0.0131455
-0.0326194
-0.00125579
-0.000502832
3.47268e-05
0.0017239
0.0232399
-0.00739497
0.0362177
-0.00141638
0.000997391
-0.0015234
0.00194239
0.0485982
-0.0349524
-0.0697363
0.0560905
0.000619651
-0.000284558
-0.000335093
-0.00102856
3.2139e-06
0.000504185
0.000521162
0.00113259
-0.000997286
0.00153743
-0.00167274
0.0223053
-0.0197536
-0.0642533
0.0617017
0.00130667
-0.0129768
0.00266139
0.00900869
0.0448827
0.0559113
0.0178265
-0.118621
-0.116822
0.0251057
0.129066
-0.0373497
-0.00434441
-0.0436723
0.00542695
0.0425897
0.0520189
-0.0297139
0.0259286
-0.0482336
0.0251014
-0.00417853
-0.153249
0.132326
0.00637612
0.0141354
-0.0256301
0.00511858
0.000696223
-0.000190473
-0.000713764
0.000208014
0.0366549
0.0135472
-0.00171961
-0.0484825
-0.00232542
0.0811934
-0.0834228
0.00455484
-0.0199215
0.047556
-0.112867
0.085233
0.0413597
0.00483142
-0.0505355
0.0414844
-0.000124689
-0.00215142
-0.0297543
0.0418762
-0.0099705
0.0706181
0.0170731
-0.0314415
-0.0562496
0.12984
-0.141382
-0.0301237
0.041665
-0.0148421
-0.0459918
0.0586825
-0.0850601
0.00306
0.0820001
0.000457287
-0.100434
0.165236
-0.0652595
-0.00232773
0.00335711
-0.000464818
-0.000564562
0.0887998
-0.151979
0.0308937
0.0322852
0.00163874
-0.00020658
0.000675889
-0.00210805
-0.0847607
0.143028
-0.106951
0.0486838
0.0276062
0.00414904
-0.0396266
0.00787136
0.0861548
-0.0178613
-0.0768479
0.00855439
0.00574355
0.0306628
-0.0512485
0.0342162
0.0298813
-0.139656
0.0755589
0.0864789
0.11233
-0.0768904
-0.121919
0.000949195
-0.00159478
0.000859279
-0.000213693
-0.0945644
-0.0273672
0.110777
0.0111541
0.00282719
-0.0055704
0.0141949
-0.0114517
-0.0140593
-0.0340444
0.0576165
-0.00951281
-0.00466337
0.0161943
-0.0138106
0.00227965
0.000261641
-0.000593383
-0.000488696
0.000820438
0.0209518
-0.024607
-0.0010082
-0.00171897
-0.000782747
0.00141247
0.00108925
-0.0580252
0.0624158
-0.00439063
-0.00228178
-0.0058959
-0.00210314
0.0102808
-0.0351185
0.0276949
-0.00663565
0.0208928
-0.0498343
-0.0548296
-0.0524996
0.0448895
0.0967176
-0.0891075
-0.00736767
-0.00158092
0.00461695
0.00433165
0.047055
0.0134862
0.000558265
-0.0610995
0.000202399
-0.00853743
0.00695133
0.00138371
-0.0362882
-0.0568381
0.0124852
0.0806411
0.0647843
-0.0383185
0.0239882
-0.050454
-0.00843556
0.0589574
-0.0573213
0.00679947
-0.0602449
-0.032763
0.00877677
0.0842312
0.0175325
0.00500851
-0.0343251
0.0117841
0.0605227
-0.0572716
-0.00325103
0.00213675
0.0018551
-0.0011218
-0.00287005
0.041174
-0.0427501
0.00157609
-0.0485719
-0.0442699
0.110571
-0.0177291
0.000951337
-0.0095752
0.00918615
-0.000562294
0.00313071
0.00571096
0.00237289
-0.0112146
0.00124215
0.00619619
-0.00723595
-0.0310718
-0.0547121
-0.00958542
0.0953693
0.0237308
-0.00652162
0.0169098
-0.034119
-0.0875996
0.0973264
-0.107192
0.0974656
0.0693178
-0.0472864
-0.0220313
0.00206568
-0.0349241
-0.00983538
0.0426938
0.00757013
-0.00593848
-0.00820754
0.00657588
0.0446785
-0.0670534
-0.0622543
0.0846291
0.075852
-0.0655
0.0281436
-0.0384955
-0.0126022
-0.00761251
0.0298767
-0.00966199
-0.061458
-0.0878196
0.0584784
0.0907993
-0.0416485
0.0547807
-0.0110665
0.0990569
-0.0490476
-0.0500094
-0.00341284
0.0144712
-0.00348821
0.000928532
0.000622041
-0.000698698
-0.000851875
0.0490067
-0.0179793
-0.00479882
-0.0262286
0.0036272
-0.00175918
-0.00060988
-0.00125814
0.00550771
-0.0096851
0.00860663
-0.00442924
0.0732549
-0.0435574
0.025964
-0.0556615
0.00831006
-0.00012568
-0.0070638
-0.00112058
0.00164255
-0.000535328
-0.00110722
-0.062511
0.0640228
-0.00151181
0.011855
0.00428295
-0.0961743
0.0800363
-0.0107642
0.0134592
-0.00976471
0.00706973
-0.072388
0.015982
0.0833155
-0.0269095
0.0189871
-0.0977077
0.0744602
0.00426037
-0.0500526
0.0419683
-0.00849915
0.0165834
0.00890249
-0.00167035
-0.00305533
-0.00417681
2.81956e-05
-0.00115986
0.00113167
0.0209753
0.178383
-0.242868
0.0435089
0.000120785
-0.000243988
-0.024077
0.0616195
-0.0549297
0.0173872
-0.000114926
0.00527654
-0.00419019
-0.000971423
0.000821218
0.00170607
-0.00352458
-0.0734258
0.00385389
0.0695719
-0.0334692
0.112456
-0.0468945
-0.0320924
0.000109731
0.0011495
0.00945862
-0.0107178
-0.0011681
0.0943988
-0.0932307
0.00230723
-0.00160952
-0.00104401
0.000346311
0.00128995
0.000598114
-0.000606989
-0.00128108
-0.0362725
-0.00176291
0.0318676
0.0186363
-0.0638292
-0.0729742
-0.0163205
0.00560621
0.0836885
-0.000600824
0.00189078
-0.0979219
-0.0420157
0.113099
0.0268388
0.0260354
0.16386
-0.0821471
-0.0544852
-0.0272277
-0.0193879
0.119977
-0.0439636
-0.0566259
0.0421402
0.0271606
0.0397326
-0.109033
0.108437
-0.248736
0.106224
0.0340749
0.00150848
-0.00131439
-0.0015004
0.00130632
-0.0125402
-0.0370504
0.0578106
-0.00821995
0.0252793
0.0400078
-0.0251395
-0.0401475
-0.0361668
-0.0262885
-0.0186243
0.0810797
-0.0558465
-0.0133243
0.0566305
0.00101129
-0.0111584
0.00692735
0.0032198
0.0560755
-0.0286726
-0.0520845
0.0246815
-0.0894249
0.104505
-0.0501926
0.0351128
0.0154962
-0.0221818
0.00677586
-9.02312e-05
0.0537191
-0.0630147
0.0653712
-0.0580538
-0.00240262
-0.0125181
0.0729745
-0.00526376
-0.011932
0.00200301
0.0151928
-0.00122937
0.056498
-0.0569458
0.00167721
0.134087
-0.0529837
-0.00153452
-0.0795685
0.0583131
-0.0066862
-0.047876
-0.00375088
0.0534219
-0.0201991
-0.0773912
0.0441684
-0.00932166
-0.00185496
0.0141568
-0.00298017
0.00513932
-0.00172412
-0.00478435
0.00136915
0.00216209
-0.0422795
0.0385052
0.00161218
-0.00125991
-0.0851553
0.00403746
0.0185473
-0.0123728
-0.062216
0.0451612
0.0170548
-0.0610737
-0.0152428
0.00957473
0.0667417
-0.0972508
-0.00469853
0.104858
-0.00290903
0.0037039
0.0224182
-0.0122773
-0.0138449
-0.0705363
0.148416
-0.0668887
-0.010991
-0.00588904
0.015078
0.0223089
-0.0314979
-0.0509545
0.0961006
0.0362367
-0.0813828
0.0266858
0.00222888
-0.0142908
-0.0146239
-0.0353886
0.0372606
0.000290152
-0.00403557
0.00709603
-0.0102758
0.00721536
-0.000761747
-0.00392999
0.0101994
0.0367719
0.0373471
-0.074119
0.00102914
-0.00176013
5.82124e-05
0.000672778
0.018661
0.00780359
-0.0178684
-0.00859627
0.0233004
0.00826961
-0.00277711
-0.0287929
-0.0506768
-0.00078191
0.00729702
0.0441617
0.00039312
-0.0426726
-0.000877048
0.000531807
0.00137438
-0.0511158
0.0366576
0.0509498
-0.0364916
-0.042241
0.0284222
0.0182452
-0.00442635
0.00128924
-0.00303279
-0.00928324
0.0110268
-0.00772732
-0.00460291
-0.00362609
0.0159563
-0.0416161
-0.00430733
0.0105348
0.0740552
0.0405831
-0.0736825
-0.0409558
-0.0438711
-3.66471e-05
0.0439077
0.088046
-0.0481426
0.0571969
0.00354557
-0.00764353
-0.0379387
0.0420367
0.0367492
0.0107985
-0.00596882
-0.0415789
-0.000440478
0.000296237
0.00095332
-0.000809079
-0.017358
-0.0440465
0.0614045
-0.000225329
-0.00124371
-0.00410115
0.0317754
-0.0241287
0.00555883
0.0279672
-0.0411696
0.0921211
-0.0870765
0.00105952
-0.00610414
-0.0229895
0.10108
-0.0182338
-0.0598571
-0.0303042
0.00627667
0.0156024
0.00842518
-0.0392242
0.0353749
0.0145846
-0.0107352
0.0300862
-0.0249733
0.000466169
-0.00557907
0.0199755
0.0711631
-0.121732
0.0305934
0.0724378
-0.07373
-0.0241457
0.0254379
-0.14164
0.00274107
0.00372057
0.135178
0.0310493
0.0115714
-0.0399026
-0.00271825
0.0399521
-0.0582404
0.0185376
-0.000249325
0.00195691
-0.00110883
0.000179292
-0.00102737
-0.0120616
-0.00198823
0.0750659
-0.0409156
0.0189522
-0.0531025
-0.0128421
0.0462761
0.000590875
-0.0340248
0.00476892
0.0984501
-0.0927331
-0.010486
0.0513526
-0.0985718
0.0563486
-0.00912938
-0.0508387
-0.000869317
0.0388659
0.0152041
-0.00505179
0.00892667
-0.0190789
-0.0254362
0.0491305
-0.0127776
-0.0109168
-0.0502533
-0.000585352
-0.00924022
-0.124664
0.176583
-0.0426795
0.0100353
0.0106725
-0.0633198
0.042612
0.049388
0.00634758
-0.0457003
-0.0117056
0.00618954
-0.00354387
0.00905993
-0.0561302
0.00183504
0.0542951
0.110278
0.0412927
-0.135198
-0.0163731
-0.00858939
0.000321424
-0.00343763
0.0188136
-0.112867
-0.0240811
0.118134
0.0117918
0.067283
-0.0684023
0.00245868
-0.054859
-0.0109196
0.00048199
0.00176099
-0.00246831
0.00194551
-0.00171243
0.000248903
-0.0521452
0.0302542
0.0723874
-0.0504964
-0.00178466
0.000940639
0.000847239
-0.0356497
-0.00758494
0.0456933
0.000230861
-0.000254532
0.000312592
-0.000887537
3.44034e-05
0.000540541
0.00018802
0.00198835
-0.00164655
0.0013384
4.08992e-06
0.000304064
0.000164661
4.94978e-05
0.000916464
0.103194
0.118336
-0.0738544
0.000278882
-0.00104406
0.000929839
-0.0525225
0.0541978
-0.00167527
-0.00964151
0.0766032
-0.0703174
0.00335567
0.0019145
-0.0186411
0.00478004
0.0119466
-0.0598798
-0.00228422
-0.0173092
0.00414087
0.0460446
-0.0328763
-0.0645729
-0.000187301
0.0647602
-0.00628151
-0.0151531
-0.0123506
0.0337852
0.000227085
-0.000281305
-0.000439249
0.000493468
-0.00404711
-0.0076583
0.00901804
0.00268737
0.0551661
0.0431835
-0.0169665
0.0472623
0.0870287
-0.0363044
-0.0979866
-0.0120373
-0.0436238
-0.0221648
0.0224285
-0.057298
0.0570343
-0.00924859
0.0273476
-0.00800781
-0.0100912
-0.0162634
-0.0128683
0.0148487
0.0142829
0.0978082
-0.0924585
0.01615
-0.0214997
0.00100465
-0.00411289
-0.000200337
0.00330858
0.00137734
-0.0658844
0.064507
-0.070973
0.00187855
0.0638849
0.0052096
0.0397944
0.0372417
-0.0770362
0.01908
-0.0602414
0.0291241
0.00239058
-0.0015822
0.00120255
-0.00201094
-0.000409606
-0.000647782
0.00264904
-0.00159165
-7.06763e-05
0.000439647
-0.000914586
0.000545615
0.0652583
0.0548926
-0.0399523
-0.0801987
0.00713978
-0.0870825
0.0806268
-0.000684004
-0.0136703
-2.13021e-05
0.0267293
-0.0130377
0.0506589
-0.0504469
0.0199829
-0.0201949
-0.000433046
0.00121116
-0.000585114
-0.000193004
0.0199057
0.0492471
-0.0500728
-0.0479226
-0.00156391
0.00080953
0.00145609
-0.000701718
-0.000130254
0.0796011
-0.0794709
-0.0505785
-0.0161715
-0.0229897
0.0897397
-0.0511446
0.000566156
0.0125722
0.0183547
0.0147768
-0.0457038
0.000273811
-0.0026752
2.2561e-05
0.00237882
-0.00155662
-0.000610865
0.000603578
-0.110581
-0.00553012
-0.0449599
0.161071
-0.00697555
0.00450119
0.139864
-0.13739
-0.0379949
0.0418185
-0.0635198
0.0596962
-0.0746238
0.0756175
-0.000993721
0.00309422
-0.0512085
-0.0299487
0.0650459
0.0204679
-0.00558277
-0.0799311
0.0515511
0.0896281
-0.155093
0.0139133
0.0436321
0.0135351
0.0323715
-0.0895387
0.104199
-0.109371
0.044966
-0.00331564
0.0123403
-0.0112859
0.00226124
-0.0025723
0.000709189
-0.00103625
0.00289936
-0.00252408
-0.00555003
0.00144553
0.00662858
0.0604707
-0.00633581
-0.0177601
-0.0363747
-0.0572105
0.0291886
0.0280219
-0.0903465
-0.00764911
0.0126191
2.15975e-05
7.65424e-05
-0.00267044
-0.118196
0.0248988
0.00821304
0.0850839
0.00116725
-0.0525535
-0.0103627
0.0617489
0.0475683
0.0273535
-0.104586
0.0296641
0.0379728
-0.0407805
-0.0195856
0.0223933
0.0467758
-0.058757
0.049954
0.0294982
-0.0553396
0.0492719
-0.0234305
0.0335656
-0.0365714
0.00144959
0.00155618
0.016775
-0.145023
0.0908197
0.0374279
0.00147304
-0.0578763
-0.00405046
0.0530324
0.000988723
-0.106133
-0.0343825
-0.00947325
0.00620432
0.0376514
-0.0481669
0.0455172
0.0477936
-0.0451439
-0.041912
0.0817522
-0.0398402
0.00982453
-0.100376
0.0497705
-0.0163329
0.00793209
0.0234851
-0.0150843
-0.0896279
0.0949487
0.0381273
-0.0434482
0.0569067
0.032485
-0.0788402
-0.0105514
-0.0477054
0.140024
0.00634384
-0.0986628
-0.000295183
0.00319433
0.00320941
-0.00610855
0.0540508
-0.0716244
0.0844382
-0.0668646
0.00838395
-0.0408891
-0.00854021
0.0410454
-0.042885
0.0273605
0.103124
-0.0875992
-0.0510317
-0.0285109
0.0568789
0.0226637
-0.0106575
-0.00101257
0.00683356
0.00483652
-0.00888666
0.0200785
-0.0168166
0.0056248
-0.00111891
0.0741077
-0.0729888
0.0148487
-0.0450195
-0.0179961
0.0482906
-0.0323245
-0.00303826
-0.0129278
0.00116545
-0.0233946
-0.0205327
0.0427618
0.0370624
-0.0356003
-0.0014621
0.0625504
-0.0417139
0.0635299
-0.0843664
-0.10065
0.0974485
0.10101
0.00049195
-0.0110293
-0.00190498
0.0124424
0.0519111
-0.000360525
0.000508353
0.000328606
-0.000476435
2.77992e-05
0.0467469
-0.108362
0.0615874
-0.00860016
-0.000122193
0.00483065
0.0038917
0.0271708
0.0100839
-0.0372547
0.00100815
-0.00125018
-0.00835814
-0.0319597
-0.0360338
0.0194215
0.0578071
9.03365e-05
-0.0578975
0.0714108
-0.0428127
-0.0504842
0.021886
0.00198637
-0.0252395
-0.0209029
0.0670229
0.0438501
-0.0394621
-0.00788345
0.00938356
0.135524
-0.12305
0.0378173
-0.0502912
-0.0468067
0.037732
0.0227216
-0.0136469
-0.0514885
0.051675
-0.000186504
-0.0487121
0.0301906
0.0110427
-0.0487352
-0.0104567
0.0481491
-0.00108395
0.161126
-0.163215
0.00317346
0.109307
0.0167016
-0.0163357
0.0514965
0.00902447
-0.0526171
-0.0079039
-0.0140701
0.00439859
0.0102438
-0.000572201
-0.0094157
-0.00504387
0.00467562
0.00978395
0.06725
-0.0366943
-0.0549615
0.0244058
0.0296767
-0.0160038
0.0218299
-0.0355028
0.0270454
-0.0958414
0.0919322
-0.0231362
-0.00549673
0.000368314
-0.00894173
-0.0964801
0.109787
-0.0229087
0.00960152
-0.0109214
0.0485266
0.0143388
-0.051944
-0.00427049
0.000208051
0.00291809
0.00114435
0.0848457
-0.0072236
0.0513018
-0.128924
6.30497e-05
-0.000700688
-2.11771e-05
0.000658815
-0.0676396
0.0603951
0.0739005
-0.066656
0.00315259
0.00116885
-0.00167877
-0.00264267
-0.0780945
0.0764584
0.00163612
0.0628683
-0.0593253
-0.003543
0.0591781
0.000519489
-0.0596976
-0.0160294
0.12654
0.000575383
-0.111086
0.0103481
-0.0313459
0.03357
-0.0238509
-0.00089841
-0.0565892
-0.0684158
0.011948
0.0664205
-0.00995258
-0.0128031
-0.00210931
0.000770888
-0.000697035
0.00038046
-0.000454313
0.00110344
-0.00036745
-0.000193546
-0.000542442
-0.064616
0.00767731
-0.00121624
0.058155
0.000602122
-0.00519957
0.00154643
0.00305102
0.0114706
-0.0143154
0.000285171
0.00255955
0.00807388
-0.00708013
0.0104769
0.0566441
-0.011003
-0.0247165
-0.0209245
0.0373888
-0.00537154
-0.0359253
0.00390808
0.00114174
0.0677981
-0.000557438
-0.0683824
0.00787093
-0.0719032
0.019344
0.0446883
-0.0423293
-0.033156
0.0428222
0.0326631
-0.0323577
0.016623
-0.0886541
0.104389
-0.000641393
0.0147328
-0.00753792
-0.00655346
0.0500057
-0.0590641
0.0474719
-0.0384135
-0.0619584
-0.00936151
-0.00580722
0.000673236
-0.00025949
0.0039895
-0.00440324
-0.0113473
-0.00270899
0.00154532
0.0125109
-0.00764737
-0.00887954
0.0105672
0.00595971
-4.93162e-05
-0.00215686
0.00123734
0.00096884
-0.000347862
0.000382925
-3.50635e-05
-0.000461955
-0.0688339
-0.0246884
0.0939842
-0.000126188
-0.000298454
-0.00125872
0.00168336
-8.89973e-06
-0.000272096
-6.68662e-05
-0.000830287
-0.0637426
-0.000178694
-6.46908e-06
0.000568088
0.000664749
0.000168166
-0.00044658
-0.000386335
-0.0286834
0.0604682
0.0810698
-0.112855
-0.00872317
-0.00227485
0.00706946
0.00392856
-0.0142044
3.55123e-05
0.00544572
-0.00479125
0.00533726
0.012354
-0.0129
-0.000464685
0.000383649
-9.76579e-05
-0.0658023
0.0667667
-0.000964418
0.0320428
0.0469627
-0.0600642
-0.0189413
0.0124443
-0.0747149
-0.022366
0.0846366
-0.0129606
0.00284567
0.00532368
-0.00469351
-0.00608963
-0.00217746
-0.0167303
0.0601202
0.0119933
-0.0553832
0.0685379
0.00410741
-0.0524637
-0.0201816
0.000198621
0.000430452
-0.000715785
8.67124e-05
-0.000346339
-0.000127246
-0.00273041
-0.00110835
-0.00109122
0.00492998
0.065943
-0.0460222
0.0120539
-0.0319747
-0.00069488
-0.00273805
0.00151036
0.00192256
-0.0157253
0.0110804
-0.0039832
0.0086281
0.00146011
-0.104826
0.102978
0.000387818
0.00291137
0.000548706
-0.010149
0.00668896
0.00957091
-0.0099198
0.00136845
-0.00101956
0.00972718
0.00364668
-0.0104625
0.0378015
0.0575702
-0.0294286
-0.0273976
0.0547184
0.0294665
-0.0567874
0.0281792
-0.0555767
-0.000277028
-0.00120708
-0.032622
0.0126291
-0.00991642
0.0789302
0.0249956
0.00757146
0.0713898
-0.054362
0.0975893
-0.114617
0.00278183
0.0923802
-0.095162
-0.00672333
-0.00648561
0.0128238
0.000385096
-0.0335513
-0.0867101
0.0271813
0.0930802
0.0218487
0.0627899
-0.0246692
-0.0599693
-0.0232315
0.114934
-0.0539007
-0.0423114
0.0449373
0.0520926
-0.0556126
0.0561355
-0.000522854
-0.0376173
0.0365595
0.00105786
0.0414654
-0.0808386
0.0742547
-0.0348814
0.0644286
-0.0811589
-0.00901043
-0.00812537
0.0104125
0.000765654
0.000679569
-0.000538092
-0.000907131
-0.00697557
-0.0417597
-0.00687735
0.00124329
0.00140149
-0.00240461
-0.000240174
-0.0547419
0.0515991
0.0861382
-0.0829954
0.0341892
-0.0319602
-0.00222901
0.0106532
0.0282807
-0.0139044
-0.0250294
0.00403826
-0.000529182
0.00233848
-0.00584756
-0.0642568
-0.00141647
0.0208
0.0448733
-0.00293266
0.00675125
0.000219661
0.041486
-0.112222
0.106084
-0.0353485
0.0427398
0.0151638
-0.0580753
0.000171704
-0.00360552
0.00688982
0.00146542
-0.00474972
-0.000764213
0.0597563
-0.058992
0.0359078
0.0063188
0.0138788
-0.0561054
0.00402884
-0.00716949
0.00261146
-0.180846
0.0247147
0.16707
-0.0109385
0.0388177
-0.0104759
-0.0283418
-0.0009353
-0.00172835
-0.00127051
0.00393416
-0.0402439
0.0434451
0.126185
-0.129386
-0.00173769
0.000721896
-0.00215332
0.00316912
0.0898112
-0.00292489
-0.0441465
0.000377116
-0.00114733
0.00207911
-0.00130889
-0.0186172
-0.114843
0.0142319
0.119228
0.0023927
0.05293
-0.00327718
-0.0520455
0.0482272
-0.0682167
0.0586899
-0.0387003
0.0318404
-0.0363568
0.0498349
-0.0453185
0.00893382
-0.00262841
0.00620023
-0.0125056
0.00201191
-0.0428497
0.0544163
-0.054961
-0.0358122
0.0979372
0.0178152
-0.0254179
-0.0903345
0.0473185
0.0178249
-0.136334
0.0711901
-0.00136752
-0.00833663
0.00613119
0.00357295
0.0279051
-0.0504106
-0.00324185
0.0283558
-0.0257949
0.00758537
-0.00588025
0.000263494
-0.00196861
-0.0894949
0.00405826
-0.00318005
0.0755725
-0.151501
0.0791089
-0.0261439
-0.0880346
0.0420756
0.0721029
-0.0710716
0.0201093
0.00226666
0.0486957
-0.0448721
0.0290391
0.0122366
-0.0824464
0.0952095
-0.0127631
-0.022762
-0.00909659
0.119212
-0.0873537
-0.00336005
-0.00411447
0.00599283
0.00148169
-0.0263043
0.0608066
0.0413497
-0.0717437
0.028931
-0.000602251
-0.000387224
-0.0010308
0.00202028
0.0488281
-0.0498054
0.0540097
-0.0364084
-0.00694825
-0.0454273
-0.122178
0.0435498
0.0786279
-0.0438432
-0.0335207
0.0286518
0.00298935
-0.00206749
0.000524374
-0.00144623
0.00233568
-0.000278564
0.000932236
-0.0869768
0.00460013
0.0823767
0.0596075
0.0120949
-0.120757
0.0490546
-0.0724281
0.00147551
0.0709526
0.000870074
-0.00145312
0.00808801
-0.00750496
0.0473628
0.157479
-0.223064
0.0182226
0.00155862
-0.00232801
0.00161566
-0.000846268
-0.0926411
0.0680688
0.0223462
0.00222615
-0.000754242
-0.00121522
0.00168934
0.000280118
-0.00105724
0.00849476
-0.00775731
0.000319786
0.00827456
0.00823545
-0.0162578
-0.000252191
0.0397793
0.0109699
0.00285534
-0.00261309
0.00131637
-0.097003
0.10677
0.00466767
-0.0144346
0.0122981
-0.0670877
-0.022018
0.0768077
-0.00090732
-0.00112176
0.088733
-0.0867039
-0.0428887
-0.0381056
0.090424
-0.0094297
-0.0395567
0.024907
0.039968
-0.0253183
0.0515711
0.0211374
-0.0710837
-0.00162483
-0.00292709
0.000855495
0.00242639
-0.000354794
-0.122673
-0.0417674
0.0387492
0.125691
0.0500947
-0.0390519
-0.0325792
-0.0363728
-0.0324054
0.101357
-0.00187877
0.00415858
0.00012189
-0.0024017
-0.0301539
-0.0812102
0.0280463
0.0833178
-0.0293423
-0.0273428
0.0202767
-0.000968493
-0.00297777
-0.00156474
0.00341866
-0.00351072
0.0016568
-0.00606053
0.00615342
0.0224448
-0.0749172
-0.0821034
0.134576
-0.000328032
-0.000171792
0.000296129
0.000203695
0.0536789
-0.0573096
0.048064
-0.0444334
-0.0142697
0.0416255
-0.0063879
-0.0209679
0.0861886
-0.0866984
-0.0199705
0.0204803
0.0265204
0.0221187
-0.0627501
0.0141111
-0.128868
0.0739313
0.0195337
0.0354031
-0.0049119
0.0025221
4.86334e-05
0.00234117
-0.00756573
0.00901246
-0.000576655
-0.0139103
-0.00357111
0.0189785
-0.00149701
-0.0642844
-0.00330586
0.0160812
0.051509
-0.00836087
0.102532
-0.00623226
-0.0879388
0.00446563
-0.047304
0.0817207
-0.0388823
-0.00175016
0.003975
-0.00164595
-0.000578891
-0.0151079
0.000753622
-0.00266103
0.0170153
-0.106112
-0.0014437
0.0134045
0.0941508
8.07191e-05
-0.00015719
0.000318412
-0.000241941
0.0379508
0.00863845
0.027466
-0.00684253
0.0470242
0.0541435
-0.0943251
-5.993e-06
0.000406936
-0.000320224
-0.000574525
0.00219189
-0.00140763
-0.000209736
0.0181485
0.111659
-0.0491336
-0.0806737
-0.000113684
-4.35057e-05
0.000144677
-0.000258361
0.0610454
0.0168448
-0.0913671
0.0134769
-0.155458
0.0835263
0.0788192
-0.00688703
-0.0182892
0.000823937
-0.0510094
0.0684747
0.0249678
-0.0149005
0.0178867
-0.027954
-0.066078
-0.0238297
0.0899077
-0.0758725
0.0380815
0.037791
-0.00201661
-0.000305122
-0.000141596
0.00246333
-0.0387453
0.041579
0.00854132
-0.0113751
0.0481448
-0.0556737
0.00752892
-0.0595228
0.0339013
0.045549
-0.0199276
0.00410322
-0.00193365
-0.00206677
-0.000102805
-0.00304032
-0.00259194
0.000720365
-0.0429888
-0.0446109
0.0460769
0.0143279
0.00286733
-0.0632721
0.00109368
-0.000554914
0.000152838
-0.000691605
-0.0100588
0.0143938
-0.0105765
0.00624155
0.00623657
0.021249
-0.0391405
0.0116549
-0.0204835
-0.0167828
-0.00660813
0.0438744
-0.0738117
-0.00997202
0.0281356
0.0556482
-0.00143033
0.014898
-0.00854031
-0.00492737
-0.0541475
0.000550947
0.033113
5.02905e-05
0.0278962
-0.136079
0.126083
-0.0179
0.0271412
-0.0334805
-0.0516859
-0.0285912
0.0567704
0.000214494
0.0388082
0.00242319
-0.0414459
-0.059747
-0.0608077
0.120555
-0.00296725
-0.000798403
-0.00182523
0.00559089
0.00324699
-0.00457671
0.00159099
-0.000261263
0.036022
-0.00578921
-0.0285204
-0.00171244
-0.0032298
-0.00199962
0.00226217
0.00342397
-0.00851288
0.0675443
-0.0624554
0.0757005
0.000953003
0.0282065
0.00891552
-0.00575209
-0.0313699
0.0567203
0.00115396
-0.0578743
-0.056667
0.115585
-0.0294019
0.0600565
0.0218409
-0.0524955
-0.0148447
-0.022862
0.0151284
0.0225783
0.00342526
0.00347455
0.000820793
-0.0077206
-0.0357922
-0.0379402
0.0995752
-0.0258428
0.0429002
-0.0344529
-0.000585303
-0.00786203
-0.0534856
0.116418
-0.0493029
-0.0136291
-0.00171671
0.00196525
-0.000197553
-5.09892e-05
-0.00110661
0.0214855
-0.00360195
-0.0167769
0.00258222
0.00361532
0.00026212
-0.00645966
-0.000313974
-7.63702e-05
1.18299e-05
0.000378514
8.83651e-06
4.25445e-05
-0.000365355
-0.00915644
0.0254743
0.0678762
-0.0841941
0.079872
-0.0818936
0.0020216
0.000351155
-0.00036608
1.49248e-05
-0.0133159
0.0010559
0.00216432
-0.00144706
-0.00177315
-0.0105954
-0.00772046
0.00646201
0.0118538
-0.0559168
0.0265148
0.000302655
0.000345258
-0.00081427
0.000166358
0.0325288
0.0561144
-0.0373988
-0.0512444
0.0156358
0.15325
-0.178348
0.00946178
0.0583326
0.065161
-0.0634371
0.00202386
-0.0129313
-0.00133404
0.0122415
-0.0315948
-0.029509
0.0611038
0.0328418
-0.0644367
-0.0529105
-0.0432712
-0.0685037
0.164685
0.0502698
-0.0563794
0.00610961
-0.0726407
0.132471
-0.0708331
0.0331833
-0.0297189
0.0862317
-0.00280093
-0.0691855
-0.0142453
0.0703348
-0.0698085
0.0112749
-0.0118012
-0.000373422
-0.00574601
0.00746574
-0.00134631
0.00201964
-0.00549882
0.00554802
-0.00206885
-0.000131649
-3.49751e-05
0.000846897
-0.000680273
0.0216817
0.021962
-0.0328814
-0.0107623
-0.00515542
-0.00544349
0.00600677
0.00459214
-0.00969552
0.0325021
-0.0439224
0.0211159
0.000743333
-0.00815798
0.0111531
-0.00373848
0.0485739
-0.00442277
-0.0441511
0.0402472
0.0367002
-0.126188
0.0492408
-0.100207
0.0613133
0.0791405
0.0339163
-0.101281
-0.0446185
0.107788
-0.0413777
-0.0217919
0.00192576
0.00897995
-0.0124768
0.00157106
0.0272649
-0.00409395
-0.023171
-0.0294203
0.0461151
-0.00387028
0.0197171
-0.0321102
0.00146162
7.99383e-05
0.000676231
-0.00221779
0.0115312
-0.0373261
-0.00115163
0.000184772
-0.000512735
0.00147959
0.00267041
-0.000154957
0.000811674
-0.00332713
0.000614261
-0.000969561
-0.0768752
-0.0149669
0.00192783
-0.0105668
0.0236059
0.0192344
-0.0891393
0.0214574
0.0484474
-0.00280669
0.0575442
-0.0824292
0.0276917
0.000697486
-0.000807778
0.00206961
-0.00195932
0.0802294
0.0131788
0.000552197
-0.0939604
-0.00105039
-0.000838452
0.00206046
-0.000171615
0.00330214
-9.26103e-05
-0.0683064
0.0650969
0.00619641
-0.00111664
-0.00445206
-0.000627712
0.00591461
0.00437226
-0.00341155
-0.00687532
-0.110626
0.0975343
-0.0879159
0.101008
-0.0559857
0.109282
-0.053296
0.00364364
-0.0458363
0.00952724
0.0326655
0.00345351
-0.00399214
0.00110898
-0.000570358
0.0472191
-0.00134302
0.000400049
-0.131956
0.00155303
0.0737357
-0.0334
-0.000644411
0.0011952
0.0292637
-0.023699
-0.00675996
0.0770314
-0.0280162
0.0326017
0.00372684
-0.00465501
7.88777e-05
0.000849285
0.034167
0.0231972
-0.0749139
0.0175497
-0.00109906
0.000609192
0.000952285
-0.000462417
-0.000464195
0.00133882
0.00503998
0.000766986
-0.00738819
0.00603377
0.00508127
0.0778455
0.04077
-0.0377909
-0.0808245
-0.134294
0.144637
-0.00961209
-0.000730867
0.030567
-0.0306313
6.42988e-05
-0.0361017
0.000338827
0.000249823
-0.00296724
-0.00193759
0.0128959
0.209248
-0.157077
-0.0650667
0.0298639
-0.0619632
-0.0180541
0.0501534
-0.00276611
0.0380574
-0.000193078
-0.0860545
0.0481902
-0.0211697
0.00826512
-0.0371485
0.0467717
0.0469199
-0.056543
-0.0678273
0.0877342
-0.148724
0.128817
-7.54758e-05
0.000180708
-0.00149465
0.00138942
0.000286485
0.00218536
-0.000823583
-0.00164827
0.0462561
-0.0183974
0.0413189
-0.0691777
-0.00356215
0.000453336
0.00312814
-1.93224e-05
-0.0117378
0.0116583
-0.0370691
0.0107649
-0.0434847
0.00582721
-0.00309235
0.0178369
-0.0205717
-0.130376
0.0153518
0.123102
-0.00807811
0.0396204
-0.0260045
-0.0201725
0.00655654
0.0351373
-0.0553069
0.00843182
0.00395446
0.00727634
0.0518147
-0.0630454
0.0240363
-0.00750398
-0.0251445
0.00861213
-0.0813567
-0.00778387
0.0167525
0.00121964
-0.000909044
-2.41107e-05
0.000472059
0.00670858
0.00162722
-0.00880786
0.0173382
-0.0318138
0.0385119
0.0155558
-0.140346
-0.0248344
0.149624
-0.111191
-0.0160185
0.0247016
0.102508
0.0563997
-0.0344618
0.0305613
-0.0524993
0.109693
-0.00735198
0.0047075
-0.107048
-0.0175326
-0.037498
-0.00392284
-0.015303
0.00741509
0.0118107
-0.00124627
0.000457534
9.87013e-05
0.000690031
0.0139955
-0.0770138
0.0630183
0.102741
-0.00583212
-0.112939
-0.0262323
0.0562022
-0.0475025
0.0396957
-0.121776
0.0125703
0.0695101
-0.00493508
-0.0118438
-0.0273742
0.0441531
0.00421451
0.0480658
0.0785348
-0.127506
0.000904913
0.0487335
-0.0831284
0.0908241
-0.0564292
-0.0975215
0.0946864
-0.00587976
0.00871484
0.0015256
0.00233171
-0.0936494
0.0897921
-0.00136728
0.00360741
0.00588836
-0.00812849
7.89976e-05
-0.000827915
-0.00019162
0.000940537
0.0876249
0.00316095
-0.0196415
-0.0711443
-0.000335892
0.000425402
-0.000281542
0.000192032
0.000687315
0.00313916
-0.00200062