/*--------------------------------*- C++ -*----------------------------------*\
| =========                 |                                                 |
| \\      /  F ield         | OpenFOAM: The Open Source CFD Toolbox           |
|  \\    /   O peration     | Version:  2506                                  |
|   \\  /    A nd           | Website:  www.openfoam.com                      |
|    \\/     M anipulation  |                                                 |
\*---------------------------------------------------------------------------*/
FoamFile
{
    version     2.0;
    format      ascii;
    arch        "LSB;label=32;scalar=64";
    class       volVectorField;
    location    "0.0100456";
    object      U;
}
// * * * * * * * * * * * * * * * * * * * * * * * * * * * * * * * * * * * * * //

dimensions      [0 1 -1 0 0 0 0];

internalField   nonuniform List<vector> 
47425
(
(10.1073 -0.159575 0.10622)
(10.1024 -0.193817 -0.947204)
(9.89184 0.144483 0.0337049)
(10.897 -0.212523 -0.195434)
(11.391 0.167274 0.698949)
(10.1227 0.00706901 -0.0229954)
(11.2801 0.095377 0.595897)
(10.0649 0.00116829 -0.0841915)
(10.3103 -0.134507 -0.0112206)
(6.70227 5.23314 -0.920261)
(10.0716 -0.0503971 -0.00270836)
(10.6966 0.0442793 0.0395212)
(11.2099 0.163764 0.227036)
(9.89624 0.0550541 -0.174367)
(9.76957 0.223732 -0.24724)
(9.186 -0.252397 0.503219)
(9.72187 0.149311 -0.169345)
(8.77365 -0.390243 -0.99807)
(8.82274 0.650295 -4.25843)
(12.6872 -0.270713 -0.247156)
(10.5797 -0.519511 -0.482442)
(9.75715 0.143838 -0.144402)
(10.1864 -0.0307443 0.178217)
(9.96096 -0.0426243 -0.0927371)
(9.86714 -0.152179 0.093395)
(10.2939 -0.0768655 0.0569487)
(10.075 -0.127633 -0.00409775)
(11.5898 -0.119657 -7.70834)
(9.9322 -0.0284853 -0.0292982)
(9.86819 0.0985007 0.0868223)
(9.66834 0.280333 0.292097)
(10.031 -0.00333232 0.299231)
(9.97691 -0.323516 -0.0684908)
(9.92741 0.655703 0.105709)
(10.0314 -0.298055 0.160607)
(9.87061 -0.0343123 0.0604999)
(9.71878 0.0248034 -0.0608468)
(9.30559 0.707672 -0.682859)
(10.3244 -0.206833 -0.27626)
(10.0174 0.140198 -0.0780453)
(9.8036 -0.274673 0.605178)
(9.66419 0.0488927 0.0849122)
(9.59502 -0.253161 0.265915)
(10.0524 0.190472 -0.082023)
(2.71023 -2.02814 -1.83779)
(10.2533 0.101392 0.552003)
(9.97979 0.144826 0.00362075)
(10.0381 0.0513217 -0.122504)
(10.1257 -0.408234 0.197444)
(10.042 -0.156253 -0.0653467)
(2.03075 -0.375952 -5.04969)
(9.74801 0.482193 0.468455)
(10.1625 0.106918 0.0551768)
(7.98558 -5.28298 1.16521)
(10.0621 0.081314 0.0157999)
(10.4081 -0.106346 -0.272402)
(10.0853 -0.0457108 -0.22137)
(9.93463 -0.0204865 -0.0921916)
(12.5283 0.159483 -0.220467)
(9.95799 0.217791 -0.206349)
(7.18132 -5.16031 0.318237)
(6.29359 0.26533 0.818214)
(7.21712 -7.19394 0.668638)
(9.19553 -0.840487 0.27331)
(9.78999 0.135296 0.460023)
(10.4585 -0.147796 0.138184)
(9.71706 0.0789086 0.0776931)
(10.2009 0.00501324 0.411272)
(8.93373 -6.10024 2.3223)
(9.08753 0.386457 0.657033)
(10.577 -0.271609 0.158809)
(10.2777 0.0516149 -0.0916052)
(10.5146 0.0539914 0.0693239)
(10.5678 0.195454 -0.476953)
(8.24749 6.34257 0.847562)
(9.34206 -0.163397 0.32465)
(7.57422 -7.38081 1.40824)
(9.98056 0.265847 -0.0973969)
(8.40073 -5.58631 2.46645)
(10.9833 0.115094 1.35175)
(8.71605 6.29622 1.05534)
(10.2528 -0.01689 0.110558)
(9.3943 0.0464999 -0.148991)
(9.99787 0.287137 0.467399)
(9.57032 0.331493 -0.243068)
(9.6871 0.202962 -0.0766275)
(10.2494 0.0496246 0.00554543)
(10.1714 -0.0484599 -0.196991)
(9.79134 0.564097 -0.492077)
(10.6868 -0.0785166 2.02966)
(9.71396 0.221144 -0.027665)
(10.4277 -0.517562 -0.354929)
(10.0373 -0.126686 0.346501)
(9.98116 -0.18563 -0.199607)
(9.52506 -0.005271 -0.226275)
(10.1849 -0.278122 -0.186277)
(10.0202 -0.035974 -0.0886337)
(10.1844 -0.261357 -0.281359)
(10.108 0.10068 0.418189)
(9.98538 0.869339 0.720846)
(9.94952 0.183379 -0.0248652)
(8.78375 0.090413 -3.32396)
(10.4029 0.0644762 -0.0181492)
(5.53515 1.59676 -0.13067)
(10.3203 0.135562 0.116833)
(9.8911 -0.192835 0.176185)
(9.70044 -0.015917 -0.105482)
(9.87866 -0.0385808 -0.0871954)
(10.1946 -0.0162313 0.0368099)
(10.0122 0.0411733 0.0137283)
(1.81779 -0.526705 -1.8459)
(10.0806 0.204276 0.089313)
(10.0347 -0.384855 0.160376)
(9.98764 -0.0672976 0.172516)
(10.2962 -0.23471 0.196405)
(1.87443 -3.89511 -5.13255)
(10.2883 -0.286451 0.138511)
(4.242 0.119488 -3.53356)
(10.4794 0.332766 0.455857)
(10.3578 0.288786 0.278657)
(9.84853 0.176096 -0.012624)
(9.7388 -0.280128 0.159741)
(10.0303 -0.114786 0.16271)
(11.2299 0.557802 -0.382034)
(9.87697 0.518943 0.187924)
(10.0363 -0.370614 0.162599)
(10.0326 0.114426 0.103839)
(9.61616 -0.0770732 0.303182)
(9.81221 0.0355578 -0.522205)
(10.093 -0.0722984 0.139828)
(9.58294 0.0169632 0.327885)
(9.87199 0.164764 -0.29914)
(4.71077 0.216835 1.4451)
(10.278 -0.0457267 0.185648)
(9.84457 -0.173849 0.0632822)
(11.3771 -0.386129 -0.562017)
(10.6023 0.357101 0.148108)
(10.073 -0.431811 0.20913)
(9.87496 0.373609 0.32699)
(10.45 0.0803427 -0.35689)
(10.4117 0.152889 0.164841)
(11.0676 -0.220305 0.028266)
(10.3693 -0.101177 0.0609379)
(9.98939 -0.484515 0.189218)
(9.95939 0.115383 -0.357871)
(10.0493 -0.233806 -0.0289679)
(11.1532 0.0598439 0.950181)
(10.2941 0.053408 0.138643)
(10.2718 0.00616474 0.285118)
(10.1241 -0.0226972 -0.0892585)
(9.96879 -0.457369 0.12574)
(3.04821 -0.3416 -6.05961)
(10.1554 0.198621 0.367804)
(6.08721 0.125239 -10.8219)
(8.98533 -0.933373 -0.383749)
(10.0222 0.120933 -0.0124654)
(10.7171 0.222178 -1.30397)
(7.73631 -3.32483 -2.1637)
(10.2681 -0.352232 -1.13135)
(10.186 -0.380625 -0.0926306)
(10.4321 -0.340816 0.140324)
(10.0963 0.117629 -0.381079)
(9.95469 -0.0183777 -0.476754)
(9.68203 0.333585 0.159734)
(12.3296 0.106834 0.377684)
(2.62048 -1.70437 -1.88316)
(10.3038 0.0150168 -0.0993502)
(8.64324 6.19839 0.926779)
(10.0641 -0.500356 -0.0648057)
(12.2476 0.385659 -3.40797)
(9.39724 5.75473 0.662242)
(9.95271 0.758218 -0.0881798)
(10.1277 0.178997 -0.00305942)
(9.46518 -0.761758 -0.338608)
(10.8249 -0.205031 -0.266745)
(9.39849 -2.56554 -0.810641)
(2.82615 0.769215 -6.95825)
(9.98369 -0.0229438 -0.139728)
(9.97016 -0.0194346 0.177057)
(10.1696 -0.140327 -0.0571765)
(2.60585 0.240896 -10.4439)
(9.90681 -0.10192 -0.218774)
(9.68442 -0.137949 0.0904418)
(9.28922 -0.639074 -0.0165275)
(10.0799 0.0383839 -0.0380004)
(9.80051 0.250003 -0.209212)
(10.2984 -0.464331 0.244396)
(5.75443 -0.265352 0.0926547)
(9.88841 -0.136854 0.260934)
(9.9209 0.129835 -0.124568)
(10.0415 -0.250238 0.155541)
(9.86958 -0.300206 0.0448429)
(10.5909 0.708253 -0.974292)
(10.03 0.425944 -0.158166)
(9.90495 -0.156161 -0.201723)
(10.511 -0.219756 0.00554652)
(10.2567 0.208874 -0.37395)
(9.90253 -0.0843818 0.212247)
(10.5827 -0.262414 0.155892)
(9.92977 -0.0888211 -0.251845)
(9.99379 0.235691 -0.415294)
(9.7688 -0.245853 0.17475)
(10.204 0.0363735 0.0313176)
(10.3709 -0.273227 0.0241719)
(10.1426 -1.11835 -0.595132)
(10.3079 -0.399105 0.134626)
(9.78204 -0.162874 0.629677)
(10.4244 -0.184942 -0.0118849)
(9.84402 -0.0293682 -0.114754)
(8.99318 0.663304 0.0174891)
(10.101 0.00319754 -0.409181)
(10.5318 -0.0240449 0.131105)
(10.2114 0.31109 0.0871866)
(10.0228 -0.422085 -0.299734)
(10.1536 0.0939863 0.152013)
(10.5482 -0.356146 -0.180608)
(10.3493 0.31908 -0.00927961)
(11.1176 0.0087164 1.08436)
(8.78134 -0.995227 -0.284728)
(10.0338 -0.274763 -0.261974)
(10.8444 -0.260957 1.87256)
(10.3397 0.177557 0.17936)
(9.83901 -0.405767 -0.12042)
(10.4386 -0.459633 -0.225789)
(10.1105 0.0400845 0.433767)
(10.8163 -0.423021 1.78303)
(9.72673 0.0318595 0.0824573)
(10.5196 -0.269651 -0.407868)
(10.5443 0.450001 0.250108)
(10.7291 0.889797 -0.12793)
(10.2976 0.0530431 -0.0341325)
(10.1465 0.00266096 0.0279425)
(9.88888 0.0472765 -0.288537)
(9.92415 -0.00633832 0.250024)
(10.1188 0.382996 -0.0600095)
(10.082 0.0851132 -0.00649516)
(10.981 0.224176 1.472)
(9.83224 -0.0620143 -0.25801)
(11.0873 0.169784 1.36512)
(10.3257 0.25289 -0.316337)
(9.86827 0.0379765 0.304776)
(9.52282 -0.304572 -0.193138)
(9.82545 0.0608326 0.135654)
(10.9818 -0.174136 -0.122794)
(10.3987 0.2597 -0.0924237)
(9.32101 0.0983987 0.380242)
(10.2189 -0.112362 0.31871)
(8.72696 1.16261 -0.56113)
(9.81253 -0.241084 0.0756607)
(9.94209 -0.151756 0.00806521)
(9.80149 -0.430255 0.19034)
(10.7971 -0.0727536 1.36678)
(9.67076 -0.231134 0.278129)
(9.81353 -0.536922 -0.191669)
(9.39517 -0.0287991 -0.25616)
(10.0738 0.149771 -0.169613)
(10.0139 -0.340221 0.210339)
(10.3614 0.215834 0.275249)
(10.558 -0.131611 0.0311488)
(10.016 0.203854 -0.0776485)
(10.5837 -0.253739 -0.528548)
(9.90231 -0.249402 0.436744)
(10.2695 0.245863 0.114663)
(10.2933 -0.398774 0.170872)
(10.8276 -0.0326415 0.477286)
(9.81837 0.0993333 0.331646)
(9.97311 -0.0773033 -0.0253742)
(10.8892 -0.0129829 0.397229)
(10.0286 0.159486 0.2731)
(10.3935 0.110176 0.382696)
(10.0008 0.277817 0.16865)
(11.1337 0.219595 1.15004)
(11.0201 0.226636 1.21931)
(9.91409 -0.556396 -0.270647)
(10.992 0.0813263 1.20243)
(10.3798 -0.269918 -0.155289)
(11.0495 0.155819 1.16199)
(7.40685 2.90194 2.89732)
(10.9679 0.196872 1.19184)
(5.95088 0.966062 -4.57348)
(6.76726 -4.93216 0.0341241)
(9.99508 -0.0179372 0.0513987)
(6.31091 -4.74634 -0.75184)
(9.93735 0.195181 -0.367394)
(9.78207 0.204414 0.202146)
(10.6723 -0.0926413 0.210361)
(10.0289 0.0400549 0.00939087)
(9.69721 0.195332 -0.0059145)
(9.44334 0.178609 0.960386)
(10.1508 -0.308597 0.168166)
(1.4066 1.32432 -3.00986)
(9.41066 0.641999 0.140316)
(9.98954 -0.0387223 0.00377156)
(9.85492 -0.249552 0.0105929)
(9.87551 0.0481283 0.160835)
(10.9813 -0.0238682 0.0868967)
(11.0437 -0.103434 -0.290815)
(10.3843 -0.213504 0.168492)
(9.85554 0.0757833 0.0172722)
(10.8841 0.130703 0.420501)
(10.0852 0.352168 -0.564875)
(10.0584 -0.519103 -0.0120197)
(9.90327 -0.613695 0.156535)
(9.99173 -0.206415 0.0677852)
(14.6163 2.0948 0.649027)
(10.5406 -0.813403 0.856896)
(1.56656 0.885956 -5.71778)
(9.87935 0.000497544 0.282949)
(10.0392 0.192229 0.21029)
(10.0011 -0.456764 0.00336657)
(9.83156 -0.264076 -0.0110761)
(1.13238 -0.421718 -5.02875)
(10.1196 -0.0302387 0.0418396)
(10.0584 -0.151827 0.0226904)
(9.95847 2.0257 1.29315)
(9.9121 -0.211621 0.0111981)
(10.0499 0.0396044 0.16675)
(9.93493 0.275134 0.398662)
(9.90305 0.395225 0.224544)
(13.7197 -0.253571 0.402967)
(10.1377 1.85042 1.26796)
(9.99848 0.0651657 0.369518)
(10.2714 0.599655 -0.154627)
(9.92184 0.137648 -0.0704905)
(9.35416 0.765077 -0.654007)
(9.92849 0.215223 0.0811057)
(10.3178 -0.432251 0.200977)
(10.1319 0.0304861 -0.4469)
(9.9451 0.0935914 -0.139763)
(9.91748 0.0922076 0.468454)
(10.6322 -0.0924598 0.304653)
(12.7572 -3.83829 1.70023)
(10.262 -0.543128 -1.02936)
(9.877 -0.0372979 0.108858)
(10.3502 -0.0383645 -0.287149)
(9.59162 0.247636 -0.129469)
(13.3778 -3.38122 2.06154)
(10.0026 -0.262846 -0.0379135)
(9.97313 0.0849868 0.0594889)
(10.126 -0.496849 -0.0369781)
(9.78622 0.0907059 -0.111864)
(9.95557 0.0865931 -0.000165326)
(10.0708 -0.061123 -0.026643)
(9.70077 -0.0478991 0.29029)
(9.95208 -0.0331717 0.467188)
(9.48515 -0.232215 -0.284755)
(9.92076 0.248022 -0.665226)
(9.92475 0.263068 -0.0639677)
(10.1761 0.0306209 0.276812)
(9.96457 0.180692 0.21313)
(10.1612 -0.297922 -0.140937)
(10.3375 -0.270292 0.276178)
(10.1197 0.0283687 -0.0071155)
(9.58913 -0.200735 0.0152687)
(9.70862 -0.517035 0.116893)
(11.0239 -0.580128 0.171841)
(10.3607 -0.011338 0.285454)
(9.58967 0.180478 0.120773)
(9.90125 -0.453341 0.129952)
(10.3402 0.199564 -0.0371148)
(10.7032 0.0377797 1.94072)
(10.3053 -0.529462 -0.32419)
(9.99727 -0.710754 -0.248202)
(10.237 0.323414 -0.0768831)
(10.1093 0.039317 0.14241)
(9.95756 0.252519 0.143847)
(10.2877 -0.180783 -0.200358)
(9.95994 0.103942 -0.0844284)
(10.0995 0.15528 -0.122187)
(10.2425 0.432262 0.0418666)
(10.3315 -0.276851 -0.232485)
(2.64766 -2.62582 -1.70781)
(10.4108 -0.180357 -0.0229044)
(9.97863 0.565359 0.0476277)
(10.0204 -0.118492 -0.119786)
(9.97865 0.470138 0.083223)
(9.5485 -0.210568 0.0452501)
(10.0098 -0.191487 0.0284767)
(9.72643 0.515029 -0.415558)
(9.75077 -0.0152119 -0.0609139)
(9.92059 0.463402 -0.439809)
(10.0886 0.506152 0.0450461)
(10.3464 -0.107664 -0.125848)
(10.4517 0.0849191 0.0836328)
(9.7238 0.0715936 0.0608027)
(10.3532 0.135814 0.104405)
(10.4402 -0.359081 -0.0468589)
(10.1855 0.407912 -0.00901724)
(10.3279 -0.0577353 -0.280867)
(10.1741 -0.385702 0.0616446)
(10.1885 0.66979 -0.140437)
(10.0924 0.914332 -0.224772)
(10.4251 0.044574 0.192997)
(10.3263 0.1871 0.0734784)
(10.1647 -0.183054 0.051093)
(10.08 0.665563 -0.112087)
(10.2477 0.142659 0.0227576)
(10.1411 -0.138341 -0.10538)
(11.035 -0.757746 -0.612728)
(9.92859 0.0674429 -0.0917748)
(10.4459 -0.485797 1.77771)
(10.2817 0.0385814 -0.0979513)
(9.97443 -1.89561 -3.06626)
(9.88802 0.0440694 -0.522135)
(10.6163 0.193001 0.198719)
(9.83695 0.893513 -0.573204)
(9.87706 0.286589 -0.0769973)
(9.88961 0.0152722 0.121376)
(10.1848 0.0331234 0.116281)
(10.2841 -0.0534897 -0.178905)
(10.0486 0.835732 -0.211539)
(5.1851 -0.110968 0.0603633)
(2.61683 -0.462676 -1.91033)
(10.3663 0.215172 0.212575)
(10.137 1.17474 -0.519509)
(10.4378 0.458117 -0.0920781)
(10.5449 0.406203 -0.0318509)
(9.98264 -0.259945 0.109594)
(9.98316 0.0207438 0.320864)
(10.1951 0.220966 -0.0691818)
(9.82207 -0.11206 -0.116039)
(9.80346 -0.145031 -0.17606)
(9.86585 -0.0498516 -0.251715)
(10.5599 0.429164 -0.260735)
(10.1824 -0.171155 -0.0709744)
(9.92934 0.0688796 -0.194166)
(10.2185 -0.97076 0.443935)
(10.9085 0.406944 -0.0462996)
(10.664 0.387341 0.16018)
(8.21893 -1.01614 -4.47891)
(0.120926 4.29097 -0.738231)
(10.0721 -0.264829 -0.0313672)
(7.64939 -0.79937 -4.95033)
(0.0672983 2.9236 -0.453806)
(9.3703 0.0936063 0.278734)
(-0.11936 4.79977 -0.28809)
(9.8538 -1.35279 1.66296)
(9.80533 -0.622551 0.154541)
(10.6625 0.596621 -0.164829)
(10.6431 0.601055 -0.108759)
(10.8238 0.506548 -0.120443)
(-0.461636 4.31038 -0.190412)
(10.056 0.222419 0.203802)
(10.0615 -0.287785 -0.190584)
(10.0247 -0.0302639 0.0161369)
(10.8963 0.521675 -0.207516)
(10.8149 0.571092 -0.225402)
(10.0973 0.110732 0.212831)
(9.90708 0.0693014 -0.0911075)
(9.63304 3.02496 2.54412)
(-0.535547 3.27164 -0.700609)
(12.5503 -0.309928 -2.28127)
(10.2028 -0.230049 -0.0637418)
(8.79177 -0.456021 -2.74163)
(10.002 0.338412 0.47947)
(10.3748 -0.172764 0.0822313)
(10.5841 0.168673 0.0960531)
(11.0606 0.124969 0.310896)
(10.5651 0.188015 0.0051957)
(10.3001 -0.107493 -0.0177482)
(10.1005 0.0715029 -0.134759)
(9.81328 0.334965 -0.376038)
(10.2571 0.00585012 -0.247425)
(9.81285 -0.168285 0.0469068)
(9.98784 0.01548 0.173998)
(10.0956 -0.0501565 0.0469408)
(9.85156 0.251894 0.12817)
(10.61 -0.104534 0.086214)
(9.87156 -0.17374 -0.0281974)
(9.87543 0.259862 -0.258153)
(10.2 0.120973 -0.0334403)
(9.99371 -0.0112458 -0.281956)
(9.61192 -0.311938 0.46318)
(10.1995 0.0221328 0.0497381)
(10.2459 -0.331061 -0.0270563)
(9.81825 -0.0184515 -0.263272)
(10.6078 -0.0498311 0.0742571)
(9.17525 3.6445 2.01102)
(9.68286 -0.299998 0.0968854)
(11.5564 1.26837 -0.815342)
(10.1536 0.154239 -0.0765118)
(10.3723 -0.208992 0.140016)
(9.54024 -0.175276 1.42299)
(9.65406 1.13836 -0.453205)
(9.89203 -0.108181 -0.0356759)
(9.77387 1.1596 -0.477162)
(10.2658 0.0126845 -0.241594)
(9.67256 -0.360699 0.200998)
(9.85629 1.0864 -0.660336)
(10.1658 0.409062 -0.480829)
(10.1 -0.493509 -0.0159399)
(9.70816 1.03002 -0.517924)
(10.36 -0.0196352 -0.260827)
(10.418 0.0851968 -0.14112)
(8.3239 0.130112 -3.37981)
(10.0979 -0.0209014 0.0834427)
(9.6726 1.54279 -0.391316)
(9.587 -0.207908 0.0179432)
(9.11352 1.70679 -0.690278)
(10.0901 -0.238405 0.147422)
(9.95075 -0.266308 0.184518)
(9.86445 0.220671 -0.0435749)
(10.2181 0.112189 0.204806)
(11.0784 0.282544 0.57586)
(9.67726 0.274336 -0.0950353)
(10.0433 0.132846 -0.153379)
(9.71016 -0.112525 -0.163943)
(10.3197 0.289076 -0.0258447)
(10.6004 0.0986424 0.131672)
(10.1571 -0.0577736 0.0769923)
(9.94805 -0.0646959 -0.0300408)
(8.88497 0.145081 -0.341055)
(10.2273 0.0456401 0.0110241)
(10.0166 0.26033 0.0750154)
(9.67479 0.0558104 -0.273107)
(9.79734 0.291718 -0.307326)
(10.232 0.0632447 0.321092)
(9.81677 0.302935 -0.515224)
(10.0817 0.0610063 -0.695126)
(10.1602 1.10426 -0.703033)
(10.3731 -0.107826 0.00259046)
(9.34088 0.0063011 -0.81222)
(3.02875 -0.242245 -5.01739)
(10.0187 -0.146599 -0.418169)
(9.99207 -0.00340412 -0.0198961)
(10.0573 -0.386062 0.214181)
(10.235 -0.0962626 0.199816)
(12.0337 0.45257 0.475268)
(12.0415 0.0703722 0.779119)
(10.0356 0.401709 0.656054)
(9.91953 0.471089 -0.00442149)
(10.2529 0.0920995 -0.459161)
(10.6355 0.179776 0.729705)
(10.0868 -0.255154 0.00551586)
(12.1752 0.932695 0.449029)
(9.60145 -0.67482 0.193611)
(-1.219 0.250116 2.47548)
(8.08514 -0.158951 -0.336938)
(9.98781 -0.443761 2.11592)
(9.32498 0.0770499 -0.0650168)
(12.0668 0.808132 0.507146)
(10.0038 -0.135697 0.0357936)
(10.0907 0.102549 0.162431)
(10.1079 0.27393 -0.191371)
(10.1076 0.116375 0.463645)
(10.006 -0.142519 -0.0293429)
(9.82947 -0.165716 -0.4406)
(11.5652 2.35092 1.13051)
(9.9966 -0.0684902 0.346366)
(10.2932 0.507737 -0.159283)
(10.2156 0.193897 -0.0968749)
(11.989 0.337517 0.446608)
(10.1662 0.0584616 -0.0454661)
(9.47117 -0.157603 0.108425)
(11.8761 0.537846 0.297063)
(11.5605 -0.155516 0.465875)
(10.1973 -0.301425 -0.126138)
(9.95009 -0.00433291 -0.338556)
(-0.0543894 1.18595 0.625508)
(9.39218 0.0777554 0.0533301)
(10.0435 -0.180343 0.0702496)
(10.0636 0.169592 0.151997)
(9.98131 -0.147791 0.155499)
(10.1976 0.00268927 0.21594)
(11.379 0.0430874 0.208329)
(10.5537 0.19393 0.796689)
(9.72243 0.449979 0.900365)
(10.0171 -0.278348 -0.320383)
(9.93086 0.124694 0.178959)
(9.73812 -0.301226 0.143768)
(12.0546 0.185319 1.47823)
(9.46009 0.246288 -0.278869)
(10.0918 -0.147605 0.437854)
(-0.161791 0.913187 0.627261)
(10.2553 0.0124716 0.046986)
(10.1395 0.0856947 0.00955504)
(-0.627063 0.836008 0.874316)
(12.1126 1.57707 -0.478417)
(9.80427 0.0832022 0.323531)
(0.128369 0.755203 0.191907)
(-0.0661937 1.16687 0.487921)
(9.96932 -0.0751887 0.0195167)
(10.2639 0.641513 0.301056)
(9.91804 -0.0331073 -0.206236)
(9.736 -0.0857479 0.320056)
(10.3269 -0.347431 0.0530114)
(9.7139 -0.191592 0.32528)
(11.9241 4.35787 0.819045)
(10.0749 0.136828 -0.0060945)
(10.1347 0.322579 0.0496556)
(9.97803 0.0327863 -0.211991)
(11.8294 -0.496341 0.430165)
(11.373 0.361931 0.20007)
(10.4641 -0.320797 -0.0483076)
(10.4789 0.0337554 0.24206)
(-0.603496 -2.64281 -0.469041)
(7.29274 -0.778136 -1.44667)
(10.5415 0.0478836 -0.138172)
(9.96282 -0.150304 0.0744749)
(10.0413 -0.237304 -0.0716577)
(10.7553 -0.0899979 -0.508426)
(10.1396 -0.328093 -0.311293)
(10.0761 -0.0742363 -0.423557)
(10.2394 -0.296408 0.477601)
(10.3124 0.0230037 0.46203)
(10.3327 0.0191372 -0.453001)
(10.3101 0.136508 0.121982)
(10.4511 -0.189432 0.369669)
(12.2089 0.559588 -0.117081)
(10.1425 1.2421 -0.764718)
(10.4868 0.0424401 0.130323)
(12.3253 0.731228 -0.370668)
(10.4084 -0.0935423 0.321366)
(9.91084 0.276143 0.460655)
(10.6922 0.447958 -0.00651248)
(9.82385 0.292618 0.169769)
(10.3054 0.300464 0.511923)
(10.2078 -0.0456732 -0.309534)
(10.0402 0.488626 -0.263876)
(8.08469 -0.38686 -0.935253)
(10.0672 -0.111885 -0.110033)
(10.3847 0.166489 -0.0955694)
(9.84002 -0.00234499 0.0215006)
(14.6877 -4.658 -1.45154)
(10.734 -0.314162 0.712025)
(10.776 0.112246 0.601192)
(7.38403 0.898385 0.765916)
(6.99831 0.867502 0.61489)
(9.95437 0.514192 0.146754)
(9.87821 0.293124 0.894461)
(5.51833 0.673324 -0.145488)
(9.9996 -0.147082 0.00369526)
(9.84394 -1.40681 -2.89048)
(10.6032 0.384539 1.83656)
(9.40018 -0.574858 -0.76169)
(10.4211 0.957974 1.46937)
(9.84538 0.260917 0.0526947)
(9.83466 0.143346 -0.0103091)
(10.0856 -0.307787 0.0745322)
(12.4424 0.173227 0.321002)
(9.48301 -0.00395285 1.14825)
(9.59749 -0.900037 0.409211)
(9.93718 -0.0296162 0.100963)
(10.2574 0.882311 0.161583)
(9.77496 0.168317 0.180587)
(9.99831 0.0241802 -0.0756782)
(10.0083 0.143498 0.0826622)
(9.87905 -0.0106767 0.199491)
(11.1328 0.204604 0.381076)
(9.4229 2.16178 -2.66758)
(14.4786 0.920423 -0.467073)
(10.4405 0.19986 0.0766396)
(10.1456 0.883158 1.3008)
(10.1322 0.0650044 0.18007)
(9.44129 -0.630839 0.305113)
(10.0332 -0.216965 0.167941)
(10.0732 0.622644 -0.0376474)
(10.3401 -0.0307522 0.151118)
(10.1426 -0.0570863 0.0871712)
(9.7926 0.0351979 0.456317)
(9.2398 0.31781 -0.722852)
(11.0824 -0.0730984 0.14261)
(10.2644 -0.164019 0.0850616)
(10.4612 -0.153352 0.0557808)
(12.049 0.501608 1.18685)
(9.6028 -0.0337329 -0.0595617)
(8.09056 -6.71311 2.45407)
(12.6718 -0.744098 -2.11795)
(9.52142 -0.0714889 -0.230213)
(9.5942 -0.147831 0.162116)
(10.4862 -0.263958 0.34503)
(10.1187 0.0226599 -0.069639)
(9.10238 -4.61235 2.46499)
(9.9537 -0.335123 -0.120282)
(9.94834 -5.50734 0.831175)
(10.1007 -0.0901542 0.222269)
(10.7555 0.115777 0.70675)
(11.1876 0.2746 0.114928)
(10.0099 -0.0971218 -0.0735003)
(9.71302 0.0881445 -0.246703)
(10.5753 -0.07535 -0.118166)
(8.81444 -0.361283 -1.72927)
(9.38726 0.0524747 -0.572184)
(10.2728 0.206705 0.564013)
(10.232 -0.0262177 0.192583)
(11.1397 -0.0315878 0.653037)
(9.77375 0.071732 0.0906681)
(11.2694 0.2287 0.39462)
(10.2916 -0.0656448 0.0497682)
(5.44507 6.43874 1.6221)
(11.121 0.212491 0.1892)
(10.1807 0.0473542 0.189213)
(11.1538 0.202539 0.300935)
(10.2639 0.0742867 -0.412324)
(10.2761 0.22734 0.226698)
(10.1705 0.347907 0.483734)
(10.0523 0.194259 0.0547601)
(11.3291 0.291189 0.292917)
(9.92728 0.064467 0.0234009)
(10.2693 -0.210336 0.0553622)
(11.2213 0.261306 0.165114)
(10.0934 0.115579 0.164131)
(10.1103 0.18111 -0.196096)
(9.84898 0.112181 -0.0808293)
(9.87782 -0.0279916 0.0280333)
(6.91465 0.0969903 -4.39317)
(6.80713 -0.348905 -4.87789)
(10.2956 0.0410279 0.47942)
(8.90591 0.232113 -3.48442)
(9.43401 0.265833 -0.0171002)
(9.69904 0.0347559 -0.351277)
(10.5215 0.555252 -0.242676)
(9.92561 -0.44294 0.0463577)
(9.76442 0.071758 0.0573217)
(10.375 0.0485212 0.261716)
(10.2301 -0.216202 0.182152)
(9.72548 0.258021 -0.123303)
(10.0999 0.0463717 -0.60686)
(5.30118 -0.0675426 -5.56984)
(8.63785 -0.544564 1.56672)
(9.82091 0.177212 -0.0595483)
(9.98692 0.0650763 0.140245)
(9.85262 -0.116424 -0.156693)
(10.0202 0.0987178 -0.231496)
(9.83875 -0.0557874 -0.211978)
(9.9831 0.230505 -0.144984)
(10.5495 -0.239528 0.141787)
(10.5691 -1.43479 1.9866)
(10.1616 0.131393 -0.0907617)
(9.57429 -0.475963 0.6604)
(10.1673 0.140432 -0.120896)
(9.96205 0.0572703 0.306419)
(9.8487 0.111595 0.00232673)
(10.039 -0.114127 -0.229331)
(9.96423 0.073348 0.129352)
(10.0387 -0.0686508 -0.194095)
(10.0736 -0.225024 -0.372183)
(10.191 -0.242192 0.0825182)
(9.36348 -0.717871 -0.831132)
(5.16584 0.44833 -4.00573)
(9.85796 -0.00746473 -0.257572)
(-0.275292 -0.740691 0.783506)
(9.60192 -1.7281 0.892688)
(12.5633 -0.926675 -0.400183)
(0.0511839 -0.696146 0.386694)
(9.99078 0.636865 -0.0504465)
(9.46878 -0.0137567 0.872001)
(10.2864 -0.338125 -2.07412)
(10.8776 -0.714012 0.452457)
(5.84826 0.389837 -3.02339)
(0.273785 0.628851 1.27072)
(1.35755 0.284718 -2.64173)
(10.6784 0.126575 0.498976)
(10.0445 0.288363 0.161697)
(10.6321 -0.0078977 1.10903)
(10.0387 0.0309909 0.409055)
(4.10221 -0.180138 0.502655)
(10.5262 0.0778756 -0.199454)
(10.422 -0.167994 -0.0535179)
(9.78229 0.0182488 -0.204417)
(10.2542 -0.0499056 0.161874)
(10.6472 0.212846 0.701351)
(9.55246 -0.133385 -0.889652)
(10.2383 0.247211 -0.409514)
(10.2436 -0.095414 -0.281717)
(-1.34796 0.631468 -0.087134)
(8.24987 0.220999 -1.89624)
(10.3987 -0.125117 -0.126875)
(10.0588 -0.533776 -0.203892)
(5.4373 0.463758 -1.59152)
(6.1871 0.258856 -2.31356)
(9.6933 0.458321 -1.02184)
(2.85753 -3.66981 -0.78927)
(8.8767 0.21769 1.10263)
(4.60896 0.26191 -3.07256)
(4.24049 0.151888 -3.99133)
(10.3405 0.0830487 -0.0350971)
(9.82609 -0.122139 -0.751283)
(9.586 0.0323773 0.218896)
(9.92304 -0.165565 -0.0617501)
(10.2795 -0.0120967 -0.119882)
(-0.10543 1.37779 0.663081)
(10.5351 -0.0119827 -0.190434)
(10.4275 -0.0401594 0.25248)
(10.1065 -0.0801296 -0.162021)
(10.1073 -0.0265655 -0.127005)
(-0.22216 1.13486 0.647634)
(0.301362 0.734655 1.10581)
(9.45092 -0.124658 0.175147)
(10.2882 -0.0371955 0.31602)
(10.0392 0.0543458 -0.0455784)
(10.0704 -0.00345305 0.127436)
(10.1596 -0.173266 0.216567)
(10.0594 -0.118975 -0.13244)
(9.75328 -0.124234 -0.0105541)
(10.102 -0.0289389 0.0560031)
(9.98785 0.121234 0.195709)
(6.94495 -0.548889 -2.42241)
(9.63398 0.225813 0.00778432)
(9.68414 0.134942 0.0198832)
(10.036 -0.338559 0.211592)
(10.067 0.207968 -0.0650405)
(9.76927 -0.150491 0.0771336)
(4.14467 -0.417855 -1.66587)
(12.0044 -0.908071 0.324743)
(9.91937 -0.228929 0.169298)
(10.3186 0.519186 -0.175553)
(10.1275 -0.118512 -0.245527)
(9.63416 -0.453115 0.184142)
(9.64778 -0.23861 0.299131)
(11.2645 0.129686 0.037953)
(10.1141 0.231692 -0.033002)
(-1.98966 0.996784 1.40357)
(11.525 -0.127574 0.136127)
(10.1823 -0.12235 -0.0770705)
(10.5121 0.206324 -0.149532)
(8.1365 0.239944 -2.80222)
(14.9698 -0.298417 -0.695484)
(9.97231 0.23386 0.262689)
(10.2128 0.33238 0.184291)
(12.4522 0.734594 1.0889)
(9.62953 0.192651 -0.358815)
(10.0516 -0.236916 -0.00182362)
(10.8172 0.044928 0.372459)
(10.1086 0.380184 0.0464514)
(9.31234 0.436282 -0.555001)
(4.19481 -1.83867 -5.7384)
(11.5252 -0.842407 0.529252)
(14.3842 0.96459 0.854415)
(10.2001 0.0607648 0.0621457)
(7.94689 0.318735 -1.96212)
(9.99325 -0.295722 0.091718)
(10.7275 -0.980079 -0.193392)
(9.71665 -0.282124 0.474539)
(11.3011 0.0566769 0.0601767)
(10.2947 0.573003 0.232613)
(9.68684 -0.26929 0.449018)
(5.73594 1.15765 -5.02557)
(12.6555 0.755822 1.39995)
(11.7684 -0.303522 -0.506724)
(-2.02076 0.41784 0.904453)
(11.2183 0.0739713 0.291901)
(10.2032 -0.0861471 0.150745)
(10.3895 0.176724 -0.0413126)
(10.9356 1.01739 -0.095506)
(10.0461 -0.0982318 0.355967)
(11.4669 -0.00456126 0.247668)
(0.494573 -0.740271 1.21236)
(10.0243 0.0792415 0.177889)
(12.149 0.0161489 -0.715324)
(9.99038 -0.224628 -0.00387382)
(9.78725 -0.0607427 -0.034039)
(11.4539 -1.64837 2.4313)
(9.80779 0.0366851 -0.083105)
(10.3976 -8.11036e-05 0.112736)
(8.89825 -5.44168 0.715987)
(9.57171 0.340026 0.340945)
(9.42388 -0.394705 -0.215278)
(11.6062 -0.487769 0.609965)
(9.90148 0.796271 0.819471)
(9.8999 0.0347615 0.104605)
(11.9245 -1.51917 -0.0987578)
(5.64019 -0.51679 0.50983)
(10.3324 0.0377793 0.424474)
(9.6786 -0.612237 -0.541799)
(10.0754 -0.012268 0.380365)
(10.0227 0.132441 0.170377)
(9.97275 -0.257398 -0.499922)
(10.1884 -0.521421 0.036697)
(7.12543 0.81497 -1.10616)
(-1.31932 1.11729 -0.942517)
(10.7087 0.338451 -0.708606)
(9.7877 -0.499127 -0.0361098)
(10.3963 -1.75852 0.0762966)
(6.09027 2.45784 -0.533092)
(5.22465 0.0857245 0.0892239)
(10.8077 -2.9985 4.20585)
(9.97101 -0.0213278 0.497817)
(10.0809 0.339779 0.0801815)
(8.93968 0.0963808 0.959952)
(9.93644 0.0813663 0.221545)
(8.69572 0.28001 -0.151772)
(9.57271 -0.285416 0.303544)
(9.47029 -0.350454 1.29089)
(9.62636 0.747956 0.921894)
(-0.910232 -0.615621 0.0186079)
(11.4475 -0.000596381 0.123359)
(9.96293 0.57014 0.261494)
(10.2618 -0.0155585 0.268415)
(9.87186 -0.130308 -0.058029)
(10.4169 -0.108114 -0.276015)
(6.30022 -1.51776 -2.70673)
(9.84733 0.147143 0.567609)
(7.59509 3.50491 -0.537151)
(9.89977 0.0696647 -0.150104)
(10.0827 -0.387877 -2.59951)
(10.2041 -0.30568 0.189635)
(10.4988 0.106616 0.183968)
(10.38 0.338388 0.517118)
(10.3286 0.0322179 0.108751)
(9.20008 0.176113 -0.838042)
(12.2345 -0.415321 -0.611969)
(11.6735 -0.0867233 -0.175004)
(9.55289 0.820179 2.65035)
(7.85293 3.78199 2.93385)
(9.65673 0.838041 0.602701)
(10.1689 0.434169 -0.049645)
(10.9563 0.358676 0.174465)
(6.58767 -0.142239 -2.33786)
(10.1977 -0.0161292 -0.121658)
(10.0886 -0.0667272 0.0245168)
(9.91949 -0.163985 0.40231)
(11.2669 0.0228992 -0.0862698)
(11.8767 0.358338 4.86731)
(9.09376 -0.263195 1.05935)
(10.1857 -0.18551 0.071356)
(10.0132 0.47193 -0.0951873)
(9.6188 0.73652 -0.149697)
(10.3243 -0.141008 -6.44025e-06)
(10.1787 0.259038 -0.103615)
(14.9348 -1.16104 0.509582)
(11.5199 -0.166089 0.907925)
(3.64687 3.74086 -0.983331)
(10.1123 -0.375546 0.355216)
(11.2768 -0.566874 -0.0660252)
(10.293 -0.900962 -0.887139)
(12.0576 -0.069129 -3.79661)
(9.81117 0.115513 0.53474)
(2.26816 -0.375504 -3.61062)
(10.2013 -0.165396 -0.274773)
(10.1302 -0.00365456 -0.0367298)
(10.4573 -0.188497 0.732353)
(12.5731 0.590589 5.02617)
(9.91351 0.00510254 0.177788)
(9.93411 -0.0147508 -0.622605)
(9.97505 -0.230046 0.0982938)
(10.5918 -0.683241 0.667425)
(10.4772 0.0300661 0.903825)
(10.1497 0.120452 -0.0428664)
(10.7669 -0.181912 -2.48813)
(9.49358 -0.885514 -2.09488)
(12.0956 -0.0406219 -0.386178)
(10.0692 0.248756 -0.197137)
(9.44254 0.663502 -0.204917)
(3.27626 0.713267 -3.06752)
(0.469992 -0.972291 2.53008)
(5.80749 2.85224 1.26448)
(12.6677 -0.590779 -1.9669)
(7.59918 -0.321266 0.0357815)
(10.3215 -0.0903323 0.0873791)
(10.0333 0.591432 -0.296642)
(8.93865 1.09838 3.14713)
(9.75832 -0.2527 0.155229)
(4.74032 -0.40857 0.553874)
(9.54662 -0.318453 -0.0318374)
(9.85893 0.0983511 0.102246)
(-3.19037 3.59669 -0.413452)
(9.84493 -0.775205 0.920032)
(10.5307 -0.169643 0.00896559)
(10.0414 -0.17037 0.532018)
(8.6068 0.173408 -0.308276)
(8.46397 0.208076 -2.25822)
(9.65244 0.963774 0.505789)
(9.89795 0.0679633 0.0877498)
(10.3008 0.35608 0.687436)
(11.931 -0.509726 -2.17922)
(10.1988 0.128789 0.203114)
(10.0134 0.233377 -0.225332)
(9.62943 -0.153222 -0.130964)
(9.83542 0.722167 -0.302793)
(9.9868 -0.0313122 -0.134745)
(11.4949 -0.533151 -1.37575)
(10.8483 -0.25471 -0.118591)
(8.74022 -0.0670599 0.375244)
(9.85858 -0.670335 0.486566)
(9.62328 -0.138585 -0.185096)
(9.723 -0.105119 -0.106272)
(9.58169 -0.0396189 0.548171)
(9.68951 -0.230386 0.326777)
(10.3881 0.486581 0.277736)
(11.356 -0.77699 -0.0743192)
(14.106 -0.146234 1.20034)
(10.8727 -0.00069311 0.465712)
(11.4244 -0.416869 -0.930625)
(10.1889 -0.148204 -0.353801)
(3.87016 -2.18771 -1.77817)
(9.79026 0.0261912 -0.202169)
(9.96623 -0.204566 -0.235684)
(9.73905 -0.125858 0.173414)
(13.78 -0.360314 2.08456)
(1.46302 3.55804 -0.103773)
(6.27667 3.32842 -0.957037)
(-0.367925 1.32303 0.311295)
(10.0702 -0.796658 -0.605686)
(11.1122 -0.519628 0.476846)
(7.44693 -0.502047 1.72802)
(-0.215281 1.31262 0.72246)
(11.0463 -0.336089 -0.183921)
(10.2134 -2.15719 0.725495)
(9.96234 -0.310462 -0.336162)
(9.99564 -0.371696 0.0456293)
(8.93752 0.00166656 0.809306)