/*--------------------------------*- C++ -*----------------------------------*\
| =========                 |                                                 |
| \\      /  F ield         | OpenFOAM: The Open Source CFD Toolbox           |
|  \\    /   O peration     | Version:  2506                                  |
|   \\  /    A nd           | Website:  www.openfoam.com                      |
|    \\/     M anipulation  |                                                 |
\*---------------------------------------------------------------------------*/
FoamFile
{
    version     2.0;
    format      ascii;
    arch        "LSB;label=32;scalar=64";
    class       volScalarField;
    location    "0.0321319";
    object      p;
}
// * * * * * * * * * * * * * * * * * * * * * * * * * * * * * * * * * * * * * //

dimensions      [0 2 -2 0 0 0 0];

internalField   nonuniform List<scalar> 
3948
(
-32.5605
1.39202
-0.430155
-54.4718
-57.9639
-1.40169
-53.941
-55.3441
-1.84139
-2.33156
-1.3143
-7.0592
-10.533
-10.5182
-24.0244
-27.6613
-18.568
-0.385834
-18.3105
-5.79214
-7.04317
-43.0157
0.190605
-6.41873
-7.66651
-85.2951
-5.99213
-12.3273
-11.0857
-18.554
-1.9352
-14.8331
-8.94137
-22.9519
-38.5176
-6.26745
-65.7508
-16.6163
-34.0183
-25.4569
-22.0081
-22.2765
-19.6915
-19.3064
-7.29564
-31.0549
-12.3742
-17.4334
-35.6689
-31.7262
-13.8603
-35.2713
-23.6775
-39.0016
-35.0004
-40.7084
-0.982243
-7.34054
-51.1968
-3.62929
-26.104
-26.1569
-1.78216
-18.4815
-18.7326
-18.041
0.4141
-7.02964
-8.69819
-42.0926
-32.7907
-19.5197
-35.313
-1.09517
-7.61427
-4.14168
-1.27388
-11.6726
-53.8875
-18.4379
-19.3442
-21.0542
0.666432
1.67744
-20.1372
-19.5972
-24.7497
-20.243
-7.96741
0.0961866
-3.95633
-7.4385
-8.84409
-3.96871
-4.26677
-8.70291
1.40559
-19.3739
-0.78797
-4.97077
-3.55509
-12.4939
-25.4754
-1.69624
-8.28893
-17.1173
-4.77583
0.0253649
-48.7223
-3.99175
-5.39422
-6.27896
-0.108409
-6.56735
-59.205
1.64528
-4.73793
-17.807
-1.87745
-29.3455
-48.0718
-6.21406
-17.9743
-33.3058
-11.9369
-5.20653
-10.9205
-24.9069
-21.3696
0.631386
-12.2596
0.268776
-20.7096
-26.6598
-1.86488
-23.1427
-4.01449
-17.1531
-34.8624
-3.40107
-18.59
-6.12972
-0.657547
-8.0442
-15.2824
-9.55606
1.3171
-12.478
-30.8455
-2.84182
-2.49018
-4.03022
-9.35649
-18.1949
-8.32323
-6.01923
-1.81803
-20.9166
-24.9057
-4.3629
-9.47733
-4.04772
-1.22679
0.251955
-0.986997
0.928521
-9.88547
-23.687
-2.81127
-53.4275
-27.4025
-6.70012
-9.1785
-20.8548
-83.6343
-0.529189
-11.6533
-15.6
-6.25263
-6.75328
-25.7087
-55.355
-20.6561
-13.8205
-4.6071
-14.6764
-20.1777
-10.0195
-17.6315
-6.89507
-15.5687
-9.51089
-3.23909
-3.22046
-3.13436
-6.99949
-1.63318
-2.93567
-7.53242
-12.6125
-9.85433
-5.14349
-36.1947
-8.04815
-22.8016
2.64342
-10.3248
-33.0182
-16.7651
-23.9409
-6.8749
-85.0715
-10.2109
-16.3998
-2.86224
-43.2138
-0.642595
-10.8537
-32.607
-2.26602
-25.9213
-21.7763
-14.1004
0.719345
-13.8467
-1.3923
-4.38926
-0.130705
-0.508246
-48.1699
-24.2763
-25.6758
-0.198793
-5.08218
-5.27147
-40.7948
-7.06017
-3.71139
-1.9685
-32.8471
-9.68353
-7.51737
-1.84808
1.54235
-16.149
-2.68401
-2.63601
-9.07567
-2.35171
-2.7297
-6.04393
-5.41949
-0.037262
-0.163381
-25.7979
-9.12457
-1.87895
-83.3683
-5.19252
-7.26437
-12.1878
-6.34568
-19.6281
-28.9875
-29.1588
-24.1605
-29.039
-2.31324
-17.1159
-26.0675
-9.38442
-13.3954
-12.9409
-27.6661
-25.5254
1.12889
-14.8577
-2.30842
-17.3668
-55.1692
-15.2094
-5.08107
-31.5203
-20.3842
0.588069
-8.55266
-15.3583
-17.9261
-5.25565
-1.88795
-6.64206
-11.9508
-17.4284
-12.4803
-10.2211
-5.63269
-9.57847
-52.7955
-15.1978
-26.8002
-81.9422
-31.0125
0.646537
-25.7299
-9.94642
-3.55159
-2.32322
-19.8057
-27.911
-4.47244
-0.398248
-7.03668
-7.39997
-12.759
-6.35941
-0.940889
-19.3403
-38.8253
-38.0124
-10.2662
-54.3387
-17.2089
-3.00738
-59.2167
-0.660112
-3.84505
-1.40199
-2.02859
-0.000537757
-4.94903
-23.9392
-18.3451
-40.8111
-25.3908
-39.8593
-0.534244
-28.7939
-10.8518
-40.2337
-57.541
-33.8995
0.0488461
-17.7343
-5.45474
0.408169
-0.791035
-20.7646
-35.3316
-13.0026
-10.8759
-12.2567
-23.6674
-13.2259
-28.1077
-16.73
-0.606604
-3.86178
-3.9357
-0.947026
-8.63818
-21.0651
-6.70122
-27.9768
-17.3083
2.48209
-42.9768
-6.38764
-5.71485
-4.76822
-5.4715
-6.27882
-19.2848
-19.9567
-22.1139
-22.8601
-23.268
-20.4078
-23.8096
-14.0818
-3.15799
-3.02407
-8.78895
-6.56095
-2.03486
-21.8529
-20.9514
-24.392
-26.3166
-17.9724
-6.7467
-6.43186
-4.54841
-10.1284
-6.25853
-4.88914
-4.94561
-5.91233
-4.18732
-4.35962
-45.6619
-6.73415
-4.87067
-4.81796
-7.29285
-6.49921
-8.79225
-51.7112
-16.4833
-83.609
-20.0373
-1.37914
-1.5485
-11.4566
-10.1096
-11.9633
-9.44464
0.368956
-0.297304
0.356228
1.11595
0.767649
0.253208
-27.6428
-27.4335
-28.786
-12.7769
-6.34355
-31.1801
-4.9538
-12.4242
0.328502
-15.9277
-0.777975
-12.996
-35.1365
-13.5461
-86.9774
-82.6216
-72.2517
-7.87597
-6.29656
-4.91537
-30.6085
-9.06355
-2.41669
-5.19723
-29.64
2.77733
-47.0946
2.39254
-52.9722
3.03923
2.41347
-0.676458
-31.0514
-11.6872
-13.8987
-11.5237
-15.019
-13.2184
-25.4348
-15.8245
-0.390968
-25.3609
-0.273688
-14.5955
-14.1162
-16.0673
-18.6955
-42.1723
-29.5567
-6.38822
-30.7698
-14.9607
-18.3114
-19.8071
-18.5829
-9.40371
-10.574
-19.253
-16.21
-20.2997
-3.6229
-3.04705
-1.93293
-5.58135
-6.43437
-9.81225
-11.2049
-9.01993
-11.4394
-10.2262
-9.3678
-9.99525
-2.37162
-38.5469
-34.2863
-12.739
-5.9954
-16.9098
-23.2557
-16.678
-17.4557
-26.5461
-17.4422
-10.715
-14.2568
-31.179
-16.4014
-19.4727
-9.7315
-13.1118
-11.9773
-40.4265
-19.9234
-48.177
-27.1357
-1.45673
-43.0614
-25.2455
-24.7602
-38.5791
-51.3315
-13.3323
-43.1232
-40.8687
-23.4237
-16.4534
-15.6639
-15.4082
-15.8812
-36.7639
-6.66216
-8.42516
-6.5591
-5.58541
-1.3495
-37.4502
-5.35558
-3.94301
-9.60859
-3.96891
-20.19
-16.9328
-39.9748
-47.5194
-4.34284
-4.21315
-3.54237
-2.52711
-4.56735
-3.74935
0.207411
-0.492555
-5.97242
-1.79484
-4.51301
-4.65068
-2.81168
-1.85657
-2.4482
-8.55818
-6.72741
-12.0338
-4.60901
-0.0279284
-5.09922
-33.6193
-8.54212
-1.79517
-4.98966
-2.5827
-2.71575
-4.12267
0.800493
-3.98004
-3.35105
-5.90109
-2.98963
1.38698
2.38097
-5.24584
1.69226
-5.64048
2.96122
3.58878
-0.516427
0.952976
-0.569085
-0.755674
-0.89135
-3.37182
-0.397833
-7.08891
-0.351812
2.35374
2.74515
-2.59363
-8.17183
-14.9591
-29.3788
-18.9978
-10.937
-10.0645
-6.15295
-1.88224
0.465618
0.532983
-10.5369
-30.2563
-38.6456
-33.1243
-22.954
-6.85577
-8.15559
-12.1354
-0.0619602
-4.43068
-21.262
-3.91216
-10.6776
-13.2277
-13.3675
0.230054
-19.4374
-25.8675
-15.8909
-19.763
-20.2997
-3.69289
-18.3103
-10.3177
-0.211569
-10.7685
0.230687
-3.85069
-9.17577
-12.353
-0.330998
-9.55405
-17.7582
-11.3855
0.557453
-26.9453
-4.04231
-5.01288
-22.6628
-19.8106
-22.7509
1.30998
0.152572
0.961741
0.0455704
-0.198367
-0.737078
0.789224
-3.52488
-2.99459
-2.48406
-14.5657
-36.3736
0.814357
-9.14677
-6.95535
-22.4532
-50.8173
-1.24364
-2.25846
-10.688
-5.04127
-0.394521
-0.0336418
-4.31714
-8.85804
-12.8405
-9.11316
-34.2796
-29.2109
-9.05221
-11.3691
-9.48657
-15.3727
-3.28445
-47.8419
-29.8655
-14.797
-23.7627
-21.4857
-9.94718
-47.1967
-10.8375
-10.8528
-10.6566
-25.0256
-7.89847
-12.3552
-19.6899
-23.213
-51.4876
-19.2574
-3.24145
-7.65154
-52.1108
-52.9616
-7.69464
-10.2106
-14.127
1.625
-11.1814
-20.7022
-0.587717
0.354256
-0.185872
-3.23445
-64.7845
-11.9673
0.12937
-9.62254
-9.08967
-27.872
-9.85677
-31.4557
-5.129
-7.23357
0.00336162
-31.9971
-18.7803
-7.17987
-39.3385
-33.5817
-25.4022
-12.929
-33.4613
-28.6616
-32.3491
-14.8818
-32.8434
-35.2959
-21.3833
-21.9017
-24.9854
-26.6795
-14.9439
-40.7846
-27.7539
-76.6439
-72.9145
-38.1648
-8.33407
-17.1886
-27.5524
-12.2364
-4.93583
-25.5192
-12.3122
-27.3089
-23.9672
-1.95196
-4.11962
-4.61909
0.814981
-45.7043
-5.0052
-0.962342
-1.59488
-45.5649
1.614
0.871538
-0.325414
-3.11269
-2.67178
-3.14677
-36.6829
-3.46704
-14.6786
-25.1425
-40.6001
0.819772
-2.35148
-0.253938
-3.54973
-0.575145
-2.35251
-9.44097
-25.1329
-26.605
-4.02448
-12.7661
0.611154
-3.25229
-2.14499
-8.14696
-30.9968
-2.61983
-14.7039
-26.7174
-6.3924
-33.8743
-13.5459
-45.8137
-2.8645
-6.04537
-0.952807
-0.525644
-49.1623
-66.2579
-1.71087
-2.14098
-30.7929
-6.46072
-3.54744
-1.18951
-0.262734
0.315903
-19.1021
0.512914
-8.76555
-29.1562
-36.7625
-53.0775
-18.9885
-10.8111
-59.567
-18.7124
-21.7127
-25.2468
2.51166
-30.4068
0.145627
0.926138
-31.1124
-37.7853
-7.80609
-41.8771
-18.1562
-31.2242
-33.6917
-4.54402
-28.1854
-10.0982
-10.3911
-32.8967
-51.3993
-39.9803
-59.5278
-22.6951
-10.9486
-13.7463
-27.1933
-7.45724
-6.14955
-10.1522
-9.91581
-14.4779
-12.5265
-16.4533
-48.8973
-22.6742
-20.3455
-8.59627
0.341963
-9.63657
-12.8683
-43.0236
-5.6937
-5.86433
-36.748
-31.2779
-77.2348
-69.9418
1.23895
-14.3809
-66.2636
-21.3996
-27.0314
-1.3004
-4.91862
-36.4646
-27.9847
-12.5446
-21.215
-75.7546
0.602576
-4.51003
-26.3057
-0.822997
-27.0204
-65.0539
-24.574
-32.6025
-7.4253
-30.1185
-21.5038
-28.7788
-61.6401
-64.671
-31.0588
-8.13404
-10.2956
-13.4146
-49.317
-52.1574
-63.731
-28.6858
-2.05836
-34.8954
-19.6444
-21.7829
1.07407
-2.81885
0.0624101
-17.1948
-0.522086
-11.4204
-1.86697
-0.730325
-44.9834
-19.5399
-40.4319
-30.1285
-27.516
-18.0364
-8.37516
-20.0448
-20.5266
-2.91134
-2.28877
-33.9868
-27.5161
-14.7918
-3.95804
-8.22878
-63.5883
-77.6816
-87.9145
-13.0827
-81.8311
-5.55356
-0.881833
-12.7036
-13.7172
-32.3466
0.0299659
0.157769
-1.31993
-26.8076
-29.3373
-16.2622
-6.72631
-22.457
-15.1234
-4.46019
-25.2329
-24.595
-18.224
-5.8207
-8.90911
-22.3706
-24.1258
-23.8033
-41.4427
-9.05164
0.345779
-5.7963
-4.43028
-17.9246
-12.7486
-27.9518
-59.3816
0.378363
-9.11417
2.08788
0.57931
1.31009
2.06452
0.641622
-10.9324
-0.236579
-3.39822
-2.32328
-5.56199
-5.00198
1.85364
-12.611
0.549305
-4.9729
-1.57246
-28.2915
-12.6254
-18.1312
-35.0585
-50.0622
-27.359
-13.6335
-10.7936
-8.27468
-26.1904
-4.72505
-4.73759
-37.4098
-45.2441
-3.46957
-14.7221
-0.191576
-28.0506
-5.07973
-10.2254
-7.238
-0.656635
-4.6384
-6.94048
-27.1712
-2.09917
-4.27984
-12.4526
-39.9033
-4.12457
-5.02714
-11.0751
-10.1867
-11.8647
-14.6888
-35.9912
-74.4464
-8.67938
-2.60878
-0.644002
-12.8275
0.540152
-4.85868
-18.6104
-31.3319
-9.70903
-20.7421
-17.5773
-5.54803
-40.117
-1.28027
-2.85414
-16.9198
-18.0139
-2.27785
-3.24844
-0.968986
-7.22567
-24.8065
-26.8858
-34.9225
-65.5074
-22.3931
-11.2377
-20.1803
-32.7628
-73.6861
-54.9844
-44.1134
-32.5217
-6.68354
-10.0897
-26.0395
-15.5902
-12.6469
-12.3055
-22.5006
-28.12
-11.3348
-28.2944
-47.7797
-32.6598
-28.0182
-5.53717
-1.98064
0.860915
-10.1677
-1.51042
-24.5779
-19.9282
-20.169
-30.0191
-13.1362
-3.44398
-3.29871
-0.387897
-48.9307
-16.0304
-44.0871
-27.1415
0.970139
-38.1351
-31.3248
-20.2288
-2.57003
0.22609
-8.83962
-9.8268
-20.046
-29.319
-13.8938
-13.661
-27.1607
-7.30294
-27.692
-26.9718
-1.33385
-47.8204
-16.8182
-0.531311
-7.74913
2.79781
-0.537079
-5.26419
-0.0223945
-18.8809
-20.5674
-17.2776
-12.1921
-45.0614
-8.07649
-33.342
-5.69003
-11.485
-6.07128
-4.50193
-6.92064
-0.494692
-30.4306
-8.26261
-11.7285
-9.4468
-39.5351
-37.0296
-5.98781
-9.3273
-1.58289
-7.50498
-21.0001
-10.8109
-25.3531
-1.62624
-24.3935
-30.6975
-43.9302
-44.4099
-1.37264
-23.6208
-5.33344
-9.6117
-6.36415
-8.89659
-30.0635
-35.0371
-29.6881
-29.4263
-15.0233
-36.6563
-11.8541
-58.5069
-57.3264
-39.9644
-50.6035
-8.58063
-24.9596
-5.87298
-4.65077
-20.2963
-7.49088
-2.12241
-17.7506
-40.8326
-28.7534
-14.5407
-15.9759
-42.8488
-13.6469
-29.9835
-18.5141
-23.3625
-14.5671
-9.21888
-17.5053
-26.4359
-44.6443
-42.451
-7.14498
-31.5381
-5.59455
-4.90214
-83.0205
-22.0585
0.475187
0.949602
0.661742
1.23507
2.58912
-67.0501
-64.2815
-80.117
-26.798
-61.8993
-67.872
-30.687
-4.18038
-29.6057
-45.2378
-16.3264
-16.142
-29.865
-27.9547
-27.8605
-11.0782
-21.8956
-1.71101
-25.042
-57.7837
-13.6464
-8.02545
-16.3906
-73.8755
-11.7125
-7.3042
-22.06
-2.50051
-4.3616
-2.60356
-6.12546
-10.9337
-60.6397
1.9086
-5.5294
-11.1094
-13.5672
-24.5949
-23.119
-10.92
-31.4663
-33.2505
-8.59898
-30.7387
-9.41203
0.215038
-1.70779
-11.7027
-13.2209
-13.5818
-13.8654
-8.74282
-12.156
-16.8091
-13.4224
-6.61279
-51.2585
-63.4396
-26.5379
-43.4735
-12.8219
-17.4137
-67.2127
-14.7632
-0.563819
-24.2968
-5.15801
-23.3866
-37.6016
-4.94796
-86.1051
-80.6019
-27.5105
-31.252
-5.78555
-87.386
-79.8679
-54.9086
-31.0577
-3.8002
-26.3293
-40.2045
-1.3551
1.90744
-3.5986
-5.86945
-10.8152
-7.22766
-3.1038
-27.4195
-5.13451
-2.61139
-4.86646
-40.8255
-29.4235
-22.9028
-29.5934
-29.2991
-1.18355
1.04909
-2.52988
-2.67068
-11.494
-17.1397
-3.14831
-2.21933
-0.886356
-0.384838
-12.2072
-0.805077
-2.72991
-0.395429
-0.859526
-82.9731
-4.06558
-6.86713
-40.9819
-2.62436
-4.94506
-82.3976
-15.0832
-14.9167
-28.1627
-30.9903
-17.1043
-27.8368
-38.3559
-3.13683
-59.1938
-36.7956
-46.2728
-31.8957
-30.46
-29.4996
-32.1536
-86.1146
-6.75518
-2.66181
0.784293
-16.4443
-53.1482
-30.4486
-14.3816
-45.3188
-14.8491
-8.63952
-54.6309
-7.56948
-19.5095
-12.5985
-1.18577
-35.2337
-42.2697
-51.7661
-69.9368
-46.684
-60.9578
-10.8215
-76.9426
-37.062
-61.1153
-2.53361
0.0640886
1.03954
1.32639
-2.17893
-8.86635
-0.600208
-3.44212
-2.65506
-6.57035
0.112161
-2.43164
-17.2344
-7.63077
-7.59479
-28.9448
-3.19965
-29.6467
-13.961
-1.84797
-8.65534
-33.3501
-6.46664
-52.3521
-18.1992
-5.01219
-47.6055
-22.1147
-13.0733
1.01977
-20.0532
-2.69564
-25.9892
-6.76702
-66.289
-49.5974
-33.8301
-7.57178
-3.94248
-10.5248
-2.42066
-3.83885
-3.41584
-12.8865
-17.1339
-58.6976
-32.5559
-48.967
-53.8158
-2.24356
-4.05023
-11.5188
-4.03773
-14.4085
-27.2724
-6.83624
-1.77882
-20.492
-55.6122
-58.1212
-6.76541
-75.471
-16.5631
-24.6892
-24.2133
-4.71757
-15.3829
-28.316
-10.3794
0.105149
-2.68383
-4.98743
-7.6721
-4.28049
-31.3851
-20.6843
-2.16712
-10.8693
-46.9473
-16.2228
-3.29089
-1.64417
-2.40271
-16.1284
-2.68238
-4.91362
-6.89436
-22.7397
1.63198
-11.4577
-12.5795
-29.0835
-12.8035
-1.20291
-29.4416
0.0803866
-1.67046
-1.43508
-30.747
-2.76421
0.553097
-0.331349
-7.22181
-21.9218
-6.64726
-5.58595
-36.8581
-4.22377
-2.53393
-3.6605
-10.7387
-76.2012
-50.669
-12.9432
-6.53568
-21.2166
-13.0384
-29.412
1.70561
-0.835881
-16.3373
-8.52537
-29.0867
-25.4246
-50.4388
-3.64457
-32.4909
-0.35517
0.64614
-1.82451
-1.43981
-7.94076
-4.55348
-18.5346
-4.35505
-3.01056
-3.65035
-15.2962
-14.8133
-29.4452
-65.0203
-5.77551
-2.59462
-6.86404
-73.0307
-0.525038
-1.54944
-15.4458
-2.67907
-7.33032
-10.6125
-9.4956
-5.22411
-18.5302
-0.878103
-13.1235
-7.15934
-3.98675
-2.31824
-6.93215
-14.3806
-2.44638
-1.09871
-1.97054
-1.79478
-14.205
-15.6566
-32.1765
-86.6255
-42.0927
-40.3313
-62.1476
-53.9226
-42.4401
-28.3335
-24.4978
-15.8079
-25.2645
-1.77443
-3.08824
-52.2189
-14.2773
0.601497
1.97064
1.34296
1.73212
1.05571
-10.9261
-6.5941
-3.76204
-16.5075
-30.6885
-3.64413
-5.05269
-6.00938
-6.40901
-18.2191
-23.4535
-22.0048
-20.286
-34.703
-28.627
-12.7825
-14.4249
-14.1885
-17.078
-1.06277
-13.7957
-1.11047
-1.74683
-11.6914
-28.5118
-54.9188
-31.0919
-20.926
-23.5984
-22.821
-9.87624
-29.4028
-24.0105
-27.0141
-13.9325
-28.7368
-27.9747
-24.5991
-18.3123
-45.8833
-29.6446
-31.2352
-50.9992
-14.4833
-12.6559
-12.1533
-6.36156
-31.968
-3.82077
-8.86045
-0.973108
0.881837
-28.5602
-8.79287
-37.5288
-13.3682
-38.4625
-25.8544
-15.7538
-0.877014
-8.67997
2.17119
-11.2228
-0.278456
-40.6406
-29.3229
-31.3298
-28.1497
-22.0766
-16.5884
-10.0952
-4.00963
-2.46827
-48.3139
-51.2618
-20.4509
-13.6927
-61.6613
-2.41969
-16.9225
-31.1012
-28.8577
-7.96001
-4.64256
-21.1066
-4.2368
-62.9576
-35.0913
-18.5233
-34.2059
-23.9443
-23.9172
-63.3661
-50.9939
-44.1665
-45.1023
-23.1458
-48.8439
-36.3898
-23.5519
-25.1244
-35.2004
-22.8659
-26.5721
4.19304
-23.646
-24.5437
-19.8235
-1.01819
-0.975931
0.469289
-2.3186
-2.26002
-48.0995
-0.49735
0.382567
-41.2997
-11.0038
-43.7651
-12.3306
-44.831
-7.66675
-52.1955
-34.1603
-22.9005
-0.171527
-4.41738
-25.1705
-0.278288
0.47594
-24.8068
-19.2859
-17.716
-5.78613
-16.0532
-19.8891
-3.67938
-21.6083
-5.83083
0.64323
-22.6229
-1.98466
-3.02073
-1.05358
-2.66218
-4.28366
-4.99825
-5.98076
-1.58546
-14.8276
-17.5903
-4.99343
-7.82578
-17.4227
-18.4986
-3.469
-1.96427
-17.7992
-22.0862
-24.1275
-22.8606
-11.6878
-15.0681
-17.9964
-12.0078
-0.40564
-17.5222
-4.55548
-28.6304
-2.48327
-2.3125
-20.9311
-14.788
-3.10594
-7.966
-56.5729
-3.46475
-9.69521
-43.6479
-2.33925
-0.776499
-2.18152
-7.91758
-46.7402
-43.1694
-31.6914
-37.6112
-20.001
-5.54113
-24.9641
-24.7932
-22.3187
-1.15333
-25.3979
-26.6842
-17.849
-12.5903
-19.0819
-18.6324
-3.61219
-8.85975
-12.8299
-5.39358
-24.6877
-28.4878
-8.58819
-6.13313
-7.03579
-9.94079
-62.0686
-25.6351
-71.6013
-14.5808
-44.1623
1.45193
-5.05661
-89.5944
-38.0584
-38.4129
-28.3614
1.16773
-18.4839
-49.5995
-55.0694
-69.2554
-25.9278
-38.0373
-38.206
-54.556
-51.2753
-43.2413
-44.0765
-42.3142
-9.95957
-0.965522
-1.26519
-31.1508
2.18283
1.0738
-31.5425
-18.0647
-58.8743
-71.2423
-39.7995
-27.6459
-29.8598
-10.0619
-1.0828
-24.2682
-13.9851
-31.5611
-30.3382
-21.3281
-15.0638
4.12097
2.21807
-6.62357
-20.9135
-16.6169
-24.8412
-9.49519
-6.07557
-6.20549
-16.018
-15.571
-12.6516
-24.0807
-27.7578
-19.3588
-8.48067
-3.72483
-26.0741
-12.4278
-10.1586
-7.31938
-6.21387
-30.9182
-39.8267
-9.46637
-45.8504
-36.9742
-35.0236
-41.0142
-48.7855
-69.4012
-71.4262
-41.0593
-10.1818
-26.121
-7.62961
-64.723
-15.5632
-81.8844
-19.088
-25.2438
-7.64218
-14.9006
-3.5082
1.93397
-4.29827
-40.6544
-10.0801
0.0672223
-2.26361
-40.777
-8.01392
-9.83438
-7.83949
-84.2665
-9.82857
-6.42561
-81.0448
-72.0568
-49.452
-70.3219
-11.5008
-45.4115
-25.8893
-10.6615
-10.2668
-15.2131
-5.48889
-79.9741
-20.7831
-9.09708
-65.6762
-1.56072
-4.60051
-0.528473
-3.37593
-4.97916
-15.9764
-8.59877
-21.8745
-18.7333
-15.2438
-23.5076
-51.465
-13.6896
-14.0871
-13.2563
-10.3048
-8.90314
3.12521
-12.1627
-36.2038
-9.6346
-12.2772
-6.72973
-8.20233
3.30705
-5.63069
-11.2357
-0.719484
0.0888138
0.324676
-5.70728
-2.34511
-4.74524
-4.08297
-4.92359
-7.32346
-3.25139
-21.5533
-18.1377
-23.8267
-17.4561
-28.5919
-28.069
-22.6298
-31.7803
-27.416
-28.0708
-31.8708
-61.9004
-27.7172
-23.5017
-12.9043
-83.4045
-74.0431
-23.9225
-12.1102
-31.981
-32.8373
-37.793
-52.8533
-64.2681
-31.6897
-32.2347
-10.9872
-7.60345
-20.7538
-19.1554
-25.4614
-34.7722
-83.1833
-33.4621
-13.7607
-45.8155
-1.97108
-12.3161
-20.6018
-10.6801
-16.7326
-10.8134
0.908022
-1.24196
-37.3259
-19.5279
0.395956
-6.42732
-10.3663
-7.47947
-7.69616
-3.11536
-40.3686
-33.3739
-2.89632
-16.9173
-29.2856
-10.4167
-8.29956
-17.6124
-22.9303
-15.6019
-4.82134
-19.2317
-27.6605
-7.82591
-1.46622
-17.7742
-4.16302
-2.11159
5.94625
-7.58446
-3.23969
0.176683
-1.37096
-18.0931
-55.4294
-4.5898
-21.8374
-23.5878
-14.2757
-11.3829
-51.5749
-61.9774
0.527603
-59.385
1.2672
0.0822634
0.110091
0.776766
-2.12192
-5.24795
1.01667
2.74401
-3.66406
-6.36555
-0.57705
-4.25097
-25.7571
-5.26167
-9.34909
-22.2624
-23.5176
-44.0799
-58.1178
-56.04
-48.5803
-45.8694
-7.23314
-11.096
-8.43154
-6.25828
-5.43074
-6.82721
-5.31885
-24.8668
-41.3877
-46.7503
-39.0605
-55.2162
-35.4671
-56.1895
-45.9206
-49.4743
-6.44022
-5.88484
-19.1561
-30.3422
-52.1028
-46.989
-29.1452
-31.9999
-29.8396
-20.8582
-11.9993
-22.3679
-15.695
-35.9916
-21.1369
-23.309
-6.38457
-21.4263
-32.211
-14.783
-18.275
-14.2907
-31.553
0.510672
0.7605
-3.70972
-7.8342
-28.1741
-26.1459
-6.56205
-9.29984
1.12351
4.94527
-0.522802
-48.1928
-79.9087
-69.8718
0.486426
-81.0018
-58.2312
-1.17282
-26.3658
-6.4469
-7.40919
-11.5972
-10.7513
-5.6863
-24.3886
-5.25094
-4.9289
-23.7299
-27.0144
-16.8109
-3.82656
0.14419
-2.04513
1.77926
1.05726
-1.5864
-42.2601
-47.9214
-36.3641
-1.49105
-1.34902
-12.8959
-0.129329
-2.60789
-0.214715
-6.10565
-5.6087
-4.63247
-1.20832
-8.25636
-6.09576
-4.79561
-4.81527
-3.85019
-5.83515
-6.26794
-1.00594
-8.15309
-10.997
-2.01453
-2.09597
-47.0619
-16.2324
-1.15133
-5.46533
-17.2555
-0.132224
-7.08128
-3.11492
-10.4569
-16.1878
-6.73034
-26.9617
-65.1582
-0.781532
-1.74298
-24.9986
-9.0204
-16.753
-10.949
-14.1211
-12.566
-20.897
-30.3814
-25.3124
-4.19055
-20.3251
-44.9389
-41.0963
-19.6419
-4.09013
-24.4154
-33.4658
-9.18997
-41.7086
-11.5324
-34.8339
-45.8697
-34.4352
-31.3696
-47.9474
0.0804216
-16.2874
-0.442499
-3.12614
-1.58745
-0.219727
-5.92037
-4.1432
0.118345
-1.38321
-0.714552
0.345658
0.416359
-0.223384
2.41927
-13.3448
-6.88184
-2.26961
-1.90162
-0.984582
-10.281
-16.818
-34.0024
-4.13149
-3.87095
-5.78891
-77.2002
-58.7612
-13.7095
-46.1981
-37.9903
-17.8584
-21.8799
-3.36975
-2.74722
-3.16731
-19.5038
-23.2923
-1.93093
-7.34599
-21.7896
-7.61454
-0.621464
-9.65637
-33.5733
-57.1695
-37.494
-0.0577005
-6.12582
-5.9721
-2.1197
-15.1252
-2.57495
-35.3728
-15.5724
-10.5234
-5.78096
-0.832934
1.10236
-28.2047
-20.4866
-24.7702
-24.362
-21.6877
-16.5732
-25.2636
-6.18545
-5.03927
-8.53449
-5.18247
2.54448
0.351089
0.335312
-32.6126
-11.3815
-31.7752
-54.0332
-25.3026
-10.2792
-31.6985
-8.83936
-31.4943
-5.01177
-29.4851
-5.25594
-14.5084
-28.6861
-14.7662
-39.429
-12.1544
-45.7373
-18.3283
-27.5264
-24.0718
-40.0213
-17.199
-29.6309
-34.7049
-36.2701
-74.8491
-19.2036
-14.7848
-8.21779
-8.38407
-20.2377
-19.9647
-28.2471
-10.8079
-24.0305
-5.88094
-11.9668
-14.7931
-9.22386
-7.36235
0.832579
-9.07395
-3.52146
-17.0812
-5.6999
1.56732
0.564303
-0.641759
0.067711
-11.5348
-18.4076
-4.66692
-9.38907
1.71536
-7.38686
-5.43952
-8.9122
-3.74896
-6.45789
-4.98082
1.55179
-7.26421
-5.20767
-5.73646
-5.558
-5.26983
-6.55039
-5.1927
-13.6043
-6.10752
-9.26634
-6.11112
-10.8059
-23.4856
-9.32139
-15.0639
-41.71
-25.2513
-24.1269
-1.06718
-5.70246
-5.68373
-3.37354
-1.92483
-3.65283
-2.08504
-0.277536
-4.83673
-4.07903
-3.22421
-8.04544
-2.08992
-3.81071
-1.79055
-2.5269
-1.00245
-2.13757
-2.76438
-5.59225
-8.89116
-1.24555
-14.2142
-6.23803
-13.3362
-16.876
-44.6421
-14.0096
-14.8006
-33.8998
-18.4073
-20.9293
-17.8594
-17.1775
-23.5169
-21.7116
-11.3031
-14.4662
-6.64227
-9.2892
-1.2094
-8.77747
-22.5649
-17.2561
-23.6383
-23.9592
-4.92888
-6.59756
-7.56853
-7.22437
-9.10662
-5.70695
-14.9217
-5.05215
-28.1544
-4.37988
-3.91571
-28.7318
-4.12782
-14.3684
-19.9596
-11.0273
-9.8088
-23.0214
-35.6605
-6.58723
-8.26366
-4.27113
-0.476924
-0.980478
-1.61422
-0.508743
-14.5649
-1.22215
-0.789284
-19.2664
-9.39509
-17.2446
-16.2588
-17.5696
-20.3126
-43.5927
-45.3903
-16.4086
-10.1191
-6.06973
-3.19825
-2.47605
-6.82059
1.25615
-1.85114
-35.5267
-2.81059
-21.9645
0.534701
-1.75588
-2.41244
-7.59328
-6.3331
-1.85503
-15.8683
-32.7429
-18.4394
-0.518579
-0.0460053
-23.6102
-17.4858
-20.257
-25.9131
-25.7037
-0.944556
-0.796984
-1.20637
-26.5279
-19.4975
-18.6822
-22.3064
-2.4451
-9.20888
-29.946
-27.2888
-48.2337
-44.4785
-29.431
-29.6284
-0.701833
-0.430835
1.04939
-31.6075
-26.6653
-16.5278
-21.4877
-20.2412
-22.5575
-29.6113
-3.41961
-3.62945
-3.40747
-23.5106
-19.3836
-19.36
-31.9441
-23.5327
-30.8902
-20.1233
-18.3679
-25.803
-21.4011
-4.17997
-18.9024
-35.6767
-53.622
-23.7449
-40.3688
-24.6608
-1.5226
-27.9945
-5.61614
-8.89938
-0.694445
-0.495342
-3.22197
-2.03087
-15.5447
-6.26747
-12.467
-18.0489
-19.0667
-25.2655
-26.4079
-34.9655
-14.5724
-26.7879
-28.9172
-14.2821
-28.3869
-1.08901
-11.4651
-8.35623
-11.522
-39.4544
-3.702
-44.1663
-45.5332
-22.3618
-39.9907
-20.9022
-31.7833
-57.3586
-33.9074
-2.86821
-38.2184
-54.9456
-13.7401
-14.7465
-42.9359
-27.653
-21.1105
-40.1671
-43.805
-44.8708
-36.9394
-44.2513
-35.4441
-8.43396
-10.7487
-61.6191
-47.6199
-89.7017
-28.8204
-43.0323
-37.1049
-13.2291
-7.32888
-27.7532
-43.855
-20.9808
-15.5
-28.2022
-20.1933
-12.4698
-2.62725
-13.3089
-6.96339
-27.3083
-19.0594
-23.7888
-22.4784
-0.0326653
-23.6096
-19.0171
-12.7682
-21.4614
-12.0436
-1.11569
-1.72424
-7.47274
-10.6957
-76.6638
-8.31453
-5.20513
-5.36284
-4.88831
-69.0841
-3.77242
-3.93502
-4.97492
-7.21941
-4.61647
-8.01553
0.722441
-0.892792
-7.34135
-13.8695
-3.66867
-2.3071
-3.91453
-0.228041
-0.194985
-3.59784
-7.31137
-32.9656
-35.8776
-43.523
-31.7164
-12.2562
-2.79768
-35.7298
-2.49236
-2.1137
-3.43613
-2.91713
-2.11217
-8.95426
-9.45962
-7.20537
-14.3481
-8.87812
-35.845
-37.9293
-7.22838
-16.0631
-10.5687
-12.9601
-30.1815
-23.1163
-22.1844
-24.0473
-17.4204
-12.1003
-92.7618
-8.68204
-45.8496
-8.82751
-33.5415
-18.9274
-3.79294
-10.4131
-13.8477
-8.59027
-12.8923
-7.12183
-2.58281
-15.8466
-3.47904
-3.69534
-6.71618
-6.54103
-44.364
-14.621
-2.34996
-53.2
-29.3713
-44.1815
-3.29859
-10.4976
-8.2778
-5.02486
-3.52505
-28.6889
-9.63424
-4.13316
-1.73591
-3.1201
-8.07326
-8.5751
-7.61319
-6.70472
-7.1684
-0.271837
-12.5098
-26.7689
-7.49553
-22.1091
-23.4886
-4.11706
-20.9873
-40.2059
-9.7464
-1.28899
-18.0439
0.713273
-6.95655
-3.05273
-5.95129
-20.734
-45.8781
-30.7979
-49.6367
-21.4415
-48.3158
-73.1783
-22.1618
-7.53785
-7.90718
-8.66515
-3.06925
-66.9113
-41.05
-26.694
-40.5369
-35.8235
-12.8188
-52.1577
-33.7649
-61.056
-60.1775
-57.8374
-41.3267
-30.8941
-31.4184
-83.925
-28.3942
-87.3994
-20.0443
-50.0276
-45.7958
-43.2976
-1.33585
-2.389
-21.8517
-15.8442
-62.1226
-81.5424
-15.088
-29.3918
-13.603
-12.4298
-16.3626
-16.5438
-38.6315
-7.91789
-18.8292
-24.9504
-15.8094
-18.2015
-19.2489
-32.7066
-19.5178
-23.0343
-31.632
-25.8284
-14.1869
-19.0944
-14.3623
-18.8197
-28.2818
-17.2971
-12.256
-41.9956
-32.5957
-23.2487
-28.5236
-25.0309
-83.5771
-62.8909
-69.7725
-87.4474
-6.33769
-6.36585
-13.5477
-24.535
-7.32688
-7.09196
0.332656
-6.93058
-5.54813
-12.0407
-7.9534
-9.86217
-4.65108
-5.90627
-0.964809
-4.72697
-63.2378
-10.0862
-21.0879
-23.7584
-43.9422
-29.0944
-28.898
-30.0596
-23.4462
-24.3679
-29.8688
-32.0695
-27.0816
-27.4365
-31.3894
-56.9644
-19.6533
-54.9136
-25.6206
-23.6697
-33.525
-10.3671
-8.84745
-12.9073
-13.1426
-25.659
-14.8435
-11.6831
-12.8943
-10.96
-9.48071
-21.1169
-3.85586
-4.0543
-1.36325
-10.6264
-6.0699
-2.32331
-4.35425
-3.14198
-7.6699
-6.05677
1.20019
-3.83466
0.0654929
-23.0648
-0.422358
-0.150329
0.841766
-4.42321
-19.6067
-3.5992
-1.70414
-43.0741
-3.0344
-5.61011
-23.5492
-42.9476
-40.1194
-54.7046
-10.021
-23.531
-9.50604
-5.8964
-6.00606
-5.59228
-1.00634
-6.83377
-9.60254
-67.4042
-21.7353
-6.00171
-42.2796
-23.3589
-28.1588
-29.7938
-16.9705
-2.6025
-2.14158
-0.505581
-48.6599
-27.5822
-56.0142
0.3347
-3.9904
1.72085
-3.49083
1.61934
-2.41895
-0.0601319
-2.83307
-4.40267
-4.51759
-3.90714
-3.37117
-36.7895
0.746019
-1.08532
-1.72238
-12.6805
-8.01942
-12.3933
-0.63829
0.885024
-0.940931
2.57645
-16.3578
-8.9318
-9.23571
0.0478059
-5.25328
-6.16102
-27.0362
-21.286
-11.1539
-15.3074
-15.4403
0.689869
-0.696102
-0.037952
-16.1645
-0.823597
-3.46894
0.158223
-18.3122
-10.2518
-17.2396
-6.56185
-31.9274
-8.516
-11.5473
-1.11859
-7.03889
-5.8426
-61.1215
-0.0418416
-34.4704
-13.8892
-20.7733
-30.1541
-8.09094
-7.13072
-7.66483
-4.30383
-7.37608
-84.5508
-72.24
-86.4882
-85.0463
-85.3696
-13.5041
-9.43625
-71.0869
-42.084
-61.3283
-10.3588
-19.9786
-23.9964
-9.793
-4.8584
-2.35986
-1.05214
-7.37134
-10.6009
2.87837
-66.5578
-43.4513
-33.4695
-54.1046
-3.3749
0.375478
-0.921227
0.630917
-6.34945
-6.31994
-1.8132
-3.5952
-16.895
-0.59398
-3.31293
0.0494305
-1.13975
-2.22611
-1.32878
-4.84788
-4.23153
-1.22306
-36.883
-17.1694
-4.94845
-8.33179
-6.15496
-17.6266
-12.1745
-29.9885
-1.54726
-10.0826
-14.326
-14.3957
-13.3272
-13.7321
-12.6918
-11.0159
-32.0599
-20.5851
-1.86478
-18.1115
-14.9397
-11.7611
-49.9116
-18.0666
-25.9459
-26.7868
-37.2801
-38.0484
-50.5112
-36.825
-64.3788
-16.1441
-27.7668
-23.6695
-16.801
-14.7824
-10.2568
-5.8139
-36.1096
-17.9678
-18.7007
-4.50009
-32.5152
-30.334
-29.4875
-29.1478
0.357075
-23.9288
-8.38568
-16.7947
-0.424227
-21.2976
-28.4042
-24.7722
-29.3995
-10.2167
-17.2456
-29.1734
-1.8997
-31.9675
-24.4594
-26.1249
-18.1561
-20.9175
-25.5472
-22.493
-16.476
-45.4332
-23.4848
-24.5914
-37.8586
-52.972
-0.865157
-29.0393
-22.2362
-5.94784
2.61634
2.03809
-2.69422
-58.1735
-5.82931
-2.9479
-1.22223
-6.37336
-4.91124
-9.15762
-4.55235
-26.2524
-6.32809
-24.5089
-17.7752
-24.3569
-31.5856
-7.07906
-14.4751
-9.12453
-25.3891
-11.8145
-17.2769
-15.469
-3.52207
-3.53063
-4.77658
-3.66293
-0.167213
-1.30963
-3.14696
-3.73814
-14.3647
-1.68332
-0.7457
-0.258669
-2.30766
-0.117045
-10.2268
-5.34417
-13.8109
-23.3394
-5.83257
-24.6759
-18.1684
-22.84
-11.1375
-3.65593
-4.22656
-4.18842
-1.66646
-4.39853
-1.75024
2.03297
-0.704647
-8.97002
-16.947
-4.47991
-8.52623
-4.92123
-7.63961
-5.76488
-27.7724
-32.832
-7.5252
-9.04001
-2.96574
-16.069
-13.5068
-13.1479
-14.3948
-15.0157
-19.3499
-30.5236
-26.3828
-5.49464
-9.23147
1.1263
-8.90547
-0.119161
-11.8827
-1.14644
-13.6825
-8.28274
-7.59137
-13.6118
-32.1099
-47.5103
-32.7677
-13.5288
-22.3726
-31.9817
-40.1447
-53.0892
-23.2749
-42.0272
-0.0410958
-23.8849
-4.48309
-27.2565
-18.0449
-22.3316
-30.2067
-14.0145
-57.4881
-22.0692
-9.70872
-8.47277
-38.3774
-12.7591
-11.6136
-9.76735
0.886706
0.730626
-13.7215
-4.47109
-10.1241
-7.3535
-10.1658
-15.1943
-3.8869
-37.84
-7.74661
-7.62542
-47.0997
1.47392
-43.8612
-16.058
-80.4823
-24.6062
-30.5053
-5.47468
-4.25448
-3.6879
-7.71
1.05051
0.060706
-5.73677
-30.3841
-40.1563
-2.23676
-20.8813
-9.32205
-13.6043
-10.5286
-28.2725
-0.885268
0.0526492
-26.6529
-10.7485
-12.0376
-13.334
-1.06131
-80.7108
-67.2768
-71.2042
-42.9685
-15.7283
0.484668
-8.48889
0.170919
-44.093
-4.68826
-4.94332
-43.4962
5.39877
-53.6681
-24.4895
-10.3008
-6.23632
-8.95009
-4.35943
-15.1939
-25.7877
-46.7593
-69.2166
-0.816519
-3.19585
-4.17376
-7.72327
-17.8127
-22.0515
-12.8716
-34.885
-1.17462
-37.7247
-1.56443
-20.8692
-3.45468
-1.45314
-23.4436
-24.506
-17.493
-12.653
-11.6185
3.8892
-1.12871
-15.0683
-13.6847
-23.0137
-28.7493
-8.95965
-10.1651
-1.6983
-33.2638
-3.63099
-9.96924
-3.06047
-4.23184
-1.71046
-34.9201
0.441032
-8.32961
-55.8376
-25.5904
-18.9675
-10.7535
-3.53342
-2.78284
-10.6694
-7.05827
-14.6911
-3.57011
1.94215
-3.46345
-17.6349
0.371235
-2.63802
-3.3542
-3.85858
0.144465
-0.70753
0.356541
0.918148
-13.93
-9.10193
-28.4771
-30.2036
-30.7764
-52.2982
-30.8757
-29.5064
-29.3085
-29.3158
-41.8548
-25.9664
-22.6807
-56.1146
-53.7997
-49.1268
-71.6164
-97.3146
-80.2314
-0.962381
-40.6562
-31.533
-29.7338
-30.123
-63.0354
-63.2528
1.64561
-85.3778
-83.75
-1.48619