/*--------------------------------*- C++ -*----------------------------------*\
| =========                 |                                                 |
| \\      /  F ield         | OpenFOAM: The Open Source CFD Toolbox           |
|  \\    /   O peration     | Version:  2506                                  |
|   \\  /    A nd           | Website:  www.openfoam.com                      |
|    \\/     M anipulation  |                                                 |
\*---------------------------------------------------------------------------*/
FoamFile
{
    version     2.0;
    format      ascii;
    arch        "LSB;label=32;scalar=64";
    class       surfaceScalarField;
    location    "0.0321319";
    object      phi;
}
// * * * * * * * * * * * * * * * * * * * * * * * * * * * * * * * * * * * * * //

dimensions      [0 3 -1 0 0 0 0];

oriented        oriented;

internalField   nonuniform List<scalar> 
7606
(
0.000535288
-0.00112651
-0.000192569
0.000783787
-0.0022592
-0.00360526
0.000423137
0.00544132
-0.0336954
-0.00386017
0.0339808
-0.000896017
-0.000408862
-5.38437e-05
0.00135872
0.000938392
-0.00041824
0.000957933
-0.00147809
-0.00242319
-0.00615017
-0.00200779
0.0105811
0.000296811
-0.000254436
0.00181331
-0.00291129
0.0190614
0.00833664
-0.0184493
-0.00894879
0.00131909
-0.00317209
-0.00968407
0.0115371
0.0018178
0.00503299
0.0123309
0.00104702
-0.00430281
-0.000277489
0.00353328
-0.00175
0.00086409
0.00156229
-0.000676383
-0.00166382
-0.000702641
0.000616469
5.03866e-05
-0.000726889
2.05899e-05
0.000655913
0.000655676
9.02622e-05
-0.000420238
-0.0003257
0.000151178
0.000430483
-0.00079419
0.00021253
-0.0161493
0.0106206
-0.0040434
0.00957215
0.000904106
0.000646431
-0.000609683
-0.000940854
0.00135693
-0.00187982
0.00835919
-0.00783631
-0.00786783
0.00960433
-0.000379565
-0.00219732
0.000245598
0.00219426
2.40936e-05
0.00323976
-0.0429288
0.00282054
0.00394285
1.19054e-05
-0.0067753
0.00643029
-0.000895486
-0.00474799
-0.000786816
-0.000239859
-8.41051e-05
0.00039288
-6.89153e-05
-0.00595185
0.00807259
0.000699808
-0.00156947
0.00586132
-0.00111748
-0.00317437
0.0219964
0.00898866
-0.000468443
-0.00219194
0.00244596
0.000214422
-0.00360282
0.00228954
0.00267323
-0.00135995
-0.000390674
-0.00192757
0.0023426
-2.43579e-05
0.00163118
-0.000901264
-0.0021619
0.00143198
-0.00056281
0.00188158
0.00238218
-0.00370095
0.00101924
-0.000239575
-0.000353364
-0.000426304
-0.00984022
0.00411325
0.00196445
0.00376252
0.000405459
3.26354e-05
-0.000438094
0.0014582
-0.000658414
0.000913312
-0.0017131
-5.75737e-05
-2.92551e-05
0.000352519
-0.000265691
0.000396385
9.86117e-05
0.000271895
-0.000766891
0.000538688
-0.000441069
7.04345e-05
-0.000168053
0.00227816
0.000883107
-0.000713594
-0.00244767
-0.00199051
-0.00109564
0.0023172
0.000768955
-0.0020203
-0.000703247
0.000733036
0.00240812
0.00233159
-3.92524e-05
-0.00470046
-0.00039031
-0.00166926
0.000963929
0.000416339
-0.00081388
0.00246281
-0.00206527
0.00268771
4.58236e-05
-0.000113217
3.36211e-05
-3.71128e-05
0.000116709
-5.81505e-05
0.000214302
0.000118631
-0.000274783
-0.00375856
0.000550299
0.000147327
0.00306093
-0.000184688
1.3321e-05
-0.000174381
-0.000493183
0.000419803
0.000247761
-5.57341e-05
0.000188606
8.31134e-05
-0.000215985
0.000377392
0.000168759
-0.000601886
-0.00028271
0.00030622
0.000551884
-0.000575395
0.00469362
0.00846048
-0.00839172
-0.00476238
-0.00123794
-0.00252942
0.00257011
0.00119726
0.000529068
-0.000397735
-0.000353599
0.000222267
0.0127796
-0.00295205
-0.007098
0.000546485
0.0043758
0.00156358
-0.00648586
0.00213634
0.00280216
0.00170449
-0.0265718
0.0263181
0.00025369
-0.00283654
-0.000484694
0.00255667
0.000764558
-0.000434737
-0.00287318
0.000471376
0.000199426
0.00124893
-0.00122627
-0.00022208
0.00229961
-0.00211795
0.0111784
-0.0113601
-0.00102336
0.00992658
0.00338171
-0.0122849
-0.00338599
-0.00155673
0.00222371
0.00271901
-0.00025708
-3.62233e-06
-8.469e-05
0.000345392
0.00382253
-0.00481426
0.000392981
0.000598757
-0.000566356
0.000203002
-0.000418899
0.000782253
0.000550312
-0.000280749
-0.000240088
-2.94746e-05
-0.00189737
0.00279096
-0.0119065
0.011013
-0.0164925
0.0118242
0.006275
-0.0016067
-0.00350298
-0.00682545
0.00188221
0.00844622
0.0120061
0.0141278
-0.00765605
-0.0184778
0.0014028
-0.00369025
0.00233112
-4.36666e-05
0.000530835
-0.00034897
-0.000193049
1.11839e-05
0.00245134
-0.000255942
-0.00266384
0.00058245
-0.000202086
0.000431394
-0.000811758
0.000525375
0.000168286
-0.000111211
-0.00500785
-0.000199693
0.00732936
-0.00212183
-0.00667216
-0.00425911
0.0129275
-0.00199621
-0.000417503
-0.000188415
5.39809e-05
0.000551937
1.70024e-05
9.08703e-05
-0.000660022
0.000117352
0.000551703
-9.03292e-06
0.000589784
-0.000386564
-3.49347e-05
0.00031229
0.00523638
-0.00177784
-0.00377083
0.0274812
-0.00627855
-0.0117991
-0.00940353
0.00429713
-0.00240425
-9.55477e-05
-0.00179733
0.00364821
-0.00547095
0.00225717
-0.00043442
0.00130512
0.00247949
-0.00153759
-0.00224702
0.000630288
0.00545912
-0.00588378
-0.000205628
-0.00346823
-1.14829e-05
-0.00886945
0.0123492
-0.00122607
-0.00310107
0.00348577
0.000841371
-0.00428946
3.86171e-05
0.0019574
0.00229345
0.00045588
3.90873e-05
-0.000119704
-0.000375263
-0.00995365
0.000510513
0.00953407
-9.09248e-05
-0.000153538
0.00131443
0.00442143
-0.00558231
-0.000481294
0.00854419
9.18568e-05
-0.00815475
0.00713617
0.000121655
-0.00823083
0.00097301
0.00242929
-0.0011241
0.00303548
0.0020187
-0.00483762
-0.002441
0.00525992
0.00218588
0.000234779
-0.00304496
0.000624305
-0.000414684
0.00261471
0.000615693
-0.00281572
-0.000356537
0.00166982
0.00190613
-0.00321942
0.0149014
-0.00651225
-0.00550298
-0.00288614
-0.000187092
-0.000235459
0.000661929
-0.000239377
0.00470255
-0.00318118
-0.00466954
0.00314816
0.0052503
0.00191738
-0.0098124
0.00264473
-0.000818647
0.00251622
-0.000846874
-0.000850698
0.0635589
-0.0346929
-0.0243297
-0.00453634
7.96885e-05
0.00279272
0.000649338
-0.00352175
-0.000779978
0.00274447
9.1028e-05
-0.0111494
0.0127445
-0.000319773
-0.00127534
-0.00334539
-0.000494467
-0.000419302
0.00425916
0.00319028
-0.00155708
-0.00049931
-0.00113389
0.000988528
-0.00164
0.000232863
3.02869e-05
-0.00026315
-0.00334287
0.00141627
-0.00457723
0.00745424
0.00347795
-0.0061946
-0.00473759
0.00286316
0.00148566
-0.00251952
-0.0018293
-0.000457333
0.00150935
0.00172327
-0.0018973
-0.0021943
0.00236832
0.00589325
0.00180145
0.00140562
-0.00146205
-0.000315933
0.00496826
0.00109392
0.00107513
0.000441822
-0.00261088
-0.00014903
-0.00114844
0.000472368
0.000825098
-0.00341997
-0.00289626
0.00202677
0.00299833
-0.00121515
-0.000567007
-0.00121617
0.0321105
-0.00714602
-0.0089603
-0.0160042
-0.000471205
0.00144762
-0.000235633
-0.00074078
-0.000913846
0.000283538
-4.92059e-05
0.000679515
-0.0082492
0.00805311
-0.00217688
0.00237296
0.000234337
-0.000824298
-0.000287618
0.000877579
-0.00342252
0.00167784
0.00260479
-0.000860108
0.00218979
-0.000681247
8.80752e-05
-0.00159661
-0.000104688
-0.00196496
-0.000733747
0.00280339
0.00415532
-0.00504605
0.0106674
-0.00977671
-0.000793446
-0.000183967
0.000117132
0.000860281
0.000701149
-0.00540247
-0.00147717
0.00617849
-0.00973765
0.0147461
-0.00978975
0.00150417
0.00229998
0.000565318
-0.00436947
-0.000986507
0.00063137
0.000508679
-0.000153542
0.00419245
-0.00451201
-0.00292257
0.00324213
0.0138908
0.00280408
-0.0161238
0.000729229
-0.000830063
-0.00189558
0.00199641
0.00196932
0.000204339
-0.00195687
-0.000216797
-0.013841
0.00146443
0.0146746
-0.00229798
0.00330799
0.000863869
0.00660264
-0.0107745
0.0262981
-0.0278679
0.00156988
-0.00264333
0.00233265
0.00270178
-0.00239109
-0.00125765
-0.000933566
0.00140087
0.000790346
0.00261342
0.00846377
0.00728032
-0.00144315
-0.00184554
0.00442955
0.00666306
-0.0100249
-0.0010677
-0.0016122
-0.00320666
0.00310018
0.00171868
0.00278539
0.00151771
-0.00320918
0.000481639
0.00259959
-0.00458807
0.00150684
0.00410517
-0.00175132
-0.00424853
0.00189468
-0.00169959
0.00329687
-0.0010644
-0.000532881
0.00911268
-0.00812552
0.00312533
-0.00411249
0.00171791
-0.0100663
0.011363
-0.00301461
-0.000326556
-0.00549908
0.0105193
-0.00970355
0.00857867
-0.00554728
0.00154125
-0.00305649
0.00213204
-0.000616794
-0.0003193
0.000182404
0.000683364
-0.000546468
0.00230357
0.00684499
-0.00684895
-0.000518037
0.00206487
-0.00608393
0.00444926
0.00553793
-0.00390327
0.0181465
-0.00775571
-0.0228532
0.0124624
-0.02238
-0.0279548
0.00645843
0.000548707
-1.20842e-05
-0.000207637
-0.000328986
0.000555368
-0.000159596
-0.000556922
0.000161149
0.00165171
-0.00493269
-0.00586989
0.00915088
-0.00607828
-0.00173064
0.00238871
0.00542021
0.00159737
0.000127952
-0.00387711
0.00215179
0.0116859
-0.0243484
0.030809
0.00165138
-0.00356474
0.00341753
0.00198265
0.000448399
-0.00245304
2.19944e-05
0.000433038
0.000302805
-0.000206774
0.00103901
-0.00284629
-0.00312516
0.00560424
-0.00343921
0.00165586
-0.0038209
-0.00675757
-0.00175229
0.00573125
0.00277861
0.000600699
0.00202844
0.000234029
0.00206927
-0.00353128
0.00137404
8.79676e-05
0.0343582
-0.0249084
-0.00428927
-0.00516053
0.000571217
0.00279857
-0.000630423
-0.00273936
-0.0399987
-0.00691533
-0.00315332
0.00470798
-0.00284757
0.00129291
0.00401002
-1.94048e-05
-0.00355365
-0.000436966
0.00125612
-4.4427e-05
-0.00948395
0.00827225
-0.0156311
0.00843494
0.0071484
4.77831e-05
0.00201603
0.00254178
-0.0118326
0.00727474
-0.000694259
0.00210848
-0.0044167
0.00300248
-0.00174001
0.0115553
-0.00189974
-0.00200364
0.00324872
0.000654668
0.00418069
-0.000718575
-0.00429756
0.000835444
0.000868738
0.00246666
-0.000632593
-0.000417093
0.00312183
0.00147595
0.00128715
-0.0030769
0.00924399
0.000309611
-0.000393947
-0.000348838
0.000433174
0.00680381
-0.00121946
-0.00509832
-0.000486024
-0.00152709
-0.0026708
0.00244395
0.00175393
0.00879933
-0.00971094
0.00212667
-0.00121506
3.54631e-05
0.00113015
-0.00239169
-0.00011216
0.000135738
0.000209254
-0.000232832
2.00156e-05
-0.00127156
0.00026504
0.00147566
0.00195601
0.000733335
-0.00421395
0.0026149
0.00325818
-0.00165913
-3.81995e-05
0.000107604
-0.000309264
0.0012961
0.00220596
-0.00387111
0.000369053
0.00180711
-0.00266697
-0.00133207
0.0120823
0.00280289
-0.0297934
0.0149082
9.21066e-05
0.000298071
-0.000487278
9.71004e-05
-0.00354632
0.00212738
-0.0115878
0.00112717
0.000874418
-0.00217631
0.000174722
0.000455414
-0.000112557
0.000311341
-0.000654199
-0.0123457
0.00856881
0.00790021
-0.00412336
0.00024623
-6.42654e-05
-0.000501265
-0.000297347
0.00359702
-0.00223482
-0.00106485
-0.00352264
0.00437047
-5.84025e-05
-0.000789423
-0.01182
0.0119016
0.0042776
-0.0043592
-0.00026446
-0.00201459
-0.00379924
-0.0109601
0.0158428
0.0135115
-0.0183942
0.0159358
0.000727783
-0.00903984
-0.00272714
-0.00973044
0.00938374
0.00307384
-0.000662824
-0.0128427
0.00265247
-0.00233594
0.00109268
-0.00140921
-0.000400213
0.000778793
0.000354609
-0.000733189
-0.000422244
0.000964537
-9.12363e-05
-0.000451057
-0.00468974
-0.00239392
0.00207582
0.0018301
-0.00392054
0.00257208
0.00186809
-0.00114549
3.1182e-05
0.00115363
-0.000903427
-0.000281386
-0.00115061
-0.00259144
-0.00412578
0.00147231
-0.00443069
0.00635721
-0.00339882
0.00926883
0.00279658
-0.0100494
-0.000157623
-0.00026079
0.000418413
0.00417877
-0.000414281
-0.00529738
0.00153289
-0.00702566
-0.00260625
0.0119482
-0.00231631
-0.00852227
-0.00618902
0.019459
-0.00474771
0.00419076
0.000931556
-0.00589123
0.000768919
0.00124151
-0.00145972
0.00334028
-0.00312207
-0.0114239
0.000334394
-0.0149871
0.000535238
0.000610869
0.00275475
-0.00213838
0.00100808
-0.00162445
0.000292243
0.00605607
0.00643132
0.00477876
0.00201841
-0.00862147
0.00182431
-0.000834269
-0.00258673
0.00457699
-0.00115599
-0.00416543
-0.00305526
0.00295082
0.00426987
0.0124218
0.00467195
-0.00234431
-0.0147495
-0.00235586
0.00514764
-0.00477529
0.00198352
0.00142318
-8.61013e-05
-0.000644275
-0.000692807
-0.00130662
0.00249276
0.00144262
-0.00262876
0.00256316
-0.00202757
-0.00151681
0.000981226
0.000341876
0.000189662
2.38304e-05
-0.00279034
-0.000409875
-0.000222301
0.00601812
0.00210516
0.00210308
-0.0102264
-0.00186004
-0.00126959
0.00128241
0.00184722
-0.0021596
0.000356362
0.00232852
-0.000525282
0.00512609
-0.000552403
-0.0012041
-0.00336959
-2.38426e-05
-0.000369243
0.000393086
0.000673668
-0.000144153
-0.000213663
-0.000315851
-0.0012197
0.00044252
-0.00213348
0.00291066
0.00132804
6.33431e-05
0.000609015
-0.0020004
0.000143818
-0.00375966
1.30242e-05
0.00177357
-0.000630605
-0.000244442
-0.000898519
0.000243292
0.00051421
-0.000666826
-9.06759e-05
0.000153592
-0.00238061
-0.00115896
0.00168764
0.00241293
-0.00170543
-0.00239514
-0.0266748
8.43821e-05
0.000882372
-0.000891743
-7.50112e-05
-0.00138909
0.000803212
0.00258357
-0.00199769
0.00622969
0.0013727
-0.00405337
-0.00354903
-0.00156494
0.000674639
0.00109922
-0.000208922
-0.00390592
0.00138399
0.00251298
8.94208e-06
-0.00213598
0.0045043
-0.00190478
-0.000463533
0.000826359
0.000662614
-0.00104548
-0.000443493
0.00257156
-0.000314703
-0.0022198
0.00288193
-0.00250037
0.00183823
0.000378937
0.000181255
-0.000328689
-0.000231503
-0.000670621
-0.000464546
0.00100504
0.000130127
-0.00228481
0.0065268
-0.00444168
-0.00205472
0.00182422
0.00256953
-0.00233903
-0.00264125
-0.00126988
0.00364667
-0.00195188
0.00227917
0.000818589
-0.00114588
0.000528311
-0.0013111
0.00284184
-0.00205905
-0.00675351
0.00155954
-0.00446242
0.0096564
-0.0019687
-0.00148466
0.00129376
0.00139676
-0.00122671
0.00384096
-0.00058772
-0.0011384
0.000772672
0.000953447
0.000398026
-0.000630629
-0.00110543
0.00133804
0.00170374
-0.000668681
-0.000196104
-0.000838952
-0.000236679
0.00250449
-0.00271186
0.000444051
-0.0010075
-0.000118583
0.0024312
0.00137415
-0.0010098
-0.000364345
0.00281142
-0.000780735
0.000159102
0.000493754
0.000118244
-0.000761027
-5.12871e-05
0.000452388
-0.000554691
-0.000424002
0.000266379
-0.00573361
-0.0127196
0.0066332
0.00295489
0.0016733
-0.00330015
-0.0111461
-0.00741118
-0.00802079
0.007998
0.000256415
-0.000233622
-0.0105491
0.00259775
0.00601347
0.0019379
0.00336901
0.000316573
-0.00311437
-2.37947e-05
0.000781844
0.00182613
0.00543059
-0.00698563
-0.000271094
0.0125929
-0.000285633
-0.00623899
-0.00606831
-0.0014962
0.0040506
-0.00267459
0.000120194
-0.00129644
-0.00134861
0.000425245
0.00107598
-0.00151723
0.00156842
0.00112125
-0.00493762
0.00115595
0.00266042
0.00437486
-0.0187703
0.000144826
0.0142506
-0.000129024
0.0011843
-0.000151171
-0.000164763
8.4307e-05
0.000459653
-0.000379197
0.00198045
0.000969503
-0.000984191
-0.00196577
0.000666529
0.00114773
-0.000271768
-0.00154249
-0.00136005
-0.000387831
0.00173347
-0.000480846
-0.00113571
0.000634162
0.000982397
-0.00137911
0.000877537
0.00277631
-0.00227474
-0.000140536
-0.00032061
-0.000246452
0.000707598
-0.00522851
0.00993021
0.00365846
-0.00836017
-0.0051017
0.00668731
-0.000884463
0.0139991
-8.11677e-05
-0.0046491
0.00502019
0.00963071
0.0038341
0.00128464
-0.0074746
0.00372054
-0.00318557
-0.00136924
-0.00020988
0.000253264
0.00044878
-0.000492164
0.000528785
-0.000669134
0.000291528
-6.52082e-06
1.04382e-05
0.00226626
-0.00298771
0.00219712
0.000129261
-0.000102453
-2.68082e-05
0.000200525
0.00556515
4.37901e-05
0.000281972
-0.000325762
0.00147685
0.00209769
-0.00217175
0.000691832
8.8733e-05
-0.000353878
-0.000426687
-0.000379488
0.00140012
-0.00115373
0.000133094
-0.000296953
0.000427541
0.000337942
-0.00046853
-0.00226546
0.00194415
-0.00287673
0.00319804
0.000404825
0.000442009
-0.000556156
-0.000290678
0.000550506
-0.00268705
0.00262429
-0.000487744
0.00076185
0.00424941
-0.000537288
-0.00447397
-0.00102453
-0.00327911
0.00088367
9.17156e-05
-0.000392645
-0.0011344
0.00143533
-0.000232751
-9.13163e-05
-0.000372516
0.000696584
0.00109017
-0.000386801
-0.00171087
-0.000582352
-0.000638919
0.00259364
-0.00137237
-0.00562417
0.00304791
0.0117619
-0.00918562
-0.00066329
0.000480374
0.00190118
-0.00171827
-0.000959468
0.00229789
0.000321973
-0.00166039
-0.000750957
0.000220991
0.000696563
-0.000166597
-0.00173789
0.00315536
-0.000573712
-0.000843762
-0.00321221
0.00703033
-0.00904663
-0.00387548
-0.013937
-0.00198163
0.0197942
-0.00141321
-0.0212727
0.0191427
0.00354322
-0.00842902
-0.0135073
0.0195132
0.00378565
-0.000892118
-0.00141668
-0.000566275
-0.000163749
-6.34221e-05
0.00451541
-0.00196835
0.0010263
-0.00357337
-0.000350648
0.000280208
-9.32615e-05
0.000163702
0.00144747
-0.00149262
0.000128661
-8.35098e-05
0.00368193
-0.000815887
0.0120353
0.00208335
0.000334628
0.00180647
-0.00592178
0.00771476
0.00422514
-0.0033969
0.00425072
0.00450138
-0.00535519
0.00473851
0.00140241
0.00204678
-0.0081877
0.00232968
-0.00733594
0.00802595
-0.0030197
0.00405595
-0.013361
0.00338322
-0.00142786
0.00134921
0.00378867
-0.00371002
0.0046222
-0.00717711
0.00112705
7.4518e-05
0.000508285
0.0034626
-0.0040454
0.000644569
-0.00385142
0.00328137
0.00332758
-0.0033131
0.000493807
-0.0021002
0.00168705
0.000956663
-0.000543513
0.000433077
-0.00203816
0.00224965
0.00141934
-0.0010121
-0.00451543
0.0041082
0.0262065
0.0198798
-0.034004
0.000307843
-0.00249103
-0.00035773
0.00254092
-0.00145344
-0.00101452
-0.000677014
0.00314497
-0.00255748
0.00282483
0.00100066
-0.00126801
0.00450601
-9.02914e-05
-0.00410788
0.000296836
-0.000296462
-0.000566731
-7.0757e-05
0.000757665
-0.000390072
0.000496753
0.000325539
-0.000511875
-0.000310418
-7.98669e-05
0.00011722
0.000427349
-0.000464702
-0.00109637
0.000914521
-0.00011461
0.00120974
-0.000372839
0.00159025
-0.00242715
0.00284045
0.000515171
-0.00214588
0.00185743
-0.00519233
0.00428495
-0.00095005
0.00252776
-0.00181051
-0.00217069
0.00132076
-0.00279473
0.00110113
0.00868777
-0.00337944
-0.00509962
-0.000208712
0.00371035
0.00496533
1.21006e-05
0.00426755
0.00224841
-0.004504
-0.00201196
0.00700678
-0.00470376
0.00196452
-0.00230654
0.00593388
-8.34233e-05
-9.11115e-06
3.36418e-05
5.88926e-05
-0.00259899
-0.00025221
0.0052363
-0.00331238
-0.00213263
-0.00123982
0.00590153
0.000574589
0.00102782
-0.00208356
0.00217699
-0.00215081
-0.00108121
-0.00170559
0.00217947
0.000843928
-0.00444271
0.00141932
-0.00128041
0.00125313
-0.0011843
0.00121157
-0.000954355
-0.00196984
-0.000742403
0.0036666
-0.000265548
0.000214261
0.00327021
-0.00768672
3.8742e-05
0.00966669
0.00598292
-0.00434888
-0.00932077
0.00270959
0.00189749
0.000527521
-0.00513461
0.00180826
-0.00401738
0.00128091
0.000928207
0.00293144
-0.00360223
0.00338038
0.00479693
0.00157498
0.00338086
0.0536809
-0.0521091
0.0165373
0.00381568
-0.0159781
-0.0452988
0.0486797
-0.0119842
0.00223888
0.0257837
-0.0160384
-0.0157107
-0.0281596
0.0154665
-0.0160609
0.00873842
-0.00814406
0.0006647
0.000448223
-0.000619169
-3.52215e-05
0.000532402
4.38786e-05
-0.000415185
0.00105646
-0.000685154
0.000895743
0.001968
-0.00579123
0.000498864
0.00633939
0.000532875
-0.000618798
7.27795e-05
1.31432e-05
-0.0050587
-0.00665155
0.00591901
0.0026038
0.000655187
0.00107662
-0.00433561
-0.000366304
0.00690557
0.00218963
0.00216444
-0.00177649
-0.00257758
0.00456754
-0.00327517
-0.000530525
0.0028849
-0.000990601
0.000709498
0.000165368
-0.000349737
-7.27111e-05
0.00172697
-0.000421642
-0.000352468
-0.000952859
4.88227e-05
1.55723e-05
-0.0001485
-0.000672809
0.000724328
-0.00028521
0.000233691
0.000567748
-0.00034262
0.000336434
-0.000561562
0.0056698
-0.00639473
-0.00631321
0.00703814
-0.00228921
0.00278884
-0.00157324
0.00107361
-0.0029581
0.00257833
-0.00296562
3.96582e-05
0.000193205
0.00126159
-0.00246407
-0.0187724
-0.0038353
0.00064052
-0.00055946
0.000153456
0.000487637
-8.1633e-05
-0.0121396
-0.00156461
0.00944513
-0.000242064
0.000665535
0.000292611
-0.000716081
-0.00482771
-0.0117406
0.00442865
0.000748687
-0.000373591
-0.000562188
0.00202613
0.0129236
-0.0112678
0.00840894
-0.0147324
0.0139156
-0.0114882
0.000930311
-0.00335769
-0.000291146
-5.90452e-06
0.000271973
2.50782e-05
0.000157171
-0.0037189
-0.00114669
0.00470841
0.00251605
-0.000551771
-0.000998753
-0.00339144
0.000671299
0.00279744
0.00270968
-0.00253544
-0.00297168
-0.00260979
0.00591409
-0.000506855
0.0107031
0.00396702
-0.00119092
-0.0019566
-0.000161508
0.00170342
0.0124702
-0.00629363
0.00253275
-0.00870932
-7.00072e-05
-0.00107607
0.00156252
-0.000416442
-0.0519054
-0.00377956
0.0556849
0.00579722
-0.00131235
0.00126446
0.00388971
0.000643056
-0.00182432
0.00195236
-0.00276928
-0.000287247
-0.000942696
-0.000721932
6.90931e-05
5.0273e-05
-5.61832e-05
-6.31829e-05
6.52823e-05
-0.000326142
0.00252384
0.000345977
-0.000353595
4.37061e-05
-0.000888803
0.000845097
6.98812e-05
-0.00103617
0.000226672
0.000739615
-0.0019456
-0.00317166
0.00310382
0.00201344
-0.00249184
0.000487471
5.87633e-05
0.000607254
-0.00378187
0.00135029
0.00127909
0.00247674
-0.00176751
-0.00198832
0.00341553
-0.00151212
-0.000624325
0.00270739
0.000906068
-0.00133531
0.00213304
-0.000599812
-0.000323063
-0.00121017
0.00142256
0.00115759
0.000127251
0.0187386
-0.0238913
0.0166118
-0.011459
0.00683907
-0.00357797
-0.00518818
0.00192707
-0.000447952
0.00384058
0.00439157
-0.00778419
0.00354621
0.000311742
0.00446093
-0.00149523
-0.00349141
0.00116348
0.00382316
-0.00118515
0.000299369
-0.000714116
0.00159989
0.000651103
-0.00180781
-2.84361e-05
0.00191764
-0.00180179
0.000535257
0.000461528
-0.000846126
-0.00053676
0.000921358
-0.00135904
0.00268466
-0.00117289
-0.000760435
0.0022327
-0.00128764
-0.0012443
-0.0239317
0.0161879
-0.0229416
0.000803146
-0.000943234
0.000350128
-0.00021004
0.000488199
0.000330215
-1.52672e-05
0.00105908
0.00181211
-0.00114422
-0.00078458
0.00335138
-0.0033875
0.000820691
-0.000697886
-0.00133961
0.00334674
-0.00130924
-0.00113105
-0.00101998
0.00145315
-0.0019974
0.00015037
0.00455672
0.000284426
0.0025288
-0.00446944
0.00165621
0.00206671
0.000441479
-0.00223504
-0.000273148
-1.59692e-05
0.000201459
0.00267349
-0.00285898
0.00124381
0.00419683
-0.00414454
8.77839e-05
-0.00365966
0.000795937
0.00277594
0.000924168
-0.00109138
0.000230556
-0.000760838
0.0012502
0.00028011
0.0011816
-0.0031819
0.00464063
0.000747231
-0.00135564
-0.00376505
0.0023348
0.0027859
0.00119913
-0.00149344
-0.00231549
-0.000882648
-0.00152522
0.000779046
0.00162882
0.000858854
-0.000582103
-0.000998211
0.000721461
-0.00169057
0.000565858
0.000334212
-0.000809552
0.00290463
0.0101536
0.00925159
-0.00841659
0.00017361
0.000400343
-0.000481846
-0.000607314
0.00119538
-0.000544186
0.00095159
-0.000121944
-0.000934994
0.000105348
2.56876e-05
0.000164991
-0.000487632
0.000436766
-7.18377e-05
0.000165907
-0.00132375
-0.000313367
0.00322137
-0.00158426
0.000515109
-0.00016825
-0.00057961
0.000138811
0.000384936
-0.000403179
-0.000120567
0.00156461
0.000626602
-0.00333223
0.00114102
0.00174773
-0.00135837
-0.000189934
0.000526319
0.00283953
0.000535852
-0.0039017
0.00043372
0.00230231
-0.00220971
-0.000355508
0.000664506
0.00197017
0.000447419
-0.000868464
0.000241444
0.000179601
0.00289168
-0.00325125
-0.00948065
-0.00521961
-0.00462441
0.00850108
0.00134294
0.000939704
-0.00272376
-0.00258489
0.00436894
-0.000918391
0.0109628
0.0040576
-0.00372693
0.00490008
-0.00523075
0.00137312
0.00279158
-0.00337632
-0.000788386
0.00787458
0.0123961
-0.0162147
0.0064729
0.00322253
-0.00864899
-0.00104644
0.000358383
-0.00321082
-0.0027882
0.00564064
-0.00140573
0.00787901
-0.00927416
0.00280088
-0.00236812
0.00195277
-0.00132253
-0.00105211
-0.000955055
-0.000532786
0.00253995
-0.000825831
0.000118802
0.00234211
-0.00163508
-0.000491449
-0.0015018
0.0028487
-0.00170508
0.00193496
0.00295661
-0.00318649
-0.00512088
0.00917289
0.000103311
0.00681923
0.00350792
-0.0131403
0.00281311
-0.00623784
0.00984534
0.00141269
0.00372193
0.00689316
-0.00379585
-0.00763815
0.0102822
-0.0245271
0.0152604
-0.00322019
0.00763825
0.00665875
-0.000381393
-0.00555879
-0.0061825
0.00642042
0.00381968
0.0116184
-0.00761436
-0.00705808
0.00305401
-0.00391506
0.00249139
-0.00223118
0.00365485
0.00113798
-0.00361418
0.00120877
-0.00665576
0.00906117
-0.00224747
-0.0096159
-0.00331842
-0.00120713
-0.00245172
0.00697728
0.00624072
-0.00401573
0.00139337
-0.00361836
-0.00864001
-0.00209092
0.00510676
0.00244686
0.00208877
-0.00989067
0.0219808
-0.00341181
-0.00415268
0.00370307
-0.00356611
0.00163666
-0.00114189
-0.000160564
0.000559401
0.000759137
-0.00547122
-0.00742256
0.00328663
0.00365028
0.000485649
0.00478649
-0.00388344
-0.000343648
-0.00422549
-0.00620741
0.00556175
0.00487115
0.000645845
0.00147168
-0.00634302
0.00449218
-0.0042926
-0.00211323
0.00191365
0.0421891
0.00106479
0.00427425
0.000508015
-0.000290088
-0.000591589
-0.0093099
0.00369408
0.00148967
-0.00235273
-0.00343975
-0.00126651
0.0116522
-0.00482394
0.0056418
-0.00982006
-0.00250838
0.00668665
-0.00455084
0.0126987
-0.00250612
-0.000266414
-0.00341843
0.00517452
-0.00144938
-0.00786518
-0.000505505
0.00187772
0.00373587
-0.00331002
0.00107341
-0.0090754
0.013806
-0.00580397
-0.00524625
-0.00479545
0.0111151
0.00333356
-0.000124797
0.00135878
-0.00483491
0.00292221
-0.0109813
0.00265737
0.00389349
0.00443045
-0.00121513
-0.00978711
0.0114704
-0.000468211
-0.00248208
-0.00645697
0.00351855
0.00360231
-0.000663896
-0.00980386
0.0231398
-0.00979982
-0.00353611
0.00132741
-0.00132374
0.0021822
0.00682275
-0.00865135
-0.00797527
-0.00585533
-0.00728922
0.00343361
-0.00338687
-0.00726391
0.00620794
0.0116718
-0.00847931
-0.0094004
0.000486323
-0.00253191
0.000749151
0.000141964
0.00115028
-0.000508319
-0.000783925
-0.000890534
-9.88763e-05
7.55645e-05
0.000998979
-0.000821211
-0.000744043
-0.00044839
-9.86013e-05
0.00253458
-0.00198759
0.00218888
-0.000768712
-0.00175126
0.000331094
-0.00396779
0.00843111
-8.31126e-06
-0.00669908
0.00369982
0.00889217
0.0262032
0.0110316
-0.00975362
-0.0165003
0.0206037
-0.00582702
0.00187012
0.00183563
-0.000814932
0.000887145
0.000851955
0.000146977
0.000819341
-0.000262227
0.000872939
-0.000146859
-0.00050605
-0.00022003
0.000642448
0.000123368
-0.000369431
0.00334639
-0.00857717
0.00197836
0.00695597
-0.00558793
-0.00285707
0.00215634
0.000446056
0.000254673
-0.00671776
-0.00868368
0.030868
0.00361519
-0.00441528
-0.00815978
0.00895987
0.00344922
-0.00229275
0.00110978
0.00145855
0.0057772
-0.00351521
0.00468901
0.000112554
-0.0026949
-0.000987519
8.01939e-05
-0.00128184
-0.0042936
0.00288054
-0.00669792
0.0117069
0.000248036
-0.00281777
0.00188027
0.000689466
-0.000508274
0.00324123
-0.000817472
0.000890708
0.00192889
-0.00302923
0.00236266
-0.000553134
-0.0035263
0.000843396
0.00187626
0.000806643
-0.00277954
-0.00206301
-0.00374833
0.00859088
-0.00230124
0.00176239
-0.00298746
0.00268784
0.00498182
-0.00356448
-0.030839
-0.00802373
-0.0132464
-0.00196576
-0.000623543
0.00182887
-0.00954018
0.00732907
-0.00756208
-0.00254653
0.00127591
0.00209013
-0.00511737
-0.00457298
0.00206931
0.00303119
-0.0108776
0.0193912
0.00319952
-0.00243213
0.00298376
-0.000640155
0.000402636
0.00224529
-0.000679091
0.000900458
0.0486777
0.00963599
0.0032974
0.000169572
-0.00427652
3.82584e-05
-0.00296254
0.00674375
-0.00880787
0.00519287
0.00306291
0.000522617
-0.000315317
0.00191248
0.00214451
-0.000994088
-0.000788512
0.00244621
-0.00172066
6.29621e-05
0.00388844
0.0115775
-0.0162818
-0.00490885
-0.00349094
0.00959579
-0.001196
0.00491129
-0.0025825
-0.00458799
-0.00393193
0.00233096
0.000399953
-0.00789131
-0.00778852
-0.0118517
0.00594562
0.0246353
-0.0158197
-0.00520042
0.000701354
-0.0207345
0.00459292
-0.00207025
0.00974427
-0.000558981
-0.0027772
0.000709435
-0.000345336
-0.00393617
0.00525866
0.00133062
-0.00265311
-0.00113242
-0.00183984
0.000941696
0.00203057
0.000731828
0.00219546
-0.00284759
-0.0021887
-0.00117514
0.00122786
5.33713e-05
-7.2124e-05
6.45718e-05
-4.58191e-05
0.00268062
0.00139186
-0.000483095
-0.00358938
0.00342688
0.00296424
-0.000216152
0.00199186
-0.00288229
0.00110658
-0.00660964
-0.00190733
0.00980412
0.0175691
-0.0172806
0.000971162
-0.0012596
-0.0200064
0.017754
0.0107137
-0.00132777
-0.00309397
-0.00629194
-0.0014375
-0.00297423
0.00456532
-0.00238722
0.00254411
0.000780461
-0.000937347
0.00162071
0.00160347
-0.00238025
0.00107486
-0.000429859
-0.00147084
0.000985466
-0.00174813
-3.18128e-05
0.000794479
0.00619564
-0.00782597
0.0033895
-0.00175917
0.00100263
-0.000277462
0.00120008
-0.00192525
0.000242729
0.00337001
-0.000205532
-0.000549765
0.0108172
-0.00726299
-0.00514156
0.00158739
-0.000745409
-0.00034277
0.000358871
0.000157791
-0.000173892
1.91432e-05
-0.0008829
-0.0021708
0.00303456
-0.00326968
-0.00769063
0.00487639
0.00417315
0.00073368
-0.00100024
-0.00199933
0.00067693
0.00126362
5.87833e-05
0.00189358
-0.00102999
0.00330956
-0.00176997
0.00158825
0.000538076
0.0023647
-0.000513241
-0.0033135
-0.000980332
-0.00309319
0.000961846
0.00311168
0.000347078
0.0030914
2.05199e-05
-0.000999882
0.0024533
0.00143149
-0.00108258
-0.00181411
-0.000271265
0.00325741
-3.12572e-05
0.000211373
0.000403328
-0.000795957
0.000181256
-0.0011682
0.000814716
0.000280159
7.3322e-05
0.00945495
-0.0121849
0.00244954
0.0113748
0.000229687
-0.000167371
0.0003958
-0.00269456
0.00412546
-0.000655929
-0.00311573
0.00962487
0.00441092
-0.0109201
0.00140131
-0.001869
-0.000584426
0.0104092
-0.00641477
0.00631118
-0.0103056
0.00593094
-0.0148292
-0.0125868
0.0214851
9.09387e-05
-0.00357648
0.00269702
0.00265009
-0.0036398
-0.00294645
0.00385447
-0.0106248
0.00717024
-0.00336382
0.00211122
0.00575862
-0.00582865
0.00539495
0.000577516
0.000150026
-4.84584e-05
0.000193909
-0.000295476
-0.00137014
0.00284748
0.00453422
0.0590488
-0.00373441
0.005732
-0.0299524
0.0359799
0.000262376
0.00132293
-0.000920608
0.00249115
0.00260564
-0.000198692
-0.00288153
0.00680215
0.0318354
0.00087246
-0.0207733
0.00194033
0.00233266
-0.00104617
0.000231239
-0.00379881
0.00548993
-0.00208957
0.000398448
-0.00339514
-0.000512272
8.49214e-06
-0.000382356
0.00062984
-0.000255976
0.000387228
-0.000248385
3.8841e-05
-0.000177684
0.00028424
-8.36559e-05
0.000378595
-0.000579179
0.00092304
0.00505873
-0.00456243
-0.00100395
-3.36969e-05
0.000851798
0.00018585
0.00101337
-0.000750707
-0.000977165
0.000714499
3.44355e-05
0.000180441
-0.00402262
-0.00243275
0.00269681
0.00213263
0.00117325
-0.000834303
-0.000454245
0.000625835
0.000662713
-0.00482687
0.00259051
0.000727452
0.00150891