/*--------------------------------*- C++ -*----------------------------------*\
| =========                 |                                                 |
| \\      /  F ield         | OpenFOAM: The Open Source CFD Toolbox           |
|  \\    /   O peration     | Version:  2506                                  |
|   \\  /    A nd           | Website:  www.openfoam.com                      |
|    \\/     M anipulation  |                                                 |
\*---------------------------------------------------------------------------*/
FoamFile
{
    version     2.0;
    format      ascii;
    arch        "LSB;label=32;scalar=64";
    class       volVectorField;
    location    "0.0321319";
    object      U;
}
// * * * * * * * * * * * * * * * * * * * * * * * * * * * * * * * * * * * * * //

dimensions      [0 1 -1 0 0 0 0];

internalField   nonuniform List<vector> 
3948
(
(4.38064 6.57809 -0.594654)
(9.19826 0.963552 1.33207)
(10.5717 0.156778 0.476157)
(6.68302 4.6006 1.46927)
(7.12135 3.80156 1.55479)
(10.7589 0.271509 0.45274)
(7.13693 4.30861 1.42365)
(8.23632 3.6172 1.09029)
(10.8571 0.0667993 0.133288)
(11.0215 0.482934 0.31764)
(11.0071 -0.166467 0.105683)
(11.5345 -0.00142694 0.431844)
(10.7291 2.62738 1.62457)
(10.9751 2.33599 1.52758)
(10.3728 -0.972302 1.71116)
(8.79161 -1.99998 1.56844)
(9.89538 3.78907 3.32277)
(10.1783 0.119968 0.852283)
(9.37303 4.58659 2.78114)
(11.159 -0.304516 1.01959)
(11.0051 -0.207207 1.21864)
(12.1414 2.16679 0.74508)
(10.5989 0.190542 0.254214)
(11.3436 -0.259973 0.636997)
(11.3232 -0.406988 0.837462)
(2.81059 0.710041 1.07575)
(11.1715 -0.30019 0.837131)
(3.98093 1.34165 0.482888)
(11.9192 -0.112517 -0.0603536)
(12.3012 -0.859908 0.2759)
(10.3666 1.30059 1.49052)
(2.78172 5.74303 0.0739218)
(6.72631 5.8928 0.0482988)
(11.9517 -0.770604 0.664055)
(-1.03315 3.41224 0.493897)
(11.3908 -0.24246 0.359617)
(-3.64976 1.01075 0.0477397)
(3.86875 6.80565 0.191597)
(6.36027 -0.207244 2.81273)
(4.77037 1.77339 3.47631)
(8.21498 0.856528 3.62996)
(10.5713 -0.509263 1.82591)
(4.71351 5.6762 -2.15218)
(5.71377 5.51225 -1.93443)
(11.3873 -0.215815 0.708809)
(4.44075 6.10999 -2.07654)
(6.20077 5.72301 -0.511724)
(4.66973 5.8456 -1.89897)
(-0.619792 0.317767 1.50392)
(4.43664 -0.332608 2.69909)
(12.2049 -0.732141 0.18587)
(1.08161 -0.103823 1.82166)
(10.3734 2.51279 3.61449)
(4.3535 -0.566401 2.0825)
(6.60496 -0.389209 2.11367)
(1.07458 6.19039 -0.389523)
(10.8265 0.475461 0.422415)
(10.151 -0.155882 1.95762)
(0.029932 5.10898 -0.607012)
(10.8829 1.26202 -0.680083)
(7.37753 -0.206928 0.924282)
(8.27589 -0.532877 0.400933)
(10.7296 0.103825 0.0255904)
(12.129 -0.438909 1.21477)
(12.1666 -0.606217 1.00954)
(11.3694 -0.194855 1.92438)
(9.23458 2.48148 -2.09202)
(8.34024 2.30383 -3.00557)
(11.5645 0.0608064 0.956811)
(7.24789 -0.672827 1.87101)
(-3.29429 5.81726 -0.96717)
(10.9037 0.103329 2.52277)
(9.04768 2.99949 4.7666)
(10.8199 0.796975 0.197033)
(11.4958 -0.261349 0.298902)
(11.0458 0.12612 0.893792)
(10.8168 0.104002 0.248798)
(11.7292 -0.254789 1.17393)
(4.53993 6.42 0.335183)
(12.3735 -0.907473 0.320231)
(11.4565 0.752963 2.48916)
(11.3663 0.826041 2.62059)
(9.72332 2.71071 0.679818)
(10.2066 1.03705 0.332682)
(11.1031 1.05106 2.902)
(11.3004 1.00069 2.65608)
(10.5233 0.365451 3.04893)
(11.2459 0.612658 2.47404)
(7.06792 4.91134 -1.50106)
(10.6058 0.364078 0.231208)
(2.99338 2.1348 0.38032)
(11.4879 -0.0291352 0.781878)
(10.8942 2.72086 0.951482)
(10.6914 0.533962 1.47112)
(11.1137 1.0579 -0.266562)
(10.2153 -0.601779 1.82394)
(8.93213 2.29608 1.72867)
(10.0525 2.26215 3.2158)
(10.6677 0.831624 0.29509)
(11.2501 -0.102033 0.56156)
(11.1356 -0.0910792 0.282539)
(11.5693 -0.591647 0.914641)
(12.8984 0.934727 0.73537)
(10.7749 0.859725 0.531232)
(11.5342 0.22478 1.05803)
(12.2169 -0.587795 0.703006)
(11.1493 0.811948 0.671261)
(9.06877 0.487992 0.967828)
(5.81608 6.70677 1.29313)
(4.28594 1.73607 -1.10847)
(5.89741 3.99862 -2.93806)
(5.52441 4.876 1.17279)
(10.6216 0.187607 0.213507)
(11.2376 1.87516 0.577051)
(0.132181 3.4798 -4.17537)
(10.1438 0.851944 0.600868)
(10.9354 1.24088 1.16162)
(9.70781 4.19232 -0.631495)
(3.76119 1.39255 0.0397985)
(6.47627 -0.594922 0.185347)
(-2.70397 4.37894 -1.02291)
(11.4975 -0.563894 -0.175971)
(6.44403 -1.10172 1.45748)
(5.85684 0.186286 0.230344)
(11.834 1.37378 0.2759)
(11.427 -0.504504 -0.0415465)
(9.72973 3.88826 -0.517224)
(10.9622 -1.17682 0.829468)
(5.63371 6.82854 1.43554)
(8.98796 2.17 1.81933)
(11.7134 -0.00129304 1.27378)
(10.5936 0.265353 0.210163)
(11.6527 0.268024 2.08309)
(11.0726 1.7841 3.20129)
(10.7667 1.26171 0.0134421)
(6.77749 4.4855 3.87385)
(10.9825 1.36764 0.727558)
(11.5636 2.15271 1.25627)
(12.0004 1.23099 2.24092)
(11.1368 -0.254419 0.0824293)
(9.85124 0.629538 3.11491)
(11.0982 1.40744 0.316182)
(10.6615 1.02216 -0.162348)
(11.5034 -0.219603 0.596255)
(11.2741 1.24672 2.08986)
(11.7557 0.0873655 0.84226)
(10.0463 1.2754 0.220997)
(12.1296 -0.945934 -0.242011)
(6.27149 -0.27773 0.470312)
(11.0667 -0.158989 0.0720782)
(11.076 0.0101595 0.325845)
(11.1198 -0.256491 -0.0321667)
(11.7602 -0.378656 0.347815)
(11.5866 -0.421042 1.63305)
(11.6981 -0.30302 0.260127)
(11.6077 -0.571808 -0.171045)
(10.8855 0.147236 0.478244)
(12.5068 -1.11827 0.0346182)
(11.4987 -1.05418 0.671106)
(9.85819 0.286769 2.0959)
(11.704 -0.328197 0.589731)
(9.90704 0.937534 2.13157)
(10.8425 0.197883 0.34361)
(10.5237 0.671325 0.439881)
(10.7741 0.434095 0.342773)
(10.3578 0.946232 0.394967)
(6.24388 6.01025 0.54649)
(6.86438 -0.263012 2.8942)
(8.40198 3.47962 -2.09621)
(1.02103 5.25059 -4.21752)
(1.51029 3.58354 -3.25796)
(11.4447 -0.17889 0.321041)
(11.7243 -0.0454002 0.310718)
(3.16558 0.796308 2.98243)
(5.88016 1.30376 -0.0237275)
(10.6731 0.324143 0.462358)
(11.6912 -0.474278 0.906275)
(5.12537 -0.563749 0.659171)
(11.297 -0.115054 0.529629)
(11.3838 -0.127536 0.581446)
(12.5498 1.72268 0.473018)
(-1.6139 4.01562 -0.740166)
(-1.15838 3.08547 0.878826)
(6.54529 4.05398 -3.17166)
(11.2528 -0.0507551 0.453279)
(6.15045 -0.932441 1.17784)
(11.097 3.48311 0.633148)
(11.5652 -0.054362 0.517697)
(11.7833 -0.740856 0.995505)
(11.3767 -0.00550689 0.438597)
(12.0278 -0.663816 0.633918)
(11.5535 1.39722 0.386816)
(11.1567 -0.0947813 0.243843)
(9.41445 2.41599 -2.1449)
(10.7916 -0.00931541 1.13531)
(11.4109 0.367183 0.583474)
(11.1562 -0.600167 -0.30902)
(8.65206 1.18663 2.31446)
(11.7705 -0.740779 -0.113587)
(12.0626 -0.815346 0.16007)
(11.8635 -0.606644 0.113854)
(11.4604 -0.485967 -0.0849129)
(8.14144 2.29349 3.83648)
(11.6324 -0.39889 0.143406)
(11.6934 -0.885065 0.965458)
(9.5599 1.55251 0.74635)
(9.91976 -0.543402 1.95516)
(1.55986 1.0469 1.93455)
(11.4224 1.18068 1.9833)
(12.4224 -0.144398 1.27991)
(11.5947 -0.34445 0.230676)
(2.00894 -0.801386 1.14334)
(11.7899 -0.53486 0.112059)
(12.3115 -0.937796 0.104631)
(10.9629 -0.057765 0.474151)
(5.96256 4.72747 1.63605)
(10.2248 1.40717 -1.50593)
(6.34597 5.08512 2.17705)
(8.09123 6.35727 3.0871)
(11.0045 -0.0669916 0.18193)
(7.32078 -0.30573 2.91247)
(12.3755 2.10766 0.00802461)
(10.0809 -0.670912 1.2512)
(10.4399 1.18258 0.395543)
(11.7953 -0.515385 0.838682)
(10.7298 0.0519691 0.630776)
(11.2728 -0.343375 -0.000737866)
(9.82905 2.02002 -0.750861)
(10.7366 0.906157 -0.0906206)
(-2.49959 5.86669 -1.7032)
(8.59773 -0.465134 2.36116)
(8.01923 4.54848 3.86247)
(9.93745 2.60836 0.58751)
(9.49029 0.148787 2.11564)
(6.62572 5.74044 0.789225)
(2.36426 6.97948 -0.311864)
(11.1274 -0.211304 1.2143)
(6.40129 0.964618 0.376476)
(10.6853 0.120284 0.990193)
(6.69976 -0.132827 0.20791)
(11.5827 1.6984 -0.0152924)
(5.75289 2.62042 -3.30741)
(10.8936 0.041049 0.392373)
(9.04821 1.44003 1.4842)
(9.27444 4.06995 -1.80643)
(11.0591 -0.112012 0.173853)
(11.0781 -0.229695 0.0595638)
(10.0193 1.09218 2.56769)
(10.7603 1.23377 -0.632017)
(11.0955 0.159716 0.339384)
(11.3734 0.313076 0.748511)
(11.1971 0.0748985 0.888358)
(10.6429 0.742928 0.100249)
(10.007 1.14471 1.34381)
(8.34845 -0.900208 2.19454)
(8.74344 0.0471832 2.39312)
(8.96359 2.17859 2.41483)
(5.28401 2.04762 -0.287468)
(11.0706 1.34987 0.765097)
(11.5516 -0.336365 0.146701)
(11.7845 0.121653 1.43864)
(6.50338 1.28767 2.92346)
(9.67761 -0.499265 0.959835)
(6.02083 -0.608604 -0.0929734)
(8.60839 -0.553493 0.868827)
(11.8975 1.61574 1.56306)
(11.6883 -1.20526 0.538729)
(10.5171 1.09626 1.55509)
(10.096 3.94366 1.62308)
(5.17433 -0.370048 2.70517)
(11.6654 0.0187739 1.00644)
(12.0343 -0.579762 0.580814)
(12.0124 -0.0704544 0.362629)
(9.99633 -0.805939 1.10192)
(1.50527 6.95569 -0.95767)
(9.22936 3.11564 0.617099)
(11.1333 0.1025 2.06009)
(6.72403 5.32561 -0.398067)
(11.7444 2.50106 0.51559)
(2.6978 5.50925 -1.96086)
(12.3332 -0.645907 0.424544)
(10.7892 0.978272 1.67171)
(1.80771 3.95306 1.11413)
(5.38095 5.72807 2.11388)
(10.0194 2.13659 1.07708)
(11.674 -0.289138 0.384277)
(11.7407 -0.538511 1.2335)
(11.4256 -0.490144 1.57818)
(7.89484 5.0079 1.18726)
(10.1304 2.40595 -0.853551)
(6.81276 1.25752 2.80461)
(11.4072 2.52245 -0.899487)
(11.7372 -0.466888 1.43106)
(11.4007 1.7229 1.53041)
(3.6418 3.68223 1.87418)
(10.8544 1.99502 1.1216)
(10.5747 3.04217 1.34846)
(10.181 -0.289299 3.67638)
(11.2313 2.3603 1.49897)
(4.38855 6.79997 1.31131)
(-2.8553 -1.901 -0.0382927)
(6.57629 -0.173672 0.222232)
(10.4886 1.18946 0.36403)
(11.7129 -1.21027 0.614659)
(6.81345 1.98881 -3.45824)
(11.0512 0.0374942 0.412369)
(10.9516 0.117287 0.376775)
(11.6473 -0.687943 1.32968)
(8.62454 -0.545264 0.975394)
(10.3421 -0.217763 1.49028)
(10.6941 0.407275 0.347708)
(11.0954 0.718479 1.63694)
(10.8081 1.18645 1.88728)
(5.1215 5.65711 1.78175)
(11.4437 0.248719 0.588774)
(10.8789 0.116047 0.229027)
(8.79923 5.04869 2.72967)
(-0.614331 4.08277 0.292711)
(0.9275 6.3891 -2.94558)
(8.51596 4.4495 2.30531)
(9.37513 0.673763 3.36349)
(11.6562 0.530249 1.91625)
(10.3723 2.14594 1.165)
(2.96026 6.48056 -0.159133)
(10.5866 0.649215 0.862115)
(11.0479 1.06983 0.470037)
(10.6323 0.141595 0.851812)
(11.1436 -0.180767 0.114995)
(10.2881 1.19569 1.14601)
(11.3231 0.293092 0.608417)
(10.6125 0.555434 2.908)
(9.39786 3.0268 3.34562)
(2.79457 0.0302006 2.15342)
(12.2814 -0.107958 1.45338)
(-2.35366 -1.41297 0.29202)
(10.5915 0.993513 -0.140569)
(7.53339 -1.32674 0.232099)
(11.6079 -0.0179853 1.37975)
(4.06366 6.35559 0.015421)
(8.46763 5.0108 2.62014)
(5.09056 6.95165 1.47179)
(8.17888 3.78587 1.5412)
(3.42978 -0.105768 2.72792)
(6.1631 3.26255 2.0583)
(8.99497 1.43509 1.57169)
(8.59555 2.38905 2.06066)
(-0.951068 4.27318 -0.74327)
(7.19203 6.84417 1.86161)
(10.4259 3.29934 1.84842)
(6.2133 0.473072 2.47307)
(11.4536 -0.245075 0.64491)
(11.9677 0.147443 2.01939)
(4.34859 2.13359 1.64237)
(6.51239 -0.74358 2.54218)
(10.5007 -0.690905 1.72148)
(10.5958 0.815506 0.907904)
(11.0667 -0.107278 0.585814)
(11.0346 -0.081612 0.04546)
(10.7711 0.232538 0.315853)
(11.4299 0.0928608 1.20571)
(10.3612 0.511864 2.9567)
(11.3719 0.436383 0.880716)
(7.21621 -0.813607 0.681883)
(9.51222 -0.095458 2.53429)
(9.1563 0.561877 0.718733)
(13.2865 0.707729 0.477192)
(11.4775 -0.296597 0.177181)
(11.4324 -0.298878 0.170916)
(11.3242 -0.175444 0.195865)
(11.3857 -0.284311 0.156196)
(11.4645 -0.315013 0.1016)
(12.2491 -0.790372 0.421535)
(12.1006 -0.723847 0.394735)
(11.2547 -0.834506 0.727292)
(10.7486 -0.90168 0.957956)
(9.14322 -0.581709 1.02043)
(6.34312 -1.40423 1.05576)
(10.0884 -0.782451 1.19764)
(12.0882 -0.635914 0.455834)
(10.9755 -0.0322134 0.314916)
(9.56984 0.699519 2.09773)
(10.9856 0.412841 1.72878)
(11.1214 0.191212 1.42666)
(9.99682 0.971774 1.61629)
(10.8357 0.059104 2.52772)
(10.6123 0.565373 2.81391)
(10.8729 -0.574427 2.08412)
(10.1442 -0.834167 1.87246)
(11.3117 0.115534 2.13538)
(10.3433 0.317608 2.14833)
(10.3974 0.122707 1.97157)
(10.7447 0.185349 1.50487)
(10.9366 0.268775 2.01026)
(10.7051 0.518635 1.83902)
(11.2122 0.209495 0.750202)
(11.1714 0.229578 0.777225)
(11.3449 0.148573 0.710432)
(11.2414 0.164887 0.629069)
(11.1928 0.177625 0.594602)
(-1.56269 0.337696 -0.605497)
(11.3394 0.171211 0.790182)
(11.2563 0.0320256 0.634464)
(11.2077 0.073267 0.662615)
(11.5174 0.292251 0.843267)
(11.4678 0.226378 0.578155)
(11.6662 -0.0611269 0.65235)
(9.84697 0.572505 4.14076)
(12.351 -1.05163 -0.183057)
(-2.2308 -2.15178 -0.599115)
(12.571 -1.23569 -0.382556)
(10.7455 0.718582 0.443758)
(10.8065 0.678113 0.382232)
(11.8541 0.494565 0.961585)
(11.5419 0.28496 0.64982)
(11.8786 0.552681 1.03817)
(11.6864 0.0560149 0.785162)
(10.6788 0.142921 0.0748093)
(10.8204 0.133217 0.14264)
(10.6704 0.144496 0.0265724)
(10.3819 0.47763 0.336203)
(10.456 0.357758 0.273468)
(10.5982 0.329772 0.350625)
(3.7421 6.94024 0.784232)
(1.79088 4.71704 0.901222)
(10.2627 4.59271 2.84292)
(10.033 3.65954 1.6548)
(11.3964 -0.0484184 0.392474)
(8.1041 4.56521 3.98517)
(11.3923 -0.154982 0.291041)
(11.6394 2.01452 0.883961)
(4.5292 1.22391 -0.889625)
(0.068254 5.5795 -2.32924)
(7.77709 1.76863 1.29129)
(11.5188 2.35071 0.891775)
(7.98125 -0.471968 1.47349)
(8.29504 1.58919 3.25012)
(0.644802 -0.980275 0.0331534)
(0.949131 3.68203 -0.457721)
(-1.14345 2.09502 -0.251962)
(8.54389 -0.331126 0.614907)
(11.1304 0.823272 1.16657)
(10.9868 1.33968 1.25605)
(6.67694 -0.553459 0.163845)
(9.91624 -0.258915 2.14504)
(9.47536 2.43747 -2.30197)
(11.0237 1.36799 1.20442)
(8.85069 -2.0781 1.7972)
(10.07 1.30676 0.288373)
(2.09647 6.34321 -1.14048)
(10.1037 1.31656 0.292233)
(5.20187 6.45473 1.07217)
(9.09941 0.763794 0.653201)
(9.68259 1.48903 0.373244)
(10.8519 0.257254 0.26326)
(7.31065 -0.717346 0.592484)
(11.9266 -0.630058 0.088482)
(12.209 -0.784686 0.214432)
(11.9536 -0.69149 -0.00261897)
(12.1793 -0.501086 0.771602)
(12.0339 -0.440658 0.732084)
(12.1449 -0.201101 0.395233)
(12.1608 -0.668114 0.486373)
(10.6278 1.17804 0.426216)
(11.0957 -0.696565 1.5216)
(10.5603 0.191819 0.0960424)
(11.022 2.98378 -0.682355)
(10.914 3.03618 -0.690155)
(11.9231 -0.531995 1.11777)
(11.5139 -0.54011 1.48248)
(-1.04884 0.449991 -0.00867745)
(7.16558 -0.841572 0.607554)
(5.11863 5.01842 0.945483)
(6.30876 -0.740534 -0.0178635)
(11.3364 0.658372 2.129)
(12.2076 -0.741279 0.791733)
(12.2315 -0.836444 0.701479)
(11.8661 -0.643821 1.14951)
(11.6987 -0.191151 0.5428)
(11.7726 -0.25175 0.688369)
(10.61 -0.547333 1.81966)
(11.0573 -0.338067 1.8987)
(10.5135 -0.431555 2.02415)
(11.0823 -0.057788 0.184249)
(11.0622 0.650633 0.291552)
(10.9598 0.564573 0.308965)
(11.3133 0.233539 0.265564)
(11.3211 0.51107 0.448235)
(11.1536 1.42749 1.54196)
(11.293 1.53238 1.40875)
(11.1818 1.53267 1.27476)
(10.3187 2.65458 2.46283)
(10.6065 2.34932 1.9312)
(10.895 1.69362 1.8514)
(10.9237 1.97209 1.85358)
(10.4997 0.0327691 0.662113)
(9.94676 -1.55776 3.06705)
(9.65825 -1.0082 3.55288)
(6.62817 1.42055 3.05831)
(10.5414 3.03776 0.689972)
(8.70151 4.91566 -0.116132)
(8.09375 5.24398 -0.619759)
(12.1382 -0.236229 0.994932)
(12.0254 -0.125485 1.44916)
(2.56377 6.67228 -1.41895)
(11.8942 0.714002 1.39757)
(11.8133 -0.467884 0.227313)
(12.1298 -0.77206 -0.0268768)
(7.88988 -1.25597 0.620716)
(12.2345 -0.803717 0.371905)
(12.5208 -1.10821 -0.152807)
(11.7188 -0.495558 0.174133)
(12.1075 -0.810288 0.0915967)
(11.992 -0.407741 0.559799)
(2.24009 5.96977 -2.5952)
(11.5497 -0.228417 1.8594)
(1.53983 6.01251 -2.11219)
(12.6662 1.30146 0.952868)
(11.044 0.0194691 0.221066)
(6.37751 6.45236 1.94941)
(10.6603 3.45759 2.77715)
(10.593 0.129139 2.94119)
(4.92685 6.11153 1.46311)
(4.28788 6.60644 0.382753)
(11.7182 -0.153502 1.33858)
(6.92117 6.93926 1.90877)
(5.07807 6.62249 0.80885)
(9.02971 4.70357 -1.06678)
(11.4745 -0.238037 1.75805)
(12.0272 -0.545322 1.04952)
(11.9203 -0.283977 0.9912)
(11.3582 -0.402005 1.63022)
(7.81118 5.42785 4.29462)
(11.433 -0.256984 0.321656)
(11.5917 -0.384825 0.358748)
(11.4043 -0.229454 0.422776)
(11.3991 -0.245798 0.181113)
(10.41 2.30134 -0.372397)
(4.54476 4.20972 -4.72799)
(11.3239 -0.240812 0.0693793)
(11.1736 0.559998 0.26094)
(11.7591 -0.417833 0.36419)
(11.127 0.0135303 0.363885)
(10.5157 -0.678973 1.80621)
(8.52158 -0.859903 2.17264)
(3.78978 5.49729 -2.55194)
(8.87857 4.4278 0.14026)
(2.6295 2.81147 -1.28769)
(11.2222 -0.218949 0.182652)
(11.2549 -0.326833 0.110172)
(11.1673 -0.185831 0.173796)
(11.3189 -0.291738 0.151653)
(7.11036 3.07832 -2.89384)
(10.7736 0.14946 0.152357)
(10.8073 0.278423 0.256942)
(11.2595 0.0160643 0.735858)
(10.4285 2.06494 -0.0216555)
(10.7866 2.1647 -0.63993)
(10.8836 2.14407 -0.0825562)
(10.6364 2.05565 -0.51493)
(10.7435 1.44609 0.178934)
(10.8498 1.2409 0.050965)
(11.2543 1.84046 -0.302357)
(2.88293 5.06181 -2.32206)
(11.3732 -0.226893 0.86087)
(2.8714 4.70336 -2.07093)
(10.6892 0.233095 0.144046)
(4.51807 5.04887 -2.58909)
(12.8395 1.73784 1.04348)
(4.30101 5.93496 -2.04273)
(5.74679 4.48696 -1.55409)
(5.03178 5.36481 -0.709105)
(11.0602 0.286918 0.544549)
(11.0872 0.216999 0.464861)
(11.1093 0.62987 0.91341)
(10.7968 0.00970615 0.0624131)
(11.0483 0.703874 0.919209)
(11.1131 0.274175 0.61343)
(11.546 -0.0875195 0.366545)
(11.044 0.288657 0.566713)
(8.16788 3.45114 -1.35045)
(8.20681 3.33589 -0.446919)
(11.492 0.0444497 0.457352)
(8.4958 3.31053 -1.3891)
(7.24758 4.27035 -1.69086)
(7.94468 3.03634 -0.20498)
(8.61331 1.99553 0.681731)
(7.75471 1.80402 1.1652)
(8.4252 1.66312 1.21609)
(10.7503 0.5468 0.429229)
(10.8232 0.491596 0.22478)
(10.7819 0.542684 0.446777)
(10.9625 0.387312 0.773809)
(7.38552 1.44003 -0.506115)
(11.4106 0.298023 0.944971)
(7.27941 0.815167 0.135172)
(9.5511 1.78028 0.741932)
(9.2328 2.23658 0.770914)
(10.9752 0.0352419 0.286938)
(10.7407 1.36371 2.06195)
(10.2352 1.70598 2.95869)
(11.4005 1.36997 3.16556)
(10.7054 0.27998 2.6718)
(11.5822 0.38431 1.54263)
(11.2301 0.894594 1.7408)
(11.199 0.740921 -0.0209976)
(10.9764 0.688422 -0.0462721)
(10.5521 0.393413 0.254022)
(10.604 0.369847 0.164604)
(11.6291 0.509741 0.811015)
(7.41409 -1.73314 0.47048)
(6.64263 -1.36602 0.111654)
(7.34911 -1.74046 0.434902)
(5.19953 1.29372 3.30934)
(11.5046 -0.352601 0.127689)
(11.5578 -0.347074 0.232555)
(11.8802 -0.44818 0.496353)
(10.5815 0.310951 0.371409)
(11.3832 -0.387048 -0.040741)
(12.2159 -0.168881 1.34989)
(11.2105 0.289931 0.543451)
(11.715 0.548107 1.02108)
(11.9375 0.43769 1.01107)
(11.9777 0.208471 0.922275)
(10.6418 0.163805 0.0892842)
(12.4853 -0.67376 0.730447)
(12.3616 -0.467285 1.07611)
(12.3336 -0.517757 0.607325)
(12.1728 1.20195 1.24879)
(12.1185 0.284909 1.61771)
(11.207 0.150966 0.447557)
(12.1245 0.191617 1.43623)
(11.702 -0.309348 0.755886)
(10.7528 0.112557 0.0760979)
(11.0069 1.35679 2.04849)
(10.8006 0.0638382 0.0718558)
(11.2594 0.0371867 0.413485)
(11.6492 -0.285788 0.549614)
(11.8355 0.94198 0.99086)
(10.7769 0.15868 0.163377)
(11.8901 -0.474989 0.24427)
(11.2915 -0.0183012 2.04293)
(12.0667 -0.705144 0.247518)
(10.539 0.320869 0.222659)
(12.4009 0.922603 1.29603)
(7.95518 1.67282 2.36862)
(11.4364 -0.664281 -0.337341)
(12.5092 -1.137 0.00942007)
(12.4392 -1.05196 0.140695)
(11.7236 -0.99843 0.980149)
(10.0839 0.27989 0.750893)
(10.0702 0.207835 1.05524)
(9.3694 0.412001 1.33855)
(8.92241 0.661292 1.26545)
(9.82771 0.25976 1.29806)
(10.3478 0.0655272 0.954916)
(10.4888 0.317839 0.210094)
(11.1997 -0.327593 -0.0127788)
(11.1052 -0.261914 0.0323833)
(11.167 -0.426086 -0.00275209)
(-0.609487 2.87034 -0.53033)
(7.23688 6.73382 2.45463)
(8.17008 4.33742 0.162417)
(9.41479 3.06148 2.68841)
(11.2194 1.53117 0.639736)
(11.9294 2.65237 0.66538)
(1.34525 -0.94416 1.50529)
(10.4117 2.15154 0.419542)
(10.9882 0.703782 0.297369)
(11.3644 0.00153633 1.53584)
(11.4203 -0.424263 0.0542214)
(10.9644 -0.183698 0.0346776)
(10.73 0.216144 0.171238)
(11.3994 -0.270021 0.170869)
(11.6071 -0.0842926 0.752279)
(12.1514 -0.695715 0.242733)
(11.699 -0.149405 0.657159)
(4.50054 5.31991 -1.97848)
(11.8771 1.71762 2.1926)
(11.0219 2.511 -0.888191)
(11.835 -0.130143 1.01745)
(11.6934 -0.0071866 0.887978)
(12.1233 -0.505238 0.775261)
(11.0607 0.346716 0.415928)
(2.61506 5.75576 -1.7149)
(9.0094 -1.43997 2.51467)
(3.67183 6.54001 -1.8488)
(4.08441 2.68122 -4.30611)
(12.1394 -0.0899703 1.51001)
(11.8769 -0.839429 -0.293756)
(9.92264 1.2684 4.55837)
(11.889 -0.724289 -0.201516)
(5.75784 3.07612 2.85252)
(10.5508 3.39072 -0.288361)
(6.32262 -1.11599 0.209341)
(11.6466 -0.889915 -0.399947)
(11.3997 2.37048 1.01796)
(9.64199 4.53089 -0.440944)
(11.7045 -1.11281 0.731377)
(4.18293 5.80905 0.124719)
(4.43281 -0.787917 2.34346)
(11.2163 -0.286429 0.107132)
(11.5795 -0.43936 0.0522525)
(12.2594 1.5352 0.789178)
(-3.02641 5.9269 -1.74495)
(11.0908 1.01992 1.66291)
(11.7363 -0.412373 0.438181)
(10.04 -0.705096 1.93021)
(10.018 1.57355 0.858814)
(11.7232 -0.182691 0.43053)
(12.2682 -0.800263 0.798779)
(8.66774 3.97942 -0.0869953)
(10.2579 0.489057 1.15929)
(9.9684 1.1517 1.56246)
(10.6717 1.05503 1.18613)
(1.04138 3.47038 -0.16269)
(4.56178 6.60476 -0.146451)
(10.5803 0.197077 0.218439)
(11.7293 -0.0533272 0.0997163)
(11.6108 -0.0258855 -0.0148578)
(3.36086 7.27252 0.390688)
(11.6821 -0.0422994 0.060195)
(11.7318 -1.16819 -0.0734827)
(11.3027 -0.210584 0.235038)
(11.4789 -0.194775 0.0325824)
(10.674 0.356913 0.190579)
(7.28828 -2.17105 0.373808)
(12.307 -0.899796 0.418479)
(11.3582 -0.0264748 0.710886)
(6.31334 -0.668541 1.77572)
(9.2497 -0.773916 1.47492)
(10.6344 -0.571694 1.81585)
(11.9903 -0.574339 0.625174)
(11.2964 2.53372 3.08217)
(10.6307 -1.09723 1.68665)
(0.303532 3.63437 0.220968)
(12.2375 -0.76791 0.0425375)
(13.1588 0.935105 0.575384)
(7.51273 -0.406724 1.1895)
(4.40193 5.43054 -3.45431)
(4.83272 5.08961 -3.52482)
(10.6528 0.911819 3.24119)
(10.978 2.26163 3.28506)
(11.5299 -0.237547 0.738086)
(3.62715 4.8239 -4.2554)
(6.53082 -0.440571 0.40261)
(5.45238 3.03924 0.18923)
(-2.87992 1.38144 -0.225582)
(0.778517 5.73688 -0.223904)
(11.5895 -0.362133 0.480035)
(11.4789 -0.629779 1.45914)
(10.3487 -0.728476 1.07168)
(11.9245 -0.515229 0.352493)
(3.60778 3.36862 -2.57772)
(10.746 -0.268492 2.5272)
(11.6034 0.761559 1.79294)
(9.01463 -1.92731 1.85643)
(11.594 -0.956344 1.13483)
(10.8383 0.0523422 0.198575)
(9.39776 0.823894 2.32187)
(11.251 -0.185504 0.1475)
(10.5003 0.457224 0.206284)
(2.60111 5.8874 -4.3788)
(10.8612 -0.089963 1.26588)
(10.661 0.0527316 0.787216)
(5.58461 4.21226 -2.56715)
(8.37384 5.9597 2.87336)
(9.00855 1.46362 1.4934)
(10.3286 0.38318 0.473777)
(10.5984 0.168294 0.474852)
(11.0924 0.747971 -0.0796982)
(11.0007 0.417626 0.42082)
(11.1594 -0.0105118 0.32361)
(6.9907 -1.56309 -0.0615097)
(11.0295 -0.0520947 0.480358)
(8.36703 5.60423 1.29651)
(7.90591 3.21212 -3.6315)
(3.6558 6.35961 -0.145491)
(10.4395 0.584414 0.441815)
(7.24916 0.522534 0.522491)
(10.4183 0.348242 0.67975)
(11.1222 -0.110262 0.0928367)
(10.7489 0.231483 0.295898)
(10.8941 0.0814728 0.372286)
(11.6264 -0.291985 0.503435)
(11.9053 -1.25279 0.613201)
(7.21032 4.98609 -2.2324)
(11.1302 0.963879 0.41201)
(10.5888 2.33832 2.57384)
(10.3882 1.04072 0.345884)
(11.1308 0.370879 0.30479)
(10.8544 0.0546617 0.289372)
(5.88156 3.09483 2.8514)
(7.44517 6.20435 2.93966)
(10.0321 0.202822 1.58626)
(5.47849 1.2351 3.24085)
(3.66358 0.0270628 2.62684)
(11.19 -0.383842 0.918379)
(1.43508 6.4446 -3.53781)
(10.1805 -0.356824 2.19026)
(1.75109 3.42787 -3.91546)
(10.8675 -0.29496 0.86063)
(11.1837 1.33202 0.709002)
(10.9103 0.242343 0.268165)
(10.6692 0.109483 0.501365)
(-2.61053 3.59973 -0.253743)
(3.37831 6.0398 0.189088)
(10.7506 0.0814315 0.427205)
(9.54254 2.16218 -2.38957)
(6.26349 -0.332088 0.291831)
(9.92171 1.17536 2.31762)
(10.4712 1.60861 -0.790849)
(10.5906 1.33552 -0.922748)
(5.67702 4.86257 -0.957602)
(9.27111 2.49147 -1.88987)
(1.64827 1.48432 1.72676)
(10.4066 0.987828 0.0410124)
(11.4516 1.61274 0.386443)
(7.53246 -1.21466 0.292301)
(3.42642 0.0180479 2.1713)
(9.91649 -0.792816 3.89081)
(8.99872 -0.269224 0.999142)
(7.61 4.19576 2.61282)
(5.18265 3.29308 0.361843)
(11.7474 -0.275578 1.69425)
(7.75972 -0.294711 0.248361)
(5.98999 -1.4562 0.969669)
(7.25908 2.1203 1.51782)
(5.83729 -0.234199 0.0874978)
(9.58744 1.97673 1.58676)
(8.9634 3.21409 0.610499)
(7.44908 4.85225 3.9404)
(8.43541 4.29715 4.40733)
(11.6782 -0.525258 -0.0614968)
(7.63174 4.62978 4.21345)
(12.3586 -0.927665 -0.366556)
(11.429 -1.03407 0.233219)
(0.0585323 2.56034 0.0879048)
(11.2149 -0.141382 0.347659)
(11.7936 1.94387 2.12846)
(11.8447 -0.623119 -0.0934016)
(11.8554 -0.710428 -0.220359)
(12.1301 1.33261 2.20136)
(8.64427 4.88913 6.20261)
(10.5737 3.88829 3.33063)
(9.15659 3.86761 6.42443)
(11.1412 3.25604 2.10688)
(11.8773 -0.624088 0.00943167)
(12.1453 -0.603838 0.469221)
(7.10471 -1.45411 0.351795)
(11.2089 -0.303919 0.716954)
(11.0902 -0.241712 0.734504)
(11.3672 -0.386481 0.744305)
(11.3258 -0.364428 0.786293)
(11.6206 -0.562658 0.684259)
(11.5029 -0.156291 0.670589)
(11.9188 -0.390378 0.591468)
(13.0334 1.62958 0.739862)
(11.5753 -0.299482 0.834508)
(12.2711 -0.384342 0.344987)
(11.6177 -0.319986 0.398613)
(8.67951 0.408909 0.482992)
(11.3079 -0.11635 0.612249)
(12.1231 -0.0748135 0.186591)
(9.34392 0.646587 4.90944)
(7.3915 0.609868 0.847361)
(11.2492 -0.159086 0.0348433)
(11.6128 2.19123 3.22687)
(11.7822 1.98466 2.84676)
(2.36447 5.03687 -0.53306)
(-0.979502 5.25341 -2.0524)
(10.2289 0.38812 0.484777)
(11.7105 -0.367701 1.32012)
(-2.19571 4.12587 -1.7941)
(11.881 -0.138419 0.607773)
(8.954 -0.663989 1.31628)
(10.771 0.183085 0.380416)
(11.2202 -0.151099 0.103202)
(3.37933 5.7451 -2.59574)
(-1.13527 6.58735 -1.50768)
(7.06957 0.177876 0.684259)
(6.45557 -1.31843 1.56165)
(-0.873924 2.21191 -0.60739)
(8.3449 3.58422 -1.45968)
(7.74159 3.99543 1.80474)
(0.587496 3.07472 0.70809)
(10.6913 0.4345 0.727387)
(1.58819 6.93964 -2.65188)
(-1.33937 2.91162 -0.254831)
(6.51574 -0.888873 0.508398)
(10.5521 -1.07218 2.54968)
(11.6646 -0.581811 -0.147499)
(11.1352 -0.965788 0.416183)
(12.3323 -0.873746 0.537962)
(6.05159 -0.254387 0.329662)
(5.32413 6.55294 0.864672)
(5.6458 6.5099 1.11502)
(7.31901 -1.67779 0.350601)
(11.5458 -0.299508 0.394195)
(11.9257 -0.266429 0.536775)
(12.0894 -0.698312 0.333838)
(2.64824 3.31282 0.300389)
(3.69986 2.98147 0.632522)
(2.01394 5.39925 -0.865542)
(11.5568 -1.56075 0.231358)
(9.7623 1.88327 1.80287)
(9.14348 -1.68709 3.58662)
(10.716 -0.849061 1.08684)
(10.3982 3.68014 2.91251)
(10.3618 0.543389 0.235163)
(10.6917 1.06024 1.60704)
(10.5737 0.525541 0.508985)
(12.3052 0.968142 0.577821)
(10.7825 0.302148 0.30063)
(11.8795 -0.0963573 0.565168)
(10.8426 0.151612 0.358808)
(10.7433 0.638158 0.309627)
(11.0753 2.60284 3.61192)
(12.6247 -1.06061 -0.444776)
(2.16241 6.42448 -1.04781)
(6.42152 -0.25308 0.271717)
(11.5197 1.82085 2.70758)
(12.1962 0.860822 0.291442)
(11.496 -0.341684 0.538618)
(12.3851 -0.932571 0.256662)
(10.5134 4.09444 1.0584)
(11.0119 0.294485 0.720502)
(10.9578 -0.0372115 0.133144)
(10.571 -1.00126 3.03936)
(9.08751 -0.628312 0.900653)
(12.2537 -0.868235 -0.0942721)
(11.1618 0.382064 0.663937)
(11.249 -0.259508 0.804801)
(8.65921 4.9989 3.11437)
(5.40963 5.21787 0.838321)
(-1.05002 -1.7049 -0.0200995)
(12.0827 -0.6603 0.432886)
(3.17258 1.59327 1.92921)
(11.4166 -0.497076 0.00327665)
(10.7902 0.175525 0.278183)
(12.059 -0.818274 -0.161147)
(7.41335 -0.738236 2.11298)
(2.96413 0.340318 0.598574)
(9.11181 0.439675 1.48611)
(10.4674 0.673411 0.881733)
(10.7435 0.410355 0.75648)
(10.4415 -1.05837 1.59955)
(6.70227 -0.746599 0.137101)
(12.1112 1.16187 0.600051)
(11.4338 0.906615 0.424638)
(12.2654 0.915509 1.27638)
(12.253 -0.977489 -0.0125505)
(11.141 0.148306 0.716301)
(10.5902 -0.386001 2.30231)
(10.6297 0.232629 2.86354)
(10.6532 -0.136106 2.43527)
(5.27129 4.83893 0.731944)
(7.12211 3.99821 2.44305)
(12.5652 -0.838994 0.502609)
(11.6047 2.04956 2.01331)
(11.0627 1.00911 3.22382)
(8.88013 -0.332978 4.57566)
(10.5941 3.35881 0.485931)
(10.3306 1.38426 -0.140778)
(11.2744 0.598904 0.901511)
(11.1531 0.589117 0.821084)
(11.6799 1.30447 1.76552)
(11.661 2.2835 -0.404109)
(9.91242 4.86841 2.75514)
(4.32003 5.96548 0.725135)
(10.5439 0.603489 0.226531)
(11.6311 1.10392 0.619971)
(9.55766 1.89183 -0.631098)
(10.2107 1.46343 -0.74682)
(10.1781 0.913934 0.699311)
(7.3995 3.56703 1.28037)
(10.4048 0.35923 0.500476)
(10.1465 -0.140875 0.990098)
(10.6495 0.167591 0.115925)
(10.9334 0.706724 1.04631)
(10.5972 0.0677438 0.0867602)
(11.2589 -0.244271 0.585034)
(11.1624 -0.163491 0.600039)
(10.0487 0.889402 0.656673)
(11.889 0.841381 0.58537)
(10.4592 0.404431 0.57743)
(11.0579 0.621892 1.14257)
(10.8256 0.17822 0.475788)
(9.89521 -0.702851 1.55227)
(10.2996 3.20846 2.30287)
(10.7653 -0.277283 2.28692)
(12.3473 2.47866 1.03714)
(1.74227 6.49753 -0.331789)
(9.50105 -0.476242 1.65067)
(10.3779 -0.269934 2.16197)
(8.78746 -0.427554 2.30653)
(11.6704 -0.570166 -0.0677384)
(4.18045 -0.670831 2.26531)
(9.4514 -0.332962 1.67145)
(8.85667 0.244341 2.31094)
(-0.250137 -0.874641 0.771287)
(5.30145 4.41648 0.925843)
(11.0148 0.24835 0.842758)
(11.9213 -0.401015 0.323494)
(10.6045 0.442019 0.322401)
(12.4558 2.15088 0.552283)
(11.0413 -0.219531 0.868625)
(11.46 -0.537873 0.946879)
(11.5114 -0.236282 0.460248)
(10.6981 0.583387 0.0276628)
(10.9405 1.86874 0.704762)
(5.83089 6.07776 0.250958)
(5.64943 5.11758 2.8687)
(10.8259 0.0165163 0.0687555)
(11.083 0.30073 0.705504)
(11.0455 1.38558 2.16959)
(11.6912 3.78933 1.18891)
(11.1147 -0.0864237 0.543082)
(11.4228 -0.51221 -0.186951)
(11.6134 0.0588031 1.34013)
(11.7882 -0.47464 0.318479)
(2.34252 3.18307 -0.343042)
(12.1645 -0.0298522 0.949727)
(3.2399 4.65106 -4.41976)
(9.36747 5.06454 3.69874)
(11.5083 0.571932 0.55576)
(10.9873 -0.0263232 0.212163)
(9.98561 1.3641 1.58714)
(12.0513 0.64743 0.88893)
(10.4684 0.986785 0.544229)
(11.2751 0.0974235 0.54149)
(10.9576 -0.00349109 2.29811)
(8.86732 0.3307 1.7444)
(11.2756 -0.194972 0.732141)
(12.3572 -0.818268 0.72521)
(1.80563 1.60451 1.82574)
(11.3085 -0.138999 0.612343)
(5.65051 7.04941 1.24484)
(10.7731 0.103762 0.149927)
(10.988 -0.0310887 0.100546)
(12.0697 -0.641597 0.477693)
(10.2002 -0.761784 1.2488)
(10.969 0.00337615 0.313703)
(8.24737 2.15716 -2.98633)
(10.2324 2.38122 0.556099)
(11.135 2.09947 0.648728)
(10.5066 -0.486584 2.2583)
(11.3693 3.76674 1.27852)
(9.20011 -1.45651 3.6909)
(5.07999 2.26719 -0.0232692)
(10.8601 -0.108309 2.44867)
(11.6683 0.697817 1.62903)
(12.2943 1.97672 0.250065)
(8.57551 -1.98423 2.21655)
(9.21336 5.45499 5.79868)
(0.65733 2.87042 0.103167)