/*--------------------------------*- C++ -*----------------------------------*\
| =========                 |                                                 |
| \\      /  F ield         | OpenFOAM: The Open Source CFD Toolbox           |
|  \\    /   O peration     | Version:  2506                                  |
|   \\  /    A nd           | Website:  www.openfoam.com                      |
|    \\/     M anipulation  |                                                 |
\*---------------------------------------------------------------------------*/
FoamFile
{
    version     2.0;
    format      ascii;
    arch        "LSB;label=32;scalar=64";
    class       volScalarField;
    location    "0.0100321";
    object      k;
}
// * * * * * * * * * * * * * * * * * * * * * * * * * * * * * * * * * * * * * //

dimensions      [0 2 -2 0 0 0 0];

internalField   nonuniform List<scalar> 
3918
(
0.530703
0.382703
0.388596
0.393553
0.395365
0.646287
0.630733
0.415946
0.379184
0.415375
0.455575
0.595785
0.447103
0.436705
0.387783
0.537468
0.611997
0.362274
0.280918
0.396326
0.618203
0.393206
0.405675
0.590734
0.389078
0.613779
0.422061
0.388543
0.300644
0.486886
0.359454
0.380817
0.40655
0.421558
0.529019
0.621479
0.390704
0.405055
0.581874
0.380608
0.46578
0.374943
0.477439
0.46599
0.386796
0.494104
0.398868
0.55375
0.440528
0.412335
0.51295
0.597674
0.45877
0.467534
0.382977
0.538303
0.381323
0.481241
0.438418
0.405231
0.418107
0.402158
0.406099
0.512219
0.607119
0.37691
0.430007
0.526259
0.435278
0.468751
0.459864
0.641842
0.589563
0.604346
0.412698
0.387237
0.43541
0.473122
0.457154
0.380653
0.42264
0.527557
0.488712
0.443166
0.386327
0.404395
0.282064
0.323652
0.833272
0.386047
0.403991
0.390838
0.773929
0.431561
0.384127
0.392731
0.476102
0.382337
0.479598
0.592625
0.384183
0.389271
0.38738
0.387856
0.394169
0.378874
0.397119
0.50614
0.38327
0.544579
0.353472
0.401808
0.215541
0.347642
0.409275
0.382872
0.284366
0.453744
0.581519
0.596069
0.396451
0.623532
0.442658
0.313388
0.39532
0.708366
0.394942
0.486306
0.509943
0.442312
0.402983
0.505014
0.617675
0.402449
0.348478
0.522018
0.309744
0.343981
0.275589
0.409128
0.556644
0.361888
0.470874
0.642371
0.51032
0.510257
0.53296
0.578681
0.711554
0.50812
0.398327
0.410749
0.393672
0.536327
0.447014
0.4985
0.702578
0.677733
0.393687
0.399243
0.38715
0.311631
0.346604
0.562188
0.31488
0.397884
0.273685
0.384295
0.26969
0.384759
0.494229
0.374964
0.265779
0.26807
0.380149
0.480159
0.56345
0.450769
0.609138
0.47152
0.381966
0.476534
0.713671
0.469338
0.459024
0.483581
0.532248
0.493602
0.472466
0.459902
0.376524
0.532752
0.548827
0.571972
0.447578
0.397481
0.444201
0.436137
0.570014
0.414025
0.707186
0.483196
0.277282
0.456548
0.260353
0.418462
0.584738
0.615419
0.565516
0.413973
0.461799
0.296312
0.424436
0.293577
0.430247
0.705926
0.545259
0.499695
0.388971
0.569451
0.563558
0.622737
0.485758
0.404104
0.532313
0.71471
0.460351
0.387903
0.665991
0.43694
0.59327
0.490789
0.531198
0.442488
0.389292
0.56521
0.271033
0.411212
0.474168
0.397513
0.344933
0.636575
0.502827
0.452913
0.401611
0.426545
0.402723
0.454052
0.559667
0.420108
0.429562
0.597679
0.405779
0.442371
0.469261
0.452896
0.430864
0.456235
0.522924
0.508067
0.333731
0.403452
0.819877
0.381239
0.510803
0.432379
0.597678
0.455352
0.540756
0.44268
0.387944
0.453295
0.396765
0.470816
0.438903
0.44248
0.605828
0.539474
0.710858
0.413401
0.499217
0.629744
0.500443
0.411563
0.417836
0.567542
0.3899
0.70543
0.395558
0.424412
0.709009
0.442987
0.648108
0.398558
0.512137
0.475417
0.763328
0.288963
0.446453
0.415979
0.444993
0.439628
0.423007
0.57164
0.571335
0.570263
0.579995
0.462315
0.375734
0.51434
0.487467
0.707692
0.439319
0.357918
0.530302
0.680813
0.401684
0.435675
0.656507
0.74404
0.470201
0.297372
0.514815
0.454323
0.394451
0.562011
0.38511
0.50626
0.419681
0.384117
0.496172
0.483199
0.438089
0.500711
0.4073
0.47929
0.495345
0.396318
0.563197
0.382607
0.382195
0.323072
0.483103
0.431857
0.476504
0.47097
0.589927
0.547366
0.434794
0.523552
0.615687
0.341125
0.566607
0.39679
0.377818
0.379568
0.481139
0.585569
0.521352
0.402581
0.426123
0.698672
0.515447
0.575359
0.464469
0.391709
0.398529
0.437209
0.466617
0.592257
0.460283
0.397872
0.611066
0.607143
0.525301
0.392542
0.46964
0.438757
0.494402
0.376339
0.38425
0.480411
0.407181
0.437284
0.481191
0.491496
0.546236
0.406489
0.501654
0.452623
0.432029
0.485714
0.414735
0.507144
0.394034
0.509415
0.492538
0.396658
0.485137
0.47571
0.307868
0.385236
0.425458
0.457286
0.414144
0.385501
0.574042
0.283369
0.406006
0.763532
0.660678
0.459547
0.394515
0.424346
0.469936
0.397755
0.432455
0.372142
0.419414
0.387896
0.390654
0.475958
0.388074
0.402664
0.403918
0.386246
0.400562
0.38412
0.40001
0.44366
0.400645
0.434005
0.29128
0.49703
0.420261
0.576642
0.683508
0.403092
0.402136
0.397143
0.398227
0.442469
0.55094
0.564093
0.594306
0.402644
0.574203
0.463827
0.61903
0.427443
0.485773
0.492695
0.436888
0.424047
0.496443
0.481135
0.752305
0.601669
0.678231
0.428897
0.381635
0.520207
0.485112
0.379699
0.564708
0.495377
0.388705
0.302982
0.375379
0.392017
0.302055
0.402295
0.747344
0.693938
0.415017
0.444367
0.300784
0.506479
0.846485
0.547202
0.497763
0.490119
0.390995
0.437842
0.500319
0.412254
0.600385
0.577611
0.432316
0.299933
0.527622
0.407015
0.358264
0.512504
0.403035
0.319683
0.525187
0.384957
0.756723
0.388727
0.381732
0.390396
0.383776
0.405739
0.395977
0.400943
0.402783
0.396238
0.385494
0.395045
0.454199
0.428765
0.383907
0.405498
0.379687
0.384629
0.392567
0.446986
0.385068
0.390761
0.426447
0.390483
0.376255
0.597499
0.590039
0.410316
0.508117
0.397804
0.458459
0.464368
0.448618
0.774428
0.453294
0.560378
0.37819
0.392651
0.571004
0.490822
0.388604
0.455022
0.385445
0.388392
0.404964
0.397745
0.412453
0.696151
0.4193
0.650239
0.405557
0.41828
0.391327
0.782279
0.625758
0.552197
0.461697
0.326405
0.620205
0.629965
0.446933
0.617305
0.566197
0.477711
0.376503
0.579405
0.435408
0.642674
0.408845
0.411885
0.339175
0.405413
0.523959
0.668074
0.55729
0.455621
0.51277
0.603374
0.474021
0.400452
0.437563
0.394595
0.430016
0.601359
0.506888
0.411049
0.473221
0.572477
0.508895
0.58269
0.779431
0.563725
0.622655
0.350159
0.48424
0.411338
0.562355
0.76192
0.435326
0.59437
0.709376
0.590658
0.374335
0.73129
0.632032
0.637191
0.473693
0.707819
0.461561
0.416118
0.486225
0.432932
0.514626
0.467082
0.480112
0.497624
0.394966
0.510523
0.544127
0.416489
0.522451
0.468259
0.517073
0.53235
0.568564
0.492721
0.266176
0.584349
0.298606
0.28922
0.291666
0.391018
0.399734
0.373475
0.379302
0.419596
0.299487
0.445063
0.484868
0.446484
0.493666
0.489217
0.401133
0.394743
0.401607
0.493392
0.517853
0.400913
0.409536
0.378598
0.465541
0.379353
0.373336
0.451809
0.401346
0.398007
0.396629
0.397332
0.411222
0.415453
0.397807
0.60572
0.42682
0.518581
0.404036
0.602536
0.546949
0.601699
0.54947
0.622756
0.565258
0.488396
0.37642
0.408347
0.490997
0.385784
0.492135
0.448762
0.541864
0.648865
0.509516
0.702311
0.379429
0.379096
0.389875
0.385916
0.425004
0.397005
0.478282
0.386013
0.43516
0.450317
0.435815
0.462768
0.722838
0.694767
0.497634
0.771766
0.670016
0.597683
0.601446
0.744765
0.636431
0.582235
0.726734
0.391402
0.428463
0.429542
0.470805
0.415501
0.532384
0.564094
0.574686
0.577809
0.458334
0.438514
0.474157
0.500603
0.487466
0.386473
0.382456
0.377134
0.404692
0.467583
0.371294
0.386031
0.378716
0.440303
0.390293
0.384745
0.378777
0.386202
0.493112
0.550993
0.489324
0.381999
0.480794
0.393463
0.609335
0.421283
0.402781
0.425967
0.371455
0.631267
0.428615
0.560248
0.377165
0.476773
0.635271
0.567222
0.384055
0.431888
0.443344
0.408542
0.448613
0.31654
0.553503
0.550219
0.503202
0.407964
0.461743
0.507294
0.417268
0.777911
0.391936
0.397602
0.388628
0.436236
0.480455
0.479096
0.608094
0.602315
0.419452
0.529575
0.439575
0.50989
0.532413
0.408732
0.428924
0.483433
0.489143
0.582797
0.521254
0.77571
0.39706
0.395224
0.739259
0.406192
0.394506
0.421642
0.458819
0.466719
0.597347
0.698475
0.508889
0.638269
0.539282
0.39345
0.3987
0.406108
0.410026
0.408719
0.421703
0.407375
0.733688
0.728252
0.408536
0.472736
0.4543
0.387095
0.436701
0.439191
0.408815
0.399647
0.388984
0.597308
0.418325
0.606255
0.396211
0.389063
0.377307
0.384553
0.598157
0.635445
0.560279
0.594441
0.652757
0.543553
0.463663
0.448208
0.526068
0.500434
0.416016
0.507191
0.479022
0.433657
0.392164
0.403949
0.49836
0.513087
0.40097
0.589308
0.43229
0.669341
0.387642
0.446875
0.576142
0.592466
0.455182
0.492736
0.562512
0.383764
0.397188
0.455743
0.451818
0.673739
0.48008
0.39494
0.685949
0.614046
0.515446
0.657335
0.590481
0.563024
0.394725
0.385781
0.562051
0.407499
0.386179
0.382107
0.444036
0.423191
0.475798
0.401601
0.411272
0.529455
0.470903
0.685563
0.386375
0.495347
0.393456
0.42243
0.525527
0.407293
0.382466
0.508316
0.396191
0.487639
0.493327
0.815209
0.590605
0.49849
0.365551
0.415045
0.465545
0.590776
0.399031
0.678637
0.517647
0.459033
0.491782
0.455001
0.593982
0.419657
0.396969
0.556289
0.488356
0.605021
0.616025
0.641238
0.665022
0.567794
0.399844
0.372688
0.434066
0.409286
0.429935
0.442878
0.485655
0.373451
0.409227
0.433083
0.399019
0.413407
0.389193
0.43972
0.443138
0.656735
0.413355
0.408753
0.462143
0.442531
0.513969
0.429687
0.663571
0.439111
0.584778
0.645692
0.456501
0.413137
0.709909
0.40374
0.413306
0.508419
0.512288
0.431865
0.577054
0.473507
0.632374
0.507758
0.320203
0.403652
0.575462
0.498888
0.741402
0.422675
0.413672
0.395369
0.385722
0.488461
0.687776
0.565216
0.41079
0.444376
0.463619
0.431271
0.442314
0.589292
0.43545
0.653135
0.436652
0.43911
0.470625
0.57571
0.406375
0.488323
0.453144
0.544005
0.908538
0.574862
0.391224
0.632028
0.709371
0.779323
0.273989
0.761635
0.406538
0.426195
0.523854
0.409043
0.393241
0.398701
0.486516
0.3874
0.727018
0.61018
0.40633
0.28787
0.724917
0.564163
0.646938
0.299072
0.374871
0.608137
0.423515
0.39111
0.452659
0.510282
0.504639
0.500087
0.448775
0.406799
0.580341
0.571445
0.411161
0.459998
0.374714
0.383636
0.456153
0.403977
0.468534
0.455201
0.567794
0.606122
0.381157
0.577613
0.557372
0.382515
0.595668
0.407656
0.379174
0.369974
0.432882
0.490892
0.417084
0.39529
0.729366
0.431006
0.387709
0.458139
0.450224
0.397917
0.620677
0.519866
0.486341
0.578658
0.55262
0.48794
0.407545
0.416239
0.397208
0.380115
0.406833
0.64273
0.548684
0.586833
0.386456
0.405174
0.381396
0.38599
0.390802
0.420832
0.404495
0.394216
0.414817
0.388886
0.480348
0.625361
0.53795
0.38526
0.373849
0.398191
0.383072
0.564164
0.40913
0.524282
0.454916
0.553111
0.29515
0.574053
0.388892
0.592891
0.488271
0.379236
0.395345
0.661186
0.375755
0.390489
0.486866
0.445534
0.515449
0.377613
0.415958
0.449468
0.461818
0.438168
0.319933
0.501475
0.423235
0.41888
0.42009
0.444659
0.386967
0.418305
0.393741
0.438873
0.503953
0.57555
0.454879
0.499702
0.390072
0.372741
0.471153
0.427616
0.415822
0.441284
0.487287
0.507605
0.382807
0.391756
0.378419
0.481234
0.531294
0.501566
0.516543
0.463643
0.477236
0.481565
0.565702
0.615932
0.379421
0.378504
0.414978
0.380623
0.389912
0.396549
0.388314
0.37343
0.415945
0.417905
0.386833
0.28883
0.562015
0.392478
0.409274
0.40195
0.473834
0.306809
0.465639
0.382578
0.397064
0.393654
0.498478
0.528771
0.509558
0.412602
0.392343
0.411846
0.567632
0.7215
0.381854
0.627797
0.610278
0.373125
0.570533
0.570397
0.403496
0.481452
0.392366
0.45774
0.381805
0.37677
0.392339
0.608583
0.66308
0.393203
0.560541
0.683562
0.461418
0.394534
0.380796
0.471587
0.382407
0.463975
0.392498
0.303576
0.408003
0.518757
0.393047
0.414368
0.403289
0.605351
0.387713
0.476884
0.57068
0.409259
0.409836
0.650644
0.711419
0.305883
0.457343
0.560035
0.419373
0.419889
0.562529
0.493528
0.460609
0.387721
0.405338
0.563201
0.537714
0.440368
0.475452
0.519311
0.379358
0.377371
0.380329
0.40079
0.387822
0.401963
0.401587
0.397018
0.397153
0.376297
0.387981
0.406885
0.557153
0.403072
0.416903
0.573088
0.449627
0.405083
0.391184
0.379045
0.38481
0.391761
0.377587
0.336731
0.58871
0.473451
0.909174
0.450892
0.391181
0.403676
0.399381
0.382609
0.313201
0.296743
0.426547
0.245327
0.64717
0.625139
0.548707
0.478072
0.642904
0.393856
0.384595
0.385576
0.397962
0.389413
0.503297
0.401515
0.367166
0.384609
0.50009
0.404338
0.397429
0.378998
0.387202
0.38797
0.389787
0.378072
0.388597
0.378997
0.398238
0.388471
0.485137
0.403213
0.399529
0.348485
0.743739
0.401032
0.282554
0.580162
0.31641
0.47678
0.671444
0.278892
0.275593
0.418027
0.577816
0.418416
0.4218
0.423084
0.433125
0.584479
0.376038
0.719258
0.538983
0.50768
0.594903
0.549107
0.365059
0.400328
0.380187
0.371486
0.48847
0.498387
0.601104
0.576729
0.615465
0.660995
0.419597
0.510815
0.623237
0.396807
0.393287
0.436839
0.648168
0.403482
0.604741
0.398414
0.380706
0.56163
0.48618
0.435123
0.431635
0.435605
0.371929
0.45138
0.50663
0.606745
0.534443
0.483124
0.358821
0.313638
0.520989
0.457591
0.596975
0.40071
0.376247
0.389666
0.413746
0.376589
0.598076
0.499179
0.363283
0.575569
0.268173
0.706641
0.460527
0.559714
0.577733
0.539202
0.406513
0.456658
0.476554
0.559803
0.493858
0.390855
0.450138
0.395784
0.396044
0.598514
0.604444
0.60006
0.39738
0.456045
0.564264
0.638871
0.445902
0.482296
0.568951
0.74736
0.582068
0.376028
0.690132
0.436758
0.650898
0.604478
0.640921
0.587747
0.413395
0.435838
0.642361
0.394779
0.517836
0.553423
0.377929
0.578885
0.541925
0.547278
0.669886
0.384073
0.541352
0.390737
0.442687
0.511666
0.637723
0.48989
0.546035
0.397417
0.469791
0.37919
0.402909
0.634094
0.325436
0.507348
0.486236
0.469689
0.63196
0.377734
0.389505
0.408671
0.464574
0.378153
0.384909
0.371475
0.405879
0.37957
0.359053
0.579992
0.701685
0.385877
0.411339
0.297954
0.613128
0.431645
0.629386
0.401911
0.415931
0.607178
0.388816
0.384714
0.388236
0.39399
0.467299
0.662599
0.394673
0.374484
0.571613
0.488592
0.441437
0.433387
0.417162
0.404181
0.419505
0.426647
0.446458
0.417831
0.394558
0.440468
0.416198
0.404809
0.60328
0.760292
0.682726
0.411269
0.426134
0.413133
0.415285
0.471094
0.416659
0.460072
0.583509
0.447183
0.426009
0.398209
0.403116
0.405162
0.421075
0.417003
0.424325
0.553147
0.612906
0.41727
0.503973
0.419212
0.412838
0.583343
0.560115
0.596263
0.65141
0.549615
0.478181
0.516771
0.411352
0.419946
0.390626
0.386852
0.411289
0.397109
0.43916
0.465846
0.487305
0.414865
0.60945
0.537773
0.556807
0.433672
0.397436
0.465464
0.311856
0.705724
0.518179
0.326494
0.488523
0.593188
0.440476
0.451368
0.431557
0.261558
0.463666
0.667815
0.44149
0.427858
0.562005
0.367693
0.398963
0.388636
0.421304
0.460407
0.487778
0.50438
0.693961
0.528079
0.419331
0.632134
0.443627
0.416582
0.538227
0.431409
0.521146
0.407603
0.386664
0.599991
0.669455
0.426001
0.6568
0.406193
0.450957
0.612481
0.487862
0.747696
0.415065
0.537947
0.512235
0.399709
0.504498
0.620032
0.647706
0.344686
0.466624
0.490781
0.45627
0.485986
0.448901
0.411477
0.391209
0.608024
0.511633
0.571649
0.482814
0.487748
0.700027
0.395758
0.38537
0.390609
0.384525
0.640576
0.587838
0.560885
0.711139
0.363189
0.373834
0.388789
0.4147
0.29985
0.444355
0.54832
0.500369
0.590084
0.395137
0.493277
0.675893
0.456718
0.405201
0.407507
0.431057
0.437564
0.393023
0.40292
0.489529
0.375604
0.518435
0.575131
0.410103
0.438605
0.580394
0.475693
0.397135
0.414244
0.433202
0.378519
0.413974
0.385996
0.39703
0.672523
0.407651
0.475717
0.516038
0.610488
0.394414
0.396946
0.405068
0.387148
0.393553
0.427035
0.362109
0.381236
0.535597
0.437507
0.432914
0.398851
0.408277
0.4114
0.390715
0.508385
0.409134
0.54776
0.494623
0.504334
0.404485
0.400281
0.395544
0.265238
0.411801
0.399713
0.386323
0.412051
0.414341
0.416119
0.391039
0.391684
0.420663
0.386387
0.478079
0.393642
0.415571
0.501502
0.430004
0.40275
0.393284
0.446738
0.399042
0.36701
0.486438
0.607046
0.389728
0.558194
0.558835
0.401386
0.405869
0.402335
0.412443
0.38146
0.475789
0.54838
0.475358
0.482297
0.443962
0.468935
0.585696
0.276125
0.291088
0.362079
0.311197
0.2949
0.502893
0.529616
0.488652
0.479524
0.565914
0.44262
0.384251
0.392719
0.38646
0.512549
0.396928
0.543817
0.552548
0.468598
0.492003
0.461975
0.521318
0.495796
0.518573
0.551778
0.382746
0.391634
0.406973
0.447576
0.605716
0.412268
0.393129
0.40665
0.391965
0.585137
0.598426
0.675665
0.599472
0.504144
0.556189
0.615157
0.511543
0.630891
0.518886
0.301697
0.375458
0.400747
0.412372
0.413542
0.45552
0.402608
0.357343
0.595883
0.529217
0.385147
0.495025
0.562161
0.404135
0.419121
0.400445
0.712761
0.427527
0.403511
0.399651
0.533652
0.429492
0.613513
0.524103
0.453597
0.509163
0.346111
0.504452
0.376828
0.562367
0.529246
0.575463
0.461189
0.429636
0.431773
0.618301
0.436438
0.384484
0.526016
0.399599
0.419898
0.430533
0.577875
0.573377
0.464247
0.433671
0.478039
0.629569
0.485893
0.455201
0.383905
0.404551
0.481166
0.559263
0.43984
0.489869
0.535596
0.387214
0.382796
0.468934
0.388367
0.384791
0.543907
0.813297
0.69731
0.39991
0.445576
0.589055
0.569888
0.517127
0.449321
0.44218
0.453738
0.385063
0.384935
0.391015
0.38367
0.424306
0.478592
0.425745
0.3939
0.402015
0.505877
0.447911
0.444762
0.459214
0.397026
0.474339
0.545789
0.480692
0.452134
0.478156
0.511778
0.42924
0.40418
0.380869
0.38626
0.379172
0.560467
0.408643
0.42608
0.300602
0.267259
0.491587
0.530704
0.471977
0.541257
0.566369
0.475972
0.428379
0.399176
0.704147
0.716435
0.422973
0.731413
0.726133
0.669183
0.826739
0.384973
0.393373
0.591767
0.666514
0.42608
0.523875
0.573461
0.47095
0.387918
0.419042
0.400268
0.424376
0.374427
0.40304
0.507576
0.519839
0.702202
0.545773
0.637227
0.428335
0.582474
0.466994
0.491496
0.554644
0.553013
0.430213
0.379196
0.419573
0.424939
0.423176
0.413798
0.474226
0.528445
0.520386
0.431815
0.521404
0.547264
0.581856
0.343854
0.434798
0.404265
0.544614
0.507016
0.453507
0.522045
0.491663
0.42583
0.448426
0.425704
0.68257
0.415309
0.518785
0.511659
0.625434
0.59551
0.360128
0.412386
0.40948
0.404998
0.658432
0.290774
0.570262
0.393627
0.680297
0.304209
0.604227
0.583967
0.672276
0.612317
0.543128
0.583291
0.579927
0.529695
0.587726
0.575974
0.445484
0.397775
0.387102
0.415604
0.389949
0.389505
0.459415
0.414775
0.492001
0.401153
0.517287
0.438077
0.430232
0.4282
0.413879
0.487581
0.428151
0.481436
0.422158
0.411323
0.398466
0.4062
0.46906
0.543198
0.580166
0.46426
0.45718
0.461336
0.549501
0.534193
0.491589
0.605425
0.589459
0.546447
0.506221
0.406262
0.397194
0.37676
0.409657
0.458487
0.529724
0.461623
0.432259
0.422323
0.383532
0.493317
0.436726
0.494407
0.477668
0.482958
0.629695
0.39397
0.406514
0.774733
0.470448
0.455651
0.590735
0.471279
0.811343
0.528007
0.489911
0.662331
0.563027
0.457793
0.45334
0.580748
0.430766
0.611454
0.392453
0.54438
0.446936
0.499148
0.396789
0.447171
0.543593
0.388525
0.444298
0.477757
0.598981
0.556475
0.499724
0.406512
0.589167
0.485213
0.511747
0.57166
0.43748
0.550517
0.52263
0.389592
0.402866
0.437959
0.385535
0.383939
0.417002
0.408017
0.538983
0.400664
0.386591
0.584415
0.418235
0.461231
0.418373
0.398008
0.49601
0.385473
0.383353
0.473635
0.580577
0.612657
0.414456
0.414886
0.40732
0.441714
0.599179
0.486208
0.464997
0.411135
0.389345
0.394866
0.444045
0.516623
0.409548
0.414898
0.419144
0.552249
0.416839
0.437626
0.42258
0.65328
0.673052
0.411292
0.578367
0.426202
0.393721
0.640156
0.729996
0.463829
0.474233
0.626015
0.48491
0.457675
0.477412
0.300876
0.401573
0.407717
0.404416
0.405048
0.600846
0.541289
0.583878
0.464772
0.428619
0.385039
0.393577
0.395277
0.401237
0.403299
0.390402
0.37256
0.4096
0.42592
0.390796
0.485745
0.420621
0.717271
0.646611
0.41013
0.497688
0.46224
0.411685
0.718623
0.50177
0.65841
0.505236
0.557323
0.399507
0.620663
0.553015
0.376488
0.376603
0.395854
0.655001
0.473356
0.571434
0.443169
0.373759
0.463507
0.396307
0.473827
0.313184
0.530596
0.446604
0.479083
0.543157
0.480362
0.447972
0.471207
0.437165
0.728765
0.43472
0.497961
0.409356
0.453954
0.434422
0.434421
0.387989
0.388193
0.42699
0.439461
0.379214
0.455209
0.418738
0.605128
0.438003
0.467217
0.557853
0.438815
0.477128
0.478034
0.753685
0.453754
0.390641
0.399147
0.41904
0.432681
0.402102
0.388539
0.505675
0.482752
0.391276
0.396054
0.641825
0.348494
0.478308
0.698888
0.569621
0.730113
0.421014
0.54814
0.653598
0.37758
0.393944
0.429868
0.502901
0.32786
0.405429
0.486074
0.40977
0.454201
0.40546
0.56621
0.686608
0.434456
0.436658
0.387706
0.420959
0.45741
0.429261
0.404209
0.420619
0.386194
0.453585
0.410722
0.380081
0.525785
0.428326
0.338805
0.619471
0.448946
0.4157
0.352305
0.408794
0.467032
0.318948
0.433613
0.482582
0.38394
0.38663
0.413483
0.388372
0.588983
0.399986
0.612107
0.563813
0.406188
0.430022
0.4597
0.451393
0.387123
0.458134
0.443857
0.447373
0.479987
0.380984
0.37714
0.390775
0.373673
0.397483
0.489176
0.443498
0.384553
0.396642
0.40538
0.575133
0.382958
0.476983
0.603685
0.447142
0.433614
0.579407
0.43762
0.4564
0.51392
0.482945
0.38722
0.389095
0.448788
0.489972
0.405682
0.436169
0.473439
0.401959
0.397999
0.646924
0.472091
0.530576
0.437284
0.464306
0.531527
0.287625
0.47462
0.276179
0.376529
0.294801
0.397888
0.490002
0.76084
0.52199
0.397844
0.409052
0.447275
0.435773
0.392304
0.676572
0.448386
0.485967
0.411788
0.607814
0.68306
0.582492
0.278592
0.414879
0.436552
0.462586
0.527667
0.399446
0.552485
0.494024
0.600127
0.429474
0.401487
0.407422
0.387863
0.473623
0.389683
0.380068
0.400648
0.456038
0.498996
0.457036
0.64294
0.677414
0.598113
0.599291
0.53198
0.370378
0.432192
0.439333
0.600113
0.337483
0.364402
0.527157
0.392076
0.46932
0.427315
0.527216
0.383782
0.307723
0.382322
0.338587
0.382011
0.387038
0.3867
0.478149
0.609445
0.713822
0.313708
0.432718
0.28478
0.565049
0.621857
0.580015
0.342563
0.526833
0.362462
0.355094
0.485419
0.387105
0.26426
0.450904
0.466007
0.340091
0.405899
0.415551
0.393193
0.390183
0.380804
0.393043
0.392609
0.428252
0.450185
0.448435
0.374679
0.478407
0.569838
0.425291
0.52771
0.569455
0.457822
0.470952
0.387743
0.447761
0.38543
0.390737
0.406824
0.484473
0.376527
0.642575
0.521742
0.564206
0.641806
0.704857
0.398534
0.446348
0.428573
0.377884
0.376044
0.531508
0.494815
0.42733
0.366271
0.282458
0.36733
0.468544
0.31437
0.31055
0.573471
0.47527
0.59596
0.274511
0.493953
0.547496
0.588583
0.425228
0.644145
0.598078
0.48645
0.422142
0.275096
0.772605
0.54422
0.397569
0.370037
0.400794
0.398555
0.397619
0.394525
0.585521
0.536205
0.581753
0.789973
0.723807
0.577622
0.574862
0.628046
0.472343
0.4762
0.41059
0.484818
0.291233
0.363776
0.388005
0.384615
0.380058
0.390031
0.391762
0.39087
0.491209
0.715003
0.842676
0.404768
0.73589
0.358124
0.246327
0.646128
0.753433
0.532258
0.548912
0.606496
0.655035
0.64298
0.743786
0.581708
0.384273
0.762797
0.561453
0.411992
0.600799
0.587124
0.613652
0.392688
0.394321
0.392294
0.396445
0.410019
0.416464
0.400698
0.40343
0.389382
0.382388
0.420623
0.408873
0.391281
0.387692
0.53718
0.385903
0.386088
0.394968
0.60402
0.3842
0.3884
0.408149
0.411573
0.405495
0.392416
0.44217
0.413694
0.394266
0.6117
0.387721
0.409565
0.434679
0.400493
0.405955
0.380874
0.389513
0.381486
0.570733
0.76913
0.684389
0.396603
0.762205
0.720688
0.616319
0.395773
0.389021
0.643974
0.516394
0.5993
0.466702
0.566275
0.393143
0.399217
0.388177
0.38852
0.394157
0.658003
0.590735
0.705907
0.364908
0.5577
0.467616
0.411448
0.496762
0.445668
0.563195
0.428232
0.491025
0.605993
0.474358
0.492012
0.591621
0.598541
0.603693
0.527162
0.527029
0.493795
0.384849
0.425499
0.386914
0.691617
0.559073
0.466664
0.386235
0.385286
0.399664
0.487465
0.596376
0.455401
0.492876
0.39848
0.405455
0.395309
0.424106
0.731523
0.56154
0.519291
0.397522
0.499168
0.410901
0.525901
0.479832
0.583132
0.546874
0.615585
0.478826
0.387747
0.383259
0.394802
0.387283
0.539966
0.753698
0.805681
0.780029
0.72976
0.57717
0.483287
0.457836
0.450084
0.434815
0.457219
0.501236
0.498339
0.424394
0.503927
0.382525
0.573598
0.589136
0.396463
0.488488
0.454949
0.506416
0.517226
0.486393
0.386958
0.402684
0.403979
0.387151
0.376632
0.513056
0.396514
0.391191
0.390604
0.39727
0.410663
0.447335
0.382354
0.387199
0.394495
0.385735
0.388757
0.405321
0.397584
0.684208
0.655039
0.45794
0.434717
0.575806
0.430252
0.393115
0.394024
0.56333
0.552934
0.565675
0.462269
0.474158
0.406546
0.400545
0.421589
0.39559
0.442729
0.43997
0.40523
0.726742
0.417023
0.572385
0.3667
0.416295
0.440879
0.447443
0.425094
0.369228
0.531828
0.421093
0.394894
0.40037
0.399208
0.587123
0.410766
0.404981
0.542875
0.42762
0.561582
0.386552
0.39894
0.418802
0.62845
0.4987
0.529616
0.485008
0.404749
0.468759
0.507643
0.41493
0.399162
0.40149
0.461298
0.386127
0.411797
0.455221
0.402085
0.475286
0.396534
0.390554
0.371488
0.385185
0.580035
0.627444
0.726967
0.567953
0.398644
0.451097
0.494798
0.397933
0.7446
0.70998
0.607219
0.493278
0.688782
0.417885
0.410794
0.405026
0.430943
0.39929
0.435529
0.405099
0.571963
0.409138
0.39755
0.642416
0.454027
0.517344
0.397303
0.579758
0.386321
0.416417
0.656115
0.411516
0.375334
0.463057
0.391523
0.419229
0.315695
0.361563
0.268516
0.392858
0.474884
0.447468
0.413903
0.425428
0.447562
0.494889
0.426967
0.459966
0.405449
0.403215
0.483531
0.417301
0.537571
0.422755
0.658238
0.564123
0.714883
0.56215
0.403174
0.389995
0.413056
0.38709
0.491262
0.701672
0.557923
0.642032
0.500167
0.408705
0.661686
0.316583
0.490976
0.540536
0.471992
0.470128
0.464645
0.556555
0.403319
0.414243
0.456176
0.471697
0.480261
0.526016
0.581395
0.413411
0.668725
0.481752
0.57224
0.455018
0.284282
0.401014
0.394592
0.416086
0.596184
0.405403
0.494474
0.472444
0.465579
0.408117
0.429853
0.423461
0.467557
0.430341
0.454122
0.556988
0.456294
0.411378
0.438746
0.394372
0.423557
0.419115
0.409649
0.478296
0.584817
0.4403
0.435298
0.477967
0.389557
0.432388
0.680182
0.526565
0.393245
0.414448
0.448686
0.41737
0.522887
0.574674
0.545148
0.421384
0.567021
0.652075
0.466783
0.577567
0.46474
0.422649
0.328997
0.447144
0.519256
0.550078
0.520129
0.390101
0.376008
0.375103
0.411677
0.394847
0.381989
0.392346
0.548972
0.455817
0.583236
0.470406
0.404964
0.401602
0.392463
0.399919
0.436857
0.319904
0.432457
0.387358
0.387369
0.386491
0.393714
0.387261
0.375447
0.370338
0.38851
0.385789
0.370195
0.38583
0.375514
0.396185
0.392393
0.472187
0.473007
0.389889
0.389097
0.386335
0.445467
0.377903
0.46882
0.388644
0.489744
0.381026
0.571941
0.49045
0.41407
0.401769
0.530367
0.706705
0.735527
0.632585
0.645407
0.622494
0.447431
0.496296
0.601017
0.430124
0.392997
0.499445
0.333615
0.501456
0.493604
0.358183
0.633894
0.545022
0.710715
0.528449
0.645681
0.434238
0.301453
0.726553
0.479481
0.666509
0.471229
0.539191
0.390936
0.421966
0.376032
0.327943
0.830573
0.601308
0.383616
0.378708
0.543881
0.469813
0.671197
0.485978
0.638351
0.387199
0.386337
0.47126
0.404646
0.420548
0.525384
0.657404
0.404228
0.431339
0.499935
0.537388
0.399622
0.398305
0.402652
0.482279
0.454874
0.554977
0.503853
0.502557
0.343924
0.444884
0.303696
0.545972
0.490018
0.609415
0.501994
0.368765
0.516754
0.512558
0.478325
0.336428
0.343009
0.511517
0.417996
0.424841
0.442405
0.429567
0.713239
0.361238
0.416593
0.626969
0.685992
0.405275
0.397079
0.405979
0.387587
0.39111
0.398625
0.394151
0.386227
0.391538
0.383851
0.385511
0.649935
0.384779
0.487488
0.396674
0.394899
0.475885
0.433801
0.44425
0.535684
0.483354
0.474799
0.497934
0.405533
0.422674
0.468548
0.407906
0.435664
0.441525
0.459399
0.532028
0.414229
0.597299
0.576499
0.486278
0.395676
0.296082
0.453357
0.415935
0.540224
0.539237
0.707578
0.604884
0.387693
0.472359
0.586304
0.445829
0.654744
0.49009
0.298962
0.670708
0.373019
0.550066
0.474097
0.428601
0.382624
0.364431
0.393653
0.322346
0.382084
0.535014
0.353547
0.408922
0.396329
0.506645
0.489174
0.495556
0.581411
0.394171
0.485092
0.650234
0.586918
0.399747
0.578318
0.642356
0.382845
0.42265
0.400024
0.5832
0.404527
0.3815
0.38895
0.388068
0.389724
0.391665
0.381707
0.384874
0.434396
0.40878
0.63581
0.483081
0.477646
0.490795
0.469759
0.504186
0.411089
0.412223
0.392852
0.407179
0.452572
0.391386
0.395459
0.397011
0.403163
0.392767
0.381142
0.37454
0.797512
0.605732
0.665726
0.375811
0.545305
0.397871
0.427951
0.436232
0.452754
0.415803
0.415945
0.398199
0.466111
0.576962
0.577635
0.625423
0.520417
0.608235
0.618157
0.403046
0.594152
0.432328
0.38098
0.377017
0.408897
0.394628
0.418086
0.395744
0.395454
0.404179
0.429839
0.377222
0.392721
0.420418
0.374511
0.384126
0.562438
0.563777
0.467399
0.349428
0.552868
0.396142
0.425816
0.425295
0.472454
0.624637
0.648467
0.435481
0.365847
0.453691
0.481436
0.610653
0.55287
0.394992
0.399879
0.424099
0.376273
0.392482
0.519828
0.560216
1.52734
0.752917
0.453462
0.465694
0.511721
0.470428
0.499514
0.517605
0.468619
0.785259
0.837448
0.791235
0.639162
0.675357
0.833431
0.847637
0.857526
0.564614
0.849791
0.728686
0.474913
0.432433
0.664306
0.301936
0.435202
0.433131
0.404784
0.469145
0.512446
0.335967
0.418531
0.584685
0.789783
1.21885
0.357525
0.356614
0.268415
0.279808
0.300455
0.612139
0.533061
0.477949
0.431756
0.433176
0.424619
0.564951
0.321669
0.619563
1.15628
0.445758
0.538033
0.53173
0.527495
0.256497
0.487528
0.450657
0.388768
0.554055
0.523176
0.37621
0.386335
0.394608
0.405017
0.430874
0.420875
0.332274
0.392665
0.414417
0.480312
0.346896
0.281706
0.273012
0.711524
0.433986
0.729833
0.471702
0.438426
0.436032
0.423586
0.56362
0.637984
0.453168
0.474901
0.385111
0.454161
0.319017
0.284763
0.365692
0.370159
0.552342
0.532619
0.616235
0.600234
0.376535
0.39072
0.404621
0.389093
0.401433
0.573584
0.550058
0.60909
0.545365
0.407037
0.425806
0.399286
0.396787
0.467775
0.389223
0.406892
0.413709
0.45393
0.510988
0.450701
0.531709
0.483919
0.588516
0.396241
0.401805
0.420481
0.386527
0.422324
0.401236
0.384058
0.383055
0.384011
0.584734
0.639844
0.672021
0.595009
0.615353
0.390666
0.612641
0.455867
0.431574
0.414539
0.58628
0.439106
0.479082
0.500753
0.644749
0.430322
0.479173
0.40057
0.562827
0.319073
0.412862
0.704701
0.456064
0.383362
0.377952
0.424343
0.38244
0.494613
0.428294
0.524959
0.348201
0.38861
0.441727
0.410137
0.415055
0.414347
0.430342
0.658702
0.437607
0.397354
0.397618
0.392647
0.600103
0.44327
0.452869
0.510169
0.618155
0.47217
0.583976
0.418721
0.748332
0.401828
0.639705
0.611581
0.71339
0.702245
0.649024
0.420891
0.693905
0.527142
0.465394
0.405056
0.405441
0.512318
0.521407
0.417919