/*--------------------------------*- C++ -*----------------------------------*\
| =========                 |                                                 |
| \\      /  F ield         | OpenFOAM: The Open Source CFD Toolbox           |
|  \\    /   O peration     | Version:  2506                                  |
|   \\  /    A nd           | Website:  www.openfoam.com                      |
|    \\/     M anipulation  |                                                 |
\*---------------------------------------------------------------------------*/
FoamFile
{
    version     2.0;
    format      ascii;
    arch        "LSB;label=32;scalar=64";
    class       volScalarField;
    location    "0.0100321";
    object      omega;
}
// * * * * * * * * * * * * * * * * * * * * * * * * * * * * * * * * * * * * * //

dimensions      [0 0 -1 0 0 0 0];

internalField   nonuniform List<scalar> 
3918
(
228.715
52.4591
135.519
60.2516
57.7008
652.227
860.102
64.1354
51.9573
82.9523
95.0325
355.985
82.4665
102.923
61.8949
192.624
304.459
257.923
379.211
59.3217
303.914
63.5302
265.774
258.18
122.014
315.025
68.4275
63.6732
378.402
131.747
236.88
84.0098
228.894
79.9314
172.533
231.242
63.374
65.2781
240.445
122.79
108.42
160.163
110.839
124.86
90.9432
133.285
58.4931
200.009
112.075
72.6641
148.88
389.211
98.6333
98.7694
141.039
154.793
81.3312
110.621
78.4226
72.4786
66.7589
204.374
89.0544
198.4
323.461
71.1283
130.247
160.198
252.956
113.268
96.8885
574.186
460.106
564.605
282.763
273.959
217.257
136.267
151.372
69.6225
108.701
787.019
146.734
121.515
75.1283
152.467
379.696
274.333
961.545
68.1005
134.51
56.408
413.017
74.8028
90.521
114.072
166.209
84.3657
320.846
354.958
69.7415
63.0922
113.269
64.9505
64.5629
235.985
93.9186
157.684
54.4078
175.199
246.744
116.232
655.406
268.552
110.379
232.982
349.299
139.159
443.921
490.258
69.434
358.374
78.7787
340.739
116.112
660.267
56.9942
125.276
141.823
83.5283
69.0981
228.526
342.327
61.447
457.673
378.331
417.603
279.379
394.31
186.195
196.75
265.861
183.677
352.682
355.254
295.563
518.007
223.972
682.642
122.436
63.3684
295.444
56.5371
550.89
114.308
172.435
892.073
573.696
56.1218
61.148
59.5412
398.834
259.984
218.826
444.068
136.789
399.855
378.587
379.231
195.626
131.629
244.49
413.419
384.504
214.15
131.593
208.063
91.2781
418.991
107.441
69.3191
106.876
297.546
99.9536
88.2157
139.962
169.354
138.295
160.837
90.7778
69.2859
389.42
188.782
230.385
96.0663
165.527
93.9783
202.325
446.433
65.4438
773.442
168.804
363.601
98.5049
394.053
215.28
358.316
420.613
176.062
63.5867
169.907
440.709
71.7849
537.749
73.8049
579.783
306.734
180.062
276.813
239.578
626.499
362.459
318.845
67.4816
165.564
373.891
97.3364
245.232
623.548
206.734
469.201
115.461
186.85
90.3154
62.8095
493.225
526.73
67.426
104.23
69.7869
264.914
523.761
287.843
94.6883
62.7683
70.5844
62.129
93.8197
225.019
66.012
86.1684
324.181
58.8674
81.7467
144.962
88.6082
337.196
96.4862
496.716
176.602
400.143
58.3845
442.821
102.72
581.619
74.2283
299.684
93.7773
190.581
84.1163
52.9076
105.992
58.5485
120.694
82.4621
82.4664
288.981
371.941
731.999
64.222
139.558
428.992
151.618
63.1669
72.1797
266.482
58.3829
834.132
66.2103
73.6435
656.439
93.4337
486.002
58.4715
187.114
126.128
858.651
527.785
351.387
68.0947
102.3
81.9607
69.1042
222.935
430.102
257.955
296.816
99.2012
135.373
188.942
171.605
598.08
248.177
232.386
186.457
551.789
59.9285
79.6806
350.43
712.664
113.99
389.681
158.278
122.644
54.909
488.357
56.3447
160.124
135.831
54.0535
131.278
134.613
79.0969
191.417
132.704
117.435
303.34
62.0175
529.389
75.6011
144.84
373.359
337.597
82.3668
112.218
295.829
469.999
198.871
101.387
170.425
425.703
438.528
301.154
64.0558
52.3804
108.952
119.953
337.676
163.011
69.2765
74.0158
496.114
244.618
287.892
139.592
373.163
166.007
74.6375
121.606
289.612
102.689
133.588
360.13
379.391
224.311
249.161
391.488
106.668
171.589
73.8103
65.4349
241.863
113.676
81.625
156.364
121.306
193.858
339.097
138.453
298.174
102.532
113.312
65.1296
408.109
62.7738
518.819
510.27
66.8932
411.867
337.882
412.462
83.9101
83.9537
94.8589
79.2781
57.7669
286.401
543.297
167.011
893.948
259.898
109.514
238.095
68.5869
141.603
93.1428
74.6704
104.082
75.454
61.2239
61.5814
363.671
65.8256
66.389
66.4607
61.6738
120.427
61.6383
134.809
83.9064
58.7169
75.3957
412.304
572.995
66.6753
438.746
659.436
62.5992
69.5744
64.185
58.6013
103.395
189.254
307.229
360.428
61.1969
292.501
114.603
402.135
99.2647
131.627
210.169
120.055
88.3857
155.3
195.43
862.035
385.459
727.77
72.9071
64.8476
529.933
134.87
76.9288
190.438
196.075
121.954
446.74
89.3441
56.1825
393.039
59.6253
781.52
312.252
66.9231
84.9966
450.58
128.002
1080.2
255.395
158.957
293.62
192.016
84.6511
137.583
66.3367
381.797
240.645
73.8597
455.63
152.4
62.5521
476.941
353.623
56.4945
438.777
150.732
94.9489
888.313
54.2951
112.947
55.2922
53.7555
59.5055
63.3145
63.3679
57.6276
57.1653
54.3176
136.631
97.3505
75.0399
106.574
60.165
75.8504
109.886
63.9032
86.1545
64.27
58.1512
72.0693
54.2327
84.3599
218.046
314.326
74.3643
146.512
60.8674
99.1695
121.483
98.4883
870.049
91.7928
254.865
53.4172
62.8099
278.761
130.968
104.462
94.7534
52.6892
60.5414
63.1395
198.884
194.007
695.709
194.663
442.227
61.8026
90.7106
68.8184
902.272
425.273
199.197
610.657
290.91
352.493
468.446
90.504
286.245
218.811
249.521
214.898
234.062
74.3539
455.811
81.5722
70.2374
306.765
65.3178
174.486
756.492
202.28
96.9373
304.138
363.385
108.663
62.2687
75.8733
60.8964
74.1213
307.238
150.481
128.027
352.524
301.298
170.011
366.8
822.752
557.657
349.427
363.371
187.546
87.3107
511.564
431.406
177.031
498.547
628.829
354.375
95.7376
739.691
353.735
282.278
102.213
826.222
118.932
173.345
133.007
198.774
185.114
113.795
127.773
126.801
63.6086
651.121
194.771
91.5099
156.53
112.893
129.071
149.639
168.916
123.99
515.663
262.476
432.461
435.452
427.466
123.23
56.6069
109.269
211.098
112.25
444.269
84.9962
146.572
86.769
176.622
131.318
63.7057
61.0101
69.4463
129.907
155.735
115.026
81.5898
103.89
122.14
68.3314
86.9774
94.4874
61.0113
59.374
66.7869
66.8038
61.4322
64.7553
57.8721
331.62
81.6499
459.822
71.0546
356.106
277.684
339.747
329.75
343.885
203.1
130.461
225.637
59.3561
139.403
71.8891
139.787
119.093
184.186
393.682
163.093
432.134
53.3194
51.81
59.9768
52.9638
71.7431
66.5063
111.21
52.9303
82.6415
102.226
80.2658
113.972
684.456
728.808
124.987
879.418
715.72
241.632
231.113
419.122
298.718
238.014
380.401
53.4638
74.6566
75.9408
117.109
66.6914
173.432
219.494
353.217
227.297
97.1205
80.5479
111.097
134.094
124.272
64.2166
77.4499
128.088
65.1626
106.463
175.402
62.0366
174.089
95.9705
69.0077
114.113
97.8311
212.606
276.491
193.835
334.318
70.2485
217.52
141.753
358.747
102.142
72.821
73.1259
70.839
432.936
73.0155
181.82
53.203
285.326
386.553
185.5
80.741
75.4424
84.5257
237.159
97.5586
488.16
213.7
240.808
239.424
80.4006
133.516
128.607
65.29
989.621
67.3421
61.6496
55.6516
103.644
138.837
133.121
359.688
370.582
65.1734
205.666
124.746
152.345
183.475
66.6085
72.2466
125.045
139.65
310.356
154.974
1055.86
56.9672
56.2404
909.395
60.7213
81.7596
67.2285
99.4731
103.237
369.119
583.211
148.022
463.806
195.669
250.868
62.9229
65.7001
67.5791
68.2931
75.8373
65.8074
770.588
770.642
264.389
283.122
310.722
68.8203
370.501
263.482
70.6588
139.774
59.0359
325.868
70.9928
484.837
64.8503
57.393
63.9668
52.2038
378.711
474.251
324.32
414.742
515.948
296.406
105.678
90.1427
203.819
142.686
64.6308
153.424
107.737
78.6532
67.3106
58.8605
143.722
158.774
59.0086
385.365
80.168
394.045
76.6871
86.2473
283.821
222.17
95.0193
132.942
282.197
87.0117
69.026
95.5594
92.4691
573.262
123.293
61.7663
642.087
685.672
329.703
687.909
605.794
390.834
64.7451
61.0757
399.13
59.1859
65.0314
66.0421
82.1447
67.6185
113.601
63.3849
66.1943
167.175
136.121
325.855
60.7274
192.2
63.9931
70.3682
174.348
63.6673
107.094
162.422
65.8404
135.263
397.916
1070.29
297.719
134.639
225.345
63.34
113.961
832.536
66.6562
705.748
385.235
96.8303
126.925
96.912
434.196
69.0986
67.5625
421.218
134.176
315.954
830.376
820.933
700.606
637.941
67.2332
117.21
77.6024
75.3983
76.1025
284.112
119.101
169.536
63.745
129.419
68.2892
64.5288
543.064
87.11
134.534
515.635
62.4713
61.915
100.47
83.2375
162.81
74.6792
639.637
95.1467
310.215
626.067
95.7002
62.6493
725.216
59.3134
64.9725
178.151
147.84
73.1468
419.79
119.119
326.577
196.108
344.339
61.1665
200.008
307.728
746.422
70.2235
65.5871
59.1309
56.2448
121.696
935.616
340.055
65.9821
84.3684
103.221
75.6144
82.9923
263.948
91.2167
474.853
78.7853
79.5384
153.16
233.853
87.5472
112.656
559.611
531.413
785.913
194.385
63.1744
491.03
799.572
826.514
529.32
618.934
65.7746
202.611
292.483
62.7327
81.1289
65.0325
139.819
60.2968
867.098
679.511
71.842
398.174
821.119
207.649
680.839
438.058
76.9067
255.071
304.227
58.2807
91.7715
184.907
154.801
153.506
98.6161
65.2236
323.851
306.294
102.224
115.926
84.6699
62.9307
89.5621
68.2788
101.14
98.236
208.913
304.029
52.7903
289.926
179.884
75.6743
325.29
66.6184
52.1406
217.58
76.4798
164.512
71.8998
61.7442
827.331
182.797
55.2926
96.7331
84.1105
58.643
302.31
166.898
145.042
365.604
243.956
141.65
114.88
68.388
57.4295
87.1011
72.7604
585.037
259.993
264.111
58.7053
229.664
112.032
63.1068
60.6145
75.0518
70.0869
64.1575
78.5979
56.8326
126.303
352.497
270.738
54.6779
120.765
141.48
52.3865
265.415
69.8779
213.252
87.1765
300.001
396.372
196.391
58.3412
365.9
343.121
76.9083
64.9357
606.415
87.8084
57.9316
117.328
79.4696
122.309
258.198
66.2581
88.1493
100.085
80.1587
392.462
164.067
142.138
67.862
243.433
83.3762
283.02
72.8921
62.5256
199.397
140.763
214.61
138.805
223.861
60.4247
82.3781
110.999
71.7641
65.103
80.4777
107.108
122.895
55.3914
122.505
63.1174
118.913
191.718
153.781
161.054
108.602
128.682
139.111
285.547
582.759
103.478
78.2916
69.0809
202.71
128.234
61.1319
81.7976
128.959
63.7863
64.6121
57.2789
398.945
428.801
60.1542
95.1267
64.5251
386.519
448.282
104.231
76.0007
67.4568
61.5802
371.685
311.926
139.718
71.7055
55.0619
62.364
800.079
953.1
128.318
394.041
498.28
201.458
288.367
288.994
77.9127
331.029
69.0687
99.5424
55.6051
68.4006
55.3645
338.096
625.46
78.2051
277.645
415.827
98.0276
54.913
53.7785
112.432
54.6973
110.058
60.9982
348.007
62.3116
609.908
150.495
64.3286
151.622
360.905
145.858
114.256
318.375
62.5852
63.6057
392.228
924.254
447.777
103.694
249.987
65.253
531.348
394.963
140.217
104.453
54.4493
60.3826
358.772
266.667
81.5445
111.938
293.508
52.9593
51.5849
51.9971
129.423
80.882
58.4587
87.4445
56.8565
67.1068
79.7793
92.7913
58.6484
310.001
56.9002
64.3962
420.633
87.6594
64.3753
64.4894
100.752
52.027
56.6657
70.9168
387.113
325.038
134.947
438.861
94.5582
55.1478
61.0944
66.0246
74.9219
387.786
440.326
138.376
495.56
224.975
218.741
227.102
117.871
606.593
60.0623
64.5389
130.49
60.4184
121.255
504.06
65.9511
318.997
99.7437
212.242
153.006
67.3138
100.163
58.121
53.2683
59.443
85.7697
118.581
111.661
196.862
91.9845
175.55
65.9851
65.035
271.738
812.967
129.347
429.808
589.069
444.887
119.355
433.189
439.747
437.05
67.2525
348.709
64.9376
98.7274
97.0406
110.053
386.569
108.164
719.562
319.95
814.506
252.533
252.789
215.257
209.896
122.962
109.637
134.219
133.233
354.367
564.084
412.944
656.835
66.6118
194.887
621.632
61.431
61.2135
76.9665
363.841
65.2738
533.353
134.526
242.923
284.754
428.241
197.64
99.1591
245.939
252.285
85.7811
158.56
294.239
175.562
149.188
249.833
459.703
137.669
96.8345
345.72
57.6959
84.1448
57.009
96.7594
85.4085
344.401
131.395
228.19
230.046
426.67
493.942
97.9586
267.142
202.022
218.289
58.4191
128.628
112.501
291.6
132.365
77.2623
91.3225
114.509
69.0612
408.717
825.457
316.738
61.489
606.689
607.919
576.459
84.4839
170.967
324.022
797.405
752.818
125.873
651.729
79.0899
793.072
656.203
743.142
600.563
73.4546
155.422
664.911
162.458
607.849
628.143
186.435
339.286
174.224
240.004
668.904
52.5468
773.562
60.0564
112.931
157.985
438.08
170.699
804.094
60.0858
219.945
52.6491
69.8999
447.111
395.134
178.879
119.882
145.032
322.259
51.9355
174.658
60.4362
99.0938
154.13
178.597
134.192
61.7611
180.167
366.18
282.653
408.641
213.207
68.9802
431.179
419.835
78.8635
300.76
60.1072
64.7298
415.355
62.7157
99.3844
63.128
110.696
110.994
465.482
209.822
140.024
342.003
127.661
349.47
76.5507
69.6754
59.4762
67.3802
69.6345
82.5605
101.355
62.1005
197.389
67.8089
62.9966
382.609
362.729
902.028
85.7919
71.2621
67.5662
65.9896
117.184
65.4964
97.9146
271.952
305.161
74.9188
64.7327
63.8038
66.2558
67.9185
67.2404
97.168
226.901
306.271
65.0541
148.957
69.758
65.6634
353.446
275.381
265.963
532.667
212.553
118.914
150.789
64.2688
67.526
57.1505
57.4178
80.6166
62.1984
82.1553
336.278
392.912
217.302
679.079
479.728
631.255
81.6539
62.6978
106.241
385.383
584.605
171.682
347.825
139.158
291.216
210.731
94.3085
157.527
522.467
117.296
868.674
81.9035
70.3423
551.683
470.039
56.406
60.3437
73.8073
102.304
123.419
139.074
320.218
358.949
65.6777
738.06
96.6059
65.3926
327.84
89.6638
176.315
119.287
53.8223
355.957
306.513
68.845
502.674
61.2614
89.7531
380.834
128.051
845.105
63.3534
226.4
360.929
151.523
149.23
475.252
450.251
404.05
118.409
151.264
94.8068
119.003
87.3191
61.2098
55.5123
366.052
151.833
224.145
123.014
580.469
662.695
76.8544
125.855
52.9423
52.2601
279.327
365.022
308.899
746.577
237.743
221.872
105.33
144.609
406.227
113.178
310.985
287.692
335.639
74.0653
149.415
640.667
98.8824
62.797
58.4002
74.1726
78.7687
180.18
65.5755
117.302
227.653
145.101
209.775
254.237
79.346
322.08
117.078
189.359
80.1173
79.1147
51.6776
163.364
59.6597
174.815
322.63
157.697
128.34
163.239
243.067
66.3939
137.053
90.5891
81.6725
60.5659
74.4994
303.352
58.0664
260.65
239.024
115.671
69.5353
190.23
63.0823
64.6459
290.463
63.6674
208.905
136.217
177.297
105.204
60.1936
58.7974
521.166
65.1397
56.2555
63.0971
205.931
180.948
67.065
55.5414
54.6248
66.159
88.6655
121.51
106.45
63.244
173.168
159.158
58.6604
60.8598
159.701
73.5254
288.534
309.261
408.968
58.2646
329.549
401.853
68.5443
104.349
93.0071
62.6458
71.8388
119.667
207.548
126.23
121.128
105.785
119.292
184.031
400.887
411.506
238.641
384.8
429.153
283.496
441.282
302.908
239.357
371.917
92.6844
72.9759
56.6355
70.2543
197.224
72.5653
192.219
200.869
109.605
129.662
98.3651
161.828
129.665
140.503
212.206
85.2486
203.196
67.9658
81.0953
247.98
63.2507
55.5529
64.0356
63.126
308.12
329.954
558.719
597.701
147.429
349.813
410.494
153.095
433.271
136.832
418.754
66.0949
59.3628
63.6751
118.345
143.976
134.122
256.876
234.241
233.634
99.5257
149.141
325.051
64.6839
87.2429
251.211
738.109
221.55
79.2254
59.9535
373.232
99.0608
371.576
160.367
90.7408
155.62
413.852
138.974
151.841
226.667
165.268
220.88
90.9499
201.803
170.507
414.505
174.011
79.6667
246.587
60.7581
71.0485
80.5237
413.571
257.447
115.769
75.6383
105.665
503.768
122.668
92.5405
67.6543
71.7103
112.638
202.601
105.205
134.378
145.849
62.4566
56.384
176.229
56.4372
61.8206
179.419
381.895
753.873
64.8383
94.535
256.733
220.952
153.076
87.4064
80.2719
90.8198
110.58
81.7077
111.432
102.659
68.7152
116.478
71.5775
129.832
58.1037
142.126
85.7106
84.6821
93.7036
58.5278
105.932
185.392
116.056
88.2341
127.888
154.263
194.411
58.2657
55.3542
73.1488
78.545
226.056
59.5573
69.7236
418.716
527.871
755.713
168.075
382.8
178.298
211.262
149.963
71.6452
56.9541
664.285
867.475
70.9595
788.245
681.999
596.067
987.943
63.7174
225.009
451.644
672.035
126.725
163.108
224.69
282.614
56.906
81.7757
106.636
230.538
291.317
102.294
211.19
241.042
903.587
275.342
694.16
74.282
871.976
116.981
281.416
203.93
200.316
72.4398
201.239
92.2872
99.5934
219.692
198.962
127.214
182.475
202.156
72.9853
206.624
195.508
409.052
251.709
245.167
209.364
194.938
153.681
90.8077
335.371
157.16
69.0982
91.3423
67.6447
878.123
209.643
163.376
604.192
567.647
544.28
218.244
176.025
61.4587
224.551
598.622
529.282
213.406
155.003
339.582
435.509
264.361
235.489
575.003
842.725
182.083
411.535
393.952
201.057
306.216
333.118
490.573
60.8341
136.29
69.2003
53.8934
58.9405
92.3366
62.6073
144.029
57.4918
176.442
74.4928
121.54
108.38
88.1783
116.887
77.4987
145.353
68.7727
61.7869
63.14
59.9815
109.02
158.141
423.504
151.095
116.404
195.905
145.965
212.864
153.338
391.646
279.634
256.773
143.591
65.2621
66.7487
126.565
63.2596
89.7899
203.529
153.736
75.4362
68.0197
69.6725
115.28
76.3416
120.786
103.852
126.166
238.566
64.9883
97.839
837.424
557.593
93.0928
364.718
106.295
483.397
135.262
126.954
649.8
343.036
98.792
94.5157
551.093
73.552
374.966
563.149
509.057
95.2312
212.864
60.7503
96.1374
204.737
60.2739
93.5802
169.879
460.796
311.429
195.158
84.7782
314.32
110.337
138.507
258.386
149.358
225.892
169.663
53.9885
60.3778
81.602
54.2079
121.201
69.9199
59.848
251.169
67.836
53.3064
395.068
256.845
113.278
69.7789
60.8762
344.976
61.9343
159.351
296.643
301.36
362.096
69.3873
64.0451
63.6187
82.9113
300.419
126.648
103.801
67.5919
62.5293
64.7118
143.691
263.841
186.541
72.3928
74.4621
312.055
69.2322
79.7493
90.4902
474.938
717.429
62.3606
275.384
71.4997
159.12
472.858
674.464
285.522
107.272
316.564
120.332
96.5755
113.945
499.389
66.8875
63.8046
59.8968
59.542
627.186
183.872
358.121
105.334
104.877
81.2827
62.805
63.4331
119.873
66.6742
63.2657
129.984
105.579
98.9444
67.0973
129.112
71.0933
822.158
805.048
62.3844
134.144
96.2994
64.4068
674.099
135.594
538.976
153.221
226.177
60.1897
379.546
228.747
163.734
119.438
66.7997
375.535
261.622
437.959
80.7305
87.8521
428.86
65.0202
199.741
373.742
538.499
110.28
120.93
193.631
117.839
86.3126
103.277
77.8396
847.2
78.1603
142.183
81.0366
150.654
293.677
149.096
251.709
58.5977
273.953
175.297
143.93
97.6642
66.3234
371.586
79.1536
132.496
305.182
237.699
116.879
119.157
870.093
94.9271
85.1487
56.314
66.6004
81.2003
66.6493
110.941
132.848
217.593
147.258
55.7303
374.684
225.926
121.99
769.442
324.211
776.918
68.8783
327.339
615.194
165.66
83.0266
73.8207
139.422
310.996
60.7067
331.565
60.2741
104.515
62.483
223.51
691.391
79.4002
83.1978
61.2511
240.541
96.4797
126.789
79.5726
102.415
76.0984
96.9091
61.9824
116.724
194.997
98.8623
365.302
255.28
94.3142
146.57
299.328
253.055
141.918
419.061
79.3358
135.363
86.1027
60.1562
82.0621
59.1737
424.899
64.7277
391.608
276.738
67.7436
78.0785
102.647
91.8597
122.271
104.323
201.513
87.7386
334.339
165.035
72.002
122.267
79.8946
56.849
423.242
93.7518
56.8989
185.742
114.267
219.497
62.4418
129.668
372.774
81.6352
147.82
316.455
76.8794
243.11
130.819
123.906
55.4757
163.672
106.538
192.679
283.472
108.499
129.79
72.156
68.549
321.771
118.325
163.549
82.6001
105.84
139.652
465.716
128.861
402.057
226.29
541.817
111.229
274.405
831.381
603.227
61.5971
65.1445
197.053
78.6005
111.471
525.181
87.3322
251.922
67.5652
825.028
709.659
330.625
417.17
220.249
159.911
91.5175
159.478
325.473
562.836
155.825
348.575
165.857
64.4928
119.177
57.544
268.511
59.9043
53.4436
65.4217
295.8
176.002
91.8927
557.116
843.645
680.126
370.562
235.81
500.296
72.9575
138.036
467.958
386.752
241.846
419.196
121.193
131.031
98.4079
189.319
54.5372
422.718
200.814
382.251
116.994
57.9642
91.3058
424.691
250.719
741.777
453.344
76.0824
444.195
366.782
437.08
296.406
295.153
320.834
242.309
160.414
162.923
133.776
510.701
85.9046
103.832
277.766
63.4264
67.5475
117.953
56.8532
55.997
138.215
136.373
71.1345
89.6231
89.3347
291.364
113.783
235.476
70.2603
162.733
181.188
89.687
265.676
77.8346
100.618
105.714
132.843
198.955
133.156
129.264
705.959
201.097
369.644
515.299
719.952
63.2086
87.1759
173.097
67.3074
457.457
592.675
298.018
163.341
390.798
537.318
230.478
742.168
386.925
384.626
373.284
110.769
480.925
514.807
279.034
219.547
392.302
283.619
370.319
395.378
723.645
674.592
426.103
612.26
194.534
161.311
196.901
70.1835
65.2584
67.7471
63.0404
211.906
169.281
272.683
938.552
937.511
229.218
638.634
392.865
197.256
125.964
67.4305
136.105
412.833
211.858
65.9173
81.9365
94.3795
122.162
54.9018
54.6054
136.755
735.616
958.541
168.27
753.108
200.547
502.542
463.797
343.913
165.396
165.276
247.726
285.074
269.308
341.986
194.822
55.0622
386.83
205.083
136.674
216.046
273.985
287.61
61.2673
62.3818
62.3929
66.1164
90.2451
242.198
57.7832
58.4318
57.6344
53.3733
65.4702
60.7233
54.3233
53.7776
296.304
56.7409
54.4312
65.5182
275.842
55.215
128.928
67.8656
75.046
69.1436
61.9113
105.031
75.2703
61.497
353.913
120.032
77.3855
88.2531
80.4703
68.546
80.0229
128.244
110.623
355.073
897.311
692.688
71.637
891.956
742.256
356.617
78.1689
87.0285
545.359
200.995
330.437
95.8174
193.526
61.1674
57.1041
67.3691
54.8636
57.0161
695.72
354.008
816.049
325.241
242.118
297.983
111.633
139.764
86.4536
224.367
70.2853
132.814
359.913
117.662
133.536
369.305
329.243
339.446
236.946
146.284
120.96
89.2218
71.0864
119.906
297.99
183.655
144.177
60.2987
53.5632
61.4222
197.328
197.489
115.821
135.464
58.6734
61.9028
59.1092
73.1377
484.452
211.382
381.604
63.3359
289.593
110.45
158.878
112.097
234.201
183.754
321.646
99.095
54.4599
52.3291
55.1675
56.5803
201.121
772.793
1076.13
974.455
709.275
289.278
126.957
99.2089
90.8725
77.8432
96.5416
144.142
143.675
69.1405
137.428
80.3704
297.292
835.017
56.4043
132.68
97.0482
177.748
165.869
125.934
63.1299
68.3249
74.7566
54.264
124.015
162.913
64.9082
59.8767
61.5181
58.381
65.2355
154.734
54.986
53.5304
54.5479
61.1972
59.3313
158.336
89.2611
584.724
647.563
98.1109
77.0385
353.627
74.1645
63.4278
64.9189
816.637
199.457
217.313
99.3341
112.816
61.4931
58.7768
71.6678
72.3819
83.6372
81.5722
66.7863
938.991
69.5082
385.876
214.98
65.3663
86.95
88.5561
70.9924
125.747
541.79
69.5299
65.1632
60.0445
61.6759
688.563
61.6154
59.5234
189.522
72.1493
227.404
95.8201
60.629
67.0213
485.129
138.093
173.781
119.241
59.3418
105.725
148.26
65.4121
70.0585
62.7569
101.323
55.3879
68.8992
92.8527
61.3024
191.237
67.0742
63.9666
117.053
162.545
416.52
539.421
783.111
197.327
68.3183
99.4852
153.749
58.7204
949.862
656.887
452.628
172.526
894.169
66.4421
65.9321
63.1297
76.228
61.223
75.2475
62.9499
332.137
63.4127
60.8712
360.981
89.3197
152.612
60.8289
425.324
81.149
70.6108
535.767
62.5494
70.7503
130.009
125.937
69.5813
416.693
345.523
514.687
54.3977
110.489
87.355
63.4472
70.503
88.0409
153.873
71.4463
95.1438
70.3221
69.4282
255.994
76.8095
204.319
168.11
368.641
292.287
911.645
227.605
57.8372
62.7159
62.0047
62.6337
142.24
600.785
215.861
696.855
140.833
62.0974
650.84
416.926
134.054
159.398
116.929
161.738
178.991
187.386
62.0045
65.8043
133.336
140.181
155.414
218.679
312.667
63.1478
497.369
644.708
301.631
113.515
433.122
63.6845
62.7931
63.5224
351.667
59.0027
136.989
109.717
106.287
70.2885
71.9196
66.8627
105.482
74.8177
92.4705
241.094
262.391
113.454
75.3662
61.3741
222.481
66.9946
169.42
139.043
330.412
253.223
187.279
102.853
65.4705
97.6842
601.25
181.876
66.489
65.7541
89.7972
63.4682
142.533
302.611
156.572
162.963
405.555
316.929
122.409
281.299
209.87
209.498
394.86
91.0428
155.878
265.162
198.629
62.2405
64.6149
51.8818
100.491
62.5636
89.5084
62.3233
253.38
169.009
398.84
113.045
114.354
163.293
59.9529
186.032
266.639
357.206
93.2454
56.9891
110.674
56.8189
128.926
73.0317
102.433
91.6272
56.7002
57.1195
95.4268
118.163
125.623
171.174
142.99
96.3054
105.172
63.1853
58.8888
52.9339
199.602
103.964
94.9292
70.3247
120.395
60.2101
320.914
158.086
80.3959
161.038
170.58
345.368
344.636
362.014
403.241
442.887
100.719
138.941
396.018
72.4831
64.2316
131.594
288.805
135.424
160.165
247.616
715.248
558.685
369.074
357.127
637.627
230.571
419.744
420.394
102.45
628.161
97.418
160.998
141.303
66.0163
97.2439
425.209
521.813
595.226
99.4635
70.9268
266.849
121.689
593.243
124.788
466.4
153.154
80.3014
141.044
64.1335
69.1329
231.065
561.109
63.1849
256.198
135.788
618.939
158.974
74.1733
70.0694
120.253
93.3559
206.444
143.039
618.958
481.558
84.7038
453.542
645.015
128.573
364.762
291.516
228.18
449.006
145.295
382.31
400.195
356.341
155.113
209.454
71.1502
82.1569
72.8734
355.324
227.949
85.0611
310.067
483.867
62.621
55.4057
58.7091
53.6342
54.4386
56.9954
55.1781
53.2078
54.4152
55.4036
57.1205
296.935
57.463
161.114
55.6033
55.3276
206.134
76.1087
85.3153
152.223
120.604
122.124
118.768
160.758
86.2283
103.729
71.4203
76.7555
78.6377
98.6277
191.246
64.4716
339.793
297.109
142.048
55.8362
440.485
126.639
65.6394
298.433
271.385
410.494
225.826
135.783
111.692
375.755
173.133
512.134
123.289
418.077
282.246
190.637
220.467
123.755
72.5472
90.734
201.739
128.505
366.848
76.7217
225.465
412.829
124.568
61.6108
271.442
264.316
205.861
530.28
151.019
129.063
679.148
301.021
63.1152
218.529
519.132
92.8403
69.6966
59.9203
253.793
61.0193
78.9651
59.9392
58.9971
55.5819
60.1825
56.36
56.0604
77.5305
61.8105
300.655
112.559
113.731
129.198
111.457
123.722
71.359
62.3243
55.5008
59.6503
91.2782
56.6709
57.9799
57.3585
60.3109
54.09
54.2604
96.8352
367.955
249.907
296.605
89.7548
203.863
66.3457
76.708
81.5987
90.3667
70.0086
67.5599
74.7933
151.867
357.439
336.504
458.496
147.259
410.595
349.412
64.4117
187.867
110.503
107.752
72.0383
152.079
65.672
187.713
65.5197
61.2511
99.4164
242.384
146.843
237.551
89.0978
109.198
61.7712
191.597
268.525
130.25
270.036
218.786
58.235
75.8959
75.2242
106.547
342.217
400.073
76.7757
454.133
139.929
119.916
336.792
193.612
198.926
60.7787
88.6775
137.642
60.2565
195.465
249.078
2721.88
853.377
226.263
132.12
327.193
114.558
195.178
557.506
271.294
925.17
1085.75
1043.14
880.985
1018.66
1148.56
963.015
1252.64
931.964
1216.74
800.874
114.127
352.909
561.642
412.53
225.959
266.332
83.8732
198.465
352.991
374.559
243.456
522.583
1085.96
1320.73
227.357
266.391
517.946
528.432
418.618
251.635
165.717
129.6
349.428
307.798
67.8635
790.002
377.781
429.349
1856.97
82.9348
188.425
560.402
165.337
497.869
135.771
168.834
57.6592
202.538
240.228
92.7993
58.0643
154.61
77.3433
100.716
87.7021
427.078
63.0292
272.436
119.163
263.829
527.159
518.875
679.852
86.3513
739.602
109.95
77.6113
83.379
68.3925
259.758
447.057
281.959
109.927
76.3983
272.825
375.946
411.737
227.342
241.576
191.799
178.188
357.369
353.717
187.07
62.2349
63.1338
71.4193
63.7896
230.838
166.974
371.895
167.23
68.5772
187.696
78.9899
64.863
204.392
60.4544
61.4067
78.7397
107.09
181.018
165.342
178.112
249.637
342.738
74.5682
60.3342
70.1009
170.582
71.9148
63.7717
124.453
70.863
82.0059
357.224
279.387
517.263
397.638
312.81
64.1458
419.775
111.558
78.1998
153.939
281.589
604.159
642.909
644.96
360.309
72.9055
165.042
60.4053
394.915
371.384
61.9285
285.092
346.866
84.0525
95.762
76.368
78.4069
303.911
106.323
368.419
310.744
207.892
173.072
264.975
65.6674
63.3887
75.9688
668.231
80.2843
56.1937
62.4358
61.4035
400.497
91.1302
113.369
163.263
413.693
111.375
296.816
70.6394
827.502
60.0333
486.971
379.698
815.275
812.462
478.851
69.8306
730.528
176.015
112.241
62.545
61.7027
145.802
159.333
65.2665
438.351
882.432
330.379
83.0439
53.6954
59.2061
92.4061
76.4106
66.4579
88.2818
190.366
193.905
77.3335
627.052
683.912
286.75
100.795
144.956
857.206
698.394
634.815
64.3978
114.627
69.9173
67.6069
148.47
201.395
72.3699
178.95
128.723
64.722
77.9643
60.2542
75.4198
246.464
64.1688
159.761
111.017
85.8362
369.243
862.854
217.999
75.1853
346.781
246.404
107.317
61.8263
106.332
82.1918
114.732
89.7765
55.6245
55.6736
54.8424
838.622
942.896
69.8683
94.0326
115.806
97.3235
63.5966
241.505
286.826
70.8857
66.1424
854.767
931.447
56.1144
80.3477
261.893
487.893
847.269
415.859
454.416
309.897
204.285
69.9811
65.417
55.2376
128.616
57.0919
53.6213
239.44
338.098
198.703
180.804
201.244
68.9314
62.4492
126.453
84.0466
275.739
54.1743
137.518
66.2157
406.699
690.07
74.9806
85.9121
378.617
248.247
75.7648
65.2062
75.9779
125.652
72.5967
196.85
165.857
226.967
354.202
514.182
412.592
352.858
96.6477
148.295
132.156
429.332
151.745
538.082
81.0647
70.4942
73.1966
61.1046
124.072
640.422
100.331
108.906
80.5332
57.0781
76.3165
69.4448
60.6213
161.922
122.036
115.509
142.37
54.3267
94.2682
77.331
404.546
118.58
361.289
362.23
100.496
74.6732
342.928
145.604
655.32
452.673
459.063
145.974
151.262
452.65
68.4148
64.4799
64.5909
80.8151
80.643
69.9568
69.1556
202.394
326.289
74.3792
173.851
256.073
440.133
305.314
82.8047
142.162
119.958
137.167
66.222
164.195
237.475
78.6104
362.553
84.3647
172.372
133.598
234.163
62.6637
119.468
229.045
60.0927
77.0189
161.311
157.121
147.554
196.669
299.745
234.226
62.1001
66.0442
53.2895
106.597
86.5447
313.957
132.804
62.5531
334.054
68.0215
130.725
235.141
158.471
161.814
283.227
435.836
775.539
635.852
104.24
83.2661
72.2898
71.9433
55.127
60.0278
62.0528
75.8414
92.1223
331.636
63.4272
63.3884
128.742
61.3357
57.3521
139.784
59.0379
56.8639
681.79
108.928
117.518
85.2958
102.859
66.5214
212.899
107.58
286.84
54.9417
214.481
69.2873
291.602
290.45
115.548
118.642
78.5028
81.5941
91.094
224.768
161.601
120.775
132.875
65.3231
62.2573
61.4708
62.9527
64.9986
65.4371
69.56
130.548
104.272
71.176
59.2686
137.961
87.586
116.389
61.6711
200.646
169.287
521.86
266.985
61.4989
63.5568
62.1483
132.255
91.2332
83.9439
72.8662
155.8
134.673
189.301
129.423
248.382
87.9397
222.069
690.545
133.935
136.134
128.069
134.965
56.2575
58.9011
55.5808
53.9653
262.083
393.077
259.536
291.158
237.138
74.8384
57.5799
59.4034
389.352
112.71
381.532
121.278
256.795
95.8892
60.7786
63.5179
97.4954
241.797
174.537
62.2141
71.5213
89.6753
63.0256
63.6358
575.234
582.842
346.613
541.566
401.145
193.972
155.632
109.629
926.162
709.538
828.829
125.188
121.621
86.0314
90.9415
85.9149
86.7432
106.486
106.295
62.032
60.3453
63.1853
58.7353
61.9961
66.481
108.694
351.866
442.582
429.347
553.625
252.743
239.842
407.742
420.871
360.92
539.942
359.333
378.802
72.3322
57.5643
57.6789
220.492
291.963
204.765
75.1137
56.4863
61.8217
55.4522
59.3612
56.5859
145.063
61.8449
60.1694
60.4381
75.4745
79.0394
409.636
384.016
464.882
384.517
425.467
61.5476
113.581
81.6185
68.0691
71.1724
51.0892
59.3534
62.0498
64.1886
181.187
141.555
191.196
119.976
197.581
69.6839
82.2089
59.9474
71.3789
68.6028
64.5752
193.79
602.217
461.887
127.764
929.077
419.207
314.117
90.0335
545.773
406.085
295.378
253.906
203.887
445.297
189.49