/*--------------------------------*- C++ -*----------------------------------*\
| =========                 |                                                 |
| \\      /  F ield         | OpenFOAM: The Open Source CFD Toolbox           |
|  \\    /   O peration     | Version:  2506                                  |
|   \\  /    A nd           | Website:  www.openfoam.com                      |
|    \\/     M anipulation  |                                                 |
\*---------------------------------------------------------------------------*/
FoamFile
{
    version     2.0;
    format      ascii;
    arch        "LSB;label=32;scalar=64";
    class       volScalarField;
    location    "0.0100321";
    object      p;
}
// * * * * * * * * * * * * * * * * * * * * * * * * * * * * * * * * * * * * * //

dimensions      [0 2 -2 0 0 0 0];

internalField   nonuniform List<scalar> 
3918
(
6.16014
31.1834
29.7138
27.2755
44.8735
75.6189
69.6392
47.9013
31.7242
33.5964
66.3942
-52.1577
29.235
18.3772
29.1744
74.9786
79.0009
-28.0856
-27.0049
33.7108
102.199
28.2762
47.9449
-42.1772
37.7307
-28.7129
69.831
29.9736
-33.2057
29.8765
-26.3461
30.6754
30.4556
33.0924
1.44178
7.5783
31.4951
25.3005
96.7753
31.6186
9.73402
33.8397
54.697
-4.52925
34.6011
53.75
38.3181
95.7016
-29.5128
25.561
81.2721
-66.8393
29.8187
27.5179
30.0747
13.1973
29.4798
23.2127
28.9479
32.75
58.3587
32.6564
27.5965
-8.56206
51.2368
29.807
26.1363
-23.6414
22.8115
-18.4312
51.017
-19.015
-0.861603
-5.24117
2.22309
1.6644
9.93034
20.651
14.98
31.3781
-29.1241
95.9983
25.1619
30.9814
28.5436
6.58658
-25.6321
-26.5441
-16.2127
31.6912
29.5437
32.0088
-38.7264
73.8712
29.8063
44.5888
-36.1073
31.9922
-50.0516
100.4
29.7178
29.4295
28.4389
30.5956
29.9537
-31.6483
22.8914
67.1476
31.4798
4.64178
-31.7616
-32.7963
-31.0442
-31.7326
-32.7342
-31.5142
-30.8668
-37.1605
-2.07763
-5.75699
28.7031
20.1024
28.106
-23.9507
19.0555
2.82394
33.023
27.4285
97.3968
76.8377
48.6698
27.6415
18.1508
27.6821
103.145
102.251
-28.557
-26.6749
-27.8146
16.3688
103.412
-28.6636
22.5011
101.395
12.8407
10.8197
90.7024
102.314
4.94561
14.6594
26.6294
-47.2302
31.2828
7.78624
17.758
14.4118
-27.0775
-9.50361
54.466
36.7526
31.0314
-25.0889
-25.8602
-5.56416
-22.1598
-30.2556
-31.3806
4.43251
-31.1596
-32.0534
80.3602
-29.7426
-28.7424
-30.7495
-30.4814
28.1477
-0.381443
27.6527
98.1677
78.389
31.6552
20.1151
-29.5163
25.7583
24.3504
11.3381
95.4781
20.8928
26.7344
23.5343
29.979
12.7479
99.1463
100.739
23.1401
19.6151
20.5349
15.7774
6.12678
45.0324
-11.1029
30.7785
-29.3963
20.1661
-31.6167
21.9791
-34.4623
-174.17
5.25483
60.1712
16.297
-22.1333
32.2658
-21.7504
74.3702
22.5942
6.51184
9.65131
-26.7102
64.271
2.08843
-43.1299
-44.9765
31.9781
11.5487
-26.3162
85.2127
7.45227
-45.4199
24.8294
-1.01941
27.6933
50.2323
18.9188
32.782
2.70318
-30.5963
29.5487
22.9199
42.0989
-24.3349
-11.7283
13.3124
24.3507
39.526
82.0841
44.0655
32.5661
39.8539
77.0452
21.2531
-37.224
45.4605
32.1896
-33.9166
88.7724
-8.22455
16.545
-1.18163
10.9773
-36.8576
33.4693
-61.8823
29.8171
93.7355
37.7925
-43.506
76.9021
99.2072
77.5334
33.785
16.0932
40.8759
26.7595
26.1465
34.0529
-34.0816
2.92011
-16.5503
62.3868
27.9579
12.694
-14.8356
51.4167
24.3843
77.9671
29.4137
-22.5264
46.67
36.6188
-21.0541
20.2936
18.4424
50.9519
12.3094
26.4417
-21.9358
-26.2475
-59.707
25.8129
-25.5849
44.3525
48.4011
-33.5505
0.124405
-45.0139
-0.09525
79.474
35.8902
19.6947
-36.8047
67.4656
-37.8455
-30.4599
17.3836
62.2162
34.4214
79.164
102.389
-35.8929
5.11903
-26.5869
-0.0140528
32.3623
32.0338
0.702343
31.6316
20.922
-32.849
31.4826
91.3817
13.6821
24.3241
19.0138
-31.3291
78.4073
13.9293
25.4398
-3.64326
32.468
35.5762
-15.744
11.1606
23.6142
83.565
14.5874
-79.016
65.3817
-28.7794
94.6157
-61.256
-34.0235
-48.68
25.6342
30.5797
34.0936
18.8916
3.85202
-17.01
24.8085
23.1833
-72.0828
-58.7288
24.7336
31.3451
-42.9878
16.949
32.395
31.0895
-70.0451
9.38214
23.6525
-8.32445
4.83592
-17.4658
0.528977
17.0076
-21.1811
-0.250657
31.0654
33.1975
22.0425
25.8152
32.1789
28.1062
15.744
-19.2571
-63.7454
27.9225
25.1125
-26.6921
19.3047
32.4731
4.7795
25.2284
3.17206
7.79012
30.3935
6.51858
9.14756
-18.877
32.3261
17.3151
33.0741
31.2711
31.8145
19.3687
-26.519
6.4378
-17.5874
-12.3167
19.3988
30.8342
29.642
17.8909
28.7821
31.8004
30.0594
25.1789
30.6272
30.975
22.3021
31.2814
27.0049
33.3321
30.9365
27.7578
31.3841
26.6557
76.8867
35.5984
14.5702
-41.3215
103.457
71.3675
94.4815
65.8675
25.7416
24.7967
26.5605
35.854
20.5737
2.21413
-38.2309
-38.6338
26.2828
19.7412
14.8527
-32.4079
33.3681
24.9389
13.1883
8.62175
18.8161
13.8548
10.8176
7.30038
-2.1244
-23.8865
33.5028
31.2705
104.26
-29.1015
31.7319
3.23672
18.723
32.137
-26.6674
30.2007
30.934
-27.1678
36.5913
-64.4912
-22.2358
27.5317
69.1843
104.56
16.1282
-16.8569
9.95616
-43.7713
-48.7283
-32.8935
26.8735
-24.69
18.5089
-133.844
-19.5648
82.0542
-27.7402
9.25789
34.2771
105.404
97.0925
67.0401
102.533
6.45877
29.0953
-15.3209
29.4697
28.2874
31.7324
31.0268
33.2954
27.3377
27.5822
31.5896
31.9362
30.7931
29.0233
25.0415
35.5426
28.5079
52.6211
28.0342
38.6342
28.5409
36.3154
30.2636
31.0169
36.6006
33.4738
29.9034
-12.3118
14.8771
33.3052
9.14191
40.7847
20.3303
8.43586
24.6654
-12.3445
83.8523
31.4221
32.951
28.0187
38.6683
33.2911
40.3957
33.3544
32.4541
28.8418
35.894
38.8237
13.7293
-5.49143
14.1747
-8.62542
32.3775
20.2072
29.19
-5.05777
-54.4748
95.5144
102.179
-23.7354
101.638
-4.93521
31.8513
99.7445
-19.8694
13.8827
-31.5083
-24.1722
27.995
7.89161
23.7609
27.164
-13.2364
28.7187
22.5551
-4.40047
101.854
9.55243
6.92022
-6.32531
91.5659
25.7733
31.0324
27.2563
65.185
-77.7269
49.3297
-33.3882
11.4044
-41.5864
24.9597
-56.8526
-18.4294
4.47176
-28.499
-20.9155
27.2416
21.0247
4.46818
-54.4238
-0.583704
0.818768
11.1247
-6.3012
29.1993
-43.0344
13.9779
-37.9265
25.5307
-21.6585
-36.7769
15.1374
-30.8
11.6325
26.8267
29.8359
20.4997
93.034
27.5431
105.195
102.416
-27.4193
-30.3474
-30.6731
19.5311
15.8834
2.08227
87.8794
-28.5223
75.4036
-22.2007
-22.5079
-23.2797
-20.56
55.6395
32.2551
-28.417
-27.6184
-28.2231
59.8847
-0.516909
65.437
-2.30926
20.9022
25.8562
26.3819
24.7279
78.7419
-11.1078
20.2414
31.034
30.8305
17.824
31.6328
31.6858
32.0911
47.8108
32.9645
35.3427
37.0028
73.6635
33.3802
35.776
18.0897
28.6432
29.1924
23.3101
-19.2185
-9.62238
-9.41669
-132.616
26.7397
-19.5067
-21.8901
-25.7359
69.9461
-32.5163
36.2252
-31.1217
-19.9231
0.384872
-71.4159
-14.303
-62.0337
33.0794
32.2232
29.4012
31.8341
51.3571
26.4872
23.5289
32.6752
20.2658
20.5912
31.8518
20.7151
-31.3025
-40.157
9.42647
-36.734
-28.332
-26.9922
-20.6836
-54.9013
-28.4122
-14.4286
-46.3502
33.5175
25.2117
25.2983
20.9735
40.6817
94.7817
101.61
101.326
102.897
66.1138
63.0136
78.3922
82.0941
73.9131
28.8288
31.3673
30.3461
43.0173
73.3631
32.157
29.2261
32.0159
21.0402
31.1676
37.138
32.1865
34.5971
26.4056
-2.24935
20.2555
29.0183
28.1772
30.1854
37.499
21.6738
31.4702
44.6094
31.4503
-15.2828
49.937
11.9343
31.5464
-40.8374
-15.8233
-3.41124
30.2214
67.5913
67.6893
-47.8355
20.8387
-20.415
75.1289
26.2196
28.8463
29.2804
18.968
21.7432
32.169
-52.1042
31.0472
32.0193
32.9786
21.6936
4.73866
8.57429
-38.9326
2.06449
42.8438
-17.0296
16.7435
80.4086
76.858
31.3572
72.4799
65.074
17.5478
-47.9764
98.3022
-129.872
56.4057
57.6117
-76.154
51.1424
41.3387
75.8907
49.294
87.095
-7.14549
-15.5081
65.308
0.0283669
37.5042
35.58
33.7342
28.9513
28.165
27.0177
26.4902
30.7028
-97.8716
-52.9609
6.3285
10.7575
-52.8998
30.6503
-20.1872
7.88934
24.8076
19.394
29.6105
98.7737
34.4466
-2.26591
27.8871
32.6002
30.6336
32.3215
1.23494
-10.0822
9.42747
0.890995
-5.20316
1.28657
33.1494
35.4739
16.4055
36.2897
75.1798
24.4765
28.3302
40.9183
33.1717
55.2512
15.5234
36.9067
50.4065
-32.4476
32.8443
-44.7169
29.5629
52.9145
51.0256
-4.50125
31.5548
-1.3779
14.5296
42.3501
39.4819
35.4193
39.0203
19.7225
32.9007
28.9962
-5.45277
-22.668
12.254
1.21805
3.47131
7.53028
28.7669
30.328
3.80438
69.339
29.9708
30.2828
84.6327
79.3501
29.5182
31.5933
32.2059
93.1523
30.5033
-44.9247
29.1586
12.8603
29.5645
42.9597
80.4889
36.2254
35.4019
14.2507
27.8746
-0.351909
12.1509
-17.8112
88.907
96.9312
-31.1748
78.7627
18.0685
84.3753
27.381
-52.383
98.0963
90.5994
94.9034
27.6337
5.59154
36.4925
28.9084
101.262
25.5063
96.4602
-20.2471
-33.0863
-13.5066
76.1753
26.4366
31.0841
34.8219
33.6902
34.1114
6.83701
85.981
31.9362
42.8637
21.3971
34.9797
42.378
101.894
21.5613
-21.3356
78.4092
72.0657
42.0827
63.8819
37.4918
24.8789
37.6318
74.5603
21.7779
3.99401
-9.91128
39.7631
79.0473
-9.20627
56.4245
44.3985
-0.433031
91.2277
23.8556
25.2889
-33.9625
-51.7424
-8.79893
-21.1563
20.8471
-0.568573
13.7355
74.2217
46.2861
40.8834
32.6392
31.0189
23.035
3.31411
-64.8326
34.8932
38.1678
34.0509
32.7122
40.7181
86.186
18.6064
19.4996
65.6388
87.0605
11.7551
-36.0144
28.0036
20.7982
96.9253
18.4107
-42.407
9.4778
30.2692
-11.2869
-8.87852
-3.86005
-29.0143
-57.1662
35.1136
14.6399
27.3605
48.3631
44.8473
43.6709
11.849
27.9744
-50.3248
-9.15784
23.959
-31.4148
-45.3886
103.246
17.6198
-28.8452
31.8757
-13.16
-2.52836
31.4684
9.87634
-37.0645
2.71408
-3.56848
-16.4214
32.5431
26.4037
-28.5831
28.1297
21.4926
31.4328
29.3214
28.8492
25.0653
27.9628
20.1295
-0.0259822
-47.5884
32.2869
37.1923
6.38744
34.3675
3.64879
34.1914
32.3067
-26.6159
45.6895
-20.2256
27.0035
27.8816
-33.9532
15.997
50.0405
57.0732
28.8982
36.0005
-44.8286
93.7741
3.34397
-50.406
29.6737
18.8878
26.1227
28.2664
30.1779
28.3003
20.3346
-4.24012
-19.3749
-53.1232
30.3268
20.9
32.4789
32.4566
27.3591
23.8908
21.3236
25.5702
22.813
31.1953
-30.7662
-22.6771
-14.5428
31.7973
32.165
22.8586
32.1165
-22.1548
31.1999
-7.72219
20.5635
-38.3266
-32.2081
-3.24804
25.7488
-26.8761
19.7391
29.0901
24.8813
-10.4243
28.9155
31.1467
23.432
27.0202
14.662
-25.2022
46.9306
59.4658
80.8099
42.3943
-30.2846
-21.6865
-22.0603
42.5638
-13.4251
28.0044
8.65402
28.3623
26.7431
17.7151
14.0938
-12.0683
29.5887
26.827
29.6278
30.2967
36.1489
26.9187
26.9997
28.6927
23.8611
17.082
31.6647
31.7392
32.5578
56.8903
-0.816528
9.11028
14.3444
11.6312
5.18233
4.06541
-16.791
-1.25746
32.2891
28.2434
19.3005
32.8183
39.6878
30.4214
32.2288
33.1272
75.245
75.0575
29.2712
-35.632
7.1616
28.4302
29.1881
37.213
18.5163
-18.6578
10.1901
29.8691
37.652
33.0137
25.5459
11.2539
8.10002
22.203
32.4649
30.1393
84.4234
-60.8039
31.9266
-31.8541
-4.49565
-24.49
7.66923
9.32141
23.9647
-39.3321
30.6375
29.1504
29.9714
32.3528
34.2729
-100.388
15.3838
42.3328
11.8495
-56.6326
4.81132
54.3578
47.4575
84.5928
49.4324
21.5063
26.8725
-30.9132
26.6131
84.1681
36.2279
53.318
-24.7673
-53.4167
-29.4107
89.3495
2.46979
47.7656
46.4108
104.524
-35.5908
-21.2985
23.339
99.9432
79.9518
104.765
100.388
26.6553
4.41161
47.8547
30.3339
-42.603
-16.0639
66.0301
94.0115
5.24336
30.6191
31.51
31.9248
37.9518
38.2079
31.5979
25.0613
33.8555
45.7197
31.4804
47.3891
69.4408
7.74861
71.3219
77.4319
6.10624
59.9231
26.4334
27.8245
29.5721
31.8255
30.6353
25.3753
-14.9507
-27.5088
31.7857
-49.4123
20.4377
32.0355
22.8257
22.7926
27.7372
-41.6171
-35.7501
27.6417
-31.008
3.01281
2.9484
-40.1248
33.7181
3.32766
25.6451
30.3818
46.2778
36.5344
39.9767
8.00938
24.8548
-8.6301
36.5023
11.9922
23.0171
25.8528
31.2195
30.3465
32.9218
29.6256
30.434
32.0372
29.8384
43.6359
46.8191
13.5762
24.4831
35.7102
-30.6959
-8.50746
-31.0081
-32.2459
86.4999
-25.8043
34.784
104.883
-30.6696
-31.029
34.3493
-49.9293
38.7864
-28.4254
-26.8982
-23.4621
-65.8675
29.6849
-17.6009
6.49861
90.0691
-20.0184
-7.34734
-56.2747
-63.7668
31.1027
29.6111
1.05609
96.4979
30.4909
-2.80818
-9.774
-27.1902
74.5553
3.1059
-10.1975
24.7516
25.441
83.8496
-39.7253
28.4268
88.2301
19.5823
-7.8757
-14.241
15.1371
-10.3088
16.6902
18.3077
-3.50164
28.1795
-11.1286
101.792
-22.9811
-33.906
-27.7485
-37.1349
7.19025
38.5649
85.3468
60.0198
31.6045
32.0864
29.4622
23.5967
-42.0331
94.6924
-34.4023
99.5884
104.9
104.688
87.118
-19.9331
6.77497
-2.6417
71.6249
10.8982
95.2264
-6.91298
89.2239
33.4811
6.60015
42.2982
33.2833
80.8498
66.9642
82.733
36.3451
104.044
83.6731
71.4525
74.4163
10.5609
3.24606
-15.4572
-9.34629
31.0013
-7.08441
36.2247
-8.73106
-4.08978
-27.8738
-0.651745
24.5379
26.0382
-4.21755
46.2245
0.652633
-3.37558
-29.0386
-37.2517
-8.72347
-14.3248
-19.2165
32.3031
-1.34288
29.2646
33.0788
33.7418
15.1817
25.8002
85.2654
33.3079
14.5933
31.4714
23.1915
-74.4831
-36.6661
4.3663
17.5034
20.2112
-26.9559
32.4661
37.332
58.5786
85.8674
31.8235
32.0826
32.4935
45.9513
32.7345
1.17599
-19.4513
-55.0096
32.4881
22.4729
-25.5865
-147.11
23.9692
-72.6867
32.5131
78.0317
4.83289
32.1034
32.3384
30.281
30.031
22.5524
45.7188
31.6714
32.215
-120.574
84.9586
-50.4066
81.2361
39.2692
52.4511
34.3137
29.1143
24.1971
30.496
28.8453
28.5191
33.4609
33.607
10.7784
-47.9625
2.35015
24.1032
46.4605
33.6805
49.4293
21.5187
55.0906
29.1775
54.881
11.2784
32.9969
41.1805
33.495
45.91
56.0842
39.7838
-24.0897
49.5681
81.4052
72.3939
47.3666
33.2797
50.6653
9.18612
6.47646
84.8135
-8.9158
53.6051
26.8215
99.6564
32.0428
50.3609
31.8387
32.3776
32.3812
26.5442
48.1268
26.207
20.106
24.2527
-5.18025
3.99034
-1.61275
22.1476
27.7812
42.9122
-31.36
24.9576
24.0471
-23.8123
-28.2637
36.5551
1.26482
43.3557
-37.6472
-30.2789
-30.1757
-122.869
57.5842
60.7974
90.0411
103.062
59.7636
30.948
25.1887
17.0057
88.9321
89.3562
-25.7202
93.5967
55.9221
-22.0313
20.1502
52.7654
8.8229
18.8951
1.24716
30.8958
33.1816
-6.90002
-29.9064
66.7468
-56.2281
55.9078
79.3696
7.06029
44.0394
-4.82842
41.8305
-15.0293
-47.2506
27.8146
43.6024
-1.52011
-1.45216
-35.3627
-30.6538
-32.8759
82.5888
42.5454
62.92
74.4241
51.6277
-7.0978
82.1855
103.738
51.2741
100.772
-21.3335
47.3448
28.9502
32.4046
32.0415
-27.8878
4.59772
7.11503
-31.5997
-36.56
-33.8798
38.5928
27.7548
-30.5778
-40.1143
-19.578
6.73018
14.5175
46.1544
22.6469
44.0355
58.4939
42.2927
65.639
66.213
65.6271
-29.3922
30.8583
21.9086
-26.3739
6.48145
-13.8441
-2.03503
17.8481
-52.675
26.2169
40.6245
31.4843
32.9475
31.925
9.12149
28.8941
17.0685
-41.9373
15.5336
-39.3755
-27.2347
-17.0682
27.3318
22.6003
24.7491
29.4105
27.0919
20.3622
-7.01806
30.1392
-14.4271
-35.6557
20.9921
27.3363
23.453
49.0506
43.2176
29.5192
32.7516
-17.3345
-22.7618
-46.5463
-28.7428
29.8503
25.5916
-30.7746
29.3433
33.9552
28.1742
24.145
17.4887
35.9989
33.3531
30.9208
31.3185
36.2844
4.92315
23.0787
75.5827
22.5302
24.6357
30.4166
25.6971
22.823
23.6654
-14.6755
17.0242
-75.0284
30.341
3.05552
0.207961
25.1558
22.4141
26.0465
28.8797
30.1536
-34.3427
-38.336
-34.1182
-29.1637
-30.8771
-32.753
-0.178388
-29.1391
-28.5593
-28.4536
-30.1002
-27.0671
11.2043
4.70506
12.4486
14.4509
-0.333788
23.5939
47.0138
33.3472
43.6074
-0.584777
29.9998
93.3723
94.5626
85.8368
86.0586
90.7884
90.7587
96.4963
20.043
-30.1978
47.4333
23.0475
27.256
27.1206
-10.5511
30.4771
32.0157
33.4489
28.4983
19.5699
-4.90624
-17.207
-2.7171
47.7936
3.84865
16.0775
-9.17526
-58.6696
20.2874
-26.2699
30.2405
30.5249
32.7519
-33.764
-33.5215
-30.6223
-30.5233
-27.2736
-15.7825
31.3054
-7.39856
-26.8769
30.9808
31.9401
6.30694
-47.1726
10.832
30.2338
29.0937
9.58922
17.0613
-42.9136
95.7626
55.2571
43.7824
-35.42
95.2851
-27.8406
101.203
99.8417
98.8857
28.7878
17.5817
22.7927
19.2631
29.3904
28.9651
18.4281
26.7389
19.1857
20.0367
1.74502
70.7482
17.8539
71.33
22.2434
-3.68716
75.6573
48.6255
34.1509
23.8619
20.5797
-23.279
-25.6588
5.90988
12.9824
30.3284
32.2708
29.4263
30.8915
29.8119
5.43324
-35.9455
-3.75639
29.3788
23.9315
89.5066
93.2331
96.3227
80.43
85.7906
72.9187
38.2823
35.8072
36.1668
35.798
74.8317
61.3799
67.0655
31.8463
32.1648
94.6402
80.1383
79.7868
85.4491
39.195
87.4735
99.4641
91.5172
88.8624
-15.6359
-13.7122
-15.0075
53.3145
31.0524
29.3464
29.9188
78.4377
74.3314
81.0521
-32.0009
-28.0378
85.988
97.2919
-51.7493
94.765
99.714
-41.9848
77.2706
61.8717
-66.8215
-112.074
31.0041
-41.9341
69.8701
83.9898
-29.0829
29.621
31.5427
-2.80755
-7.87302
-34.7714
100.859
-20.3109
16.599
33.0622
21.2686
23.3136
26.2265
-3.36564
26.0659
29.1189
9.1086
-31.919
-52.1269
-17.5459
48.0289
82.1462
16.1491
14.0924
92.2209
90.4074
73.2435
-29.4988
18.0819
19.1306
17.4604
-28.6595
39.4415
-3.8768
-9.09485
50.1652
-40.3828
98.5471
-60.3684
-25.182
-64.7528
-43.0886
-10.7311
-33.728
77.7482
12.508
19.8377
48.0987
21.5533
24.8233
-59.4386
-9.90375
-11.6848
4.85033
-11.7756
-7.92143
-25.5403
16.791
33.1555
21.9246
-31.2788
-25.5452
-26.4386
21.4655
-50.4168
-25.351
97.4276
102.175
80.053
81.1833
96.9799
89.8781
-71.9057
-15.3642
-39.6313
79.0015
99.2334
35.3957
29.8777
39.1454
31.5123
32.6761
24.8942
24.4604
7.55651
30.5707
-2.64219
27.8109
31.065
31.3021
28.1783
17.7926
23.4426
10.863
24.8455
33.287
27.0259
42.6745
11.8368
8.3031
-73.5747
8.94772
24.8222
26.1623
16.271
-17.4999
-8.6716
-58.4624
-28.7931
-25.5033
89.1414
33.2784
32.7636
31.5832
32.7264
20.376
-15.3665
-6.614
31.5627
28.1806
30.8368
17.0092
32.2493
17.4497
23.4536
25.3997
1.97013
28.3716
24.9093
-10.7397
106.315
84.3471
-41.1998
86.8466
-65.8022
11.6592
95.6172
44.1946
5.12857
23.1433
42.7777
85.1639
79.7984
94.365
100.472
97.1627
24.3883
-40.3464
33.3713
14.5711
53.1152
28.8431
23.6224
10.9907
-3.32128
7.77425
11.6958
28.8087
-25.04
21.4364
13.9293
-54.9222
-33.7373
-27.4492
-33.6676
31.1398
21.6569
22.2054
32.5219
27.3924
25.2064
30.7334
-22.6367
26.6311
31.4138
-30.0931
-33.7873
-28.3317
47.866
28.0011
10.1206
28.2043
30.5478
14.9292
103.426
95.3707
32.6403
74.0766
39.556
64.6107
69.7588
29.3922
47.3946
34.3695
30.75
26.4271
-0.0418433
11.4622
29.2273
24.1725
24.4738
5.36082
28.7951
39.8583
23.7855
-17.3582
-21.4771
62.5782
63.4995
66.3282
-18.3053
1.29096
28.271
-51.0623
88.4103
100.763
88.1929
66.4618
64.4828
105.051
40.6302
33.5793
54.1997
60.8367
73.9835
92.2732
5.77964
41.1814
29.1353
29.2791
27.7253
28.4041
29.7832
27.1687
29.7909
29.9477
21.6442
31.4514
42.2922
20.8648
32.3835
-10.3773
-11.2024
55.0096
86.3867
87.9464
36.0933
13.5088
89.0892
59.1646
31.1226
60.8624
28.5645
33.0253
8.06556
30.6987
33.4786
32.5668
98.541
15.7228
5.4841
27.6008
29.8535
26.1857
24.4965
9.76288
-18.749
0.889807
-34.3054
79.4935
81.6271
88.3122
83.6899
90.2755
84.0089
-18.6527
27.2416
19.9673
31.8102
26.1243
0.224113
29.9306
24.1134
29.9609
4.55713
-20.4777
29.5261
20.987
25.7973
-20.3959
31.7083
25.4036
12.4572
-51.5087
74.6957
80.3088
-27.74
78.5858
43.5102
60.6551
79.326
23.6087
28.4415
30.263
15.7113
26.423
33.061
32.3613
-56.9602
-29.7493
23.1442
-9.7869
5.12881
-12.4136
26.2439
11.7878
-14.1194
35.398
36.6153
68.5425
98.0618
-25.4071
50.7335
-51.3179
36.0965
18.8319
34.232
89.5242
-9.00757
24.9128
24.1002
29.1673
15.9357
30.025
31.4666
23.7908
27.3654
27.8475
15.9263
28.9376
29.5483
24.0505
19.9244
-21.8045
-34.6812
34.3528
-28.3394
-7.85212
-26.1172
-34.3589
-27.3777
32.0814
-1.04123
29.9096
28.5932
22.0343
29.4618
-64.4122
40.0107
-22.4469
-21.7262
31.789
25.0957
15.1679
18.1098
29.5571
26.3461
-1.59722
16.7074
24.7093
-28.9991
28.6091
30.8424
28.2972
31.307
14.5035
34.0354
31.354
15.321
23.9923
-27.1948
30.0099
29.1396
-42.5105
28.5793
10.3826
-29.1619
18.5265
25.5622
21.4131
28.3434
30.3352
30.0821
6.93593
31.4119
35.8728
9.2771
4.45032
27.1276
27.9109
-35.4932
19.5255
9.04975
23.1433
3.10104
14.244
-21.9611
26.225
-30.1013
-30.1624
-27.3608
30.1312
16.5357
-19.7537
4.57887
33.3754
31.8309
5.3402
46.1863
31.6054
52.9534
57.7133
-60.6961
33.8104
-26.9859
-11.9266
33.3509
-27.5821
-34.916
8.65162
24.7223
-2.74927
26.1116
21.3527
-6.71105
-46.4936
27.836
25.768
23.0508
29.2136
17.0932
32.6597
31.8193
25.8134
8.40798
11.8618
90.9232
-3.64008
-72.4062
-4.01527
-47.5228
-8.16122
105.17
39.5666
-33.5103
-72.8753
-20.6865
-34.4691
-76.8193
-26.9938
-19.1354
-26.5588
-7.28398
31.4547
-25.46
-24.2162
-19.581
31.8076
27.4858
29.8099
15.2389
-28.6638
-132.203
-19.107
75.3761
-28.7417
-45.4753
-64.1267
-78.5092
-4.36473
96.8993
1.4134
-34.1885
24.8986
-36.9357
-26.6821
31.9156
89.8959
-7.85318
23.1583
24.6917
30.1315
30.8188
31.5405
29.2509
27.6651
18.6605
11.6878
19.8927
-0.819743
80.15
-19.5735
29.1713
-1.1279
5.3572
30.2264
103.636
39.6357
17.2334
31.7565
44.8862
40.7961
21.2688
29.9816
-12.3675
12.3882
-4.53855
8.99603
-27.959
24.2363
77.926
-16.059
31.2335
1.56693
21.2776
11.3356
19.1569
-4.29127
-28.1977
-27.3078
98.9653
-34.3772
-31.5324
0.649408
83.1727
-4.56055
-27.7788
-62.2184
51.4463
-69.0687
-32.8795
103.867
-67.1014
104.781
104.53
-30.5539
-53.654
81.4227
17.1596
-28.6199
23.7445
24.5186
24.8075
27.4485
-7.44169
9.51746
-47.5499
-16.1783
-12.676
103.944
-2.54731
93.0305
-8.97809
8.10461
36.6442
-3.05725
-29.448
-25.5313
40.2979
37.845
33.0957
36.5858
40.4417
37.6148
24.9848
-9.55391
-11.4716
23.6179
-73.7806
-29.17
-31.1567
-77.0114
-32.5126
-5.99087
2.41091
-36.6676
-22.9299
-26.4376
-49.3277
-7.46557
31.0821
-41.7194
-17.4993
-27.5533
-3.66707
-28.9985
-29.0591
26.6223
26.3551
27.5394
26.2167
19.3116
15.7185
31.1647
32.0116
31.4141
31.9365
32.7508
32.0758
32.6508
32.1718
-26.9066
30.6888
32.1896
32.6335
-43.0344
32.3835
32.1409
24.1983
22.0971
23.418
27.4101
15.2416
21.3479
26.9663
22.9344
31.6697
22.9529
19.8
21.77
22.9565
29.697
29.8497
31.7347
-4.85524
-33.6669
38.6299
40.8022
-54.1394
-80.1902
-51.87
36.2768
35.1053
-5.11466
-3.90353
-48.8261
19.1923
7.60615
28.9098
27.5003
29.5175
29.0331
27.6569
-8.13412
0.427971
-119.177
5.72074
15.2528
17.4486
19.9938
57.55
79.5458
86.7219
40.376
-9.62612
14.2624
8.10421
11.18
-71.7661
-47.003
-47.3452
-25.5182
6.33555
9.909
29.7662
39.8962
32.4955
-25.8005
9.99419
16.0871
31.0434
31.8034
32.8384
29.2414
11.1447
-23.264
76.9774
34.0606
27.6516
45.3614
24.6781
-62.0392
-8.32855
-54.5933
25.3874
13.693
27.8033
100.029
94.3671
102.648
99.6062
104.621
25.6227
33.3274
32.0632
33.8229
31.505
16.0335
12.8166
-124.216
-57.387
44.6375
4.36724
20.5315
27.621
27.7775
45.9288
59.0684
45.8219
29.691
82.3978
98.8968
29.0802
39.0135
76.6971
50.2592
17.8161
29.6875
11.2235
14.3686
24.9546
29.7458
27.3667
25.2403
31.9392
31.7179
6.72283
27.3866
30.1695
30.2973
33.3405
32.1254
29.3884
32.1354
33.4697
30.4803
32.9649
31.4745
29.9556
29.321
31.5462
-118.232
36.8793
38.5722
-4.13699
43.3662
33.18
33.703
97.4437
93.9207
90.8545
83.8737
47.1437
51.2286
50.9655
43.3462
40.4028
50.1299
44.7603
48.2166
-113.145
32.3156
-0.586857
-32.6674
53.5702
29.6823
60.8115
52.4146
31.6089
5.86255
35.8793
28.9211
51.5317
35.1638
-12.7404
68.8422
64.1515
85.5183
53.2768
76.7691
39.0464
36.7034
40.3292
72.2546
74.3065
70.1509
88.2775
63.7615
74.0961
75.8275
39.248
42.1217
36.0851
26.429
31.0765
29.6717
32.0665
26.6308
13.1208
30.4677
29.1845
30.8865
30.7383
-0.145301
-11.7191
-65.2168
-5.44076
36.4943
25.4045
13.9217
38.9714
-71.7744
-18.3405
-6.63091
-41.8964
44.3549
45.811
41.9923
36.3681
30.3207
39.2726
85.859
36.105
104.783
42.311
43.6986
104.794
86.868
92.1344
38.488
-1.624
40.8647
28.7335
51.3642
56.0777
31.3102
31.8249
30.3152
31.4923
-18.5287
3.2255
-23.2979
57.247
83.5224
87.0939
44.456
47.6484
23.8623
22.1033
39.4385
56.0964
32.5097
23.7619
13.9903
21.5023
20.1473
-25.9607
-35.1225
4.20875
-40.9737
62.206
68.3937
30.3843
69.8871
30.1168
17.0886
45.5661
94.8983
-5.39714
29.3017
47.7995
-70.73
-13.2972
6.23391
18.1856
12.7758
23.3507
11.3395
4.24821
21.0949
32.3153
14.7619
16.8462
11.3774
-15.5959
-20.8872
73.2448
50.5094
106.872
11.9078
17.2144
-30.1748
40.8726
43.4596
65.6103
47.3282
43.0071
59.7215
84.2618
28.7364
23.0411
41.405
37.2493
50.4441
50.8762
75.1977
10.36
24.1412
28.0215
28.0032
26.8827
28.11
49.2483
1.79254
-7.71857
-68.5556
14.0777
-13.5178
18.263
29.1596
18.4755
10.171
27.5728
28.9622
46.3353
34.1452
27.8813
16.2741
-29.0685
8.9641
-37.1747
-69.2914
-34.7984
-31.2933
-51.1382
-4.46946
-2.36653
-40.2314
16.2577
13.4716
-23.614
-16.627
28.6673
31.6905
33.1301
27.681
31.3913
30.893
27.6059
24.2719
-17.0502
-68.8739
22.7779
25.3994
20.7875
32.1733
17.263
22.3885
-27.4929
31.426
33.1667
30.6328
32.1395
30.6189
30.4223
30.9943
30.2839
31.2454
29.3016
29.9941
31.1925
31.2823
23.31
22.3864
26.519
27.1642
28.372
29.922
32.12
22.7764
30.2063
27.005
27.0554
13.7398
30.7837
-18.0286
-11.0123
21.7607
21.833
87.218
-39.4869
-27.0394
87.7633
97.5106
86.166
21.0137
57.3601
95.7089
58.8423
30.0406
94.4951
-22.7958
96.2729
-4.70904
-6.17413
-11.0658
1.23334
-32.5058
10.833
-4.51887
14.7968
-26.8093
-58.1195
24.0583
8.74582
22.4897
6.20863
30.6224
29.0147
30.4534
-18.6665
-69.3319
-8.68253
28.5934
27.8401
-32.5
15.0595
-14.0579
39.3419
14.8961
29.844
29.8702
27.239
30.408
35.4842
10.5006
-11.6547
31.1842
11.3362
93.9433
3.3172
24.4389
26.9681
27.2253
81.4524
89.5809
85.3348
84.8294
99.4332
105.292
67.388
105.423
96.0655
89.025
-48.8395
-44.5589
-11.4301
-71.9259
10.0073
12.7738
-36.0928
-20.0729
0.343429
27.6001
70.7301
71.0505
69.593
-56.5221
-26.1641
22.2142
-52.5312
-64.4481
26.4285
32.2022
31.3363
31.8936
31.7063
33.403
31.5469
31.8604
32.3087
31.5182
31.9236
-30.8437
31.5467
21.5362
30.6147
31.9576
19.0914
31.5737
32.6941
18.3156
30.6483
27.9207
20.213
2.91709
35.978
28.3003
29.4226
79.3814
28.5502
29.7325
-11.0865
29.7538
-52.0634
-34.8429
-0.597131
33.8006
-20.5881
9.43907
80.372
-18.4009
-16.264
-54.8369
4.30263
-26.127
-20.8041
-64.1516
-7.62567
-59.8888
93.0491
-27.2511
-20.9625
-28.4568
-55.7882
-36.077
47.4859
30.2656
-30.7451
-27.9712
-9.2243
30.9448
-51.0683
-33.4596
-25.9497
25.5513
5.16621
9.93164
6.62345
-0.666487
-17.897
19.9527
-10.5005
-47.1132
28.1263
1.95474
-51.4503
44.365
57.6432
49.6051
99.7361
45.8549
30.6919
29.2947
27.4078
32.1814
30.6489
30.7977
31.6803
47.9221
46.9651
-49.19
27.2845
26.4427
19.2721
19.5126
20.9972
24.4478
30.9742
32.638
32.5237
18.5099
30.4923
27.7409
30.561
31.2476
32.4856
29.9353
29.9006
-28.9037
-16.5622
-20.3157
30.4639
-4.91977
25.141
18.1429
17.3342
12.9635
25.5288
20.6266
31.3907
33.1874
3.26954
-23.0833
-41.6652
18.3576
-76.5215
-15.8593
35.2485
9.47556
30.0173
30.7274
31.3864
23.9458
27.6397
23.4375
27.5019
30.3642
27.3699
23.2562
33.789
31.0106
18.8259
29.7581
28.7115
9.44429
-22.6775
-32.3802
-21.1675
-11.0236
31.1445
29.2364
31.6159
85.8842
90.2687
98.6931
85.5301
-31.8121
-32.3623
96.6238
79.9344
99.4363
34.1381
43.6498
31.7988
32.8014
28.004
14.7021
15.9096
-67.4779
-44.0682
12.1811
15.7104
9.78579
15.1691
12.666
5.79514
12.8358
-17.1746
-19.4832
-17.5101
-41.146
-35.4595
-43.4499
-36.8516
-40.9578
-51.6978
-52.0944
36.9938
51.0087
-55.1942
83.4513
-31.8202
2.03546
-42.289
20.3262
12.3301
1.89311
-16.2566
14.4579
94.1556
-74.0847
-73.8167
-24.2854
-34.6722
-30.5366
-28.7654
-36.8335
-12.074
-1.45347
17.8218
-56.6666
7.46224
31.771
-4.59657
-21.3823
-13.9641
-75.1154
83.2271
-36.6502
96.2326
100.362
-28.3816
-32.0349
-17.4146
31.3013
91.4222
-35.9788
30.7163
29.0815
30.1336
22.6138
23.4198
32.1751
-14.8931
30.1978
-6.06448
-31.4484
-25.4726
-25.9767
-23.7076
-52.1055
26.8511
-25.2961
25.0515
24.6072
22.7182
28.1622
50.0447
55.0135
19.072
19.5207
26.9531
-60.5072
-17.4726
-31.8711
-30.8739
-30.6596
-7.84016
93.1523
91.8088
-51.3807
30.229
28.0746
33.4735
32.2211
33.7244
-12.743
6.3716
-35.9135
10.0224
35.1617
19.274
31.4881
25.4374
15.8604
33.0992
34.3347
34.0288
34.3838
29.0374
1.39351
-11.0807
-54.4083
-78.0943
39.1962
48.3679
32.4992
35.3853
29.064
32.8915
34.6777
28.916
27.7605
-36.6465
-27.2313
-59.7002
-54.0712
104.148
29.0276
20.2885
18.3917
24.4359
-36.8032
105.019
100.858
102.389
106.066
90.7877
82.3914
-14.9858
46.7461
89.7076
-20.089
31.9085
-17.9735
-4.62877
28.4849
31.6979
24.7718
28.7174
14.0032
17.1833
9.74577
-12.5818
9.97398
5.83162
5.2854
51.187
67.8774
56.9903
-31.4746
55.9034
60.5662
35.1017
30.9814
-1.94381
22.7476
18.3391
16.868
-12.3873
24.7412
7.57884
28.5048
-7.28994
48.5451
-7.69429
4.09141
-131.574
-87.7066
25.7555
39.668
-23.7969
26.7109
25.3274
49.2318
48.4967
96.6434
92.7032
71.5315
-1.20431
-29.2632
5.85524
29.3755
31.6587
27.9579
30.5623
22.0137
31.5098
21.7236
17.6848
18.1141
47.3919
5.36486
3.61691
9.53133
-25.8124
8.82671
-20.6138
-14.7819
-0.543102
25.0779
12.9153
33.2558
25.664
19.5624
30.9783
34.7677
39.245
37.6531
36.6897
28.9376
71.1731
82.6276
96.7333
26.2255
34.5442
58.0384
77.3135
89.7886
65.1661
88.699
48.0459
7.98213
13.6307
46.749
46.4917
29.8931
77.907
21.8567
50.8083
34.0706
33.163
31.4249
-16.3267
-50.0733
67.545
90.9137
89.4602
39.7785
69.8751
86.0949
24.9757
29.6907
24.7001
-17.4538
-34.3405
69.9908
62.8892
79.2839
69.8952
45.1229
-10.0383
54.4172
36.4171
33.5314
24.112
29.1546
33.4095
9.73811
33.2894
31.8164
0.634703
-4.36808
-13.8638
-13.4939
15.5001
29.9783
39.4702
36.5429
31.4795
101.744
32.377
31.9877
38.4936
-37.649
-23.8357
23.367
33.3307
13.5979
12.8513
29.2547
27.7267
24.225
17.5333
29.5742
20.0313
4.84662
-5.3966
-21.127
-30.7437
-32.2593
-8.46024
16.3421
5.19225
7.09641
-35.8777
-23.3188
-27.4094
32.3924
34.9362
31.9042
29.0562
27.4446
-30.8198
14.6316
13.2417
39.0688
54.2931
36.0969
35.9617
28.2965
31.2537
31.481
31.1182
32.5777
30.7627
29.099
29.383
-56.6418
31.0348
33.8802
-26.9003
21.3896
24.1129
-65.6899
14.888
-1.84438
-25.4916
-24.7052
17.0175
19.5773
-45.4361
80.5226
27.6181
28.6143
24.483
30.2695
26.3594
27.0421
99.5089
2.11247
26.3643
-6.32273
-21.0553
20.0729
-23.5948
19.0555
19.9325
19.0003
5.14512
29.239
30.1137
24.7912
31.1053
5.48564
32.0562
14.3984
-12.2483
13.7439
27.1825
23.9405
-31.8317
33.9128
84.2774
11.2867
5.24382
15.6654
0.0493925
-61.426
-23.448
31.286
29.1478
30.9052
29.0166
30.4241
18.6846
40.7779
30.6801
25.7787
44.6933
42.6319
-3.35789
-2.24103
-23.33
11.1379
8.24527
47.2005
31.6748
65.0749
88.2454
40.7455
79.2625
43.1441
74.3471
73.3513
79.0787
23.1942
-110.716
29.9936
30.255
20.5979
31.0767
35.538
19.4192
48.1214
49.879
-9.59676
62.3492
55.6469
40.4262
39.8536
32.316
16.8934
33.8711
18.7194
31.3459
31.7586
25.7964
11.6309
-15.1399
33.7782
31.8178
22.6775
23.1321
21.6153
13.7593
15.3797
20.4997
13.5773
38.0467
38.7236
36.5881
38.0828
40.3366
35.3083
39.1232
74.7955
78.3644
74.776
60.1756
78.6526
74.1744
72.3101
71.6245
-1.18894
92.4174
11.0807
91.4992
57.1667
56.1429
63.3759
45.5785
45.1924
38.04
41.3659
87.3212
89.53
99.5117
31.9433
99.0543
32.2315
96.1422
-12.6374
42.1636
34.5789
41.1606
31.1671
33.4592
32.6959
32.7744
32.7058
-8.20471
-50.305
-15.9238
-23.4676
71.0916
74.1437