/*--------------------------------*- C++ -*----------------------------------*\
| =========                 |                                                 |
| \\      /  F ield         | OpenFOAM: The Open Source CFD Toolbox           |
|  \\    /   O peration     | Version:  2506                                  |
|   \\  /    A nd           | Website:  www.openfoam.com                      |
|    \\/     M anipulation  |                                                 |
\*---------------------------------------------------------------------------*/
FoamFile
{
    version     2.0;
    format      ascii;
    arch        "LSB;label=32;scalar=64";
    class       volVectorField;
    location    "0.0100321";
    object      U;
}
// * * * * * * * * * * * * * * * * * * * * * * * * * * * * * * * * * * * * * //

dimensions      [0 1 -1 0 0 0 0];

internalField   nonuniform List<vector> 
3918
(
(1.82379 -0.525944 -1.84505)
(9.84614 -0.174742 0.0634266)
(11.0629 -0.22054 0.0301539)
(11.1517 0.058757 0.950191)
(10.7162 0.220047 -1.30205)
(2.82606 0.765849 -6.9537)
(2.60479 0.23777 -10.4384)
(10.7014 0.036152 1.93562)
(9.54635 -0.209461 0.0467829)
(9.54164 -0.175557 1.42151)
(8.32099 0.129563 -3.37912)
(-1.21582 0.253043 2.46597)
(7.29566 -0.777916 -1.44757)
(12.4394 0.172223 0.322164)
(11.1399 -0.0329269 0.651555)
(6.80207 -0.349227 -4.87845)
(5.30066 -0.068109 -5.5709)
(-0.275476 -0.738873 0.781683)
(0.0501885 -0.694085 0.385803)
(9.46908 -0.0174554 0.872622)
(1.3572 0.282109 -2.63993)
(10.6329 -0.00710355 1.10959)
(10.3199 0.519398 -0.175903)
(-1.99008 0.997043 1.4017)
(10.8146 0.0430965 0.372565)
(4.20161 -1.84079 -5.74101)
(7.94603 0.31725 -1.96322)
(11.217 0.0764126 0.297734)
(0.495318 -0.740546 1.21157)
(5.2315 0.0871143 0.0891786)
(-0.909065 -0.614687 0.0182777)
(11.6697 -0.088223 -0.172795)
(11.2617 0.0233646 -0.0863481)
(9.09737 -0.264308 1.0589)
(12.0748 -0.0720181 -3.79846)
(2.27216 -0.375333 -3.61123)
(10.4603 -0.184416 0.729387)
(12.0935 -0.0401898 -0.385197)
(3.27461 0.711547 -3.06464)
(10.8441 -0.25658 -0.119435)
(14.1057 -0.146549 1.19582)
(11.0176 0.217182 0.0216318)
(9.41732 -0.238577 4.04252)
(14.0985 -0.0255595 -1.10938)
(11.5833 -0.135039 0.323311)
(9.19167 0.259393 -4.59443)
(11.3519 0.039002 1.37)
(3.89312 0.55209 -2.69103)
(-1.17226 -0.433482 2.10313)
(11.9053 0.251486 0.123643)
(5.9728 0.416092 -4.00751)
(1.08274 1.03945 1.24101)
(11.71 0.193934 -2.83502)
(5.08474 0.0492505 -0.869923)
(11.1808 0.0439303 0.159072)
(9.42966 -0.0525389 -4.6562)
(11.2515 0.00295138 0.396695)
(9.63993 -0.324941 -3.43421)
(12.5129 0.185066 1.73132)
(9.65966 0.0773486 1.30443)
(9.33862 0.329178 -2.65177)
(11.3483 0.21662 0.0362393)
(10.9217 0.0675304 1.57155)
(14.1028 0.0336188 -1.07855)
(10.4068 2.12311 6.0147)
(9.93202 -0.153039 -0.0637011)
(10.1936 -0.155761 2.05775)
(-1.30521 0.136526 -1.21401)
(10.9068 -0.147728 2.13251)
(-0.415789 -0.652429 -0.711621)
(10.7987 -0.0741587 3.44054)
(12.8595 0.15227 -2.16598)
(12.7848 0.577284 -1.31774)
(9.49586 0.0266329 -0.114646)
(1.83589 1.44202 -1.7076)
(1.75546 0.117749 -0.950134)
(1.97934 0.249255 -1.27203)
(3.37706 0.21512 -0.834871)
(2.5719 0.930216 -0.916352)
(11.7368 -0.037434 -0.000625883)
(-1.05451 -0.0881532 0.256163)
(1.02526 0.189194 -4.38025)
(4.44414 -0.049158 -0.0781172)
(9.1411 -0.211086 1.72806)
(10.616 0.157791 -0.411547)
(2.64711 0.426324 -2.20803)
(0.00779798 -0.850581 0.377553)
(-0.198565 -1.06654 0.78807)
(10.4448 -0.350361 -0.952678)
(11.4561 0.0462847 -0.175431)
(10.9237 -0.191747 1.64425)
(9.58631 0.0592908 -0.456152)
(3.06337 -1.8254 -3.54104)
(7.55121 0.402792 2.64962)
(9.91486 -0.280085 0.0149055)
(10.6032 0.238484 0.26391)
(-0.613067 0.216413 2.22875)
(10.2749 0.15171 -0.079773)
(-0.696843 0.933152 3.60124)
(2.48362 0.699989 2.4231)
(11.5878 0.0680871 0.06326)
(11.5584 0.0635837 0.108072)
(10.3475 -0.073999 0.664963)
(11.511 0.0550277 -0.038369)
(11.6447 0.0614228 -0.12997)
(-0.541799 0.202666 0.652861)
(11.4325 0.0312107 1.30621)
(8.39273 -0.104707 5.03806)
(9.97653 0.0922328 0.844998)
(6.60206 -0.0345045 -4.9627)
(-0.366637 0.0897048 0.50335)
(-0.487348 -0.124407 0.939514)
(-0.0286059 -0.0700842 0.279202)
(-0.347083 -0.407907 0.575219)
(-0.487672 -0.126282 0.968659)
(-0.624924 -0.31464 0.70751)
(-0.287105 -0.11386 0.271345)
(-2.10553 -0.349529 1.27505)
(12.6351 0.514625 -0.693005)
(10.2475 0.319488 0.721914)
(10.894 -0.0135081 1.102)
(6.16482 -0.503289 1.25331)
(8.58108 -0.478921 -1.91458)
(-0.683459 -1.47254 0.0110383)
(11.7294 0.0341613 1.29673)
(5.81759 1.09094 0.76896)
(8.84523 -0.107283 0.105684)
(11.7274 0.738594 -3.30367)
(3.88346 0.240535 0.47231)
(7.26234 0.597604 -1.88294)
(10.1799 0.231453 -0.382793)
(7.19158 -0.58073 1.80076)
(14.6441 0.13026 4.06054)
(11.9703 0.192998 -0.400892)
(0.153298 0.742256 -0.639646)
(0.90392 0.872007 -1.2681)
(-0.126506 -0.669611 1.06818)
(-0.831446 -0.561013 0.259017)
(-0.255374 -0.41655 0.346194)
(11.5152 -0.106634 1.24604)
(2.47525 0.534825 0.55053)
(-0.51662 -0.703435 0.741543)
(3.1255 -1.15975 -1.13428)
(1.72409 0.839833 -1.36946)
(10.3143 0.260592 1.16672)
(12.2124 0.148887 0.702915)
(1.40223 0.293269 -5.42718)
(2.23081 0.648019 -0.599684)
(12.2694 -0.202758 -8.20634)
(9.96571 -0.156984 -3.55299)
(11.8176 0.101696 -0.0397573)
(0.374444 -1.91435 2.78963)
(9.68269 -0.288091 0.257816)
(7.13336 -0.407693 0.693629)
(12.6578 0.0714147 0.314825)
(13.0017 0.602842 -0.562432)
(2.18843 1.52368 0.33188)
(13.0474 1.45866 -5.69776)
(9.68726 0.429786 -1.12139)
(11.0377 0.469009 -1.10059)
(10.5226 -0.134251 0.640752)
(-0.295374 -1.25949 0.465605)
(-0.235762 -1.28836 0.875678)
(7.42439 -0.737878 -5.96836)
(-0.200299 -1.7009 0.553008)
(-1.11433 -0.229242 1.15844)
(-0.486626 0.2076 0.36331)
(1.86209 -0.78947 -0.600998)
(-0.0819006 0.0688635 0.379499)
(-0.619162 -0.0245627 0.625861)
(6.34464 0.656573 3.27076)
(-0.419485 -0.474105 0.805236)
(-0.0861797 -0.332413 0.336766)
(-0.342088 -0.209675 0.34184)
(-0.665815 -0.440092 0.882669)
(6.25532 -0.204064 1.05339)
(1.84071 -0.94852 -3.4599)
(12.8774 -0.000650397 1.79125)
(1.33736 0.848564 -3.19459)
(6.69557 0.478493 -2.81713)
(11.5989 0.0290071 0.245442)
(5.19718 -0.18557 -2.44165)
(3.67929 -0.965435 -5.02756)
(5.43614 -0.257296 -1.66198)
(8.11564 0.15726 -2.88546)
(12.7853 -0.55465 -2.55197)
(3.74962 0.803377 2.56196)
(12.5818 0.244393 -2.61584)
(4.4851 -0.568297 -0.0314088)
(8.90685 -0.452873 -2.63137)
(10.8637 -0.0925912 0.204787)
(6.52416 -0.795607 1.14267)
(3.00945 0.304664 -1.13058)
(2.56646 0.955219 -0.460242)
(12.2954 0.435687 -1.32588)
(11.4471 0.0709304 1.72056)
(12.4011 0.308801 -1.04991)
(11.5003 0.054982 1.18887)
(9.97131 0.115845 1.19153)
(10.3576 0.621011 -2.31501)
(6.92643 -1.05519 -0.199879)
(7.2822 -0.198335 1.68769)
(-0.289729 -0.22759 0.376405)
(12.6601 0.0974306 -1.08615)
(-0.175259 -0.178008 0.343141)
(11.0393 -0.441717 1.99658)
(13.5245 0.514039 0.602695)
(13.7603 -0.776157 9.62578)
(6.95776 -0.140162 -4.89297)
(9.10383 0.178982 -2.38694)
(12.4201 0.0651709 0.639932)
(-0.268004 -1.83072 -0.0480554)
(11.5494 0.329535 -1.74907)
(-0.300973 -0.594555 -0.264372)
(7.53197 0.225623 -2.53879)
(9.77719 -1.76115 -8.13387)
(12.9054 0.411009 -0.0795327)
(13.2808 0.182315 -0.446123)
(-0.635278 -1.57689 1.63153)
(7.89646 -0.445026 -5.55163)
(5.2458 0.0584213 0.161801)
(9.24707 -0.881324 -4.19862)
(-1.2702 0.281964 3.65216)
(10.0076 -0.219383 1.01067)
(10.9203 -0.249361 -4.25216)
(6.16311 -1.3348 -3.94786)
(6.0816 0.540722 2.27603)
(-0.119797 -0.677628 0.207191)
(11.5756 -1.45962 -3.58879)
(10.468 -0.106479 1.93733)
(11.4199 0.589646 0.403767)
(6.06307 -0.727258 -1.76072)
(9.22123 1.19138 -5.2471)
(12.6727 0.150149 -0.574391)
(10.0659 -0.332884 0.364234)
(9.60458 0.183739 1.11522)
(-1.03414 -0.128746 -0.0713665)
(11.7923 0.259438 -0.846571)
(4.98387 -0.388969 -2.33383)
(10.878 -0.0122976 -0.679973)
(-1.00709 -1.35272 0.223409)
(13.3992 -0.143682 -1.02721)
(12.4701 0.276883 0.163784)
(12.2564 0.227241 -1.98442)
(11.0104 0.471226 -1.15673)
(6.78602 0.291221 0.990124)
(10.5442 0.469147 -1.06063)
(11.4491 0.564108 -2.74284)
(10.0682 0.655577 -5.5578)
(7.37748 0.336548 -0.220754)
(12.472 0.0404672 0.130225)
(8.86223 -0.157371 -4.07184)
(10.9532 0.0202994 1.35006)
(12.0422 0.00991031 2.45757)
(-1.91154 -0.164306 -0.0552086)
(5.87842 0.194547 -0.181115)
(8.61899 -0.145846 0.107359)
(13.527 -0.0133036 1.94088)
(8.16733 -0.343822 0.340086)
(13.1766 0.393244 -1.5637)
(-0.921314 -0.66036 1.34792)
(8.49646 0.262771 -0.575173)
(3.16351 -0.265541 -2.9195)
(11.1608 0.000513604 0.105461)
(1.18615 0.374258 -4.9802)
(11.9346 0.0499253 2.80219)
(11.5323 0.520102 2.92019)
(7.10291 0.512404 -2.43989)
(2.19768 1.03892 -1.80236)
(7.39421 0.285596 -2.30861)
(9.49682 -0.121744 0.155522)
(12.6187 0.39524 -0.44535)
(10.9485 0.203231 -1.20384)
(12.1457 0.29789 -3.10686)
(12.2293 0.208591 -1.79452)
(11.5773 0.156125 3.45551)
(8.58275 -0.158718 -4.14752)
(10.9866 -0.102078 0.919359)
(12.6512 0.185442 -1.62632)
(9.14743 0.356648 -2.42701)
(11.7939 0.218328 -3.42123)
(12.3237 0.0328525 -5.12852)
(-1.10499 -1.22741 -0.188246)
(10.1024 0.353944 -1.89949)
(12.631 -0.098998 -0.0702699)
(6.68966 -0.487379 5.80858)
(10.7889 0.0404259 0.795911)
(6.60016 0.282937 0.806606)
(10.4611 0.243084 -0.639815)
(11.2251 0.551299 -1.84602)
(6.76286 -0.341734 0.977679)
(12.6663 0.115194 -0.308554)
(10.3517 1.26215 -7.17751)
(9.96396 0.402849 -0.897412)
(13.2791 0.161116 -2.20178)
(12.2109 0.558078 -2.94187)
(6.36744 0.969556 0.678747)
(-0.787431 -0.052944 -0.158074)
(0.153576 -1.38921 4.29824)
(12.1958 0.175437 -0.729762)
(-1.82923 -0.198585 0.0817003)
(10.7378 0.370975 -3.04703)
(10.1787 0.210097 -2.265)
(-2.16671 0.123607 -0.210985)
(12.4416 0.45755 -0.319947)
(-2.08985 0.00952435 2.69561)
(13.9082 -0.102782 3.39839)
(6.78594 0.401542 -2.8127)
(11.1853 0.0329183 -0.141541)
(12.9093 0.357003 -2.74353)
(-2.23367 0.0688955 0.819303)
(4.9999 0.0206238 -7.76621)
(-1.26385 -0.581762 1.57928)
(-1.09028 0.0656782 0.174145)
(12.5173 0.759706 -3.71018)
(5.11643 1.16676 -7.66802)
(11.4803 0.237745 -0.968796)
(7.4997 0.255519 -2.14271)
(1.6189 0.308442 0.713242)
(6.72872 1.57479 -0.425813)
(14.0852 -0.126861 -0.390254)
(-0.123634 -1.32904 0.846188)
(1.50982 0.519884 -2.71177)
(8.33092 0.171988 1.55583)
(9.50241 -0.178458 0.199798)
(9.18891 0.109871 0.779807)
(10.1901 0.00762125 0.818022)
(12.3921 0.399542 -2.84359)
(-1.37705 0.280226 1.1278)
(9.71632 0.127503 -0.306307)
(5.14049 0.588817 2.86883)
(13.5649 0.223663 2.66073)
(13.0085 -0.174085 0.99535)
(3.69333 -0.669086 -0.888772)
(-1.33876 -0.603181 0.992214)
(6.773 0.231445 3.84159)
(9.42 0.000116638 0.766235)
(11.7621 -0.0586425 0.526309)
(7.7464 -0.319726 0.144905)
(10.9545 -0.0458837 -0.381396)
(11.1533 0.16894 -0.110212)
(-0.549547 -0.310884 -0.623947)
(10.4188 0.273636 0.858264)
(12.4682 0.216464 -0.683825)
(5.93621 0.369977 -2.13944)
(10.3603 0.223235 0.64797)
(8.38357 0.128416 0.337908)
(7.73337 0.422607 -5.24704)
(-1.28492 -0.252737 0.598298)
(4.64888 0.604042 2.9474)
(11.9078 0.761727 -0.493298)
(0.106455 -1.77763 3.13894)
(13.5054 0.0688352 -0.46336)
(11.5276 0.0386915 -0.858349)
(9.78224 -0.0834553 -0.201175)
(11.1917 0.283322 -0.149812)
(3.72299 -0.0901182 -2.35817)
(13.6665 0.398294 -2.00813)
(-0.587164 -0.352807 -0.797583)
(10.9245 0.0539756 -1.3405)
(12.335 0.231031 -0.920059)
(5.12125 1.68354 -0.494258)
(-0.0316354 -0.745699 3.33163)
(13.4953 0.560718 5.59397)
(7.39814 -0.30494 1.61336)
(-1.11262 -0.404556 3.47023)
(11.7255 0.104663 1.09153)
(6.87852 0.068553 -0.796655)
(7.91043 -0.123235 1.85614)
(13.7061 0.720353 3.78146)
(14.1524 0.482441 -0.516874)
(11.3163 0.316135 1.61359)
(15.2521 -0.158958 3.2262)
(13.2212 -0.399812 3.41987)
(13.9261 -0.571128 -1.70162)
(2.32588 0.344543 -1.12654)
(8.01987 0.205332 0.901083)
(-1.03451 -0.0358336 -0.924781)
(14.5152 0.226109 1.09995)
(9.94641 0.0257164 -0.225439)
(11.7194 0.0202839 0.496785)
(8.3311 0.128389 1.78618)
(11.1916 0.0578528 1.51698)
(11.9558 0.25738 -2.06125)
(7.23627 -0.38222 1.7163)
(3.24045 -0.210571 -2.81625)
(-1.02924 -0.0573186 -2.05652)
(-0.00126945 -0.415024 4.96115)
(5.56071 -0.386219 0.524352)
(10.46 0.576373 1.57784)
(-1.51848 -0.0245832 0.34498)
(6.47654 -0.187382 -3.31087)
(8.03408 -0.132095 -0.124242)
(10.5207 0.1504 1.04422)
(11.4384 0.0602201 -0.932004)
(8.39271 -0.17055 0.184858)
(8.71054 0.0823965 0.228652)
(10.5991 0.0820015 0.987133)
(10.1399 0.119436 0.832366)
(10.2109 -0.0664218 0.640058)
(-1.30037 0.4287 -0.271641)
(11.4479 0.046102 -0.147041)
(12.397 -0.0328341 0.475768)
(11.8291 0.145462 3.2144)
(9.80849 0.143842 1.40409)
(9.55629 0.0550212 0.817372)
(12.5091 -0.130984 -4.6585)
(-0.474276 0.111878 -0.448366)
(1.75633 -0.572989 -2.00005)
(9.66257 1.50732 0.548282)
(1.37515 -0.672613 -3.551)
(12.593 0.472025 -0.816085)
(11.1616 0.0981519 -0.0312067)
(8.55122 -0.502685 -1.52751)
(12.7606 0.140465 -0.485069)
(10.8175 -0.198384 1.26533)
(7.54219 -0.304354 -1.11633)
(11.1752 0.0461271 0.225583)
(11.9747 0.167449 -0.000504713)
(10.7804 -0.0637778 0.565588)
(10.5695 -0.117698 0.939132)
(6.55149 0.0745116 0.447813)
(11.3904 0.148301 0.0705734)
(11.6984 0.118706 0.174423)
(9.37296 -0.352041 0.768916)
(10.9079 -0.0612199 0.414047)
(10.9706 -0.0739666 1.17814)
(10.8103 -0.116714 0.347778)
(10.8953 -0.161645 1.42611)
(7.33322 0.57396 -2.23532)
(11.7524 0.070927 0.919017)
(11.6378 0.174907 -2.19014)
(0.382042 0.248919 1.77228)
(0.763462 0.431936 -3.42732)
(8.2087 0.366764 -2.22327)
(1.41778 0.287795 -4.01053)
(5.13823 0.14928 -8.53697)
(11.9936 0.174056 0.0275748)
(11.3396 0.0834928 1.35393)
(11.5232 0.0469517 0.410358)
(11.429 0.251717 -0.715624)
(12.5517 0.211455 -0.0208008)
(8.56859 -0.17181 -5.55905)
(14.791 0.338522 0.923615)
(11.4062 0.868867 4.18713)
(10.8749 -0.0399798 -1.1437)
(13.892 1.34174 4.14401)
(11.2947 -0.399704 -3.08668)
(11.435 1.08456 5.00462)
(9.5983 -0.24564 1.66153)
(4.35309 -0.108932 -1.20833)
(12.8774 0.236556 -0.0498341)
(2.32235 -0.150494 -1.93008)
(12.2909 0.106416 0.779359)
(13.1016 0.285932 -1.79901)
(12.5109 0.147189 0.7184)
(13.0448 0.0989985 -7.89919)
(11.3434 0.254952 10.7476)
(8.45935 0.893484 -0.788829)
(7.39496 -0.269934 -0.782787)
(10.3753 -0.246022 -0.379485)
(1.35665 0.502278 2.32281)
(-1.54132 -0.206705 1.0465)
(11.778 -0.051803 -0.0905854)
(3.68776 -0.785016 -4.24019)
(3.23789 -0.254821 -0.461142)
(9.70608 0.00949009 0.39107)
(-0.633766 -0.34492 -0.314537)
(10.668 -0.221852 -0.410624)
(9.91693 -0.247736 -0.900382)
(0.0850472 -0.789979 0.775086)
(11.476 0.0603451 1.4054)
(11.6559 -2.31447 -3.31585)
(5.63903 -0.48899 -4.85045)
(10.2104 -0.856788 -1.88132)
(8.07987 0.438874 3.15631)
(0.237266 0.11741 0.848472)
(5.55009 -0.26606 -3.66666)
(10.6119 -2.02056 -1.18548)
(15.0735 0.3317 4.01953)
(-2.48616 -0.974217 2.35271)
(0.0167216 -2.22242 4.2762)
(-0.593278 -0.522209 1.4801)
(12.7814 0.567468 0.0811302)
(-1.37011 -0.241432 -0.589909)
(10.1757 0.111987 -2.05441)
(11.7681 0.793016 10.5026)
(-0.0598267 -0.651231 -3.53709)
(6.5607 0.647459 0.506051)
(-0.431653 -0.0788387 -0.313076)
(3.55211 0.15131 -3.85113)
(8.7131 -0.0765666 0.543786)
(0.229311 0.428404 0.214004)
(1.46475 0.801527 4.56206)
(8.24195 0.338975 0.896169)
(-0.493294 1.2839 0.818056)
(4.12319 0.22013 -4.24732)
(10.1793 -0.0615564 -0.453393)
(8.47311 -0.512842 -1.30016)
(10.1845 -0.0269234 -0.712362)
(10.6745 -0.019405 -0.41711)
(9.85526 -0.267782 -0.975798)
(9.7179 -0.0708077 -0.0283365)
(8.77657 -0.000836814 0.317881)
(10.6383 0.103576 -1.20499)
(12.11 -0.0709065 -0.00455274)
(8.90252 -0.103216 -0.442159)
(9.1169 -0.0784035 0.343213)
(9.53417 -0.117087 -0.371643)
(10.9274 0.0314652 -0.044052)
(12.1621 0.294527 -1.87781)
(11.52 0.306088 -2.21322)
(9.83764 -0.380061 -0.349126)
(10.1798 0.477896 2.15181)
(11.5742 0.0646199 -0.140071)
(10.8864 0.111455 0.419059)
(11.6071 -0.0671883 0.141056)
(11.2127 0.245182 -2.50711)
(11.2923 0.178761 0.132723)
(9.92344 0.0236465 0.954814)
(11.2569 0.245068 -2.03482)
(9.11642 -0.178836 0.166696)
(10.0355 -0.0761414 -0.167312)
(7.87192 -0.260337 -5.76644)
(15.2914 0.0311828 5.18726)
(9.7378 -0.290936 1.40154)
(1.89934 -1.15559 -2.38609)
(10.7756 0.566373 -1.04964)
(13.489 0.262982 1.4133)
(14.3246 0.186618 1.6854)
(13.1204 0.129603 1.50603)
(10.3041 -0.473497 -1.6808)
(6.18087 0.626085 -0.932416)
(11.5269 0.366454 -5.19051)
(9.66532 -0.0858506 0.526775)
(11.2769 0.0264685 0.963544)
(10.4816 0.202082 -5.26664)
(11.0502 0.210311 -4.13865)
(10.9767 0.222463 -0.230398)
(11.2882 0.338717 -2.94051)
(9.23543 0.0149788 -0.225448)
(11.2207 -0.0123686 0.835535)
(11.1337 0.411382 -1.20202)
(10.8571 0.226293 -0.0982424)
(11.4145 0.0198422 1.14019)
(9.85518 -0.370543 -2.0483)
(11.1754 -0.02008 1.76444)
(8.23369 -1.71728 3.38925)
(11.738 0.222177 -0.947087)
(12.0651 0.0559608 1.29167)
(11.5933 0.114959 0.130368)
(8.30759 0.292409 -0.139859)
(12.1054 -0.554736 1.07014)
(3.88339 0.326252 -2.42759)
(0.81103 0.578185 -2.16975)
(-0.0990348 -1.30765 0.510885)
(1.89282 -0.440484 -2.50225)
(12.9676 0.519204 -0.322836)
(11.7451 0.382858 -2.29405)
(1.47769 0.888465 1.04592)
(9.60352 -0.516916 -4.97354)
(2.79731 0.60565 -1.15803)
(-0.637476 -0.0940959 0.918564)
(5.20119 0.428497 -5.60008)
(7.47454 -0.0181471 -1.29949)
(12.425 1.0961 -6.01145)
(11.6515 0.010722 0.981474)
(11.8287 0.206349 -0.13091)
(-0.516481 -1.42024 -0.0102198)
(11.6715 0.164691 -0.209536)
(11.9076 0.170291 -4.31461)
(6.6436 0.963031 0.279593)
(3.20419 0.14183 -1.197)
(13.4883 0.267995 -1.30357)
(12.7203 0.275294 0.0886187)
(13.855 0.071725 -2.90115)
(5.23425 0.169514 -0.446487)
(11.9362 0.183124 0.179443)
(7.22944 -0.059942 -0.832959)
(11.3669 0.0897851 0.81021)
(8.64697 0.45521 -2.82668)
(11.0407 0.167184 10.2006)
(9.51669 0.412733 -5.07049)
(-1.20906 0.351906 1.12965)
(9.65944 0.513327 1.76126)
(13.3506 0.754761 -0.0563919)
(4.18764 -0.429636 0.306321)
(6.25244 -0.203611 -3.81081)
(8.48209 -0.475477 -0.00234975)
(6.88778 0.416838 0.0510237)
(13.9451 -0.605243 1.90651)
(-1.06063 0.331893 -0.345959)
(8.28289 0.232187 2.07472)
(12.05 0.0632901 1.12706)
(9.06223 0.207578 0.970456)
(5.05759 -0.0249973 -3.29781)
(1.90946 0.342277 -1.44908)
(9.77997 0.126938 0.602152)
(9.84189 -0.359532 -8.65482)
(13.5683 0.293191 -1.87484)
(11.2659 0.0698202 0.168708)
(10.5989 -1.06102 -3.56736)
(4.50787 -0.0160758 1.14473)
(-1.75158 0.391272 -2.03792)
(6.41956 0.0159244 -2.71884)
(7.66444 0.412323 -0.324489)
(-1.34774 0.0290294 1.42315)
(11.6774 0.36377 1.50778)
(-1.35873 -0.273329 0.221361)
(11.337 -0.206924 1.34752)
(4.92722 0.041738 0.96243)
(12.4745 0.117777 2.89729)
(3.41062 -0.049129 -1.79384)
(4.52658 0.532744 -1.94879)
(12.0924 -0.0740812 -0.0940469)
(0.478866 0.2606 -2.38177)
(3.24233 -0.369426 1.55064)
(-1.49939 -0.223412 0.216309)
(-2.03391 -0.211996 -0.529796)
(-1.07263 -0.247045 -0.303328)
(6.84969 -0.130018 -3.59941)
(5.48035 -0.158728 -4.37427)
(9.6173 -0.0386884 -4.92453)
(4.98516 0.612502 -2.07519)
(-0.718048 -0.517654 0.0715212)
(5.84742 0.336027 -5.54881)
(-0.225459 -1.76503 0.282626)
(-0.395206 -1.64168 0.0954187)
(0.0361732 -1.52824 0.574779)
(-0.67387 -1.48021 0.586345)
(10.0112 0.402381 1.63112)
(10.6082 -0.0593963 0.200983)
(-0.953449 -0.492014 -0.282391)
(-0.794195 -0.277078 0.257747)
(-0.887642 0.340298 0.0678252)
(9.13189 0.365877 3.50804)
(13.3091 0.00996922 -2.12432)
(8.06872 0.728467 3.56854)
(14.2682 0.161799 -0.289568)
(12.4647 0.0596755 -2.7594)
(12.0124 -0.0147729 0.295398)
(11.8437 -0.0643631 0.325175)
(11.5074 0.0467379 1.14785)
(6.50698 0.0569441 3.53124)
(0.916538 0.172054 -2.56418)
(11.5175 -0.0855557 1.62527)
(10.2759 0.283439 1.45443)
(10.5863 0.0135575 0.362701)
(13.7664 0.21716 2.79172)
(10.1669 -0.188171 0.0413818)
(10.3701 -0.111832 0.436652)
(6.8651 -0.0952622 0.464082)
(10.2098 0.426045 -0.898229)
(9.4962 -0.176851 0.623858)
(11.3438 -0.0194858 -0.417699)
(11.2766 -0.0357274 -0.497732)
(7.56315 0.215667 -0.642542)
(8.20315 0.00928435 0.363513)
(9.03597 -0.273782 0.494763)
(7.3521 0.00595148 1.8863)
(12.5666 -0.0685327 0.220226)
(5.09728 -1.18953 -0.0302207)
(11.7616 -0.0868375 1.02374)
(13.7087 -1.01762 5.07623)
(14.0419 0.210975 10.4218)
(14.869 -0.599022 3.85423)
(14.6312 -0.542112 9.57007)
(12.7828 -0.219539 4.89406)
(-1.13516 0.258038 -2.02447)
(-1.24498 -0.188911 0.0110873)
(-1.38542 -0.493311 -0.0537306)
(7.99618 0.44544 1.22806)
(-2.38619 0.24809 -0.244954)
(11.4001 -0.111679 0.447698)
(-1.3746 0.268604 0.33008)
(-1.31752 -0.269453 -0.83469)
(1.72715 -0.750077 -2.88431)
(10.6702 0.676065 -1.63247)
(-0.427707 0.0942676 -1.25478)
(4.6628 -0.460948 -2.65995)
(9.55544 0.122201 0.496611)
(9.79022 0.112394 0.343847)
(10.7127 0.0164554 0.884864)
(9.83294 -0.0548212 0.212858)
(10.6971 -0.267398 3.06221)
(11.2683 0.0720867 1.07399)
(5.22153 -0.0111506 -1.82821)
(9.35495 -0.131435 0.358157)
(12.4679 0.414665 -1.32453)
(12.7191 0.197312 -0.871781)
(7.54888 -0.170887 0.570917)
(12.758 0.236904 -1.35053)
(13.2448 -0.624387 -6.51239)
(6.8718 0.244329 -1.21787)
(11.8881 0.198653 -3.40948)
(9.7689 1.1404 -1.3348)
(5.73054 -0.138088 -0.703889)
(-1.74359 0.464429 -1.45649)
(0.382934 0.268486 -2.74813)
(2.94041 -0.511598 -3.67997)
(-0.43467 0.353077 -3.52892)
(-1.01705 0.0877873 -1.41999)
(-1.03441 -0.244826 -0.839279)
(9.27025 -0.0593729 0.068668)
(12.0832 0.311147 -1.48605)
(12.289 0.288425 -1.05822)
(12.6348 0.220595 -1.52467)
(11.002 0.380848 -1.6488)
(3.70628 0.574044 1.75802)
(2.87773 -0.0705585 2.01061)
(1.93985 0.192819 2.96694)
(2.12118 0.600028 -1.78286)
(8.59727 0.291971 -3.75287)
(8.70358 0.591876 -3.1408)
(6.85339 0.438931 -3.40573)
(5.98066 0.336844 -3.33504)
(7.23059 0.490956 -4.06277)
(11.5889 0.0480702 0.213285)
(11.4956 0.0461533 -0.0737387)
(11.3883 0.0880382 0.0510959)
(10.6578 0.169486 -0.877363)
(7.35912 0.130251 -3.38161)
(11.2809 0.0184199 0.00438701)
(11.4927 0.0268816 0.219502)
(11.2968 0.127432 -0.00332048)
(12.5678 0.191454 -0.409877)
(11.4811 0.170936 -0.0561563)
(11.2395 0.178009 -0.137313)
(11.261 0.217065 -0.0411723)
(11.3042 0.200535 -0.0505129)
(7.59902 0.067852 1.49297)
(6.80496 -0.175047 -5.24587)
(6.64584 -0.251723 0.919485)
(10.8191 -0.171553 -0.450652)
(7.60154 0.0855508 1.68594)
(10.0397 0.149942 0.207247)
(12.057 -0.548395 6.49388)
(12.0014 0.0183392 0.808537)
(10.1889 -0.202997 1.11009)
(10.5072 0.551785 -2.45506)
(10.1085 -0.315785 -0.438891)
(8.76423 0.382384 2.3011)
(9.88559 0.58272 -2.73085)
(4.57491 -0.870653 -4.27996)
(9.72844 -0.00899488 -0.117285)
(-1.39979 -0.673998 2.62974)
(11.1965 0.394106 6.04167)
(2.48514 -0.424033 -3.79225)
(11.3905 0.116858 0.214876)
(7.79872 0.486819 -2.7724)
(8.03942 0.546015 -2.78932)
(-2.11805 -0.282656 2.67663)
(12.7592 0.228428 -1.12501)
(-0.160222 -0.893543 -0.15563)
(5.75893 0.363562 -5.20746)
(6.85888 0.408798 1.67864)
(8.15779 0.338343 2.0479)
(10.398 -0.0087838 1.47841)
(3.00603 -0.0128613 -1.53773)
(5.26751 -0.0790761 -2.85873)
(8.18518 -0.161777 0.155151)
(11.0128 1.07983 -0.964113)
(11.6807 0.095879 -0.1023)
(11.6987 0.0769691 -0.319803)
(9.9012 -0.156729 0.600012)
(12.0785 0.244809 0.39228)
(13.9887 0.0760432 1.96685)
(14.1175 -0.236377 1.78332)
(16.2398 -0.479389 1.9538)
(12.1328 -0.250006 2.85743)
(11.3968 -0.18197 1.2602)
(14.9458 -0.153224 -0.42314)
(12.5042 0.024412 0.652641)
(6.11241 0.543999 -3.67984)
(6.47062 0.742044 -4.81229)
(12.1694 -0.127683 0.526077)
(7.5787 0.54778 -2.01562)
(8.03211 0.647161 -4.28779)
(12.8612 0.287092 -2.0978)
(-2.08429 -1.64775 2.19594)
(3.53843 0.424936 -1.00929)
(9.26055 0.0850267 -3.04146)
(9.69187 0.329381 -0.825703)
(9.61837 0.368641 -0.797671)
(12.6416 0.364026 -3.8879)
(10.0738 0.38458 -1.50158)
(10.7498 -0.049987 -0.480671)
(7.65714 0.421594 -1.43349)
(10.0396 0.490384 -4.17949)
(5.76209 0.611962 -1.10491)
(13.6654 0.370515 -2.49853)
(12.6745 0.142861 -1.75063)
(7.72735 0.683871 -4.74939)
(13.9542 0.587687 -4.07067)
(10.6151 0.505217 -5.0153)
(11.1799 0.0750318 -0.0484961)
(11.5762 0.0715931 -0.486879)
(11.7152 0.19935 -0.292081)
(11.84 0.284637 -0.696612)
(11.8666 0.17196 -0.206173)
(12.0715 0.182541 -0.484586)
(11.6432 0.177782 -0.568911)
(11.6964 0.402514 -3.16656)
(9.45397 0.900828 -1.5604)
(4.75087 3.15387 0.0163984)
(10.7756 -0.0344894 1.02631)
(-1.82753 -2.19252 3.64767)
(11.0824 -0.0430642 -0.499063)
(10.847 -0.744386 1.16389)
(12.0845 -0.468756 2.39468)
(11.8071 0.169281 0.22091)
(11.2441 -0.0594554 1.54392)
(10.8701 -0.0220947 0.813711)
(1.78642 0.597176 -2.60904)
(11.3427 0.564892 -1.52365)
(11.1937 0.119618 0.707907)
(11.5954 0.0971837 0.2802)
(9.66153 -0.230266 0.671438)
(10.2552 -0.215218 -0.12014)
(9.43437 0.0469188 0.128427)
(13.513 0.372647 -2.55448)
(12.3591 0.101467 -2.44632)
(13.4249 0.288806 -1.70439)
(12.6587 0.0755388 -1.73676)
(12.6862 0.386189 -1.14813)
(13.2287 0.285063 -0.963775)
(11.5048 0.491306 -2.89953)
(11.157 0.469493 -2.85053)
(13.0883 0.441159 -2.14109)
(10.8776 0.423299 -4.39901)
(7.01637 0.087688 1.12992)
(11.8826 0.477332 -4.12063)
(5.98938 -0.595509 -1.9509)
(11.0257 0.301152 -2.74009)
(11.4746 0.0290707 -0.244203)
(9.39644 0.564798 -1.99907)
(13.1444 0.0989459 -1.68756)
(10.8671 0.341371 -4.59631)
(9.87348 0.607423 -1.7123)
(13.2321 0.158464 2.23427)
(8.20046 -0.292491 0.500486)
(2.38754 -0.974292 -2.69556)
(11.0038 -0.204259 -0.674099)
(9.82644 0.231211 3.46026)
(9.75745 1.20912 5.86074)
(9.25022 -0.10205 -4.92137)
(11.5061 0.442209 -2.90668)
(13.1255 0.0748552 -2.90944)
(12.6337 0.763702 -3.12)
(10.4869 0.294816 -0.378237)
(11.0207 -0.154729 -0.584752)
(11.1515 0.413432 -3.15234)
(10.774 0.484597 -3.36348)
(11.0375 0.478435 -7.44927)
(11.5963 0.535003 -3.12088)
(11.0993 -0.070513 0.771878)
(8.92912 0.102314 -10.6053)
(5.11627 0.844515 -0.947203)
(12.2225 0.594885 0.390661)
(7.51539 0.196075 0.493669)
(7.65466 0.137309 0.447743)
(12.9712 0.261742 -0.745274)
(11.2123 -0.0469774 0.567337)
(11.0118 0.00792347 0.383704)
(12.4681 0.681085 -0.32549)
(8.43283 0.315703 -0.730643)
(11.3918 0.135652 0.239983)
(11.2013 0.117368 0.178843)
(6.12436 0.300303 0.505997)
(7.0726 0.454753 -0.437271)
(11.7426 0.529324 -2.93602)
(11.3944 0.375467 -0.500499)
(11.5555 0.263363 -0.987769)
(4.12724 0.814318 -2.05446)
(7.70784 -0.0948974 1.50527)
(-2.82221 -2.1408 -0.631318)
(10.9024 -0.0305756 0.517246)
(13.0576 0.166502 -0.421766)
(11.1113 -0.0603506 0.568777)
(10.733 0.638736 -2.28058)
(5.98857 0.584546 -3.77927)
(11.2306 0.470615 -1.28438)
(11.3225 0.213316 -0.122469)
(13.051 0.380169 -1.80864)
(11.5622 0.134636 0.142481)
(13.7008 -0.0593247 -2.03706)
(8.81467 0.0925369 0.973416)
(7.31478 -2.00794 -0.167502)
(3.95423 -0.519679 5.16242)
(4.07412 0.322278 1.47283)
(-0.859105 -0.245548 1.3755)
(7.22883 0.162256 -0.481482)
(12.7906 0.401305 -1.10523)
(2.21076 0.659854 -6.86345)
(11.6479 0.141488 0.0905731)
(11.9441 -0.848707 -4.13832)
(1.55897 0.813659 -2.65598)
(4.89208 0.0323924 0.641591)
(4.81959 0.291578 -1.2112)
(11.9352 0.454949 -2.05547)
(13.1458 0.395885 -1.67525)
(11.087 0.506528 -1.98773)
(11.1041 -0.0965137 0.885763)
(1.04173 0.361529 -2.05228)
(12.1167 0.47884 -2.88268)
(2.33952 0.505069 -3.36447)
(4.5116 0.27637 0.367168)
(3.97062 2.23608 -1.33341)
(7.1008 0.68262 0.621317)
(1.44713 0.864214 -8.79544)
(11.6342 0.00491051 0.407822)
(11.1773 0.172361 0.11971)
(11.2939 0.661164 -2.29327)
(9.57836 -0.160597 1.26012)
(7.96916 -0.153818 0.146422)
(11.3759 0.0637233 1.03411)
(5.81176 0.322836 -2.31071)
(11.0376 0.121325 0.0937512)
(10.7469 0.459486 -1.52601)
(11.8278 0.215708 0.987821)
(11.3825 0.00121021 -0.531642)
(11.184 0.3902 -1.65662)
(0.363476 0.565269 0.399131)
(12.4779 0.224889 -1.01168)
(-1.83967 -1.20441 0.207197)
(2.51679 -0.00695849 -6.69939)
(7.50601 0.29162 0.848804)
(10.7974 0.311631 -1.80426)
(8.28196 0.141846 -3.68158)
(11.0392 0.296003 -2.40055)
(11.501 0.174787 -4.47511)
(10.9733 0.655259 -2.43684)
(2.85131 0.281204 -7.46587)
(12.2965 0.250478 0.173474)
(13.5754 0.533899 -3.347)
(6.85547 0.456835 0.908644)
(10.998 0.47226 -2.87205)
(7.18153 0.257119 1.04795)
(9.35996 0.47117 0.50396)
(9.64904 0.405297 -1.38167)
(10.4135 0.510784 -2.18902)
(12.8732 0.218736 -2.19648)
(4.5539 0.36844 3.01942)
(8.00509 0.350815 -1.86343)
(6.35743 -0.983443 0.68125)
(-2.02089 -0.0302082 1.92938)
(-2.1942 -0.0953492 2.17142)
(14.5885 -0.261527 0.771724)
(-0.542307 -1.66879 -0.0946507)
(12.1159 -0.0355583 -0.570403)
(1.46556 -0.76703 -3.30591)
(9.19846 0.374712 0.694972)
(4.98469 1.03368 -7.75662)
(10.8508 0.388674 -2.29654)
(10.7542 0.550475 -2.03909)
(9.66706 -0.244751 0.602812)
(10.6032 -0.0938419 0.580548)
(3.91277 -0.73762 -1.80503)
(8.30632 1.30887 -11.9407)
(-0.824004 1.25735 2.60329)
(11.4309 0.285822 -1.24361)
(11.0013 0.174988 -2.85005)
(11.4445 0.266523 -3.10425)
(11.7186 0.288825 -1.88632)
(10.6078 0.269606 -3.28699)
(4.06697 0.785926 -4.57675)
(12.567 -0.00092768 -0.0559073)
(11.4168 0.365396 -6.02135)
(8.43225 0.355793 -2.97578)
(6.22556 0.257476 -1.29148)
(12.957 0.0713575 0.110091)
(-2.87787 -0.0836358 0.352783)
(10.668 -0.0447013 1.45623)
(7.06421 -0.338359 -3.62232)
(0.507827 0.304756 -4.0542)
(6.40093 -1.54703 0.0476491)
(1.71534 1.49041 0.157135)
(6.94524 -0.5651 -5.15255)
(10.7434 -0.119472 0.857429)
(13.852 0.451293 -3.22045)
(7.11438 0.528965 0.708169)
(8.02788 0.0185892 0.452025)
(-0.813571 -0.650938 -0.012086)
(0.0475261 2.35955 1.76835)
(11.3754 0.195802 -0.960171)
(11.5502 -0.0381071 1.28275)
(8.06231 -0.22969 1.94889)
(10.2046 0.507971 -1.79095)
(10.7399 0.1874 -0.37378)
(10.6647 0.232361 -0.697509)
(13.1757 0.178806 -1.62646)
(11.5108 0.0514484 0.444318)
(11.2524 0.397319 -2.32473)
(5.30255 0.0113591 0.257168)
(11.6619 0.0322287 1.21607)
(0.0554858 -0.367501 1.14161)
(10.6104 3.10192 -2.97776)
(2.33833 0.27589 0.421265)
(5.81563 -0.404786 -1.17473)
(0.11564 -0.31764 0.753834)
(10.5183 -0.0285996 0.124908)
(6.8844 0.0065286 -5.10656)
(7.29131 0.540989 0.0965965)
(10.017 -0.142954 0.770608)
(13.5905 -0.101561 -0.211782)
(-1.46262 0.282621 1.86787)
(2.07695 -0.153396 -2.6549)
(1.07391 -0.254035 -1.81286)
(-1.09379 -0.425307 0.168859)
(11.5732 0.297173 -0.918054)
(8.1872 0.307375 1.79741)
(12.9809 -0.402295 -2.50953)
(10.6927 -0.0739963 1.69157)
(3.16511 -0.0600426 -1.86487)
(9.79867 -0.34678 -0.203084)
(10.3068 0.0999378 -0.489693)
(6.04735 -0.388827 -0.890053)
(11.8397 0.0661423 0.425564)
(5.15213 -0.157316 -0.722139)