/*--------------------------------*- C++ -*----------------------------------*\
| =========                 |                                                 |
| \\      /  F ield         | OpenFOAM: The Open Source CFD Toolbox           |
|  \\    /   O peration     | Version:  2506                                  |
|   \\  /    A nd           | Website:  www.openfoam.com                      |
|    \\/     M anipulation  |                                                 |
\*---------------------------------------------------------------------------*/
FoamFile
{
    version     2.0;
    format      ascii;
    arch        "LSB;label=32;scalar=64";
    class       surfaceScalarField;
    location    "0.0625936";
    object      phi;
}
// * * * * * * * * * * * * * * * * * * * * * * * * * * * * * * * * * * * * * //

dimensions      [0 3 -1 0 0 0 0];

oriented        oriented;

internalField   nonuniform List<scalar> 
7426
(
0.00134205
-0.000514914
-0.00589465
0.00506751
0.00581594
0.000322652
0.00369618
0.0250726
-0.0213889
-0.00737984
0.000162996
-2.47081e-05
-0.000101112
-3.71755e-05
0.000333063
-0.000808051
-0.000602279
0.00107727
0.000939981
-0.000359451
-0.000247467
9.87641e-05
-5.25295e-05
0.0007537
-0.000799935
0.000666523
0.000200889
-0.000549279
-0.000318134
-0.000362204
0.000555244
0.000526708
-0.000719749
-0.000768739
0.000464824
-0.000862406
0.00116632
0.000506349
-0.000295264
-0.000211085
-0.00111287
-3.89456e-06
0.00056729
0.00054948
-0.00547021
-0.0443987
0.00374237
0.000692029
-0.000215995
-0.000736965
0.000260931
0.00530177
-0.0531256
0.0307267
0.00297649
-0.041012
0.00730876
0.00116712
-0.00603414
0.0160431
-0.0111761
0.00827452
-0.00562644
-0.00948334
0.00683526
-0.00458135
0.015383
-0.00252717
0.000283463
0.0585568
-0.0580121
-0.000828154
-0.00488969
0.00743267
-0.0100392
0.00749621
0.00109772
4.49601e-05
0.000759554
0.0224041
0.0112932
-0.0020678
-0.0316294
-0.000977907
0.000554936
0.00152069
-0.045008
-0.000359134
0.0453671
-0.000480882
0.000330305
0.00101762
-0.000867048
-0.000239614
-0.00135414
0.00213788
-0.00122998
0.000246413
-0.00115432
0.000518696
0.00191442
0.00203635
-0.0017949
0.000277238
-0.00194063
0.00097587
0.000960866
0.000281644
-0.000307859
0.000206638
0.00211136
0.000390643
-0.000209075
0.000758413
0.000133238
-0.000793871
0.00105128
-0.00024146
0.00121086
-0.00119417
-0.00158423
-9.33032e-05
-0.000612662
0.0022902
-0.000545114
-0.000213727
9.83105e-06
0.000201714
2.1811e-06
0.00334039
0.000853115
-0.00226882
-0.00192469
-0.000325548
0.000408511
-8.29638e-05
0.00176047
-0.0735724
0.0991618
0.000108471
-0.000329935
-0.000104084
-7.29231e-05
-8.89932e-05
0.000570428
-0.000431311
0.000635611
-0.000277224
-8.8295e-05
-0.000234545
-0.0150331
0.0443516
-0.0216106
0.0021988
-2.04615e-05
-0.00185113
-0.000327209
-0.075247
-0.00979205
0.0292276
0.0558115
-0.000728859
0.000187918
0.0003986
0.000142341
0.000827072
-0.000521182
0.000480846
-0.000786736
-0.00050359
-0.000797821
0.0014946
-0.000193188
-0.0339221
6.55636e-05
0.0341346
0.023633
-0.0754738
0.0177061
0.00021256
-0.0365793
-1.32924e-05
-0.0230926
0.0101463
-0.136512
0.0185537
-0.010699
0.000140239
0.00259351
0.00154589
-0.00427964
-0.00133751
0.000476986
3.62838e-05
0.000824244
0.000807977
0.00331961
-0.0023314
-0.00179619
-0.000814932
-0.000300796
0.00111573
0.0112281
-0.017627
-0.000223871
0.00662275
0.00570087
0.0036242
-0.00754527
0.00172288
0.000112274
0.0288916
0.00230498
0.0777035
-0.0380997
-0.0419088
-0.0081754
-0.00586229
0.00280644
0.0112313
0.000356296
0.00186318
-0.00287055
0.000651076
-1.95574e-05
-0.0031667
-0.00238564
0.00557189
0.00466401
0.000422635
0.128272
0.0355949
-0.143587
-0.0202803
-0.000123545
0.00138991
-0.00176995
-0.000964221
0.000415448
0.00515235
-0.00460357
0.00119206
-0.00050113
0.000376879
-0.00106781
0.0117101
-0.00718066
-0.000233903
-0.00429558
-0.000825798
-5.37023e-05
0.000966537
-8.7037e-05
0.0411899
0.016337
-0.000103
0.00224048
-0.00190427
-0.000233208
3.46503e-05
0.000702217
-0.000506665
-0.000230202
0.0009025
-0.00259901
0.00178382
-8.73129e-05
-0.000339309
0.000288258
0.00062841
-0.000577359
0.00010847
0.00068132
-0.00057679
-0.000213
0.00267438
-0.000135712
-0.000103671
-0.000776324
-0.00156901
0.002449
-2.09611e-05
-0.000196247
-2.23125e-05
0.000239521
-8.53855e-05
-0.000959446
0.000386384
0.00228341
0.00418831
-0.00390385
-0.0016025
-0.00428407
0.00609313
-0.000206561
0.00180041
0.00346351
-0.00150944
-0.00375448
-0.000129887
0.00101856
-0.000411254
-0.000477415
0.00168683
0.00631947
-0.00717858
-0.000827713
-0.000865621
0.000683412
0.000388224
-0.000206016
0.00171868
0.000622988
-0.0097732
0.00743153
0.000252698
0.00119422
-0.0014818
3.48862e-05
0.012516
0.00289012
-0.00883202
-0.00657405
-0.00506257
0.0105747
0.0168919
0.0546241
0.000115054
0.0756284
-0.000856477
-0.00226876
-0.00310123
0.00401276
0.00135723
-0.00108218
0.00151961
0.00172639
-0.00216383
0.0533953
0.0104718
-0.00549464
0.00144971
0.00103679
-0.00192375
-0.00056275
-0.0541697
-0.0953562
0.105127
-0.00205555
0.00187176
-0.0112958
0.0114796
4.68106e-05
-0.000366216
0.00150368
-0.00118427
-0.00305333
0.00123912
-0.00472483
0.00571222
0.000405061
0.000325447
-0.000271898
-0.00045861
0.000534541
-0.00012948
0.000204606
-0.000458781
0.000575092
-0.000561795
0.000428461
-0.0365459
0.0164506
-0.058394
-0.00818807
0.00381839
-0.0412706
0.0456403
-0.000368562
-0.000350268
0.00071883
-0.000670442
0.000402543
-0.000100663
0.00029905
0.000263879
0.000365438
-0.000928367
0.000579996
0.0014595
-0.00269712
0.00065763
8.94427e-05
0.000152774
-0.000452349
0.000210132
-0.000326673
0.000625723
-0.0186105
0.0162833
0.0165232
-0.0141961
-0.000308926
8.95466e-05
0.00284855
0.00199778
-0.0035307
-0.00131563
-0.0110904
-0.00847264
0.00940032
0.0101628
-0.000153471
0.00113129
-0.000787207
-0.000190614
0.00709007
-0.000193284
0.00032745
0.000537055
-0.00521547
0.00510105
-1.16128e-05
0.000201299
-0.000533233
0.000159698
-0.000171311
0.00191825
0.000878356
-0.00221661
0.00361772
-0.000436606
0.000291844
-0.00347295
0.00016639
-0.000514641
0.000813052
-0.000464802
0.000474502
0.000164378
0.000246996
-0.000885876
-0.037106
-3.87832e-05
0.00454899
0.0325958
-0.0178839
-0.0106587
0.0168012
0.0117413
0.0134082
0.0147858
-0.009612
-0.018582
-0.00257279
-0.001647
0.00265322
0.00156658
0.000584408
-0.000405154
0.000295247
-0.00292778
-0.0141918
0.0279611
-0.0108416
0.00155034
0.000860421
-0.00127134
0.00173136
0.00334586
0.00550087
-0.00319716
0.00413191
-0.00643563
0.00023492
0.000686025
0.00148437
-0.00240532
-0.0138043
0.0230327
0.00282363
-0.0120521
0.00484727
-0.00058548
0.000291082
-0.00455287
-0.0550958
-0.0201899
0.0770462
0.00097326
-0.000114916
-0.00116587
-0.000722923
0.000229901
-0.000580678
0.0010737
0.0580567
-0.053182
-0.0028894
-0.0019853
0.109453
-0.0484368
-0.0320059
0.0364183
-0.00402958
-0.008984
-0.0234048
0.000406668
0.000461869
0.00292569
-0.00379423
0.00193581
-0.00257023
-0.000221296
0.000855716
0.0022094
-0.00786903
-0.00103235
0.00669198
-0.00424966
0.0174646
-0.00909623
-0.00411867
-0.000717553
-1.32289e-05
0.000101591
0.00062919
0.000154623
-0.00197044
0.0238757
-0.0307047
-0.000576873
0.00287352
-0.00219583
-0.000100816
-0.000383196
0.000459847
-7.66515e-05
0.00275196
-0.00316409
0.000544742
0.000453383
-0.000366495
-8.6888e-05
-0.000415496
0.00339132
-0.00370414
0.000728319
-0.0019297
0.00246675
-1.44061e-05
-0.000519788
0.000415713
0.000118481
-0.00696529
-0.000554181
0.0103759
-0.0028564
0.00751818
-0.00431242
-0.00118964
-0.00201612
-0.0162299
-0.0137827
0.023959
0.00605369
-0.00512352
-0.00757209
0.0213268
-0.00863117
-0.00025783
0.000403979
0.00135767
-0.00150382
0.0038405
-0.0030676
0.00331744
0.00774299
-0.0615395
0.0310134
0.0227831
0.00351668
0.000977853
-0.00228238
-0.00221215
-0.000435206
-8.84368e-05
0.000523642
-9.27472e-05
-0.000342458
-0.0361678
-0.00634583
0.023609
0.0189046
-0.00248117
0.00175783
-0.0189136
0.0196369
-0.000695484
0.000135382
0.000207248
0.000352854
0.00376543
0.00076041
-0.00167729
-0.00449746
0.0255055
0.0012147
-0.0222227
-0.000854347
0.00156428
0.00166895
-0.00237888
-8.51633e-05
-0.000292951
0.0161816
-0.0332109
-0.0191385
0.000251139
-0.00044725
0.000387895
-0.000191784
0.00208676
0.00200245
-0.000748812
-0.00197914
-0.00166707
0.00450676
-0.00086055
0.0225731
-0.0339293
0.0157982
-0.00444189
-0.00498005
0.000192926
0.00699652
0.0152696
-0.0171135
0.00339369
-0.00154979
0.0019434
-0.0118123
-0.00122155
0.00139373
0.00114624
-0.000621715
-0.000559535
-0.00267554
0.00523285
-0.057355
-0.00696026
0.0259061
0.0384091
0.000409951
-0.0454179
-0.00140853
-0.00023115
0.00189743
-0.000257752
-0.000605351
0.00105168
-4.96026e-05
-0.000396722
0.000363907
-2.31225e-07
-0.000255206
0.000137399
-0.000228189
-0.000529238
0.000620028
-0.00192636
-0.00114895
0.00325225
-0.000176938
-0.000700621
-0.000366248
0.000183041
0.000883829
-0.000147373
-0.000511798
0.0012547
-0.000595529
0.00664562
7.842e-06
0.00132636
-0.00128245
-0.00144314
0.00139923
-0.000619219
0.000198555
-0.000403306
0.00082397
-0.00125266
-0.00137895
0.00339121
-0.000759614
0.000578939
0.000159793
-0.000699241
-3.94908e-05
-0.0063919
-0.00833994
0.00960832
-0.000364852
-0.000451975
0.0010321
-0.000215273
0.0249332
-0.0193292
-0.0019078
0.000362352
-0.00167338
-0.000465859
0.00177688
-0.000314914
0.000401845
0.000206217
-0.000293148
0.00479364
-0.00528991
-0.000370003
0.000866269
-0.00100458
-0.000215004
0.000786444
0.0564194
-0.00333343
2.54813e-05
0.000879148
-0.000670239
-0.00023439
0.000641418
-0.00054007
-0.000101348
-0.0116418
-0.00235203
0.124888
-0.110895
-0.0125651
0.0103825
0.00218456
-2.03514e-06
0.00151769
-0.00247044
-0.00130497
0.00225772
1.60153e-05
0.000344637
0.000340439
-0.000701091
0.000469398
0.00113429
0.000825739
0.000238773
0.00031404
0.00116791
-0.00141948
-6.24667e-05
-0.000977638
0.000926826
-0.00110702
-0.000878855
0.000978024
0.00100785
0.00893753
0.00437971
-0.00661961
0.0143926
-0.00212062
-0.00475379
0.0476893
0.0145145
-0.0569025
-0.00530132
-0.000214153
0.0536095
-0.00851616
-0.0465915
-0.0507924
0.0511042
-0.00446408
-0.0361684
-0.0536859
-0.00048384
0.0363839
-0.027984
-0.00307115
-0.00532884
0.00307981
0.000638314
-0.00399383
-0.0129542
0.0193762
-0.00905436
0.00263234
0.00378826
-0.00330505
-0.00552657
0.00520916
0.00221553
0.000505391
0.00492656
0.000157089
0.00286386
-0.00251556
-0.00325917
-0.000405478
-0.00186192
0.00727656
-0.00292122
0.000755603
6.40102e-05
-0.0010315
0.00021189
0.000105311
0.00547189
-0.00178894
0.00150778
-0.00278705
0.00203487
0.000176098
-0.000526366
-0.000197874
-0.000259831
7.48615e-05
0.000382844
0.00742424
-0.00571177
0.00050306
0.00661884
0.00289381
-0.00208841
0.000338174
-0.00202519
0.00830585
0.000358676
0.000116298
0.00103281
-0.00159495
0.00224015
0.000777313
-0.00142252
-0.00906737
0.00753693
0.0060531
-0.00452266
0.00332032
-0.00383762
-0.00250906
0.00302636
-0.00110632
0.00453195
-0.00161151
0.00633184
0.000751565
-0.00332057
0.000746893
-0.000213374
0.000104773
0.000524884
-0.000270981
-0.00290149
-0.00397108
0.00261475
-0.00025519
-0.000840025
0.000706161
0.000232528
-0.000132281
-0.000940271
-0.000833455
0.000422982
-0.000210689
-0.00404991
0.00398064
-0.00152225
0.000883623
-0.0022418
-2.66692e-05
-0.0010521
-0.00283485
0.00339737
0.000184368
-0.00211025
-0.00030945
0.00322768
0.00086227
0.001074
-0.00444533
0.00587687
-0.00596438
-0.000991723
-0.00065547
-0.000594611
0.0110439
-0.000613128
-0.00577448
0.00964929
-0.00774456
0.00386975
-0.0106921
0.00810194
-0.00521147
-0.00453078
0.0157954
-0.0101011
-0.00180406
-0.00143025
-0.000615352
0.0116949
-0.00248642
-0.00324483
-0.00180636
0.003026
0.000373577
-0.00570681
0.00235952
-0.00179822
0.00858398
-0.00191229
0.000526563
-0.00162621
0.00121595
-0.100192
0.09761
0.00325304
-0.00590123
0.00852505
0.00238757
-0.00312025
0.00162226
-0.101814
-0.000829004
0.00286705
-0.000936349
-0.00601403
-0.000592852
0.00208423
0.00811628
-0.00183688
-0.00073052
-0.0138556
0.00966103
-0.00511337
0.00930794
-6.77707e-05
-0.000461341
0.000337509
0.000191602
-0.000631336
0.000106324
0.000457241
0.000784309
-0.000608212
0.000446932
0.000374399
0.000676347
-0.00105075
-0.0014032
0.000785875
-8.03212e-05
0.00040602
0.000643288
-0.000622411
0.000399234
0.000649534
-0.000454786
-0.000593982
-0.000710643
-0.000347528
-0.000136694
0.00010939
-7.24656e-05
0.000136009
-0.000943911
0.000687999
0.00147382
-0.0012179
-0.00100749
0.000993892
0.000783829
-0.000770235
-0.000326006
-0.00112971
0.000448231
-0.00167059
0.00040067
-0.000858576
0.00254047
-0.00144941
0.00250538
0.000760303
-0.00181627
0.00281653
-0.0034162
-0.000849738
0.00277418
0.00290807
-0.00286572
0.0049716
0.000307954
-0.000504777
0.00363016
-0.00428881
0.00146158
-0.000802927
-0.0003881
0.0055097
-0.00149144
-0.000579426
-0.00124654
0.0017223
-0.00134973
-0.000659725
0.00143003
-0.00072915
-0.001185
0.000667606
0.000128971
-0.00220785
-0.00265883
0.00345846
-0.00193424
0.00113462
0.000111958
0.00209553
0.000746945
-0.00295443
0.00305281
0.000597434
-0.000301354
-1.21095e-05
0.000700317
-0.000386853
-0.000155468
0.000166541
-2.68746e-06
-8.38465e-06
-0.00046528
0.00202955
-0.000368187
-0.000465949
-0.00133685
0.000160676
0.000790523
-0.00247345
0.0016437
-0.00208182
0.00163994
-0.00120182
0.000766805
-0.00170052
-0.000775578
0.00170929
4.85002e-05
0.00340772
-0.000987738
-0.00246848
0.00275242
-0.00193711
-0.000716992
0.0023348
-2.6717e-05
-0.0015911
0.00239415
-0.00320734
0.000148777
0.000664411
0.00168091
0.00120717
-0.000493932
-0.00333663
-0.000676968
0.00406266
-4.9067e-05
0.00209966
-0.00153632
-0.000400997
-0.000162341
0.000446233
-0.000335933
-0.00209386
0.00198356
-0.00108437
0.00330136
0.000152643
-0.00236963
-0.000509958
-0.00172575
0.00145938
0.00177103
-0.000632302
-0.00125287
0.000114132
0.00379267
-0.00129551
0.00300448
0.00119961
-0.000411425
-0.00581258
-7.86791e-05
-0.00192191
-0.00284623
0.00194587
0.00282227
0.00219152
-0.000423758
-0.00368968
-0.00128263
0.000168903
-0.00187814
0.00299186
-0.00175673
-0.00129073
0.00176484
-0.000882155
0.00195188
0.0011218
-0.00699827
0.00337855
0.000284063
0.00333566
-0.00199682
-0.00116094
0.00316671
-0.00696126
0.00785976
-0.00406521
0.0367944
-0.000788073
-0.0127583
0.0188786
-0.0130507
0.0126886
-0.0269876
0.00705027
0.00724872
-0.000366692
-0.0119069
0.0274111
-0.0151375
0.0182262
-0.0214995
0.0210749
-0.0178017
-0.0151316
-0.0187355
-0.0116169
0.045484
0.0352972
-0.0247313
-0.0514045
0.0408387
-0.0274866
-0.02501
0.0877937
-0.0293395
0.0155618
-0.0137088
-0.0309723
0.0349882
-0.0191475
0.0387319
-0.0342507
0.0131553
-0.0176364
0.043424
-0.0277806
0.0211886
-0.036832
-0.00841687
-0.00699465
0.0588355
0.000833064
0.0390975
-0.0623545
0.0224239
0.0382298
-0.0569628
0.0195661
0.00116767
-0.000332448
0.00227163
-0.00310686
0.00318105
-0.000107855
-0.00190553
0.000614312
-0.00269841
0.000327368
0.000526793
-0.000769374
0.000242582
0.000710951
-0.000184159
0.000434131
-0.000264963
0.000541784
0.00268616
0.000769303
-0.00151966
-0.00154346
0.0011593
0.00142303
-0.00103887
0.000335844
0.000806857
0.00137055
-0.000568163
0.000669028
-0.00147141
-0.000803699
-0.000660831
0.00167757
-0.00021304
-0.00110483
0.00212018
-0.00181904
-0.0155638
0.008908
-0.00875232
0.000170214
-0.00698167
0.0156255
0.00346328
-0.0172355
-0.00185328
-0.0107538
-0.00957759
-0.0131295
-0.0113401
0.0340471
0.0164928
-0.037883
0.00227815
0.019112
0.000775234
0.000772593
0.000649157
-0.00219698
-0.00171786
0.000725877
0.00176721
8.6733e-05
-0.000689449
8.90524e-06
0.000593811
-0.000772534
-0.00156278
0.00252892
-0.000193601
-0.000707193
-0.00194618
0.00159574
0.00073884
-0.00191704
-0.00112737
0.00195248
0.00109193
0.000578628
-6.09827e-05
-0.00205397
-0.000862344
-0.00102921
-2.54818e-05
-0.000362825
-0.0011263
0.000532551
0.000956578
-0.00284109
-0.0083651
0.0119252
-0.000719039
-0.0100005
-0.00193993
0.00909935
0.000920734
-0.00854552
-0.00237573
-0.000323699
-0.00712066
0.00657167
-0.000741463
0.00609502
0.000606908
0.000294202
0.000762816
-0.00166393
-0.00169944
0.00037038
0.00190768
0.00276036
0.00290141
-0.00435946
-0.00130231
-0.00120497
-0.000756316
0.00124393
0.00071736
0.00153982
0.00213355
-0.00134852
0.00160155
0.00147873
-0.00288311
-0.000197179
0.00333969
0.00101383
-0.000134352
-0.000886639
-0.000441026
0.00146202
0.000954904
-0.000769136
-0.00032012
0.000970538
-8.9684e-05
7.40503e-05
-0.000374757
-0.000524265
0.000921437
-0.000905217
-0.000390977
-0.00092196
0.000956758
-0.000792911
0.0012553
0.000508151
0.0014773
-0.000307953
0.00128828
0.000682399
-0.00110298
-8.81399e-05
0.00016555
0.00102557
-0.00137312
0.000932977
0.000261192
-7.56408e-05
0.00133796
-0.002098
0.00271372
-0.00104628
0.000430561
-0.00499075
0.0077363
-0.00795702
0.00253268
-0.0017396
-1.82252e-05
5.73083e-05
-0.000147723
-0.00622102
0.00363807
0.00273067
-4.70232e-05
-0.000170194
0.000108039
0.000109179
-0.00269281
0.0114368
-0.00100766
0.00245422
-0.00176498
0.000189112
-0.000930127
0.00133048
0.00444692
0.00406522
9.9354e-05
0.000503979
0.00106372
0.00107599
-0.00289603
0.000286494
0.000326994
-0.000613487
-4.83437e-05
0.000687867
-0.000205393
-0.000380044
0.000524881
-0.000165798
0.000891632
0.00166602
-0.00179565
-0.000762007
0.00172948
-0.00137714
-0.000783715
0.000431381
0.00263752
-0.000171092
-0.00246643
-0.0543117
-0.0455936
0.0114358
0.0225483
-0.00929377
0.00201514
-0.00141927
-1.92929e-05
-7.4336e-05
0.0015129
-0.00688379
-0.00402492
-0.0421068
0.0416698
-0.0064468
0.000860053
0.00101281
-0.00295504
-0.000254867
0.000400631
-0.00019079
4.50258e-05
0.00366138
0.00882366
-0.00540283
-0.00708221
0.00216614
-0.00371726
0.000723029
0.000828085
-0.000849331
8.73256e-05
0.00037881
-0.00194139
0.000567712
0.00125014
-0.000750434
7.14959e-05
-4.39853e-05
9.01211e-06
7.87111e-05
0.000102252
-0.000189975
0.000433567
0.000799624
-0.000214227
-0.00101896
0.0317492
-0.0253743
9.74641e-05
-0.000107175
0.000172706
0.00484504
-0.00286858
0.0193503
0.00292218
0.0343339
-0.037256
-0.00659597
0.0192125
-0.00891992
-5.11238e-05
-0.000723596
-0.000585565
0.00136029
-0.00131039
0.00456799
-0.00250063
-0.000756972
0.00254571
-0.00219931
0.00113233
0.000554814
-0.000188778
0.00821795
-2.57901e-06
0.00032083
6.28091e-05
-0.00038106
-0.000412327
0.000739193
-0.00037521
-0.055964
-0.000137747
0.0561017
0.00874073
1.37995e-05
0.000917985
-0.00967252
-5.6348e-05
0.0025943
-0.000483878
-0.00205407
-0.000345431
-2.21866e-05
0.00943214
0.00246072
-0.00851432
0.00263568
-0.00186958
0.000544365
-0.000521104
-2.32614e-05
0.00137777
0.000115016
-0.00456039
-0.00375389
0.0068809
-0.000135843
0.000302394
0.00045716
-0.000454315
-0.000305239
0.000249132
-0.000553665
0.000312602
-8.06896e-06
0.00153182
-0.00221823
0.000353963
-0.0846496
-0.00779982
0.0693569
-0.0530046
-0.019929
0.00290794
0.0700256
-0.00115914
0.00182696
-0.00210484
0.00143702
0.00069031
-0.00107121
0.000248623
0.00333488
-0.00013094
-0.00247985
-0.000724084
0.000595837
0.000688876
0.000622799
-3.70284e-05
-0.000541169
0.00116639
-0.000588188
-0.00480031
-0.0182537
-0.0159034
0.0245796
0.000734758
0.0138871
-0.0105537
-0.00406815
-0.00180812
-0.00605441
0.00724717
-0.000686303
-0.000913731
0.00163442
-3.43914e-05
1.65331e-07
8.79025e-06
4.85735e-05
-5.75291e-05
0.000381823
-0.000307767
0.00645281
0.000274162
-0.00878253
7.2966e-05
-6.19984e-05
-0.00011208
-0.00930031
-0.00232738
0.00913008
0.0024976
-0.0061104
-0.00529893
0.00210903
-0.00371949
-0.00650946
0.0120487
-0.00181975
5.89374e-05
-0.000273942
0.00325505
-0.000153559
0.000210266
-0.00331176
-7.604e-05
6.35384e-05
-4.8068e-05
6.05697e-05
-0.00456267
0.00951941
-0.00867624
0.000584507
0.0593024
-0.0384539
-0.021433
0.00166154
0.000463383
0.00832305
-0.010448
0.0179981
0.00493095
-0.0117786
-0.0111504
-0.00424171
0.00526493
-0.00745132
0.0064281
0.064541
0.00848574
-0.0347969
1.75936e-05
-0.00848092
-0.003759
0.0111232
-0.0573455
0.0874639
0.052275
0.00124523
-0.0727118
-0.00472972
-0.001307
0.0041984
0.00183832
1.91082e-05
-0.00325211
-0.00150058
0.00473359
-0.000987302
0.00182198
-0.000175916
-0.000658766
0.00356507
-0.0107977
-0.000143281
0.000506031
-0.000587771
0.000225021
0.0649124
0.00667018
-0.0760599
0.00447733
0.0209564
0.0333031
0.00766191
-0.0619215
0.000301377
-0.000412424
0.00078694
-0.000675892
-0.00292135
0.00478774
-0.00329437
0.00142799
-3.30868e-05
0.000645705
-0.000402815
-0.000209804
0.0072669
-0.00737902
-0.00258069
0.00154786
0.00126452
-0.00116869
0.00159738
0.00154325
-0.00458409
0.00144347
-0.00556558
0.00412825
-0.000370789
-0.000311808
0.000849581
0.000994049
0.00184759
0.0011855
0.000704349
-0.00373744
-0.000809588
-0.000209522
0.000452813
0.000566297
0.000218728
0.000260559
-0.000637006
-9.84483e-05
0.00133386
-0.000598401
0.00159688
0.00199053
-0.00221452
-0.00137288
0.000254609
-0.000635029
0.000608176
-0.000227756
-0.00187488
0.001199
-0.00155222
0.00108162
-0.000632387
-0.00155606
0.00231008
-0.00146943
0.000715417
0.000732019
-0.00165137
0.000607542
0.00212696
0.00155081
-0.00264497
-0.00807219
-0.000730219
0.0148298
-0.00602742
-0.000165206
9.07899e-05
-0.000104074
0.000178491
-0.00102022
-0.00205624
0.00208917
-0.000142639
0.000306771
-0.000459765
0.000295634
-0.000565577
-0.000444861
8.84778e-05
-0.000251613
0.000499506
-0.00066022
-0.00112166
-0.00101029
-7.55897e-05
0.00220754
0.000105693
0.00192973
0.00105827
0.000637903
-0.001012
-0.000684175
0.000168129
-0.00206032
0.0020392
-0.0025853
-0.00056595
0.00111205
0.00691031
-0.00201264
0.000467985
-0.00536566
-0.000322053
0.00038625
0.000323788
-0.000387984
0.00104728
0.000167045
-0.000799766
-0.000414558
0.00285205
-0.00242994
0.00136776
-0.00103393
0.00135954
-0.00118419
0.000345375
0.000116617
-0.000514521
-0.0029566
-0.00133619
0.00352025
-0.00128408
0.00248392
-0.00119984
0.00317176
0.000150899
-0.00290595
-0.000416708
-0.000104355
-0.000679365
0.00354408
0.000391126
-0.000207048
-0.000478831
0.000294753
0.00141551
-0.000537695
-0.000662441
-0.000215369
-0.000150085
0.00419207
-0.00178882
-0.00225317
0.000204228
-4.94458e-05
-0.000373959
-0.000290555
0.000479791
-0.000233369
4.41333e-05
0.000728349
-0.000194332
0.000524252
0.00193681
0.00186293
0.000239985
-0.00403972
0.00101939
0.00197043
-2.48875e-05
0.000950568
-0.000674542
0.000386493
-0.000190293
-0.000724371
0.000528172
0.007155
-0.00424851
-0.00582784
0.00062678
-0.000162035
-0.000930694
-0.00177293
0.00143682
3.4846e-05
0.000301262
0.00150078
-0.00197252
0.000383601
-0.0151808
0.00517519
0.00829645
0.00170915
-0.0031345
0.00179804
0.00113938
0.000197078
-0.00201016
0.003422
-0.00108477
-0.000327064
0.000217405
-5.09518e-05
-0.000678576
0.000512123
-0.00139543
0.00371803
-0.00363299
0.00514077
-0.00354636
0.0115016
-0.00161784
-0.00633741
0.00374694
-0.0044178
0.00845759
-0.00778672
0.00158956
-0.00451021
0.000619435
0.00230121
0.000837154
-0.00145827
0.000636493
-1.5374e-05
-0.000431711
0.000972832
-0.000374731
0.000286631
0.000273448
-0.000922282
-0.00051247
0.00143907
-0.000951488
0.00027798
-0.000381527
0.000100969
-0.000223118
-0.000318652
-0.000190676
0.000244703
0.000264625
-0.000199828
0.000221469
-8.7681e-05
0.00019736
0.00317001
-0.0310835
0.0511009
0.036402
-0.00265121
-4.58253e-05
0.00559219
-0.00289515
-0.00580547
0.00573347
0.000895157
0.0141865
0.00307049
-0.0108041
-0.00367013
0.00836495
-0.00582478
0.00112996
-5.64577e-05
-0.000170599
0.000227056
0.000691027
-0.000137516
0.00109414
-0.00164765
-0.00171585
0.000586493
0.00143589
-0.000306535
0.0115989
-0.0442771
0.028594
0.00408407
-0.000312327
0.000220947
9.13799e-05
-0.00340819
0.000861322
-0.0017322
-0.0332783
0.0305131
0.00603394
-0.00645809
-0.00190323
0.0100627
0.0458356
-0.0558983
0.000799435
0.00107192
-0.00101617
-0.000855181
0.00144055
0.00162136
-0.000495551
-0.00256635
0.00171223
3.94443e-05
-0.000241133
-0.00151054
-0.00709718
-0.00864031
0.000786237
0.0149513
-0.00802841
-0.00444515
0.00550828
-0.0107857
0.00781765
0.000268306
0.00269971
0.0140932
-0.0061714
-0.0114682
-0.00178196
0.00347529
-0.000801691
-0.00141115
0.00126476
-0.00483366
0.00399799
0.00025913
-0.00563634
0.00137922
0.0144344
-0.000719476
-0.00320694
0.000135289
-0.000435134
3.28875e-05
0.000266957
0.000132591
0.000335486
0.000164546
-0.000632622
0.000828377
-9.46082e-05
-4.44644e-05
-0.00017078
0.000612897
-0.00123296
1.11781e-05
0.00119686
2.49202e-05
-0.00156378
0.00135085
-0.000846186
0.00105912
0.000550034
0.00035819
0.001546
-4.3672e-05
-0.000586437
0.000108928
-0.00100809
-0.00165165
0.00251237
0.00240886
0.000443409
-0.00125539
-0.000344324
0.000148462
-8.16876e-05
-0.0784341
-0.0404858
0.0822548
0.0366651
0.0511254
-0.0410627
-0.000330691
-0.000146844
0.000225335
0.000252201
0.000460696
0.000249026
-0.000465979
-0.000243743
-0.000113
-3.68709e-05
-0.000600563
-0.0157774
-0.0484145
0.0098802
-0.000350623
0.000278662
-8.15104e-05
0.00577919
0.0493145
0.00296298
-0.00453766
-0.00113569
-0.00303456
0.00870791
-0.0423804
0.0471809
-0.0350664
0.0302658
-0.000166613
0.00045889
-0.000190631
-0.000101645
0.000267277
-0.000313583
0.000299794
-0.000253488
-0.000419971
0.000484165
-0.000453499
0.000389305
0.00381563
0.00250777
-0.0105924
0.00426902
-0.00182856
0.00126967
-0.00124402
-0.000169548
0.000279398
0.00113417
-0.00382858
0.00214451
-0.000317288
-0.00020836
0.000284469
0.000241178
0.00811671
0.000409072
0.00115242
-6.18573e-05
-0.00109056
-0.000586865
-0.0166569
-0.0252698
0.0425136
-0.000655541
0.00200209
0.000215884
-0.00156243
-0.000674151
0.000111674
0.000525119
3.73574e-05
0.00119566
-0.000970903
0.000460059
-0.000929964
-0.000659807
3.9535e-05
0.000478167
-0.00058826
0.000198789
0.000389471
-0.00046499
0.000467316
0.000185242
-0.000187568
-0.000445254
-0.000345458
0.000421447
0.000255985
0.000207087
0.000140205
-0.000603276
-0.00117958
0.000866766
0.00150488
-0.000315093
-6.63716e-05
0.000491333
-0.000109868
-0.000246919
0.000123359
0.000341511
-0.000217951
-0.00226328
0.0112837
0.00481009
0.00268772
-0.00256239
-0.00493541
0.000218036
-0.0021377
0.00225691
-0.000337249
-0.000893225
0.000742204
-7.71677e-05
-0.00111329
-0.00225581
0.00208501
0.00197013
-0.00234657
0.00127894
-0.00115672
-0.00413597
0.001921
0.00337169
0.00292545
-0.00126246
-0.00168254
-0.000202924
-0.000105361
0.0012274
-0.000919115
-0.0479696
-0.000506088
0.0484756
0.0403036
-0.0808296
0.0145832
0.0259428
0.110948
-0.0015362
0.0183548
-0.0366894
0.000523269
0.0378891
-0.0064411
-0.00783676
-0.0548827
-0.101276
0.0520439
0.0190396
-0.0502542
-0.0058914
0.00187088
0.0292888
-0.0310474
-0.0388861
-0.0215571
0.0473327
0.0131104
0.00118658
0.000545498
-0.00115907
0.000702661
0.00164299
-0.00718094
-0.010683
0.0136143
-0.00135921
0.002079
0.00156139
-0.00228118
0.0479727
-0.0469251
0.0121537
0.0794966
-0.0447252
0.0510684
-0.0493879
-0.10189
0.100209
-0.00843218
-0.043118
0.0431333
-0.0605546
-0.0375104
0.0986496
-0.00339924
0.000403576
0.00699556
-0.000376499
-0.000724519
0.0014496
-0.000348583
0.0250083
0.036496
-0.0499054
-0.0205678
0.0124912
0.00695785
0.00111868
-0.00271273
-0.0103955
-0.028946
0.0469666
-0.00364642
-0.0143742
-0.0435198
-0.0690853
0.00536375
-0.00392349
0.0509044
-0.0149834
-0.0319975
0.000481128
0.101578
-0.102059
-0.00372589
-0.00889225
-0.000218727
2.50026e-05
-2.83836e-05
-0.0108881
0.0230374
0.0420363
-0.0354815
0.0298636
-0.00948681
-0.0381867
-8.93404e-05
-0.00435625
-0.00250677
0.00695236
0.000212709
-0.00209505
0.00182054
-0.00021382
-0.00125697
0.00172393
-0.00375693
0.0040722
0.000454758
0.00031385
-0.000824561
5.59532e-05
-0.000213349
0.000122043
0.00134724
-0.00125594
0.000219426
-0.00106876
-0.000145802
0.000387442
-0.000621683
7.53157e-05
-3.66933e-05
0.000102182
-0.000140805
0.000113163
0.000189744
6.10006e-05
0.00114325
-0.000656082
-0.000343104
-0.00014406
-7.17904e-05
-0.000210659
-0.000502287
0.000784736
-0.00910883
-0.00423229
0.0222491
0.000528318
-0.00127494
-0.000723857
-0.00253207
0.00195211
0.00130382
0.000628425
-0.000477117
-0.00031792
0.000278345
5.95212e-06
-0.000149009
-0.00036304
7.66146e-05
0.000286425
0.000477551
-0.000865468
0.000284917
0.00129867
-0.000159233
0.000350046
-0.00148948
-0.000395664
5.36151e-05
-9.29459e-05
0.000317518
0.000403853
-0.000637757
0.000141588
0.00172134
-0.000585802
-0.000336103
-0.00224343
1.26446e-05
2.65107e-05
-0.000500282
0.000461126
-0.000714979
-0.00104151
-0.000341493
0.00102891
0.00122586
0.000550174
-0.000818235
-0.000957796
-0.000200648
0.000339983
-0.000415902
0.000276567
0.000594494
-0.000616076
2.54498e-05
-3.86761e-06
-0.00513743
0.047968
-0.0510187
-0.00841964
0.0110005
-0.0155467
0.0129659
-0.0261027
-0.0391082
0.00446825
-0.0247266
-0.0086056
-0.0419147
-0.00654676
0.00388766
-0.00187856
-0.0714658
-0.00042591
-0.000218142
-0.000370046
0.0010141
0.0568959
0.00140605
-0.0583019
0.00399559
-0.00209095
-0.00391124
0.00200659
-0.0668609
-0.0463165
0.0514873
0.0616901
-0.00582735
0.00307636
-0.000919153
0.00504768
-0.0199533
0.0272392
-0.0123336
0.000154373
-0.00128375
0.00112938
0.0783719
-0.0762656
0.0299889
0.00449892
-0.0309141
-0.00357367
0.00135442
-0.00289672
0.000383151
-0.00146353
-0.000226019
-0.000392267
-0.0308802
-0.0530135
0.0762143
0.00767947
0.000320133
-0.00746637
0.00990929
-0.00276305
0.0010327
0.00405601
-0.000740371
-0.00143462
-0.000708115
0.000808462
-9.23147e-06
0.00033506
0.00123798
-0.000713143
-0.000234237
-0.000290605
-0.0031404
0.00163584
-0.0192207
0.0136111
0.00363917
-0.0123081
-0.00125174
0.0121657
-0.00307047
0.00149811
0.00243242
-0.0665462
0.0205465
0.0149162
0.00178318
9.08499e-05
0.00166826
-0.00354228
0.00241394
0.00246228
-0.00341281
-0.000647056
0.00121722
-0.00125646
-1.88528e-05
-1.18794e-05
3.07322e-05
0.00298782
0.00373483
-0.00101043
0.00838916
-0.0113368
0.00992842
-0.00698072
0.00410126
-0.00225256
0.000199197
-0.0020479
-8.66395e-05
-0.000306086
9.41094e-05
0.000298616
-0.000390063
0.000191911
0.00019537
2.78178e-06
-0.00021625
-0.000518924
-0.000481475
0.00121665
-0.00111841
0.00234415
-9.44487e-05
-0.00502704
-0.00322548
0.00204818
0.00620434
-0.00233401
0.00129253
0.00867864
-0.00763717
0.000572872
-0.000131418
-0.000513245
-0.00218627
-0.000336957
7.69474e-06
-0.00074941
0.000189269
0.000138948
0.000421192
0.00115707
-0.000963971
-0.000704893