/*--------------------------------*- C++ -*----------------------------------*\
| =========                 |                                                 |
| \\      /  F ield         | OpenFOAM: The Open Source CFD Toolbox           |
|  \\    /   O peration     | Version:  2506                                  |
|   \\  /    A nd           | Website:  www.openfoam.com                      |
|    \\/     M anipulation  |                                                 |
\*---------------------------------------------------------------------------*/
FoamFile
{
    version     2.0;
    format      ascii;
    arch        "LSB;label=32;scalar=64";
    class       volScalarField;
    location    "0.0380695";
    object      k;
}
// * * * * * * * * * * * * * * * * * * * * * * * * * * * * * * * * * * * * * //

dimensions      [0 2 -2 0 0 0 0];

internalField   nonuniform List<scalar> 
3991
(
0.334093
0.453592
0.333068
0.650726
0.350812
0.735449
0.370463
0.430162
0.86429
0.393287
0.567326
0.715259
0.357864
1.24799
0.362871
1.00878
0.368891
0.41699
0.687803
0.524021
0.621342
0.371196
0.713721
0.71969
0.567285
0.94498
0.530584
0.862876
0.421215
0.876286
0.650722
1.35248
0.440922
0.467977
0.851778
1.13563
0.660128
0.628021
1.17528
0.632006
0.518683
0.594797
0.471154
0.575176
0.433019
0.903364
0.783807
1.25022
0.673391
0.433203
0.350929
0.549463
0.358598
0.752244
0.355797
0.623365
0.551248
0.539025
0.590775
0.651928
0.3768
0.415097
0.6644
0.36221
0.607791
0.892302
0.635883
0.716109
0.395893
0.366629
0.750711
0.49848
0.350152
0.574844
0.390205
1.25926
0.394401
0.960749
0.377755
0.343651
0.632636
0.501787
0.558338
0.645592
0.553429
0.595966
0.976368
0.374332
0.481548
0.449889
0.429672
0.754979
0.875208
0.566051
0.604758
0.370608
0.784383
1.07144
0.354206
0.587046
1.27896
0.632849
0.601097
0.527026
0.374887
0.376479
0.706867
0.361688
0.378103
0.360386
0.368392
0.357296
0.35544
0.386808
0.383051
0.381767
0.328804
0.324142
0.32631
0.334305
0.370328
0.644401
0.360598
0.542468
0.838287
0.536352
0.357545
0.343384
0.36301
0.378779
0.347836
0.360685
0.386783
1.22163
1.22448
0.640794
0.343481
0.367251
0.378501
0.385949
0.450553
0.902342
0.497089
0.850036
0.729438
0.404102
0.35188
0.396866
0.739859
0.34513
0.347528
0.342887
0.348275
0.597005
0.718763
0.634174
0.531764
0.828714
0.815109
0.837593
0.346931
0.408962
0.360209
1.26747
1.19503
0.930601
0.718147
0.853126
0.876487
0.393873
0.387742
0.64955
0.636992
0.415426
0.35947
0.446673
0.547518
0.61024
0.369094
0.33282
0.427833
0.655397
0.571895
0.35017
0.466301
0.342979
0.442472
0.57349
0.473231
0.36535
0.452993
0.505289
0.638128
0.454014
0.478213
1.02334
0.44025
1.11288
0.352204
0.438626
0.666368
0.515062
1.13913
0.685613
0.743607
0.71213
0.736914
0.607607
0.803278
0.373478
1.15348
0.543557
1.03896
0.464655
1.21819
0.424913
0.865097
0.79288
1.50896
1.13306
0.574974
1.13461
1.68619
0.645048
1.12705
0.927471
0.499752
1.1077
0.719176
0.333634
0.78077
0.383018
0.496979
0.375906
0.622617
0.784654
0.410455
0.911207
0.670864
0.432464
0.573388
0.521433
0.62183
0.451642
0.60463
0.960453
0.353932
0.65479
0.365255
0.866063
0.863543
0.605252
0.425236
0.464058
0.910205
1.01406
0.332266
0.548478
0.441611
0.39969
0.515522
0.433671
0.639167
0.519568
1.00843
0.548187
0.567324
0.915097
0.922216
0.808564
0.786789
0.876074
0.695077
1.09486
1.10349
0.732743
1.10066
1.02752
0.442859
0.519259
0.47923
0.660217
0.536003
0.540187
0.631479
0.573921
0.563118
0.456149
0.438265
0.430691
0.444256
0.365944
0.971186
0.475559
0.690734
0.694357
0.877253
0.35776
1.10066
0.362293
0.848339
0.98923
0.374586
0.850119
0.661317
0.619115
0.826111
0.338576
0.376786
0.937797
0.384033
0.376959
0.781318
0.396024
0.375655
0.351223
0.584895
0.454642
0.360191
0.433991
0.531266
0.354417
0.474605
1.06563
0.476204
0.490248
0.413115
0.371656
0.373133
0.366428
0.511526
0.476871
0.337208
0.335949
1.19946
0.68854
0.559143
0.427698
0.399378
0.677719
0.393095
0.363572
0.345031
0.394629
0.41386
0.39657
0.351814
0.483087
0.450582
0.625784
0.853873
0.384591
0.776187
0.497327
0.347541
0.925991
1.62066
0.662843
1.04939
0.333805
0.350442
0.487644
1.27519
0.389433
0.409397
0.386079
1.07649
0.612882
0.905781
0.459027
0.42804
0.453881
0.856673
0.650172
0.715031
0.379888
0.416717
0.786175
0.456326
0.390327
0.364878
0.343885
0.984372
0.386131
0.373376
0.378587
0.778952
0.354409
0.350738
0.466577
0.402722
0.990126
0.352309
0.449178
1.35043
0.332273
0.672352
0.942915
1.07917
0.64792
0.384277
0.552203
0.891667
0.827097
0.433397
0.636051
0.357367
0.92329
0.591643
1.04804
0.406965
0.471298
0.373076
0.421239
0.370575
0.405961
0.523081
0.346404
0.502906
0.380667
0.353135
0.476393
0.404726
0.906162
0.423276
0.544911
0.392022
0.423495
0.462463
0.342182
0.567645
0.951289
0.575597
0.379587
0.457244
0.395914
0.565005
0.684813
0.439992
0.373004
0.45314
0.342989
0.344558
0.622813
0.516729
0.6726
0.48777
0.685084
0.49354
0.696731
0.937366
0.573284
0.364699
0.425285
0.627407
0.463663
0.393202
0.823401
0.701236
0.402673
0.74701
0.361368
0.362832
0.75722
0.43271
0.847719
0.520352
0.357254
0.377448
0.362181
0.597762
0.378526
0.43699
0.852914
0.339152
0.574862
0.48514
0.413496
0.372994
0.347927
0.391678
0.525152
0.344217
0.816923
0.690293
0.385514
0.423463
0.366087
0.353088
0.348982
0.457322
0.370617
0.362364
0.375581
0.400464
0.388686
1.06365
0.406974
1.19427
0.39317
0.358581
0.724168
0.437505
0.662557
0.375674
0.410213
0.392999
1.52417
0.407058
0.37826
0.412993
0.531893
0.732687
0.685365
0.680278
0.605344
0.465152
0.381657
0.645624
0.588223
0.498226
1.04335
0.885855
0.682768
0.573861
0.585429
0.811985
0.349035
0.338531
0.375923
0.333568
0.551074
0.483181
0.910874
0.520487
0.436258
0.544675
0.337547
0.381282
0.595554
0.369109
0.828557
0.533528
0.420839
0.360121
0.354823
0.575205
1.06098
0.945816
0.584791
0.766832
0.561136
0.756299
0.66186
0.535022
0.577404
0.332466
0.556602
0.668275
0.496471
0.606012
1.05486
1.38948
0.480759
1.00947
0.530523
0.65177
0.7397
0.536324
0.46209
0.459499
0.372709
0.367653
0.371955
0.376046
0.381906
0.836477
0.499886
0.466368
0.456159
0.531252
0.472157
0.945632
0.987547
0.778893
0.976206
1.23789
0.343847
0.398059
0.341814
0.392046
0.39082
0.335045
0.390427
0.42246
0.347835
0.323391
0.339572
0.339616
0.376921
0.341468
0.342466
1.18746
0.575788
0.862589
0.395386
0.697946
0.922916
0.558442
0.561511
0.391751
0.415291
0.400049
0.523552
0.555199
0.551769
0.397378
0.370159
0.382598
0.363834
0.388566
0.400847
0.396035
0.374749
0.391155
0.486013
0.437695
0.402318
0.722293
0.512798
0.945904
0.400216
0.492797
0.698898
0.486123
0.377896
0.389182
0.393202
0.369423
0.394951
0.402349
0.434484
0.452256
0.34839
0.470498
0.440493
0.568284
0.359001
0.781776
0.957296
0.407747
0.528122
0.650673
0.362246
0.360606
0.350657
0.376291
0.806117
0.906425
0.892372
0.6921
0.921692
0.961042
0.907812
0.66649
0.387352
0.382502
0.711709
0.959785
1.50931
0.381518
0.372588
0.381461
0.559091
0.381557
0.435779
0.729041
0.604985
0.481584
0.474227
0.44714
0.346425
0.382025
0.607245
0.678914
0.345939
0.390273
0.385342
0.36986
0.432351
0.333836
0.342391
0.364445
0.352373
0.37306
0.358317
0.471553
0.374827
0.703243
0.92483
1.10582
0.340442
0.423081
0.350615
0.337912
0.436198
0.7693
0.766269
0.641954
0.641446
0.363152
0.456729
0.463915
0.441657
0.361133
0.673285
0.390079
0.499239
0.44408
0.959379
0.979785
1.08928
0.382527
1.29452
0.377932
0.784045
0.386121
0.507063
0.713898
0.722509
0.4967
0.722238
0.332708
0.632224
1.3429
0.545737
0.375457
0.356163
0.394823
0.556149
0.361457
0.42315
0.341617
0.383681
0.707486
0.661209
1.07146
0.938345
0.80891
0.81301
0.434121
0.514842
0.603667
0.413126
0.588274
0.834927
1.03346
1.07237
1.30414
1.3716
0.694055
0.48832
1.13699
0.402652
0.865553
1.13166
0.899676
0.938188
1.13525
0.742834
0.952301
0.774082
1.09753
0.496228
0.501643
0.335098
0.800976
0.404647
0.403834
0.405244
0.360496
0.39633
0.53616
0.574925
0.497178
0.414748
0.449891
0.493757
0.462686
0.499401
0.408106
0.421862
0.410295
0.384338
0.344292
0.346293
0.432684
0.450128
0.357966
1.04106
0.333662
1.0862
0.40887
0.340775
1.69318
1.17674
0.785122
0.846403
0.456587
0.477269
0.390446
0.862555
0.362932
0.682563
0.654925
0.435137
0.354298
0.609714
0.357451
0.747865
0.521827
0.954409
0.802809
0.564371
0.38012
0.384438
0.77571
0.66291
0.538473
0.894046
0.456201
0.904791
0.921615
0.656034
0.361674
0.340729
0.493487
0.647898
0.731687
0.429442
0.406766
0.406251
0.942658
0.667308
0.350608
0.360318
0.45899
0.344305
0.334015
0.336376
0.364373
0.337199
0.335252
0.344203
0.886931
0.96608
0.995347
1.04422
0.969229
0.849623
0.951447
0.842424
1.09548
0.836032
1.17306
0.432635
0.402275
0.484486
0.44223
1.15096
0.342705
0.553837
0.588947
0.978873
0.731767
0.751349
0.577454
0.649516
0.858389
0.63711
0.705448
0.948777
1.0484
0.823167
1.07864
1.46958
0.336653
0.339855
1.04024
0.690491
0.343904
0.34045
0.413151
0.404263
1.07096
0.405814
0.443442
0.385353
0.371242
1.19836
0.347067
0.362603
0.377842
0.370869
0.427435
0.421828
0.376693
1.03595
0.907261
0.57203
0.658607
0.623991
0.624814
0.42235
1.02057
0.418326
0.496988
0.33222
0.407922
0.340225
0.370144
0.360372
0.447128
0.36307
0.374613
0.662524
0.36549
0.413466
0.664429
0.43428
0.436134
0.723961
0.580729
0.41253
0.47391
0.718114
0.713702
0.423223
0.516378
0.356569
0.680975
0.595401
0.428569
0.372866
0.499392
0.478204
0.526995
0.909803
0.958097
0.620787
0.568916
0.461864
0.512688
0.36045
0.356985
0.39977
0.349472
0.431313
0.401799
0.787986
0.530851
0.89614
1.33562
1.0565
0.8395
0.757224
0.688043
0.64842
0.677187
1.17811
0.556309
0.480957
0.388964
0.646292
0.442678
0.333405
0.33692
0.391268
0.367839
0.473801
0.401342
0.468007
0.379682
0.355186
1.19661
0.609392
0.349632
0.827584
0.369594
0.753495
0.362904
0.374235
0.337743
0.508532
0.338032
0.401696
0.386909
0.8205
0.455248
0.847863
1.06917
0.618928
1.06762
0.426826
0.486704
0.892788
0.995045
0.424641
0.397367
0.470497
1.26231
0.423813
0.633526
0.481508
0.475999
0.439634
0.562641
0.450441
0.387937
0.450381
0.435657
0.481773
0.354169
0.612025
0.646684
0.444126
0.907483
0.38757
0.351435
1.04204
0.407064
1.20272
0.908655
0.67477
0.852259
0.394534
0.824506
0.614839
0.410791
0.508526
0.875502
0.618199
0.742065
0.814247
0.81283
0.561849
0.955619
1.24995
0.70484
0.398075
0.73996
0.816472
1.03758
0.497435
0.95092
0.519216
0.761914
0.39284
0.392016
1.05588
1.11026
1.17877
1.49677
1.52491
1.2672
0.618321
0.639744
0.408999
0.825274
0.659045
0.507683
0.631226
0.995291
0.869251
0.901609
0.356655
0.518622
0.764299
0.382064
0.338697
0.443178
1.2705
0.419188
0.398473
0.540553
0.429806
0.389579
0.638848
1.09609
0.433091
0.895944
0.342616
0.367816
0.498224
0.354551
0.375037
0.545466
0.893237
0.377902
0.434173
0.378939
0.402897
0.355252
0.462781
0.46095
0.503637
1.01979
0.601248
1.35412
0.609315
0.994542
1.09511
0.853714
0.619828
0.55209
1.20717
0.59989
0.687891
1.22017
0.705955
1.18123
0.869374
0.554544
0.647753
0.791497
1.45275
0.862391
0.860156
0.456886
0.552327
0.480961
0.322753
0.506205
0.484392
0.423399
0.359182
0.403876
0.852485
0.395574
0.625101
0.634013
0.345558
0.353456
0.673875
0.58616
0.375514
0.534933
1.02479
1.03151
0.60392
1.02713
0.532304
0.656921
0.541036
0.664684
1.05877
0.582383
0.370449
0.381755
0.439131
0.376887
0.439401
0.959448
0.664167
1.45065
0.700703
0.679311
0.981629
0.656623
0.362444
0.380228
0.42738
0.654088
0.425784
0.362737
0.37455
0.571332
0.614568
0.539503
0.36866
0.479078
0.446726
0.339183
0.344145
0.343694
0.342679
0.351001
0.756123
0.393011
0.460161
0.521619
0.751027
1.51055
0.532029
0.491998
0.450412
0.74873
0.769353
0.406271
0.430034
0.438672
0.850971
0.880826
0.475413
0.534372
0.484085
0.366067
0.377102
0.363456
0.366831
0.373433
0.374613
0.36993
0.380236
0.381713
0.377218
0.394434
0.364588
0.359501
0.570784
0.503137
0.469392
0.631659
0.652811
0.578873
0.597669
0.368214
0.38114
0.393151
0.410543
0.483659
0.533657
0.990598
1.2319
0.736116
0.610486
0.984883
0.478576
0.656376
0.930629
0.657583
0.931344
0.634822
0.957943
0.752987
0.62007
0.939263
0.455813
0.906631
0.496897
1.05054
0.718308
0.586863
0.496653
0.437906
0.694159
1.14005
0.491686
0.713738
0.736524
0.570214
0.3876
0.684463
0.488612
0.754967
0.929914
0.790496
0.457819
0.634746
0.458441
0.655924
0.470037
1.73303
0.743548
0.594947
0.431607
0.421712
0.597182
1.11789
1.14758
0.894809
0.580684
1.01015
0.610578
0.522002
0.668159
0.922629
0.86687
1.14071
1.05793
0.331722
0.335938
0.329962
0.594182
0.33449
1.01956
0.720863
0.708056
0.56605
0.339298
0.339253
0.473921
0.583402
0.702612
0.844025
0.35536
0.677202
0.32952
0.656263
0.671871
0.864461
0.698401
0.700962
0.404018
0.407479
0.339333
0.571656
0.936861
0.965391
1.24782
0.700057
0.867246
0.339696
0.36397
0.338315
0.344592
0.348361
0.361031
0.357516
0.446436
0.376291
0.445926
1.01018
0.947147
0.580177
0.385126
0.351764
0.40698
0.559616
0.358162
0.351215
0.368338
0.349632
0.433245
0.429387
0.454074
0.8542
0.404416
0.675034
0.705328
0.485563
0.386873
0.414505
0.522245
0.384391
0.398927
0.425687
0.391416
0.43931
0.811194
0.700922
0.34143
0.325679
0.890418
0.745052
0.991172
0.366448
0.371061
1.17395
0.536903
0.705427
1.38276
0.606155
0.922257
0.516077
0.423253
0.745084
0.649153
0.539063
0.528912
0.488392
0.786317
0.510883
0.589321
0.482629
0.884208
0.954352
0.414361
0.34861
0.512112
0.669398
0.467758
0.651459
0.723345
1.03045
1.13152
0.345054
0.437815
0.337431
0.345284
0.459065
0.397408
0.431262
0.346816
0.726427
0.842652
1.03146
1.35299
1.29243
0.641162
1.19706
0.727012
0.739703
1.14997
1.10262
0.399727
1.15928
0.423708
0.415627
0.580833
1.00409
0.431716
0.471429
0.368702
0.488621
0.422387
0.683996
0.776674
0.417693
0.446646
0.532296
0.561955
0.526453
0.845428
0.681737
0.617629
0.561133
0.452587
0.376455
0.497897
1.26891
1.40879
0.575688
0.652881
0.751207
0.715007
0.643682
1.56621
0.571157
0.931611
0.751296
0.542406
0.659101
0.852542
0.75598
0.773678
0.852562
0.413148
0.382653
0.367881
0.423728
0.384115
0.376898
0.40011
0.557539
0.467089
0.341675
0.334067
0.334025
0.347548
1.15075
1.23062
1.00419
1.08909
0.331386
0.334153
0.352374
0.338677
0.344622
0.327077
0.336322
0.32962
0.395431
0.380412
0.652391
0.500068
0.90168
0.347059
0.484108
0.400386
0.618453
0.360176
0.634517
0.544554
0.774128
0.557538
0.331545
0.388841
0.930826
0.823698
0.59323
0.34359
0.784194
0.343235
0.366404
0.928955
1.02315
0.655873
0.984218
1.02063
0.544267
0.967822
0.713889
0.569696
0.352095
0.564706
0.330301
0.413406
0.985625
0.510759
0.393517
1.07453
0.579524
0.376186
0.630513
1.07736
0.371082
0.405091
0.380154
0.445584
1.33851
0.505945
1.01605
0.377215
0.611986
0.406663
0.564619
0.650658
0.663053
1.00732
0.496092
0.698924
0.681869
1.05495
0.732884
1.39833
0.762108
0.632758
0.748884
0.472376
0.464257
0.424007
0.378681
0.4139
0.3849
0.714016
0.39806
0.370415
0.366069
0.373232
0.534766
0.444262
0.502384
0.481297
0.431393
0.413196
0.371304
0.403879
0.332448
0.354361
0.371791
0.347825
0.406318
0.334689
0.412606
0.452318
0.496072
0.446015
0.508329
0.34186
0.342616
0.35822
0.3589
0.816033
0.353084
0.388735
0.544585
0.435067
0.354545
0.808212
0.57256
0.447454
0.365308
0.404618
0.391507
0.373742
0.343642
0.929423
0.330545
1.22732
0.358009
0.368701
0.343851
1.08471
0.944267
0.443201
0.826391
0.335789
0.92726
0.801448
0.424517
0.660755
0.508438
0.959868
0.429791
0.439373
0.445206
0.404395
0.375863
1.24702
0.720808
0.419059
0.68697
0.362338
0.411868
0.35451
0.385335
0.836971
0.576031
0.437412
0.366457
0.502518
0.391621
0.430849
0.593861
0.596071
1.07443
0.345902
0.436676
0.961685
0.446489
0.370818
0.404033
0.357447
0.360416
0.430039
0.338237
0.35379
0.402211
0.431817
0.337191
0.376786
0.400285
0.363058
0.360753
0.348665
0.351578
0.360624
0.540485
0.349605
0.335328
1.27524
0.904537
0.526294
0.620485
0.366652
0.817588
0.36077
0.430009
0.36299
0.340296
1.1926
0.375749
0.715991
0.339041
0.451601
1.21797
0.551628
0.537386
1.06665
1.1583
0.859533
0.950309
1.12138
0.646605
0.493012
0.470066
0.360793
0.332986
0.928854
0.560926
0.496433
0.505543
0.382521
0.618616
0.43879
1.137
0.465823
0.448222
0.443235
1.07641
1.36851
0.877438
1.23463
1.11245
1.0276
0.655884
0.344145
0.952457
0.378734
0.355647
0.371971
0.365728
0.391017
0.346729
0.35499
0.390401
0.408615
0.950574
0.640952
0.836832
0.417054
0.790596
0.462331
0.438681
0.397728
0.407587
0.611937
0.456452
0.400062
0.495774
0.634047
0.899357
0.462091
0.6409
0.975918
0.908332
1.15738
0.861525
0.854762
0.777327
0.396432
0.960983
1.16027
0.445952
1.26363
1.1602
0.636262
0.604602
0.581377
0.695542
0.758156
0.744432
0.745242
0.821936
0.864872
0.338808
0.535178
0.780619
1.02807
1.23318
0.600019
0.396811
0.492791
0.371136
0.33956
1.0025
0.600152
0.57158
0.923877
0.417661
0.360334
0.372551
0.403782
0.411049
0.540425
0.356733
0.541004
0.509768
0.448173
0.948842
0.349576
0.357986
0.397613
0.426952
0.408239
0.441379
0.378503
0.40857
0.404431
0.404639
0.382891
1.27477
0.474329
0.468066
0.860076
0.465078
0.68376
0.486526
0.621435
0.752668
0.650967
0.71022
0.565876
0.443135
0.486407
0.395701
0.513782
0.503684
0.386443
0.353986
0.438619
0.458998
0.399459
0.449913
0.406493
0.426508
0.420692
0.85015
1.10747
0.796881
0.965186
0.492093
0.335011
0.331246
0.349245
0.368544
0.372013
1.18126
0.332604
0.336558
0.379291
0.685463
0.385578
0.397787
0.396349
0.423827
0.57494
0.532082
0.335551
0.75206
0.477934
0.50461
0.455007
0.508857
0.436457
0.419815
0.439616
1.33536
0.841795
1.39303
0.827897
1.06133
1.09313
0.661982
1.17252
0.833773
0.751957
0.75391
1.1307
0.564671
0.739471
0.828568
0.923627
0.540505
0.475299
0.555507
0.378827
1.0746
0.587049
0.731423
0.72507
0.394416
0.382197
0.675692
0.33627
0.411852
0.838589
0.522197
0.901582
0.442176
1.06159
0.57586
0.887844
0.807363
0.348823
0.457742
0.358519
0.395857
0.354815
0.381096
0.506532
1.04534
0.440463
0.578574
0.924809
0.444746
0.506849
0.530103
0.374897
0.489823
0.605006
1.35534
0.612478
0.600491
0.87456
0.374606
0.366451
0.695754
0.697786
0.636753
0.484831
0.838317
0.532177
0.507194
0.484005
0.350587
0.363193
0.33506
0.366482
0.343526
0.344553
0.714277
0.711949
0.570231
0.513849
0.369855
0.332735
0.57495
0.896975
1.01856
0.553641
0.530461
0.874957
0.549438
0.4635
0.515113
0.552779
0.610461
0.644387
0.673753
0.506602
0.511883
0.900817
0.564147
0.532708
0.612931
0.806608
0.569925
0.403126
0.389478
0.340545
0.354292
0.691133
0.595305
0.37722
0.4419
0.562285
0.388317
0.399168
0.384219
0.406345
0.395279
0.416022
0.422906
0.434136
0.656309
0.741517
0.354387
0.365831
0.331736
0.789409
0.46926
1.09579
0.407175
0.957777
0.908564
0.690027
0.707445
0.618014
0.483329
0.884669
0.505076
0.462627
0.656474
0.414807
0.448722
1.05764
0.57441
0.753038
0.463292
0.585649
0.448896
0.719212
0.505986
0.559806
0.478671
0.460451
0.554446
0.499544
0.348921
0.877655
0.871567
0.373478
0.369246
0.372083
0.396819
0.97557
0.985389
0.610953
0.83172
0.401504
0.40212
0.409298
0.825645
0.984012
0.797513
0.847725
0.405642
0.76161
0.730301
0.832767
0.70532
0.366543
0.97182
0.52006
0.595051
0.564722
0.849154
0.869676
0.79318
0.579624
0.372488
0.367095
0.747535
0.404784
0.373558
0.584497
0.55974
0.550839
0.549999
0.81767
0.43866
0.455151
0.404203
0.907913
0.400525
0.339644
0.345458
0.350659
0.355041
0.353673
0.410991
0.386259
0.351502
0.418977
0.431566
0.444137
0.427062
0.381401
0.394543
0.392136
0.896842
0.336054
0.698295
0.338935
0.562624
0.507328
0.334365
0.388005
0.486855
0.985784
0.605719
0.419498
0.386847
0.429359
0.430153
0.451482
0.956024
0.437592
0.441679
0.614067
0.46398
0.375274
0.427661
0.537573
0.550453
0.801561
0.68641
0.872494
0.778031
0.696832
0.446926
0.440069
0.491446
0.424166
0.447843
0.420377
0.761893
0.374621
0.487226
0.48233
0.546061
0.490201
0.389262
1.09422
0.903109
0.950018
1.29299
1.23731
0.948052
0.792269
0.393725
1.31445
0.516913
0.446159
0.430071
0.418987
0.373936
0.350505
0.343966
0.333522
0.376184
0.345831
0.744822
0.79518
1.11977
1.16514
0.487747
0.443513
0.437741
0.451709
0.371204
0.369306
0.655529
0.51136
0.721856
0.367959
0.663371
0.352995
0.894744
0.539153
0.378568
0.384807
0.977642
0.552382
0.826424
0.415143
0.330658
0.856313
0.396772
0.417538
0.365237
0.371756
0.376519
0.334046
0.357256
1.05318
0.350596
1.0611
0.990749
0.336523
0.346312
0.977594
0.434566
0.39446
0.898161
0.530284
0.404171
0.382304
0.451342
0.404986
0.582563
0.812673
0.634224
0.674728
0.792388
1.01482
0.836685
0.645931
0.978437
0.969922
0.776041
1.20273
0.389338
0.394556
0.39776
0.617031
0.661987
0.347419
0.893314
0.623874
0.332469
0.454428
0.431404
0.377432
0.607974
1.04198
0.510352
0.502244
0.904528
0.607642
0.719786
1.01168
0.378901
0.48477
0.424307
0.464971
0.478589
0.768105
0.671863
0.676508
0.907364
0.671765
0.336322
0.349614
0.442222
0.408659
0.393133
0.768744
0.651766
0.658363
1.03124
1.01188
0.366546
0.380685
0.403865
0.394495
0.40343
0.36742
0.405286
0.657361
0.914908
1.00921
0.780959
0.780164
0.612492
0.581484
0.908042
0.993376
1.02449
0.563457
0.720648
0.921339
0.611343
0.360084
0.695848
0.493234
0.822662
0.643942
0.776934
0.470073
0.594704
0.816049
0.481255
0.43678
0.474384
0.586646
0.748398
0.354762
0.619705
0.422033
0.391684
0.462473
1.21901
0.806444
0.3821
0.528975
0.387915
0.360132
0.37916
0.388377
0.350851
0.57602
0.525114
0.744184
0.512333
0.572663
0.892627
0.675399
0.729672
0.420667
1.19786
1.17649
1.03798
0.769057
0.748385
0.786121
0.644609
0.85669
1.26389
0.843181
1.13969
0.984512
0.720683
0.423799
0.394245
0.365262
0.35665
0.43374
0.806243
0.390273
0.355663
0.360396
0.701921
0.35222
0.33528
0.896606
0.538313
0.775389
1.04071
0.564773
0.564472
0.558195
0.882189
0.435116
0.43254
0.684738
0.42521
0.416542
0.455253
0.389848
0.576044
0.393413
0.399338
0.362327
0.359193
0.45566
0.640938
0.475043
0.588424
0.415544
0.866992
1.05124
0.993863
0.414047
0.531133
1.06787
0.407103
0.443368
0.495266
0.504339
0.669956
0.570145
0.621381
0.422492
0.417007
0.428861
0.418448
0.506443
1.19589
0.872778
0.481417
0.379639
0.545712
0.675626
0.860513
0.875633
0.751571
1.01776
0.532497
0.474978
0.671384
0.831815
0.863394
0.352696
0.454932
1.03825
0.950743
0.917641
0.452932
0.996669
0.444474
0.691954
0.536653
0.359683
0.375298
0.353777
0.371795
0.377585
0.365563
0.327472
0.34261
0.332467
0.500538
0.348293
0.395273
0.368609
0.374174
0.387214
0.40174
0.505961
0.586923
0.487462
0.604766
0.817815
0.98274
0.575272
1.0045
0.429936
0.448827
0.555095
0.553408
1.24853
0.374613
0.37318
0.39886
0.757396
0.587277
0.596601
0.432158
0.654886
0.636397
0.596616
0.416485
0.371869
0.82464
0.631286
0.473127
0.980676
0.358682
0.491674
0.410548
0.739162
0.383304
0.401626
0.379784
0.427785
0.982394
0.73566
0.490752
0.480014
1.60627
0.516229
0.788295
0.745895
0.743019
1.79914
0.630227
0.368344
0.451085
0.870259
0.374331
0.652488
0.571329
0.5331
0.833338
0.764637
0.634759
0.423529
0.369186
0.529636
0.371115
0.398023
0.54092
0.4468
0.474649
0.382518
0.392753
0.764248
0.765161
0.520068
0.384236
0.765773
0.41349
0.653639
0.620505
0.834334
0.779456
0.902355
0.824128
0.405375
0.430457
0.611591
1.24313
0.823929
0.452628
0.826505
0.441331
0.355285
0.435362
0.430176
0.807522
0.776142
0.621357
0.822431
0.952888
0.374916
0.972719
0.662679
1.23027
0.967266
0.604678
0.73292
0.379484
0.364688
0.606652
1.10475
0.820939
1.3199
1.16166
0.608364
0.891231
0.899349
1.24273
1.07884
0.714912
0.647386
0.521795
0.659955
0.801047
0.390568
0.58211
0.356236
0.450451
0.420001
0.633585
0.971195
0.630068
0.397756
0.442026
0.417827
0.739566
1.13239
1.22795
1.37785
2.51576
1.00749
1.0472
0.708351
0.361992
0.492513
0.904897
0.447558
0.912108
0.449649
0.585133
0.356429
0.56083
0.33373
0.826639
0.978116
0.959219
0.869656
0.95164
0.338696
0.481647
0.454499
0.481303
0.497559
0.346605
0.412538
0.413002
1.0465
0.736957
0.494704
0.845695
0.594467
0.482347
0.547493
0.384833
0.385278
0.478947
0.379212
0.378784
0.365436
0.386344
0.421717
0.368652
0.369877
0.368396
0.403544
0.380914
0.347134
0.641688
0.896958
0.795433
0.330202
0.746979
0.460171
0.366142
0.358913
0.373539
0.351638
0.983853
0.332258
0.366315
0.38267
0.408664
0.331993
0.332793
0.331927
0.351115
0.362344
0.359783
0.351093
0.358974
0.607933
0.34407
0.362757
0.953463
0.541218
0.953091
0.655512
0.834762
0.797809
0.591067
0.774373
0.549778
0.624581
0.956227
0.567039
0.554928
0.801732
1.05349
0.916196
0.813046
0.942507
0.717008
0.69957
0.428425
0.584918
1.3469
1.31507
0.374308
1.0199
0.614421
0.367453
0.524228
1.17432
0.984652
0.990628
0.511041
0.974467
0.589129
0.724815
0.501672
0.352106
0.876969
1.07293
1.04305
0.54703
1.1732
0.80386
0.75044
0.887592
0.806369
0.737338
0.431933
1.10636
1.06484
0.871747
0.980307
0.762483
0.859246
0.35875
0.600562
0.364545
0.417132
0.45145
0.367404
0.484674
0.373357
0.376865
0.416918
0.379769
0.466608
0.378673
0.373799
0.342995
0.347967
0.398323
0.452608
0.366154
0.421495
0.388133
1.05789
1.074
0.580988
0.864021
0.339121
0.3514
0.359182
1.02937
0.65882
0.689589
0.660344
0.330928
0.841971
0.333913
0.365062
0.563474
0.857547
0.546892
0.472693
0.672011
0.365502
0.362807
0.439436
0.411387
0.414825
1.13638
1.25349
0.743998
0.559401
0.827947
1.08311
0.727688
0.606153
0.575729
1.00707
0.813877
0.397296
0.353613
0.375948
0.76146
0.418279
0.391906
0.386715
0.885879
0.427753
0.404017
0.363455
0.36431
0.340282
0.660035
0.979236
0.656514
0.864028
0.411277
0.330532
0.417412
0.552334
0.405565
0.806501
0.472425
0.97837
0.416938
0.682584
1.02558
0.749856
0.790762
0.839948
0.613499
0.706607
0.63042
0.611
0.703172
0.561343
0.426226
1.34227
0.971348
0.852519
0.63954
0.673824
0.97607
1.43343
0.612858
0.649753
0.99765
0.386443
0.36326
0.370405
0.386718
0.580402
0.380158
0.346624
0.835038
0.671162
0.335289
0.840882
0.326787
0.423626
0.323857
0.629885
0.456626
0.375877
0.366408
0.495846
0.502535
0.383153
0.625092
0.472704
0.79819
0.827574
0.358287
0.931832
1.03884
1.00093
0.977777
1.43872
0.777365
0.946719
1.05765
0.504018
1.04372
0.439256
0.563339
0.595465
0.636376
0.519972
0.588189
0.530128
0.535514
1.12993
0.356401
0.492971
0.453229
1.36086
0.474935
1.05529
1.15299
0.423171
0.517051
0.429077
0.942464
0.894801
0.513316
1.10523
0.504839
0.454173
0.502277
0.478484
0.352851
0.861465
0.502435
0.446509
0.661888
0.500552
0.508923
0.502741
0.560126
0.383561
0.501131
0.412468
0.3626
0.377021
0.505422
0.738902
0.337867
0.766903
0.685908
0.433424
0.505115
0.848644
0.768759
1.04127
0.85585
0.85867
0.868582
0.669393
0.527697
0.4527
0.462779
1.03948
0.904837
0.645062
0.747726
1.16976
1.05033
1.16045
0.594304
0.489259
0.63017
1.32953
1.05346
0.417666
0.374047
0.615536
0.427603
0.449168
0.373079
0.374918
0.400262
0.423872
0.571424
0.401451
1.03678
0.844082
0.591562
1.06223
1.06008
0.590988
0.360125
0.698917
0.781585
0.337633
0.35491
0.456478
0.389196
0.621761
0.515999
0.701772
0.972645
1.18552
0.740821
0.931867
0.918697
0.913427
1.10785
0.930821
0.761954
1.06666
1.12826
1.07006
0.819621
1.11843
1.09661
0.556651
0.615943
1.04709
0.394803
0.409985
0.45819
0.403274
0.387075
0.437529
0.394788
0.35532
0.376807
0.445301
0.503489
0.388805
0.339337
0.385056
0.475123
0.389288
0.463965
1.14293
0.849256
0.586752
0.431152
1.14115
1.013
0.886105
0.968524
0.740858
0.720529
0.994859
0.890691
0.921971
1.26988
0.697011
0.52587
0.3998
0.396228
0.378987
0.412241
0.432181
0.394365
0.430519
0.419703
0.39372
0.369405
0.334671
0.439765
0.427213
1.17703
0.476501
0.999381
0.61481
0.69849
0.351498
0.358775
0.432879
0.551304
0.426915
0.359664
0.422517
0.437155
0.418814
0.436371
0.439676
0.752474
0.649496
0.742667
0.464176
0.594225
1.05374
0.959992
0.368984
0.412919
0.488722
1.24609
0.996125
0.385057
0.354798
0.367547
0.388846
0.455901
0.532582
0.572671
0.437787
0.620941
0.557044
0.47283
0.475072
0.446984
0.369361
0.416158
0.368185
0.3871
0.445376
0.377833
1.14942
0.623356
0.876045
0.741767
0.664757
0.596836
0.524375
0.554093
0.941571
0.403584
0.966695
0.935608
0.783734
1.04531
0.914234
0.857967
0.360121
0.648143
0.442847
0.428886
0.401221
0.372646
0.54824
0.436244
0.332845
0.704714
0.352066
0.345307
0.379112
0.387663
0.362229
0.393114
0.347924
0.340556
0.385992
2.21234
0.514222
0.510481
0.402907
0.377823
0.48587
0.347346
0.430417
1.13772
0.580902
0.861583
0.574521
0.429974
0.608814
0.425549
0.765231
0.4689
0.411475
0.543583
0.427095
0.432618
0.532419
0.533074
0.412336
0.415304
0.398643
0.436834
0.427949
0.426287
0.486919
0.756732
0.633865
0.630394
0.556884
0.692618
0.596667
0.626509
0.815924
0.642572
0.354467
1.00601
0.822586
0.829691
1.21325
1.24736
0.833495
0.693766
1.40351
0.901304
1.16539
0.74943
0.650417
0.43497
0.35512
0.36701
0.37424
0.724686
0.386844
0.800559
0.33686
0.33054
0.368587
0.351841
0.362705
0.354445
0.398757
1.11838
0.630287
0.823671
0.524834
0.37855
0.640196
0.358544
0.393796
0.394166
0.690837
0.444747
1.04418
0.516055
0.795494
1.0474
0.580419
0.888889
0.35011
0.439812
0.796713
0.570893
1.07212
0.937566
0.737821
0.549934
1.22097
0.954938
0.505636
0.582758
0.362029
0.408625
0.370476
0.454232
0.507224
0.822162
0.520729
0.492828
0.965289
0.663969
0.659056
0.685485
0.503894
0.769514
0.904492
1.29528
0.954835
0.937582
0.828712
0.911518
0.997374
1.0673
0.76175
0.95336
0.993817
1.02839
0.983318
1.05383
0.976705
0.349234
0.335599
0.404144
0.402423
0.3878
0.384854
0.394636
0.383439
0.465434
0.500315
0.456832
0.400188
0.393498
0.375431
0.343718
0.394157
0.340534
0.334595
0.472341
0.341431
0.373589
0.43924
0.330888
0.341886
0.329508
0.372679
0.330907
0.343859
0.343635
0.363902
0.355723
0.428312
0.334326
0.333519
0.769909
0.835132
0.532588
0.603179
1.01537
1.00225
0.908638
0.762711
0.457515
0.447706
0.872477
0.538679
0.75849
0.713904
1.11295
0.782565
1.41523
0.615419
0.893397
0.678118
0.740889
0.761218
0.810838
0.908387
0.863103
0.824754
0.782784
0.969337
0.664148
0.80153
0.526243
0.648484
0.282348
0.775432
1.01573
0.827431
0.735161
0.520322
0.782147
0.825499
0.445559
0.41188
0.430671
1.02852
0.336117
0.354489
0.336079
0.549365
1.02829
0.510603
0.557979
0.521647
0.370786
0.342818
0.355006
0.327349
0.368865
0.360778
0.386977
0.375344
0.372433
0.347795
0.327701
0.56424
0.520358
0.476657
0.841429
0.544301
0.335651
0.341695
0.368485
0.387977
0.416851
0.490347
0.363521
0.37081
0.817106
0.928721
0.86283
0.921681
0.672516
0.54778
0.449144
0.346382
0.348155
0.828754
0.387254
0.400921
0.611628
1.01977
0.400408
0.398138
0.383728
0.482192
0.803763
0.412252
0.382281
1.02883
0.38999
0.743845
0.635263
0.578261
0.417459
0.442135
0.689443
0.450638
0.390072
0.673178
0.390738