/*--------------------------------*- C++ -*----------------------------------*\
| =========                 |                                                 |
| \\      /  F ield         | OpenFOAM: The Open Source CFD Toolbox           |
|  \\    /   O peration     | Version:  2506                                  |
|   \\  /    A nd           | Website:  www.openfoam.com                      |
|    \\/     M anipulation  |                                                 |
\*---------------------------------------------------------------------------*/
FoamFile
{
    version     2.0;
    format      ascii;
    arch        "LSB;label=32;scalar=64";
    class       volScalarField;
    location    "0.0380695";
    object      nut;
}
// * * * * * * * * * * * * * * * * * * * * * * * * * * * * * * * * * * * * * //

dimensions      [0 2 -1 0 0 0 0];

internalField   nonuniform List<scalar> 
3991
(
0.00426217
0.00504216
0.0034634
0.00105377
0.00412057
0.00185352
0.00395879
0.00351027
0.00144829
0.00411302
0.00057661
0.00103434
0.00521726
0.00136179
0.00338445
0.000230248
0.00351642
0.00115506
0.000892988
0.00291064
0.000509447
0.00485163
0.00129927
0.00154736
0.000945797
0.00118733
0.00142007
0.000401063
0.0051899
0.00152246
0.000591978
0.00161288
0.00117529
0.000931652
0.001351
0.00133772
0.00111723
0.000765508
0.00128448
0.000953162
0.000460027
0.00033296
0.000837129
0.000554732
0.00199572
0.00207884
0.000994195
0.00164957
0.00179187
0.00304947
0.00171452
0.00322314
0.00453816
0.0022533
0.00443741
0.00086073
0.00139495
0.000515854
0.000626572
0.00119092
0.00568756
0.0010232
0.000306884
0.000677767
0.000388084
0.00136173
0.000442324
0.000469619
0.00141499
0.00292223
0.0011972
0.00120056
0.00258654
0.00133349
0.00633581
0.00131671
0.00217292
0.00121498
0.00405023
0.0034941
0.000941013
0.00164678
0.00117557
0.00035765
0.000753608
0.000517503
0.000902064
0.00390766
0.00235833
0.00427428
0.000913972
0.000814267
0.000675206
0.000366677
0.000645246
0.00288693
0.000468774
0.000580372
0.00425976
0.00284676
0.000406838
0.000930556
0.00083209
0.000727629
0.00324156
0.00319605
0.00211649
0.0037547
0.00219689
0.00473581
0.00351504
0.00501796
0.0067874
0.00232569
0.00254148
0.00289712
0.00315514
0.00316533
0.00316717
0.00247193
0.00434372
0.000395384
0.0041966
0.000492189
0.000425546
0.000472225
0.00211978
0.00433982
0.00580212
0.00329096
0.00421555
0.00390304
0.00315059
0.000507636
0.000816976
0.00173238
0.00626822
0.00568122
0.00585494
0.00505448
0.00320366
0.000897718
0.000660103
0.000901313
0.00143836
0.00139628
0.00280812
0.00245341
0.00114364
0.00641232
0.00603215
0.00587608
0.00655886
0.00248605
0.0014235
0.00194884
0.00356074
0.0014683
0.000915178
0.00096562
0.00465088
0.00595275
0.00522112
0.000734779
0.0016402
0.00013334
0.00111423
0.000915713
0.000969191
0.00151873
0.00390147
0.00156742
0.00174639
0.00153356
0.00455424
0.00208738
0.000486696
0.00274628
0.00321933
0.00460828
0.00127084
0.00110044
0.00066692
0.00574356
0.00189459
0.00429612
0.00240803
0.000565687
0.000973978
0.00428071
0.0017059
0.00123937
0.000491131
0.000929088
0.00141741
0.00121493
0.00185987
0.000375646
0.00659727
0.00194231
0.00182764
0.000910263
0.000567372
0.00103028
0.00116184
0.00143799
0.00116924
0.000808144
0.000333866
0.00363492
0.000372941
0.000505261
0.000692163
0.000732172
0.000803539
0.00112542
0.00148249
0.000862561
0.000761916
0.00266795
0.000395038
0.000605415
0.00374679
0.000917829
0.00140286
0.000412688
0.000905427
0.00174495
0.000786666
0.00375107
0.000701969
0.00400355
0.00119409
0.00325468
0.0012633
0.000857705
0.00175248
0.00103858
0.000783211
0.00371705
0.00327055
0.00426078
0.00069365
0.00480756
0.00207615
0.00147469
0.00686683
0.000865093
0.00437007
0.00162236
0.000544407
0.000650609
0.00127349
0.00158682
0.0012436
0.000303512
0.00236408
0.000718024
0.000715714
0.0018438
0.000542052
0.00138402
0.00193736
0.00171478
0.00146357
0.000724317
0.00271224
0.00117658
0.000210157
0.000772906
0.00205339
0.00142196
0.00173999
0.00170106
0.0010941
0.00124005
0.00160313
0.00162212
0.00249335
0.00285613
0.00232958
0.00176454
0.00294599
0.00150603
0.00169672
0.00218018
0.00207098
0.00290422
0.00290068
0.00257774
0.00257638
0.00374693
0.00125536
0.0012335
0.00235995
0.00148785
0.00137147
0.00404288
0.000945513
0.00685813
0.00219141
0.00165411
0.00392224
0.000179807
0.000366736
0.00080605
0.000168516
0.00418608
0.00571791
0.00125913
0.00405321
0.00517996
0.000586581
0.00346862
0.00242619
0.00564391
0.00270456
0.00141344
0.00483954
0.00135561
0.00128036
0.00428101
0.000670745
0.00045161
0.0027261
0.00159541
0.00119433
0.00311191
0.00166749
0.00301983
0.00141809
0.00146686
0.00201049
0.00319976
0.00173983
0.00106658
0.00249547
0.00197485
0.0035453
0.00161011
0.0027157
0.00303889
0.00629086
0.00354925
0.00221065
0.0024452
0.00536687
0.00192581
0.00247005
0.00178211
0.00113713
0.00270762
0.000420861
0.00101803
0.00586372
0.00130077
0.000813994
0.00187337
0.00197711
0.00391729
0.0053356
0.000931267
0.00116181
0.00255722
0.00125052
0.00203915
0.000514528
0.00106352
0.00121768
0.00225179
0.00121416
0.00101967
0.000920929
0.000340295
0.00062179
0.0056261
0.00160626
0.000682972
0.00203409
0.00179976
0.00480364
0.00365659
0.00135585
0.00385993
0.00255307
0.00393423
0.000978295
0.00528909
0.0046921
0.00082676
0.00177844
0.000263334
0.00406542
0.00245572
0.00151816
0.00239668
0.000271705
0.000261482
0.00125783
0.00171559
0.00199729
0.00200396
0.00049697
0.00181765
0.001017
0.00204417
0.0053
0.000323819
0.00220796
0.00104717
0.00346932
0.00104184
0.00284709
0.00236344
0.00239436
0.00122783
0.00137205
0.0028881
0.000567565
0.00274235
0.0056935
0.00246933
0.00204238
0.00140429
0.00174217
0.000493503
0.00332548
0.00148568
0.00097765
0.0063409
0.00155695
0.00105735
0.00156252
0.00247311
0.000809701
0.00156844
0.00109043
0.000478559
0.000990736
0.00384202
0.00121772
0.00653034
0.00485946
0.0011082
0.00055138
0.000553146
0.000890804
0.00149556
0.000419549
0.000460928
0.000609461
0.000466023
0.00442714
0.00125385
0.000624252
0.00167569
0.00152574
0.000592246
0.000671905
0.00236526
0.00143187
0.00290263
0.0054326
0.00116413
0.000968983
0.000539564
0.000680721
0.00412014
0.00305001
0.00393253
0.000918652
0.0032114
0.00183284
0.00213415
0.00500638
0.00155495
0.00152517
0.00131722
0.00442489
0.00343701
0.0045497
0.00184408
0.00319528
0.000274304
0.00115487
0.0029559
0.00258573
0.00668193
0.0051447
0.00346601
0.00533229
0.00385174
0.00210882
0.00257524
0.00153003
0.00252598
0.00129301
0.00243573
0.00214125
0.0019978
0.00353146
0.00084188
0.0019591
0.000343383
0.00443928
0.00164571
0.00404961
0.00334579
0.00524567
0.00512735
0.00563646
0.00044061
0.000884771
0.00128839
0.000525055
0.0021515
0.0012918
0.00432455
0.00215487
0.000561951
0.0019371
0.000136251
0.000905113
0.000585472
0.0029011
0.000617663
0.00143176
0.00580767
0.00411911
0.0036901
0.00329408
0.00291042
0.00064353
6.6858e-05
0.00041744
0.00160755
0.000581957
0.00606118
0.00320909
0.00211323
0.00434467
0.000824626
0.00112188
0.0015505
0.00412131
0.00456904
0.000653338
0.00102174
0.00114774
0.000515159
0.00117849
0.000650119
0.00066754
0.000455939
0.000469484
0.00179364
0.00233829
0.000621575
0.000514778
0.000797144
0.000655853
0.00240382
0.00219494
0.00106974
0.000366533
0.00108836
0.000494904
0.000725509
0.00263131
0.000689596
0.000796211
0.00314428
0.00417896
0.00390259
0.00336159
0.00196758
0.000218752
0.000576755
0.000861157
0.000862436
0.000561968
0.000831532
0.000449524
0.00210353
0.00132726
0.00236028
0.00257332
0.00218735
0.00279827
0.00495452
0.00385747
0.00173111
0.00468881
0.00432893
0.00270227
0.00722343
0.00334888
0.00559375
0.00419113
0.0049829
0.00387415
0.00501711
0.000850605
0.000596221
0.00111472
0.00245387
0.00243938
0.00282187
0.000663145
0.00297738
0.00361638
0.00121411
0.00167867
0.000884944
0.000813471
0.000978534
0.00244487
0.00375472
0.00473593
0.00367095
0.00380036
0.00184109
0.002721
0.00202846
0.00193076
0.000967875
0.000898945
0.00170915
0.000394018
0.000743582
0.00123433
0.00215005
0.000854907
0.000815852
0.00116749
0.00361123
0.00249714
0.00276246
0.00342494
0.00268308
0.00204519
0.00387507
0.00378773
0.00389636
0.00362832
0.00275795
0.00116837
0.00411341
0.00165088
0.00126236
0.00286018
0.00417162
0.00175185
0.00494694
0.00483219
0.00433448
0.00228161
0.00158391
0.00031226
0.000183042
0.000269333
0.000184503
0.000299962
0.00046479
0.000753028
0.00148977
0.00202173
0.00226515
0.00240956
0.00280419
0.00179755
0.00365433
0.00274427
0.000599822
0.00231873
0.00128718
0.00121319
0.000668753
0.000878744
0.000718504
0.00128437
0.00333242
0.00288793
0.00318225
0.00147593
0.00380018
0.00313811
0.0020908
0.00254849
0.000927779
0.0033486
0.00598172
0.00183746
0.00512043
0.0034055
0.00472518
0.000697102
0.0035814
0.00128017
0.00115623
0.0016689
0.00590155
0.00126899
0.00507378
0.00365215
0.00110982
0.00120386
0.000513474
0.000536078
0.00172487
0.00438376
0.00198222
0.000938285
0.00412629
0.00554831
0.00255128
0.00277432
0.00207766
0.000870102
0.00036889
0.00116891
0.00090435
0.00249469
0.00189192
0.00273073
0.000308145
0.00268965
0.00176015
0.000845967
0.00120494
0.00278629
0.00193967
0.00429492
0.0017838
0.000966198
0.000492153
0.00305413
0.00255966
0.00226887
0.000496169
0.00435746
0.00178956
0.00237334
0.00214599
0.00108948
0.000443815
0.00155293
0.00159973
0.00111722
0.00140978
0.00306915
0.00416504
0.00343509
0.00377171
0.00305965
0.00168579
0.0017804
0.000703485
0.00114685
0.00120519
0.000740126
0.00473392
0.0011794
0.00460212
0.000898936
0.000501038
0.000502314
0.000238685
0.000865568
0.000842365
0.000570198
0.000442932
0.000576271
0.000907649
0.00402774
0.00218444
0.000961101
0.00303328
0.00229748
0.00248112
0.00357936
0.00351893
0.00107043
0.00132312
0.00145525
0.00367675
0.00259164
0.00275261
0.00180257
0.00164442
0.00196827
0.00213512
0.00166618
0.0037876
0.00506881
0.00330971
0.000865949
0.00247426
0.00291608
0.00176727
0.00394697
0.00115886
0.00233262
0.00199736
0.00269887
0.00174399
0.00172384
0.00162753
0.00109458
0.00113986
0.00273467
0.00055374
0.00426199
0.000805734
0.000609896
0.0022466
0.00553713
0.00198386
0.00585376
0.00118696
0.00203109
0.00117088
0.000945667
0.000840264
0.00311033
0.0067697
0.000672506
0.00239274
0.00430911
0.00179814
0.00250018
0.00156616
0.00197011
0.000659388
0.00712413
0.00431179
0.00128037
0.00186284
0.00156812
0.00264934
0.00671933
0.00517182
0.00114598
0.00288339
0.00660767
0.00599246
0.00131778
0.00636899
0.00468225
0.00429338
0.00293595
0.00528773
0.00516154
0.00600407
0.00140238
0.00129598
0.00123467
0.00128366
0.00149439
0.00127049
0.00168804
0.00123731
0.00130659
0.00104622
0.00167424
0.00224984
0.00337859
0.00183625
0.00224035
0.0031439
0.00591751
0.00398301
0.00395998
0.00125497
0.00189716
0.00201896
0.00333473
0.00260966
0.00150863
0.000578208
0.00112467
0.000189056
0.00100949
0.00086158
0.000289918
0.00137056
0.00447128
0.0059419
0.000568888
0.00160175
0.00649761
0.00490285
0.001551
0.00134443
0.00266894
0.0025067
0.00111744
0.00223619
0.0027322
0.000391707
0.00270603
0.00523499
0.00341516
0.00149943
0.000900326
0.00329158
0.00337506
0.000694995
0.000628864
0.00130949
0.00230645
0.000534298
0.0022315
0.00187242
0.000933074
0.00147482
0.00121244
0.00466842
0.00264317
0.00486322
0.00275197
0.00637207
0.00568467
0.00676999
0.00259079
0.00161782
0.00347956
0.00112602
0.00239476
0.00198935
0.00169995
0.00159173
0.00122615
0.00203316
0.000801339
0.00074317
0.00149861
0.00128085
0.00118921
0.00663019
0.00169397
0.000983968
0.00097479
0.00212676
0.000695322
0.00101674
0.000812223
0.000257805
0.00177851
0.0011268
0.00111175
0.00136504
0.000981423
0.00481158
0.00582228
0.00125351
0.00351308
0.00195658
0.00255383
0.00127265
0.00211036
0.00127659
0.000588174
0.00105219
0.000222218
0.00120712
0.000958784
0.000573542
0.00102295
0.00107748
0.000765328
0.000592137
0.00222815
0.00309126
0.00134796
0.00400524
0.00304824
0.00280548
0.00385246
0.00286103
0.00295112
0.000642725
0.0022569
0.0059901
0.00259306
0.000515144
0.00424793
0.00119396
0.00287545
0.000530754
0.00317369
0.00215344
0.00483285
0.00141814
0.00460491
0.00212002
0.00237488
0.00130804
0.00218819
0.00048485
0.00113842
0.00132027
0.00103122
0.00144964
0.00109322
0.00070881
0.00114452
0.0020781
0.00210402
0.000676674
0.00131502
0.00118642
0.000710853
0.00200476
0.00200898
0.00212733
0.00279855
0.0018822
0.00236207
0.00216826
0.00195574
0.000704575
0.00429885
0.00071926
0.000428444
0.00106013
0.000347747
0.00295197
0.00462508
0.000987297
0.0015864
0.00238033
0.000308672
0.000440858
0.000456786
0.00259112
0.000508029
0.000646231
0.00141154
0.000533178
0.00109904
0.000721822
0.00109541
0.00110666
0.000949884
0.000617023
0.00128457
0.000814184
0.00131631
0.00184532
0.00133405
0.000903756
0.000991703
0.00102751
0.000582653
0.000654664
0.000532586
0.00135458
0.00118483
0.000928885
0.00109857
0.00138916
0.00165048
0.00148982
0.00128833
0.00118424
0.00258438
0.00208653
0.00148493
0.00277794
0.000711361
0.00320325
0.00268169
0.00289718
0.00202574
0.00550647
0.000486005
0.00123967
0.00641724
0.00602629
0.000997717
0.00188809
0.00159787
0.0029885
0.00126981
0.00474128
0.00187945
0.00117921
0.00118579
0.00155184
0.000445633
0.00465236
0.00444315
0.000686735
0.00340644
0.0027307
0.00254035
0.00192537
0.00245088
0.0012038
0.00206615
0.00299182
0.00500525
0.000913207
0.00190811
0.000686972
0.00120373
0.00284012
0.00200254
0.00413815
0.00121088
0.00269421
0.00166477
0.000976279
0.000803519
0.00176877
0.00352876
0.00126276
0.0022666
0.00222214
0.000921812
0.00133069
0.000420826
0.000673964
0.000387038
0.00115647
0.000421966
0.000915067
0.00283729
0.00426723
0.00145361
0.00295229
0.00422071
0.00254591
0.00452845
0.00181998
0.00295777
0.00180685
0.00271206
0.00247122
0.00228234
0.00651168
0.00609543
0.0015234
0.00267385
0.00302603
0.00234862
0.00131332
0.00170054
0.00240447
0.00178036
0.000681473
0.00172394
0.00220812
0.00155901
0.00152685
0.00265
0.00297238
0.00217888
0.00175321
0.0019725
0.00218624
0.00199767
0.00016402
0.000824725
0.00145381
0.000788418
0.00174489
0.000814045
0.00393497
0.00387583
0.00341874
0.000794326
0.00485419
0.00478742
0.00277574
0.00102902
0.000855694
0.000905942
0.00718971
0.00078021
0.00113617
0.00444285
0.00504708
0.00405284
0.00215742
0.00611944
0.00161987
0.00241479
0.00497187
0.000753303
0.00109953
0.00124961
0.000712462
0.000819994
0.00102944
0.000885683
0.000450702
0.00169632
0.000854851
0.00124716
0.00110176
0.000728108
0.00170006
0.000534893
0.00081918
0.00432492
0.00201808
0.00381653
0.00380923
0.00363298
0.00291002
0.00392168
0.0030193
0.00268153
0.00362325
0.00123067
0.00394276
0.00220002
0.000519246
0.000702272
0.0008878
0.000553709
0.000494534
0.000369742
0.00049909
0.00441981
0.00212869
0.001698
0.00194733
0.00232626
0.00411075
0.000974647
0.00188277
0.000860291
0.00163606
9.68399e-05
0.000716634
0.000398181
0.000283509
0.00223692
0.000381512
0.000532125
0.000445064
0.00113548
0.000870754
0.000294401
0.00153018
0.000305719
0.00103736
0.000121163
0.000558733
0.00113865
0.000701001
0.0014617
0.000321634
0.000557625
0.000755841
0.00070803
0.0015239
0.000968837
0.0012043
0.00119613
0.000837343
0.000432289
0.000394184
0.00129833
0.000787645
0.000862346
0.00122548
0.000475489
0.000989771
0.00328668
0.000926743
0.000566474
0.00150835
0.00125972
0.000638995
0.00154663
0.000316929
0.000259341
0.000670192
0.000976626
0.00197356
0.000978738
0.00142741
0.0013072
0.000848905
0.00116099
0.00108776
0.00494857
0.00541759
0.00420175
0.000516196
0.00507785
0.00182842
0.00105417
0.00218717
0.00041349
0.00563732
0.00595439
0.00294166
0.00101066
0.00143705
0.00146995
0.0059429
0.00051326
0.00330277
0.00052833
0.000438549
0.0019219
0.000508044
0.000353629
0.00340531
0.00177122
0.00632064
0.00071965
0.000191739
0.000684727
0.00018061
0.000491117
0.000631139
0.00648551
0.00320696
0.00618296
0.00385975
0.00632077
0.00359223
0.00415634
0.00196925
0.0030122
0.0019894
0.000309309
0.000748937
0.00111633
0.00244748
0.00579859
0.00159813
0.00214541
0.00398041
0.00494594
0.00177036
0.0043817
0.00136445
0.0014222
0.00153133
0.000605974
0.00177768
0.00161745
0.000834638
0.000985584
0.00338399
0.00178127
0.000854056
0.00261926
0.00217512
0.00195066
0.00208364
0.00264651
0.000445122
0.00131329
0.00177305
0.00381707
0.00156852
0.00325839
0.00136643
0.00649625
0.00380929
0.00153107
0.00342066
0.00050679
0.000828078
0.00245131
0.00147568
0.00412977
0.00309157
0.00171682
0.00136165
0.00153709
0.00081779
0.000711594
0.000696091
0.000874355
0.00131986
0.000957591
0.00112583
0.000370885
0.00195802
0.00588434
0.000821103
0.00162756
0.00159951
0.000664564
0.000270692
0.0011037
0.0015943
0.00229404
0.000951661
0.00489441
0.00566573
0.00518858
0.00692639
0.00308553
0.00334426
0.00154273
0.000498884
0.0012805
0.00157782
0.00181649
0.00116317
0.00132594
0.00123758
0.00132419
0.00191715
0.00108981
0.00295497
0.00153844
0.00294356
0.00299704
0.000734772
0.000755355
0.00242444
0.00250918
0.00444192
0.000740373
0.00183058
0.000637144
0.000771891
0.00159564
0.000648724
0.00061411
0.000534681
0.000448947
0.00116869
0.00129154
0.00143301
0.00118692
0.00149882
0.00238679
0.00150456
0.00168171
0.00184587
0.00173644
0.00109827
0.00133585
0.000912673
0.000753679
0.00146479
0.00311465
0.000542498
0.00125733
0.0023202
0.00161142
0.00106836
0.00142253
0.00142036
0.00142122
0.00351072
0.00282924
0.00365087
0.00163593
0.00333875
0.00351777
0.00294165
0.000451906
0.000922145
0.00594525
0.00505959
0.00503649
0.00547238
0.00164798
0.00126922
0.00130145
0.00210333
0.00335762
0.00302835
0.00257486
0.00290643
0.00229466
0.00321923
0.00442889
0.00321654
0.00241141
0.00359643
0.000727429
0.00366289
0.00145205
0.00377476
0.00182925
0.00553376
0.00258929
0.00252629
0.00087463
0.00243352
0.00172446
0.00150174
0.0045251
0.00218095
0.000244094
0.00140255
0.00103725
0.00403884
0.00149278
0.00395008
0.00189016
0.000911224
0.000797632
0.00106833
0.000999259
0.000989678
0.00256305
0.00105514
0.00141876
0.00297209
0.00479841
0.00392819
0.00270849
0.00416192
0.00140851
0.0010391
0.00601005
0.000949473
0.000367737
0.00230907
0.00246631
0.00243935
0.00398854
0.0031313
0.00574414
0.00305163
0.00130535
0.00264354
0.00169468
0.00584877
0.0022654
0.00219504
0.00194424
0.00192255
0.00274216
0.0013236
0.00107261
0.000697869
0.00063154
0.00198096
0.000397427
0.00162407
0.00231789
0.00193663
0.00148914
0.000879658
0.00106529
0.00214693
0.00320464
0.00165115
0.00193462
0.00140239
0.0013095
0.00372485
0.00316687
0.00290508
0.00357435
0.0011826
0.000872833
0.00486424
0.00268677
0.00133982
0.00614539
0.00230729
0.00487494
0.00381143
0.00313342
0.00640931
0.00242657
0.00460697
0.00118288
0.000825111
0.000824338
0.00105117
0.00403556
0.00211368
0.00546869
0.00373788
0.00432541
0.00144419
0.00670739
0.0029501
0.0032151
0.00295993
0.00479147
0.0010547
0.002157
0.0010671
0.00296172
0.0037399
0.00377727
0.00430919
0.00232883
0.000952371
0.00423599
0.00153365
0.00395002
0.00329597
0.0050145
0.00125648
0.000733237
0.00231114
0.00134149
0.00484198
0.000146293
0.00102784
0.000885191
0.00143792
0.000950425
0.000302244
0.00297234
0.00170435
0.000845863
0.000998932
0.00503417
0.000774906
0.000300842
0.00118123
0.000453824
0.00328294
0.00200333
0.00461361
0.00195854
0.00076842
0.00197271
0.00117864
0.00541813
0.00295633
0.00286335
0.00335439
0.00213585
0.000715026
0.000992228
0.00676373
0.00121393
0.00123756
0.00255046
0.00567975
0.00220106
0.00394927
0.00555088
0.00106198
0.00476327
0.00465868
0.00141846
0.00224401
0.00563053
0.00320501
0.00628567
0.00223798
0.00185908
0.00669789
0.00441807
0.00272507
0.00153319
0.00211244
0.00512125
0.00117344
0.000850797
0.00108334
0.000473238
0.00281216
0.000495518
0.00686652
0.00120709
0.00230851
0.00494371
0.00186743
0.00392717
0.00138657
0.00486836
0.00141588
0.00170643
0.000942732
0.000352094
0.000100737
0.000443481
0.000948811
0.000267875
0.000236863
0.000819465
0.00237091
0.000463037
0.00353664
0.00482304
0.000316398
0.000506221
0.000392249
0.000947345
0.00356583
0.00166012
0.00227962
0.00125836
0.000821872
0.000835772
0.000966725
0.000465966
0.000962839
0.000814927
0.000729408
0.000145662
0.0012075
0.00149783
0.00595955
0.000245627
0.00239767
0.00679907
0.00487475
0.00374085
0.00274728
0.00678469
0.00672491
0.00183371
0.00121242
0.000551499
0.00165903
0.000902443
0.00188475
0.00103126
0.00137397
0.00129358
0.00124336
0.00174297
0.000438335
0.000846755
0.0026889
0.00163546
0.000533178
0.000238947
0.000857917
0.00049189
0.000455942
0.000761039
0.00102025
0.00142546
0.000878213
0.00125043
0.00144565
0.00103504
0.000635997
0.000900892
0.000713334
0.00152464
0.000866302
0.00273917
0.00301453
0.00175681
0.00148747
0.00157236
0.0017773
0.00130902
0.00115049
0.0031639
0.00392675
0.000476883
0.000121414
0.000203765
0.00145031
0.00172258
0.000646359
0.00243658
0.00504745
0.000294913
0.000619907
0.000856429
0.000400109
0.00103969
0.00298357
0.00229387
0.00148595
0.0014353
0.000851654
0.00689151
0.00220154
0.00128003
0.00238825
0.00184308
0.00480711
0.00527241
0.00264422
0.0012329
0.00240767
0.00179524
0.0026267
0.00138703
0.00167996
0.00146374
0.00386062
0.000321148
0.000920675
0.000665071
0.000757203
0.00119039
0.000988565
0.000840122
0.000603512
0.00106011
0.000722955
0.000592018
0.000523127
0.000655037
0.000853052
0.00611009
0.00246856
0.00263659
0.00597476
0.00525642
0.00224687
0.00235027
0.00483853
0.00364666
0.00440355
0.00189681
0.00403754
0.000807185
0.000805517
0.000909341
0.000850742
0.00240488
0.00281662
0.00282487
0.0020589
0.00404336
0.00411624
0.00176906
0.00377648
0.00324604
0.00659673
0.000617097
0.00602965
0.00411865
0.00584012
0.00585766
0.00270158
0.0019245
0.00478005
0.00127028
0.00191536
0.000950518
0.00127939
0.00124723
0.00146219
0.00167434
0.00113619
0.00088881
0.00111505
0.00158618
0.000900868
0.000637262
0.00147658
0.000890764
0.00133574
0.00103301
0.000346382
0.000923178
0.000269965
0.00295105
0.000561249
0.00076813
0.0021988
0.000855375
0.00111041
0.000446298
0.00281627
0.000185407
0.00229454
0.00142567
0.00119554
0.00450797
0.00579036
0.00181463
0.00433762
0.00175218
0.00110956
0.00127567
0.00154124
0.00249032
0.00158924
0.00259653
0.00123435
0.00102195
0.00526675
0.00135239
0.00564439
0.00349655
0.00377021
0.00287492
0.000913058
0.000194206
0.00233336
0.000601572
0.00182451
0.00130123
0.00188054
0.00231198
0.00697594
0.00106147
0.00205146
0.00139488
0.00075808
0.00112481
0.00104722
0.0072567
0.00728914
0.00199742
0.0016803
0.000354891
0.000938961
0.00156355
0.000652773
0.00157881
0.000996296
0.00314979
0.0043948
0.00237254
0.00497338
0.00251
0.00255604
0.000380955
0.00028261
0.000800894
0.000980564
0.00632117
0.00453386
0.00068691
0.000425526
0.000300722
0.000612309
0.000857271
0.000322358
0.000543061
0.000798115
0.000589485
0.000576995
0.000448446
0.00053141
0.000411933
0.000820909
0.00081274
0.000418828
0.000584398
0.00198394
0.000389876
0.00152763
0.000952999
0.00217385
0.00265841
0.00496477
0.00411732
0.000552734
0.000915119
0.0043977
0.00123072
0.00128502
0.00247211
0.00168918
0.00231568
0.00117085
0.00177944
0.00130385
0.00163606
0.00129782
0.00075866
0.00068901
0.00592327
0.00187213
0.0032726
0.000636229
0.00489318
0.000891157
0.00187192
0.00206102
0.00195043
0.000224048
0.001028
0.000518004
0.000520451
0.0012051
0.000654591
0.00101947
0.000513708
0.00142484
0.0010083
0.0015395
0.000501492
0.00231983
0.000804154
0.000787226
0.00101728
0.000312789
0.000724662
0.000569208
0.000721328
0.000827925
0.00102682
0.000767746
0.00607767
0.000419479
0.000381098
0.00189896
0.00244967
0.00301021
0.00165433
0.000334997
0.000304999
0.000594525
0.00120796
0.00183382
0.00163781
0.00179606
0.00139374
0.00152594
0.00104113
0.00171272
0.00148146
0.00131446
0.000854853
0.00107726
0.000645181
0.00360963
0.000221106
0.000432376
0.000449513
0.000539909
0.000404046
0.000285466
0.000446436
0.000426068
0.00430265
0.00428973
0.000515452
0.00157497
0.00283941
0.00131237
0.00163549
0.00101402
0.00107038
0.000528311
0.000767022
0.00104184
0.00160538
0.000371059
0.00185137
0.00623766
0.00678019
0.00696925
0.00348277
0.00376216
0.0020009
0.0026454
0.00605746
0.00213896
0.00192467
0.00181997
0.00128831
0.00329458
0.00328332
0.00216571
0.00114823
0.00446398
0.00146317
0.00508648
0.00110375
0.00217046
0.0051125
0.00314285
0.00204855
0.000869801
0.00198074
0.0016379
0.00323938
0.0011016
0.00154504
0.00125912
0.00146471
0.00175492
0.00132666
0.00080287
0.000771715
0.0025146
0.00150313
0.000764616
0.000482438
0.000914012
0.000965432
0.00034082
0.000457979
0.00067113
0.00163413
0.00196134
0.00132089
0.0021813
0.00172602
0.00160795
0.000686564
0.00259693
0.000997811
0.00138604
0.00232856
0.00110292
0.00258396
0.00138214
0.00100395
0.00108662
0.000638694
0.0017298
0.00117617
0.00123756
0.00460555
0.00117915
0.000968053
0.000746279
0.00139058
0.00160049
0.00673218
0.00627137
0.00453793
0.00458649
0.00342657
0.00460382
0.00145659
0.00146234
0.000828052
0.00123712
0.00194755
0.00328575
0.00289677
0.00427444
0.00452852
0.00499548
0.00163224
0.001734
0.000389325
0.00619001
0.00206429
0.00626334
0.000371929
0.0014089
0.00661253
0.0046661
0.000494146
0.000715385
0.00108019
0.00188861
0.00426193
0.00103935
0.00275993
0.00241908
0.0040273
0.0023026
0.00308006
0.00411085
0.00352163
0.00176898
0.00703852
0.00273644
0.00312257
0.00417425
0.00624729
0.000237598
0.00130584
0.00181547
0.00018746
0.00193237
0.00213541
0.00180187
0.00232739
0.00192359
0.000933456
0.000555784
0.000564889
0.000503332
0.00011042
0.00127725
0.00053858
0.000839471
0.00177772
0.00212831
0.00074624
0.00076678
0.00284678
0.00482768
0.00295272
0.000613828
0.000614353
0.00198979
0.000994564
0.00298977
0.00249233
0.00427857
0.00277037
0.00282263
0.000788108
0.000380088
0.000953116
0.000767703
0.000106308
0.00044175
0.000677243
0.000701671
0.00276652
0.000781696
0.00217163
0.00188629
0.00181682
0.00202506
0.00224583
0.00231017
0.00116247
0.00231726
0.00345168
0.00480759
0.00106684
0.00124856
0.00140451
0.000756187
0.000677024
0.000984281
0.00182322
0.00189506
0.00237987
0.00221584
0.00182467
0.00210829
0.00249635
0.00441911
0.00317058
0.00240964
0.00250109
0.0016664
0.00051781
0.000263418
0.00107238
0.00155436
0.00295175
0.00189878
0.000968319
0.00294509
0.000547971
0.00225947
0.000508414
0.00407969
0.00123712
0.000835761
0.000342179
0.00113335
0.00109483
0.00193351
0.000998135
0.00167145
0.00285426
0.00151123
0.00402691
0.00147649
0.00147664
0.00491097
0.00218163
0.00631039
0.00676546
0.00132899
0.00157701
0.00159151
0.00712426
0.00349289
0.0055543
0.00578239
0.005075
0.00368399
0.00598639
0.00403728
0.00464293
0.000328721
0.00179289
0.00307503
0.00157543
0.00222828
0.00197108
0.00417955
0.00145615
0.00153591
0.00140657
0.00159964
0.000929819
0.00111533
0.00126072
0.00164243
0.000209506
0.00116531
0.00159885
0.000967602
0.001366
0.00146722
0.00201933
0.00445905
0.00371608
0.00104867
0.000244937
0.00230911
0.00692306
0.00505523
0.00149287
0.00224825
0.00217851
0.000671992
0.000612234
0.00109378
0.000830389
0.000688177
0.00196199
0.00166067
0.000686119
0.00241279
0.00169082
0.000366098
0.00236877
0.00271664
0.00154256
0.00340715
0.00132084
0.00249962
0.00264309
0.00295237
0.00386755
0.00163059
0.00107873
0.00125579
0.00132054
0.00239714
0.00148636
0.000569408
0.00136945
0.0033295
0.000502993
0.000292567
0.00429706
0.00178153
0.000533914
0.000686593
0.000391935
0.000432559
0.000353901
0.0011611
0.0015103
0.00266123
0.00191299
0.0012865
0.000290463
0.000922527
0.000753001
0.00262565
0.000672925
0.000659253
0.000343588
0.000357195
0.00108522
0.000219731
0.000523745
0.00284381
0.00283307
6.71188e-05
0.000891061
0.00632009
0.00212966
0.00105525
0.00109956
0.00110098
0.00216383
0.00111686
0.00135628
0.0013903
0.000910122
0.00394965
0.0035121
0.00502309
0.00375331
0.00334083
0.00598856
0.00234522
0.00617962
0.00398805
0.00156792
0.00573447
0.00307974
0.002625
0.00230669
0.00257783
0.00156785
0.000787885
0.00196172
0.00102439
0.00086293
0.00238339
0.000270776
0.00128458
0.000959536
0.00154838
0.00134538
0.000821351
0.00056583
0.00037163
0.00581839
0.0039649
0.00196705
0.000820558
0.000855767
0.000871264
0.00113239
0.000757742
0.000333226
0.00056634
0.00132179
0.00378212
0.000712899
0.00139571
0.000936951
0.000156472
0.00475046
0.000897475
0.00141768
0.000521278
0.00236149
0.00143374
0.00251399
0.00112457
0.000187668
0.000560213
0.00222316
0.000978172
0.000456737
0.000639598
0.00057963
0.0012822
0.00136247
0.000424909
0.000639354
0.003584
0.000845484
0.000292608
0.00289378
0.000397626
0.000386653
0.00113883
0.000350261
0.000756864
0.000488738
0.000950993
0.0033595
0.00165707
0.00298284
0.00178375
0.00139265
0.00132081
0.00153129
0.00336224
0.00232937
0.000474021
0.000829079
0.000823813
0.00197584
0.00298863
0.00153182
0.00050411
0.000828364
0.000713684
0.000856367
0.000448403
0.000415054
0.00200451
0.000930194
0.000589205
0.000319856
0.000672651
0.00350211
0.00174834
0.00285446
0.0039392
0.0041519
0.00135024
0.000819512
0.00176143
0.00263762
0.00100392
0.00100675
0.00592681
0.00019139
0.000425867
0.00252038
0.00172432
0.000574357
0.000894839
0.00554624
0.0045629
0.00165615
0.00275323
0.00119064
0.00162876
0.00013198
0.000848628
0.000365895
0.00100144
0.0012456
0.00103722
0.00186803
0.00182269
0.00124362
0.000631169
0.00102757
0.0032348
0.00230035
0.00478561
0.00238975
0.00153707
0.00172154
0.000993332
0.00170658
0.00206629
0.00127083
0.00186138
0.00172348
0.000394571
0.000314542
0.00092138
0.000319463
0.000936577
0.000807211
0.000682235
0.00459193
0.00112108
0.00017451
0.00298668
0.00102218
0.00150857
0.00203147
0.00343105
0.00163514
0.00454152
0.0012635
0.000294597
0.000496918
0.000525771
0.00041115
0.00417554
0.00170928
0.00236841
0.00149229
0.00183963
0.00645647
0.00118787
0.0015928
0.000839877
0.00061944
0.000475239
0.000842217
0.00301345
0.000729732
0.000973254
0.0028681
0.00560655
0.000405122
0.0020016
0.00218994
0.002455
0.00205593
0.00409195
0.00468192
0.00421617
0.0049951
0.0042715
0.00272355
0.00612747
0.00261609
0.000678176
0.000799307
0.00327973
0.000864239
0.000805246
0.0042801
0.00413519
0.00288998
0.00483673
0.00113504
0.00492964
0.00464216
0.00216388
0.00201731
0.00457574
0.00463286
0.00420276
0.00497104
0.00297422
0.00298639
0.00659702
0.00342921
0.000572597
0.00458473
0.00522851
0.00214887