/*--------------------------------*- C++ -*----------------------------------*\
| =========                 |                                                 |
| \\      /  F ield         | OpenFOAM: The Open Source CFD Toolbox           |
|  \\    /   O peration     | Version:  2506                                  |
|   \\  /    A nd           | Website:  www.openfoam.com                      |
|    \\/     M anipulation  |                                                 |
\*---------------------------------------------------------------------------*/
FoamFile
{
    version     2.0;
    format      ascii;
    arch        "LSB;label=32;scalar=64";
    class       surfaceScalarField;
    location    "0.0380695";
    object      phi;
}
// * * * * * * * * * * * * * * * * * * * * * * * * * * * * * * * * * * * * * //

dimensions      [0 3 -1 0 0 0 0];

oriented        oriented;

internalField   nonuniform List<scalar> 
7651
(
0.0187263
-0.0095471
-0.00237756
0.000767726
-0.0120556
0.00850352
0.00278434
0.0153257
-0.00388314
0.00870897
-0.0201515
0.000411139
-0.000664276
-0.000182244
0.000435382
-0.000955877
0.0217398
-0.00439054
-0.0163934
0.0021101
-0.00558863
0.00648536
-0.00300683
-0.00501609
0.000812574
0.000161813
0.0040417
-0.00732811
-0.00746645
0.00590855
0.000117963
-0.00038477
0.00035656
-8.97523e-05
-0.0277297
-0.0142178
-0.026655
-0.000443429
-5.5525e-05
0.000435525
6.3429e-05
0.00198082
-0.000704199
0.000170926
-0.00144755
0.00631754
-0.00450885
-0.00669463
0.00488594
7.07399e-05
4.81657e-05
-0.000307195
0.00018829
0.000766459
-0.000771839
0.00551612
-5.73525e-05
-0.000340376
-3.57704e-06
0.000401305
-0.00412412
0.00315268
-0.00178978
0.00276122
0.000792675
0.00250351
-0.00246016
-0.000297952
-0.000110298
-9.41213e-06
0.000417662
0.00528593
0.0134793
-0.0179647
0.000490472
-0.000704595
0.000139652
7.44702e-05
0.00302271
0.00319727
-0.00337774
0.000434399
0.000166681
0.000298943
-0.000900023
0.00323316
-0.00129263
-0.00219849
0.000257963
-0.0033713
0.00137371
0.00452214
-0.00252455
0.000153819
0.001541
-0.0053419
0.00364708
-0.000384369
0.00248596
-0.00215955
5.79503e-05
0.000526112
-0.000402558
-0.000274166
0.000150612
0.0121696
-0.0111111
-0.00479842
0.00373987
-0.000237188
-0.00038633
-9.8428e-05
0.000721946
0.000115994
-0.000549014
-0.000688698
0.00112172
-0.000146708
-0.0016938
0.000921755
0.000918753
0.00848929
0.00399914
-0.0100963
-0.00239213
0.000973479
-0.00157626
-0.00019197
0.000794748
0.00233495
-0.00245349
-0.000761473
0.000880015
-8.36187e-05
0.000853882
-0.00125987
0.000489607
-0.000599505
3.13782e-05
0.00100232
-0.000434196
0.000581721
0.000616397
-0.000744549
-0.00045357
-0.000586332
0.00184281
-0.000600264
-0.000656218
-0.00036678
0.000348996
-0.000460207
0.000595495
0.000293264
-0.000428552
0.000801594
-0.000185197
-0.00306235
-0.000350899
0.00281713
0.000596121
0.00048702
0.000314574
0.00185475
-0.00303431
-0.0010743
0.00225386
-0.000922874
-0.00145578
0.00125303
0.000858269
-0.00153409
0.000675818
-6.92531e-05
-0.000939842
0.000915151
9.39443e-05
0.00395981
0.0032992
-0.0029571
-0.00430191
-0.00146276
-0.00144738
0.00131064
0.0015995
-0.0146387
0.028709
-0.0140704
-0.018584
-0.0105542
0.0106879
0.0184503
-0.00277643
-0.0107919
0.00677513
0.00679324
-0.00136965
-0.00332953
-0.00625048
0.0109497
0.0619458
-0.0258358
-0.0284256
0.000804458
0.000840394
-0.000717616
-0.000927237
-0.00280393
-0.00362154
-0.00306491
0.00949037
-0.000590207
0.000738225
-0.000148018
0.000164537
-0.00066511
-0.000258502
0.000759074
-0.000452851
0.000741954
0.000145296
0.0037654
-0.000762256
-0.00437444
0.00137129
0.0022791
-0.00318997
0.00106919
-0.000158318
0.000393512
0.000249034
-0.000336813
-0.000305733
-0.000342562
2.51725e-05
0.000317389
-8.06566e-05
0.000302669
-0.000582466
0.000360453
0.000616038
-0.000523208
0.00034264
-0.00043547
-0.000145452
0.000230434
-8.49828e-05
2.13718e-05
0.00018107
-0.000486869
0.000284427
-0.00376901
0.000777671
-0.000846029
0.00383737
-0.00321014
-0.00795865
0.0102129
-0.000523239
-0.00113463
0.000852672
0.00600385
0.00237024
-0.0076748
-0.000699285
-0.0420684
-0.00538688
0.0351504
0.0123049
0.00254163
-0.0029079
-0.00300503
0.0096029
-0.000883403
-0.0107872
0.00206775
-0.0020232
0.000230976
0.00101681
0.000775416
-0.00423717
-0.00552339
-0.00250472
0.0122653
0.00018993
-0.000615473
0.00237208
-0.00194654
-0.00287005
0.00354616
0.00224167
-0.00291778
-0.0250783
-0.00469072
-0.00607374
0.0358428
-0.000563436
4.18748e-05
-0.000625972
0.00114753
-0.00270687
0.0165813
-0.00383413
-0.0100403
0.00150194
-0.0012585
0.000201906
-0.000445348
0.000455131
-0.00141652
0.000276154
0.000685239
-0.000492837
-0.00202207
0.00102448
0.00149043
-0.000353991
0.000284422
6.95695e-05
-3.8427e-05
0.000103983
0.000384055
-0.000449612
0.00733215
0.0065917
-0.00999493
-0.00392892
-0.00691839
0.000898968
0.000893409
0.00512601
-0.0150508
0.0134722
0.00635672
-0.00477814
0.000150913
0.00257702
-0.00228759
-0.000440338
0.0123637
-0.000628682
-0.0108035
-0.000931495
-0.000207931
8.66435e-05
-8.24741e-05
0.000203762
-0.000152492
0.000100265
5.22268e-05
0.000136676
-2.66754e-05
-0.000262492
0.00761713
0.0173552
-0.0199294
-0.00504291
1.82302e-05
-8.94856e-05
0.000163237
-0.000133684
5.21332e-05
-8.16865e-05
0.00565542
0.0253719
-0.0423809
0.0113536
-0.0244555
0.00454762
0.00132378
0.000316193
-6.63121e-05
0.00128296
-0.000745957
0.00026077
-0.000797768
0.000538407
-0.000351903
-0.000394054
-0.0464563
-0.034345
-0.00577127
0.0137843
-0.0049752
-0.0030378
-0.00751952
0.0152774
0.000200341
-0.00795823
-0.00172166
0.00249477
-0.00457769
0.00380458
0.00423216
0.000271644
-0.00440615
-9.76582e-05
0.000110807
0.000562066
0.00564467
0.00500599
-0.00228831
0.00221438
-0.00493206
-0.00758126
0.00192229
0.00115012
-0.00183246
-0.00471045
-0.000151718
-0.00290977
0.00276093
6.20433e-05
8.67975e-05
0.00219994
-0.000877545
-0.00155842
-0.000391643
-0.00313708
0.00508714
0.0221299
0.00317308
-0.00612447
-0.0191785
-0.0202014
0.00558603
0.00979995
0.00481539
0.00208358
-0.000155037
-0.0158347
0.0155862
0.00583453
0.0489509
-0.0445253
0.0748809
-0.0793065
0.000877033
-0.000444048
0.0006745
-0.00110749
0.00156668
-0.00179253
0.00393694
-0.0037111
0.000127433
0.00112327
-0.000314435
-0.000936266
-0.00323337
-0.00165573
-0.000119176
0.00500828
-0.000215408
-0.00054654
0.000475919
0.00028603
0.0287842
-0.00391807
-0.021693
0.0164354
-0.00827135
-0.00723408
-0.000929931
0.000716677
-0.00595565
-0.00109878
0.00633776
0.000237218
0.00317196
-0.00256582
-0.000843349
-0.00413074
0.00227586
-0.00466525
0.00652013
0.00297053
-0.00324538
0.00206686
-0.001792
0.00292833
-0.00052171
-0.0021694
0.000478578
-0.000437069
-0.000123983
-7.91854e-06
-0.000376899
-0.000429645
0.000814462
0.00289898
8.71912e-05
-0.0026883
-0.000297864
0.01584
0.0411238
0.000444843
-0.0022434
0.00797769
-0.00617914
-0.00878905
0.00778728
0.000146389
0.000855377
0.0105119
-0.00699119
-0.00898669
0.00546602
-0.003611
0.0258382
-0.000819145
-0.021408
0.000285988
0.000777079
-0.000961258
-0.000101808
7.26917e-05
0.000848643
-0.000509554
-0.000411781
0.000118326
-0.000871383
0.00103904
-0.00230815
-0.000582209
0.00059574
0.00229462
0.00250524
0.00251984
0.0661739
-0.0181669
-0.00358328
-0.0444237
0.00554513
0.00965753
-0.0133492
-0.00185345
-0.000803625
0.000158409
0.000362842
0.000282373
0.00562506
0.00280075
-0.00332458
-0.00510122
0.000521679
0.00548494
-0.000381563
-0.00018684
-0.0054019
-0.00207976
0.0076685
-0.00446804
-0.00188277
0.00616397
-0.00103348
0.00293158
0.00139245
-0.00329055
-0.000554506
0.00152446
-0.0032781
-0.00405588
0.00246789
-0.00200911
0.00770272
-0.0022291
-0.00346451
0.00233579
3.73794e-05
-0.00295538
0.000420143
-0.00168301
0.000103876
0.001159
-0.00216797
0.000653845
0.00193427
0.00448361
0.00625069
0.00212141
-0.0128557
0.0147482
-0.0085067
0.0237673
-0.0300088
-0.000979612
-0.00742015
-0.000429924
0.00882969
0.000623753
-0.000247138
-6.04224e-05
-0.000489086
-0.00184403
0.000211732
0.00212138
0.000260571
0.000283074
-0.000543644
0.00229295
-0.000727729
-0.000856968
-0.000708255
0.00142681
-0.00109122
-0.0020186
-9.10325e-05
-0.000650133
-0.00146059
-0.000308459
0.00128269
0.000486353
0.00895581
-0.00337975
0.00175609
-0.000716705
-0.00148774
0.00211341
-0.000764259
0.00191815
-0.00187059
-0.00186855
0.00155207
0.00254377
-0.00222728
-0.00233314
0.046342
0.00651782
-0.00382744
0.00117796
-0.00386834
-8.92658e-05
-2.5699e-06
-0.000351593
-0.00687871
-0.0100149
-0.00334767
0.0202413
5.05277e-05
0.00350783
-0.00328671
0.00792327
0.0154262
-0.00743832
0.00213502
-0.00117588
-0.000503257
-0.000455885
-0.00131317
-0.000870943
0.000696619
0.00148749
9.49908e-05
0.000383226
-4.63323e-05
-0.000431885
0.00241621
0.00276586
-0.00795849
0.0148184
0.00756625
-0.0170988
0.0120056
0.00465039
-0.000220617
-0.00974507
0.0107318
0.00586489
-0.00685162
0.00192473
-0.00113443
-0.000443442
-0.00034686
-0.000891614
0.00199755
0.000137035
-0.00124297
-0.0109958
-0.00116205
0.0135288
-0.00137095
-0.00224804
-0.00153175
0.00116428
0.00261551
-0.000452579
7.58275e-05
-0.000788499
0.00116525
0.000862507
-0.000204621
-0.000472498
-0.000185388
-7.15157e-06
-0.00216426
0.00127979
0.000685574
4.73367e-05
0.00126464
-6.8576e-05
-0.000276514
0.0007143
-0.00036921
0.00229698
-0.00196372
0.00250914
-0.0028424
-2.69325e-06
0.000509829
-0.00038881
0.00758911
-0.0119065
0.0117915
0.00180572
-0.00115137
0.00015957
-0.0036808
0.00242583
0.0010954
0.000255715
0.00292663
-0.00222878
-0.000953573
-0.000255082
0.000382741
-0.000130352
-0.00105659
0.000467078
0.000589507
-0.00123654
0.000926585
0.000598471
-0.000288513
0.00289693
-0.00303099
-0.000946669
0.00108073
-0.000353151
0.000971189
-0.000686615
-0.00016299
0.000239025
-0.000267802
0.000430788
-0.000757082
0.000326294
-0.000640968
-0.0018758
-0.00110275
0.00361952
4.85155e-05
-0.000104194
-0.000199403
-0.00190148
3.83915e-05
0.000561607
0.000410566
-0.000435735
0.000520676
-0.000495507
0.000939418
-0.000381246
0.00228209
-0.00284027
-0.000350893
-0.000225441
0.0009869
-0.00162587
0.000152709
0.000314788
0.00115837
0.00115618
-0.000492473
-0.000632332
0.000866584
-0.00108054
0.000213958
6.96253e-06
-0.000251423
-0.000106432
0.0024943
-0.0023041
0.000992012
-0.00118221
-0.000753232
0.000401329
-7.86451e-05
2.56503e-05
-0.00201632
0.00248392
0.000952412
-0.000154894
-0.000773645
0.00150626
-0.000577724
-0.000208575
-0.00173011
0.000861924
0.00107676
-0.000859965
0.000709496
-0.000112944
0.000263413
4.22767e-05
-0.00266277
-1.54888e-05
0.00263598
-0.00060928
-0.00117836
0.00129774
0.000489898
-0.000456707
-0.000435156
0.000736969
-0.00837463
0.0180374
-0.0139217
0.00425886
0.00103696
0.000247327
-0.000323838
-0.000960445
-0.00621626
-0.00379144
0.0118865
-0.00187881
-0.000239153
-0.00118912
0.00274781
-0.00131954
0.00181267
-0.00140426
0.00153107
-0.00193948
-1.57558e-06
0.000474593
-0.000929724
0.000712827
-0.000323303
-0.000730403
0.00034088
-0.00170951
0.000245858
0.00219635
-0.000732699
-0.0015828
0.00423091
-0.00201525
-0.000632853
-0.000498067
0.000835288
-0.0001057
-0.00023152
0.00135058
-0.00261486
-0.00795261
0.00921689
0.000630046
0.0117031
-1.29396e-05
-0.0123202
0.0136499
-0.00491898
-0.010758
0.00202706
3.87497e-05
0.00117142
-0.00121017
-0.00681312
0.0123879
0.00529389
-0.0108687
0.00422347
-0.00521358
0.000304892
0.000685223
-0.000702878
-0.000971471
0.0013212
0.0153206
-0.0067935
-0.00107399
-0.000587215
-0.000336052
0.0004252
0.00700228
-0.00373208
0.0026387
0.00475869
-0.00435073
0.000770157
-0.00117812
-0.000430899
-0.000221881
0.000318782
0.000333998
0.000868159
-0.00164338
-0.000120226
0.0028451
-0.000742541
-0.00198234
9.78961e-06
-0.00355874
3.46138e-05
0.00351433
-0.00137477
-0.000914639
0.00142679
0.000154531
-1.66926e-05
-8.93227e-05
0.0153531
-0.000613877
-0.022006
0.0072667
-0.000669705
-0.00147338
0.00164755
0.000495534
0.000654605
0.00054446
-0.00231323
0.00111416
0.000251207
0.00307557
0.000812773
0.00138841
-0.00140351
0.000126496
-0.000701415
-0.00125006
0.00182498
0.00070013
-0.00147428
-0.00328173
0.00148551
-0.00373482
-0.000362103
0.00261142
0.000440969
-0.00153243
-0.00164315
0.00273461
0.000352391
0.00125947
-0.00217939
-0.00499155
4.63236e-05
0.00712462
-0.00194665
0.00221869
0.00172639
-0.00199843
-0.00089053
-0.00105612
-0.0010263
0.000328454
-0.000884956
0.000646612
0.000775631
-0.000305788
-0.00111645
-0.00108822
0.00184874
-0.00432659
0.00356607
0.0023584
0.00614621
-0.00959283
-7.39586e-05
-0.000294926
0.000337733
3.11517e-05
-0.000260526
0.000152398
0.000226091
-0.00018039
0.000419926
-0.000624306
0.000891107
-0.0021341
0.000633709
0.000441264
-0.00107527
0.00152511
0.00651495
-0.00073823
-0.00567982
-9.68985e-05
-0.00538204
0.00567986
-0.00438768
0.00408986
-0.00308827
0.00990022
-0.00660496
-0.000206982
-0.00311389
-0.00240454
0.00256789
0.00295055
-0.000180084
-0.00285911
-0.00234285
0.00139523
0.000843831
-0.000222812
-0.00201625
-0.00028869
0.00215053
0.000481424
-0.00234327
-0.00340617
0.00360874
0.00182834
-0.00203091
0.00107034
-0.00308128
0.00295333
7.5843e-05
-0.00134262
-0.00168655
0.000378791
-0.0017008
0.00632752
-0.00500551
0.0099537
-0.00382362
-0.00594577
-0.000184312
-0.00674315
-0.00955276
0.00124513
0.00347145
-0.00403598
0.00663306
-0.00606853
-0.00178499
0.00100669
-0.00616432
0.00372279
-0.000535668
0.0029772
-0.00900598
-0.00409046
0.00676645
0.00632999
0.00144319
-0.00127626
0.00272999
0.000175122
0.00470488
0.00136183
0.00129092
-0.00142232
0.000480109
-0.000348711
-0.00131908
0.018467
0.00357163
-0.0207195
-0.00222216
0.00305272
-0.0115982
0.0107677
0.00336166
0.000577324
-0.00161785
-0.00232114
0.00599244
-0.00410473
-0.00144287
-0.000430827
7.0778e-05
-0.000330448
0.000690498
0.000175256
0.000256423
0.00046141
-0.000775388
0.000489234
-0.000289537
0.000821726
-0.0232502
-0.00343444
0.0208525
0.00583209
-0.0100298
-0.00134539
-0.00782784
0.019203
0.00803343
-0.00222656
-0.000820469
-0.00498639
0.0118667
-0.00406472
-0.0104869
0.00268499
0.00632048
5.03789e-05
-0.000760223
0.00133889
-0.00062905
-0.00144885
0.0117552
-0.000659606
0.00245739
-7.87828e-05
0.000642883
0.00481649
0.00750361
-0.00220179
-0.00157568
0.00198588
0.00179159
-0.000461656
-0.00365409
0.0018677
-0.00144755
-0.0105279
-0.010407
0.0160308
-7.8615e-05
0.00612018
-0.00229572
-0.0129029
8.14763e-05
0.0211504
-0.00832894
6.95709e-05
-0.00110526
0.000938453
9.72378e-05
6.39811e-05
5.97056e-05
-0.000549041
0.000425355
-0.00772615
-0.0122408
0.0188541
0.00111286
0.00349428
0.000238942
-0.00369959
-3.36391e-05
-0.00118831
0.00192527
-0.00103998
0.000303013
0.000191119
-0.00277534
0.00244108
0.000143133
0.0265789
-0.027037
0.000458109
0.000892994
-0.00337799
0.00352485
-0.00103986
-0.00128637
0.0010833
-0.00220611
0.00240918
0.00417595
0.0162333
-0.0351269
0.0441105
-0.0252169
0.00343113
-0.0448932
0.0407627
0.000699336
0.00180491
-0.000881081
0.000389946
-0.000267972
-0.00207799
0.00300046
0.0024274
0.000357956
-0.000408707
-0.00237665
-0.00124322
0.00308791
-0.0131146
0.00125402
0.0012877
-0.000924616
-0.00161711
0.00167134
0.000650619
-0.000247073
-0.00207489
0.000621176
0.00196381
0.00157416
-0.00415914
0.00713259
-0.013349
-0.000959033
0.00717542
0.00649894
-0.00924847
-0.00138134
0.00413086
0.00145623
-0.00332576
0.00122547
0.00064405
0.00145991
-0.00210271
0.0032249
-0.00258211
-0.0103727
-0.00620331
0.011234
0.005342
0.00155407
-0.00220901
-0.00295449
0.00360943
0.00247396
0.00168511
-0.000979195
-0.00317987
-0.00111749
0.00148669
-0.000670804
0.000301594
0.00173699
-0.00252346
0.00095684
-0.000170368
-0.00359774
0.00414887
6.51375e-05
-0.000616261
0.000784323
0.000252633
-0.000820725
0.00107016
-0.000702503
0.000453072
-0.00299241
-0.00944991
0.0200314
0.00132749
0.00249223
-0.00402829
0.000398592
0.000569733
-0.000594033
-0.000374292
-0.000439156
0.00311961
0.00127936
0.00104513
-0.00131406
0.000503097
-0.000234169
-0.0109878
-0.00894913
0.0035498
0.0163872
-0.0116232
0.00520523
0.0010669
0.0053511
-0.000212678
-0.00249525
0.00285884
-0.000260039
0.0012063
-0.00034565
-0.000600616
0.00334408
-0.000299721
-0.00123759
-0.00180676
0.000971792
-0.000189488
-0.00197061
-0.0014901
-0.0022319
0.0021697
0.00155231
6.32268e-05
0.000152665
-0.000181115
-3.47769e-05
-0.000420041
0.00170203
-0.00166635
-0.00239293
0.0032988
-0.00120087
0.000295001
2.16421e-05
8.42517e-05
-0.0019604
0.00185451
0.00146351
0.00134775
-0.002066
-0.00074526
-0.000505998
-0.000333525
-0.000372496
0.00121202
-4.73244e-06
0.000106769
7.68098e-05
-0.000178847
-0.000110547
0.000656939
-0.000546393
-7.14373e-05
-0.000309401
0.000275174
0.000105664
-0.000911147
-0.00287625
-0.00339026
0.00717766
-0.000850966
0.0018452
0.000506489
-0.00150073
4.0511e-05
-0.000373424
0.001065
-0.000732091
-0.00341341
0.00452205
-0.00122887
0.00245832
-0.000616603
-0.00158229
-0.000259431
0.0177734
-0.00646712
-0.0196494
0.00834306
0.0202669
0.00881061
-0.0234221
7.90065e-05
0.000317272
0.00383463
-0.00313223
0.0046729
-0.00245182
-0.00398961
-0.00197495
0.00104477
0.00060071
0.00200849
-0.00365397
-0.000396879
-8.48909e-05
-0.00033157
0.00081334
0.0185798
0.00222421
0.0009358
0.00702382
-0.00744941
0.000536402
0.000404164
-0.00144578
0.00132724
-0.00028562
-0.0139675
-0.00202893
0.00316135
0.012835
0.000869396
-0.000970836
-0.000106625
0.000208066
-0.00136981
0.00660178
0.00263293
-0.00786489
0.00428075
-0.00239918
0.00179455
-0.000814261
-0.000790357
-0.0108243
-0.0180289
0.0370291
-0.00817595
-0.00021501
-0.000301041
0.000328129
0.000187922
0.0018828
-0.00091562
-9.7785e-05
-0.000879538
0.00119942
-0.000883189
0.000563306
0.00106922
-0.000526288
-0.00144182
0.000898889
-0.00118827
-0.000258869
-0.0011955
0.00264264
-0.00238074
0.00243097
-0.00157324
0.001523
-6.18754e-06
0.000755023
-0.000155498
-0.000593338
-0.000196431
0.00162157
-0.00116344
-0.00026169
-0.0019867
0.00109058
0.00038251
0.000513611
0.000749267
0.00188784
0.000175445
-0.00281255
-0.00534083
0.00400558
-3.45683e-05
-0.000529777
-0.000246516
-0.000194542
0.00138439
-0.00361196
0.00206862
0.000158953
0.000577474
0.00179897
-0.00162143
-0.000755018
-0.0235051
-0.0104428
0.0100017
0.0239462
0.000935292
0.000751843
-0.00108543
-0.000601701
0.0017507
-0.00372147
-0.00060083
0.00257161
0.0016419
0.00264308
-0.00471175
0.000426775
-0.00102689
-0.00171366
-0.000972795
0.00371335
0.00201244
-0.000248508
-0.000474926
-0.00128901
-0.000807556
0.00148531
0.00180821
-0.0125251
0.0143692
-0.0150901
0.013246
-0.000196373
0.00101303
6.42627e-05
-0.000880918
-0.00355707
0.00199609
-0.00203677
0.0136908
-0.00246246
-0.0160281
0.00479976
0.00318656
-0.00358713
0.00282373
-0.00217761
0.000353143
-0.000999269
-0.00161908
-0.00111941
0.00100883
-0.00161336
0.00281256
-0.00220803
-0.000316225
-0.00150485
0.000550976
0.0012701
0.00259453
0.00197484
-0.00277302
-0.00179635
-0.00138318
0.00140411
-0.00132433
0.0013034
0.00121028
-0.00145085
-0.00121027
0.00145085
-0.00680216
0.000244511
0.00707933
-0.0024531
0.000266069
-0.00019371
-0.000270583
-0.00186241
0.000457492
0.0016755
0.00199533
0.000554446
-0.00149096
-0.00105883
0.00421008
-0.00256378
-0.000753303
-0.00329459
-0.000699032
0.00093127
-0.00202279
-0.00141621
0.00262068
0.000818324
-0.00111173
-0.00122247
0.00089882
0.00143538
0.00044838
6.58021e-05
0.000157098
-0.00067128
-0.000784579
0.000190534
-0.000686615
0.00128066
-0.00498722
-0.00111206
0.00385588
0.00202724
-9.32814e-05
-0.000948329
-0.000985628
0.00114897
0.011685
-0.0051518
-0.007403
0.00941788
-0.00129821
-0.00176673
0.000475529
0.00097498
0.000276361
-0.00163899
0.000664171
0.000698461
0.000182507
-0.000297563
-0.00246576
0.000945172
0.00105893
-0.000963275
-0.00108991
0.00113455
0.000918639
0.000405697
0.000558053
-0.00104441
-0.000202656
-0.000640527
0.000407905
0.000435279
0.00124949
0.00090528
-0.00027197
0.000910204
-0.00048078
-0.000634046
0.00763201
-0.00515297
-0.00122685
-0.0012522
0.00170054
-0.00224856
0.000733066
-0.00018505
0.00135719
-0.00112209
5.76768e-05
-0.000460761
0.00100689
0.00373462
0.000753315
-0.0018431
-1.383e-05
0.00110361
-0.000537464
0.000796788
-7.68177e-05
9.94292e-05
0.000499809
-0.000662477
6.32388e-05
-0.000988155
0.00252764
-0.00166319
0.00012371
-0.00159577
-8.18615e-05
0.00099606
0.000681566
0.00012467
0.00479745
-3.61804e-05
-0.0144396
0.00177047
-6.30286e-05
0.0127321
-0.000451524
-0.00136573
0.000853982
-0.00238313
0.00304949
-0.000706131
0.000234469
0.000225994
-0.000611056
-2.85534e-05
-0.0250757
0.0283023
0.00327823
0.00680206
0.00727488
0.00919193
0.00333777
-0.00742408
-0.0016742
0.000606907
0.00128362
0.0122577
0.00468577
-0.0136653
0.015438
-0.000789273
-0.00615939
-0.00085248
-0.000158134
0.000814183
0.00247166
0.0358832
-0.0336098
-0.00474511
-0.00114962
0.00292365
0.00298469
-0.00475873
0.000200002
-0.00167423
0.00311227
-0.00163804
0.000847648
-0.00245751
0.00143987
0.000169992
0.00222845
0.00179696
0.000540811
-0.00456622
-0.012727
-0.00323823
0.022264
-0.00629874
-0.00985781
0.0114215
0.00418063
-0.00574437
-0.000720336
0.000651459
-0.00447332
0.0045422
-0.0305752
0.0276992
-0.0222023
-0.00194096
-0.00180916
0.00349914
0.000250976
0.00125945
-0.000575965
0.000120976
0.026344
0.00124266
-0.0185018
-0.00216891
-0.00536624
-0.00220992
0.00642221
0.0075737
-0.00792656
-0.00606936
0.00490996
0.00277398
-0.00108216
-0.00456911
-0.0576396
-0.00544244
-0.00537595
-0.00708413
0.0096142
0.00574063
-0.00269468
-0.00625608
-0.0232282
0.0242328
-0.00100454
-0.00426781
0.00183796
0.00094735
-0.00181352
-0.00222296
0.00153543
0.00270998
-0.00202245
0.000141398
0.000670665
-0.000146755
-0.000665308
-0.00160994
0.00981313
0.00472597
-0.0129292
0.000139893
-0.000941232
0.000627921
0.000173419
-0.00425487
0.00208293
0.000836553
0.00133539
0.0033709
-0.00877614
-0.00201491
-0.000885227
0.000628756
0.000206388
5.00824e-05
-0.00645729
0.00316084
-0.00307791
0.00637437
0.000291448
-0.000173213
0.000347194
-0.000465429
-0.0341733
0.0211164
-0.000875082
0.0139319
-0.00196671
-0.000847509
0.00153867
0.00127555
0.00519809
0.000919328
-0.0296225
-0.00597327
-0.000338918
0.00898807
-0.0452851
-0.00857249
0.00285209
0.0284
-0.027821
0.0107317
-0.00252936
-0.0135783
-0.000209613
0.000304604
0.000316369
0.000776798
-0.00109317
0.000256709
0.000287488
9.7965e-05
-0.000642162
-0.0017955
0.00106045
-0.0005301
0.00126515
-0.00275077
-0.000984717
0.000966582
0.00276891
-0.00148782
0.000644384
0.00152901
-0.00310007
-0.00304016
0.00187518
0.00310629
-0.00194131
0.000801446
0.000631844
-0.000978159
-0.000682078
-0.00224283
0.00447898
0.000141831
-0.000199183
-0.00100184
-0.000700114
0.000562637
0.00113932
-0.0011441
-0.000363654
-0.000287742
0.0013958
-0.00295579
-0.00251224
-0.00116593
0.000783938
-0.000181791
0.000563781
0.00253282
0.00146226
-0.00166013
-0.0053156
0.00699075
0.000957773
-0.00819046
0.00110303
-0.0161628
-0.00503584
0.00774823
0.00237115
-0.00508354
-0.0117002
-0.00731457
-0.00597224
0.00832245
0.00535251
0.000290769
0.00108841
-0.000155837
-0.000121184
0.000277021
-2.59872e-05
0.000126252
-0.000584048
0.0018974
0.00116936
-0.000413159
-0.000259445
-0.000496756
0.00503977
0.0114018
-0.000978689
0.00166388
0.000817558
0.000690517
0.000562762
-0.000227404
-0.00344925
0.00360614
0.0017928
-0.00242842
-7.08028e-05
-0.000474419
-0.000557778
0.001103
-0.00128044
0.00290877
-0.00142833
0.00302388
-0.000516419
-0.00149863
0.0020581
0.00776445
-0.00537753
-0.00444501
-0.00470921
-0.00105566
0.00502505
0.00073982
-0.00109056
-0.000271738
-0.00146165
0.000500402
0.000672434
0.000288811
0.00137312
0.00031134
-0.00229993
-0.00106938
0.0011136
-4.42205e-05
0.000246437
0.0009902
-0.000383076
-0.000853561
5.6987e-05
-0.000679639
0.00140659
-0.000726163
-0.000953298
2.75003e-05
0.00165196
-0.000399543
0.000733826
-0.000588027
0.00112642
-0.000481407
0.00208408
-1.02618e-05
-7.84855e-05
-0.00403742
-0.0162354
0.0227254
-0.00245256
-0.000829607
0.000370137
0.000256813
-8.84104e-05
0.0016011
-0.000446427
-0.00106627
0.00102615
0.00364446
0.00216681
-0.000323466
-0.000346223
0.000652622
1.70664e-05
0.00042203
0.000609129
-9.58659e-05
-0.00176198
-0.000189327
0.00224067
-0.000769739
0.00271425
0.000130705
-0.000459103
-0.000562819
0.000381395
-4.84217e-05
-0.000490834
-4.69697e-05
0.000586226
-0.000370074
-0.00282889
-0.00017435
0.000206961
-0.000643268
0.000858336
-0.000948769
-0.000420526
-0.00262193
0.000173163
0.00435648
-0.00190771
0.00246157
-0.0040333
0.00171457
-0.00014284
0.00392371
0.000288555
0.00283389
-0.00257484
-0.00288097
0.0025033
0.000112668
0.000217916
0.000562983
-0.000183139
-0.000379844
-0.0002841
0.000769929
0.000191712
-0.000677541
-0.000905501
0.000396694
0.000826319
-0.000317512
-0.00136303
0.000173427
-0.000461032
0.000740577
-0.000178436
-0.000101109
0.000730032
0.000287606
-0.00111484
9.72015e-05
-0.00103425
0.000898331
-0.00126886
0.00438629
-0.00187804
-0.000500793
0.000286106
0.00287263
-0.0030505
-0.00193554
-0.00499964
0.0182607
-0.00632209
-0.00693897
0.00296178
0.0030271
0.00325098
-0.00923986
-0.00997573
-0.010436
0.0191478
0.00126393
-0.00160015
0.0080659
0.0040461
0.00381283
0.0014658
0.00184948
-0.00712811
0.00816759
0.0129612
-0.0227527
0.00162384
-0.0780912
-0.0532189
0.0535209
-0.00481786
0.0131496
-0.0110386
-0.0117752
0.00671919
0.00393045
-0.0237918
0.0299555
-0.0135664
0.0074027
-0.00954033
-0.00138332
0.0067929
-0.00383581
0.0132391
0.0298362
-0.00927466
0.00253479
-0.00204918
0.0267926
0.0120922
0.00260944
0.0314478
0.00104678
-0.00057612
-0.000236076
-0.00131797
0.000655148
-0.00317834
0.00317558
0.00137587
-0.0102278
-0.00339132
0.00201875
0.0116004
0.0076891
-0.0116642
0.0129758
-0.00900072
0.0126827
-0.00145908
-0.00353455
-0.00145272
-0.00132509
0.000239816
0.000141584
-0.00635364
0.00261985
-0.00390798
-0.0018441
-0.000690979
-0.00216064
0.00206704
5.28879e-05
-0.00271057
0.000786145
-0.00141876
-0.000820104
-0.000267973
-0.00132664
0.00118581
-0.000488077
0.00249214
0.0077738
0.0109249
-0.0114238
0.023211
-0.00526516
0.00597039
-0.0239162
0.010887
-0.0116265
0.00851337
0.00073848
0.00430276
0.000730274
-0.00577152
0.00187793
0.000527423
0.00114859
-0.00355395
-0.00674237
-0.000904935
0.00423826
0.00340905
0.00608253
0.00218054
-0.0030655
-0.00519757
-0.0049503
0.00429045
-0.0019003
0.000305303
9.01478e-05
0.00559987
0.000960803
-0.00271826
-0.00384241
0.00109676
-0.000516033
0.000145938
-0.000117175
0.00048727
0.000467542
-0.00105875
0.00171763
-0.000250158
0.000504551
0.00211769
-0.00391108
0.00381684
0.00305603
0.000519873
0.000453033
0.000610801
-0.00158371
-9.00689e-05
-0.0010558
0.000710709
0.000836649
0.00121679
-0.00307584
0.0010224
0.00106656
0.00194319
0.00191009
-0.00491984
-0.000428845
-0.00288933
0.00108407
0.00223411
0.00104625
0.00261755
0.000457431
-0.00412124
-0.00437727
0.00710721
0.00100321
0.00247237
0.000178261
-0.00365385
0.00218165
0.0174787
-0.0135378
-0.000886771
-0.00305411
-0.0136676
0.0165796
0.0145667
-0.0201786
-0.0095878
0.00273492
-0.019493
0.00309045
-0.00798015
0.00791456
-0.00167775
0.000715137
0.000968304
-5.69251e-06
0.00115896
0.00610487
-0.00990167
0.00263784
-0.00112163
-7.38533e-05
-0.000774528
0.00197002
-7.62564e-05
0.000197138
-0.000110763
-1.01192e-05
-0.00105266
-0.0168712
0.00994375
0.00751592
0.00532719
0.000806813
0.00266247
-0.00175804
0.00791366
-0.0174438
0.0208767
-0.0113466
-0.008409
0.0207141
0.00426068
-0.0165658
0.0210437
-0.00112442
0.00457113
0.0320863
-0.0366574
0.00157668
0.000911474
-0.000136888
0.000391223
-0.00051287
0.000258535
0.00052605
-0.000662937
5.73689e-06
0.000378301
-0.000599048
0.000753033
-0.000435164
-0.000396093
7.8224e-05
0.000271803
0.000486967
-0.000397567
6.52939e-05
4.67877e-05
0.000285485
-0.00231981
0.000605807
0.000253413
-0.00151581
-0.000463047
0.000790592
-0.00764245
-0.0201034
0.0208671
0.00174718
-0.00037686
-0.000882313
0.000195048
-0.0032796
0.00151853
0.00249955
-0.00659032
-0.00118624
-0.00209083
0.000547595
0.00272947
6.13509e-05
-0.0027117
-0.000473359
0.00199882
0.00381237
0.00464164
-0.00348609
-0.00496792
-0.0012667
-7.96822e-05
0.000931137
0.000415246
0.00229682
9.45546e-05
-0.00136522
0.00106943
-0.000814896
-0.000707111
-0.00154205
0.000145711
0.0024917
-0.00184561
-0.00218813
-0.0254502
0.0296049
0.0226379
0.000461401
-0.00147997
-0.00130124
0.0118418
-0.0131108
0.000760447
0.000508548
-0.00255714
0.00190256
-0.000109682
-0.00603175
-0.0118708
-0.0140699
0.00957147
0.0109974
-0.000720516
-0.00327543
0.00177298
-0.0015789
-0.000343316
0.00458517
-0.00266296
0.00144023
0.00138333
-0.0246213
0.0253795
0.00740936
0.00666553
-0.00385299
-1.1789e-05
0.000563585
0.0252431
-0.0258066
-0.0158518
0.00612199
-0.000589682
-0.00284619
0.000565822
0.00999163
-0.00629465
0.00111951
-0.000714657
-0.00162908
0.00601084
0.00136071
0.000201265
0.000395629
-0.000623896
0.00227752
-0.00229732
-0.000689524
0.000709319
-0.000849416
0.00169656
0.000228907
-0.00107605
0.0206836
-0.00509772
-0.0022031
-0.0022671
-0.00242926
-0.00393479
0.0116917
0.0115383
0.036226
-0.00420952
0.000828649
0.000541138
-0.00298315
0.000392318
0.00127153
-0.00166385
-0.00867765
-0.000254405
0.00899305
-6.09895e-05
0.000831389
0.00201993
0.00282722
-0.00346277
-7.96066e-05
-0.00267051
-0.00216758
0.0049177
-0.000996829
0.00334665
-0.00405062
-0.000624459
0.00135333
0.00640378
-0.00804599
0.00385224
-0.00221003
0.00395856
-0.00909906
0.00409079
-0.0113266
0.00580114
-0.00348051
-0.0551219
0.00866559
-0.00716946
0.00803932
0.00171961
0.000590483
0.000266922
-0.000533996
0.00155137
-0.00205162
0.00214798
-0.00106298
-0.00180561
-0.00105435
-0.000454206
0.0011422
0.00036636
0.00668657
-0.00883093
-0.00191928
-7.60253e-05
0.00150622
-0.0395529
-0.0155691
0.000363611
0.000199188
-0.000562799
0.0027601
-0.00379231
0.00364976
-0.00250601
-0.000963794
-9.27912e-05
-0.000862081
6.46079e-05
-0.00043907
0.00722601
0.00124856
-0.00626752
-0.00220705
-0.00779994
0.00288893
0.000820557
0.00164596
0.0104306
-0.00282108
0.000743271
0.00158498
8.07432e-05
-0.000567457
-0.000297513
0.000784227
0.000289594
-0.00039903
0.000109436
5.4526e-05
0.00176041
-0.00247454
0.000780525
0.053614
-0.0386799
-0.0157147
-0.000770026
0.00116171
-0.000702278
0.00197525
-0.00468562
-0.00496707
0.00767744
0.00467771
-0.00810791
0.0103538
0.0112436
-0.00333669
0.00589308
0.00540967
0.00248151
0.00107549