/*--------------------------------*- C++ -*----------------------------------*\
| =========                 |                                                 |
| \\      /  F ield         | OpenFOAM: The Open Source CFD Toolbox           |
|  \\    /   O peration     | Version:  2506                                  |
|   \\  /    A nd           | Website:  www.openfoam.com                      |
|    \\/     M anipulation  |                                                 |
\*---------------------------------------------------------------------------*/
FoamFile
{
    version     2.0;
    format      ascii;
    arch        "LSB;label=32;scalar=64";
    class       volScalarField;
    location    "0.0321319";
    object      k;
}
// * * * * * * * * * * * * * * * * * * * * * * * * * * * * * * * * * * * * * //

dimensions      [0 2 -2 0 0 0 0];

internalField   nonuniform List<scalar> 
3927
(
0.339665
0.383607
1.05886
0.551188
0.346262
0.855932
0.806333
0.369891
0.35264
0.383338
0.345757
0.352022
0.354593
0.474408
0.354006
0.797305
0.365823
0.359818
0.38305
0.831186
0.537325
0.671095
0.552694
0.443402
0.384369
0.376417
0.347647
0.348234
0.78825
0.390287
0.386726
0.347612
0.382176
0.351764
0.36907
0.362675
0.402344
0.354993
0.457564
0.37705
0.358055
0.581803
0.356085
0.4019
0.369164
0.584858
0.399986
0.597452
0.352723
0.378518
0.363458
0.478486
0.578068
0.34411
0.347095
0.349922
0.39916
0.495994
0.357376
0.372562
0.519606
0.363842
0.426183
0.37666
0.365958
0.358777
0.353766
0.375203
0.474955
0.68241
0.3622
0.364998
0.643712
0.440563
0.569095
0.520041
0.491067
0.414898
0.404729
0.392305
0.342907
0.696955
0.375207
0.367884
0.412029
0.360593
0.345602
0.758236
0.889499
0.582483
0.837067
0.526474
0.341653
0.357575
0.353366
0.658392
0.88223
0.376878
0.365604
0.519807
0.47913
1.27971
0.403867
0.908356
0.379855
0.359098
0.353333
0.361585
0.381485
0.364154
0.361992
0.735553
0.433748
0.343682
0.538036
0.858089
0.356701
0.376008
0.520188
0.343121
0.401004
0.347623
0.372924
0.74855
0.35753
0.359981
0.351821
0.350369
0.352969
0.33755
0.340204
0.690132
0.800606
0.814635
0.818208
0.496878
0.425067
0.470156
0.855227
0.37739
0.847459
0.879241
0.379821
0.418403
0.348242
0.922183
0.882914
0.873763
0.380544
0.384434
0.356473
0.360548
0.361448
0.355232
0.398683
0.341749
0.870748
0.381971
0.366039
0.363227
0.398966
0.348557
0.380884
0.356071
0.676158
0.50192
0.543448
0.782964
0.450764
0.756191
0.396759
1.01717
0.821241
0.892044
0.518752
0.815762
0.911938
0.724148
0.90347
0.420705
0.35161
0.636635
0.399829
0.943403
0.563123
0.404945
0.376581
0.781879
0.56201
0.389752
0.389832
0.466846
0.735181
0.354824
0.361332
0.716232
0.377937
0.916716
0.811456
0.376554
0.43421
0.45941
0.346099
0.456386
0.544228
0.505886
0.399884
0.878325
0.348862
0.35941
0.430592
0.680082
0.525299
0.980324
0.455571
0.43687
0.548435
0.755853
0.547873
0.446329
0.818752
0.414691
0.487284
0.480648
0.803098
0.939729
0.466709
0.587103
0.458194
0.359659
0.383198
0.357014
0.377584
0.378385
0.370629
0.384514
0.574808
0.346348
0.364835
0.445927
0.396308
0.594032
0.829434
0.709873
0.377221
0.797323
0.351016
0.465989
0.370902
0.364612
0.609764
0.397123
0.365685
0.345816
0.343552
0.385267
0.37108
0.446915
0.414274
0.420555
0.380028
0.502712
0.374884
0.464382
0.4217
0.493657
0.651484
0.618862
0.562168
0.357879
0.554138
0.603407
0.375096
0.366086
0.358615
0.443993
0.37413
0.342011
0.390447
0.37106
0.711934
0.396771
0.365495
0.568316
0.445109
0.653681
0.442991
0.807902
0.655642
0.387347
0.803892
0.623219
0.414448
0.365043
0.37424
0.422288
0.638767
0.781238
0.574387
0.693793
0.415571
0.659277
0.673166
0.432869
0.391047
0.404975
0.48194
0.458271
0.798272
0.384701
0.392985
0.620202
0.420066
0.397528
0.346688
0.41181
0.596974
0.391275
0.343143
0.433285
0.584149
0.881181
0.397014
0.469503
0.43976
0.352603
0.531074
0.427106
0.619915
0.41164
0.451426
0.372689
0.983778
0.757662
0.788629
0.351989
0.754939
0.668473
0.338991
0.363152
0.813399
0.38767
0.717134
0.492535
0.35258
0.402354
0.397683
0.474529
0.588308
0.669763
0.39311
0.444904
1.14908
0.669173
0.399766
0.444576
0.348995
0.772644
0.818361
0.378063
0.461753
0.570542
0.692778
0.374316
0.487462
0.49623
0.399859
0.606798
0.947257
0.789346
0.671078
0.431209
0.353287
0.501986
0.387791
0.404364
0.435836
0.416568
0.714123
0.751404
0.43295
0.709805
0.887934
0.476469
0.394815
0.427545
0.446297
0.559864
0.346615
0.689393
0.455167
0.592505
0.438787
0.556729
0.778066
0.401714
0.72969
0.389205
0.463229
0.840303
0.504116
0.633877
0.782427
0.440779
0.580186
0.379968
0.581329
0.350475
0.433242
0.857134
0.459315
0.410807
0.34622
0.469524
0.344668
0.342557
1.08212
0.590782
0.78354
0.390643
0.550739
0.337104
0.453876
0.445922
0.350216
0.455032
0.739339
0.471176
0.409975
0.876872
0.495642
0.479363
0.590426
0.476629
0.463636
0.567063
0.694985
0.445865
0.350026
0.501725
0.349627
0.356278
0.701503
0.822238
0.352576
0.711234
0.352088
0.491074
0.362151
0.377993
0.7137
0.374811
0.496211
0.75539
0.526802
0.484889
0.384893
0.608928
0.398454
0.539007
0.795145
0.432257
0.643907
0.361184
0.690083
0.541162
0.422274
0.825051
0.971606
0.676806
0.627857
0.447011
0.894789
0.407103
0.559682
0.738718
0.681337
0.389973
0.387667
0.352411
0.363345
0.369662
0.345877
0.371458
0.375224
0.360875
0.804472
0.417862
0.503334
0.371664
0.663373
0.362512
0.36
0.363759
0.406251
0.596989
0.652583
0.489412
0.679088
0.783561
0.497902
0.628255
0.828909
0.971241
0.409665
0.876621
0.713312
0.420161
0.42615
0.420966
0.486678
0.41687
0.489368
0.372268
0.390492
0.437462
0.693912
0.387195
0.363926
0.662935
0.931167
0.722046
0.503265
0.733332
0.38629
0.500287
0.840066
0.355894
0.536589
0.419726
0.402831
0.397413
0.540161
0.418164
0.449887
0.446398
0.362112
0.378975
0.437539
0.464275
0.492377
0.421878
0.530886
0.530891
0.649341
0.473369
0.504432
0.597734
0.529356
0.361025
0.516897
0.637072
0.669458
0.354905
0.375235
0.510455
0.577909
0.530009
0.488652
0.458076
0.718992
0.559789
0.78412
0.596671
0.507835
0.911805
0.868681
0.453684
0.550675
0.592131
0.387766
0.488066
0.344356
0.347694
0.345898
0.346498
0.34602
0.352929
0.347717
0.344693
0.36743
0.359541
0.351137
0.342263
0.343916
0.346814
0.347392
0.663066
0.906114
0.455247
0.358378
0.381132
0.336263
0.428186
0.333631
0.424961
0.40094
0.521115
0.670499
0.510754
0.613478
0.445492
0.648418
0.72505
0.521766
0.517149
0.587317
0.55346
0.552468
0.542488
0.795231
0.71922
0.364329
0.345605
0.339325
0.362772
0.354711
0.367368
0.346017
0.416292
0.513123
0.435516
0.416628
0.420927
0.427899
0.544422
0.522206
0.348815
0.555618
0.588343
0.580352
0.653854
0.667505
0.481907
0.420228
0.447988
0.399109
0.424285
0.40999
0.41754
0.367805
0.356396
0.362219
0.36025
0.356762
0.345557
0.377031
0.369192
0.349618
0.344746
0.541988
0.425473
0.728211
0.366813
0.364755
0.370937
0.563536
0.569472
0.763746
0.942423
0.365461
0.668353
0.51434
0.500294
0.510297
0.528347
0.788667
0.341976
0.375906
0.377763
0.338793
0.343018
0.340698
0.366201
0.348433
0.356474
0.360187
0.347303
0.34981
1.19174
1.23056
1.02209
1.14514
0.732024
0.580064
0.676604
0.561713
0.675345
0.602005
0.462164
0.499026
0.349242
0.369317
0.365898
0.452875
0.530633
0.454654
0.417157
0.423008
0.398868
0.390759
0.395035
0.5195
0.392605
0.429693
0.386129
0.351981
0.387986
0.400235
0.355986
0.357735
0.392873
0.374717
0.358156
0.398961
0.402593
0.382969
0.38411
0.392618
0.378076
0.389478
0.385738
0.353093
0.344321
0.345902
0.905603
0.738689
0.674256
0.96646
0.757124
0.547844
0.610244
0.361206
0.590496
0.485626
0.438585
0.455217
0.52278
0.501697
0.362449
0.636697
0.34452
0.930266
0.917734
0.777818
0.823576
0.686875
0.598365
0.572475
0.360472
0.80239
0.420965
1.04588
0.7676
0.680645
0.465996
0.405252
0.584478
0.544101
0.448847
1.0573
0.522619
0.598983
0.511786
0.439675
0.464878
0.887339
0.424588
0.431676
0.519603
0.76073
0.99361
0.622605
0.765436
0.467309
0.436184
0.3851
0.485751
0.369677
0.404813
0.379163
0.399926
0.703776
0.557348
0.52083
0.454373
0.565321
0.795948
0.960424
0.519784
0.500166
0.521821
1.02238
0.706099
0.401997
0.475058
0.62645
0.490986
0.580091
0.835681
0.932377
0.611182
0.351415
0.751115
0.681078
0.601988
1.1155
0.919581
0.356447
0.768871
0.586266
0.592404
0.760635
0.370283
0.730375
0.720683
0.769029
0.606397
0.422333
0.496381
0.381524
0.358904
0.338871
0.368716
0.3671
0.352757
0.377641
0.348384
0.350282
0.377508
0.758155
0.92511
0.372884
0.856304
0.415324
0.348282
0.393051
0.428503
0.417074
0.445085
0.429214
0.409629
0.907405
0.371179
0.345052
0.41149
0.443122
0.358009
0.759492
0.495626
0.791444
0.341681
0.577711
0.705888
0.551906
0.383227
0.551743
0.361115
0.500838
0.635494
0.58507
0.433525
0.439035
0.419645
0.39845
0.555797
0.405257
0.429979
0.4726
0.45526
0.359875
0.461828
0.927138
0.372446
0.464764
0.412337
0.547357
0.42102
0.481552
0.744129
0.621559
0.398811
0.338495
0.412776
0.357566
0.410601
0.521835
0.774058
0.799355
0.809077
0.515628
0.698976
0.531302
0.870379
0.574469
0.589245
0.348948
0.540467
0.377533
0.3611
0.748552
0.374934
0.369834
0.379385
0.673708
0.535772
0.351731
0.351048
0.467042
0.898556
0.349369
0.596933
0.579382
0.381805
0.407729
0.390702
0.920562
0.736612
0.367415
0.377032
0.41408
0.547983
0.347303
0.356728
0.519448
0.422165
0.38492
0.402861
0.513405
0.504891
0.357357
0.386271
0.367059
0.336463
0.680092
0.35664
0.528179
0.543237
0.712308
0.551503
0.438078
0.492472
0.531345
0.373489
0.345151
0.366236
0.618559
0.531061
0.625102
0.43875
0.646317
0.573376
0.740307
0.482835
0.350217
0.365382
0.364861
0.39803
0.94462
0.350297
0.413
0.376344
0.373787
0.36559
0.50604
0.800174
0.35293
0.92204
0.346293
0.394621
0.368423
0.362232
0.436848
0.353853
0.433192
0.413907
0.369272
0.335223
0.822162
0.34403
0.953484
1.03096
0.384814
0.378025
0.453097
0.455055
0.541455
0.480641
0.371789
0.338971
0.362396
0.526918
0.506692
0.568612
0.448682
0.893612
0.603653
0.812592
0.816449
0.349892
0.946124
1.09066
0.756471
0.535032
0.36273
0.556023
0.384402
0.799978
0.536851
0.359557
0.462744
0.590304
0.479367
0.428866
0.507497
0.355194
0.474968
0.442697
0.911551
0.544688
0.464888
0.592974
0.377478
0.362363
0.364495
0.516414
0.359791
0.371349
0.683969
0.605755
0.461221
0.518041
0.419574
0.824561
0.407216
1.15179
0.767308
0.501651
0.365271
0.369496
0.3665
0.829676
0.492357
1.01907
0.512014
0.365219
1.0027
0.466686
0.776356
0.924309
0.329907
0.383646
0.393623
0.361656
0.542431
0.895895
0.384834
0.794087
0.51863
0.776919
0.559687
0.78409
0.399254
0.347661
0.537469
0.854792
0.745091
0.402751
0.606751
0.606205
0.365754
0.564303
0.778774
0.608475
0.346716
0.486712
0.780044
0.722605
0.449094
0.414965
0.360575
0.356203
0.903135
0.810886
1.1343
0.382853
0.621978
0.941123
0.368688
0.926798
0.718057
0.782381
0.401603
0.352465
0.352805
0.366991
0.95395
0.860827
0.828891
0.869404
0.489194
0.886339
0.364862
0.406627
0.369875
0.830153
1.13847
0.75085
0.571738
1.02022
0.344939
0.381758
0.377783
0.385229
0.670153
0.402251
0.370145
0.42017
0.531587
0.363228
0.402828
0.333619
0.428499
0.364969
0.503505
0.361648
0.408009
0.817988
0.591752
0.486907
0.782092
0.355889
0.731582
0.38949
1.0147
0.414855
0.342457
0.842772
0.545041
0.729429
0.335819
0.356452
0.65695
0.632661
0.531366
0.545936
0.69474
0.71232
0.545664
0.580112
0.386686
0.368975
0.42657
0.377976
0.4523
0.339104
0.37467
0.382738
0.398861
0.396659
0.377272
0.391364
0.601002
0.597904
0.362476
0.509017
0.520271
0.986343
0.867388
0.698687
0.616888
0.351495
0.700016
0.357677
0.367567
0.360883
0.485632
0.384829
0.37433
0.357405
0.492836
0.680507
0.689236
0.464693
0.398886
0.611976
0.422283
0.403055
0.344325
0.487237
0.408415
0.437637
0.655322
0.500858
0.6668
0.542598
0.740159
0.440059
0.373606
0.865253
0.366501
0.80813
0.39095
0.656524
0.565528
0.451412
0.402009
0.658996
0.842933
0.765514
0.40287
0.425652
0.365284
0.388593
0.369204
0.355696
0.383217
0.393433
0.544524
0.593722
0.684128
0.393244
0.488375
0.444128
0.383944
0.461248
0.392974
0.400003
0.508061
0.527234
0.575274
0.827645
0.590369
0.810764
0.416296
0.804786
0.563149
0.454935
0.759995
0.546482
0.506776
0.352499
0.415561
0.353305
0.352727
0.350239
0.349124
0.349199
0.405336
0.38029
0.6883
0.766166
0.74557
0.690516
0.459267
0.353395
0.643705
1.31249
0.387917
0.356377
0.451653
0.755415
0.478349
0.842409
0.391691
0.360516
0.352617
0.933227
0.497656
0.772491
0.410232
0.39553
0.414773
0.452408
0.463635
0.629779
0.4227
0.671383
0.610913
0.595011
0.350427
0.373421
0.528511
0.367546
0.363583
0.370224
0.363848
0.347713
0.437957
0.351364
0.35808
0.35408
0.462342
0.383413
0.425061
0.345747
0.652024
0.63978
0.740957
0.81068
0.997024
0.355894
0.451585
0.408719
0.434423
0.391494
0.563637
0.612715
0.3935
0.748959
0.763442
0.568753
0.348443
0.444543
0.550844
0.801501
0.70959
0.361254
0.363148
0.350644
0.385896
0.357042
0.355257
0.346627
0.350528
0.347085
0.350461
0.347806
0.363141
0.373817
0.408423
0.357086
0.361354
0.347288
0.410742
0.351636
0.362461
0.347734
0.360808
0.368332
0.352645
0.355469
0.351138
0.355486
0.422634
0.33861
0.35286
0.362031
0.370616
0.353963
0.344513
0.350635
0.346191
0.494699
0.384036
0.344866
0.398563
0.346066
0.348951
0.349111
0.431396
0.444384
0.352403
0.371558
0.343943
0.349582
0.358039
0.370739
0.347755
0.369886
0.756104
0.516628
0.557085
0.357408
0.361731
0.353888
0.36483
0.607949
0.384569
0.879568
0.819616
0.377268
0.352269
0.357835
0.728809
0.342531
0.383295
0.356065
0.391936
0.902682
0.717025
0.344008
0.4749
0.747791
1.00389
0.655148
0.803159
0.556282
0.97414
0.788004
0.60461
0.630158
0.545793
0.429201
0.837508
0.357573
0.950004
0.742735
0.739635
0.760307
0.838786
0.540488
0.98731
0.492423
0.407923
0.603819
0.87476
0.382438
0.762131
0.889225
0.548295
0.365469
0.454062
0.798345
0.730142
0.704665
0.761654
0.734796
0.647442
0.766737
0.720161
0.664667
0.651951
0.59056
0.611396
0.453354
0.824613
0.361454
0.841337
0.358397
0.354705
0.358163
0.752729
0.657997
0.813596
0.863851
0.465049
0.359403
0.351377
0.364662
0.332443
1.44537
0.581322
0.935778
1.05799
0.572704
0.907096
0.78878
0.898522
0.366938
0.36057
0.377826
0.767756
0.886631
0.347579
0.343213
0.630865
0.375066
0.417001
0.37713
0.483068
0.371948
0.730034
0.761375
0.518714
0.370987
0.825751
0.434456
0.499269
0.355915
0.362186
0.335729
0.90538
0.889328
0.904943
0.770027
0.339296
1.02282
0.739633
0.50222
0.996258
0.950376
0.811215
0.566947
0.829464
0.515422
0.599886
0.417241
0.381271
0.474616
0.514409
0.60018
0.427892
0.860387
0.415149
0.416458
0.359045
0.340484
0.353426
0.347473
0.339806
0.338721
0.376881
0.605188
0.651617
0.824218
0.754126
0.454544
0.364334
0.35272
0.350203
0.360647
0.405934
0.341615
0.426115
0.389225
0.340704
0.365297
0.682196
0.56021
0.480854
0.46587
0.507277
0.403067
0.436654
0.765374
0.408355
0.406385
0.446567
0.378627
0.402115
0.340704
0.642074
0.732887
0.34224
0.397384
0.346917
0.344686
0.37259
0.381624
0.373608
0.350248
0.344949
0.402362
0.39929
0.714925
0.350849
0.421778
0.351751
0.359885
0.355116
0.356235
0.347747
0.455584
0.67608
0.423435
0.390374
0.375719
0.482569
0.374015
0.364176
0.417114
0.699401
0.459556
0.454733
0.379516
0.397573
0.481983
0.657009
0.975478
0.404011
0.641184
0.647926
0.380476
0.406105
0.338229
0.776272
0.50152
0.578358
0.373742
0.366965
0.383086
0.864272
0.918255
0.923812
0.344536
0.346667
0.362603
0.630446
0.352292
0.51071
0.382854
0.519356
0.344461
0.574268
0.831815
0.830352
0.753532
0.379535
0.608498
0.711739
0.669824
0.411099
0.405625
0.371368
0.594586
0.402138
0.584951
0.505439
0.376001
0.363165
0.417202
0.374253
0.358611
0.406921
0.721807
0.401948
0.942388
0.817892
0.473395
0.835002
0.536201
0.885602
0.383377
0.43234
0.499079
0.819169
0.355629
0.784823
0.568073
0.465956
0.891148
0.865633
0.482626
0.661068
0.693082
0.881072
0.72642
0.428075
0.912883
0.362903
0.34866
0.708495
0.604139
0.773735
0.629199
0.577871
0.757576
0.984098
0.754384
0.892152
0.568528
1.00118
0.357125
0.383071
0.797209
0.493273
0.467013
0.998405
0.459158
0.34151
0.361857
0.369456
0.768733
0.407811
0.383158
0.413952
0.690311
0.885571
0.930706
0.878901
0.583836
0.376672
0.371674
0.425979
0.91793
0.412129
0.416289
0.347489
0.357654
0.472662
0.641386
0.425408
0.394189
0.920755
0.568701
0.344065
0.897333
0.560213
0.777649
0.477096
0.601596
0.352638
0.437949
0.535897
0.389332
0.341608
0.354843
0.386132
0.353212
0.386
0.352217
0.493785
0.723957
0.727162
0.768845
0.831312
0.391468
0.347961
0.367894
0.402669
0.34696
0.417772
0.410632
0.837411
0.388596
0.408332
0.438881
0.670355
0.391169
0.393501
0.779305
0.854821
0.694011
0.877572
0.814749
0.726863
0.7893
0.790034
0.702464
0.772784
0.414056
1.10856
0.383061
0.735561
0.389798
0.41343
0.386754
0.369716
0.33757
0.346325
0.362603
0.356826
0.373613
0.735109
0.834373
0.819762
1.17434
0.630688
0.453121
0.444727
0.461726
0.622013
0.431151
0.575387
0.564881
0.673063
0.58071
0.521632
0.351033
0.726105
0.349459
0.355036
0.353883
0.465842
0.907585
0.878175
0.826691
0.449229
0.789805
0.654444
0.340687
0.338274
0.365491
0.893203
0.983948
0.683919
0.339798
0.473502
0.62842
0.45819
0.700741
0.780166
0.924894
0.737882
0.404702
0.375386
0.430211
0.379516
0.4971
0.506177
0.996909
0.402654
0.360254
0.340298
0.37693
0.422229
0.820903
0.879984
1.00657
0.645989
0.357283
0.37116
0.353086
0.430586
0.717377
0.810747
0.35917
0.352956
0.390151
0.343726
0.355974
0.352439
0.351563
0.362528
0.353606
0.35705
0.400287
0.404833
0.377922
0.429857
0.360932
0.356881
0.360064
0.362873
0.343579
0.485652
0.677913
0.74275
0.511853
0.424585
0.400218
0.665843
0.420523
0.468932
0.622659
0.393971
0.460106
0.517527
0.565309
0.574298
0.533066
0.900286
0.817439
0.545566
0.368771
0.354411
0.378367
0.387837
0.426093
0.484438
0.389662
0.482208
0.476768
0.419585
0.370667
0.490769
0.453764
0.406913
0.471553
0.440695
0.653591
0.440189
0.807522
0.947204
0.991125
1.09148
0.75138
0.843495
0.369361
0.353798
0.362271
0.389923
0.352708
0.349573
0.346341
0.440743
0.364527
0.664162
0.452533
0.431358
0.549064
0.741962
0.487584
0.483685
0.439132
0.574096
0.442682
0.673278
0.572493
0.401832
0.501967
0.499783
0.507663
0.396591
0.686131
0.548614
0.492289
0.501556
0.720298
0.370153
0.360422
0.38293
0.369924
0.365452
0.369336
0.3674
0.344883
0.368854
0.364046
0.367066
0.384055
0.370224
0.359469
0.54612
0.359816
0.3908
0.361177
0.40503
0.347966
0.374443
0.832491
0.354858
0.371649
0.333029
0.366809
0.370401
0.58079
0.6578
0.345465
0.376887
0.360172
0.867861
0.351325
0.353345
0.714652
0.372295
0.417031
0.744751
0.410775
0.58006
0.488411
0.434015
0.398836
0.389958
0.384583
0.343329
0.731493
0.3862
0.384355
0.368496
0.554204
0.345002
0.432567
0.391897
0.376269
0.583374
0.353712
0.335746
0.351496
0.363877
0.356336
0.678023
0.39349
0.360239
0.369375
0.377498
0.501356
0.337739
0.348463
0.351375
0.354486
0.382187
0.532109
0.622823
0.875736
0.839347
0.845283
0.85793
0.799053
0.559478
0.834928
0.674295
1.01287
1.23423
0.863141
0.441736
0.705453
0.849575
0.632455
0.673907
0.393415
0.587554
1.05864
0.99032
0.817548
0.726648
0.390875
0.69157
0.45627
0.532468
0.664084
0.947369
0.696495
0.902093
0.520339
0.937465
0.665943
0.689685
0.575983
0.608864
0.83377
0.525627
0.522801
0.526463
0.786937
0.744869
0.395155
0.486421
0.663822
0.828588
0.490499
0.474904
0.457273
0.613854
0.478052
1.04719
0.422459
0.926376
0.895772
0.982518
0.895078
0.862399
0.725198
0.915145
0.475313
0.898432
0.458539
0.464127
0.48539
0.55268
0.92346
0.924476
0.911119
0.941982
0.469587
0.854964
0.93136
0.769767
0.814762
0.940849
0.834343
0.786977
0.616439
1.00336
0.352796
0.37529
0.370397
0.365656
0.354904
0.378596
0.348434
0.621842
0.523937
0.559038
0.405063
0.347163
0.557365
0.376241
0.351427
0.372281
0.347316
0.667116
0.354227
0.347613
0.531704
0.7132
0.891616
0.547604
0.570438
0.492592
0.627736
0.677622
0.755069
0.724026
0.680947
0.721059
0.885691
0.493264
0.732802
0.520003
0.357477
0.354187
0.370473
0.34808
0.636082
0.418174
0.36886
0.742076
0.349976
0.541182
0.476057
0.334657
0.36031
0.344188
0.373236
0.35647
0.781539
0.36179
0.364611
0.558198
0.38142
0.412246
0.443352
0.338696
0.509065
0.35199
0.344847
0.384646
0.384724
0.415887
0.444674
0.429855
0.503362
0.447869
0.409338
0.38035
0.382693
0.468923
0.422069
0.398759
0.641345
0.373418
0.712496
0.773721
0.473914
0.447679
0.521442
0.749105
0.513488
0.468155
0.735131
0.646099
0.532002
0.602307
0.589833
0.515075
0.676471
0.929254
0.617727
0.810189
0.821833
0.974803
0.479714
0.445641
0.449125
0.399131
0.366045
0.800634
0.463748
0.391383
0.819225
0.464447
1.19115
0.470458
0.475214
0.435319
0.559528
0.584341
1.31239
0.63785
0.525741
0.41381
0.866448
0.741793
0.447875
0.537977
0.430902
0.737551
0.760976
0.745992
0.357268
0.649339
0.368875
0.734706
0.708376
0.352536
0.447362
0.372109
0.530967
0.480701
0.887175
0.764307
0.663586
0.421553
0.439971
0.393203
0.437345
0.397069
0.357772
0.345896
0.470173
0.905055
0.730745
0.577853
0.461849
0.410704
0.4803
0.794507
0.425225
0.571103
0.376516
0.381454
0.502003
0.417598
0.377996
0.398641
0.665332
0.706406
0.372287
0.403922
0.914212
0.452146
0.848877
0.684703
0.731467
0.38654
0.392871
0.333359
0.361514
0.869228
0.972663
0.846502
0.791882
0.43894
0.355292
0.346491
0.384029
0.718432
0.503114
0.52819
0.350793
0.357589
0.375988
0.377177
0.683369
0.797677
0.743836
0.826506
0.597789
0.776995
0.842766
0.374341
0.371996
0.367502
0.366818
0.839184
0.371459
0.784577
0.754627
0.88957
0.551618
0.975114
0.622756
0.460339
0.541356
0.365012
0.366184
0.857807
0.577271
0.529562
0.473139
0.436577
0.344611
1.09324
0.366947
0.368692
0.349964
0.647413
0.372466
0.883167
0.608029
0.74273
0.627188
0.47615
0.468735
0.618442
1.05307
0.339126
0.354363
0.333642
0.352019
0.350132
0.679145
0.358831
0.407455
0.975451
0.378421
0.503749
0.431297
0.753423
0.480177
0.431351
0.477718
0.443764
0.460691
0.392635
0.528157
0.860578
0.484245
0.475305
0.727646
0.416048
0.352195
0.356966
0.428808
0.351933
0.352684
0.357415
0.348782
0.425704
0.368197
0.397701
0.393263
0.355012
0.404196
1.19374
0.351976
0.679949
0.400616
0.666663
0.425443
0.388815
0.483899
0.573708
0.451122
0.784641
0.713241
0.761934
0.830347
0.7103
0.415132
0.93144
0.379436
0.421558
0.454663
0.862816
0.494879
0.464559
0.357109
0.901401
0.685395
0.35605
0.488747
0.362559
0.484533
0.402307
0.408129
0.345157
0.347547
0.381886
0.402367
0.861464
0.818441
0.354205
0.488544
0.351257
0.734983
0.792861
1.16159
0.9143
0.683747
0.947957
0.386757
0.356379
0.822905
0.374981
0.373036
0.375946
0.340193
0.462466
1.02501
0.362505
0.349818
0.410843
0.499425
0.452085
0.35612
0.445148
0.361172
0.356897
0.431815
0.460706
0.447219
0.414126
0.351527
0.497805
0.407551
0.470294
0.362408
0.363234
0.461926
0.53664
0.65178
0.847568
0.354053
0.455887
0.529074
0.364189
0.777857
0.543391
0.354367
0.953589
0.54475
0.441757
0.66355
0.621899
0.663308
0.445592
0.344458
0.50197
1.15953
0.38794
0.357958
0.430506
0.501331
0.412867
0.392042
0.859739
0.481958
0.84838
0.349928
0.404046
0.376107
0.38234
0.37072
0.466796
0.939012
0.554305
0.590175
0.459292
0.440331
0.362681
0.432171
0.423182
0.340716
0.358998
0.409074
0.613129
0.463883
0.810334
0.385803
0.580169
0.71431
0.533496
0.664261
0.587096
0.788099
0.345611
0.687031
0.508951
0.462583
0.90423
0.442911
0.762544
0.430575
0.90441
0.60313
0.372439
0.347326
0.821459
0.795886
0.349228
0.496035
0.363381
0.813433
0.832376
0.508579
0.394669
0.345711
0.577639
0.357766
0.451905
0.376557
0.367793
0.375431
0.427078
0.419379
0.648168
0.394181
0.722047
0.489185
0.394917
0.683107
0.416754
0.38864
0.709666
0.426874
0.507705
0.43208
0.374903
0.617906
0.469015
0.642288
0.725191
0.418953
0.97888
0.409326
0.355098
0.766107
0.486672
0.444766
0.537131
0.698655
0.657865
0.700814
0.596186
0.632186
0.369394
0.760517
0.742156
0.585769
0.881437
0.669456
0.586118
0.696474
0.553781
0.479947
0.59351
0.506806
0.776996
0.358154
0.434863
0.839251
0.445709
0.571479
0.743789
0.932104
0.5355
0.379776
0.435127
0.457321
0.357533
0.408124
0.347054
0.337899
0.364591
0.401172
0.354197
0.33718
0.463143
0.509219
0.707894
0.363274
0.346008
0.3469
0.378052
0.918957
0.365323
0.348854
0.36265
0.350778
0.371871
0.34438
0.374762
0.347355
0.457114
0.517174
0.417402
0.85728
0.382923
0.372303
0.560342
0.65786
0.560495
0.514611
0.510142
0.834492
0.436412
0.837998
0.770574
0.355898
0.360307
0.345338
0.398918
0.724102
0.897513
0.830274
0.343613
0.350277
0.365581
0.343679
0.499779
0.48851
0.511859
0.441274
0.49976
0.365717
0.383182
0.373293
0.366194
0.350501
0.340293
0.347083
0.372268
0.356677
0.500372
0.445374
0.518597
0.729334
0.432089
0.534778
0.807354
0.563379
0.500932
0.370496
0.36754
0.354643
0.352694
0.349595
0.724389
0.476089
0.934578
0.36755
0.362353
0.365617
0.343048
0.345064
0.343389
0.34271
0.339373
0.347465
0.371946
0.351461
0.370578
0.353815
0.36468
0.396268
0.402611
0.399011
0.341803
0.779263
0.360536
0.689817
0.561407
0.36347
0.366161
0.367279
0.45497
0.463475
0.631943
0.391809
0.356202
0.371007
0.353598
0.531909
0.48898
0.516628
0.354036
0.384285
0.437048
0.403635
0.47247
0.348404
0.365206
0.347176
0.986711
0.835584
0.754332
0.775671
0.355198
0.370209
0.374685
0.527004
0.525094
0.48949
0.734591
0.810649
0.51995
0.596632
0.483089
0.757704
0.923132
0.91349
0.934559
0.384294
0.350263
0.394159
0.340538
0.359805
0.398484
0.384778
0.364544
0.365187
0.355174
0.352504
0.368873
0.375972
0.645149
0.573719
0.738154
0.388891
0.377845
0.350622
0.361278
0.336968
0.348197
0.362259
0.346761
0.342377
0.341193
0.364041
0.363518
0.344492
0.348284
0.899284
0.643606
0.908983
0.874623
0.960155
0.559632
0.945795
1.20472
0.985183
0.354266
0.35773
0.904407
0.35106
0.347128
0.588912
0.519927
0.379324
0.739776
0.462117
0.49781
0.740968
0.7839
0.746698
0.872086
0.964729
1.33355
0.709507
0.668363
0.489949
0.773735
0.787415
0.791244
0.710523
0.550192
0.387465
0.733418
0.456581
0.763118
0.779355
0.596818
0.58193
0.441289
0.446629
1.08751
0.546753
0.966049
0.652219
0.992038
1.02416
2.20753
0.882815
0.76344
0.769344
0.761221
0.344051
0.343642
0.365885
0.350229
0.349806
0.736021
0.375737
0.351662
0.377199
0.34376
0.369094
0.366298
0.380502
0.373714
0.361183
0.364279
0.412099
0.425286
0.371996
0.376918
0.395655
0.363041
0.415459
0.4413
0.41656
0.437424
0.365476
0.334567
0.35029
0.38229
0.383581
0.511305
0.503687
0.438398
0.385265
0.383253
0.417932
0.591908
0.39903
0.690921
0.345249
0.335077
0.34773
0.360231
0.349097
0.913715
0.868088
0.425563
0.596271
0.397359
0.434371
0.3808
0.684691
0.407804
0.44462
0.445091
0.425839
0.413347
0.646025
0.800009
0.426667
0.548088
0.708051
0.36173
0.361154
0.376124
0.364841
0.359373
0.412031
0.467086
0.351453
0.362003
0.350217
0.344284
0.360995
0.360882
0.369233
0.385878
0.382388
0.357778
0.342982
0.493756
0.695683
1.10842
0.393891
0.369585
0.355494
0.347792
0.356654
0.407497
0.43159
0.443786
0.3426
0.363758
0.360442
0.347042
0.384768
0.369588
0.454156
0.40818
0.479146
0.399739
0.654353
0.718622
0.449221
0.842892
0.352246
0.353073
0.417608
0.349189
0.40889
0.378902
0.347064
0.34895
0.356254
0.359804
0.356147
0.421235
0.387796
0.394392
0.44571
0.481997
0.451722
0.525458
0.394986
0.38541
0.739841
0.450972
0.837625
0.615341
0.455498
0.591141
0.748641
0.428689
0.485033
0.441668
0.718137
0.41677
0.938461
1.15569
1.19795
0.42564
0.545532
0.965471
0.578229
0.73282
0.442516
0.572028
0.650212
0.452149
0.406361
1.35769
0.383427
0.522716
0.411342
0.419988
0.347633
0.839423
0.627612
0.794689
0.998413
0.436684
0.665132
0.830116
0.61974
0.624956
0.450806
0.37801
0.43388
0.402525
0.928251
1.09822
0.895709
0.491265
1.08827
0.838115
0.336371
0.496067
0.336787
0.574728
0.47224
0.365554
0.516484
0.49415
0.338293
0.357403
0.335157
0.582771
0.511293
0.392726
0.383264
0.55524
0.501075
0.428539
0.352557
0.694875
0.509632
0.82214
0.547648
0.363474
0.82937
0.352033
0.585756
0.869984
0.830036
0.9248
0.817521
0.79806
0.797399
0.541943
0.715154
0.367276
0.344367
0.339922
0.427276
0.569559
0.71645
0.53068
0.864621
1.00322
0.539439
0.57261
0.518891
0.758643
0.438187
0.431133
0.502237
0.965811
0.619783
0.350544
0.354368
0.753202
0.507749
0.500831
0.377389
0.494912
0.466231
0.406848
0.364004
0.44072
0.538559
0.341807
0.529203
0.402854
0.392506
0.388627
0.352633
0.461743
0.372591
1.03064
0.36648
0.336836
0.34084
0.81868
0.42754
0.498364
0.558019
0.992096
0.803192
0.435463
0.75497
0.410582
0.494523
0.345405
0.385306
0.691736
0.534943
0.364517
0.578525
0.551103
0.514805
0.35717
0.358983
0.397974
0.351175
0.359608
0.376175
0.375423
0.801907
0.752611
0.498054
0.931034
0.688789
0.963836
0.362499
0.349824
0.36436
0.417014
0.509924
0.491099
0.693277
0.717225
0.646175
0.71517
0.398551
0.69832
0.853595
0.367745
1.02245
0.675317
0.823147
0.426894
0.384087
0.646912
0.343284
0.341943
0.94468
0.365249
0.58938
0.513705
0.37922
0.411243
0.954577
1.02639
0.594853
0.917414
0.353392
0.8067
0.597232
0.731488
0.631365
0.838805
0.770544
0.502043
0.881823
0.351543
0.352644
0.499881
0.720737
0.780607
0.55706
0.389949
0.346457
0.366046
0.382489
0.498602
0.504932
0.428867
0.428515
0.395083
0.35468
0.357484
0.357573
0.7681
0.37991
0.40665
0.374532
0.369262
0.342783
0.341708
0.371457
0.357031
0.373032
0.423208
0.463326
0.379055
0.374863
0.440021
0.397733
0.609754
0.36211
0.606682
0.373334
0.416777
0.418171
0.467906
0.437484
0.570349
0.436376
0.36512
0.545803
0.658057
0.757859
0.444444
0.579441
0.743045
0.400148
0.35902
0.388529
0.379244
0.360722
0.412827
0.384867
0.465982
0.606347
0.616472
0.839671
0.622285
0.647024
0.416507
0.349684
0.526864
0.478162
0.379857
0.426949
0.355169
0.352401
0.34786
0.713471
0.398627
0.358282
0.55686
0.667302
0.699306
0.377909
0.349753
0.348576
0.377401
0.481375
0.369829
0.426874
0.442135
0.461758
0.443869
0.549761
0.471298
0.930196
0.464993
0.34673
0.380671
0.361093
0.358135
0.370679
0.346642
0.518636
0.366016
0.421669
0.701002
0.359008
0.344221
0.3626
0.36993
0.384111
0.344965
0.351758
0.394144
0.39486
0.377592
0.496947
0.42162
0.360828
0.376844
0.372524
0.406134
0.517321
0.467835
0.460702
0.714224
0.482082
0.676511
0.372415
0.444319
0.565004
0.681013
1.22593
0.348208
0.71513
0.669041
0.36562
0.374315
0.342912
0.371807
0.359297
0.36913
0.356739
0.352708
0.357509
0.348414
0.346955
0.334473
0.45608
0.370523
1.12806
0.490159
0.933953
0.750773
0.742561
0.598134
0.775846
0.575113
0.707244
0.686377
0.718137
0.439037
0.786033
0.888512
0.40459
0.367806
0.817917
0.936867
1.01726
0.420511
0.35342
0.9083
1.02497
0.779101
0.515265
0.352108
0.511784
0.532667
0.500532
0.499246