/*--------------------------------*- C++ -*----------------------------------*\
| =========                 |                                                 |
| \\      /  F ield         | OpenFOAM: The Open Source CFD Toolbox           |
|  \\    /   O peration     | Version:  2506                                  |
|   \\  /    A nd           | Website:  www.openfoam.com                      |
|    \\/     M anipulation  |                                                 |
\*---------------------------------------------------------------------------*/
FoamFile
{
    version     2.0;
    format      ascii;
    arch        "LSB;label=32;scalar=64";
    class       volScalarField;
    location    "0.0321319";
    object      omega;
}
// * * * * * * * * * * * * * * * * * * * * * * * * * * * * * * * * * * * * * //

dimensions      [0 0 -1 0 0 0 0];

internalField   nonuniform List<scalar> 
3927
(
164.478
51.5469
1159.99
174.348
86.833
666.84
578.427
99.573
47.3048
63.9992
68.6519
64.0206
47.5776
84.193
104.711
674.691
54.372
48.4161
96.4431
342.009
143.109
281.418
147.8
74.4159
111.006
132.156
68.9107
59.1581
422.981
52.5155
53.5321
46.4798
87.3119
51.7916
68.3718
73.5372
57.0198
69.6455
91.2315
119.503
60.5205
203.06
46.8574
57.5438
50.52
241.401
59.0078
160.027
63.3682
153.56
80.6447
89.3085
145.011
46.7882
46.6636
46.5427
68.1171
95.9574
49.8965
50.5933
129.98
78.5988
66.6902
131.345
97.3238
65.5624
66.4981
104.789
87.1432
297.971
70.3109
55.945
246.7
73.9092
183.515
108.492
110.676
64.2959
65.0438
58.5947
141.317
248.814
80.1482
96.1323
61.7585
60.2849
73.6645
481.229
784.153
203.541
436.083
120.996
148.073
63.5874
62.9775
210.919
718.654
121.999
96.1931
113.344
104.137
1185.73
58.518
955.149
68.3835
48.5324
57.4422
48.1335
132.234
98.2987
90.7099
280.805
69.4702
116.581
150.371
429.356
87.8869
192.145
156.977
84.9605
180.023
87.8322
156.971
449.212
57.8637
77.2949
95.1136
154.157
176.028
134.369
136.244
479.246
922.923
961.108
1188.18
128.559
71.1016
81.3592
369.744
49.7388
911.64
942.342
55.0841
60.4642
50.4032
830.741
913.839
909.105
169.241
170.106
63.5681
90.1247
72.1399
68.3102
60.5404
96.5506
935.389
242.444
53.5712
107.42
203.089
59.2801
128.662
104.856
893.089
103.117
148.685
560.519
82.9284
417.998
54.1771
1100.4
565.93
727.794
114.807
374.152
653.274
311.981
388.855
64.847
90.1414
238.733
148.169
737.601
154.423
56.2194
106.982
310.756
145.961
146.291
146.308
90.6963
264.463
60.4185
63.561
773.009
50.3762
945.371
870.211
119.424
70.2218
85.2827
89.4888
76.1397
151.604
131.935
67.4141
716.658
72.502
50.489
66.7573
228.121
133.996
801.918
77.9029
70.2695
189.274
306.793
188.203
73.6859
567.454
60.7538
98.5417
618.784
506.847
891.063
83.8571
179.891
81.7041
48.6762
182.441
82.1718
131.507
122.243
98.3979
103.074
172.916
54.4881
98.7058
75.8333
112.712
247.159
573.511
416.932
131.497
527.607
53.9678
86.732
49.6438
97.9216
170.9
156.426
120.075
67.2617
65.233
154.076
48.5858
75.774
62.9431
65.7509
153.865
105.295
104.746
82.8863
66.2724
102.833
231.759
206.897
155.466
58.3576
145.188
183.549
100.488
54.6966
54.3352
73.3118
57.729
126.792
52.0857
50.9709
371.848
54.5528
47.7402
168.773
70.6498
652.678
74.1674
385.988
322.397
262.574
338.457
267.444
62.5409
69.6881
78.7337
73.8626
191.43
451.236
144.146
486.558
61.9606
194.471
723.97
68.9762
62.3418
56.5131
93.4178
82.7373
338.316
52.0532
52.5089
179.821
65.5122
65.1151
54.0503
62.739
192.274
62.1337
102.591
71.4481
183.868
1005.32
59.5121
86.0053
77.9234
48.309
175.298
66.7562
183.467
59.5237
83.1102
115.278
793.859
546.161
649.187
54.9853
452.712
521.676
84.332
47.7398
324.154
57.1725
318.705
106.376
78.6726
56.0402
55.2839
90.2681
219.199
754.511
54.3612
74.1352
1386.12
332.269
55.5776
75.2058
59.3364
444.235
571.98
52.9512
88.0155
165.906
378.014
49.4059
89.6988
119.842
59.832
186.519
978.837
532.624
238.95
70.1382
69.5982
116.872
53.8016
61.565
74.2095
63.3762
561.37
361.871
72.0693
455.921
675.274
85.279
56.9709
68.7527
74.6263
585.473
126.208
399.627
88.5591
204.615
74.6358
187.547
406.622
59.6681
377.733
60.0209
85.891
893.488
116.748
255.139
512.946
75.0277
222.221
50.1571
193.952
46.9707
67.2011
839.719
86.1865
64.5592
55.1173
94.4859
52.2413
87.3327
848.389
168.701
521.287
67.7091
147.081
91.7724
85.1891
81.7536
59.3526
84.4147
466.119
96.7453
61.5352
613.23
111.438
103.546
166.758
102.261
95.7004
218.165
328.169
81.33
72.3681
126.393
47.1056
47.3243
339.942
611.071
47.0856
358.226
48.6035
121.82
47.9676
50.3545
404.54
57.0492
106.564
351.3
133.582
103.337
50.8082
240.777
56.0743
168.269
527.399
68.4758
252.485
202.074
310.569
170.948
71.4066
937.614
1056.74
819.995
230.688
75.4055
714.394
60.7879
168.039
440.939
288.482
54.1595
133.253
47.1396
50.9882
58.2505
48.2888
76.6203
76.5799
49.8867
1030.94
68.549
111.079
49.8761
621.461
95.8401
47.4516
47.7233
58.9698
299.81
220.115
113.56
350.683
707.896
124.637
300.456
557.77
786.902
61.6718
1084.59
398.935
66.6086
68.7883
66.6723
113.828
64.9074
115.585
60.2672
52.1697
69.1673
915.269
52.3043
52.8501
204.715
808.147
776.134
112.354
263.254
60.7061
123.499
571.528
48.0028
131.927
66.741
60.7754
57.8465
167.057
66.5473
80.5255
79.463
62.9906
61.1756
74.9076
91.0386
119.355
67.7616
158.258
159.457
324.763
102.722
127.836
191.578
130.504
48.7767
122.858
227.058
252.484
48.2118
167.316
116.996
159.83
132.015
109.786
85.9156
414.281
194.588
523.583
227.728
123.654
717.332
656.584
81.8472
167.836
187.817
155.424
116.562
54.2656
50.3624
86.8557
97.2709
87.9826
107.609
80.3413
84.209
48.0998
73.6153
77.4373
91.1242
90.1211
85.132
79.9099
272.606
817.58
85.056
82.7872
70.992
147.114
72.668
163.365
69.8865
56.2898
123.144
308.128
113.967
190.874
78.583
248.773
388.72
127.867
119.155
200.91
163.912
157.726
149.843
542.195
406.418
68.9146
117.222
101.078
67.832
48.4641
65.789
157.972
63.8953
138.267
69.9934
63.3623
65.0805
68.2292
143.276
125.765
47.5001
150.343
181.85
171.746
234.855
253.611
92.3931
66.7925
79.3876
54.6593
63.3634
57.334
60.5376
53.8913
47.8287
52.9565
53.252
47.7953
61.636
49.7586
48.2644
47.5336
104.83
185.848
72.7946
428.266
49.0265
92.5866
61.4653
160.471
162.285
410.083
773.117
59.8724
274.453
109.899
97.4435
117.37
128.935
457.295
96.9469
68.185
55.7266
82.0174
56.9609
58.4036
48.4403
78.8031
47.4703
52.5775
52.1867
55.0797
1062.45
1101.76
892.045
1053.83
286.062
149.795
219.444
135.341
220.875
164.295
80.02
98.0365
79.9789
48.4772
48.092
80.5794
139.801
77.1031
64.2987
65.708
60.717
63.5222
60.091
131.738
59.3677
69.6082
117.336
186.377
58.0965
60.2089
47.8448
76.9
56.6775
85.8225
73.2124
58.1273
58.9447
54.0002
52.7134
54.4577
50.9825
53.7675
52.6362
49.3436
50.6618
49.9549
712.709
392.42
285.447
736.21
436.394
150.254
208.397
239.207
233.472
92.3957
67.9336
75.8303
112.053
101.1
47.7205
629.749
85.5678
628.064
616.603
437.919
508.178
300.931
235.147
141.583
48.4341
703.101
66.5176
1060.11
284.486
727.969
82.2339
64.4294
188.815
152.821
74.7317
986.214
124.313
259.675
115.081
72.7354
86.4786
929.585
65.3841
68.9651
582.313
445.352
900.491
288.237
467.461
85.3049
70.747
51.7168
108.212
49.1869
57.7949
49.8004
54.5274
814.503
136.94
132.588
74.3652
158.813
750.923
871.036
148.101
124.631
149.388
737.407
264.143
68.5044
100.354
859.86
102.37
166.038
335.862
925.928
178.854
107.077
391.705
266.302
202.231
1128.4
820.173
48.1052
498.532
159.883
177.04
710.783
48.6335
976.121
450.089
504.5
191.766
65.6477
101.028
65.1029
47.4115
84.8423
49.0213
48.1458
82.6047
267.164
54.8465
46.9785
49.7923
287.684
869.663
49.1843
510.188
65.2788
47.1048
52.7106
64.2866
59.6416
70.3549
63.7105
57.5039
626.034
193.417
59.546
58.676
75.8747
55.0223
492.588
107.195
551.256
155.473
177.452
809.637
155.14
50.65
168.222
48.0498
109.119
239.767
182.028
69.7708
76.4354
65.2247
59.1296
174.659
60.7487
69.515
86.232
90.0222
49.7949
90.5733
820.492
61.1756
95.1224
64.3235
140.854
66.6698
96.7947
985.213
188.97
62.8232
79.54
64.1016
47.0844
63.0437
171.769
540.567
513.788
404.003
129.905
691.316
121.794
749.678
155.981
199.071
76.7074
152.415
86.7796
72.487
472.431
109.271
49.5091
97.6228
349.096
143.604
55.0046
54.6814
84.8962
759.738
55.5166
232.701
195.515
105.71
67.4409
64.0608
772.849
444.843
79.3128
80.3411
61.3431
171.463
49.4339
48.3295
123.63
68.2824
107.389
60.3179
109.872
146.272
48.0939
61.0889
49.5565
80.2601
291.758
118.775
127.733
146.87
366.214
157.586
66.6627
102.859
129.669
235.146
48.5552
49.2018
183.235
137.535
223.336
71.758
231.754
202.974
385.822
92.1921
47.0275
80.1575
49.1787
55.0934
932.02
47.0076
60.1727
49.9605
68.4895
48.527
111.413
433.407
59.5342
1221.66
47.6232
53.7555
75.9449
87.2444
69.9927
94.4951
66.0145
59.7647
48.1338
79.2015
594.799
49.838
873.372
969.043
51.1448
58.3487
81.9876
77.998
150.301
91.9423
70.8989
89.2437
76.5136
131.847
107.432
166.951
75.2924
766.103
194.564
601.83
505.384
59.6867
840.637
936.939
285.117
134.266
227.564
132.868
52.6781
309.357
129.285
48.3066
77.8577
152.946
99.7687
67.6213
116.88
52.854
93.541
73.4065
820.588
131.081
87.6249
193.506
51.2523
69.3905
198.022
120.59
58.9821
49.0689
219.854
173.27
77.8268
119.782
62.3068
874.647
59.4699
996.84
499.77
114.404
48.795
50.9148
50.1901
561.2
107.373
1048.44
121.338
61.6533
1155.17
96.2085
719.087
722.434
156.19
53.874
53.8624
55.8491
138.882
690.402
55.2308
525.062
110.675
456.691
152.999
547.216
59.031
48.0855
125.893
667.537
262.153
60.819
263.426
203.981
54.5728
169.766
489.386
242.343
161.897
102.252
652.733
571.002
81.8857
65.32
49.3464
49.2645
1017.81
549.951
1157.5
61.1617
190.572
874.841
54.5541
799.138
398.473
581.961
60.6956
47.7465
49.2012
48.1523
913.364
902.372
1034.19
843.94
103.429
1194.31
62.3816
58.7296
52.0409
1196.76
1181.04
483.495
191.094
1087.73
132.487
53.4594
52.4624
53.5619
462.695
59.292
55.2117
66.3519
157.451
48.567
56.9709
158.906
67.4551
48.1871
119.619
60.9068
62.3046
755.922
199.787
115.062
835.227
222.479
402.41
63.7005
975.873
72.205
131.819
739.323
176.108
457.342
126.731
83.3021
213.261
216.909
115.435
126.382
270.719
252.872
126.01
147.442
57.3424
73.4092
68.7739
56.1769
81.3492
158.227
50.9419
51.8537
59.1202
55.5653
51.5779
56.1592
188.486
183.113
63.1026
117.622
125.994
791.716
538.672
304.608
238.74
66.0828
300.477
83.5446
63.9095
98.9612
97.5299
50.714
133.349
67.1692
99.8233
526.337
269.502
81.6717
54.373
208.085
66.7917
61.3708
99.7068
103.724
62.5856
70.8254
335.867
97.46
294.428
140.33
421.886
76.0168
61.0688
813.467
55.113
491.067
66.6937
403.511
161.765
76.4953
57.1771
205.739
661.936
321.869
61.2208
69.797
97.4228
57.6651
116.218
88.8819
56.8084
59.7196
128.848
161.497
246.632
58.2009
102.864
71.9058
50.7555
83.5531
59.2722
54.2514
125.495
149.081
197.338
850.912
231.371
744.978
65.9125
575.277
198.631
79.6744
282.139
142.971
109.567
53.3851
60.9743
47.4552
47.4147
46.509
47.2127
46.4384
57.8296
50.4058
826.907
319.336
430.808
271.208
85.0409
174.727
209.99
1102.42
51.7098
47.0572
75.9357
343.663
111.233
1379.53
59.5987
47.7006
47.7209
794.727
111.024
699.374
62.0964
54.8934
64.4603
75.1718
79.1981
220.556
62.0122
783.858
836.404
165.881
48.173
103.674
138.812
49.1965
47.8868
48.7635
49.4733
49.9368
75.027
90.6458
95.5998
47.2363
78.1526
97.0573
62.7949
55.9061
238.846
217.417
933.535
325.21
1270.38
47.7059
73.8424
57.1846
66.9188
53.3276
137.12
177.42
54.1905
476.994
478.591
157.219
73.1275
80.5216
160.47
873.948
383.001
85.8893
48.6507
56.4463
123.452
55.6063
73.3249
55.7559
47.8442
48.6182
47.6155
47.9909
57.5675
50.4642
59.0535
49.6689
49.435
75.5514
65.4833
48.1536
80.5234
56.3704
85.0122
108.67
76.5128
71.6363
70.5571
49.1139
66.8556
78.8731
66.077
229.7
53.3879
62.5786
51.9706
49.3104
58.0138
101.985
51.4649
54.3548
115.376
104.147
47.133
48.384
69.6234
75.7772
57.4345
116.586
65.2825
68.656
73.1249
72.9948
52.8307
75.0832
306.389
141.611
163.232
61.4956
54.2007
47.5513
122.037
193.51
101.749
774.817
796.855
95.8617
46.6226
111.579
418.512
57.0351
242.864
58.8855
65.1765
803.94
256.182
137.821
99.845
486.291
878.694
273.222
956.145
169.928
1035.76
552.719
199.88
280.447
171.602
72.7714
590.402
49.5718
996.524
725.451
308.049
661.14
396.188
127.74
896.216
96.7459
58.1284
178.453
934.601
51.1629
438.322
796.973
156.316
91.4934
82.2165
448.496
275.878
542.831
404.323
496.072
622.619
377.026
288.188
236.17
223.941
155.014
166.199
527.02
890.831
48.4311
503.876
75.0112
48.117
48.1537
370.349
776.035
823.681
572.966
83.1114
73.5435
73.6284
85.059
85.7424
1812.62
204.268
832.177
1095.08
171.276
845.995
610.262
1244.71
48.0051
48.9782
49.6655
308.983
794.693
47.4025
75.1747
252.957
49.2584
61.0583
49.2764
98.9721
49.2464
326.307
349.444
128.831
48.6838
700.104
65.9377
122.124
47.4522
47.9639
78.1186
1022.97
1011.21
1019.99
388.044
125.994
888.78
439.946
113.502
1044.68
1016.26
573.252
166.604
423.884
115.6
172.973
61.9085
56.3578
95.2648
133.543
216.139
70.691
780.49
64.5938
65.2457
48.5242
53.0227
96.5494
109.467
75.346
76.3989
85.1415
199.788
536.276
377.989
347.216
77.6925
115.269
87.5121
63.4022
67.9758
62.5159
76.4568
63.6257
55.7595
63.1317
77.4931
232.969
144.72
94.9702
79.629
100.87
61.4127
71.9178
387.58
62.4916
63.1275
72.5271
51.5692
62.8994
54.7129
185.673
276.207
61.3181
156.12
85.7281
81.4906
227.45
96.2627
85.6979
101.913
51.9022
56.758
56.2493
314.355
102.958
60.8686
49.1404
49.9054
49.0016
49.6436
46.7481
78.2853
283.458
64.0299
56.106
53.0273
90.3972
219.222
114.144
60.4806
239.37
79.8559
78.2336
50.3765
64.2265
98.2804
263.101
947.017
55.6954
251.471
244.018
50.9828
59.8194
80.699
388.021
114.395
185.984
49.0648
48.0934
52.7779
565.509
600.402
593.128
48.3853
47.8763
209.951
215.766
78.4862
122.938
68.7155
108.792
127.645
148.893
679.954
591.922
462.117
69.8387
688.448
593.727
262.867
59.0055
55.707
82.372
191.273
54.5414
177.566
109.322
49.5563
51.8077
62.3286
52.2639
49.05
58.6269
337.565
55.1184
1235.3
1057.02
84.1799
419.555
131.123
690.658
59.7964
69.9834
114.101
580.343
73.0618
505.709
181.234
84.7564
815.868
785.251
86.8211
205.357
721.312
789.791
423.769
67.821
696.905
67.4825
107.917
345.668
283.722
505.141
232.448
195.553
484.724
840.304
477.58
763.232
178.381
1065.63
52.2707
61.1774
612.203
116.716
87.5616
842.682
87.2181
115.125
55.4727
50.6212
873.677
61.021
53.6208
63.7661
655.664
914.778
910.751
730.923
181.78
60.5482
49.478
69.0535
750.622
63.991
65.2149
101.721
189.517
96.5083
316.989
68.9597
57.967
821.814
186.734
131.277
799.465
160.686
611.048
100.403
302.579
59.8901
74.1901
162.017
189.389
99.287
94.8914
176.659
167.66
153.87
86.6062
111.317
436.776
437.536
502.078
568.885
58.0842
74.5279
239.831
63.1713
108.306
65.5856
63.11
593.381
54.7518
62.622
75.5687
349.143
55.8594
57.6557
501.55
611.74
383.188
663.974
554.569
421.913
517.317
509.321
376.184
496.691
65.7069
1131.11
56.4111
457.062
106.812
65.8817
135.543
50.0079
166.009
88.2754
87.4461
83.8807
75.5428
453.701
726.738
535.568
1061.93
289.548
82.7292
74.6052
85.2029
184.622
67.98
148.675
139.698
220.108
162.308
110.52
50.3169
399.871
49.21
47.4186
47.3982
91.4838
685.982
656.91
561.726
77.4998
497.539
284.903
84.8888
80.0637
56.0238
592.371
656.261
299.485
83.5549
90.1724
232.434
80.1378
284.723
329.448
839.071
647.327
62.2162
53.9252
75.9149
66.8067
113.032
112.62
920.172
61.052
61.7004
142.816
64.6877
67.9632
688.03
760.263
799.702
253.12
53.5845
51.4936
49.1814
72.5758
300.181
378.046
47.9529
48.2038
53.1032
55.6825
47.714
53.5769
52.7416
48.5914
63.9966
68.7719
54.775
56.3959
69.1872
67.5429
66.9091
47.9874
48.1628
48.4565
48.5847
102.563
271.622
355.017
143.096
67.7889
59.5734
752.304
62.4734
91.4342
197.562
55.1431
82.7412
126.123
147.672
169.116
123.375
412.552
428.874
128.263
48.4055
47.307
49.7027
52.6761
64.5611
91.691
54.3014
87.1513
86.9371
62.2148
48.566
93.5792
81.1269
57.6222
91.1008
68.3957
342.033
75.0724
538.482
933.627
941.826
905.81
400.867
1206.27
49.3499
48.013
48.5426
114.119
51.7812
49.5127
50.6777
81.7728
86.2415
212.185
78.8566
64.7732
140.465
343.914
99.3381
90.3737
71.0271
148.71
70.2527
267.175
157.592
55.6224
100.533
102.359
103.249
54.3245
241.836
129.78
96.0631
98.6592
288.247
49.4458
82.2309
110.432
49.8252
49.1963
49.4006
49.579
136.041
49.2997
49.0948
49.0864
123.505
72.9435
93.3552
183.61
96.7896
111.928
97.1275
59.2594
86.875
71.1386
576.247
100.652
74.9519
125.364
100.678
96.8769
159.244
219.383
55.3885
117.419
97.0738
775.141
47.1225
47.4416
265.403
48.8498
60.6308
291.364
74.1108
149.022
95.2152
67.4772
157.627
97.3072
86.9446
53.2215
359.152
51.2045
52.7457
48.2241
132.79
105.166
69.2359
52.3047
49.7781
154.636
70.8007
175.129
76.6827
71.5619
78.8511
232.082
54.3746
48.4742
49.8812
57.1576
98.3865
124.371
130.277
107.064
89.7376
68.2405
121.161
179.095
615.198
540.499
716.645
695.834
684.054
157.952
501.683
288.956
1038.71
973.705
478.169
72.5297
912.175
391.239
203.595
776.47
67.8427
182.361
964.2
739.107
1108.77
426.655
51.9989
890.688
88.7379
129.92
834.656
1014.67
895.015
951.867
109.476
793.312
512.11
235.283
175.332
190.802
772.765
128.209
111.481
116.072
323.849
816.188
54.0183
96.6131
225.153
930.173
100.165
89.6596
75.6615
170.437
88.2366
1342.52
61.3567
778.714
1011.03
1283.36
990.134
873.957
368.31
762.737
89.0625
716.657
76.1394
84.4809
97.0195
135.279
790.808
791.247
816.398
785.591
81.1683
393.584
896.64
819.352
842.864
832.899
848.869
523.124
208.047
824.248
47.5589
101.831
94.7826
61.1562
62.1333
86.2655
56.912
231.626
117.084
142.65
193.17
80.9147
138.766
106.169
50.346
66.792
48.7232
223.733
48.5415
92.258
129.391
823.986
747.698
141.552
151.511
101.521
213.221
270.939
652.584
549.099
995.137
1023.83
942.326
96.0991
1032.07
158.572
76.4531
70.3931
49.5557
57.6819
236.883
60.1127
48.3738
280.149
47.1247
139.323
92.5246
79.0098
54.3364
55.7457
48.9813
75.2288
526.148
283.299
58.2957
189.027
71.6644
63.3856
76.9011
125.43
114.554
67.2567
54.5616
53.9272
50.8222
60.8914
73.1741
65.6548
123.746
80.6092
58.074
52.2755
52.0384
85.8071
66.6406
56.6884
338.12
52.4066
400.253
483.883
93.6355
73.0697
112.4
391.643
116.621
84.6799
271.455
193.97
170.953
196.781
251.096
145.69
733.655
985.169
197.976
321.072
485.687
515.039
571.125
75.804
75.9688
76.959
86.7324
857.545
92.5568
61.4303
582.566
78.9963
1143
99.4947
82.9795
75.2739
205.812
229.471
1270.67
263.15
112.605
60.74
803.129
439.653
76.4251
130.155
68.1213
281.678
416.771
284.599
109.62
250.874
90.5946
505.901
775.886
55.4973
74.5716
61.7898
131.881
100.131
719.283
277.24
205.485
61.6159
68.7597
52.422
69.2767
53.9033
47.4428
48.6164
86.797
624.802
371.193
166.527
83.5276
64.0038
93.395
314.489
63.6547
170.282
51.0177
84.2258
104.438
64.4064
136.276
59.5241
913.024
356.594
75.0129
71.1013
997.599
77.6663
680.151
276.127
927.562
51.7952
54.3374
88.4228
48.9656
396.927
732.488
384.802
465.708
70.1274
46.8747
49.1608
51.5892
658.362
105.859
124.481
47.6879
47.0846
49.8636
50.6473
245.964
433.243
272.009
758.746
188.9
456.955
588.612
48.944
52.8476
50.9088
48.4441
580.504
50.9332
334.641
852.355
1011.17
127.557
963.853
177.162
80.1934
141.149
79.2995
87.3313
590.936
169.514
135.722
120.197
71.9324
99.9028
1105.04
48.1383
48.6328
48.2176
231.947
48.8885
656.395
165.952
267.528
183.567
82.3261
84.9741
228.067
987.833
102.041
50.5254
76.0383
59.8006
127.887
319.002
198.778
58.1552
912.189
49.9102
113.036
66.2872
707.426
89.8232
68.4924
88.9675
73.9289
81.374
58.4151
120.652
672.603
95.6587
87.7665
393.355
64.0246
52.8385
48.4775
66.1907
65.1149
54.485
50.2197
47.4917
65.7311
49.5507
60.3905
71.286
59.2028
61.5406
969.335
63.2015
276.758
58.6318
335.629
70.7613
62.0921
109.214
174.447
77.137
503.382
420.411
478.102
569.82
962.694
61.913
1079.97
63.9919
66.0434
80.5763
1098.8
102.209
84.4226
49.4406
951.447
385.155
95.1324
105.879
72.3766
108.076
57.0517
62.5852
97.2984
72.812
291.044
58.9792
522.744
580.376
47.304
101.232
48.4118
361.06
543.068
963.529
826.926
397.646
1074.62
51.0959
47.0829
500.237
50.3699
252.947
55.7343
77.7695
92.7117
875.769
58.5403
47.2045
64.1479
123.215
74.9116
73.6163
77.5057
175.449
90.3729
74.7788
88.9589
78.8982
60.2394
48.9785
128.847
59.9026
94.1082
53.9095
71.8216
89.3417
171.245
343.284
1016.38
65.9153
79.5391
135.192
88.2434
489.955
125.626
102.332
773.283
136.119
81.3395
213.783
173.14
222.146
79.2184
135.047
135.252
853.926
51.9628
47.5061
67.3361
106.223
61.2517
54.4277
662.713
106.454
631.86
53.6016
60.5217
60.5433
59.9617
61.1194
91.2717
812.198
167.008
212.062
89.3858
78.936
49.6928
73.7704
71.162
94.6942
62.2968
61.9746
223.839
82.6986
474.533
61.5432
230.085
339.251
125.103
323.726
209.57
541.176
132.044
297.415
114.222
81.8971
831.778
72.3388
330.237
70.497
902.255
314.497
61.5109
55.6068
892.665
614.258
49.1413
119.189
47.7026
553.707
595.556
136.016
54.2946
55.9484
194.309
48.1683
83.5306
50.8101
50.2056
49.7013
70.5708
67.8406
197.931
58.1701
469.563
99.817
53.2168
306.617
63.5742
54.3337
517.704
72.3502
99.779
66.1617
50.1379
650.106
89.4198
660.391
313.943
64.4819
990.414
59.018
48.6966
438.326
93.76
72.4093
188.354
235.982
333.332
405.948
165.219
191.008
49.6448
375.02
265.235
207.535
1071.8
715.049
210.686
390.663
168.686
105.934
207.271
128.788
891.375
47.5669
71.3105
624.417
78.3738
188.002
435.529
822.418
148.943
51.6989
72.9243
83.0502
51.9959
63.1434
188.928
143.641
61.1645
61.4235
192.466
116.853
90.8712
120.866
396.234
69.204
166.835
95.6579
68.2267
439.325
49.3781
49.7382
48.5348
56.5349
50.168
48.7641
75.4526
47.4105
81.6687
121.935
65.3171
579.857
58.9199
54.134
157.576
308.72
178.238
122.853
118.718
441.731
69.9787
567.547
421.574
69.3535
76.9371
202.875
64.3501
369.826
1227.15
585.695
75.5767
106.956
68.4383
176.311
101.854
95.9858
112.718
69.9573
108.477
57.7977
61.5191
58.4772
55.9818
48.9573
62.1662
52.6929
49.9684
48.0701
110.271
73.8646
117.717
433.585
68.1239
166.435
504.407
201.7
115.225
49.4942
81.7977
47.81
47.4649
50.0715
349.463
91.7467
800.571
67.0775
55.3517
55.471
48.8023
51.3134
50.7684
130.39
117.349
164.57
61.6808
96.2364
50.0031
144.23
48.8836
55.1193
59.9528
55.227
72.3378
292.703
48.28
226.627
164.894
48.7842
48.9042
49.0965
79.4226
80.7169
186.333
121.821
84.5819
50.046
48.4601
116.923
90.7382
105.027
51.0216
50.8125
65.8477
55.3623
87.4767
101.525
73.855
98.0999
903.827
583.961
449.069
461.964
73.5813
49.8085
103.85
163.195
163.538
113.978
375.684
353.513
117.035
181.541
94.7439
421.264
1002.5
970.78
1021.86
59.3511
86.5194
58.0069
103.638
63.9311
55.3678
52.4307
49.082
48.6433
48.6128
47.8911
49.586
230.847
253.922
152.872
401.552
111.292
108.039
59.5752
90.054
161.129
137.749
81.5236
50.4194
52.7539
165.486
83.6583
70.2152
95.9944
49.8796
1228.37
231.116
941.397
879.834
881.408
174.496
860.365
1182.93
938.417
49.9201
75.7938
802.711
47.2471
47.2278
158.804
131.26
56.0181
1036.95
86.7583
118.502
608.84
433.527
385.272
652.628
997.28
1174.33
399.741
343.401
97.4501
775.885
443.809
305.104
388.231
598.976
67.5292
481.66
79.8304
724.627
675.576
197.99
155.925
72.1578
71.7969
959.167
154.951
851.999
252.859
807.076
668.569
2233.99
706.078
485.253
504.246
282.008
49.2074
49.1227
134.076
47.2674
106.182
609.097
49.5555
71.4702
102.093
57.1168
48.4931
48.0862
50.9947
49.9744
47.5791
48.1131
61.0352
74.5697
48.5728
49.6106
53.3664
49.3988
68.2375
81.1775
72.6841
75.0316
48.9542
87.8047
63.3732
50.6982
51.0543
108.947
97.7958
68.842
66.2287
67.9777
69.3364
212.35
54.7124
422.664
48.4361
77.8569
137.148
47.5948
46.9749
681.04
1028.55
67.3033
172.82
56.2327
68.7502
50.1705
281.59
62.2721
73.2179
80.5712
70.151
64.2872
628.746
555.552
71.6061
181.912
838.644
47.4897
47.7564
231.718
48.225
48.0581
60.8222
88.1113
46.7335
222.521
52.7488
50.0253
48.4721
79.7912
49.1292
52.09
51.2351
47.5384
56.0762
102.096
346.94
1037.51
52.7166
49.6275
46.9047
60.1974
47.8391
56.6604
72.4851
74.321
50.0138
47.8817
47.7137
106.572
52.3986
49.8559
79.16
73.2268
96.2998
67.5894
785.534
642.64
75.1635
549.8
145.352
204.503
62.3033
91.4585
65.1986
286.477
170.272
130.704
47.1437
47.8107
47.5445
61.5545
52.0264
53.4152
71.2831
98.0758
82.0172
131.329
53.6476
52.2581
306.353
74.6609
499.675
210.749
76.9928
185.26
409.024
68.2214
96.4866
69.1534
373.929
62.7987
811.296
1138.91
996.896
67.1319
128.585
868.377
174.985
386.096
73.1649
173.944
253.12
78.2708
68.5653
928.007
52.5901
134.418
73.1613
71.8934
143.91
583.191
226.845
472.632
966.473
70.6291
271.331
603.692
217.501
204.998
78.6452
53.2849
70.4433
58.8279
843.472
1154.3
789.614
108.232
972.52
591.316
76.8761
102.307
77.934
162.378
90.7641
50.1791
118.698
101.242
131.008
86.2325
155.046
153.947
688.169
53.1621
51.043
150.795
139.94
70.3751
76.222
376.43
141.701
567.312
171.43
72.1634
580.755
59.5747
229.729
803.386
486.841
895.814
389.987
367.566
558.35
192.327
424.048
62.2218
98.1007
117.92
66.9588
200.101
542.614
145.714
898.937
820.271
158.68
184.786
117.752
488.939
76.2593
67.7264
122.655
932.402
290.306
49.1903
52.2429
328.501
127.597
128.201
61.2434
111.698
98.0035
64.384
94.6016
74.8261
162.045
89.4866
138.976
57.0343
57.9266
61.2875
76.5083
94.2931
76.0069
914.465
64.6019
79.2789
89.0664
359.432
69.6445
112.189
226.482
764.918
551.952
66.7882
821.674
68.5826
105.477
86.1634
67.785
328.176
133.349
70.6353
207.566
143.544
116.574
88.1565
190.949
58.7287
78.0624
70.4447
56.4671
50.1812
462.792
409.546
129.395
930.894
327.974
654.14
227.995
188.427
232.259
62.7726
110.582
93.9936
309.756
397.422
246.902
830.61
58.6141
400.635
785.713
104.935
965.072
326.515
517.281
554.021
118.534
221.389
70.1205
62.9954
877.369
84.7347
166.667
108.239
56.749
67.4097
913.671
955.965
210.185
955.727
74.6372
352.391
186.543
397.683
208.809
426.929
856.339
122.624
646.318
47.6752
47.2838
104.281
271.922
380.702
156.434
61.3693
54.0253
48.7019
50.7544
124.13
114.868
70.2939
65.0855
54.4303
49.8832
111.085
124.08
505.615
83.1267
74.9568
53.1765
54.9676
104.141
123.161
60.7424
76.9722
67.5718
69.8705
82.7778
49.9559
49.5301
72.1268
56.1695
214.222
48.5515
175.772
48.8288
62.1396
61.7426
84.3216
68.9987
168.271
70.2874
75.1036
128.077
209.099
318.39
71.0017
140.777
369.418
55.8122
47.6323
52.5374
50.7295
47.7409
58.0773
57.4474
83.0787
166.062
180.821
465.136
173.439
230.68
64.7736
76.5849
130.052
93.5768
64.3321
67.4071
48.8752
48.9882
54.9012
270.358
57.3026
59.0809
146.181
266.533
368.059
184.393
52.4504
50.9139
117.5
90.3218
71.1348
66.1892
73.5124
82.7173
72.3778
154.086
93.0487
898.008
86.3274
47.8275
57.2634
84.124
49.0006
96.4971
80.3977
127.33
48.8774
65.4302
392.011
48.6522
78.5804
48.5942
49.7451
120.617
55.6478
59.3481
136.837
136.957
105.902
113.181
62.6443
71.125
89.3698
108.921
58.4822
123.471
84.333
80.9089
374.121
92.0465
251.655
49.6257
76.0553
154.946
274.346
1078.32
49.612
424.363
314.693
122.642
95.3383
64.1072
76.4862
48.6926
49.4247
118.988
49.2608
85.5666
77.1111
182.575
155.492
80.1168
52.3419
1037.43
101.89
864.417
384.986
393.71
166.684
393.087
164.087
873.04
241.426
324.665
77.3496
1090.97
860.997
57.7371
62.0832
586.637
816.715
921.596
64.6346
47.5627
804.196
1040.64
719.336
149.521
47.569
145.863
170.588
129.805
127.947
108.955
119.368
556.265
93.9737
309.371
81.3872
528.218
64.1244
241.426
390.09
59.3099
399.773
128.875
92.5596
52.932
52.8619
139.769
66.6943
189.489
308.452
375.346
868.96
64.9916
58.2025
501.699
71.4448
939.402
59.5879
854.688
844.726
767.707
336.462
48.4497
214.18
49.1306
173.247
95.2369
100.346
48.7802
75.7733
48.1665
49.0653
49.771
49.3987
49.3308
48.7163
109.895
48.2529
48.6478
49.5028
1219.99
934.911
787.688
781.779
669.368
48.1363
49.1093
464.199
446.058
332.604
91.1365
48.8484
47.0721
47.4082
48.0425
47.8922
65.0676
142.95
170.237
49.0595
518.403
208.114
857.593
475.52
59.4217
56.1692
123.631
125.644
83.7207
213.626
77.1387
473.667
220.815
114.287
210.96
199.715
395.752
64.1959
748.858
159.823
971.913
70.7582
73.2791
948.522
232.466
170.647
141.192
230.303
97.1643
64.3055
103.76
55.8081
1053.39
1091.25
867.222
58.2924
62.7752
822.666
519.171
53.4309
805.548
961.779
901.266
836.332
871.014
814.749
856.549
284.338
135.427
570.172
52.4525
692.045
244.469
131.596
59.9917
701.153
99.3886
67.1511
321.875
87.0481
152.726
615.703
126.577
133.448
78.3258
87.8419
74.2837
50.0218
48.5141
47.5308
70.1381
52.3292
111.074
47.5058
47.4748
47.4444
48.4966
46.7943
79.1021
49.5635
150.505
49.5036
79.4538
49.0304
86.122
48.2462
46.557
203.505
117.86
685.916
71.1237
160.533
54.602
250.781
75.2837
78.2597
128.772
178.142
68.6945
59.4518
233.088
124.24
115.763
164.287
52.7342
986.167
614.447
123.834
70.6777
50.43
510.403
135.209
78.7339
85.9249
141.281
51.5021
57.649
65.3284
66.7594
48.2494
51.3432
79.4753
55.0012
52.4227
79.4201
205.877
69.3151
103.424
92.6259
69.3017
77.5204
210.434
74.7095
62.4118
147.91
58.0775
325.004
61.3267
70.5326
65.4564
183.047
660.533
87.5727
90.6681
210.278
202.221
149.718
93.4569
236.433
63.9776
80.7286
72.1211
57.3432
62.1761
104.043
908.939
643.867
224.56
896.719
459.878
207.696
84.5417
97.9787
52.3431
279.711
73.4852
90.6443
56.3968
57.8755
605.117
88.1214
591.788
135.896
100.819
232.292
638.18
215.735
687.83
540.425
506.745
146.559
500.208
895.3
570.861
48.595
52.8167
48.8966
60.1081
66.0768
77.684
47.641
58.0838
48.3266
54.3685
59.362
56.1441
61.2891
56.2654
207.066
96.0922
66.996
74.82
65.5638
130.036
54.1734
154.051
59.9044
130.534
525.668
838.335
282.626
398.593
1581.38
741.732
189.839
79.8905
84.7986
185.006
724.547
882.614
855.424
53.2766
49.5212
189.174
670.854
841.462
46.8077
283.215
52.6619
63.525
122.564
47.8348
47.5978
142.685
603.213
365.748
48.093
974.221
178.758
611.072
73.3496
81.142
97.8115
419.081
849.132
563.082
305.903
560.735
53.9409
61.4735
73.945
67.9241
87.8797
64.8817
597.124
79.7363
53.984
53.8045
92.3726
371.118
74.6165
60.5939
60.8439
809.724
73.3971
65.5649
72.6369
92.2819
75.7506
63.587
59.9166
657.529
238.706
139.576
47.6971
96.2322
79.2064
50.4916
55.6192
55.7979
77.4123
106.921
76.3452
117.799
76.2245
48.7785
89.1136
67.7241
84.2632
53.4515
51.2459
257.342
66.6656
369.266
290.557
57.9182
157.421
251.604
385.327
467.158
98.3268
66.269
55.0172
224.511
112.837
124.299
182.221
112.003
93.639
480.423
58.2888
77.8201
761.792
54.8472
55.4412
56.2018
55.7878
79.9656
257.625
206.299
52.4498
107.743
114.482
47.9642
47.4806
51.6531
49.0255
49.4191
89.9818
55.876
69.4235
50.6035
85.0453
54.6134
104.416
91.1658