/*--------------------------------*- C++ -*----------------------------------*\
| =========                 |                                                 |
| \\      /  F ield         | OpenFOAM: The Open Source CFD Toolbox           |
|  \\    /   O peration     | Version:  2506                                  |
|   \\  /    A nd           | Website:  www.openfoam.com                      |
|    \\/     M anipulation  |                                                 |
\*---------------------------------------------------------------------------*/
FoamFile
{
    version     2.0;
    format      ascii;
    arch        "LSB;label=32;scalar=64";
    class       volScalarField;
    location    "0.0440925";
    object      k;
}
// * * * * * * * * * * * * * * * * * * * * * * * * * * * * * * * * * * * * * //

dimensions      [0 2 -2 0 0 0 0];

internalField   nonuniform List<scalar> 
3948
(
1.16504
0.611086
0.373416
0.896271
0.925303
0.353122
0.905722
0.916091
0.304618
0.372313
0.320917
0.383917
0.603776
0.57959
0.687405
0.796661
0.745989
0.489768
0.779815
0.450083
0.469305
0.791981
0.318052
0.410112
0.455056
1.3331
0.442538
1.03005
0.332477
0.462469
0.559662
1.45136
0.973733
0.556725
1.42434
0.354887
0.682493
1.09107
0.738504
1.00552
0.779545
0.628662
1.11538
1.14175
0.403294
1.07567
1.02492
1.1553
1.44522
0.918508
0.452861
1.11427
0.747694
0.918471
0.70813
1.00503
0.369191
0.5659
0.967017
0.451187
0.707321
0.809722
0.370191
0.529814
0.522252
0.55565
0.691471
0.827343
0.434963
0.688279
1.15336
0.606897
0.884381
0.388222
0.351457
0.416279
0.316114
0.470113
0.888293
0.475459
0.618446
0.62677
0.650202
0.4677
0.644152
0.63003
0.728234
0.613161
0.956015
0.347361
1.28919
0.411287
0.578757
0.49898
0.416129
0.567585
0.736805
0.695967
0.399425
0.374272
0.330748
0.492352
0.536641
0.413286
0.440003
0.476677
0.416385
0.576893
0.991009
1.1869
1.08998
1.07533
0.324975
0.506754
1.95987
0.474619
0.488669
0.718454
1.25199
0.594592
1.31346
0.358148
0.8332
0.910308
0.478398
0.351829
0.700735
0.687946
0.92083
0.724175
0.473584
0.334857
0.576389
0.662611
0.439196
0.947292
0.46313
0.551133
0.673661
0.322957
0.653132
0.456114
0.401322
0.393842
0.570696
0.431179
0.502283
0.42976
1.0838
0.312791
0.333195
0.350821
0.397926
0.569693
0.390499
0.363074
0.356248
0.512587
0.627169
0.563274
0.411532
0.593633
0.33462
0.395435
0.357351
0.441035
0.99743
0.716034
0.812722
1.21162
1.56956
0.360951
0.347954
1.24888
0.898963
0.363907
0.462596
0.820894
0.396557
0.382368
0.566865
0.865206
1.33879
0.981272
0.359821
0.932466
0.64946
0.417918
0.516599
0.368792
0.504196
0.472323
0.333725
0.667818
0.455861
0.392689
0.33831
0.705301
0.392275
0.429806
0.399195
0.351928
0.828754
0.379865
0.582334
0.607998
0.615542
1.63954
0.563034
0.549917
0.373611
1.24849
0.38908
0.456758
0.366773
0.878553
0.578454
0.967488
0.855467
0.31654
0.705524
0.564122
0.628299
0.450207
0.45786
0.392799
0.318636
0.58819
0.392105
1.05032
0.688669
0.86291
0.625217
0.583999
1.00719
0.901649
0.465251
0.907204
0.442849
0.640624
0.491391
1.10441
0.338816
0.648933
0.821458
0.319646
0.320412
0.621913
0.450914
0.354617
0.402439
0.413119
0.383699
0.555194
0.755245
0.638707
0.714047
0.972681
0.467362
0.348255
0.490989
0.829111
0.689914
0.655199
0.755058
0.560483
0.605458
0.540046
0.700761
0.876479
0.443491
0.441755
0.379859
0.713107
1.17024
0.740419
0.542827
1.05316
0.561764
1.01829
0.467527
0.529048
1.3573
1.00361
0.601163
0.387451
0.499836
0.530642
0.884603
0.619432
0.83914
0.572328
0.512149
0.550224
1.32199
0.53074
0.615229
0.821075
0.575984
1.08125
0.787868
0.639266
0.444336
0.59644
0.922214
0.346824
0.33724
0.52925
0.768901
0.528515
0.355148
0.504583
0.551738
1.06196
0.394163
0.322412
0.81815
1.23485
1.14282
0.832942
0.842236
0.550198
0.57271
0.977236
0.447257
0.428162
0.423707
0.330118
0.532477
0.389627
0.697643
0.78745
1.02721
0.588506
1.08568
0.40456
0.717489
0.478268
1.08972
0.875009
0.872475
0.853505
1.15971
0.928061
0.649341
0.77676
2.54705
0.852109
0.654725
0.886095
0.487142
0.610416
1.2239
0.697975
0.608369
0.449391
0.37376
0.345013
0.330243
0.457556
0.638428
0.421594
0.752795
0.627454
0.560233
0.674965
0.337818
0.352367
0.338265
0.33715
0.32949
0.508509
0.535758
0.629152
0.674906
0.788351
0.772728
0.763691
0.459397
0.331856
0.601851
0.510687
0.47371
0.571629
0.630163
0.659032
0.634699
0.722225
0.575717
0.548473
0.538817
0.490712
0.531738
0.519857
0.394538
0.396133
0.39241
0.384831
0.37842
1.44048
0.406154
0.383778
0.386876
0.416153
0.393541
0.40994
0.813792
0.465754
0.578762
0.499585
0.391508
0.385515
0.468332
0.403807
0.47075
0.425778
0.321531
0.320619
0.360033
0.37138
0.350419
0.345213
0.984268
1.53056
0.763655
0.687848
0.366865
0.90809
0.361156
0.532695
1.21048
1.23302
0.741769
0.546618
0.66683
0.815145
1.01214
1.16143
1.09136
0.740868
0.461007
0.494249
0.596497
0.586672
0.666756
0.487359
0.813763
0.498159
1.09897
0.495799
0.959863
0.555588
0.572398
0.341132
0.67614
0.408283
0.453589
0.409194
0.468882
0.451113
0.551377
0.465535
0.440285
0.608379
0.341891
0.625817
0.626409
0.490246
0.53243
1.32113
0.672288
1.13319
0.696902
0.567825
0.504314
0.511806
0.51811
0.403012
0.423546
0.60786
0.529148
0.601378
0.314138
0.384487
0.374113
0.371805
0.393449
0.512504
0.51423
0.491986
0.674193
0.611375
0.56931
0.580336
0.475424
0.769542
0.801692
0.85923
0.601334
0.826234
0.929329
0.469822
0.523752
1.20102
0.50455
0.396209
0.417841
0.759983
0.461157
0.49055
0.380178
0.430371
0.430682
1.04323
0.561286
1.02065
0.548192
0.334744
0.854955
0.71161
0.710197
0.894054
0.878536
0.480509
0.8483
1.03214
0.831104
0.529156
0.48481
0.461289
0.523394
0.928209
0.355825
0.381025
0.370126
0.333766
0.571474
1.1154
0.313158
0.383805
0.394427
0.339183
0.630817
0.736718
1.03856
0.905276
1.44278
0.332842
0.334383
0.33174
0.340568
1.00561
0.325127
0.341587
0.398581
0.557564
0.550554
0.52636
0.55829
0.460024
0.436961
0.508391
1.19912
0.543439
1.18786
0.33226
1.2051
0.629586
1.22446
1.06877
1.11638
0.371005
0.36242
0.423717
0.3219
0.425654
0.377126
0.380664
0.370962
0.920745
0.907292
0.383021
0.850523
1.0449
0.848148
0.716666
0.738227
0.675169
0.374995
0.361957
0.374419
0.398407
0.87103
0.428914
0.902079
0.626227
0.723367
0.319391
0.576897
0.672213
0.657376
0.606202
0.501599
0.525968
0.392405
0.380131
0.350692
0.342988
0.440416
0.737041
0.738969
0.757736
0.894411
0.345557
0.361253
0.417663
0.350839
0.336374
0.559712
0.378237
0.459305
0.470682
0.463869
0.319739
0.502563
0.605902
0.472521
0.537531
0.529942
0.363969
0.526065
0.424567
0.324274
0.565536
0.319783
0.360457
0.401522
0.470587
0.319369
0.410074
0.577173
0.431711
0.341963
0.554644
0.802558
0.356407
0.508095
0.498378
0.55374
0.482843
0.49313
0.575058
0.599862
0.536451
0.471608
0.341714
0.323522
0.324607
0.327621
1.37638
0.85177
0.854984
0.720118
0.484374
0.585584
0.990434
0.548958
0.385311
0.487602
0.350284
0.318127
0.33005
0.36052
0.41794
0.441806
0.415088
1.0697
0.651771
0.573478
0.459502
0.435991
0.47068
0.366053
1.05
0.821367
1.31318
1.28657
0.560567
0.396626
0.794971
0.394244
0.951213
0.640305
0.839694
0.387794
0.550744
0.764408
0.579968
0.984907
0.939325
0.334912
0.345176
0.837519
0.975813
0.520959
0.410993
0.630943
0.557119
0.413957
0.503615
0.801316
0.481622
0.57363
0.491878
1.02519
1.09416
0.322123
0.329896
0.371689
0.92453
0.357215
0.699412
0.342473
0.348946
0.343942
0.747191
0.502302
0.39742
0.783272
0.738801
0.674959
0.469006
0.690204
0.656192
1.56736
0.453308
0.55266
0.698304
1.09618
1.07358
0.734218
0.701535
0.539676
1.13938
0.74951
0.970485
0.851229
1.07923
0.393449
0.528503
0.73522
0.414613
1.28349
0.699791
0.530241
0.800222
0.583199
0.312036
0.625282
0.32645
0.355202
1.1903
0.469324
0.421135
1.12382
0.845102
0.639607
0.38667
0.362949
0.389179
0.367295
0.347748
0.789058
0.355
0.844249
0.924652
1.07654
0.390245
1.00907
0.413262
0.310188
0.331532
0.337546
0.410195
0.589953
1.02626
0.420401
0.653214
0.443785
0.36989
0.327172
0.936064
0.877433
0.534316
0.899429
1.06874
0.459328
1.21375
0.585173
1.28996
0.475386
0.460393
0.342395
0.370815
1.04381
0.959437
0.359921
0.676654
0.795158
0.616575
0.505825
0.479418
1.06133
0.699698
1.33824
0.413748
0.485776
0.72657
0.956123
0.826241
0.683103
0.975146
0.88467
0.563273
0.757969
0.746226
0.809153
0.773672
0.670729
0.774586
0.907344
0.904848
0.369855
0.924806
0.458732
0.702062
1.87111
0.341789
0.638192
0.386738
0.387578
0.651557
0.860213
0.765154
0.854899
0.670865
0.396946
0.446021
0.731194
0.447214
0.453629
0.482859
0.459728
0.518986
0.463946
0.506899
0.674782
0.555769
0.517188
0.383236
0.735902
0.461312
0.384527
0.80468
0.874772
0.341141
0.679158
0.670953
1.04681
0.977013
0.403266
0.484526
0.992119
0.538204
0.766937
0.340188
0.312481
1.05661
1.91404
0.780944
0.788952
1.0444
0.857067
0.918666
1.52291
0.396923
1.20474
1.01455
0.873276
0.747491
0.368746
0.713403
0.512717
0.993425
0.903558
0.91086
0.750125
0.377414
0.424605
0.435644
0.831309
0.868285
1.10202
0.64488
0.634381
0.815743
0.638449
0.718086
0.372345
0.531639
0.381298
0.490073
0.344258
0.41732
0.334809
0.377138
0.737611
0.515816
1.1152
0.644357
0.690229
0.480156
0.384838
0.499348
0.695509
0.390525
0.310186
0.751712
0.743158
0.442676
0.390001
0.482344
0.863478
1.07078
0.739088
0.4443
0.883572
0.353785
0.326657
0.415422
0.793705
1.017
0.604639
0.45217
0.400005
0.677571
0.692011
0.490557
0.424866
0.532674
0.449385
0.391408
0.670445
0.710256
0.589393
1.10724
0.999909
0.500198
0.612811
0.671584
0.830844
0.619618
0.475912
0.426333
0.416023
0.553687
0.562187
0.787422
0.997884
0.372085
0.453564
0.60574
0.49394
0.483982
0.902621
0.384983
0.582367
0.32549
0.438894
0.350797
0.390073
0.383322
0.491298
0.451867
0.393329
0.452174
0.355628
0.724344
0.68158
0.572806
0.652136
0.929393
0.742129
0.579664
0.702648
0.37075
1.05041
0.611669
0.624212
1.42119
0.864844
0.407748
0.417569
0.360825
0.584149
0.435767
0.48003
0.381815
0.361109
0.511312
1.03408
0.97008
0.342083
0.389494
0.573465
0.695455
0.365096
0.340707
0.475898
0.398825
1.42982
0.461416
1.12032
0.856514
0.40784
0.314508
0.588611
0.474766
0.442599
0.377255
0.583605
0.697333
0.486141
0.502815
1.52257
0.386159
0.934912
0.319554
0.309188
0.515658
0.655864
0.323132
0.841548
0.582566
0.519728
0.687311
0.68121
0.812529
0.831905
0.641292
0.523798
0.548488
0.841976
0.909248
0.745784
1.01927
0.845871
0.40307
0.445375
0.739557
0.601693
0.524149
0.43768
0.609402
0.579367
0.552387
0.677321
1.17221
0.922974
0.744736
0.441305
0.799596
0.544733
0.992677
0.938818
0.623301
0.640142
0.64978
0.768931
0.720129
0.436069
0.394777
0.384103
1.14786
1.43967
0.940242
0.767474
0.818685
0.767001
0.827408
1.14929
0.404479
0.611688
0.448345
0.512896
0.579573
0.680815
1.19676
0.77889
0.673875
0.534079
0.841771
0.639767
0.45771
0.820103
0.482921
0.395111
0.425853
0.53253
0.347646
0.385042
0.345218
0.733629
0.55619
0.760767
0.509342
0.890271
0.631277
0.82563
0.455872
0.451887
0.440496
0.342358
0.942071
0.884952
0.800026
0.428837
1.37236
0.635099
0.93294
0.858806
0.4373
0.417142
0.773051
0.869059
1.8343
0.660254
0.63348
0.332413
0.723694
0.836211
0.93137
0.889569
0.624739
1.67329
0.337721
0.378953
0.379351
1.21503
0.97704
0.760482
1.32541
1.02212
0.468972
1.12793
0.400338
0.943799
0.923311
1.0264
0.97704
0.665965
0.600143
0.78056
0.359599
1.1967
0.419886
0.443748
0.647263
0.995023
0.84953
0.682366
0.629288
0.757897
0.514993
1.15938
1.44814
0.69485
0.934541
0.926901
0.673947
0.924196
0.898432
0.903137
0.4124
1.23935
0.384216
0.350132
0.901145
0.556935
0.636335
0.615381
0.619405
0.622027
0.77315
0.985475
1.00842
1.14187
0.689633
0.955036
0.977789
0.724822
0.787252
0.667825
1.07671
0.729142
1.36205
0.643098
0.621897
0.686457
0.71437
0.793284
0.396227
0.612259
0.994151
0.474039
0.405041
0.693526
0.983541
0.492856
0.436312
0.687035
0.815756
0.679926
0.411002
0.650681
0.685628
1.03655
0.795198
0.764884
0.547855
0.580284
0.645419
0.669998
0.477964
0.718693
0.996277
0.733201
0.968732
0.475073
0.327523
0.384797
0.49718
0.572205
0.571321
0.588313
0.502008
0.496066
0.681205
0.532043
0.383287
0.881283
0.964201
0.74359
1.15164
1.22943
0.493994
0.953503
0.654315
0.760325
1.41345
1.00123
1.0609
0.721223
0.925366
0.534617
0.532759
0.8096
1.36733
0.711576
1.07737
1.02982
1.11885
0.705605
0.524225
0.775256
0.966747
0.512
0.793516
0.735017
0.588181
0.536329
0.393676
0.932199
0.815968
0.545413
0.922196
0.389379
0.796413
0.766502
0.562795
0.717267
0.68594
0.479416
0.394989
0.379192
0.342148
0.405239
0.467997
0.450481
0.31199
0.401557
0.358427
1.35775
0.431316
0.379223
0.347867
0.348447
0.856289
0.336625
0.331232
0.911231
0.341011
1.05326
1.04997
0.485527
0.588865
0.717615
0.711827
0.575871
0.703056
1.04705
0.685368
0.881611
0.825439
1.02647
0.648031
0.73925
0.682249
1.12651
1.19129
0.348753
0.672964
1.14702
0.486477
0.894665
0.844732
0.494686
1.11714
0.611676
1.19915
0.732023
0.823297
0.815209
0.410173
0.363046
1.31892
0.941827
1.06391
0.738917
0.956829
1.76836
0.385789
0.919974
0.585323
0.898846
0.41503
0.653252
0.40844
1.05605
0.371543
0.527354
0.69821
0.463673
0.604528
0.37048
0.372194
0.320836
0.519061
0.381841
0.380865
0.693187
0.365218
0.650009
0.713812
0.353348
0.627226
0.654388
0.401073
0.886767
0.541048
0.392881
0.953931
0.533999
0.596181
0.460449
1.00066
0.371987
0.90484
0.429366
0.919946
0.891995
0.918997
0.481933
0.35463
0.528938
0.543652
0.826437
0.55231
0.418415
0.559536
0.881463
0.784773
0.75036
0.826804
0.319807
0.354006
0.426697
1.55224
0.438331
0.740865
0.388486
0.537707
1.38471
1.00173
0.951631
1.2776
0.850786
1.01678
0.69017
1.17933
0.974622
1.38143
1.62555
0.920144
0.463907
0.416525
1.23272
0.345907
0.315806
0.800724
0.542861
0.323666
0.402448
0.991829
0.753642
0.324802
1.12445
0.376232
0.721383
0.318138
0.433235
0.695213
1.00756
0.65537
2.59876
1.35452
1.28766
1.30387
0.349549
0.714414
0.332675
0.751098
0.366328
0.963335
0.342917
0.397836
0.364693
0.778718
0.60012
0.344154
0.358466
1.84509
0.340912
0.315291
0.357462
0.333053
0.775536
0.94536
0.424027
0.384722
0.549304
0.426526
1.14625
0.485223
0.315381
0.654849
0.371436
0.729531
0.718872
0.821571
0.335097
0.733709
0.327432
0.394259
0.341831
0.368761
0.376765
0.424516
0.601799
0.343448
0.409798
0.398999
0.566476
0.475595
0.643062
0.994889
0.374363
1.3356
0.378598
0.90662
0.458869
0.323734
0.460916
0.455575
0.339136
0.501
0.377215
0.414781
0.500971
0.356025
0.437474
0.361774
0.320056
0.322592
0.409554
0.456398
0.313059
0.312106
0.370605
0.329695
0.43534
0.547722
0.818094
0.684521
0.90678
0.847848
1.11369
1.03392
1.00965
1.09218
0.92188
0.539204
0.705735
0.440413
0.377417
0.77373
0.502338
0.422544
0.453798
0.476515
0.549319
0.47108
0.41358
0.312984
0.652036
0.797146
1.30934
0.510001
0.540897
0.354087
0.397202
0.953159
0.687174
0.519025
0.559252
0.71114
0.744715
1.17014
0.722094
0.63988
0.695998
0.342075
0.448968
0.325996
0.341131
0.645511
0.766839
0.902069
0.839388
0.85722
0.700019
0.583839
0.428064
0.770148
0.636562
1.11503
0.84346
0.867624
1.43767
0.827576
0.909404
0.839591
0.747207
1.08478
0.859213
0.474519
0.437291
0.409269
0.352047
1.51304
0.408342
0.423265
0.398057
0.487261
0.617326
0.453493
0.827501
0.560359
0.853436
0.622749
0.48407
0.517211
0.780026
0.870669
1.14835
0.359578
1.08753
0.59443
0.727921
0.867068
0.693119
0.534815
0.460368
0.360233
0.497047
0.908379
0.97259
0.598898
0.475229
0.926482
0.369922
0.486737
0.734619
0.786335
1.3229
1.07374
0.659146
0.571843
0.872777
0.648308
0.49859
0.595438
0.763817
0.685396
0.937552
0.837253
1.0525
1.04261
0.584749
0.842274
0.847815
0.648777
0.624162
1.00691
0.687587
0.619446
0.671964
1.48029
1.5158
1.12518
0.414172
0.347868
0.355794
0.351985
0.330786
0.930312
0.682405
0.53002
0.949923
0.490376
1.12176
0.489373
0.805481
0.340085
0.963961
0.8208
0.640876
0.326171
0.483937
1.11109
0.382393
0.491884
0.712462
0.987332
0.601337
0.323806
0.5017
0.646154
0.538402
1.31639
0.403939
0.45117
0.891774
0.3399
0.334587
0.313175
0.337353
0.339296
0.438772
0.338561
0.347458
0.564718
0.582174
0.398639
0.426356
0.53383
1.26662
0.37084
0.375425
0.560733
2.25493
2.15301
2.08713
0.476004
0.451676
0.512804
0.44287
0.421899
0.63036
0.354809
0.716647
0.656073
0.633245
0.541106
0.452201
0.605007
0.606585
0.909489
0.661877
0.489341
1.47047
0.599784
0.600246
0.449323
0.719089
1.07859
0.994073
1.64541
1.62335
0.619132
0.44711
1.46319
1.23129
0.767278
0.605325
0.702432
0.671679
0.540878
0.451431
0.671783
0.526796
0.439857
0.40576
0.474079
0.564705
0.629007
0.769502
0.495551
0.441538
0.487422
0.507099
0.847862
0.579062
0.83214
0.60604
1.03907
0.78752
0.426561
0.809688
0.7572
0.850796
0.698343
0.587551
0.62721
0.940251
0.986742
0.948993
1.05358
1.04106
1.08009
0.937915
0.935684
1.04341
1.07335
1.1424
0.410369
0.3267
0.58664
0.677965
0.561059
0.777858
0.877789
0.52854
0.926716
0.88568
1.07283
0.712599
0.989021
0.777672
0.322462
0.766636
0.610779
0.717914
0.767063
0.597103
0.600509
0.858665
0.628284
0.396272
0.496432
0.499055
0.552551
0.422471
0.372117
0.379293
0.54761
0.503744
0.448469
0.739341
0.707079
0.570156
0.45606
0.523312
0.68914
0.489565
0.46327
0.454095
0.447737
0.810916
0.769131
0.402008
0.797725
0.845363
0.886203
1.06971
0.902092
1.06763
0.627408
0.909486
0.39336
0.971295
0.385895
0.902552
0.469129
0.678823
0.722208
1.69715
0.894336
0.956266
0.551689
0.884204
1.03711
0.830643
0.533361
0.349728
0.441726
0.844554
0.389816
0.398044
0.383559
0.86292
0.57246
0.389155
0.522183
0.830542
0.800494
0.865206
0.950557
0.891595
0.643363
0.468647
0.476828
0.590951
0.381366
1.03608
0.532576
0.619949
0.912328
0.822546
0.672356
0.651749
0.840391
0.668857
1.2797
0.848305
0.541678
0.528673
0.470167
0.902871
0.985753
0.585036
0.666411
0.514544
0.516989
0.348385
0.596652
0.407563
0.744073
0.482859
0.517795
0.669445
0.585337
0.753708
0.483367
0.52307
0.315898
0.344307
0.356683
0.354883
0.337845
0.593514
0.316235
0.360016
0.366038
0.3876
0.552614
0.528844
0.584777
0.869194
0.698145
0.72924
0.84472
0.736913
0.727118
0.739001
0.800677
0.852446
0.73975
0.636935
0.474345
0.625497
0.810386
1.50475
0.470287
0.793032
0.725019
0.863437
0.816727
0.75835
0.632433
0.564848
0.456948
0.491265
0.51943
0.519611
0.664986
0.822505
0.888061
0.745538
0.509041
1.07714
0.383919
0.469393
0.502141
0.414242
0.501623
0.419569
0.415879
0.355569
0.656167
0.611261
0.604645
0.766594
0.393486
0.593222
0.909369
0.791696
1.04752
0.831696
0.308762
0.878551
0.626484
0.407123
0.408458
0.523988
0.524484
0.483778
0.333332
0.538067
0.773769
0.339312
0.351384
0.549003
0.340378
0.409152
0.781569
0.367593
0.605652
0.428969
0.310138
0.80485
1.42229
0.373501
0.576905
0.622867
0.519312
0.430214
0.973254
0.997944
0.576054
0.875025
1.05401
1.06327
0.558439
0.625836
0.491774
0.424313
0.758499
0.522128
0.617317
0.505499
0.629255
1.31685
0.749214
0.421505
0.395438
0.567065
0.521379
0.840546
0.897762
0.84922
0.839392
0.864339
0.365863
0.409534
0.371113
0.354426
0.356398
0.353653
0.69101
0.899583
0.879501
0.994438
1.10985
0.880271
1.48332
1.14418
1.02509
1.00328
0.563483
0.69677
0.644277
0.958637
0.994179
0.94427
1.3019
1.1599
1.10891
0.922638
0.849981
0.998812
0.869934
0.809341
1.03568
1.04593
0.67271
1.04959
0.980743
1.2993
1.06725
1.49628
1.34583
0.664175
0.408901
0.726072
0.820367
0.826627
0.881827
0.382502
0.412441
0.374232
0.796757
0.415514
0.823334
0.84777
0.857707
0.388066
0.864977
0.874073
0.713627
0.901876
1.42201
0.721074
0.747795
0.564382
0.538836
0.746023
0.517243
0.324656
0.549051
0.751011
0.456301
0.508665
0.693634
0.538015
1.14959
1.12079
0.331468
1.13695
1.05299
0.925694
0.366089
0.321509
0.453826
0.478682
0.37963
0.382551
0.493448
0.378903
0.73455
0.343033
0.493953
0.381863
0.333529
0.460868
0.355872
0.339148
0.345371
0.326176
0.384717
0.409999
0.437926
0.328888
0.781177
0.461347
0.317351
0.354584
0.526641
0.331451
0.625647
0.450441
0.60346
0.506567
0.31318
0.79033
0.859813
0.330145
1.07101
0.66807
1.17631
0.444785
0.415012
0.452817
0.450729
0.525877
0.722492
0.567514
0.361687
0.818837
0.992269
1.29629
0.505624
0.322951
0.645646
0.797478
0.551778
1.11164
0.749097
0.84444
0.860783
0.890952
0.822051
1.636
0.480756
0.580998
0.600798
0.427461
0.404041
0.385546
0.499068
0.33189
0.322619
0.386877
0.376407
1.08372
0.788785
0.656154
0.841702
0.559076
0.545655
0.319553
0.362229
0.343116
0.745396
1.37553
1.07236
0.358412
0.383766
0.347604
1.05263
0.718483
0.543825
0.875728
0.955442
0.891352
1.22289
0.684181
0.586018
0.40474
0.806193
0.617957
0.384097
0.553503
0.620073
0.593926
0.635857
1.11507
0.716396
1.03466
0.695861
0.339064
0.384181
0.386111
0.362389
0.561416
0.327256
0.824892
0.449237
0.419045
0.44052
0.384252
0.519625
0.746221
0.577615
0.650063
0.746289
0.62428
0.635298
0.703433
0.319875
0.439935
0.345203
0.353794
0.81482
0.380628
0.428439
0.710838
0.512664
0.719005
0.772838
0.667402
0.707696
0.642321
0.479167
0.657326
0.312641
0.750033
0.317113
0.418123
0.747534
0.502601
1.11302
0.462937
0.739716
0.724002
0.706019
0.753061
1.51979
0.597024
0.719054
0.638006
0.665136
0.830008
0.591536
0.605352
0.452399
0.459795
0.76631
0.661831
0.7029
0.485814
0.648965
0.491283
0.486084
0.636188
0.43602
0.437615
0.673165
0.702264
0.329204
0.940342
0.466715
0.601226
0.348916
0.467341
0.519281
0.491172
0.617703
0.461826
0.447605
0.655283
0.455734
0.556977
0.432439
0.439792
0.559536
0.670496
0.84521
0.379969
0.369078
0.459219
0.395428
0.388004
0.472487
0.419554
0.544045
0.501172
0.561681
0.607613
0.558824
0.694054
0.701194
0.600889
1.22803
0.640597
0.619808
0.329102
0.359294
0.394028
0.346573
0.421057
0.312925
0.354865
0.344071
0.416574
0.411055
0.317289
0.47862
0.321658
0.397721
0.366291
0.318059
0.363778
0.361641
0.356589
0.333582
0.386086
0.323293
0.578704
0.359873
0.590349
0.688597
0.908014
0.661571
0.635391
0.691579
0.654624
0.891011
0.716458
0.692774
0.744009
1.81169
0.474608
0.512327
0.542343
0.485827
0.662118
0.593433
0.601156
0.711262
0.52386
0.583608
0.520539
0.345433
0.387616
0.381783
0.62765
0.433611
0.599334
0.458913
1.90222
0.463413
0.358366
0.693569
0.332825
0.469758
0.7686
0.377925
0.386922
0.578156
0.780888
0.433061
0.41697
0.361285
0.325415
0.375794
0.383967
0.376641
0.736949
0.329443
0.318728
0.559506
0.692492
0.558499
0.532549
0.968682
0.926726
0.974834
0.698758
0.940453
0.453851
0.385038
0.385662
0.366647
0.42019
0.482928
0.392264
0.829817
0.83031
0.58933
0.532983
0.501105
0.478013
0.608332
0.489582
0.50853
0.814334
0.819016
0.590749
0.325944
0.333938
0.645545
0.571099
0.570103
0.686644
0.645009
0.324258
0.334469
0.486352
0.647964
0.640154
0.640052
0.549336
0.413148
0.381033
1.19293
1.18582
1.07932
0.968752
1.03895
0.725508
0.543412
0.539146
0.478863
0.693257
0.734573
0.78979
0.780592
0.782023
0.815364
1.4801
0.505386
0.525356
0.569727
0.675223
0.824278
0.696838
0.747442
0.585096
0.733356
0.507489
0.504568
0.615705
0.568366
0.405731
0.732417
0.756922
0.94739
0.800797
0.833279
0.635568
0.337925
0.769279
0.394978
0.463934
0.321971
0.320343
0.336448
0.323712
0.688433
0.375483
0.460082
0.76354
0.492828
0.605488
0.614836
0.69758
0.495977
0.552407
0.719547
0.533496
0.608705
0.646116
0.763303
0.670627
0.643161
1.09745
1.05505
1.04056
1.03107
0.737616
1.01012
0.729796
0.730235
0.932151
0.748193
1.10518
0.90893
0.969345
0.558581
0.532656
1.18276
0.895196
0.707386
0.933547
1.13308
0.871999
0.829115
0.745808
0.710979
0.478754
0.528366
0.939009
0.908418
0.74283
0.977733
0.953312
0.831467
0.522176
0.390572
0.612798
1.1267
0.902625
0.62941
0.688284
0.746645
0.502063
0.477388
0.532672
0.43713
0.596086
0.507569
0.599016
1.20016
0.356368
1.02722
1.01806
0.41796
0.613239
0.541384
0.348135
0.457695
0.457394
0.694209
0.853551
0.686445
0.692956
0.466033
0.333422
0.901951
0.324747
0.327537
0.365697
0.476724
0.543406
0.76045
1.04307
0.678614
0.494169
0.675471
0.379585
0.353859
0.372697
0.406816
0.462935
0.676194
0.638065
0.687019
0.695054
0.7278
0.632506
0.536017
0.415133
0.754593
0.403825
0.384918
0.435321
0.431029
0.411318
0.449065
0.444949
0.435438
0.540934
0.408889
0.659188
0.845023
0.379627
0.449308
0.418616
0.450455
0.72232
0.692565
0.591916
0.554737
0.648139
0.412576
0.913618
0.4266
0.808907
0.408295
0.892502
0.502089
0.548114
0.45926
0.441779
0.450721
0.759962
0.407092
0.383723
0.456652
0.369197
0.388397
0.387152
0.373174
1.84298
0.460283
0.34227
0.816531
0.693317
0.791496
0.338522
0.665022
0.386031
0.361007
0.335541
0.620731
0.446153
0.399501
0.345523
0.353976
0.653533
0.542803
0.658647
0.607891
0.892223
0.538652
0.588315
0.900887
0.40718
0.602555
0.752155
0.626569
0.620187
0.718699
0.382011
0.501589
1.45609
0.613376
0.745943
0.928286
0.499993
0.622092
1.07391
1.16137
0.883314
0.650886
0.98808
0.928694
0.604676
0.376237
0.523984
0.425234
0.492183
0.848603
0.808931
0.593928
0.923034
0.856057
0.800939
0.993313
1.30613
0.901624
0.816212
0.927126
1.02355
1.06945
1.36042
0.858096
0.631833
0.604459
0.721243
0.908348
1.05037
0.776264
0.393097
0.396651
0.541476
0.51795
0.900007
0.78685
0.608145
0.750309
0.435733
0.414136
0.632538
0.467126
0.85444
0.873757
0.72388
0.738874
0.65504
0.839655
0.675349
0.836235
0.62712
0.719695
0.729576
0.729707
0.624617
0.686159
0.691271
0.533668
0.897253
0.504508
0.577635
1.05419
1.63193
0.706402
0.711486
0.617761
0.990318
0.925268
0.844835
0.81036
0.589569
0.601378
0.707621
0.739673
0.517841
0.434994
0.359483
0.484007
0.452466
0.538939
0.497031
0.501851
0.327796
0.339269
0.374445
0.313716
0.939445
0.486782
0.654087
0.655456
0.897884
0.697083
0.682168
0.68412
0.787287
0.634668
0.884934
0.713837
0.666977
0.719464
0.724693
0.897368
0.743835
1.15179
0.726454
0.859004
0.698194
0.610067
0.407231
0.526509
0.547511
0.590834
0.429896
0.412214
0.451616
0.409195
1.07769
1.78571
0.710685
1.08147
1.01567
0.660735
0.426438
0.415606
0.384744
0.319443
0.411118
0.351101
0.47513
0.382285
0.43884
0.81828
0.492646
0.392347
0.38314
0.395032
0.711496
0.457167
0.710062
0.731932
0.35134
0.627725
1.13192
0.973955
1.05878
0.998482
1.10228
0.963949
0.375372
0.366534
0.372096
0.39263
0.346461
0.359356
0.554901
0.900518
2.28697
1.10982
1.10276
1.63232
1.15365
0.829564
0.591878
0.344415
0.869312
0.362176
0.760629
0.807912
0.920471
0.411182
0.420631
0.50283
0.417874
0.458351
0.909912
0.657184
1.02681
0.359146
0.348728
0.353192
0.406186
1.20828
0.388841
0.436598
0.375325
0.376682
0.368188
0.523142
0.604738
0.477836
1.09019
1.07126
0.529784
0.421979
0.382909
0.496096
0.664
1.20406
0.752368
0.539328
0.422778
0.470543
0.472946
0.412398
0.379898
0.379484
0.472221
0.388187
0.39177
0.419345
0.550618
0.516954
0.595628
0.495439
0.669813
0.426793
0.436994
0.313933
0.369677
0.360795
0.896531
0.345506
0.764008
0.436282
0.51153
0.833897
0.401577
0.374066
0.346613
0.456835
0.425909
0.951271
0.908215
0.496832
0.920988
0.835166
0.445489
0.40299
0.910399
0.816904
0.855188
0.414537
0.54748
0.601307
0.62975
0.465009
0.509275
0.588077
0.421278
0.42378
0.570927
0.933784
0.724428
0.777519
0.8203
0.367571
0.719187
0.52642
0.409488
0.344767
0.573504
0.321989
0.375923
1.74007
1.11079
0.410417
0.321084
0.386908
0.303588
0.430286
0.70655
0.379239
0.607468
1.03806
0.919406
0.771568
0.743931
0.580817
0.514645
0.482124
0.729383
0.318391
0.909039
0.867604
0.734973
0.497004
0.443611
0.459109
0.614026
0.680695
0.623563
0.422851
0.554563
0.734267
1.87238
0.879257
0.529829
0.759243
1.48338
1.19149
0.97738
0.930147
0.625964
0.730413
0.502149
0.715925
0.725252
0.454579
0.455417
0.490809
0.387661
0.858717
0.699484
0.555566
0.601307
1.06214
0.672488
0.663395
0.778961
0.987666
0.735115
0.503366
0.587294
0.330963
0.506573
0.63819
0.656824
0.780984
0.571415
0.565097
0.704278
0.712179
0.782038
0.724669
0.720601
0.51652
0.5584
0.784194
0.707857
1.16688
0.804535
0.661793
0.757795
0.8382
0.842142
0.654112
0.826212
0.683578
0.508206
0.595002
0.489676
0.438915
0.784906
0.546729
0.399318
0.410988
0.456279
0.412299
0.506188
0.453562
0.771774
0.496621
0.826069
0.638732
0.749701
0.846038
0.412564
0.633963
0.438446
0.707853
0.637137
0.65163
0.548216
0.362013
0.329571
0.372241
0.368341
0.32032
0.313918
0.334825
0.383191
0.496257
0.377341
0.36393
0.345556
0.343693
0.382449
0.444402
0.565338
0.608123
0.672397
0.499547
0.727653
0.587168
0.613968
0.575634
0.324958
0.366614
0.486303
0.313545
0.808107
0.567086
0.976077
0.791446
0.648657
1.05455
1.07073
0.423479
0.395031
0.532946
0.438123
0.769246
0.707187
0.33577
0.423978
0.425479
0.458302
0.450963
0.487307
0.503259
0.475285
0.555524
0.694805
0.762306
0.337398
1.05039
0.634515
0.738396
0.861128
0.738296
0.634449
0.983813
0.954953
0.339032
0.588453
1.06177
1.35558
1.07357
0.507216
0.832576
1.07739
1.05853
0.847428
0.689169
1.039
0.984321
1.13908
0.547054
0.939841
0.454041
0.559477
0.796092
1.09653
1.04776
0.636362
0.445942
0.439587
0.834232
0.416786
0.426111
0.394523
0.351999
0.347807
0.425475
0.467401
0.374032
0.348763
0.409662
0.459126
0.893973
0.835455
0.337044
0.357821
0.923196
1.04739
0.973568
0.599048
1.19134
0.55062
0.551491
0.377473
0.404215
0.401054
0.443339
0.392042
0.377196
0.320368
0.891148
0.952682
0.773447
1.1921
0.417027
0.447878
0.412051
0.616132
0.340758
0.378232
1.07647
1.11071
1.36243
1.31215
0.347956
1.22093
0.662721
1.07424
1.07747
0.470045
0.361758
0.456044
0.356569
1.06481
0.450293
0.434731
0.844984
0.610824
0.98052
1.05939
0.454714
0.451944
0.507237
0.43366
0.553161
0.558668
0.760001
0.992733
0.492964
0.444346
0.437531
0.441174
0.847951
0.90696
0.503108
1.36176
0.490679
1.06073
0.475766
0.610981
0.494748
0.467731
1.138
1.79122
0.52072
0.463195
0.452527
0.72638
0.578099
1.36957
1.01072
1.12315
0.774773
1.01837
1.07208
0.390901
0.906874
0.603847
0.99802
0.548249
0.515753
0.426853
0.904652
0.410584
0.628938
0.979583
1.24468
0.846801
0.533168
0.448031
0.757896
0.915169
0.806637
0.96225
0.579638
0.448822
0.641212
0.6703
0.364174
0.336448
0.329098
0.323675
0.347157
0.337524
0.35587
0.436154
0.518676
0.489351
0.70595
0.768176
0.705643
0.791526
1.15193
0.66511
0.719108
0.71658
0.822985
0.645816
0.841804
0.924989
0.888308
1.05395
0.919408
0.743151
0.578431
0.572864
0.869645
1.10373
1.77054
0.708369
0.749958
0.828048
0.615564
0.550829
0.499409
0.374778
1.05469
0.351575
0.623382
0.879148
0.765713
0.980528
1.35816
1.13157
0.682717
1.27451
0.632242
1.14395
1.203
0.333894
0.719258
0.462998
0.406093
0.409268
0.446712
0.366185
0.407614
0.357084
0.494203
0.967506
0.418625
0.970339
0.356337
0.360997
0.415239
1.12712
0.578502
1.0695
0.521883
0.669743
0.720004
0.622911
0.528846
0.911935
0.391005
0.513738
1.10595
0.697211
0.907388
1.18101
0.714826
0.713734
0.970171