/*--------------------------------*- C++ -*----------------------------------*\
| =========                 |                                                 |
| \\      /  F ield         | OpenFOAM: The Open Source CFD Toolbox           |
|  \\    /   O peration     | Version:  2506                                  |
|   \\  /    A nd           | Website:  www.openfoam.com                      |
|    \\/     M anipulation  |                                                 |
\*---------------------------------------------------------------------------*/
FoamFile
{
    version     2.0;
    format      ascii;
    arch        "LSB;label=32;scalar=64";
    class       volScalarField;
    location    "0.0100321";
    object      omega;
}
// * * * * * * * * * * * * * * * * * * * * * * * * * * * * * * * * * * * * * //

dimensions      [0 0 -1 0 0 0 0];

internalField   nonuniform List<scalar> 
3923
(
72.4568
64.6075
51.2074
1544.93
460.228
623.543
1496.89
643.528
581.696
643.588
1211.52
91.6487
71.199
158.728
109.924
54.3664
54.966
58.7847
57.5131
63.6399
97.6605
120.225
53.3937
105.42
109.512
115.423
96.8806
83.5758
88.9548
107.36
79.8055
82.4633
98.2307
591.951
595.997
887.944
396.159
409.115
520.333
174.793
1110.56
52.6478
868.341
868.049
546.122
565.714
53.0623
198.96
72.8622
678.764
744.308
363.655
209.301
90.9599
206.76
66.0727
73.3337
49.2705
241.504
136.712
100.224
542.474
55.7542
83.3522
53.6671
78.2935
80.848
632.377
133.538
290.514
49.6412
268.817
109.831
257.072
71.586
323.013
81.9003
568.273
1012.8
198.098
553.649
530.018
70.4598
166.909
803.866
781.564
87.9153
78.551
112.105
240.362
65.6217
1166.54
82.4005
346.134
56.3766
52.5596
130.511
105.34
75.0547
117.898
102.281
169.775
77.8771
76.9495
168.661
131.109
286.362
472.298
828.324
825.14
515.776
391.421
52.689
51.3302
551.74
465.499
413.063
213.069
745.909
507.473
59.9455
1238.78
120.643
60.1269
255.346
160.242
273.935
335.613
411.677
302.247
108.929
269.913
254.66
55.1945
55.9925
56.3576
90.0562
210.416
62.9637
80.7111
132.653
180.925
116.82
55.5063
64.7992
52.0507
770.064
544.496
73.9755
55.5182
55.5038
96.2837
150.38
71.1889
66.5438
293.157
93.4429
61.0691
132.933
1690.11
127.428
501.141
109.203
493.71
599.455
56.5128
63.2862
57.6478
61.4959
259.02
61.0931
52.3508
187.493
879.79
858.702
50.8976
57.654
742.688
115.524
53.5962
148.657
1121.26
51.0129
716.913
146.922
99.9694
53.6032
77.0878
58.7374
59.7709
357.938
96.8045
76.4995
109.032
88.2428
863.064
1369.87
688.39
213.342
444.637
489.073
131.901
243.2
154.402
71.8674
735.172
61.267
753.901
51.9181
388.501
314.057
78.6549
1075.83
111.821
447.989
533.419
54.1175
55.2981
325.871
355.985
420.832
169.892
600.557
711.809
433.457
61.1605
64.4471
103.116
120.636
79.2602
120.721
70.124
118.991
53.8084
71.5118
53.5865
70.4681
69.0339
76.5139
74.0008
70.202
67.0771
743.265
72.1179
422.015
490.782
1505.25
71.1194
72.1742
70.5866
464.197
103.076
69.2036
79.9186
81.7257
72.9279
315.763
1633.62
70.4094
78.9245
663.511
678.657
78.3315
82.0042
73.1041
74.328
315.095
160.288
95.2914
85.0516
72.9146
387.951
69.0729
69.7817
63.9976
63.3346
65.1715
64.7377
62.4117
66.0921
75.6615
84.1129
67.5541
62.0084
418.176
64.3481
70.8216
96.7151
63.5563
92.9072
109.634
75.8705
75.6813
80.7585
53.6575
729.566
562.089
521.962
567.246
718.371
487.225
384.249
464.302
588.543
562.96
759.788
1507.76
924.441
298.017
264.051
299.252
356.184
243.467
472.088
303.253
405.616
455.172
320.436
78.0573
73.0839
276.727
324.764
260.997
344.547
218.018
432.76
71.5682
427.683
1197.91
142.922
137.922
73.3176
266.872
71.4941
68.705
66.6259
63.3314
109.078
108.286
82.9913
90.9284
154.564
95.0562
179.545
170.843
91.9298
90.0006
76.2544
79.6575
98.7351
130.686
182.017
87.1864
62.8897
62.5278
61.697
123.231
61.8699
57.2162
60.3298
55.1708
52.8992
60.5508
59.6938
55.9318
56.7587
59.3631
54.8768
54.4728
52.4227
52.0935
253.176
168.231
221.223
1163.23
1160.04
987.987
145.823
119.414
132.884
187.862
155.58
128.08
55.8371
56.829
58.5909
57.4845
54.0056
53.8866
293.168
228.239
557.324
72.9854
134.225
93.6569
410.436
89.6793
466.485
918.044
59.7433
60.4803
63.2694
63.1437
58.6073
101.367
112.296
70.4915
79.004
86.2379
101.958
146.578
128.93
228.113
284.694
272.975
252.385
196.476
191.146
247.44
93.5596
87.2393
217.518
100.819
69.4574
115.499
66.9544
71.6811
68.6782
66.4745
765.52
64.909
531.35
64.9163
203.012
70.1849
726.96
919.49
781.968
182.918
116.556
380.845
52.2432
58.2256
335.91
53.0183
52.1469
87.6543
1080.14
55.9285
249.776
731.011
274.507
525.815
664.671
84.7679
56.0318
1192.2
60.4532
153.363
64.2533
270.5
111.395
183.167
60.4546
618.266
280.942
89.772
71.5137
132.579
937.097
64.1422
62.5549
351.128
60.9636
88.5776
1050.1
755.537
414.437
68.1866
92.0352
74.704
601.32
175.268
411.662
585.277
72.0555
53.8344
61.7806
67.6874
272.941
2947.29
1680.64
64.4731
1815.82
58.0102
59.6163
59.9183
830.189
93.1203
1313.92
62.2173
54.2911
59.1488
54.2367
63.8376
52.2451
311.812
64.0482
81.9571
86.9908
61.6311
738.553
96.1649
157.802
55.1722
1343
50.9386
52.9873
102.278
93.5852
535.721
68.8979
312.877
68.4199
67.5307
475.113
91.1915
375.422
1300.13
170.887
109.566
820.513
69.5564
220.598
145.299
664.08
392.439
59.0321
964.599
177.175
937.253
199.686
276.91
77.3184
66.5764
332.39
184.582
93.2822
106.242
879.866
327.645
127.858
197.095
1527.19
65.2847
440.174
164.033
78.3572
746.425
228.918
65.4701
1343.58
318.223
313.309
78.1231
133.949
597.478
612.61
73.2392
202.946
133.687
143.011
61.2745
103.145
236.162
549.212
118.769
80.3035
58.7647
62.7423
77.673
142.522
310.409
775.723
441.681
1064.84
653.007
929.554
279.501
63.406
92.0662
127.604
64.1794
60.8433
72.3072
1039.15
109.972
239.061
51.8943
363.657
274.383
53.5193
57.2046
126.196
244.13
97.4232
131.942
123.387
57.6252
192.289
60.8719
140.755
85.641
147.048
152.58
670.182
1212.07
598.629
763.953
593.333
159.937
514.831
872.456
296.21
110.087
1290.38
74.5027
126.491
764.109
993.134
553.168
53.3082
298.073
68.0897
66.4882
107.256
677.2
895.243
911.304
66.5127
459.52
243.054
79.3579
1250.05
69.6999
652.079
51.025
475.94
964.342
276.192
295.818
1245.35
1142.69
552.246
1136.17
444.01
235.679
582.053
1047.51
56.7776
153.918
264.188
567.962
359.502
167.211
183.895
207.803
781.235
132.535
52.0993
49.8072
54.3532
83.6139
56.1429
56.9698
54.049
50.981
403.942
396.933
64.0621
337.628
132.611
52.9245
51.3096
53.1127
53.4216
72.0669
462.949
53.2971
61.7267
67.0318
57.7903
50.0705
51.9798
68.7555
52.8276
1304.93
56.429
54.2254
50.0979
105.96
636.639
218.159
79.3867
908.147
167.387
744.376
739.075
1059.66
1341.28
1095.38
555.777
54.1389
226.128
416.913
658.9
789.264
915.597
897.736
814.01
813.155
746.59
1301.08
219.491
97.6815
1144.95
318.133
199.553
593.144
877.302
775.534
50.7505
54.3641
50.5915
77.7155
64.9874
86.9312
104.463
112.454
66.6406
50.6013
83.9789
50.6521
461.554
75.9368
57.1247
83.4471
337.932
52.2084
54.8842
81.2841
151.546
242.72
187.709
118.25
66.8457
67.4056
73.8631
68.4917
126.566
65.7445
267.027
1395.67
271.247
58.1125
88.8962
1003.22
884.841
609.384
227.748
59.8778
79.647
1015.27
632.56
987.633
933.516
685.189
603.612
78.759
763.053
75.7679
364.377
314.671
408.711
77.4526
76.7038
276.68
351.677
546.367
90.9809
69.9312
84.7418
1447.73
55.0318
53.143
297.043
113.865
186.097
99.3107
76.517
123.85
64.6163
64.295
1260.87
54.2678
53.0774
99.3894
56.1992
56.1497
57.2347
83.375
58.2035
103.065
865.565
980.937
81.269
60.8023
719.751
107.071
1288.95
67.785
64.3983
1046.97
386.006
895.794
71.8247
58.7567
60.9481
89.1285
65.6705
67.748
60.3945
78.8555
1114.15
469.354
103.35
323.09
107.218
125.435
425.659
158.792
75.6037
306.441
346.431
62.5307
107.816
55.3007
67.1561
362.142
58.668
107.632
57.3106
53.3741
53.8035
70.6648
71.3831
66.0193
671.838
77.6986
89.309
101.61
84.4469
51.1627
109.329
858.949
939.535
135.907
78.4205
78.3909
56.2356
67.6369
68.6729
232.76
54.355
57.0636
800.064
337.547
1066.54
1165.84
521.159
286.72
395.028
259.258
218.418
1158.86
97.9627
87.4845
92.3873
80.8153
1012.62
1123.08
966.437
1207.08
1099.29
1045.13
452.453
936.755
566.977
549.679
480.803
494.187
330.975
487.413
471.484
234.886
160.527
396.282
73.7562
155.754
77.766
90.8609
203.407
55.1203
60.2907
55.4363
410.591
522.365
292.091
58.4685
62.6539
59.6073
1444.17
80.5245
294.932
70.5043
429.002
69.9647
173.695
136.17
114.683
528.606
425.579
290.294
524.896
635.465
1293.16
429.006
1057.26
310.113
121.572
5443.18
916.032
1521.47
510.453
53.9871
51.6901
282.217
561.655
63.3552
113.476
138.269
143.165
793.661
932.817
543.069
820.026
86.2221
87.6433
332.709
262.336
76.4466
142.94
253.03
1056.19
528.351
112.492
610.468
606.376
310.029
219.566
549.772
71.6317
75.2166
277.411
60.2633
51.5108
58.8008
439.585
111.008
81.096
304.584
100.074
102.453
212.045
65.6061
115.539
68.3007
56.2106
54.8047
192.18
49.8328
54.3998
51.6478
54.865
58.4987
421.766
152.059
54.7549
52.095
58.3396
61.95
131.904
60.8449
54.9966
60.277
200.753
133.201
54.9404
57.6233
324.008
344.54
296.392
424.589
256.196
60.031
85.1924
70.4908
757.438
520.501
138.533
260.985
852.711
82.2824
166.752
74.9617
114.299
489.428
193.148
174.862
643.654
128.215
630.725
198.44
59.2478
1120.76
1142.76
211.523
87.1554
85.6539
61.696
77.5494
93.6727
55.2453
62.1786
64.5788
603.054
328.451
244.634
218.856
1582.76
671.068
238.247
76.1216
402.995
73.2877
239.325
56.3775
1222.7
130.02
102.066
289.07
59.2995
55.9296
104.9
151.491
75.0784
71.8299
97.7723
101.507
551.104
614.207
65.3264
276.542
292.199
115.794
217.865
63.494
61.076
75.349
964.885
1632.54
127.868
1083.81
58.7397
157.913
1214.25
165.618
259.598
371.379
912.587
451.196
596.751
53.7448
545.357
343.357
56.758
906.95
59.3487
832.225
56.9003
53.8786
94.6821
185.735
137.822
125.862
119.994
133.456
272.457
224.352
809.84
748.499
461.274
128.919
83.5643
208.936
74.6083
808.588
319.514
421.435
109.37
56.0996
516.081
703.043
720.726
691.018
1126.65
1007.69
702.965
872.763
81.4612
349.347
549.583
849.418
332.773
344.121
251.655
920.656
126.212
803.853
1096.02
262.103
134.711
158.627
125.453
541.515
370.281
371.292
88.8533
262.896
266.86
767.622
349.022
83.3825
469.548
123.977
96.6411
83.2117
358.387
84.2994
124.903
113.395
118.9
61.643
260.011
165.324
205.052
611.119
622.237
258.512
606.706
324.695
529.084
410.226
147.22
253.26
1075.4
479.934
1279.07
988.266
139.077
142.34
768.604
628.487
1231.17
879.356
1133.89
90.4085
90.352
52.6022
58.6349
95.1018
84.4794
60.8449
59.5931
53.2714
52.689
51.2966
49.4847
54.6629
58.2427
50.1844
52.7942
50.1354
52.2856
109.609
61.6685
55.9768
55.6942
53.4913
79.322
52.9558
53.6891
1199.56
925.867
80.6119
90.5175
53.6804
63.016
90.2469
74.0394
506.583
1243.76
51.9252
95.0223
53.5196
396.214
207.402
1022.45
193.262
217.168
390.434
849.806
1055.05
422.991
1098.15
1119.25
458.653
613.034
1560.62
1557.76
187.561
1578.77
224.788
919.824
909.047
838.617
550.839
1032.1
821.656
127.688
504.477
111.841
857.708
550.973
328.889
55.153
1045.11
1184.92
908.306
544.524
303.936
54.9322
67.9051
52.907
94.0651
893.576
97.8352
526.424
471.084
534.524
1689.4
50.764
51.1692
242.301
55.9619
404.461
57.5787
165.455
166.301
295.531
161.593
95.4188
110.117
59.2868
123.66
64.1265
54.6449
381.281
790.363
343.129
56.3224
55.444
56.5537
59.1674
67.6363
157.284
128.098
54.8223
73.8355
62.8543
98.3138
566.958
129.749
721.015
67.1642
575.006
50.472
56.3933
49.6767
975.832
68.9725
410.164
59.3321
57.4241
59.3892
53.2718
57.3686
84.4958
258.91
264.559
928.011
135.388
62.9734
132.469
224.326
777.259
296.679
597.759
135.421
54.5759
55.2232
57.2154
50.7961
53.6598
58.3138
398.268
113.893
275.556
83.3647
122.361
74.209
937.748
151.347
1036.8
74.5414
330.609
69.4385
59.14
54.6561
450.175
60.1608
138.754
54.8779
55.3127
104.093
328.668
300.223
49.5587
76.7452
99.8237
151.645
72.2722
109.069
65.864
90.3483
90.2026
71.682
920.153
958.887
379.973
192.342
220.827
801.033
951.286
887.335
149.596
103.992
880.373
700.24
859.339
899.892
1252.59
504.733
908.651
879.438
587.184
626.26
962.986
1200.7
445.472
539.902
497.546
603.256
501.577
622.217
59.5378
1216.97
56.4305
580.068
53.738
834.975
220.645
59.953
54.324
65.7022
73.8783
123.686
64.6094
51.7711
670.484
316.043
284.11
1175.3
95.7542
64.3435
66.3655
62.8526
401.83
463.594
72.0207
585.183
67.5951
1923.19
284.996
122.896
621.175
1406.43
463.182
291.422
344.511
129.67
267.329
383.902
49.3991
61.7334
75.5265
526.3
104.658
59.305
63.8359
254.226
845.513
453.116
1406.54
318.353
215.359
241.847
129.775
60.8865
55.5242
54.4817
63.4697
84.7647
52.8693
59.2878
132.905
269.856
100.901
60.8042
59.162
97.7247
61.4311
65.9233
61.6791
61.6339
71.4716
60.9118
106.522
68.566
577.145
68.9188
85.7937
162.904
70.9781
70.5408
60.5185
61.7552
130.722
88.8642
226.266
94.9591
1504.66
172.775
765.118
296.772
57.3823
138.297
100.888
342.68
1312.28
919.811
322.416
586.488
153.674
444.258
305.84
209.227
274.42
549.888
942.369
1906.81
404.645
352.801
51.476
66.7332
163.682
730.962
126.319
80.4829
1110.03
588.903
99.5595
460.394
66.4405
176.591
73.1631
57.94
69.1822
1252.3
1271.76
990.939
57.1416
368.14
424.381
1077.18
102.058
286.996
1123.64
145.28
1568.61
281.236
375.153
60.8999
523.411
64.4697
168.074
417.676
123.039
139.126
186.338
167.575
70.7427
71.1618
873.049
903.011
666.304
64.3984
92.3705
684.236
372.357
1019.73
1601.83
52.9662
252.385
275.908
54.5203
817.201
531.41
52.8831
52.0055
322.731
1093.21
839.053
259.279
154.199
621.771
1158.42
302.112
817.043
334.698
495.195
189.871
204.039
510.687
59.0033
67.9661
197.44
72.8705
66.0918
59.9579
220.894
830.518
870.473
651.469
373.403
150.76
721.803
625.688
384.249
624.591
93.2142
194.048
71.3251
65.424
54.6268
62.2063
68.9355
127.102
286.58
379.761
331.367
760.169
727.626
711.996
746.659
650.72
525.47
750.05
330.202
316.36
293.188
292.22
133.678
195.963
275.241
186.383
459.09
1247.4
189.058
105.341
444.997
315.221
953.838
828.882
54.0608
52.022
107.127
294.389
388.928
219.211
221.034
196.627
381.904
821.861
912.463
241.828
362.382
282.573
541.455
1402.61
226.817
146.625
292.217
152.865
215.572
586.656
151.692
60.5294
84.4629
72.4337
79.8983
347.835
64.3758
424.397
172.435
89.5299
1165.44
87.9155
439.953
658.054
477.226
522.638
76.3118
289.422
67.7953
63.9936
167.847
68.3021
84.0246
294.994
50.7614
52.4395
67.8732
70.0975
75.3692
52.5212
50.6282
72.0677
483.192
472.29
121.191
236.16
121.355
297.003
459.177
61.0809
73.0385
51.2469
90.2942
51.2381
50.0728
152.297
92.0589
121.661
52.7764
195.569
64.1214
64.4542
51.0978
50.7414
87.1644
91.1528
79.2621
65.5188
51.1196
424.386
207.927
203.887
542.2
409.837
363.652
623.679
161.502
693.662
933.597
182.905
559.457
551.331
496.052
497.61
263.003
947.729
1021.91
801.47
1269.89
584.958
286.108
772.31
1483.75
823.356
1154.73
887.711
747.877
873.717
592.963
101.336
228.094
108.739
692.366
401.632
541.696
1005.4
401.85
647.724
453.506
476.917
389.631
55.9253
78.8774
63.4292
908.425
305.442
51.7963
59.8162
53.3659
53.0464
55.2114
54.1826
53.9956
54.4994
66.1165
191.285
57.3938
66.8363
54.3316
56.329
58.597
66.7185
73.4942
110.419
113.349
62.6382
63.6545
53.9332
55.3177
52.1082
53.6794
74.024
58.5038
51.6382
49.792
1197.06
779.299
386.183
96.3829
407.212
174.97
302.978
563.325
153.119
133.212
113.537
140.792
116.42
130.698
761.82
124.926
616.055
305.88
92.6128
57.7867
1284.32
118.717
214.598
179.076
403.528
365.249
393.247
164.216
67.3624
133.809
147.069
88.2847
223.831
68.3006
158.188
1170.42
99.7823
98.7407
66.9037
60.6015
80.6157
166.279
71.9734
436.363
391.693
228.805
156.405
69.7402
582.622
388.257
531.269
203.583
98.5936
544.412
56.7652
99.9362
52.5901
51.2362
54.7411
87.1806
151.377
272.874
51.9561
505.935
221.149
1114.97
63.2602
95.1399
63.409
61.5398
392.924
201.026
54.8241
52.1024
96.1442
1329.9
121.633
63.1397
83.2997
1422.13
61.8916
909.081
1202.37
154.2
260.706
73.9024
861.987
1014.63
1087.11
578.014
221.516
262.266
173.505
82.7366
70.1372
84.8847
112.53
51.1032
107.195
266.125
128.786
73.3244
1073.35
201.755
278.74
102.497
291.366
52.8774
54.9645
53.3749
53.8107
53.7207
51.028
57.9636
59.965
131.741
77.5109
64.7994
61.0327
89.1303
834.082
1431.34
576.428
410.299
301.647
164.319
404.249
615.804
408.238
118.526
493.63
576.224
254.873
64.7505
65.7211
60.9891
64.3796
379.213
100.078
174.306
116.494
914.06
838.104
823.905
84.4413
235.274
170.157
242.736
51.8176
53.1997
73.714
74.3183
65.4387
114.241
428.399
64.506
217.613
306.289
126.8
104.156
82.9838
401.047
150.819
130.606
55.6817
58.9453
52.5539
53.2034
70.6544
53.6822
89.8723
52.0212
69.5519
65.2238
111.128
84.4221
70.6198
50.9949
258.493
497.638
235.312
1459.14
1482.52
1505.06
511.892
513.694
392.574
144.822
312.125
51.3286
51.6385
88.4121
126.499
416.985
332.334
565.689
133.697
244.309
166.721
135.428
228.407
146.391
330.724
155.375
75.9524
80.7075
269.242
85.4035
68.2706
64.8339
145.721
159.354
138.575
119.806
129.947
109.799
164.082
370.495
68.5534
94.2585
138.712
52.8847
54.5467
62.843
53.3423
414.519
659.65
663.089
333.297
476.102
466.954
515.566
403.082
612.638
562.334
512.998
566.011
468.48
120.915
202.618
108.959
73.8741
971.951
1120.38
153.496
616.645
71.3262
106.743
92.6676
237.763
121.391
82.0661
694.079
56.4151
156.319
281.126
54.7095
59.7136
60.8838
395.489
75.7811
262.903
68.7053
293.108
171.285
106.551
406.392
57.8222
53.3875
55.3608
59.0645
54.9776
51.1979
53.0358
67.0991
56.2328
75.7044
101.21
280.109
61.6019
76.5932
103.235
75.4675
199.506
255.979
64.2266
913.192
228.902
836.01
81.5249
819.131
200.1
1025.13
123.831
703.42
410.479
96.0277
189.648
1110.53
118.271
84.4122
58.3288
94.2305
212.04
57.5594
61.0932
54.4847
60.6336
87.6518
55.1122
58.9508
56.615
63.4771
58.1144
64.7166
55.9152
54.7302
346.617
90.0539
53.5206
192.134
174.513
174.68
270.843
78.578
57.7374
61.0531
88.8348
879.424
60.6863
115.106
62.8261
72.3988
157.735
59.1318
65.5856
286.804
66.9117
103.119
354.788
85.4341
1076.38
313.015
920.536
138.747
93.861
139.632
190.495
228.465
557.134
248.234
126.97
432.197
82.913
328.736
322.006
854.672
393.712
450.479
49.8362
320.98
593.819
79.5496
90.3654
822.014
109.524
499.369
60.2567
422.522
79.6975
61.2353
63.1872
117.012
310.853
649.701
431.091
101.492
273.187
74.7355
122.132
120.579
188.32
52.4876
63.1733
57.3665
52.4377
72.357
77.1642
59.6844
60.9821
59.3791
185.548
83.1542
96.5561
124.357
106.693
95.6592
173.665
304.117
315.927
315.278
317.482
362.584
166.16
966.789
843.89
63.9197
115.632
64.8672
66.6458
67.6412
70.7634
92.9007
880.896
242.942
1038.74
415.391
569.814
116.425
281.04
402.247
286.752
494.373
895.337
128.368
1415.99
304.621
148.504
221.507
189.532
156.618
339.817
237.989
155.34
559.896
297.403
453.416
1026.22
287.304
76.7144
366.539
225.586
704.462
441.07
260.48
72.6835
72.0584
55.0128
883.902
52.4047
154.382
68.0623
777.131
820.451
1028.77
1006.6
631.985
228.321
408.144
1241.69
1103.15
109.855
588.144
100.231
201.597
391.142
356.189
253.388
881.699
932.3
764.696
1047.62
735.216
417.724
460.54
262.376
149.025
827.562
801.303
1416.33
368.011
69.5819
107.295
61.3482
307.645
601.978
552.836
418.441
119.851
945.037
383.647
875.715
929.767
1059.36
1035.48
968.856
247.499
488.862
259.005
189.956
372.551
504.594
107.456
51.0747
70.0879
77.9862
52.4248
67.4812
102.863
72.2399
328.828
180.586
53.4076
53.9406
56.2238
56.9522
53.028
53.7277
72.2429
50.5198
53.821
55.2012
79.3376
919.089
120.06
63.6975
110.636
732.912
824.806
98.9879
225.7
66.3022
537.06
66.1281
99.1922
71.6848
417.256
2384.64
266.009
200.023
74.896
502.725
541.32
574.562
120.754
84.8615
103.796
871.386
960.825
105.677
633.336
1604.46
347.037
1403.23
1972.08
1356.53
538.414
1230.64
65.471
73.0823
65.5426
79.8029
66.3095
58.8206
84.6284
65.9851
62.9032
56.7213
72.2824
58.0742
61.3225
61.5057
543.412
180.885
108.305
148.382
49.6388
1059.66
98.2531
128.247
86.8331
175.885
325.258
331.762
151.911
52.6924
71.9879
52.7254
55.4294
88.8219
53.0803
53.3069
387.093
627.159
152.484
120.18
170.457
731.553
52.383
52.635
524.028
795.952
432.655
397.983
161.124
76.9222
75.8708
338.696
345.498
823.758
92.5364
55.5044
59.9651
52.6335
126.579
54.0171
152.606
55.4838
54.3675
53.2602
56.168
51.6282
56.3355
61.8598
175.815
63.2805
471.322
221.55
240.297
516.109
58.4256
530.293
54.4849
61.7835
51.9126
55.8698
58.7016
79.7652
51.093
50.7516
64.0626
85.4955
71.3623
112.912
63.6806
71.0087
712.033
278.784
89.5813
229.463
393.852
341.087
55.3315
55.9792
61.8362
53.8154
59.4727
52.6864
54.9329
57.94
69.4378
53.7501
50.9388
64.8952
60.6159
357.335
64.1605
63.7929
113.845
83.0064
79.3783
75.3891
56.4552
76.2019
157.941
240.947
601.73
533.165
53.2468
63.2204
51.7666
66.7904
80.5588
355.587
71.0402
642.343
65.8876
782.542
81.7019
82.4319
62.8736
58.852
742.382
824.798
121.648
51.3684
51.8357
51.3982
51.8513
290.184
52.6234
55.2004
841.285
56.4824
833.588
567.02
54.425
642.229
641.869
658.593
121.892
68.4638
73.8619
84.2084
103.434
197.373
53.6838
112.462
69.5305
52.4239
51.9325
51.576
76.4398
78.7402
60.4138
56.8152
55.0257
98.0153
81.1039
109.53
90.1144
88.3585
65.9778
72.5741
69.3754
63.4699
62.063
71.1892
71.7965
158.887
206.254
168.479
726.906
212.439
918.13
54.1565
61.5737
1704.79
59.5253
215.129
129.358
391.21
681.247
74.9739
137.927
251.465
732.088
893.851
1161.31
407.5
217.369
137.048
53.7773
84.599
191.134
69.7909
151.718
138.583
475.921
681.656
73.0992
209.058
128.727
115.886
92.4008
56.4295
172.941
1465.21
1188.78
774.761
1504.22
64.9639
428.983
224.918
205.326
503.174
292.81
536.617
144.689
142.942
653.927
772.586
505.773
526.029
389.725
617.517
49.856
64.582
51.112
54.0314
49.8972
51.6756
52.5181
509.059
53.0578
55.8131
53.3179
59.5739
54.9646
460.364
73.5424
659.917
54.422
53.3938
69.1295
71.0792
66.4745
91.3616
83.1034
70.5223
92.3248
70.1608
54.9604
316.793
70.2954
66.1349
79.5148
78.3535
963.251
135.501
69.9643
76.9615
236.078
90.1831
52.0543
55.6626
50.6369
65.8864
163.907
219.895
80.2061
57.1096
147.099
74.2205
584.926
183.177
550.24
518.746
128.735
66.2672
123.793
185.497
102.444
152.081
81.9222
66.4782
545.46
222.964
314.802
96.0672
92.1676
253.614
169.17
308.115
91.3981
1009.63
113.222
103.307
145.74
124.038
307.2
107.161
296.143
104.097
266.908
1804.14
1854.14
1026.42
1276.92
425.107
54.2198
55.0781
56.4697
474.505
113.426
67.6938
777.15
721.616
67.4121
62.427
1678.56
2632.77
1250.55
815.296
194.863
353.174
1430.4
446.309
437.674
558.907
64.2141
443.926
133.405
313.025
94.8188
117.774
84.5996
299.443
121.724
135.203
69.1453
1046.97
1144.71
228.626
689.414
261.934
226.431
446.504
134.054
389.681
149.039
865.064
332.422
843.41
710.233
443.234
798.313
434.212
225.613
261.828
56.6049
62.4996
58.947
57.7899
60.5865
332.364
576.652
205.013
599.144
160.077
94.9314
489.05
459.557
900.972
186.308
1082.99
156.722
191.298
441.428
486.128
695.185
170.27
239.445
276.759
513.088
631.801
756.584
508.022
125.683
323.543
131.95
125.733
59.2947
62.1495
766.118
269.653
67.7886
84.0201
70.9431
66.294
71.3117
60.6914
317.057
81.7572
170.15
61.6733
58.5978
58.5573
463.665
139.444
163.272
160.69
612.397
253.11
106.964
59.7331
160.483
135.546
271.902
53.2499
197.89
83.5697
144.172
123.024
65.588
634.32
90.1042
63.5601
500.036
128.874
384.757
165.046
534.4
73.4927
80.3312
159.288
192.107
130.842
144.771
109.759
474.555
332.416
212.705
296.162
972.83
498.167
357.566
444.033
454.024
736.979
342.668
507.618
637.963
714.162
885.876
903.846
1028.42
376.789
1007.93
73.6594
253.362
949.633
1452.53
985.257
1070.27
519.581
203.992
495.521
360.175
334.693
323.969
155.695
1951.6
459.485
532.484
720.038
331.244
67.2647
98.1467
384.551
690.364
128.752
168.423
179.942
143.005
278.802
474.23
941.858
1275.04
1257
1166.17
891.754
1109.46
1075.24
133.067
353.472
171.252
116.526
175.588
61.8603
484.929
332.291
655.791
166.792
74.3998
50.5077
251.761
53.4185
75.8849
149.494
136.016
51.028
71.3438
104.347
50.948
51.9133
50.1786
60.6929
160.226
689.868
531.318
747.654
747.722
58.4313
58.2454
58.4268
59.478
93.1112
76.429
52.2568
54.8701
74.8328
674.354
55.3017
111.583
80.2321
759.138
254.436
269.591
251.221
285.144
50.393
53.5788
55.1872
54.7228
56.2475
124.399
67.9199
238.89
53.4272
104.08
50.934
189.13
329.574
257.156
261.993
358.841
349.694
120.617
87.2
58.9861
85.8247
51.1543
54.1899
72.5408
53.4907
64.8013
52.8316
79.0432
68.315
69.3709
691.328
68.1962
672.195
54.0497
94.9767
158.018
109.002
1069.27
750.952
635.76
438.861
588.182
53.7505
711.573
1234.89
85.5069
107.239
108.698
422.145
803.572
744.213
664.613
525.21
414.892
210.629
111.832
54.4572
287.176
1134.38
445.267
592.304
537.366
584.71
1314.28
55.9957
54.749
54.1058
60.242
57.2803
56.8376
686.35
54.9355
443.043
194.461
173.555
235.223
365.554
153.58
211.561
190.352
1083.79
53.8593
55.7651
356.278
99.3863
2442.04
1856.89
212.529
56.9708
71.2547
58.6342
128.309
86.6634
76.0718
70.1903
62.1731
72.2667
122.612
811.265
1294.78
103.945
625.234
705.566
110.471
112.871
556.091
89.1213
467.766
123.581
84.2006
167.838
114.619
67.4705
84.5921
59.7057
61.2724
526.007
75.1832
75.0706
55.7905
56.4584
62.9667
54.5899
95.5397
95.9647
109.217
281.819
173.462
198.099
339.392
409.737
61.4219
57.1425
506.893
56.8631
173.851
163.021
214.486
102.378
102.671
1229.55
962.719
1127.97
844.458
141.092
1026.37
160.031
600.896
120.857
122.838
159.787
212.821
518.729
326.487
1003.77
129.193
486.576
1170.03
193.595
169.416
1540.21
66.986
1650.68
192.568
127.871
64.7334
367.825
281.077
71.258
150.583
99.0549
210.648
499.887
84.8694
151.731
236.868
262.886
330.573
66.8722
1337.99
259.204
79.5598
59.9945
282.889
63.6595
209.343
68.9936
270.905
52.6988
64.2701
552.537
385.904
76.8537
143.023
87.1371
54.6831
178.477
75.0072
54.3256
91.0373
64.3145
68.4049
153.769
85.7208
61.3878
81.7468
137.556
431.047
145.64
70.3919
73.3458
114.916
253.481
291.392
162.828
127.975
157.816
56.513
58.4363
79.336
472.565
72.6495
59.4298
104.297
419.501
74.3303
97.4175
861.485
533.841
169.284
183.646
231.682
92.0917
304.809
94.4404
112.145
415.897
388.703
341.088
824.229
1090.04
263.855
63.7102
974.466
238.94
66.8857
92.0338
146.18
66.0977
187.805
95.6984
604.992
519.484
313.123
141.017
91.1783
176.189
103.031
87.401
61.5482
65.5842
64.9378
108.269
91.0008
118.731
119.312
184.203
232.241
55.0074
116.602
149.38
65.3415
152.99
170.125
75.8714
67.3294
253.747
64.2562
56.4485
85.4912
55.9763
509.099
710.981
170.475
350.401
108.917
99.2553
109.964
60.6764
418.429
55.4783
525.944
261.521
1568.98
1126.52
628.171
80.8336
695.654
723.259
1494.15
62.5901
51.2045
52.7067
55.5882
56.6418
102.55
60.3767
54.416
54.9695
54.2683
415.413
84.6932
104.828
895.937
114.949
1141.72
360.357
295.977
341.983
172.586
67.5558
67.5907
70.4923
74.8806
422.12
282.043
142.291
857.961
88.3266
123.848
56.468
59.5307
57.896
57.9504
61.6868
74.3738
58.6556
327.383
465.034
1009.51
124.348
50.5716
72.6562
177.332
213.672
72.9127
142.61
443.265
78.5591
52.4866
71.7424
61.2678
321.943
581.62
143.621
164.609
264.536
83.6457
65.2981
358.345
161.185
208.693
553.339
813.299
1019.81
187.634
359.075
100.925
110.702
196.535
425.762
60.9902
55.7497
1253.39
1022.01
1160.66
60.6494
119.346
74.2823
74.684
63.398
128.431
73.0393
57.1662
82.5762
60.5451
100.416
70.8628
181.755
149.198
59.7823
57.8159
254.375
57.2823
57.8533
58.3993
203.869
101.597
58.2217
164.816
195.791
95.2378
54.9986
241.346
55.4685
56.4604
55.3284
52.6558
53.4369
442.492
680.75
619.419
183.467
255.782
64.3637
71.295
58.6688
60.4982
58.4362
57.0606
55.3038
104.234
126.721
54.9102
54.0057
55.4889
54.1533
198.777
80.9917
137.509
139.764
137.062
137.994
68.9718
122.394
211.29
94.8231
132.952
252.696
259.243
385.078
433.847
245.931
60.9629
56.7107
141.759
110.834
206.279
69.038
65.5333
74.9959
306.91
102.927
322.027
894.632
298.882
74.0769
85.4326
78.8707
52.1538
80.6139
51.9649
627.516
1960.08
69.0017
63.5784
80.6577
96.2361
63.0047
61.361
57.6856
68.8071
59.9446
226.692
754.2
613.553
63.4778
315.83
147.642
87.9776
191.602
533.138
55.9035
1008.53
871.098
570.763
484.874
700.126
470.294
319.152
65.433
64.7382
55.7634
52.1528
50.6027
95.5778
74.9608
58.4042
59.2459
167.282
110.98
57.1695
134.465
121.24
208.571
63.7234
80.0086
72.6648
142.254
277.561
250.344
279.846
184.442
76.5512
63.3729
104.121
126.635
71.8061
70.7411
758.096
837.476
372.571
1247.32
817.914
1012.06
524.023
448.071
401.037
223.892
176.804
70.5562
127.945
407.915
79.4396
256.724
131.594
58.1286
60.485
52.1665
58.9739
55.4972
58.0702
66.4951
69.5754
913.088
455.086
1981.87
73.813
61.2036
61.7344
72.1554
51.8226
55.9997
53.6113
55.0048
61.6793
58.8728
56.9858
502.645
57.7303
59.415
63.9498
57.3134
57.9384
62.6031
64.031
57.3903
271.575
58.1916
64.1486
742.932
62.0842
66.321
50.3416
58.8515
66.5255
84.7119
65.166
61.558
71.3658
356.071
60.2296
62.6849
65.648
66.0263
81.0094
142.894
153.122
103.576
115.443
170.478
90.6275
249.428
206.915
443.587
1228.05
87.8243
164.194
281.421
992.924
222.762
91.2346
61.5122
102.455
276.614
73.6106
215.44
222.827
211.165
65.7729
79.3814
64.9507
491.951
335.157
345.181
564.166
223.797
597.11
127.7
337.409
63.8522
63.9956
221.014
80.6962
63.2109
1206.58
181.537
189.116
520.226
102.324
54.1102
53.4293
52.9464
57.1006
216.998
53.6332
124.081
275.916
61.4002
208.374
76.2646
67.8525
205.201
275.448
263.775
209.357
867.416
121.81
54.0413
136.14
50.5829
210.621
51.8967
50.6031
158.948
768.438
192.103
237.117
223.268
351.961
182.946
64.0753
110.713
179.994
462.704
125.677
455.447
513.098
2007.09
105.872
831.331
118.709
112.308
2260.33
118.481
1075.98
131.697
513.238
359.419
1297.54
920.667
349.876
856.271
402.044
306.033
233.651
153.948
332.456
117.977
402.948
891.296
98.1387
278.267
892.424
77.4579
50.8392
98.8705
59.2493
59.7025
60.5156
51.7102
155.958
421.181
51.4652
62.8995
362.821
863.463
138.938
342.124
658.634
898.135
935.609
985.113
1108.27
75.3306
382.465
215.713
174.533
205.827
167.03
978.308
57.6207
162.445
94.0925
200.954
180.282
74.5079
87.645
152.084
565.695
151.098
461.566
89.1103
396.341
603.262
105.938
344.698
508.009
111.567
197.25
59.6166
503.563
465.894
1051.05
697.402
441.195
442.529
55.2292
451.173
169.171
894.652
511.548
180.268
49.4248
50.7786
73.3821
952.032
145.768
51.4759
504.135
52.666
59.5752
151.971
263.387
88.0026
1201.55
217.857
248.926
320.049
815.002
356.945
418.111
287.461
540.848
67.9665
1265.18
230.041
659.083
157.057
165.063
333.995
76.3765
60.1142
131.965
353.881
188.779
601.211
503.938
679.755
429.304
188.369
257.796