/*--------------------------------*- C++ -*----------------------------------*\
| =========                 |                                                 |
| \\      /  F ield         | OpenFOAM: The Open Source CFD Toolbox           |
|  \\    /   O peration     | Version:  2506                                  |
|   \\  /    A nd           | Website:  www.openfoam.com                      |
|    \\/     M anipulation  |                                                 |
\*---------------------------------------------------------------------------*/
FoamFile
{
    version     2.0;
    format      ascii;
    arch        "LSB;label=32;scalar=64";
    class       volScalarField;
    location    "0.0100321";
    object      p;
}
// * * * * * * * * * * * * * * * * * * * * * * * * * * * * * * * * * * * * * //

dimensions      [0 2 -2 0 0 0 0];

internalField   nonuniform List<scalar> 
3923
(
26.6756
27.5894
32.4619
22.3911
20.423
18.2674
20.1464
-1.19456
10.2044
-0.425429
-45.7861
26.5862
27.5541
23.2142
28.8128
34.4743
33.7962
34.0753
34.1363
31.9493
25.6728
25.4116
33.6204
26.3186
33.1922
24.2113
25.3263
27.5765
25.4695
24.3062
26.5017
26.1623
25.5334
22.3339
20.0221
-56.3014
-23.3294
-26.019
21.5485
22.7426
-45.3628
32.4074
-37.877
-52.1735
-50.1378
-40.9247
33.5084
-8.92155
32.4325
-28.4041
-44.735
7.39622
32.874
33.1582
32.596
32.422
33.1638
30.2234
32.4012
25.4811
33.7706
14.106
34.1124
29.0462
34.0047
31.9979
26.0395
-53.3922
21.9068
20.2186
30.7177
11.5119
31.4571
22.1409
33.4997
16.6711
32.3488
27.5607
-64.4518
26.5777
-21.2249
14.6927
27.1162
29.2375
-25.7345
-80.7646
24.029
31.3017
32.2134
25.1921
30.4709
-51.78
29.6639
33.3692
33.4972
33.2374
34.5368
33.8577
29.5706
30.7677
27.5671
30.2595
28.537
31.8813
26.3015
31.0759
19.8969
-26.0792
-29.1919
-34.5131
-36.6283
-31.6277
30.965
31.9846
-21.5428
-21.2845
-20.2833
22.2575
3.47204
-19.8305
34.6184
-88.7987
29.1572
32.7566
18.1931
19.9481
21.0863
-21.9592
-21.3702
21.7214
24.1261
-26.786
-20.3999
33.8416
33.9637
33.8997
34.2401
-19.3154
31.9992
30.2897
23.3812
17.6365
30.4061
33.8436
27.7785
33.1313
-75.1676
2.33166
32.519
34.2782
34.2087
26.0663
29.5496
32.5621
32.2081
22.9527
30.2443
29.2796
33.73
22.9399
24.8767
-20.1172
26.5997
23.8591
1.07695
34.1133
30.5481
32.7394
33.3259
-27.7691
32.3091
32.8035
9.66693
-59.8084
-57.6427
32.7303
33.8122
-15.6988
30.5174
33.6363
24.6778
-97.112
32.825
-33.4079
27.2528
32.6591
32.6738
33.5338
32.5316
32.4981
22.091
29.8392
33.5386
33.376
31.1857
-6.79209
10.9313
-31.396
34.1636
4.48413
5.6295
22.4037
24.7335
27.1667
32.3066
16.0358
32.6561
-63.6253
32.2622
30.3378
-28.0947
31.7025
-51.9847
33.3058
19.3215
6.80894
30.5113
33.698
22.1746
-21.1947
-20.3098
-11.9618
-48.0145
-53.8629
14.4885
32.2038
31.9246
31.9179
32.4231
27.39
27.5454
28.3879
21.8354
33.3043
32.9815
32.67
33.0301
33.6519
33.223
32.6196
33.0533
33.6751
13.1892
33.1793
21.5817
-21.2392
15.0225
34.64
34.6256
33.8008
25.6248
32.237
34.1437
33.5439
32.993
33.4811
21.7805
19.0039
32.5349
32.8064
14.8679
16.5769
32.8017
32.3259
33.3654
33.7633
21.5282
23.8029
32.8734
33.1972
32.4737
21.1324
34.6066
33.8598
34.0567
34.2171
33.8185
34.0423
34.0819
33.5866
34.0904
33.0649
34.1331
34.1916
22.3265
29.2354
33.7047
33.0093
30.0371
33.4793
32.1306
34.3727
33.1409
33.5274
33.3443
20.1305
22.7555
-23.1404
-24.4458
21.3871
8.339
22.0319
-26.0416
19.0205
19.4488
16.91
2.26388
21.5568
17.801
20.895
19.4748
14.8252
21.419
27.5685
27.7635
28.6254
29.9484
22.5223
27.0132
27.6482
29.7374
30.5562
28.8239
28.1937
29.6411
31.4511
28.3151
13.7869
-2.43492
25.129
24.174
33.0853
32.5192
29.846
29.9047
30.2695
31.2052
28.4397
29.6383
29.7864
29.4281
30.5668
29.5324
29.3432
32.7946
34.1266
33.5882
31.2749
34.0558
32.9424
33.6169
32.9921
32.9554
32.6226
32.4423
33.2648
32.2856
33.594
33.517
32.8708
33.2105
32.4802
33.2298
33.1438
32.6087
32.2858
32.8677
31.3668
30.8931
32.7957
32.0825
32.8423
32.1896
32.9847
8.30949
9.09997
14.0431
31.3545
32.406
30.1287
28.5305
30.7118
30.7444
34.1445
34.2422
33.9212
34.2441
33.3159
33.4383
1.73114
-2.53
-7.46123
27.994
29.0784
30.1534
31.3453
28.4299
27.7253
23.145
34.4065
34.1444
34.4325
33.6489
34.1619
27.2398
28.1812
30.7806
28.8051
28.2886
24.039
20.973
24.7238
26.2875
24.6848
24.6848
24.5121
25.6397
26.8474
26.9499
27.6066
28.0562
29.9185
27.4753
32.3074
32.7407
33.9701
33.9447
29.8322
33.1929
-52.6959
33.9405
20.9042
28.3769
19.6531
28.9033
-58.1016
15.9209
-15.9701
27.0308
27.6943
-5.23654
31.795
32.9943
11.7221
33.7688
33.6089
31.1078
3.84822
33.5924
10.8371
20.7898
11.2296
6.55073
-18.4351
29.0123
31.8948
16.636
33.4601
33.649
32.3316
30.6112
35.1011
20.1634
34.0214
20.1669
18.6107
34.0633
32.3887
25.1289
-47.2115
32.99
32.0775
9.47924
31.7968
24.8178
12.8251
20.8434
31.2948
30.8591
33.4024
31.1917
15.6203
33.3867
15.8198
10.7529
33.7769
33.2473
33.963
34.0877
22.2417
-6.74314
27.8896
31.7087
15.5083
33.6416
33.9196
34.1013
-54.5918
32.3342
-8.52153
33.7194
32.6834
33.5662
33.6386
34.5512
31.9289
19.6241
32.9033
33.5165
28.8337
31.9022
-56.768
32.0088
30.9381
34.3428
21.3924
29.5639
32.7083
27.7482
31.7428
18.8847
34.268
32.3649
32.5312
34.0605
30.5243
33.6825
20.9964
18.1296
29.4678
34.1765
9.93789
29.4021
27.6811
27.4123
30.9823
26.9093
32.5997
7.64854
29.9619
23.5297
26.5657
20.5817
33.2502
30.9563
24.7204
28.3826
31.7684
30.404
-44.1209
20.0151
23.4973
25.9899
19.7737
28.8207
-1.53506
31.4934
30.8467
-76.2276
28.576
31.7991
-72.7997
19.3695
28.1014
32.1293
21.7918
-32.4655
-11.0756
32.6416
22.1364
29.5061
30.3911
33.7948
30.0795
32.2626
20.7787
33.977
33.47
33.8574
33.8715
25.4149
25.4394
-27.952
1.16071
-20.0396
20.6059
-28.2865
-49.5976
20.8646
30.3347
33.7287
26.6895
29.4595
32.4331
34.0487
-43.9376
32.0688
26.4128
32.961
9.7057
29.542
32.5981
33.684
29.906
25.9788
29.0404
30.5117
23.5273
34.1654
19.7283
33.8337
28.6048
31.3639
28.463
1.53659
-36.8762
-77.0244
-38.4738
-8.24846
1.91711
-6.33788
21.4986
-53.3121
13.042
34.1863
-91.3629
32.8189
29.5894
-31.6569
-63.098
-8.16688
32.1131
10.3525
32.1978
30.5737
33.3464
-64.9591
-78.2477
-58.1161
31.5626
-53.1457
-12.0563
30.6866
-81.7422
32.0063
-59.2986
31.4329
31.7947
-19.9335
12.3425
21.4863
24.2354
9.70404
16.4335
-42.1897
21.9258
24.7192
-35.5655
6.84741
34.0347
5.43753
-36.3367
-19.2481
2.37528
27.0896
22.267
19.3693
-45.8534
28.849
33.2455
33.7529
33.9246
32.9151
30.2769
33.9685
33.4794
31.6194
17.3007
20.2895
32.8294
16.9456
30.2305
31.5452
31.9223
30.8555
32.4562
30.1664
-23.5415
32.8975
33.6304
34.4837
33.2162
29.8136
32.0851
29.2204
34.7725
-87.0193
33.0958
34.3055
29.6621
34.3366
-65.2702
24.6782
32.0108
-15.937
22.7635
22.2179
-15.2722
-39.66
-0.901861
23.6811
20.3808
33.5767
-21.8844
21.749
-62.7901
-57.5077
-67.4072
25.5669
-45.3508
-25.7167
-64.8088
-79.5791
26.3274
31.052
-61.7183
-11.0987
28.3708
-51.5246
-68.0558
-71.0948
32.1501
33.3395
32.2002
31.9154
29.6952
30.2946
-14.5115
34.0675
32.2455
30.783
34.2762
32.8254
-14.4696
32.0446
33.637
31.391
29.8631
30.3875
33.3724
34.6077
17.0182
-16.7823
-22.9847
33.8585
28.9498
32.7512
30.7073
33.8718
34.0945
33.0572
24.8109
-17.609
18.5424
33.2119
33.2304
-75.6109
-65.1773
-8.07233
17.0809
34.0835
28.5359
21.2105
-53.9397
-36.5403
-79.8735
4.43761
-5.30865
31.7216
-10.9067
29.3103
15.9026
18.2704
1.90882
30.3192
32.9247
20.7074
17.1863
-16.5929
32.5009
33.6939
34.3691
21.5611
33.7085
33.2183
15.2468
31.4651
26.916
30.4351
32.2365
30.0515
33.1092
32.4634
-75.552
32.6899
32.8623
34.5433
32.1703
33.9274
34.4254
33.4704
33.2492
32.7523
-59.0123
-71.4994
25.2924
30.5202
20.7502
29.3061
-72.3719
31.1877
32.3146
5.18666
9.60975
-72.025
31.2561
31.6387
32.7454
32.6038
32.6131
31.6201
31.5515
33.6218
-34.0343
19.9938
30.0225
20.3849
26.5551
26.7323
3.64153
30.064
24.4588
22.9859
24.6566
29.8203
-21.4291
33.8134
30.4292
-51.6717
29.0211
34.0135
33.7069
32.3773
33.6673
28.9917
27.1232
27.9028
25.7733
33.7234
32.601
33.8886
33.7795
31.0743
32.6272
-75.3149
-61.8341
13.976
25.5264
33.2007
32.2799
33.5381
33.0145
14.6197
31.8706
31.5144
-44.7286
-35.6
-59.7501
-58.3958
-21.7483
15.4451
8.74666
16.9079
19.3935
-9.56673
30.2524
30.8212
31.592
31.3489
-70.0416
-5.4454
-64.0228
-25.0405
-73.3807
-69.1157
13.5081
-73.1381
-11.4258
-8.0106
3.86167
-43.5174
-26.3674
-45.7457
-14.5251
24.6375
24.3777
-15.8795
33.4032
-22.3986
29.7496
30.5439
-23.0607
34.565
33.2696
33.8986
-24.1873
-20.8599
2.64852
33.6915
31.6081
33.7793
18.7064
31.9086
32.1187
31.9437
1.43824
31.2741
-23.1907
21.554
33.8805
18.4125
17.9327
7.68635
28.802
-10.2776
-5.06562
7.97986
6.1891
17.3805
30.2224
-4.00121
-63.1459
15.8437
20.6465
33.5015
30.4448
15.1751
-6.58574
34.0687
30.1588
28.5058
22.4516
-28.3657
-20.5599
8.17141
19.1992
33.306
24.6151
32.9774
11.1535
30.1825
16.8239
28.5216
19.5172
30.4823
26.9648
19.9447
27.961
27.2208
24.3901
30.9513
33.2485
25.4404
26.1563
34.2722
33.4154
33.6676
30.8084
24.8493
32.1628
33.5349
30.1664
32.9648
22.0445
33.3435
32.9305
33.3794
33.7232
33.2162
7.69168
30.6739
33.4434
32.714
32.4499
33.452
-20.3221
-0.484433
33.7495
33.0159
33.725
34.0757
33.0764
31.3742
33.471
34.4962
31.9166
24.5541
33.3534
33.4243
15.2001
29.4839
30.3906
20.1645
32.5269
34.1862
32.6718
28.7756
-38.0676
11.8991
28.5014
21.0691
21.4963
30.8472
33.0286
30.2756
23.6891
9.85021
22.6431
26.4574
-51.3491
27.6481
11.0652
22.0602
33.0203
21.7518
-1.55849
25.5398
31.1912
24.0003
30.4716
21.9891
32.8722
33.7497
34.3083
28.9202
18.031
26.4514
22.9278
21.5272
17.8836
-22.1633
26.3203
34.6116
12.0209
31.489
-39.2146
34.2132
3.80546
31.4333
30.4278
20.3334
33.1842
33.876
28.8799
27.5586
33.7083
31.8198
33.5757
30.4372
19.9671
17.0954
32.4603
20.6284
20.2257
24.9644
29.2211
33.4705
33.4443
29.3985
26.335
-2.08895
30.9355
-1.23389
33.4102
30.4322
-2.16729
31.578
1.97059
1.29769
-67.1541
-22.748
-37.9851
34.0623
-43.3612
-16.9856
34.2714
-59.3982
34.002
-56.3149
34.381
34.2565
21.487
-11.2405
16.3382
14.4476
23.4678
9.33238
17.4317
19.8083
-81.1227
-74.6066
-7.34248
27.5107
33.1432
14.2167
33.1294
-0.23253
2.72959
-26.8928
32.6225
33.1284
-19.6041
-75.4923
-67.2511
-72.0645
-83.9943
-81.2542
-24.9503
-25.2098
29.4417
-2.63961
-40.5611
-52.7101
-0.149293
9.09296
7.71935
-59.2164
21.7306
-19.649
-4.28426
29.9452
33.3947
31.7834
28.4128
6.58641
17.2748
7.89454
33.1992
18.0691
8.22452
-34.6261
-7.22014
28.8016
10.5842
23.0346
27.7662
27.5118
10.6291
33.5942
25.9603
28.4163
27.7662
31.0023
23.0639
31.7124
-8.87194
26.6759
-13.0855
30.6282
3.62043
-4.31715
-18.3626
8.11271
27.5141
20.9836
-75.6704
-6.74739
-72.1269
-62.2244
12.7902
31.1473
-50.0274
-27.4155
-71.6158
-45.7884
-80.8451
27.9732
29.2255
32.9782
34.7627
31.8232
32.7699
31.6589
33.7032
30.8151
29.0936
31.3856
31.6773
31.9818
31.468
30.592
33.1628
31.7471
32.5915
32.5292
32.3951
33.9702
33.526
32.157
28.2174
33.4535
31.8412
-80.543
-73.3919
34.2268
31.8797
34.4196
31.8619
31.4695
32.3532
-21.721
-4.33784
32.3302
34.7671
33.2584
22.1537
25.5414
19.9566
22.9304
34.2367
27.4146
-51.1821
-50.8129
9.35619
-3.04565
8.56554
11.8628
2.25543
10.4367
13.3383
17.5733
-30.3431
21.7596
-62.7495
-32.6634
-59.7441
11.5451
-34.9468
-3.25322
25.2685
-0.831671
33.2648
-21.2001
-17.8349
-10.4976
32.3169
-73.9197
-47.8096
-39.2869
-58.4691
26.9442
33.7419
30.305
31.5194
33.1214
0.582293
27.2292
6.44033
18.5253
14.9905
-6.72537
32.7906
31.5769
21.6302
34.1749
24.6756
33.399
33.3373
31.8664
17.0474
34.3882
32.8692
31.0186
33.9042
33.53
34.409
32.528
-30.7194
-52.1889
6.30915
33.4182
34.418
33.2104
34.1992
33.5111
33.0402
29.4355
32.75
33.8495
34.2615
30.7789
-42.7734
6.47873
-29.8101
26.8369
-56.4987
30.315
33.8004
31.029
-63.0808
31.6405
-32.7002
32.9644
32.945
33.6782
32.8298
34.2429
20.6176
-3.37202
19.9196
-32.1993
20.8993
32.9915
23.2895
11.1449
-37.2981
-15.0711
-3.57223
18.08
31.3829
32.8836
34.1163
31.6656
33.003
34.1665
14.6835
33.3137
30.1809
33.1965
24.5388
27.4797
-65.0839
-20.3345
1.39417
35.7082
5.34623
32.612
30.5211
33.4489
16.678
32.3157
25.2413
33.1532
33.4199
35.5314
29.5432
13.9339
30.4088
33.263
33.2922
33.0279
33.4981
34.0454
33.9851
35.3053
31.7666
32.8489
-72.7839
-70.2816
-30.2473
-23.6706
-22.4388
-72.6087
-80.5689
-65.9276
34.9067
32.3825
-47.7213
-65.6419
-59.6937
-56.7764
-80.9978
-53.6886
-61.2086
-54.3678
-52.3378
-60.9319
-67.6559
-65.8684
7.67353
-54.4473
-39.0617
-49.5583
-49.1743
-63.5711
31.7023
-69.4548
33.4976
30.7211
33.6917
-51.4145
22.3727
34.2986
33.1549
27.9055
34.0652
33.3449
33.8224
33.7083
26.7342
6.3232
-1.76382
-1.48732
33.8373
28.5875
29.6462
34.7481
17.541
-2.32291
32.0549
4.1121
34.3599
-1.84318
21.2581
31.8109
13.9051
15.3531
18.1843
23.7229
28.3825
27.8004
30.67
17.5111
31.5638
33.8601
34.0081
19.0553
34.8959
34.0818
33.5921
23.3654
-11.2723
20.2281
-14.3572
20.7359
25.9537
22.4751
25.9429
30.3115
34.1674
33.3164
33.4272
31.1725
33.1858
32.924
32.4351
30.9619
34.1243
33.8173
34.0321
33.3845
31.5005
34.6874
31.5419
33.0247
30.6125
30.2897
24.7783
31.1552
16.3317
33.1364
31.7853
34.5671
33.8844
30.5932
32.0436
32.4011
33.7991
25.9024
26.1771
32.1114
-18.8786
22.5489
21.2157
20.3531
34.0947
26.1442
26.5393
25.2576
0.560094
-74.5663
15.5603
20.1839
25.3475
-30.1413
29.4089
-15.6072
-13.0166
21.6181
2.9074
0.380079
18.1439
23.9602
32.9013
34.9974
28.3627
29.0142
21.8242
24.4977
4.3085
6.09816
27.3187
6.49467
30.6291
21.9282
33.9763
34.4456
32.6347
24.0525
-8.32729
10.4785
33.7477
14.9316
27.375
27.2893
31.2981
19.6324
22.5506
24.2679
11.923
30.6293
34.5453
31.6526
22.7537
33.4539
24.6389
20.3794
26.3178
26.1911
21.994
22.6506
30.1759
26.9883
5.66629
-57.836
-29.4734
31.8901
32.2074
-24.7642
20.2907
-36.1142
-47.5962
31.6722
21.2771
20.9157
32.2217
-53.1483
8.8734
30.4625
29.2252
19.8452
-3.47786
-9.64162
21.8443
23.6498
11.2731
8.81537
23.6068
-64.9932
22.6266
21.5016
21.1754
12.7602
-31.981
34.0887
31.2535
2.88983
32.6484
30.5712
34.9668
14.7729
-59.9934
-66.1817
0.838506
16.0188
26.6113
1.16924
-19.2165
8.88065
-37.7963
32.3316
26.8413
31.9972
30.7773
34.7521
26.4519
32.3358
20.8994
18.8776
12.7296
14.8441
-0.986109
-30.1645
-40.7068
-25.6855
5.44985
14.2924
5.62207
19.5976
17.9572
20.8229
18.7534
18.2867
-21.1387
15.5178
-5.47987
-38.1187
-92.382
23.231
31.6712
1.09491
-22.5805
-45.0504
17.216
33.6219
33.2245
31.4844
-26.9343
-37.1395
22.3547
27.9623
25.3108
-20.4546
-7.3544
19.4064
23.0366
21.4163
22.4664
20.153
-17.998
25.7883
27.0213
22.6772
8.99839
30.0782
-22.8711
29.3734
33.809
29.8602
33.3663
30.7044
20.2705
33.0267
27.1607
26.6293
34.0573
-90.3676
32.4432
-5.98866
13.9845
28.8331
13.9386
25.3121
20.919
32.9419
33.611
26.9912
31.9275
30.8825
19.9357
32.2778
32.0756
29.7077
28.4625
27.426
34.0981
30.9826
33.5009
-18.1907
-22.0962
33.9578
21.7172
18.4948
-8.29339
-16.0089
35.7615
34.5422
31.9821
33.9968
31.2501
29.8
33.0324
32.4568
33.1336
33.2154
23.6272
30.4372
30.6247
33.1207
30.2537
32.8496
27.5544
33.5393
32.5897
31.3905
-20.6187
19.5237
20.2116
-10.0958
5.79739
18.2352
-5.15814
22.9568
17.2182
-55.026
24.5114
-44.596
-40.1366
10.1248
-38.5073
-8.82751
-63.1367
-75.4987
-64.5679
-8.72367
10.131
21.5652
6.63253
-4.94661
-60.7662
-74.3401
-62.6706
22.8069
-44.379
6.45174
30.5701
-32.0958
29.3156
-7.29678
28.1056
12.4643
4.56804
-36.4008
-55.5191
-21.5789
-23.6729
-29.9382
33.7584
33.2379
32.887
-62.2789
-11.0159
32.1107
33.7023
31.6249
32.7514
34.1048
32.1585
32.9072
33.6202
31.4527
14.9131
34.1756
34.0034
33.2535
33.2794
33.5663
33.543
28.8009
30.8175
32.6784
33.8291
32.777
33.9545
33.3741
31.7756
33.8259
33.4565
31.4936
32.3078
31.223
-66.3873
-39.8721
-35.6708
28.2308
-32.864
25.4341
30.7909
27.2105
30.489
14.5649
-20.6359
20.992
-21.0663
-20.7636
-46.9738
-19.3505
-44.803
22.5705
31.0993
34.9873
-88.5337
-15.4091
-17.9495
-18.1079
-12.4218
-27.905
1.50359
28.1777
30.7893
26.7134
28.7833
28.5512
28.442
33.8927
21.6856
-81.5275
28.0273
32.7612
33.929
32.5776
32.0976
11.1439
30.0099
15.9962
-29.3315
27.5521
17.905
32.5795
-48.0351
-37.5926
-20.4679
-17.9524
-21.8334
-17.5744
29.5631
31.4101
32.694
31.4865
33.519
23.7546
21.856
31.8288
34.2495
-22.8507
10.5266
-75.5024
33.2522
30.2826
28.7201
31.0313
-7.26178
-35.8923
30.539
32.9808
31.1459
-0.976809
29.9326
33.4118
27.5264
-5.49354
33.3824
-73.4485
13.2439
14.2984
8.58474
32.5199
20.1824
6.62213
15.7988
19.782
22.2477
21.9831
23.5003
30.8836
31.0612
30.4702
28.7278
30.0389
29.1147
24.9368
27.4576
33.2613
20.6252
34.3094
22.1081
33.5269
30.5817
32.2982
32.6725
33.0392
32.362
33.342
31.7507
33.2364
34.5238
34.317
31.5366
29.9496
31.2178
24.0208
-10.9357
-10.1457
9.15344
10.6284
13.1452
11.0039
17.776
19.0948
15.8616
25.7388
28.7633
8.74165
18.8698
29.2436
30.2185
30.5417
30.1499
21.196
29.3022
25.2124
26.3809
15.0084
13.8118
10.3035
30.0173
25.3667
30.0566
29.4331
32.7414
32.1093
32.2885
24.2273
30.5502
26.9176
9.45595
28.8308
34.1857
32.7004
34.5967
32.1165
32.2151
16.4846
27.267
28.4349
33.4159
33.0103
32.7647
32.8267
32.962
33.391
31.835
30.3264
32.3439
32.4121
31.5195
32.8084
33.0913
32.6573
22.3804
20.6281
21.4413
-53.8999
-39.1612
-26.7098
0.352928
28.6853
29.6085
34.5932
31.2341
31.564
31.3634
22.7865
22.6944
-4.0826
12.4319
0.0732506
28.9527
25.0088
12.41
16.1155
34.9621
11.7674
32.1524
32.5767
34.9114
31.8863
34.8649
35.3814
29.9956
32.6214
28.0488
19.4699
20.7572
25.8727
25.9975
26.6848
25.5808
21.6899
29.202
32.1417
29.3995
31.248
33.5917
33.7989
32.7513
-11.7816
-19.0922
-20.1898
10.5167
-3.06671
-10.8207
-15.4522
-2.44763
-14.4479
-7.0284
-7.19957
1.75529
1.98172
27.3117
21.9163
29.3135
32.2342
9.62783
8.86694
23.2273
20.4066
28.2683
30.6118
32.9967
33.3054
31.6911
32.9606
7.69133
34.1449
26.9637
23.824
33.5323
34.0988
33.0375
30.2496
29.2712
28.5826
32.2669
28.4988
24.2832
30.6717
-5.17779
33.7961
33.0116
34.4726
33.8543
33.6677
30.6057
33.4971
34.2494
33.9111
28.3404
31.8622
23.0316
34.4346
30.8516
30.8529
33.4236
23.4989
20.0222
31.8418
23.407
27.9286
19.9466
33.0832
-37.9984
27.4468
20.1842
31.6326
-22.3379
17.7158
34.1799
27.6346
9.88733
35.7033
34.0785
33.2502
26.7155
22.4432
33.7636
32.6236
33.6981
32.3345
32.3016
33.7178
33.0019
33.8509
34.3999
33.8693
33.5541
33.4537
33.2864
33.4012
34.6762
33.9815
30.0958
32.4842
30.6487
33.615
34.0728
33.3971
33.4059
32.1631
22.8237
32.6098
28.2033
31.9107
30.0545
33.6068
33.7065
33.5938
30.4559
32.7267
25.2958
6.49603
30.2671
-21.0073
22.3584
11.4797
30.1493
26.8987
21.7302
26.6623
27.9323
23.4946
6.05932
31.2422
10.5883
25.0857
25.3756
31.9471
28.2773
25.0835
17.5607
30.7659
28.7185
14.2454
24.9315
24.9068
19.3155
26.7599
14.6388
33.7507
-8.65463
30.2732
34.33
32.4403
29.046
19.9157
6.5895
18.3747
31.7406
33.4879
32.4333
28.4618
30.546
29.2815
33.5201
34.6218
34.3489
33.4612
33.7454
30.3383
32.3244
33.3389
34.3341
24.8307
29.9526
26.4678
26.7062
26.2753
30.5158
26.4598
21.2137
22.1033
-30.3057
18.7719
9.7069
26.3856
0.705098
0.693028
33.1146
30.6961
30.1552
34.1246
30.2024
32.0068
28.1823
26.145
32.2718
-61.1437
-5.3773
-35.5071
27.1439
-11.2205
-10.2563
20.3738
11.7782
-50.9857
27.1322
-83.702
-15.467
25.688
18.5676
23.6675
28.7337
-17.6229
21.2866
-9.39807
-12.1332
-4.98479
-5.21935
-21.6197
-18.3438
32.8506
-16.3794
-5.82503
-1.33488
14.8305
25.2991
33.8102
30.3042
33.6316
11.5467
33.7845
26.3371
32.6923
-72.4537
-18.386
-61.2995
-67.4435
-47.3609
25.2522
11.2105
-64.8879
-77.872
30.6489
-20.4208
26.6337
13.6111
0.298948
17.5187
14.1749
-60.0158
-73.7428
-32.2958
-81.7788
-25.9178
0.977422
14.7226
22.5973
29.1105
18.2296
21.5006
0.525129
-38.7228
31.159
25.1964
32.9702
20.9596
-56.0803
-55.4898
-20.6297
24.0906
-50.4525
-48.5431
-46.3384
-78.5522
-73.3791
-76.2016
-81.398
-22.378
-24.5829
-30.7202
11.2213
-31.3502
-27.5903
33.7877
32.3997
34.3068
33.0606
34.2855
33.2429
34.7221
34.3726
28.8669
32.0163
33.0173
33.5666
33.7742
34.0173
33.2268
32.5715
32.0831
30.8752
33.4706
33.984
32.6395
-75.5343
33.3489
30.2362
32.9196
-55.2487
-62.8118
32.3793
25.6189
31.0526
-55.0401
34.3534
31.2118
32.11
-21.4455
9.43374
15.3154
21.0637
25.1706
-38.2135
-49.5047
-38.3584
28.135
26.8416
27.6938
-63.2462
-84.82
27.5737
-2.03898
-73.2784
-12.2337
-9.1819
-1.26978
22.3772
7.75578
-74.2712
28.0808
32.8027
32.1594
29.7293
32.58
31.6946
34.5408
33.8998
33.8554
33.0973
30.6008
33.5411
33.6352
33.7937
-18.0939
-24.1006
-20.1118
32.1868
30.2481
-69.0086
34.0125
34.0215
32.1575
12.1579
15.1332
7.20554
34.3146
30.9597
32.8933
33.1334
33.5504
34.8694
33.0938
33.2832
-19.1659
14.9126
21.2678
15.9384
12.763
-37.2788
33.7047
32.76
-19.3674
-63.8149
6.8836
-18.2703
-17.3216
30.1659
29.9325
22.1828
16.4485
-52.3524
32.8212
33.8589
34.3672
33.0077
32.1859
32.9922
-11.7552
33.3876
32.0935
33.6971
33.9296
31.881
33.1487
32.2939
28.8573
27.9819
27.4546
4.70123
-15.7616
-16.1162
32.7396
-32.9223
34.5072
34.4123
32.7291
33.108
34.4336
31.6413
29.4755
32.7918
31.4821
30.9346
33.6971
33.8233
33.8657
30.8701
-44.9716
15.8936
31.2128
21.1821
-26.612
30.5769
32.8759
32.8141
33.2022
33.2232
34.2885
33.2921
34.007
34.1957
26.8569
31.8083
29.438
33.7264
33.294
26.7505
28.5657
31.8744
28.3806
30.5517
26.0393
28.2153
33.7034
26.4703
15.0664
19.3571
13.1158
-1.26436
32.5676
33.2889
32.4291
34.0497
24.7291
15.3657
26.335
-3.41314
27.8846
-14.6367
33.7929
34.1681
32.8983
34.0094
18.9269
19.7537
31.4467
32.2962
33.358
32.5958
33.0474
13.1651
31.9797
33.7477
-61.3235
33.9329
-40.0238
-37.4329
33.4893
-31.2018
-37.9657
-48.5558
18.7928
33.8125
23.2409
34.0139
31.0753
18.4898
33.2635
32.5678
32.822
31.9074
31.5406
32.7751
34.1909
34.8067
33.8323
33.1195
33.3778
32.7698
30.1369
28.788
27.7876
28.8046
33.3646
32.4277
36.1134
34.0424
33.8838
30.1059
31.391
23.5109
8.86108
25.9308
-26.4088
23.9581
-24.343
34.1449
34.495
21.2635
33.7754
32.7352
34.56
30.8347
7.77283
29.1911
26.381
13.2501
-41.7753
3.91993
-70.5119
2.55454
20.6218
25.9967
33.6277
33.2172
26.4085
31.9118
30.4666
25.1319
31.8635
-14.8087
34.8963
21.3239
29.1975
21.5521
31.1775
33.8691
8.05264
6.66335
25.2076
-2.00396
-29.4491
28.9477
6.06646
14.5752
21.608
10.5753
22.0818
11.0154
33.8686
31.6182
5.21598
-8.09963
-22.1001
-17.4067
8.49255
17.57
31.1892
29.4097
32.8026
30.9127
30.6951
30.584
33.4263
28.0992
33.0552
33.4629
33.0677
33.7875
33.9665
26.7534
34.3073
24.703
33.1708
33.1791
33.0349
32.6613
32.9704
29.8207
29.0928
32.2451
31.6756
32.4931
33.7159
28.4522
33.0625
33.3391
33.409
33.5259
22.3211
31.5432
26.9882
31.533
17.6442
30.823
32.6941
33.9186
31.8426
31.5636
23.5713
24.6015
34.7396
34.508
27.476
32.6846
-5.23807
26.362
-9.97038
24.1
30.768
31.0881
23.7834
28.0276
30.6852
14.5174
30.0806
31.5101
30.1968
8.11652
7.75977
26.4723
34.2549
22.3324
29.5106
29.965
34.569
24.0219
22.9929
22.2596
25.8658
32.2409
18.1432
33.7116
21.2257
33.7922
22.6295
-0.889648
-7.27216
9.4164
0.65448
7.37461
33.6575
33.6862
33.6527
-18.9077
34.214
34.1004
-29.0846
-18.1074
34.079
31.5895
1.46792
-9.67299
22.831
-33.1042
22.3558
30.2846
16.2195
29.0052
25.0085
16.2291
31.4933
24.4938
28.7655
22.174
28.0734
27.053
33.0738
21.0089
26.0978
23.9244
31.8354
2.46317
-13.1159
20.2614
-6.74272
-19.8053
-21.0729
-44.9293
-7.39846
-10.6744
-5.56485
-65.7098
-33.6892
-51.7507
1.92532
9.78715
-36.8787
-6.79297
5.19455
30.6305
33.0684
33.1734
33.3582
32.2817
31.6035
16.8297
10.0829
18.1012
-21.0781
-20.3545
32.0074
30.4429
-37.4823
-60.5391
30.2809
-66.1108
17.3433
16.7072
-2.82442
-5.05365
-5.59616
22.8405
32.0322
19.9837
-3.65356
-12.0726
-56.293
-20.5527
24.885
12.6866
25.265
23.5304
32.361
32.9263
-56.8019
5.7936
32.9605
32.672
33.4412
32.8037
34.333
34.3384
-23.0339
33.9876
25.6718
33.6341
34.1496
34.1062
-2.94065
24.0482
-21.6622
-25.8458
24.6682
13.6371
31.6597
34.1
27.6956
24.2173
1.00422
33.2508
19.8367
27.9203
23.5458
26.9334
31.541
30.0626
33.8001
33.9176
32.3863
28.9475
3.29395
25.2965
-5.93817
28.4683
31.6109
33.3278
31.179
30.5876
32.6866
31.9177
29.67
19.7947
-13.5373
-30.2368
8.26062
21.9373
27.0576
27.7469
28.8202
-32.2036
0.676217
28.9902
-35.3536
-27.673
-6.87932
-27.5128
10.5639
20.8604
-2.38392
34.3716
18.0552
-29.9628
-32.0427
-8.439
3.79603
9.61577
22.0302
12.0367
19.7076
16.865
12.168
32.4789
15.1216
15.9641
3.15825
-19.8114
5.09975
32.6395
27.4165
-35.1983
-65.8485
26.8683
18.1373
24.3448
24.3335
15.0438
14.0639
-57.6049
-73.202
-77.7236
-70.4055
-56.6789
-80.0916
-90.4433
34.1229
26.6738
6.5347
34.0473
-14.592
33.6972
-23.1954
3.59642
-16.3852
33.0926
33.7893
34.8975
27.5678
32.6178
29.767
30.4834
24.9016
32.605
28.0736
24.8033
32.3701
32.0549
31.7358
32.8218
17.451
-52.7401
-38.2945
-53.1606
-57.9572
33.1483
33.6306
32.5928
34.3487
32.6001
31.2694
32.3606
33.8332
30.3796
-33.8706
32.9176
33.8
33.5842
-35.7752
22.3086
24.3688
27.4044
25.951
32.7224
32.9923
33.8162
33.668
33.9313
31.3658
33.5234
32.9062
31.5263
32.7198
30.582
-18.6598
-19.4999
-10.9875
-24.0585
-27.1695
-29.9302
-18.9404
30.1604
32.4386
32.242
31.1939
26.724
33.0724
30.6768
32.3498
31.2945
32.3242
34.1445
30.6145
17.4505
30.1131
-56.8624
34.1068
24.0357
23.9433
24.8602
-75.8254
19.2651
14.0508
23.2934
22.4398
30.8369
-40.7261
22.0904
28.0604
32.2902
-20.002
-32.365
-14.7029
-65.4369
-74.372
-21.1636
-21.0831
10.4456
33.4076
32.7057
21.1613
-5.08714
20.4102
27.8584
16.0131
15.5944
10.0642
34.2618
34.8556
33.9702
33.4011
33.695
33.2014
-51.5171
33.3802
-8.412
18.2266
13.6251
11.1316
9.29802
24.8232
16.5964
15.4328
19.8906
33.4828
32.6608
-19.2206
32.376
3.87064
11.7526
24.9676
32.9897
30.2886
33.3861
28.1276
28.3137
28.8508
29.1946
32.4853
29.5501
29.097
-25.6995
-10.0538
26.6779
-12.1111
-22.0506
28.8296
27.0319
-17.1326
31.5498
-15.0595
-18.8614
32.7815
33.4483
33.4375
33.4578
33.6865
33.5272
33.6962
-16.9081
31.3269
31.2903
34.0799
34.3732
29.6284
34.7351
32.1125
32.2652
31.5079
24.1443
24.2677
22.9322
21.9082
-19.3771
31.3493
33.7378
-19.4489
33.9742
26.6581
28.5421
24.9184
34.0256
33.83
4.29023
-74.5375
-86.44
19.3642
31.2452
-84.427
33.0521
-24.9789
31.4866
24.2367
22.2001
21.535
20.8015
10.4954
8.96583
23.4172
10.3356
3.86967
22.1939
23.2693
17.2822
34.3209
6.66468
17.8559
24.8242
29.5704
19.5084
23.5463
27.1318
32.5474
25.5784
26.0818
25.0266
34.7256
32.0571
23.8785
33.1042
34.063
33.1034
-80.4136
22.0679
35.5495
33.5271
23.9591
34.9812
24.4485
27.1257
21.6718
33.6007
27.7918
4.38463
-50.4993
32.7216
30.0031
34.0868
34.0784
33.1956
34.4016
33.0853
35.0733
34.9296
33.834
34.2437
31.8796
32.3509
26.7111
18.2607
-41.4576
12.3953
28.0324
27.5582
26.0167
23.8507
18.7761
23.905
28.0019
30.052
34.0854
34.1156
33.1168
32.7882
33.7992
34.0665
27.8578
31.9767
32.1538
28.9013
-4.65453
-18.7985
24.3796
28.0074
18.0295
30.2208
33.8781
29.8294
27.5625
25.5637
30.6046
26.696
21.394
19.0182
20.586
32.388
21.5507
35.0958
33.0949
33.0485
33.4147
28.3647
33.1704
28.5959
-24.093
4.50635
-26.0655
27.2544
28.6955
27.4161
30.2048
32.6647
34.2217
30.4453
33.2193
35.1048
34.8208
30.0489
32.0648
22.6492
24.9265
33.8806
31.3118
26.2089
33.308
20.0191
20.6258
30.7608
34.6602
23.1238
34.3146
31.7371
32.0187
34.2775
-38.2218
-28.9134
29.1791
13.4549
32.8706
31.1523
29.6424
30.9422
-28.924
33.9711
-61.3572
16.7858
21.3237
20.5411
19.3288
28.0063
21.2988
19.5021
-18.5328
26.4685
32.7
30.0471
33.6827
34.0096
32.5782
33.6229
33.8777
33.1401
32.7629
27.2661
27.2161
31.7576
7.9301
30.592
5.24585
16.8529
14.2826
11.1907
25.5311
27.489
33.1628
32.6662
33.3224
22.5274
30.299
29.6001
-54.8366
32.5161
29.4662
33.6592
33.822
33.538
33.8425
33.0151
33.7231
33.4848
21.3203
21.0877
20.5079
21.5566
30.9138
34.8422
31.3775
20.2152
31.131
29.7325
19.5932
29.041
33.2401
29.9708
31.2856
21.3487
16.4125
20.4954
25.2629
22.4229
30.4249
28.8665
30.4993
29.9408
30.2072
30.1513
-48.8051
-64.2422
33.4815
29.4354
28.6889
19.9351
30.2226
22.7769
31.5059
34.0378
-62.5065
-53.9325
-64.0383
31.744
27.095
26.2793
28.8454
31.324
26.9452
32.7749
33.2252
33.4299
32.8495
33.9372
30.9674
28.2752
21.8514
33.6282
33.9938
24.207
34.1092
33.6796
34.4573
21.3975
26.9335
32.7576
24.5616
26.7044
31.1611
32.7785
22.2418
32.3117
31.8053
32.8021
33.0087
32.9418
0.847909
-3.54295
2.98758
26.43
25.5832
32.2305
31.7059
33.5589
33.4392
32.754
33.8919
33.7316
31.5204
31.7808
33.5586
33.7265
33.5352
33.7701
30.2847
34.212
33.0753
26.434
32.0145
29.4891
31.811
23.605
23.5932
24.5934
24.4928
24.0749
22.4865
24.9935
28.5219
21.3111
32.5339
34.4838
33.2502
31.4747
24.048
32.82
32.845
32.1508
21.7234
27.3414
20.6897
9.12266
19.3767
31.4961
31.953
31.9808
32.6973
31.8785
32.0103
7.80466
-5.61672
32.8086
32.7531
28.2909
32.2709
32.5549
33.018
34.0617
30.2454
31.7709
17.5549
-11.0807
16.9748
33.4051
19.8298
33.0158
32.6755
32.3192
21.011
33.2879
3.0754
22.9601
26.5159
26.84
23.103
26.2934
16.9624
33.9692
33.5536
32.8666
32.1817
34.6215
34.4122
33.1104
34.0208
34.4124
34.2768
34.8953
34.2058
27.9089
25.0287
21.1267
33.896
31.736
31.7713
22.8072
10.7353
20.809
21.5137
22.2798
30.2578
32.3319
27.5937
30.7759
33.4559
34.3411
28.6899
28.798
29.0348
19.1742
25.1789
8.00922
5.51204
9.33282
-1.19421
12.7166
25.3208
32.616
28.9564
31.1617
31.6896
31.0043
30.7803
33.3704
34.5514
32.1638
33.8774
33.2889
33.7991
31.5745
32.1656
-36.6977
14.9511
-4.20197
34.0409
33.8718
34.3356
33.5782
33.0576
34.0403
33.306
33.607
34.2532
33.5332
33.4354
26.3676
33.3124
33.4669
34.1004
34.13
33.8635
33.7872
33.7946
32.6206
33.2299
33.5874
32.6639
-43.463
32.6082
32.8956
31.1447
33.3663
32.1614
32.9474
29.9581
30.6415
30.8444
25.9274
29.4851
31.5894
31.7828
32.2793
29.6828
32.3883
32.8786
26.5291
32.1284
27.401
25.4805
22.981
22.2213
22.5203
12.1716
28.4739
24.7143
24.6103
11.7393
20.6309
28.6806
34.2334
29.6524
30.9368
27.7145
25.6596
30.4644
26.0165
31.631
28.1134
28.321
21.4942
19.4313
15.7541
13.1269
19.7727
-8.38478
29.0077
17.6215
29.9724
27.9187
22.6592
33.5494
34.3937
3.14018
27.853
26.9936
19.2038
26.6212
33.3096
34.233
34.201
34.0118
24.5252
34.5241
28.7449
21.2798
33.6254
22.5256
32.4097
31.3595
22.7032
19.6351
22.2818
26.9042
-64.2219
30.9836
32.4343
29.8305
32.5787
22.929
31.6545
31.4967
32.5299
-16.3127
31.4865
32.161
32.9991
32.1649
22.1386
32.0347
23.9178
31.7278
31.0985
26.5575
-14.0725
-22.0245
-4.39936
25.8696
23.0997
28.4467
29.6794
-2.52614
29.679
5.86161
32.3065
15.4233
16.5827
-3.02527
-6.40063
15.4724
0.921619
2.79528
11.8677
14.219
18.8321
18.0995
21.6051
1.74836
-69.8818
19.6564
34.3858
-80.1607
33.3397
31.1475
30.5393
31.6592
31.6973
32.0966
32.3415
1.06184
-20.0826
31.7052
31.5718
27.2455
-58.833