/*--------------------------------*- C++ -*----------------------------------*\
| =========                 |                                                 |
| \\      /  F ield         | OpenFOAM: The Open Source CFD Toolbox           |
|  \\    /   O peration     | Version:  2506                                  |
|   \\  /    A nd           | Website:  www.openfoam.com                      |
|    \\/     M anipulation  |                                                 |
\*---------------------------------------------------------------------------*/
FoamFile
{
    version     2.0;
    format      ascii;
    arch        "LSB;label=32;scalar=64";
    class       volVectorField;
    location    "0.0100321";
    object      U;
}
// * * * * * * * * * * * * * * * * * * * * * * * * * * * * * * * * * * * * * //

dimensions      [0 1 -1 0 0 0 0];

internalField   nonuniform List<vector> 
3923
(
(11.392 0.172397 0.705773)
(11.2816 0.0981056 0.603632)
(9.59496 -0.253651 0.266465)
(2.71006 -2.01719 -1.83804)
(7.99699 -5.29399 1.17749)
(7.19105 -5.16969 0.325374)
(6.31832 0.285181 0.824846)
(7.22946 -7.20545 0.680659)
(8.94377 -6.1106 2.33706)
(7.58624 -7.39324 1.42485)
(8.41095 -5.58909 2.47697)
(10.9918 0.122036 1.3615)
(9.68619 0.203112 -0.0759182)
(10.6986 -0.0696924 2.04183)
(9.98036 -0.186778 -0.197664)
(9.8916 -0.195567 0.174683)
(10.0397 -0.38634 0.159434)
(9.99348 -0.486227 0.190544)
(9.97316 -0.45872 0.125981)
(9.93117 -0.0877332 -0.252578)
(11.119 0.0165262 1.08276)
(10.8525 -0.256771 1.8842)
(9.8437 -0.40575 -0.11702)
(10.8242 -0.419042 1.7948)
(9.89068 0.0428262 -0.288099)
(10.9907 0.2335 1.4809)
(11.0952 0.177909 1.37397)
(10.8071 -0.0674115 1.37782)
(11.1413 0.227298 1.15778)
(11.029 0.236514 1.22687)
(11.0027 0.088426 1.21125)
(11.0584 0.163648 1.17087)
(10.9784 0.206055 1.20092)
(6.77594 -4.94297 0.0394787)
(6.31812 -4.75445 -0.750939)
(10.5561 -0.824944 0.86293)
(12.7687 -3.85036 1.71769)
(13.3892 -3.39539 2.07926)
(2.65252 -2.62643 -1.71171)
(9.98631 -1.90312 -3.0542)
(0.122553 4.30465 -0.741567)
(10.0668 -0.266109 -0.0325871)
(0.0711502 2.93723 -0.452072)
(-0.116927 4.81547 -0.290487)
(-0.461121 4.32775 -0.189825)
(-0.538406 3.28536 -0.704595)
(10.0425 -0.179142 0.0685531)
(-0.59984 -2.63717 -0.470791)
(10.0432 -0.235548 -0.070855)
(8.10783 -6.73085 2.47389)
(9.12067 -4.6294 2.48372)
(9.95771 -5.5194 0.850498)
(10.2302 -0.039361 0.199184)
(10.2884 -0.065371 0.04343)
(10.1758 0.0415062 0.189776)
(10.0538 0.184697 0.0552274)
(10.1079 0.178944 -0.198212)
(9.92149 -0.440041 0.045705)
(8.64243 -0.547246 1.56801)
(10.5743 -1.43478 1.99839)
(9.61096 -1.7324 0.904402)
(2.85951 -3.66156 -0.792531)
(9.79313 -0.499762 -0.032685)
(10.3947 -1.76206 0.0818689)
(9.91918 -0.165005 0.403665)
(10.183 -0.18625 0.0694731)
(9.49587 -0.890286 -2.09225)
(0.464134 -0.967236 2.52342)
(3.87169 -2.19097 -1.78044)
(8.94091 0.00855735 0.809497)
(10.1393 0.103685 0.168494)
(11.2469 -4.05399 1.14666)
(7.37298 -2.12868 -1.9012)
(8.91036 -4.89277 -0.41427)
(9.34212 -1.2828 -0.794484)
(9.39858 -4.9993 2.13827)
(10.3035 -0.296495 -0.252977)
(8.86899 -0.528133 1.07434)
(5.64004 -3.62802 1.75236)
(7.09264 -3.06685 -2.9105)
(-0.303778 -3.65752 -4.20893)
(10.9244 0.636184 2.38894)
(11.072 0.109145 1.01987)
(10.6281 -0.12773 1.1105)
(7.58833 -7.91691 1.79835)
(3.82364 -0.703125 -2.86915)
(11.2578 -1.85859 -0.291743)
(10.5879 -0.256849 0.987758)
(9.29317 -2.6808 -1.00602)
(9.04272 -4.31406 1.1532)
(10.7434 -0.0529482 0.661482)
(-1.00774 0.10457 0.0730273)
(10.828 -0.178948 1.10399)
(7.62055 -2.33833 0.64029)
(10.161 -0.238656 0.341844)
(9.91439 -0.360932 -0.136921)
(9.91455 -0.22898 0.25467)
(10.2794 -0.282782 0.212305)
(10.8404 -0.0768712 0.965537)
(10.1283 -0.694172 1.71174)
(9.96715 0.371845 0.178627)
(8.0588 -3.40523 -1.79058)
(9.95895 -0.0941763 -0.112894)
(10.3725 -0.218593 1.00926)
(10.4909 -2.18894 1.7791)
(9.09585 -0.475865 1.48384)
(9.6898 -0.160474 0.721323)
(-0.570801 0.526807 0.0702032)
(-0.942689 1.43664 0.57286)
(0.342792 2.14251 0.491187)
(-1.18634 1.92903 -0.964144)
(-1.60241 0.316194 -0.464745)
(9.95809 -0.0629048 0.0642866)
(9.87523 -0.295625 0.0704788)
(-0.457205 -1.00555 0.102921)
(-0.453107 -1.61295 0.0814997)
(-0.232738 -2.1854 0.394175)
(10.7824 0.183801 1.07041)
(7.26994 -5.63439 0.506204)
(-0.108789 -1.90558 0.159452)
(10.0329 -0.619815 -0.030796)
(-1.63969 1.02773 1.3897)
(9.55603 -2.18902 -1.66258)
(9.96688 -0.712764 -0.732364)
(5.03952 -3.92846 -3.32873)
(11.7533 0.198581 0.942014)
(10.3509 -0.00289514 0.957914)
(-0.200984 -1.85178 0.582153)
(0.0166201 -1.95485 0.307009)
(10.3935 0.102027 0.828282)
(11.4987 0.0609244 1.02586)
(-2.13033 -2.71836 -0.408084)
(-1.43451 -1.58053 -0.302932)
(9.97491 -0.260936 -0.0988815)
(9.80932 -0.479631 0.0646826)
(10.0238 -0.347989 0.197953)
(8.8497 -2.07579 0.134544)
(-0.995939 -1.78973 -0.157877)
(9.47712 -0.691858 -0.943272)
(10.4862 -0.693228 1.40088)
(11.2453 0.0784719 1.066)
(9.10569 -1.79867 -4.05617)
(10.4336 -0.11957 1.31148)
(9.69725 -0.388507 0.131689)
(11.1305 0.0487872 0.733877)
(10.0865 0.168504 0.00893098)
(-1.30931 -1.58324 1.20343)
(2.29147 -5.8818 -4.57245)
(9.87255 -0.312228 -0.530646)
(10.2668 -0.153802 0.0978082)
(9.93022 -0.376057 -0.111094)
(10.9165 0.155402 1.12183)
(8.72174 -3.5469 -0.554604)
(9.98184 -1.3785 -0.570477)
(10.0427 -0.875258 -0.563446)
(10.1926 -2.0087 3.03426)
(10.4203 -0.144867 0.152875)
(10.0743 -0.407754 -1.22622)
(9.68984 -1.2547 1.28514)
(9.28718 0.266167 0.135828)
(11.2413 -2.29129 0.508729)
(-0.173749 -2.05984 0.146571)
(6.08661 -1.29581 -2.53152)
(9.58946 0.0254326 0.355858)
(6.9063 -7.01765 0.107671)
(9.85729 -0.474933 0.189219)
(10.1763 -0.739898 -1.05355)
(9.58512 -0.62172 -0.468645)
(10.3726 -0.298819 0.187545)
(-0.554195 -2.3811 1.70484)
(10.538 -0.243785 0.619628)
(9.97645 -0.174404 0.1025)
(3.5418 -1.59721 -3.90861)
(-0.212157 5.31622 0.032196)
(-0.358807 5.18731 -0.133264)
(9.78766 -0.247599 0.0132873)
(9.7227 -0.534951 -0.166401)
(5.78314 -6.63464 -2.54393)
(9.19412 -2.269 -1.77616)
(9.6424 -0.400617 -0.158329)
(4.88179 -2.52158 -2.42864)
(-1.03662 3.83176 1.8625)
(9.80378 -0.283621 0.137913)
(-0.0706524 -4.20674 -0.526765)
(9.75842 -1.90914 -2.66711)
(9.40038 -0.753956 1.16215)
(10.1817 -0.170198 0.153865)
(9.68022 -1.42732 -0.795903)
(10.2741 -0.119203 0.54265)
(10.0864 -0.743264 -0.763738)
(10.3533 -0.106333 0.81472)
(9.57846 -1.9079 -1.33772)
(10.2544 -0.330826 -0.183325)
(10.1014 -0.0349528 0.00167545)
(10.2305 -0.836269 1.44899)
(5.76921 -6.57826 -3.90747)
(11.4131 0.452083 1.01532)
(0.483766 -6.32739 -0.718323)
(8.5746 -1.14037 0.957697)
(4.78206 -7.01701 -0.428269)
(7.00549 -5.87737 -1.83202)
(11.6358 0.0900761 1.03242)
(8.17411 -4.51329 -2.07859)
(10.1889 -1.08733 2.21142)
(10.2336 -0.414679 0.940897)
(9.87421 1.71666 2.30134)
(10.5132 -0.265302 0.329209)
(-0.8346 3.20974 -1.26649)
(9.80987 -0.344301 0.25946)
(9.26701 -0.774211 1.14414)
(-2.86897 -3.59038 -1.43888)
(10.0269 -1.43555 0.782344)
(7.32138 0.57213 -0.772971)
(10.1134 -0.123547 0.283869)
(3.30488 -2.67001 -1.70897)
(3.82486 -1.43441 -0.00453258)
(10.1179 0.204601 -0.24201)
(10.0516 -0.309624 0.274812)
(10.5535 -0.159948 1.10868)
(-0.119788 -2.08635 0.483519)
(-0.0422313 -1.98926 0.140593)
(-0.739253 -2.80223 -0.348833)
(-2.76513 -0.698346 -1.7712)
(-1.59825 1.76478 -2.16211)
(3.12563 -3.0633 -0.704962)
(10.6154 -0.206644 0.408215)
(10.0194 -0.769427 -1.15622)
(10.0887 0.103081 0.397288)
(9.8418 0.354554 -0.181812)
(9.89573 0.234103 -0.0324484)
(10.0299 0.170025 -0.0292812)
(9.36692 -0.205868 0.541311)
(9.98546 -0.489697 0.201149)
(9.90741 -0.363225 0.0828253)
(10.1044 -1.31405 0.450178)
(9.83767 -0.376055 0.237404)
(10.0648 -1.2495 0.426787)
(10.0905 -0.77817 0.549567)
(9.97695 -1.36534 0.681892)
(10.094 -1.08746 0.761062)
(10.1287 -0.843414 0.647522)
(10.1149 -0.669842 0.551314)
(10.5117 0.388461 1.06728)
(9.98569 -1.2374 0.484027)
(10.2885 0.526748 1.28312)
(-0.476756 -1.22037 -0.249506)
(5.77935 0.0285395 1.89353)
(9.88962 -0.947787 0.565497)
(9.8668 -0.952691 0.577232)
(9.88087 -0.841539 0.564578)
(10.1881 0.271842 1.77568)
(9.19332 -2.5041 0.397176)
(9.82002 -1.10924 0.359592)
(9.78993 -1.77491 0.143544)
(9.71722 -1.73741 0.235847)
(9.89282 -1.21869 0.493364)
(10.5793 0.214841 1.13347)
(3.23286 -1.86598 -0.0245183)
(10.1933 -0.93106 0.652289)
(9.86603 -1.29866 0.679301)
(10.6785 -0.153294 0.960019)
(10.7445 0.164308 0.930225)
(9.93514 -1.36431 0.681231)
(9.90228 -1.75276 0.124478)
(10.036 -0.978156 0.737002)
(9.88565 -1.10457 0.672274)
(10.4922 0.318594 1.12273)
(10.8589 0.162513 1.19747)
(9.39466 -2.00525 0.596704)
(9.69182 -2.09385 0.182935)
(9.7432 -1.4283 -0.148374)
(10.1935 0.234643 0.886322)
(9.89127 -1.0685 0.438943)
(9.7862 -1.01449 0.417666)
(9.94711 -0.653384 0.406739)
(10.0558 -0.56971 0.428492)
(9.79999 -1.00214 0.146619)
(10.0424 -0.593968 0.496112)
(9.93817 -0.590175 0.3831)
(10.0687 -0.632511 0.541351)
(9.80219 -0.852979 0.807455)
(9.75848 -1.0105 0.858758)
(9.86106 -0.798493 0.46855)
(10.057 -0.536407 0.383559)
(10.4969 -0.0218213 1.81826)
(9.98955 -0.000175839 0.630899)
(9.69051 -1.37948 -0.199925)
(9.48881 -2.30154 0.396223)
(10.1775 0.141396 0.622311)
(9.54887 -2.02913 0.466371)
(9.08163 -2.40184 0.555122)
(9.60357 -1.39752 0.276272)
(9.61812 -1.63537 -0.061051)
(9.64918 -1.59976 0.322658)
(10.0575 -0.250736 0.205842)
(3.85242 -2.55164 -1.46922)
(2.3942 -1.53843 -0.352185)
(-1.18938 -0.795841 -0.0653766)
(0.0702064 -0.402268 -0.139784)
(8.93894 0.0525646 0.307252)
(4.39841 -1.52858 0.134797)
(10.1058 0.188181 0.824137)
(-1.10016 0.201686 -0.33948)
(9.38504 0.149424 0.491309)
(10.4981 0.186165 0.998944)
(10.3408 0.237094 0.566145)
(5.59696 0.163351 1.32293)
(3.4487 -1.89586 -2.09981)
(4.64027 -5.08113 -2.40471)
(5.7309 -5.20698 -1.57185)
(5.69253 -5.47403 -1.58702)
(4.50215 -5.45852 -2.42449)
(5.23852 -4.85324 -1.88493)
(9.6646 0.0115198 1.14346)
(10.6099 -0.0906947 1.05851)
(9.27206 -0.68077 1.08493)
(7.80691 -0.727271 0.868839)
(10.5434 -0.125071 1.08288)
(11.1202 0.0375079 0.997069)
(11.0483 0.0280737 0.961024)
(10.5249 -0.254539 1.10285)
(10.3965 -0.205795 1.0896)
(10.5892 -0.173047 1.11076)
(10.3962 -0.0934088 1.10328)
(10.5146 -0.285228 1.21805)
(9.82509 -0.247744 1.13863)
(10.9364 0.0360568 1.05322)
(8.12648 -6.31479 1.01389)
(6.17087 -3.5782 0.0025099)
(10.7152 -1.03141 2.11904)
(10.7083 -1.44941 1.94535)
(10.071 -0.932506 0.84011)
(8.9295 -2.74552 1.58495)
(10.6712 -0.100431 1.0275)
(10.7285 -0.0947263 0.938779)
(10.6898 -0.117702 0.877523)
(10.612 -0.176204 0.783994)
(10.328 -1.26852 1.67433)
(10.2384 -1.25902 1.71344)
(10.2832 -1.55425 0.918614)
(10.6245 -0.0101521 1.15054)
(10.5002 -0.167273 1.18756)
(10.6937 -0.10046 1.06683)
(10.5618 -0.0637218 1.12284)
(8.70592 -2.67708 0.733541)
(9.42046 -1.80819 0.643635)
(9.31794 -1.79964 0.541898)
(9.88767 -1.58232 -0.261242)
(9.93503 -0.683267 0.895566)
(9.97246 -0.642936 1.13065)
(9.5831 -0.996608 1.00401)
(9.60126 -0.905133 1.33762)
(9.98731 -0.61234 0.99952)
(10.4237 -0.310559 0.649464)
(10.4656 -0.2832 0.665752)
(10.2918 -0.317824 0.503378)
(10.382 -0.119846 0.0262555)
(10.3867 -0.223591 0.250549)
(10.2761 -0.307715 0.373385)
(10.0887 -0.211917 0.271355)
(10.0341 -0.273484 0.385995)
(10.015 -0.158758 0.0626373)
(10.1292 -0.217223 0.134721)
(10.0054 -0.0975945 0.04351)
(10.0662 -0.169527 0.0828777)
(10.1095 -0.192419 0.0601731)
(10.0585 -0.229625 0.0660833)
(10.0682 -0.168179 0.0973121)
(10.0589 -0.233298 0.322937)
(10.138 -0.387062 0.117233)
(10.1902 -0.0874708 -0.121518)
(9.63748 -0.784637 1.58823)
(9.86605 -0.628403 1.3717)
(9.51494 -1.05 1.47575)
(9.64866 -0.166964 4.91453)
(9.48749 -0.150504 4.60046)
(9.4311 -0.262522 4.3719)
(8.19817 -3.60924 -0.795195)
(8.02938 -3.08998 -0.871056)
(8.10019 -3.40102 -0.821273)
(8.49344 -4.0697 0.503766)
(8.95527 -3.03556 0.705476)
(9.09519 -2.96915 0.503059)
(9.77945 -0.508836 0.0298354)
(9.7079 -0.558078 0.0586982)
(9.71124 -0.682909 -0.0764592)
(9.75627 -0.589601 -0.0554959)
(9.96693 -0.346224 0.0753476)
(9.99437 -0.328278 0.145437)
(1.04736 -4.84114 -2.04916)
(0.229768 -4.35121 -1.66495)
(1.62213 -6.94708 -0.588761)
(10.8351 -0.0131038 1.00299)
(10.7135 -0.0662053 1.10613)
(10.5519 -0.0758472 1.17967)
(10.0156 0.102734 1.05375)
(10.6952 0.0242598 1.15382)
(9.96787 0.129157 1.17756)
(4.95713 -2.2955 -0.0791479)
(9.37505 -0.575513 0.195857)
(9.63918 -0.572203 0.315962)
(9.54508 -0.660261 0.374486)
(9.25408 -0.680328 0.295213)
(9.48664 -0.487711 0.231172)
(10.676 -0.061906 1.57764)
(10.5814 -0.0114456 1.26725)
(10.5951 -0.162584 0.990462)
(10.6572 -0.0968271 1.27536)
(10.6858 -0.107146 1.42773)
(10.8752 -1.66191 0.896041)
(11.0445 -2.69853 0.873745)
(10.9952 -2.55117 0.611005)
(9.50898 -3.38342 1.79516)
(9.21062 -4.12958 1.77557)
(9.02765 -4.17022 1.55562)
(9.38802 -4.01317 1.62361)
(9.73091 -3.41707 1.4935)
(9.73599 -3.22007 1.63168)
(9.06516 -3.84925 1.56939)
(10.8552 -0.453673 1.63225)
(10.8038 -0.467532 1.5405)
(10.2383 -0.160984 1.84537)
(10.6908 -0.776425 1.74697)
(10.2798 -0.902424 0.70904)
(8.41192 -2.93683 -0.25338)
(9.64309 -1.20573 -0.0923453)
(9.56898 -1.45208 -0.0180255)
(10.7507 -0.0691628 0.997519)
(10.0864 -0.556782 0.708197)
(5.76248 -7.53717 1.93213)
(9.4965 -1.17505 -0.0914453)
(10.5912 0.0799278 0.447264)
(11.0119 0.0246919 0.779788)
(11.6342 -2.88326 -0.668833)
(10.7827 -0.0312167 1.09975)
(0.920107 4.67466 0.00914134)
(9.71164 -1.31095 4.43716)
(8.51205 -7.90609 2.04314)
(8.61116 -2.73998 -2.74929)
(10.3561 -2.21142 1.31708)
(-0.118801 -2.30157 -0.237661)
(9.83389 -0.17937 0.102295)
(10.1192 -0.184132 0.640423)
(10.427 -5.26532 -0.153131)
(9.95829 -0.403329 -0.0315216)
(10.1198 -0.324678 0.175313)
(10.2796 -0.715227 1.4053)
(8.36952 -4.57326 2.40609)
(9.97857 -0.336007 0.366556)
(11.4058 -3.30869 1.46001)
(9.09922 0.210611 0.229661)
(10.7689 -4.17301 1.91406)
(4.1318 -4.45308 -5.351)
(5.57032 -8.24703 0.928323)
(10.5682 -0.471311 1.53098)
(10.1277 -0.116173 0.197768)
(4.59339 -3.37593 -1.23094)
(10.298 -0.312188 0.225182)
(10.0261 0.0547631 0.457761)
(10.2623 -0.168941 0.817424)
(5.07732 -2.10276 -0.276964)
(9.34493 -1.02425 0.78203)
(10.668 -3.26777 0.902904)
(10.0806 -0.503576 0.346059)
(9.97396 0.299758 0.778369)
(10.3963 -1.53355 3.15463)
(9.31188 -0.00803252 -0.282922)
(10.1166 -1.46497 -0.437551)
(5.38469 -3.60676 -1.65335)
(7.10633 1.23298 -1.24387)
(10.3407 -0.332433 0.616059)
(10.5279 -0.227463 0.768518)
(2.95911 -3.59498 -1.3124)
(10.6116 -0.207533 0.686649)
(10.8807 -1.79953 -0.738913)
(9.41452 -3.05846 4.06816)
(5.21432 -3.20026 -1.62363)
(9.47277 -0.557055 1.84947)
(10.1495 0.261162 0.0502583)
(9.70995 -0.1811 -0.138599)
(10.4281 -0.253445 1.06494)
(10.7949 0.517701 1.24644)
(8.70099 -1.9065 0.748467)
(10.3724 -3.48616 -3.19198)
(3.72451 -5.96435 -3.6248)
(9.94824 -0.670406 0.832167)
(9.99296 -0.288401 0.108394)
(9.8305 -0.8133 -0.204968)
(9.80478 -0.644659 0.554686)
(7.35267 -5.31255 -0.159099)
(-0.989816 0.68608 0.0551098)
(2.84413 -1.1317 -0.493439)
(10.5018 -0.118721 0.78501)
(3.39065 -2.73037 -2.86388)
(9.72872 -0.397627 0.416946)
(9.67427 -0.417375 0.477626)
(9.76465 -0.657598 0.217362)
(1.83432 1.17897 -0.862573)
(8.4793 -2.28008 -0.74291)
(4.91713 -3.27009 0.213205)
(9.57645 -0.720075 0.248771)
(9.97201 -0.0801171 0.245869)
(10.0262 -0.371406 0.386488)
(10.0392 -0.229188 0.156093)
(8.89697 -1.16413 -0.286875)
(10.0741 0.10276 -0.268948)
(10.2387 0.122927 1.11848)
(9.48641 -0.467111 0.698207)
(10.1178 -0.193519 -0.00118594)
(9.98444 -0.138298 -0.220954)
(10.594 -0.259478 0.659431)
(0.525173 3.56681 0.0224576)
(10.381 -0.379216 1.19348)
(6.91352 -3.66661 -0.669745)
(9.5564 -0.423034 0.0925319)
(7.283 0.161348 2.67185)
(10.0547 0.0178468 0.00689165)
(10.2589 -0.0658544 -0.215189)
(10.5699 -0.541616 1.79515)
(9.43436 -0.478576 1.36107)
(10.4356 -0.208422 3.34372)
(9.20397 -1.52127 -0.146874)
(9.09602 -2.3239 1.7412)
(10.2684 -0.488726 0.960886)
(9.89432 -0.557355 0.617067)
(8.7899 -1.08246 1.53762)
(8.49685 -1.81756 0.136483)
(9.90213 -2.26995 2.95243)
(4.40471 -2.69752 -0.525983)
(9.64392 -2.49512 1.55244)
(8.11987 -2.69831 -0.193267)
(9.51889 -1.78275 5.04167)
(10.7965 -0.0219047 1.0433)
(10.3211 -0.0595711 1.91174)
(9.69156 -3.36328 0.0137347)
(7.61833 -1.66328 1.21984)
(10.2647 0.158917 1.3312)
(10.4907 -0.187406 0.337022)
(4.67266 -2.57879 -1.52733)
(6.86013 -4.00712 -0.748315)
(9.71209 0.396962 2.82409)
(9.87821 -3.0696 1.78304)
(10.4427 -2.06429 3.37158)
(10.0234 -0.721349 1.01331)
(10.6308 -0.1517 0.857285)
(9.50543 -2.79857 2.60274)
(10.7489 -0.0620775 1.04314)
(10.3952 -0.237081 1.11791)
(10.3042 -0.314635 1.34982)
(1.73611 -6.05917 -5.79747)
(6.54765 -5.88354 -0.576844)
(11.1228 0.278486 1.18008)
(6.29887 -4.31446 -1.74012)
(7.39217 0.580223 3.27313)
(10.8944 -0.0494217 0.850941)
(0.32517 -3.08785 -0.237316)
(6.17285 -2.60322 -0.722722)
(10.5518 -0.190119 1.03855)
(-0.759414 4.35679 0.581776)
(9.81738 -1.88538 2.24157)
(10.4822 -0.251569 0.801399)
(5.11957 1.5634 0.489601)
(8.8117 -5.43935 1.07428)
(9.36454 -2.89833 2.30557)
(10.074 -0.913573 1.05989)
(11.6478 -1.99806 0.682425)
(-1.48961 -4.04333 -0.314287)
(8.46566 -5.80382 -1.35363)
(10.0997 -0.316909 1.17965)
(10.7247 -1.87611 2.50546)
(10.0556 -2.22586 1.5798)
(10.2822 -0.375033 1.67329)
(10.0188 -0.756079 -0.292291)
(10.7608 -0.165564 1.04383)
(9.85496 -0.409285 1.33933)
(10.1872 1.35449 2.2462)
(9.12174 -1.44355 0.727941)
(9.82423 -0.808191 0.826622)
(9.43663 -0.790441 -0.337169)
(9.80005 -0.448655 0.617586)
(11.1782 0.153886 0.993611)
(10.3871 -1.2942 2.29613)
(-2.40334 -2.40959 -0.717207)
(8.86934 -6.05832 2.75064)
(-2.14956 -2.31706 -0.23613)
(9.7565 0.726956 0.212929)
(1.58435 -7.30125 0.513461)
(10.2857 -6.21399 2.97383)
(10.3008 -1.56588 3.09394)
(10.6542 -0.172034 0.865676)
(10.0459 -0.0427422 0.248983)
(4.41603 -1.49548 -0.797725)
(10.8646 -0.0407968 0.626697)
(10.4548 -0.0882744 0.6712)
(9.51761 -0.579146 0.753314)
(5.00459 -4.69688 0.726078)
(7.25478 -2.93302 -0.944127)
(5.58521 -4.20523 -1.4259)
(9.87934 -0.102288 -0.171915)
(2.26121 -0.267314 -1.85718)
(10.3796 -0.254717 1.15196)
(9.59747 -0.367425 -0.331672)
(9.82898 -0.309493 0.540832)
(9.95618 0.0104172 -0.0166005)
(6.87501 -4.61247 -1.63375)
(10.3785 -1.85428 0.946634)
(7.00544 -3.10321 -1.61705)
(9.3322 -1.12747 -3.09868)
(9.85525 -0.51133 0.203088)
(10.529 -1.13954 -3.52804)
(9.72732 -0.654362 -0.445423)
(8.72693 -2.31459 -2.36956)
(9.69889 -1.74106 -0.928357)
(10.0722 -2.88355 -0.811778)
(11.172 0.0136845 -3.41111)
(-0.799109 -5.54834 -3.04146)
(-0.6355 -4.87935 -4.30546)
(10.1032 -5.23845 1.99875)
(7.21632 -4.59236 -5.37615)
(10.2242 -5.14146 -1.82066)
(-0.424045 -2.95867 -1.4418)
(10.5278 0.273529 0.997702)
(7.87327 -3.96761 2.11886)
(8.99082 -5.1992 -1.7883)
(8.17164 -2.48502 -0.0976869)
(2.39762 1.18456 0.500573)
(10.0222 -0.0863251 -0.00901256)
(9.99247 -0.184753 -0.112892)
(2.69417 -6.03068 -1.01579)
(8.62576 -1.33302 1.35027)
(3.90586 -3.93396 -6.24765)
(9.70159 -0.0196125 0.00414292)
(4.62395 -3.84968 -4.13129)
(10.0256 -0.24877 -0.355176)
(10.0457 -0.980576 -0.955679)
(9.97851 -0.034102 -0.155)
(0.637338 4.87933 -0.204992)
(-1.36511 2.71204 -1.20176)
(-3.36376 -4.43799 -2.99963)
(10.3171 -0.874238 -0.915813)
(0.342261 -2.22764 2.2071)
(-0.919246 -3.07174 -1.10916)
(10.3343 -1.53698 0.780078)
(-1.66199 1.97464 -0.369193)
(10.073 -1.35729 -0.359516)
(-2.0319 -1.83377 1.65946)
(10.0429 -0.105729 0.0998598)
(7.79573 -1.09563 0.885404)
(8.69758 -6.94569 4.70839)
(10.9838 -3.88175 1.90979)
(6.84542 -5.56381 -0.959291)
(8.14111 1.1336 0.217047)
(10.0953 -1.21385 4.63616)
(10.3338 -0.0983722 3.49905)
(2.91436 -5.31711 -7.08196)
(9.47069 -3.90112 2.89444)
(8.81765 -4.67717 -0.326878)
(-2.48947 -5.51988 -3.39555)
(6.2867 -3.62136 -1.11598)
(9.47882 -0.738683 -0.184423)
(1.11897 -2.15701 -1.1261)
(-1.35191 -2.67468 2.09495)
(-0.568356 -5.76144 -1.55028)
(0.519162 -3.19225 -0.652228)
(6.93929 -2.93132 -2.87918)
(10.9545 -3.00458 -0.989195)
(3.54842 -2.68068 -1.47338)
(10.2421 -2.88106 1.74976)
(9.68183 -0.119513 0.105455)
(10.0257 -0.241072 0.00982484)
(10.208 0.0320973 0.0318537)
(9.93892 -0.322051 -0.231308)
(10.2621 -0.357062 -0.221819)
(10.2282 -0.181624 0.276324)
(9.9791 -0.34841 -0.0903885)
(10.0975 -0.339287 0.211579)
(9.76407 0.146472 0.0314533)
(10.099 -3.44165 -3.39517)
(9.58759 -3.50564 -3.55955)
(10.3164 -0.69798 -0.532619)
(9.69424 -4.88191 -1.29742)
(10.0969 0.3723 0.0857267)
(9.95891 -0.28589 -0.0734501)
(10.0772 -0.350481 0.107359)
(9.94588 -0.209583 0.104933)
(9.85474 -0.270387 0.0174043)
(10.4336 -1.21296 -0.797107)
(4.84342 -1.25841 -5.44738)
(10.0312 -0.239145 -0.115572)
(9.44527 -0.683004 -0.737098)
(9.48888 -0.732898 0.367567)
(10.1145 -0.443244 -0.396104)
(10.24 -0.091137 0.070601)
(9.9418 -0.0925043 -0.0225651)
(10.2713 -0.319101 -0.311773)
(10.0487 -0.302112 0.136472)
(-0.56884 2.7996 0.398397)
(10.1267 -0.174904 0.28116)
(9.94209 -0.301796 0.0407064)
(9.99789 0.188659 0.140239)
(7.81635 -1.77378 0.0308892)
(5.95121 1.12139 -2.28282)
(9.82865 -3.46729 1.76849)
(10.3767 -0.263387 1.02285)
(7.97076 -7.2245 2.90772)
(10.849 -0.0868451 2.08735)
(8.95894 0.222165 0.313846)
(8.70532 -7.84891 2.78216)
(7.28383 -5.61991 0.19167)
(11.238 0.174013 2.03047)
(6.43295 -3.02556 1.18226)
(10.1273 1.20878 2.15256)
(9.69208 -0.482098 -0.000851776)
(-2.5005 -3.11542 -0.58177)
(10.0017 0.218434 0.555607)
(0.206463 5.08401 0.037407)
(-2.91544 -3.05472 -1.85803)
(0.530969 5.36358 -0.356271)
(4.26254 -1.53928 0.169236)
(10.8202 -3.87061 0.565997)
(7.53931 -7.79503 2.42415)
(0.444983 3.83588 0.309818)
(-1.88217 -3.02157 -0.842285)
(7.18411 -4.505 -0.996541)
(10.4771 -0.188877 1.13699)
(1.07234 3.60237 -0.583318)
(-1.2069 -3.05931 -1.26941)
(7.01129 -4.45551 -1.00843)
(-0.233624 -1.9932 5.02619)
(0.18484 3.1107 0.12853)
(-0.537507 4.84196 -1.31157)
(9.85998 -0.269829 -0.0589738)
(10.1363 -0.244921 0.115387)
(9.77418 -0.199609 -0.0792197)
(10.0902 -0.202843 -0.0965417)
(10.2748 -0.876364 -1.0837)
(10.025 -0.345384 -0.281916)
(-0.449889 -2.56864 -0.225459)
(9.70353 0.447138 -1.00157)
(10.3994 -0.278801 0.807918)
(10.0485 -0.248949 -0.0261358)
(9.47448 -0.647291 0.741896)
(9.97423 -0.0819956 -0.06395)
(-0.643248 -2.31427 -0.018137)
(10.1132 0.152102 0.0958782)
(10.1176 -0.442287 -0.207953)
(10.3991 -0.236158 1.18324)
(8.83634 -2.93037 1.8763)
(10.1271 -0.157162 0.0649344)
(9.93385 -0.358314 0.243043)
(9.36506 -1.51588 0.394857)
(11.344 -2.6791 0.937133)
(-0.838772 -2.29623 -0.180606)
(-0.950285 -2.7296 0.819223)
(9.5938 -1.14074 0.907993)
(9.74152 -0.738964 -1.37397)
(10.1763 -0.891031 -0.559486)
(10.3976 -0.477993 1.20982)
(9.98691 -0.07627 0.115127)
(9.22363 -0.915001 0.868922)
(10.2626 -0.431223 0.758843)
(8.08065 -5.01569 0.235904)
(4.38068 -3.82928 1.01765)
(10.3087 -0.15124 0.834009)
(10.1245 -0.183894 0.539578)
(9.88231 -0.529691 0.87101)
(4.2871 -1.28041 0.208577)
(0.441416 -4.012 0.1069)
(3.12569 -6.87786 -1.32936)
(4.25373 -4.04198 -3.25759)
(9.41775 -0.958777 0.0135775)
(10.3529 -1.30827 -1.21255)
(9.14711 0.945118 0.304845)
(1.37217 -1.38101 0.255326)
(9.09026 -6.4426 5.37412)
(0.201237 4.62981 -1.35055)
(5.18833 -6.00673 -3.71884)
(10.8169 -5.14391 -1.23098)
(10.2536 -1.68989 -0.569699)
(6.15225 -6.08271 -2.07887)
(9.999 0.152838 0.0554898)
(6.50503 -6.43183 -0.706998)
(9.02346 -5.50965 0.567039)
(1.68757 -5.51046 -3.01611)
(10.3399 -1.23863 -1.12824)
(9.56446 -1.42496 -0.881127)
(7.59668 -5.47134 -0.186974)
(6.54084 -4.06649 -3.90119)
(-0.301603 -6.12837 -1.2369)
(10.1458 -0.345596 1.27685)
(9.91632 -0.451722 0.782577)
(10.1486 -0.115384 -0.174215)
(6.14775 -3.93261 2.87775)
(9.78356 -0.377277 0.122343)
(9.69487 -0.373037 -0.0785636)
(3.53576 -2.68811 -2.059)
(7.16076 -2.82727 -1.37643)
(8.18447 -3.14747 -2.54205)
(10.6294 -0.140939 1.09427)
(9.81898 -1.67012 -0.236994)
(10.0087 -1.91298 1.50145)
(9.78789 -0.842411 -0.633376)
(9.43192 -0.764569 -0.928428)
(2.40203 -5.66264 -2.58539)
(9.98833 -0.192536 0.42493)
(10.0468 -0.162342 -0.185955)
(9.35558 -1.0466 0.700662)
(9.99581 -0.247871 -0.00117016)
(10.007 -0.394797 0.235963)
(9.78036 -0.504434 0.12217)
(10.2746 0.303002 -0.178501)
(10.2 -0.307837 0.335737)
(9.96329 -0.501169 1.01619)
(-0.294161 4.55265 -0.290177)
(4.76622 -4.11549 1.04839)
(11.4118 0.22826 0.91224)
(10.7235 -0.105209 0.543692)
(8.53616 -0.130199 0.372241)
(10.8082 -0.111926 1.02684)
(6.69619 0.300083 0.0472716)
(10.6812 -0.0896013 0.753543)
(10.3667 -0.218295 0.716668)
(7.26974 -4.11472 0.0819065)
(6.77166 -6.71481 -0.380612)
(8.63036 -4.96083 1.20813)
(10.4375 -0.248381 1.00894)
(10.6795 -0.0496459 0.54517)
(10.2366 -0.307518 0.611394)
(10.1928 -0.352233 0.997525)
(10.1452 -0.390037 0.728998)
(10.5887 -0.148049 0.781629)
(10.6356 -0.12428 0.491723)
(10.0216 -0.432528 1.12889)
(5.70529 -5.24304 0.112519)
(9.07317 0.0565461 0.641726)
(5.76598 -1.7693 -1.55322)
(10.4654 -1.10627 2.87817)
(4.62793 -2.17745 -1.4017)
(4.36844 -1.85875 -1.25126)
(7.9237 -6.79643 -0.191705)
(10.5848 -0.1726 1.14012)
(11.5414 0.151697 0.838579)
(6.13953 -5.17728 -1.0884)
(4.91414 -1.01221 -0.0082522)
(10.8782 -0.0569422 0.717822)
(-0.798796 -2.47742 0.484783)
(9.96491 -0.424617 -0.140407)
(10.6999 -0.13308 0.812635)
(-1.04631 -1.64136 0.706575)
(10.9836 -0.0347655 0.499355)
(8.19388 -0.817051 0.646015)
(8.79544 -0.467614 0.00895864)
(10.0313 -0.164873 -0.232023)
(9.48945 -0.321562 -0.412726)
(9.92514 -0.772276 -1.67276)
(11.3401 0.12684 0.939755)
(11.0717 0.115382 0.822578)
(10.1634 0.0352346 0.357182)
(9.89323 -0.53628 0.787085)
(9.96604 -0.470921 0.918584)
(9.61591 -0.591535 0.894739)
(9.63107 -0.616869 0.746958)
(9.97643 -0.233034 -0.0703822)
(10.077 -0.413828 -0.139357)
(-1.33541 -2.30597 -0.443244)
(-0.950406 -4.91794 -2.96478)
(10.5955 -0.0921714 -3.51874)
(10.7127 -0.762562 -1.91449)
(8.91719 -1.384 -1.27888)
(10.1185 -0.156231 0.530749)
(8.96073 -1.00545 -0.941238)
(9.05388 -0.958531 -1.15919)
(4.94177 -3.54192 -3.60121)
(10.0747 -0.0421378 -0.000638439)
(10.1642 -0.00222485 0.243596)
(-2.4039 0.599133 -0.404793)
(-2.51438 -1.8797 -0.246956)
(-0.811893 -4.0736 -3.02464)
(-0.207489 -6.63403 -5.91777)
(0.0265083 -2.12543 0.177879)
(10.6638 -2.69877 2.92137)
(10.6241 -3.5261 3.48086)
(10.6297 -2.65778 2.81304)
(10.9879 -1.85113 2.6901)
(4.06354 -4.00714 0.253634)
(9.8577 -2.30246 -0.232944)
(10.1887 -1.92028 -0.151957)
(9.78767 -2.19111 -0.177996)
(9.98029 -1.78575 -0.229106)
(-0.391317 -3.26391 -0.524226)
(6.96523 -3.88738 0.81053)
(4.28799 -4.22535 1.93287)
(6.77441 -4.32406 1.73691)
(-0.178975 -3.46835 -2.16736)
(-1.31295 -3.77688 -2.34392)
(7.19434 -6.619 0.0133933)
(-3.19642 -1.84279 -1.98216)
(7.28064 -7.44787 0.996398)
(6.82451 -7.4705 0.415222)
(6.13437 -7.30363 0.272172)
(0.579481 0.872942 -0.78406)
(-0.389569 -2.58002 1.36368)
(0.114609 4.1757 -0.715094)
(-0.771367 -4.79168 -3.75117)
(7.04782 -3.2719 -3.2883)
(6.48367 -3.33732 -2.67015)
(-0.801703 -3.98158 -2.61173)
(10.1764 -0.197066 0.225251)
(-0.930989 -1.82571 0.501814)
(10.6378 -0.0991972 1.15219)
(10.3273 -0.815161 1.52144)
(-0.708602 -2.02019 0.50117)
(9.94523 -0.193959 -0.0770761)
(10.232 -0.320515 0.436074)
(9.96548 -0.234459 0.0371062)
(-0.808707 -1.5946 0.609766)
(13.6147 -2.5506 0.871692)
(12.5247 -3.34458 0.121853)
(10.2183 -0.324866 0.378865)
(10.5755 -0.201185 0.74867)
(9.82544 -0.70034 0.0154616)
(6.25567 0.0872074 1.00866)
(10.1967 -0.483903 1.06882)
(7.37749 -1.11954 0.993355)
(10.2414 -0.622451 0.963712)
(11.7673 -4.91289 0.591593)
(10.5468 -0.195419 0.836434)
(-0.856631 -2.14338 0.633805)
(11.3628 -0.0978347 1.06698)
(9.73975 -0.55525 0.986009)
(10.746 0.456987 1.75283)
(8.14672 -5.51655 1.03451)
(11.6711 -3.91202 1.07205)
(4.26513 -2.34732 -0.980966)
(0.629982 -5.73592 -4.51704)
(6.30178 -3.60221 0.23657)
(8.60217 -6.44893 2.01501)
(10.6421 0.743485 2.27593)
(8.73553 -5.84108 0.412428)
(9.74391 -2.67637 0.93158)
(0.132031 0.0488999 4.03913)
(-0.0110964 4.35672 -1.05247)
(10.626 0.418327 0.398526)
(9.43248 0.305321 0.752676)
(9.66995 -0.308235 0.141333)
(9.91467 -0.014596 -0.0829207)
(10.1402 -2.72964 3.16122)
(8.68088 -7.22304 2.21666)
(8.6378 -0.9946 -0.559145)
(8.97799 -2.64523 -1.11455)
(9.7811 -3.02625 -0.775373)
(11.3882 -2.30466 1.01696)
(3.24625 -6.52165 -2.36555)
(5.77323 -6.32904 0.221017)
(7.92766 -6.31802 0.971877)
(9.73618 0.124271 0.391444)
(10.1003 -0.39723 1.07956)
(11.2802 0.173401 0.998242)
(8.75653 -0.888092 1.26417)
(2.589 -4.60553 -2.81152)
(10.1981 -1.83046 -0.649824)
(3.20325 -2.13185 -1.99141)
(10.4959 -0.205797 1.13666)
(4.02896 -1.31792 0.698745)
(7.1187 -1.19121 0.692004)
(10.6719 0.0854518 1.41286)
(10.0904 0.396125 3.46373)
(9.03728 -0.540818 2.04639)
(10.4106 0.0112798 1.16107)
(10.1328 -2.36378 2.61844)
(8.98988 -0.546348 1.07822)
(10.0944 -0.399579 0.859741)
(11.3619 0.214083 0.920374)
(4.83976 -3.49892 -1.25094)
(9.93767 -0.588897 0.222753)
(9.77554 -0.292157 0.0332908)
(10.0332 -0.34746 0.33238)
(9.44124 -0.398721 1.92095)
(5.01379 -1.39183 -2.05027)
(10.1165 -0.242572 -0.220331)
(8.55366 -0.958075 1.04269)
(10.0232 -2.42303 0.0571942)
(10.2591 -0.0733789 0.143009)
(10.8712 0.495466 1.39849)
(10.1259 -0.414192 0.711569)
(10.2832 -0.0673422 0.112749)
(10.2837 -0.142392 0.119177)
(10.0516 -0.327873 0.315235)
(9.82275 -0.326378 0.210918)
(1.52525 -3.22842 -2.48968)
(9.88247 -0.115436 0.0900565)
(10.049 -0.274345 0.230274)
(9.76221 -0.239966 0.00147322)
(9.98484 -0.233703 -0.0142303)
(10.2262 -0.283385 0.227469)
(-1.32406 -1.83049 -0.0933701)
(0.162993 -3.08076 -1.34244)
(10.0391 -0.285691 0.158719)
(10.2097 -0.137988 0.148593)
(10.1769 -0.29667 0.330414)
(9.73403 -0.494063 0.412691)
(9.22328 -0.787737 1.08224)
(10.6421 -0.143557 0.747889)
(9.98487 -0.269901 0.279276)
(9.99501 -0.692048 0.0192714)
(9.62468 -0.635125 1.39649)
(11.0362 0.00715088 1.06964)
(9.66925 -0.444307 -0.183221)
(10.1937 -0.273999 0.483994)
(7.46746 -2.90701 -4.7335)
(9.10081 -2.64356 2.12795)
(6.41324 -3.18729 -0.470269)
(10.5645 0.150512 0.538413)
(9.41675 -0.698787 1.35928)
(10.0487 -0.579153 0.232202)
(9.42389 -2.07553 -0.372573)
(10.8872 0.00583687 1.03428)
(-0.561766 -6.29929 -5.12406)
(10.0419 -0.623485 4.16046)
(10.2011 -2.17185 1.59698)
(10.4676 -0.845163 2.87937)
(5.00023 -2.80499 -1.45978)
(10.2315 -1.19987 1.1443)
(9.92148 -0.46074 1.25178)
(9.62796 -1.09074 -1.41248)