/*--------------------------------*- C++ -*----------------------------------*\
| =========                 |                                                 |
| \\      /  F ield         | OpenFOAM: The Open Source CFD Toolbox           |
|  \\    /   O peration     | Version:  2506                                  |
|   \\  /    A nd           | Website:  www.openfoam.com                      |
|    \\/     M anipulation  |                                                 |
\*---------------------------------------------------------------------------*/
FoamFile
{
    version     2.0;
    format      ascii;
    arch        "LSB;label=32;scalar=64";
    class       volScalarField;
    location    "0.0380695";
    object      k;
}
// * * * * * * * * * * * * * * * * * * * * * * * * * * * * * * * * * * * * * //

dimensions      [0 2 -2 0 0 0 0];

internalField   nonuniform List<scalar> 
47425
(
0.336395
0.36371
0.337015
0.335478
0.496084
0.345085
0.456091
0.348431
0.366915
1.12164
0.354308
0.35431
0.395886
0.336659
0.335885
0.352723
0.33599
0.373989
1.08537
0.552835
0.341286
0.340933
0.351083
0.339844
0.344714
0.333952
0.330262
0.864878
0.328853
0.337884
0.349333
0.345647
0.356611
0.33772
0.337026
0.348612
0.338734
0.363594
0.33749
0.339896
0.37842
0.417727
0.624321
0.378465
0.97216
0.375475
0.350441
0.352694
0.336334
0.335586
0.823475
0.581799
0.332362
0.925487
0.385105
0.370988
0.335086
0.335875
0.467788
0.341982
1.04607
0.801862
0.856223
0.361464
0.364493
0.341686
0.3482
0.370539
0.864596
0.354426
0.334093
0.336434
0.33655
0.343097
0.873619
0.368736
0.858285
0.339063
0.905297
0.555944
0.901571
0.342675
0.344295
0.351108
0.335414
0.344227
0.334051
0.333446
0.552201
0.658332
0.346851
0.359597
0.340458
0.379715
0.391244
0.375713
0.335181
0.33362
0.331021
0.377801
0.345372
0.469167
0.342042
0.493228
0.338671
0.36712
0.334914
0.337102
0.341341
0.34963
0.910126
0.343658
0.409754
0.361942
0.353176
0.854592
0.350765
0.67952
0.363296
0.361637
0.336928
0.362786
0.352659
0.377655
0.365955
0.402742
0.345913
0.364924
0.366292
0.339415
0.345054
0.355011
0.548204
0.371489
0.409751
0.375089
0.346607
0.408354
0.337947
0.335371
0.356844
0.388805
0.35078
0.45647
0.356386
0.366243
0.452385
0.346838
0.375544
0.363156
0.453893
0.820889
0.360531
0.835801
0.367257
0.348421
0.372329
0.948806
0.376335
0.357215
0.364548
0.337741
0.335761
0.34198
0.755477
0.877935
0.348095
0.880633
0.35465
0.894063
0.880981
0.37056
0.354604
0.354443
0.374022
0.417242
0.871838
0.329237
0.335308
0.337713
0.862717
0.332323
0.330944
0.340064
0.335587
0.345643
0.339624
0.464676
0.364626
0.33239
0.358238
0.332269
0.453592
0.365349
0.341729
0.349566
0.360638
0.350719
0.36085
0.322691
0.355965
0.368726
0.340432
0.350808
0.3714
0.37827
0.32949
0.347726
0.364345
0.362174
0.330594
0.335344
0.354303
0.327725
0.338295
0.343842
0.332751
0.604777
0.374425
0.368998
0.586604
0.314222
0.515165
0.328689
0.400865
0.564921
0.338919
0.351643
0.377425
0.412985
0.33122
0.347501
0.372712
0.369398
0.377299
0.344817
0.594549
0.361393
0.560447
0.372691
0.347133
0.333702
0.338301
0.344222
0.337831
0.362897
0.334153
0.358896
0.334165
0.336858
0.336651
0.542938
0.341843
0.365718
0.34486
0.334985
0.339407
0.381517
0.333068
0.357865
0.397809
0.355131
0.336857
0.372937
0.404657
0.371528
0.33891
0.402585
0.333311
0.348038
0.340022
0.543815
0.587818
0.33544
0.53469
0.383389
0.535623
0.496955
0.572751
0.583079
1.1128
0.334574
1.0497
0.383949
0.343259
0.325506
0.3725
0.341132
0.378111
0.362879
0.793486
0.354207
0.371309
0.332716
0.335108
0.356113
0.360133
0.335436
0.341455
0.389577
0.365239
0.337767
0.355656
0.33443
0.874142
0.879494
0.84932
0.337109
0.334656
0.339004
0.348532
0.820792
0.345806
0.352076
0.605496
0.369695
0.362298
0.385455
0.343003
0.655085
0.582129
0.344697
0.33673
0.331293
0.361572
0.334031
0.334804
0.33367
0.333347
0.334764
0.33523
0.82211
0.357749
0.337173
0.384421
0.338885
0.822677
0.347831
0.334955
0.336756
0.342703
0.342331
0.332548
0.343469
0.336067
0.336788
0.335597
0.344891
0.338135
0.367126
0.343932
0.344042
0.345725
0.34628
0.344186
0.375249
0.349472
0.342864
0.345119
0.361073
0.39536
0.371941
0.356662
0.347701
0.334638
0.343078
0.382807
0.358886
0.348087
0.344323
0.379939
1.31709
0.331973
0.351161
0.385687
0.349771
0.404363
0.37703
0.364552
0.339279
0.358056
0.347991
0.331807
0.355722
0.368331
0.364594
0.350931
0.343176
0.35129
0.348696
0.346293
0.349831
0.353941
0.33414
0.343787
0.344352
0.341216
0.346434
0.423658
0.33389
0.68913
0.337123
0.811553
0.36012
0.382266
0.373872
0.335214
0.366644
0.331605
0.357188
0.346719
0.650726
0.860379
0.335184
0.365197
0.334699
0.333385
0.343777
0.345127
0.331042
0.370071
0.348579
0.335222
0.333795
0.336618
0.331461
0.461678
0.333889
0.34572
0.531746
0.556233
0.337946
0.668283
0.562024
0.370456
0.566131
0.796256
0.336312
0.332988
0.334738
0.332997
0.783966
0.363433
0.337221
0.337872
0.339418
0.339607
0.341854
0.338552
0.748259
0.761782
0.549299
0.356678
0.437332
0.462256
0.338306
0.345908
0.385462
0.344403
0.356046
0.363158
0.377817
0.340014
0.369618
0.338089
0.338341
0.361861
0.350859
0.339885
0.338378
0.349962
0.357808
0.38151
0.36474
0.334487
0.367925
0.346963
0.779318
0.372208
0.429856
0.348397
0.378257
0.729901
0.361364
0.336973
0.363795
0.35314
0.340341
0.361442
0.375958
0.3265
0.355705
0.333364
0.357161
0.477499
0.332411
0.377411
0.339923
0.3903
0.335616
0.33595
0.335426
0.336589
0.354972
0.353757
0.337153
0.332928
0.339431
0.350295
0.35036
0.359806
0.360563
0.335939
0.340664
0.330271
0.329559
0.34105
0.361428
0.337343
0.365031
0.363375
0.37547
0.803323
0.345626
0.340248
0.35668
0.365759
0.480245
0.484803
0.363767
0.338168
0.366785
0.452274
0.343128
0.49616
0.362573
0.559517
0.381072
0.380266
0.337983
0.486649
0.339609
0.341461
0.347979
0.339135
0.332245
0.332034
1.01487
0.337977
0.386451
0.337522
0.463273
0.337942
0.336938
0.443342
0.431841
0.346425
0.33517
0.313585
0.334224
0.339194
0.334861
0.3352
0.337257
0.403536
0.470502
0.357683
0.336086
0.346505
0.338319
0.553752
0.344969
0.340458
0.288402
0.345373
0.334724
0.39107
0.780185
0.345709
0.228378
0.253173
0.330674
0.350092
0.334
0.339518
0.375337
0.367058
0.755477
0.341798
0.371243
0.334325
0.474681
0.39871
0.37181
0.341812
0.902317
1.41623
0.342072
0.347637
0.337029
0.347899
0.380367
0.393998
0.343161
0.353452
0.379077
0.327895
0.364386
0.504869
0.371311
0.341079
0.511715
0.363017
0.338904
0.355628
0.358659
0.332905
0.362156
0.38763
0.395653
0.349463
0.340831
0.337627
1.04401
0.350812
0.414433
0.822284
0.801597
0.33708
0.376886
0.778771
0.369444
0.451131
0.735759
0.376863
0.84726
0.334468
0.339921
0.35615
0.526831
0.381829
0.375656
0.334619
0.383292
0.33793
0.339888
0.339685
0.361236
0.36115
0.735449
0.746703
0.363642
0.374557
0.36374
0.352409
0.383046
0.352892
0.35354
0.360845
0.347829
0.353781
0.375245
0.356953
0.333788
0.429343
0.382659
0.830643
0.580012
0.364763
0.345764
0.367139
0.337678
0.871939
0.339746
0.852212
0.370415
0.456788
0.373398
0.349189
0.35177
0.327781
0.392334
0.34084
0.329917
0.401735
0.404986
0.368576
0.420927
0.366774
1.334
0.373983
0.384745
0.400959
0.363746
0.332883
0.381102
0.343192
0.419177
0.345866
0.34531
0.388237
0.347633
0.349713
0.340502
0.337599
0.509659
0.589326
0.336435
0.471187
0.336344
0.353139
0.330783
0.334822
0.41101
0.327857
0.334386
0.343712
0.336798
0.709604
1.06974
0.345763
0.343674
0.336169
0.358537
0.332136
0.353257
0.359788
0.588878
0.350842
0.33562
0.348675
0.336634
0.337054
0.341252
0.335526
0.338534
0.340369
0.334195
0.361551
0.581194
0.335616
0.279668
0.632774
0.583581
0.251571
0.35899
0.735947
0.392744
0.370463
0.548457
0.321973
0.864409
0.352545
0.332077
0.465148
0.363074
0.598982
0.350329
0.364371
0.334957
0.339913
0.44291
0.372552
0.354565
0.370982
0.487276
0.405083
0.350105
0.378451
0.530317
0.505769
0.539675
0.891639
0.967215
0.66544
0.698145
0.363199
0.370555
0.337016
0.335199
0.364101
0.281329
0.363004
0.357293
0.367538
0.338873
0.292987
0.266848
0.335327
0.397412
0.349738
0.336918
0.382987
0.335911
0.338842
0.337543
0.36396
0.471461
0.336118
0.338194
0.335141
0.3752
0.365811
0.574217
0.474118
0.332174
0.367444
0.333415
0.336905
0.336669
0.370613
0.373677
0.578944
0.339001
0.33521
0.33942
0.426864
0.898357
0.349097
0.348113
0.443427
0.363599
0.346302
0.373605
0.355385
0.376846
1.12355
0.460567
0.860676
0.366868
0.42703
0.337538
0.414757
0.339608
0.357914
0.365669
0.342377
1.02345
0.479493
0.392878
0.532747
0.392671
0.335051
0.355749
0.430162
0.341075
0.370926
0.266314
0.337421
0.423082
0.384535
0.407188
0.760588
0.388566
0.38548
0.546532
0.340535
0.340661
0.467959
0.557089
0.351717
0.450071
0.492163
0.344432
0.350423
0.33328
0.358174
0.368392
0.365764
1.32305
0.86429
0.393287
0.519333
0.5282
1.32542
1.55305
0.567326
0.375979
0.360958
0.3737
0.383129
0.889768
0.338441
0.365069
0.37336
0.382945
0.358862
0.349697
0.369761
0.334116
0.393715
0.514364
0.363574
0.952247
0.338327
0.418768
0.376601
0.36577
0.35777
0.351434
0.374905
0.483846
0.381772
0.409744
0.508489
0.359924
0.339248
0.363627
0.464545
0.334773
0.413946
0.363362
0.38886
0.68462
0.943029
0.332577
0.363579
0.35071
0.361981
0.370702
0.715259
0.557973
1.24208
0.341632
0.400423
0.357501
0.75051
0.335247
1.18759
0.41059
0.391232
0.476078
0.640787
0.341691
0.328329
0.339191
0.357864
0.448248
0.350011
0.43532
0.756037
0.434335
0.333217
0.335992
0.716926
0.891916
0.547331
0.567283
0.916102
0.406574
0.375769
0.435194
0.334242
0.518605
0.379524
0.3938
1.24799
0.362871
0.334838
0.336431
0.35909
0.417934
0.384958
0.349629
0.355724
0.487678
0.33901
0.351714
0.338694
0.353794
0.379138
0.408154
0.375041
0.363377
0.348417
0.389847
0.340563
0.329048
0.339322
0.350157
0.410553
0.516305
0.36198
0.397429
0.335031
1.28993
0.388339
0.373889
0.349411
1.00878
0.642677
1.07058
0.305956
0.361894
0.368891
0.720703
0.348887
0.370419
0.41699
0.368593
0.370746
0.822014
0.374167
0.346559
0.373907
0.38531
0.337119
0.632962
1.00732
0.336049
0.99154
0.355114
0.698403
0.687803
0.336789
0.370039
0.375782
0.657607
0.362317
0.363825
0.371819
0.774819
0.434194
0.624458
0.333171
0.349048
0.335673
0.340654
1.08712
1.11198
0.369944
0.395569
0.409876
0.709445
0.343589
0.33358
1.28036
1.04629
0.361136
0.348615
0.923496
1.26779
0.881861
0.380848
0.696491
1.00199
0.788435
0.343179
0.491159
0.474714
0.360437
0.359916
1.12409
1.3947
0.399902
0.403885
0.354518
0.349102
0.373186
0.348654
0.524021
0.346579
0.366944
0.336638
0.345437
0.961402
0.872263
0.348214
0.621342
0.457799
0.340418
0.554986
0.333086
0.354237
0.340452
0.371196
0.397185
0.333771
0.764681
0.341546
0.894123
0.713721
0.71969
0.41259
0.419309
0.359254
0.375261
0.337645
0.580707
1.05344
0.368197
0.856201
0.567285
0.848016
0.504917
0.94498
0.751408
0.351405
0.337602
0.868947
0.347352
0.349636
0.340314
0.732202
0.687777
0.340215
0.364432
0.666869
0.454079
0.954347
0.815353
0.363703
0.503084
1.04974
0.360716
0.362055
0.724279
0.343583
0.796177
0.872237
0.347295
0.33908
0.348131
0.338949
0.385957
0.331407
0.344052
0.375224
0.377538
0.517924
0.383727
0.350967
0.530584
0.764953
0.862876
0.374594
0.375547
0.560411
0.349636
0.990559
0.348544
0.367218
0.365897
1.26033
0.354493
1.66293
0.38991
0.535129
0.385556
0.950049
0.655474
0.546089
0.448188
0.577564
0.399599
0.363586
0.421215
0.618119
0.527281
0.493123
0.800295
0.388232
0.479688
0.756807
0.38312
0.335058
0.779753
1.33522
0.335982
0.356267
0.359938
0.379501
0.780824
0.922236
0.33656
0.355326
0.359349
0.876286
0.356527
0.650722
0.406854
0.349879
0.35422
0.504734
0.393729
0.66182
0.619049
0.374988
0.411912
0.473412
0.347634
0.942573
1.1432
0.35735
0.892133
0.801677
0.376798
0.586499
0.360846
0.396656
0.984676
0.395433
1.04015
0.842491
0.356293
0.402932
0.454287
0.365414
0.354469
0.425806
0.518787
0.453554
0.344849
0.42591
0.349625
0.731731
0.422568
0.379939
0.3867
0.544674
0.337215
0.867749
0.686398
0.400617
0.795993
0.80541
0.334825
0.514343
0.535934
0.377378
0.375373
0.52018
0.742477
0.534989
0.782875
0.339408
0.796758
0.474847
0.336193
0.420731
0.385624
0.527524
0.371848
0.420834
0.644756
0.335276
0.637559
0.375332
1.32336
0.395112
0.330636
0.387705
0.55783
0.395545
0.696975
0.45801
0.351883
0.977899
0.336691
0.364367
1.12326
0.33397
0.386172
0.742654
0.369777
0.803134
1.35248
0.383566
0.440922
0.338738
0.919606
0.61715
0.764167
0.664386
0.442204
0.372082
0.467977
0.851778
1.13563
0.83402
0.362793
0.358082
0.367951
0.34714
0.384068
0.739662
0.36244
0.34651
0.372131
0.333748
0.359417
0.369872
0.352387
0.353673
0.374285
0.477955
0.339932
0.377686
0.580657
0.350928
0.337987
0.38938
0.382085
0.360154
0.33542
0.361111
0.358278
0.348529
0.377733
0.660128
0.356261
0.359813
0.337318
0.337702
0.552636
0.340206
0.341337
0.628021
1.17528
0.741864
0.348558
0.632006
0.518683
0.339064
0.594797
0.471154
0.575176
0.368003
0.346586
0.364607
0.427044
0.342775
0.376043
0.394298
0.380002
0.33701
0.338586
0.374121
0.535308
0.36597
0.440089
0.87801
0.351958
0.678932
0.433019
0.87248
0.334908
0.375421
0.374361
0.337836
0.351156
0.371688
0.337097
1.03292
0.60824
0.889226
0.391422
1.05293
0.334905
0.355197
0.533262
0.338452
0.796946
0.414874
0.638698
0.330012
0.943354
0.939741
0.348716
0.333969
0.588215
0.352324
0.627332
0.336183
0.374065
0.338097
0.336546
0.339117
0.34784
0.358553
0.607235
0.421219
0.397321
0.361378
0.341341
0.343193
0.369348
1.30428
0.373798
1.32164
0.485893
0.337679
0.382168
0.357315
0.352116
0.353089
0.379774
0.354565
0.362981
0.343806
0.326908
0.370846
0.369234
1.81747
1.13548
0.377509
0.379635
0.793773
0.352819
0.335623
0.334581
0.334361
0.372354
0.382474
0.400194
0.383788
0.353875
0.335534
0.4279
0.335674
0.328223
0.348054
0.751915
0.394191
0.86143
0.781444
0.849981
0.349321
0.335937
0.332145
0.331585
0.338549
0.669352
0.351722
0.337099
0.353744
0.366579
0.33728
0.476077
0.335099
0.378966
0.474522
0.358826
0.332681
0.339429
0.353763
0.361911
0.337063
0.361835
0.344583
0.514677
0.336472
0.351605
0.385682
0.344224
0.34722
0.335543
0.360804
0.331508
0.379858
0.397104
0.337697
0.332074
0.334313
0.338262
0.337946
0.373353
0.336138
0.337786
0.338293
0.351559
0.903364
0.343836
0.457876
0.333454
0.337619
0.783807
0.351047
0.373414
0.333575
0.348289
0.366927
0.380429
0.763973
0.376553
1.94395
0.334648
0.342813
0.372884
0.338981
0.338099
0.385026
0.356166
0.338139
0.339373
0.910854
0.469215
0.692779
0.381799
0.594169
0.375774
0.328626
0.393623
0.917809
0.371719
0.340321
0.338582
0.809675
0.334502
0.347377
0.364042
0.353442
0.339443
0.818813
0.337051
0.355414
0.35041
0.353458
0.397151
0.957173
0.847881
0.339138
0.337161
0.338907
0.385475
0.367486
0.337713
0.824867
0.861031
0.333696
0.366412
0.777227
0.339598
0.586283
0.481048
0.336384
0.336335
0.341273
0.34337
0.617435
0.359971
0.351829
0.357023
0.398174
0.347161
0.361619
0.628293
0.362967
0.505382
0.53138
0.398687
0.623322
0.371431
0.387833
0.421219
0.379214
0.362048
0.356085
0.864947
0.631559
0.377929
0.38072
0.36109
0.373342
0.363633
0.436228
0.342109
0.33315
0.357818
0.352257
0.532526
0.461887
0.883327
0.744921
0.369132
0.378111
0.348979
0.352362
0.365195
0.340087
0.351094
0.335557
0.337567
0.406036
0.349761
0.340166
0.338982
0.644464
1.25022
0.380463
0.331255
0.45822
0.532649
0.856209
0.339941
0.763625
1.20913
0.673391
0.794533
0.433203
0.336611
0.335732
0.360851
0.887654
0.333694
0.372812
0.360352
0.335161
0.660389
0.618135
0.593353
0.350929
1.22827
0.334979
0.342097
0.371704
0.370531
0.755721
0.826908
0.256339
0.470765
0.295872
0.408822
0.340637
0.931001
0.354337
0.892299
0.372819
0.883644
0.362627
0.521743
0.384653
0.549463
0.380301
0.383324
0.429646
0.354297
0.357053
0.434339
0.411717
0.360947
0.349048
1.24532
0.631761
0.35798
0.648924
0.764496
0.634812
0.343871
0.342374
0.80166
0.73234
0.769046
0.344672
1.06349
0.341416
0.915149
0.817207
0.551369
0.655707
0.333168
0.39146
0.34152
0.346674
0.352683
0.544808
0.427597
0.335078
0.333606
0.37196
0.348103
0.336406
0.340063
0.492725
0.335412
0.330629
0.36259
0.339137
0.459754
0.356558
0.389179
0.379218
0.336343
0.456542
0.483238
0.328917
0.335925
0.515785
0.76577
0.358598
1.17548
0.380788
0.462885
0.753497
0.442685
0.368922
0.336378
0.516103
0.350094
0.332558
0.366293
0.346794
0.338985
0.354175
0.339563
0.334113
0.34434
0.363543
0.35479
0.381882
0.740598
0.343682
0.348774
0.348173
0.355649
0.459321
0.752244
0.358644
0.343489
0.361121
0.617353
0.459711
0.348033
0.359385
0.878442
0.375158
0.392801
0.378036
0.43505
0.364087
0.363714
0.358071
0.554992
0.383196
0.371598
0.959084
0.35454
0.399368
0.355692
0.375198
0.358702
0.395186
0.355797
0.342783
0.341007
0.386328
0.338846
0.36329
1.2504
0.340698
0.453067
0.378121
0.351065
0.693193
0.396901
0.370964
0.369501
0.623365
0.673931
0.368355
0.34501
0.396765
0.422083
0.370824
0.341337
0.831033
0.497633
0.406248
1.05386
0.387142
0.342925
0.551248
0.539025
1.15208
0.495205
0.41706
0.590775
0.349246
0.57934
0.498412
0.849851
0.401638
0.370294
0.346022
0.651928
0.381225
0.420068
0.343473
0.373065
0.3768
0.415097
0.6644
0.364159
0.374707
0.36221
0.53941
0.794859
0.444875
0.767711
0.38852
1.03215
0.374099
0.374822
0.831059
0.560162
0.725322
0.421801
0.698798
0.607791
0.339766
0.337094
0.309964
0.400518
0.373725
0.832847
0.381963
0.407932
0.338928
0.490675
0.367058
0.339465
0.900356
0.333671
0.539942
0.326178
0.408766
0.365466
0.369693
0.381324
0.395255
0.339782
0.333869
0.368257
0.415627
0.232323
0.237613
0.403992
0.389373
0.355735
0.444841
0.481567
0.38729
0.370558
0.383291
0.233026
0.402658
0.421317
0.290597
0.377035
0.799524
0.533525
0.354622
0.956543
0.395538
0.514525
1.0639
0.39633
0.378146
0.341018
0.892302
0.340112
0.334661
0.390749
0.380779
0.422408
0.36001
0.556026
0.368588
0.527641
0.338348
0.388121
0.376865
0.331701
1.07146
0.451542
1.04846
0.635883
0.334451
0.862385
0.508953
0.338819
1.62601
0.336762
0.334278
0.463274
0.490686
0.950323
0.719972
0.380898
0.72673
1.03259
0.343866
0.58676
0.947804
0.497964
1.25115
0.414922
0.345095
0.637554
0.716109
0.39509
0.9596
0.395893
0.366629
0.560329
0.39719
0.345295
0.373038
0.796779
0.750711
0.33209
0.558449
0.347192
0.385364
0.363859
0.384382
0.599155
0.461876
0.74891
0.352759
0.360853
0.734548
0.339536
0.358101
0.49848
0.345185
0.370611
0.852937
0.369659
0.923624
0.836758
0.830055
0.837465
0.376424
0.42951
0.336819
0.334879
0.45389
0.339817
0.339085
0.401769
0.344341
0.450341
0.891201
0.340585
0.543904
0.347033
0.500059
0.393639
0.887797
0.369889
0.481304
0.346218
0.350152
0.411446
0.342061
0.357805
0.346964
0.333916
0.574844
0.332553
0.381792
0.390205
0.355016
0.369958
0.37643
0.379976
0.703476
0.366336
0.340337
0.350989
0.424468
0.289575
0.684893
0.51897
0.685572
1.0016
0.435014
0.452747
0.149752
0.333392
0.917499
0.431987
0.552647
0.403558
0.764998
0.713956
1.25926
0.394401
0.363023
0.551994
0.960749
0.377755
0.295664
0.478287
0.320455
0.440186
0.437641
0.838045
1.11725
0.298437
0.40913
0.214304
0.359107
1.13341
0.3557
0.371396
0.343485
0.344402
0.48179
0.343651
0.632636
0.501787
0.339852
0.388624
0.342549
0.581183
0.667155
0.357654
0.439892
0.396306
0.951167
0.465494
0.36264
0.554151
0.558338
0.333897
0.344665
0.36727
0.334696
0.674168
0.341971
0.46952
0.645592
0.346618
0.375452
0.34294
0.34393
0.538299
0.392114
0.553429
0.328128
0.332277
0.595966
0.976368
0.34272
0.356639
0.342654
0.339758
0.651326
0.458783
0.817084
0.374332
0.338173
0.481548
0.402403
0.37354
0.343846
0.400708
0.384347
0.574876
0.474221
1.14115
0.429435
0.449889
0.344215
0.378419
0.82683
0.964852
0.429672
0.942674
0.374038
0.942247
0.458431
0.754979
0.501742
0.516359
0.395706
0.353333
0.385353
0.436902
0.588959
0.364626
0.397782
0.998532
0.374684
2.47574
0.373925
0.351714
0.379026
0.540131
0.410011
0.341324
0.816719
0.33657
0.341046
0.332421
0.374224
0.868932
0.51564
0.346455
0.548468
0.35324
0.372057
0.343909
0.351617
0.444
0.413271
0.434018
0.371791
0.340748
0.42548
0.36593
0.330988
0.431835
0.396094
0.926399
0.388996
0.486734
0.376695
0.428266
0.377985
0.451211
0.332712
0.378223
0.352817
0.364728
0.389142
0.826093
0.333818
0.614673
0.340599
0.391866
0.379822
0.378257
0.382698
0.461743
0.639848
0.342158
0.367147
0.369078
0.528096
0.405991
0.332618
1.1658
0.856736
0.645376
0.340702
0.340345
0.528528
0.355694
0.355044
0.519634
0.364501
0.352353
0.393047
0.900584
0.340022
0.595898
0.339324
0.348268
0.447512
0.352417
0.386729
0.483501
0.341129
0.58715
0.427643
0.431908
0.468703
0.94272
0.345437
0.360234
0.382547
0.413716
0.379714
0.377127
0.337151
0.336789
0.37458
0.597372
0.381057
0.379228
0.95497
0.378355
0.663414
0.358831
0.383074
0.417831
0.353628
0.670498
0.372382
0.485927
0.392258
0.35573
0.363331
0.410916
0.56933
0.469128
0.340918
0.628873
0.37712
0.875208
0.776361
0.793009
0.35155
0.484467
0.377904
0.262596
0.417656
0.302696
0.464483
0.237349
0.427002
0.707482
0.428283
0.640069
0.69885
0.384342
0.279926
0.351526
1.0137
0.566051
0.717923
1.22487
1.16008
0.481751
0.841972
0.348522
0.366212
0.76462
0.411788
0.899119
0.39541
0.753885
0.766873
0.359938
0.380146
0.351882
0.331974
0.370377
0.33438
0.742253
0.401265
0.37751
0.57058
0.344877
0.36606
0.330677
0.365786
0.364389
0.375618
0.401769
0.336214
0.428261
0.90832
0.334235
0.344287
0.357467
0.338873
0.722663
0.734971
0.414196
0.407882
0.57342
0.335494
0.331655
0.364903
0.386374
0.347923
0.355491
0.343046
0.337192
0.44035
0.332779
0.398417
0.35552
0.33595
0.342482
0.5886
0.351467
0.363915
0.33811
0.443943
0.363635
0.372873
0.735367
0.436854
0.366343
0.406546
0.361223
0.391603
0.396511
0.374698
0.349297
0.383555
0.370534
0.351972
0.383073
0.369864
0.448586
0.473667
0.353749
0.360681
0.419845
0.456362
0.506685
0.569219
0.827493
0.953047
0.36072
0.343311
0.89826
0.561212
0.572616
0.348471
0.339159
0.3546
0.334847
0.355755
0.342778
0.347477
0.376299
0.337493
0.342852
0.340129
0.351708
0.34119
0.545575
0.400492
0.366126
0.341634
0.349449
0.666979
0.33382
0.344595
0.414207
1.02773
0.604758
0.374447
0.362653
0.359914
0.395682
0.478441
0.742271
0.425635
0.351062
0.374058
0.351369
0.34672
0.389895
0.445535
0.375167
0.34041
0.416748
0.410487
0.644669
0.416058
0.729465
0.588417
0.396393
0.41266
0.34731
0.361508
0.383594
0.336017
0.343601
0.637702
0.34881
0.36387
0.722919
0.364857
0.379963
0.463631
0.423786
0.338909
0.36534
0.34466
0.37676
0.734112
0.362443
0.452763
1.93279
0.586216
1.09975
0.853537
0.352077
0.362039
0.552657
0.336384
0.581902
0.519351
0.714586
0.369862
0.337755
0.73832
0.339266
0.575785
0.436007
0.345917
0.737777
0.852708
0.335863
0.346184
0.903357
0.336287
0.337225
0.336556
0.336903
0.36405
0.525075
0.592346
0.363765
0.817851
0.349559
0.360662
0.338704
0.893794
0.355581
0.93939
0.338764
0.376922
0.339125
0.458808
0.341302
0.520804
0.333016
0.641952
0.498305
0.500159
0.714705
0.353036
0.356294
0.841688
0.471515
0.364196
0.442811
0.626841
0.35867
0.447818
0.349294
0.624041
0.428859
0.342564
0.33285
0.482158
0.353027
0.405172
0.369197
0.336114
0.358928
0.339052
0.34166
0.355113
0.72209
0.345786
0.340011
0.338709
0.345951
0.340111
0.347601
0.344343
0.376181
0.426032
0.390784
0.389253
0.341448
0.286468
0.361405
0.397387
0.808949
0.313948
0.800775
0.34465
1.36144
0.391567
0.356263
0.382932
0.390665
0.389402
0.345303
0.33037
0.36724
0.368904
0.334696
0.354093
0.339194
0.709504
0.338802
0.353472
0.389914
0.926272
0.232536
0.359968
0.833194
0.738059
0.638345
0.570777
1.09967
0.187373
0.425551
0.379205
0.368162
0.376568
1.79981
0.54912
0.415101
0.34015
0.336549
0.77484
0.364629
0.550471
0.482591
0.386035
0.573088
0.382029
0.628851
0.343615
0.371794
0.353534
0.336811
0.397993
0.333828
0.365808
1.13479
1.14948
1.05315
0.469802
0.760783
0.356048
0.331514
0.333759
0.378541
0.338356
0.388469
0.345738
0.429259
0.383877
0.334664
0.334906
0.371202
0.337409
0.35636
0.373559
0.346995
0.374253
0.548708
0.354855
0.395173
0.824561
0.382512
0.717875
0.856707
0.371496
0.400626
0.334606
0.50322
0.383325
0.392025
0.661022
0.339388
0.405158
0.367749
0.389289
0.341813
0.345912
0.498107
0.547399
0.37556
0.373115
0.799594
0.40976
0.645634
0.600897
0.360683
1.11251
0.452635
0.402951
0.384521
0.352618
0.426857
0.376531
0.318233
0.342754
0.28025
0.60376
0.220507
0.35549
0.390306
0.445986
0.226435
0.794747
0.3459
0.373241
0.409286
0.340351
0.413015
0.649464
1.61593
0.38288
0.354924
0.370601
0.698858
0.340964
0.397011
0.383049
0.350209
0.36422
0.356269
0.509363
0.341457
1.58803
0.396253
0.955586
0.345471
1.16771
0.794336
0.978113
0.370608
0.354827
0.497314
0.37994
0.358495
0.366398
0.359701
0.811883
0.334269
0.488969
0.629693
0.334474
0.347089
0.342399
0.347585
0.366648
0.360867
0.410529
0.407185
0.374557
0.371215
0.414516
0.354756
0.460984
0.345562
0.379866
0.343651
1.0815
1.02357
0.390481
0.424365
0.336079
1.21551
0.330716
0.340565
0.367929
0.336901
0.385573
0.369446
0.335965
0.335055
0.356587
0.774549
0.614943
0.370893
0.801649
0.338381
0.362635
0.343458
0.359749
0.786536
0.394016
0.854115
0.334703
0.348859
0.813014
0.90051
0.357643
0.352882
0.666031
0.377223
0.388364
0.49466
0.404007
0.382733
0.440389
0.382216
0.333724
0.388198
0.36541
0.503646
0.337346
0.372947
0.335719
0.352019
0.763368
0.684634
0.345952
0.348233
0.360913
0.366956
0.352289
0.545144
0.355604
0.369436
0.401476
0.36577
0.466593
0.41882
0.513541
0.400569
0.331857
0.339845
0.337154
0.395865
0.32912
0.554292
0.454003
0.339687
0.784383
0.355587
0.333466
0.375809
0.339441
0.384758
0.658322
0.359211
0.452715
0.371821
1.06299
0.410792
0.397026
0.375649
0.718676
0.377791
0.558694
0.388247
0.425372
0.34348
0.432823
0.410318
0.713998
0.477343
0.363324
0.348388
0.345307
0.57308
0.364941
1.03075
1.20531
0.375991
0.445824
0.357738
0.496972
0.468362
0.403794
0.838482
0.505172
0.696776
0.340844
0.398125
0.932519
0.509864
0.371341
0.495993
0.350531
1.10084
0.407342
0.392315
0.345497
0.336281
0.340371
0.358715
0.337598
0.898685
0.342738
0.651673
0.338525
0.449689
0.417048
0.554851
0.358042
0.36269
0.350594
0.61404
0.484804
0.53491
0.337771
0.341957
0.474591
0.390431
0.378535
0.334502
0.334014
0.336414
0.353882
0.336494
0.394017
0.342849
0.579089
0.446762
0.942806
0.78879
0.641784
0.591481
0.409215
0.416428
0.334388
0.618358
0.347132
0.358946
0.34904
0.48006
0.506423
0.349408
0.440813
0.810436
0.500075
0.338227
0.336867
1.39555
0.848967
0.399225
0.882546
0.903276
0.664551
0.785938
0.607682
0.742045
0.422613
0.669986
0.811015
0.335138
0.340194
0.330509
0.48297
0.631904
0.35018
0.339518
0.420561
0.378267
0.394648
0.861149
0.506425
0.946361
0.361371
0.334889
0.351036
0.332945
0.376648
0.804036
0.510325
0.668799
0.741581
0.338846
1.04227
1.07144
0.336249
0.53875
0.489999
0.806876
0.382152
0.497186
0.798215
0.782227
0.483456
0.834104
0.529666
0.742584
0.375194
0.362594
0.387091
1.03968
0.784429
0.408465
0.356841
0.585226
0.463947
0.604961
0.366577
0.395872
1.08113
1.32031
0.271141
0.335992
0.292734
0.336603
0.244527
0.407682
0.48152
0.636825
0.232298
0.457197
0.503025
0.162935
0.477193
1.51788
0.439797
0.405628
0.715021
0.357416
0.524294
0.348863
0.335809
0.352108
0.369805
0.78857
0.730096
1.04029
0.408399
0.412024
0.612208
0.399218
0.348226
0.423354
0.378648
0.354206
0.587046
0.379952
0.371644
0.345492
0.44011
0.423325
0.787762
0.496517
0.830813
0.945765
0.808339
0.374073
0.420376
0.723962
0.351669
0.586588
0.379473
0.411442
0.344688
0.830152
0.616301
0.435903
1.27896
0.634215
0.335914
0.457652
0.848618
0.841433
0.413499
0.368276
0.488525
0.917348
0.373093
0.342109
0.370903
0.360713
0.695918
0.37535
0.646612
0.732242
0.739822
1.27287
0.565749
0.485278
0.792601
1.06136
0.87512
0.614676
0.760266
0.904784
0.557607
0.402905
0.470264
0.35694
0.330437
0.341828
0.439478
0.548447
1.32825
0.372079
0.392077
0.405896
0.378221
0.433745
0.584999
0.492446
0.362052
0.384755
0.987927
1.10976
0.234496
0.411473
0.348561
0.387516
1.0522
0.809073
0.375132
0.508171
0.350669
0.359503
0.332964
0.598099
0.358126
0.361942
0.345397
0.405716
0.877735
0.467328
0.376882
0.878591
0.334982
0.887143
0.701367
0.482719
0.704926
0.385763
0.33594
0.34472
0.344718
0.370627
0.42766
0.345511
0.36004
0.347052
0.346288
0.546784
0.632849
0.754723
0.347914
0.498431
0.383062
0.41433
0.366332
0.601097
0.374098
0.361577
0.358422
0.335059
0.351987
0.351028
0.475598
0.332538
0.379217
0.389043
0.635632
0.350507
0.414373
0.505865
0.822976
0.908186
0.407011
1.23906
0.527026
0.389582
0.376649
0.548776
0.352041
1.10179
0.456904
0.33761
0.446499
0.532328
0.431845
0.483122
0.713065
0.727927
0.487629
0.810244
0.366147
0.337635
0.417084
0.339555
0.335807
0.431806
0.343942
0.342782
0.586925
0.340247
0.323474
0.855777
0.697533
0.335988
0.338665
0.827097
0.350101
0.348061
0.605321
0.347054
0.745628
0.433955
0.798114
0.344657
0.570108
0.46595
0.710261
0.345629
0.460598
0.34364
1.0613
0.364402
0.339152
0.742836
0.443666
0.516559
0.373927
0.390682
0.373839
0.346317
0.514313
0.346355
0.342913
0.327119
0.460748
0.569831
0.336912
0.349638
0.339302
0.341242
0.354149
0.872399
0.338936
0.466602
0.338951
0.608103
0.367925
0.39014
0.374887
0.489649
0.35505
0.45834
0.333097
0.35595
0.361644
0.376479
0.343414
0.453987
0.435722
0.922066
0.892694
0.812075
0.413099
0.365524
0.365776
0.334412
0.336707
1.00159
0.66239
0.416066
0.38608
0.333256
0.357583
0.335288
0.340345
0.543512
0.531238
0.775561
0.619407
0.391183
0.356356
0.442558
0.339075
0.641173
0.360111
0.450055
0.369135
0.378694
1.0398
0.440581
0.33226
0.353666
0.421143
0.338356
0.298194
0.338654
0.56343
0.394321
0.911367
0.503445
0.78701
0.342456
0.36378
0.377798
0.374797
0.38532
0.358508
0.335635
0.336335
0.346302
0.351472
0.355441
0.598449
0.40391
0.876682
0.440332
0.343534
0.527593
0.381718
0.361645
0.344038
1.03684
0.914123
0.331891
0.340234
0.34457
0.847993
0.395294
0.456623
0.394487
0.382156
0.29812
0.371115
0.370894
0.334743
0.435804
0.539692
0.939798
0.550207
0.455511
0.331705
0.419227
0.657789
0.371697
0.341356
0.839513
0.872191
0.500046
0.692652
0.339856
0.33431
0.428626
0.341486
0.857389
0.342213
0.339755
0.34369
0.701181
0.336207
0.381888
0.480896
0.48785
0.340043
0.352338
0.359465
0.35179
0.329081
0.360682
0.3921
0.596636
0.461864
0.378051
0.622583
0.369694
0.616614
0.387347
0.913102
0.468465
0.40457
0.706867
0.31968
0.448937
0.544789
0.602452
0.430336
0.335723
0.342318
0.33671
0.372674
0.858772
0.384456
0.339433
0.365084
0.393553
0.339212
0.505604
0.366516
0.376412
0.483954
0.361688
0.341596
0.378103
0.371381
1.01763
0.869493
0.411968
0.364907
0.445403
0.362817
0.81624
0.910889
1.19444