/*--------------------------------*- C++ -*----------------------------------*\
| =========                 |                                                 |
| \\      /  F ield         | OpenFOAM: The Open Source CFD Toolbox           |
|  \\    /   O peration     | Version:  2506                                  |
|   \\  /    A nd           | Website:  www.openfoam.com                      |
|    \\/     M anipulation  |                                                 |
\*---------------------------------------------------------------------------*/
FoamFile
{
    version     2.0;
    format      ascii;
    arch        "LSB;label=32;scalar=64";
    class       volScalarField;
    location    "0.0380695";
    object      nut;
}
// * * * * * * * * * * * * * * * * * * * * * * * * * * * * * * * * * * * * * //

dimensions      [0 2 -1 0 0 0 0];

internalField   nonuniform List<scalar> 
47425
(
0.00598054
0.00535769
0.00470001
0.002039
0.00352483
0.00476641
0.00493287
0.00336262
0.00742796
0.0019143
0.00251571
0.00731621
0.00573858
0.00424268
0.00355534
0.0038671
0.00490398
0.00278863
0.000286918
0.00312161
0.00392242
0.00730568
0.00325757
0.00527239
0.00714244
0.0072983
0.00421921
0.000519773
0.00464764
0.00599274
0.00750668
0.00710984
0.00745952
0.00515064
0.00627894
0.00511594
0.00733278
0.00537915
0.00518632
0.0045091
0.00514963
0.00574576
0.00517862
0.00260998
0.000744913
0.0034665
0.00358395
0.00453383
0.00426855
0.00685942
0.000679724
0.00267501
0.00661216
0.000995212
0.00333348
0.00299416
0.00735247
0.00590022
0.00228297
0.00547754
0.000852313
0.000728694
0.000989793
0.00356483
0.00738496
0.00724269
0.00556062
0.00482775
0.00110093
0.00546794
0.00426217
0.00657607
0.00695386
0.00378998
0.00127007
0.00746315
0.00101718
0.00415135
0.000253782
0.00221741
0.00125611
0.00531149
0.00750501
0.00741808
0.00716699
0.00411807
0.0062206
0.0066835
0.00518118
0.00140991
0.00738784
0.00457334
0.00736726
0.00327287
0.00262496
0.00190944
0.00670719
0.0064913
0.00377681
0.00467707
0.00559243
0.00109071
0.00652163
0.00105619
0.0067542
0.00675634
0.00704469
0.00361108
0.00731453
0.00713383
0.00271126
0.00539964
0.00614396
0.00231516
0.00716409
0.000362385
0.00717164
0.000792739
0.00447657
0.00605686
0.00424302
0.00747158
0.00595115
0.00318987
0.00369372
0.00681791
0.00403822
0.00741821
0.00341322
0.00742636
0.00739702
0.00356507
0.00108719
0.00300093
0.00626773
0.00571052
0.00707952
0.00666745
0.00490745
0.00337893
0.00500686
0.00286813
0.00482897
0.0055547
0.00663937
0.00742425
0.00419127
0.00546442
0.00244237
0.00500747
0.00561654
0.000564865
0.00739091
0.000439121
0.00346123
0.00407431
0.00334879
0.000308818
0.00395251
0.00476594
0.00738607
0.00735025
0.00665469
0.0071413
0.00127205
0.000554891
0.00744655
0.00127209
0.00330387
0.00088133
0.00126655
0.00420902
0.0047961
0.00412933
0.00502171
0.00137474
0.000406729
0.0047129
0.00634516
0.00729686
0.000335329
0.0070062
0.00549722
0.00717008
0.00700349
0.00691708
0.00601169
0.00119521
0.00243259
0.00616309
0.00747031
0.00470562
0.00504216
0.00474224
0.00701563
0.00736087
0.00582716
0.00472623
0.00748611
0.00397441
0.00531515
0.00299131
0.00727131
0.00728076
0.00283008
0.00237588
0.00621756
0.00728579
0.00410527
0.00747166
0.00519656
0.00510179
0.00745911
0.00346505
0.00542296
0.00545471
0.00470226
0.00172072
0.0037815
0.00388476
0.00209968
0.0027066
0.00543911
0.00344431
0.00239243
0.00167362
0.00698326
0.00267816
0.00721824
0.00467258
0.00487295
0.00470185
0.00346508
0.00748908
0.00225926
0.00362652
0.00192443
0.00309732
0.0021875
0.00204779
0.00411468
0.00586063
0.00740759
0.00327603
0.00734099
0.00732868
0.00490514
0.00590136
0.00734196
0.00437409
0.00745037
0.00246357
0.00510939
0.00742034
0.00374633
0.0073797
0.0071336
0.00310393
0.0034634
0.0073957
0.00311798
0.00746562
0.00433075
0.00273428
0.00589487
0.00402285
0.0072734
0.00561708
0.00537268
0.00419633
0.00428056
0.00242213
0.00194444
0.0069235
0.00254009
0.00212001
0.00253697
0.000561436
0.00199352
0.000671474
0.000941
0.00613589
0.000934532
0.00303635
0.00425312
0.00376871
0.00348224
0.00371862
0.00409929
0.00715862
0.000790922
0.00591949
0.00737544
0.00585677
0.00497475
0.00349755
0.00314555
0.00712145
0.00512612
0.00469044
0.00399101
0.00728304
0.00397982
0.00557118
0.00112811
0.000847761
0.000596314
0.00740377
0.00683939
0.00742594
0.00334795
0.000859179
0.00393302
0.00294674
0.00162734
0.00484071
0.00340839
0.00309667
0.00370037
0.0017092
0.00179782
0.00734139
0.00551245
0.00696487
0.00428809
0.00731924
0.00428515
0.00550253
0.00636908
0.00463748
0.00416827
0.00113105
0.00465725
0.00441531
0.00297469
0.00740708
0.000887785
0.00652908
0.0071022
0.00649407
0.00723378
0.00718961
0.00731173
0.00636453
0.00681772
0.00650478
0.00572804
0.00705959
0.00409873
0.00422327
0.00708104
0.00723924
0.00544669
0.00698998
0.00690339
0.00299503
0.00433887
0.00752783
0.00680752
0.00385837
0.00194342
0.0062702
0.00437178
0.00369383
0.0069578
0.00680452
0.00286371
0.00743404
0.00508705
0.00734813
0.00285292
0.00108336
0.00425641
0.0074379
0.00192614
0.00742157
0.00566257
0.0039404
0.00502415
0.00729932
0.00563198
0.0073441
0.00732469
0.00482071
0.00416225
0.00439972
0.00413557
0.00647811
0.00717826
0.00410041
0.00697406
0.00709829
0.00428212
0.00592676
0.0052224
0.00691895
0.00538861
0.00378803
0.0026791
0.00683727
0.00082191
0.00713108
0.00218064
0.0049407
0.00354727
0.0035416
0.00691039
0.00248331
0.00698136
0.003708
0.00720763
0.00105377
0.00106368
0.0073742
0.00317459
0.00410857
0.00382584
0.00423023
0.00450653
0.00413487
0.00408176
0.00507075
0.00733399
0.00321283
0.00473523
0.0066829
0.00334055
0.00431177
0.00639573
0.000998948
0.000412041
0.00693859
0.000520399
0.000503031
0.00405758
0.000491496
0.00070676
0.00677676
0.00411192
0.00438528
0.00421908
0.000930101
0.00398357
0.0066696
0.0065903
0.00454324
0.00449996
0.00415147
0.00416349
0.000904008
0.00074282
0.00141753
0.00543731
0.00116335
0.00373214
0.00604467
0.00739391
0.00584827
0.00742975
0.00423455
0.00478963
0.00284699
0.00494008
0.00748962
0.00429385
0.00568462
0.0044925
0.00743384
0.005207
0.00500405
0.00523284
0.00562923
0.00344961
0.00291239
0.00536103
0.00428339
0.00741259
0.00114567
0.00282818
0.00237864
0.00743863
0.00269374
0.00302402
0.00346164
0.00740867
0.00452825
0.00739738
0.00495964
0.00336697
0.0034201
0.00397187
0.00374752
0.00623599
0.00239508
0.000932543
0.00706729
0.00182626
0.00574535
0.00181257
0.00692431
0.00647425
0.007287
0.00490283
0.0058947
0.00311829
0.0055404
0.00688264
0.00739305
0.00754085
0.00462925
0.00276398
0.00430387
0.00739305
0.00600274
0.00600537
0.00595102
0.0057187
0.00500681
0.00461794
0.00289601
0.00472393
0.00372075
0.000724514
0.00558196
0.00491731
0.00649809
0.00741196
0.00185195
0.00190656
0.00459706
0.0067712
0.0044233
0.00445018
0.00688964
0.0018955
0.00747934
0.00234008
0.0026005
0.00290446
0.00580853
0.00305162
0.00748371
0.00468626
0.00475737
0.00712217
0.00731477
0.00652701
0.00089193
0.00538504
0.00254013
0.00716157
0.00179394
0.0071035
0.00575718
0.00237074
0.00256037
0.00488643
0.00714513
0.000753913
0.00619876
0.00579925
0.00619611
0.00666813
0.00729948
0.00245228
0.00290884
0.00664903
0.00631124
0.0050662
0.00730641
0.00200689
0.00736265
0.00551795
0.000546514
0.00472665
0.00733996
0.000884228
0.00141851
0.00728356
0.000334957
0.000353168
0.00460063
0.00744021
0.00634716
0.0074027
0.00433783
0.00399911
0.00139432
0.0074074
0.00282126
0.00657103
0.00212742
0.0023554
0.00434466
0.00500889
0.00169206
0.0047327
0.00645993
0.003673
0.00370389
0.00298492
0.0030588
0.00307588
0.00672195
0.00357191
0.00285173
0.00363685
0.00536377
0.00335731
0.00388525
0.0069368
0.00281556
0.00380953
0.00431102
0.00283928
0.00346052
0.00496632
0.00493134
0.00656329
0.00194399
0.00508509
0.00687596
0.00704326
0.000316365
0.00412057
0.0056428
0.000594116
0.000786588
0.00739471
0.00478985
0.000242466
0.00212608
0.00088611
0.00253347
0.00315438
0.000632645
0.00571339
0.00684204
0.00591501
0.00332433
0.00335592
0.00332868
0.00712557
0.00318772
0.00513517
0.00407353
0.0067646
0.00438899
0.00425484
0.00185352
0.00093679
0.00292195
0.00321532
0.00415799
0.006602
0.00345938
0.00740787
0.00604951
0.00567732
0.00527629
0.0066423
0.00202568
0.00469818
0.00696742
0.00182683
0.00199571
0.000980051
0.00135115
0.00406848
0.00756482
0.00487521
0.00733224
0.00103384
0.00477718
0.00111773
0.00430749
0.00427438
0.00576964
0.00492082
0.00576365
0.00379693
0.00221284
0.00384132
0.00597345
0.0019169
0.00465782
0.00748595
0.00452331
0.00404504
0.000860379
0.00579169
0.00187588
0.00396179
0.00747351
0.00723717
0.00259294
0.00429113
0.0042998
0.007418
0.00529521
0.00459101
0.00464041
0.004303
0.00424616
0.00522761
0.00101584
0.000675034
0.00469999
0.000884234
0.00500581
0.00304695
0.00352712
0.0068903
0.00415009
0.00544826
0.00437666
0.00427082
0.00726158
0.000614911
0.00248524
0.00352866
0.00512363
0.00701878
0.00385819
0.00622168
0.00251717
0.00743288
0.00125664
0.00418267
0.00719617
0.00441142
0.00688008
0.0056549
0.00481152
0.00671199
0.00372681
0.00740386
0.00710325
0.0046262
0.00104713
0.00747065
0.000633816
0.00224384
0.00239248
0.000665076
0.00436738
0.00360831
0.00241578
0.00395879
0.000830512
0.000412368
0.000948702
0.00350231
0.00553308
0.00383844
0.00303225
0.000965589
0.00262965
0.00381212
0.00633591
0.00481692
0.00445947
0.0031972
0.00612561
0.00437182
0.00130863
0.00224035
0.00556624
0.00246474
0.00118389
0.000764012
0.00380885
0.000448083
0.00193336
0.00070311
0.000900397
0.00450318
0.00306354
0.00735471
0.00695374
0.00494313
0.00051273
0.0014574
0.00487304
0.00493241
0.00734477
0.000808603
0.000481542
0.00738383
0.00230292
0.00379399
0.00738251
0.00226069
0.00737686
0.00743921
0.00462686
0.0049408
0.00169068
0.0067421
0.0073808
0.00548343
0.00532418
0.00530018
0.00116801
0.00185329
0.00729112
0.00145257
0.00687659
0.00722297
0.00714215
0.00183723
0.00462383
0.00206769
0.00281003
0.00614593
0.00740994
0.00141591
0.000729581
0.00471107
0.00406928
0.00189399
0.00551288
0.00562428
0.00312427
0.00286826
0.00294524
0.00382342
0.00237979
0.00114174
0.00742373
0.00122073
0.00616386
0.00395069
0.00736
0.00209672
0.00281797
0.00746392
0.00240295
0.00137759
0.00394919
0.00187375
0.00526477
0.00620889
0.00486289
0.00351027
0.00482765
0.00331076
0.000706747
0.00500448
0.00303161
0.00182099
0.00180769
0.000829717
0.0017658
0.00422256
0.000587355
0.00731853
0.00697117
0.00448935
0.00263243
0.00399361
0.00155388
0.00144554
0.00329157
0.00594155
0.00488379
0.00330657
0.0036353
0.00399061
0.00485441
0.00144829
0.00411302
0.00494795
0.00219714
0.00190289
0.00465339
0.00057661
0.00398526
0.00537536
0.00386812
0.00403734
0.00568647
0.00724959
0.00336551
0.00386634
0.000859701
0.00294101
0.00497556
0.00375359
0.00610652
0.00355639
0.000853106
0.00462578
0.00210617
0.00632773
0.0021874
0.0028675
0.00375999
0.00546635
0.00530646
0.00357914
0.00166626
0.00405055
0.00173755
0.00076314
0.00548065
0.00725121
0.00572515
0.00116698
0.00578294
0.00182289
0.00671967
0.00173696
0.00183632
0.00367691
0.00344364
0.00434419
0.00737079
0.00514931
0.00320045
0.00103434
0.00239678
0.000804479
0.00733268
0.00257583
0.00289928
0.00244673
0.00378301
0.00341927
0.00170727
0.00166647
0.00360115
0.00093161
0.00375825
0.0038055
0.00463325
0.00521726
0.00389803
0.00508102
0.00142329
0.00361185
0.00392468
0.00519137
0.0065173
0.000851368
0.00207332
0.00076361
0.00176671
0.00128993
0.00210148
0.00399159
0.00137073
0.00377768
0.00141616
0.00203205
0.00206818
0.00136179
0.00338445
0.005799
0.00463233
0.00748158
0.00162174
0.00375081
0.00356136
0.00457856
0.0015747
0.00638165
0.00446313
0.0064913
0.00746295
0.00298853
0.00214571
0.00304781
0.00361622
0.00624235
0.00236475
0.00707539
0.00332548
0.00319168
0.00740339
0.0026595
0.0020127
0.00474102
0.00245053
0.00416734
0.00270499
0.00208092
0.00296635
0.00319117
0.000230248
0.000617171
0.00166602
0.000446541
0.00342321
0.00351642
0.000622614
0.00059714
0.00589944
0.00115506
0.00339074
0.00423574
0.000544566
0.00266074
0.00711871
0.00323931
0.00173108
0.00681576
0.000755603
0.000352754
0.0023776
0.000818376
0.00229414
0.00101451
0.000892988
0.00587157
0.00464899
0.00278739
0.00230213
0.00379774
0.00729102
0.00233758
0.00070764
0.00572348
0.00177214
0.00462625
0.00210319
0.00677976
0.0062528
0.00202634
0.00204281
0.00433342
0.00188759
0.00562969
0.00138667
0.00734966
0.00670327
0.0030115
0.0018699
0.00493675
0.00740713
0.00081288
0.00148802
0.00167674
0.00376553
0.00325688
0.00211924
0.00115215
0.00429998
0.00115215
0.00203799
0.0057155
0.00332133
0.00214033
0.000755089
0.00249086
0.0020496
0.00594038
0.00585089
0.00217776
0.00425777
0.00291064
0.00513508
0.0074045
0.00697089
0.00449845
0.0025441
0.000758263
0.00467289
0.000509447
0.00470424
0.00459177
0.00304102
0.00591299
0.00392158
0.00460612
0.00485163
0.00196883
0.00628386
0.00157306
0.00740046
0.000390428
0.00129927
0.00154736
0.00200669
0.00453966
0.0055345
0.00355016
0.00640315
0.00071239
0.000738331
0.00346328
0.00221132
0.000945797
0.000970809
0.00239939
0.00118733
0.000512942
0.0037319
0.00668327
0.000523825
0.00409917
0.00499534
0.00458089
0.000795661
0.000664998
0.00419457
0.00446334
0.00143237
0.0024208
0.000880303
0.000798014
0.00331677
0.00108451
0.00117927
0.00342789
0.00492785
0.00128268
0.0065385
0.0012194
0.000241015
0.00744206
0.00499493
0.0041231
0.00603351
0.00307116
0.00322974
0.00745121
0.00302816
0.00417416
0.000952568
0.00173765
0.00534912
0.00142007
0.00514587
0.000401063
0.00697674
0.00382474
0.00242725
0.0066851
0.00107456
0.00402843
0.00315652
0.00239759
0.00230628
0.00405779
0.00308415
0.00213027
0.000773906
0.00676816
0.00132204
0.000766591
0.00112805
0.00462594
0.00110614
0.00196858
0.00478234
0.0051899
0.00116042
0.00199095
0.00250632
0.000815019
0.00258623
0.00106758
0.00287002
0.00294532
0.00227345
0.000982754
0.00360711
0.00678455
0.00224001
0.00429055
0.00255698
0.00250675
0.000700467
0.00574938
0.00405346
0.00575867
0.00152246
0.00561349
0.000591978
0.00244001
0.00559368
0.00739205
0.00198105
0.00187187
0.000989995
0.00198478
0.00246393
0.00125533
0.000963562
0.00425776
0.000949557
0.00368803
0.00309805
0.0005027
0.00164123
0.00308888
0.00282841
0.00561445
0.00165544
0.000485049
0.00184656
0.00233424
0.00289036
0.00728716
0.00203303
0.00555465
0.0037973
0.0062805
0.00117928
0.00227574
0.00156811
0.00436335
0.00173598
0.00422709
0.00307067
0.001268
0.00191249
0.00244383
0.00272681
0.00597349
0.000424166
0.00165682
0.00169051
0.00148738
0.00308214
0.00584225
0.00114094
0.000639303
0.00168607
0.00308905
0.00287736
0.00208572
0.0026395
0.00105899
0.00583961
0.00142216
0.00160342
0.00616914
0.00143754
0.00346389
0.00263567
0.0029016
0.00146637
0.00248843
0.0067768
0.000726882
0.00341734
0.000690047
0.00269198
0.00415876
0.00261335
0.00221553
0.00152212
0.00299938
0.00432409
0.0031384
0.00141696
0.00428394
0.00478087
0.000646162
0.00732806
0.00375515
0.000875221
0.00422588
0.00281913
0.00161288
0.00247961
0.00117529
0.00412526
0.000188537
0.00208168
0.00172594
0.00213247
0.00129254
0.0032594
0.000931652
0.001351
0.00133772
0.00313015
0.00403795
0.0074074
0.00419397
0.00389582
0.0029262
0.00068807
0.00383662
0.00607623
0.00526974
0.00546595
0.00350532
0.0042509
0.00750471
0.00746795
0.00305145
0.00100683
0.00724531
0.0028705
0.00242849
0.00549781
0.00696158
0.00291463
0.00270869
0.00747014
0.00598116
0.0034725
0.00367125
0.00687662
0.00388887
0.00111723
0.00395892
0.00415321
0.00603
0.00733625
0.00167602
0.00496229
0.00623043
0.000765508
0.00128448
0.000996724
0.00707705
0.000953162
0.000460027
0.00702682
0.00033296
0.000837129
0.000554732
0.00399323
0.00513871
0.00435593
0.00161661
0.00726289
0.00448923
0.00459679
0.00402083
0.00288137
0.00374594
0.00352931
0.00119944
0.00444562
0.00293426
0.000914118
0.00403567
0.000427699
0.00199572
0.00131603
0.00706856
0.00310183
0.0020239
0.00643335
0.0050489
0.00194484
0.00740681
0.0022275
0.00186695
0.000405936
0.00718587
0.00163691
0.0058373
0.00312858
0.00305184
0.0058933
0.00143882
0.00521763
0.00234159
0.0053162
0.00132245
0.000276069
0.00432332
0.00732372
0.000314165
0.00488686
0.000299317
0.00390972
0.00383615
0.00468917
0.00456866
0.00579358
0.00713503
0.00425056
0.00230339
0.00583839
0.00221722
0.00416747
0.00387507
0.00733336
0.00235773
0.000954046
0.00409392
0.00393216
0.0056094
0.00496941
0.00313743
0.0043497
0.00470086
0.00616131
0.0024377
0.00267519
0.00747217
0.0039842
0.00417736
0.00528589
0.00388656
0.00451048
0.00275506
0.00403736
0.00407122
0.00262319
0.00398434
0.00625024
0.00509199
0.00671232
0.00214899
0.00227069
0.00196206
0.0036468
0.00499649
0.0045214
0.00134099
0.00613282
0.00589445
0.00572
0.0016517
0.00300874
0.00132127
0.00129977
0.00128139
0.00379304
0.00488632
0.00479344
0.00454269
0.00675952
0.00126692
0.00442224
0.00699002
0.00434275
0.00329544
0.00458202
0.00124227
0.00465778
0.00239151
0.0028808
0.00354094
0.00638508
0.00472311
0.00387317
0.0039447
0.00490375
0.00310436
0.00355496
0.00294824
0.0038632
0.00508742
0.00491982
0.00223713
0.00198423
0.00510144
0.00431137
0.00244903
0.00383261
0.002314
0.00722579
0.00607183
0.00243798
0.00488682
0.00613746
0.00478717
0.00711882
0.00718446
0.00399785
0.00454109
0.00207884
0.00473327
0.00270755
0.00680075
0.00474934
0.000994195
0.00426862
0.00431068
0.00556989
0.00546573
0.0040771
0.00435101
0.00034364
0.00349215
0.00430881
0.00657135
0.00564454
0.00511179
0.00741092
0.00679281
0.0035312
0.00423677
0.00685447
0.00718417
0.00282311
0.000991516
0.00142352
0.00310238
0.00183424
0.00355611
0.00424634
0.00357037
0.00169992
0.00201505
0.0036536
0.0042064
0.00087101
0.00511373
0.00421513
0.00402645
0.0041288
0.00721229
0.000336173
0.00493352
0.00375506
0.00741392
0.00277041
0.00308094
0.000401651
0.000253755
0.00494582
0.00627104
0.0072991
0.00411648
0.00379247
0.00571605
0.000235749
0.00107663
0.00510931
0.0025935
0.00144321
0.00524081
0.00567995
0.00304104
0.00731457
0.00534127
0.00707754
0.00455354
0.00268712
0.00407175
0.00439002
0.0057182
0.00217796
0.00451563
0.00743712
0.00122994
0.00571877
0.00380086
0.00317727
0.000991708
0.00136327
0.00354707
0.00288005
0.00586656
0.00284785
0.00295521
0.00669914
0.000618871
0.00144729
0.00287985
0.00401453
0.00340438
0.00399815
0.00398233
0.00113703
0.00741492
0.00705639
0.00574686
0.00540143
0.000986463
0.00139966
0.00126845
0.00181758
0.00332266
0.00288053
0.00743611
0.00757636
0.004551
0.00548631
0.00528373
0.00606571
0.00741469
0.00118119
0.000409524
0.0073195
0.00726742
0.00343016
0.00164957
0.0034986
0.00735601
0.00550625
0.00160766
0.000933656
0.00356782
0.00202052
0.00344199
0.00179187
0.000517145
0.00304947
0.00669498
0.00739578
0.00617208
0.000936296
0.00601036
0.00435063
0.00441471
0.00738788
0.000918024
0.00027485
0.000502492
0.00171452
0.00163709
0.00673548
0.00733841
0.0026303
0.00443329
0.00099545
0.00084044
0.000689527
0.000449845
0.000728028
0.00186616
0.00673977
0.000895442
0.00739734
0.000420136
0.00390954
0.000748223
0.00450317
0.00194287
0.00674642
0.00322314
0.00224783
0.00225674
0.00584076
0.00560546
0.00399445
0.000966195
0.00122078
0.00500788
0.00518843
0.000491869
0.000337663
0.00398201
0.00154651
0.000627397
0.00114913
0.00489574
0.00721719
0.000820621
0.000563172
0.00146013
0.00730921
0.00126268
0.00668674
0.00065187
0.00112128
0.000394422
0.00234182
0.00627542
0.00180247
0.00712457
0.00470463
0.00406981
0.00245244
0.00644392
0.00395838
0.00549767
0.00386909
0.00436851
0.0072976
0.00689095
0.00385998
0.00695603
0.0064151
0.00453169
0.00484669
0.00182556
0.0039464
0.00246773
0.00410828
0.00649868
0.00475456
0.000955921
0.00364814
0.00349558
0.00224228
0.000647982
0.00453816
0.00295098
0.00373692
0.00104428
0.00196978
0.00136932
0.00504062
0.00713624
0.00531921
0.00358191
0.00602917
0.00349935
0.00333414
0.00397405
0.00733791
0.00499868
0.00609613
0.00478189
0.00318591
0.00480842
0.00377449
0.000722457
0.00373176
0.00419103
0.00447959
0.00308364
0.00117512
0.0022533
0.00436566
0.00494978
0.00328535
0.00109608
0.00130834
0.00411546
0.00337351
0.000385089
0.00156138
0.00207742
0.00411322
0.00155323
0.00321332
0.00406674
0.00329203
0.00120019
0.00481239
0.00417079
0.00253538
0.00682771
0.00239349
0.00278604
0.0032516
0.0033566
0.00195518
0.00443741
0.00587007
0.00741055
0.00210592
0.00337977
0.00441738
0.00223034
0.00530757
0.000937478
0.00294893
0.00336354
0.000459996
0.00196723
0.00651113
0.00350499
0.00086073
0.00175731
0.0024109
0.00734395
0.00291364
0.00119644
0.00613337
0.00750176
0.00070398
0.00207677
0.00150119
0.00261047
0.00528437
0.00482766
0.00139495
0.000515854
0.000752714
0.00392581
0.00604498
0.000626572
0.00697902
0.00193912
0.00307814
0.00154979
0.00122366
0.00575935
0.00356229
0.00119092
0.00407842
0.004545
0.00478396
0.0036627
0.00568756
0.0010232
0.000306884
0.00412468
0.0036423
0.000677767
0.000594164
0.000705783
0.00236326
0.00119886
0.00214652
0.000628442
0.00352914
0.00353258
0.000831709
0.00241039
0.00255221
0.000603767
0.000848363
0.000388084
0.00724821
0.00677319
0.000410127
0.00630009
0.00430618
0.000842495
0.0058961
0.002984
0.00447016
0.00327797
0.0051043
0.00657865
0.000499941
0.000376839
0.00183859
0.000780489
0.00242151
0.00399014
0.00442582
0.0048017
0.00337517
0.00530583
0.00590835
0.00434296
0.00526854
0.000575512
0.000648619
0.00398959
0.00193063
0.00507999
0.00410767
0.00298508
0.00359617
0.00372193
0.00493681
0.000570804
0.00123379
0.00434416
0.000710187
0.00283619
0.00142068
0.00268211
0.00360075
0.000969915
0.00283656
0.00118922
0.00299557
0.00292871
0.0029276
0.00666285
0.00136173
0.00735004
0.00589762
0.00268078
0.00434778
0.0015156
0.00346596
0.00188757
0.00345607
0.000890509
0.00405852
0.00345811
0.00371113
0.00729869
0.00318568
0.00331539
0.00180526
0.000442324
0.00317262
0.000662012
0.00350272
0.00475971
0.00258742
0.00482554
0.00546358
0.00516089
0.00320214
0.00131573
0.00205114
0.00143546
0.000668735
0.00272744
0.00475385
0.000176047
0.00106679
0.00495444
0.00336576
0.00143496
0.00384213
0.000809914
0.000469619
0.00268244
0.00128991
0.00141499
0.00292223
0.000842702
0.00190321
0.00699557
0.00350185
0.00109211
0.0011972
0.00704996
0.00103195
0.00752123
0.00264922
0.00560954
0.0026458
0.00193928
0.000972401
0.00106439
0.00588465
0.00568803
0.000249631
0.00733322
0.00437075
0.00120056
0.00636918
0.00288622
0.00276344
0.00376183
0.000529872
0.00157778
0.000601695
0.0017022
0.00315254
0.00125346
0.00637045
0.00549522
0.00116351
0.00703481
0.00381788
0.00266008
0.00535308
0.00144952
0.000519515
0.00722277
0.00258786
0.00728507
0.000834106
0.00492104
0.000621678
0.00285771
0.00252119
0.00660911
0.00258654
0.00269197
0.00687152
0.00551302
0.00339603
0.00742144
0.00133349
0.00342051
0.00356534
0.00633581
0.00439574
0.00355139
0.00279083
0.00292505
0.0022111
0.00325347
0.00420344
0.00433218
0.00162847
0.000661617
0.000827164
0.000755204
0.00130186
0.0008824
0.000805385
0.00321537
0.00027255
0.000621326
0.0012748
0.00215374
0.00287537
0.000847082
0.00104788
0.00246259
0.00131671
0.00217292
0.0061206
0.00289908
0.00121498
0.00405023
0.00046031
0.00299554
0.000391302
0.00208703
0.00120303
0.00145429
0.00102446
0.00063657
0.00201896
0.000539462
0.00271837
0.00208316
0.00476099
0.0017654
0.00524881
0.006285
0.00102498
0.0034941
0.000941013
0.00164678
0.00519755
0.00237538
0.00433861
0.00131379
0.00113181
0.00749621
0.0056107
0.00169384
0.000957217
0.00376168
0.00273238
0.00117325
0.00117557
0.00478006
0.00734142
0.00393884
0.00433956
0.000717103
0.00747541
0.000958111
0.00035765
0.00522204
0.0028964
0.00443013
0.00401684
0.000822096
0.00280482
0.000753608
0.00341155
0.00470017
0.000517503
0.000902064
0.00566983
0.00241056
0.00566124
0.00690646
0.00119127
0.00273775
0.000779121
0.00390766
0.00660218
0.00235833
0.00691077
0.00552728
0.00556992
0.0050514
0.00277357
0.00237893
0.00144051
0.00343271
0.00120525
0.00427428
0.00716534
0.00218772
0.00133659
0.000873215
0.000913972
0.00166806
0.00201297
0.00107412
0.00102106
0.000814267
0.000933492
0.00319707
0.00302646
0.00412071
0.00142698
0.00494984
0.00319019
0.00323957
0.00158402
0.000561108
0.00348213
0.00348543
0.00347857
0.0049715
0.00342202
0.00456979
0.00616813
0.00496303
0.00280711
0.00308825
0.00273819
0.00586354
0.00301774
0.00144696
0.000790227
0.00429416
0.000615016
0.00743916
0.00350698
0.00715113
0.00453048
0.000988465
0.00274476
0.00123861
0.00379154
0.0037692
0.00388364
0.0045754
0.00510665
0.00323732
0.00338723
0.00343334
0.00730026
0.000873239
0.00323362
0.00136514
0.00293779
0.00106238
0.00625547
0.00464754
0.00348735
0.00399445
0.00298091
0.000997574
0.00682215
0.00431152
0.00072994
0.0024691
0.00243085
0.00292553
0.00244004
0.00257018
0.00220693
0.00525422
0.00741206
0.00685836
0.00204225
0.00168975
0.0049538
0.000440953
0.00540344
0.00182929
0.00707581
0.00661935
0.00200006
0.00436877
0.00635939
0.00108351
0.00742084
0.00423307
0.00159038
0.00234985
0.00725163
0.00136588
0.00688458
0.00703521
0.00123381
0.00345504
0.00289299
0.000860179
0.00746614
0.00203739
0.00148561
0.0017325
0.00103621
0.00119053
0.00526174
0.00582092
0.00292735
0.00616877
0.00207342
0.0029688
0.00590068
0.00652603
0.00348165
0.00125665
0.00300314
0.00439158
0.00232218
0.00343297
0.00244266
0.00738904
0.00210006
0.00128478
0.00368824
0.0036865
0.00554566
0.00514879
0.00352244
0.004333
0.0022522
0.00373491
0.000620878
0.00440645
0.00696836
0.00105465
0.00286946
0.000675206
0.000991185
0.00576074
0.0036101
0.0013314
0.0030934
0.00047197
0.00149763
0.000659181
0.00160942
0.000519773
0.0029944
0.00190479
0.00165715
0.000593741
0.00116934
0.00299704
0.000634151
0.000387445
0.00215978
0.000366677
0.000952984
0.00184095
0.00267117
0.000682777
0.000972454
0.00746936
0.00374305
0.00105748
0.000814858
0.00107639
0.00139858
0.00164383
0.000803096
0.00290023
0.00370919
0.00450588
0.00716543
0.00320069
0.00678264
0.00110439
0.00299625
0.00441034
0.000734373
0.00395715
0.00232958
0.00465154
0.00674857
0.00319782
0.00437276
0.00180136
0.00703666
0.00198066
0.000614163
0.0050926
0.00730939
0.00347066
0.00536308
0.00114949
0.0027882
0.00585446
0.00640858
0.000623503
0.00672772
0.00401524
0.00715784
0.00182487
0.00324864
0.0044935
0.00598805
0.00532041
0.00143835
0.00365876
0.00251007
0.00744248
0.00730554
0.00716131
0.00375908
0.00472934
0.0036557
0.00611477
0.00345376
0.00366615
0.00277519
0.0013058
0.00127491
0.0034845
0.00197208
0.0042463
0.00274091
0.00351693
0.00374315
0.00669694
0.0031784
0.00431578
0.0064737
0.0021412
0.00467862
0.00307123
0.00115444
0.00495346
0.00280972
0.00132395
0.00399326
0.00116944
0.00201433
0.00116058
0.000372728
0.00284248
0.00559048
0.00209099
0.000488074
0.00384142
0.00718815
0.00660309
0.0058942
0.00366046
0.00467927
0.00737288
0.00731405
0.00398976
0.00291558
0.00747988
0.00682718
0.00746332
0.00565615
0.00317524
0.00187462
0.00309851
0.00637772
0.00365597
0.000961144
0.00557888
0.00629168
0.00363502
0.000559989
0.000645246
0.00375002
0.00539294
0.00513165
0.00325515
0.00423931
0.000638613
0.00194971
0.00510262
0.00406488
0.00661406
0.00361455
0.00191624
0.00392033
0.00327667
0.0037271
0.00139057
0.00198052
0.00163518
0.00101704
0.000355024
0.00205599
0.00194617
0.00392189
0.003994
0.0035112
0.00328099
0.00639457
0.00446964
0.000476277
0.00731389
0.00183328
0.00126164
0.00336931
0.00300361
0.00054589
0.00203072
0.00416706
0.00388639
0.0074762
0.00306645
0.000972528
0.00385981
0.00168924
0.00466454
0.00290322
0.000724657
0.000914461
0.00355908
0.00338914
0.00112658
0.00488297
0.000720191
0.000673881
0.00131188
0.00741961
0.00717319
0.000349434
0.0064648
0.000508791
0.00219297
0.00326247
0.00116331
0.000998644
0.00665492
0.00746691
0.000998294
0.00674001
0.00623683
0.00517046
0.0070188
0.00435261
0.00390687
0.00237369
0.00602875
0.000370578
0.00323337
0.00459993
0.00388648
0.000328929
0.00429156
0.000588021
0.00511053
0.00359295
0.00383894
0.00117917
0.00560907
0.00503223
0.00513783
0.00095191
0.00208825
0.00211456
0.00146855
0.00280636
0.00652304
0.000825426
0.00314174
0.00331527
0.0032272
0.00472763
0.00322328
0.00388865
0.00716216
0.000401629
0.00144215
0.0046101
0.00510078
0.00223988
0.00452424
0.00286705
0.00324236
0.00517207
0.0023419
0.00482092
0.00517828
0.00425242
0.00151044
0.00463532
0.00488298
0.00508002
0.00358053
0.00681004
0.00539192
0.0055411
0.00280268
0.00418053
0.0027301
0.00257911
0.00374543
0.00055295
0.00530941
0.00309626
0.00130646
0.000793681
0.00151724
0.0037786
0.00375464
0.00196261
0.000320108
0.00398724
0.000922774
0.00402078
0.00738058
0.00280346
0.00178224
0.00388179
0.0048974
0.00746892
0.00543714
0.000349383
0.00538999
0.00684241
0.00258935
0.000428767
0.000493278
0.0040016
0.000291955
0.00079763
0.0011312
0.00161095
0.000806124
0.000464775
0.00542778
0.000996607
0.00400841
0.00604867
0.00441403
0.000524928
0.0021194
0.00699186
0.00607694
0.00101807
0.0048903
0.000538685
0.00618291
0.00294501
0.00516723
0.00297479
0.000655356
0.00742227
0.00317624
0.00284921
0.00604281
0.00372722
0.00633769
0.00292389
0.00054555
0.000530581
0.000664177
0.0015789
0.00140158
0.00653389
0.00670868
0.00541526
0.00370765
0.0072748
0.00163666
0.00745632
0.00102822
0.0042139
0.00703767
0.00620805
0.00478309
0.00706223
0.00357092
0.00302859
0.0071997
0.00318183
0.000953025
0.00608066
0.0011469
0.000929724
0.00676887
0.000284584
0.000571313
0.00284679
0.00295645
0.00396261
0.00131176
0.00431155
0.0021251
0.00152905
0.00584723
0.00170242
0.00720533
0.00223433
0.00432335
0.00241011
0.00196161
0.000786866
0.00332826
0.00395525
0.00072182
0.00144338
0.00216514
0.00156432
0.00566051
0.00143827
0.00438787
0.00194489
0.00313736
0.00611802
0.00135123
0.00258639
0.00245237
0.0064883
0.000713219
0.000883332
0.000558689
0.00630918
0.00439868
0.000948972
0.000640758
0.00204373
0.00400742
0.00252035
0.00117597
0.000801048
0.00195404
0.00518239
0.00323881
0.00439647
0.00543623
0.00401798
0.000640026
0.00549796
0.00195283
0.00314999
0.00699288
0.00262388
0.00269913
0.0058793
0.00397882
0.00507467
0.00230174
0.00137265
0.00474482
0.00370275
0.00222639
0.00280297
0.00288693
0.00198038
0.00194085
0.00363123
0.00627325
0.00614237
0.00576929
0.000784625
0.00389798
0.00107193
0.00337058
0.00404483
0.00557967
0.00346922
0.00699501
0.00250432
0.00747342
0.00238375
0.00240836
0.00360274
0.00463472
0.00242997
0.00351442