/*--------------------------------*- C++ -*----------------------------------*\
| =========                 |                                                 |
| \\      /  F ield         | OpenFOAM: The Open Source CFD Toolbox           |
|  \\    /   O peration     | Version:  2506                                  |
|   \\  /    A nd           | Website:  www.openfoam.com                      |
|    \\/     M anipulation  |                                                 |
\*---------------------------------------------------------------------------*/
FoamFile
{
    version     2.0;
    format      ascii;
    arch        "LSB;label=32;scalar=64";
    class       volScalarField;
    location    "0.0380695";
    object      omega;
}
// * * * * * * * * * * * * * * * * * * * * * * * * * * * * * * * * * * * * * //

dimensions      [0 0 -1 0 0 0 0];

internalField   nonuniform List<scalar> 
47425
(
56.2483
67.8855
71.7053
164.531
135.946
72.3993
92.4595
103.619
49.3965
585.928
140.838
48.428
68.9867
79.3505
94.4734
91.2111
68.5136
50.2261
1198.66
177.1
87.0092
46.6668
107.775
64.4573
48.2628
45.7575
78.2758
672.865
70.7569
56.3823
46.5362
48.6154
47.8062
65.5686
53.6755
68.1424
46.1945
67.5933
65.0733
75.38
73.4848
72.7018
120.557
145.007
1305.06
108.315
97.7807
77.7916
78.7934
48.9234
582.568
217.494
50.2653
827.427
115.527
123.904
45.5747
56.9258
84.5172
62.4336
1143.25
1100.41
865.052
47.457
49.3561
47.1767
62.619
76.7519
785.332
47.3301
78.3856
51.1603
48.3975
90.5272
687.851
49.4075
843.785
81.6753
1389.61
250.717
717.748
64.5158
45.8753
47.3315
46.7999
83.5892
53.7009
49.891
106.578
409.1
46.9489
78.6288
46.2124
116.019
149.047
196.766
49.9734
51.395
87.6455
80.7772
61.7569
91.6786
52.4474
99.9416
50.1422
54.3371
47.5414
93.3522
46.6662
49.0101
335.684
63.6446
66.6921
156.335
49.2981
915.733
48.91
231.244
81.1549
59.7071
79.4076
48.5554
59.259
61.6542
99.0749
59.0713
85.6599
49.193
107.316
45.7041
46.6478
99.5801
133.415
123.791
65.3746
65.6838
48.9591
61.2459
68.864
99.2538
71.271
135.56
72.6408
82.1773
53.6777
49.3306
107.935
63.472
153.762
72.5228
80.8135
485.802
48.7804
697.278
48.9193
85.5164
58.0433
906.033
95.2142
74.9516
49.3562
45.9496
50.4548
47.8877
392.66
834.779
46.7458
692.272
107.344
693.648
695.577
88.0396
73.9359
47.5802
74.481
68.1056
717.003
69.8588
52.8447
46.282
1005.68
47.4327
60.202
47.4282
47.9171
49.9695
56.4939
82.1197
149.892
53.9324
47.9549
70.6111
79.0057
77.0414
48.7097
47.4897
61.8892
74.2069
48.2027
81.1922
66.9718
123.266
46.8185
48.1829
51.6207
159.213
52.9934
47.7267
88.7507
48.4731
63.6178
65.7306
47.4993
94.5804
62.382
63.0358
70.7641
252.834
49.8268
94.986
279.378
116.095
94.715
95.4294
167.556
235.216
48.5331
131.3
52.2877
60.5398
67.9711
73.9074
107.562
49.3249
167.001
95.0822
308.948
116.679
256.204
181.997
84.3644
56.9396
45.6695
105.073
46.0198
49.5174
68.1231
60.8158
45.5144
77.012
45.1858
210.618
66.9049
49.2859
92.053
45.3927
47.5786
122.914
96.1681
48.3882
127.586
47.5688
77.7825
136.393
68.6456
92.3545
46.5958
68.8909
62.038
82.9387
79.4339
224.519
302.307
48.4494
210.5
180.843
211.127
118.622
287.307
179.553
1182.57
54.5274
1123.24
126.451
80.7076
86.3707
106.971
91.7362
92.2382
50.6912
614.419
47.0663
50.3439
56.8087
67.3618
101.818
114.49
47.1022
66.6108
57.4516
91.5154
46.3772
89.3648
60.0285
774.876
1037.43
679.081
45.5321
48.9306
45.6514
104.103
685.613
87.9237
119.48
225.985
76.3721
106.296
124.474
92.6944
383.27
200.027
46.9526
61.0853
47.5663
84.32
45.6374
78.1312
60.6394
52.3383
72.1867
80.4243
610.362
55.0101
76.3645
129.231
45.7514
639.979
53.2741
47.1622
51.856
47.3754
47.6147
45.4815
53.9661
49.2931
51.7754
58.5884
48.8543
82.4974
86.9291
48.5708
47.5246
63.4743
49.5394
49.8576
50.3648
80.5446
45.5462
50.6967
93.5816
58.5597
59.3188
81.5828
94.1302
48.0954
50.4191
133.675
48.276
68.4261
46.8586
133.175
970.566
77.9937
47.2124
200.238
47.1289
71.4099
95.6832
72.5598
46.4809
63.5755
47.3837
45.2999
73.7904
88.4931
82.8676
84.8567
52.9748
48.938
85.0393
49.6544
48.3038
82.6557
56.3782
65.8293
49.7694
63.3218
91.4549
65.246
48.8338
485.79
47.2752
372.163
72.8884
107.763
105.566
48.5088
147.643
47.4986
96.3289
48.1044
617.524
350.002
45.4536
50.6298
81.4636
87.1405
81.2668
76.5838
80.0609
90.6646
68.743
45.708
103.894
71.0881
49.5983
80.9791
77.4367
54.0547
142.134
1349.95
48.7053
280.267
1117.28
91.2998
1151.85
887.344
49.6272
80.9811
76.332
78.9264
720.235
91.2329
50.5609
51.2681
74.7084
75.4691
82.3454
81.3146
459.863
777.998
148.816
65.5982
73.8932
123.858
55.9676
46.7829
65.9104
46.3545
84.081
75.8219
132.708
68.8276
49.3507
78.738
59.5187
80.5477
47.1975
65.2745
67.6209
66.878
63.5625
110.595
125.237
62.3923
85.8958
46.8073
488.062
131.607
73.9598
46.8362
140.421
241.367
49.1043
45.4836
49.2684
47.7385
68.6221
50.3298
109.926
82.203
49.2156
53.458
149.123
99.3139
47.0352
52.4751
59.1649
56.0912
48.4693
51.8902
46.0308
68.652
57.5763
113.446
60.8535
48.3721
45.9122
46.4531
75.6839
130.177
47.5622
45.4398
56.7515
54.9959
55.3786
59.6376
72.1872
73.0504
51.9787
76.9221
100.912
429.017
61.9183
69.1939
54.89
49.3472
122.978
123.075
79.1304
49.9421
82.9211
101.631
49.8036
134.127
48.4766
239.101
51.1561
52.9317
58.1874
119.155
45.3798
72.8644
73.1453
47.6169
45.4211
50.8707
1137.84
62.7622
152.138
47.1296
94.6885
47.574
58.5248
80.4076
71.5099
70.8953
46.9089
415.943
53.9179
58.4892
54.0437
50.2689
46.2028
58.7615
115.797
49.3279
53.252
68.3955
46.3044
225.594
46.8539
61.7001
527.712
73.0692
45.6029
384.94
550.004
47.4642
681.814
716.864
71.8758
47.0541
52.6219
45.8641
86.5264
91.785
541.823
46.1428
131.587
50.8786
103.772
57.5851
85.5786
68.241
533.265
296.953
52.953
94.6465
90.9933
85.7084
124.351
128.093
51.0508
98.953
132.929
90.1591
67.9346
130.553
52.0317
49.1695
130.955
95.2919
78.6135
125.253
103.643
67.0326
73.4397
59.0602
56.1514
68.7231
49.5686
47.9362
1337.77
61.8059
73.4445
1057.1
1019.08
45.5839
78.6843
1666.52
173.768
90.9505
290.416
119.473
766.744
58.5411
49.6812
60.2112
158.477
113.778
112.854
46.9602
120.24
65.807
83.4382
50.2151
82.305
57.5876
396.785
692.385
124.452
51.4008
87.4797
46.2499
110.727
47.6375
58.4411
63.5591
65.923
47.3746
185.244
75.9768
47.907
71.5933
191.74
847.55
205.893
89.6559
45.7069
75.3073
46.0539
843.401
71.1187
563.155
85.9932
106.867
64.7178
70.9615
61.0325
86.3279
56.2586
88.7298
55.2306
209.576
86.9474
49.2357
69.9924
90.6723
1030.89
64.5724
205.101
67.0127
48.6714
45.9963
146.977
79.9772
69.8917
46.6252
65.2117
65.4268
74.9143
81.2717
80.1907
64.5799
124.412
192.9
71.5821
96.9211
67.1907
115.899
93.7826
48.5933
99.0363
60.1765
76.4021
80.4791
46.3809
296.75
430.44
97.987
67.0762
47.8956
92.929
53.3838
140.339
48.405
240.352
83.8799
46.6387
79.0392
48.9287
59.6039
70.9239
49.9891
90.8374
45.9718
47.0482
49.7759
165.873
44.9246
392.212
227.686
243.923
358.754
82.1979
203.959
59.0568
49.5285
148.448
350.062
367.681
100.661
60.0166
121.182
119.737
161.652
133.223
95.5825
52.8665
70.5665
99.319
116.524
57.8823
84.8575
372.356
59.4549
62.898
153.546
122.275
116.805
141.69
744.688
500.276
231.671
256.325
80.6539
120.957
45.8232
48.2041
73.6579
407.179
185.123
73.3205
74.5148
46.138
362.338
358.398
45.4137
172.569
92.1819
45.6374
169.412
45.5357
45.5481
72.953
73.6642
88.282
49.8536
45.8208
61.1188
70.471
69.0186
144.018
102.437
45.5588
252.962
48.4855
46.6436
47.1384
201.724
80.8156
267.536
120.64
54.5418
45.806
68.9652
1231.33
74.1014
85.5464
75.4705
65.9545
61.5726
119.582
123.902
127.951
293.861
90.1809
753.828
49.4183
68.2331
54.7607
62.0974
46.1423
170.702
129.763
45.8709
315.211
100.951
69.4929
262.458
74.5847
53.963
73.1558
66.4747
70.6503
112.037
356.253
67.4238
72.315
211.168
225.253
663.48
220.051
91.2905
180.947
46.5306
48.8671
99.7274
162.644
88.0699
84.8338
95.7925
104.64
49.2848
68.242
108.322
101.337
91.6562
272.546
595.897
95.6199
104.959
132.561
696.527
299.539
214.871
94.3424
67.1504
96.6101
94.8964
156.471
46.6842
49.8702
96.5668
445.439
122.02
70.2831
98.5085
54.7147
110.706
128.906
78.5974
452.123
53.4674
66.1075
131.334
97.2795
65.4496
66.2275
104.747
101.186
94.252
61.2682
132.089
47.6722
46.7851
48.0811
85.0282
57.8898
151.465
54.0744
223.874
297.079
256.473
96.5772
83.6932
47.5811
70.297
115.828
480.076
232.801
920.779
46.5903
59.3086
55.9081
306.74
88.619
299.006
240.496
234.766
132.202
239.831
90.9176
86.2773
73.208
48.1726
114.994
68.8861
74.1476
209.321
78.3434
64.1866
51.5538
264.486
430.187
150.906
186.071
651.682
193.47
94.14
72.4524
88.4781
108.97
186.769
190.409
636.472
48.5713
57.7408
72.6268
47.9965
64.7592
102.633
98.1731
53.8627
112.077
53.1226
78.8044
52.1766
47.4067
126.864
64.9648
123.053
47.6443
47.0396
164.858
48.1334
98.9476
106.315
47.2968
63.3731
120.295
76.3508
66.117
80.3945
476.872
186.618
126.044
109.493
1856.4
986.871
642.595
424.495
105.718
50.9892
1058.72
414.209
55.3063
66.4805
108.706
87.5279
382.951
140.625
48.6828
115.428
58.5908
49.4616
207.74
923.676
141.339
1183.52
154.792
247.352
770.226
57.3592
79.5957
134.815
277.604
95.4032
49.9005
49.6982
856.871
75.8618
352.374
72.0175
165.961
49.511
54.4802
536.493
544.338
85.3699
56.3682
72.8061
445.098
46.7489
49.7638
425.158
559.544
73.1525
47.0647
1051.82
852
525.937
101.14
213.852
472.805
510.304
79.8095
95.6065
100.383
63.063
108.365
525.192
1410.6
63.7334
61.1323
59.6794
51.9201
50.5982
81.8865
138.927
67.4924
49.5569
48.292
76.7901
377.895
1089.57
51.5237
231.851
97.3163
74.1365
182.5
56.3312
90.3303
73.913
49.608
201.737
53.1156
486.11
46.152
785.874
549.326
465.11
205.608
92.3658
64.9118
105.703
52.7311
206.373
1426.78
106.315
387.191
191.051
442.11
150.608
795.887
621.549
94.1626
50.5145
1503.98
84.7372
49.7002
74.2898
542.641
1034.25
81.1086
52.2984
465.57
80.6158
869.844
753.968
109.656
122.2
890.163
105.23
48.0111
560.855
52.5477
652.926
1023.43
46.6665
67.8849
84.4343
56.1777
125.671
102.611
46.1739
123.911
90.4463
120.033
58.2523
46.061
169.198
148.654
627.983
53.6919
98.1889
225.242
47.4334
814.649
86.5211
116.336
152.61
546.477
87.3611
539.185
183.033
142.266
56.9662
718.621
217.336
263.741
81.207
159.848
61.2175
76.0267
68.3477
329.738
264.84
106.709
713.145
150.115
103.748
263.694
130.078
147.379
793.437
283.569
49.5217
159.047
83.8909
148.418
311.489
1000.57
58.5385
47.7249
62.4014
555.468
63.5125
320.917
60.3239
62.5491
47.919
142.09
57.557
211.71
303.684
53.9617
63.1404
93.8422
81.6471
992.644
309.977
115.346
728.054
362.695
121.985
207.36
64.271
58.6563
1097.92
57.9319
445.606
291.483
48.8932
60.374
81.7851
96.23
56.4397
71.8688
127.478
81.4522
79.0331
68.4667
82.7106
238.297
67.3871
198.663
158.235
199.748
56.4519
728.571
414.285
58.4439
535.166
261.315
57.3109
111.835
639.354
223.821
49.8401
180.784
355.981
182.966
435.896
58.1216
560.247
105.496
54.4959
68.6872
111.327
172.985
128.153
67.1468
259.101
49.474
255.16
109.832
1209.43
146.774
79.5035
122.758
251.782
57.498
232.373
105.921
112.122
690.137
78.5936
76.2137
1010.67
45.5742
101.675
385.883
61.0671
284.887
838.552
154.688
76.7034
82.1131
961.061
296.467
379.41
311.558
78.3365
69.281
104.208
630.482
848.929
266.448
89.8459
48.3411
87.7333
89.1057
131.251
336.473
94.4686
57.0271
61.1608
61.0595
47.7919
87.0104
46.9554
47.3588
122.658
89.9438
46.9175
131.575
239.102
63.8305
48.5503
133.595
62.5562
48.2124
56.0794
103.992
97.5903
50.6832
97.132
590.863
89.9895
50.5668
55.9399
46.032
221.631
68.5582
54.7855
666.887
914.987
280.871
49.2519
663.063
154.609
48.2529
997.816
99.7185
981.387
92.1567
67.4461
83.7036
68.8261
47.1954
83.7655
85.7769
94.5084
116.962
90.3874
106.004
152.353
82.3216
78.093
432.711
87.2116
1270.5
71.0352
662.965
47.3799
121.032
184.97
52.5132
69.5509
191.114
45.5118
463.714
325.794
1273.9
54.4711
643.242
57.3733
113.533
162.406
57.4299
553.889
79.5139
272.763
62.0767
713.337
694.576
80.6592
45.601
337.301
72.096
348.723
85.9864
97.5106
72.1018
73.664
58.5332
48.7511
84.3542
263.626
72.1463
179.198
86.7141
88.0863
46.7988
156.654
753.447
91.3056
331.377
86.6212
67.9516
121.809
82.1471
74.9045
57.3074
155.792
132.538
48.5777
86.2923
78.257
70.1578
95.0029
402.936
412.144
82.7225
93.2485
302.598
88.5515
53.6977
65.7074
49.8131
173.269
168.44
203.966
105.24
70.8247
74.2101
67.7819
54.734
55.6834
60.8486
455.236
131.015
651.969
490.563
610.748
58.5056
68.7506
69.2916
72.9931
50.0847
306.708
79.5349
48.2257
81.4562
111.238
73.6095
346.18
71.9439
158.463
106.915
101.336
52.1028
71.8655
91.3368
91.7463
68.7358
116.557
96.9302
174.571
87.0968
69.1126
78.3935
153.868
174.99
65.7743
83.6867
135.363
99.1121
171.609
46.735
54.6908
137.127
69.2193
55.0628
77.9904
47.2182
47.0162
84.6188
77.4174
434.552
72.6424
87.8637
49.0319
71.0876
667.853
82.2391
86.6253
59.889
63.7223
89.9972
87.4346
946.676
107.829
428.844
50.9252
60.7336
72.9459
45.7407
49.7731
109.036
84.0654
49.3312
47.239
322.643
107.515
486.665
123.067
251.819
105.67
77.3905
110.247
539.913
184.472
93.1468
80.4921
929.582
65.4125
82.4119
90.4127
85.604
47.0646
963.599
68.3185
94.6494
47.2637
127.583
57.432
936.931
1031.82
68.5707
53.7647
46.4313
93.6418
96.8989
59.0816
1193.03
799.746
65.3115
141.281
429.288
64.7988
103.22
114.579
45.9882
62.9691
48.2192
75.4073
229.775
88.4069
80.1431
47.4714
58.578
76.8798
48.6234
295.955
63.4694
132.965
148.227
402.021
306.493
104.715
134.662
71.8001
133.158
122.512
47.0035
591.178
317.176
131.232
94.8356
106.066
93.3786
91.3115
342.096
46.138
47.2126
62.2632
65.2155
133.597
79.9124
371.334
409.842
48.6192
131.264
46.9303
46.5082
80.2449
61.9883
66.4482
55.3203
45.5268
343.751
400.742
46.474
46.6441
187.882
757.907
51.6797
45.0318
83.2182
163.033
917.05
95.2796
377.935
351.289
375.803
376.496
72.1726
50.2782
45.3951
58.4651
948.049
55.5198
85.6915
81.6253
45.3663
719.359
1204.9
1180.82
204.68
409.51
49.7336
46.6174
54.8984
83.5794
759.175
654.987
361.869
556.865
374.376
58.9024
50.5412
837.064
47.9006
918.715
95.3613
914.265
80.527
139.987
57.0158
170.474
169.186
169.858
73.5599
63.2056
89.3873
76.4624
66.0716
72.0758
67.2742
1185.86
805.766
89.8993
340.819
721.89
318.737
70.2388
47.4387
639.099
531.537
483.601
47.1558
842.248
51.0586
981.625
728.817
687.095
279.998
53.091
61.0375
47.9355
73.688
86.6584
159.341
66.3567
84.6502
60.6814
96.1362
79.6847
46.0982
49.3493
114.218
48.219
51.5392
80.0122
69.9729
90.1183
90.3502
157.707
92.3057
51.7556
96.0221
105.518
90.1604
96.1
134.653
1181.78
58.8521
323.303
67.7453
94.4083
382.529
72.528
55.0664
47.1366
97.0263
97.7395
55.1581
104.674
104.013
85.2996
48.2665
67.9306
54.8073
72.009
109.763
73.7852
101.174
293.388
92.0965
83.2191
77.7243
115.334
84.4575
333.841
47.4693
69.3948
109.919
300.845
308.176
84.5671
106.532
939.114
240.274
189.081
91.9076
73.2242
113.306
89.4364
53.8204
135.897
79.6268
89.0951
378.28
51.9267
166.856
127.669
115.389
106.864
202.123
80.1813
58.395
46.0164
55.5112
100.257
82.2411
560.631
64.1908
91.6423
128.223
104.374
904.295
58.7481
56.9737
105.421
280.481
383.501
152.787
46.9788
136.175
67.8757
49.6192
45.5009
530.851
102.169
60.783
403.704
73.2617
71.0334
160.139
785.912
1014.47
126.141
68.9927
942.868
50.0422
172.771
128.103
548.367
328.228
64.2945
97.1346
547.418
93.4737
62.5406
71.7968
101.855
54.9783
66.6491
362.701
48.0388
102.876
534.417
149.308
562.282
83.5455
420.85
53.0519
1104.29
106.003
106.104
576.277
232.395
284.193
486.523
429.354
285.731
46.8758
49.7689
412.396
57.7707
86.7881
351.27
64.7824
61.5483
75.8201
149.689
71.9115
51.6011
732.362
405.429
155.484
374.954
168.807
91.5921
83.531
79.4143
117.107
64.0393
56.508
84.7942
63.0894
309.942
331.391
101.261
56.6209
70.0267
77.1794
114.674
107.695
99.5607
77.6394
344.581
61.2631
65.5082
382.266
132.937
562.775
198.92
98.4855
711.4
139.443
113.915
355.16
135.326
129.166
51.182
655.271
46.2735
56.7451
54.341
87.5803
70.088
103.87
206.585
106.649
135.09
83.3672
112.235
101.55
45.4466
336.336
136.196
580.78
1222.94
105.418
384.725
113.469
71.1848
628.427
69.7876
61.183
89.7664
107.151
667.385
351.011
55.4126
312.435
378.593
72.3343
1887.92
398.315
100.509
371.73
64.2521
89.8187
240.702
349.988
147.288
743.926
57.1981
53.0076
154.008
55.1184
49.3591
106.526
314.833
574.088
47.1053
144.441
46.1617
145.463
63.5357
145.28
308.958
90.9164
268.097
59.9456
63.4408
782.825
46.3011
54.5688
116.519
54.1962
128.407
308.65
49.2455
944.694
530.338
880.122
491.989
119.403
69.7671
52.8721
60.9402
85.3328
48.3051
88.815
151.036
64.3257
75.3442
649.898
47.1543
154.045
47.6362
131.734
68.7376
722.314
129.436
94.6265
47.0525
135.375
152.842
49.7795
61.1685
102.168
44.9935
208.015
97.2232
107.085
55.8481
47.8769
104.173
50.3306
129.904
318.156
48.2187
74.7012
49.9326
66.2843
434.393
226.846
131.34
422.747
812.635
400.205
78.6514
549.449
458.177
719.719
70.9272
192.2
387.038
314.634
289.92
956.368
57.4059
48.2934
190.403
790.751
54.2211
377.089
108.574
392.465
77.4567
71.8833
576.258
543.407
378.77
60.0965
303.302
132.104
481.777
47.4158
210.375
65.4406
54.7974
97.5631
98.3516
303.579
115.41
65.387
163.605
78.9536
251.61
358.941
47.7114
69.3259
57.746
945.993
84.3668
132.719
171.151
140.532
69.8522
46.9481
93.2433
77.1267
416.049
45.7461
106.565
326.536
66.3759
52.3692
77.4108
73.9951
654.789
139.8
206.119
96.1814
70.6947
1070.17
980.134
60.4464
147.949
60.5263
49.1941
408.811
79.0536
516.336
56.5241
51.2215
99.7573
58.2284
50.3632
61.7326
68.4683
138.575
219.769
329.205
302.401
71.0042
78.2965
48.0389
172.974
567.547
906.53
73.0616
565.131
185.814
639.093
82.4013
380.868
111.925
161.51
130.749
85.7459
270.047
72.8945
182.399
112.554
60.9692
1030.32
107.602
591.626
107.494
70.746
110.761
118.196
66.4724
68.7732
290.947
108.984
124.551
56.6928
124.008
600.524
131.285
80.6806
163.754
47.4839
62.0172
48.0916
77.6113
80.0029
150.567
73.1208
98.0581
90.4032
72.5106
79.9778
64.8151
76.2906
60.5793
269.824
53.2852
106.849
51.7004
69.8421
128.663
80.7916
53.1873
81.3814
101.171
91.3086
130.545
338.172
48.9314
142.565
354.791
158.708
156.251
53.0733
156.841
87.3315
289.927
65.1205
49.5337
53.8143
158.864
59.2274
67.1441
847.538
158.554
352.802
48.1502
51.4166
179.358
81.4174
55.8298
128.139
49.1185
83.2382
57.1827
383.253
46.889
155.512
49.2875
49.5036
77.4854
66.689
133.678
105.414
45.6902
279.091
67.0604
71.3848
90.3476
791.849
65.5221
61.8862
130.68
61.3223
56.6114
127.03
57.1376
51.6069
107.587
196.82
126.886
86.3534
411.239
110.212
271.595
48.5627
182.411
66.1999
95.8798
181.879
51.1142
94.377
63.9373
82.0978
161.322
67.7134
584.537
106.464
48.9237
501.377
131.425
1296.21
302.979
137.658
88.1898
97.3078
122.165
384.738
64.1078
459.2
91.1689
365.859
67.7917
369.632
67.2398
242.269
217.291
128.24
382.47
478.061
469.353
1191.38
551.49
665.345
332.818
426.65
341.453
46.6602
97.8378
312.157
70.1331
612.8
59.2149
458.615
611.988
124.107
102.488
78.094
46.3299
115.718
49.2994
251.236
133.922
85.5964
181.885
87.1528
157.136
71.0898
54.202
113.949
51.6528
223.036
47.7804
69.6655
697.649
65.6315
46.1383
102.997
63.1863
628.68
263.601
70.7487
63.6462
173.674
49.8674
82.5989
50.9795
54.1918
107.098
79.1122
57.2884
63.3771
306.151
90.9541
59.0853
47.7691
45.9857
47.824
156.581
74.3163
99.5472
55.294
76.3109
99.1872
54.8923
253.46
74.3989
49.9163
60.9766
85.0676
142.873
112.743
100.102
52.1576
120.675
85.8556
54.3696
54.8764
79.054
79.7982
99.406
71.4145
128.369
66.8611
87.5414
117.442
282.584
712.999
1119.74
126.903
61.41
429.586
172.411
138.198
48.4785
51.3637
46.8849
91.4767
76.0278
46.4917
47.5081
49.8862
115.755
45.8365
49.8198
47.1248
60.3219
171.822
56.9797
118.162
53.5668
95.5829
256.23
59.8363
54.77
62.0552
1040.97
937.251
99.852
67.2458
68.0102
60.185
84.3333
524.969
66.5984
68.8003
92.022
46.7024
95.9235
54.2793
82.7169
114.496
91.3336
64.5617
207.262
259.341
66.4289
2054.7
213.992
203.678
61.7127
86.9579
102.958
116.914
52.5472
76.8744
313.771
47.6915
198.48
572.998
108.288
126.502
622.615
68.197
81.3305
94.0052
46.1009
122.865
389.544
93.9018
89.1254
414.358
201.919
1124.54
603.344
98.9236
50.1892
141.256
68.8893
182.352
146.95
544.705
49.8493
47.0858
624.756
52.479
199.583
75.3567
106.029
634.207
853.866
50.4684
46.3625
904.901
49.8942
54.07
65.092
48
83.6393
134.398
249.546
60.3384
559.617
108.11
51.6975
87.1495
697.184
82.8559
611.113
66.2875
59.9859
88.3382
86.7572
60.8482
103.494
64.8164
571.933
110.19
113.259
486.675
125.798
54.6208
585.328
108.045
109.854
81.1789
132.591
111.275
77.9372
48.7694
259.111
72.8731
74.3072
65.2547
117.257
78.0301
59.3838
49.0909
64.9864
153.263
70.3293
65.9795
83.5084
422.051
74.598
69.6319
66.6748
96.6203
49.9426
64.4669
62.1433
134.222
101.909
143.139
150.925
91.1639
382.356
61.9222
57.54
435.852
341.372
527.785
91.211
362.601
56.1346
471.34
96.0393
363.16
96.8474
46.7853
117.844
206.055
95.0345
68.3417
47.4088
62.3846
440.973
62.8576
51.6589
55.3147
1760.7
368.698
48.0105
1524.62
523.838
330.979
194.92
1364.14
316.371
73.1327
365.838
91.8474
62.2564
407.748
1020.65
65.4804
48.6495
55.3813
517.808
48.2845
1021.88
78.0525
131.081
110.908
128.422
336.69
46.2951
117.055
124.081
55.7375
106.78
52.6735
125.11
1968.04
1995.81
812.335
95.9472
542.802
47.4329
49.4157
61.6331
102.097
46.5107
56.4095
46.3684
73.1486
91.0978
47.5533
53.9471
77.6071
47.7765
99.7951
123.344
48.1958
117.622
129.609
47.1169
56.7714
886.889
56.5105
836.731
609.506
130.496
135.509
84.4407
124.839
67.6854
55.6301
432.31
58.0425
61.1114
51.0384
54.2762
79.0619
143.525
112.49
182.046
112.84
50.083
531.084
63.7917
298.195
300.052
63.7192
773.507
76.2451
58.3153
60.671
57.6359
68.0054
50.7876
129.765
52.8265
392.054
210.141
376.538
56.3449
57.5869
82.4869
353.386
388.872
86.3148
148.091
64.609
371.702
64.0921
125.321
498.926
87.0882
56.0878
92.2357
1091.92
62.0165
58.904
121.603
50.0808
138.81
131.994
86.6367
85.8185
288.938
172.154
696.159
72.8101
315.363
356.782
348.956
54.7884
179.171
103.541
104.631
53.7867
59.6509
62.3475
469.316
85.7545
99.169
186.82
82.6917
62.2059
98.6963
49.6904
146.406
48.2867
63.0924
169.071
103.965
80.0945
170.585
100.943
87.214
81.6382
128.962
47.1925
290.421
286.944
110.365
97.5009
47.3068
279.556
60.2765
47.8649
86.8929
49.3528
109.557
90.8923
49.5315
53.1073
101.369
264.071
231.82
49.6426
791.969
46.2601
97.6435
96.056
48.1834
770.123
150.688
666.714
50.2293
69.3671
528.838
671.588
91.3958
103.537
194.543
128.015
53.8449
89.4389
62.8687
148.517
82.8025
136.063
49.7066
136.782
102.553
110.262
61.3399
89.9737
46.2693
62.1646
569.896
279.823
106.251
68.0664
105.848
88.0054
88.3295
152.021
47.024
51.6285
61.0903
88.8611
84.529
66.0998
115.325
56.6214
57.2012
53.8671
72.9122
58.3507
67.6974
185.178
79.3793
69.6431
1224.79
80.2575
65.4268
80.6503
46.1034
84.732
210.549
49.4317
79.4954
81.6482
886.15
64.1921
62.5149
95.3323
1514.55
96.0439
156.427
124.722
67.6799
48.2068
75.7488
65.529
834.444
96.3009
68.377
66.0676
48.5948
269.646
49.0907
550.441
331.633
112.135
75.7103
59.3932
112.412
89.6212
59.6579
426.583
119.92
313.065
46.1951
139.861
675.48
119.198
51.174
102.951
54.3388
722.247
59.7676
56.2638
91.3161
45.8207
60.4748
87.6751
52.0297
276.819
48.2797
369
47.0035
77.2126
67.0945
150.358
89.502
130.05
112.064
563.77
105.228
122.99
75.959
47.3628
103.337
58.5263
54.1307
82.1573
77.712
63.8713
127.453
47.1844
63.8892
48.283
283.75
87.1265
582.085
532.197
327.296
162.089
66.0387
69.5927
61.259
196.537
92.827
47.5084
47.0019
112.75
139.47
48.8914
74.3702
1075.53
111.03
67.928
74.8521
743.637
852.698
59.8575
537.915
553.067
205.098
317.414
170.142
506.843
72.2018
230.832
741.43
75.2365
45.5086
60.6556
101.093
317.1
46.7574
46.7574
69.0851
149.423
155.94
1111.73
110.666
982.333
120.357
70.9223
87.1847
78.7773
70.9973
580.52
145.668
307.654
456.347
68.0464
548.388
1846.12
66.622
140.667
109.618
421.503
153.454
124.034
713.926
1054.28
100.201
600.137
127.449
395.692
82.5872
47.4744
154.34
736.253
657.417
62.2988
107.29
153.496
97.37
244.971
52.2287
69.2802
925.362
401.552
411.585
47.4509
413.953
67.0376
390.964
59.8519
109.505
198.317
332.773
87.4679
111.267
312.299
100.733
892.824
75.0189
61.9969
368.5
48.971
150.778
47.0596
54.8996
46.9139
83.1762
428.256
458.342
338.665
60.9746
64.792
277.784
58.8639
476.782
69.3232
54.1266
83.1517
206.215
153.85
603.925
51.6498
74.7604
66.3661
294.332
104.453
567.105
891.517
436.274
104.631
63.9017
394.543
387.179
156.403
50.5229
63.9227
45.5651
726.85
250.54
405.397
1870.07
237.313
97.6774
82.3319
768.907
398.062
65.3792
89.0195
103.016
325.356
59.146
49.0718
89.3354
79.1124
711.559
327.801
228.943
231.624
298.844
345.656
163.876
95.6519
841.146
520.269
702.989
204.663
338.704
617.748
153.594
60.2088
105.625
58.2074
57.134
74.5723
75.4864
142.7
279.401
86.3734
179.168
182.296
147.207
97.8477
186.165
105.984
93.1325
129.439
713.074
1110.03
490.147
67.3328
121.302
82.0785
281.282
548.613
156.078
543.057
79.0316
452.786
339.196
180.855
48.8177
47.544
71.4386
62.9484
642.874
90.1055
58.4267
513.965
73.5792
794.757
426.287
100.921
439.497
61.4611
46.5068
49.3924
45.8017
99.8874
67.2345
93.8795
134.109
75.0296
47.9994
155.083
680.076
524.694
46.4554
106.284
51.9453
64.5827
55.0749
666.717
51.6073
54.3608
54.5822
103.339
48.1282
54.7838
95.2276
55.5007
58.4353
55.1902
232.76
46.6225
61.1105
124.039
411.946
353.549
64.4911
641.244
724.306
55.9817
54.9142
163.5
77.3526
309.619
81.7928
93.5699
81.5839
299.21
70.2032
93.7086
1030.8
438.13
98.2316
619.75
49.1438
47.3225
64.1361
47.0595
47.5976
72.0234
56.0738
79.58
196.961
85.4047
394.168
197.86
242.385
82.3446
45.4708
620.44
132.675
85.8764
566.794
104.239
667.447
68.893
438.173
46.8209
177.069
87.1859
239.625
48.814
87.1787
79.7241
777.224
49.0546
45.4296
126.069
80.2896
127.79
59.2319
68.5836
91.5578
50.1187
132.44
51.0666
64.6248
148.153
89.5876
222.895
68.9178
47.5702
61.7928
46.5072
53.9853
236.116
45.3202
90.1467
45.7206
229.96
119.332
53.2967
115.65
112.239
59.0423
80.0627
73.5929
131.381
156.672
52.9789
48.5953
90.0415
71.7731
355.019
574.304
494.337
62.2578
48.4172
58.0513
64.0343
91.3963
866.332
236.704
64.2376
54.0895
76.4554
48.5392
49.5528
76.7964
145.761
186.46
479.518
310.431
57.2822
76.9133
80.4473
45.3804
247.014
73.568
109.278
114.673
52.5162
976.226
77.0905
57.9732
70.0747
69.6973
162.374
485.007
46.6632
445.08
56.6698
744.703
115.327
505.68
72.087
47.9816
59.5767
104.733
52.511
48.559
127.069
46.4003
46.8674
53.7422
61.01
219.359
58.3594
753.369
74.1526
61.4161
145.433
171.484
48.4265
467.25
944.375
740.191
564.977
445.989
54.4303
399.615
331.063
78.6238
57.6436
54.1442
690.173
91.706
97.6099
49.2569
74.3875
305.807
740.918
156.379
84.1939
45.8443
66.2399
253.965
49.2629
56.8697
568.308
470.941
280.672
745.072
76.898
47.7178
70.1184
82.9649
1130.31
50.9351
47.3509
46.052
295.34
47.5201
53.0915
95.054
101.486
46.4735
113.499
48.3945
148.362
84.417
141.601
54.4217
219.533
91.1391
113.646
177.342
112.383
252.208
52.4415
616.139
93.3622
349.062
333.981
423.836
84.3024
114.991
195.948
70.1072
46.4934
50.9634
53.7114
88.1617
565.348
118.311
47.5066
84.2887
62.6503
49.5486
120.309
61.3719
135.996
99.3185
48.8373
101.4
52.0232
77.7697
286.94
546.626
69.896
100.816
80.3512
105.132
534.343
334.476
563.773
861.682
143.287
48.5041
50.2445
46.389
106.4
842.129
80.9649
796.717
133.423
47.6755
118.857
373.156
48
48.0145
56.2363
77.0935
59.1288
309.156
75.9912
92.7935
277.64
49.1437
98.7393
63.3814
130.357
106.642
54.2234
652.946
82.1923
115.173
57.1744
115.789
47.5203
117.709
123.235
93.7775
94.28
78.4194
66.6405
68.1246
53.246
230.554
59.7087
53.1891
117.441
217.372
234.575
103.475
96.9451
115.091
177.673
71.4785
337.824
93.8306
139.842
104.212
79.4651
163.479
82.7652
96.9209
401.854
102.404
53.5254
49.1696
345.16
91.4881
104.866
52.7599
113.14
87.097
48.7093
95.8603
398.992
92.3471
73.196
88.6505
655.24
74.6044
92.9144
146.514
60.3635
159.061
50.9173
736.906
83.2945
80.7727
85.8172
56.7045
117.734
56.6318
493.447
45.2914
78.5065
637.601
58.4295
113.984
205.708
103.029
50.1694
552.817
58.4514
46.8918
95.8535
135.241
57.7903
304.678
46.4346
366.608
99.8077
46.4497
75.1823
118.899
725.795
184.564
71.2914
48.1112
131.763
393.309
348.853
118.249
125.187
1005.98
210.767
341.436
130.177
85.256
104.277
59.8135
526.639
1020.7
153.037
172.98
100.235
955.609
478.549
453.625
421.915
174.065
64.7598
53.5174
152.807
73.7458
554.418
324.425
81.6213
793.165
109.305
75.2467
70.3177
51.0927
108.061
88.927
92.0971
78.7386
143.617
184.36
877.624
57.3918
119.12
642.387
608.628
182.271
183.279
65.1862
666.293
47.4658
65.8516
359.518
148.445
46.8751
331.781
434.727
70.4024
125.637
49.6809
97.6724
57.2338
80.9299
177.606
85.0973
607.336
45.9216
53.8211
90.2882
479.237
169.151
124.263
168.671
254.816
123.049
79.124
403.594
109.793
72.0993
243.372
781.765
282.598
59.642
390.249
160.414
89.6711
65.8977
128.585
48.6989
110.168
81.3563
76.8171
68.9428
60.1848
88.7833
47.1387
45.4587
49.4745
100.302
50.48
160.621
407.648
726.724
98.2509
81.2174
59.6694
52.3554
104.949
662.115
53.2819
145.957
73.1897
215.224
63.7005
113.208
168.607
400.335
48.8213
56.8942
257.023
53.0725
72.8981
113.423
76.8767
370.923
82.6523
301.754
415.375
242.743
638.037
189.287
386.456
88.7919
136.098
145.983
55.2438
429.099
121.743
87.9949
159.267
92.3512
85.2373
46.0475
55.8498
51.6059
46.0427
86.6847
318.479
45.8575
907.013
113.806
325.23
116.064
347.226
1726.12
55.699
260.285
997.534
124.388
340.028
78.6158
70.3555
781.848
1001.67
269.489
164.068
55.7293
369.892
103.287
576.936
53.837
56.7129
228.308
1009.62
61.9312
80.6771
53.7608
227.335
494.251
49.9466
500.108
228.399
535.428
704.387
51.9585
361.159
71.9916
700.779
373.899
211.749
376.373
248.423
461.327
336.844
236.412
80.034
74.8197
74.9615
51.7869
54.7842
1291.96
71.2186
104.161
72.0467
80.9244
120.556
1005.15
134.539
265.798
306.97
140.907
337.961
130.544
45.7615
75.222
943.109
574.215
261.249
192.328
239.523
85.2863
459.272
59.7903
254.653
274.083
58.7757
507.133
107.204
288.66
344.44
138.818
186.263
192.282
131.339
52.3052
144.686
64.372
521.337
72.2502
191.871
80.806
251.403
60.2052
68.7441
354.44
125.308
305.175
47.894
1087.62
46.7769
61.2174
55.2174
57.5086
89.4703
494.137
150.228
75.3709
646.935
77.1013
49.6611
60.7973
855.431
52.7409
93.0954
846.131
267.604
886.74
451.265
145.016
180.461
169.214
193.277
732.33
68.2183
405.351
124.128
66.0481
181.914
66.3753
134.573
71.8189
647.737
428.251
530.961
344.65
235.561
326.426