/*--------------------------------*- C++ -*----------------------------------*\
| =========                 |                                                 |
| \\      /  F ield         | OpenFOAM: The Open Source CFD Toolbox           |
|  \\    /   O peration     | Version:  2506                                  |
|   \\  /    A nd           | Website:  www.openfoam.com                      |
|    \\/     M anipulation  |                                                 |
\*---------------------------------------------------------------------------*/
FoamFile
{
    version     2.0;
    format      ascii;
    arch        "LSB;label=32;scalar=64";
    class       volScalarField;
    location    "0.0380695";
    object      p;
}
// * * * * * * * * * * * * * * * * * * * * * * * * * * * * * * * * * * * * * //

dimensions      [0 2 -2 0 0 0 0];

internalField   nonuniform List<scalar> 
47425
(
1.33895
1.24507
0.0265727
-3.14273
-18.1722
0.124935
-16.1018
0.0175233
13.5859
-34.4753
-0.0307094
14.2492
-11.9144
-0.0237252
-1.07947
12.6716
0.0201957
25.8252
-102.994
-30.6103
4.56557
16.3062
-0.0700711
1.00715
15.0702
1.04659
0.0589364
-38.59
-0.0308323
0.3067
16.0924
13.1357
14.2393
0.285678
0.0287545
-0.0162784
17.1648
14.0059
6.92013
1.28286
1.49079
1.26774
4.31761
13.9327
-39.1864
1.21152
0.129187
13.8
1.27096
0.510267
47.0067
1.17894
0.1258
-27.8535
1.19364
9.1228
1.28345
0.203049
-13.0708
0.0775377
-29.6262
-30.9374
-69.7668
21.1496
13.423
3.50727
14.3003
-0.734582
-47.1619
23.465
3.69738
0.764245
1.84984
5.02319
-55.6393
13.2324
-69.9459
0.185653
-107.708
-18.8501
-58.686
10.3971
21.8349
13.1857
1.76519
1.43037
1.53773
1.35376
-2.357
-24.553
15.4618
2.70967
0.463141
1.39106
1.45043
1.31414
0.37232
1.42246
1.52726
12.0923
12.805
23.2312
9.88747
46.3718
9.71574
1.54221
1.40491
1.40258
1.73847
14.4144
-43.8665
13.744
1.1939
1.47761
0.152062
35.739
0.468913
48.4401
8.41298
-1.81591
1.53077
14.2698
13.6755
-6.74523
11.8963
0.479725
1.45636
13.322
1.15439
0.492536
22.1177
1.1789
56.6337
8.28109
1.51254
-8.34466
2.36885
0.438881
11.8298
0.0736018
14.2902
-6.9621
6.50091
0.812871
11.8409
13.3636
-16.0328
13.5732
6.56886
14.2456
1.28234
40.007
13.5909
-4.20264
21.8716
1.09711
3.49498
-116.505
1.287
0.364117
-0.97898
1.02425
0.663651
11.5454
-47.156
-83.2769
13.5718
-55.0683
0.706976
-42.2168
-56.2803
0.694811
13.304
19.035
1.30061
13.5693
30.8918
0.0361527
0.0296305
0.371346
24.9772
1.25927
0.0498443
0.0822131
0.168498
12.9974
10.9425
51.1009
0.420129
1.29872
14.1724
0.42694
-10.7534
14.385
0.470911
-0.708535
14.3555
0.918878
-1.38557
1.44481
0.257829
1.54715
1.80901
-0.305447
9.67327
2.40711
-0.00301873
0.0561942
13.0549
13.2635
1.3537
-0.711538
13.2772
1.09771
1.84799
-2.05161
2.34138
-17.8925
21.8069
14.2978
-21.0699
-2.34397
4.30517
2.19121
2.87737
-18.907
0.391281
-1.58239
-2.85675
-7.6313
2.96025
0.25164
1.51792
14.0686
0.106731
12.957
-23.7376
0.732498
-21.3586
0.0062519
0.164667
0.450481
0.464334
-6.37996
8.46414
13.2458
1.37027
13.1428
0.72805
-0.0507004
1.1175
-16.8778
0.00179965
14.3514
0.186327
0.25399
15.694
0.288492
7.49434
13.1895
0.280096
13.8485
10.34
10.1944
-8.09741
1.38132
0.121159
-7.97329
0.309931
10.4932
10.9694
-21.2683
-23.5878
10.9182
-18.8714
10.8519
-19.8421
32.3563
-21.8393
34.587
-29.046
1.42814
-33.9698
0.751765
0.723101
-1.874
0.700269
0.0920133
1.53782
0.297476
57.3423
20.2674
13.4383
0.0548121
0.106421
10.5954
-5.47687
10.7891
13.7367
-7.80256
1.40456
0.925704
0.238206
0.101944
-61.5876
-73.3801
37.9025
0.410781
1.05932
11.8817
12.13
49.634
-0.112264
0.091555
-11.7651
1.43054
0.429829
0.482668
0.103361
-37.5816
-11.6904
12.5646
12.2011
0.0251901
1.19944
0.0643982
12.3302
1.24762
0.686973
0.256006
-4.12215
-65.2954
7.29877
0.139106
14.2103
0.00287668
-64.2967
13.7781
0.706302
0.767712
12.5962
12.3926
1.29645
14.2557
0.599512
0.0819631
0.223943
16.9083
-0.0537398
0.195094
12.8719
8.07939
13.1252
13.8244
13.2701
-2.40758
0.366938
21.0068
13.5936
13.5069
18.4558
-2.70977
0.895266
0.103779
8.91725
1.3853
0.154005
13.6202
13.9864
10.4613
0.231541
-39.4984
1.60066
11.4533
13.37
11.3533
0.0209004
12.9797
13.2332
16.7489
13.1363
11.2801
1.00437
13.7727
1.2087
13.7765
0.0270152
10.8704
14.2469
0.113196
7.04208
8.29189
-0.0265557
7.35822
0.600033
7.61827
14.0183
0.00465409
-12.5343
0.300299
-25.5145
0.418667
-34.2486
0.232191
3.44029
0.231915
0.286382
-0.0169747
0.165304
0.238062
8.39978
-73.8361
59.2102
0.95657
7.93366
5.97554
4.56607
0.829015
0.0858171
0.491715
0.177901
0.661215
1.5447
4.4019
0.0238287
0.054248
-4.21571
-2.82239
-0.324491
19.2546
-69.4594
1.39987
29.0692
-68.0085
1.5959
-72.0599
-29.1403
0.84429
1.78174
2.72354
-0.904163
-75.3709
1.21594
0.938691
0.473252
-1.28681
0.812783
1.06736
1.19604
-19.9646
-71.7688
-21.8073
14.0919
21.7084
-0.762581
1.13197
1.65775
-9.49509
1.95707
14.0788
14.3332
14.3573
7.51604
14.2524
0.755134
11.4064
0.23465
0.127589
0.527669
0.537547
14.1061
14.2478
13.2103
8.89597
12.1947
1.09075
0.971682
-19.7603
13.0153
-10.8415
14.2772
-0.167186
0.84406
13.9343
0.942055
12.2655
13.6278
13.1388
10.5958
0.59214
0.90384
12.6287
1.52173
9.54142
24.228
0.831935
14.5262
13.1258
16.2735
1.34305
0.383272
0.956832
0.152385
2.82511
0.034529
0.0955516
0.953786
1.18591
0.298935
0.15206
-0.0511161
25.209
-0.00382473
1.58201
1.36918
1.04543
0.0553321
0.105126
12.3132
9.15608
13.3167
13.322
47.2173
0.0537641
0.0540056
13.5866
13.8274
-19.3172
-23.0327
0.12101
1.24036
1.296
-6.74892
12.9583
-24.7861
14.2438
-38.6108
28.5494
19.7117
0.209569
-19.1856
0.214828
1.20394
0.228545
1.63917
0.11059
0.843682
-67.2156
0.258676
-0.00919383
0.308821
-18.4614
0.82262
0.109072
-18.3742
-14.3505
0.0963094
0.204987
-31.4862
0.543804
0.738382
0.0948978
0.414041
0.335963
-10.133
-8.07847
20.1519
1.51667
1.43875
0.0767195
-26.1861
19.9812
1.56385
-31.5394
0.109763
0.240882
-33.1556
-36.0563
14.9828
-31.0955
-31.1713
0.236805
14.1287
0.123945
17.986
13.2696
0.101374
-44.3197
12.611
0.0853221
0.683187
-16.2516
-9.55857
14.2481
7.79461
-57.9619
-25.7458
3.34164
0.42538
1.29153
5.48467
0.498433
0.581714
13.3014
9.23736
14.2605
-0.038964
13.3274
-23.0723
7.26355
5.29744
-24.9426
11.7612
0.544291
7.51856
11.369
0.536854
13.6158
-0.204777
31.2618
13.327
0.641202
1.4135
-94.9388
8.83877
-7.53974
-37.5116
-39.3082
0.290762
1.53156
-40.1483
-0.084035
7.21996
-13.7905
13.685
-35.732
0.271361
0.246873
13.423
-29.696
14.3098
14.3879
0.469467
0.118241
0.861509
0.0278208
0.843666
1.08094
0.501603
-28.9268
-37.2111
2.9549
13.6584
0.226714
18.9086
12.6572
14.2979
14.3128
14.3609
14.3146
21.4151
2.35728
14.2472
10.4509
-8.5633
0.143304
-76.8794
-22.8787
-0.071297
19.6941
6.11228
0.177318
-80.6298
0.0341171
-56.1123
0.349387
-8.88614
-10.5129
0.690032
14.5436
10.2358
28.4734
0.398496
0.62963
1.37316
-11.7885
14.1762
-13.1142
1.56621
-80.8815
-8.96402
1.4318
-11.171
14.2546
1.14405
6.75575
1.41727
-12.4174
14.153
13.0768
-11.8326
0.328999
1.43799
0.164485
0.762022
32.0786
30.8869
16.53
18.9512
0.158142
-0.0175585
4.65625
1.44706
0.71135
0.217569
1.20112
0.204251
1.11543
34.5311
-10.3608
0.146211
13.0689
1.02444
0.995028
1.22617
0.0723001
-1.39231
-20.0527
1.25516
0.253086
0.0179274
0.919093
16.1959
0.0271322
1.44747
0.822762
0.736342
1.11984
20.3553
39.0981
0.939922
-31.6363
-4.4351
-27.3417
-30.8193
1.33259
2.14128
8.2632
0.0701432
45.7063
-32.6726
58.0356
-6.79668
2.42673
-12.6878
0.463739
59.1027
4.92131
1.7398
1.25994
0.320361
-7.0749
1.57584
1.21156
0.904327
-35.9361
28.307
13.5494
13.8437
47.755
44.0307
-10.7034
-56.0753
-14.9467
49.8633
47.0008
13.7202
0.559895
19.1854
0.496915
7.66093
-31.4052
4.1895
6.80713
8.1409
0.319057
-33.4559
-33.9621
0.181366
6.95652
0.657803
0.473278
8.09292
0.309175
17.5145
0.0684931
0.539197
34.8352
0.268539
-0.11688
0.0312247
0.56923
0.189167
54.3969
-17.4261
0.0558322
7.72077
0.627653
17.0801
17.2438
-11.8519
0.539802
-37.7439
-12.8177
7.27714
3.72156
27.0265
-55.5176
0.0409571
0.107614
-10.1619
1.23494
13.8485
3.55918
-0.0313073
14.4278
-48.4274
-16.2154
-54.9238
14.3956
29.185
0.252736
-8.90305
18.5801
-12.3715
0.0585011
20.2473
-50.602
-12.6389
-13.2633
-36.6988
-11.9084
1.36859
0.0491804
-10.2796
0.121182
-13.6058
-32.4485
0.022269
-16.4393
1.07349
0.959341
-37.2739
1.14045
1.4787
14.4886
17.0099
13.4616
-19.9131
-2.57808
1.00999
-12.004
49.5759
1.09416
16.1669
1.29532
0.962807
1.11886
1.23646
-26.1289
-76.6319
-8.75342
2.21052
-14.4947
-15.2691
-18.5411
0.799915
1.19603
13.912
14.0998
1.3153
-6.84928
17.662
24.5633
13.9724
-32.0948
-13.1781
2.30271
1.15253
0.481687
1.16171
35.0911
13.7202
-10.4831
0.270633
7.24428
13.8323
13.8087
13.667
13.4472
14.07
-21.7728
-5.7442
23.8068
25.8268
18.0605
8.44841
-0.971933
38.0864
1.40395
-6.08375
1.36842
-12.1492
-13.1206
-1.56487
0.86461
14.0911
16.7014
13.8641
1.37154
-47.0084
-25.0467
-40.1135
11.2687
-7.21406
8.14113
-38.8913
1.41341
-47.0575
1.43912
1.46326
-4.01907
7.98802
1.38466
12.0512
0.256363
4.9216
-5.81372
0.931369
1.36402
-23.7494
-10.2513
0.44302
18.2714
53.1477
-66.8623
40.879
-21.3316
-52.7944
0.309543
0.962472
23.2504
0.540791
53.7183
0.441121
0.206803
-72.6143
15.0442
3.06329
0.321997
13.6978
25.0822
12.1742
0.65932
13.5553
-14.1168
10.7827
14.6406
14.8413
14.2796
0.722652
-9.60848
-7.08978
30.6256
14.8564
1.05731
11.7805
0.611608
0.660943
8.39438
-8.10117
-8.48954
-7.30461
-6.76709
12.9651
-38.8507
0.703445
0.60772
0.69481
-72.699
-64.8932
-17.3611
-30.1407
1.35589
-1.26056
-35.3946
-32.284
-3.69423
10.2933
0.814761
1.70731
-32.1871
5.36744
-0.0797197
0.91347
12.0359
2.19911
35.6189
-101.658
-11.9959
-26.7681
1.02112
56.9668
-72.5311
1.42236
12.1302
3.56586
-34.3169
12.1934
-3.5004
18.3018
-23.3623
2.77738
-23.9614
3.47085
-7.45324
1.5426
8.46989
-21.8775
-21.3898
11.1744
18.9864
-8.3075
-47.5481
10.4075
1.47959
-22.1005
-33.3433
12.8834
9.48714
-55.025
-67.335
-37.7148
11.3643
-3.80287
-14.1602
-38.6474
11.0342
25.533
-20.2826
-6.36964
-4.332
-19.2993
-36.7671
-2.76653
11.3943
13.4438
14.7861
13.6794
11.2131
-7.07927
14.1213
14.2273
14.8769
1.80278
-48.4336
-32.7394
12.5057
41.006
-15.3764
12.6868
-26.6992
6.97585
11.3907
-6.67138
-2.54978
11.7395
10.1803
-42.8003
14.6415
-28.3426
-74.5224
-36.3781
11.1753
-7.41671
13.0871
1.52859
1.56678
-13.3532
-36.0712
0.990276
-43.329
-26.3885
62.2581
-19.3318
-60.4611
-25.0395
0.083185
1.55026
-40.5487
1.08855
16.9875
0.0949045
-47.7441
-36.4467
-0.0182495
2.37544
-31.2809
-17.2761
-41.9482
48.8911
0.514984
-9.67178
-66.7537
0.336174
23.541
-25.1648
16.5628
-80.9759
-21.3258
12.0844
0.275114
0.426579
1.61975
0.422256
2.46008
1.02205
0.511368
8.652
37.7077
14.8095
26.352
-24.1533
-5.67127
25.4043
-1.43906
2.85758
-8.3326
14.5904
-64.318
0.949235
1.30796
0.929894
-33.3414
1.00111
-78.1739
1.08795
11.0721
6.51961
-78.268
53.4236
-34.4518
-18.6354
38.0413
-0.842131
13.6717
-6.90138
-22.8628
-36.0241
-24.1194
48.1282
13.5441
-13.3082
-42.6821
-6.06302
-2.6293
-35.0288
-26.5964
1.92858
-11.1083
13.3915
13.6921
-44.8236
-51.9555
-0.0696811
10.1888
13.5303
-73.6313
13.7084
-19.7331
-11.6161
13.6042
13.986
-17.7756
2.44163
52.8707
-15.2496
5.83291
32.5131
29.6943
11.1106
-81.3704
-34.5786
-11.6523
-106.263
64.6625
14.0572
-34.7218
14.0392
25.4275
-89.4732
4.02793
-78.7575
-41.9804
-1.55021
22.888
-4.38157
13.9197
13.8894
17.9281
-19.4812
1.37826
0.114202
28.3775
0.339636
-1.2658
16.7472
-9.83521
0.484377
-13.0329
16.8918
-54.4873
-29.8059
5.21925
-29.1648
-45.4842
0.0958212
49.9767
-41.1509
-2.26662
31.1851
-7.77654
-10.5214
-19.8516
-25.3334
8.63418
-38.5808
-16.6167
7.04021
0.903242
0.492264
-20.1013
-4.7856
27.1562
-25.7186
1.34622
24.7364
0.741685
-49.8127
0.215904
0.316651
-6.54276
-19.4106
23.855
-0.794639
-9.50362
-7.06643
-80.7713
0.147618
-9.69562
-55.0652
0.999469
-6.19073
60.3254
-4.24289
-16.5454
-61.5473
0.130078
9.07453
0.017822
-118.865
-40.0794
-36.8424
-39.4244
22.6224
-2.62489
-5.19121
-42.8846
-61.7478
-9.10165
0.590944
13.7841
1.02172
0.556107
3.57936
55.6203
14.4167
13.4508
-5.39594
0.536121
16.0089
14.4423
23.903
14.0215
0.542739
22.4424
14.6763
11.6658
-10.7976
1.49017
12.9099
11.0647
-7.64217
13.2573
0.54466
1.07787
11.9423
14.5621
14.0103
-74.1159
13.2604
19.9468
1.08291
0.230381
-25.535
15.1048
14.4107
-68.3156
-55.4467
60.1055
16.2738
-72.3317
20.6342
1.61471
-63.8817
6.44301
-68.1697
1.03993
1.16889
13.8879
22.2441
11.803
1.38515
1.2123
1.65861
8.70901
10.0722
1.19411
-13.8893
0.877895
-9.69555
60.5713
13.2561
-43.3796
-13.0821
-64.8299
1.08994
12.3029
0.130287
14.7999
1.39203
13.3692
1.15179
-36.6033
-20.8607
-36.5588
-1.55642
-6.26518
1.25642
3.63049
-27.603
1.53417
-46.7086
0.136502
-41.5169
1.71126
-53.134
-80.9366
1.34053
0.0505652
-50.7117
0.330351
-56.4599
12.9447
2.41031
1.00312
1.35398
1.16889
0.491394
-8.80189
-22.9559
-4.85157
13.0321
1.23309
12.9647
0.854864
12.9099
-46.3044
10.7877
-32.2032
2.63707
1.11053
10.7807
0.549742
10.6212
10.4082
0.230139
1.13379
13.8748
1.11963
-1.67647
1.356
1.26299
-19.2903
-43.2717
-5.09693
1.19936
-45.2061
0.911255
0.619334
0.480151
0.451324
-0.0102896
1.42263
13.1794
12.8981
0.914929
0.68651
43.6398
1.31678
1.04211
1.47636
-40.4252
1.62098
-48.9067
-33.9461
-43.1202
11.5735
0.322233
1.63974
0.136863
1.00785
-39.2735
-7.84269
0.934841
0.922055
1.63916
1.75398
-34.2371
1.73527
-0.00358674
-12.861
0.634659
0.481995
0.312867
0.505144
0.324613
0.314174
0.508205
-8.00884
-12.3094
-0.035616
13.0492
-0.0689765
-6.47298
-5.33889
0.647898
1.09449
-7.95524
1.45888
0.180344
1.36484
1.04089
-7.27865
0.0100915
1.14562
0.571351
0.694809
1.59195
-3.96666
0.0681648
-51.4058
0.671639
-14.3466
1.52271
-0.0143783
-53.56
0.0284523
1.24221
0.0849908
0.807827
0.818052
1.10626
53.3408
1.50318
-19.0454
1.00459
0.250947
1.59922
0.879084
0.552593
1.35118
0.518122
0.771762
0.322523
-5.00173
-9.65537
-34.0408
11.585
-9.48501
1.24219
1.30464
1.27985
-21.8967
0.0875346
0.146997
0.150317
-50.5409
0.143052
1.6146
-0.0660058
0.185989
1.71467
-132.752
0.0922885
1.24368
13.1618
0.0150899
-6.58512
26.5353
28.5359
0.054137
8.23049
0.181304
1.16813
0.514039
0.343249
-49.164
-55.3421
0.137269
0.993707
-42.3557
-0.0216456
1.01451
-19.6531
0.0486077
0.964499
5.71629
-0.188909
-4.14307
0.0134832
1.54704
20.3731
0.723701
-0.0381104
13.2373
-20.154
13.288
-23.2951
-23.96
-32.4569
-20.6531
0.522966
13.206
-13.6115
13.3544
1.31026
17.1664
-30.8652
-22.376
13.6601
-9.984
13.6487
0.681291
1.35122
-33.9272
0.863975
0.448211
13.3984
13.4205
42.5282
45.8465
64.1488
-22.1758
29.2186
13.6895
15.652
23.9352
13.5114
0.759853
0.17643
0.453774
-0.11748
-33.9132
-32.9739
0.747054
1.73344
0.0293821
-70.0951
-1.86532
1.16408
1.53941
-25.9812
-50.2285
0.781919
-42.766
-0.0624312
-27.9718
-32.4735
-14.7514
0.310892
0.791829
14.1922
-51.1179
0.221537
14.2924
0.58231
0.119778
-61.6319
-59.7379
-65.9343
0.336627
-44.3748
17.6507
10.1179
4.04565
-12.4323
-71.2366
-69.5989
-30.2298
62.7718
-31.1866
35.8694
13.2076
-36.2045
13.829
-53.6434
13.2277
-49.5412
13.1422
-22.127
2.33429
-25.0594
13.7321
13.6398
2.31429
13.4802
13.3409
34.0094
3.86828
13.641
13.3608
-60.5681
-49.8153
-10.9739
-21.4502
-52.686
-20.9182
1.16147
15.9933
-43.2036
-26.2011
-30.9675
14.7224
-69.8426
7.31036
-54.981
-77.0409
-42.1826
-9.36895
16.3775
6.54983
10.3397
13.5581
1.59641
-26.4584
0.668349
0.975798
1.5373
0.196959
0.128753
1.19178
0.487441
-21.01
0.286912
0.165229
0.37795
1.56838
-16.6352
1.04906
0.0380065
0.302595
1.58518
-5.62981
-11.9353
0.726276
14.8214
-26.1256
-77.0811
-2.92502
-59.5515
-8.65305
-6.31109
-17.5364
38.0783
8.3997
9.33412
-5.02472
0.0108814
0.13115
0.257082
-0.00454722
-0.128405
-0.627385
0.118125
1.6537
1.74394
11.8091
-5.95182
1.43362
46.3859
-0.0468128
13.6956
0.0217486
0.0154528
44.9373
-52.8322
25.8154
0.0935497
1.30118
-21.6073
-33.7914
-0.0901328
1.45195
15.8984
-8.79892
0.743285
0.0816226
-14.0648
13.4705
-0.211155
15.5207
56.5901
1.45817
0.990145
-9.83792
-0.15654
0.973913
0.878294
1.0441
13.1874
13.3412
10.2971
13.4378
13.8751
5.78971
4.41084
-2.98082
-53.9564
6.59422
-6.03063
13.3278
13.2186
64.2068
4.62453
1.78126
1.55775
-29.8582
-30.4556
5.12788
17.3011
1.46942
31.5389
-4.24899
15.8568
-28.8015
49.4384
31.5223
-6.27101
2.94961
6.46123
-27.5599
-68.6624
-73.2323
2.31974
-8.3951
-70.8507
2.20412
-10.0597
-4.69419
-31.2474
-35.5038
2.15635
16.2474
-74.4339
11.6967
-4.99468
2.34809
11.7481
-2.3751
14.4315
-4.80867
15.0183
10.9322
-40.341
8.53258
60.1795
-15.7865
56.83
33.3858
-63.3358
14.3733
14.4048
-49.0472
-9.78942
0.816612
-33.1486
-20.6831
-6.01931
1.96575
1.79335
-32.4993
-1.17655
7.8449
59.5507
-5.79552
12.0817
-4.3023
-14.1663
8.58713
8.90683
-27.4234
-32.6547
-26.5502
-32.9215
0.568717
-13.2616
1.37576
-13.9031
-9.33004
1.70698
1.30889
-12.1632
-2.25707
-32.2174
-32.4592
-0.00819375
8.48925
1.1776
-9.23539
-18.5133
10.1261
9.66714
-12.802
-31.7018
10.3739
-5.48687
-32.5986
2.629
-31.6939
-0.0673106
-2.77487
-50.2638
2.65347
54.3384
-5.9992
1.84797
1.75238
0.987183
-75.4307
0.901229
0.940764
-4.00482
0.243487
11.7713
0.704309
-23.106
12.4774
36.5057
13.2345
12.5759
12.4309
1.04043
-8.25351
-2.65978
-6.82458
-74.5921
-0.35497
-38.3625
-7.54908
-0.0242702
-60.8272
0.0260662
0.814478
1.528
-5.51669
-49.4629
-19.8109
12.6422
41.1328
-3.68098
1.94437
-30.886
-38.2438
-5.05026
-50.084
35.4152
13.0466
-6.62924
41.1185
13.3357
-59.4976
19.3512
10.633
50.3353
35.6115
13.5492
13.3569
62.7179
-45.8519
1.22873
55.5879
7.74489
13.457
-7.1928
13.4227
-24.5959
11.8109
61.2781
13.472
13.6239
41.1647
11.657
18.2414
-8.96481
-1.64077
16.2352
-51.2351
25.3816
-17.3264
-49.5022
-62.4128
-20.3131
13.715
38.2113
15.4275
5.98096
11.3501
13.0216
13.9074
1.37437
1.37649
42.7224
-35.7704
13.248
-22.2866
3.01407
10.3365
-13.6995
-60.5443
1.3704
-12.9671
13.7984
5.56343
1.24979
12.0545
-6.03548
1.49082
1.30981
-32.4387
3.78968
0.933949
-5.8056
11.6926
0.777692
22.6622
0.82103
-12.6841
28.806
4.91435
18.1099
38.0747
-31.8948
58.7655
43.1703
-26.6257
-52.2688
-33.0452
-21.3634
-31.4756
-31.6351
-22.6214
-18.1697
-27.1564
-33.0588
61.3497
0.082908
-55.7245
10.1409
-0.130796
-30.2609
-60.6272
-5.35357
-31.4541
-13.4065
-30.2897
-12.0614
42.9341
-35.8602
-27.8581
-32.5491
26.1368
-31.7531
1.17983
-64.8997
24.8787
7.90508
1.20671
-0.00034773
47.2203
8.85994
-28.5754
-12.3007
14.1521
1.27676
-4.49144
-22.0292
-28.0295
-0.897684
-2.41899
18.9611
-24.3439
-4.75777
1.39187
-18.4783
46.6511
-0.726555
6.57019
1.24199
4.38803
-36.1114
11.3338
8.97633
-5.54804
1.46986
6.67368
0.340903
-0.312685
64.5237
4.20078
-21.6518
-4.15971
3.15155
-74.7932
-74.9908
10.0513
10.3758
9.49786
12.5201
-19.902
-6.91495
59.4751
-7.90766
12.2945
-19.0004
-1.08992
-4.31119
9.99151
-9.08427
9.97355
-16.5167
-34.0632
-39.8386
34.1504
-17.1007
18.3722
10.2528
-49.7887
-59.8838
33.2778
-64.3942
10.6475
-53.8693
35.6449
-6.80039
22.3783
-11.4225
1.96625
0.290483
-4.32336
-10.5529
-33.9963
1.82839
11.6086
-86.3375
14.2141
-23.0683
14.0865
-0.0761283
11.4989
3.05374
0.815081
0.249907
-2.27306
8.20564
2.69885
16.5142
0.847042
-57.6291
35.8643
12.5833
42.0618
13.4649
2.5466
12.3674
14.2496
31.9353
1.05613
31.8626
1.47636
0.87326
-16.7314
0.92117
0.368264
-15.7986
-9.36075
-30.3266
-1.68376
35.6727
6.39992
29.6995
0.88094
18.7715
16.4212
1.09296
0.69203
0.389164
1.55362
60.1371
0.321992
-5.80284
-31.194
13.5562
13.907
17.3235
13.7561
-18.4205
-25.7662
1.40838
-1.87214
-1.79241
-10.8528
35.8454
0.299041
-50.2066
-3.19184
-27.785
1.32814
10.0809
-20.4511
13.6096
13.7389
-14.8995
13.9317
1.36361
8.03242
-46.5207
18.7409
56.7055
1.27398
1.07058
36.4262
9.21825
2.21174
34.8869
8.9258
-10.561
38.9325
-14.2917
40.8984
-61.1076
4.1443
14.2717
0.790121
-6.09072
1.90735
0.99852
0.313962
0.266866
14.2858
-29.7942
5.49888
1.35634
-24.2263
1.47572
7.46582
13.7638
13.9148
25.4656
5.66664
3.65688
-5.48944
1.21192
-9.26934
13.5738
1.54379
-16.684
61.89
-16.2622
1.61177
60.5171
13.7953
-72.3208
55.4202
1.85813
4.88265
35.5694
13.9532
-31.1552
39.8312
-31.1974
-2.1171
-30.7791
-14.5393
-36.893
36.2225
-1.73649
62.184
0.785512
-31.8409
-30.3674
-78.5306
-72.9543
-33.2364
-68.3207
-27.2032
-34.2528
59.2052
10.592
11.7811
50.4569
24.9529
-37.9808
8.95583
-40.3189
47.9516
0.991684
12.0718
0.032332
1.16852
0.532233
0.803368
60.5007
0.881024
0.766575
15.5143
0.982588
0.948011
12.0997
-4.6456
1.00402
-5.36293
1.07148
8.30662
29.0899
-39.6343
1.46307
2.81086
-3.58553
1.14116
-42.1655
-41.1199
-17.807
1.95223
41.3284
14.9677
-0.791796
-4.0619
7.20447
5.28806
1.00599
13.0452
12.7413
-34.386
1.12424
18.7103
-1.46637
4.08941
12.7631
0.31012
9.24573
13.2171
12.8598
-10.9098
12.5147
11.3406
52.6357
27.9407
13.0461
25.1357
12.1647
0.279426
12.7349
1.20077
-1.53251
1.40507
6.50619
0.0229875
23.6129
12.2634
-14.1675
26.2636
0.205682
10.8889
30.3915
-10.8276
35.0036
-21.4009
-43.3629
-49.2332
1.46548
-0.116814
-18.1421
35.6565
-5.62847
-0.601927
9.90887
2.26342
0.29949
-0.0969457
10.5849
14.2266
30.8253
9.25431
2.63868
12.915
12.4044
0.0809014
-30.5407
36.9926
-0.0280508
9.22997
-8.33127
42.1258
13.921
11.7581
-7.8354
-42.8045
-72.9516
13.2149
13.1333
-4.53292
-8.85147
-6.10021
-26.096
34.0682
1.37731
1.64483
-0.0320132
0.15386
19.2283
-14.6637
0.296191
0.41998
32.7473
0.513868
-3.71602
25.9057
-30.2571
-21.6019
0.691904
-8.06355
15.0779
0.00861597
0.767212
13.822
10.6775
-5.2559
22.6202
5.70327
-48.9769
0.808528
0.798711
-36.7601
-6.21525
14.9304
0.642032
8.90564
13.3369
63.0286
0.727539
-7.32267
-40.0337
-32.1509
-75.0064
-51.7355
0.740908
18.0483
49.0894
-0.0443486
11.9044
12.3329
-38.643
14.4501
7.32558
-31.5954
13.7765
22.0637
-13.5676
10.1317
-36.0886
-64.5944
16.1973
20.4228
-48.4533
16.4023
12.2142
3.9423
15.2912
13.7675
2.72885
-28.598
-4.08327
12.2325
15.5045
14.2955
14.1351
6.88193
0.0425044
39.0283
-0.00354003
-4.54049
1.52138
38.2994
13.8253
-9.82285
5.91443
59.4555
-19.1062
-23.9665
-44.5534
4.33188
-3.27086
-42.449
-15.0587
15.8743
-12.2387
-2.43718
0.036103
-6.00229
13.1912
9.49916
6.80922
0.154941
0.306713
-15.8742
-2.35412
-9.27112
1.15396
1.37231
0.24845
1.08189
-3.41304
14.3031
-34.7326
14.6552
1.04645
1.11481
13.067
12.5968
13.4568
1.49971
1.20913
-5.49669
5.30826
1.08223
1.29625
-29.7088
3.3207
-6.89665
-47.3694
-31.1813
-40.2273
15.8203
-56.4256
18.6662
-30.4009
1.28417
-32.8138
0.988563
3.4719
1.91241
-2.64151
1.25747
3.91217
-0.443135
14.1972
4.61195
15.519
-2.92794
-6.71307
-72.8599
-31.5762
25.2141
34.101
-41.135
-28.2922
-29.894
-67.5527
-31.4774
-5.50941
-32.1748
1.7403
1.71192
-58.2171
-72.293
-7.21527
1.20663
13.5456
53.1963
-2.69842
-72.5957
3.00326
5.99783
-0.102824
1.0327
-30.2188
1.94125
1.50371
1.44666
3.19081
8.29872
1.63081
1.01197
-61.4991
-64.0258
-33.5455
25.237
-35.6777
13.5672
0.888034
15.5084
7.91614
5.19467
23.8579
13.0524
25.3915
1.08976
5.05258
6.55926
1.34398
3.49724
-8.55421
10.0831
14.6601
9.95638
43.4123
1.91086
23.391
-50.6456
-2.39355
-41.7448
39.6279
11.7558
10.606
7.21866
-19.8606
-7.65323
12.0071
-36.4006
8.74187
7.06043
-2.34091
17.6123
10.8114
-3.25935
-11.7098
-20.9679
14.2851
-1.33176
-45.3705
1.14912
-38.9652
-35.007
14.1639
-74.5084
-3.22018
35.0346
-2.66239
14.1278
13.6141
17.735
-3.60014
13.46
-32.2264
-9.86891
-31.4711
-3.62852
-7.83041
19.8466
-32.0104
-15.7904
2.05685
1.86484
18.6701
-32.6227
10.2313
1.95945
-41.4331
0.709524
0.729962
12.8849
-76.0494
-3.08521
1.36049
1.26606
-0.0500175
12.483
11.5983
2.40106
12.5487
-12.6061
12.612
-80.9851
12.8509
-45.8194
-25.9606
-6.60683
10.7843
-5.04833
-1.72471
12.1878
-2.04611
1.36352
-5.4739
54.6529
0.284669
36.7536
-4.69841
0.136684
-2.25889
0.119301
13.7858
12.2775
13.5215
-5.119
0.352942
13.0135
-3.03076
0.0288659
0.601551
-18.6552
2.95398
0.222016
13.8714
-39.6055
-45.4738
0.037035
-1.74516
0.701303
-31.9356
0.424365
0.387197
1.24614
0.363562
1.26567
1.24742
0.0563965
0.726617
12.6866
-35.9111
-27.7037
13.8774
48.6446
17.2829
13.5635
-0.044316
14.2637
41.6313
-0.0186126
37.586
1.71251
-0.106798
4.42945
29.8077
0.931518
0.0134395
55.8848
14.3626
28.0912
-6.20081
-10.3793
0.117237
-2.16242
-0.0623195
1.07522
3.49437
0.718227
52.339
1.03329
0.599281
0.703049
13.2448
-32.4236
-16.2017
-2.22632
2.4571
1.47113
0.571056
15.5147
-23.646
26.7337
18.8393
1.76848
0.562972
44.8791
-10.9933
43.1041
32.7618
12.5328
13.6924
0.346174
-4.60172
2.85476
-9.46072
-8.9966
13.8151
-72.9959
1.43245
1.4454
1.21341
12.0543
1.14457
50.7798
-2.25458
47.8078
1.2757
-67.6105
-8.54786
-10.6737
1.03144
-39.9949
1.47506
31.7283
13.4929
34.3353
1.39969
-13.8018
4.9649
-40.7045
29.6385
13.1848
13.0529
0.710048
-19.6154
12.8429
-81.6717
-19.4342
13.2607
35.9694
13.1219
-17.9061
45.4566
6.24908
-2.9839
44.9234
36.3746
2.69976
4.17435
-66.2516
44.4705
10.6856
42.3201
-2.8357
-59.1374
29.9334
-0.278463
-0.0639883
0.210413
-0.0130306
1.6914
15.2372
-41.9592
1.07653
-27.1278
17.7038
40.592
-10.6795
38.0369
-0.0679137
-0.0190008
-9.64839
58.5601
-13.6165
50.1754
17.0736
5.4863
26.3884
6.49251
18.8886
-0.00731019
-0.152101
-0.0457779
-0.0253099
9.86356
-10.964
14.6755
-29.3194
1.2306
-34.3206
12.7818
-17.1217
47.5792
0.659212
0.375195
0.136228
41.4756
0.147411
23.8851
-0.327401
9.85795
-5.5154
1.67634
34.0501
38.3038
-10.0687
0.174687
1.34954
-44.5718
-57.5091
-6.87801
54.2171
30.0226
56.7206
59.6539
46.9617
-45.9953
0.2404
46.8552
-41.9135
-0.0137584
6.26288
0.0737387
-21.68
-21.8149
-0.454031
2.76096
-5.31893
-0.0468661
12.6492
-35.6113
42.993
-39.1443
12.5587
0.0945953
11.4012
3.14312
-3.41262
-79.1784
2.82028
-27.4197
-12.2994
12.9269
-73.7223
-72.3627
12.9369
-7.44846
-9.6099
20.8957
12.9455
-10.0456
27.3503
-64.8417
-24.9897
-35.3802
40.7219
-36.6581
6.15502
26.9672
5.83413
-46.4918
-43.7918
3.71643
0.903783
52.1036
-0.0116071
-31.9017
-0.279749
-12.373
-54.5592
-12.8025
-31.8354
1.70379
-32.5422
0.301562
-31.906
13.8985
-17.8245
52.4958
-31.7111
23.1099
-25.1024
-31.7582
-15.7075
-38.2628
35.4687
33.2303
-32.7288
12.3364
23.2541
17.7402
7.20061
14.599
-3.5494
-36.8812
-91.9702
-51.7131
18.8271
22.7212
-32.9304
25.9089
-30.9217
-10.7271
7.78878
5.17578
-38.5389
13.9256
-33.9317
15.7419
33.1768
34.9124
63.1643
32.6152
-21.9943
-50.2288
47.2459
13.9087
38.804
-40.9955
-32.3752
52.573
31.6962
-2.36775
23.3626
21.7232
-37.8305
-34.3155
-73.2325
20.0197
11.3565
38.4508
-47.9478
47.2204
31.1077
14.1779
39.6899
-44.6438
5.05862
3.95995
14.2065
-8.4724
-49.9378
-35.1902
47.099
0.408722
-33.8502
-62.2623
45.211
48.0925
42.4176
-47.9787
-85.6795
46.9092
-20.926
-49.9186
47.9814
0.231052
-6.90634
13.6904
1.33341
1.99484
-5.24756
45.4468
-28.3334
1.00111
2.17337
1.96474
2.45763
1.365
8.81337
-27.8909
-2.74752
1.6776
-47.6076
-65.937
-32.6525
-14.4145
1.1587
-13.4519
-34.9217
-31.2777
1.7724
-37.553
1.37895
-35.7411
-30.9084
44.9518
21.4025
28.0623
0.059746
8.1623
-61.1655
-20.2036
-6.92482
-54.5029
0.0025678
-51.3103
-34.7834
-20.0281
-35.4273
-1.20356
17.4036
13.3116
16.4656
12.4398
44.474
0.0582584
-0.0381101
0.123394
16.1852
-15.4538
-61.9645
-47.2206
16.9969
39.7339
25.528
31.8683
3.23155
-63.5003
-3.58393
14.9597
6.47809
0.62838
20.6631
10.029
-9.67547
16.3705
-8.07574
-7.10306
-1.9935
18.1673
38.0147
-25.539
56.1005
-46.3962
20.9133
-80.1778
-56.683
-7.59381
14.872
37.4075
-5.38237
-41.522
5.5172
16.184
-17.971
-35.1122
18.8701
48.8049
62.847
-63.0623
-4.8352
-51.6283
15.9976
2.48185
-8.72738
12.0545
8.64453
-15.3755
4.99378
10.7387
-34.4501
-5.90812
-33.3244
-7.97765
-41.4773
0.117181
13.4966
-79.1299
-13.0782
-0.0145879
63.1664
12.7366
49.226
10.1669
-26.1457
18.7696
4.70435
36.0981
57.5874
17.122
36.3669
-0.13752
-45.5323
13.9687
13.8104
1.66649
9.80431
-30.0708
-0.837344
-5.3818
14.1131
5.23358
-17.3388
6.5345
11.134
-4.28772
-8.22744
-25.6528
-0.0416317
14.8567
0.0161308
15.7635
0.15094
-12.7363
13.7589
-17.9638
13.1851
-36.9343
-0.0691221
35.1564
-8.03776
38.1197
0.111824
7.01087
-0.0822783
0.00613399
-4.55864
6.82885
18.199
36.5893
30.594
-48.3657
-47.2928
45.5489
26.844
22.7363
8.2203
0.0118787
0.195465
-64.5725
46.7544
21.3926
17.1544
0.139021
20.1546
0.150445
0.116828
-16.2466
-20.3961
-31.0467
-39.6541
10.188
1.98074
-9.43756
13.7754
43.3422
12.2495
-9.87042
12.3593
-4.86851
-68.2386
-13.8471
0.266808
6.54076
-5.18839
-4.03658
-37.6343
13.7723
-38.1593
25.7723
-65.4353
-26.3378
-22.2687
0.307764
23.4553
5.54212
14.0773
36.4155
14.113
-7.03497
12.0124
12.9628
11.122
14.0178
-33.44
18.1325
9.35411
44.8943
13.5839
-17.6149
14.2136
14.1246
-32.4451
-66.9909
-23.4775
-33.4438
-31.4034
11.8322
59.9183
-34.7725
-5.83634
14.5436
21.8722
-31.6939
0.679197
0.611722
11.9398
-18.7162
-35.5613
-40.8456
34.4048
1.82039
1.19338
6.46537
-38.4193
29.6597
11.0881
-48.8823
-40.1043
-35.411
63.0048
15.399
11.6229
5.40181
15.5177
-60.436
18.5097
12.3894
20.5765
-5.45
18.4283
24.8198
46.7398
38.1527
11.8606
-13.0298
24.0482
-6.22815
0.660605
0.542005
32.1659
-25.4471
-14.2416
0.508923
57.801
0.55025
-38.4535
31.6278
24.5678
41.4132
-33.7031
-26.2724
-32.3519
34.0259
-8.65483
-25.63
-9.53316
12.4135
2.26859
15.4938
1.207
19.1396
1.09076
12.5968
1.24563
-8.36754
0.336067
37.2999
5.24026
5.69236
-21.6073
8.63725
1.40299
9.68915
-3.19684
-37.4857
-44.1524
-16.9281
6.06787
38.5409
1.20045
60.7564
-48.4359
60.6368
55.2276
1.08738
4.39811
5.73153
1.0421
1.12119
-80.5835
13.5465
-35.4443
-18.4997
5.98603
1.49827
-30.5078
6.69094
6.55827
11.5436
8.12165
1.14332
-46.1079
-1.91905
1.48357
-3.99754
1.65866
1.14909
1.64147
1.4269
-1.99352
6.7372
-49.0564
1.18021
1.6769
-9.11219
-4.15361
23.9119
-16.6459
13.3329
13.2253
-0.0845503
0.304909
-7.05516
-13.0363
8.36905
0.137839
0.649446
9.59729
0.100165
58.5629
0.106717
3.02383
0.0676888
-0.00843153
-23.6292
-0.0167911
-33.6564
-1.32636
53.2103
4.79794
-0.0914115
-6.93923
-2.9411
-0.163583
-36.9474
2.02545
0.0830932
7.62833
-33.2014
0.0600061
6.94571
28.6187
43.1161
-7.02422
9.75828
10.3604
-40.0407
-20.1257
0.0582601
49.6984
-53.1806
-17.9186
-6.39762
51.6236
-7.90427
-6.92988
32.9246
-59.1604
1.04232
0.0983942
0.0963135
0.144811
-0.00564223
0.0111235
-38.9165
18.4676
-0.0522558
-49.1979
2.94652
0.262704
-6.4747
3.21436
17.4744
-42.7592
6.96777
16.9475
-21.8551
1.82364
15.8927
61.2269
16.116
-53.136
42.6739
18.8143
32.9831
0.268814
46.9788
0.572262
8.84759
24.8968
0.0579906
-40.222
-31.1053
0.753385
0.705041
-128.517
21.7533
-34.1887
1.33759
-3.21144
1.17849
14.3305
24.7104
51.2457
14.3405
56.0099
14.3158
-75.9506
-33.4515
-35.0089
-31.7494
-8.9243
-4.64231
30.6986
14.43
14.3599
65.6302