/*--------------------------------*- C++ -*----------------------------------*\
| =========                 |                                                 |
| \\      /  F ield         | OpenFOAM: The Open Source CFD Toolbox           |
|  \\    /   O peration     | Version:  2506                                  |
|   \\  /    A nd           | Website:  www.openfoam.com                      |
|    \\/     M anipulation  |                                                 |
\*---------------------------------------------------------------------------*/
FoamFile
{
    version     2.0;
    format      ascii;
    arch        "LSB;label=32;scalar=64";
    class       surfaceScalarField;
    location    "0.0380695";
    object      phi;
}
// * * * * * * * * * * * * * * * * * * * * * * * * * * * * * * * * * * * * * //

dimensions      [0 3 -1 0 0 0 0];

oriented        oriented;

internalField   nonuniform List<scalar> 
92401
(
0.147427
-0.0956658
-0.00693349
-0.0448274
-0.0621162
0.0600123
0.0371302
-0.0350262
0.0225563
-0.0399582
0.043119
-0.025717
0.00644076
-0.0126618
0.0125055
-0.00628452
0.00142586
-0.000461773
-0.00581394
0.00484985
0.0196017
0.0097135
-0.0255927
-0.0037225
0.00552276
-0.0045367
0.000439795
0.0324404
-0.0257593
0.0129206
0.048142
-0.038657
0.0324041
-0.0418892
0.000476812
-0.00107458
-0.000141843
0.000739614
0.0046501
-0.041851
0.0376743
0.0244975
0.0242316
-0.0864035
-0.0168767
0.0108243
-7.283e-05
0.00612523
-0.0344455
-0.0403773
-0.0171674
-0.0166945
0.0575033
-0.0236414
0.00185239
-0.0654979
0.0636455
-0.00217573
-0.00767817
0.00193792
0.00341975
0.0023205
-0.000933257
0.0014604
0.000280095
-0.000807242
-0.0047547
0.0103704
4.22746e-05
-0.00565794
0.0161099
-0.00573164
-0.00469236
-0.00568593
-0.0404752
0.00809152
0.0369477
-0.00456405
-0.0391906
0.0107676
-0.0549817
-0.0544582
-0.00298496
0.0555403
0.00190283
0.0904874
-0.0894456
0.0227524
-0.0237941
0.0498793
0.0600608
-0.0713335
-0.0386067
-0.0324509
0.0512963
-0.058036
-0.00259791
-0.00104283
0.00389782
-0.000257075
0.031702
-0.0637586
-0.000394354
0.0610353
-0.061051
-0.0320858
0.0321014
0.0126498
-0.0173026
0.00126319
0.00338966
-0.0360215
0.106337
0.061005
-0.13132
-0.0846853
0.107665
0.00883916
-0.0318184
-0.13108
0.0319574
0.0297071
0.0694158
0.0150238
-0.0616326
0.0367932
0.0098156
0.0599874
0.00943359
-0.0543972
-0.0440407
0.0104146
0.00204266
0.0315835
-0.0504124
-0.041175
0.065467
0.0261204
-0.0334072
0.0403987
-0.01399
0.00699846
-0.0194826
-0.101919
0.0645057
0.0568962
-0.0865317
0.0864168
0.000114947
0.0325272
-0.00360813
-0.0748581
0.045939
0.00223224
0.0244369
-0.0255972
-0.00107197
0.0268986
-0.0504037
0.0235051
0.000103814
-9.67505e-05
-1.80623e-05
1.09984e-05
0.000362713
-0.058873
0.0585102
-0.0685952
0.0426629
0.0626911
-0.0367588
0.0900694
-0.0254969
-0.0126469
-0.0519256
-2.49883e-05
0.0700717
2.49289e-05
-0.0700716
-0.0475513
0.0730481
0.0394339
-0.0649307
0.000528558
0.0010417
-0.00036905
-0.00120121
-0.00229451
-0.00352296
0.000372907
0.00544457
-0.0382452
0.0839575
-0.0461279
0.000415685
0.000314846
-0.000764464
-0.000678569
0.00112819
-0.0548657
0.0544717
0.000393992
0.0749131
-0.00780865
-0.0186295
-0.048475
-0.0975408
0.0902341
0.00533371
0.001973
-0.0554526
0.027634
0.0112097
0.016609
-0.00253711
-0.0157241
0.00715209
0.0111092
-0.0123665
0.0258638
0.0374525
-0.0509498
0.000885592
-0.000254578
-0.000316168
0.000110947
4.40193e-06
0.000697578
-0.000812927
0.00111611
0.000217756
-0.00079344
-0.000540424
0.00414249
-0.00919729
0.00518474
-0.000129937
0.0679077
0.00506197
-0.0172032
-0.0557664
-0.0150171
-0.00461097
0.0102748
0.00935329
-0.0410325
-0.0530627
-0.0548482
0.148943
0.00352261
-0.0338205
-0.00405955
0.0343574
-0.00043042
0.000546719
0.000692428
-0.000808726
0.00468258
0.0043291
-0.0283361
0.0193244
0.0187263
-0.00680169
-0.0095471
-0.00237756
0.0418953
-0.0762754
-0.0275165
0.0618965
-0.02841
-0.00336166
0.0102899
0.0214817
0.0120286
0.00803692
0.0129362
-0.0330017
-0.000822476
-0.000397831
-5.20848e-05
0.00127239
0.025208
-0.00972156
0.0365762
-0.00118585
0.000802675
-0.00140907
0.00179224
0.0444325
-0.0329997
-0.0684342
0.0570013
0.000628475
-0.000299522
-0.000328953
-0.00108101
-5.53859e-05
0.000563458
0.000572938
0.000897665
-0.000356955
0.000853405
-0.00139412
0.0223399
-0.0220092
-0.0627286
0.0623979
0.0011991
-0.0127433
0.00267229
0.0088719
0.0431036
0.0581544
0.0187265
-0.119985
-0.116305
0.026133
0.128953
-0.0387809
-0.00516963
-0.0440289
0.00386159
0.045337
0.053263
-0.0286358
0.0253484
-0.0499756
0.024641
-0.00390134
-0.150949
0.13021
0.00658854
0.017568
-0.0269802
0.00282366
0.000697393
-0.000242782
-0.000694927
0.000240316
0.037861
0.0128644
-0.00174657
-0.0489789
-0.00203105
0.0838081
-0.0855103
0.00373325
-0.0180108
0.0499588
-0.116326
0.0843779
0.0419189
0.00539446
-0.052483
0.0419862
-6.73231e-05
-0.00234597
-0.0290202
0.0413309
-0.00996472
0.070969
0.0168068
-0.0313551
-0.0564207
0.128523
-0.141943
-0.0279676
0.0413876
-0.0149777
-0.0452284
0.0578602
-0.0815354
-0.000834391
0.0823698
0.00122695
-0.0980846
0.164047
-0.0671892
-0.00242731
0.00333479
-0.000567939
-0.000339542
0.0885571
-0.147644
0.0309201
0.0281664
0.00154816
-0.000326097
0.000828334
-0.0020504
-0.0860356
0.142935
-0.103847
0.0469479
0.0296237
0.00315098
-0.0399295
0.00715485
0.0869897
-0.0161742
-0.080077
0.00926151
0.00578718
0.0311579
-0.0519228
0.0309579
0.0277762
-0.132135
0.0734013
0.0856069
0.112941
-0.0792479
-0.1193
0.000426244
0.000680341
-0.00278425
0.00167766
-0.0943918
-0.0295271
0.112004
0.0119145
0.00125094
-0.00595101
0.0154665
-0.0107665
-0.0139268
-0.0334346
0.0574575
-0.0100962
-0.00536692
0.0167175
-0.0142079
0.00285726
0.00033563
-0.000672971
-0.000527691
0.000865033
0.021341
-0.0256004
-0.00110754
-0.00179492
-0.000719173
0.00147216
0.00104193
-0.0572601
0.0600346
-0.00277446
-0.0024469
-0.00619726
-0.00201207
0.0106562
-0.0361308
0.0278099
-0.0056058
0.0183632
-0.0472578
-0.0557908
-0.0511676
0.0414847
0.0982755
-0.0885926
-0.00748972
-0.00169594
0.00500331
0.00418234
0.0469393
0.0114618
0.00204779
-0.0604489
0.000349282
-0.00916584
0.00670292
0.00211364
-0.0393455
-0.0533018
0.0116928
0.0809545
0.064696
-0.0388724
0.0266271
-0.0524507
-0.00958276
0.059775
-0.0590202
0.00882798
-0.0590652
-0.0339242
0.00798372
0.0850057
0.0165236
0.00509355
-0.0333201
0.011703
0.0597895
-0.0598117
2.21661e-05
0.00185425
0.00182946
-0.0013012
-0.00238251
0.0410454
-0.0435181
0.00247273
-0.0534367
-0.0367096
0.105093
-0.0149463
0.000841965
-0.0097277
0.00951676
-0.000631028
0.00300338
0.00594688
0.00257856
-0.0115288
0.00183292
0.00618145
-0.00766509
-0.0251477
-0.0573908
-0.0091835
0.091722
0.0257015
-0.00742677
0.0172755
-0.0355502
-0.0841163
0.0924011
-0.101335
0.09305
0.0785612
-0.0520237
-0.0265376
0.00146095
-0.0344979
-0.0100791
0.043116
0.00817444
-0.00552998
-0.00915158
0.00650712
0.046349
-0.0699466
-0.061639
0.0852366
0.0740824
-0.064712
0.0293094
-0.0386798
-0.013251
-0.00830703
0.0315725
-0.0100145
-0.058295
-0.0870745
0.0567233
0.0886462
-0.0416324
0.0541178
-0.0110245
0.0977431
-0.0483942
-0.0493489
-0.00427079
0.0148416
-0.00239633
0.000964528
0.000660341
-0.000704969
-0.0009199
0.0474271
-0.015885
-0.00525791
-0.0262842
0.00357662
-0.00181936
-0.000498652
-0.00125861
0.00550495
-0.0100675
0.00863827
-0.00407576
0.0728256
-0.0421884
0.0255789
-0.056216
0.00859022
-0.000336748
-0.00681358
-0.00143989
0.00164979
-0.000587571
-0.00106222
-0.0642131
0.0643998
-0.000186756
0.0122953
0.00567138
-0.0966668
0.0787001
-0.0112273
0.0141474
-0.0102404
0.00732029
-0.072451
0.0165718
0.0828668
-0.0269876
0.0181425
-0.0973037
0.0756957
0.00346548
-0.0526311
0.0428518
-0.00820924
0.0179885
0.00864504
-0.00178486
-0.00290109
-0.0039591
8.22826e-05
-0.000942637
0.000860354
0.0281645
0.170285
-0.244314
0.0458645
0.000310425
-0.000235236
-0.0249581
0.0603768
-0.0525986
0.0171798
-6.36045e-05
0.00516491
-0.00429699
-0.000804324
0.000596466
0.00177655
-0.00272997
-0.0713727
0.000409197
0.0709635
-0.032458
0.113959
-0.0478141
-0.0336866
0.000374285
0.000694263
0.00946152
-0.0105301
0.000245052
0.090058
-0.0903031
0.00234999
-0.00163944
-0.00116412
0.000453573
0.00130705
0.000637074
-0.000647717
-0.0012964
-0.0365464
-0.00153964
0.0323545
0.0192288
-0.0639498
-0.0721675
-0.0165876
0.00634232
0.0824128
-0.000596174
0.00190322
-0.0994123
-0.0419939
0.112524
0.0288823
0.0275101
0.169334
-0.0845948
-0.0573201
-0.0274192
-0.0177383
0.118715
-0.0434693
-0.0575074
0.0400486
0.0301704
0.0380772
-0.108296
0.104883
-0.248208
0.1089
0.0344255
0.00157025
-0.00137507
-0.00142234
0.00122716
-0.0121492
-0.0357098
0.0559004
-0.00804145
0.0253739
0.0404252
-0.0258543
-0.0399448
-0.0353299
-0.0258889
-0.019744
0.0809628
-0.0537475
-0.0136196
0.055218
0.000767726
-0.0120556
0.00850352
0.00278434
0.0553889
-0.0284607
-0.0508521
0.023924
-0.0888263
0.104754
-0.0500451
0.0341177
0.0160662
-0.0230263
0.00712791
-0.000167798
0.0517948
-0.0600821
0.0636762
-0.0567576
-0.00368446
-0.0140583
0.0745004
-0.00538267
-0.0126602
0.00217247
0.0158704
8.88843e-06
0.0576823
-0.0572799
-0.000411284
0.136211
-0.053515
-0.0033565
-0.0793398
0.0595035
-0.00771943
-0.0484162
-0.00336793
0.0524118
-0.0208024
-0.0748267
0.0432173
-0.0096515
-0.00202316
0.0148274
-0.00315276
0.00529082
-0.00159942
-0.00478705
0.00109565
0.00224267
-0.0433019
0.0398938
0.00116546
-0.000907356
-0.0863462
0.0035151
0.0194298
-0.0130151
-0.063347
0.0471178
0.0162292
-0.0595748
-0.0170042
0.0109086
0.0656704
-0.0984883
-0.00154175
0.103043
-0.00301317
0.00374543
0.0233355
-0.0126176
-0.0144633
-0.0709147
0.149935
-0.0661176
-0.0129029
-0.00508798
0.0140033
0.0224778
-0.0313931
-0.0510873
0.0978834
0.0383461
-0.0851422
0.0281151
0.00214802
-0.0147935
-0.0154696
-0.0360079
0.0372314
0.00101914
-0.00401108
0.00693391
-0.00928773
0.0063649
-0.000376192
-0.00432825
0.0102094
0.035981
0.0383169
-0.0742979
0.00111457
-0.00186124
5.54835e-05
0.00069119
0.0191281
0.00838729
-0.0185284
-0.008987
0.0217977
0.0105702
-0.00241383
-0.0299541
-0.0512514
-0.000959144
0.00624909
0.0459615
0.000127564
-0.0434295
-0.000926668
0.000581356
0.00145988
-0.0519992
0.0372124
0.0519644
-0.0371775
-0.0444642
0.0298949
0.0185848
-0.00401554
0.00132227
-0.00323178
-0.00974662
0.0116561
-0.00888601
-0.00500003
-0.00352473
0.0174108
-0.0431112
-0.00472794
0.0118312
0.0719324
0.0394377
-0.0716754
-0.0396947
-0.04417
-0.000429539
0.0445996
0.0862861
-0.0486474
0.0594616
0.00357898
-0.00776056
-0.0377959
0.0419775
0.0357048
0.011332
-0.00574327
-0.0412935
-0.000481019
0.000289918
0.000996737
-0.000805636
-0.0169112
-0.0446961
0.0616073
-0.000286591
-0.00127544
-0.00449647
0.0313808
-0.0233054
0.00609122
0.0280735
-0.0419253
0.0979572
-0.0909261
-0.00206078
-0.00497037
-0.02108
0.100898
-0.0187594
-0.0610588
-0.0321051
0.00681369
0.0150938
0.0101976
-0.0393175
0.0358925
0.0143332
-0.0109083
0.0325086
-0.0251266
0.00136406
-0.008746
0.0184004
0.0720518
-0.12074
0.0302876
0.0761493
-0.0750347
-0.0242503
0.0231357
-0.142926
0.00242875
0.00321183
0.137285
0.0302836
0.0124524
-0.041046
-0.00168993
0.0400394
-0.0578653
0.0202769
-0.002451
0.00209078
-0.00124126
0.000232872
-0.00108239
-0.0148097
-0.00139427
0.0733863
-0.0416393
0.0188237
-0.0505708
-0.0116459
0.0476055
0.000587652
-0.0365472
0.00563452
0.0954744
-0.0930082
-0.00810071
0.0497536
-0.0989808
0.0583216
-0.00909439
-0.0486802
-0.000399092
0.0374334
0.0153257
-0.00388314
0.00870897
-0.0201515
-0.0234302
0.0478181
-0.0133323
-0.0110556
-0.0486211
-5.91006e-05
-0.00524468
-0.122775
0.175821
-0.0478006
0.0101627
0.0095132
-0.0631856
0.0435097
0.0499112
0.00540655
-0.045155
-0.0125595
0.00672116
-0.00358624
0.00942459
-0.0557829
-1.81642e-06
0.0557847
0.110023
0.0441189
-0.135936
-0.0182055
-0.00906951
0.000428752
-0.00391875
0.018594
-0.115732
-0.0224434
0.119581
0.0126306
0.0660861
-0.0692035
0.00297066
-0.0555468
-0.0106095
0.000456558
0.00185552
-0.00259867
0.00196156
-0.00183694
0.000331938
-0.0507683
0.0253949
0.0743991
-0.0490257
-0.00194354
0.000979987
0.000908163
-0.0344408
-0.00768513
0.0450966
0.000214463
-0.000302482
0.000333191
-0.000896882
9.87088e-05
0.000464982
6.12454e-05
0.00211478
-0.00172522
0.00137348
9.06271e-05
0.000261114
0.000492878
-0.000319688
0.000712402
0.105599
0.12076
-0.0789321
0.000109458
-0.00081786
0.00120128
-0.0529199
0.0530719
-0.000151914
-0.0109777
0.0759272
-0.0711422
0.00619275
0.00182522
-0.0193295
0.00509412
0.0124102
-0.0604951
-0.00340256
-0.017101
0.00400023
0.0476457
-0.0345449
-0.0644374
-0.00187714
0.0663145
-0.00625565
-0.0165628
-0.0126511
0.0354695
0.000278597
-0.000358058
-0.000479911
0.000559372
-0.00407575
-0.00730168
0.00892831
0.00244911
0.0549821
0.0439102
-0.0175092
0.0476917
0.0890523
-0.0380509
-0.0986931
-0.0125447
-0.0445145
-0.0205193
0.0199391
-0.0557635
0.0563437
-0.0104863
0.0292155
-0.00700178
-0.0117274
-0.0151799
-0.0134811
0.0138001
0.0148609
0.0972036
-0.0958627
0.0186831
-0.020024
0.00106961
-0.0043323
-0.000296877
0.00355957
0.000868148
-0.0655981
0.06473
-0.0729345
0.00361944
0.0669042
0.0024109
0.0393598
0.0381342
-0.077494
0.0189425
-0.0603369
0.0288497
0.0021892
-0.0012874
0.000687994
-0.00158979
0.000143758
-0.000427022
0.00153407
-0.00125081
-6.3218e-05
0.000401164
-0.000957408
0.000619462
0.0632844
0.0560534
-0.0388863
-0.0804515
0.00544195
-0.0866293
0.0824096
-0.00122229
-0.0135345
0.000245875
0.0265633
-0.0132746
0.0530121
-0.0524775
0.0192682
-0.0198028
-0.000497618
0.00131184
-0.000655214
-0.000159012
0.0203615
0.0478756
-0.0492947
-0.0471944
-0.00175288
0.000875282
0.00156342
-0.000685822
0.000792602
0.0796032
-0.0803958
-0.0499349
-0.0154408
-0.022268
0.0876437
-0.0501356
0.000200663
0.0116551
0.0169234
0.0166933
-0.0452718
0.000500926
-0.00280311
0.000262797
0.00203939
-0.0016787
-0.00069193
0.000617746
-0.1067
-0.00869056
-0.0434882
0.158879
-0.0104497
0.00713268
0.137655
-0.134338
-0.0381266
0.042219
-0.0649344
0.060842
-0.0786416
0.0783191
0.000322528
0.0015332
-0.0503353
-0.0303767
0.0658757
0.0193025
-0.00549839
-0.0796798
0.0501386
0.0940105
-0.156034
0.0118846
0.0417468
0.0158462
0.033068
-0.090661
0.104329
-0.108216
0.043247
-0.00343127
0.0129454
-0.0116916
0.00217748
-0.00202146
0.000113617
-0.000732502
0.00264035
-0.00278597
-0.0055222
0.00158193
0.00672624
0.0607176
-0.00600017
-0.018374
-0.0363435
-0.0567403
0.0282535
0.0284868
-0.0924988
-0.00790932
0.0123678
0.000405445
-0.000456231
-0.00197068
-0.117284
0.0258496
0.00490962
0.0865244
0.00104301
-0.0537196
-0.00989617
0.0625728
0.0453846
0.0288145
-0.10139
0.0271914
0.0380551
-0.0440964
-0.018774
0.0248153
0.0479277
-0.0603236
0.050451
0.0307509
-0.0559064
0.0497288
-0.0245733
0.0344288
-0.0358802
0.000451788
0.000999608
0.0164974
-0.141984
0.0908589
0.0346277
0.00125926
-0.0612634
-0.00355087
0.0523809
0.000565061
-0.108399
-0.0337555
-0.00905804
0.00670739
0.0361061
-0.0486369
0.0444883
0.0503636
-0.046215
-0.0425317
0.0823689
-0.0398372
0.0107954
-0.102754
0.0478624
-0.0168133
0.00761377
0.0243687
-0.0151692
-0.0885176
0.0933987
0.0367638
-0.0416449
0.0584173
0.0329484
-0.0827993
-0.00856635
-0.0474705
0.142252
0.00435849
-0.0991402
-0.00050519
0.00305996
0.00352728
-0.00608205
0.0540906
-0.0724962
0.0830231
-0.0646175
0.00858967
-0.0399573
-0.00840859
0.0397763
-0.0437021
0.0319463
0.102718
-0.090962
-0.0500319
-0.026513
0.0531415
0.0234033
-0.0100547
-0.000408476
0.00637781
0.00408535
-0.00994825
0.0215118
-0.018006
0.0064424
0.000136381
0.0737163
-0.0738527
0.0149355
-0.0442549
-0.0193175
0.0485135
-0.0340216
-0.00120023
-0.0132916
0.00149704
-0.0253615
-0.0203181
0.0441826
0.0347544
-0.0347381
-1.6299e-05
0.0614418
-0.0416749
0.063992
-0.0837588
-0.0997168
0.0974914
0.099429
0.000101248
-0.0107498
-0.00180557
0.0124542
0.0496899
-0.000103428
-9.92969e-06
6.16458e-06
0.000107193
-0.000226367
0.0471349
-0.10937
0.0624612
-0.00858442
-0.000538674
0.00496449
0.0041586
0.0268713
0.00997618
-0.0368475
0.00120756
-0.00101266
-0.00877932
-0.0324109
-0.0326789
0.0116531
0.057175
0.000829673
-0.0580047
0.0728503
-0.0441261
-0.0511912
0.022467
0.00178319
-0.0247574
-0.0210665
0.0694359
0.0429989
-0.0395846
-0.00796096
0.00926977
0.134143
-0.119602
0.0359284
-0.0504699
-0.0450284
0.0366128
0.0218971
-0.0134815
-0.0527601
0.0523845
0.000375606
-0.0478117
0.0296819
0.0106097
-0.0467995
-0.0106456
0.0468355
-0.00253132
0.159929
-0.159308
0.00191088
0.107678
0.0159711
-0.015985
0.0509302
0.00861803
-0.051353
-0.00819521
-0.0143854
0.00456763
0.0106019
-0.000784118
-0.00952709
-0.00530913
0.00474832
0.0100879
0.0662042
-0.0376983
-0.0529049
0.0243991
0.0297785
-0.0157224
0.0238284
-0.0378844
0.026766
-0.0935569
0.0895634
-0.0227725
-0.00575564
0.000423333
-0.00905309
-0.0940609
0.107374
-0.0235665
0.0102536
-0.0113772
0.0478828
0.0138616
-0.0503671
-0.00434225
-0.000191458
0.0032003
0.00133341
0.0831453
-0.0048523
0.0512207
-0.129514
4.87065e-05
-0.000723676
1.71306e-05
0.000657839
-0.0664524
0.0583245
0.074012
-0.0658841
0.0035776
0.00118194
-0.00228065
-0.00247889
-0.0780795
0.0758223
0.00225719
0.0623525
-0.058971
-0.00338154
0.060351
-0.000637538
-0.0597135
-0.0113218
0.123549
-0.000715518
-0.111511
0.00989318
-0.031126
0.0328879
-0.0239002
-0.000105612
-0.05637
-0.0676141
0.0120888
0.0664826
-0.0109573
-0.0131706
-0.00211216
0.000411139
-0.000664276
-0.000182244
0.000435382
0.00114539
-0.000173208
-0.000235348
-0.000736831
-0.0635006
0.0074347
-0.00120714
0.057273
0.00046083
-0.00542744
0.00185979
0.00310682
0.0120313
-0.0145556
8.2895e-06
0.00251593
0.00812457
-0.00672704
0.0106338
0.0556782
-0.00930529
-0.0225667
-0.0238062
0.0362006
-0.00546035
-0.0364408
0.00570053
0.000365
0.0668548
-0.00036086
-0.0668589
0.00763948
-0.0718352
0.0193667
0.0448291
-0.0426914
-0.032319
0.0420586
0.0329518
-0.0351036
0.0208441
-0.0908105
0.10507
-0.000875957
0.0150722
-0.00778303
-0.00641325
0.0491094
-0.0590941
0.0475006
-0.0375159
-0.0626745
-0.00672553
-0.00810634
0.000718742
-0.00015341
0.00426615
-0.00483148
-0.0119026
-0.00275608
0.00177791
0.0128807
-0.00799621
-0.00918624
0.0107401
0.00644239
-0.000138187
-0.00216496
0.00134502
0.000958125
-0.000452563
0.000551578
-9.9015e-05
0.00140135
-0.0719545
-0.02645
0.0970032
-0.000163553
-0.000126741
-0.00133194
0.00162224
0.000140073
-0.000476486
-0.000116151
0.00203897
-0.0664763
-0.000120368
-9.4328e-05
0.000766274
0.000651123
9.44526e-05
-0.000415963
-0.000329612
-0.028045
0.0642786
0.0771622
-0.113396
-0.00904689
-0.00222196
0.00719639
0.00407245
-0.0144457
-0.000253586
0.00565235
-0.00524615
0.00544723
0.0129977
-0.0131988
-0.00066758
0.000857085
-0.000309873
-0.0657208
0.0664523
-0.000731509
0.0302834
0.0468656
-0.0598598
-0.0172893
0.0122117
-0.0755766
-0.0216089
0.0849738
-0.0133619
0.00272019
0.00539561
-0.00451309
-0.00632909
-0.00251977
-0.0165044
0.0580916
0.0129062
-0.0544934
0.0692182
0.0046441
-0.053545
-0.0203172
0.000153291
0.000429527
-0.000789686
0.000206868
-0.000262574
-0.000264933
-0.00261528
-0.00115291
-0.00126107
0.00502926
0.0651929
-0.0459664
0.0119872
-0.0312137
-0.000800159
-0.00264989
0.00142601
0.00202404
-0.0160707
0.0103432
-0.00399856
0.00972597
0.00183692
-0.10145
0.101239
-0.00162628
0.00301541
0.000725499
-0.0104082
0.00666725
0.00987331
-0.0105395
0.00165492
-0.000988732
0.00988828
0.00378559
-0.0106585
0.0370115
0.0560918
-0.0279104
-0.0272881
0.0548103
0.028205
-0.0557272
0.0277432
-0.0550313
-0.000295361
0.000131559
-0.0332434
0.0124713
-0.0100409
0.0792124
0.0232161
0.00750409
0.0689586
-0.0542216
0.0979679
-0.112705
0.00476094
0.092438
-0.0971989
-0.0068583
-0.00689331
0.0132728
0.000478775
-0.0339984
-0.0873185
0.0276873
0.0936296
0.0224234
0.0615574
-0.0248934
-0.0590874
-0.0234685
0.113511
-0.0530305
-0.041872
0.0448998
0.0517825
-0.0558756
0.0556018
0.00027381
-0.038815
0.0367597
0.00205531
0.0402054
-0.0790289
0.0729732
-0.0341498
0.0669635
-0.0834679
-0.00950603
-0.00814574
0.0107935
0.00089547
0.000644761
-0.000605325
-0.000934906
-0.00593555
-0.0425568
-0.00738322
0.00127226
0.00141164
-0.00253119
-0.000152703
-0.0573981
0.051764
0.0856697
-0.0800355
0.0346709
-0.0329757
-0.00169524
0.0087571
0.0196737
-0.0111089
-0.0173218
0.00423071
-0.000505061
0.00220298
-0.00592863
-0.0643804
-0.000530499
0.0202214
0.0446894
-0.00285083
0.00672042
0.000361125
0.0396192
-0.10966
0.104193
-0.0341528
0.0457752
0.0140708
-0.0594035
-0.000442484
-0.00359158
0.00695588
0.00157621
-0.00494051
-4.47181e-05
0.0607402
-0.0606955
0.0372299
0.00636664
0.0148583
-0.0584548
0.00423391
-0.00732298
0.002584
-0.182313
0.0279913
0.161708
-0.0073866
0.0390808
-0.0110023
-0.0280785
-0.00113754
-0.00154169
-0.00119213
0.00387137
-0.0415379
0.044971
0.124318
-0.127751
-0.00182218
0.000657862
-0.00203691
0.00320122
0.0913233
-0.00262905
-0.0429191
0.000479341
-0.00119152
0.00205112
-0.00133894
-0.0186544
-0.116096
0.0161945
0.118556
0.00402863
0.0520345
-0.00399996
-0.0520631
0.0487956
-0.0702784
0.0602802
-0.0387974
0.0318052
-0.0364469
0.048644
-0.0440024
0.00856065
-0.00201736
0.00602226
-0.0125655
0.00112977
-0.0444559
0.0532539
-0.0536062
-0.0360946
0.0971358
0.0178684
-0.0247784
-0.0902257
0.0477036
0.0179482
-0.134963
0.0693108
-0.00167496
-0.00862475
0.00633368
0.00396604
0.0280606
-0.0503333
-0.00332002
0.0289973
-0.026696
0.00741495
-0.0058051
0.00010618
-0.00171603
-0.0866517
0.00294263
-0.000991401
0.072247
-0.149875
0.0786199
-0.0269444
-0.0873251
0.0413722
0.0728973
-0.072262
0.0210726
0.00242763
0.0487618
-0.0435042
0.0293265
0.0104552
-0.0828982
0.0961414
-0.0132432
-0.02086
-0.00951116
0.118098
-0.0877272
-0.00351182
-0.00393549
0.00609909
0.00134822
-0.0258128
0.0591945
0.0407007
-0.072174
0.0280479
-0.000740426
-0.000404724
-0.000990204
0.00213535
0.0466957
-0.0491083
0.0547936
-0.0376502
-0.00696865
-0.0451791
-0.124443
0.048037
0.0764064
-0.0429315
-0.0325167
0.0276365
0.00308088
-0.00214034
0.000706314
-0.00164686
0.00267723
-0.000304273
0.000707931
-0.0861538
0.00338058
0.0827732
0.0609515
0.0137463
-0.12301
0.0483121
-0.07123
0.00042821
0.0708017
0.00139596
-0.00188853
0.00837828
-0.00788571
0.0485143
0.155294
-0.22543
0.0216217
0.00178776
-0.00228403
0.00147419
-0.000977917
-0.0916455
0.0649807
0.0264758
0.000188945
-0.00262119
-0.000906242
0.00300577
0.000521659
-0.000751127
0.00838708
-0.00823021
0.00059426
0.00808342
0.00787135
-0.0152487
-0.000706101
0.0410537
0.0124441
0.003011
-0.00270678
0.00148353
-0.0984875
0.105442
0.00722384
-0.0141782
0.0118591
-0.066706
-0.0230117
0.0778585
0.00203225
-0.00443141
0.0879946
-0.0855954
-0.0420956
-0.0365026
0.0875133
-0.00891506
-0.0407687
0.0247199
0.0404729
-0.0244241
0.0537694
0.0209556
-0.0726279
-0.00209709
-0.00173538
0.000194615
0.00181564
-0.000274869
-0.123889
-0.0429178
0.0398797
0.126927
0.0483968
-0.0377872
-0.0315248
-0.037758
-0.0309639
0.100247
-0.0019263
0.00428787
0.000350111
-0.00271167
-0.0309878
-0.0801492
0.028241
0.082896
-0.0296045
-0.0288406
0.0207949
-0.000835258
-0.00323138
-0.00168516
0.00333804
-0.00371427
0.0020614
-0.00569323
0.0055894
0.0253681
-0.0772457
-0.085365
0.137243
-0.000353224
-0.000373238
0.000408975
0.000317488
0.057238
-0.060436
0.0475795
-0.0443815
-0.0147221
0.0433812
-0.0074454
-0.0212137
0.08622
-0.0859346
-0.0185878
0.0183024
0.0263732
0.0224494
-0.0636136
0.0147909
-0.127471
0.0741598
0.0182421
0.035069
-0.0052585
0.00296343
0.000130514
0.00216456
-0.0079182
0.00965886
-0.000344703
-0.0134594
-0.00370577
0.0182423
-0.00107706
-0.0626002
-0.00469376
0.0146794
0.0526146
-0.00928755
0.103378
-0.00512518
-0.0889653
0.00920407
-0.0472225
0.0802176
-0.0421991
-0.0016335
0.00417274
-0.00168168
-0.000857555
-0.0149048
0.000281563
-0.00226002
0.0168833
-0.107599
0.00489082
0.0126948
0.0900133
4.9531e-05
-0.000326421
0.000683111
-0.000406221
0.036892
0.0080476
0.0269928
-0.0046927
0.0456203
0.05302
-0.0939476
-5.48891e-05
0.00069627
-0.00059185
-0.000582203
0.00213222
-0.00143958
-0.000110438
0.0173517
0.110384
-0.0471807
-0.0805548
-0.000221736
-0.000104686
0.000217361
-0.000439096
0.0618841
0.0171378
-0.0923049
0.0132831
-0.157069
0.0863901
0.0766927
-0.00601347
-0.0182847
0.000421092
-0.0517765
0.0696401
0.0251471
-0.0149433
0.0170833
-0.0272871
-0.0663039
-0.0233575
0.0896614
-0.0777657
0.0382591
0.0395066
-0.00214664
-0.000259081
0.000317953
0.00208776
-0.0386461
0.0416336
0.00760496
-0.0105925
0.0469079
-0.0547074
0.00779953
-0.0606851
0.0337824
0.0452461
-0.0183435
0.00449855
-0.00249511
-0.00180009
-0.000203346
-0.00319711
-0.00258323
0.000521845
-0.042107
-0.0420093
0.0462452
0.0142302
0.00229953
-0.062775
0.00231188
-0.000325179
-0.00192981
-5.6891e-05
0.00288787
0.0041828
-0.00698988
-8.0791e-05
0.00716844
0.021886
-0.0400261
0.0109716
-0.0191272
-0.0154501
-0.00915927
0.0437365
-0.0755034
-0.010667
0.0305256
0.0556448
-0.00172811
0.0149012
-0.00827429
-0.00489882
-0.0528991
0.000413566
0.0333584
0.000172717
0.0251021
-0.135392
0.126185
-0.0158951
0.028743
-0.0343415
-0.0516616
-0.0271302
0.0548734
0.000130683
0.0399318
0.00319194
-0.0432544
-0.0556656
-0.0598854
0.115551
-0.00309498
-0.00107514
-0.00172377
0.00589388
0.00319407
-0.00472155
0.00171906
-0.000191586
0.0362558
-0.00565586
-0.0282413
-0.00235859
-0.00317726
-0.00229401
0.0023763
0.00399011
-0.0117099
0.0663946
-0.0586748
0.0760812
1.86619e-05
0.0279553
0.00921677
-0.00623105
-0.030941
0.0586784
-0.000558604
-0.0581198
-0.0528478
0.113479
-0.0284378
0.0597476
0.0201149
-0.0514247
-0.0155099
-0.0252612
0.0167263
0.0240448
0.00322097
0.00368237
0.000786501
-0.00768984
-0.0339016
-0.0382272
0.0993048
-0.0271761
0.043862
-0.0356187
-0.000113099
-0.00813014
-0.0512111
0.115169
-0.0498697
-0.0140885
-0.00147988
0.00177051
-0.000180808
-0.00010982
-0.000955877
0.0217398
-0.00439054
-0.0163934
0.00287209
0.00392998
1.84963e-05
-0.00682057
-0.000252457
-3.70012e-05
-3.29196e-05
0.000322378
3.52991e-05
5.97233e-05
-0.000347479
-0.00877531
0.0223922
0.0703593
-0.0839762
0.0805529
-0.0798842
-0.00066872
0.000311186
-0.00036261
5.1423e-05
-0.0128537
0.000948919
0.00224488
-0.00138116
-0.00181264
-0.00786255
-0.00538728
0.00510461
0.00814522
-0.0557712
0.0273334
0.000226319
0.00029349
-0.000805977
0.000286168
0.0341447
0.0542859
-0.0344102
-0.0540204
0.012627
0.158118
-0.179513
0.0087678
0.0583403
0.0634754
-0.0620681
0.00196645
-0.0131323
-0.00176521
0.0129311
-0.0333879
-0.030104
0.0634919
0.0311347
-0.0645226
-0.0544058
-0.0445642
-0.0653426
0.164313
0.0502238
-0.0562893
0.00606552
-0.0728805
0.134597
-0.0710218
0.0329704
-0.0302286
0.0853009
-0.00393875
-0.0685338
-0.0128284
0.0702757
-0.0710229
0.0110186
-0.0102713
-0.000105266
-0.00609412
0.00740496
-0.00120557
0.0021101
-0.00558863
0.00648536
-0.00300683
-0.000210253
0.000140706
0.000745142
-0.000675595
0.0222555
0.0228472
-0.0338461
-0.0112566
-0.00516985
-0.00523872
0.00614849
0.00426008
-0.0109257
0.0320416
-0.0427192
0.0216033
0.000993502
-0.00854194
0.0109906
-0.00344218
0.0492843
-0.0042649
-0.0450195
0.0380972
0.0355333
-0.126561
0.0529307
-0.0979075
0.0599402
0.0760645
0.0330041
-0.0997768
-0.0467947
0.108054
-0.0373101
-0.023949
0.00172862
0.00888716
-0.0123029
0.00168716
0.0280962
-0.00312955
-0.0249667
-0.0305195
0.043665
-0.00358685
0.0199842
-0.0315773
0.00111831
-8.81147e-05
0.000980726
-0.00201092
0.011813
-0.0385089
-0.00105735
0.000190468
0.00033805
0.000528834
0.00268026
-0.000291941
0.000985413
-0.00337373
-0.000992225
-0.00219557
-0.0779289
-0.0132762
0.00149308
-0.0117898
0.0235729
0.0204696
-0.0908152
0.0205112
0.0498344
-0.00320837
0.0581257
-0.0821402
0.0272229
0.00106358
-0.000731407
0.000899581
-0.00123175
0.0788978
0.0125885
0.00213201
-0.0936184
-0.000843331
-0.000769539
0.00191627
-0.000303397
0.00494511
-0.000521314
-0.0699353
0.0655115
0.00646397
-0.000907452
-0.00479854
-0.000757983
0.0063626
0.00442718
-0.00352619
-0.0072636
-0.110889
0.0968494
-0.0877643
0.101803
-0.0550227
0.109772
-0.0547489
0.0023922
-0.0443202
0.00922018
0.0327079
0.00356704
-0.0035939
0.000813619
-0.000786762
0.049286
-0.00316062
0.00148014
-0.129556
0.00286782
0.0738406
-0.0334191
-1.54462e-05
0.00148802
0.0306914
-0.0250604
-0.00711893
0.078169
-0.0307547
0.0342027
0.00401713
-0.00496497
0.000197774
0.000750073
0.0335797
0.023241
-0.0741681
0.0173474
-0.00013511
-0.000130085
0.000296167
-3.09717e-05
-0.000402809
0.00150917
0.00525624
0.000160569
-0.00784721
0.00623578
0.00562856
0.0746205
0.0407827
-0.0370711
-0.0783322
-0.131704
0.140823
-0.00827468
-0.000844749
0.0315236
-0.032256
0.000732345
-0.0360668
-7.95111e-05
0.000327673
-0.0030577
-0.00223495
0.0148477
0.206572
-0.158882
-0.0625378
0.0289538
-0.0606363
-0.0175123
0.0491948
-0.00309236
0.039224
-0.000704929
-0.0858441
0.047325
-0.0227252
0.00989942
-0.038002
0.0476463
0.0463145
-0.0559587
-0.0667168
0.088996
-0.151772
0.129493
-0.000165946
0.000115228
-0.00145523
0.00150595
0.000232769
0.00221055
-0.000660913
-0.0017824
0.0443413
-0.0155904
0.0394335
-0.0681843
-0.00350614
0.000377224
0.00328356
-0.000154646
-0.0118657
0.010882
-0.0370183
0.0121556
-0.0463299
0.00585629
-0.00312222
0.0181795
-0.0209136
-0.134272
0.0175403
0.127101
-0.0103693
0.038238
-0.0254947
-0.0177019
0.00495859
0.0344018
-0.0532458
0.00697838
0.00464774
0.00763254
0.051768
-0.0640483
0.0248308
-0.00707585
-0.0248681
0.00711321
-0.0791421
-0.00826156
0.0149527
0.00122116
-0.00102548
3.70839e-05
-0.00163489
0.00236142
0.0016411
-0.00236763
0.018469
-0.0319749
0.0383367
0.0178705
-0.143578
-0.0224932
0.148201
-0.112127
-0.0152325
0.0258197
0.10154
0.0570918
-0.0355754
0.0292762
-0.0507926
0.110471
-0.00633617
0.00416456
-0.108299
-0.0170733
-0.0370342
-0.0041466
-0.0159124
0.00777375
0.0122853
-0.00135862
0.000509749
0.000107055
0.000741819
0.015222
-0.0772466
0.0620246
0.108542
-0.00733129
-0.112533
-0.0264068
0.0553064
-0.0459728
0.0398513
-0.122175
0.0146137
0.0677102
-0.00416624
-0.0123041
-0.0271999
0.0436703
0.00340929
0.0492514
0.0834318
-0.130939
-0.00174416
0.0492305
-0.0829732
0.0893636
-0.0556209
-0.0966049
0.095487
-0.00650133
0.00761918
0.00174624
0.00415502
-0.0942046
0.0883033
-0.00159007
0.00357906
0.00596151
-0.00795049
0.000187361
-0.000899665
-0.000269729
0.000982033
0.0882381
0.000705993
-0.0175077
-0.0714364
-0.000701042
0.000815636
-0.000345295
0.000230701
0.000917286
0.0032839
-0.00232248