/*--------------------------------*- C++ -*----------------------------------*\
| =========                 |                                                 |
| \\      /  F ield         | OpenFOAM: The Open Source CFD Toolbox           |
|  \\    /   O peration     | Version:  2506                                  |
|   \\  /    A nd           | Website:  www.openfoam.com                      |
|    \\/     M anipulation  |                                                 |
\*---------------------------------------------------------------------------*/
FoamFile
{
    version     2.0;
    format      ascii;
    arch        "LSB;label=32;scalar=64";
    class       volVectorField;
    location    "0.0380695";
    object      U;
}
// * * * * * * * * * * * * * * * * * * * * * * * * * * * * * * * * * * * * * //

dimensions      [0 1 -1 0 0 0 0];

internalField   nonuniform List<vector> 
47425
(
(10.131 0.0967783 -0.0419747)
(10.025 -0.0839473 0.017149)
(10.0587 -0.047533 0.00551261)
(11.2234 -0.487433 -0.181511)
(12.1312 0.722356 0.654817)
(10.1295 -0.0250385 0.00952426)
(12.0489 0.531418 0.613959)
(10.111 -0.0199471 -0.00292948)
(10.0093 0.00881562 0.00187933)
(3.93005 6.29797 -0.600783)
(10.0771 -0.0112977 -0.00866546)
(9.90375 0.142142 0.0301643)
(11.8905 0.485954 0.169127)
(10.054 -0.0325883 0.0137376)
(10.7016 0.442918 -0.117416)
(9.96073 -0.158481 -0.0201889)
(10.0681 -0.0424804 0.0201263)
(8.66935 -0.440591 -1.33133)
(8.52977 1.14045 -4.72158)
(13.0554 -0.508034 -0.949403)
(10.7253 -0.651614 -0.479695)
(9.78364 -0.0738209 0.0266154)
(9.98864 0.0747625 0.00671186)
(10.0667 -0.00678751 0.0478993)
(9.92543 -0.139039 0.0334558)
(9.97836 0.0615718 -0.0120523)
(9.98765 0.0408285 0.022667)
(11.2582 -0.297295 -8.32525)
(10.011 0.0297152 0.0267129)
(10.0521 -0.00138594 -0.0442901)
(9.70724 0.75775 0.120717)
(9.96276 0.0576787 0.00540785)
(10.0063 -0.00501038 0.00067874)
(9.99485 -0.0109989 -0.0202092)
(9.96024 -0.0257917 -0.0396131)
(9.96113 0.00542197 -0.0290248)
(9.71379 -0.0877973 -0.0167194)
(10.0001 0.0179426 0.00738975)
(10.5437 0.311379 0.00345536)
(10.0025 -0.0130708 -0.012698)
(9.89146 0.0874333 0.0320879)
(9.23244 0.288402 -0.708166)
(7.46781 -1.16988 -0.79522)
(9.98599 0.0142064 0.00556999)
(-0.0206732 0.187427 1.79297)
(10.0781 0.0261722 0.0179682)
(9.97467 -0.0346273 -0.0588976)
(9.99754 0.0476701 -0.00167267)
(10.0276 -0.00599266 -0.00949027)
(10.0351 -0.00391915 -0.0370547)
(2.04041 -0.626961 -5.50724)
(9.11365 0.980303 1.45334)
(10.032 0.00525789 0.0189505)
(6.78825 -6.05214 3.00731)
(10.0227 0.0308691 -0.0291716)
(10.1538 0.0480839 -0.0139737)
(10.12 -0.0750015 0.0136105)
(10.0952 -0.0120572 0.0265349)
(12.5831 0.998958 1.39288)
(10.0097 -0.00946595 0.0297905)
(4.77855 -5.93471 2.44842)
(4.90568 0.00715243 2.6375)
(6.21145 -6.52721 1.48338)
(9.15735 -1.10107 0.0485887)
(10.0071 0.00979218 -0.00680203)
(10.6839 -0.234219 0.0738664)
(10.0146 -0.0245119 -0.00740489)
(10.6287 0.0787367 0.451173)
(8.56915 -6.48964 3.13794)
(9.08034 0.550628 0.391692)
(10.8456 -0.411588 0.179782)
(9.99447 0.0189089 0.0624655)
(10.73 -0.00560102 0.00845614)
(10.6631 0.255199 -0.580484)
(6.31844 4.16984 1.40368)
(9.99836 -0.00523701 0.00439156)
(6.79583 -6.24725 2.37463)
(9.99944 -0.00206746 0.0151193)
(8.44771 -5.62703 2.77222)
(11.5866 0.425654 1.71658)
(6.68745 3.36177 1.48044)
(10.1872 0.265946 0.0754703)
(9.24088 0.0887843 -0.174755)
(10.009 0.0491219 -0.00301542)
(9.9084 0.000954136 -0.0079023)
(10.1177 -0.0459271 0.0330867)
(10.5412 -0.20644 -0.0101044)
(10.1232 0.0415631 -0.00496819)
(10.5967 0.942453 -1.69012)
(10.7128 -0.0311854 2.52216)
(9.79545 0.392944 0.055914)
(10.5935 -0.0383923 0.0229875)
(10.0587 0.0500323 -0.00334175)
(10.0078 -0.017744 -0.0018708)
(9.96808 -0.0238683 -0.00118937)
(9.98824 -0.00190682 0.0057854)
(10.0377 -0.0039468 -0.0488474)
(10.1615 -0.226288 -0.0375538)
(10.1107 -0.0392309 0.0283196)
(9.94646 0.00988493 -0.0131562)
(10.1025 0.0160328 -0.0478456)
(8.64367 0.0910286 -3.80317)
(10.2318 0.173088 0.0704359)
(5.3706 1.91892 -0.484843)
(10.2518 0.0514066 0.00252044)
(10.3024 -0.688871 0.149429)
(10.0607 0.094308 0.0323832)
(10.0241 -0.042677 0.0366926)
(9.69986 -0.030567 0.0350262)
(9.88961 0.132965 0.0645063)
(-3.97234 -1.71958 0.117462)
(10.1099 -0.0927053 0.0350605)
(10.2342 -0.883179 0.268024)
(10.1487 -0.00863641 0.0159708)
(10.657 -0.456411 0.16256)
(1.73583 -4.26719 -5.44294)
(10.655 -0.428505 0.121259)
(4.09271 0.0475448 -4.01896)
(10.2971 0.186588 -0.0163226)
(10.8421 0.272782 0.46705)
(10.2118 -0.0221114 0.00626968)
(10.0015 -0.000680487 0.00530802)
(10.0053 0.056437 0.0227022)
(11.5576 0.847199 -0.650061)
(10.0711 0.00469109 0.0150226)
(10.4998 -0.854376 0.282989)
(10.046 -0.0755826 -0.0111162)
(10.0059 0.00387709 -0.00720113)
(9.97714 0.00070757 0.0340164)
(10.0122 0.00630498 -0.0121504)
(9.30513 -0.250228 0.388244)
(10.0952 0.375063 -0.0352638)
(4.33686 0.0231702 0.878307)
(10.4067 -0.362534 0.0559521)
(9.55649 -0.284327 -0.631574)
(11.7477 -0.515579 -0.776883)
(10.9598 0.636038 0.250032)
(10.5367 -0.840498 0.419901)
(10.1452 -0.0616525 0.0169263)
(10.8879 0.170752 -0.0478652)
(10.0118 -0.0293499 -0.00581349)
(12.3998 -0.00990864 0.0424475)
(10.476 0.0345931 -0.0695073)
(10.3118 -1.18221 0.423581)
(10.1354 0.218727 0.00585414)
(10.0072 0.00574667 0.0043828)
(11.7715 0.0827111 0.8428)
(10.0732 -0.00441936 -0.0497533)
(10.4504 -0.000273434 -0.0298135)
(9.98125 -0.0049833 -0.00160804)
(10.2215 -1.2223 0.281946)
(2.9823 -0.391306 -6.49904)
(10.0173 0.0214708 0.0030596)
(5.67583 0.104012 -11.0556)
(8.96683 -1.12653 -0.59544)
(9.99482 -0.00303158 -0.0108497)
(10.7391 0.394269 -1.54907)
(7.5272 -3.68041 -2.48629)
(9.95376 0.0274563 0.00121485)
(9.95871 -0.0171049 -0.0143925)
(10.9125 -0.388918 0.178579)
(9.95536 0.0809242 -0.0420161)
(10.0334 -0.0119562 0.0551766)
(10.1382 0.264755 0.0134728)
(11.9294 0.0940331 -0.344517)
(0.960598 -1.81046 -1.97752)
(9.94931 -0.0284311 -0.0269161)
(6.74932 3.89238 1.34863)
(9.94367 0.00185053 0.0339697)
(11.9967 0.587006 -3.95006)
(7.7987 3.193 0.982033)
(10.0379 -0.000453513 -0.0281501)
(10.0194 0.0296089 0.00105402)
(9.4221 -0.94567 -0.54265)
(10.1137 -0.00621754 -0.00314216)
(9.26165 -2.99592 -1.09775)
(2.74273 0.878798 -7.1742)
(10.0014 0.0375155 0.0229317)
(10.0286 0.0148253 0.0411688)
(10.0515 -0.0326958 0.0267656)
(2.55156 0.348443 -10.4742)
(10.0058 -0.0621766 -0.00280772)
(10.02 0.0243093 0.0257659)
(9.96354 0.0109659 0.017887)
(10.0117 -0.0635334 -0.010474)
(10.0502 -0.0292323 -0.0205593)
(10.1833 0.0500182 -0.0379336)
(5.64127 -0.427685 -0.329642)
(9.93304 -0.01636 -0.0622271)
(10.068 0.0776734 0.0245018)
(10.0022 -0.00428508 0.0061183)
(10.0143 -0.0264044 0.0315086)
(11.9589 0.156118 -1.13033)
(9.99897 0.00364999 0.00471796)
(9.95727 0.00020961 0.0229364)
(10.9088 -0.178866 0.0645812)
(10.005 0.000685224 0.00612146)
(9.97789 -0.0139981 -0.0380029)
(11.0853 -0.165549 0.117885)
(10.1377 -0.190794 0.0458695)
(10.0187 -0.0527035 0.0301272)
(10.3071 -0.0669437 0.00620196)
(9.86585 0.0560254 0.0986087)
(10.8362 -0.287601 0.0630535)
(10.1554 -1.4595 -0.771477)
(10.4857 -0.0129996 0.0523218)
(10.0231 0.0127594 0.0254081)
(10.8382 -0.210298 0.0527989)
(10.0387 0.147103 -0.0272273)
(9.99784 0.0201656 -0.00611721)
(10.135 -0.109541 -0.0118852)
(10.9333 0.111313 0.0348124)
(10.0083 0.0681046 -0.00586967)
(10.0701 -0.0806347 0.0301348)
(10.4875 -0.0393221 0.0159901)
(11.0913 -0.246468 -0.143488)
(10.6616 0.0150823 -0.0170875)
(10.275 0.530398 1.24588)
(8.72531 -1.23587 -0.501864)
(10.0194 -0.00271059 0.0119833)
(11.5225 -0.0779181 2.06204)
(10.9104 0.0641518 0.13028)
(9.65759 -1.36275 -0.632773)
(10.6363 0.0219051 0.0481028)
(10.4805 -0.00223402 0.0532698)
(11.5751 -0.356332 2.01209)
(10.0602 -0.00721835 0.00988713)
(11.0022 -0.206079 -0.0798449)
(11.1195 0.447234 0.302714)
(11.6844 0.60382 -0.21808)
(10.6672 0.00141776 -0.0405034)
(9.95464 -0.0218613 0.00186864)
(10.263 -0.101522 -0.00640061)
(10.0027 -0.000919562 0.00208181)
(9.95378 0.0218949 0.00399809)
(9.91166 0.16774 -0.0198073)
(11.4179 0.563295 1.80529)
(9.93405 0.0137501 -0.0122196)
(11.7298 0.541922 1.60663)
(9.89666 -0.00431386 0.0339019)
(9.928 0.0085821 0.0402711)
(10.013 0.00331292 -0.0235704)
(10.0105 -0.0164158 0.0184264)
(11.7209 0.346809 -0.0474079)
(10.4332 0.33437 0.0646247)
(10.0022 -0.00927996 0.0150691)
(10.1983 -0.0209604 0.0160055)
(9.99361 -0.0141168 0.0185966)
(10.0062 0.00670364 -0.0282017)
(9.91068 0.0189661 -0.0158488)
(10.0033 0.0348461 0.0238018)
(11.5555 0.0731904 1.79322)
(9.98654 0.000488525 -0.0384228)
(10.0024 0.00166077 0.00709147)
(9.97113 -0.0504129 0.008937)
(9.94077 -0.0190821 0.0427199)
(9.86759 0.107179 0.0466525)
(9.87899 -0.0331235 -0.0251828)
(10.5205 -0.544625 0.155184)
(10.014 0.00318787 -0.00444826)
(9.82661 -0.00901871 -0.0255469)
(9.99 -0.00675098 -0.00931916)
(10.1576 0.0844414 -0.0296166)
(10.2013 0.031193 0.00466217)
(11.4874 0.304053 0.676387)
(9.91976 -0.360485 -0.0525122)
(9.95407 0.0292047 -0.0195051)
(11.5632 0.3062 0.523086)
(9.95726 -0.0110611 -0.00518354)
(10.2026 0.0988811 -0.0389463)
(10.1509 0.0798465 -0.00629652)
(11.7796 0.659319 1.27172)
(11.2456 0.691573 1.49481)
(10.2176 -0.100967 0.00668366)
(11.6302 0.370888 1.62229)
(10.1178 0.0218032 0.039955)
(11.6974 0.518909 1.45078)
(6.86572 3.24278 2.52391)
(11.2074 0.587234 1.5808)
(5.84341 1.21409 -4.88054)
(3.77755 -5.68428 2.28058)
(10.1558 0.0898346 -0.0436373)
(3.61348 -6.1763 1.56192)
(9.91389 0.0159674 -0.0396189)
(9.99946 -0.0239404 -0.0493441)
(11.0878 -0.151174 0.100634)
(9.94022 -0.0109267 -0.0230306)
(10.0047 -0.0569816 0.00837879)
(9.94506 -0.0822842 0.0115924)
(10.6175 -0.636352 0.0559672)
(1.40456 1.75242 -3.22449)
(9.1915 0.799569 0.159447)
(10.0029 -0.00139038 -0.00217303)
(9.93344 0.0343857 0.0269745)
(10.0358 -0.0728143 0.0019832)
(10.6521 0.231598 0.45251)
(11.8124 0.450068 0.113005)
(10.2193 -0.568074 0.197285)
(10.0826 -0.121193 -0.0275688)
(11.6248 -0.0142021 0.402998)
(9.95039 0.121518 0.012303)
(10.1102 0.0143755 0.0878279)
(9.99823 -0.0548952 -0.00980479)
(10.0392 -0.0849594 0.00825238)
(11.9112 3.82198 0.0350642)
(6.94917 1.74622 0.58992)
(1.45593 1.20961 -5.97778)
(9.91391 -0.00499039 -0.0107297)
(10.0595 -0.0811589 -0.0168905)
(10.0405 -0.585177 0.0526662)
(10.1235 -0.487814 -0.127653)
(1.15962 -0.679087 -5.50824)
(10.0063 -0.0286938 -0.0422323)
(9.99728 -0.0276203 -0.0377157)
(10.7709 2.6177 1.58121)
(10.0524 -0.0800486 -0.00597733)
(9.91434 0.0457299 -0.0223783)
(9.83557 0.055747 -0.0165701)
(9.94318 0.00910783 0.00623096)
(13.4296 1.58455 -0.34607)
(11.0339 2.32353 1.4781)
(10.0175 0.155232 0.0610359)
(10.1584 0.109743 -0.0637649)
(10.0078 0.00064336 -0.0871966)
(10.1555 -0.0405386 -0.00777802)
(10.0415 0.0325403 -0.0272917)
(9.96889 0.170117 -0.00563411)
(10.0398 0.0788361 0.000435889)
(10.0405 -0.0235813 -0.0196038)
(10.0184 -0.023117 -0.0417907)
(11.1567 0.0756019 0.294526)
(11.5275 -1.21437 0.858732)
(10.3745 -0.720098 -1.17499)
(9.9848 0.0231282 0.0175671)
(9.9641 0.00101613 0.00740235)
(9.964 0.0231086 0.0496801)
(11.457 -0.597256 0.898677)
(9.91054 0.137945 -0.0648795)
(10.07 -0.023641 -0.0111425)
(9.98987 -0.0394618 -0.00702138)
(10.0598 0.242582 0.0576557)
(10.0582 0.259011 0.0481131)
(10.0794 0.0175296 0.0190054)
(9.86884 0.229291 -0.0331328)
(10.0323 0.00330529 0.00705433)
(9.92906 0.0101161 -0.0474107)
(10.0974 -0.0339394 0.027309)
(9.6533 0.386624 -0.104382)
(9.9922 0.0367813 -0.0277104)
(9.99711 -0.0233998 -0.012567)
(10.0401 0.229585 0.0453227)
(10.3947 -0.400433 -0.0255146)
(10.0745 0.213787 0.0331625)
(9.92135 0.219015 0.00809383)
(10.041 0.196312 0.062487)
(11.2398 -1.11976 0.000166521)
(9.98269 -0.00134948 -0.037844)
(9.32407 0.212925 0.185471)
(9.95069 0.200464 0.0288949)
(10.0164 0.0342521 -0.00070431)
(9.95388 0.2134 2.08817)
(11.1071 -0.567698 -0.487966)
(10.0493 -0.0194694 0.00614606)
(9.97999 0.0149484 -0.030706)
(10.371 -0.332522 0.0818071)
(10.3296 0.414239 -0.0282003)
(9.86819 4.98471e-05 0.00472461)
(10.0191 -0.000803417 0.0142485)
(10.0645 -0.113445 -0.0125942)
(10.1533 0.680665 -0.105125)
(9.89885 -0.00182593 -0.0103526)
(-0.763116 0.814294 0.405639)
(10.4907 -0.0597757 0.0482407)
(10.0672 0.883346 -0.0727963)
(9.9799 -0.00495469 0.00748529)
(10.0561 0.777481 -0.0606837)
(9.94013 -0.278148 -0.801007)
(9.97536 -0.0379773 0.01815)
(10.0041 0.00499641 0.00339858)
(9.75536 -0.0809077 -0.00524176)
(10.0134 -0.000816183 0.004536)
(10.0269 0.800207 -0.106111)
(10.1298 -0.0490794 -0.012515)
(10.0171 0.0238446 -0.0101091)
(9.98337 -0.0657058 0.00943525)
(10.0051 0.0200867 0.00193566)
(9.98861 0.0372096 0.0102834)
(10.1338 0.188185 0.0582739)
(10.0173 -0.0155557 -0.00281965)
(10.0007 -0.00244466 0.0146511)
(10.4443 0.863518 -0.258296)
(10.2906 1.07261 -0.297525)
(10.0241 0.0194743 0.0280001)
(10.5201 -0.377767 0.0857911)
(9.96497 -0.0398622 -0.00823651)
(10.369 0.806507 -0.233259)
(9.98202 -0.0290248 0.0439328)
(9.92025 0.0237405 0.0103168)
(12.0093 -0.20215 -0.647747)
(9.98135 0.00899892 0.0167551)
(10.3856 -0.926094 1.67135)
(9.99366 -0.0283901 -0.0129823)
(11.1639 -0.225048 -3.41775)
(9.99807 -0.0205399 0.0117829)
(10.5171 0.144786 -0.00649098)
(9.94623 0.00463379 -0.0352129)
(10.0156 -0.0279267 -0.0367193)
(9.82545 -0.00604541 0.0143781)
(10.0774 0.00637941 0.00969743)
(9.99972 0.0105226 -0.0743796)
(10.2761 0.950115 -0.230851)
(1.97812 -1.96589 2.23943)
(2.13095 -0.555632 -2.32297)
(10.0459 0.0263412 0.0197336)
(10.3099 1.49324 -0.751262)
(10.6116 0.700779 -0.289478)
(10.6986 0.656945 -0.284041)
(9.98282 0.00120737 0.0123911)
(9.99973 -0.0304049 -0.0104458)
(9.9876 -0.0120822 0.00254162)
(9.96022 0.0163888 -0.00244081)
(9.9669 -0.0650461 0.0211483)
(10.1522 -0.166326 -0.0199834)
(10.7025 0.589946 -0.185423)
(9.98284 0.00167478 0.0321575)
(10.0468 0.00501197 0.00497914)
(11.0509 -1.32031 0.547325)
(11.3271 0.547362 -0.190684)
(10.9785 0.532604 -0.0696221)
(8.0401 -1.31231 -4.73863)
(-0.0320578 5.74368 0.74866)
(10.3597 -0.254885 0.0492786)
(7.39841 -0.986803 -5.24003)
(-0.0156196 5.46885 1.08387)
(9.9581 -0.133397 0.00879313)
(-0.148271 5.75303 0.93062)
(8.79158 -1.92843 1.52684)
(10.0293 0.0663884 -0.00724444)
(10.9207 0.640038 -0.297421)
(10.8717 0.683392 -0.323547)
(11.1298 0.616623 -0.308877)
(-1.23086 5.13051 1.28098)
(10.0839 0.128699 -0.00998803)
(9.98444 0.0385321 -0.0265757)
(10.0183 -0.0666956 -0.00180817)
(11.1865 0.65675 -0.421873)
(11.0726 0.686469 -0.473001)
(10.0302 0.00345971 0.013458)
(10.0777 0.0642234 -0.00353254)
(9.873 3.75845 3.27747)
(-1.16554 4.95873 1.22609)
(12.6122 -0.360762 -2.87009)
(10.0107 -0.0045497 0.00553509)
(8.66532 -0.705241 -3.04178)
(10.0872 0.0306085 0.940568)
(9.97136 1.71118e-05 -0.0048576)
(10.8108 0.330645 -0.0189924)
(11.7242 0.417018 0.219036)
(10.794 0.228308 -0.00788293)
(10.0061 0.00202704 0.00288308)
(9.99992 -0.00326404 0.00691521)
(9.98307 -0.00481215 0.000886353)
(10.4604 0.303991 0.00612436)
(9.99885 0.00255176 7.58765e-05)
(9.98835 0.00540912 0.0348773)
(10.1059 0.0956779 -0.0343056)
(9.94073 -0.00611748 0.00998687)
(10.9389 0.0816142 0.0275752)
(10.0381 -0.0299011 -0.0212957)
(10.0344 -0.0165226 0.012639)
(10.0129 -0.000304596 -0.00294746)
(10.0083 -0.0049838 0.00675793)
(9.93705 -0.0633217 0.0237578)
(10.3891 0.256291 -0.00226202)
(10.1952 0.0203868 -0.043703)
(9.99507 -0.00104763 0.0458364)
(10.8681 0.0896848 0.0087277)
(9.32037 4.53391 2.74882)
(9.95248 -0.0418731 0.0346609)
(11.8168 1.65036 -1.2452)
(10.0019 -0.0147179 -0.00671727)
(10.6518 -0.247769 -0.031246)
(7.08492 -0.574002 1.107)
(9.7649 1.41124 -0.492678)
(9.9776 0.0383287 -0.0419214)
(9.83944 1.48948 -0.548058)
(10.0128 0.0165687 -0.0576195)
(10.0819 0.0351871 0.0784242)
(10.0371 1.29685 -0.785913)
(9.97067 -0.012699 -0.00611304)
(10.5029 -0.193283 0.0369037)
(9.92278 1.17626 -0.530358)
(10.2037 -0.0627294 0.0513552)
(10.4392 -0.00534728 -0.250663)
(8.12162 0.288447 -3.88156)
(10.0206 0.0178344 -0.0282608)
(9.67003 1.85095 -0.471899)
(10.0283 0.0111076 0.0388153)
(9.06839 2.00659 -0.869934)
(10.0457 -0.0813112 0.0220646)
(9.98454 -0.0535375 -0.0209949)
(9.98249 0.0283206 -0.0119071)
(9.97487 0.0118602 -0.0245998)
(10.9637 0.749094 0.825153)
(9.97847 0.00721317 -0.0425075)
(9.97253 0.0187605 -0.012213)
(10.0536 -0.00958968 0.0152195)
(10.0102 0.0197245 -0.0170131)
(11.0719 0.418042 0.0353518)
(10.1302 -0.0155326 0.00712268)
(10.0922 -0.0102213 -0.00345219)
(8.66445 0.251865 -0.494546)
(9.96944 -0.0197461 0.0652728)
(9.88406 0.0448747 -0.0030209)
(10.0301 -0.106025 0.0350301)
(10.0156 -0.0812424 -0.0543342)
(10.1279 -0.0316997 0.0199869)
(10.0088 -0.00977197 0.00471902)
(10.1317 0.0332185 -0.0327776)
(10.2884 1.34593 -0.929266)
(10.0116 0.0109516 0.00456976)
(9.98849 0.0049374 0.000789242)
(2.88869 -0.402516 -5.50815)
(10.0382 -0.000364599 0.0205906)
(10.0232 0.0504067 0.00541062)
(10.0605 0.121768 -0.00955631)
(10.0056 0.0116458 0.0031066)
(12.5777 1.1953 -0.167938)
(12.6752 0.833911 0.136369)
(9.95144 -0.0597178 -0.0319597)
(9.94247 -0.0540911 0.0397217)
(9.92286 0.0141398 0.0152901)
(11.2246 -0.298221 1.08096)
(9.99139 0.0556657 -0.00704506)
(12.6059 1.40837 -0.203856)
(9.99674 0.000545386 -0.0016888)
(-0.309997 -2.02472 3.24133)
(8.13151 -0.432142 -0.540256)
(9.35491 -0.782436 2.04473)
(10.0527 0.00116752 0.000671237)
(12.5529 1.2994 -0.125382)
(10.0598 0.00844841 -0.0385629)
(10.0823 0.0874244 -0.00974824)
(10.0421 0.0160491 -0.0425835)
(9.88976 0.0220577 0.0812316)
(10.0299 -0.0115506 -0.0239985)
(10.0876 0.0080132 -0.0181198)
(7.91306 -0.727634 0.388462)
(9.99934 0.0114312 0.00640183)
(9.94798 0.0396247 0.00856451)
(9.97684 -0.0422364 0.00594673)
(12.5079 1.17786 -0.116569)
(10.0447 -0.0170982 0.0390992)
(10.0359 0.028658 0.0129455)
(12.3233 1.23014 -0.209365)
(12.2149 0.531319 0.14264)
(10.0199 0.0157537 0.0196628)
(10.0227 -0.00792244 -0.00105113)
(-0.408344 1.87861 1.14539)
(10.0179 0.0386736 -0.0321765)
(10.4486 -0.323511 0.139252)
(9.94537 0.029276 0.0388396)
(10.0612 0.042773 0.0323126)
(10.0531 -0.00837669 0.0152231)
(11.9039 0.665621 -0.0735529)
(11.0729 -0.199181 1.2708)
(9.35421 0.621081 0.906415)
(9.95469 0.031503 0.0726477)
(10.0082 0.00584297 0.0225041)
(9.98723 0.0340179 -0.0128286)
(12.5799 -0.363231 0.861511)
(9.29401 0.118403 -0.360194)
(9.89379 0.0154271 -0.0789686)
(-0.254675 1.86576 0.829938)
(9.95228 -0.0153696 0.0123223)
(10.0053 0.00558584 0.0366034)
(-1.28005 1.71565 1.24017)
(11.8952 2.0484 -1.08527)
(9.82555 0.132255 0.0287222)
(0.0502478 1.9575 0.631011)
(-0.0358493 2.00938 1.07152)
(10.0204 0.0201837 0.0123841)
(9.99099 -0.0192072 0.00451173)
(10.0531 -0.0225149 -0.0353151)
(9.72091 -0.389666 0.076218)
(9.98473 0.0156527 0.0139261)
(9.93283 0.0249096 0.00706913)
(11.883 1.81792 0.605959)
(10.0956 0.239537 0.109845)
(9.97997 0.0853805 -0.0140071)
(10.0793 0.00753129 -0.000313993)
(12.5708 0.508251 0.146755)
(11.8303 0.990989 -0.0812923)
(9.98507 -0.0258812 -0.0116182)
(10.2862 0.341006 -0.0873489)
(-4.73863 -2.39965 -0.67196)
(2.4578 -1.61378 -1.8797)
(10.6089 0.309802 -0.207698)
(9.95374 0.00442625 0.0118188)
(10.3071 -0.19204 0.184481)
(10.7955 -0.147438 -0.683396)
(9.90955 0.0226857 -0.047484)
(9.9052 0.0345539 -0.0485354)
(10.0223 -0.00183529 -0.0166363)
(10.2705 0.187135 -0.0233727)
(9.98069 -0.00829758 0.00648743)
(10.6703 0.166999 0.246885)
(10.032 -0.010334 0.0405252)
(12.6859 1.01968 -0.618837)
(10.2816 1.53264 -0.99773)
(10.5633 0.274606 -0.139155)
(12.7308 1.19723 -0.920899)
(10.1512 0.0626052 -0.0704418)
(9.99889 -0.0255715 -0.0777352)
(10.5844 0.599813 0.15207)
(10.203 -0.0433074 0.0341203)
(9.9937 -0.0033335 -0.0204106)
(10.0162 0.00544136 -0.0014675)
(10.6907 0.802384 -0.425608)
(7.94636 -0.70018 -1.23543)
(10.0243 0.00470448 0.0264787)
(10.674 0.245042 0.0853605)
(9.99198 0.0692493 0.0341384)
(12.5723 -5.44993 -1.6018)
(10.6505 -0.694411 0.968765)
(11.4089 -0.266062 0.691991)
(6.15331 1.38105 0.374949)
(6.03337 1.36996 0.235143)
(10.0456 -0.044666 0.000373321)
(9.88803 0.087468 0.0254546)
(5.17823 1.19677 -0.163262)
(10.0569 -0.00628513 -0.0100316)
(9.82197 -1.7239 -3.18645)
(7.22538 0.419047 1.5087)
(9.98584 -0.000172797 -0.00503109)
(9.86328 1.54397 0.845358)
(10.0395 -0.0903716 0.00439783)
(10.007 0.0293458 0.0107925)
(10.0311 -0.00918479 0.0141692)
(12.8442 0.388085 -0.0997146)
(9.97609 0.00901917 -0.00718688)
(9.98511 0.00258444 -0.00188334)
(10.0145 -0.0142211 0.00376667)
(9.93534 -0.00900351 -0.0634228)
(10.0201 0.0221559 0.0030934)
(10.0515 -0.0232656 0.00258463)
(10.0094 -0.0318531 0.0604304)
(10.0275 0.0358954 -0.026738)
(11.2087 0.753525 0.565515)
(10.2905 1.19045 -3.40332)
(13.5606 2.96928 1.12582)
(10.737 0.343238 0.0270761)
(9.87024 1.20685 1.41875)
(9.99195 0.0046729 -0.026285)
(9.44869 -0.888047 0.166263)
(10.1222 0.0235119 0.011783)
(10.0003 -0.0108567 -0.0029665)
(10.0051 -0.00340335 -0.00650786)
(10.0007 -0.00116948 -0.00738648)
(9.9913 0.0102566 0.0176981)
(9.0849 0.282028 -0.831165)
(11.4743 0.426221 0.244231)
(9.98325 0.00914847 -0.00205434)
(10.2276 -0.455005 0.161806)
(11.7217 1.21232 1.85374)
(10.0276 -0.00857844 -0.01129)
(5.09305 -0.998817 2.68828)
(12.8001 -1.00508 -2.63352)
(9.92002 0.0394533 0.00196594)
(9.48632 -0.530311 0.0886287)
(10.4679 0.0265849 -0.0210074)
(10.0415 -0.0129895 -0.0322048)
(5.58811 0.659378 2.17664)
(9.96981 -0.00263885 0.0143957)
(8.87111 -4.47261 1.11336)
(10.103 0.012161 0.0165179)
(11.3861 -0.395479 0.908577)
(11.785 0.525265 -0.0438996)
(10.0088 -0.0227674 -0.0313576)
(9.97746 0.0732515 0.00209075)
(10.2917 0.465364 0.0404358)
(8.51237 -0.536703 -2.10795)
(9.9608 -0.0521433 0.0270429)
(10.0092 0.00148364 0.0447701)
(10.1363 0.00106591 0.0218406)
(11.758 -0.0449164 0.610732)
(10.0014 0.00284684 0.00163355)
(11.9847 0.56786 0.259106)
(10.2461 -0.0149746 0.0032505)
(1.9986 0.072396 0.873759)
(11.7307 0.461135 0.0529862)
(10.1883 -0.00712022 0.0112701)
(11.8216 0.514597 0.171899)
(10.0037 -0.00478329 -0.00142454)
(10.1052 -0.031464 -0.0330995)
(10.5117 0.317446 0.00851543)
(10.2359 -0.0226354 0.012572)
(12.0055 0.624567 0.0906829)
(9.99479 -0.0202842 0.0163392)
(9.99512 -0.221139 0.0596604)
(11.8672 0.543883 0.00750377)
(10.0095 0.00256362 -0.000963788)
(10.2619 -0.0337027 0.00443547)
(10.0037 -0.00274476 0.00115492)
(10.0317 0.0132097 0.00565309)
(6.82577 0.367712 -4.86657)
(6.63851 -0.132948 -5.41735)
(9.94265 0.0496674 0.419644)
(8.72703 0.34119 -3.95467)
(10.0159 0.00288824 0.00913696)
(9.97773 -0.00802102 0.00135327)
(10.6736 0.602195 -0.226456)
(10.2604 -0.117651 0.0423849)
(9.52841 0.0922244 0.625672)
(10.0232 0.00754669 0.00694266)
(10.0252 0.0290344 -0.031422)
(9.9628 -0.0291148 0.0518758)
(9.95299 0.0767239 -0.0368343)
(5.235 0.178955 -6.0469)
(2.49874 -1.84808 -0.444142)
(9.97713 -0.0165921 0.0340404)
(10.0229 0.0797327 0.0158192)
(9.92284 -0.0475088 -0.0149849)
(9.93506 0.0176708 -0.0179211)
(10.1043 -0.0885827 0.0184819)
(9.98679 -0.012692 0.017112)
(11.0038 -0.164398 0.1276)
(11.5151 -1.45248 2.17378)
(10.0547 -0.0191435 0.00327814)
(10.0565 0.000271797 -0.0242237)
(9.96663 -0.0148388 0.0401593)
(10.0063 0.00562288 0.0312438)
(9.82135 0.187739 0.0238616)
(9.95868 -0.0253005 0.0360516)
(10.4531 -0.169353 0.0223586)
(9.97531 -0.00441251 -0.0478025)
(10.0283 -0.0550704 -0.0342819)
(10.0675 -0.01822 0.0216062)
(9.2097 -0.808025 -1.11379)
(5.11385 0.690685 -4.50803)
(9.97511 -0.0452928 0.00671741)
(-0.481406 -1.68006 0.914927)
(10.0518 -2.65817 1.40771)
(12.7688 -1.38254 -0.937123)
(-0.266384 -1.76982 0.639461)
(10.1175 0.0375934 0.0143618)
(7.0971 -0.230274 0.286107)
(10.3349 -0.476624 -2.40379)
(11.0377 -1.28731 0.440445)
(5.63948 0.282925 -3.52595)
(-0.492792 1.84161 1.96205)
(1.41518 0.510258 -3.19307)
(11.2861 -0.0217684 0.434404)
(10.59 -0.0532229 -0.00501542)
(10.8581 -0.0163375 0.944473)
(9.97495 -0.000263997 -0.0427207)
(3.81014 -0.263439 -0.0466806)
(10.6304 -0.0228599 -0.322799)
(10.5058 -0.020939 0.0165237)
(10.0056 0.00837257 0.00282004)
(10.0381 -0.0168768 0.00186542)
(11.2272 -0.314826 0.90031)
(9.88709 0.12781 0.0237091)
(10.0873 -0.000762736 0.0363312)
(9.99007 0.0474636 -0.0149346)
(-2.30503 1.0434 0.572902)
(8.0984 0.283981 -2.30296)
(10.0458 0.00572917 -0.0198209)
(9.98701 -0.00654512 0.00231101)
(5.07015 0.274085 -2.13698)
(5.93007 0.137335 -2.81273)
(10.8523 0.0958965 -2.08757)
(-3.33095 -3.91734 -1.27873)
(3.46593 1.14904 0.754882)
(4.14502 0.0246722 -3.60151)
(3.85702 -0.0513972 -4.47559)
(10.0124 -0.00102385 0.0031675)
(9.76963 -0.0109696 -0.0050006)
(9.48582 -0.0241101 0.140935)
(9.97964 -0.0542669 0.036813)
(10.421 0.0452667 -0.0565811)
(-0.568206 1.86881 1.13808)
(10.753 -0.107676 -0.251937)
(10.454 0.0354021 -0.0536507)
(10.397 0.0360581 -0.0441238)
(10.0711 -0.00230692 0.0448307)
(-0.387957 1.82961 2.0695)
(-0.289114 2.10496 2.08111)
(10.0035 -0.0188347 -0.0225369)
(10.4328 -0.00948147 -0.0435586)
(9.93977 0.056004 0.0505731)
(9.95522 0.00571907 -0.0135103)
(10.4132 0.0116928 -0.031474)
(9.99349 0.0206658 -0.00595534)
(9.66827 -0.045921 0.0124212)
(10.0496 0.0219256 -0.0500741)
(9.95263 -0.0124035 0.00836159)
(6.82609 -0.670866 -2.91083)
(9.97823 0.00348932 -0.0166824)
(9.97544 0.0366971 0.0469433)
(10.0409 -0.0799804 -0.00767932)
(9.92488 0.0474386 -0.0222956)
(9.95333 0.014032 -0.0294905)
(4.16178 -0.50584 -2.15416)
(12.428 -1.30301 -0.201908)
(10.0217 -0.0301874 -0.0302759)
(10.5908 0.403385 -0.1972)
(10.068 -0.00225018 -0.0172933)
(9.81526 -0.355754 0.158215)
(9.77464 -0.4255 0.24724)
(11.892 -0.0685826 -0.0465848)
(9.98865 -0.0173309 0.00245173)
(-0.673585 -1.16393 2.8382)
(11.9882 -0.128247 -0.0584179)
(10.4016 0.0866102 0.0140014)
(10.6831 0.263882 -0.0329808)
(8.0823 0.320396 -3.20887)
(12.9696 2.29011 0.867717)
(10.0343 -0.0388186 -0.00697326)
(10.0399 -0.0354404 -0.00759551)
(12.0783 1.40877 1.9732)
(10.0686 0.0134555 -0.0323596)
(10.0134 0.02629 -0.0112178)
(11.1957 0.421168 0.366777)
(10.0217 -0.0428961 -0.00820752)
(9.98377 -0.000632588 0.00251265)
(-0.462908 0.00381604 2.86336)
(12.4145 -0.0479046 0.308503)
(12.1512 2.97836 0.196953)
(10.0029 0.000857752 0.00518317)
(7.62883 0.527156 -2.45282)
(9.93948 -0.00586768 -0.030888)
(11.6876 -0.63028 -0.194034)
(9.62482 -0.412517 0.349491)
(11.9381 -0.0799502 -0.0207459)
(10.0273 -0.00636772 -0.0118762)
(9.4356 -0.437203 0.312782)
(0.177559 0.779328 3.17153)
(12.1376 1.51075 2.43347)
(12.1448 -0.380469 -0.788561)
(-1.1839 1.87412 2.29238)
(11.8688 0.358913 0.11494)
(10.3376 0.140665 0.0651574)
(9.91547 0.0228684 -0.0181777)
(11.9395 0.553022 -0.168234)
(10.0075 -0.0414124 -0.00229275)
(12.0603 -0.0827766 0.134549)
(-0.238197 -1.01196 1.89942)
(10.0136 -0.0428357 0.00640854)
(12.4454 0.0304101 -1.17381)
(10.0432 -0.00102453 0.00999877)
(10.047 0.00503992 0.02218)
(11.3055 -1.98027 1.25277)
(10.0718 0.000319664 0.0408857)
(10.0646 0.0387949 -0.0802738)
(8.29999 -5.81611 0.363852)
(9.60879 0.400498 0.0719399)
(10.0285 -0.223598 0.0530177)
(12.359 -0.838339 0.259564)
(10.4255 1.33342 1.49862)
(10.0995 -0.0317746 0.0625925)
(11.857 -2.32881 -0.554568)
(5.28025 -0.800467 0.104925)
(10.5249 0.0397716 0.0761475)
(9.56142 -0.698311 -0.758198)
(9.99585 0.053138 -0.0122646)
(10.3003 0.138332 0.017673)
(10.0762 -0.0179674 0.0605391)
(10.0333 -0.0184556 0.0162749)
(3.27097 2.1155 -1.8819)
(0.946937 -2.84462 1.72067)
(12.1449 -0.1251 -0.296991)
(9.87676 -1.57951 -0.219677)
(11.9066 -1.78762 -0.0770478)
(2.30735 5.29756 0.706335)
(-1.83959 0.379272 -0.406941)
(9.96038 -3.51986 4.37662)
(10.0064 -0.0122977 -0.00575413)
(10.0077 0.0130789 -0.005542)
(9.98757 0.00469789 -0.00216774)
(9.92858 -0.0899786 -0.105866)
(6.40055 0.624644 -2.50297)
(9.72006 -0.535957 0.236008)
(9.10428 -0.558274 1.22981)
(9.98653 0.0144204 -0.00433032)
(-1.36138 -1.29236 0.646962)
(12.0104 -0.0796073 0.0099875)
(9.84096 0.20151 -0.0763995)
(10.0115 0.0262794 -0.0042265)
(10.0065 -0.0375562 0.0278213)
(10.0154 0.0501547 -0.00417611)
(6.20637 -1.82544 -2.93693)
(10.0059 0.00127285 -0.00322055)
(6.44878 5.77687 0.134759)
(10.0171 -0.0673049 0.0023365)
(10.0448 -0.569143 -2.9094)
(9.99015 -0.00332155 -0.00118836)
(10.0053 -0.00832308 -0.00414251)
(10.0256 -0.00759141 0.0174099)
(10.0541 0.00605762 0.00452016)
(9.98683 -0.0128858 0.000981201)
(12.869 0.687565 0.0393686)
(12.2951 0.136406 0.549376)
(9.18125 1.32837 2.57471)
(7.26302 3.99532 2.67539)
(9.44576 1.0418 0.565657)
(10.2834 0.505003 -0.0655756)
(11.2122 0.878091 0.0990473)
(6.47352 -0.339821 -2.70521)
(10.4225 -0.120566 0.0482782)
(11.5098 0.0188512 -0.103373)
(10.2705 -0.656327 0.131307)
(11.8231 0.0309266 -0.042121)
(8.52199 -0.0103369 4.84646)
(5.81132 -0.857909 0.513888)
(10.4349 -0.26132 0.191055)
(9.99909 -0.00583704 0.00524553)
(9.56668 0.885003 -0.229563)
(10.0137 -0.00503744 0.00689684)
(10.1011 0.00895058 0.0111816)
(13.9622 -2.18226 2.29203)
(12.0222 -0.723547 0.709223)
(-1.33415 3.11477 0.683611)
(10.1599 -0.808716 0.29268)
(11.6962 -0.92684 -0.248051)
(10.3136 -1.0646 -0.998507)
(12.0319 0.100419 0.651943)
(10.1558 -0.0245731 0.000936021)
(-2.97672 -2.41683 1.03998)
(9.99993 0.00449743 -0.0129309)
(10.0398 0.0101779 7.21367e-05)
(10.4828 -0.0418128 0.534742)
(10.1675 0.0216657 5.16287)
(10.17 -0.00852387 0.00370448)
(10.1338 0.545687 -0.338722)
(9.99009 0.0183533 0.0349404)
(10.6579 -1.14039 0.633958)
(10.7791 0.0453946 0.871177)
(9.96585 -0.0239825 0.00883876)
(10.8427 -0.424341 -2.84539)
(10.4188 -0.0166389 -2.83137)
(12.8349 0.325562 1.11378)
(10.4318 0.498461 -0.114653)
(9.65734 0.0655314 0.335416)
(3.11432 0.845314 -3.43036)
(0.659356 1.82711 3.63246)
(5.41648 3.15346 0.934087)
(12.805 -0.849325 -2.50375)
(5.51424 -0.439108 -0.0763968)
(9.88502 -0.0106298 -0.130025)
(9.91168 -0.0503719 0.0106443)
(8.56429 1.56669 2.91268)
(9.95192 -0.0182772 0.0445567)
(4.50566 -0.741589 0.0524773)
(9.90528 -0.0236312 -0.0853178)
(9.90378 -0.0148449 -0.106355)
(-1.14741 0.865567 -0.378056)
(9.6907 -1.18804 0.958064)
(10.8648 -0.331391 0.154141)
(9.99888 0.016263 0.0335364)
(9.95492 0.0303393 0.0339895)
(8.23125 0.31075 -2.64442)
(10.0154 0.0442344 0.0437799)
(9.97239 -0.0128236 -0.0215214)
(10.1543 0.755763 1.01878)
(12.0563 -0.74608 -2.62335)
(10.2768 0.287538 0.122062)
(9.88871 0.126189 0.0135936)
(9.90364 -0.0995432 0.0125021)
(9.99171 -0.003917 -0.00262589)
(9.93047 -0.0215643 -0.0240365)