/*--------------------------------*- C++ -*----------------------------------*\
| =========                 |                                                 |
| \\      /  F ield         | OpenFOAM: The Open Source CFD Toolbox           |
|  \\    /   O peration     | Version:  2506                                  |
|   \\  /    A nd           | Website:  www.openfoam.com                      |
|    \\/     M anipulation  |                                                 |
\*---------------------------------------------------------------------------*/
FoamFile
{
    version     2.0;
    format      ascii;
    arch        "LSB;label=32;scalar=64";
    class       volScalarField;
    location    "0.0563527";
    object      omega;
}
// * * * * * * * * * * * * * * * * * * * * * * * * * * * * * * * * * * * * * //

dimensions      [0 0 -1 0 0 0 0];

internalField   nonuniform List<scalar> 
3989
(
49.3941
44.6361
45.788
46.7379
44.2928
45.5806
47.7449
45.1547
67.5608
65.5703
144.995
77.6013
123.755
49.3523
61.5172
44.9088
49.4037
65.2313
46.9416
44.998
78.8885
60.2975
52.5047
49.949
45.9853
62.6064
78.8529
48.545
58.2047
49.1901
70.9563
71.462
52.5065
49.3288
151.582
72.3707
48.7563
47.015
73.862
48.5375
56.8411
47.9252
77.0223
61.8693
87.0693
48.4406
47.2234
93.3126
49.3225
93.5026
44.7646
49.4543
60.6092
49.2833
46.9509
48.3492
47.2309
78.7143
135.535
82.4215
80.1002
179.76
182.76
622.429
44.9866
50.3438
66.0352
45.6203
61.0462
78.8248
129.129
51.1168
46.3761
46.7082
53.1213
47.5608
47.6318
63.0995
48.3426
48.8331
49.5587
93.407
67.5719
44.8547
44.3693
200.232
44.3145
72.5505
45.463
63.5031
44.9181
73.7793
82.8565
52.8023
48.7544
47.0604
48.6914
62.3034
46.7867
80.7598
65.5422
83.9814
75.8101
132.705
69.3605
49.3502
59.8747
66.6485
63.537
121.418
62.2233
46.3681
47.8726
48.0051
47.3192
49.818
48.416
72.5227
76.9248
100.902
53.431
49.3451
47.4226
48.4582
48.4463
45.5687
46.6196
45.0413
85.3199
67.2845
98.115
132.906
93.5749
113.73
112.841
109.676
47.4252
58.214
63.4995
65.1127
75.5234
59.1958
87.4019
49.2337
48.6642
143.065
45.9769
92.1189
66.042
59.6156
44.6498
72.0448
71.8531
73.1121
170.1
166.562
44.2862
54.8413
61.1437
127.943
49.4171
45.2027
67.1504
96.5896
96.4907
45.6401
45.2335
83.7007
46.1032
86.6584
51.0386
47.8263
101.203
53.0773
77.1377
51.8741
47.2979
47.588
139.255
53.7007
83.0727
44.4801
72.6449
44.7664
100.019
80.2015
52.3849
82.0184
66.1178
49.5561
48.4998
51.6837
90.7412
199.814
44.8454
203.934
766.534
45.3677
52.3241
44.0636
89.9919
76.0316
150.101
83.8676
148.416
62.3946
47.6695
64.244
57.4157
59.2416
56.2644
71.1941
66.9114
56.3502
57.8589
574.278
65.947
92.8697
85.3823
46.8572
46.089
47.7654
48.1108
50.3728
96.9096
67.8443
54.318
48.4926
81.9455
46.0979
90.2912
120.748
74.3206
56.3237
48.5683
203.934
104.488
68.9156
46.7897
53.6005
45.5776
48.6132
63.4561
134.643
133.155
44.7374
131.228
106.048
62.188
65.0076
131.227
44.6387
80.2628
58.4323
85.6805
47.8113
95.2461
79.568
46.4311
44.9203
54.2312
47.0547
71.631
46.9976
81.4391
110.123
44.9484
59.0048
92.105
100.419
102
105.895
106.079
50.4081
105.228
82.0513
110.823
100.03
53.684
205.387
64.0107
60.4392
145.201
60.5952
48.7503
51.3012
61.4801
137.023
171.7
181.663
107.58
107.396
109.717
57.6355
79.6174
46.5383
46.4382
75.2905
107.147
68.4979
54.3942
158.588
156.246
51.8977
156.804
57.166
51.2974
81.1371
55.642
49.1073
45.8666
43.5435
65.7969
90.135
61.7988
107.571
44.0277
72.7454
47.5842
50.4206
106.029
56.6056
63.1641
46.4597
72.8485
55.6552
83.2084
77.348
124.578
51.2466
44.2728
45.8629
46.6565
49.1103
44.1606
52.8384
60.5319
54.5071
99.8168
67.1202
65.0405
86.0495
76.0689
80.7667
43.7337
49.3512
185.417
49.8489
45.8645
52.814
104.237
51.1826
50.5542
54.5012
48.1184
81.6829
105.862
86.2862
714.071
59.9404
65.3594
107.169
45.665
262.713
73.278
81.1824
73.541
94.7974
47.5632
63.9808
90.3081
55.4247
129.695
44.7877
63.1481
44.3426
54.683
44.8017
84.2108
58.6587
112.831
63.6804
57.415
91.6649
137.379
127.797
84.8342
170.326
71.6237
103.059
46.3569
144.369
48.2499
103.579
99.1678
45.3932
48.1621
127.983
50.662
58.1109
52.2781
68.422
68.3207
112.119
59.3161
52.5362
46.6105
108.666
75.6197
53.6474
47.0473
67.6057
45.4431
547.907
85.4286
87.2664
45.6567
44.4418
51.3607
95.9152
404.591
87.6892
88.3257
845.095
46.0551
47.122
46.3515
106.54
55.0084
46.6703
56.5908
92.0537
46.1879
47.6234
181.336
47.7888
49.0446
91.5378
46.0291
45.5518
48.3279
46.4532
47.1967
104.678
48.5102
44.6437
60.9097
60.5803
171.477
48.3942
55.3668
75.4459
82.4884
47.0651
51.8762
54.2503
123.23
93.6715
43.8961
45.5942
60.2732
59.7946
152.997
100.199
152.802
73.7497
88.1065
91.3699
184.327
57.3925
119.108
182.268
65.8881
148.443
56.2655
80.9248
87.9957
123.778
122.287
108.908
160.407
74.5665
60.0846
87.302
43.9235
49.4743
100.242
160.568
86.1105
45.3233
112.137
44.8639
67.415
45.6194
46.1696
59.7647
56.9217
52.8027
45.7392
67.1248
44.9032
63.139
58.1747
57.0652
65.2759
105.389
103.47
64.5093
74.3735
71.4121
47.3972
110.221
104.257
56.0571
92.3128
100.261
81.6302
49.6174
86.3532
50.2722
53.2094
70.653
87.7222
45.2895
125.721
45.1859
44.0342
77.4516
52.7536
43.6917
48.9824
49.6461
105.088
46.4637
55.8205
94.7367
48.9401
71.5761
104.843
61.4256
47.0188
61.2632
77.9255
1390.73
990.348
46.2539
45.072
46.8313
71.1982
44.9508
45.75
51.6653
106.444
130.366
87.957
65.9088
75.1364
81.76
44.9753
48.0872
108.526
137.627
60.9866
45.3756
49.3829
44.7262
45.9138
52.352
73.8499
48.7704
50.6761
44.0075
45.9488
81.5561
44.2911
71.2774
43.7544
51.2311
44.8617
46.6948
52.4855
62.4752
49.0599
52.8873
45.2128
45.2643
68.0292
54.49
44.1349
45.3655
55.3087
44.6957
47.4825
946.884
437.555
112.489
49.3154
70.7614
79.5073
84.6134
47.1081
44.421
56.7618
59.1649
47.1609
47.9681
48.6119
47.4311
65.6951
49.3138
77.8682
98.1538
49.0199
43.4535
59.2392
47.7398
78.6276
83.4078
48.6289
111.863
75.5667
47.2353
63.4611
67.7994
44.4369
100.893
46.0497
45.9836
50.28
91.8024
44.7137
47.2036
47.755
46.2534
49.3074
47.5642
49.188
65.4799
48.2129
49.8157
68.3927
49.6042
55.1173
45.4067
45.2389
53.469
48.1027
48.4181
108.848
46.1848
69.2555
54.2583
62.9034
48.4123
93.1757
48.0874
49.3508
45.0557
79.2466
65.5765
76.5361
97.6209
57.4779
44.6763
51.1486
59.0104
74.7545
51.9971
135.34
47.324
45.6786
45.5311
132.222
64.3442
46.599
58.2909
109.454
78.6681
140.864
56.0332
71.0224
44.3363
44.6175
44.5301
44.5649
44.8629
48.4953
82.6241
45.1382
45.1341
44.6266
46.0993
44.8968
88.3322
61.0875
46.2938
74.9577
47.3901
66.5414
52.6144
154.913
44.0945
151.151
43.5082
66.4804
84.5865
53.7934
109.859
49.871
90.3387
48.5334
111.578
45.1957
44.5128
46.7157
138.49
49.3398
55.0578
140.479
47.2402
110.503
57.5425
84.7537
79.3457
68.676
80.7679
48.5035
44.348
45.7653
47.3438
112.185
46.5946
46.2355
47.2654
44.5108
44.6832
70.3184
85.9664
44.7259
50.967
45.0339
46.1584
95.1724
45.4718
163.5
46.1892
69.408
133.435
64.5587
45.8756
95.6878
79.0242
62.6317
60.9201
200.394
496.569
800.942
61.5476
46.0787
48.5948
44.598
45.3565
48.4301
48.5614
48.0802
49.3511
53.7989
71.1117
108.821
48.9339
46.6713
75.0252
55.9877
98.742
53.8045
148.732
45.0658
50.4242
96.3004
49.9829
45.0285
65.3006
47.3718
54.584
81.7333
45.0772
55.4903
64.3343
57.1238
47.3374
50.9558
49.0833
64.2356
45.5705
44.2128
43.9022
64.4519
44.2608
109.099
45.2814
79.8971
81.25
78.2393
77.4447
47.9348
45.1008
45.2424
45.9464
65.2884
64.9957
52.9164
53.2088
43.9176
47.5655
79.6018
56.8515
60.7665
56.3932
60.9734
44.985
48.2395
76.47
65.9892
48.7546
124.012
54.1392
88.6216
45.994
54.8438
78.2739
50.9176
110.61
47.2733
51.2451
62.2644
44.4034
60.0588
51.3028
44.1047
58.2969
44.8304
46.5953
89.3235
58.4324
45.2507
46.1221
58.775
106.62
62.1508
48.6005
47.7805
47.0675
54.1951
54.6153
82.3807
55.5701
43.8483
48.3762
51.9657
46.0634
65.0835
51.5632
45.1747
43.8606
81.3358
55.6785
44.2615
274.279
97.6272
44.1792
44.8081
88.8302
92.4882
66.9018
91.6884
44.3899
87.4138
52.0139
57.9805
45.7313
45.8636
366.976
45.3439
46.5721
119.133
55.8966
45.7687
65.4703
68.9043
55.5742
56.0754
53.2862
55.9842
55.0635
90.7806
88.0407
47.1887
50.3316
81.9103
55.1883
100.304
45.8202
73.2335
52.2177
50.8433
60.7926
552.517
157.975
457.408
688.816
192.925
51.8233
46.9453
48.8727
947.263
455.229
45.2128
56.0587
49.7722
747.684
61.7545
72.487
44.4794
66.361
45.2956
70.0751
45.5384
50.6555
53.147
44.8894
94.73
52.1027
53.3137
44.8464
47.1227
70.5968
51.9172
57.3849
48.0278
50.4625
975.163
357.262
119.483
54.1624
48.5842
93.8087
53.3709
55.2798
46.3394
49.3565
100.9
57.4348
44.88
47.0766
59.429
46.3472
84.0697
80.3601
73.0548
56.9589
46.4716
54.2321
83.0954
45.6507
44.1202
45.44
46.1984
67.0085
106.089
49.2735
52.7808
65.6271
47.3473
48.2097
49.2012
63.8728
45.6056
49.3868
49.7608
53.436
52.1068
44.0907
48.9947
52.8515
66.948
95.3497
68.7531
50.8223
49.9185
52.9156
46.0957
61.8298
46.2544
44.845
52.1413
47.8454
53.1532
51.5747
49.3134
50.6556
45.0181
48.0414
44.2363
55.5533
94.8524
49.9667
48.9041
68.4101
44.4744
55.3967
48.0852
44.6895
48.5618
46.5729
58.8084
72.9979
72.3723
57.3732
99.672
51.4918
54.0251
70.2302
58.0134
53.563
53.0369
47.0538
61.5115
44.2978
44.9796
44.8722
44.8189
61.7828
45.5256
53.2443
48.5193
46.9406
53.386
54.0747
61.2466
56.2834
53.386
44.7926
45.8776
45.6767
45.904
49.0604
49.114
50.3735
48.7211
45.419
47.9253
46.1378
48.7585
43.9688
49.5386
49.7578
54.6666
56.1812
59.6642
64.598
141.618
139.117
46.7216
46.5594
44.6165
97.7733
45.0748
44.9004
50.4215
50.5754
44.7456
44.7372
46.0113
54.1188
58.7138
47.5967
50.3392
51.4167
112.247
121.366
87.5042
81.499
131.471
53.6964
44.8314
44.3828
44.1403
46.6243
55.7016
53.6289
54.7554
52.1049
63.8726
90.0226
89.2016
86.0549
45.3129
45.2863
45.136
57.5183
48.4175
59.3688
64.829
944.344
52.0921
44.705
47.9404
46.7731
52.6312
45.2179
53.0803
80.6097
98.4339
53.0869
65.5604
44.1522
45.8142
67.4186
52.5326
51.6364
54.0787
104.922
116.373
53.6366
49.2421
63.1086
44.6379
87.1095
108.838
101.187
54.77
47.7198
59.2294
47.8095
97.3127
78.1152
78.5414
46.657
46.2339
50.5782
50.944
93.1143
47.8898
105.767
107.63
45.0396
45.1875
48.8456
54.6503
45.5069
49.3034
44.9823
68.4602
45.1469
48.4485
44.6948
47.7071
44.1242
51.9237
46.0094
53.0955
49.2108
47.6433
52.3169
76.2132
44.9112
45.8142
52.28
68.7254
54.2978
45.0444
61.4177
58.26
62.5624
46.2466
44.6621
44.9242
47.7299
48.1238
62.5837
67.6224
53.3861
62.1357
45.7743
46.107
74.0618
63.2425
44.9603
48.4732
58.1301
74.7158
45.8697
63.8149
47.819
50.1569
52.241
49.5663
47.3757
63.045
66.4267
49.217
53.6052
59.7103
45.9185
68.8882
94.6054
55.671
45.5256
88.377
49.1985
70.4796
77.1923
55.8993
48.7755
48.8784
62.8348
62.6261
49.6343
48.2558
72.156
45.3294
44.7792
47.6265
45.1388
47.4719
46.4819
56.574
47.9585
58.2649
79.464
47.6711
58.8549
53.1404
52.2904
56.1697
46.0063
52.6121
47.5102
46.4901
47.2954
47.3776
48.8386
48.2696
72.3373
44.9726
114.9
75.5709
71.1004
53.1732
91.3977
109.679
47.8463
49.1979
102.328
97.9006
78.0728
46.4813
49.212
114.566
113.102
109.647
69.8881
95.2804
67.866
97.5933
55.783
48.7855
81.3444
46.8313
67.3126
46.1641
45.1217
88.1109
106.058
52.0077
57.1527
49.2815
48.559
71.1498
45.3888
65.4993
49.3181
69.7642
67.8243
78.1501
87.9705
84.2605
70.4274
66.0328
50.497
105.894
45.4654
49.1962
45.454
48.5235
49.2971
77.0529
45.5127
48.1968
60.6432
46.6068
48.5125
105.829
60.0919
45.6113
81.3827
82.1347
92.6728
52.3026
44.5624
61.7754
55.2767
61.8281
71.7708
48.8659
45.6153
50.9222
47.4358
77.4189
51.6057
67.6247
98.283
65.3908
48.6072
45.6764
48.5597
110.472
98.0124
101.799
81.2653
48.3994
75.83
105.164
90.5077
76.9373
44.6369
53.9551
73.3178
46.8599
49.4852
52.2072
55.0718
56.0046
111.361
105.808
331.966
88.0678
111.146
680.285
49.0218
55.9957
60.8313
50.154
63.905
45.109
64.1095
46.5058
53.0172
53.2751
105.717
50.0575
47.362
45.7208
45.9977
99.3079
68.9725
46.8082
49.6011
47.3193
48.5565
49.3436
46.0111
141.813
45.4902
47.5415
44.4575
50.134
51.5958
49.8746
48.7663
60.329
48.8071
44.2979
44.2568
44.5323
49.5583
76.4035
72.0002
68.2776
47.1485
55.7909
60.8115
50.0394
52.29
71.4646
44.3779
44.7099
44.528
57.1826
44.8756
49.2204
44.5003
49.2069
48.8413
46.0958
45.2096
44.6174
47.7524
47.7885
45.2112
44.8428
75.394
49.9756
52.9665
45.1182
44.8524
45.0915
50.8069
45.9876
44.6544
73.7844
85.7309
71.1407
45.1276
80.732
46.2015
75.1459
54.9779
69.0967
58.4931
44.5209
44.6618
759.789
598.633
756.213
569.729
981.049
165.935
46.445
59.1207
71.98
44.955
44.5515
49.1361
56.0957
49.2721
72.2861
114.328
65.2631
97.0497
53.0248
48.2503
55.0915
50.7563
173.961
48.709
74.1131
104.389
45.0577
51.1119
44.456
45.4051
43.6642
105.381
83.3651
73.9028
58.5052
44.3416
56.6469
70.0781
64.5973
52.4861
83.7419
114.472
59.1649
57.9179
44.9779
73.2848
104.026
69.335
88.679
101.585
58.6577
49.3653
80.6865
49.444
230.796
46.5706
43.603
65.63
73.4183
52.6183
95.8423
46.0544
54.6237
47.5521
45.5488
123.684
61.272
47.7958
83.9164
96.7482
83.8739
45.2786
138.667
53.7098
100.676
52.4558
50.4137
149.015
47.5557
275.57
274.901
45.8479
49.3503
45.5384
44.3984
44.6499
59.8833
48.3651
53.2939
64.2134
108.171
48.9884
50.0596
50.2473
61.574
66.6026
53.3959
65.0702
152.776
44.0731
54.0624
102.019
98.6963
74.4311
75.6678
86.1522
65.4484
88.1439
44.314
79.3472
53.3448
105.382
52.0915
63.3921
127.554
91.2761
53.1269
93.0768
47.9433
48.7662
85.9757
82.0214
72.5955
52.9664
53.4415
53.985
78.7925
67.5507
44.9428
52.72
56.716
61.1201
87.0835
243.848
913.122
45.7002
59.2711
930.659
99.3062
59.6192
47.6405
56.0837
44.5682
74.6118
113.158
55.0347
92.4052
44.3482
99.982
54.8795
60.4639
52.6883
82.8049
44.5945
93.7102
105.736
47.8332
62.4537
89.1277
49.6364
48.3087
46.2698
72.2573
79.5645
94.9809
73.9327
131.903
198.826
99.2275
52.9714
65.6989
60.3588
106.696
87.4146
152.521
187.87
191.649
48.1287
50.3508
47.492
73.9928
46.7679
45.5176
49.1097
49.3442
47.8212
133.852
255.218
73.5921
86.7857
53.0721
44.8948
45.9784
45.6771
111.112
46.3955
44.3523
46.885
45.9396
536.968
46.5568
123.836
92.7134
44.2329
45.6646
48.3359
49.3126
55.9264
64.0447
66.2262
44.6428
72.543
70.2952
77.8304
45.6665
81.9284
56.0929
63.6857
66.0712
46.9232
69.3043
64.1015
62.6031
54.3605
48.7328
48.8224
90.0814
65.7221
48.5309
81.7449
70.5491
107.015
84.8003
84.8055
84.4905
85.6259
44.5666
46.3086
45.2424
47.0499
94.332
52.845
116.618
67.8232
68.9924
148.649
44.7526
46.7447
49.919
48.8824
45.5555
44.718
60.1456
87.7516
73.5766
63.7184
70.7585
55.3385
63.0315
65.9507
60.3961
113.542
112.064
66.6657
81.123
44.9718
106.657
71.9173
107.396
77.8521
62.1437
59.5014
56.1894
108
92.03
83.61
83.2494
48.1631
45.858
46.3629
63.9909
49.3912
49.3999
49.4035
48.5364
48.9609
48.6902
49.348
48.6334
49.3007
49.4688
49.3354
49.3256
73.9684
124.932
122.772
76.9887
79.5152
151.649
61.9057
44.2569
54.0082
46.373
97.085
100.346
48.6805
56.3073
51.4343
47.967
49.7187
49.458
49.7394
45.9989
45.035
47.7836
54.7093
83.7237
49.2003
52.0884
50.0566
47.2033
52.3671
48.535
48.4225
46.0082
45.5481
45.3473
82.4517
54.1944
51.3399
46.5943
78.376
50.2314
64.6438
63.6349
60.5104
69.2528
79.9417
45.1516
60.435
48.707
49.4185
52.2902
51.5414
50.2973
45.1345
49.5926
52.3817
47.7991
46.7107
66.7351
127.753
59.0107
44.8123
50.7671
52.6767
77.6886
53.0952
47.5423
46.2476
45.508
45.4933
46.6291
45.482
47.7443
63.0935
45.4235
68.9224
46.8306
51.4586
48.088
72.0415
45.1027
68.6771
48.4891
47.4588
48.0725
48.6181
47.9962
47.3054
45.512
46.269
45.3705
47.7245
45.7017
46.4625
46.4696
46.8783
96.7272
114.463
52.6352
64.1508
52.2149
86.2041
47.3101
45.1921
46.2589
45.028
59.6191
47.3096
46.3688
47.935
100.102
44.2939
44.1111
44.2939
63.6794
84.7089
128.284
47.1293
44.3012
44.9001
72.2311
52.4552
80.1304
44.7655
53.8938
84.8134
48.4229
45.2615
101.109
48.4453
46.3104
56.555
45.5004
66.2715
65.2314
92.1535
69.9316
91.1417
63.4969
69.4638
94.0272
47.2791
44.6463
63.4436
46.9324
46.9364
45.4353
45.3954
48.7644
49.1949
47.1508
62.2015
48.5607
47.9153
48.4059
45.9591
46.9485
47.5245
47.0171
55.0531
70.0528
56.4338
44.512
67.2408
99.5879
90.6819
112.882
75.5991
56.8143
46.0388
51.0836
48.3526
47.907
47.0438
49.8327
44.1376
55.8212
56.8721
107.236
115.818
105.782
56.2681
76.9401
81.5415
68.8181
153.387
43.3619
43.3933
43.6498
112.881
49.0714
66.5807
118.112
104.414
139.101
140.598
48.8461
135.56
138.687
104.212
130.516
84.1846
603.389
88.8531
79.3664
74.2318
57.8728
57.1884
112.07
76.5932
47.4186
49.7253
48.8949
49.3312
123.449
49.7017
62.4121
63.6855
128.242
146.609
91.4732
86.8288
53.8806
46.0354
46.1393
70.0953
167.514
123.466
124.535
46.7386
49.9099
82.9441
48.3107
53.5206
74.5265
62.146
63.4452
81.0538
45.1676
54.4655
73.3616
53.5726
44.6355
53.7012
70.7055
53.1835
44.7854
48.0962
70.006
44.5595
136.218
76.2334
93.1118
57.8017
58.3745
94.0642
49.4992
45.1054
68.5341
59.2658
110.103
80.2083
113.103
105.952
63.9167
95.4749
134.784
844.418
54.1357
75.9621
112.663
114.38
44.9277
153.545
112.006
61.0618
48.7092
84.3124
80.2477
98.8341
83.8575
51.8725
119.149
59.1846
118.527
84.4402
99.0975
104.946
89.8009
135.376
122.472
44.4975
43.886
44.8004
44.5323
51.1757
46.7257
115.801
77.7092
44.8538
65.3941
44.8337
46.1271
66.4808
44.2799
44.6047
44.7405
49.3514
145.078
46.0746
46.156
47.3223
45.2276
53.2639
45.0241
63.3628
56.5197
73.1808
110.189
45.3973
99.2157
54.3621
60.0456
150.791
64.7296
468.438
97.5642
44.8038
97.3306
84.2244
45.6938
75.4621
46.68
48.6244
61.3532
46.5009
53.4126
44.8809
45.0166
48.2798
107.35
47.6061
69.2584
59.8348
54.4928
49.6612
119.756
48.7171
48.4071
48.6457
100.724
46.7016
69.8921
45.8348
47.2254
47.6871
95.446
45.8501
44.3401
44.1488
44.1551
44.8736
49.7075
47.3976
44.6841
63.5635
53.6196
82.1859
94.7566
45.7761
47.3448
56.1816
44.173
46.7725
51.4352
44.3042
71.1656
44.021
45.0662
46.0425
58.4309
87.351
44.41
68.4475
45.9951
45.4002
49.3534
44.929
50.4324
44.0226
51.834
47.5946
44.5594
44.6966
46.6674
46.5329
50.7125
57.7794
50.8389
47.8517
48.4275
91.2255
57.9989
46.0255
86.2234
89.4674
68.5461
44.6663
44.977
177.425
47.4137
585.473
48.2101
55.6
54.6963
44.2849
48.8673
50.2443
53.1097
67.5452
116.395
61.997
47.4972
53.8226
76.1344
44.8931
44.1355
47.1593
129.873
50.7749
52.665
55.4772
44.3991
43.7704
47.2382
67.9829
49.7041
44.7031
44.6223
45.0732
60.4299
46.7868
44.5388
80.76
51.0387
78.8126
49.5199
51.6008
44.2408
53.765
45.1137
44.259
66.3721
46.1796
88.6717
46.6333
45.8074
44.6534
48.0602
100.147
121.58
45.2589
44.5686
51.3419
50.8762
46.174
66.7823
80.5238
48.383
45.3892
45.4866
44.7276
47.6514
45.3841
45.8006
46.9988
48.2775
45.0409
130.165
43.7442
44.023
64.1751
46.8586
59.4821
43.9768
47.2398
47.5144
49.5296
67.3572
57.0232
46.9191
70.3808
62.8606
62.3753
945.808
750.965
48.6722
45.2699
49.7113
45.5349
45.5421
46.711
44.5898
55.0379
44.9933
45.4573
44.9291
63.856
45.6464
44.5611
46.9005
47.3067
86.7505
45.9967
220.145
934.172
46.4248
80.1945
68.0527
46.025
858.527
68.5092
464.524
43.8343
48.4974
44.5701
46.2571
108.764
62.9579
85.5277
64.064
93.529
56.2447
52.4146
48.4806
44.8925
130.789
58.7401
53.5076
114.106
111.967
44.3244
44.4981
54.0966
45.8444
51.3663
55.476
48.5405
44.1768
44.581
44.6495
55.6329
44.0764
47.4069
50.3532
78.9027
45.0158
46.0725
54.1475
97.1897
71.0861
45.8277
45.4525
45.3296
68.9231
45.0296
89.0922
104.651
45.6433
44.1099
54.0928
46.712
52.1503
44.7584
44.5919
46.6925
77.8027
48.8103
46.2071
47.978
44.5742
44.7512
64.6354
44.2431
44.7071
46.4532
47.235
45.6298
45.8946
46.8422
47.6032
45.1659
45.1689
45.2813
82.3938
45.2124
46.5748
45.7818
81.2183
92.2428
106.822
60.2043
46.4546
46.3128
49.8592
43.5065
60.2119
44.813
50.5806
52.1131
51.9066
45.9721
51.4555
53.2682
56.1302
46.0615
52.0922
799.754
698.316
49.0209
80.8592
245.685
66.5775
46.4314
51.5255
47.4458
78.8106
55.461
46.9351
88.3679
141.312
44.171
48.4601
45.7018
62.3187
46.3171
47.3364
48.8873
46.3271
45.2644
86.2645
44.1733
48.5445
52.3647
70.4425
52.482
44.6795
45.243
97.3912
47.3522
48.3816
48.3263
77.6623
63.2806
48.6747
45.9889
48.4526
64.7753
59.1459
87.829
69.7231
52.2307
44.8015
44.6102
62.8554
63.509
45.5404
115.416
49.2364
49.6471
48.4709
102.155
88.5174
65.5752
60.3366
46.6281
45.8549
58.3264
50.1064
49.3956
63.778
44.9306
89.8486
45.9185
46.6408
69.2316
69.502
46.3613
44.6644
94.3256
47.9736
44.7315
44.9431
54.7081
85.2552
46.2716
46.9672
49.0452
52.4865
47.9894
63.3615
61.0782
46.8937
48.6114
49.2495
48.3961
47.1672
46.656
48.3491
49.2668
49.6736
99.7488
140.207
100.478
72.0935
44.8224
45.1301
45.315
48.4193
63.8174
104.805
47.7213
49.0222
49.3504
49.2856
49.6671
96.6912
49.4302
200.055
49.4216
43.7892
44.0883
44.0396
56.6741
61.9411
79.3794
49.3577
76.7876
120.28
48.6984
46.5733
47.219
59.104
44.9499
94.9284
44.4938
47.0912
67.4409
45.7293
48.5579
94.8502
45.8888
57.1219
44.9385
64.8015
46.1716
44.741
46.1394
45.2139
45.91
46.6374
49.8879
45.3701
44.998
46.2316
44.8501
45.0425
113.832
43.8046
60.4517
66.0518
70.0916
45.6293
142.312
67.8932
62.3345
53.3807
83.5706
142.466
53.8083
47.7181
46.5507
68.5267
120.894
59.1119
48.285
80.8005
122.341
105.611
56.7846
55.3294
55.7115
94.6488
69.8366
81.209
72.0961
44.3556
63.6677
121.135
44.8014
64.3227
50.6933
50.8435
83.4833
62.9292
53.7605
46.3051
45.7587
83.2032
98.3404
50.151
105.99
106.546
52.7471
86.8423
95.0932
44.838
112.81
44.1419
48.1665
502.969
74.311
59.9893
44.2643
52.2775
52.8134
52.5478
52.7384
994.808
67.5852
102.029
68.2217
96.0356
99.0208
95.8785
96.2295
46.4007
50.9333
45.4729
48.0873
60.1005
48.6601
45.2522
43.9927
64.9636
47.6256
57.5923
61.6801
46.4653
48.4804
49.3436
47.1376
48.3423
53.9277
48.4329
66.6308
52.1216
54.4712
45.3516
46.2098
87.2912
48.5788
133.449
47.7575
148.202
82.8753
60.4813
187.686
133.096
65.5954
46.5054
59.0204
46.3371
116.389
62.9019
49.3426
46.9481
44.9164
69.3083
56.4698
54.7955
98.5197
72.214
44.7493
45.9224
44.5697
89.9684
49.8506
46.1987
67.5085
59.0217
47.334
45.2301
123.629
44.8505
44.3915
44.3224
44.6947
47.9872
44.9319
46.1496
44.7252
47.7392
48.6335
45.4848
45.3582
51.8353
93.1752
57.1893
57.2471
46.4329
44.3263
48.2501
46.7856
45.624
44.6317
55.6255
47.5068
44.6944
47.7338
44.8051
75.3602
47.2819
49.5067
53.4657
55.6536
43.9543
43.7944
45.0635
76.2584
49.2263
44.5743
44.3049
44.7547
53.8599
49.2061
46.5397
49.1442
48.539
49.2316
45.6902
47.5212
44.7904
47.6276
48.1893
44.9224
52.6118
67.715
46.978
47.214
85.307
55.0783
54.0342
48.5191
43.7379
46.7393
46.3121
44.8509
51.3771
44.2229
46.7316
49.5877
47.6271
44.9425
45.3768
43.9799
52.2661
50.8121
68.3023
46.7552
48.7207
50.7688
47.4672
47.0586
47.1223
47.346
46.4638
58.4327
86.4103
57.1223
59.3171
46.4827
44.3851
78.6605
74.6893
45.1489
103.403
61.2877
60.3842
45.142
44.7072
44.9908
44.4723
44.6089
45.0016
82.9695
45.0613
133.044
86.9932
48.7102
324.112
103.13
43.5237
58.4693
54.625
43.6297
45.1958
44.1521
139.165
909.164
69.1991
52.0351
85.3239
220.266
44.2057
76.1514
45.4325
51.5782
203.67
141.319
63.3004
47.6209
62.4592
47.3474
47.2403
46.6433
49.8297
44.3316
46.3313
52.1211
74.7047
47.5569
80.0974
45.4631
67.8183
56.489
51.8215
210.649
71.7158
87.5671
982.194
984.747
45.9651
44.8152
125.619
55.8344
45.5132
56.798
100.097
61.1591
51.5004
45.9519
53.8284
124.89
54.1546
80.4134
53.2473
54.7566
70.2635
54.5735
44.6538
44.2029
71.1253
44.3215
45.0958
120.767
122.66
45.301
46.9196
59.6893
45.2424
44.8051
68.3222
80.6275
69.4886
85.2676
44.7352
71.5354
75.9228
637.136
50.0728
93.7462
66.1197
72.0012
80.7994
53.9879
61.0719
55.1763
50.7294
46.8745
46.8424
50.6041
56.0435
44.834
54.752
49.5048
48.486
48.383
43.9978
45.1484
57.0232
121.368
53.2871
44.4282
63.4001
60.9961
45.7529
91.6932
44.4371
47.9688
105.034
65.2727
54.2413
50.6636
63.8871
72.4688
56.7805
65.5062
66.1232
46.3141
44.9956
45.6583
44.793
44.8669
45.2637
45.9089
45.4365
45.3315
44.8411
45.4545
44.4203
56.4691
46.3659
46.3689
46.9199
49.2288
45.7158
45.9992
45.1455
44.8009
44.6918
46.0284
54.1256
45.8584
45.4883
45.836
47.0961
58.109
58.9744
55.3283
45.1233
45.9423
44.7963
67.1464
64.5815
44.5777
88.4874
74.1331
46.7663
49.3348
45.4958
63.2631
100.484
44.8701
47.1491
46.8691
46.9922
47.9641
46.5816
45.0558
45.9303
46.7624
45.43
54.1923
75.8698
44.5546
49.3213
48.8056
45.8052
47.6033
48.7158
46.3886
46.2063
46.1848
45.9824
45.8293
46.9544
48.4024
44.051
56.0825
45.1639
47.3223
45.2108
44.9943
51.3078
46.2322
54.9677
45.7862
967.02
46.0368
52.6713
54.9885
57.0178
60.2574
81.5087
44.4943
90.1811
55.351
62.4656
99.2667
67.3901
50.8104
44.9852
55.5087
47.2
138.509
46.6313
123.142
63.4963
44.8949
60.9631
49.2957
48.5286
44.8899
44.1553
49.3497
45.7876
52.6474
43.8913
49.803
45.3893
47.6544
45.0106
81.483
47.3667
70.7609
854.25
75.3042
52.134
549.133
45.4123
74.0605
48.8121
45.2928
77.6711
99.6089
60.5638
45.1775
60.5328
44.7902
59.7655
87.195
45.1341
44.2535
94.3489
102.79
78.501
44.4983
44.5376
45.1668
44.6789
79.6764
47.2121
45.1402
63.9607
45.0646
47.1745
44.7904
45.8269
44.1751
43.4199
45.1083
44.3342
43.8724
44.5509
46.5184
64.358
51.3796
59.7022
66.1095
44.0253
55.0958
44.04
72.025
45.2276
64.1839
69.4345
48.2345
49.4585
64.8783
48.3814
45.7251
46.4587
45.7194
44.8108
86.004
48.6875
49.3512
48.686
62.1102
57.78
71.5363
98.4116
45.9943
51.4249
46.1444
86.9944
45.3547
47.1188
45.6269
76.5235
98.8192
106.022
44.4713
81.8785
55.5832
106.578
54.0808
62.0864
51.9985
57.6385
61.2861
93.4883
74.8436
101.136
122.983
57.1376
45.619
44.2936
48.6264
45.9937
46.1249
44.5219
167.679
59.2532
44.3288
45.6195
47.2453
44.5366
45.8279
45.0515
45.1904
54.516
75.3951
45.286
46.9508
60.4683
66.592
69.7884
52.3615
47.1026
78.8444
87.3459
48.3008
49.2454
49.272
48.5789
91.271
68.7188
46.9484
49.3236
49.6742
49.3196
53.8786
49.0768
85.5555
49.0042
52.3423
49.6826
92.3375
45.2972
65.9233
49.2589
44.8091
45.1911
80.8186
72.8039
109.082
44.896
58.0136
49.5932
118.21
44.8596
46.3677
107.389
45.7315
49.3236
50.4114
47.1907
47.2883
80.016
45.51
46.1686
76.7537
83.6126
47.1136
47.1126
73.3583
80.0429
104.48
47.3458
46.7986
45.6434
55.4238
65.5255
66.1959
46.9355
65.3225
56.2062
56.536
45.7804
46.2092
72.7242
71.9323
58.8314
49.4319
70.1386
62.5199
46.2001
52.7005
55.777
48.2063
64.2923
90.747
87.911
54.807
47.434
47.9
50.2034
50.7722
80.097
54.2002
51.7314
47.6083
49.3035
51.5266
46.1831
48.9846
104.377
50.5348
104.615
60.0461
67.191
61.8424
50.4297
54.6124
45.6781
45.5716
46.0512
91.6687
46.0799
47.4994
45.9966
116.315
66.1749
46.8221
43.9456
51.8365
67.8936
44.8436
45.1724
45.2301
45.3716
47.1205
52.0598
85.1568
56.6812
45.3797
45.507
45.1498
44.6649
44.9234
96.0852
46.5452
50.6275
60.069
83.0718
83.6368
46.5458
997.248
166.25
46.864
52.1991
68.6849
44.0965
44.1394
44.689
44.7244
47.9107
47.3853
57.8571
56.9954
51.2449
50.1464
53.6014
65.4864
71.5216
697.79
57.2307
53.0133
58.871
44.9015
62.2732
58.3671
72.1029
61.281
49.2762
49.0722
45.9257
84.0229
45.7633
57.2385
46.5641
53.9748
61.4874
48.1026
46.3813
52.2161
93.802
44.9034
93.6121
46.8294
48.0026
78.3752
45.2449
47.0494
45.2543
45.3653
87.2863
44.8373
45.5243
97.7294
50.481
121.802
49.4026
49.4059
48.3427
49.3559
46.1423
48.5709
49.343
47.8606
47.1931
47.7767
87.4516
67.9656
53.3623
56.9858
57.7158
53.8775
55.3723
45.4313
43.6767
44.241
52.7418
45.1337
52.2773
48.5745
81.1661
67.621
51.3415
62.0262
77.4601
48.6134
59.6803
97.116
49.4151
68.7697
62.2554
65.2106
48.2193
72.1236
87.7925
105.249
149.077
45.0444
44.1821
49.3186
45.3806
45.2962
44.3717
46.6255
85.8211
74.4975
49.5475
45.9098
52.1066
49.6785
56.3227
120.548
46.8404
51.741
47.2826
46.3273
44.6665
53.2476
86.716
92.5566
47.1574
46.9739
51.1907
67.3643
47.8861
44.6498
46.5169
45.5308
50.6164
60.7166
45.0638
56.0759
49.8292
73.6614
45.5043
44.3966
53.5702
83.3393
55.874
57.2908
44.929
44.8644
43.6467
110.545
48.7292
45.5233
48.9703
46.2844
51.815
56.8877
44.6063
50.6984
108.7
48.4029
75.6523
52.9034
84.0846
85.7556
58.1626
60.9842
52.6293
53.5191
54.2516
44.4469
43.9536
48.7645
50.4515
51.2479
52.5945
47.571
46.3572
45.614
45.5113
51.0893
56.1754
63.1571
45.0082
60.9774
45.2272
45.2344
72.2739
46.8579
45.0123
45.6899
44.7087
44.9814
44.8745
55.8972
74.3854
45.9091
48.5653
54.5043
88.6949
44.376
44.6626
52.5375
59.2365
51.2832
89.4912
67.4511
46.186
44.8025
72.7496
158.073
44.8669
44.4933
46.691
45.858
87.4186
107.406
46.2132
45.3591
47.7282
47.1866
53.9401
45.1375
45.6657
46.7887
44.8928
561.235
142.704
165.962
47.422
46.8555
59.3238
53.223
45.9954
82.7578
96.852
49.6092
47.1158
48.7429
60.9494
49.1304
48.7231
55.4558
108.758
50.9452
51.3545
45.09
45.8186
45.0547
50.3321
73.7015
104.001
216.948
47.6845
57.8031
103.118
103.63
49.5645
44.6663
44.1793
113.298
47.139
51.9179
46.0562
44.9129
50.7974
70.904
57.5281
44.5476
47.1999
47.9264
58.5363
47.0846
47.3641
44.7846
46.4683
58.5977
59.1315
90.0674
98.3664
55.1755
54.8825
51.845
45.01
66.3458
49.2802
49.9161
68.3352
70.4249
56.8487
87.5979
45.0222
137.029
61.8749
84.4515
89.1556
75.6926
153.09
105.88
104.621
57.5836
44.3803
101.248
85.9504
45.0204
101.291
49.1725
85.0012
48.0901
71.2026
54.9151
121.492
87.418
101.342
100.224
139.053
53.9985
55.8718
114.374
80.0644
154.671
47.1526
60.0482
115.734
84.6913
116.284
64.9501
45.4117
44.3655
51.3573
116.721
45.2447
50.151
46.1091
52.131
47.0929
48.8684
62.5518
49.0575
109.176
45.8213
44.2165
45.3058
139.384
51.9181
53.1212
45.4873
197.865
49.2613
48.9046
47.7889
48.8963
48.7538
193.487
111.996
1005.3
48.8341
48.2167
49.2275
54.1339
52.2676
48.0042
44.0837
44.7893
45.5686
108.382
45.3958
55.0063
50.9116
46.1534
49.374
54.9079
47.2806
47.4598
51.1837
49.2368
49.1892
85.0143
134.129
70.2748
86.7126
48.9617
60.6738
50.89
49.9291
49.5107
79.5858
129.508
61.8278
127.343
85.6013
108.594
49.0192
49.626
84.7097
47.2784
46.956
44.5429
44.4967
45.2395
44.9576
45.0476
47.581
45.0294
70.0827
49.1485
63.6996
93.047
46.0601
50.6087
92.3235
71.6354
78.2344
45.252
67.1596
49.0831
46.5607
47.8755
76.0541
76.7178
49.2242
94.2543
102.113
122.042
66.7114
68.7379
52.0714
60.9617
45.9171
48.1388
60.6589
76.5937
45.8155
46.1202
61.9176
147.42
106.417
109.506
62.5159
47.3384
105.158
48.0595
94.3926
45.0783
64.8912
52.372
44.9773
47.821
46.2325
47.6526
45.998
45.3081
46.4606
44.716
47.7463
122.405
46.44
45.9946
55.1882
47.5097
44.7975
47.0457
61.6573
45.8538
47.8169
49.2001
47.3358
48.4952
68.7184
46.6796
46.0344
46.5516
45.9257
92.4878
60.9191
70.5239
68.3404
61.0802
62.5697
57.9547
44.0807
45.3881
65.0953
97.094
77.4997
60.0598
52.2747
50.8341
52.3636
47.5499
46.0713
46.4325
45.5357
46.3511