/*--------------------------------*- C++ -*----------------------------------*\
| =========                 |                                                 |
| \\      /  F ield         | OpenFOAM: The Open Source CFD Toolbox           |
|  \\    /   O peration     | Version:  2506                                  |
|   \\  /    A nd           | Website:  www.openfoam.com                      |
|    \\/     M anipulation  |                                                 |
\*---------------------------------------------------------------------------*/
FoamFile
{
    version     2.0;
    format      ascii;
    arch        "LSB;label=32;scalar=64";
    class       surfaceScalarField;
    location    "0.0563527";
    object      phi;
}
// * * * * * * * * * * * * * * * * * * * * * * * * * * * * * * * * * * * * * //

dimensions      [0 3 -1 0 0 0 0];

oriented        oriented;

internalField   nonuniform List<scalar> 
7391
(
0.0480831
-0.0386427
0.0324542
-0.0418946
0.038495
0.0241455
0.0244139
-0.0870544
-0.0408456
0.00836924
0.0370332
-0.00455688
0.0907618
-0.0894767
0.022068
-0.0233531
0.0126101
-0.0173624
0.0012767
0.00347559
-0.0358407
0.106391
0.0616616
-0.132212
-0.08469
0.107519
0.00898062
-0.0318094
-0.0443383
0.0102509
0.00241659
0.0316708
-0.0504105
-0.0411829
0.065484
0.0261094
-0.0332493
0.0405007
-0.013948
0.00669663
0.0268862
-0.050399
0.0235128
0.0901286
-0.0254317
-0.0127931
-0.0519038
0.0754369
-0.00791533
-0.0184407
-0.0490809
0.0679099
0.00505881
-0.017199
-0.0557697
-0.0409996
-0.0529066
-0.0547598
0.148666
0.00452297
-0.0282167
0.0192393
0.025231
-0.00973216
0.0365637
0.0226464
-0.0227119
-0.0625319
0.0625974
0.0430152
0.0585472
0.0185314
-0.120094
0.0379806
0.012653
-0.00141621
-0.0492173
-0.0823635
-0.000606767
0.0829702
0.00110886
-0.09789
0.163259
-0.0664779
0.0892696
-0.148481
0.0307303
0.0284815
-0.0869637
0.142896
-0.103966
0.0480331
0.0868529
0.113023
-0.0799503
-0.119926
-0.0937827
-0.0291373
0.111357
0.0115629
-0.0576051
0.0603576
-0.00275247
0.018333
-0.0472304
-0.0557926
-0.051328
0.0415943
0.0983355
-0.0886018
0.0647074
-0.0388765
0.0266306
-0.0524615
-0.0840009
0.0925367
-0.101265
0.092729
0.00154535
-0.0346128
-0.0101546
0.0432221
0.0466952
-0.0703942
-0.0620978
0.0857968
0.0740279
-0.064709
0.0293622
-0.0386812
-0.0416412
0.0543589
-0.0111724
0.0976943
-0.048278
-0.0494162
0.0473444
-0.0157999
-0.00524462
-0.0262999
-0.0527084
0.0431066
-0.00833933
0.0179411
-0.0323741
0.113775
-0.0477471
-0.0336538
0.0397498
0.0299659
0.0385438
-0.108259
0.104757
-0.248861
0.109421
0.0346829
-0.0353508
-0.0258042
-0.0197707
0.0809257
0.0553722
-0.0284455
-0.0508463
0.0239196
0.0517851
-0.0600583
0.0636454
-0.0632192
0.0466585
0.0165607
-0.0595442
-0.0170409
0.0109775
0.0656076
-0.0712843
0.149787
-0.0659983
-0.0125041
0.035901
0.0379902
-0.0738913
0.0861985
-0.0486749
0.0595767
0.0359567
0.0114026
-0.00546747
-0.0418919
-0.0393182
0.0360577
0.014143
-0.0108825
0.0325692
-0.0251261
0.00134304
-0.00878614
0.0762938
-0.0752635
-0.0243119
0.0232816
0.073398
-0.0416437
0.0188068
-0.0505611
0.0494245
-0.0989753
0.0581633
-0.00861252
-0.0234215
0.0477946
-0.0133139
-0.0110592
-0.00549027
-0.12287
0.175864
-0.0475038
0.0101663
0.00972856
-0.0635505
0.0436556
0.0495118
0.00550416
-0.0448496
0.0126195
0.0666084
-0.0694993
0.00286029
-0.0557834
-0.0106274
-0.0342449
-0.00771461
0.0448198
-0.00178278
0.0014279
0.000123904
0.000230967
0.000315002
-0.000376562
-0.000519231
0.000580791
-0.00397569
-0.00739978
0.00905508
0.00232039
0.0549845
0.0439065
-0.017508
0.0970834
-0.095119
-0.0209366
-0.1061
-0.0090074
-0.0429438
0.158051
-0.00974971
0.00708751
0.137235
-0.134573
0.0670606
0.019398
-0.00596999
-0.0804886
-0.056747
0.0282187
0.0285283
-0.117893
0.0265737
0.0050305
0.086289
0.0382522
-0.0436202
-0.0189361
0.0243041
0.048184
-0.0601836
0.0502517
0.034658
-0.0360113
0.000200156
0.00115319
-0.0338559
-0.00878068
0.00674164
0.035895
0.0104827
-0.102095
0.0479921
-0.0884661
0.093784
0.0364113
-0.0417292
0.0585368
0.032807
-0.0828695
-0.00847427
-0.0464724
0.141602
0.00414923
-0.0992788
-0.0434529
0.0314954
0.103085
-0.0911277
-0.0499909
-0.0264467
0.0528716
0.023566
-0.099483
0.0988893
6.36443e-05
-0.0108598
-0.00177876
0.012575
-0.008593
-0.00060943
0.0049788
0.00422363
0.0268864
0.0099606
-0.036847
0.00120042
-0.000950729
-0.00884269
0.0728437
-0.0441352
-0.0511883
0.0224798
0.00160593
-0.0251481
-0.0207962
0.0693865
0.0430297
-0.0395725
-0.00803894
0.00930301
-0.045018
0.0364934
0.0218921
-0.0133675
-0.0477797
0.0296479
-0.00236412
0.16093
-0.160695
0.00212898
0.107641
0.0159411
-0.0160635
-0.00955856
-0.00536132
0.00470724
-0.00586609
0.000434816
-0.00905131
-0.0943661
0.107055
-0.0231329
0.0104444
-0.013265
-0.00215963
-0.0146664
-2.21331e-05
0.00252096
0.065097
-0.04593
0.0120445
-0.0312115
0.0367871
0.0562648
-0.0279548
-0.0272778
0.0548031
0.0281946
-0.0557199
0.0277528
-0.0550306
-0.000585537
0.000446808
-0.0331105
0.0124775
-0.0100473
0.0792127
0.0694715
-0.0542546
0.0980654
-0.113282
-0.0235297
0.113261
-0.0529444
-0.0418502
0.0448957
0.0517576
-0.0390526
0.0367159
0.00233666
0.0396984
-0.0781983
0.0728798
-0.03438
-0.0574106
0.0518742
0.0855318
-0.0799953
0.00420385
-0.000434316
0.0021992
-0.00596874
-0.00293035
0.000449783
0.0390408
-0.1094
0.104668
-0.0343091
-0.00364372
0.00166201
-0.00498668
0.00427309
-0.00732356
0.00261616
-0.0210925
-0.00950556
0.117959
-0.0873606
-0.0258039
0.0591827
0.0406491
-0.0721694
0.0280341
-0.123937
0.0478568
0.0760801
-0.0429213
-0.0325209
0.0276625
0.0483783
0.156265
-0.226351
0.0217082
-0.0916493
0.0649367
0.0265412
0.000171335
-0.0134633
-0.00372872
-0.000888531
0.0174485
0.110963
-0.0477477
-0.0806639
-0.15717
0.0860717
0.0771506
-0.00605185
-0.0380349
0.0410932
0.0077155
-0.0107738
-0.0422019
-0.0417991
0.0466534
0.0141328
0.00258247
-0.0633687
0.0286026
-0.0344968
-0.0517109
-0.0271139
0.0548668
0.00377308
-0.0110786
0.066016
-0.0587105
-0.0334088
-0.0301094
0.0635182
0.0311143
-0.0645231
0.0486146
-0.00416089
-0.0444537
0.0380601
0.0357188
-0.126564
0.0527854
-0.0978959
0.0599812
0.0759748
0.032977
-0.0997587
-0.0469022
0.107897
-0.0370925
-0.0239027
-0.0305182
0.0435972
-0.0543715
0.109651
-0.0552792
0.00223454
-0.0438042
0.00885175
0.0327179
0.0781773
-0.0307754
0.0342151
0.0746271
0.0407501
-0.037056
-0.0783211
0.0315519
-0.0325551
0.00100322
0.0147033
0.206711
-0.158933
-0.0624813
0.00593454
-0.00322588
-0.0211472
0.0179814
-0.143363
-0.0229336
0.148315
-0.00398739
-0.0123107
-0.0269819
0.04328
-0.00813858
0.0320835
-0.0303747
0.0347388
-0.0330247
0.0286392
-0.0303534
5.55433e-06
0.00012039
0.0412778
0.0166471
-0.0909496
-0.0416356
-0.000357834
0.00703843
0.0352886
-0.0320761
0.0339263
-0.0245331
-0.0234928
0.0140996
0.123422
0.0591699
-0.0924635
-0.0569979
0.0285524
-0.0385345
0.0269028
-0.0392146
-0.0371745
-0.0137395
0.0434715
0.00744245
0.0314851
-0.0196975
0.08072
-0.0925076
0.0415226
0.0336544
-0.0751771
0.0730078
-0.00311521
-0.00597253
-0.000966487
0.00673491
-0.0120907
0.0245261
-0.0191703
0.0351517
0.0390466
-0.0216942
-0.052504
5.65328e-05
-0.0104139
0.00863703
0.00172037
-0.0450031
0.00165711
0.01232
0.031026
-0.0329873
-0.0130957
-0.00503385
-0.0524218
0.00137442
0.109404
-0.0583565
-0.0664589
0.0664404
1.84999e-05
-0.0110041
0.0665489
-0.0328984
-0.0384734
-0.0405322
0.046713
0.0322927
0.0742362
-0.0327651
-0.0352179
-0.00625318
0.0885852
0.0169846
-0.16298
0.0767669
-0.0270183
0.0709066
-0.120655
-0.00183684
0.00140092
-0.0345514
-0.0670904
0.0117612
0.0622053
-0.00687612
-0.056437
0.00309743
0.0533396
-0.0145039
0.00907206
-0.00535179
0.0107837
0.0437167
-0.0988503
-0.0122558
0.0673894
-0.0041238
-0.0033556
-0.00146593
0.0231113
0.0342568
0.00895309
-0.0663212
-0.0560963
4.32445e-05
0.000269682
0.00553169
0.00612117
-0.0183992
0.00674631
-0.00466195
-0.0283231
0.0622491
-0.11759
-0.0390248
0.0207988
-0.0197467
0.0372014
-0.0382535
-0.000519023
0.0371302
0.00409087
-0.0407021
0.0103014
-0.000620559
-0.00726234
-0.00241846
-0.0219653
0.0550359
-0.0377325
0.0342017
5.5139e-05
0.0210795
0.0993766
-0.117176
-0.000578185
0.000967662
-0.000644697
0.00025522
0.00363326
-0.00159476
-0.0149391
0.0129006
0.0063703
-0.000610072
0.0078481
-0.0136083
0.00965329
-0.0170893
0.0191693
-0.0117333
0.0751492
0.000287783
-0.018713
0.0501606
0.0176996
-0.0491472
-0.0306048
-0.0157198
0.0463245
-0.0475141
0.0319766
-0.0168365
-0.0493178
0.0841213
-0.0350907
-0.0409618
0.102656
0.0335267
-0.106421
0.00600032
0.00145026
-0.0037924
-0.00365818
-0.00129431
0.00563388
0.142415
0.00330541
-0.00434399
0.00167402
-0.000635447
-0.000280746
0.00386014
0.0357
0.0284228
-0.0104919
-0.0536309
-0.000779966
-0.0366384
0.0608601
-0.0234417
-0.00134523
-0.00335068
0.00306104
-0.00188434
0.00412352
-0.00251993
-0.03589
-0.0372719
0.0731619
0.0411549
0.0412942
-0.0824491
-0.0269496
0.119664
-0.043825
0.0174138
0.00174948
-0.0196823
-0.0232893
-0.00110576
-0.0018793
0.0262743
-0.0862435
0.0748258
-0.0598666
-0.00435007
0.00391018
-0.00314703
0.00358692
0.0343151
-0.0736747
0.0393596
-0.0971015
0.0257366
0.0317339
0.0396311
-0.017308
-0.0246128
-0.0374415
0.0793624
0.00164929
-0.0102604
0.00490783
0.00370324
0.0404394
0.0412165
-0.0816559
-0.129783
-0.0177713
0.136755
0.0108002
0.0520754
0.0153318
0.000134421
-0.0675416
0.0516902
0.000385188
0.0615724
-0.0437371
-0.00250353
0.0424945
-0.132297
0.0764726
0.0133299
0.0566919
-0.0847371
0.0647778
-0.0367326
2.15743e-05
0.0268648
-0.0524761
0.0524872
-1.11328e-05
0.0777515
0.0113113
-0.0196764
-0.128292
0.118064
-0.0649891
0.0752174
-0.0273879
0.0197563
-0.0359003
0.0435319
-0.0104886
-0.00601456
0.010189
0.0063141
-0.00605242
0.0269721
-0.0443412
-0.00731313
0.00532439
0.0383675
-0.0363788
-0.0476714
-4.69322e-06
0.0476761
-0.00722847
0.0100718
-0.000394865
-0.0024485
0.0252808
0.0303814
-0.0556622
0.0243423
-0.0549287
0.0670798
0.0664886
-0.0535436
0.0523441
-0.065289
0.129872
-0.00214154
0.0128504
0.00766777
-0.0183766
0.0249208
-0.0429971
-0.112898
0.040238
0.115657
0.0416671
-0.0846643
-0.0815694
0.084611
-0.0284733
0.0208033
-0.06996
0.0491567
0.0694766
-0.0514952
-0.00922386
0.00483649
0.0322988
-0.0279114
-0.0764654
-0.0261012
0.0148503
0.0877163
0.0358674
-0.0347243
0.0202984
-0.0214416
0.0423419
-0.0383474
-0.136183
0.132188
0.0413622
-0.10937
0.111119
-0.0431113
-0.0612526
0.035771
0.0430142
-0.0175326
-0.0585453
0.0386258
-0.0479879
0.0679074
0.0329461
-0.0524692
0.0195231
-0.025608
-0.000940371
0.00130074
-0.00474407
0.00247366
-0.00221803
0.00448844
-0.0669749
0.0666995
0.000275356
-0.05939
-0.00381175
0.0151854
0.0486326
-0.0636836
-0.0347075
0.0676845
-0.0685423
0.0338348
-0.0310115
0.000339638
-0.00316532
0.0338372
-0.0605989
0.0660918
-0.0062254
0.000732489
-0.0180962
-1.69937e-05
-0.0289704
0.0470837
-0.0606021
3.26243e-06
-0.00036709
-0.0750306
0.0375447
0.00857374
0.0289121
-0.0249196
0.000457777
-0.0970895
0.0896839
-0.0995046
0.10691
0.0381782
0.0175745
0.0133749
-0.0691275
0.00360242
-0.0254948
0.0345118
-0.0607554
0.0630136
0.0359199
-0.0292034
-0.0234448
0.045372
0.00727623
-0.0282213
-0.0154563
0.0144742
0.000146868
0.000245298
-0.0611475
0.0496587
-0.0252909
0.0343974
-0.00035049
-0.0251443
0.0344172
-0.0675716
0.0331544
0.0679438
0.0287687
-0.0417809
-0.0267383
0.0347895
-0.02433
0.0162789
0.0160097
-0.0631674
0.0207091
0.0264487
0.11307
0.00718254
0.044864
-0.165116
0.115151
-0.068948
-0.0605864
0.0143833
0.0725033
-0.075037
0.0358439
-0.0333102
0.00133265
-0.00110004
0.000497105
-0.000729718
-0.00208485
0.00353323
-0.000951599
-0.000496778
-0.022024
-0.0154335
0.0359506
0.00150689
-0.0448583
0.0184115
0.0271586
-0.0468562
-0.00432112
-0.00234969
0.00617787
0.000492927
0.00160354
0.00100626
0.00129336
-0.00390316
-0.0889217
0.14791
-0.0166468
-0.0497501
0.049902
0.0182597
-0.107802
0.138771
-0.0890926
0.0371678
-0.0405829
-0.00110382
0.042717
-0.00616333
-0.0354498
0.00549981
-0.0108967
-0.0114214
0.0168184
0.00210775
-0.00195954
0.000447788
-0.000264162
-0.0336031
0.0339893
-0.111753
0.111367
-0.0675759
0.0339729
0.00187104
-0.00394077
-0.00619922
0.00826895
0.0526725
-0.0521013
0.000688025
-0.00125926
0.0130129
-0.0225455
-0.0208634
0.0303959
0.0342023
-0.0362939
-0.0293521
0.0314437
-0.00762695
0.000536066
-0.0345117
0.152594
-0.148781
-0.0502858
-0.0803517
0.00364036
0.0162524
0.060459
0.00120892
-0.00199222
-0.0097603
0.0105436
0.047104
-0.0612898
-0.0248668
0.00378332
-0.00988782
0.00163211
0.00447239
-0.0307827
0.0839079
-0.0742177
-0.0526557
-0.00526922
0.0579249
0.0325057
-0.0348638
0.00235818
-0.103242
0.0338525
0.0274288
-0.0204302
0.00421108
-0.0112097
-0.0134267
-0.0300803
-0.0290067
0.0725137
-0.00837808
0.00211788
0.00477283
-0.00734687
0.0925109
-0.088959
0.00379496
-0.00478054
0.00691922
-0.0079778
0.00583911
0.00218276
-0.0179469
-0.0513263
0.0397302
-0.0123723
-0.0405119
0.013154
0.250818
-0.128346
-0.0529997
0.0358339
0.0306797
-0.0665136
-0.0615278
0.0319301
0.0654317
-0.00114907
-0.00232789
0.00134142
0.0538939
-0.0220111
-0.0367049
0.0048221
0.0542673
-0.0363704
0.00487862
-0.0227755
0.0208047
0.0270021
-0.00128934
-0.0465174
0.00232876
0.00836654
-0.00677704
-0.00391826
-0.0068541
-0.002101
0.00795493
0.00100016
-0.00268968
0.000331394
0.00190235
0.000455937
-0.0151749
-0.0296567
0.000203334
-0.0010968
0.0305502
-0.0141977
-7.08522e-05
-0.00277138
0.036494
0.0224017
-0.02639
0.0284302
-0.0213431
-0.0351852
0.0280981
0.00333632
0.000320132
0.0247737
-0.0366235
0.0186669
-0.0102648
-9.42707e-05
0.019806
0.0174184
0.0818016
-0.0172936
0.0378519
-0.0324529
0.0118946
-0.0609966
0.0188647
0.0486029
-0.00647097
-0.000294371
-0.00167856
-0.000241729
0.00221466
0.0396266
0.0173511
0.0664446
-0.0489513
0.0112612
0.0527575
-0.0150673
0.0247272
-0.0593817
0.0346545
0.129703
0.0687743
-0.150099
-0.00119041
0.0019128
-0.00172494
0.00100254
0.00188498
-0.00105361
-0.00499887
0.0279144
-0.0299333
0.0745222
0.0669726
0.00408928
-0.0558941
-0.0151678
-0.0166571
-0.0690984
0.0676593
-0.0351913
-0.145483
0.113539
0.0671354
0.0424821
0.0513371
0.0360525
-0.0389111
-0.0310104
0.0361743
0.0337472
-0.0202454
0.0222543
-0.0245497
0.0225409
0.0547745
-0.000415585
-0.00489206
-0.00733313
0.00602927
0.00619592
0.0417958
-0.115103
0.0664362
0.00687111
-0.0215183
0.00871297
-0.00638994
0.0191953
-0.0547726
0.00597822
0.0497028
-0.000908439
-0.0947063
0.0482664
-0.00600986
0.0524498
-0.0377532
0.0452707
-0.014683
0.00716551
0.023265
0.0487958
-0.0303467
-0.0417142
0.0344063
-0.0645157
0.102239
-0.107853
0.0400202
0.110758
-0.0513649
0.0428461
0.0279157
0.0120331
-0.0903898
0.050441
-0.0109282
-0.0327165
0.0528623
-0.0092175
0.0139464
-0.0410884
0.054271
-0.0491896
-1.27598e-05
-0.0327038
0.0209556
-0.0651005
0.0720606
0.0588871
-0.0588482
-3.89356e-05
0.0674795
-0.0740491
0.0412983
-0.0347287
0.0307264
0.00570783
-0.0286364
-0.0077978
-0.0477047
-0.0298357
0.0392772
0.0382632
0.0347306
-0.0872066
0.00598592
-0.0658142
0.0598283
-0.000701026
0.0255107
0.000124825
-0.0249345
-0.0588216
0.0287384
0.10471
0.00770696
-0.00634958
-0.0056785
0.00855461
0.0132829
-0.0346258
0.0127883
-0.0729067
0.0945182
-0.013578
-0.0516965
0.0697587
-0.0771359
-0.0256502
0.0633383
0.0189377
-0.0566257
-0.0593491
0.0336989
0.0467923
0.0643406
-0.0740893
0.0441392
0.058107
-0.0281568
0.0355807
0.00521532
0.00476365
-0.0455596
0.00183408
-0.00444519
0.000736395
-0.0714225
-0.0263319
0.0286531
-0.00896028
0.00188767
0.00127228
0.00580033
-0.0357116
0.00939369
-0.0349347
0.000548168
0.00458254
-0.00117896
-0.00395175
0.00232039
0.00499573
-0.00769181
0.000375691
0.00036047
-0.000490288
-0.000448368
-0.0809475
0.0384562
-0.0329158
0.0754071
-0.0021539
-0.000771955
0.00350094
-0.000575085
0.0108562
-0.0158529
0.00319916
0.00179748
-0.00504621
0.0136805
0.00333612
-0.0119705
0.00366952
0.018469
-0.036887
-0.000996824
0.00140392
-0.0396694
0.0799024
-0.0402331
-0.0797813
0.0401119
0.000853854
0.000113808
0.0411198
0.00482014
-0.0193599
-0.02658
0.00786669
0.017224
-0.107871
0.0827803
0.0196004
-0.0180313
0.00517659
-0.00674563
-0.00146515
-0.000391675
0.0013843
0.000472524
0.00895776
9.5516e-06
-0.00424271
-0.0047246
0.00856678
0.00261512
-0.0130766
0.00189471
0.0315489
0.00874814
-0.0044296
-0.00410702
-0.0331335
-0.00241257
0.0439301
-0.0528144
0.0479715
-0.0390872
0.0410189
0.0174134
-0.00830091
-0.0501313
-0.000834217
-0.000923233
-0.00246819
0.00422564
-0.00939815
0.0132848
-0.00424435
0.000357666
0.0326663
-0.000258995
-0.0828177
-0.0793603
0.0381773
-0.00220532
0.0128355
-0.00836889
-0.00226131
-0.0688818
-0.0130419
0.0556384
0.0262853
0.0168459
-0.00718506
-0.0133379
0.00367702
0.00222759
-0.00110776
-0.00581427
0.00469443
-1.60076e-05
-0.0102916
0.00808582
0.00222184
0.0698489
-0.0262016
0.0010704
0.0101627
0.00236262
0.0277361
-0.0402615
0.120307
-0.0692155
0.0239172
0.0364366
-0.125617
0.065263
-0.0428183
0.0211241
-0.0598763
0.0395435
-0.00586883
0.0136919
-0.0179194
0.0372539
-0.00555298
-0.0489945
-0.0113067
0.00082647
0.0544693
-0.0439891
0.0389116
-0.0338796
-0.00613583
0.00211167
-0.00890414
0.0051445
-0.067384
0.0362341
-0.0438807
0.0542526
-0.0542311
0.063925
0.0228968
-0.0282152
0.00143437
-0.0216224
0.0110995
-0.0313867
0.0316623
-0.0113751
0.0328305
-0.0396769
0.00476292
0.00855637
-0.0550095
-0.0627806
0.109234
0.0478067
-0.023887
0.108148
0.0241128
-0.0479999
0.0425013
-0.0690871
0.055819
-0.0158112
0.0290793
-0.0696604
0.000573316
0.0359676
-0.0306432
0.007392
-0.0562527
0.0962972
-0.0474365
0.0706123
-0.0272527
0.00970664
-0.0403499
0.0181613
0.0335888
-0.0493086
0.0237233
-0.0348028
-0.00694846
0.0180279
0.0517987
0.0497
0.0252205
0.0693292
-0.0520552
-0.0521202
0.0517266
0.000393621
-0.000430033
0.0690318
0.0199226
-0.0457264
0.0118208
-0.0657125
0.0538917
0.0119746
0.124962
-0.077754
-0.0120957
-0.02835
-0.0205509
-0.0394887
-0.00592446
0.0078402
0.0053298
-0.00571749
-0.0448434
0.109162
-0.0211774
0.0369014
0.0215299
-0.00634588
0.0434809
0.00398473
-0.0562753
0.000874748
0.0170821
-0.0204858
-0.0161925
0.0195962
-0.0947318
-0.00329569
0.0318823
0.0661452
0.109606
-0.041564
-0.0869154
0.0188736
0.0634828
0.0199739
-0.0919833
0.00852661
-0.140273
0.0154723
0.0461134
0.0786873
0.0302344
-0.00573447
-0.0255766
0.00107667
-0.00239562
0.0325161
-0.0285065
-0.00161391
0.0454028
0.0351846
-0.0861867
0.00559927
0.0355075
-0.0351861
-0.094104
0.0347423
-0.0142754
-0.0969323
-0.0942129
0.0721696
-0.0254273
0.0474706
0.0122294
0.0033517
0.0470463
-0.0626274
0.055889
-0.0180807
0.0652796
-0.101157
-0.042173
0.0780501
0.0337592
0.0990621
-0.0394464
-0.0585068
0.0208757
0.0729578
-0.135707
0.0418736
-0.0874944
0.0653241
0.102073
0.0809489
0.0181132
-0.0389691
-0.00205041
0.0603164
-0.000919829
-0.0593966
-0.000502922
0.117607
-0.00499931
0.0460536
-0.158661
-0.0135333
0.0509788
0.0164484
0.0266697
0.0449
-0.0595366
-0.0155421
-0.0164973
-0.013735
-0.00961401
0.0398463
0.000304933
0.0772458
-0.0775507
-0.0118392
0.0351521
-0.0398101
-0.0327534
-0.0224589
0.0346863
0.020526
-0.0490352
0.000388788
-0.0404924
-0.0392889
0.00532411
0.00197114
0.00657869
-0.0138739
0.000969974
0.0519677
0.018668
-0.0120369
-0.0314096
-0.0109642
0.00944299
0.000570442
-0.0116938
0.0179512
0.0646632
-0.0444357
-0.0312317
0.0115687
0.0256841
-0.00169589
-0.0355569
0.00417279
-0.00354343
0.00299968
0.0157795
0.0495679
-0.0683472
0.063776
-0.0635469
-0.000229114
-0.025456
0.00438509
0.0132893
0.00778163
-0.00258697
-0.00321139
0.0277327
-0.0219344
-0.0299277
-0.013664
-0.00439004
-0.00106662
-0.0100018
0.00847844
0.00259002
-0.013651
-0.0356785
0.000294386
-0.00623427
-0.0601743
0.0527575
0.156173
-0.0416798
-0.0310336
-0.0834594
-0.0577003
-0.0750497
0.0106885
0.122061
-0.0544416
0.0924179
-0.121863
0.0838869
-0.0848121
0.00244859
0.000556509
-0.001493
-3.90668e-05
0.000175829
-0.0140537
-0.00176954
0.00680745
0.00901577
0.00965927
-0.00794582
-0.00391876
-0.00438105
0.00861274
-0.0085865
0.00435481
0.0389573
-0.0810926
0.0293922
-0.0155375
0.0278495
-0.0417042
0.0225239
-0.00961352
-0.0827834
0.114108
-0.0299353
-0.00138914
0.0404124
0.0153258
-0.0557382
0.000735745
0.0397698
-0.0405056
0.00868269
0.0259904
-0.0250303
-0.00964277
0.00436466
-0.0359954
0.00302662
-0.050758
0.0636089
0.0299191
-0.04277
-0.0380852
0.0236061
-0.0434006
0.0578798
-0.00168502
-0.0115276
0.0179676
-0.00475492
0.00830841
-0.0335077
0.00190999
-0.0105198
-0.0531793
-0.0334689
0.0328834
-0.0548985
0.0516434
0.0241396
-0.0208845
-0.000834301
0.0042828
0.00621077
-0.0382904
0.00777119
-0.0116679
0.0421871
-0.0296136
0.0490632
0.0221961
-0.0416458
0.000784453
0.00762786
0.0024439
4.72323e-05
-0.00914103
0.00944711
-0.000353316
0.0406811
0.00268721
-0.0672546
0.0238863
-0.0213027
0.100051
-0.11446
0.0538532
-0.0329823
-0.0216509
-0.00683184
-0.00142982
0.0105904
0.00286981
-0.00920514
0.00865571
0.000762433
0.000728715
-0.00285509
0.00136394
0.0376927
0.0260935
-0.0258765
-0.0379098
0.0330838
-0.0058749
0.0132917
-0.014324
0.00271768
-0.0142376
-0.0472704
0.0217123
0.0254639
0.00478827
0.0376602
0.0037644
-0.0462129
-0.00772867
0.00360351
-0.00220327
-0.0258146
-0.0302872
-0.026937
0.0830389
0.0287859
-0.0359022
-0.0395318
0.00735409
-0.0391175
-0.0156258
0.0473892
0.00542911
-0.00604002
0.000100693
0.000510221
0.000318239
0.00428308
-0.0116866
0.0203707
-0.00707762
-0.0149781
0.0169428
-0.000648096
-0.0642198
0.0479252
-0.00569314
-0.000938801
-0.0204476
0.0270795
0.0280728
0.0139056
-0.051324
0.01044
0.0217266
-0.0228236
-0.00934297
-0.105396
0.0869252
0.136078
-0.0029557
0.00874331
-0.00991141
-0.0105469
0.0150173
0.0437137
2.08125e-05
-0.000665509
-0.000202376
-0.000948426
0.00140602
0.0363756
-0.0381209
0.00174526
0.0515247
-0.0508962
0.0749771
-0.06941
-0.0300731
0.144028
-0.0668222
-0.0618361
-0.0153697
0.0820608
-0.040906
-0.113766
-0.0334716
0.0334371
0.0765537
0.0286701
-0.0202283
-0.0849955
-0.00550236
0.149915
0.00818207
-0.154142
0.0415925
0.0581081
-0.0305942
0.0564967
-0.048499
0.0225966
-0.0331253
0.0309345
-0.00982038
0.0130882
0.000566823
-0.0894423
0.0464525
0.042423
-0.0180234
0.00865583
0.0179222
0.0481039
-0.00481627
0.0342859
0.0521373
-0.0864232
0.0497325
-0.0254481
-0.0242844
-0.0189899
0.055611
0.018745
0.00598642
-7.92643e-05
-0.0246521
-0.106975
0.0432169
0.126008
-0.0119278
0.0315497
-0.0311703
0.0392471
0.0475955
-0.0382941
0.0514339
-0.0607353
-0.0834359
-0.0447519
0.0816574
0.0465303
0.012592
0.0350035
0.0625886
-0.0507678
0.000719319
-0.00891812
0.0492177
-8.78548e-05
-0.0549266
0.000115919
-0.0570979
-0.0357881
-0.0504771
0.0153894
-0.0133801
-0.0297649
-0.031676
0.0374933
-0.00439779
-0.00970578
4.98934e-05
-0.0891974
-0.019374
0.00259979
0.105972
-0.000811798
0.0398513
-0.0784153
0.038564
-0.0862198
0.0160011
0.0677883
0.00243041
-0.056044
0.102116
0.0354616
-0.0815341
-0.00838087
-0.0442798
-0.0567389
0.153432
-0.104551
-0.0822271
0.0333463
0.00238492
-0.00269212
0.0819723
-0.129241
-0.0243487
0.118499
0.0177214
-0.012735
0.153682
-0.0315519
-0.167255
0.0451249
0.00778877
0.033576
-0.0311202
-0.097577
0.0916513
-0.0087439
0.0146696
0.0326855
0.00670942
0.0134765
-0.0695438
-0.100144
0.146911
-0.0320634
0.00956243
-0.0293599
0.0986677
-0.0788702
0.0163428
0.038152
-0.150926
0.0964315
-0.0173317
0.124178
-0.0533397
-0.0535061
0.0167704
-0.0347457
0.0759022
-0.0579268
0.0373397
-0.058517
0.106586
-0.0908663
-0.0885737
0.0728539
0.0514817
-0.1044
0.00578736
-0.0329136
-0.0469631
0.0496265
-0.0632292
-0.0858612
0.0994639
0.0682264
-0.0381629
0.037416
-0.0389945
-0.0333686
0.0723632
-0.0398141
0.106329
-0.0257649
-0.0170812
0.00524313
0.0218722
-0.0788432
0.0789844
0.0752365
-0.061803
0.0462455
0.0988272
0.0848482
4.90128e-05
0.0666075
-0.0666565
0.0295207
0.0113674
-0.00590934
-0.0349788
0.0626362
0.0171058
-0.0627812
-0.0169608
0.101812
-0.100114
-0.0288728
0.0271742
-0.0107892
-0.0201606
0.0751181
-0.0441683
0.071155
-0.0845751
0.0803926
0.0614257
-0.0227674
-0.00760979
-0.0310485
-0.00139835
-0.0320706
0.00124087
-0.00267377
-0.0368575
-0.120732
-0.00389877
0.0955644
-0.0611862
-0.0304794
0.0292881
0.00956989
-0.00730614
-0.105133
-0.0395488
0.0789696
0.0485063
-0.00333529
-0.00866021
0.00245238
-0.00230074
0.00252929
-0.0279067
-0.0366892
0.0401072
0.0244888
-0.000949642
-0.0610097
-0.0615514
0.122561
-0.0632484
0.110052
-0.0468039
0.00996329
-0.00388665
-0.0042056
-0.00703989
-0.00338586
0.00857094
0.00185481
0.00225401
-0.0160074
0.0107339
0.00301954
-0.0115431
-0.00241606
0.0105337
0.00342551
-0.000685378
0.00982435
-0.00793005
0.00498165
-0.00462714
0.00271085
-0.00306537
-0.0716799
0.0982802
-0.0373895
-0.00676112
-0.00980229
0.00527047
0.00148481
-0.00126576
-0.00604624
0.0038843
0.000618134
-0.00862755
-0.0837879
0.0199067
0.0599069
0.00397428
-0.0086159
-0.00150082
-0.0641011
-0.0671133
0.0902147
0.0700346
-0.0797843
-0.0281964
-0.00715346
-0.0502385
0.0934644
-0.0432259
0.0442785
-0.112164
0.0708298
-0.00294465
-0.115633
0.112838
-0.00828391
0.000509107
0.0900627
-0.00130222
-0.00225752
0.0315456
-0.0109966
-0.00317659
0.019673
0.0279484
0.00240647
-0.0303549
-0.00472061
0.0305151
-0.0257729
-2.1562e-05
0.0515511
-0.0827813
0.103749
-0.0725189
0.0611884
0.034172
-0.0410931
-0.0307083
-0.0167547
0.0297301
0.0328649
-0.062595
0.0553473
-0.0377435
-0.0609153
0.0433115
-0.0308056
-0.0501419
-0.0662882
-0.0592326
0.0244636
0.101057
-0.0325958
0.0623259
-0.0211121
0.0207034
-0.0251992
0.0189319
-0.0390368
-0.00100723
0.129736
-0.010632
0.0448872
-0.0881504
0.0835839
-0.00278036
-0.00666847
0.00641323
0.0239785
0.000330465
0.0486873
-0.0490178
0.131834
0.054
-0.109067
0.0705003
-0.0376355
-0.0591965
0.00404196
-0.0412163
-0.0412327
-0.0123265
-0.0504265
0.0627531
0.0508006
-0.0636416
-0.0756251
0.053532
-0.0658585
-0.0154204
0.0340872
-0.0530336
0.0343668
0.00924857
-0.00475981
-0.0233219
0.0188331
0.0353673
0.0327975
-0.067598
0.0877035
-0.00453657
-0.118215
0.0350481
0.0216661
0.0488343
0.0749943
-0.0176004
0.0147584
-0.0721523
0.0395076
-0.00535894
0.0898188
0.011988
-0.119407
-0.0261413
0.0223971
0.0226761
-0.0149178
-0.00393054
0.00818332
0.010665
0.00143934
-0.00801072
-0.00493414
-0.000968637
-0.00338143
0.0216486
-0.0172985
0.010839
0.00738326
-0.0443636
-0.024279
0.0494132
0.0185349
-0.0436691
0.00100649
-0.0189619
0.0535911
-0.0356357
0.0378156
-0.0245226
-0.0397484
0.0264554
0.0663376
-0.0455343
-0.00072118
0.00817782
-0.000173994
-0.00728265
-0.000703015
-0.00143884
-0.000547828
-0.0487329
0.00193682
0.0189691
0.0278271
-0.00339144
0.0131117
0.00787375
-0.017594
0.00137984
0.000317767
-0.00198566
-0.0833574
0.000235034
3.49862e-05
0.0830873
0.00476944
-0.0080402
0.051432
-0.0526384
-0.065456
0.00254288
0.055494
0.00741907
0.00172506
0.0172525
-0.0706977
0.0517202
-0.0754898
0.0207779
0.00218017
-0.00214314
0.000919751
-0.00106266
-0.00153565
0.00233442
-0.0014775
6.28305e-05
-0.00545523
0.0188323
-0.0110692
0.0215746
-0.0293377
0.0357644
-0.0153262
0.01297
0.0135297
-0.0375689
0.0738086
-0.00482792
0.00416752
-0.0731482
-0.050061
0.063754
-0.035435
0.0471999
-0.0471157
0.0569094
-0.0168902
-0.0960631
0.070948
-0.00240938
0.0123964
0.0609065
0.034171
-0.00335576
0.0682728
0.0488579
-0.0468495
0.0347704
0.0120791
-0.0624071
-0.0627772
0.0318317
0.0549928
0.015292
-0.0549368
0.105831
-0.0664364
-0.118662
0.0673336
-0.0345482
0.0253094
0.0451955
-0.00284173
0.13859
-0.0414071
-0.094341
0.0239822
0.0178487
-0.0418309
-0.0692344
0.0633555
0.0914278
-0.0855489
0.0549943
0.0391731
-0.0928643
-0.00130312
-0.0154198
0.0211368
-0.0307796
0.0236046
-0.0139618
0.061007
-0.0863577
-0.110891
-0.0234911
-0.0227883
0.0534407
-0.0941605
0.013332
0.014385
0.0798035
0.0496974
0.0381602
-0.0333294
-0.0545282
0.0381839
-0.0362012
-0.0058259
0.00384313
0.00226354
-0.0592464
0.0340366
0.0229462
-0.01161
0.0118366
-0.00298303
-0.00644053
-0.149328
0.150843
-0.0131893
0.0459586
-0.0943591
0.0919949
-0.013067
0.00440436
0.00083966
0.007823
0.0284291
0.00521333
0.00983473
-0.0434771
0.00207547
0.00357093
0.0513008
-0.05571
0.122938
-0.118528
-0.0109384
-0.0277556
0.0019211
0.0367729
-0.0170496
0.126681
-0.0628395
0.0299548
-0.0411656
0.0609082
0.00179359
0.058564
0.0595886
-0.057795
0.0373403
0.0388954
0.03408
0.0410024
-0.0165183
0.0435262
-0.0534399
0.000262548
0.0096512
-0.00298695
-0.0230627
0.0344189
0.0452403
-0.0294754
-0.00522809
0.0300936
0.00452666
-0.042281
-0.00287278
0.0135931
-0.00103771
-0.0406809
-0.000562392
-0.0391779
-0.00485953
0.00859894
-0.0393569
0.00185306
-0.00167404
-0.000858665
0.00132495
-0.035653
-0.0864276
0.00823822
-0.050103
-0.0775126
0.0260173
-8.05238e-05
0.00196361
-0.0048537
-0.00378526
0.000588603
-0.00415691
0.00148201
-0.00219584
0.00351249
-0.00167653
0.000359878
-0.0165366
-0.00335925
0.0161314
0.00376443
0.00393926
0.00217234
-0.00530244
-0.000809154
0.00993288
-0.00461527
-0.0336351
-0.0593266
0.0722335
0.0762707
-0.0608007
0.0540154
-0.024627
-0.0293884
0.00162227
-0.00124556
-0.00453362
-0.000909971
0.0456178
-0.0390734
-0.00563446
-0.0114305
0.0184693
-0.0935745
0.0865356
-0.00357932
-0.0199334
0.0226028
0.033821
-0.0538457
0.0266396
-0.00669164
-0.0208868
-0.00162685
0.0545524
-0.0651989
-0.0621008
0.0727472
-0.0196551
0.00125204
-0.00153516
-0.0362105
-0.060722
0.0602941
0.0157808
-0.00285587
0.0448094
-0.00291017
0.00974416
0.0121584
-0.0108597
-0.0209537
-0.00278503
0.016226
-0.00378766
-0.0224941
-0.0243291
0.0120203
0.00114151
-0.00507293
0.0450246
-0.0230132
-0.0111896
0.00874688
0.000386758
-0.00300342
-0.000321697
0.00293836
-0.00498837
0.00338114
0.00236886
-0.152709
0.0296084
0.0369179
-0.034659
0.00252929
0.0319022
-0.0557998
-0.0190788
0.0429765
0.0589853
-0.0310709
-0.00018634
-0.10345
0.103636
0.0495684
-0.0108166
0.000159902
-0.00302659
0.00235723
-0.00962882
0.0102982
-0.000185607
-0.00191675
-0.0111627
0.00115141
-0.00611048
-0.00143596
-0.00717197
0.00389163
0.00652607
-0.00324574
0.00822462
0.0318842
-0.0404481
0.00033929
-0.0127436
0.0132846
-0.0553136
0.00424859
0.00696117
-0.00284321
0.00539282
-0.00074897
0.000337797
-0.0401924
0.0299057
0.00963862
0.00360457
-0.00258895
0.0039801
-0.00607141
-0.0138692
0.000317772
-0.0442853
0.0165365
-0.0112736
-0.0186397
0.0133768
-0.0131725
0.000531402
0.00586408
-0.00150498
-0.00606117
-0.00710023
-0.117423
0.117266
0.000629497
-0.000472326
-0.00593486