/*--------------------------------*- C++ -*----------------------------------*\
| =========                 |                                                 |
| \\      /  F ield         | OpenFOAM: The Open Source CFD Toolbox           |
|  \\    /   O peration     | Version:  2506                                  |
|   \\  /    A nd           | Website:  www.openfoam.com                      |
|    \\/     M anipulation  |                                                 |
\*---------------------------------------------------------------------------*/
FoamFile
{
    version     2.0;
    format      ascii;
    arch        "LSB;label=32;scalar=64";
    class       volScalarField;
    location    "0.0625936";
    object      p;
}
// * * * * * * * * * * * * * * * * * * * * * * * * * * * * * * * * * * * * * //

dimensions      [0 2 -2 0 0 0 0];

internalField   nonuniform List<scalar> 
3927
(
-6.94411
23.2759
-117.195
-39.4209
1.80264
-48.1263
43.4232
10.4928
20.9922
-13.1773
10.5255
12.305
12.367
48.7372
9.97121
46.29
4.19497
12.3557
11.655
56.5543
15.7655
25.8897
-27.9884
18.3575
11.8582
11.9285
11.9397
11.845
43.7636
26.5398
19.5969
16.7708
11.9185
11.9237
12.1173
12.3735
29.1745
12.1353
3.75333
12.4267
12.2331
-29.9256
18.4197
25.8643
18.2246
-34.0754
4.49402
56.6467
12.2934
12.5604
12.449
31.5437
51.5315
15.7741
17.5382
19.066
-18.6848
47.7256
14.1161
23.79
32.9032
12.4716
2.90419
12.5778
12.5625
12.4586
12.2656
12.784
35.0467
-9.21445
12.596
5.61976
9.94875
-3.31901
-28.2314
51.7721
-20.1167
-14.7887
-11.4913
9.01882
-16.8421
54.7328
10.862
10.8958
7.7132
12.2169
11.2864
-53.5287
-35.9792
-19.3933
60.1241
34.1483
-6.63547
12.4919
12.4726
50.1326
-118.374
12.7913
12.6467
48.6899
-22.803
-60.9418
21.062
-129.812
-6.77567
12.5204
12.2206
21.9605
10.3152
10.5294
12.01
59.1089
18.7922
6.1254
-19.9721
57.7635
12.0246
12.0988
-33.6416
11.7756
11.8044
11.8656
11.7694
-48.7979
8.95364
-12.5117
-12.6224
-10.8735
-9.58438
-12.3823
-11.6726
-40.5264
-58.1943
-147.377
-56.8633
-29.821
-19.3274
43.6387
62.154
27.7316
-58.1048
-59.556
1.25328
33.552
11.8981
-43.7035
-62.3412
-58.0994
12.4549
12.3853
12.2419
12.1222
12.3609
12.1369
2.87214
12.8712
11.3426
-13.4038
12.8901
12.0952
12.0968
12.2314
12.1453
12.041
61.5879
47.3512
3.38717
57.4453
-20.809
55.3289
32.0322
-74.6953
-60.6696
-36.2631
52.1282
-43.6731
-57.3228
37.6964
-44.4272
33.4285
11.9726
-12.8099
12.01
-70.6331
48.5735
33.9826
12.1734
60.2417
53.836
12.138
12.0203
7.67872
59.6351
12.2249
12.3783
36.5853
23.7625
-23.5008
-73.1028
12.4633
36.3106
7.03864
11.7299
40.3992
-29.5033
6.95271
-19.0883
-71.1972
1.66381
15.5976
36.7678
56.6638
41.2951
-63.9712
-28.2054
-24.5107
-35.139
58.7565
-39.3293
41.4685
-46.3639
23.7491
45.3194
62.4195
56.4391
-70.6556
32.5942
-41.0234
19.1553
12.5155
12.6447
12.3137
12.5496
12.677
10.4399
10.8239
37.9922
11.5761
11.3141
24.6388
11.416
-35.659
-54.5539
-44.0739
10.4355
-57.8961
12.1634
-24.904
12.5601
12.311
43.3582
11.3266
11.2654
11.6314
11.6504
11.6942
25.2211
33.0154
30.7789
19.2878
12.6456
29.1318
12.6278
35.5178
28.3387
36.7389
45.0342
44.6948
46.0841
12.4755
43.6872
42.9069
11.1265
3.88225
7.30738
30.405
4.74721
-11.5448
31.3973
14.7384
-45.2967
29.6037
23.5738
34.9428
43.0577
62.5364
-0.777734
52.4336
-40.9492
-10.6508
62.4265
-28.8679
-3.11983
-8.81753
-17.9831
-22.0405
56.6855
-56.921
54.4436
-30.9309
30.9413
58.3232
59.9416
20.5442
-7.8366
27.7966
-2.84714
30.1701
59.2213
26.054
29.992
50.0946
-19.2547
-18.2622
12.0101
9.47947
15.0903
-16.2193
5.15177
26.2995
0.883188
-129.983
-7.08363
-19.8746
11.5771
17.6364
-34.0111
33.0834
43.8381
32.5469
26.2755
12.2312
-68.4652
53.0901
-61.7697
12.1544
61.4334
61.2371
14.0067
22.4283
55.3409
1.42696
53.2156
-6.67712
-1.4166
28.3065
22.7706
-1.41786
4.01643
46.0373
21.2058
-11.3484
-95.1927
-47.4724
22.7028
9.79035
11.1144
-52.5122
36.3815
11.758
-18.0094
51.6263
-43.1101
28.2553
48.8969
26.0159
-9.48566
47.3331
-96.8208
-45.1728
28.3335
24.9401
8.77124
33.6168
24.7406
-11.176
-16.3352
24.7085
60.8236
54.9675
15.3429
50.287
27.3404
32.809
21.4662
26.0239
39.9999
60.2116
-13.7453
-45.5516
-11.9818
-7.70619
-15.7112
-28.1524
53.292
-9.10239
48.3194
-11.5896
-23.4337
-47.4201
14.9833
11.1303
-52.3212
29.8274
-35.5594
28.4305
-31.7917
17.3528
38.866
-60.5855
-17.8243
-7.52304
12.5237
34.2023
13.7232
13.3269
-72.3099
49.6664
-61.1418
-15.1816
36.0004
13.4984
23.3315
11.9661
12.198
38.1232
-39.9108
13.3251
-7.13291
-48.2223
24.8056
-19.3665
47.0746
19.6067
19.7358
-35.0088
-46.9948
-21.762
-4.70056
-2.72637
15.5847
20.3778
28.2749
17.3849
17.8117
-30.6285
17.3181
-23.3002
22.2468
21.9932
-50.4307
4.827
4.23374
59.9041
-13.347
3.09198
26.9397
36.4244
20.9702
-32.4994
-54.5375
-12.8253
-55.1451
-15.6356
-48.3615
-27.6199
-18.6967
-48.9658
-110.567
36.7701
32.9366
26.3829
17.8026
-1.2638
-28.3129
-47.1997
-31.9788
24.0813
12.3427
18.0598
16.9058
-1.97182
15.4336
-14.6769
12.0301
15.7759
37.2931
11.9704
44.8368
24.1039
56.8484
11.6189
21.4484
22.6821
24.8059
-31.4201
57.197
2.66213
-36.4611
38.9743
6.76768
-43.7181
-45.6284
-50.3326
5.43606
-55.2493
-36.2002
-16.6906
-19.8653
-14.694
-14.5505
-5.83595
-21.278
-3.43748
32.3915
41.2761
56.252
22.9859
13.7112
58.3873
-52.8709
52.1537
12.3638
52.2338
-8.36247
-25.5654
-53.2414
12.4971
51.3377
-13.943
12.0985
7.61111
-17.7264
19.8011
-21.9049
-22.2822
-6.62269
-10.1406
-11.2456
-16.6082
-10.5477
-14.1102
-19.7151
-8.04257
-28.5048
4.09587
-25.1452
27.4069
29.7903
12.4886
35.1147
50.0168
48.4434
12.2578
11.7315
44.8707
51.1351
40.7613
-23.3693
-13.795
-7.08404
-7.51118
-19.6987
-10.198
0.677727
-24.3401
1.32081
12.0854
22.3986
16.9644
12.5537
-0.75255
13.0609
15.3678
4.55822
3.49185
7.60219
6.22965
1.84384
2.50802
21.8526
-2.83524
-4.54518
-1.50946
-0.752757
-1.55169
-2.89839
32.1152
-63.5063
-6.83833
-12.9684
-15.3903
-10.0692
-21.1391
-12.3666
-23.0738
27.8503
-26.0794
-51.1986
-25.0371
56.5998
24.144
-15.1236
-12.5011
-21.8753
39.643
-37.2962
-34.5322
-35.0183
-31.0678
-69.219
-58.7321
-8.18855
-8.10641
-5.8303
-3.96743
12.1287
-4.42267
-3.95575
-10.9449
-28.544
-1.22462
-0.241778
-4.17216
-15.5668
-12.3306
-15.9028
14.8594
31.1806
25.4247
38.8944
37.0114
27.9555
37.3865
21.1688
8.44441
29.8077
37.6722
35.2159
36.0969
11.2921
12.3641
13.2813
12.2269
12.4936
10.949
25.9772
22.9998
16.6601
7.89534
-37.828
-21.0823
-41.6779
12.4851
12.365
-2.52554
-21.115
-25.0642
-15.0771
-40.2893
0.804375
20.9996
37.8214
49.2532
0.328442
-5.35824
8.59016
7.74713
-4.23084
4.20665
8.49651
13.0734
13.8031
21.4531
-6.72489
18.9316
14.8927
14.2852
13.3211
-78.0473
-90.2236
-81.3896
-82.846
43.5908
46.9886
58.0867
53.8932
54.0191
53.4586
45.2682
45.9642
-6.68625
24.1199
23.8494
-25.9916
-28.8418
4.66706
-3.32962
-7.29362
-7.92082
-7.88833
-7.10676
34.0236
-5.63731
18.5607
12.102
-7.33561
2.76035
-4.5973
12.3839
12.44
12.1734
11.7147
11.9171
7.35366
3.91511
9.80963
19.7355
21.3402
22.1684
17.9072
20.06
17.1821
11.2748
15.72
-88.9217
-50.007
-47.6484
-85.3332
-56.5283
-36.0871
-38.9766
-0.924083
-40.5616
46.249
40.8898
43.9895
51.1133
45.5172
23.2728
59.355
-6.04679
-64.6328
-61.3071
-51.3764
-61.6982
-52.9417
-42.3486
56.0986
20.3863
48.9236
-14.9217
-102.378
60.6156
60.8449
-25.8318
-14.4112
-20.1205
-35.7357
-18.7092
-91.4872
-33.3625
-40.524
-21.9893
-6.67025
4.90756
-5.96139
21.141
12.0425
63.5674
-47.7871
-67.3555
-43.1449
-67.8362
19.2255
18.5941
26.9517
-25.4056
24.6355
27.9289
26.8794
34.3812
62.4825
48.284
12.1499
43.3919
9.46751
32.7504
-56.4643
-27.3143
-28.5397
-29.9637
-59.1219
59.1555
-14.9543
-24.2148
56.6223
-9.70819
52.4944
59.1464
-105.009
34.6617
-8.4533
-63.4843
22.5513
23.0624
-69.4261
-69.5946
18.7961
-39.4716
54.1352
28.6288
29.3846
26.0871
56.2483
-44.8209
-56.2163
44.9235
5.52715
-30.5701
-13.0556
21.4878
13.255
21.9907
22.2749
11.8523
-3.61553
11.7416
16.6646
27.5236
57.7395
-64.4481
22.0095
55.8223
-7.82278
17.7441
32.1233
36.4703
36.1915
43.0106
40.006
35.98
34.2041
6.98582
12.7577
34.5441
-19.2199
10.0219
-50.2667
-15.7788
-29.5176
-6.14745
31.4257
-54.4172
35.1977
28.8584
25.0576
19.7206
-30.0114
37.8681
37.7151
25.7013
23.8491
21.2843
6.80152
-41.0451
22.2965
-6.12463
45.1049
-12.2434
15.4034
35.2559
-87.8929
-0.812327
30.36
-12.8612
45.7857
-7.82378
-16.9115
32.0317
44.7813
-12.6151
4.01631
2.65002
19.1285
-1.24378
-24.6923
45.212
55.7574
50.2494
22.538
54.5301
46.5062
-83.4158
52.8466
22.3423
3.46783
10.0257
12.0368
12.1934
-14.3741
12.5552
12.4469
10.7319
-26.7366
-13.5145
8.2394
9.62461
16.3592
-75.1748
9.21722
-36.6142
-31.8456
12.4952
-17.1343
-14.9008
-47.2599
-48.2626
11.1076
11.1108
21.9685
-18.072
12.1952
12.3016
44.3674
20.5213
12.1972
3.33535
47.0507
-30.5386
12.5358
-2.17381
12.6475
7.13173
-9.59437
12.8266
-15.2551
-10.499
-31.6792
-34.3571
38.9773
-25.493
46.7137
-8.72508
14.9809
17.7703
50.6763
15.6001
9.74043
-22.9488
40.5402
-42.2053
-44.7078
-26.7223
17.0673
11.9188
12.3896
31.2561
-201.863
17.9714
31.6051
23.5437
-13.6877
20.5728
-26.5479
-42.0524
5.03459
-86.2883
14.5357
31.7759
-12.4815
-13.8084
7.42327
-11.6166
31.6733
30.1147
26.7028
11.7527
11.361
14.9463
-122.131
-73.6417
30.0245
2.62754
21.2533
-20.3239
4.45947
-5.9727
-13.2647
14.1509
-5.29014
-25.8244
-21.0031
-1.23035
-12.1385
-60.0391
-42.9192
31.8144
-52.4063
7.77512
-65.7153
-68.8805
58.9321
39.5166
8.57941
54.2781
22.6058
62.1644
34.6497
18.2134
44.8504
56.0786
14.3989
-23.4943
-21.2366
11.7829
-5.28366
-24.7731
-66.9968
49.6099
-4.87226
-40.4065
18.7198
-2.6658
-3.26515
-17.9053
5.09526
23.3858
56.3367
48.2705
42.47
39.5893
36.8844
-59.9931
12.8984
-68.8013
-68.4639
20.6994
12.582
15.2005
16.1411
-62.3453
-15.9076
-125.404
8.13737
2.01841
-73.0256
-18.924
19.3132
-70.6006
-13.0252
10.4703
29.7953
9.53698
-36.2793
-69.6665
5.72469
-6.3649
47.6073
-45.6421
0.532405
-49.2061
2.68949
17.3766
50.8197
-61.2289
60.1426
19.507
-43.1479
-36.9928
6.32384
26.7782
-45.3009
-40.4529
-13.539
-13.907
49.6257
-41.3722
34.582
-9.75006
18.0349
14.4273
-96.1809
36.3783
-84.796
-8.99568
50.0582
-91.8563
3.87345
-94.9729
-43.1142
48.3203
4.07878
18.8267
16.3864
20.7893
-133.086
-54.2573
-70.6697
-40.0941
40.5219
8.12783
2.37697
17.5688
16.4709
-59.2537
-75.9546
-48.5036
-33.1711
-80.0663
2.07665
15.5114
18.5121
21.2525
-39.067
3.50524
2.21272
-19.6533
-36.2297
19.2519
27.7232
-7.5779
-19.5126
20.6337
32.4048
3.00636
-12.5855
-48.5247
-16.5308
-16.3381
-50.236
-9.56968
-58.3254
-12.3762
-70.7828
-19.4593
-3.36117
-28.2816
-34.2319
-45.6349
-8.90257
-10.4575
49.0439
42.0293
50.473
50.3666
42.0738
50.4759
48.514
51.2263
-5.56453
-12.4471
-23.6465
2.8321
-24.6713
-13.5615
21.5617
24.9068
19.6889
20.9962
18.5114
15.1625
-2.59717
14.4581
12.3142
16.8066
5.05703
-165.433
-19.2243
-6.1116
15.043
12.4637
-9.71752
10.8786
12.3306
12.0053
46.4406
29.2664
12.461
12.433
-19.9885
53.5069
29.349
46.332
35.2585
21.5663
-11.6509
-7.74717
1.64976
43.1877
-14.4305
3.07334
-43.9575
51.5938
-49.4017
-28.1796
-54.4572
32.7893
-3.57888
3.56725
5.72191
-65.9907
-18.5967
-37.7487
-15.6819
-24.0631
26.6137
57.8356
-62.4559
58.7432
-4.10701
-5.31746
10.589
-3.39275
12.4198
10.5929
-0.564831
1.34028
48.8094
53.4963
52.4022
0.225798
38.9254
40.7077
28.7295
39.4309
-6.4214
33.8341
-30.0478
-33.4589
-35.5553
-73.1245
-39.4719
39.7032
5.11757
-57.725
-31.9113
44.2879
57.5578
43.7204
45.9795
11.7988
29.8828
17.4045
17.3537
18.5771
16.0724
17.3864
30.2117
23.6346
50.565
58.5318
50.6466
47.7875
23.3657
-6.80724
54.3237
-62.0348
27.8464
20.7718
39.421
51.7849
12.4362
-126.279
-7.78992
22.0198
16.2248
-58.2136
3.97123
-49.997
15.4824
24.6061
-14.3685
42.2984
37.4281
9.41612
37.7551
59.0994
60.2999
54.617
12.3572
12.0384
-24.573
19.5785
20.3737
22.6098
19.38
11.424
-19.1653
11.7704
11.797
19.5499
34.9463
12.088
39.0613
11.91
49.5412
23.6942
49.856
59.4611
-128.532
17.1448
41.8381
29.5971
38.4311
27.1999
55.2633
56.1894
25.2641
-48.5953
-55.0794
49.9567
12.2036
30.8859
-32.8843
-104.074
-42.0054
-14.5166
12.4527
12.3785
12.4665
9.67594
11.1963
10.0169
12.1367
11.2027
11.983
11.4934
6.03117
21.367
25.4481
16.1241
17.8666
12.0162
-17.7808
12.2977
12.1178
11.7369
11.4991
11.6892
11.4631
11.8455
12.0763
12.041
-21.9025
2.70683
11.9582
-0.679036
9.91645
2.61988
10.9943
11.7366
12.1796
36.9911
26.2021
13.7635
11.4097
2.47517
15.0327
11.9703
-7.70838
-23.5485
12.288
12.324
10.7605
10.8434
11.2972
11.3578
11.2504
11.1573
52.2392
-29.4175
-26.3135
1.5246
10.3518
12.3414
11.4951
34.0645
10.8283
-61.5954
-64.5727
12.4785
17.0992
7.49231
-63.2619
12.9336
-15.0942
4.49097
-10.7659
-63.9844
51.9756
-5.45803
-20.9253
-51.0793
-53.6188
26.9562
-61.0427
-24.0091
-92.1698
-44.1845
30.1768
-37.1634
27.2395
-24.4951
44.0586
17.175
-79.9308
42.1848
-62.7197
46.9782
48.432
52.786
-77.6027
42.7008
30.0112
53.9528
31.9941
28.2643
-44.1347
-50.0579
-30.9383
-13.4432
-24.3586
-50.8113
56.3677
55.1532
55.1254
59.0949
64.0074
53.5472
46.5893
49.4406
47.9735
51.672
55.4711
60.9488
23.4129
12.5903
57.8686
12.1708
12.27
12.331
55.7914
55.9489
26.0921
25.3615
41.9785
11.4527
11.3276
11.2977
12.6419
-84.7469
-38.8527
-66.1061
-75.4698
10.7203
-62.8599
-51.2061
-88.5508
22.7106
21.1324
24.6334
55.5227
-123.524
15.3859
2.58246
-26.9493
23.223
36.1089
27.3518
-1.67605
24.501
-40.9363
-40.959
36.7758
22.814
40.4493
37.5903
13.5942
20.2562
19.9368
8.86439
-65.7931
-111.921
-160.134
30.6253
-12.9729
-57.4692
-61.8706
31.6586
-81.7257
-199.557
-33.8791
24.3548
53.0322
48.7757
55.0891
34.424
3.43256
3.93763
-17.0281
-27.9253
26.5745
-86.3682
-13.7685
-14.0929
12.3216
15.0656
11.5567
8.43328
7.91876
10.2295
11.9961
-3.75235
56.4969
58.6441
47.7981
43.6019
8.91895
12.2475
11.8015
11.9644
-15.512
8.42645
33.634
13.6352
13.5595
11.8789
49.223
54.7289
44.221
38.2402
43.4254
-12.3545
-22.0954
27.7556
-18.5966
-17.9578
41.3298
19.3783
-15.6852
14.8577
56.7616
53.1936
11.8817
11.343
11.3588
11.4643
8.89875
11.5635
11.5811
-13.1492
11.9584
26.4072
19.6944
32.942
-12.1895
36.2266
20.7232
19.7961
19.8514
19.1542
15.1599
-4.1564
-40.3541
32.4663
17.1311
10.7022
40.5644
-2.94465
11.4739
30.0842
50.9028
30.3567
30.7522
27.7981
-16.2471
6.73198
-42.8002
-143.335
34.7985
4.81737
-39.685
21.0836
24.6513
12.6904
52.091
3.23146
43.8839
26.7931
25.861
25.2374
-66.7865
-69.3265
-59.4038
16.3917
14.9201
2.34202
34.9218
-7.44699
-2.61386
-17.4039
51.4079
2.45295
54.4688
15.4135
-58.1875
-56.4676
-16.1585
55.8448
62.6145
-16.0774
26.3083
34.7794
-15.9242
-38.6252
31.6215
-34.7904
-29.9447
24.7051
13.7865
28.3015
15.6479
13.8082
34.1919
50.2951
35.8848
-223.803
0.100815
38.708
26.4158
-22.9803
-84.0752
-4.7704
-20.6735
-30.0662
-50.7358
-3.14458
-44.0469
-39.7171
-29.2556
-74.3224
-66.6727
42.7061
57.7716
52.3361
-116.595
-48.667
-17.4472
-55.4209
-7.32939
-15.7315
-1.1654
-36.543
-66.2881
-22.0628
-36.094
-41.2448
-59.5705
-47.4964
-180.849
-36.4099
-65.7648
13.2337
-9.17656
-52.8472
33.8711
36.0946
-65.0528
37.6786
4.00958
8.58243
19.7768
52.4265
5.61056
19.6545
27.9149
62.9221
-83.776
-179.448
-64.4375
39.4943
-4.52409
23.6217
30.9982
-71.4265
16.4063
2.40079
2.69979
2.27646
-20.5069
-39.7086
-6.9375
-10.7855
-82.4673
-8.36116
2.58895
-167.619
-35.7377
-56.1298
-21.2091
-27.9515
4.62023
16.8098
-32.3495
12.0421
0.0246335
12.0474
12.0508
2.74684
11.6458
11.9973
-21.6737
-50.5529
-43.0001
-43.9375
-50.7613
-4.87953
-2.97855
-9.8195
-13.2447
-10.5434
-10.2151
1.01751
-52.4862
17.4947
20.9022
23.1532
-43.4792
15.6571
12.4459
-57.1944
-71.5861
-48.1995
-57.3977
-59.6147
-50.0571
-58.5374
-60.5197
-53.2785
-65.8188
-20.5409
-85.4499
-0.729836
-44.6477
12.5214
-21.9958
12.4613
12.483
-12.2019
-7.71491
-16.6183
-8.22643
-14.6122
-45.1328
-51.7787
-54.0998
-62.1025
-44.0742
8.12752
21.4513
17.083
54.3392
16.8743
49.1801
53.0827
56.3438
47.7545
52.2021
17.6129
-48.3975
18.2976
19.191
18.3007
2.22844
-61.1582
-65.3143
-69.2587
4.563
-13.1671
-41.5431
4.16721
3.33144
5.74087
-61.0056
-57.9104
-40.4742
10.2189
2.18603
-15.817
27.4474
51.6415
59.5701
-65.0099
48.2121
-11.3492
7.3778
-20.8955
-16.4721
-26.2636
-15.4097
-71.8614
-3.7744
-1.34752
-9.31099
-9.24301
23.5973
-59.7075
-56.8796
-61.4034
-48.0545
10.5646
15.7587
17.473
-7.18122
31.8866
63.388
12.6017
12.4625
27.714
11.5792
12.4551
12.0004
11.9051
12.3642
11.9309
11.9795
31.275
34.4144
12.0115
31.5353
11.9237
12.3281
12.3628
18.6513
16.1687
15.2038
-9.83199
-21.7569
-27.1864
-17.9269
-5.87587
33.7987
34.6709
30.9167
51.4868
27.4641
42.1269
9.39945
44.4494
16.7697
43.7364
62.0985
58.1339
52.5399
26.1397
17.1301
26.5664
24.4875
34.7573
46.4182
23.8784
43.5855
45.2854
34.6786
23.1418
47.0133
34.8414
26.7265
34.1362
35.4716
-44.6183
-15.2211
-68.6183
-82.6005
-79.5081
-69.9561
57.8443
-76.8803
12.5698
12.1681
12.5147
11.6448
11.9631
18.8188
17.1598
-23.0308
-14.5116
52.388
40.1446
35.5903
50.0623
56.5283
31.2433
47.4464
35.8759
51.3081
36.0862
37.768
47.0787
33.4712
47.8464
43.8603
47.2837
31.8177
45.2727
33.2436
44.494
44.6909
35.8719
12.5781
12.5164
12.4639
12.4942
12.5934
12.6355
12.5863
-6.01209
12.4069
12.4158
12.4445
12.1408
11.398
-12.7881
-34.9172
12.1334
11.6922
-15.4866
21.5711
-9.10672
-14.7201
-50.143
-13.3154
-12.5837
-9.67739
11.2189
11.976
48.1757
48.3694
11.9466
12.1558
11.9457
6.6565
17.0361
16.5061
58.9117
24.005
34.8174
59.3104
-19.4239
52.0474
45.1763
30.0825
12.2846
11.4391
11.3258
11.5204
-42.4726
27.8826
25.9803
22.6556
52.565
2.68876
31.5375
31.0547
25.4705
55.4694
11.4248
-9.1658
-6.82739
-10.4226
-10.4584
44.2968
17.4728
19.8685
20.0834
1.37418
49.6587
-14.2066
-15.1021
-7.47751
-2.29182
-11.1243
38.2947
48.9831
23.5425
8.66852
5.01599
2.4125
33.4016
-27.7337
34.1492
-33.5298
-94.1195
-65.0009
39.4196
33.8269
57.4139
50.9074
35.1687
57.9187
-16.1288
-19.394
-81.2268
-77.7524
-55.3317
-42.0209
31.5499
-80.384
18.3875
44.9794
56.2546
-123.101
-86.9566
-122.109
48.147
-65.6168
59.9289
57.5517
25.5269
48.7997
-67.8899
9.18367
51.7498
50.9416
61.6291
61.8526
28.5587
41.6355
51.9493
-73.1904
-24.9693
39.6922
38.0619
55.5724
45.0653
-135.265
39.2504
-137.788
-119.552
-157.769
-89.9198
-63.8368
-28.375
-160.031
36.8486
-30.0907
43.2297
45.0941
46.9202
52.4484
-84.0968
-78.6442
-72.6028
-47.9352
39.8679
56.5421
-71.4734
-62.4955
-63.8956
-64.8204
-65.2883
-64.2771
39.724
-77.0855
12.3615
11.143
12.5528
12.3743
12.3877
11.6075
12.2615
-28.4336
51.0118
51.4676
11.7869
11.7102
51.2928
12.515
11.7649
-10.4813
11.8059
51.3979
12.0083
-4.32193
19.4122
36.0695
25.0963
20.4921
36.9283
22.5711
-8.50775
-18.9195
48.1115
55.3546
56.1937
42.3852
18.0943
35.483
32.7801
-28.8399
11.5331
11.1908
12.5604
12.0729
-32.1641
37.4191
23.2319
60.0839
16.9448
1.18875
27.3739
10.8338
5.57648
11.9109
27.8455
1.74035
-61.213
-4.73631
-0.0407311
-22.136
-14.0408
-5.56459
-24.6
-8.35513
21.5382
11.9902
13.9329
17.4749
26.9414
22.8931
2.07172
26.0184
-27.5759
22.2194
32.0548
20.8459
22.6598
-14.6653
4.55266
28.205
-43.6131
13.9357
-41.1149
-41.5412
33.6459
40.3548
48.0822
-36.4409
42.5375
41.0727
57.0978
55.6317
-29.3655
-12.7584
-38.2423
-26.6518
62.5782
-77.824
42.7276
59.9614
7.63018
62.609
63.1531
23.942
6.17505
-20.2784
-17.9588
-50.9123
-14.4394
-10.4622
-60.7444
44.1452
-60.5144
-22.5675
45.698
-18.8623
-36.8341
-39.0295
-80.7058
45.1193
50.2732
34.6285
-63.1629
-51.179
-19.0728
-35.9514
-16.3739
49.9133
42.4621
53.0512
14.0365
2.9627
-10.1563
52.2095
54.0191
10.3541
23.949
3.1276
27.3954
21.2483
-60.6955
60.974
58.3448
35.7095
30.5431
31.339
29.0339
30.6567
20.5164
14.7033
-6.18912
-59.1994
-45.227
-34.7904
-9.21846
-9.30855
-18.9439
59.3918
27.2293
-17.5423
20.4357
-19.3974
-19.3427
9.98705
13.259
-4.98291
59.9112
-52.7777
-18.2413
-21.756
-83.4522
-24.1863
22.7571
16.1199
35.1481
27.148
17.0794
13.5837
19.0381
60.7899
-71.5662
-44.8422
-24.4901
19.8196
17.3428
17.4953
29.2329
50.6036
39.1105
49.5227
15.5936
22.2018
22.8531
20.8253
34.8223
60.3592
60.6026
32.1784
-18.5524
-43.5263
-60.4595
25.739
13.2269
15.6162
24.2503
-20.145
16.6873
61.3049
33.0212
5.56685
54.7013
-101.747
56.4962
-18.5459
-22.0035
-12.5391
-16.9923
32.3654
-40.4563
-11.5332
-24.1423
2.49536
1.33018
-66.3287
20.5266
21.6206
16.3732
49.4294
22.6104
-65.6534
57.4569
59.2408
55.2177
48.0853
-10.7161
-40.3242
-94.9612
3.71588
16.0464
11.5953
9.68874
-11.9195
-48.6983
-0.957297
25.0508
-53.4642
25.3366
18.5657
27.4202
40.187
32.1703
8.36363
-15.6583
13.1906
23.2754
-2.7525
50.2704
-96.6615
14.3805
-21.8433
-48.829
-12.7551
13.7268
19.3964
24.3115
3.81438
9.89136
16.646
16.3536
11.0066
19.4
-2.72743
-16.0571
8.78985
-5.06012
-75.958
7.04768
37.248
-1.40423
-44.5592
-4.05092
-13.7059
-28.7554
-39.7761
-25.0558
-45.3714
-53.9758
-22.1998
-40.5695
41.3799
22.0966
-104.449
-9.73023
2.3697
25.1122
-83.4331
42.247
-7.40068
15.29
-125.162
-48.0381
-17.9031
-11.0082
-9.11545
-18.3679
25.0838
-3.42387
-11.7025
-1.961
-8.10941
29.1016
50.8631
4.37597
17.5253
33.2587
17.452
52.1361
-44.5571
-55.1546
-69.2146
-45.0864
-79.2959
28.0987
19.7669
45.2666
23.2898
1.64348
1.24757
8.89876
9.04295
-60.3835
3.28814
15.0095
9.72522
-0.394044
44.7298
-5.13674
11.999
3.47212
11.8045
-18.5438
-22.2914
-22.5765
32.4395
13.7502
-26.9367
22.5733
8.33419
7.95761
-11.3861
-16.5604
-32.2055
-43.9846
-61.0323
11.8977
-15.0445
-36.3904
-15.7349
-42.5831
48.5635
-13.9706
-64.7726
32.3681
-16.2436
49.0798
55.7192
46.8509
-18.1251
4.06581
-29.9416
-64.2898
28.5894
20.5553
25.4134
31.95
22.9977
22.4851
-29.101
28.7511
-45.4561
13.0539
8.93333
-3.6661
-5.5262
-1.01723
33.956
-67.9636
-40.8199
-28.4597
-5.18071
2.83408
14.5294
15.5582
-16.0747
0.214376
3.67519
-11.8278
-41.7731
-17.0318
-66.7805
-10.1661
-36.7606
-48.7538
30.0553
-40.8245
-40.2868
-54.2469
5.72288
-27.9151
-22.3776
33.4124
-67.5255
37.5498
51.4632
-16.2641
-79.4451
-34.6358
-5.73705
10.6605
-50.2224
47.0746
16.2839
-26.9765
20.7373
-44.4564
60.6594
21.8223
28.125
13.0032
20.4105
18.2148
-4.73355
24.5889
18.9282
26.4476
-8.22417
-3.25863
56.6224
9.28871
60.3225
47.1234
31.2213
-54.3531
26.685
22.5001
-38.64
10.6812
33.8298
32.5314
21.0063
57.8222
29.9188
63.1925
-19.929
27.4594
-220.545
30.7757
17.0671
17.8873
42.7871
41.0249
-29.9147
58.4687
-40.1338
59.6967
55.0022
54.0384
19.9481
59.0608
58.4106
-26.5345
-52.127
60.6297
7.68807
-10.4281
-35.3192
15.2576
-12.9327
-6.82084
28.7812
21.1731
31.2677
-69.8922
-19.3481
-23.2453
-38.8166
-96.2904
-10.296
21.8102
-18.801
-19.0008
11.4629
-10.3201
-5.15509
-6.32723
-3.469
-1.6728
-3.64941
-1.83189
5.53058
-8.09256
-37.2245
-3.68786
-7.76497
-8.50463
-13.4899
62.5991
12.4583
11.463
12.5211
12.1008
12.7063
10.8435
-16.5203
11.3065
-23.029
-25.7674
-14.5369
-50.1963
-2.03753
8.55774
-29.7673
-22.9629
-10.0207
-10.2498
-6.26183
46.9039
39.8345
34.9811
51.5933
-2.6407
-9.31664
-10.5725
-13.4423
-38.0875
-191.523
0.00737049
4.83427
3.81875
-8.65833
-4.73772
45.2111
39.9458
34.4412
38.1937
22.9096
3.46469
-6.342
-3.49553
6.81151
15.9063
13.3815
14.5766
21.8107
19.094
-29.0364
-23.2297
-30.9739
-47.0542
-22.3506
-32.2505
-45.4285
-36.0784
-11.0855
12.4625
11.8408
12.2628
12.077
12.0833
-51.388
16.8775
-62.0871
-3.87396
8.88853
5.57162
10.5032
11.0537
10.7665
3.15287
1.61342
-0.489893
12.3063
1.28004
12.5987
7.05183
12.4049
26.1413
11.1817
26.9773
11.4502
60.2489
12.3324
56.4637
-6.93237
12.4704
12.3544
12.3755
17.3151
34.906
55.842
12.1447
12.3056
12.5779
11.8377
54.6812
47.8791
51.0394
12.0092
28.8552
33.0627
34.1574
17.443
-8.76675
-8.97273
-7.00761
-70.6593
-63.5199
-56.3969
-62.6791
11.2332
12.8142
12.1299
-34.1049
-34.2928
-28.984
-41.3233
-41.1118
37.2431
35.8696
29.326
-25.2953
-63.041
-89.6396
-91.205
-5.12939
3.11935
3.98332
5.95987
4.0949
20.2181
22.0318
17.7557
21.0121
18.0735
18.4967
20.7401
0.36715
-43.4465
37.3606
-54.6281
12.1956
12.159
12.214
12.3553
-5.93705
-3.17044
12.1671
14.5958
14.5506
-1.33779
-13.7839
-7.68117
1.78264
12.2864
-200.159
-2.21522
-120.222
-61.2994
-72.2434
-25.557
-68.4133
-66.3817
-69.9763
14.8353
-8.35449
-71.2539
19.8894
17.1811
53.2327
22.6765
-3.43621
52.7727
-21.6491
-19.2555
-53.0415
-42.8228
-44.7353
21.448
-121.219
-61.9988
-45.4402
-44.9096
36.5039
55.9241
27.0246
59.0765
55.4582
60.9015
-13.7525
52.6258
40.8237
43.4292
42.6241
-23.7565
46.9948
32.1942
37.6796
-69.5587
-35.7289
-67.376
-36.9617
-61.8566
-63.4887
-128.43
-66.3525
-57.9384
-51.0937
60.624
14.6741
15.3742
13.7674
15.7511
13.3652
-30.9612
20.3912
11.0917
11.0218
10.5796
20.882
22.0116
25.1653
24.2736
21.696
20.9776
18.4813
-20.5203
25.6636
26.4512
32.5143
22.0945
-21.3167
-23.1096
-19.4947
-23.947
19.7997
13.154
7.79894
25.0501
26.0828
41.4195
48.6351
37.1565
-11.8418
-14.4662
-20.3996
-34.8383
27.4183
-42.4797
14.568
9.2731
6.04988
21.9272
15.772
17.4455
-69.4521
-16.6008
50.6431
20.8785
38.6514
27.5789
47.6489
17.0973
33.3492
-9.42063
-3.76222
-11.3742
60.9761
-55.0131
-19.3883
-31.5599
54.1671
22.2444
22.2369
6.21421
19.9715
19.7773
7.13916
11.1988
18.3584
2.38512
14.7582
16.2549
18.7618
-8.82988
22.1406
25.3565
27.0245
20.4185
11.6151
-28.7588
-46.7071
-99.7674
32.7256
22.7871
21.403
9.15493
17.8465
33.5782
-23.0165
-26.048
15.3311
23.8435
20.9267
10.0949
19.6915
20.2643
20.4302
-21.9695
20.8454
-20.4227
58.1152
49.2693
15.9438
-57.9575
-15.6218
-13.668
1.16857
-9.81734
-11.4554
2.24023
-0.957136
-14.047
18.7168
21.6212
19.0076
35.3202
30.5175
29.5327
43.2947
17.7649
3.87843
42.8449
26.3659
25.2081
54.6036
42.621
26.3232
-30.8911
-23.5494
-14.4324
-66.3459
27.4442
-13.0208
31.7358
-54.6305
0.562018
-30.6406
-88.8585
-63.864
10.6641
48.5729
-66.8258
-36.527
-44.8582
-0.919475
15.5532
-32.199
-23.0364
-20.4626
-120.606
17.753
-31.4607
-23.1919
-22.9008
-14.8186
-58.4076
-38.9963
-51.6524
-74.4147
-14.6745
-8.83845
-41.9706
-25.9308
36.5154
33.2545
11.5514
10.4629
28.4991
-56.6275
-92.4389
-53.673
-5.96776
-77.357
-66.0487
4.45761
-30.5773
7.20666
24.0707
-5.78265
18.3422
29.4225
-14.8179
-7.18137
-8.59115
-12.0539
55.4098
61.4741
26.3172
25.1156
41.1418
-29.452
-26.1616
-8.47634
-42.2665
-37.7203
-70.6622
1.04598
-8.57369
-56.6464
6.93726
-38.2623
17.7151
30.9488
-121.052
53.357
54.7991
-7.19548
-33.3568
-49.432
3.18064
-2.20712
-0.663444
-17.3823
-41.2709
-41.0071
10.1799
-63.0156
-15.8423
13.9219
2.10369
40.2635
17.3588
32.5958
33.5315
-28.8558
-68.5189
-38.892
14.9376
12.416
40.0574
7.57049
-25.7309
-8.03284
-23.4536
7.41719
-14.2108
-15.1094
-23.0361
-32.8504
-3.52616
-35.3474
29.612
-8.53791
-7.20162
-2.90132
-17.1852
-17.2297
-68.0102
11.9045
11.6494
-5.16255
57.1706
-8.31292
19.8773
-28.5551
-54.6753
52.0304
37.5288
61.1179
-18.5098
11.4007
-3.48124
-16.7089
-41.7606
12.9958
-3.31985
-42.556
-31.4211
46.8772
-5.01166
-4.7194
-0.912985
3.50542
1.71273
4.33398
23.4868
-43.0974
-57.9768
-30.9933
-77.7335
-48.4738
-54.7562
-12.2423
-5.4219
-5.96192
32.8368
28.5992
48.7126
10.851
-75.1382
4.62793
40.059
13.2045
-41.9622
-62.9254
11.8151
-62.0795
57.9803
44.9225
61.9486
12.0141
54.3705
11.9606
11.4487
-61.5433
11.7133
50.4319
48.4715
1.97748
-21.9005
-93.91
-62.8115
15.3839
-41.1605
12.292
58.9807
-37.7163
-38.2008
45.8897
41.2875
53.1885
26.8857
34.8124
16.8661
11.933
47.6048
58.3743
52.1376
46.4387
-11.9132
14.03
21.2474
23.3282
-28.6797
40.0867
30.7987
35.204
27.2776
14.0174
-15.6112
-15.7888
-20.1655
-19.9265
-19.2406
10.1908
2.29943
0.0988773
-0.616372
-3.18177
-6.01133
-11.0828
-21.6619
-8.2757
26.1247
22.6537
23.6473
20.0078
-41.3647
19.4213
55.7604
25.4878
31.0479
35.8172
40.0498
40.7637
24.4663
-15.7536
-6.21011
54.5855
58.5485
51.9202
37.6299
56.9027
60.9671
25.6786
20.296
28.4262
25.1825
20.699
29.9283
-2.09316
20.5209
54.8289
56.9418
59.04
56.6261
46.8618
-9.14362
-1.10105
39.4698
40.5962
-11.5731
-12.5958
15.5375
14.8399
12.1777
28.2033
8.23349
5.34199
44.2784
-10.4438
-42.7293
12.0875
11.5227
11.4894
12.2658
-28.5392
-11.6848
34.0276
34.9422
43.5796
38.5409
47.9588
39.7293
-3.10103
24.3393
14.4132
-2.41636
12.1632
12.2784
10.9569
10.4636
-13.4459
12.3614
-16.9771
-6.65145
12.3087
11.6268
12.3408
12.4573
12.3884
11.4324
12.2593
12.1279
12.1962
12.1684
3.57643
13.8121
11.2625
12.4112
12.482
21.2154
1.26834
17.9448
20.5398
20.9366
49.1762
49.5432
24.6919
-18.991
-31.5509
-15.7111
-96.4207
17.7759
-50.9347
-37.6094
11.2426
11.8537
11.5097
-15.7843
12.3543
12.4813
10.2661
16.9185
-10.976
2.16232
-12.7255
-13.4605
28.0104
13.3661
-70.5868
15.2476
-204.544
-11.8681
-40.5872
50.9484
44.0608
40.9144
57.8916
48.3014
38.1458
2.68057
-57.1703
-55.1688
18.212
-1.71078
-57.1644
-86.0536
-84.8156
-6.70462
16.4895
-75.8628
-81.2155
38.3329
-32.8957
16.3076
-28.985
-32.4587
-26.2623
-31.5914
-28.1895
-27.8087
36.6729
46.8991
-2.17544
41.7416
62.8181
-11.9803
23.5078
-14.781
9.40921
50.462
52.0684
10.347
10.9763
12.8348
38.0909
22.1104
50.3407
22.9464
-52.2167
-59.0204
-3.67382
22.3036
23.2584
-12.8185
-58.9755
11.7565
-76.6383
-109.16
-60.3105
60.0624
12.3444
12.1095
12.3917
12.1156
11.8647
11.1613
12.6181
-1.54535
14.6716
12.4687
12.5925
12.5144
12.4812
14.3842
12.2961
12.4231
12.1012
12.6665
-49.3944
-46.6179
32.9681
44.7575
-83.838
24.1765
20.9719
-46.7748
-50.6866
-42.5898
12.3864
20.6029
17.0737
21.3227
18.5672
22.6842
22.0646
-27.5923
-26.4021
19.0379
26.8145
56.9838
33.6551
45.5349
19.9667
32.9999
-23.1388
50.2953
-22.805
56.3952
-14.7812
58.0051
58.1627
46.3476
-4.51429
-5.06994
-53.7345
-2.81948
37.6417
0.238997
53.0483
-19.2679
20.0425
56.6575
28.376
31.9836
17.3433
-12.1909
-16.1617
-17.1456
-17.7636
30.5649
-63.0133
-59.0366
-57.9453
32.6106
27.5052
-46.3394
-49.1838
23.8362
-51.9831
-65.996
-60.2355
-69.9128
-70.6644
-73.2368
-71.7539
56.7195
-32.6839
-67.3188
32.401
40.2372
39.8904
-8.74594
13.2397
-79.8829
-21.0571
-14.2446
-32.5822
-23.9152
-29.5576
-60.4088
-27.8423
-29.712
38.2588
47.5786
45.42
14.5203
26.1199
22.4189
33.7386
30.6187
43.1276
22.0267
17.4231
18.4509
24.4218
20.002
40.9641
27.2989
44.2682
26.3814
42.8148
15.5237
11.3259
15.8345
17.5307
-11.8001
-14.894
-49.6066
-19.7508
-35.9198
13.8831
59.8541
-15.4841
-23.5034
-33.1739
-35.2904
-20.1518
30.5641
47.8892
55.2932
42.0928
-27.8677
14.7645
-155.314
24.305
-25.5947
-5.06199
15.0346
-48.6596
-31.4302
45.4488
-25.3592
-28.8708
27.4517
17.3221
39.9309
31.2505
23.3199
14.8008
27.5239
14.2661
13.1671
-0.84913
1.05669
-8.15148
23.4184
8.21576
5.72234
31.2101
20.7244
8.84591
10.203
-1.14945
4.38648
-44.8059
-4.31581
-22.0155
-21.5199
-41.8359
-62.8669
-25.7045
-10.7875
-36.2327
-34.1029
-33.2644
34.9739
51.7476
11.6362
22.207
28.3296