/*--------------------------------*- C++ -*----------------------------------*\
| =========                 |                                                 |
| \\      /  F ield         | OpenFOAM: The Open Source CFD Toolbox           |
|  \\    /   O peration     | Version:  2506                                  |
|   \\  /    A nd           | Website:  www.openfoam.com                      |
|    \\/     M anipulation  |                                                 |
\*---------------------------------------------------------------------------*/
FoamFile
{
    version     2.0;
    format      ascii;
    arch        "LSB;label=32;scalar=64";
    class       volVectorField;
    location    "0.0625936";
    object      U;
}
// * * * * * * * * * * * * * * * * * * * * * * * * * * * * * * * * * * * * * //

dimensions      [0 1 -1 0 0 0 0];

internalField   nonuniform List<vector> 
3927
(
(11.5366 -0.526481 -0.226862)
(8.77211 -0.537002 -1.49427)
(8.70014 1.31538 -5.0663)
(13.5834 -0.480278 -1.04759)
(10.9054 -0.714407 -0.606686)
(11.5131 -0.360817 -8.87333)
(2.15326 -0.577428 -5.87707)
(10.0885 -0.0590091 0.001809)
(9.22252 -0.316987 0.330217)
(12.0762 -0.518388 -0.899272)
(10.1473 -0.0992087 0.00684969)
(10.0158 -0.0275695 0.00284288)
(10.0104 -0.0274289 0.0032127)
(5.66743 -0.496492 -0.653655)
(10.1668 -0.521794 -0.160468)
(1.24684 -0.721864 -5.85978)
(10.5776 -0.736497 -1.36561)
(10.0113 -0.00639758 -0.00797406)
(10.0119 -0.00673636 -0.00170936)
(2.04056 -0.646102 -2.60144)
(8.1335 -1.31809 -5.14431)
(7.4769 -0.968638 -5.68578)
(12.998 -0.467926 -3.0899)
(8.81393 -0.741968 -3.33319)
(9.95786 0.00572652 0.00632582)
(9.97098 0.00192622 0.000667595)
(10.0417 -0.00543644 0.00143384)
(10.0517 -0.00462686 0.0170649)
(3.02199 -0.503509 -5.87491)
(8.1732 -0.55154 -0.717372)
(9.17613 -0.902731 1.82855)
(9.61605 -0.366907 0.0109434)
(9.99841 0.00587158 -0.00534485)
(10.049 -0.0235558 0.0169602)
(10.0007 0.00151851 0.00193774)
(10.0046 0.00701805 -0.0033043)
(7.96342 -0.785109 -1.497)
(10.0187 -0.00668376 -0.00605846)
(10.0332 -1.74528 -3.5427)
(9.98441 0.00124834 -0.0023209)
(10.0181 0.000828345 -0.00070504)
(13.2473 -0.993402 -2.99753)
(9.34269 -0.579783 0.0187674)
(8.62563 -0.624904 -2.32744)
(9.2685 -0.881643 -1.29074)
(13.1855 -1.24447 -1.12688)
(10.5351 -0.495627 -2.63233)
(3.73372 -0.224152 -0.383365)
(10.015 -0.0064 0.00696371)
(9.98436 -0.00480045 0.00437684)
(10.0055 -0.00399833 0.0100849)
(6.9935 -0.729231 -3.21002)
(4.27198 -0.533861 -2.5182)
(9.70865 -0.342764 0.105357)
(9.52726 -0.417047 0.262497)
(9.33943 -0.452859 0.223828)
(12.463 -0.396051 -0.863151)
(5.26096 -0.875671 -0.208468)
(9.63218 -0.732591 -0.900097)
(8.99682 -0.666077 1.05121)
(6.27772 -1.84786 -3.26739)
(10.0048 -0.00311468 -0.00686737)
(10.2754 -0.614361 -3.12358)
(9.98817 -0.0037217 -0.00289339)
(9.99903 -0.00606783 -0.00618144)
(10.0097 -0.00951402 -0.00671306)
(10.0155 -0.00998047 -0.0104103)
(9.9881 -0.0117197 0.00333114)
(6.64109 -0.427002 -2.9792)
(8.14196 -0.17143 4.45501)
(10.0044 -0.00543622 0.00979916)
(10.507 -1.07937 -1.17774)
(9.67061 -0.105099 4.74226)
(11.1057 -0.415014 -3.09686)
(13.255 -0.829218 -2.85401)
(4.5175 -0.798494 -0.289855)
(12.4358 -0.72368 -2.93676)
(12.0547 -0.75775 -1.91369)
(12.0241 -0.601419 -1.39386)
(10.1956 -0.940082 -2.38536)
(12.2209 -0.113272 -0.0418636)
(2.79597 -1.27389 -2.6709)
(10.0746 0.00986201 0.0344102)
(10.0835 -0.0348554 0.0224459)
(10.5137 -0.28226 -2.62586)
(10.0166 -0.0246727 0.000504279)
(10.1255 -0.0494545 0.0142038)
(13.541 -0.509926 -3.25593)
(6.10074 -0.832099 -11.9079)
(11.4894 -1.15083 -5.00004)
(1.09291 -1.08821 -0.62562)
(6.4125 -0.542458 -4.09996)
(11.5127 -0.242456 -0.402764)
(10.0106 -0.0126521 -0.00730677)
(10.0112 -0.0222563 0.000146856)
(3.91364 -0.565113 -3.80421)
(12.5922 -0.0060192 -8.35813)
(9.98359 -0.00936669 0.000255226)
(9.99714 -0.0084019 -0.00719392)
(5.11897 -0.785392 1.49642)
(12.7585 -0.774597 -1.95358)
(5.62234 -0.745042 -0.228371)
(8.81564 -0.675318 -2.1207)
(9.6358 -0.515607 -4.67403)
(11.5499 -0.276226 -1.3393)
(10.0066 -0.00942187 0.0093688)
(10.0397 -0.0327022 0.0107564)
(8.97932 -0.259351 -0.552305)
(10.0999 -0.0732599 -0.0168254)
(10.1574 -0.0975286 -0.0019883)
(10.047 -0.0339177 0.0110054)
(2.12498 -2.3622 -0.0107565)
(8.85963 -0.712782 -3.34487)
(10.5154 -0.500316 -0.284558)
(12.1776 -0.999619 -3.5688)
(1.55083 -0.654411 -3.67414)
(10.0155 0.00474988 0.0056427)
(9.96094 0.00557054 0.0104483)
(12.6443 -0.235362 0.899271)
(10.0394 -0.00250153 0.00593421)
(9.93078 -0.0027825 0.00372242)
(10.0304 -0.000108398 0.00843439)
(9.95432 -0.00259105 0.00494611)
(13.9025 -0.848942 -3.75145)
(10.2995 -0.59722 -1.02221)
(12.0009 -0.500599 -0.554523)
(11.9816 -0.486162 -0.399545)
(11.8083 -0.383347 -0.245796)
(11.6899 -0.40308 -0.225203)
(11.9334 -0.358173 -0.0763084)
(11.8954 -0.387909 -0.148049)
(12.5855 -2.24907 -3.4299)
(7.09648 -1.34932 -0.0581362)
(10.1195 -3.76144 -10.4362)
(6.04924 -0.996422 0.265527)
(12.8009 -0.294601 0.60172)
(12.4299 -0.412943 0.293783)
(5.91015 -0.62814 -0.873838)
(1.09153 -0.693541 0.0920272)
(8.35792 -0.602957 0.0224616)
(7.46076 -1.57737 -0.116718)
(7.53355 -1.74725 -0.0679535)
(10.7205 -1.24118 -1.37499)
(7.48326 -0.44945 -1.31189)
(10.0722 -0.0704808 0.0171687)
(8.04056 -1.38035 -1.41289)
(7.85109 -1.07195 -0.437991)
(7.36572 -0.992505 -0.410989)
(9.9769 0.00198731 -3.45775e-05)
(9.97483 0.00711631 0.00178193)
(10.0192 -0.00167646 0.00248432)
(10.0055 -0.000443453 -0.00125765)
(10.0076 0.00696722 0.00200601)
(10.0196 -0.0103613 0.00651379)
(10.8047 -0.709221 -2.4176)
(9.86289 -0.281757 -0.112619)
(2.93285 -2.31851 -10.8736)
(11.9385 -0.281258 -0.119398)
(9.95601 -0.621323 -1.59905)
(10.001 0.0024278 0.00388131)
(9.94531 0.00507915 0.00390588)
(10.0261 -0.0126776 0.000163027)
(9.98292 0.00498926 0.00609594)
(10.0042 0.00320088 0.0052821)
(0.80115 -1.0063 -1.34933)
(4.78892 -1.24653 -1.79893)
(9.39865 -1.02517 -5.48787)
(1.42259 -1.61863 -3.07696)
(12.6041 -1.05944 -1.25174)
(1.52117 -1.92109 -2.83528)
(7.70766 -0.814259 0.452016)
(4.99318 -3.91623 -0.649105)
(12.0556 -0.891687 -1.17975)
(10.2877 -1.61602 -8.91881)
(4.63809 -1.05693 -1.70675)
(6.91692 -0.15902 0.502371)
(7.30089 -0.0138534 0.698725)
(5.42056 -0.850343 -5.67044)
(6.32309 -0.212027 0.432556)
(7.51152 -1.00007 -1.84825)
(10.0294 0.00122627 0.00806273)
(10.4919 -1.00805 -6.3136)
(9.95327 0.00524886 -0.0011955)
(6.00404 -0.182396 -0.498265)
(4.65878 -1.71419 -2.38208)
(7.51174 -1.01166 -0.601724)
(9.98833 -2.04166e-05 -0.00520912)
(1.87908 -0.898954 -1.69651)
(4.13707 -1.23643 -0.20455)
(9.96686 0.00368377 -0.00130446)
(9.97106 0.00086947 -0.00219373)
(9.77818 -0.749318 -3.91097)
(2.13946 -1.35672 -1.09458)
(10.02 -0.00130118 -0.00351241)
(10.0094 0.0032058 -0.00188761)
(1.71489 0.049362 -7.93062)
(8.69577 -0.891296 -0.838101)
(5.54557 -1.28666 -12.0516)
(1.28336 0.608647 0.203555)
(9.98647 0.0012398 0.000252596)
(6.97361 -1.31138 -1.51222)
(9.74673 -0.74774 -4.05098)
(9.94136 -0.312003 -0.144437)
(6.3219 -0.648352 -1.91501)
(13.507 -0.736488 -1.91471)
(9.59047 -2.33229 -4.49475)
(12.4866 -0.327753 -0.437)
(10.1988 -0.443784 -11.996)
(10.9894 -0.642381 -0.852954)
(9.5739 -0.430512 -1.1345)
(6.91554 -1.40626 -0.0446787)
(3.06305 -0.799932 -0.286768)
(5.30321 -1.53748 -2.72737)
(6.25175 -0.108657 0.714243)
(13.0279 -0.331874 -0.716196)
(12.7084 -0.782124 -1.7054)
(13.4161 -0.432 -0.368263)
(2.31456 -0.682301 -2.6509)
(13.3121 -0.321698 -0.180577)
(6.84154 -0.532789 1.68117)
(10.1138 -0.407488 0.589494)
(8.12552 -1.08419 -2.07537)
(5.58216 -0.876999 -1.26459)
(0.033488 -0.932572 -1.46675)
(1.48755 -0.750631 -3.4208)
(9.7067 -0.542061 -0.735089)
(6.96899 -0.465125 -2.89271)
(13.8905 -0.442983 -2.05511)
(9.52943 -0.887476 3.26839)
(10.0091 -0.0113686 -0.00629379)
(9.97754 -0.00533076 -9.55303e-05)
(10.0104 -0.0033807 -0.009154)
(9.98491 -0.00610288 -0.00606198)
(9.98312 -0.0153415 -0.00571716)
(10.0653 -0.0156041 0.0350212)
(10.0546 -0.0679318 0.000986746)
(5.62628 -0.519156 -4.06592)
(10.0754 -0.0102743 0.0364775)
(10.0032 -0.0147313 0.00972257)
(8.5274 -0.532976 -3.09079)
(9.94891 -0.00835663 -0.00625366)
(13.3626 -1.40657 -1.58274)
(12.0811 -0.69878 -1.17696)
(12.0526 -0.715522 0.222203)
(10.1574 -0.0925275 -0.00662603)
(12.544 -1.49229 -2.34937)
(10.0354 -0.0171062 -8.35149e-05)
(12.9358 -0.824917 -1.13536)
(9.9994 -0.00306233 0.00486289)
(9.99216 -0.0168734 0.00449729)
(4.50294 -0.4373 -4.37688)
(9.95065 -0.0278658 0.00768033)
(10.0203 -0.045279 -0.0116079)
(10.0642 -0.03083 -0.0234916)
(10.0773 -0.0412516 -0.020102)
(9.95337 -0.013559 0.00616911)
(8.63173 -0.531852 -0.3385)
(7.21973 -0.76155 -2.15053)
(8.05555 -0.847028 -2.12278)
(9.07195 -0.834471 -2.94667)
(9.97966 -0.00472888 0.000879493)
(6.88824 -0.511076 -3.84294)
(9.98943 -0.0161285 0.00866118)
(6.97337 -0.568948 -2.62574)
(8.10525 -0.853224 -2.40524)
(6.62628 -0.607545 -3.14509)
(4.10103 -2.32427 -4.00552)
(4.52334 -1.85979 -3.54633)
(4.67875 -1.91345 -2.95705)
(10.012 -0.00993112 0.00822715)
(4.87129 -2.16121 -2.78502)
(4.39302 -2.34537 -3.42736)
(10.0058 -0.0148007 0.00449279)
(10.5905 -1.03346 -1.21302)
(10.3559 -0.72176 -1.22108)
(7.90007 -0.895646 2.72945)
(10.4505 -0.33044 -1.56767)
(11.8422 -0.360742 -0.317518)
(7.90239 -0.592522 0.254089)
(9.48127 -0.35471 -1.49618)
(11.2827 -0.900602 6.35467)
(7.97742 -0.599812 1.29013)
(8.78354 -0.438053 0.205031)
(6.31385 -0.675932 -5.05722)
(6.44334 -0.468258 -0.637872)
(1.00982 0.387683 0.788382)
(10.8405 -0.392593 -3.03352)
(2.22263 -0.331135 -3.92851)
(13.2054 -1.68693 -2.35848)
(11.8472 -0.125728 0.000805374)
(1.45802 -0.134509 -1.51043)
(13.2674 -1.73662 -3.22259)
(11.0051 -0.285499 -2.46397)
(11.7589 -0.511804 -0.77962)
(12.3632 -0.189149 0.000710254)
(12.4885 -0.16469 0.424326)
(3.21308 -0.658693 -0.693632)
(13.2839 -0.165119 -1.854)
(4.01108 -0.509822 0.186349)
(12.0145 -2.52856 -3.48434)
(7.955 -0.875946 1.68904)
(2.92476 -0.634863 -1.5761)
(1.41451 -0.0981056 -2.11869)
(8.5526 -0.703619 -3.00199)
(11.7398 -0.225241 -1.34173)
(8.04537 -0.475122 -1.69473)
(10.4549 -0.267982 -4.08781)
(7.41512 -0.884788 -3.13076)
(1.52464 -1.95489 -1.5016)
(8.54605 -0.486879 -1.38673)
(7.9111 -0.840607 -0.462923)
(4.21413 -0.23911 -3.60451)
(12.3865 -0.49934 -1.62143)
(12.3636 -0.636917 -0.963438)
(10.0812 -0.0578624 0.0298046)
(10.0195 -0.637606 -2.76229)
(8.86179 -1.2903 4.56109)
(12.2687 -0.534819 -0.890818)
(10.553 -0.23037 -0.637889)
(8.71297 -0.289034 2.5745)
(9.5056 -0.187419 -5.7233)
(4.1933 -2.62892 -1.92728)
(11.4967 -1.15653 -1.34313)
(12.3093 -0.427353 -2.81843)
(9.337 -1.88662 -3.08326)
(9.4351 -0.545626 -0.755656)
(13.1627 -0.300492 0.209795)
(7.20009 -1.24805 -1.39295)
(4.27203 -0.231923 -3.86581)
(7.65848 -1.78884 0.0137218)
(7.73764 -2.1983 -3.07978)
(9.98707 -0.0277391 -0.00712526)
(5.62488 -0.17739 0.39598)
(-0.349308 -0.759519 6.91454)
(3.74861 -0.786193 -0.265032)
(10.031 -0.0319098 -0.0015311)
(1.88459 -0.256244 1.3892)
(0.762403 -0.527 2.828)
(9.80442 -0.138763 -0.0557549)
(8.88254 -0.606962 0.631307)
(2.34332 0.586179 2.6226)
(10.7056 -0.532409 -2.02237)
(0.863386 -0.43212 5.14828)
(10.9588 -0.711865 -4.0244)
(11.157 -0.70511 -0.687564)
(8.12284 -0.445054 -1.808)
(8.7797 -0.489601 -1.98156)
(10.6485 -0.493218 -3.97824)
(10.215 -0.547362 -5.70363)
(1.76015 -0.203421 -6.00486)
(8.81319 -0.372141 -1.87839)
(11.7555 -0.477056 -2.70023)
(2.67065 -2.74125 2.0554)
(13.5083 -1.13812 -3.60758)
(8.61424 -0.353127 -1.99549)
(9.80052 -0.431463 -3.54868)
(10.0225 -0.428125 -0.823941)
(13.1352 -0.307623 -1.85134)
(2.8938 -2.33289 -5.77757)
(9.75003 -0.458983 -1.86831)
(12.2725 -1.13469 -2.83845)
(4.79395 -0.774813 2.05569)
(10.1336 -0.101174 1.07231)
(8.48426 -0.428666 0.444445)
(5.37 -0.361364 -0.841097)
(7.46475 -2.25342 -3.65124)
(11.6844 -1.15703 -1.25826)
(4.4129 -0.65358 -3.62232)
(11.5995 -2.00589 -9.45143)
(13.2141 -0.376623 -5.38866)
(5.77049 -0.19976 -5.90708)
(8.26269 -0.654421 -2.99322)
(10.3496 -0.286934 -0.982032)
(6.49901 -2.03944 -2.94122)
(8.91105 -0.473041 1.64512)
(11.7756 -0.793046 -1.93281)
(12.3498 -1.03059 -1.42366)
(8.05128 -1.99042 -1.90139)
(1.44078 -0.792368 -2.17164)
(2.14735 -2.76745 -2.42059)
(8.87908 -1.23445 -3.07355)
(1.54066 -0.645595 -4.48109)
(2.24424 -1.32879 -7.12101)
(6.86318 -0.642518 2.89935)
(9.28176 -0.406239 1.84451)
(7.81416 -2.00364 -2.19189)
(6.49651 -1.70627 -1.31965)
(0.392409 -1.22597 0.414278)
(12.0356 -0.283592 -0.217907)
(12.1558 -1.36746 -0.55071)
(11.6837 -1.97606 -2.27654)
(10.0345 -1.99827 -5.96036)
(12.2675 -0.939852 -1.7922)
(13.4639 -1.3983 -2.132)
(1.54634 -2.0857 -3.32053)
(11.7069 -1.16535 -1.30385)
(2.91961 -2.9073 -3.62463)
(11.8595 -0.875046 -0.580705)
(12.7798 -0.988236 -1.67747)
(10.3007 -3.53518 -3.44916)
(8.5068 -0.961088 -5.00119)
(7.75174 -2.53046 -6.4458)
(12.3321 -1.16312 -0.887309)
(7.50127 -2.20281 -2.69868)
(13.1187 -1.75673 -2.48776)
(8.34492 -0.68331 -0.242141)
(12.865 -1.91953 -3.7805)
(9.54665 -0.342666 -0.0533362)
(6.92524 -1.66887 -0.254782)
(11.3284 -3.3706 -5.33895)
(12.5724 -0.889457 -1.47417)
(11.458 -1.37606 -1.97886)
(9.95298 -0.644246 -0.50628)
(7.03026 -2.16187 -2.55272)
(9.67875 -0.37643 -0.600927)
(9.84065 -0.248674 -0.0930664)
(7.0027 -0.165778 0.195382)
(4.06585 -1.09513 -2.967)
(13.064 -1.00125 -1.76162)
(12.1875 -0.564193 -0.347848)
(5.82162 -1.23982 -4.49275)
(9.81555 -0.153122 -0.092795)
(8.26265 -1.64091 -3.32382)
(9.39023 -1.95234 -2.95649)
(10.033 -0.0178221 -0.0016779)
(6.71224 -2.32475 -0.758388)
(10.3825 -0.362968 0.782432)
(9.15491 -1.40371 -4.02203)
(11.3889 -0.749607 -2.46739)
(10.7901 -0.970035 -0.444631)
(7.52384 -1.26228 -4.0914)
(12.4615 -1.5535 -1.8595)
(4.41654 -0.710831 -1.88937)
(8.23846 -1.94117 -3.85625)
(8.67877 -1.86641 -3.5646)
(13.1769 -0.961434 -0.715558)
(13.8952 -0.153419 -2.00683)
(12.6736 -0.904073 -0.651215)
(11.3051 -0.763869 -0.450901)
(10.2223 -2.26387 -4.30845)
(9.62153 -0.49171 -0.197493)
(9.19836 -0.487383 -0.334587)
(6.01364 -3.0208 -5.75738)
(5.57926 -3.64833 -7.77614)
(9.44726 -0.455083 -0.1541)
(12.0852 -0.892689 -6.28724)
(9.38406 -0.28712 -0.550041)
(12.7557 -1.21717 -0.661476)
(8.99077 -0.262473 -0.540383)
(8.84547 -0.499598 -1.31531)
(13.7274 -1.39205 -3.02448)
(10.4867 -0.411331 -1.5603)
(9.79131 -0.408071 -4.61543)
(1.31687 -0.648533 -1.69508)
(11.0386 -0.403956 -5.11619)
(10.8535 -0.533882 3.30848)
(8.28415 -0.829539 -0.346708)
(7.21402 -0.988451 4.40953)
(8.88731 -0.593337 -2.22274)
(13.3512 -0.321779 -0.411122)
(9.71687 -0.428584 0.53695)
(11.8904 -0.39258 -2.28877)
(14.0963 -0.338715 -3.13491)
(12.0564 -0.133836 -0.0216289)
(14.0521 -0.280151 -2.5646)
(13.1188 -1.19792 -2.3275)
(12.4378 -0.469797 -0.0229561)
(9.48872 -3.18418 -0.435056)
(7.02948 -5.46851 -2.12207)
(0.733828 -2.85538 -6.2192)
(5.45346 -2.19744 -4.46969)
(8.46064 -0.773517 2.88185)
(3.42246 -0.998544 -8.47241)
(10.9386 -0.567706 -2.70518)
(12.9379 -0.539898 -3.62165)
(14.0212 -0.987236 -3.04037)
(8.94267 -0.362804 3.98868)
(8.71128 -0.550567 -1.69153)
(9.97017 -0.00985026 -0.00809159)
(9.35286 -0.372571 -0.320478)
(9.43591 -0.593188 -1.17485)
(11.1384 -0.766313 -1.28319)
(9.59329 -0.394448 -0.546587)
(12.2051 -0.395863 -0.126946)
(9.99961 -0.00828476 -0.000635383)
(9.53196 -0.906317 -0.97719)
(2.01392 -2.83744 -7.26421)
(9.85812 -1.72822 -2.32554)
(5.48438 -2.36241 -0.0840504)
(9.10758 -0.94552 1.26483)
(1.06177 -2.98479 -1.93021)
(10.0638 -0.0264562 0.000684205)
(9.08952 -0.736753 0.490057)
(8.86651 -0.5739 0.274468)
(8.18924 -1.84636 -1.56783)
(12.8521 -2.03296 -1.59278)
(3.07482 -0.890205 -2.83546)
(10.3392 -1.53292 -4.13116)
(13.0501 -0.782372 -4.74319)
(1.99499 -3.1899 -5.80751)
(9.07409 -2.6774 -4.65225)
(12.8609 -1.96263 -1.85652)
(10.9705 -0.517461 0.364021)
(7.29001 0.257747 1.0335)
(10.2395 -1.0304 -2.66376)
(8.80016 -1.91633 -0.126858)
(13.543 -1.40477 -3.57535)
(12.2166 -1.11774 -1.05622)
(12.3609 -1.01596 -0.859366)
(12.2236 -0.987372 -0.83414)
(11.6194 -2.43442 -3.00052)
(11.1494 -1.54894 -2.19238)
(12.625 -1.84472 -2.21291)
(11.2671 -0.913449 -1.05352)
(7.82382 -0.696032 0.0818651)
(6.63987 -0.598381 0.807231)
(0.806082 -0.419686 -4.3668)
(8.72138 -0.40641 -1.64778)
(9.75848 -0.454584 -1.36023)
(3.29852 -0.328292 1.14611)
(12.2342 -0.544736 -8.31044)
(2.03295 -0.335234 -5.83496)
(9.12253 -0.480735 -4.63276)
(3.23554 -0.196877 -3.59215)
(11.707 -0.927586 -0.901424)
(12.9482 -1.19121 -1.0182)
(11.6285 -0.75883 -0.605251)
(10.0066 -0.0167024 0.00430613)
(4.69326 -2.28279 -0.519156)
(11.9924 -1.29873 -1.7775)
(9.69954 -1.37134 -2.40241)
(10.2243 -1.26704 -2.02476)
(11.8701 -1.56314 -4.02931)
(9.00909 -1.79614 -2.41131)
(12.586 -0.981226 -0.755341)
(12.5901 -1.03031 -0.961668)
(11.4483 -0.815945 -0.59808)
(11.7689 -0.796285 -0.544973)
(11.8785 -1.50538 -1.70537)
(12.4562 -1.37353 -1.4076)
(11.4937 -1.84815 -3.28245)
(12.1358 -1.13666 -1.1422)
(11.9169 -2.78235 -3.69107)
(11.3082 -2.50634 -3.86497)
(12.7477 -2.22344 -4.44237)
(10.0524 -2.12054 -3.43339)
(12.9289 -1.29274 -1.12209)
(6.74661 -1.38282 -5.18733)
(6.94591 -1.20865 -4.72641)
(10.0073 -0.00838112 -0.00769561)
(6.55559 -1.16759 -4.12548)
(3.99098 -1.6192 -3.32382)
(3.76813 -1.73558 -3.97279)
(10.0188 -0.00776852 0.00267959)
(9.94484 0.00266036 0.00951181)
(5.46907 -1.51481 -2.44148)
(4.07462 -1.73827 -1.63198)
(5.70471 -1.35305 -3.74793)
(12.5764 -1.30368 -2.5806)
(11.7493 -1.39184 -3.07528)
(9.00689 -1.65687 -7.60675)
(10.9203 -2.0489 -4.46137)
(11.1499 -0.590213 -7.18067)
(10.6613 -1.02592 -5.44376)
(10.0047 -0.934735 -4.71993)
(10.065 -1.21087 -8.62762)
(8.19322 -0.903592 -8.28448)
(9.16941 -1.24706 -3.47444)
(7.11067 -2.49491 -4.50684)
(8.5238 -0.858136 -5.93393)
(9.97304 -0.0100932 0.00489546)
(10.6437 -2.05609 -3.72829)
(9.92127 -0.514723 -0.416541)
(9.66259 -0.548756 -0.44148)
(10.7133 -0.596899 -0.681568)
(10.7645 -0.662719 -0.538452)
(10.5361 -0.647009 -0.56855)
(10.5322 -0.619426 -0.269995)
(11.0228 -0.521844 -0.804692)
(10.8297 -0.510767 -0.677863)
(8.93633 -0.734981 0.382588)
(11.2803 -0.66454 -0.943342)
(11.442 -0.56426 -0.800624)
(11.1453 -0.74691 -0.512234)
(11.039 -0.728776 -0.557611)
(11.2142 -0.524695 -0.699046)
(11.3069 -0.551232 -0.730254)
(5.94836 -1.92172 -5.60524)
(7.27803 -0.783319 -0.478441)
(11.1468 -1.44088 -3.46029)
(11.9803 -0.434605 -0.045443)
(12.2299 -0.499163 -0.24233)
(11.785 -0.426216 -0.158955)
(12.5544 -0.555303 -0.251702)
(11.8541 -0.330047 0.0396401)
(12.7061 -0.434801 -0.344463)
(8.33576 -0.696037 -1.82516)
(12.9299 -0.405929 -2.91288)
(13.4842 -0.830636 -4.10136)
(12.7477 -0.737843 -2.79251)
(3.48837 -0.914077 -2.25907)
(8.24308 -0.69252 -3.47663)
(10.3901 -0.845672 -6.89003)
(9.09897 -0.937753 -7.87591)
(12.4506 -0.427319 -3.66744)
(5.95252 -0.423389 -3.24769)
(13.5456 -0.59705 -2.76941)
(13.6433 -0.499555 -1.86842)
(13.4856 -0.381958 -2.15253)
(13.5613 -0.479155 -1.509)
(13.5004 -0.823389 -3.15003)
(13.5815 -0.920953 -2.50716)
(11.6512 -0.691373 -0.937458)
(11.7111 -0.585604 -0.44752)
(11.4383 -0.633132 -0.346119)
(11.4306 -0.618051 -0.8393)
(10.0231 -0.016067 0.00575632)
(11.461 -0.731206 -1.08419)
(11.3524 -0.5707 -0.338104)
(11.6571 -0.406081 -2.49395)
(12.978 -1.43885 -1.35201)
(10.6997 -0.488852 -2.97234)
(10.7906 -0.522595 -2.63822)
(11.2353 -0.600241 -2.56525)
(11.9693 -0.411166 -2.43433)
(11.4374 -0.540237 -4.78039)
(11.8809 -0.90683 -4.01726)
(9.7464 -0.350826 -0.0353534)
(6.51139 -0.731215 -4.6663)
(6.7539 -0.664573 -5.4911)
(5.48404 -0.870438 -4.29454)
(5.23207 -0.59489 -5.42017)
(5.47129 -0.552045 -6.03901)
(6.3143 -0.592596 -2.65317)
(8.84154 -0.810866 -2.67266)
(9.73684 -0.552302 -3.78496)
(7.8802 -0.720959 -0.924076)
(7.00857 -0.931173 -0.918945)
(7.45871 -0.746512 -1.1939)
(7.31287 -0.74074 -0.945665)
(9.95076 -0.711338 -1.58505)
(10.0056 -0.0118935 0.00153748)
(9.77591 -0.712102 -1.3865)
(9.90019 -0.633064 -1.34631)
(10.0095 -0.023975 9.4602e-05)
(10.1208 -0.116167 -0.00872474)
(8.5783 -0.482547 -0.462941)
(8.7894 -0.71179 -0.183466)
(9.55229 -0.532796 -0.44515)
(10.3092 -0.297919 -0.382835)
(12.7022 -0.152622 0.71376)
(12.493 -0.382399 0.322022)
(9.68582 -0.25469 0.786379)
(10.0008 -0.00480725 -0.00232085)
(9.98217 -0.0424088 -0.00280201)
(11.3431 -0.898113 -0.91926)
(11.7659 -0.633932 -5.00945)
(12.5052 -0.385146 -4.59362)
(11.6928 -0.143754 -6.24122)
(12.9107 -0.0914332 -8.38966)
(10.8766 -1.06021 -1.01251)
(6.93291 -0.44467 -6.56318)
(6.08682 -0.563924 -3.38949)
(5.30035 -0.563707 -1.15778)
(10.1617 -0.335067 -4.74715)
(11.1206 -0.479625 -4.46636)
(6.64615 0.107709 -9.40671)
(10.2677 -0.277596 -0.440366)
(11.2889 -0.307015 -1.42476)
(10.4713 -0.395589 -1.81004)
(10.2689 -0.354753 -0.690295)
(9.80477 -0.289756 -0.627619)
(9.77028 -0.278682 -0.479383)
(9.01391 -0.606982 -0.568056)
(11.6098 -0.582067 -0.419829)
(9.30262 -0.561798 -0.371786)
(9.68352 -0.456276 -1.20118)
(9.64046 -0.391043 -0.731913)
(9.8061 -0.462841 -0.906475)
(8.20036 -0.524175 -0.417766)
(11.1175 1.76834 -3.00983)
(12.2918 0.704371 -5.81167)
(9.07403 -0.283412 -0.680882)
(3.84975 -0.376812 -4.94863)
(4.67698 -0.530417 -3.51066)
(2.90952 -0.495299 -1.09572)
(4.10176 -0.426423 -1.95764)
(2.91662 -0.451537 -3.21001)
(3.89293 -0.148162 -2.57219)
(6.10266 -0.68419 0.640989)
(5.30753 -0.574904 0.338332)
(11.5623 -0.643817 -0.493277)
(8.63738 -0.319639 -0.49671)
(8.7822 -0.282246 -0.187635)
(12.8741 -0.597471 -1.48643)
(13.4115 -0.484337 -2.11427)
(9.89392 -0.272181 -3.81521)
(11.1737 -0.357112 -2.57567)
(11.6557 -0.273263 -2.37418)
(11.5815 -0.368922 -1.87746)
(11.6482 -0.309781 -1.63241)
(11.62 -0.416017 -1.50101)
(6.51972 -1.56699 -3.89876)
(11.3423 -0.374551 -1.77312)
(9.12715 -0.273042 -3.19666)
(9.98846 -0.0340324 -0.00379685)
(11.5333 -0.189785 -0.168144)
(10.7539 -0.29133 -1.92989)
(11.2287 -0.423925 -2.04088)
(10.012 -0.0281071 0.00872535)
(10.0054 -0.0169712 -0.00510919)
(9.81546 -0.615178 -2.23192)
(10.0523 -0.0586798 -0.0172236)
(10.1024 -0.091202 0.0155361)
(10.1397 -0.544337 -2.43214)
(10.4471 -0.484854 -2.49445)
(10.0004 -0.625173 -1.97515)
(9.08681 -0.63439 -1.77541)
(8.88565 -0.581758 -1.96328)
(8.95326 -0.611976 -1.39933)
(9.0973 -0.541213 -2.08233)
(9.04386 -0.502861 -1.8089)
(9.45982 -0.243787 -0.68843)
(10.05 -0.119413 -0.0561383)
(9.66733 -0.193046 -0.567467)
(4.50323 0.29135 -0.133485)
(13.3569 -0.274653 -5.19993)
(13.2302 -0.595386 -4.95576)
(5.63637 -1.69963 -0.212589)
(13.7295 -0.404059 -1.79522)
(13.6256 -0.246565 -1.21045)
(13.8011 -0.423348 -2.1598)
(11.0598 -0.55999 -0.0157311)
(13.4445 -0.495783 -0.680686)
(5.87514 -0.564235 0.517156)
(6.5456 -0.484811 -0.00485005)
(6.38643 -0.479308 0.57719)
(4.83033 -0.650072 0.257065)
(5.44473 -0.370469 0.391903)
(8.94757 -0.335449 -0.0946962)
(0.523275 -2.54049 -1.9407)
(11.4334 -0.686981 -0.552981)
(9.87073 -0.20712 0.193219)
(9.4065 -0.471311 0.391875)
(13.2666 -0.259376 -1.22961)
(13.6134 -0.432544 -1.70507)
(14.2375 -0.338911 -2.88702)
(13.5865 -0.553677 -1.02554)
(4.15445 -0.267199 -1.63715)
(9.30482 -0.802551 0.713777)
(1.06243 -0.948156 -5.35552)
(12.002 -1.21041 -1.75199)
(10.6323 -1.72807 -4.88029)
(2.13713 -0.801352 0.885035)
(1.34505 -0.839591 -3.40102)
(12.794 -0.284878 -2.02342)
(12.067 -0.27752 -1.39984)
(11.7043 -0.606136 -5.55448)
(13.6401 -0.525777 -1.19835)
(12.5527 -0.355962 -1.90191)
(3.2717 -1.69544 1.11278)
(13.5427 -0.288182 -0.823855)
(13.2682 -0.455254 -0.604619)
(12.8112 -0.397096 -2.76177)
(11.404 -0.541905 -2.79297)
(10.1444 -0.375181 -3.86673)
(3.68423 -1.45739 -12.2338)
(8.81544 -0.316311 -2.86237)
(9.60848 -0.344459 -3.21612)
(0.62378 -0.115971 -0.872617)
(12.6206 -0.0746922 -0.29219)
(3.27455 -0.256072 0.338969)
(13.2363 -0.583987 -1.59014)
(13.6486 -0.540823 -5.32516)
(8.48941 -0.648204 -3.71945)
(9.04102 -0.262537 -3.21938)
(8.393 -0.408041 -1.18635)
(13.0072 -0.76327 -1.66328)
(8.74408 -0.286512 -0.749558)
(8.31112 -0.648905 -1.96028)
(8.42381 -0.478557 -0.244471)
(7.5853 -0.764462 0.147643)
(1.06572 -0.21013 -2.46794)
(4.70487 -0.201448 -2.26197)
(9.34002 -0.824702 -5.16786)
(6.23617 -0.590419 -0.648606)
(8.58436 -0.441488 -5.40633)
(1.31949 -1.19646 -9.18814)
(7.03281 -0.275256 0.262969)
(12.9481 -1.69285 -1.97549)
(12.9744 -1.25551 -1.20909)
(13.0623 -1.43189 -1.61717)
(1.01786 0.142062 -0.0940388)
(2.7862 -1.14506 -2.43718)
(12.2074 -0.680858 -0.455441)
(12.792 -1.27584 -1.52787)
(0.389398 -1.76651 -3.24251)
(11.3274 -0.271479 -3.85937)
(4.30354 -1.70123 0.251162)
(2.37092 -0.0934439 0.707502)
(3.11733 3.08885 -1.646)
(5.26539 -0.430955 -4.59485)
(11.756 -0.28699 -0.541318)
(14.4941 -0.175409 -3.3076)
(6.9043 -0.216641 -6.11482)
(7.79071 -0.879324 4.57496)
(4.83573 0.0218042 -0.681669)
(6.4023 -0.106316 0.00388028)
(9.28449 -0.497473 -0.621512)
(12.5509 -0.89259 -5.33074)
(3.87274 -2.16748 -0.122994)
(6.69501 -0.629361 -4.85513)
(0.654764 -0.836831 -8.62235)
(8.584 -0.632637 0.207533)
(1.22034 -2.60477 -3.64984)
(12.5579 -0.427714 -0.891779)
(11.8501 -1.31622 -1.15997)
(4.56935 -2.80155 -2.68698)
(10.1244 -0.576566 -3.00952)
(13.3159 -0.32808 -1.71914)
(11.9829 -0.719055 -0.585333)
(9.11611 -0.354661 0.108526)
(9.85402 -0.282655 -0.155828)
(8.96717 -0.808119 -0.734651)
(8.79633 -0.473485 -0.305052)
(10.0295 0.00806276 0.00139313)
(11.2118 -0.540814 -0.0325342)
(10.0564 -0.70032 -0.728819)
(9.55659 -0.490625 -0.117012)
(8.4336 -0.749032 0.17916)
(2.39552 -1.90537 -1.0959)
(5.90256 -0.712753 -0.308841)
(8.91224 -0.879616 0.63394)
(1.21211 -0.859152 -3.40225)
(11.5084 -1.2379 -1.95977)
(9.56645 -0.302884 0.131511)
(7.93459 -0.437523 -0.903134)
(6.95932 -0.463879 0.0152365)
(7.19502 -0.488477 -0.632655)
(6.44837 -0.511618 -0.516636)
(6.84835 -0.557785 -0.752904)
(7.33597 -0.480768 -0.65007)
(2.53425 -0.418044 -7.08707)
(10.5548 -0.604183 -0.0920442)
(9.87793 -0.389036 -0.727665)
(7.35248 -1.24688 -0.474456)
(12.3703 -1.44228 -1.09618)
(10.011 -0.405005 -1.22881)
(13.0124 -1.34371 -4.89105)
(11.9127 -0.534015 -3.76769)
(11.5904 -1.29456 -6.01711)
(11.4842 -0.535773 -0.299441)
(6.01967 -2.5079 -4.27977)
(1.1261 0.438761 0.393743)
(6.21563 -2.47398 -3.76536)
(8.21426 -0.532712 0.258527)
(7.21838 -3.1897 -3.93572)
(9.1936 -0.740208 0.653657)
(13.3118 -0.401892 -1.00713)
(5.13919 -2.66879 -4.47857)
(5.40224 -2.22105 -3.89569)
(8.01804 -1.21141 -2.6743)
(8.28816 -1.20103 -2.95642)
(8.76549 -1.32353 -2.57611)
(10.2394 -1.48686 -2.14823)
(13.6581 -0.040584 -0.234186)
(8.70724 -1.13383 -2.19069)
(11.3419 -0.870839 -3.08037)
(5.90706 -1.47215 -0.0149034)
(11.9158 -1.67308 -2.28701)
(9.50643 -0.734979 -1.09234)
(7.10992 -1.41456 -2.45308)
(10.0614 -1.44009 -1.93812)
(11.087 -0.974586 -1.22448)
(7.39009 -1.61234 -3.18104)
(11.9308 -1.10835 -1.27017)
(4.7375 -1.7606 -1.32886)
(11.407 -0.935139 -2.65323)
(12.1895 -0.389994 -3.40473)
(0.16035 -2.49735 -8.06575)
(4.23746 -0.481934 -3.66579)
(11.9558 -0.816845 -1.17891)
(10.6348 -0.48279 -0.659681)
(10.452 -1.58797 -2.5359)
(9.29568 -0.671243 -0.0156384)
(10.8625 -1.5779 -2.26617)
(12.8227 -1.40254 -1.0683)
(1.47216 -0.965777 -5.54703)
(1.24595 -0.947791 -3.82683)
(2.66081 -0.735998 -4.59566)
(8.25335 -1.63821 -4.80784)
(0.513728 -0.659101 -4.78927)
(5.14205 -1.17374 2.07952)
(9.67941 -1.18993 -11.6938)
(4.04795 -2.37853 -0.301218)
(7.61945 -1.54429 4.71373)
(10.6761 -0.488459 -0.864584)
(9.28725 -1.46862 -5.10889)
(9.99935 0.0021046 -0.00869197)
(10.0115 -4.95971e-05 -0.00553332)
(11.5789 -0.573251 -6.28934)
(9.99017 0.000876982 -0.00179957)
(9.99973 0.00391818 -0.00108376)
(10.097 -0.0108898 0.0561187)
(12.3242 -0.741966 -5.02603)
(11.1962 -0.997692 -4.64465)
(10.2582 -0.72912 -0.878054)
(10.161 -0.723765 -0.855734)
(8.76858 -0.610003 -3.9555)
(9.81879 -4.2699 -3.29438)
(10.165 -0.781182 -0.742628)
(13.527 -0.762794 -1.51647)
(13.4174 -0.883589 -2.11281)
(9.97953 -0.0189121 0.0109231)
(12.3413 -0.650227 -0.510272)
(12.128 -0.70611 -0.816347)
(9.60905 -2.86433 -2.17565)
(12.2454 -1.91975 -2.26948)
(10.0624 0.00161224 0.0268228)
(9.99275 -0.00186756 0.00560412)
(8.6193 -0.679063 -2.42661)
(12.1885 -1.93176 -3.7422)
(10.0172 -0.0610926 -0.0260131)
(10.0126 -0.00675029 -0.00170356)
(5.24843 -2.73189 -0.23531)
(8.50776 -1.84339 -2.2947)
(9.98906 0.00283565 0.0127957)
(10.4579 -1.49179 -2.27674)
(5.35494 -0.40956 1.38467)
(12.6878 -0.153263 0.805034)
(10.0067 -0.0158024 -0.00070177)
(11.0835 -0.268919 -1.74696)
(10.0048 -0.00516565 -0.00638452)
(10.31 -0.515378 -0.478357)
(9.93784 -1.33679 3.35581)
(9.86323 -0.143048 -0.0851013)
(11.9434 -0.413158 -4.07334)
(11.2034 -0.839475 -4.82989)
(11.1331 -0.8481 -7.10359)
(13.247 -0.590355 -3.16925)
(6.89201 -0.5334 1.37577)
(12.5216 -0.424022 -3.04999)
(5.43828 -0.868007 -2.65353)
(11.7407 -0.354185 -0.147672)
(9.71917 -0.35053 -0.191085)
(9.20714 -0.612867 -1.1843)
(3.90423 -0.719376 -2.34009)
(8.3609 -0.860938 -5.53515)
(9.0159 -0.46968 -6.66038)
(12.7838 -0.336276 -0.649068)
(4.68751 -1.3732 -4.88884)
(13.0251 -0.221603 -0.138073)
(13.0493 -0.294311 -0.244695)
(13.214 -0.325422 -1.13935)
(9.54511 -0.380561 -0.10609)
(10.0142 -0.00482251 0.000428328)
(10.0062 0.00574132 -0.00177057)
(7.97103 -0.759644 1.06555)
(11.8319 -2.28461 -4.2136)
(9.50604 -0.322627 0.119846)
(7.69842 -0.537023 -1.44269)
(8.70323 -0.488987 -1.08549)
(12.0661 -0.42689 -0.842713)
(9.04212 -0.77501 -0.620762)
(13.1369 -0.188575 -1.89364)
(8.91741 -0.291659 0.755303)
(10.4439 -0.396704 -1.10862)
(10.4657 -1.08858 -12.7727)
(9.74316 -0.393284 -0.228702)
(7.90088 -0.736788 0.799368)
(12.0383 -0.376639 -0.496856)
(12.0694 -0.39427 -0.420492)
(9.98618 -0.493461 -3.14571)
(11.8949 -0.452939 -0.533857)
(7.22605 -0.517161 -1.93718)
(7.74103 -0.305299 -1.32591)
(8.59166 -0.462092 0.259016)
(9.95847 -0.381507 -0.210532)
(5.74918 -0.843509 -10.0986)
(9.72297 -0.290128 -0.178241)
(6.80518 5.04206 -1.84269)
(4.18886 -1.16596 0.0122305)
(8.07356 -0.704487 -0.0116081)
(10.766 -0.575859 -1.63002)
(8.59384 -0.667233 -3.64998)
(12.5196 -0.321749 -2.37837)
(10.2147 -0.365671 -4.81257)
(11.0861 -0.284149 -4.04319)
(12.0261 -0.443264 -0.835686)
(9.80542 -0.13473 -0.098877)
(11.4858 -0.465308 -0.959227)
(13.0764 -0.68797 -2.87448)
(12.4507 -0.391779 -2.91123)
(10.5156 -0.471751 -5.45561)
(11.9204 -0.344359 -2.6123)
(3.47547 -0.425892 0.0846708)
(13.3359 -0.39518 -4.06336)
(5.0355 -0.542315 -7.61685)
(6.64673 -0.107135 0.628411)