/*--------------------------------*- C++ -*----------------------------------*\
| =========                 |                                                 |
| \\      /  F ield         | OpenFOAM: The Open Source CFD Toolbox           |
|  \\    /   O peration     | Version:  2506                                  |
|   \\  /    A nd           | Website:  www.openfoam.com                      |
|    \\/     M anipulation  |                                                 |
\*---------------------------------------------------------------------------*/
FoamFile
{
    version     2.0;
    format      ascii;
    arch        "LSB;label=32;scalar=64";
    class       volScalarField;
    location    "0.0883272";
    object      k;
}
// * * * * * * * * * * * * * * * * * * * * * * * * * * * * * * * * * * * * * //

dimensions      [0 2 -2 0 0 0 0];

internalField   nonuniform List<scalar> 
47425
(
0.274517
0.306082
0.292966
0.299668
0.440301
0.295159
0.398793
0.302193
0.366887
1.52286
0.311633
0.322324
0.342338
0.29356
0.285446
0.313352
0.288812
0.311259
1.04808
0.497149
0.297479
0.28584
0.298471
0.293075
0.292284
0.27403
0.277205
0.778801
0.275128
0.279636
0.289684
0.31584
0.356124
0.278936
0.270189
0.289994
0.282518
0.363339
0.285554
0.294927
0.344947
0.813112
1.09055
0.3784
1.67923
0.321055
0.312015
0.350646
0.283354
0.275524
0.735643
0.580971
0.273969
0.885142
0.349654
0.349687
0.277246
0.277204
0.375893
0.287637
0.835185
0.824247
0.919413
0.299061
0.364462
0.278886
0.341096
0.343199
0.865283
0.291613
0.286015
0.270899
0.273561
0.291684
0.96558
0.368709
0.977977
0.289152
0.828852
0.496554
0.958943
0.293278
0.286596
0.348596
0.346597
0.298177
0.270955
0.267882
0.49137
0.54927
0.286077
0.319748
0.276746
0.363345
0.374615
0.356394
0.275792
0.278433
0.294276
0.346467
0.334355
0.399236
0.288522
0.414998
0.281715
0.347563
0.296586
0.304849
0.472428
0.307028
1.39443
0.318374
0.402774
0.341091
0.304308
0.765872
0.299916
0.591917
0.318423
0.310293
0.305973
0.362698
0.34289
0.323083
0.336474
0.367552
0.300286
0.364887
0.341087
0.276906
0.28521
0.305602
0.464091
0.329117
0.621836
0.320972
0.286836
0.373119
0.2922
0.288842
0.354005
0.33371
0.312713
0.433739
0.30931
0.366223
0.408056
0.339852
0.344855
0.361577
0.437962
0.751077
0.360297
0.755523
0.30434
0.300532
0.312933
0.875401
0.327312
0.305334
0.311234
0.274709
0.269024
0.288592
0.726748
0.791399
0.337739
0.959301
0.321328
0.832878
1.15226
0.327546
0.353841
0.292541
0.323657
0.34983
0.796971
0.273756
0.275791
0.276931
0.799998
0.269646
0.273261
0.274568
0.275822
0.336708
0.291523
0.384618
0.336094
0.27871
0.357974
0.280224
0.382323
0.365297
0.275914
0.292792
0.360532
0.300097
0.305729
0.271561
0.312123
0.359686
0.421687
0.294572
0.307831
0.368084
0.272614
0.290197
0.346539
0.361897
0.276542
0.284954
0.352099
0.299325
0.284019
0.28022
0.290469
0.571056
0.310485
0.352938
0.497471
0.275974
0.601206
0.283562
0.387814
0.478831
0.276783
0.29726
0.324255
0.358353
0.290585
0.293416
0.320031
0.36937
0.356512
0.304329
0.537629
0.310154
0.500797
0.354451
0.323471
0.271215
0.274921
0.283368
0.280197
0.362565
0.287372
0.35755
0.274398
0.285674
0.277519
0.47044
0.283675
0.365695
0.296051
0.276092
0.289096
0.35228
0.290097
0.357613
0.368884
0.352129
0.29964
0.350404
0.350435
0.33507
0.277096
0.348408
0.278155
0.312391
0.304513
0.489715
0.540002
0.279909
0.479254
0.363292
0.481215
0.415001
0.525135
0.499488
0.82579
0.271382
0.893414
0.348229
0.291807
0.284988
0.337446
0.306057
0.350739
0.320026
0.725687
0.293717
0.371308
0.278223
0.289098
0.304586
0.296141
0.281758
0.308646
0.333571
0.309884
0.271786
0.304514
0.282454
0.853952
0.7839
0.735176
0.275817
0.274286
0.282142
0.298521
0.745647
0.302208
0.312545
0.556047
0.316935
0.331613
0.360123
0.299315
0.62969
0.521757
0.29306
0.298626
0.271118
0.313669
0.275936
0.299427
0.274123
0.27517
0.281192
0.285657
0.985028
0.299345
0.2838
0.383802
0.276303
0.904341
0.310677
0.272255
0.280937
0.289861
0.289754
0.271869
0.288286
0.269315
0.280102
0.27906
0.284453
0.287155
0.313428
0.292507
0.278433
0.301236
0.291974
0.295605
0.312552
0.301149
0.286936
0.298062
0.360265
0.322337
0.310272
0.296744
0.299779
0.280191
0.297676
0.35248
0.358444
0.315204
0.288277
0.344042
1.07782
0.284939
0.291049
0.385664
0.289486
0.460308
0.355745
0.364436
0.283263
0.357607
0.289742
0.275888
0.355244
0.326075
0.364513
0.297572
0.288072
0.349718
0.296737
0.293191
0.294267
0.303944
0.283281
0.2832
0.291421
0.316646
0.294993
0.368575
0.273345
0.597397
0.274446
1.0218
0.305781
0.344422
0.33184
0.276332
0.334248
0.275625
0.31043
0.291733
0.528106
0.78925
0.273639
0.308932
0.291181
0.291154
0.298776
0.286807
0.287634
0.342684
0.303088
0.279572
0.293932
0.299614
0.2768
0.418964
0.289891
0.293081
0.458179
0.37696
0.28468
0.57699
0.396848
0.345616
0.388493
0.675972
0.276292
0.289777
0.290622
0.289769
0.603281
0.305489
0.272712
0.278026
0.294903
0.295343
0.300602
0.281352
0.674522
0.584021
0.469585
0.356379
0.366085
0.454855
0.275591
0.289472
0.330642
0.288787
0.355172
0.363124
0.377802
0.289217
0.369613
0.292779
0.292751
0.308752
0.293629
0.292612
0.288606
0.348575
0.357669
0.367377
0.310837
0.306132
0.321211
0.289834
0.818239
0.360538
0.367561
0.344928
0.322997
0.69385
0.304451
0.274577
0.307164
0.350141
0.326979
0.305012
0.319458
0.280977
0.299763
0.275664
0.303193
0.409425
0.272151
0.3192
0.31672
0.330012
0.274615
0.275524
0.276822
0.284292
0.285085
0.304499
0.283377
0.277359
0.284286
0.299126
0.300061
0.314174
0.302505
0.276156
0.302642
0.270076
0.275455
0.285253
0.309461
0.309969
0.308536
0.363305
0.375393
0.705727
0.290875
0.284645
0.32399
0.365735
0.424656
0.426266
0.314326
0.282425
0.320169
0.407242
0.316074
0.432586
0.362381
1.44588
0.315289
0.31728
0.279841
0.425074
0.277212
0.285594
0.290277
0.370228
0.275918
0.270678
0.999642
0.279749
0.333083
0.275829
0.406613
0.269423
0.279012
0.389073
0.377324
0.291977
0.273935
0.260484
0.274301
0.291675
0.274191
0.273962
0.271825
0.349408
0.423032
0.292855
0.32139
0.291749
0.276178
0.495589
0.286898
0.324852
0.179508
0.29114
0.276667
0.237834
0.720378
0.296286
0.190249
0.210303
0.277109
0.346964
0.272162
0.280843
0.361944
0.314441
0.94222
0.287898
0.31837
0.274343
0.429628
0.344646
0.369484
0.297727
0.744912
1.92151
0.286664
0.305869
0.326804
0.29544
0.346839
0.358117
0.317846
0.311251
0.378946
0.28061
0.359115
0.441804
0.314186
0.285134
0.446551
0.329608
0.287552
0.302333
0.322747
0.278448
0.361918
0.33883
0.328029
0.343282
0.279857
0.296317
0.917856
0.293764
0.372908
0.80081
0.763426
0.277429
0.352718
0.681174
0.327203
0.387834
0.784668
0.376793
0.73644
0.275117
0.273224
0.354826
0.477845
0.381506
0.375569
0.272315
0.35513
0.280324
0.299743
0.270283
0.320405
0.290051
0.793948
0.659398
0.316264
0.308497
0.32512
0.292054
0.374347
0.351686
0.35241
0.360589
0.34262
0.293918
0.314404
0.354473
0.281067
0.35221
0.338848
0.917132
0.530901
0.315019
0.286194
0.350754
0.275603
0.87293
0.287149
1.39466
0.331136
0.415336
0.320543
0.299885
0.314384
0.278583
0.326348
0.290862
0.272756
0.38253
0.35401
0.368556
0.362464
0.346694
0.936053
0.320914
0.365087
0.344678
0.363677
0.276427
0.327459
0.311023
0.361048
0.341379
0.301567
0.333266
0.297376
0.317048
0.288971
0.283775
0.441191
0.509325
0.284558
0.406527
0.28306
0.302134
0.290504
0.276262
0.625024
0.272693
0.2962
0.292259
0.27421
0.615494
0.892585
0.29541
0.333934
0.277217
0.322923
0.274266
0.30221
0.303269
0.513268
0.301262
0.275643
0.294657
0.278443
0.292878
0.286717
0.270797
0.296605
0.276128
0.271277
0.299316
0.502926
0.275082
0.255117
0.598148
0.52352
0.271592
0.304942
0.786346
0.328719
0.309201
0.466744
0.245799
0.764656
0.31543
0.281577
0.438091
0.313955
0.520675
0.296078
0.326154
0.28117
0.280632
0.406015
0.344113
0.294326
0.319382
0.32099
0.346319
0.34833
0.37843
0.453144
0.431975
0.767281
0.890042
0.825075
0.568543
0.596324
0.363099
0.345389
0.282468
0.275525
0.321229
0.29236
0.306899
0.316811
0.333004
0.27703
0.320446
0.359519
0.277046
0.363763
0.305623
0.276019
0.348603
0.27653
0.283182
0.28736
0.324254
0.39106
0.279336
0.276114
0.284457
0.343061
0.333774
0.479364
0.4039
0.27575
0.321918
0.271485
0.279404
0.281686
0.326093
0.341685
0.442859
0.295134
0.282145
0.284819
0.366811
0.868214
0.29357
0.293514
0.362964
0.320512
0.34293
0.316072
0.30177
0.3768
2.34125
0.410329
0.848758
0.366857
0.361977
0.271092
0.371606
0.281549
0.313675
0.309655
0.283162
1.68196
0.395034
0.334966
0.662252
0.341567
0.269222
0.298066
0.373095
0.28275
0.320668
0.198934
0.279739
0.358478
0.356311
0.376421
0.684517
0.358328
0.340381
0.455593
0.284116
0.28684
0.405282
0.490288
0.312587
0.378234
0.409982
0.316826
0.289476
0.282075
0.306327
0.339263
0.337857
4.15279
0.642371
0.336052
0.518604
0.485626
1.07794
1.5967
0.47147
0.348465
0.360762
0.373541
0.344736
2.89699
0.282623
0.303457
0.372762
0.227966
0.308669
0.367898
0.342469
0.277316
0.369224
0.435019
0.363484
1.43054
0.272122
0.350978
0.376584
0.365703
0.357266
0.34985
0.37481
0.41648
0.318126
0.334482
0.425408
0.298303
0.285798
0.310536
0.384807
0.279211
0.380758
0.349428
0.341829
0.602883
0.821084
0.281698
0.3635
0.293201
0.36189
0.350189
0.617749
0.519817
1.18513
0.285355
0.336882
0.299113
0.84029
0.297218
1.80432
0.390971
0.371167
0.451439
0.540576
0.303409
0.286073
0.288949
0.297886
0.422557
0.297544
0.368258
1.27211
0.350354
0.277748
0.282873
0.628185
1.109
0.468066
0.510113
0.895121
0.383586
0.331363
0.358064
0.29274
0.432199
0.352558
0.368776
0.98325
0.302022
0.280247
0.285759
0.357109
0.355378
0.366145
0.307909
0.290056
0.426717
0.283876
0.316771
0.286013
0.352838
0.346459
0.34794
0.315259
0.306568
0.290168
0.360559
0.293708
0.296251
0.306191
0.291179
0.345569
0.411423
0.3209
0.339881
0.284955
1.56287
0.365711
0.349803
0.314162
0.874523
0.728534
1.24926
0.317547
0.318185
0.307048
0.720371
0.343571
0.310992
0.348127
0.340332
0.364161
0.876242
0.348339
0.289967
0.344666
0.325562
0.273643
0.535097
0.958029
0.294221
0.966421
0.325294
0.610034
0.523448
0.301826
0.33084
0.357532
0.592688
0.325162
0.308542
0.308803
0.682955
0.469758
0.582417
0.298622
0.310958
0.280306
0.292011
1.54692
1.47357
0.328287
0.331399
0.3614
0.854314
0.284176
0.276122
2.39774
1.3437
0.355629
0.288826
0.830842
1.48124
1.1977
0.360819
0.786522
1.45997
0.966963
0.308207
0.408707
0.406843
0.307877
0.311185
1.5621
1.28573
0.328253
0.337075
0.345085
0.291971
0.309886
0.315794
0.433472
0.326956
0.366938
0.282449
0.371919
1.48794
0.947003
0.293626
0.527952
0.405691
0.308209
0.463382
0.276401
0.325527
0.293065
0.310804
0.376761
0.282587
0.722864
0.290337
0.801194
0.540734
0.977726
0.3922
0.420962
0.323042
0.349621
0.350844
0.507626
1.04246
0.344969
1.0482
0.469636
0.700998
0.436266
0.823661
0.652881
0.304404
0.362574
0.928721
0.332484
0.285427
0.290195
0.784949
0.676559
0.293082
0.307762
0.59853
0.367962
1.04457
0.755808
0.341256
0.416379
1.00153
0.338064
0.297468
0.852657
0.288497
0.815775
0.761434
0.286725
0.282636
0.301309
0.27774
0.359468
0.293411
0.290346
0.351182
0.357769
0.433953
0.30845
0.295256
0.474499
1.83948
0.749024
0.32443
0.31101
0.517463
0.289847
0.946937
0.324674
0.324292
0.350768
2.08121
0.330327
2.04428
0.377317
0.461948
0.310529
0.735677
0.573833
0.606563
0.396653
0.498005
0.339358
0.363526
0.354606
0.549494
0.329769
0.424297
0.752372
0.388159
0.415476
0.883775
0.319967
0.292398
0.653136
1.48943
0.366623
0.311816
0.35933
0.379488
1.17764
1.06795
0.278067
0.296212
0.359141
0.791754
0.355932
0.540219
0.342956
0.346817
0.352531
0.443286
0.325074
0.55774
0.580491
0.31788
0.347879
0.402084
0.306607
0.854826
2.04197
0.312439
0.799815
0.822644
0.376772
0.737252
0.360611
0.333906
1.00793
0.336507
1.14036
3.14196
0.300661
0.339849
0.403858
0.365346
0.353174
0.360397
0.46526
0.365636
0.306398
0.358728
0.307825
0.674052
0.36082
0.330757
0.353854
0.575688
0.287648
0.783234
0.703521
0.332587
0.821022
1.96161
0.283542
0.425766
0.443136
0.341815
0.315616
0.481858
0.852783
0.460028
1.09794
0.288536
0.716628
0.420221
0.276341
0.350452
0.349506
0.454092
0.30938
0.354309
0.533576
0.277142
0.532859
0.340345
1.40284
0.361745
0.276614
0.338799
0.484683
0.329228
0.71748
0.411605
0.296228
0.630275
0.285379
0.315915
1.26654
0.274356
0.357515
0.665857
0.315978
0.992434
1.15684
0.350161
0.36514
0.284285
0.846779
0.484029
0.938908
0.747495
0.378861
0.313446
0.391521
0.961135
0.949793
1.23513
0.33983
0.357545
0.329291
0.295947
0.367221
0.677912
0.347204
0.329984
0.317837
0.279852
0.299434
0.353098
0.28998
0.348867
0.35015
0.388688
0.284318
0.34682
0.533516
0.301479
0.282181
0.357697
0.32684
0.359399
0.279242
0.313418
0.3185
0.292815
0.375958
0.539863
0.336939
0.294566
0.282235
0.276545
0.488331
0.302446
0.299642
0.499266
1.0109
0.668664
0.292075
0.488408
0.433384
0.369736
0.442813
0.387752
0.422891
0.347234
0.293075
0.344999
0.356757
0.290434
0.353906
0.366271
0.335929
0.29117
0.293778
0.34364
0.47006
0.334856
0.379794
0.77765
0.34648
0.642876
0.369689
0.827597
0.272254
0.348179
0.323394
0.282215
0.294892
0.365883
0.277663
1.2554
0.523353
0.764174
0.341689
0.862388
0.285379
0.31024
0.493461
0.294728
0.756127
0.389119
0.582568
0.331635
0.947534
0.910852
0.290904
0.275502
0.948015
0.298664
0.973702
0.318124
0.343533
0.289372
0.28383
0.28419
0.301312
0.317486
0.650693
0.368551
0.385281
0.30835
0.326634
0.274267
0.355066
1.3083
0.34879
1.38485
0.570051
0.289319
0.358653
0.308062
0.310737
0.305137
0.333048
0.331444
0.362906
0.315826
0.280286
0.316984
0.344434
1.30073
1.47484
0.315418
0.329278
2.13784
0.323325
0.280081
0.280315
0.276799
0.318592
0.358985
0.400063
0.377935
0.308826
0.28859
0.362755
0.274595
0.271452
0.293594
0.678677
0.384515
0.779831
0.714655
0.774221
0.291812
0.283223
0.281385
0.278257
0.278583
0.598266
0.304817
0.272357
0.298552
0.34633
0.292544
0.404927
0.288497
0.360768
0.414825
0.305867
0.280153
0.288568
0.307865
0.310335
0.287756
0.317458
0.302294
0.470144
0.304051
0.350193
0.3857
0.302569
0.306094
0.28462
0.310658
0.295237
0.343881
0.377004
0.286092
0.270866
0.297395
0.29889
0.290337
0.333814
0.277042
0.312622
0.28705
0.29667
0.794833
0.294519
0.387603
0.269639
0.281377
0.619882
0.295308
0.345977
0.27586
0.286217
0.328894
0.353222
0.701703
0.367706
1.50124
0.279208
0.287149
0.341348
0.27625
0.271719
0.37578
0.3098
0.271686
0.273668
0.879282
0.394605
0.619334
0.340918
0.500005
0.363136
0.287774
0.383161
1.50336
0.341475
0.293388
0.291725
0.740265
0.28594
0.297012
0.308309
0.307164
0.385111
0.729079
0.289297
0.302918
0.347457
0.304915
0.332801
0.845845
0.754598
0.286858
0.280707
0.277039
0.332968
0.318671
0.274924
0.746488
1.18651
0.282996
0.331988
0.804824
0.291714
1.69153
0.413781
0.275671
0.285883
0.282159
0.292091
0.540627
0.309104
0.308169
0.294287
0.329591
0.296327
0.361543
0.569146
0.362926
0.45181
0.463547
0.428328
0.539565
0.332755
0.387718
0.368167
0.379195
0.320404
0.295578
0.765917
0.54199
0.377901
0.328101
0.36054
0.325123
0.314138
0.238412
0.274415
0.2747
0.357061
0.349904
0.456108
0.38162
0.800264
0.668369
0.304092
0.37789
0.290086
0.292185
0.365123
0.280362
0.300685
0.279874
0.275493
0.226512
0.226362
0.276147
0.387364
0.641333
0.9719
0.317515
0.275187
0.43783
0.463279
0.780927
0.301237
0.77808
0.888177
0.95442
0.85452
0.368425
0.277019
0.273583
0.360613
0.807145
0.275035
0.372716
0.320165
0.276221
0.484511
0.44357
0.424959
0.308788
1.21787
0.276921
0.285867
0.3115
0.31478
0.55988
0.645699
0.320459
0.429356
0.300891
0.338089
0.306376
0.847194
0.353672
0.817282
0.371897
0.812458
0.35274
0.455702
0.63686
0.490667
0.380213
0.38269
0.663475
0.352511
0.353864
0.360477
0.35123
0.360715
0.340967
1.22683
0.492541
0.308811
0.547561
0.565317
0.542172
0.29087
0.283854
0.642639
0.610118
0.775279
0.298633
1.0747
0.288955
0.951908
0.612631
0.512749
0.664015
0.281626
0.329665
0.283429
0.32682
0.322727
0.479758
0.397753
0.282167
0.294932
0.342241
0.307173
0.279334
0.2749
0.431007
0.277799
0.272538
0.311178
0.386998
0.39789
0.310264
0.343261
0.350198
0.336798
0.519276
0.399232
0.292492
0.29155
0.451154
0.521612
0.29603
1.92059
0.319786
0.387313
0.923153
0.357208
0.295294
0.278093
0.455808
0.301708
0.272931
0.349905
0.297645
0.285575
0.297077
0.282064
0.334186
0.304531
0.309984
0.286654
0.339538
0.630282
0.289019
0.301
0.29229
0.300612
0.385527
1.11133
0.300152
0.284462
0.309901
0.527599
0.254608
0.323736
0.307408
0.795065
0.331552
0.369844
0.354147
0.369933
0.331087
0.339669
0.298144
0.472776
0.356504
0.342581
1.26264
0.302709
0.373952
0.331337
0.322154
0.353473
0.39078
0.298555
0.336521
0.282176
0.321434
0.308752
0.330707
3.08666
0.287942
0.382372
0.375971
0.343898
0.60319
0.331124
0.65894
0.354446
0.527018
0.634575
0.312832
0.281168
0.389072
0.355949
0.313598
0.283073
0.73285
0.420404
0.34043
0.931969
0.613322
0.292599
0.454526
0.381773
1.23538
0.874153
0.361669
0.402882
0.46201
0.553824
0.439491
0.881403
0.214063
0.582594
0.301818
0.553354
0.355598
0.369075
0.374148
0.349065
0.310337
0.345306
0.556383
0.302428
0.349503
0.358721
0.460198
0.714755
0.384498
0.69374
0.320037
1.00163
0.373324
0.374643
0.802425
0.527724
0.668552
0.590533
0.599941
0.507669
0.429514
0.397501
0.323656
0.354755
0.351956
0.720862
0.33208
0.332617
0.295506
0.457407
0.344378
0.288839
0.801314
0.464987
0.474009
0.161371
0.387655
0.314271
0.337379
0.328636
0.349557
0.324706
0.26954
0.317568
0.366358
0.161644
0.155483
0.465663
0.324813
0.402409
0.382669
0.421116
0.362459
0.346016
0.330626
0.133233
0.335885
0.367147
0.137896
0.36237
0.816357
0.560688
0.320408
1.49636
0.379344
0.435401
1.04197
0.384228
0.367834
0.287181
0.554574
0.276702
0.283832
0.326493
0.354724
0.353667
0.31508
0.57475
0.353681
0.433905
0.294055
0.376416
0.359689
0.27526
2.12746
0.472373
1.03664
0.426189
0.28777
0.88071
0.449482
0.282296
2.26084
0.28424
0.279821
0.444533
0.426847
0.935888
0.994599
0.318581
0.63584
0.933508
0.380868
0.607447
0.942415
0.999749
2.15932
0.345633
0.330323
0.542339
0.608123
0.386431
0.905232
0.328858
0.302996
0.478406
0.327311
0.28513
0.369792
0.712912
0.645395
0.273722
0.469922
0.289733
0.379546
0.31343
0.376393
0.560647
0.391632
0.743651
0.351377
0.360678
0.691145
0.282852
0.291827
0.408818
0.284232
0.325071
1.08302
0.304748
0.839407
0.764
0.769913
0.794055
0.376378
0.358643
0.280118
0.276645
0.381998
0.285662
0.295108
0.385276
0.294859
0.371695
0.88968
0.284263
0.48246
0.283237
0.43073
0.336555
0.797278
0.347279
0.425367
0.288675
0.308
0.395992
0.281731
0.305794
0.298689
0.281477
0.48083
0.301637
0.352138
0.326155
0.291861
0.342009
0.312405
0.352921
0.935032
0.30596
0.291645
0.289548
0.352776
0.134431
0.579539
0.431664
0.633808
0.983714
0.212855
0.390291
0.0711105
0.182063
1.1177
0.370154
0.500017
0.24177
0.675821
0.647636
1.15521
0.326282
0.303595
0.502476
1.27537
0.312424
0.362152
0.411978
0.391643
0.374976
0.362913
0.904313
1.42711
0.174981
0.340393
0.141468
0.33353
1.30563
0.298757
0.327696
0.300671
0.289094
0.40412
0.298957
0.53307
0.411759
0.318096
0.369387
0.29871
0.499385
0.598574
0.298483
0.392458
0.329593
0.770443
0.411861
0.342287
0.491104
0.474289
0.277672
0.280253
0.340884
0.290504
0.654308
0.283809
0.395478
0.548132
0.303938
0.311093
0.299738
0.299005
0.562539
0.37064
0.474674
0.290099
0.295851
0.432395
0.566356
0.293617
0.320378
0.29219
0.287324
0.565345
0.404488
0.721039
0.309579
0.288399
0.397623
0.356114
0.313854
0.295511
0.350006
0.361224
0.496649
0.297533
2.00306
0.368929
0.368321
0.286282
0.358191
0.806672
0.939702
0.354561
0.792951
0.337324
0.960447
0.378807
0.644931
0.425798
0.497359
0.380682
0.304267
0.336927
0.374914
0.510472
0.340858
0.329233
0.897203
0.374529
1.79466
0.373237
0.312181
0.360291
0.546535
0.38566
0.286034
1.02867
0.284895
0.30856
0.286014
0.344886
0.693599
0.434369
0.32671
0.460571
0.345905
0.309326
0.298294
0.325367
0.375071
0.38919
0.365217
0.318913
0.314459
0.361024
0.312917
0.27903
0.349248
0.31934
6.52735
0.340478
0.412919
0.312016
0.359896
0.325498
0.371118
0.280741
0.339793
0.317335
0.314875
0.350646
0.763061
0.275976
0.817086
0.454875
0.391244
0.379798
0.31617
0.382509
0.401876
0.708033
0.294505
0.313286
0.317583
0.449521
0.338771
0.281154
1.18553
1.55199
0.625092
0.280727
0.286715
0.463781
0.352971
0.353594
0.4516
0.364427
0.304697
0.326377
1.61662
0.282366
0.510757
0.278804
0.303196
0.377239
0.298551
0.373218
0.410574
0.284867
0.541428
0.359331
0.353194
0.396752
0.893117
0.297074
0.35995
0.334472
0.356114
0.321882
0.332743
0.278668
0.269624
0.374465
0.534666
0.361049
0.332719
1.37117
0.363502
0.554795
0.358353
0.383028
0.353683
0.327768
0.763773
0.314689
0.474606
0.33596
0.355007
0.320195
0.351481
0.519752
0.413546
0.300153
0.573448
0.376929
0.590446
0.699597
1.50122
0.29034
0.406889
0.377686
0.240656
0.350926
0.240424
0.397324
0.222009
0.350004
0.812597
0.359338
0.566474
0.614204
0.331356
0.202756
0.396647
1.02277
0.462767
0.604152
2.08346
1.32038
0.678421
0.739178
0.28928
0.337525
0.696748
0.35015
0.913322
0.336011
0.748451
0.709984
0.30801
0.350848
0.305634
0.274926
0.338674
0.277177
0.653395
0.375218
0.345399
0.50172
0.305902
0.341
0.287476
0.301321
0.334853
0.318561
0.37478
0.27718
0.368676
0.83654
0.287197
0.289768
0.315333
0.286575
0.833048
1.19126
0.358012
0.396075
0.483442
0.282795
0.271621
0.307466
0.322156
0.302301
0.307899
0.302752
0.290565
0.528005
0.296165
0.32427
0.302484
0.280866
0.283388
0.924132
0.298791
0.316478
0.305221
0.397344
0.344606
0.314626
0.607118
0.366
0.301956
0.348529
0.336354
0.337639
0.380684
0.358922
0.293969
0.368571
0.349762
0.297723
0.314186
0.330657
0.400359
0.411223
0.303007
0.315752
0.361011
0.390273
0.429098
0.533551
0.900066
0.855341
0.317228
0.283462
1.14995
0.476488
0.515065
0.291217
0.283772
0.301071
0.277099
0.29786
0.283668
0.289222
0.310511
0.287802
0.290713
0.296364
0.290185
0.28182
0.497567
0.333591
0.313864
0.292711
0.303044
0.55364
0.286177
0.294758
0.367017
1.0136
0.476352
0.374181
0.362234
0.288228
0.31965
0.428921
0.611535
0.356265
0.299239
0.353546
0.299368
0.304524
0.325817
0.388241
0.342989
0.298873
0.356189
0.380438
0.561334
0.350386
0.718281
0.544414
0.364436
0.355626
0.307918
0.309812
0.354249
0.27676
0.302908
0.545751
0.291789
0.323341
0.679621
0.330695
0.351035
0.404748
0.347419
0.298807
0.33069
0.287684
0.326226
0.677877
0.334946
0.387984
4.83107
0.53247
0.932333
0.769267
0.30297
0.304264
0.472748
0.283855
0.498992
0.445595
0.638338
0.369858
0.279164
0.763689
0.279599
0.487985
0.373823
0.298552
0.663545
0.926811
0.282354
0.287325
0.821762
0.28119
0.290522
0.288714
0.281954
0.340202
0.534335
0.531705
0.310377
0.739378
0.30616
0.300713
0.302897
0.79536
0.303954
0.834773
0.283519
0.321218
0.287244
0.385963
0.334772
0.449447
0.287409
0.633892
0.430782
0.433674
0.647578
0.308832
0.302845
0.916204
0.406095
0.318087
0.380744
0.916423
0.308658
0.38667
0.318911
0.536441
0.363132
0.290003
0.28144
0.415021
0.300022
0.348966
0.313114
0.283597
0.307413
0.291218
0.29301
0.325619
0.747846
0.310373
0.292879
0.292055
0.301945
0.310223
0.343422
0.276735
0.354073
0.399487
0.374775
0.367418
0.298584
0.359366
0.291333
0.344235
0.893072
0.384418
0.678101
0.303053
3.3308
0.325937
0.443147
0.362134
0.294854
0.36925
0.28905
0.292046
0.329216
0.343878
0.271828
0.297232
0.280725
0.600624
0.280412
0.297542
0.330065
0.675951
0.112469
0.300534
0.737208
0.820693
0.547724
0.522308
0.793544
0.121289
0.368956
0.15693
0.329521
0.456686
3.85645
0.371766
0.338475
0.278346
0.28304
0.708933
0.311587
0.370185
0.825392
0.356934
0.579235
0.345181
0.541937
0.288638
0.350818
0.334181
0.27702
0.368368
0.273786
0.321165
1.00657
0.915669
1.07938
0.408293
0.893753
0.295907
0.274087
0.287495
0.349175
0.280238
0.331604
0.287962
0.370999
0.363103
0.280031
0.286508
0.347064
0.280925
0.310614
0.341588
0.310501
0.339327
0.449153
0.299996
0.33133
0.770394
0.331328
0.732851
0.741843
0.329517
0.368408
0.284551
0.427211
0.314911
0.330038
0.71241
0.284756
0.338395
0.314295
0.324413
0.297287
0.292699
0.443583
0.464694
0.3755
0.318321
0.745793
0.340838
0.594843
0.549697
0.360507
0.978053
0.406376
0.335907
0.307829
0.351536
0.348632
0.313678
0.28583
0.328234
0.164564
0.533545
0.175415
0.29075
0.3188
0.385357
0.133793
1.09667
0.33192
0.3603
0.351375
0.147548
0.355457
1.08727
2.68876
0.34539
0.288232
0.365534
0.460347
0.293687
0.334881
0.363539
0.296135
0.34965
0.30473
0.810641
0.324509
1.63495
0.386061
0.828141
0.334563
1.75591
1.00561
0.828522
0.307834
0.324374
0.400713
0.360182
0.29288
0.348399
0.307574
0.754847
0.283852
0.415301
0.647945
0.282355
0.281874
0.297693
0.317459
0.333218
0.360466
0.3481
0.374565
0.371664
0.307247
0.38015
0.313361
0.406423
0.307298
0.352732
0.287798
2.63678
1.43181
0.343067
0.407154
0.275143
1.68884
0.276399
0.277396
0.341547
0.275648
0.36011
0.344529
0.270465
0.272976
0.334597
1.92548
0.532433
0.370891
0.750661
0.283
0.361218
0.309307
0.35956
0.744537
0.365535
0.7626
0.272245
0.303569
0.719997
0.807038
0.30838
0.317068
0.566955
0.377035
0.320693
0.434451
0.34556
0.352662
0.370169
0.356284
0.270677
0.367456
0.340221
0.428473
0.282493
0.346967
0.275769
0.319322
0.801538
0.814241
0.294656
0.432061
0.308915
0.341282
0.298943
0.479037
0.296418
0.308614
0.322536
0.333299
0.39516
0.355345
0.435219
0.32998
0.276348
0.322456
0.284357
0.337806
0.283854
0.470668
0.405407
0.318124
0.542656
0.312817
0.279447
0.339801
0.28605
0.359972
0.572607
0.302318
0.383741
0.357128
1.09982
0.35425
0.337848
0.363158
0.6551
0.364094
0.479998
0.336456
0.360136
0.467245
0.372897
0.341816
0.748242
0.403308
0.363187
0.304684
0.289553
0.492766
0.302477
0.935618
1.36645
0.375887
0.378273
0.357432
0.428803
0.398803
0.341526
0.762183
0.427431
0.58228
0.284752
0.38018
1.14087
0.433254
0.314537
0.420664
0.29713
1.20005
0.342032
0.349772
0.297722
0.277322
0.285474
0.319097
0.288455
4.98282
0.28305
0.61386
0.278868
0.379971
0.340019
0.471027
0.316533
0.321551
0.307367
0.639432
0.417986
0.45219
0.290226
0.287848
0.404735
0.331266
0.318156
0.283979
0.281084
0.278356
0.302326
0.278831
0.337572
0.282229
0.512389
0.384791
1.33663
0.695161
0.524456
0.500414
0.347322
0.354827
0.277604
0.525069
0.294175
0.298469
0.293885
0.410459
0.444978
0.295284
0.374525
0.714608
0.442647
0.284495
0.287255
1.65332
0.744199
0.342554
0.788063
0.786945
0.57139
0.70336
0.509442
0.690701
0.360689
0.564062
0.693369
0.280714
0.287585
0.274352
0.424321
0.550427
0.29637
0.279736
0.358495
0.325885
0.376033
0.698269
0.427861
0.91112
0.336837
0.289937
0.30589
0.290033
0.325636
0.663956
1.009
0.853698
0.718499
0.314048
1.31609
0.535981
0.307233
0.492289
0.425577
0.700133
0.365484
0.429352
0.700176
0.691601
0.426032
0.81673
0.448008
0.789727
0.349271
0.299562
0.363851
1.11335
0.717715
0.34715
0.305997
0.492556
0.396716
0.529694
0.320829
0.341891
1.07955
1.24545
0.172979
0.376377
0.162675
0.282281
0.167691
0.331178
0.420095
0.536155
0.149721
0.387
0.446497
0.115961
0.414005
1.23113
0.365488
0.336687
0.797004
0.29591
0.441043
0.288103
0.277197
0.29294
0.300381
0.803686
0.638083
2.14092
0.345493
0.344031
0.58482
0.331562
0.370393
0.363166
0.320966
0.300718
0.523123
0.379922
0.36503
0.289878
0.373717
0.359091
0.678673
0.411842
0.73357
0.917756
0.705343
0.373698
0.356588
0.688002
0.235642
0.487306
0.319815
0.343399
0.288976
0.736805
0.573775
0.629947
0.653374
0.549567
0.285206
0.381031
0.824516
0.742735
0.343354
0.355737
0.408482
1.87904
0.311357
0.284937
0.361692
0.313705
0.809681
0.343983
0.546792
0.634611
1.00757
2.09189
0.483254
0.40384
0.746641
1.10887
0.800319
0.523515
0.844895
0.89187
0.47216
0.335416
0.399568
0.356454
0.273305
0.298769
0.380649
0.458214
1.79739
0.338953
0.383716
0.399617
0.368476
0.424596
0.505862
0.434617
0.353288
0.374193
1.03423
1.00937
0.146413
0.353141
0.311898
0.330071
1.63258
0.835618
0.363977
0.553048
0.301027
0.387166
0.44249
0.502897
0.300497
0.300149
0.298334
0.348281
0.861194
0.408322
0.320788
0.718479
0.287593
0.904001
0.672281
0.421992
0.65453
0.328815
0.283504
0.310999
0.285831
0.345325
0.350939
0.298848
0.314453
0.300469
0.284463
0.448514
0.507207
0.672784
0.289271
0.422893
0.320327
0.349938
0.308238
0.487122
0.314328
0.304294
0.29975
0.286399
0.291143
0.29286
0.409761
0.280772
0.322362
0.327715
0.552721
0.291222
0.345098
0.452116
0.732215
0.954109
0.343949
0.765836
0.412659
0.331053
0.306969
0.481209
0.307384
4.22611
0.370137
0.292881
0.380717
0.37628
0.363787
0.404973
0.662105
0.94515
0.394027
0.804603
0.304466
0.277325
0.349853
0.285189
0.281837
0.364748
0.282794
0.289638
0.528498
0.29072
0.190018
2.06051
0.506549
0.282703
0.283578
0.532015
0.302994
0.29527
0.522207
0.297742
0.695449
0.353446
0.737612
0.283359
0.491619
0.394005
0.604205
0.287389
0.391183
0.289472
0.934245
0.364327
0.282291
1.29181
0.382676
0.45815
0.314874
0.337379
0.373675
0.281012
0.453391
0.281003
0.291021
0.289656
0.402081
0.548011
0.295544
0.288655
0.291281
0.28652
0.298884
3.2961
0.28272
0.408244
0.281862
0.51372
0.321681
0.327503
0.324958
0.420805
0.302633
0.371916
0.274937
0.305986
0.299916
0.310913
0.283481
0.391412
0.361885
1.00188
0.940036
0.731161
0.352971
0.304475
0.303969
0.282054
0.287411
0.987785
0.577555
0.355238
0.329209
0.276985
0.29817
0.273052
0.287992
0.474311
0.468828
0.701774
0.906672
0.328584
0.362384
0.356492
0.282855
0.514219
0.340997
0.411618
0.349626
0.31941
1.02159
0.371762
0.276434
0.303158
0.361176
0.296002
0.449447
0.283006
0.571582
0.333625
0.843519
0.446182
0.704843
0.290887
0.300414
0.315631
0.374406
0.323867
0.358234
0.292343
0.283079
0.287341
0.293796
0.354883
0.536801
0.330647
0.790298
0.37529
0.315009
0.466592
0.381689
0.36145
0.232077
0.987014
0.808063
0.208837
0.288483
0.28829
0.787957
0.30153
0.36844
0.337921
0.326191
0.252904
0.347767
0.348684
0.284419
0.375929
0.314582
0.925625
0.479515
0.393333
0.2707
0.355977
0.381431
0.311441
0.287467
0.830823
0.788383
0.312486
0.711973
0.296257
0.282365
0.355584
0.294253
0.834855
0.279385
0.280385
0.285304
0.601203
0.281738
0.319378
0.409511
0.413792
0.280736
0.300506
0.302261
0.305304
0.292739
0.334989
0.325441
0.535665
0.386204
0.355286
0.523812
0.346921
0.544804
0.323918
0.814538
0.401803
0.222395
0.588406
0.118382
0.388955
0.473597
0.52972
0.352704
0.282465
0.284548
0.282637
0.344163
0.75933
0.360868
0.280632
0.336052
0.33407
0.271934
0.435735
0.304156
0.357287
0.417323
0.30103
0.29033
0.314311
0.3051
2.83169
0.902506
0.3442
0.344798
0.380697
0.340213
0.743579
0.836039
0.917366
0.717503
0.331462
0.300035
0.306432
0.271617
0.34925