/*--------------------------------*- C++ -*----------------------------------*\
| =========                 |                                                 |
| \\      /  F ield         | OpenFOAM: The Open Source CFD Toolbox           |
|  \\    /   O peration     | Version:  2506                                  |
|   \\  /    A nd           | Website:  www.openfoam.com                      |
|    \\/     M anipulation  |                                                 |
\*---------------------------------------------------------------------------*/
FoamFile
{
    version     2.0;
    format      ascii;
    arch        "LSB;label=32;scalar=64";
    class       volScalarField;
    location    "0.0883272";
    object      nut;
}
// * * * * * * * * * * * * * * * * * * * * * * * * * * * * * * * * * * * * * //

dimensions      [0 2 -1 0 0 0 0];

internalField   nonuniform List<scalar> 
47425
(
0.00463273
0.00461352
0.0041658
0.00190815
0.00294891
0.00425649
0.0040253
0.00306227
0.00742777
0.00284826
0.00233896
0.00738792
0.00473903
0.00377618
0.00302932
0.0036449
0.00429971
0.00222117
0.000232946
0.00249683
0.00360023
0.00664038
0.00294382
0.00477631
0.00661618
0.0063864
0.00365332
0.000458392
0.00401502
0.00518878
0.00688315
0.00714151
0.00745914
0.00414483
0.0048726
0.00446111
0.00663081
0.00537821
0.00438752
0.0040386
0.00491664
0.00578021
0.00506318
0.00260976
0.000960068
0.0032053
0.00333964
0.00451845
0.00366885
0.00598045
0.000602548
0.00241638
0.00569347
0.00130532
0.00317618
0.00289158
0.00627862
0.00485913
0.00245507
0.00481131
0.00101854
0.000663424
0.00126038
0.00270181
0.0073849
0.00632528
0.00555482
0.00392207
0.00112825
0.00488786
0.00370376
0.00521653
0.00562749
0.00329125
0.00173937
0.00746319
0.00129758
0.0036558
0.000189904
0.00173061
0.00165537
0.00459561
0.00680763
0.00742906
0.0052509
0.00373267
0.0050151
0.00493206
0.00377662
0.00135407
0.00671349
0.00430086
0.00691934
0.00319836
0.00256858
0.0018505
0.00596638
0.00532592
0.00338876
0.00447914
0.00556468
0.00088889
0.00562852
0.000904439
0.00574851
0.00665654
0.00549559
0.00330375
0.00557324
0.00704504
0.00376442
0.005155
0.00519883
0.00222339
0.00714769
0.000319059
0.00716778
0.000692262
0.00419111
0.00507655
0.00388137
0.0074714
0.00590237
0.00232256
0.00353931
0.0062382
0.00360401
0.0074179
0.0032903
0.00685034
0.0064779
0.00330766
0.000943771
0.00282453
0.00503538
0.00407629
0.0060704
0.00598024
0.00432004
0.00304871
0.00499002
0.00228531
0.00454694
0.00439938
0.00612019
0.00742414
0.00332438
0.00542158
0.00234261
0.00499667
0.00437546
0.000524429
0.00738985
0.000397839
0.00265777
0.00366231
0.00264616
0.000287712
0.003686
0.00440055
0.00723256
0.00646069
0.00548499
0.00642991
0.00113593
0.000388787
0.00743194
0.00168489
0.00307196
0.000754385
0.00180796
0.00395706
0.00479057
0.00297542
0.00467128
0.00115855
0.000369017
0.00398758
0.00534153
0.00666587
0.000299629
0.00540203
0.00462968
0.00614781
0.00614001
0.00696045
0.00524158
0.00101658
0.00229293
0.00480438
0.00746955
0.00397004
0.00469181
0.00474272
0.00622396
0.00708049
0.00582729
0.00429471
0.00723047
0.00329709
0.0048078
0.00293614
0.00516207
0.00705815
0.0022221
0.0023397
0.00523869
0.0069793
0.004004
0.00747105
0.0044557
0.00438301
0.00745915
0.00324558
0.00447602
0.0044554
0.00384241
0.0020402
0.00300192
0.00379959
0.00165864
0.00233249
0.00411594
0.00298866
0.00235303
0.00157757
0.00629639
0.00234728
0.00687713
0.0037052
0.00409018
0.00417262
0.00321082
0.00748888
0.00219285
0.00337279
0.00154336
0.00286922
0.00171913
0.00198657
0.00394156
0.00460621
0.00675832
0.00284755
0.00638551
0.00733161
0.0042647
0.00590016
0.00648553
0.00378548
0.00672904
0.00197605
0.00433007
0.00742026
0.00328399
0.0067773
0.00661969
0.00297972
0.0031368
0.00739659
0.00300255
0.00745955
0.00385912
0.0026276
0.00482615
0.00382039
0.00651562
0.00409723
0.00448153
0.00387288
0.00386133
0.00191996
0.00162427
0.00584433
0.00199432
0.00205434
0.00199736
0.000509967
0.00166436
0.000551379
0.000997679
0.00461544
0.000970209
0.00289162
0.0037465
0.0034455
0.00330832
0.00343068
0.00394822
0.00725962
0.000696472
0.00464279
0.00737543
0.00502542
0.00435538
0.00320672
0.00273119
0.00616125
0.00477577
0.00463949
0.00367619
0.0063038
0.00368253
0.0047652
0.000890452
0.0007848
0.000509036
0.00679221
0.0058044
0.00665854
0.00308331
0.000773965
0.00358544
0.00275273
0.00180326
0.00448187
0.00322589
0.0029932
0.00325786
0.0013642
0.00195518
0.00692743
0.00504446
0.00584351
0.00399384
0.00657572
0.00391009
0.00436308
0.00527252
0.00399933
0.00348152
0.000959431
0.00346753
0.00390886
0.00297232
0.0067567
0.000797459
0.00630857
0.00607137
0.00543276
0.00671097
0.00665
0.00593165
0.00565941
0.0052572
0.00570626
0.00480632
0.0062457
0.00349621
0.00390212
0.00662384
0.00627123
0.00497164
0.00642508
0.00651089
0.00237804
0.00384649
0.0068305
0.00636024
0.00385723
0.00184079
0.00517047
0.00398759
0.00323174
0.005902
0.00621426
0.00274786
0.00743424
0.00477562
0.00667154
0.00271473
0.00129954
0.00370763
0.00689676
0.00192608
0.00685634
0.00408614
0.00382784
0.00502324
0.00662251
0.0056315
0.00672884
0.00659768
0.00481452
0.00391613
0.00439931
0.00367388
0.00559333
0.00717393
0.00370433
0.00545285
0.00555167
0.00390409
0.00502439
0.00442837
0.00610334
0.00515447
0.00344288
0.00321823
0.00567748
0.00107232
0.00628067
0.00228348
0.00455265
0.00336695
0.00333646
0.00608164
0.00233818
0.00616623
0.0034177
0.00602884
0.0011571
0.000934366
0.00645097
0.00238437
0.00372394
0.00347655
0.0036789
0.00395124
0.0036385
0.00392654
0.00465419
0.00597289
0.00298335
0.00429496
0.00589878
0.00371508
0.00379896
0.005693
0.000825286
0.000337257
0.00647204
0.000451877
0.000429111
0.00391934
0.000410256
0.000991691
0.0059593
0.00370706
0.00392862
0.0037564
0.00100115
0.0036522
0.00557767
0.00587468
0.00402769
0.00382778
0.00386049
0.00357382
0.0012528
0.00073097
0.00115991
0.00543749
0.000902152
0.00360265
0.00481922
0.00678091
0.00485894
0.00683894
0.00422913
0.00478987
0.00284693
0.00421269
0.0074896
0.00369198
0.00498298
0.00414958
0.0069426
0.00458858
0.00439368
0.00523075
0.00562923
0.00338525
0.0026885
0.00499219
0.00400198
0.00685987
0.00138617
0.00277637
0.00182896
0.00744304
0.00248904
0.00277463
0.00270015
0.00660875
0.00355626
0.00740266
0.00486033
0.00259729
0.00315253
0.00338154
0.00289891
0.00502422
0.00220669
0.000800951
0.00588722
0.0014477
0.00558227
0.0014483
0.00558017
0.00549254
0.00645564
0.00420193
0.00481748
0.00283287
0.00469301
0.00620409
0.0064225
0.0054761
0.00417001
0.00254952
0.00330661
0.00680933
0.00527848
0.00439164
0.00476506
0.00489228
0.00463289
0.00433722
0.00227147
0.00472288
0.00372038
0.000622797
0.0048859
0.0042155
0.00619362
0.00741179
0.0016131
0.00214236
0.00427322
0.00545548
0.00413267
0.00373906
0.00683721
0.00202281
0.00747828
0.00558889
0.00217678
0.00258462
0.00487949
0.00268656
0.00698724
0.00402196
0.00405365
0.00495688
0.0066342
0.00531614
0.0009075
0.00453581
0.00235808
0.00627798
0.00187356
0.00583562
0.00482449
0.00188626
0.0022568
0.0043012
0.00627686
0.000690835
0.00506622
0.00506146
0.00495781
0.00582651
0.00629262
0.00203109
0.00285959
0.00568664
0.00439735
0.00438953
0.00659739
0.00175966
0.00660499
0.00485983
0.000394633
0.00417859
0.00676109
0.000740971
0.00120415
0.00705091
0.000304694
0.000320909
0.00402514
0.00744586
0.00533613
0.00653232
0.00426008
0.00370125
0.00131439
0.0068243
0.00261255
0.00568508
0.00187067
0.00213764
0.00433117
0.00456961
0.00163887
0.00648615
0.00562454
0.0033035
0.00326951
0.00229018
0.00291859
0.0029324
0.00667371
0.00325692
0.00285124
0.00287231
0.00532509
0.00280966
0.00299723
0.00605974
0.00239064
0.00359249
0.00376296
0.00261366
0.00328274
0.0041467
0.00492962
0.00541199
0.00151605
0.00507655
0.00609323
0.00570782
0.000274081
0.00376317
0.00443374
0.000485133
0.000746917
0.00677936
0.0046341
0.000139074
0.00200069
0.000713514
0.00245996
0.00315409
0.000800466
0.00468683
0.00577346
0.00590924
0.00270194
0.00335451
0.0033283
0.00599657
0.00306829
0.00421697
0.00367585
0.0056649
0.00413912
0.00358008
0.00170203
0.000919577
0.00267723
0.00267419
0.00388404
0.0052483
0.00342003
0.00741649
0.00605396
0.00567841
0.00526678
0.00508251
0.00185407
0.00469468
0.0060074
0.00174168
0.00187784
0.00123324
0.00109357
0.00377014
0.00684205
0.00476299
0.00656933
0.00135447
0.00421059
0.00135846
0.00406834
0.00357854
0.00465286
0.00448564
0.00544919
0.00322443
0.00169858
0.0033405
0.00481919
0.00187048
0.00389855
0.00748587
0.00404202
0.00393112
0.00190586
0.00463702
0.00182729
0.00321734
0.00747321
0.00636653
0.0024034
0.00392433
0.00334012
0.00743286
0.00490844
0.00387895
0.00424846
0.00397351
0.00372215
0.00445319
0.000816615
0.000562938
0.00408524
0.000730036
0.00427963
0.00276171
0.00327657
0.00585904
0.00426886
0.00450127
0.00384543
0.00385217
0.00628169
0.00052794
0.00216541
0.00321491
0.00506633
0.00610631
0.00363398
0.00494437
0.00230712
0.00711217
0.00170994
0.00387571
0.00645932
0.00394396
0.00613615
0.00507134
0.0042162
0.00548664
0.00340878
0.00681629
0.00595919
0.00340026
0.000930917
0.00682677
0.00076022
0.00206316
0.00193586
0.000728561
0.00401682
0.00344329
0.00192896
0.00309617
0.00074744
0.000803112
0.000868508
0.00303732
0.00452976
0.00309424
0.00281963
0.000787115
0.00238391
0.00353401
0.00511842
0.00407879
0.00378579
0.0030731
0.00537214
0.00405641
0.00118363
0.00179691
0.00555471
0.00246468
0.00100143
0.00064807
0.00413123
0.000593156
0.00176301
0.000619316
0.000792511
0.00449997
0.0029576
0.00655589
0.00614447
0.00463896
0.000704182
0.00114001
0.00458723
0.0046939
0.00678228
0.000885547
0.000864625
0.00678911
0.00220315
0.00350993
0.00677088
0.00215672
0.00680795
0.00678662
0.00404959
0.00461368
0.00144439
0.00602499
0.00671973
0.00475174
0.00509102
0.00506061
0.0009395
0.00183898
0.00661291
0.00114568
0.00573557
0.00608028
0.00603355
0.00172323
0.00442144
0.00232414
0.00251332
0.00526069
0.00669492
0.00116433
0.000609337
0.00423931
0.00368159
0.00186863
0.00509788
0.00560955
0.00287361
0.00262577
0.00294507
0.00784892
0.00246885
0.00103364
0.0074237
0.00100131
0.00481891
0.00388255
0.00633337
0.00194335
0.00256055
0.00650009
0.00489042
0.0011452
0.00300721
0.00202239
0.00435909
0.00495772
0.00436646
0.00363077
0.00418281
0.00292413
0.000645521
0.00430168
0.00244847
0.00175168
0.00173797
0.000999771
0.00169564
0.00396765
0.000518164
0.00650231
0.00624529
0.00370983
0.00253988
0.00367647
0.00128319
0.00122742
0.00312091
0.00417358
0.00415234
0.00305785
0.00348782
0.0038238
0.01075
0.00143628
0.00376811
0.00323361
0.00244269
0.00176778
0.00599906
0.000525409
0.00383671
0.00537198
0.00386731
0.00382952
0.0113496
0.00625804
0.00309146
0.00386328
0.000641608
0.00262755
0.00468557
0.00356331
0.00526356
0.00344391
0.000716637
0.00462405
0.00267588
0.00510191
0.00167114
0.00286743
0.00376017
0.00546097
0.00528977
0.00357869
0.002318
0.00365612
0.00152228
0.000710473
0.00501286
0.00652807
0.00449403
0.000962206
0.00491951
0.0026206
0.00666952
0.00162835
0.00143452
0.00315155
0.00286248
0.00434287
0.0065426
0.00514755
0.00310896
0.00126956
0.00201297
0.0011508
0.00605494
0.0020606
0.00224198
0.00283099
0.00341339
0.00581528
0.00166592
0.00162312
0.00337892
0.00082575
0.0034202
0.00339945
0.00404886
0.00457084
0.00327554
0.00447811
0.00112352
0.00479643
0.00451648
0.00404331
0.00562242
0.000728195
0.00293506
0.000651436
0.00145405
0.000733163
0.00204106
0.0037482
0.00118935
0.00332522
0.00117026
0.00195313
0.00200124
0.00203739
0.00274127
0.00482668
0.00403673
0.00746824
0.0013196
0.0036581
0.00329975
0.00409302
0.00123298
0.00545884
0.00421303
0.00573845
0.00746033
0.00285453
0.00166432
0.00285582
0.00292156
0.00485215
0.00227398
0.00648411
0.00305782
0.00298948
0.00616243
0.0021582
0.00216965
0.00408111
0.00187902
0.0036168
0.00345255
0.00201928
0.00286687
0.00300141
0.000206445
0.000693698
0.00212431
0.000734091
0.00320985
0.00309294
0.000557388
0.000882602
0.00442189
0.000955567
0.00325595
0.00419823
0.000565718
0.0025657
0.00658348
0.00310998
0.00132341
0.00551125
0.00063819
0.00032558
0.00216279
0.000777563
0.00217628
0.000879886
0.000817756
0.00514716
0.00439606
0.00271619
0.00168043
0.00359791
0.00694487
0.00191348
0.000660966
0.00377696
0.00153903
0.00414496
0.00196821
0.00594925
0.00560022
0.00318512
0.00289532
0.00408235
0.00163278
0.00459231
0.00145962
0.00663035
0.00538361
0.00561239
0.00279319
0.00489901
0.00674495
0.00074097
0.00228499
0.00210171
0.00366387
0.00250327
0.00291723
0.00123877
0.00390821
0.00104155
0.00301706
0.00484942
0.00297772
0.00322452
0.000839161
0.00183685
0.00161979
0.00587665
0.00445358
0.00187391
0.00392261
0.00293885
0.00499064
0.00740451
0.00595287
0.00377586
0.00352907
0.000770012
0.00361184
0.000478908
0.00365286
0.0043092
0.00294079
0.00485296
0.00365079
0.00390549
0.00423816
0.00191751
0.00534925
0.00134499
0.00686335
0.000348534
0.00136989
0.00148354
0.00195643
0.004125
0.0052484
0.003427
0.00457629
0.000595699
0.000716149
0.00335226
0.00212556
0.000980818
0.000869431
0.00227224
0.00111306
0.000680523
0.00342005
0.00432202
0.000537938
0.00377743
0.00424078
0.00403514
0.00109266
0.000464871
0.00375378
0.00333838
0.00122355
0.00244205
0.00192243
0.000720372
0.00320947
0.001037
0.00114196
0.00331851
0.00422998
0.00124414
0.00545177
0.00212424
0.000226007
0.00682416
0.00411897
0.0036641
0.00491771
0.00296396
0.00294659
0.00698065
0.00292958
0.00406324
0.000764018
0.00149936
0.00423915
0.00137926
0.00788575
0.000374795
0.00652294
0.003384
0.00214865
0.00485595
0.000946092
0.00382287
0.00296622
0.00233764
0.00490286
0.0038574
0.00632102
0.00209554
0.000642409
0.00547896
0.00162997
0.000665071
0.00250656
0.00339534
0.000936909
0.00157844
0.00478139
0.00477191
0.000974728
0.00172105
0.00233553
0.000789279
0.002586
0.000859849
0.00310442
0.00269148
0.00208953
0.000967769
0.00649279
0.00488592
0.00205632
0.00428479
0.00255693
0.00382109
0.00185427
0.00479012
0.00334769
0.00575605
0.0014625
0.0056039
0.000594843
0.00214312
0.00556561
0.00739773
0.00184375
0.00154142
0.000820164
0.0017917
0.00186996
0.00103483
0.000819168
0.00390854
0.000902104
0.0051268
0.00274579
0.000384853
0.00144532
0.00308877
0.00337297
0.005613
0.00136093
0.00113324
0.00146387
0.00334205
0.0083841
0.00679981
0.00165774
0.0033252
0.00379481
0.00627763
0.000961059
0.002721
0.00154152
0.00399574
0.00143913
0.00388882
0.00267029
0.00103434
0.00178426
0.00233763
0.00228639
0.00527386
0.000389047
0.00159384
0.0014408
0.00137873
0.00769147
0.00504713
0.000980766
0.000761122
0.00160462
0.00253667
0.00258124
0.0016932
0.00219843
0.00164819
0.0051328
0.0012312
0.00124896
0.00509277
0.00110423
0.00329767
0.00236044
0.00264656
0.00118539
0.00241809
0.00539776
0.000637579
0.00325414
0.000628646
0.0025757
0.00347266
0.00295209
0.00177224
0.0011924
0.00235833
0.00361064
0.00280977
0.00113844
0.00370081
0.0040711
0.000676198
0.00641794
0.00354921
0.00080468
0.00326485
0.00300737
0.00287958
0.00235627
0.00110883
0.00347078
0.000148302
0.00234994
0.000745687
0.0034487
0.00105908
0.00252198
0.000851464
0.0013963
0.0014827
0.00396894
0.00390645
0.00741052
0.00392112
0.00348098
0.00286121
0.000681928
0.00375538
0.00595212
0.00390245
0.00462289
0.00278739
0.00415375
0.00678017
0.00745237
0.00295143
0.00090844
0.00636329
0.0027507
0.00218777
0.00509589
0.00605632
0.00279351
0.00203998
0.00747109
0.00519187
0.00323495
0.00345527
0.00528606
0.00387981
0.00112913
0.00385036
0.00310975
0.00522798
0.00655008
0.00192246
0.00458453
0.00575227
0.000839361
0.0023804
0.000921893
0.00605845
0.000861034
0.000405943
0.005015
0.000387118
0.00074558
0.000501106
0.00387101
0.00442132
0.00423756
0.00130493
0.00673486
0.00435516
0.00443061
0.00378029
0.00261677
0.00336213
0.00338239
0.000978053
0.00425012
0.00261921
0.00077574
0.00400485
0.000297459
0.00155993
0.00119261
0.0058855
0.00298717
0.0018809
0.00555465
0.00441991
0.00192709
0.00653277
0.00284114
0.00154945
0.000488316
0.00681132
0.00141774
0.00476959
0.00292054
0.00226818
0.00484243
0.00128521
0.00432295
0.00198863
0.00430153
0.00126317
0.00027315
0.0037142
0.00656107
0.00221144
0.00449935
0.00113034
0.00374101
0.00367611
0.00421181
0.00397233
0.00514935
0.00701951
0.00362244
0.0020975
0.00487471
0.00218345
0.00384931
0.00376007
0.00677305
0.00229586
0.00407777
0.00394951
0.00545937
0.00417766
0.00423012
0.00303925
0.00403876
0.00427566
0.00560589
0.00228264
0.00256772
0.0074721
0.00376165
0.00345566
0.00488668
0.00375243
0.00417416
0.00418484
0.00390604
0.00379148
0.00624736
0.00376627
0.00543771
0.00444852
0.00596948
0.00198766
0.00219976
0.00196174
0.00361908
0.00454419
0.00392957
0.00112918
0.00484958
0.00466826
0.00515197
0.00140191
0.00297155
0.00119114
0.00120637
0.00123344
0.0029333
0.00427212
0.00384794
0.00397621
0.00590037
0.00117187
0.00378122
0.0059373
0.00392617
0.00310577
0.00380532
0.00155815
0.00379926
0.00233319
0.00264595
0.003269
0.00579287
0.00420113
0.00357289
0.00365279
0.00432673
0.00290764
0.00314399
0.00253079
0.00356346
0.00508196
0.00491973
0.00206675
0.001854
0.00444008
0.0040006
0.00224893
0.00364642
0.00225458
0.00571115
0.00480476
0.0022405
0.00441564
0.00539719
0.00452641
0.0064478
0.00576775
0.00329042
0.00413191
0.00219218
0.00421216
0.00216841
0.00540761
0.00410276
0.000997672
0.00383786
0.00414926
0.0046704
0.0048394
0.00385996
0.00419249
0.00030189
0.00345086
0.00488233
0.00555907
0.004866
0.00489101
0.00676417
0.0057147
0.00348856
0.00395125
0.00571131
0.00621179
0.00275857
0.000957607
0.00121089
0.00293144
0.00172843
0.00348936
0.00370397
0.00352267
0.00309658
0.00191051
0.00313288
0.00381792
0.000802908
0.00455958
0.00381608
0.0037054
0.00384892
0.00521591
0.000282784
0.00442948
0.00346666
0.00743038
0.00254881
0.00230923
0.000397115
0.000215369
0.00438942
0.00534401
0.0065488
0.00382551
0.00353158
0.00459795
0.000194638
0.00192948
0.00449387
0.00246857
0.0011522
0.0046016
0.00808423
0.00332788
0.00652026
0.0047391
0.006101
0.0040597
0.00257026
0.00373748
0.00408153
0.00481395
0.00174314
0.00407056
0.00743715
0.00161594
0.00571893
0.00309866
0.002631
0.0010051
0.00153215
0.00335715
0.00287963
0.00478018
0.00284779
0.00278003
0.00555755
0.000570387
0.00152203
0.00287974
0.00373152
0.00339964
0.00373087
0.00370139
0.00107482
0.0067484
0.00618274
0.00574166
0.00538212
0.000798695
0.00118592
0.00119547
0.00173637
0.00278311
0.0028797
0.00683879
0.00632532
0.00454908
0.00466234
0.00486143
0.00523806
0.00674328
0.00102972
0.000701146
0.00669704
0.00514673
0.002343
0.00268359
0.00266809
0.00663867
0.00427626
0.00186226
0.000864175
0.00330762
0.00196688
0.00274814
0.00158321
0.000534367
0.00308695
0.00571654
0.00657435
0.0061717
0.000863473
0.00491525
0.00435008
0.00405639
0.00681325
0.000787917
0.000415436
0.000423693
0.00160817
0.00503019
0.0055958
0.00639674
0.00199885
0.00350016
0.000859846
0.000832166
0.000792286
0.000531749
0.000790245
0.00156478
0.00645109
0.000734553
0.00739759
0.000317447
0.00390475
0.000751173
0.00444167
0.00158568
0.00536766
0.00283437
0.00224757
0.00225489
0.00418499
0.005595
0.00398868
0.000836431
0.000974574
0.00500277
0.00516259
0.0004556
0.000486718
0.0034349
0.0015091
0.000805249
0.0015254
0.00437969
0.00638821
0.00092363
0.000837114
0.00142403
0.00703119
0.00138905
0.00586126
0.00085574
0.00110985
0.000624975
0.00224385
0.00538378
0.0013791
0.00625253
0.00459682
0.00364738
0.00204115
0.00506013
0.00337164
0.00395055
0.00370512
0.00399502
0.00587209
0.00591286
0.00309245
0.00631324
0.00534947
0.00406727
0.00384646
0.00141644
0.00368119
0.00231741
0.00394784
0.00440229
0.00410878
0.000898552
0.00332227
0.00321262
0.00176937
0.000533813
0.00404842
0.00484416
0.00284681
0.000898749
0.00182263
0.00119031
0.00432352
0.00598454
0.0039781
0.00325732
0.00510444
0.00327016
0.00302628
0.0034963
0.00646001
0.00431889
0.00410299
0.00424809
0.00305837
0.0039778
0.0035589
0.000614711
0.00331246
0.00385572
0.00398664
0.00279489
0.00102652
0.00314246
0.00345606
0.00430175
0.00300338
0.00113782
0.00104347
0.00367759
0.00312
0.000352706
0.00146772
0.0020157
0.00398042
0.00145007
0.00306444
0.0039244
0.00244511
0.00104883
0.00464161
0.00398845
0.00296631
0.00612838
0.00231586
0.0026317
0.00301306
0.00332892
0.00194432
0.00390341
0.0058416
0.00654281
0.00164005
0.0031583
0.00364142
0.00600013
0.00467921
0.000753743
0.00293937
0.00332163
0.000420622
0.00162081
0.00545821
0.00338381
0.00093563
0.00153747
0.00222175
0.00662227
0.00288519
0.000961395
0.00443089
0.0067631
0.000641371
0.00167938
0.00124474
0.00221019
0.00470551
0.00433163
0.00147036
0.00056795
0.000741426
0.00483488
0.00499726
0.000569926
0.00462185
0.00180287
0.00304738
0.0014606
0.00091197
0.00470853
0.00326977
0.00110899
0.00393903
0.00517324
0.00438847
0.00353632
0.00525143
0.000822828
0.000276871
0.00316783
0.0035114
0.00067406
0.000486282
0.000641443
0.00188899
0.00102364
0.00183359
0.000501033
0.00352553
0.00353175
0.000849313
0.00210652
0.00214126
0.00115037
0.000960124
0.000422312
0.00517674
0.00478313
0.000697726
0.00638555
0.00417876
0.000759008
0.00500807
0.00322194
0.00387642
0.00271084
0.00494181
0.00585333
0.000438121
0.000636929
0.00245577
0.000625339
0.00235793
0.00343294
0.00422399
0.00410129
0.00317666
0.0041232
0.00475559
0.00373399
0.00413478
0.000624023
0.000578665
0.00380487
0.00157223
0.00381898
0.00414772
0.00248431
0.00347893
0.00358965
0.00422927
0.000379908
0.00101137
0.00412834
0.000555889
0.00277588
0.0013631
0.00272624
0.00329344
0.00124069
0.00277784
0.00099954
0.00278396
0.00288358
0.00288393
0.00583109
0.00111252
0.00669655
0.00509776
0.002187
0.00419634
0.00138387
0.00320844
0.00229007
0.00337998
0.000793763
0.00373371
0.00340577
0.00362571
0.00658728
0.00582824
0.00295636
0.00183171
0.000424361
0.00268632
0.000747669
0.00292692
0.00413446
0.00516094
0.0042605
0.00463551
0.00407611
0.00331017
0.00113497
0.00198417
0.00111088
0.0005753
0.00267649
0.0039702
0.00015647
0.0007755
0.00605415
0.00626716
0.00114012
0.00373734
0.000661972
0.000426221
0.00265301
0.000692634
0.00122199
0.00262978
0.000690943
0.00155095
0.00521239
0.00348346
0.000952785
0.00120737
0.00553325
0.000889256
0.00580704
0.00262926
0.0039829
0.00261831
0.0016917
0.000765211
0.000928344
0.00589205
0.00568901
0.00022327
0.00653116
0.00439928
0.00110621
0.00533709
0.002703
0.00414814
0.00292082
0.000508229
0.00131378
0.000907964
0.00160737
0.00315235
0.00101957
0.0053667
0.00451584
0.000932
0.00627786
0.00354122
0.00260489
0.00484957
0.00119042
0.00060808
0.00628379
0.0021391
0.00653581
0.000684993
0.00368452
0.000543228
0.00274304
0.00328958
0.00503294
0.0024263
0.00264088
0.00581253
0.00388841
0.00311758
0.0064943
0.00137882
0.00316224
0.00342396
0.0059594
0.00358956
0.0034129
0.00223795
0.00281888
0.00198691
0.00289877
0.0031766
0.00341257
0.00132101
0.000527688
0.000737935
0.00065983
0.0010627
0.000786705
0.000829354
0.00246875
0.000183241
0.000629067
0.00178111
0.00161999
0.00234748
0.000911736
0.000923814
0.00204036
0.00147063
0.00198273
0.00579346
0.00236003
0.00198496
0.00365784
0.000867709
0.00334551
0.000649974
0.00175353
0.00108024
0.00134308
0.00137922
0.000668034
0.00167986
0.000572756
0.00257805
0.00329979
0.00364395
0.00149647
0.00477999
0.00520488
0.000858615
0.00318393
0.000917656
0.00174297
0.0050224
0.0023158
0.00381528
0.00143149
0.00111106
0.0059359
0.00473892
0.00151263
0.000917521
0.00359713
0.00263479
0.00126955
0.00101417
0.00393969
0.00650546
0.00379473
0.00389763
0.000672053
0.00670911
0.000829319
0.000349087
0.0047873
0.00227152
0.0039441
0.00300803
0.000840018
0.00272677
0.000754255
0.00310157
0.00408676
0.000473171
0.00101321
0.00496979
0.00227213
0.00493254
0.00616247
0.0012524
0.00353486
0.000704958
0.00348371
0.00585744
0.00263089
0.00593069
0.00459106
0.00492502
0.00439039
0.0026888
0.00183108
0.00133913
0.00502619
0.00100093
0.00496733
0.00616199
0.00212392
0.0011723
0.000761293
0.000802576
0.00189344
0.00191162
0.000995695
0.000845878
0.000816071
0.000788425
0.00273142
0.00296832
0.00382385
0.00133416
0.00480816
0.00251607
0.00303758
0.00122633
0.000487368
0.00348142
0.0026431
0.00347541
0.00401808
0.00333281
0.00314112
0.00540348
0.00427863
0.00254735
0.00276725
0.00259211
0.00507131
0.002826
0.00153184
0.000704194
0.00413955
0.000530666
0.00744378
0.00261154
0.00684116
0.00437977
0.000824054
0.00266354
0.0010584
0.0035114
0.00330744
0.00308545
0.00422937
0.00444428
0.00410636
0.00303104
0.0146761
0.00703052
0.00071677
0.00271406
0.00111472
0.00272605
0.00105679
0.00532685
0.00440348
0.0032628
0.00371146
0.00282957
0.000898644
0.00600711
0.00436949
0.00110874
0.00246715
0.00243077
0.00235538
0.00243944
0.00215478
0.00200623
0.00447882
0.00720075
0.00612345
0.00189074
0.00135309
0.00433538
0.000470781
0.00685556
0.00162347
0.00636287
0.00574193
0.00168865
0.00435088
0.00635549
0.000869978
0.00742105
0.00393629
0.00127798
0.00412572
0.00640231
0.00117123
0.00628494
0.0071009
0.000987939
0.00256771
0.00284194
0.00069355
0.00682821
0.0017279
0.00120335
0.00154996
0.000855092
0.00110693
0.00397056
0.00582482
0.00273702
0.00556354
0.00166113
0.00278849
0.00470707
0.00527159
0.00348112
0.00112198
0.00292315
0.00411342
0.00371362
0.00336487
0.00230114
0.00738817
0.00209993
0.00101018
0.00351896
0.00311304
0.00421639
0.00358759
0.00264015
0.00432335
0.00211421
0.00306054
0.00056918
0.00361218
0.00696475
0.000902429
0.00286875
0.000637024
0.000922078
0.00654035
0.00322883
0.00111113
0.00309252
0.000653104
0.0013122
0.000555358
0.00131524
0.000627105
0.00299313
0.00134893
0.00150872
0.000500321
0.00104804
0.00278268
0.000619676
0.000680527
0.00292149
0.000318013
0.00111528
0.00486015
0.00307894
0.0013921
0.00085584
0.00689331
0.00359021
0.000890242
0.000671807
0.00102415
0.00117123
0.00144485
0.000744222
0.0026828
0.00356349
0.00412321
0.00633599
0.00300383
0.00598074
0.000916751
0.00289737
0.00421857
0.000620711
0.00364615
0.00224779
0.00404575
0.00562384
0.00306538
0.00392753
0.00173969
0.00586567
0.00161029
0.000568362
0.00441886
0.00573938
0.00312825
0.0045163
0.000990351
0.00412204
0.00487822
0.00530324
0.000517308
0.00577727
0.00320721
0.00603213
0.00152869
0.00294352
0.0041465
0.00557936
0.00476194
0.00157589
0.00338795
0.00241373
0.00711519
0.00644717
0.00624574
0.00457382
0.00426818
0.00340367
0.00573732
0.00321628
0.00353513
0.00215441
0.00113447
0.0010086
0.00292945
0.00160746
0.00409349
0.00254487
0.00344603
0.00366263
0.00594398
0.00311564
0.0041914
0.00584736
0.00198271
0.0044238
0.00289524
0.000968989
0.00455667
0.00262891
0.00106658
0.00338561
0.00103633
0.00168184
0.00110133
0.000305742
0.00266554
0.00478575
0.00223046
0.000413729
0.00223898
0.00657492
0.00566136
0.00455583
0.00312947
0.00421961
0.0066549
0.00678283
0.00331268
0.00265741
0.00698348
0.00633262
0.00690993
0.00481166
0.00260096
0.0015811
0.00285361
0.00571465
0.00316474
0.000859305
0.00491417
0.00557619
0.00399952
0.000573322
0.000571488
0.0037487
0.00539698
0.00423354
0.00266349
0.00377563
0.00103415
0.0015632
0.00452629
0.00395186
0.00518153
0.00326705
0.0016531
0.00444663
0.0031298
0.00331944
0.00117953
0.0019065
0.00149066
0.000857375
0.000197705
0.00193908
0.00186593
0.00395723
0.00369633
0.00319648
0.00315293
0.00516562
0.004117
0.000448851
0.00582733
0.00172806
0.00051481
0.00320766
0.00288698
0.000694749
0.00190792
0.00382867
0.0036933
0.00688906
0.00285342
0.00100932
0.00370983
0.00136215
0.0083954
0.00237805
0.000707693
0.000784962
0.00307986
0.00275066
0.000969592
0.00425753
0.000619749
0.000539682
0.00113032
0.0074196
0.00614672
0.000309894
0.00530211
0.000484032
0.00179853
0.00294208
0.00100809
0.00140542
0.0057355
0.00675795
0.000900771
0.0057519
0.00554207
0.00443883
0.00596458
0.00420798
0.00324738
0.00192859
0.00513299
0.000336176
0.00300227
0.00336351
0.00362628
0.000286204
0.00394221
0.000521893
0.00440979
0.00272847
0.00340324
0.00100353
0.00559039
0.00382725
0.00450515
0.000946709
0.00171407
0.00168768
0.00122433
0.00257641
0.00572681
0.000753649
0.0032462
0.00309827
0.00327466
0.00496699
0.00294858
0.00380349
0.00717954
0.000340203
0.00115176
0.00410372
0.00446319
0.00318512
0.00357109
0.00257919
0.00252113
0.0041873
0.00216722
0.00403107
0.00450108
0.00408261
0.00149706
0.00432349
0.00409975
0.00420022
0.00332408
0.00675462
0.00536789
0.0043583
0.00271574
0.00376576
0.00267355
0.00250569
0.00338218
0.00083925
0.00454349
0.00242161
0.00174733
0.00107876
0.00142027
0.00348102
0.00867435
0.00167265
0.000842298
0.00387736
0.00103611
0.00391527
0.00662884
0.00259802
0.0016874
0.00372746
0.00389592
0.00651322
0.00445821
0.000328137
0.00443934
0.00607328
0.0021897
0.000488434
0.00043633
0.00318211
0.000282934
0.00148452
0.00111186
0.0020208
0.0013304
0.000475123
0.00431607
0.000650836
0.00379228
0.00447447
0.00815522
0.000441037
0.00190644
0.00633971
0.00527715
0.00094807
0.00357034
0.000440077
0.00537786
0.00283168
0.00371131
0.00282761
0.000599373
0.00688889
0.00308533
0.00275629
0.00496063
0.00358566
0.00515419
0.00273952
0.000429262
0.000426957
0.000774802
0.00130303
0.00123134
0.00531448
0.00563781
0.00472727
0.00354509
0.00636924
0.00129804
0.00685513
0.000798933
0.00409813
0.00597328
0.00530687
0.00462094
0.00606454
0.00313753
0.00288343
0.00720337
0.0030079
0.000805588
0.00473
0.000932534
0.000897664
0.00597688
0.000316275
0.000518066
0.00268114
0.00283503
0.00342699
0.00113369
0.00462963
0.00181426
0.00111315
0.00491913
0.00148986
0.00669376
0.00186331
0.00385778
0.00216324
0.00222255
0.000849896
0.00332799
0.0035626
0.000593401
0.0011802
0.00180848
0.0013371
0.00566131
0.00284394
0.00381016
0.00169177
0.00309786
0.00612341
0.00118753
0.00246401
0.00225795
0.00646388
0.000545188
0.000766438
0.000521528
0.00514429
0.00361081
0.000792188
0.00049088
0.00216133
0.00353144
0.00247232
0.000955189
0.000577177
0.00159579
0.00563865
0.00690584
0.00417563
0.00442868
0.00399028
0.000514914
0.00476963
0.00154288
0.00306872
0.0063212
0.00255786
0.00249625
0.00518932
0.00385116
0.00569623
0.00227204
0.00229931
0.00468802
0.00668635
0.00228123
0.00265634
0.00264749
0.00189339
0.00200267
0.00353567
0.00548246
0.00533561
0.00493342
0.000694997
0.00335556
0.000853999
0.00193052
0.00346246
0.00454978
0.00312914
0.00703525
0.00238459
0.0074711
0.00188729
0.00230984
0.00358892
0.00395601
0.002327
0.00328184
0.00229994