/*--------------------------------*- C++ -*----------------------------------*\
| =========                 |                                                 |
| \\      /  F ield         | OpenFOAM: The Open Source CFD Toolbox           |
|  \\    /   O peration     | Version:  2506                                  |
|   \\  /    A nd           | Website:  www.openfoam.com                      |
|    \\/     M anipulation  |                                                 |
\*---------------------------------------------------------------------------*/
FoamFile
{
    version     2.0;
    format      ascii;
    arch        "LSB;label=32;scalar=64";
    class       volScalarField;
    location    "0.0883272";
    object      omega;
}
// * * * * * * * * * * * * * * * * * * * * * * * * * * * * * * * * * * * * * //

dimensions      [0 0 -1 0 0 0 0];

internalField   nonuniform List<scalar> 
47425
(
59.2561
66.3445
70.3264
157.047
149.31
69.3433
99.0718
98.6829
49.394
534.663
133.236
43.6286
72.2381
77.7399
94.2277
85.9698
67.1701
46.9205
1368.43
199.112
82.6278
43.0458
101.389
61.3601
44.1771
42.9084
75.8776
682.79
68.5247
53.8924
42.086
44.226
47.7433
67.2973
55.4508
65.0048
42.6068
67.5576
65.0832
73.027
70.159
140.672
215.388
144.994
1749.07
100.164
93.428
77.6032
77.2325
46.0708
565.907
240.43
48.1199
678.103
110.086
120.933
44.1571
57.048
76.962
59.7836
819.981
1242.41
729.473
43.1068
49.3524
44.0906
61.4054
87.5047
766.924
43.6277
77.2227
51.9309
48.6115
88.6242
555.134
49.4036
753.692
79.0941
1330.24
286.925
579.292
63.8171
42.0992
46.9233
66.0071
79.883
54.0278
54.3145
130.108
405.644
42.6123
74.3453
39.996
113.604
145.845
192.593
46.2243
52.2789
86.8389
77.3514
60.0852
91.1573
51.2607
95.1025
49.0066
52.2137
53.9679
92.2735
84.7671
43.5807
319.927
61.7601
77.474
153.41
42.5743
864.393
41.8423
225.394
75.9758
61.1227
78.8311
48.5449
58.0936
62.3392
95.0676
58.9195
83.32
49.1901
103.664
40.4222
44.0282
92.3923
123.336
116.521
123.493
67.9914
47.2515
62.3919
67.6383
94.7425
70.9426
125.605
68.7744
98.5909
50.5393
49.3287
122.746
62.6851
147.21
72.3636
100.095
497.728
48.7557
682.372
45.717
82.0608
58.7069
870.538
88.7988
69.3854
43.0324
42.52
49.0473
44.8828
433.107
792.848
45.4443
569.355
104.6
719.226
637.326
82.775
73.862
45.1659
69.2865
65.5654
718.653
68.6521
51.6315
41.5445
968.795
49.9157
59.0237
44.6611
44.9221
48.3744
55.6175
74.1809
146.579
58.0117
47.9245
70.5846
81.4874
77.0227
44.3309
41.3519
61.8696
69.8761
42.2835
82.3637
64.9202
122.503
81.6896
41.7351
48.6801
157.321
52.0386
41.5797
86.5482
48.4399
62.0649
65.0133
47.2036
92.2255
63.4535
62.8946
75.5956
266.127
45.9618
92.8886
299.926
118.317
146.068
94.8792
164.815
253.641
43.959
126.64
47.1497
61.6758
71.0444
70.3193
99.6727
49.3224
162.579
90.2309
348.349
108.097
291.308
178.423
82.0666
58.8803
40.6788
99.5129
43.8801
49.4523
67.3838
60.6001
42.3092
75.4657
41.242
234.676
65.5127
49.2833
90.1499
40.7377
43.6722
118.226
92.4819
48.3484
122.857
47.2051
77.6446
133.355
72.6117
87.7057
42.5279
72.6942
62.0671
80.6612
78.8623
255.066
332.458
47.894
240.309
176.842
240.925
108.223
315.518
180.829
827.711
58.7987
804.916
120.427
77.8878
82.7132
101.999
89.2117
88.8347
44.083
622.903
42.5377
50.3438
55.363
66.3772
94.9838
108.429
45.7306
64.6275
54.9212
84.2947
43.1146
82.6914
59.2744
840.168
998.853
648.566
40.6078
47.2548
42.3729
96.8184
673.332
84.2875
113.54
308.357
70.7149
102.797
120.314
91.8747
461.583
266.859
42.3043
59.1987
46.3964
78.5382
41.9629
76.5779
62.8277
52.1896
70.3098
82.0494
741.886
55.2795
72.6042
129.126
40.8932
736.976
49.2468
44.8424
51.7117
43.1921
43.572
45.8337
50.9393
51.2278
49.0868
58.0611
45.5439
82.1334
80.3225
44.1598
44.3985
60.5909
45.4428
45.4016
45.497
78.2919
42.0081
46.8633
93.3998
53.298
60.0086
74.4169
92.7611
47.4739
47.902
128.274
48.2153
66.0028
43.2099
126.731
829.383
76.8521
42.2008
200.232
42.2217
112.651
92.9363
72.5501
42.7728
63.5012
43.0597
41.8159
73.786
83.2644
82.8569
80.9966
51.5028
48.7484
80.1054
47.5044
45.7098
77.8526
56.3811
63.9513
47.6104
61.4312
85.6819
69.4145
48.1455
487.411
43.6969
447.472
67.1656
102.295
99.4588
45.437
142.952
44.6991
90.8301
45.4605
456.406
361.199
42.4183
48.96
78.1917
83.748
81.2134
72.5865
79.053
87.2738
65.1215
46.8068
98.524
69.7594
46.9249
97.5734
76.3081
51.4809
146.29
1117.72
43.9861
281.453
924.814
88.1823
946.953
681.636
46.3632
78.1689
73.9755
77.1401
598.169
83.645
48.8936
47.3261
73.2189
73.5965
77.8662
78.7258
521.047
659.307
154.745
65.5412
72.1768
126.256
57.1859
42.6893
68.0481
42.2269
83.9823
75.8108
132.705
68.6538
49.3502
79.3014
58.7502
74.4057
42.2938
63.7696
65.6866
66.6396
63.5377
108.523
115.617
61.3221
80.2629
42.2506
590.286
129.86
75.2919
46.3424
129.768
250.069
45.8154
41.5475
45.9604
47.2993
67.275
48.2995
101.334
83.0915
46.737
54.8669
137.397
97.8058
46.2274
48.8559
56.7367
52.7166
49.2127
50.1634
42.8806
67.6575
59.1771
107.488
60.3827
44.7058
44.2641
42.0494
71.9568
123.228
43.3765
40.5556
57.3351
61.4978
57.8072
58.3068
66.7966
71.4671
50.779
76.9244
100.902
424.595
59.5335
67.5234
52.3102
49.345
138.163
135.655
73.5571
51.7691
77.4727
108.916
46.2285
147.15
48.4578
258.707
46.3958
49.7543
57.3505
131.353
39.674
71.0086
71.6089
74.6898
41.5903
50.9162
1101.53
61.6756
141.252
43.9359
101.867
46.1687
57.8325
86.6882
72.7053
67.8828
43.6421
377.056
54.1432
57.6266
55.305
47.02
43.1973
57.0139
122.65
48.12
73.0871
66.4647
41.8617
281.639
43.4365
66.8444
454.874
69.6743
40.9205
320.976
598.246
42.021
624.396
655.336
68.8445
46.5983
51.0036
42.9928
84.9619
84.9555
716.852
42.1872
121.862
48.2567
120.552
55.6947
85.3081
65.1538
454.527
296.249
50.9666
92.5895
99.955
83.1556
118.838
122.124
47.6267
95.5661
132.906
97.6948
67.4382
141.221
50.3442
47.0538
141.549
91.7492
76.4165
115.674
98.3164
67.1494
73.417
62.6073
52.8162
67.621
45.9292
51.9143
1285.42
61.5461
79.3367
1041.9
1022.1
40.9226
76.1135
1560.62
163.545
94.7944
318.976
119.462
761.084
58.7
47.3241
60.0459
176.852
113.729
112.841
45.4119
115.742
66.4751
81.544
47.7118
77.4089
57.8381
466.471
717.067
118.131
48.227
83.7067
41.942
109.457
47.4195
58.2114
63.5016
65.053
43.5749
169.575
75.5052
46.7868
65.6813
180.446
573.326
241.081
83.5564
41.8287
73.6416
41.9531
644.479
68.1967
677.579
81.3933
116.063
65.9648
66.8545
57.6937
86.3976
53.6954
87.0714
56.598
204.509
90.8054
49.2336
72.8221
88.192
400.416
65.9824
199.797
69.3904
48.6641
43.4188
136.248
79.255
72.7002
45.9284
61.4385
67.3936
69.9961
79.7906
77.6354
63.724
125.069
194.915
69.6551
97.566
66.1412
109.401
88.6608
47.1513
146.415
60.5814
77.0265
75.8689
43.6523
293.675
412.201
91.8874
65.9123
45.3985
88.862
55.4704
130.99
42.6408
287.956
77.731
42.6736
74.711
45.3775
57.7516
68.0037
49.3556
87.012
40.51
45.5224
48.1932
163.729
40.2946
335.583
289.918
270.433
372.778
75.9164
228.37
59.1118
45.3973
142.065
306.058
402.898
103.851
62.1615
141.583
111.346
166.508
124.198
92.2902
54.933
68.8027
107.247
111.976
54.7875
78.735
271.192
56.2225
62.709
153.542
117.808
113.732
185.727
744.159
467.993
217.468
240.07
80.6894
116.78
43.0862
44.8411
69.2461
415.177
170.224
69.0637
70.944
40.8462
361.862
415.809
40.8075
165.11
87.0737
40.7656
161.636
40.6187
41.7266
70.9602
70.2811
82.2531
46.3629
41.0901
59.8639
67.3854
65.9553
135.499
107.637
41.6988
236.799
47.3336
45.9525
46.6867
189.234
77.2792
190.548
117.428
53.6327
42.5425
66.9801
1424.85
69.2495
79.7249
68.6958
62.8716
61.1333
109.991
114.926
127.943
298.29
99.2692
821.135
49.4171
64.3824
56.2558
65.8187
44.4549
161.409
120.933
43.5627
279.788
91.9641
71.5622
230.799
78.3572
54.3036
68.2628
69.8746
67.5982
109.663
308.175
65.0301
73.9227
203.411
216.586
684.673
211.324
85.7892
167.45
43.6947
45.929
109.245
193.036
85.0236
82.0687
89.4075
101.517
47.812
67.9314
100.177
97.2708
88.3564
349.664
447.245
89.1833
160.379
198.808
609.768
266.158
197.894
90.8241
67.1563
96.5893
90.0206
255.25
45.1616
47.1828
96.4886
355.304
117.474
78.5173
96.1098
52.686
107.211
125.266
78.6073
534.606
53.3372
65.0969
131.331
97.257
65.4216
66.1371
104.734
107.133
87.012
56.4166
120.311
43.7217
43.7798
43.8406
77.934
56.7559
145.294
52.3918
209.924
279.163
260.534
98.4106
83.7004
43.9307
70.3034
112.639
486.585
258.234
741.659
44.4526
57.6641
54.4026
296.818
87.0741
310.273
234.687
228.675
133.605
213.943
88.7108
84.1526
71.3655
45.6775
129.004
66.4442
75.4717
265.22
68.6649
68.6932
50.3116
265.179
377.845
150.508
210.022
644.308
187.934
88.4061
66.2576
88.0362
101.557
180.509
184.274
341.857
45.3408
58.0621
70.7897
47.817
61.509
100.092
93.3126
54.2615
123.496
52.0031
75.1885
49.8415
47.2952
121.372
67.81
110.392
43.3409
44.4289
158.558
45.2965
96.8831
102.423
43.2439
62.4783
94.7101
78.6306
68.8123
78.7866
452.671
181.11
122.016
104.671
1839.4
1050.22
588.08
432.571
99.1279
49.0712
1292.4
389.27
52.9387
62.5411
104.526
86.7417
395.463
135.768
44.0446
110.826
58.9713
49.6517
199.299
950.882
136.038
1242.88
149.472
249.99
640.103
58.6392
75.2585
131.63
352.7
90.3754
44.4272
45.1413
735.786
124.375
378.432
72.0445
157.991
47.1163
52.1428
485.672
508.95
80.4161
50.9226
76.7969
585.3
42.8599
51.2894
411.237
481.065
72.5919
42.8211
1027.4
648.247
569.868
98.4802
314.198
500.463
652.787
78.8614
85.91
110.51
63.4874
104.504
484.445
1329.36
64.1148
60.3531
58.7214
51.2873
45.8801
80.5062
119.298
65.5138
49.5561
47.4476
98.4993
421.623
1229.86
50.1508
224.856
106.849
71.5234
157.571
56.9552
89.166
75.0392
45.2923
196.485
52.8273
537.449
42.3025
775.67
394.729
659.049
200.467
102.051
61.5505
102.02
76.6655
221.569
1455.65
102.906
395.754
174.056
513.229
163.011
739.995
631.182
89.0058
83.8899
1726.45
88.0188
48.6931
71.917
686.813
1133.98
78.0766
51.6932
489.175
75.2897
543.359
756.815
106.328
110.354
822.876
101.872
43.4405
627.191
50.4174
384.032
971.04
42.0162
68.6179
82.2328
56.4776
121.28
99.5768
41.593
119.875
88.0501
115.847
57.4841
41.9283
209.241
233.267
573.165
49.7368
91.906
240.832
44.5951
847.357
84.9295
109.328
150.052
424.489
85.6346
323.41
180.057
145.321
56.6767
451.343
221.512
241.99
89.0724
161.575
62.052
76.0293
74.3111
354.338
191.61
112.708
706.924
150.1
108.601
240.526
118.881
139.935
674.888
229.398
75.0366
151.638
83.8617
148.415
308.196
575.943
58.0502
44.9006
62.3937
437.073
63.515
289.142
57.6706
62.3142
47.654
160.937
53.9013
201.71
323.989
53.2893
59.3495
90.3027
78.4454
947.591
398.294
113.788
749.056
354.017
121.981
218.576
64.2457
55.725
716.915
55.8016
341.216
374.752
44.2161
57.7815
121.454
96.275
56.2591
70.2853
170.988
70.61
76.6813
65.2939
79.1563
252.427
65.4329
185.375
151.373
251.789
54.5423
716.814
441.399
53.4267
595.49
255.037
56.179
102.763
582.214
213.019
45.4242
186.677
503.652
209.252
589.286
56.2141
582.059
119.525
54.2615
68.8941
105.986
192.376
116.899
64.333
220.66
51.3439
231.731
104.588
1332.63
140.445
79.655
114.766
273.487
54.9474
304.232
113.998
105.428
553.632
77.1127
77.5994
1187.29
42.7482
100.731
371.06
61.3341
330
401.74
148.608
68.6056
81.908
922.501
205.975
519.547
216.747
76.7908
69.7001
98.7519
688.343
640.582
311.199
86.9921
48.2483
83.9788
85.0184
128.344
322.182
92.4549
55.4398
61.661
60.5363
44.0591
85.0071
42.7689
46.8129
118.638
78.1509
44.681
126.084
243.863
59.1613
46.5928
128.046
63.7113
48.1053
53.7844
96.885
92.1779
48.544
96.9013
478.125
87.5085
48.3348
53.9856
42.22
254.013
65.9711
52.0912
581.869
424.678
289.844
46.5477
567.235
146.764
73.7259
863.279
89.5816
843.916
89.7012
66.2866
81.4147
66.6284
43.124
81.2614
82.6682
88.8633
111.271
87.3784
101.597
166.372
78.7873
82.9406
436.809
86.515
1458.42
71.0334
693.94
46.2585
116.558
171.936
50.807
66.7191
189.863
42.5032
441.865
337.768
1089.26
50.1648
608.283
59.833
106.227
184.992
60.8637
588.331
90.0123
292.95
77.0972
750.124
683.95
78.322
41.9904
428.686
66.3795
434.437
85.0369
93.4502
68.7047
71.4517
55.1894
42.925
87.6442
310.223
75.6045
176.455
80.1052
86.8692
40.4939
154.655
306.728
88.3122
253.665
136.452
68.395
118.007
76.2764
72.6757
54.4314
145.904
129.081
48.5681
83.9594
81.1092
64.8669
91.7895
311.614
298.255
78.2169
86.8469
342.199
85.8476
51.5072
63.0131
46.3691
160.285
163.193
203.932
104.429
67.9607
73.4404
63.1912
56.6225
58.1484
56.9867
484.11
129.399
654.695
514.172
627.692
58.0235
66.2956
73.1262
69.9806
47.2144
326.229
80.6133
45.8723
76.0416
111.512
76.8776
259.877
75.9351
154.624
117.843
93.566
48.3617
68.6882
86.167
84.9583
66.5065
109.18
96.1498
185.769
85.3246
68.9091
78.3986
146.398
165.099
64.1025
77.6527
131.279
94.3064
167.217
50.0936
56.3745
132.736
67.6889
53.7941
73.7481
42.9669
54.2017
87.2381
71.7997
362.577
69.9211
88.7874
49.8629
68.5824
594.225
76.9459
83.3827
59.0657
59.143
85.2066
84.2512
907.671
106.555
307.485
50.2256
59.0114
69.791
40.8402
47.5474
107.718
78.4056
47.5699
44.0561
318.746
106.587
511.471
116.297
263.797
104.069
77.6934
108.77
485.488
178.735
93.6482
76.4094
921.979
62.712
77.8317
83.2053
79.8053
73.8338
909.646
65.3117
87.3802
46.7616
119.63
54.2766
880.706
973.849
65.3522
52.5273
42.3038
87.0388
90.2347
59.7928
1135.51
614.938
62.9738
134.486
484.924
63.394
209.238
124.338
42.2791
60.3244
46.2479
71.9491
210.339
82.7039
75.5033
43.8178
54.9249
72.7976
48.6131
352.207
63.4604
145.808
176.187
426.153
352.162
99.1183
134.642
77.0194
133.154
115.252
42.3387
592.213
356.097
131.227
87.9269
106.052
87.1439
84.8701
221.815
40.6637
44.4301
62.1878
65.0123
135.525
72.4234
348.376
384.922
44.3612
131.226
42.4177
42.0665
80.263
60.1335
61.8512
53.4309
40.8544
219.975
322.846
41.2343
75.264
273.723
362.164
47.1887
41.4521
102.386
183.18
903.668
91.0735
395.59
323.193
602.838
390.534
72.1498
48.4592
41.6136
58.4301
934.766
55.9554
85.6803
78.9284
40.5417
614.926
1024.29
1002.99
192.012
242.112
49.4873
44.6895
53.3072
82.7847
651.14
537.896
404.473
531.927
380.757
53.3135
47.4921
836.994
47.8091
879.51
95.2421
876.92
79.4161
151.308
118.648
173.113
169.166
169.716
158.537
63.0047
88.717
68.4561
64.668
72.1029
66.0457
1283.38
712.778
89.904
362.839
586.912
355.43
66.4133
44.4341
554.09
489.952
528.19
42.4726
773.691
49.2992
998.759
551.992
663.593
295.926
52.3102
62.193
45.3302
71.0971
88.4818
173.472
78.6052
83.6884
74.6559
92.3698
76.8889
47.5698
46.492
124.581
44.0026
50.9467
76.5078
100.612
97.0496
84.2836
148.123
88.7061
76.5052
126.382
95.8026
88.0398
90.7515
147.858
977.144
58.7728
318.725
68.6195
87.9069
506.494
63.0579
57.2012
46.4687
114.579
92.6245
53.4693
106.999
98.3537
81.6793
45.6267
65.3094
81.4495
71.6866
101.356
72.0633
95.4052
273.959
87.2521
78.0659
73.3174
107.558
76.5012
353.651
43.2363
66.1271
103.184
328.43
244.001
88.0292
98.5283
919.225
225.897
183.481
88.9721
71.5223
108.042
86.5531
53.8742
126.682
76.8061
85.8935
425.661
49.3947
161.475
125.903
106.919
106.182
200.986
76.4856
57.6077
43.1276
52.838
97.759
78.4701
397.793
61.5364
92.0651
127.909
103.533
844.11
56.1756
120.725
104.748
267.985
412.739
140.804
42.4579
134.851
64.5836
44.823
41.8555
553.458
99.4227
56.7752
421.67
130.341
67.5494
142.978
663.044
1102.88
180.801
71.7842
706.903
99.962
270.816
144.219
603.452
234.726
123.731
92.3056
498.969
90.2755
69.7932
85.2571
98.7084
53.493
61.9544
340.083
43.7547
99.5339
532.181
154.979
563.209
88.8341
437.782
48.0241
1138.79
105.892
106.079
658.697
250.519
312.224
481.985
455.596
259.634
82.97
83.1049
421.484
55.5558
84.225
321.822
66.3088
56.1716
76.2317
168.732
69.6866
49.3461
727.881
478.493
193.019
258.054
164.405
91.5456
79.872
80.1298
110.039
78.7509
56.6786
85.048
63.6621
259.035
268.692
122.386
54.0362
105.371
82.312
128.118
104.187
96.3928
78.1756
261.401
58.2576
67.6435
248.064
130.543
598.897
205.664
97.2868
672.187
136.561
111.592
374.275
133.247
127.546
49.25
498.485
41.32
55.6778
50.0093
84.5317
67.1311
98.2034
250.975
104.64
119.412
78.7568
110.523
99.2052
41.7866
365.026
159.782
565.938
1004.31
107.124
388.906
153.568
68.279
392.592
66.7153
60.3647
109.058
128.95
695.021
501.267
53.6477
316.901
348.78
95.9317
1920.02
397.289
165.135
344.546
61.4649
88.3847
241.095
334.604
145.658
722.701
52.9239
51.5098
154.292
50.081
47.8675
106.156
323.246
534.547
49.4685
137.007
42.7872
144.355
62.2414
143.754
331.411
93.4024
324.733
59.6358
63.399
759.606
43.3081
53.2185
102.822
53.256
120.263
261.085
45.7312
927.356
547.896
847.955
494.008
119.396
66.2117
52.1956
61.2611
85.432
45.5031
83.335
147.905
60.801
69.0532
649.476
45.0826
170.357
43.3362
136.754
71.326
721.676
126.604
120.93
44.6321
126.942
149.947
48.4695
59.3803
95.8079
43.3421
195.12
95.3874
102.845
54.7295
44.425
100.211
45.6566
125.199
470.595
43.3657
74.6418
50.155
62.2059
254.754
213.509
122.019
459.555
860.829
256.651
82.998
388.07
289.418
627.532
74.4466
213.002
265.175
340.076
317.412
785.523
53.717
43.9426
212.911
642.519
52.9716
417.366
123.144
433.948
80.0274
64.4549
673.315
618.872
261.935
56.605
246.995
129.373
340.987
43.6327
197.626
62.902
55.5428
93.9809
93.8957
286.154
98.8634
63.3356
159.507
78.2931
282.928
434.059
42.7455
82.8159
52.9434
839.701
99.2009
129.91
230.423
136.45
70.4806
43.0797
89.8309
74.5335
522.612
42.302
104.173
310.361
63.4883
49.3612
75.9966
72.4968
669.675
135.927
209.806
93.5331
72.3925
913.824
523.819
59.0804
141.003
59.2371
46.6248
416.478
98.0388
536.577
56.1401
49.2364
92.665
60.046
46.3088
60.002
70.9719
134.344
271.233
222.183
346.981
68.4735
69.6459
46.4593
168.646
613.265
937.043
66.3099
368.11
176.46
688.851
75.5676
340.702
108.359
182.088
128.248
79.5709
252.538
77.9745
191.968
112.214
59.3646
1004.61
107.579
439.587
107.394
77.6941
108.104
173.994
71.3726
66.8518
403.82
102.952
119.038
56.3984
122.04
452.79
123.568
78.924
154.826
46.469
62.6745
43.6029
74.2885
75.984
146.117
68.2097
90.8223
95.0762
74.2271
73.9865
62.7842
72.0573
59.6568
432.602
48.4285
106.045
47.7284
66.3154
119.403
71.2965
52.703
77.1646
97.2585
84.8386
123.922
342.243
45.9416
186.998
410.264
158.581
156.246
50.0994
156.802
92.2623
352.918
63.6976
43.5074
51.8635
177.67
54.0875
64.8511
854.894
226.385
385.035
44.1196
49.9336
193.787
81.1263
55.636
134.456
49.1072
77.4071
53.6982
391.84
44.1038
152.849
44.3607
42.6983
74.2116
66.2012
131.325
106.036
41.7191
313.344
62.7014
66.0549
87.487
806.841
64.0635
61.7959
122.203
63.102
56.7185
119.327
59.2021
51.1466
107.57
211.448
123.514
80.8863
369.227
108.029
241.096
48.5037
182.4
62.8235
93.1432
245.346
48.9463
132.291
65.7103
82.1138
151.449
70.5147
558.714
114.486
43.096
513.892
131.392
926.882
307.284
229.531
84.7201
91.6459
122.129
368.48
58.8526
432.918
91.7954
354.022
64.7381
434.376
61.8055
250.615
216.579
119.078
327.197
508.097
350.083
1078.96
541.704
332.698
428.841
433.273
322.825
41.9654
94.0126
339.874
68.1913
663.118
57.5192
518.011
611.566
114.809
98.4565
74.1254
43.3911
112.747
46.3448
248.241
129.503
81.8757
185.721
83.8974
151.705
71.0564
53.5791
109.237
48.0871
215.43
47.2546
67.7016
694.891
64.9935
42.28
100.802
63.4536
841.165
288.998
73.3898
74.6855
170.612
48.9495
84.6908
48.9604
49.6787
102.701
74.2552
54.2629
61.0183
335.052
87.4171
53.5289
42.5124
43.5642
45.3729
202.048
70.0042
92.9814
53.1992
84.4257
97.4806
54.4279
215.858
71.3589
47.3623
58.6492
82.1681
132.675
110.47
97.9959
49.4566
118.297
83.4475
50.9158
50.7396
74.7451
87.9357
101.139
66.4975
120.108
65.0241
92.2066
113.975
317.242
777.416
1108.6
119.011
59.2303
515.566
167.148
230.044
44.2921
50.1242
42.4697
88.5452
70.5897
42.6254
42.6402
44.0897
108.302
41.6286
46.7996
41.9954
58.5702
191.302
51.258
109.988
51.2211
95.7565
233.543
58.2351
52.8602
66.7722
1088.43
833.529
99.8161
67.1179
68.082
58.7778
113.602
478.925
61.9022
66.1112
89.4632
42.0071
93.2106
49.0362
87.3113
109.588
90.0371
61.2221
199.548
275.787
62.3103
2039.66
280.759
195.311
61.7515
83.3036
96.9229
112.355
53.5773
73.5749
294.545
44.9172
187.113
652.106
103.096
121.593
582.582
63.1375
78.0446
89.5377
41.7595
114.328
401.25
90.286
91.6814
439.341
223.91
1012.48
621.798
98.3712
47.4246
137.262
66.6711
184.989
151.175
564.74
49.8488
45.4167
635.557
52.7335
188.085
78.7823
101.476
658.221
659.455
49.2291
42.5166
912.288
48.8864
52.4213
65.0427
47.2714
80.847
164.543
275.696
60.467
572.41
101.976
51.2133
83.5281
717.866
77.1023
599.298
64.2931
61.1373
84.403
83.18
59.8834
117.433
63.7958
553.531
116.898
121.69
528.926
119.869
52.882
748.829
118.726
102.666
86.2382
184.503
104.68
81.5196
44.4195
264.861
72.3391
70.6683
63.058
130.3
84.0139
58.8284
44.7796
67.728
141.847
72.2435
65.0977
79.7577
499.542
71.7875
71.4383
69.5333
90.8356
45.9275
63.9772
63.4961
130.378
106.084
140.179
146.634
88.2816
428.199
63.3393
55.8982
408.863
356.352
477.445
87.0587
336.004
51.6518
526.117
93.3971
284.578
94.3102
43.5689
112.411
195.102
92.2553
69.7724
42.4892
62.9681
410.099
63.1652
48.9921
53.1539
1383.92
257.762
44.0213
1435.38
552.834
321.607
258.466
596.471
255.279
78.0163
241.121
86.8924
102.065
383.057
842.937
61.866
43.9052
53.635
483.366
44.317
841.182
153.48
126.05
156.073
122.075
329.594
41.899
113.705
121.243
55.8436
102.734
53.1192
117.234
1956.08
1754.27
820.506
96.4313
725.839
42.4088
48.6159
60.8163
98.4954
43.9986
54.8436
42.0067
73.456
88.6021
46.8807
53.9882
75.1068
46.3227
98.9998
118.466
43.1049
112.812
118.001
42.8712
52.0807
858.221
55.435
845.44
590.28
122.902
129.949
83.0325
121.348
68.0209
50.9699
639.994
57.8874
56.3066
46.9534
49.4228
77.0618
135.306
140.038
172.64
112.831
46.0408
576.933
60.5534
328.92
411.11
63.679
343.908
86.2925
52.9678
60.6579
57.4086
61.6684
45.6585
126.588
50.7798
301.848
217.665
336.347
56.5189
56.3369
81.8489
272.557
507.407
93.9901
145.733
63.8151
255.637
63.5384
192.824
389.345
82.7157
56.1554
91.606
894.026
61.5743
58.9398
118.466
46.8479
136.696
122.075
156.213
84.2626
287.024
169.918
360.169
71.3654
262.611
440.821
311.903
53.0946
171.319
86.9716
101.871
53.4213
65.2969
62.345
487.949
84.5915
96.9364
335.632
81.5475
61.9533
95.1358
45.1241
139.738
48.2481
63.7567
162.16
103.559
77.666
163.365
95.4835
96.4276
79.4572
124.364
43.1491
276.409
231.554
103.453
104.957
44.0414
238.817
58.9321
42.9406
83.8171
45.7325
105.88
87.8755
50.0474
55.0524
98.1871
295.881
210.449
49.6423
798.06
43.1274
97.5311
93.7822
48.1617
749.507
145.148
654.822
50.0351
67.1197
532.43
669.641
84.8711
99.8189
185.101
127.983
48.5443
105.504
63.2387
142.571
81.9196
131.406
49.8355
133.084
99.3449
104.682
59.6552
86.7835
42.0669
59.6124
605.417
438.237
103.46
107.944
97.927
84.9532
84.1782
162.165
43.346
48.9488
59.2679
84.8836
79.3406
66.5765
109.87
50.9962
57.5276
51.7973
71.0012
57.4422
68.5472
205.129
90.8277
67.7017
914.462
76.2012
63.5698
77.2134
42.7973
81.9546
203.951
45.1705
73.8936
80.3609
336.01
64.2419
63.1822
93.7475
1410.37
94.2889
155.482
116.107
64.469
89.9579
79.8287
62.1289
854.229
92.626
68.3203
62.1618
42.049
285.879
45.6223
300.017
414.057
112.119
72.0111
59.3158
118.715
86.2302
55.3135
442.13
117.852
289.011
42.7801
136.676
439.886
118.113
48.0888
97.9392
52.9515
420.816
54.9111
55.4725
87.8411
41.3043
59.4857
86.9824
50.5221
418.56
41.9379
396.742
45.0035
71.6655
66.2671
145.751
84.7282
122.876
111.081
575.259
111.009
116.28
73.5652
44.0842
104.015
57.9403
52.0503
78.651
74.4564
62.1683
119.392
46.3212
65.7622
46.9892
303.782
86.0701
520.277
550.234
324.891
153.619
67.456
70.1259
60.0043
189.334
87.6332
42.8136
41.4924
111.296
152.684
45.6665
69.9908
1010.5
136.475
64.8743
73.5978
364.691
825.886
58.867
550.275
540.142
198.78
370.159
158.712
551.566
71.3414
214.058
736.721
73.344
41.5357
60.7419
109.437
312.349
42.4584
43.9024
70.229
138.701
152.215
811
106.804
1057.91
118.139
68.4631
81.954
75.4047
76.6882
462.005
200.9
428.24
482.055
66.3997
329.765
1045.11
65.5238
189.081
124.692
402.728
150.066
130.636
685.846
1006.18
108.888
637.892
122.976
447.765
79.7197
43.148
149.646
813.81
699.976
62.0333
99.35
143.113
98.9445
260.167
48.3985
72.3001
966.293
344.501
329.582
84.9408
303.637
65.4158
324.58
55.0806
119.002
182.665
267.763
86.2016
122.693
264.174
105.283
784.431
70.4788
59.0245
412.076
46.0362
142.158
44.4657
54.2701
42.133
79.9847
419.356
428.556
322.072
57.5519
63.074
317.456
56.5393
492.26
72.0112
52.5964
78.8801
200.355
153.844
598.954
49.4941
71.2113
62.3712
268.57
98.0661
571.536
907.834
417.914
104.578
59.2986
432.99
317.275
146.666
45.9021
61.248
41.7743
672.466
285.001
400.675
1098.63
238.786
92.4384
77.8961
758.088
407.796
62.4858
87.4837
99.6874
410.107
60.2637
46.8497
88.2128
79.7264
767.695
244.681
220.772
213.589
311.717
310.767
159.374
87.9445
816.685
371.619
704.433
199.784
384.568
670.616
149.159
57.2458
108.099
58.149
58.8388
78.37
78.9845
133.347
269.417
83.3128
177.255
180.886
145.289
113.575
189.593
115.045
103.864
127.652
774.32
1108.86
389.212
68.8823
115.882
81.8553
239.997
601.197
155.884
535.566
79.1095
470.177
378.264
172.173
46.8041
42.6613
68.396
63.2509
710.965
95.309
57.6199
436.907
70.5594
861.345
475.414
107.628
474.48
63.0443
43.9977
45.6705
42.0348
96.4138
59.5447
88.276
126.685
71.5745
44.1118
139.061
579.009
545.613
43.2568
104.383
47.0145
61.5115
56.2574
601.151
47.4114
53.6458
52.8714
102.688
44.6432
54.6884
99.2238
54.7656
57.6794
52.0597
237.675
43.3024
55.2592
134.476
404.917
364.626
63.693
438.345
642.155
53.2979
51.872
163.634
77.5155
339.685
70.558
88.5876
82.9718
216.449
67.0063
89.1739
993.777
499.355
81.836
616.928
45.6524
45.9317
60.6212
44.1502
46.543
69.9566
52.4637
78.879
216.487
87.337
302.737
238.884
185.384
79.4111
42.1144
501.183
126.303
80.7613
526.607
99.5982
679.022
60.0206
420.45
43.639
183.014
84.496
221.132
45.7072
83.7746
75.1633
506.705
49.0445
41.9461
195.476
80.2267
140.466
60.0607
73.4208
91.5374
46.5886
140.137
47.7216
62.3298
143.825
93.1947
391.136
67.555
44.9065
60.2086
42.7898
50.6942
321.128
41.7809
95.7633
42.5078
216.415
111.87
48.3424
107.464
109.956
55.2542
69.4886
74.9794
124.575
143.708
50.6217
48.0048
89.8166
65.5855
298.504
634.446
501.173
58.9204
43.6956
58.6469
63.8383
87.6236
929.677
234.454
62.2045
52.1077
76.8571
45.0525
47.3484
74.5731
151.752
207.259
509.338
331.323
56.128
78.922
70.2169
41.8886
218.699
71.6097
121.71
111.602
48.4098
980.539
76.7511
56.4878
69.4009
72.9358
156.164
595.228
44.1656
423.829
53.7142
716.594
124.907
530.427
67.9882
42.8456
60.0587
104.677
47.8106
48.5081
122.43
43.4087
42.5004
53.9934
60.9062
235.127
51.7639
740.16
69.661
59.8823
155.509
171.477
48.3928
376.563
941.91
730.945
449.706
415.928
54.4662
384.269
289.125
71.2653
56.5519
52.3323
636.893
88.7759
94.7207
47.2693
77.8909
250.472
786.075
158.336
85.0649
46.2948
64.4718
192.301
44.5975
54.9305
619.354
456.149
214.187
755.529
72.6038
45.6775
69.6762
79.5981
1115.59
50.314
45.0646
42.3576
262.386
45.5361
49.3953
89.1049
99.1877
43.8499
110.182
45.1931
140.167
84.5559
139.21
48.6688
235.342
86.2273
110.173
158.577
108.869
179.85
47.4615
617.885
93.0437
256.477
291.633
271.706
84.6898
128.961
206.715
64.7038
43.6582
50.8062
52.5692
84.7239
565.997
114.622
45.2615
81.1533
64.3351
47.9062
118.626
61.6583
132.5
102.306
46.1324
95.3196
47.9608
77.7581
298.126
601.737
71.3085
98.158
78.8214
101.808
512.333
242.823
416.3
818.861
139.363
45.9725
47.5557
43.624
103.15
807.091
78.4296
740.143
109.599
43.8702
116.616
416.172
45.3558
45.7647
54.6399
73.0446
59.6518
203.511
74.4261
88.8126
323.856
53.5634
95.689
65.3602
127.814
216.671
50.3843
693.629
80.8529
106.784
54.4128
135.08
45.1578
138.782
123.23
93.6685
88.6663
79.3333
65.7752
69.4401
49.4688
222.366
61.4491
49.6336
113.165
200.564
226.404
174.272
97.1999
107.862
192.909
69.6707
245.89
137.622
130.24
98.3648
103.999
133.041
71.1724
177.951
283.755
96.6977
52.2776
48.5251
250.348
87.1342
98.9541
48.6424
97.484
87.144
47.7328
91.4104
408.93
99.4824
70.0034
84.2369
657.537
76.944
86.9225
145.649
57.9982
151.653
46.1104
788.931
84.7253
76.393
80.1579
53.6649
110.016
53.7284
421.981
42.1499
74.583
659.906
59.2265
106.17
193.474
97.1848
49.1596
602.407
58.639
43.1649
101.969
126.937
60.9642
339.684
43.6637
342.618
95.9028
42.6359
68.7661
114.328
715.956
180.572
71.0262
43.157
129.219
406.778
444.343
115.198
122.176
955.044
210.281
226.42
125.988
79.0257
101.055
59.7946
508.687
1041.74
152.996
158.293
100.194
1214.62
433.705
531.138
383.674
183.512
64.6176
49.3789
152.802
73.7489
543.046
303.12
71.7214
969.436
104.662
130.727
70.1625
50.3829
103.325
85.836
89.1888
79.7668
147.728
184.326
860.564
57.3931
119.104
632.527
606.99
182.268
174.937
60.5553
604.372
47.0187
65.8877
338.208
148.443
42.3882
325.968
420.993
72.2943
121.319
47.8969
91.8403
53.9704
80.9266
172.119
80.2176
599.333
45.7461
49.7143
84.5002
467.615
172.351
121.181
159.312
242.374
119.563
77.5036
432.571
106.213
67.3819
194.921
786.348
216.184
59.2967
331.131
160.407
93.6249
65.0909
126.479
46.6185
105.151
78.9572
72.7651
62.6627
60.0817
84.6682
42.9757
42.3993
49.4743
100.245
49.5189
160.565
388.24
720.809
93.4802
90.4434
58.9712
47.6615
101.589
636.805
51.4581
141.244
71.919
244.989
66.1392
151.513
212.429
446.059
48.0024
57.02
279.581
52.6835
68.31
152.78
98.082
409.808
86.3881
214.028
482.625
180.195
628.79
195.868
379.276
102.92
181.605
145.041
53.3525
500.252
150.697
82.5211
178.681
108.074
96.7933
42.7248
50.8152
48.8701
43.5474
87.4175
352.333
41.3423
948.707
107.566
352.212
111.892
384.531
1015.75
54.7736
245.206
782.12
169.487
354.624
76.0354
69.5023
747.092
981.132
290.422
166.592
51.0376
479.829
101.66
645.06
52.554
52.473
241.523
998.4
61.0878
85.1245
50.4109
249.111
509.637
47.5776
420.013
201.198
528.974
712.841
49.4427
335.778
73.6003
611.457
281.538
199.585
443.957
246.641
489.686
346.794
227.909
81.5094
78.2964
72.7968
48.2978
53.4803
1425.73
74.5482
112.377
80.0286
78.4802
150.538
1200.16
161.64
193.125
287.222
165.667
215.539
123.35
42.3671
78.0587
1075.55
652.212
283.902
189.163
256.578
88.8684
493.313
59.7388
266.135
386.098
58.1462
552.639
88.1572
333.315
305.335
193.828
286.34
289.407
177.142
48.6973
131.574
59.6641
572.12
71.5503
193.141
84.3232
271.488
54.1103
67.0168
320.541
117.497
266.993
44.3744
1404.91
46.1328
58.9172
57.1296
53.5896
105.098
518.448
200.896
108.946
653.59
72.5997
49.608
55.7641
868.875
97.4911
100.529
837.154
356.802
908.076
541.156
195.354
280.965
156.509
183.82
713.917
65.6996
427.088
150.143
65.757
179.08
63.8452
170.637
82.0975
615.926
477.073
586.79
384.658
323.694
257.52
52.5799