/*--------------------------------*- C++ -*----------------------------------*\
| =========                 |                                                 |
| \\      /  F ield         | OpenFOAM: The Open Source CFD Toolbox           |
|  \\    /   O peration     | Version:  2506                                  |
|   \\  /    A nd           | Website:  www.openfoam.com                      |
|    \\/     M anipulation  |                                                 |
\*---------------------------------------------------------------------------*/
FoamFile
{
    version     2.0;
    format      ascii;
    arch        "LSB;label=32;scalar=64";
    class       volScalarField;
    location    "0.0883272";
    object      p;
}
// * * * * * * * * * * * * * * * * * * * * * * * * * * * * * * * * * * * * * //

dimensions      [0 2 -2 0 0 0 0];

internalField   nonuniform List<scalar> 
47425
(
-0.154934
0.18139
0.0894194
-8.69165
-25.9889
0.0391842
-23.8947
0.0296256
10.6077
-41.5347
0.0119761
11.0582
-19.0623
0.0260808
-4.7723
9.91709
0.0660961
21.8804
-118.739
-41.2248
0.2892
13.2458
-0.0403362
0.383164
12.0414
0.298842
-0.00785395
-49.5715
0.0302118
0.137942
13.3431
9.99622
11.25
0.22013
0.125667
0.0138586
14.0208
11.0342
4.37465
0.142294
0.432829
-4.83964
-1.78918
10.95
-43.4198
0.416992
0.0160687
10.8529
0.185843
0.182586
42.2776
-3.2484
0.147989
-38.7337
0.0406779
6.17375
0.0641714
0.109318
-11.413
0.0585327
-40.6023
-38.0999
-53.1819
18.6348
10.446
0.625776
11.34
-5.47331
-46.0133
20.4469
1.25975
0.292534
-1.46381
0.758565
-48.1308
10.2851
-52.8651
0.0879278
-57.9147
-26.2821
-49.8831
8.03159
18.4932
10.1645
0.771901
-0.503751
-1.65171
0.143443
-7.45034
-31.8001
12.5567
-0.514714
0.255433
-0.471492
-0.449271
-0.22321
0.111619
-0.509032
-0.208413
9.11324
10.0512
19.2596
6.82927
43.4819
6.87677
-2.06965
0.391967
-0.231128
0.133855
11.3302
-33.722
10.9599
-2.46573
-0.683082
-3.83948
31.2001
-3.42006
43.7272
5.74745
-6.66804
-0.743203
11.2745
10.8357
-12.1034
8.84032
-4.20018
-0.48729
10.3446
0.116491
0.38126
19.1705
-1.77351
52.2318
5.68684
-5.39084
-14.7968
0.374932
-4.08432
8.80629
-3.38288
11.3199
-6.37223
3.57799
-4.02453
8.82065
10.4064
-24.7206
10.5989
3.59328
11.1979
-3.44669
35.366
10.6412
-9.16066
18.9846
0.469031
-1.13507
-124.85
-0.0852957
0.0186603
-5.35993
0.481787
0.216514
8.52535
-52.0913
-94.6932
10.6345
-48.9595
0.392131
-48.9463
-49.0943
0.332411
10.4033
16.1669
-0.232319
11.6288
24.4649
-0.0257976
0.120887
0.139202
17.8616
0.396719
0.00322581
0.183097
0.217379
10.0122
7.77862
46.9649
0.117381
0.177656
11.1592
0.110112
-14.8505
11.3767
0.244139
-4.54454
11.3568
0.195797
-5.27322
-0.334882
0.111471
-1.30613
0.875206
-4.26832
6.6212
-0.5483
0.0233694
-3.77402
9.92261
10.2858
-0.246183
-4.61886
10.3643
0.343879
-1.20207
-5.68206
-0.632922
-30.7787
19.1232
11.1556
-28.8335
-7.39604
0.950775
-0.964219
-0.1576
-26.6769
0.222081
-5.40376
-7.93242
-12.3072
-0.297853
0.0569375
-1.20109
10.9833
0.0487598
10.1578
-31.3833
0.289189
-28.4774
0.0523271
-0.047882
0.200924
0.201828
-8.69366
5.93602
10.2978
-0.306243
10.1821
0.334902
0.0771961
0.395812
-24.6785
-0.0173502
11.3411
0.184434
-0.0336461
12.5948
0.0465646
5.29111
10.2219
0.105301
10.8788
7.53093
7.42702
-15.1611
-1.1362
0.0638643
-14.8298
0.254327
7.4818
7.92794
-28.5808
-31.0425
7.88763
-26.3009
8.09254
-27.4924
32.0723
-29.6605
29.8237
-37.7088
-0.00127989
-41.8429
0.213626
0.133159
-6.23651
0.175792
0.0430362
0.576031
-3.60324
52.7474
17.488
10.4821
0.116102
0.0537696
8.77504
-7.13885
8.34236
10.7359
-12.5046
0.0451285
0.306932
0.0291271
-0.0418442
-45.7168
-57.9983
32.0982
0.152648
0.142071
9.14135
8.57488
44.9065
0.0130899
-0.0313304
-22.2921
-0.157665
0.262246
0.0234244
0.0757554
-33.5598
-20.9114
9.70734
9.26306
0.0163818
-0.27609
-0.0671163
9.54202
0.0934153
0.180191
0.0561433
-9.49512
-52.8126
2.89934
0.0509429
11.2033
-0.031575
-51.9863
10.9612
0.213509
0.427396
9.629
9.41375
0.425891
11.2185
0.236406
-0.00458247
0.132361
13.817
0.0407053
0.149145
9.92184
5.21356
10.0271
10.8782
10.2487
-4.06561
0.248109
17.8813
10.7284
10.5884
15.9123
-7.09521
0.315675
0.0260805
6.31999
-1.63739
0.0289806
10.6262
10.922
7.74244
-0.0129864
-44.2756
-1.73274
8.88155
10.4213
8.72731
-5.90965
9.95124
10.2888
13.6228
10.2062
8.65385
0.420137
10.7804
0.424449
10.8041
0.0228079
7.98535
11.2721
0.0301849
4.17281
5.62352
0.0733761
4.82875
0.28446
4.75273
11.2462
0.0196505
-15.6239
0.0588796
-33.2619
0.115851
-37.4202
0.13343
0.233085
0.127321
-0.0200018
0.162708
-0.0827478
0.00918288
5.56264
-52.3425
54.82
0.281446
5.1796
2.31759
0.772862
0.157178
0.028054
0.185654
0.0956497
0.292563
0.30277
0.685644
0.0128792
-0.0168706
-11.1137
-7.51051
-3.98532
14.315
-51.7469
-1.36283
24.4185
-51.2112
0.65662
-52.9014
-35.6213
0.410187
-2.33452
-1.28148
-5.35312
-53.7921
-0.193522
0.356697
0.203804
-5.94878
-3.57729
0.127831
0.29376
-30.4723
-52.2373
-28.3367
11.1024
16.9375
-5.9687
0.305592
-1.36902
-15.9245
-1.17986
11.0725
11.3213
11.3448
4.99051
11.2568
0.366217
8.60343
0.101181
-3.38933
0.327095
0.220222
11.1375
11.2529
10.1356
6.0284
9.29639
0.089491
-2.41572
-30.5509
10.2125
-15.4875
11.2853
-3.7748
-15.9548
11.2013
0.294363
9.67452
10.6102
10.2338
7.49611
0.223422
-2.60973
9.78042
-0.0226643
5.99492
19.4492
0.342628
12.3263
10.145
13.8063
0.190972
0.110412
0.627939
-0.043481
1.89264
-0.0127057
-0.0767927
0.22924
0.409361
-2.30923
0.0340756
0.0337456
21.7819
-0.0133254
0.746194
0.434266
0.290683
0.100843
0.143526
9.27567
5.86367
10.3773
10.3801
42.3141
0.111747
0.0104388
10.617
10.836
-22.2384
-25.9562
0.137785
0.462851
0.491475
-13.4991
9.90811
-29.4498
11.2443
-32.8924
24.9576
17.5216
0.012041
-23.3939
0.180635
0.133453
0.12251
1.12783
-0.0865791
0.287757
-52.3449
0.0875065
-0.0424542
0.168381
-20.3899
0.242367
0.0360009
-20.8214
-17.2557
0.122158
0.0988667
-31.4899
0.190496
-2.60075
0.0296475
0.306815
0.278845
-12.6092
-15.3864
17.4966
0.577387
0.333263
-0.00067764
-29.3601
16.7276
1.41049
-31.2633
0.105061
0.118282
-31.4478
-43.1573
11.9306
-31.2561
-31.2899
-0.00407618
11.1989
0.0839619
15.1137
10.1724
-0.0579744
-44.4031
9.6752
-0.0254331
0.182344
-18.3694
-11.7193
11.2441
4.76974
-48.9931
-27.4434
0.0460147
0.0726336
-1.04548
1.49256
0.151586
0.240776
10.1752
6.24576
11.248
-4.25466
10.3851
-30.836
4.22349
2.15246
-32.6383
8.89162
0.202246
5.59441
8.42818
0.247776
10.6523
-5.09379
27.5657
10.4139
-3.00405
0.556773
-75.5167
7.53274
-15.1095
-45.0814
-45.7121
0.133261
0.131653
-48.1669
-0.0280562
2.22627
-31.8168
10.7124
-41.6689
-0.0830131
0.14948
10.5309
-37.6061
11.3497
11.4173
0.404659
0.102404
0.306772
-0.0161284
0.233388
0.599523
-0.616579
-35.1576
-26.8585
0.200774
12.6952
0.0425308
16.3788
9.70929
11.3116
11.3268
11.3779
11.305
17.8819
1.0978
11.2629
7.99177
-6.01619
-0.00453385
-55.3221
-31.8805
-0.00751706
16.6844
2.89177
0.0542199
-55.7565
0.0163145
-50.8074
0.208283
-16.969
-16.7673
0.418615
11.7891
7.81358
24.4049
-0.0167358
0.223485
-0.780607
-21.1222
11.1863
-19.6995
-0.952172
-52.6877
-15.061
-0.913674
-17.7253
11.2647
0.34044
4.05197
-0.716717
-18.8144
11.159
9.84012
-18.1628
0.0224644
-0.986889
-0.116035
0.168512
27.1503
25.6758
13.9349
14.2617
-0.0284586
-0.0738555
0.53
-0.560709
-4.17393
-0.0258438
0.182856
-0.0085584
0.321816
29.2691
-16.7689
-0.0907513
10.0984
0.208672
0.310611
0.0756387
-0.0347642
-5.46822
-28.3203
0.126602
0.0791716
-0.0605881
0.394522
13.2818
0.0605693
-1.38928
0.271817
0.260666
0.299713
16.7291
34.0076
0.405961
-31.0516
-14.865
-36.3912
-30.9808
-0.752047
-12.3202
3.10972
-0.696424
40.8996
-31.3944
52.9737
-15.0803
-0.783006
-24.4129
0.168516
55.0832
0.915242
-1.45538
0.599801
0.0766126
-14.828
0.476381
0.409517
0.237051
-31.1785
24.2281
10.5711
10.8441
43.1105
39.4661
-18.163
-44.1306
-32.533
44.6428
41.7046
10.7265
0.240055
16.1691
0.191152
4.75117
-31.4588
0.267342
3.99186
5.24011
0.253103
-32.0191
-31.9064
0.0491108
4.08086
0.405339
0.234089
5.31074
0.207802
14.3797
-0.0234767
0.304373
30.088
-0.0127355
0.0522601
0.0545924
0.160516
0.178166
50.0012
-21.7006
0.0426143
3.67681
0.352173
14.0693
14.522
-17.7369
0.19695
-30.9252
-19.3505
4.4436
0.66098
22.6425
-43.184
-0.0366033
-0.0659301
-7.86604
0.251898
10.9041
2.27084
-0.000841282
11.4146
-34.5136
-20.1113
-43.8017
11.3824
24.9349
0.080932
-13.9356
15.7537
-18.7619
-0.0740688
17.2752
-37.1327
-9.10166
-20.0845
-31.549
-19.3105
-1.08893
0.00512537
-15.3231
-0.0550235
-20.2276
-30.5271
-0.0240453
-21.1431
0.205757
0.31089
-39.3115
0.207326
-0.219394
15.164
14.0622
10.3883
-26.7686
-10.0333
0.375253
-12.874
45.7131
-2.15433
12.6636
0.46385
-1.77251
0.256558
0.161872
-31.2025
-53.4674
-11.4725
-2.41263
-21.5874
-24.1286
-32.1239
5.89709
0.084714
10.9569
11.1557
0.393999
-14.1303
14.8916
21.7796
11.0223
-30.8011
-19.5373
1.12943
-0.0519826
0.219767
-0.382215
31.0348
10.7317
-25.0903
-0.0383432
1.731
10.839
10.8236
10.723
10.5412
11.0665
-21.4688
-5.36722
22.1097
26.2341
15.8925
5.50398
-3.01137
33.7465
-1.25148
-9.14215
-2.38362
-18.4305
-14.4895
-17.6247
-2.47007
11.072
13.8472
10.8708
-0.416062
-35.1926
-33.7709
-44.1052
9.10394
-11.2412
4.12554
-23.8068
-0.219267
-38.7825
-0.28854
-0.562333
-14.2844
6.56192
-0.387783
8.29149
0.16001
3.78495
-15.2922
0.399386
-4.54018
-27.1352
-8.32741
-3.35191
15.218
48.4384
-51.7933
39.1218
-30.2561
-58.5685
0.174681
0.250728
22.7059
0.108164
49.7367
0.14384
0.123076
-52.0518
13.5012
0.600091
0.300312
10.6443
20.7641
9.23608
0.147251
11.7704
-21.7045
8.19828
11.5605
11.7815
11.2708
0.165176
-16.4367
-9.2934
27.1649
12.8722
0.152947
8.85978
0.252184
0.231032
6.59981
-12.4499
-6.93031
-13.9461
-13.0582
9.23958
-44.3651
0.190135
0.227961
0.156682
-45.846
-46.7907
-30.969
-31.1736
-1.16388
-2.02696
-41.2769
-31.9556
-7.80919
10.5689
0.119626
-1.57894
-42.4909
2.29545
-3.88577
0.297722
7.67021
-1.09362
30.6846
-111.572
-18.5001
-34.2257
0.351884
52.6251
-51.7051
0.703663
9.14596
0.619896
-34.8826
9.22774
-7.81957
16.323
-30.0059
-0.653802
-31.548
0.582648
-13.4802
-0.592876
5.43311
-36.416
-34.1244
8.58703
17.5258
-15.0448
-46.5279
8.02029
-0.168334
-35.3116
-41.9206
9.8961
7.37395
-62.9937
-52.1287
-44.2562
8.73754
-13.1201
-27.6633
-43.7264
8.12557
22.7499
-23.0554
-11.7674
-9.39901
-33.7798
-41.5993
-6.87608
6.73906
10.5066
11.0095
12.4544
8.48466
-6.06747
11.2586
11.2148
12.1518
-2.08934
-30.7901
-39.3998
9.36414
40.1875
-22.8385
9.69195
-20.6476
4.07495
8.5039
-12.1899
-4.43725
8.66077
7.71298
-56.8104
11.6361
-37.1565
-52.7696
-37.045
8.2419
-13.09
10.1762
0.581705
1.20179
-20.8196
-41.8905
-0.610144
-33.1137
-20.5558
57.4767
-24.8398
-46.7417
-33.4429
-0.0854974
-0.47051
-43.5843
-1.71452
13.3531
-0.0500898
-45.5186
-42.5077
-0.0192594
-1.25283
-36.6738
-14.689
-43.6996
43.6677
0.0951589
-5.61119
-45.8575
-2.44689
20.7437
-35.467
13.3918
-55.466
-19.4324
9.38141
0.204627
0.0536407
-1.10758
0.136763
-1.04684
-2.1683
0.128297
5.5958
33.1285
13.5082
23.0727
-21.0253
-11.1579
27.9431
-6.53292
2.11927
-16.2216
11.6331
-69.2937
0.384324
-0.525725
0.457125
-41.3434
0.243355
-57.8459
0.282621
5.49129
5.13492
-52.7458
49.1053
-32.1372
-26.8457
32.9911
-5.54719
10.7269
-12.2913
-27.7981
-31.2708
-28.4419
43.0179
10.5751
-20.0668
-30.9119
-8.04851
-7.73474
-40.7265
-30.4297
1.19757
-18.6966
10.4608
10.7338
-25.8846
-46.121
-3.56386
8.66463
10.6209
-52.174
10.7647
-11.273
-14.6714
10.7528
10.9833
-25.1029
2.66844
48.4925
-24.8565
2.312
28.4969
25.7159
8.05159
-87.4195
-41.1802
-19.2847
-119.066
59.6118
11.0566
-23.0345
11.0552
22.0282
-54.3909
1.445
-54.5714
-28.8983
-5.87422
19.4333
-10.9307
10.9113
10.958
13.7299
-24.3996
1.14054
0.06809
24.6707
0.0595898
-19.2623
12.0761
-15.3603
-3.28442
-28.5014
13.9448
-58.6966
-43.6175
4.69922
-39.2818
-31.5463
0.0548013
46.4254
-39.1439
-7.06518
27.6855
-14.9622
-22.4019
-27.3509
-36.9551
5.68506
-48.1658
-24.6041
4.20103
-3.04638
0.307846
-27.4558
-6.35944
23.4182
-19.086
-0.107187
21.8989
0.306902
-64.3853
-0.0231789
0.0501988
-9.09309
-27.0664
19.7049
-12.2907
-17.1134
-10.3664
-54.9506
0.00687943
-16.2875
-66.129
0.342706
-9.69804
55.7095
-9.26498
-33.4775
-50.0641
0.0535055
8.22739
0.0335643
-129.674
-30.7205
-26.2985
-30.2826
18.3047
-7.63017
-1.54376
-40.8805
-50.0402
-19.4861
0.234775
10.795
0.600995
0.357053
0.444298
51.2726
11.1982
10.4969
-10.7168
0.311749
14.2806
11.3994
20.4628
10.9454
0.105649
19.5079
11.8781
8.62769
-22.0591
0.751149
10.3204
8.16787
-13.2719
10.3345
0.276753
0.30762
8.89573
11.3249
11.0836
-52.4408
10.2831
16.4357
0.436769
0.177039
-27.6776
12.0148
11.4732
-50.5255
-48.3884
56.6082
13.1286
-51.5748
22.2301
-0.15295
-49.0056
8.62903
-50.4129
0.0172707
-0.059216
10.8239
17.3432
9.06724
0.052971
0.101696
0.612368
4.76767
7.14963
0.427376
-21.6449
0.273269
-16.1762
56.3072
10.3335
-47.0984
-13.6197
-72.4644
0.331228
9.12518
0.0420254
11.7575
0.0581295
10.3863
0.487622
-43.4014
-28.093
-40.3134
-7.09058
-15.8203
0.61312
0.429253
-33.0751
0.724069
-53.629
-3.84283
-48.2889
0.41325
-58.8625
-87.6772
-1.35111
-0.00798382
-31.2337
0.173456
-30.7887
10.0767
-0.56355
0.560302
-1.08856
-2.48127
-3.26787
-16.1862
-33.6085
-10.8821
10.1117
0.535102
10.1994
0.213583
10.0446
-31.4328
7.95123
-31.4343
-1.17773
0.814066
7.58983
0.280435
7.92168
7.17938
0.110633
0.322421
10.8928
0.10979
-6.41607
0.0941581
-0.0177871
-31.7829
-30.3626
-4.53778
-0.840514
-25.7417
0.0458733
0.142614
0.20127
0.226827
0.052793
0.0883169
10.2421
9.95859
0.381753
0.267566
39.5309
-0.128584
0.157565
0.298562
-50.174
-1.29883
-53.3193
-38.4361
-47.5113
7.60691
0.170874
-0.959725
0.0220032
0.326627
-44.3155
-14.2858
0.307326
0.189002
-1.05479
-1.10741
-30.2353
-1.16739
-4.79482e-05
-19.9382
0.390478
0.352584
0.103675
0.265131
0.0514538
0.17124
0.279745
-14.4735
-21.2213
0.0530146
10.1513
-6.07626
-12.582
-11.3163
0.253275
0.353452
-14.5225
-0.207601
-0.065137
0.351348
0.175625
-13.6992
0.0400423
0.500599
0.318921
0.233645
0.389808
-9.28173
-0.0589362
-44.5737
0.212748
-18.3382
-0.674028
0.0460527
-46.1599
-0.0400879
-1.37607
0.0880104
0.33843
0.420458
-1.28849
48.88
-1.28058
-32.3934
0.21868
0.064828
0.549748
0.26944
0.0866618
-0.961687
0.153753
0.257165
0.0429444
-25.1645
-11.9532
-42.389
8.75116
-18.0549
-0.998365
0.0955882
-0.918415
-36.1854
0.0360344
0.0136792
-0.0373646
-60.1166
-0.0107928
-0.347813
-0.00746007
0.196408
0.0484616
-149.865
-0.00333582
0.617397
10.2768
-0.00546054
-9.1058
28.9103
23.4383
0.0188938
5.3399
-0.0542738
0.333938
0.251548
0.115843
-58.8205
-48.8317
-0.0353787
0.19055
-44.5578
0.0524313
-7.44097
-25.505
0.0475592
0.356486
3.33261
0.0582796
-13.9119
-0.0513432
-0.731572
17.6605
1.27764
0.033363
10.2618
-29.6536
10.3164
-30.9348
-27.3177
-31.8126
-28.3575
0.353169
10.2512
-21.6429
10.3962
-2.09786
14.6639
-36.2658
-29.9223
10.7049
-11.614
10.6971
0.142603
0.139289
-31.1102
0.280455
0.346585
10.5205
10.5548
39.0715
41.8355
60.2062
-21.1577
25.984
10.7221
12.9809
20.8147
10.5818
0.259459
-0.0523304
0.184663
0.171693
-31.1181
-31.0433
0.325359
1.55424
-8.32784
-51.4707
-3.60218
0.142743
-3.01761
-24.7256
-59.9127
0.254273
-37.704
-16.1275
-32.9238
-43.2324
-15.0996
0.241916
0.197838
11.1886
-61.6247
0.0552807
11.2926
0.156603
0.14374
-48.861
-48.9477
-50.7914
-1.61911
-30.4353
14.3301
8.03774
-0.163647
-17.5459
-52.7815
-51.787
-31.3084
57.9805
-31.3912
31.9436
10.1697
-45.6625
10.851
-64.6007
10.2319
-60.5274
10.1342
-29.9185
0.214289
-22.4524
10.7505
10.6762
-0.740105
10.5435
10.4251
31.818
1.34943
10.653
10.4213
-72.5001
-44.8247
-17.0975
-28.9081
-45.4307
-28.9483
0.302351
12.9185
-40.0492
-33.8891
-40.1603
11.7827
-49.69
4.15659
-51.4337
-52.8099
-40.239
-27.1133
13.1482
1.45888
7.41085
10.5811
0.587134
-35.0795
-4.617
-2.13576
0.512199
0.00176098
0.0843844
0.449433
0.211267
-28.911
0.257794
0.12253
0.318953
-0.55755
-23.7687
0.504045
-0.0493421
0.105204
0.535187
-11.4435
-8.62934
0.319
11.3594
-34.4225
-52.3846
-3.9758
-46.6453
-13.4877
-3.03087
-27.815
34.7834
7.18543
6.61831
-11.0742
-0.0269785
-0.0259302
-6.87903
-0.0631032
0.0395219
-2.82785
0.0413013
0.506214
0.975201
9.68597
-7.72481
-0.492524
41.1447
0.0428993
10.6325
0.00557577
-0.0526082
40.9261
-44.9472
22.35
0.0604155
-1.13435
-29.9267
-30.7014
-3.86466
-0.155251
9.62523
-15.1526
0.0634814
0.0614233
-15.3436
10.4493
0.0614141
11.5028
52.6478
-0.89544
-1.3512
-22.4478
-4.32138
0.188366
0.121112
-1.61394
10.4204
10.3887
8.61493
10.4971
11
2.61867
1.06563
-8.54222
-52.0257
3.21342
-8.18553
10.4485
10.3618
58.1931
1.56073
-0.42808
-1.24089
-21.4453
-40.8669
3.48823
14.124
-1.39121
27.5386
-7.71354
13.0792
-35.5257
45.394
28.0086
-25.8845
3.55632
2.47091
-22.0959
-51.0276
-82.1684
-3.5913
-14.8406
-51.7927
-0.0382871
-20.0636
-11.4347
-40.9396
-31.0944
1.61325
13.5885
-52.7312
8.51289
-11.1945
-0.206632
8.80486
-2.78502
15.016
2.22957
12.8752
7.91816
-39.0006
1.86574
55.0862
-22.7894
52.9915
30.0733
-77.1069
11.3999
11.4404
-63.4599
-18.2177
-5.57682
-34.0991
-29.1294
-0.25106
1.59565
1.19441
-34.7101
-6.22515
4.98056
56.2361
-11.736
10.3876
-9.75372
-23.5097
5.74659
5.94196
-38.2484
-33.2168
-30.1893
-31.0474
0.0601705
-19.5986
-0.721265
-20.5857
-11.6702
0.659133
-1.15842
-18.678
-8.29982
-30.9979
-30.8203
-6.69263
5.31121
-1.8768
-15.5928
-25.7393
7.19412
7.01526
-19.2009
-30.5568
7.77973
-11.5279
-30.4448
-0.703453
-40.7025
-3.24341
-9.1922
-47.0022
-0.533955
50.1071
-15.2705
-1.33419
-1.39865
-2.65797
-52.3038
0.280136
0.369461
-5.36588
0.20397
9.85598
0.258753
-33.0854
9.51043
33.4396
10.0003
9.67947
9.41023
0.250248
-23.8847
-15.7368
-16.0007
-50.2933
-4.51687
-41.1097
-15.9478
0.0355058
-55.6616
-0.00231008
0.267775
-2.38868
-12.5797
-56.538
-31.8621
9.50515
35.9328
-20.0739
0.39969
-36.961
-43.2286
-11.5237
-44.9539
31.8113
10.2408
-13.6451
40.8218
10.2811
-72.207
18.4907
9.26377
46.5606
32.2451
10.3223
10.4433
57.9962
-41.1852
0.400877
51.7431
5.63975
10.4072
-12.744
10.2943
-34.2122
6.2864
57.4727
10.5146
10.6474
35.1197
8.80629
15.7642
-5.6815
-4.86321
13.355
-29.3157
22.2657
-24.1516
-56.7385
-73.4533
-30.3879
10.7422
34.5864
12.3209
2.78775
5.70734
9.95507
10.2946
-0.333983
-0.162733
38.6974
-46.4701
11.034
-31.2347
-0.1499
5.33421
-20.674
-72.965
-0.174528
-19.3936
11.8109
3.95897
-0.328528
8.70274
-10.8531
-0.167538
0.435736
-24.7491
0.457077
0.273085
-10.1495
8.94748
0.252054
20.6325
0.30627
-25.8873
25.4951
0.269287
14.249
34.918
-30.0339
54.7026
39.3807
-34.248
-66.0493
-30.2401
-29.6674
-30.0794
-30.145
-33.8633
-26.0591
-36.4843
-30.3389
56.553
-6.88474
-48.5973
9.61484
-1.77588
-40.8668
-46.1259
-6.12816
-31.3757
-20.0738
-30.7493
-17.3115
39.2893
-49.3385
-37.2065
-29.9807
22.2441
-29.9247
0.184602
-49.9707
21.4308
4.44013
-0.0995553
-4.1474
43.466
7.14778
-19.7576
-10.1812
11.1419
-0.241309
-9.76934
-29.4493
-34.6413
-3.60472
-8.35882
17.2616
-32.2631
-11.7452
-0.015183
-26.9486
44.3063
-4.75946
3.78903
0.0622746
0.599072
-40.3011
8.68865
6.95448
1.27994
-0.0728542
3.46984
-4.49878
-5.07387
60.583
1.31695
-16.8306
-9.24576
0.0682005
-51.6198
-50.6847
7.31198
7.45219
6.63315
9.60587
-27.6533
-13.55
54.1191
-10.2236
9.3617
-18.397
-6.55747
-7.40203
7.12322
-15.6019
7.08292
-24.8235
-30.5039
-37.2892
29.9386
-14.9957
15.8709
7.33089
-56.7484
-71.6399
31.1984
-50.1124
7.8555
-62.0859
31.1797
-5.70338
17.9345
-24.2462
-1.55479
0.192221
-8.97743
-16.6765
-41.2725
-1.6579
7.79427
-92.922
11.2399
-32.8968
11.099
-4.09195
8.70291
-1.1159
-3.10061
0.113251
-13.3882
6.24074
-0.358624
13.6936
-1.89389
-47.6338
33.3369
9.60922
39.4735
10.5331
-1.56417
9.56152
11.3184
29.4335
-2.06424
29.3131
-0.0811963
-1.99211
-21.4772
0.316972
0.0510396
-16.485
-10.3739
-25.3055
-6.95857
31.6046
5.73599
25.8385
0.152248
16.4114
13.2404
0.178899
0.202144
0.228454
0.467088
55.5628
0.215501
-11.8895
-32.0761
10.6027
10.9562
13.4125
10.8066
-23.7899
-29.9606
-2.73392
-6.68881
-6.68323
-18.8116
32.3636
0.204118
-62.1079
-13.4991
-38.0146
-2.07601
7.14535
-25.7514
10.704
10.852
-22.2447
10.942
-0.523749
5.52694
-42.7191
15.6756
53.12
-1.72784
-2.43989
32.4417
5.12781
-1.10885
32.6184
6.36068
-19.0088
35.4721
-12.2039
37.3582
-44.6693
0.121551
11.3152
-2.46638
-10.7184
-2.31746
0.352307
-3.42272
0.119675
11.3224
-35.9059
2.8912
-0.132206
-35.8569
-1.23402
4.50331
10.7845
10.9073
23.4971
2.33752
-2.3721
-7.70727
-3.39175
-15.1922
10.5805
-0.104279
-22.4627
57.8337
-24.0843
-1.01411
56.5118
10.8101
-49.7157
52.5505
-4.48099
3.63785
34.4301
10.9425
-30.8588
35.9833
-31.012
-6.63647
-30.8177
-15.9977
-34.5053
32.4014
-7.09092
58.5886
0.229562
-30.9174
-31.0392
-54.2967
-47.7135
-38.0029
-55.6762
-39.8431
-33.3865
55.4212
8.21626
8.80348
48.6355
22.4213
-49.5659
5.78346
-51.4621
42.7509
0.433374
9.12563
0.027637
0.296173
0.262655
0.308723
56.8166
0.0897163
0.245608
10.0833
0.386876
0.483013
9.33562
-7.84861
0.306951
-9.8273
0.114488
5.48969
24.8715
-48.9564
-2.04567
0.326079
-8.63552
-2.05816
-39.7917
-25.3871
-24.8473
-2.87355
36.2476
12.1617
-4.39777
-7.11623
6.96665
2.38572
0.334102
10.0704
9.56513
-31.9922
0.449668
16.1764
-5.17322
1.07084
10.2743
-5.06943
6.42732
10.105
9.88285
-16.0541
9.64929
7.20549
50.3388
23.4259
11.933
21.0324
9.29691
-3.47609
9.70533
0.00442426
-5.69393
0.00745609
3.6336
0.0758827
20.6417
9.23586
-19.7338
21.7308
0.00543583
8.13182
26.3486
-17.3122
32.1729
-29.4724
-55.261
-38.4836
-1.85691
0.0859765
-31.5974
34.4088
-13.5632
-4.3756
7.52052
0.268321
-1.30187
0.0428416
7.98282
11.1985
27.3396
7.22496
-0.200935
9.99985
10.0389
0.00187155
-35.8861
33.3425
0.0534618
6.2105
-14.7578
41.0998
11.2024
8.65504
-12.6077
-50.6242
-48.6382
10.2635
10.1951
-5.75631
-9.49801
-12.2267
-33.1091
30.2775
0.049297
-1.0003
-2.92463
0.246287
17.7357
-18.2038
0.356788
0.263229
28.6281
0.231704
-13.1165
24.9138
-37.9425
-28.3697
0.176949
-13.9436
12.2029
-0.0850497
0.196521
10.8306
7.67408
-2.37273
19.1678
2.23976
-45.8822
0.278277
0.271745
-37.0134
-4.07484
11.9341
0.288039
6.43504
10.4599
58.3069
0.265722
-12.517
-37.1913
-42.1309
-96.9831
-62.8604
0.266637
14.9581
44.6578
0.0102862
5.92841
8.11743
-40.8759
11.4373
4.64166
-40.3818
11.4301
23.4212
-19.1995
7.67143
-41.2235
-52.7901
12.9739
17.1965
-43.7609
13.2731
9.23672
0.880044
12.5446
10.7067
-0.923632
-38.0915
-9.1714
5.57179
12.3506
10.2708
11.1032
-0.541401
-0.0558449
33.0648
-0.00567097
-10.2572
-1.55232
34.6943
10.825
-14.5368
2.87721
55.8854
-26.3766
-31.5758
-42.2092
1.44054
-7.53654
-58.7408
-21.7461
12.6819
-18.0887
-9.84799
-0.0413601
-12.6064
10.1151
3.1573
1.33507
-0.0205067
0.104804
-22.181
-7.57804
-13.7882
-0.271029
-1.7092
0.169324
-1.89216
-8.25832
11.4175
-47.1285
11.7947
-2.32174
-2.25776
9.77148
9.55558
10.5324
-0.038926
-2.10656
-14.2303
2.19534
-1.96288
-2.36562
-31.1335
2.15605
-9.18262
-40.5217
-31.8496
-28.8172
12.5415
-33.3603
16.7641
-32.82
0.117425
-30.8976
0.185395
1.15059
-1.91186
-7.32332
0.061652
2.11128
-3.83942
10.5017
9.46596
12.0121
-7.10424
-7.26701
-47.8782
-30.3305
21.751
35.7112
-34.9213
-26.6668
-31.2879
-50.6175
-30.1563
-11.7057
-30.3447
-0.451843
-0.795776
-49.4611
-53.8328
-6.55923
-2.20679
10.228
51.1456
-4.78217
-53.3797
-4.35268
3.07867
-5.82351
-2.14675
-29.2215
-1.05386
-0.67598
-0.429887
0.389327
5.20256
-1.48579
0.388604
-44.3872
-45.29
-43.0808
20.7053
-36.7972
11.1961
0.331872
12.6582
4.67355
2.51486
19.8424
10.3055
21.0408
-0.290374
1.96249
3.5206
-0.856842
0.234444
-14.9444
7.09569
11.6993
7.12146
40.6411
0.129077
22.2308
-59.5589
-7.56952
-49.8276
39.8995
8.73516
7.62267
4.74176
-15.8608
-10.9903
10.9424
-36.2604
5.84309
7.67592
-7.0949
16.6724
7.92614
-7.46257
-19.6365
-15.2468
11.329
-2.94772
-61.7606
-1.28177
-45.1331
-31.0088
11.2108
-54.2681
-10.4016
31.5376
-2.65773
11.1906
13.5742
15.8408
-8.79116
10.4425
-30.6665
-15.5879
-30.652
-6.32024
-9.36833
15.3019
-30.1048
-28.4117
-0.542174
-1.14985
14.2854
-30.4169
5.58256
-7.17223
-46.6259
0.102642
-0.872509
9.87776
-51.5462
-7.92598
-3.04109
-0.402097
-3.34682
9.55406
9.31389
-4.82883
9.62126
-33.0729
9.59696
-53.5166
9.87097
-32.5565
-33.4432
-11.3106
9.10294
-10.5839
-1.31026
9.21107
-4.04637
-1.55742
-10.464
49.9833
0.0961803
32.3563
-13.6463
0.174507
-5.2776
0.136285
10.7923
9.43979
10.5369
-9.76542
0.124491
10.0929
-3.08715
0.146601
0.362657
-27.1077
-0.2977
-0.00785481
10.8958
-28.3189
-32.8494
0.099583
-8.67322
0.325415
-29.1914
0.219033
0.101761
-0.649116
0.272335
-0.474096
-0.643351
0.0349736
0.435897
9.51582
-23.1642
-19.743
10.838
43.3776
14.2369
10.6024
0.0659509
11.2682
35.8902
0.0253093
31.803
-1.50276
0.0616939
-1.44096
23.7975
0.329577
-0.115308
52.9171
11.3564
26.0137
-12.4593
-16.0732
-0.042943
-4.64907
-0.0450735
0.271612
0.1461
0.284693
47.6179
0.308176
0.202127
0.154664
10.1977
-42.0377
-27.5792
-6.84909
2.29953
-1.07472
0.241654
12.9712
-31.1638
23.5009
15.032
1.62856
0.218719
40.6516
-15.9943
38.6536
29.358
10.2099
10.7276
0.182232
-7.28498
-0.284318
-17.9291
-15.7787
10.721
-48.7578
-0.531169
-0.11419
0.309932
9.02034
0.165549
46.224
-6.61415
43.5088
0.130613
-53.887
-10.9211
-16.4922
0.144188
-44.7698
0.268862
27.2248
10.3782
30.503
-0.217594
-20.3761
3.09837
-49.245
29.0142
10.23
9.90565
-2.87927
-27.4547
10.2308
-54.9709
-38.6431
10.2977
32.0788
10.1552
-24.743
41.2484
6.16637
-10.2675
41.2565
36.3435
-0.586235
0.984653
-52.3849
41.2577
8.5655
37.9873
-7.59731
-52.5624
27.9004
-4.92433
0.0427399
0.135965
0.106764
-1.13028
12.0735
-32.545
-2.43756
-37.623
14.5535
36.5593
-12.7973
34.7585
0.0551718
-0.0387263
-17.5019
55.8444
-20.6036
45.9107
14.2096
2.50216
22.7866
2.82351
15.1341
-0.0037763
0.0584069
-0.00337489
-0.0244952
7.07686
-17.1283
11.5983
-34.116
2.54392
-43.1744
7.71932
-26.3977
43.0695
-4.62242
-3.79171
0.0678487
36.9068
0.0190564
20.9952
-3.86407
7.63426
-12.4473
-1.36404
29.8852
33.6918
-17.9342
0.171826
-1.65649
-33.3498
-63.7277
-9.20311
49.6371
24.982
52.8094
56.32
42.3271
-37.9159
-2.71202
42.2245
-44.2123
7.05208e-05
3.79431
0.032272
-30.0695
-14.4425
-3.2056
-0.230465
-10.7487
-0.061985
9.6222
-38.0138
39.8876
-47.1549
9.58899
-3.73039
8.21944
-0.52233
-8.95639
-55.0848
-1.23718
-32.5879
-20.5488
9.93764
-54.1129
-44.7289
9.92165
-16.3246
-17.0828
21.6437
9.93818
-15.7818
25.2237
-55.1196
-33.4417
-45.5815
38.0349
-34.4074
3.00705
23.6392
2.51795
-57.8423
-49.0024
-1.55793
-2.10428
47.5407
-4.64078
-39.9556
-4.54103
-19.3045
-66.5428
-32.6183
-31.1722
1.10047
-31.1442
0.138523
-31.101
12.8847
-24.46
47.9111
-30.4195
18.8112
-33.3264
-29.9439
-20.7638
-46.182
31.4396
29.2489
-32.1131
9.28409
24.5891
15.3212
4.36808
11.9939
-4.00497
-32.2249
-87.302
-31.6169
14.2215
17.9793
-41.4985
22.2459
-32.8886
-17.0837
4.69991
4.03911
-30.5061
10.9243
-31.843
12.5546
28.8933
30.856
58.071
27.668
-29.8233
-61.3848
41.7173
10.9128
34.9651
-49.7083
-31.2323
49.1479
28.2839
-5.16801
20.2394
23.4902
-43.55
-33.4185
-45.8139
14.3227
9.29509
33.9375
-59.9004
42.2862
26.8758
11.2602
35.1461
-32.4416
0.952954
0.713766
11.2038
-14.6642
-50.9992
-31.2351
42.8756
-13.8616
-21.3459
-47.4321
40.506
44.226
36.42
-34.1217
-99.1528
42.5824
-33.9574
-56.395
44.0298
-2.98423
-11.3363
10.758
-0.71249
-1.11574
-11.2351
41.6513
-30.6705
0.636945
-0.873474
-1.02212
-0.63866
-2.37728
2.99544
-33.8052
-9.73855
-1.19345
-54.0399
-70.5407
-30.0108
-21.1103
-2.74669
-18.6581
-29.3004
-42.9452
-1.04084
-36.6039
-3.2263
-36.5993
-31.7848
40.805
17.6688
24.6343
0.0737154
3.67059
-72.3284
-25.882
-11.4948
-46.4839
0.00338253
-63.2313
-45.5129
-27.4424
-45.5642
-6.5698
14.3441
10.2619
13.7282
9.41007
40.9102
0.0142377
-0.0156715
-0.0314979
13.1876
-10.1855
-48.6703
-57.6332
14.7506
35.6625
23.0257
28.0829
-1.63985
-48.9752
-7.17868
11.1043
2.41575
-3.04282
17.5556
5.79403
-16.37
13.1826
-13.2036
-11.1091
-8.79687
15.9399
34.5109
-32.5372
50.9837
-30.3975
17.6854
-55.4236
-46.2079
-11.9901
12.5856
32.3385
-11.0994
-32.0039
4.50252
12.9956
-18.913
-30.4608
15.0503
44.9285
57.0652
-30.4955
-3.89914
-56.719
13.2653
-0.709179
-10.8804
9.42181
5.65639
-16.772
1.92376
6.95335
-44.8195
-11.6548
-30.2477
-13.9423
-31.3505
-0.0733013
10.5521
-55.0652
-19.673
-0.0472968
57.6976
10.754
44.1031
8.73285
-27.8654
15.446
-1.49629
31.987
53.5836
14.0458
32.1766
0.069
-46.2046
10.9744
10.8697
-7.03427
5.35674
-39.642
-5.84697
-11.7416
11.1397
2.28876
-23.631
3.5975
8.0978
-9.40597
-13.7193
-28.3478
0.0341801
12.6069
0.00748905
12.8102
0.0661203
-21.2677
10.9634
-24.5794
10.3244
-28.516
0.0104946
31.7162
-10.0591
33.6244
0.0570254
5.97426
0.130926
0.010296
-5.96375
6.25415
15.4409
32.1103
28.0448
-32.3275
-51.697
40.5081
22.7082
19.9947
3.75325
0.0142521
0.0219908
-76.4241
41.4526
17.021
13.0497
0.0500081
17.1347
0.104383
0.0175621
-23.2298
-26.3232
-39.445
-34.6871
5.43795
-0.0957472
-7.07276
10.7828
40.3882
9.21085
-20.972
9.0973
-8.51037
-77.58
-17.4323
0.0807359
2.23097
-11.2455
-9.4273
-37.2318
11.3166
-36.387
21.8629
-77.4296
-32.1865
-30.2748
0.104057
20.1511
1.46413
11.0525
32.7216
11.112
-13.09
9.15584
10.1655
7.03094
11.0114
-41.2794
15.6785
2.79906
40.863
10.4132
-24.1813
11.1999
11.1155
-31.4993
-79.2198
-29.974
-30.8487
-31.5559
7.98262
55.9393
-33.0912
-4.76558
10.3838
17.9358
-31.5289
0.221332
-0.00133589
9.20355
-24.2945
-30.783
-50.8513
29.4102
-3.66273
0.287126
1.24605
-30.7276
26.0163
8.04505
-55.901
-31.6276
-31.097
57.5201
12.3387
8.8839
1.02031
12.4393
-51.6715
15.1751
9.48731
17.2524
-5.56994
15.3899
21.0874
42.1766
33.9334
8.89533
-19.8102
20.4903
-11.3622
0.200662
0.265686
29.2209
-32.7957
-13.7793
0.195683
53.0146
0.264115
-30.912
28.1436
18.2416
36.9843
-30.4431
-20.8448
-30.3684
29.6051
-14.8685
-34.4423
-6.73062
9.61137
0.165828
12.2766
-0.794466
12.5408
-1.14096
9.71928
-1.22873
-13.9717
0.0302607
32.7184
1.26738
2.48758
-26.6562
7.57983
-0.392043
9.15771
-7.44047
-33.3617
-45.4297
-21.9121
2.71551
34.5752
0.185034
56.0541
-32.1933
55.966
49.9862
0.336902
3.0556
5.07789
0.262869
0.166232
-91.1205
9.46967
-25.0431
-14.097
3.02214
-0.813398
-31.2744
5.32549
5.26973
7.7442
4.99323
0.275008
-31.0303
-6.43021
-0.340984
-28.4932
-0.0787322
-1.02694
-0.407345
-0.3485
-10.9767
6.45396
-56.6127
-1.04996
-0.445072
-13.9946
-17.3624
20.8065
-20.5049
10.3911
10.274
-0.019323
0.0513303
-12.7481
-17.9127
8.28771
0.0185606
-3.91083
9.13398
0.0120223
54.2592
-0.037335
-1.35189
0.0615313
-0.0435291
-31.3193
-0.0151361
-30.5393
-9.44369
50.0318
2.82108
-4.62263
-6.17217
-2.5959
-8.86334