/*--------------------------------*- C++ -*----------------------------------*\
| =========                 |                                                 |
| \\      /  F ield         | OpenFOAM: The Open Source CFD Toolbox           |
|  \\    /   O peration     | Version:  2506                                  |
|   \\  /    A nd           | Website:  www.openfoam.com                      |
|    \\/     M anipulation  |                                                 |
\*---------------------------------------------------------------------------*/
FoamFile
{
    version     2.0;
    format      ascii;
    arch        "LSB;label=32;scalar=64";
    class       surfaceScalarField;
    location    "0.0883272";
    object      phi;
}
// * * * * * * * * * * * * * * * * * * * * * * * * * * * * * * * * * * * * * //

dimensions      [0 3 -1 0 0 0 0];

oriented        oriented;

internalField   nonuniform List<scalar> 
92401
(
0.150027
-0.0991992
-0.00674476
-0.0440828
-0.0643169
0.0612433
0.0409751
-0.0379015
0.0221438
-0.0396001
0.04294
-0.0254838
0.00660788
-0.0132036
0.0130298
-0.00643405
0.00141368
-0.000567826
-0.00601514
0.00516929
0.0193964
0.00968483
-0.0252929
-0.00378832
0.00592686
-0.00481805
0.000304869
0.0322139
-0.0255278
0.0127103
0.048079
-0.0386432
0.0324572
-0.0418931
0.000342078
-0.00056736
0.000238661
-1.33791e-05
0.00468504
-0.0414822
0.038597
0.0243127
0.0243188
-0.0872285
-0.0176725
0.0111718
-7.51505e-05
0.00657584
-0.0343617
-0.0399457
-0.0159105
-0.0212072
0.0598464
-0.0227287
0.00208791
-0.0665509
0.064463
-0.00253301
-0.00777386
0.00205181
0.00349823
0.00222382
-0.00095022
0.0015457
0.000211886
-0.000807362
-0.00500092
0.0109656
-0.000100051
-0.00586466
0.0165291
-0.00576706
-0.00502847
-0.00573357
-0.0407107
0.00833087
0.0369495
-0.00456967
-0.0394706
0.0110126
-0.0547588
-0.0540384
-0.00263205
0.0548163
0.00185417
0.0906849
-0.0892368
0.0220034
-0.0234515
0.0503203
0.0601505
-0.0718817
-0.0385891
-0.0325968
0.0511423
-0.0580162
-0.00275756
-0.000993506
0.00401909
-0.000268025
0.0314015
-0.0636159
-0.000382334
0.0610041
-0.0601729
-0.032263
0.0314318
0.0124757
-0.0172729
0.00137719
0.00341995
-0.0362315
0.106851
0.0618406
-0.13246
-0.0846924
0.107519
0.00897364
-0.0318005
-0.131145
0.0325121
0.0295094
0.0691239
0.0148239
-0.0621409
0.0375088
0.00980814
0.06029
0.00924435
-0.0547104
-0.0441438
0.010087
0.00243089
0.0316259
-0.0504163
-0.0411765
0.0654819
0.0261109
-0.03321
0.0406658
-0.013709
0.00625317
-0.0203495
-0.103239
0.0663675
0.0572208
-0.0855463
0.0869833
-0.00143706
0.0304467
0.000316759
-0.0708684
0.0401049
-0.00391372
0.0299865
-0.0185704
-0.00750231
0.026885
-0.0503977
0.0235127
0.00015329
3.0819e-05
-0.000144429
-3.96805e-05
0.00109508
-0.0586214
0.0575263
-0.0684404
0.0429035
0.0622105
-0.0366736
0.0901247
-0.0254216
-0.0128089
-0.0518942
-0.000529485
0.0711396
0.0010328
-0.0716429
-0.0475504
0.0732976
0.039633
-0.0653803
0.000566154
0.00110287
-0.000397349
-0.00127167
-0.00201256
-0.00361445
1.56673e-05
0.00561134
-0.0383226
0.0840352
-0.046261
0.00054844
0.000322566
-0.000712387
-0.000449642
0.000839463
-0.0551532
0.0543208
0.000832346
0.0753153
-0.00775184
-0.0187239
-0.0488396
-0.100331
0.0926575
0.0044612
0.00321258
-0.0547647
0.0273589
0.0109799
0.016426
-0.00270185
-0.014894
0.00758423
0.0100116
-0.0124818
0.0257582
0.0374316
-0.050708
0.000798291
-0.000335759
-0.000139967
8.34255e-05
-0.000108448
0.000805414
-0.000780392
0.000306917
0.00012045
-0.000214588
-0.000212779
0.0041384
-0.00917212
0.00502702
6.7032e-06
0.0679125
0.00506066
-0.0172013
-0.0557718
-0.0149908
-0.00479835
0.0107699
0.00901923
-0.0409761
-0.0528743
-0.0547673
0.148618
0.00357872
-0.0353291
-0.00275738
0.0345078
-0.000248433
0.000460707
0.000330717
-0.00054299
0.00423514
0.0044997
-0.0278449
0.01911
0.0188915
-0.00639969
-0.00966489
-0.00282688
0.0419114
-0.0765477
-0.0278019
0.0624382
-0.0293564
-0.00303759
0.0102493
0.0221447
0.0122005
0.00836483
0.0130209
-0.0335862
-0.000256957
-0.000276721
8.29118e-05
0.000450767
0.0252296
-0.00973268
0.0365657
-0.000315514
0.000220493
-0.000389755
0.000484776
0.0443239
-0.033053
-0.0681273
0.0568564
0.000297834
-0.000193856
-0.000103979
-0.00113415
3.76027e-05
0.000550774
0.000545775
0.000588992
-0.000230447
0.00018974
-0.000548285
0.0226081
-0.0231122
-0.0622578
0.062762
0.00106587
-0.0126897
0.00291256
0.00871129
0.0430107
0.0585888
0.018521
-0.120121
-0.107783
0.0225042
0.121768
-0.0364894
-0.00539285
-0.0449557
0.00375625
0.0465923
0.055504
-0.0308642
0.026548
-0.0511879
0.0273752
-0.00320413
-0.155065
0.130894
0.00944023
0.0149459
-0.0287032
0.004317
0.000685162
-0.00017536
-0.000765285
0.000255483
0.0381305
0.0122861
-0.00129977
-0.0491168
-0.00251837
0.0850813
-0.0866423
0.00407942
-0.0180643
0.0494943
-0.116202
0.0847716
0.0426374
0.00539961
-0.0534298
0.0427594
-0.000122054
-0.00232963
-0.0294499
0.0419743
-0.0101948
0.0708746
0.0170797
-0.0316053
-0.056349
0.132999
-0.147163
-0.0303691
0.0445325
-0.0151537
-0.0460827
0.0589067
-0.08245
-0.000773799
0.0832238
0.00106548
-0.0978519
0.163133
-0.0663471
-0.00254988
0.00337462
-0.0006206
-0.000204136
0.0899405
-0.149322
0.0303541
0.0290278
0.0015587
-0.000460104
0.000911023
-0.00200962
-0.0872422
0.142875
-0.104196
0.0485626
0.0310295
0.00263942
-0.0417908
0.00812191
0.0859333
-0.014764
-0.0842098
0.0130404
0.00578184
0.0320468
-0.0529823
0.0214162
0.026737
-0.111572
0.0634184
0.0871423
0.113365
-0.0799901
-0.120517
0.000508728
-0.00030682
-0.000164248
-3.76605e-05
-0.0936205
-0.028478
0.110614
0.0114847
0.00146184
-0.00577855
0.0160009
-0.0116842
-0.0141536
-0.0342657
0.0587653
-0.010346
-0.00560941
0.0176937
-0.0147598
0.00267549
0.000414225
-0.000680816
-0.000613207
0.000879798
0.022631
-0.0266165
-0.00162396
-0.00187185
-0.000699864
0.00153801
0.0010337
-0.0577106
0.0604806
-0.00277004
-0.00259175
-0.00641127
-0.00224334
0.0112464
-0.0370907
0.0286441
-0.00570703
0.0183406
-0.0472362
-0.0557967
-0.0512996
0.0415537
0.0983304
-0.0885845
-0.00765961
-0.001845
0.0051979
0.00430672
0.0467816
0.0111647
0.00212491
-0.0600712
0.000608727
-0.00965342
0.00717164
0.00187305
-0.0405083
-0.0543907
0.0115077
0.0833913
0.0647101
-0.0388775
0.0266251
-0.0524576
-0.0096172
0.0598457
-0.0588661
0.00863762
-0.0591313
-0.034022
0.00781615
0.0853371
0.0162448
0.0048245
-0.0328983
0.011829
0.0643095
-0.0634887
-0.00082081
0.00187346
0.00178631
-0.00157505
-0.00208472
0.040728
-0.0442426
0.00351462
-0.055616
-0.0398576
0.106806
-0.0113326
0.000829796
-0.00998762
0.00992751
-0.00076969
0.0026979
0.00585805
0.00280576
-0.0113617
0.00164324
0.00688144
-0.00791595
-0.0246428
-0.0578783
-0.00907884
0.0915999
0.0256503
-0.00816272
0.0189339
-0.0364215
-0.0840067
0.092575
-0.101287
0.0927185
0.076286
-0.0492364
-0.0270495
0.0016296
-0.0346704
-0.0101395
0.0431803
0.00805282
-0.00560724
-0.0096476
0.00720202
0.0462045
-0.0699369
-0.0619677
0.0857001
0.0740277
-0.0647102
0.0293633
-0.0386808
-0.0136818
-0.0097774
0.0340072
-0.0105479
-0.0581769
-0.0867537
0.0572963
0.0876343
-0.0416126
0.0543342
-0.011092
0.0977011
-0.0482753
-0.0494258
-0.00486206
0.0156723
-0.00275738
0.000996856
0.000681145
-0.00070824
-0.000969761
0.04734
-0.015796
-0.00524731
-0.0262966
0.00361001
-0.00188239
-0.000438549
-0.00128907
0.00535779
-0.010178
0.0087032
-0.00388299
0.0723966
-0.0427078
0.0261605
-0.0558493
0.00898411
-0.000501343
-0.00684444
-0.00163832
0.00164587
-0.000603582
-0.00104229
-0.0662575
0.0656143
0.000643143
0.0118198
0.00586891
-0.0966296
0.0789409
-0.01208
0.0144372
-0.0102828
0.00792559
-0.0733218
0.0166222
0.0834807
-0.0267811
0.0187127
-0.0978337
0.0758197
0.00330137
-0.0526805
0.0429397
-0.00841696
0.0181577
0.00863039
-0.00183141
-0.00294444
-0.00385453
8.4285e-05
-0.000685568
0.000601283
0.0282699
0.170905
-0.245658
0.0464829
0.000253591
7.84438e-05
-0.0248401
0.0601716
-0.0525095
0.017178
1.13658e-05
0.00517626
-0.00445656
-0.000731062
-0.000165176
0.00120666
-0.00127193
-0.0708059
0.000568417
0.0702375
-0.0323849
0.11378
-0.047741
-0.0336542
0.000544808
0.000470443
0.00945098
-0.0104662
0.000403948
0.092553
-0.0929569
0.0024046
-0.00162075
-0.0012346
0.000450747
0.00137324
0.00070226
-0.000710361
-0.00136514
-0.0366912
-0.00160997
0.0324999
0.0186616
-0.0636433
-0.0723899
-0.0163505
0.00644696
0.0822934
-0.000627887
0.00200113
-0.101452
-0.041517
0.112621
0.0303481
0.0272102
0.170969
-0.0854417
-0.057834
-0.0276928
-0.0183764
0.11934
-0.0435622
-0.0574011
0.0397238
0.0299332
0.038624
-0.108281
0.104762
-0.249141
0.109569
0.0348097
0.0016444
-0.00145717
-0.00138271
0.00119548
-0.0123539
-0.0353224
0.055383
-0.0077068
0.0266163
0.0405823
-0.0267917
-0.0404069
-0.0353565
-0.0258019
-0.0197631
0.0809216
-0.053363
-0.0139429
0.054952
0.00120727
-0.0119495
0.00925347
0.00148876
0.0553754
-0.0284477
-0.0508475
0.0239198
-0.0897313
0.105634
-0.0503297
0.0344269
0.0169684
-0.0234614
0.00680027
-0.000307236
0.0517954
-0.0600585
0.0636385
-0.057336
-0.00350059
-0.0137336
0.0745702
-0.0052977
-0.0133761
0.00257536
0.0160984
0.00026425
0.0593859
-0.0587579
-0.000892236
0.135349
-0.0538108
-0.00241529
-0.0791229
0.0604448
-0.0077517
-0.0494429
-0.0032502
0.0498651
-0.0231676
-0.0654665
0.038769
-0.0100863
-0.00167593
0.0151812
-0.003419
0.00542751
-0.00170903
-0.00475161
0.00103312
0.00255949
-0.0442454
0.0408971
0.000788837
-0.000733852
-0.0863512
0.00346316
0.0197697
-0.0128876
-0.0631166
0.0465073
0.0166093
-0.0595529
-0.0170396
0.0109749
0.0656176
-0.102071
-0.000856866
0.105306
-0.00237814
0.00373416
0.0240453
-0.0129203
-0.0148592
-0.0713333
0.149754
-0.0659863
-0.012434
-0.00472295
0.0134529
0.0223449
-0.0310749
-0.0527217
0.100898
0.0395293
-0.0877061
0.0294224
0.00118367
-0.0142574
-0.0163488
-0.0364513
0.038167
0.000843766
-0.00475034
0.00754776
-0.0102715
0.0074741
-0.000238591
-0.00457394
0.0101703
0.0360616
0.0377809
-0.0738424
0.00107552
-0.0018989
1.77568e-05
0.000805628
0.020309
0.00838059
-0.0194002
-0.00928937
0.0226993
0.00947296
-0.00107623
-0.0310961
-0.0527876
-0.00235299
0.00722195
0.0479186
-0.000213309
-0.0440321
-0.000990135
0.000508317
0.00155734
-0.051846
0.0372727
0.0518296
-0.0372563
-0.0445867
0.0301299
0.0171265
-0.00266971
0.00140443
-0.00372387
-0.00995427
0.0122737
-0.010035
-0.00508848
-0.00281425
0.0179377
-0.0437341
-0.0049135
0.0121964
0.0722739
0.0394699
-0.0720168
-0.039727
-0.0460598
-0.00013138
0.0461912
0.0861925
-0.0486817
0.0595895
0.00369649
-0.00765829
-0.0373096
0.0412714
0.0358535
0.0113
-0.00530894
-0.0418445
-0.000462264
0.000344007
0.00101971
-0.000901448
-0.0168783
-0.0449272
0.0618054
-0.000203384
-0.00139303
-0.00414414
0.0308724
-0.0230318
0.00619094
0.0279019
-0.0417512
0.0978428
-0.0906863
-0.00214086
-0.00501556
-0.021436
0.101572
-0.0185142
-0.0616213
-0.0317076
0.00677211
0.0133314
0.0116041
-0.0390283
0.0358833
0.0137166
-0.0105716
0.032568
-0.0251266
0.00134362
-0.00878499
0.0193129
0.0733061
-0.124022
0.0314034
0.0762916
-0.0752769
-0.0243104
0.0232957
-0.143332
0.00199245
0.00371808
0.137622
0.0305203
0.0123674
-0.0411491
-0.00173868
0.0400745
-0.0573563
0.0203853
-0.0031035
0.00216122
-0.00120022
0.000230819
-0.00119182
-0.0146541
-0.00111936
0.0734009
-0.0416421
0.0188069
-0.0505657
-0.0120812
0.0477173
0.000359231
-0.0359954
0.0051213
0.0962975
-0.0934745
-0.00794432
0.0495472
-0.0989949
0.0579125
-0.00846486
-0.0483793
-0.000465686
0.0367638
0.0151017
-0.00327688
0.00868979
-0.0205146
-0.023425
0.047789
-0.0133075
-0.0110565
-0.0482942
-8.50323e-05
-0.00559309
-0.122876
0.17591
-0.0474408
0.0100705
0.00978539
-0.0634114
0.0435555
0.0494105
0.00543696
-0.044777
-0.0132117
0.00687562
-0.00377738
0.0101134
-0.0600357
0.000328708
0.0597069
0.110809
0.0441787
-0.136966
-0.0180218
-0.00953929
0.000311629
-0.00398402
0.0184744
-0.116243
-0.0226898
0.120458
0.0127042
0.0661391
-0.069058
0.00279608
-0.0557326
-0.0104748
0.00053193
0.00195509
-0.0026904
0.00207717
-0.00177978
0.000234537
-0.050958
0.0262481
0.0740236
-0.0493137
-0.00193542
0.00100752
0.000965499
-0.0341314
-0.00772689
0.0446544
0.000290153
-0.000270478
0.000357697
-0.000892242
0.000121878
0.000412667
0.000267314
0.00210001
-0.00182453
0.00146719
0.000146213
0.000211133
0.000269211
-6.19144e-05
0.000590995
0.107209
0.124043
-0.0812256
0.000202412
-0.000593294
0.000660093
-0.0528933
0.052751
0.000142305
-0.0104665
0.0761873
-0.0719184
0.00619763
0.00165059
-0.0197765
0.00535897
0.012767
-0.0603389
-0.00302094
-0.0172347
0.00402158
0.0473497
-0.0341366
-0.0627522
-0.0033674
0.0661196
-0.00729331
-0.0165426
-0.0127922
0.0366281
0.000343762
-0.000394907
-0.000548396
0.000599541
-0.00389059
-0.00737047
0.00913288
0.00212818
0.0549851
0.0439049
-0.0175069
0.0483194
0.0896947
-0.0381242
-0.0998899
-0.0126522
-0.0441826
-0.018844
0.0185837
-0.0537189
0.0539792
-0.0112434
0.0283811
-0.00551867
-0.0116191
-0.015083
-0.0134703
0.0133751
0.0151783
0.0963867
-0.0946125
0.0186754
-0.0204496
0.00129185
-0.00443341
-0.00051484
0.00365639
0.00123038
-0.0674534
0.0662231
-0.0726561
0.00338016
0.066976
0.00229994
0.0390229
0.0382708
-0.0772937
0.0190902
-0.0599496
0.0282072
0.00193601
-0.00108485
0.000421399
-0.00127256
0.00027231
-9.88776e-05
0.000947137
-0.00112057
-9.23085e-05
0.000446331
-0.00103192
0.000677897
0.0643403
0.0566891
-0.0395876
-0.0814418
0.00585415
-0.0871918
0.0825717
-0.00123401
-0.0138119
0.000749142
0.0264653
-0.0134026
0.0535855
-0.0527179
0.0191544
-0.0200221
-0.000552717
0.00139226
-0.000697995
-0.000141552
0.0202054
0.0478869
-0.0490021
-0.0468954
-0.00165952
0.00105825
0.00145156
-0.000850287
0.00146308
0.0814291
-0.0828922
-0.0498816
-0.014985
-0.0222542
0.0871208
-0.0499491
6.74989e-05
0.0116181
0.0167533
0.0166729
-0.0450444
0.000569001
-0.00270548
0.000479844
0.00165663
-0.00181837
-0.000436041
0.000594883
-0.106479
-0.00940479
-0.0433195
0.159203
-0.00976141
0.0073553
0.136849
-0.134443
-0.038571
0.0418713
-0.0648513
0.061551
-0.0804832
0.0800096
0.000473592
0.00123557
-0.0499531
-0.030497
0.0669699
0.0193083
-0.0059744
-0.0803038
0.0505621
0.0956246
-0.158338
0.0121518
0.041671
0.0157211
0.0334232
-0.0908152
0.103852
-0.108359
0.04353
-0.00372052
0.0134901
-0.0122199
0.0024503
-0.00123363
-0.000195469
-0.000511167
0.00194027
-0.00289433
-0.00567873
0.00174017
0.00683289
0.0608873
-0.00624144
-0.0184821
-0.0361638
-0.0567446
0.0282182
0.0285264
-0.0930367
-0.00751255
0.0117958
0.000752876
-0.00057258
-0.00141393
-0.118214
0.0265087
0.00513962
0.0865659
0.00119323
-0.0531564
-0.0102948
0.0622579
0.0457512
0.0287602
-0.101917
0.0274058
0.0385675
-0.0434981
-0.0191471
0.0240777
0.0485485
-0.0601907
0.0502097
0.032172
-0.0567457
0.049622
-0.0250483
0.0347154
-0.0360372
0.000325789
0.000995947
0.016245
-0.142311
0.0914645
0.0346013
0.00139869
-0.0617752
-0.0039312
0.0520141
0.000421543
-0.1072
-0.0339585
-0.00864074
0.00687555
0.0357237
-0.0485152
0.0444164
0.0500079
-0.0459091
-0.0422974
0.0818458
-0.0395484
0.0104733
-0.102292
0.048321
-0.0170702
0.00736938
0.0247476
-0.0150468
-0.0877926
0.0934146
0.0361139
-0.0417359
0.0587872
0.0329267
-0.082927
-0.00878692
-0.0462201
0.141949
0.0042344
-0.0999628
-0.000548534
0.00286951
0.00369903
-0.00602
0.0537561
-0.0720982
0.0830534
-0.0647114
0.00775716
-0.0390035
-0.00823266
0.039479
-0.0434709
0.0314772
0.103408
-0.0914143
-0.049988
-0.0264451
0.0528787
0.0235544
-0.00953267
-0.000530683
0.00620765
0.00385571
-0.0114186
0.0244792
-0.0183244
0.0052638
-0.00021755
0.074753
-0.0745354
0.014872
-0.0439238
-0.0194634
0.0480684
-0.034344
-0.000553014
-0.0131714
0.00204334
-0.0268745
-0.02156
0.0463911
0.0344822
-0.0344058
-7.63166e-05
0.0611727
-0.0417171
0.0643196
-0.0837751
-0.0988886
0.0968805
0.0983948
-3.35763e-05
-0.0107748
-0.00178252
0.0125909
0.0493541
-0.000282754
0.000107353
0.000310125
-0.000134723
-0.000626572
0.0490735
-0.112992
0.0645446
-0.00851763
-0.000725025
0.00502228
0.00422037
0.0268863
0.00996041
-0.0368467
0.00127262
-0.000911069
-0.00887917
-0.0303704
-0.0428563
0.0176108
0.0572489
0.000982825
-0.0582318
0.0728501
-0.0441373
-0.0511906
0.0224778
0.00173601
-0.0251427
-0.0207371
0.0693846
0.0430355
-0.0395699
-0.00801394
0.00925298
0.133354
-0.119465
0.0374909
-0.0513792
-0.0450173
0.036489
0.0218843
-0.013356
-0.0528456
0.0523897
0.000455868
-0.0477768
0.0296445
0.0106857
-0.0466187
-0.0108347
0.0467677
-0.00214497
0.161189
-0.161134
0.0020897
0.107653
0.015936
-0.01607
0.0507979
0.00858009
-0.0511998
-0.00817817
-0.0145487
0.00473466
0.0107843
-0.000970206
-0.00953702
-0.00545839
0.00469123
0.0103042
0.066135
-0.0377927
-0.052662
0.0243197
0.0295594
-0.0152369
0.0241097
-0.0384322
0.0268312
-0.0938359
0.0897278
-0.022723
-0.00598227
0.000513269
-0.00907974
-0.0943429
0.106885
-0.0228126
0.0102708
-0.0114773
0.048211
0.0140489
-0.0507826
-0.00397807
-0.000828677
0.00318059
0.00162616
0.0838674
-0.00456937
0.0510566
-0.130355
2.87351e-05
-0.000664074
-5.824e-05
0.000693579
-0.0672329
0.058953
0.0742221
-0.0659423
0.00306536
0.000626042
-0.00210516
-0.00158624
-0.0774807
0.0753372
0.00214346
0.0638913
-0.060345
-0.00354631
0.0603754
-0.000772731
-0.0596026
-0.01095
0.123462
-0.000444104
-0.112068
0.00985794
-0.0310436
0.0328037
-0.0237265
-7.01989e-05
-0.0562313
-0.0675328
0.0114907
0.0663381
-0.010296
-0.0133709
-0.00214837
4.35321e-05
-0.00034778
2.77615e-05
0.000276486
0.00122
-9.75845e-05
-0.000237011
-0.000885405
-0.063481
0.00797739
-0.00155369
0.0570573
0.000333354
-0.00551262
0.00200054
0.00317873
0.0123572
-0.0147814
-8.83171e-05
0.00251258
0.00827161
-0.00672855
0.0108141
0.0554683
-0.00947948
-0.022532
-0.0234568
0.0362489
-0.00535268
-0.0364423
0.00554615
9.26409e-05
0.066719
-0.000223108
-0.0665885
0.00757496
-0.0710019
0.0191132
0.0443138
-0.0429328
-0.0317547
0.0416107
0.0330768
-0.0360681
0.0223963
-0.0918342
0.105506
-0.00103884
0.0154082
-0.00786935
-0.00650005
0.0489984
-0.0588233
0.0473507
-0.0375258
-0.0626885
-0.00682754
-0.00796279
0.00106011
-0.000402823
0.00440975
-0.00506704
-0.0122877
-0.00274886
0.00181926
0.0132173
-0.00827997
-0.00947065
0.0109371
0.00681349
-0.000150358
-0.00223052
0.00146721
0.000913674
-0.000254678
0.000309769
-5.50901e-05
0.00131432
-0.0746998
-0.0278578
0.101243
-0.0001508
-3.01558e-06
-0.0014686
0.00162242
8.07151e-05
-0.000267321
-6.8073e-05
0.00334937
-0.0661016
-5.27445e-05
-6.37593e-05
0.000426272
0.000579746
0.000212963
-0.000358554
-0.000434155
-0.0280804
0.0628873
0.0787151
-0.113522
-0.00931431
-0.0021668
0.00731385
0.00416726
-0.0147061
-0.000388482
0.00578024
-0.00546387
0.00553204
0.0134256
-0.0134938
-0.000308856
0.000461938
-0.000205827
-0.0673255
0.0682379
-0.000912377
0.030214
0.0474259
-0.0601524
-0.0174874
0.01181
-0.0754739
-0.0214939
0.0851578
-0.0137209
0.00270612
0.0055509
-0.00452517
-0.00651819
-0.00267753
-0.0165404
0.0589486
0.012742
-0.0551502
0.0697438
0.00496902
-0.0546426
-0.0200703
0.000270011
0.000399906
-0.0006641
-5.81697e-06
-6.55942e-05
-0.000162547
-0.00266371
-0.00116303
-0.00141455
0.00524129
0.0650877
-0.0459261
0.0120498
-0.0312115
-0.000851591
-0.00268731
0.00138476
0.00215414
-0.0179204
0.0108509
-0.00248532
0.00955483
0.000955245
-0.101672
0.101745
-0.00102796
0.00319958
0.000836499
-0.0106855
0.00664945
0.0104835
-0.0110191
0.00156222
-0.0010266
0.00989551
0.00411782
-0.0108137
0.0367783
0.0562662
-0.0279568
-0.0272798
0.0548046
0.0281951
-0.0557199
0.0277506
-0.0550304
-0.00103494
0.000701666
-0.0328767
0.0124732
-0.0100486
0.0792182
0.0232475
0.00738062
0.0696749
-0.054121
0.0976968
-0.113251
0.0047468
0.0924932
-0.09724
-0.00699467
-0.0073382
0.0137001
0.000632774
-0.0340533
-0.0870901
0.0274542
0.0936892
0.0218207
0.0613918
-0.024424
-0.0587884
-0.0235278
0.113235
-0.052929
-0.0418449
0.0448944
0.0517551
-0.0558441
0.0558023
4.18088e-05
-0.039155
0.0366794
0.0024756
0.0397028
-0.0779446
0.0724367
-0.034195
0.0680441
-0.0845845
-0.0101116
-0.0081031
0.01122
0.00064963
0.00059678
-0.000438082
-0.000808328
-0.00583688
-0.0426476
-0.00735966
0.00122582
0.00150037
-0.00265303
-7.31604e-05
-0.057414
0.0518794
0.0855357
-0.0800011
0.0372296
-0.0336498
-0.00357979
0.0124523
0.0224219
-0.0146416
-0.0202326
0.00422129
-0.000374136
0.00216334
-0.00601049
-0.0644572
-0.000831901
0.0200103
0.0452787
-0.00295766
0.00665292
0.00052604
0.0389745
-0.109392
0.104742
-0.0343247
0.0460705
0.0133264
-0.0593669
-2.99538e-05
-0.00364021
0.00696842
0.00173858
-0.00506679
0.000208521
0.0606888
-0.0608973
0.0383193
0.00692627
0.0151434
-0.060389
0.00435989
-0.00733266
0.00259863
-0.185669
0.0286169
0.164605
-0.00755353
0.0398912
-0.010927
-0.0289642
-0.00125507
-0.0015019
-0.0011925
0.00394947
-0.0424808
0.0468715
0.125629
-0.13002
-0.00193564
0.00068859
-0.00189168
0.00313872
0.0913755
-0.00204538
-0.0432597
0.00051576
-0.00126821
0.00204464
-0.00129219
-0.0193543
-0.117192
0.0158777
0.120668
0.00370132
0.0524927
-0.00406313
-0.0521309
0.0484634
-0.0697595
0.0602462
-0.0389501
0.031915
-0.0365609
0.0487352
-0.0440893
0.00829771
-0.00144126
0.00553474
-0.0123912
0.0012327
-0.0443445
0.0533689
-0.0537133
-0.0362165
0.0970212
0.017649
-0.024172
-0.0904983
0.0464037
0.0191294
-0.132962
0.067429
-0.00194872
-0.00860176
0.00629117
0.00425931
0.0277746
-0.0498267
-0.00324083
0.0287932
-0.0265464
0.00737549
-0.00588468
-1.70761e-05
-0.00147373
-0.0865648
0.00261975
0.000566104
0.0700966
-0.148184
0.0775211
-0.0280473
-0.0876068
0.0406311
0.075023
-0.0730226
0.0203231
0.00326473
0.0494348
-0.0430637
0.0290303
0.0102451
-0.0825712
0.0956081
-0.0130369
-0.0208469
-0.00940865
0.117634
-0.0873788
-0.00367111
-0.00378825
0.00612519
0.00133417
-0.0258031
0.0591848
0.0406459
-0.0721681
0.0280308
-0.000830911
-0.000392632
-0.00103476
0.0022583
0.0465225
-0.0489378
0.0544294
-0.0375109
-0.00721715
-0.0447541
-0.123342
0.0476006
0.0757419
-0.0429207
-0.0325215
0.0276654
0.0030295
-0.00222615
0.000900617
-0.00170396
0.00296618
-0.000478083
0.000541395
-0.0864694
0.00367668
0.0827927
0.0610911
0.0121121
-0.121576
0.0483723
-0.0713448
0.000699103
0.0706457
0.00126036
-0.00165481
0.0087592
-0.00836475
0.0488316
0.156556
-0.226562
0.0211741
0.00191679
-0.00232707
0.00134019
-0.000929914
-0.0916447
0.064949
0.026525
0.000170713
-0.000263234
1.29258e-05
0.00178251
-0.0015322
-0.000653027
0.00833765
-0.00850643
0.000821805
0.00754528
0.00788772
-0.0147255
-0.000707467
0.0407202
0.0123968
0.00305459
-0.00280082
0.00166303
-0.0986086
0.105543
0.00678281
-0.0137176
0.0126174
-0.0679743
-0.0237276
0.0790845
0.00184481
-0.00424506
0.087494
-0.0850938
-0.0366372
-0.0339846
0.0821137
-0.011492
-0.0407343
0.0245251
0.040599
-0.0243898
0.0536755
0.0206705
-0.0721425
-0.00220349
-0.00112654
0.000172243
0.00133439
-0.000380099
-0.123576
-0.0432368
0.0398608
0.126952
0.0482688
-0.0375831
-0.0319248
-0.0376696
-0.0310922
0.100687
-0.00181151
0.00424154
0.000497198
-0.00292722
-0.0309942
-0.0807855
0.028847
0.0829327
-0.0296731
-0.0283958
0.020558
-0.000689946
-0.00334772
-0.00163793
0.00303332
-0.00382056
0.00242517
-0.00571508
0.00561882
0.0252994
-0.0774739
-0.0856168
0.137791
-0.000497337
-8.94267e-05
0.000282715
0.000304049
0.0571156
-0.0602037
0.048015
-0.0449269
-0.0148941
0.0450604
-0.00801222
-0.0221541
0.086982
-0.0864932
-0.0187163
0.0182275
0.0266292
0.0219595
-0.0633955
0.0148068
-0.127351
0.0739303
0.0183566
0.0350636
-0.00534651
0.00330777
9.68831e-05
0.00194186
-0.00840556
0.00983915
-0.000173224
-0.0134511
-0.00372288
0.0178898
-0.000715901
-0.0607584
-0.0041665
0.0132224
0.0517024
-0.00775715
0.103278
-0.0050355
-0.0904855
0.00877279
-0.047583
0.0809607
-0.0421504
-0.00140605
0.00415467
-0.00143229
-0.00131633
-0.0152784
0.000312131
-0.00200763
0.0169739
-0.106661
0.00661401
0.0128394
0.0872074
-5.88798e-05
-0.000276689
0.000486863
-0.000151294
0.0372088
0.00808278
0.0269823
-0.00510143
0.0464089
0.052865
-0.0941725
-0.000227554
0.000345309
-0.000176635
-0.000494795
0.00219198
-0.0015059
-0.000191287
0.0171416
0.111427
-0.0478376
-0.0807306
-0.000238135
-3.85542e-05
0.000111289
-0.000349424
0.0618527
0.017086
-0.0923427
0.013404
-0.15717
0.0860134
0.0772057
-0.00604961
-0.0181734
0.00019793
-0.0514913
0.0694668
0.0248597
-0.0144892
0.0167344
-0.0271049
-0.066463
-0.0230892
0.0895522
-0.0779287
0.0387169
0.0392118
-0.00169797
-0.00041678
0.000831688
0.00128306
-0.0379689
0.0411235
0.00780102
-0.0109556
0.046507
-0.0545308
0.00802374
-0.0603139
0.0335482
0.045051
-0.0182852
0.00453033
-0.00286768
-0.00149674
-0.00016591
-0.00326972
-0.00244274
0.000365956
-0.0422101
-0.0417966
0.0472451
0.0142343
0.00255494
-0.0640344
0.00163967
0.000124383
-0.00143235
-0.000331705
0.00351039
0.00707276
0.00239059
-0.0129737
0.00716575
0.0230436
-0.041205
0.0109957
-0.0190627
-0.0153884
-0.00918712
0.0436381
-0.0753694
-0.0111641
0.0306343
0.0558992
-0.00185048
0.0152178
-0.00828625
-0.00508108
-0.0529615
0.000652404
0.0332465
-0.000210517
0.0253564
-0.135677
0.126376
-0.0160547
0.0285835
-0.0344965
-0.0517975
-0.0271149
0.0548655
-0.000574916
0.0412379
0.00382804
-0.044491
-0.0551242
-0.0599576
0.115082
-0.00326191
-0.00106143
-0.00174021
0.00606355
0.00315261
-0.00480532
0.00172524
-7.25246e-05
0.0370721
-0.00637927
-0.028217
-0.00247589
-0.00326149
-0.00235145
0.00235104
0.00350972
-0.0107692
0.0659241
-0.0586646
0.0763087
-0.000331961
0.0270467
0.00984103
-0.00685747
-0.0300303
0.0585308
-0.000761515
-0.0577693
-0.0529119
0.113832
-0.0284226
0.0596881
0.0200895
-0.051355
-0.0172706
-0.025184
0.0180842
0.0243703
0.00306713
0.00376461
0.00086602
-0.00769776
-0.0342091
-0.0379607
0.099327
-0.0271573
0.0457753
-0.0370259
-0.000722533
-0.00802686
-0.0477218
0.116905
-0.052932
-0.0162514
-0.00129114
0.0015555
-5.92355e-05
-0.000205124
-0.00052354
0.0213598
-0.00485868
-0.0159776
0.00308876
0.00389642
0.000280456
-0.00726563
-0.000300772
-4.14071e-05
4.2244e-05
0.000299935
4.16103e-05
-2.53557e-05
-0.000317026
-0.0091693
0.023003
0.0702337
-0.0840674
0.0807041
-0.082905
0.00220087
0.000282361
-0.000261139
-2.12219e-05
-0.012689
0.000969383
0.00230996
-0.00131453
-0.00196482
-0.00761768
-0.00691087
0.00523818
0.00929037
-0.0557558
0.0273332
0.000315518
0.000198158
-0.000779842
0.000266167
0.0334741
0.0552721
-0.0353024
-0.0534439
0.0118197
0.159682
-0.179976
0.0084737
0.0582872
0.0632951
-0.0618943
0.00181989
-0.0136512
-0.00192396
0.0137553
-0.033398
-0.0301141
0.0635121
0.031124
-0.064522
-0.0544922
-0.0451508
-0.0656541
0.165297
0.0496048
-0.0554081
0.00580327
-0.0729013
0.135038
-0.0716167
0.0329549
-0.0299606
0.0861493
-0.00342143
-0.069084
-0.0136439
0.0695396
-0.0696588
0.0116784
-0.0115592
0.000146655
-0.00622838
0.00712252
-0.0010408
0.000320192
-0.00428196
0.00672781
-0.00276605
-0.000247453
0.000238161
0.000631086
-0.000621794
0.0221629
0.0234564
-0.0337533
-0.011866
-0.00542953
-0.00484745
0.00618367
0.00409331
-0.0109053
0.0320176
-0.0426227
0.0215104
0.00114114
-0.00854845
0.0106595
-0.0032522
0.0484739
-0.00414442
-0.0443294
0.0380469
0.0357507
-0.12657
0.0527726
-0.0979039
0.0599808
0.0759701
0.0329844
-0.0997643
-0.0469239
0.107873
-0.0370606
-0.0238887
0.0016139
0.00926853
-0.0124666
0.00158413
0.0270476
-0.00223145
-0.0248161
-0.0305216
0.0435785
-0.00391019
0.0203376
-0.0315104
0.000921191
-0.000204646
0.00111002
-0.00182656
0.011741
-0.0382874
-0.00037576
0.000151996
0.000261555
-3.77911e-05
0.00279453
-0.000438125
0.00110348
-0.00345988
-0.000729345
-0.00263271
-0.0780639
-0.0128041
0.0015963
-0.0118843
0.023092
0.0202488
-0.0907474
0.0207965
0.0497021
-0.00339944
0.058287
-0.0819277
0.0270402
0.000582155
-0.000349581
0.000216172
-0.000448746
0.0791007
0.0125505
0.00226661
-0.0939177
-0.000233151
-0.000736481
0.000965255
4.37774e-06
0.00501064
-0.000887372
-0.068981
0.0648577
0.00691613
-0.00120925
-0.00511835
-0.000588528
0.00657703
0.00461283
-0.00371875
-0.0074711
-0.110425
0.096496
-0.0876361
0.101565
-0.0540671
0.10902
-0.0549524
0.00230576
-0.0438026
0.00860747
0.0328894
0.00373639
-0.00352036
0.000687503
-0.000903538
0.0492072
-0.00262451
0.00113465
-0.12964
0.00246659
0.0742618
-0.0344556
0.000189843
0.00207626
0.032774
-0.027258
-0.00759229
0.078181
-0.030771
0.034207
0.00426094
-0.0051566
9.7147e-05
0.000798517
0.0345286
0.0240704
-0.0762869
0.0176879
9.58454e-06
0.000107872
-0.00017496
5.75034e-05
-0.000474224
0.00158209
0.00546916
7.30468e-05
-0.00815098
0.00661425
0.00579767
0.0746297
0.0407463
-0.0370568
-0.0783191
-0.131013
0.142582
-0.00958653
-0.00198247
0.03152
-0.0327669
0.00124686
-0.0371472
0.000246323
0.000413958
-0.00325729
-0.00231327
0.0146378
0.206823
-0.15895
-0.0625114
0.0292677
-0.0609127
-0.018064
0.0497089
-0.00312419
0.038954
-0.000903768
-0.0852554
0.0472052
-0.0231456
0.0100688
-0.0379401
0.0476786
0.0461529
-0.0558914
-0.0669158
0.089867
-0.152591
0.129639
-0.000206725
5.84982e-05
-0.00145195
0.00160017
0.000193787
0.0022945
-0.000614111
-0.00187417
0.0431592
-0.0142905
0.0380488
-0.0669174
-0.00356517
0.000357853
0.00343343
-0.000226115
-0.011814
0.0105724
-0.0366985
0.0122279
-0.0461543
0.00595412
-0.00329818
0.0186444
-0.0213004
-0.139046
0.019277
0.130803
-0.0110348
0.0312149
-0.0217081
-0.0116842
0.00217736
0.034374
-0.0529707
0.00678263
0.00429153
0.00778477
0.0524308
-0.0645071
0.0247405
-0.00716954
-0.025169
0.00759799
-0.0796683
-0.00820006
0.0145465
0.00124463
-0.00111035
5.95078e-05
-0.000519311
0.00309299
0.00249333
-0.00506701
0.0184041
-0.0321458
0.0384822
0.0179713
-0.143341
-0.0230066
0.148377
-0.114156
-0.0149699
0.0266277
0.102499
0.0570271
-0.0343793
0.0280123
-0.0506601
0.112897
-0.00614974
0.00304397
-0.109791
-0.0170071
-0.0370771
-0.00428674
-0.0164791
0.0083925
0.0123733
-0.00128571
0.000442266
-3.30087e-05
0.000876454
0.0154843
-0.0782317
0.0627474
0.108598
-0.00699671
-0.112551
-0.0263331
0.0556716
-0.0463456
0.0394506
-0.122214
0.0152036
0.0675602
-0.00399503
-0.0121659
-0.0268947
0.0430556
0.00370617
0.0507754
0.0864835
-0.135791
-0.00146737
0.0492454
-0.0830009
0.0891219
-0.0553664
-0.0959335
0.0960531
-0.00749115
0.00737156
0.00302892
0.00431409
-0.0954938
0.0881508
-0.00177045
0.00361845
0.006119
-0.00796701
0.000249095
-0.000959203
-0.000294284
0.00100439
0.0890972
0.000554759
-0.0171335
-0.0725185
-0.000667213
0.000685493
1.99853e-05
-3.82655e-05
0.000650538
0.00325163
-0.00224839
-0.00165377
-0.00181668
-0.000676048