/*--------------------------------*- C++ -*----------------------------------*\
| =========                 |                                                 |
| \\      /  F ield         | OpenFOAM: The Open Source CFD Toolbox           |
|  \\    /   O peration     | Version:  2506                                  |
|   \\  /    A nd           | Website:  www.openfoam.com                      |
|    \\/     M anipulation  |                                                 |
\*---------------------------------------------------------------------------*/
FoamFile
{
    version     2.0;
    format      ascii;
    arch        "LSB;label=32;scalar=64";
    class       volVectorField;
    location    "0.0883272";
    object      U;
}
// * * * * * * * * * * * * * * * * * * * * * * * * * * * * * * * * * * * * * //

dimensions      [0 1 -1 0 0 0 0];

internalField   nonuniform List<vector> 
47425
(
(10.3755 0.243387 0.00190672)
(10.192 -0.290417 -0.00360259)
(9.98367 0.00879834 -0.00618368)
(11.6457 -0.533699 -0.25051)
(12.7545 0.366569 0.61046)
(10.0221 0.00418308 -0.000909869)
(12.6673 0.200393 0.61212)
(10.0113 0.00368203 -0.00095861)
(10.0047 0.00864097 0.00584051)
(0.669817 2.98595 -2.51378)
(9.98419 0.00716682 -0.00337148)
(9.99072 0.0725448 -0.00919326)
(12.4557 0.350716 0.16712)
(9.98943 0.0058635 -0.00785043)
(11.2572 -0.0572685 -0.16341)
(10.0767 -0.216574 0.00481282)
(10.0058 0.00206109 -0.00342316)
(8.80355 -0.529623 -1.53112)
(8.66869 1.30738 -5.15702)
(13.7388 -0.563055 -1.18764)
(10.9674 -0.685838 -0.631352)
(9.7903 -0.0406866 -0.0166783)
(9.95834 0.0107645 -0.00609589)
(9.93342 0.0205443 0.0165014)
(9.89944 -0.0817222 -0.0021614)
(10.022 0.0590153 0.0180071)
(10.0044 0.0124741 -0.00338501)
(11.5026 -0.465587 -8.95287)
(10.0109 0.00760606 -0.00294823)
(9.99989 0.022877 0.0142139)
(9.66004 0.766835 0.00199725)
(10.0445 0.0839597 -0.00136113)
(10.0008 0.00600242 0.00584361)
(9.98174 0.0187887 0.0112927)
(10.0139 0.00242633 0.00921427)
(9.9745 0.00250771 0.00371381)
(9.72269 -0.0356231 -0.0905455)
(10.0011 0.0165291 0.00805827)
(10.5514 0.469692 -0.0320456)
(10.1645 0.0789073 0.0150301)
(9.87924 0.267553 -0.0225459)
(8.84623 0.00972874 -0.336058)
(5.48475 -2.57716 0.40262)
(9.98339 0.0132568 0.00534429)
(0.243261 -1.92308 -0.38671)
(9.96987 0.123899 -0.0143436)
(9.94554 -0.00185126 -0.0124825)
(9.99482 0.0294211 0.00524826)
(10.1655 -0.116241 -0.00123161)
(10.0705 -0.0157868 -0.0112463)
(2.1444 -0.706108 -5.86104)
(9.08254 1.47562 1.25608)
(10.0559 -0.0100735 0.00555021)
(5.69866 -4.1415 0.985003)
(10.0375 0.0806319 -0.00331249)
(10.1984 0.019265 -0.00147418)
(10.3638 -0.214243 0.0257624)
(9.99221 -0.00348699 0.0212962)
(11.917 1.33432 1.49758)
(9.9956 0.0178223 0.00563845)
(4.81164 -4.06059 0.509142)
(5.49501 -0.859115 2.01383)
(2.09001 -1.55261 -0.209079)
(9.00939 -1.18902 -0.0977158)
(10.0076 0.0106454 -0.00648448)
(10.837 -0.405078 -0.037435)
(9.98588 -0.0112336 -0.00651716)
(10.951 0.395715 0.681239)
(6.65836 -2.92501 1.48587)
(8.96082 0.576774 0.287262)
(10.8399 -0.713689 0.119651)
(10.07 0.0296433 -0.00501871)
(11.0508 -0.207233 -0.0398568)
(10.8583 0.331273 -0.653888)
(2.6178 0.682515 -0.364131)
(9.99887 -0.00386672 0.00100927)
(2.11901 -1.34387 0.332341)
(9.96164 -0.009995 0.00772203)
(4.62685 -1.48568 0.955682)
(12.0468 -0.156794 1.3777)
(3.18172 0.411097 -0.278381)
(10.2192 0.353091 -0.00310166)
(9.17624 0.146077 -0.358103)
(10.0132 0.0135458 -0.00679212)
(9.27377 -0.00896428 -0.050594)
(10.3851 -0.0638593 0.0184173)
(10.9448 -0.0813268 -0.0523374)
(10.2381 0.160778 0.00805497)
(11.0705 -0.363388 -1.54811)
(11.0812 -0.813652 1.82754)
(9.75682 0.445559 -0.0521489)
(10.7853 -0.00433797 -0.0360376)
(10.0447 -0.0102007 0.00335185)
(10.2136 -0.0542104 0.0104933)
(10.1676 -0.0481493 0.0182251)
(10.158 -0.0120551 -0.00374603)
(10.0433 -0.00300091 -0.00339942)
(10.5155 -0.322141 -0.0143341)
(10.2977 -0.0574881 0.00431017)
(10.0464 0.0175417 0.0173519)
(10.0197 0.0382561 0.00291854)
(8.70032 0.147787 -4.15262)
(10.3055 0.185731 -0.0109407)
(5.31311 1.93919 -0.839967)
(10.3137 0.169278 -0.0263199)
(10.8782 -0.740094 -0.0484884)
(10.239 0.364629 0.0841373)
(10.2752 -0.0934064 -0.00553403)
(8.2886 -0.170515 -0.537678)
(9.96628 0.0879935 -0.00676143)
(-0.0706671 -0.442023 -0.608941)
(9.99411 -0.0789785 -0.0060076)
(10.7751 -0.94668 -0.0483455)
(10.4337 -0.0180016 -0.0280854)
(11.1334 -0.408839 -0.00123296)
(1.78608 -4.13134 -5.94861)
(11.1271 -0.357039 -0.00676959)
(4.04938 0.0473046 -4.38575)
(10.3783 0.171037 0.00386018)
(11.329 0.412438 0.362465)
(10.5222 -0.0597537 -0.021332)
(10.0002 0.00363915 0.00546865)
(9.99668 0.0525045 -0.00460899)
(11.9101 0.798248 -0.802534)
(10.0446 -0.0353044 -0.00403225)
(11.0855 -0.774276 -0.0250037)
(10.3553 -0.105522 -0.00227211)
(10.0072 0.00363894 -0.00677824)
(9.97305 0.0209843 0.0103898)
(10.0207 0.0285249 -0.00191026)
(9.18799 -0.291372 0.273924)
(10.8172 0.287715 -0.0591031)
(4.3145 0.0555639 0.500314)
(10.4322 -0.572748 0.0251847)
(9.79066 0.196978 -0.523762)
(12.2236 -0.541305 -0.966876)
(10.8481 0.949586 0.234635)
(11.1082 -0.846416 0.0988149)
(10.154 -0.0761167 -0.00604284)
(11.1867 -0.0996592 -0.0680092)
(9.98133 0.0059901 0.00192446)
(11.8056 0.310746 0.269774)
(10.5217 0.0400578 -0.0280168)
(10.7682 -1.21917 -0.00299611)
(10.1626 0.233119 -0.0179183)
(10.0047 0.00520835 0.00556438)
(12.6351 0.28763 0.488341)
(10.0108 -0.0305353 0.0073007)
(10.4675 0.0225854 -0.0116526)
(9.97664 -0.0171828 0.00616439)
(10.663 -1.21645 -0.153239)
(2.9085 -0.404494 -6.83146)
(10.0071 0.01496 -0.00986848)
(5.53055 0.120459 -11.3688)
(8.94107 -1.18096 -0.772811)
(9.99357 0.119595 0.0197242)
(11.0507 0.520023 -1.7297)
(7.29309 -3.93297 -2.67151)
(10.2115 -0.0709462 0.0120024)
(9.97647 0.00825121 -0.0033905)
(11.3809 -0.212771 -0.0212397)
(10.0299 0.086099 0.0195743)
(10.0309 0.0150204 -0.00267371)
(10.164 0.318154 -0.029866)
(11.8763 0.232137 -0.629345)
(-1.06303 -1.61528 -2.04156)
(10.0159 -0.029742 -0.00162137)
(3.13404 0.537665 -0.370117)
(9.92075 -0.00403219 0.0204438)
(12.0945 0.775828 -4.3646)
(3.99209 0.362824 -0.559796)
(9.97128 -0.00534277 0.00281647)
(10.0012 0.0242481 -0.00335411)
(9.42535 -0.992911 -0.677971)
(10.3809 -0.0287318 0.0175953)
(9.25469 -3.05958 -1.44672)
(2.75645 0.967496 -7.67532)
(10.0097 0.0126114 -0.00317623)
(10.0331 0.00115479 0.00305804)
(10.0559 0.00159706 0.00539049)
(2.60426 0.429339 -10.9904)
(10.0938 -0.185597 0.0345168)
(10.0265 0.0038784 0.00206291)
(10.0316 0.00506023 0.0130582)
(10.0396 -0.000362279 0.00376236)
(10.0269 0.0238104 0.00512101)
(10.2146 0.0842589 0.00910856)
(5.6424 -0.538365 -0.672938)
(9.82049 0.00826997 -0.0078715)
(10.2266 0.225497 0.0881273)
(10.0005 -0.0100029 -0.00280486)
(9.98663 0.00364824 -0.00189204)
(12.2084 -0.85995 -0.603341)
(9.99719 0.0018602 0.00410434)
(10.0245 0.00143526 0.0182681)
(11.258 0.0578393 -0.0577953)
(10.0017 0.00110077 0.00757914)
(10.0483 -0.0223642 0.0168982)
(11.4258 0.148071 -0.0634315)
(10.4428 -0.262729 0.0718062)
(9.99313 0.0137641 0.00218933)
(10.5254 -0.0524565 0.00568038)
(8.72147 0.465433 -0.431227)
(11.2564 -0.106458 -0.0492745)
(10.3195 -1.4824 -1.01198)
(10.7046 -0.0128901 -0.0413065)
(10.0019 -0.0122253 0.00800661)
(11.2139 -0.00605502 -0.0516672)
(9.99532 0.0869389 -0.0141764)
(10.0028 0.0133351 -0.00268076)
(10.4433 -0.177027 -0.00557843)
(11.2422 0.145035 -0.00993149)
(10.0068 0.0240256 -0.000229038)
(9.96037 -0.0431161 0.017202)
(10.8061 -0.0525406 0.00103088)
(11.3903 0.259414 -0.156718)
(10.8572 0.0381544 -0.0651454)
(11.3408 0.242685 1.60207)
(8.66635 -1.29427 -0.699514)
(9.94489 -0.0440847 0.0101295)
(11.8592 -0.534136 1.29016)
(11.3388 0.208869 0.169394)
(9.82674 -0.752868 -1.13266)
(10.9478 0.203554 -0.0339142)
(10.6762 -0.00475797 -0.0264123)
(11.9759 -0.759861 1.19266)
(10.0317 -0.00554412 0.00818895)
(11.3031 0.284777 -0.0572295)
(11.5809 0.167571 -0.0102948)
(12.0521 -0.215319 -0.328258)
(10.8487 0.0367244 -0.0587267)
(9.98588 0.00599058 -0.00463602)
(10.6482 -0.0788215 -0.00887939)
(10.0006 -0.00435959 -0.000579181)
(9.79952 -0.00746867 -0.00935577)
(9.99116 0.263756 0.00962959)
(11.8175 -0.143741 1.41113)
(9.96715 0.0244854 0.00498383)
(12.1604 -0.0451612 1.24837)
(9.78984 0.00114291 -0.0429851)
(9.87856 -0.014519 -0.0137758)
(10.0063 0.0062327 0.0100724)
(10.0912 -0.0320757 -0.00569876)
(11.6844 0.888683 0.0682494)
(10.3884 0.486549 -0.00752317)
(10.0077 -0.00306372 0.0120163)
(10.4716 -0.0791569 -0.0179749)
(10.0107 -0.000629259 0.00274613)
(10.0119 -0.0246067 0.0115079)
(9.94977 -0.00246039 -0.00976816)
(9.98482 0.103904 0.0356135)
(12.0485 -0.46674 1.38661)
(9.97382 0.00953494 0.00527624)
(10.0033 0.0041131 0.00562637)
(9.91918 0.0115943 0.00130625)
(10.0361 -0.00037812 -0.0058589)
(9.8524 0.0622069 -0.0309685)
(9.7448 0.0176587 0.0123391)
(10.4752 -0.734172 0.121693)
(10.0099 -1.12264e-05 -0.00669433)
(9.74238 0.0264546 0.0110761)
(9.99933 0.0257176 -0.00064201)
(10.2092 0.0513618 -0.0084381)
(10.1157 0.010885 0.00351102)
(12.0848 0.030999 0.775368)
(10.6181 -0.391298 -0.148904)
(10.0404 -0.000584767 -4.27887e-05)
(12.1558 0.0637222 0.598842)
(10.0167 0.00224953 0.00489961)
(10.2039 0.0963749 -0.00237879)
(10.1794 0.0513311 -0.00247737)
(12.2607 0.10045 1.03857)
(11.7095 0.0725375 1.28054)
(10.2058 -0.164022 -0.0184232)
(12.1344 -0.200487 1.40221)
(10.0471 0.00298969 -0.00539497)
(12.2042 -0.0403597 1.23401)
(6.57725 3.3327 2.11751)
(11.6948 -0.05046 1.35579)
(5.9296 1.28825 -5.28912)
(4.24031 -4.25885 0.401612)
(10.3459 0.200762 0.00740241)
(3.0415 -3.81679 -0.351505)
(9.88093 -0.0115985 0.00913309)
(10.01 -0.0096948 0.0166341)
(11.3862 -0.166964 -0.00784543)
(9.90713 -0.00756593 0.00941894)
(9.93683 0.00753255 -0.0060223)
(9.8298 -0.256277 -0.0199649)
(11.156 -0.464292 -0.162161)
(1.38667 1.72229 -3.71729)
(9.20285 0.840262 -0.0278034)
(10.0028 -0.00175258 -0.00228785)
(10.0169 -0.00357282 -0.0163107)
(9.98635 0.00743997 -0.00210495)
(10.1541 0.386975 0.414723)
(11.5994 0.955241 0.235244)
(10.2092 -0.718314 0.0851338)
(9.99384 -0.132425 -0.00180493)
(12.0201 -0.167273 -0.00433895)
(10.2089 0.170422 0.0440605)
(10.0958 0.0467054 -0.000154999)
(9.95902 -0.0222149 0.00567117)
(10.0152 0.0028611 -0.00778723)
(9.89903 4.15836 -0.602441)
(5.53133 1.77124 -0.657791)
(1.50471 1.21395 -6.40776)
(10.0546 -0.0109369 0.000919034)
(10.1109 -0.0392792 0.00889145)
(10.0411 -0.637838 -0.0776532)
(10.1783 -0.50317 -0.15612)
(1.25521 -0.817894 -5.86179)
(9.97089 0.00100295 -0.011458)
(9.94289 0.00279808 -0.00958764)
(10.793 2.13317 0.492354)
(10.3331 -0.14712 0.0236592)
(9.8487 0.0111944 -0.00602396)
(9.81018 0.00995846 0.00119095)
(9.89924 0.00155841 -0.00292419)
(12.1831 2.67363 -1.12439)
(11.2647 1.84021 0.413136)
(10.0647 0.195335 -0.00994107)
(10.0995 0.127439 -0.00767872)
(10.0268 -0.0123499 0.00876544)
(10.368 -0.0395539 0.00421033)
(10.0521 -0.00243139 0.00616143)
(10.065 0.23111 -0.00223849)
(10.1892 0.0555237 0.0175052)
(10.0513 -0.0182188 -0.00352458)
(9.97865 -0.0182416 -0.000210097)
(11.6131 -0.0667663 0.227766)
(8.49304 0.598511 -0.526971)
(10.6286 -0.732073 -1.40039)
(10.0089 0.0133681 -0.000904946)
(9.96529 -0.00715758 0.00713174)
(10.0525 0.000533395 0.00250389)
(8.74922 0.920223 -0.558823)
(9.97867 0.103859 -0.00312325)
(10.0247 0.0223595 -0.00566932)
(10.0247 -0.0532987 -0.00740514)
(10.0272 0.26295 -0.0498125)
(10.0228 0.28775 -0.0527388)
(10.1849 0.133552 0.0210101)
(9.94041 0.266509 -0.0407599)
(10.047 -0.0167705 -0.00791853)
(10.0509 0.000297809 0.00602689)
(9.98291 -0.00569381 0.0207231)
(9.6634 0.456243 -0.210753)
(9.94922 0.00133361 -0.00292321)
(9.93834 -0.014461 0.00423494)
(10.0143 0.236938 -0.042544)
(10.4271 -0.4771 -0.10084)
(10.0538 0.258265 -0.026769)
(9.9625 0.203922 -0.0239186)
(10.0185 0.196383 -0.03304)
(11.1751 -1.44209 -0.295193)
(9.94302 0.00354622 -0.00577509)
(9.19909 0.240123 0.0423829)
(9.97962 0.155529 -0.0137373)
(9.99533 0.0235162 -0.00778363)
(9.49787 0.315293 1.90396)
(11.5607 0.16065 -0.467133)
(10.1444 -0.0481904 0.00813147)
(9.92494 0.00370064 -0.00298757)
(10.3682 -0.445139 -0.0148958)
(10.9025 0.399783 -0.124257)
(9.77552 0.00372447 -0.0092456)
(10.0105 -0.00627674 -0.00851888)
(9.97506 -0.13319 0.000776143)
(10.233 0.770072 -0.156658)
(9.81196 0.00104732 -0.00747916)
(-0.526232 -2.42412 -0.541105)
(10.8272 -0.106605 0.0117428)
(10.0281 1.00809 -0.138712)
(9.97933 -0.00180853 0.00735149)
(10.0218 0.890111 -0.113673)
(10.9676 0.480275 -0.268562)
(10.0102 -0.000605857 0.00110948)
(10.0035 0.00574285 0.00452149)
(9.7539 -0.033949 -0.072614)
(10.0109 0.0032269 0.00495569)
(10.0445 0.902647 -0.165258)
(10.13 -0.132446 0.0135455)
(10.0052 0.0234312 0.00720879)
(9.98847 -0.0550921 -0.00534256)
(10.0017 0.0180779 0.00610341)
(9.96131 -0.0132124 0.00523855)
(10.2302 0.180432 -0.0104956)
(9.9996 0.00599704 0.00780435)
(9.97444 0.0146408 0.00753156)
(10.5779 0.958018 -0.372167)
(10.3589 1.16603 -0.429695)
(9.9672 -0.0104273 -0.0015401)
(10.5211 -0.558482 -0.00324254)
(9.97968 -0.00597275 0.00787245)
(10.5006 0.898645 -0.329721)
(9.95629 -0.0719286 0.00103106)
(9.98741 -0.00162658 -0.00167322)
(12.2091 0.719793 -0.430126)
(10.06 0.00914686 -0.00961897)
(10.7106 0.098104 1.09422)
(10.0823 -0.00268859 0.00118706)
(9.36528 1.55546 -2.08971)
(9.92611 0.00501159 -0.00790484)
(10.7701 0.154121 0.00249353)
(9.93005 0.00318221 -0.0165092)
(10.0336 0.0156806 0.00290963)
(9.80949 0.00830468 -0.00440592)
(10.0442 0.000902369 0.00156574)
(9.97735 -0.00233625 -0.0198562)
(10.3575 1.04494 -0.335752)
(0.913846 -1.67889 0.610256)
(2.04923 -0.750176 -2.60106)
(10.112 0.0973543 0.00870917)
(10.3747 1.56741 -0.988613)
(10.7871 0.787543 -0.362582)
(10.8916 0.743153 -0.349839)
(9.97702 -0.00871525 0.0130972)
(9.99683 0.00181155 0.00828678)
(9.95826 0.0244315 0.0104204)
(9.84297 0.00824796 0.00923338)
(9.94876 -0.0120156 -0.000955378)
(10.221 -0.292059 0.0118248)
(10.909 0.683644 -0.242684)
(9.94066 -0.0158625 0.00314316)
(10.0459 0.0100155 0.00670168)
(11.6732 -1.05908 -0.0112864)
(11.6539 0.553587 -0.267774)
(11.2755 0.632282 -0.211933)
(8.06855 -1.33599 -5.21169)
(-0.0140015 3.23226 0.484448)
(10.7779 -0.316434 -0.00710454)
(7.40925 -0.98515 -5.7526)
(-0.0688399 3.10671 0.669366)
(9.85842 -0.277503 -0.0331014)
(-0.125397 3.11014 0.623297)
(9.44757 -0.315873 0.881322)
(9.99755 -0.0796138 0.0208665)
(11.1519 0.695621 -0.382715)
(11.0941 0.753975 -0.409483)
(11.4013 0.653481 -0.377557)
(-0.831033 2.22748 0.897134)
(10.3178 0.148939 0.00393498)
(10.019 0.0535857 0.00131241)
(10.0076 -0.0234209 -0.00462087)
(11.476 0.688247 -0.494919)
(11.3403 0.733761 -0.559702)
(10.1502 0.026346 0.0240582)
(10.1913 0.152357 0.0391078)
(9.45821 2.92564 1.56466)
(-0.700857 2.27869 0.901894)
(13.0394 -0.572548 -3.22897)
(10.006 -0.0139415 0.00832324)
(8.83113 -0.760575 -3.37389)
(10.5332 0.696235 1.21574)
(10.0155 -0.106157 0.0104854)
(11.0492 0.52148 -0.0782513)
(12.2471 0.24368 0.185919)
(11.0246 0.433016 -0.0680154)
(9.99435 -0.0175621 0.00480469)
(9.99842 -0.00457785 0.00725793)
(9.98286 -0.00627302 0.000989197)
(10.4659 0.443034 -0.0246363)
(9.99921 0.00187882 -0.000487321)
(9.97442 -0.0107234 0.00826135)
(10.1481 0.0771371 -0.0106556)
(9.94328 0.00383262 -0.0190077)
(11.2341 0.306368 -0.0908156)
(10.0054 -0.033349 -0.0157518)
(9.96431 0.0132101 -0.00422744)
(9.99571 -0.0193634 0.00252805)
(10.0048 -0.00695532 0.00936713)
(9.96325 -0.00311382 0.00407391)
(10.385 0.357147 -0.0161493)
(10.0888 0.0508486 -0.00631679)
(10.1435 0.0212698 0.0359229)
(11.1379 0.308815 -0.0802906)
(8.19259 3.17841 1.19464)
(9.97232 -0.00572293 -0.00192568)
(12.0671 1.55378 -1.61313)
(9.99704 -0.00873175 -0.00270404)
(11.0666 0.0675918 -0.0420347)
(7.7363 -0.360661 2.35579)
(9.76423 1.48066 -0.674513)
(10.0214 0.0428618 0.00193797)
(9.83254 1.56457 -0.75197)
(10.008 0.0252137 0.00724867)
(10.0312 -0.0158938 -0.00858072)
(10.0968 1.34954 -0.979369)
(9.99422 -0.00659647 0.0214839)
(10.8481 -0.257563 0.00174067)
(9.96221 1.24388 -0.696273)
(10.3797 -0.0918328 0.013784)
(10.6487 0.0944199 -0.289594)
(8.25069 0.373443 -4.20844)
(10.1217 -0.0588546 0.0145335)
(9.5947 1.94437 -0.708068)
(10.0493 -0.0222641 -0.00438466)
(9.01992 2.06937 -1.13101)
(10.1926 -0.183675 0.0418869)
(10.0198 -0.00488636 0.00631191)
(9.95711 0.0269908 0.0185506)
(9.99352 0.00766659 -0.0164581)
(10.6534 1.13253 0.826881)
(9.95827 0.00408427 -0.0237856)
(9.99846 0.00359029 -0.0197069)
(10.0117 -0.0395746 0.00987133)
(9.89107 0.167423 0.0206419)
(11.1308 0.772879 -0.0439668)
(10.0155 0.00433478 0.00390396)
(9.99698 0.000875454 -0.000166445)
(8.62665 0.33868 -0.660324)
(10.0048 -0.00427943 -0.0127171)
(9.77122 0.17611 -0.080333)
(10.1425 -0.239262 0.0616779)
(10.0933 0.0521838 -0.00872955)
(10.0439 -0.00658367 -0.000881918)
(9.9462 0.0101763 0.00904205)
(10.0887 0.0307831 -0.0127304)
(10.3839 1.38848 -1.14186)
(10.0034 0.00984939 0.00689052)
(9.98891 0.00461973 0.00289136)
(3.02284 -0.615725 -5.88981)
(9.96109 -0.0103342 0.0118206)
(9.98633 -0.014245 0.00475583)
(9.97107 0.134654 -0.0120955)
(10.004 0.0111209 0.00702167)
(12.6347 1.478 -1.02567)
(12.7507 1.19377 -0.813331)
(9.96198 -0.00406687 -0.00189075)
(9.85401 -0.147078 -0.0280184)
(9.90169 0.0446379 0.0262362)
(11.8137 0.193077 1.21709)
(10.0502 0.0607029 -0.000662772)
(12.796 1.26407 -0.860337)
(9.99944 0.00574854 -0.00297501)
(-1.96694 -0.319664 1.06855)
(8.15328 -0.532728 -0.764582)
(9.11441 -0.88253 1.74594)
(10.0022 0.00789469 0.0192828)
(12.7207 1.2185 -0.809068)
(10.0637 0.000994558 0.00245044)
(10.2454 0.13548 0.035316)
(9.97217 0.00317281 -0.013698)
(9.10164 0.226044 -0.118125)
(10.0512 -0.00376526 0.00436589)
(10.0115 0.02915 -0.00696954)
(5.82786 -1.47783 -1.00224)
(9.98476 0.00103156 -0.000960804)
(9.9169 0.00581893 0.00299741)
(10.024 0.006424 0.0244446)
(12.4977 1.64278 -0.920426)
(10.0742 0.0344794 0.00170827)
(9.99389 -0.0166988 0.0089749)
(12.3507 1.54589 -0.940105)
(12.3037 1.07887 -0.453619)
(9.96292 -0.0130557 0.0115313)
(10.0631 -0.0106626 -0.00494204)
(-0.122791 1.7761 0.36354)
(10.0384 0.00878979 -0.0074035)
(10.8521 -0.422058 0.080011)
(10.0164 -0.00332364 -0.00813157)
(10.0324 0.00566466 0.0219956)
(10.0515 -0.0274322 -0.0030765)
(11.9312 1.18341 -0.485471)
(11.6649 0.343884 1.39566)
(9.17745 0.740455 0.741121)
(9.623 0.165523 0.0163845)
(10.0921 -0.117357 0.0216639)
(10.0394 0.00527435 0.00249172)
(12.5568 -0.569864 -0.438451)
(9.30852 0.247999 -0.474342)
(9.68329 0.0710904 -0.170587)
(-0.0435383 1.66545 0.247844)
(9.99243 -0.000312367 -0.00385918)
(10.0454 -0.0036629 -0.0140441)
(-0.209726 1.58095 0.342044)
(12.136 1.69696 -1.34167)
(9.90885 0.089569 -0.0176863)
(0.00928663 1.75779 0.269781)
(0.0158541 1.77834 0.348019)
(10.0178 -0.00122306 -0.00365343)
(9.99761 0.0148713 0.00159621)
(10.0191 -0.0081544 -0.00461998)
(9.59656 -0.338043 -0.0180801)
(9.99786 0.00265731 -0.00666238)
(9.95726 -0.0165018 0.0033704)
(9.85447 -0.410488 -0.559776)
(10.0544 0.282865 -0.00314766)
(9.94 0.00318964 0.00574086)
(10.0298 0.0191431 -0.00252664)
(12.5214 1.50734 -0.466187)
(11.8342 1.44442 -0.482963)
(9.96929 0.00957678 -0.00034256)
(10.5244 0.386596 -0.0326329)
(-3.08382 -2.00925 -0.0439261)
(-2.33327 -3.18155 1.67556)
(10.9439 0.440239 -0.125538)
(9.93102 -0.00522541 -0.0067994)
(10.3195 -0.210981 0.240693)
(11.0578 -0.0924364 -0.812498)
(9.86573 -0.0100926 0.000127103)
(9.86295 -0.0161099 0.0111546)
(10.0505 -0.0381515 -0.00270418)
(10.3327 0.150311 0.0143285)
(9.9794 -0.0128086 0.00695795)
(11.0213 0.344618 0.311436)
(10.0005 0.00326279 0.000533012)
(13.1994 0.811842 -0.783215)
(10.3546 1.57129 -1.24183)
(10.8101 0.42706 -0.0795868)
(13.2131 0.993661 -1.1255)
(10.0622 0.0364547 0.004944)
(10.0026 -0.00430201 0.00853848)
(10.3436 0.804542 0.131466)
(10.156 -0.0921859 0.0315002)
(10.0179 -0.00313272 0.00948586)
(10.0039 0.00719762 -0.00290846)
(11.2924 0.325491 -0.622084)
(7.93358 -0.787775 -1.53875)
(10.017 -0.00339449 -0.00690196)
(11.1013 0.128118 -0.0324815)
(9.96746 0.370842 -0.0499972)
(10.9009 -5.21525 -2.68913)
(10.3848 -0.907317 0.84563)
(12.0708 0.059134 0.910455)
(6.61824 0.0660109 0.230467)
(6.38764 0.0464351 0.0737107)
(10.0521 0.0129365 0.00507307)
(10.0882 0.380926 -0.116039)
(4.31092 -0.044325 -0.18978)
(9.95742 0.00963066 -0.00293244)
(10.0229 -1.75675 -3.6301)
(8.12405 -0.271143 1.22723)
(9.9844 0.00170708 -0.00208772)
(10.0061 0.42505 0.233458)
(10.0284 0.0130642 -0.0139112)
(10.0368 0.00453263 0.0150649)
(10.0163 0.00235956 -0.000522844)
(13.4068 0.65069 -0.292318)
(9.97605 0.00966945 -0.00406983)
(9.98476 0.00374524 -0.00161813)
(10.0591 -0.0385533 -0.0159427)
(9.79912 0.00330172 -0.0078762)
(10.0693 -0.0166251 0.0227731)
(9.96581 0.00706361 -0.009645)
(10.0516 0.0232913 0.000879942)
(9.82643 -0.0766207 0.0123655)
(10.9321 1.21901 0.684415)
(9.0318 -1.12639 -2.24257)
(12.1357 3.79597 2.03265)
(10.7676 0.604891 0.0183481)
(9.57521 1.49889 1.25562)
(9.98047 -0.00459826 0.0043269)
(9.25546 -1.00246 0.0540181)
(9.97249 0.0116185 -0.00112887)
(10.0005 0.00219933 -0.0110649)
(10.0028 0.00322353 -0.00881445)
(9.99975 0.000981886 -0.00780485)
(9.98407 0.0173872 -0.0063761)
(9.20164 0.457223 -0.926731)
(11.0512 0.81938 0.202935)
(9.98679 0.0127524 -0.0057478)
(10.2275 -0.587266 0.0570409)
(11.1322 1.67644 2.00292)
(9.97103 -0.00483189 -0.00124088)
(1.41737 0.728562 0.182781)
(13.3155 -1.02314 -3.18701)
(9.95028 -0.0189512 0.00487438)
(9.31762 -0.551399 -0.00216681)
(10.4817 0.0232015 0.0315334)
(10.0381 -0.00770868 -0.00532303)
(2.18032 1.21364 0.299752)
(9.99086 -0.0189944 -0.000254526)
(4.93206 -1.26205 -0.455808)
(9.97051 -0.0068584 0.00317598)
(12.0724 0.0383718 1.10259)
(12.2466 0.426086 -0.105209)
(9.94866 -0.0219274 0.00414791)
(9.89784 -0.00473196 -0.00156864)
(10.1946 0.638253 0.0419752)
(8.65929 -0.628159 -2.36031)
(9.92544 0.0117885 -0.00168827)
(10.0369 -0.0154511 -0.000931244)
(10.4328 -0.01423 -0.0149038)
(12.6921 -0.0575813 0.499237)
(10.0008 0.00359546 0.00177629)
(12.5084 0.343745 0.15884)
(10.5737 -0.0126524 -0.032377)
(-0.195009 0.0920574 -0.954015)
(12.2005 0.345896 0.00819867)
(10.5039 -0.0216127 -0.0234887)
(12.3434 0.342481 0.108506)
(10.0007 -0.00368871 -0.00347043)
(10.133 -0.183989 0.0100934)
(10.5342 0.448299 0.0191637)
(10.5592 -0.0584276 -0.0304292)
(12.5108 0.426328 -0.0216713)
(9.99969 -0.0224672 0.000226448)
(10.0604 -0.239405 -0.0260658)
(12.3623 0.415895 -0.0482056)
(9.95433 -0.0317836 0.00376075)
(10.5934 -0.0533126 -0.0288099)
(9.98282 -0.0218463 -0.00643221)
(10.0533 -0.0179662 0.0168249)
(6.88989 0.415495 -5.21956)
(6.71768 -0.0962944 -5.81708)
(9.66856 0.0821276 0.346467)
(8.8521 0.438733 -4.26994)
(9.99552 -0.0196257 -0.00673782)
(9.94717 -0.0221647 -0.00990566)
(10.8849 0.67642 -0.286623)
(10.5882 -0.17884 0.00551035)
(8.02191 0.0877854 1.37618)
(10.0133 -0.016753 -0.00776109)
(10.0983 0.0738377 -0.00609133)
(9.99845 -0.0104686 -0.00212135)
(10.0292 0.091472 0.025324)
(5.28741 0.258867 -6.46421)
(3.89494 -1.68359 1.69516)
(9.98682 -0.0141466 -0.00199788)
(10.0175 0.0394592 -0.00647872)
(10.0485 -0.102814 0.00242411)
(9.86395 -0.0781233 0.00993115)
(10.292 -0.180676 0.0458304)
(9.96993 -0.0146952 -0.00348389)
(11.3996 0.0384028 -0.0525218)
(11.7328 -1.17552 0.890037)
(10.1915 0.0343473 0.0289963)
(10.0409 0.00608637 0.00113469)
(10.0008 -0.0112808 -0.00202102)
(10.0042 0.080591 0.0155117)
(9.69583 0.196159 0.0258372)
(10.0072 -0.00589366 -0.00754119)
(10.8535 -0.132071 -0.0466675)
(9.95321 0.00337192 0.00433411)
(10.0176 0.0293022 -0.00790952)
(10.1136 0.0933525 0.0230676)
(9.2655 -0.876421 -1.32229)
(5.15964 0.729701 -4.87651)
(10.0613 -0.0960501 0.00629564)
(-0.128082 -1.80788 0.206643)
(9.82598 -2.40815 0.525217)
(13.3127 -1.19457 -1.24213)
(-0.136618 -1.77443 0.177422)
(10.5222 0.0500598 -0.0147388)
(6.20326 -0.336172 2.27398)
(10.619 -0.512661 -2.68054)
(10.8606 -1.70895 0.331632)
(5.66693 0.330566 -3.87539)
(-0.13917 1.66524 0.579245)
(1.49825 0.63519 -3.67199)
(11.8623 -0.0909334 0.683156)
(10.8691 -0.0120684 -0.0579727)
(11.779 0.128157 1.03519)
(9.92307 0.00485113 -0.00150567)
(3.71326 -0.33368 -0.399865)
(10.8567 0.0841784 -0.36045)
(10.7688 -0.0159195 -0.0295518)
(9.96689 -0.0646266 0.0595404)
(10.0063 0.0108256 -0.0167582)
(11.8676 0.195527 1.20423)
(9.95854 0.154577 0.0246787)
(10.2259 -0.0449761 0.0203804)
(9.97349 0.0212785 0.00185276)
(-0.369719 1.03216 0.0896439)
(8.09866 0.334032 -2.57311)
(10.0153 -0.00805422 0.00818173)
(9.98461 -0.00472722 0.00443154)
(5.02671 0.31573 -2.503)
(5.91697 0.170196 -3.16682)
(10.5335 -1.68557 -0.960685)
(-1.62181 -2.44674 -1.24919)
(5.67404 0.17736 1.7848)
(4.0492 0.031149 -3.98142)
(3.77021 -0.0242143 -4.83414)
(10.0056 -0.00412203 0.00986687)
(9.80984 0.003103 0.00127223)
(9.47131 -0.0272122 0.0165135)
(10.0218 -0.00799572 -0.00538373)
(10.4159 0.0436176 -0.0114524)
(-0.22286 1.74289 0.340231)
(11.0047 -0.0128679 -0.2749)
(10.47 0.0346865 -0.0115304)
(10.3355 0.032603 -0.00461966)
(10.0515 -0.00146376 0.00705197)
(-0.207227 1.59035 0.744469)
(-0.405974 1.61989 0.712943)
(10.0618 0.0131807 -0.0115069)
(10.4116 -0.00155823 -0.0214353)
(9.9326 0.0315463 -0.00426186)
(10.0513 -0.0199069 -0.00589111)
(10.3596 0.0127885 -0.00619261)
(10.0475 -0.0207575 -0.0109569)
(9.67593 -0.0123354 -0.0748072)
(10.0025 0.00385969 -0.013607)
(9.98127 -0.02253 -0.00290781)
(6.99029 -0.772371 -3.23064)
(10.0477 0.00046842 0.00531489)
(10.0547 -0.00416094 -0.00137889)
(10.0124 0.00209449 -0.00723459)
(9.84065 0.00515201 -0.00496596)
(9.86093 0.00574513 0.00508139)
(4.26151 -0.620764 -2.53888)
(12.6917 -1.23941 -0.86969)
(10.0452 -0.00368537 0.00312061)
(10.8859 0.463504 -0.217588)
(10.012 0.0274249 -0.00829385)
(9.67279 -0.326422 0.0950893)
(9.62694 -0.411634 0.146507)
(12.4188 -0.0411402 -0.0840226)
(9.83678 0.00302777 -0.00489515)
(-0.384954 -1.07408 0.85212)
(12.5119 -0.197331 -0.169842)
(10.5061 0.15867 -0.0188006)
(10.857 0.431881 -0.0649335)
(8.09637 0.367718 -3.51469)
(10.3266 3.14304 1.64145)
(9.99365 0.00636043 0.00521911)
(9.98896 0.00719916 -0.000902512)
(11.419 1.72773 2.1325)
(10.0063 -0.0960196 -0.00920478)
(9.99917 0.0338859 0.00538943)
(10.7648 0.801694 0.33464)
(9.97161 0.00312858 -0.000762048)
(9.98345 -0.00258226 0.00184575)
(-2.64238 0.779749 1.27332)
(12.5349 0.881982 -0.305054)
(10.2054 3.61134 -0.523556)
(10.002 0.000802624 0.00507519)
(7.71911 0.631775 -2.72759)
(10.0106 0.00299947 0.0117458)
(12.1183 0.270439 -0.276558)
(9.4784 -0.389568 0.231811)
(12.5006 -0.0823786 -0.0947074)
(9.93443 0.00210333 -0.00138006)
(9.28626 -0.418526 0.187568)
(-1.03867 -0.600517 0.683572)
(11.3908 1.85105 2.61898)
(12.6367 -0.463883 -0.94588)
(-0.992524 0.994531 0.555203)
(12.487 0.320186 0.154037)
(10.7042 0.176892 0.00453709)
(9.95946 0.00694709 0.0059194)
(12.2554 -0.408436 -0.276106)
(10.0037 0.00183919 0.00506498)
(12.6777 -0.0948623 -0.0770867)
(-0.0444239 -1.4077 0.554036)
(10.0027 0.00318687 0.00472576)
(12.8705 0.13772 -1.4261)
(9.90131 -0.00619637 -0.00453616)
(9.89784 -0.0193052 -0.00131284)
(11.068 -1.21332 -0.697152)
(9.94586 -0.0179305 -0.0124262)
(10.3622 0.132189 -0.0164429)
(7.99402 -5.75256 -0.0607532)
(9.50769 0.457017 0.0217944)
(10.0207 -0.241194 -0.0241936)
(12.8812 -0.571967 -0.131089)
(10.7329 1.64472 0.922984)
(10.0549 -0.032703 0.00653504)
(11.7136 -2.69694 -1.1464)
(5.25764 -0.905062 -0.237499)
(10.7817 0.0433459 -0.0112735)
(9.62016 -0.729363 -0.918747)
(10.0784 0.153342 0.0404064)
(10.6861 0.256646 0.00358583)
(10.0019 -0.0194588 -0.0160971)
(10.0517 -0.0268059 0.007751)
(-1.27071 1.1875 0.320709)
(0.720167 -4.34746 1.91915)
(12.007 -0.898944 0.296379)
(10.0407 -1.20111 -0.8598)
(12.4115 -0.583281 -0.485776)
(0.908656 4.8575 0.650937)
(-1.482 -0.0757798 -1.0693)
(9.0854 -3.60163 4.18532)
(10.06 -0.0205714 0.0168531)
(10.0023 0.0124057 -0.0100135)
(9.98856 0.0137516 -0.00433214)
(9.86373 -0.0252651 0.00100414)
(0.503237 1.29478 0.920882)
(9.59635 -0.537057 0.160657)
(8.93307 -0.651924 0.997409)
(9.98687 0.0210921 -0.00990507)
(-0.183694 -1.45979 0.0543111)
(12.5914 -0.0673032 -0.159583)
(10.8761 -0.074737 -0.264951)
(10.2106 0.0405163 0.00712941)
(10.0339 -0.0162624 -0.0131579)
(10.2195 0.0419608 0.015019)
(6.21567 -1.87334 -3.33028)
(10.0048 -0.00294619 -0.00690385)
(3.03708 3.67207 -1.25326)
(10.0211 0.00641336 0.000832396)
(10.3505 -0.648818 -3.16051)
(9.9882 -0.00373638 -0.0029227)
(9.99895 -0.00622251 -0.00614255)
(10.0093 -0.0102269 -0.00726331)
(10.014 -0.00960602 -0.0106051)
(9.98811 -0.0115372 0.00329425)
(12.55 1.64764 0.637974)
(11.5069 0.36253 0.703424)
(8.88314 1.48324 2.31614)
(6.89344 4.01922 2.29317)
(9.31122 1.22738 0.39609)
(10.432 0.58334 -0.0948351)
(11.1411 1.33138 -0.00980998)
(6.64453 -0.456871 -2.99604)
(10.7656 -0.147997 0.0114009)
(12.2147 -0.469784 0.096471)
(10.8352 -0.7271 -0.055047)
(12.3904 0.080436 -0.0650545)
(8.36396 -0.248739 4.3723)
(6.15041 -1.255 2.43588)
(10.7831 -0.395701 0.175403)
(9.99929 -0.00925504 0.0048607)
(9.56377 0.97403 -0.367964)
(10.0044 -0.00584261 0.00999331)
(10.31 -0.0239031 -0.00590426)
(12.5739 -2.41935 3.13798)
(12.5679 -0.373759 0.682804)
(-0.795191 3.57743 -0.421201)
(10.1062 -0.973392 0.181223)
(11.9476 -1.01193 -0.646808)
(10.5491 -1.06335 -1.21596)
(10.0507 -0.422748 0.96068)
(10.352 -0.0520709 0.00196291)
(-3.57368 -2.46324 0.857022)
(10.1527 -0.0141065 0.00865372)
(10.2334 -0.0193303 0.00260287)
(11.1777 -0.200984 1.43192)
(9.76882 -0.134299 4.61087)
(10.3881 -0.0565701 0.00715583)
(10.3088 0.574305 -0.448867)
(9.96917 0.00244648 -0.00221627)
(10.4905 -1.45917 0.554632)
(11.4555 -0.111083 1.51712)
(9.95194 -0.0255255 0.00381047)
(11.1727 -0.443818 -3.15066)
(9.51429 2.10888 -1.82756)
(11.7817 0.463345 1.30398)
(11.0967 0.268543 -0.199194)
(9.48038 0.11083 0.255517)
(3.10684 0.953039 -3.86255)
(0.227514 3.39291 2.78495)
(5.21874 3.18666 0.612843)
(13.3357 -0.861242 -3.02757)
(3.99939 -0.854615 -0.446409)
(9.74677 -0.00722708 0.00702116)
(9.88903 -0.03749 -0.00566968)
(8.22975 1.72592 2.61975)
(9.94119 -0.00139594 0.000382083)
(4.53135 -0.837142 -0.318557)
(9.80726 -0.0103511 0.00110816)
(9.7744 -0.0100865 0.00104749)
(-0.0957306 -2.05268 1.06585)
(9.47689 -1.33315 0.805852)
(10.8909 -0.667923 0.0856702)
(9.97152 0.000663143 0.00383222)
(10.0013 0.0187489 0.000135379)
(8.34231 0.4152 -2.89489)