/*--------------------------------*- C++ -*----------------------------------*\
| =========                 |                                                 |
| \\      /  F ield         | OpenFOAM: The Open Source CFD Toolbox           |
|  \\    /   O peration     | Version:  2506                                  |
|   \\  /    A nd           | Website:  www.openfoam.com                      |
|    \\/     M anipulation  |                                                 |
\*---------------------------------------------------------------------------*/
FoamFile
{
    version     2.0;
    format      ascii;
    arch        "LSB;label=32;scalar=64";
    class       volScalarField;
    location    "0.01535";
    object      k;
}
// * * * * * * * * * * * * * * * * * * * * * * * * * * * * * * * * * * * * * //

dimensions      [0 2 -2 0 0 0 0];

internalField   nonuniform List<scalar> 
3946
(
0.3665
0.384643
0.371135
0.361515
0.386555
0.366801
0.391854
0.370583
0.392859
0.370466
0.368429
0.362269
0.413213
0.392008
0.380217
0.365256
0.371625
0.369261
0.360492
0.363206
0.373154
0.361296
0.372402
0.380282
0.3789
0.373376
0.393171
0.391439
0.366567
0.370914
0.365774
0.374043
0.368879
0.363339
0.38793
0.365296
0.38845
0.391028
0.382391
0.386638
0.36773
0.366586
0.389873
0.372785
0.380098
0.383581
0.367941
0.384948
0.387185
0.374065
0.364893
0.385683
0.373913
0.364929
0.366997
0.368003
0.370322
0.373436
0.38925
0.368833
0.371315
0.304069
0.368633
0.370874
0.368159
0.310535
0.392246
0.197635
0.227167
0.376628
0.372399
0.388847
0.402773
0.363444
0.371253
0.363739
0.370406
0.373096
0.373342
0.372917
0.307798
0.372411
0.369098
0.388459
0.376763
0.391352
0.436917
0.27079
0.31603
0.270784
0.669007
0.533977
0.371609
0.381017
0.405855
0.394107
0.393241
0.369768
0.362396
0.361923
0.375843
0.378525
0.380106
0.52272
0.391182
0.388098
0.433207
0.375869
0.375717
0.392471
0.400555
0.378979
0.370759
0.412403
0.396739
0.365423
0.392514
0.367757
0.283943
0.317471
0.383263
0.369763
0.364326
0.372746
0.365062
0.371536
0.619105
0.389205
0.388237
0.371987
0.386978
0.606706
0.372812
0.368714
0.379863
0.424402
0.381754
0.596114
0.365843
0.549462
0.528835
0.66822
0.2867
0.364857
0.391858
0.373508
0.374862
0.375196
0.398973
0.382132
0.409775
0.411372
0.382256
0.377128
0.38059
0.371506
0.37468
0.363806
0.368864
0.377513
0.365799
0.375648
0.429492
0.379576
0.363854
0.368735
0.360697
0.383656
0.374309
0.571647
0.397373
0.634048
0.364424
0.386608
0.373558
0.373062
0.372055
0.381729
0.380826
0.393988
0.375638
0.36904
0.379551
0.368677
0.383395
0.388784
0.381634
0.383983
0.377975
0.382655
0.386417
0.369781
0.330758
0.380661
0.403832
0.377293
0.319823
0.369387
0.370407
0.368571
0.369866
0.374609
0.368565
0.36341
0.361471
0.38895
0.381251
0.369799
0.388002
0.386668
0.378489
0.398154
0.371026
0.378231
0.376557
0.370557
0.3754
0.36681
0.37387
0.371871
0.285412
0.346251
0.380736
0.382298
0.372813
0.250523
0.241103
0.378258
0.368648
0.254081
0.376648
0.372878
0.374407
0.399007
0.364693
0.398089
0.369489
0.374916
0.4039
0.370682
0.367089
0.280155
0.286267
0.442822
0.377323
0.368281
0.392219
0.371306
0.369436
0.385917
0.369747
0.510378
0.37936
0.41026
0.390344
0.365863
0.379526
0.374416
0.394133
0.385221
0.410339
0.274968
0.306038
0.378051
0.40556
0.365299
0.369811
0.38127
0.39628
0.363905
0.382723
0.38835
0.375232
0.370227
0.371656
0.373738
0.375534
0.382936
0.392009
0.390743
0.395514
0.388777
0.38387
0.38254
0.36744
0.394571
0.376943
0.36819
0.395879
0.378685
0.387869
0.378605
0.377092
0.373054
0.373092
0.413491
0.375192
0.38384
0.369048
0.28289
0.367666
0.328176
0.244595
0.353387
0.377882
0.366216
0.655849
0.489874
0.377284
0.280022
0.300559
0.34038
0.323941
0.265584
0.366528
0.66193
0.387227
0.399159
0.377862
0.655363
0.381976
0.496051
0.370761
0.392341
0.372093
0.387698
0.366553
0.373032
0.39014
0.392864
0.383748
0.369533
0.378263
0.64704
0.706447
0.364953
0.372643
0.317524
0.244529
0.296496
0.379348
0.557685
0.430438
0.368693
0.628439
0.397376
0.37915
0.370141
0.514376
0.384929
0.337048
0.381044
1.46785
0.373292
0.479613
0.246182
0.526551
0.372682
0.640577
0.255792
0.543857
0.641039
0.379033
0.375475
0.715034
0.447126
0.396761
0.459589
0.434282
0.479005
0.344105
0.412997
0.383261
0.372806
0.367186
0.367428
0.390847
0.374385
0.383972
0.516667
0.373022
0.372728
0.373068
0.372555
0.383866
0.366216
0.42043
0.380085
0.374988
0.366512
0.74784
0.36926
0.36198
0.348536
0.383504
0.290488
0.374771
0.393914
0.38933
0.364208
0.374672
0.373053
0.375415
0.38006
0.378505
0.373351
0.421042
0.376831
0.370627
0.376999
0.412804
0.376434
0.373116
0.374475
0.375526
0.375858
0.369733
0.385797
0.47796
0.370821
0.37026
0.489222
0.372198
0.575989
0.375088
0.377665
0.369081
0.374702
0.367319
0.376155
0.372976
0.372693
0.371811
0.371151
0.384803
0.384048
0.375629
0.363553
0.378101
0.372033
0.372659
0.374275
0.373632
0.372451
0.375478
0.686057
0.622241
0.377262
0.3751
0.373045
0.377815
0.370525
0.368585
0.374227
0.387096
0.369442
0.375437
0.379485
0.372722
0.370532
0.383368
0.365505
0.402099
0.501978
0.666099
0.690194
0.365856
0.403958
0.705559
0.389985
0.396037
0.417696
0.383905
0.374599
0.369101
0.375466
0.379343
0.364538
0.374657
0.388603
0.416402
0.76408
0.715891
0.37643
0.386684
0.365655
0.387144
0.365766
0.371403
0.370541
0.367716
0.376885
0.371323
0.367484
0.372348
0.377837
0.362905
0.377431
0.382625
0.391114
0.373336
0.372917
0.388722
0.379979
0.381199
0.37275
0.373802
0.576241
0.366006
0.370154
0.488144
0.561354
0.36234
0.394205
0.381892
0.576687
0.38622
0.378706
0.372269
0.377129
0.37274
0.375856
0.38523
0.372861
0.366267
0.367406
0.376433
0.375358
0.406247
0.611835
0.407624
0.489299
0.362406
0.61286
0.307146
0.620194
0.371292
0.372944
0.400307
0.366407
0.375655
0.374197
0.386929
0.370934
0.364431
0.374925
0.387791
0.363711
0.383487
0.366937
0.363156
0.36897
0.372464
0.372117
0.367269
0.36258
0.370581
0.375717
0.367768
0.374416
0.374244
0.386418
0.370475
0.368572
0.36807
0.365671
0.391856
0.373305
0.367689
0.667594
0.376792
0.367564
0.37328
0.366639
0.376537
0.362103
0.376746
0.372178
0.36149
0.36955
0.372227
0.370685
0.370244
0.375251
0.394048
0.362999
0.371592
0.366212
0.368849
0.367266
0.381897
0.365693
0.374814
0.368875
0.368016
0.369064
0.36988
0.392797
0.365067
0.39917
0.366844
0.383057
0.368869
0.437705
0.37251
0.382441
0.372772
0.367663
0.382207
0.369018
0.376783
0.37782
0.390032
0.375335
0.376606
0.388785
0.364554
0.36665
0.380798
0.373654
0.411068
0.703393
0.683885
0.613059
0.375485
0.368114
0.377331
0.368644
0.389226
0.368671
0.379851
0.388229
0.400761
0.42511
0.44197
0.471801
0.365326
0.409089
0.36863
0.413471
0.383173
0.402349
0.363215
0.371877
0.367147
0.369726
0.369798
0.385128
0.370878
0.381735
0.370938
0.384909
0.377716
0.376939
0.39357
0.382901
0.389963
0.375248
0.385237
0.365418
0.375079
0.377287
0.384078
0.377854
0.386424
0.391332
0.377493
0.387388
0.366301
0.37415
0.374256
0.375006
0.372298
0.840168
0.99066
0.509379
0.36457
0.377708
0.39276
0.380893
0.437681
0.551516
0.372522
0.603934
0.39001
0.387385
0.372441
0.379606
0.375089
0.367431
0.360677
0.37403
0.370837
0.38558
0.366113
0.36878
0.487876
0.528218
0.377687
0.543758
0.668706
0.397278
0.372363
0.377667
0.365581
0.377622
0.38996
0.376164
0.387584
0.37589
0.387572
0.375314
0.396796
0.379601
0.389745
0.394853
0.368739
0.365238
0.38398
0.394001
0.390487
0.365725
0.371445
0.365067
0.372373
0.367775
0.407757
0.387093
0.393418
0.373178
0.361712
0.375759
0.372556
0.367084
0.394031
0.392937
0.370487
0.378493
0.37308
0.362626
0.385842
0.365357
0.366729
0.377539
0.374737
0.36299
0.399488
0.371956
0.373934
0.377691
0.408357
0.645551
0.37108
0.548704
0.456284
0.571088
0.490228
0.368396
0.678671
0.491722
0.439767
0.51735
0.377524
0.367519
0.374958
0.371816
0.334212
0.377313
0.387591
0.396708
0.386881
0.375299
0.377781
0.381281
0.411042
0.677787
0.366627
0.472594
0.453686
0.382539
0.365209
0.373434
0.39318
0.377728
0.36839
0.366661
0.365939
0.39252
0.391575
0.362002
0.712884
0.372017
0.374723
0.382512
0.363349
0.372011
0.369283
0.384193
0.374844
0.377536
0.375096
0.368754
0.376367
0.385379
0.372411
0.377754
0.370099
0.374448
0.375717
0.377761
0.376442
0.364923
0.386123
0.385893
0.375094
0.36548
0.396251
0.464295
0.540543
0.377951
0.45195
0.379334
0.368107
0.37248
0.371163
0.378612
0.386197
0.384848
0.375744
0.381288
0.403943
0.370129
0.367023
0.385797
0.378464
0.371542
0.479121
0.379121
0.375928
0.389212
0.667915
0.37293
0.365732
0.424365
0.374973
0.693554
0.690243
0.603331
0.515919
0.372017
0.569267
0.515184
0.43107
0.378968
0.38459
0.332324
0.377204
0.406248
0.373423
0.374769
0.380631
0.384116
0.37632
0.377023
0.38691
0.382893
0.382612
0.371507
0.375275
0.367846
0.375641
0.367716
0.384791
0.377106
0.389307
0.373635
0.373421
0.376394
0.369103
0.370655
0.368416
0.360293
0.382107
0.366298
0.364419
0.372979
0.371979
0.373041
0.376868
0.372783
0.37268
0.379824
0.36759
0.372048
0.366385
0.371329
0.37747
0.365922
0.374669
0.379614
0.368884
0.376523
0.368971
0.368302
0.37029
0.383852
0.37428
0.497593
0.789572
0.381814
0.531629
0.321888
0.380734
0.398269
0.369559
0.38069
0.372723
0.399051
0.369057
0.441949
0.518594
0.590582
0.416174
0.392063
0.366566
0.366799
0.560909
0.364839
0.363593
0.374026
0.593189
0.326679
0.473546
0.759934
0.714722
0.36935
0.37166
0.578151
0.636351
0.374505
0.529993
0.371931
0.410088
0.502278
0.490565
0.303582
0.374756
0.546021
0.387545
0.645855
1.10032
0.371976
0.710131
0.33969
0.43248
0.372888
0.511012
0.378488
0.378708
0.372685
0.374944
0.535672
0.471489
0.367931
0.373822
0.371464
0.370065
0.371473
0.377533
0.40991
0.391742
0.374683
0.369282
0.374383
0.5606
0.57734
0.562845
0.575945
0.495142
0.435547
0.363835
0.384883
0.369603
0.39447
0.392796
0.369075
0.38152
0.376994
0.542477
0.373582
0.3746
0.38339
0.386537
0.37226
0.385158
0.391625
0.368998
0.374895
0.375296
0.364519
0.375796
0.376063
0.380666
0.375073
0.369069
0.368587
0.376024
0.379012
0.476132
0.42173
0.373783
0.376623
0.386584
0.385128
0.374316
0.377306
0.366854
0.373889
0.373241
0.366586
0.399925
0.378547
0.39203
0.385191
0.378137
0.421624
0.391952
0.387433
0.373018
0.400969
0.383572
0.367259
0.367154
0.367529
0.36426
0.378264
0.372434
0.372339
0.373948
0.364223
0.368418
0.378006
0.37593
0.375729
0.373804
0.373924
0.642045
0.612068
0.373131
0.404934
0.378625
0.422261
0.389579
0.376827
0.58614
0.457977
0.703118
0.373736
0.374906
0.367337
0.387296
0.372695
0.374279
0.547597
0.578766
0.371187
0.363481
0.374231
0.369976
0.36459
0.367437
0.366202
0.367275
0.371371
0.375485
0.374099
0.379399
0.367211
0.374083
0.371164
0.365801
0.431228
0.366646
0.361336
0.400582
0.366191
0.368258
0.376817
0.378919
0.381005
0.373871
0.377631
0.365782
0.366249
0.372837
0.373174
0.377875
0.364706
0.372358
0.399206
0.592024
0.493604
0.366403
0.421922
0.383852
0.373854
0.369595
0.367514
0.366276
0.369133
0.368971
0.372589
0.366399
0.36942
0.362951
0.375327
0.401215
0.633255
1.589
0.674884
0.762644
0.370748
0.369854
0.372855
0.364703
0.378363
0.371231
0.367462
0.367145
0.369187
0.371522
0.378923
0.372943
0.372952
0.364611
0.366634
0.369535
0.368178
0.36541
0.36222
0.362787
0.460327
0.381149
0.396058
0.388445
0.384455
0.390209
0.373
0.38789
0.377363
0.386394
0.368219
0.365689
0.371304
0.371545
0.371479
0.368066
0.374235
0.369338
0.37087
0.379169
0.388068
0.363402
0.363682
0.385174
0.382864
0.382639
0.372864
0.384969
0.363193
0.375149
0.369657
0.363837
0.363222
0.364082
0.363869
0.367734
0.366355
0.360712
0.372091
0.376997
0.369899
0.365024
0.366248
0.368743
0.370789
0.36754
0.367076
0.366581
0.363769
0.372912
0.37393
0.367013
0.372022
0.37474
0.365359
0.380148
0.367767
0.39135
0.369298
0.3624
0.367372
0.372747
0.376055
0.378686
0.370396
0.372445
0.367139
0.372407
0.372369
0.368402
0.388181
0.375601
0.392765
0.376584
0.364222
0.365016
0.370166
0.378434
0.370215
0.392966
0.365773
0.381984
0.375293
0.370378
0.369173
0.377169
0.365848
0.373777
0.377381
0.379993
0.371183
0.374556
0.3784
0.523816
0.373317
0.369996
0.377672
0.366254
0.368674
0.38424
0.382436
0.371069
0.366908
0.36846
0.367584
0.366336
0.373459
0.374222
0.379894
0.385329
0.373343
0.378626
0.390958
0.378231
0.36244
0.383165
0.370417
0.374827
0.365079
0.364645
0.365937
0.366817
0.535588
0.373203
0.366244
0.366408
0.383878
0.378224
0.380525
0.369987
0.370803
0.372117
0.370969
0.393466
0.377469
0.374322
0.364362
0.36412
0.375498
0.370344
0.389813
0.377012
0.381803
0.399004
0.377985
0.385528
0.369948
0.371256
0.365629
0.368066
0.371632
0.36568
0.375123
0.367478
0.375301
0.371601
0.372847
0.364538
0.368294
0.382776
0.368776
0.36759
0.36856
0.368491
0.370552
0.370586
0.365951
0.373759
0.381973
0.365478
0.378829
0.402182
0.374857
0.391939
0.365965
0.367525
0.383253
0.370056
0.377169
0.480644
0.393661
0.372192
0.371406
0.373593
0.384374
0.36421
0.371412
0.371796
0.371207
0.368911
0.367263
0.388672
0.390851
0.568584
0.369746
0.37045
0.376968
0.37964
0.360689
0.360802
0.363212
0.371704
0.37318
0.382074
0.369878
0.385082
0.517423
0.36455
0.375971
0.376714
0.373483
0.383221
0.373237
0.377122
0.393256
0.378599
0.368293
0.358808
0.37527
0.3697
0.381455
0.367622
0.397174
0.391199
0.23066
0.370815
0.29675
0.374001
0.368826
0.368029
0.369942
0.375045
0.366995
0.368951
0.393723
0.363912
0.364855
0.450903
0.363002
0.38959
0.374685
0.366655
0.347866
0.388595
0.374205
0.383851
0.378359
0.362078
0.372786
0.367274
0.366952
0.374678
0.38886
0.365354
0.371175
0.373465
0.37705
0.370702
0.39341
0.364877
0.383593
0.364104
0.382948
0.382691
0.384289
0.376698
0.370984
0.376507
0.366727
0.372312
0.369721
0.374864
0.3742
0.361886
0.372905
0.381786
0.362701
0.381257
0.378013
0.399977
0.495437
0.374075
0.365557
0.374116
0.378018
0.369174
0.364337
0.376196
0.366139
0.355192
0.37115
0.371591
0.350159
0.321808
0.373892
0.627703
0.674247
0.613406
0.720638
0.345895
0.362138
0.384686
0.641187
0.392053
0.370482
0.292242
0.67461
0.490476
0.286263
0.393148
0.397055
1.56274
0.413969
0.642151
0.406295
0.381203
0.361554
0.430773
0.347425
0.598531
0.364758
0.367189
0.379392
0.653556
0.364889
0.554109
0.376518
0.364792
0.382025
0.368483
0.372089
0.372193
0.367508
0.371106
0.3624
0.370819
0.370525
0.372376
0.369609
0.359454
0.372655
0.372902
0.362559
0.380647
0.374808
0.383336
0.367816
0.366369
0.370449
0.378972
0.368352
0.380329
0.372749
0.375217
0.377823
0.39749
0.381291
0.372773
0.37116
0.370937
0.399595
0.492815
0.372016
0.442101
0.366664
0.368459
0.379198
0.375078
0.37587
0.369657
0.383496
0.363757
0.384141
0.373841
0.372879
0.377574
0.366373
0.370342
0.396036
0.361324
0.364238
0.36886
0.373512
0.372994
0.369851
0.394816
0.37333
0.398167
0.366731
0.364647
0.37523
0.36576
0.376599
0.371527
0.378407
0.36663
0.376133
0.375064
0.367529
0.552557
0.363377
0.394971
0.380251
0.36119
0.392752
0.383467
0.371148
0.401284
0.45131
0.375343
0.387813
0.368711
0.379804
0.382523
0.371817
0.369834
0.373536
0.367247
0.367957
0.371957
0.36932
0.3899
0.499115
0.371416
0.371685
0.376597
0.376285
0.694384
0.407461
0.39344
0.39103
0.469479
0.386987
0.365377
0.378264
0.401112
0.376381
0.379551
0.384462
0.366078
0.367642
0.360104
0.370837
0.362947
0.369297
0.366774
0.385777
0.365886
0.373248
0.378612
0.369651
0.367686
0.365195
0.392695
0.368342
0.382893
0.361657
0.384358
0.382783
0.37994
0.374424
0.375255
0.362558
0.392078
0.373003
0.378144
0.36665
0.381859
0.370517
0.369203
0.398353
0.373332
0.369203
0.366689
0.376772
0.366595
0.375962
0.377243
0.399714
0.373686
0.385396
0.382292
0.368997
0.38514
0.396432
0.380771
0.372027
0.381446
0.379906
0.388422
0.395657
0.397254
0.565015
0.37164
0.370024
0.389367
0.364656
0.38434
0.395924
0.378898
0.372981
0.387554
0.377754
0.371533
0.385798
0.38512
0.377692
0.387762
0.389315
0.363008
0.36792
0.377797
0.392532
0.386784
0.366064
0.36947
0.388725
0.37566
0.384531
0.406539
0.383626
0.364625
0.372489
0.381514
0.374101
0.371269
0.379019
0.382898
0.392741
0.419535
0.36661
0.582744
0.369687
0.366981
0.410261
0.379315
0.378132
0.376555
0.390594
0.373175
0.387738
0.523661
0.402093
0.676977
0.624062
0.375883
0.371942
0.387639
0.380219
0.446967
0.340056
0.602705
0.427576
0.619738
0.399994
0.454681
0.429517
0.386708
0.490937
0.499929
0.478322
0.376005
0.366998
0.385967
0.377255
0.366273
0.381514
0.385648
0.6496
0.368293
0.37916
0.385206
0.386983
0.51947
0.567533
0.502496
0.287975
0.622928
0.361163
0.362826
0.383612
0.378491
0.37219
0.37525
0.384191
0.373354
0.374005
0.451058
0.372416
0.38454
0.376201
0.376378
0.362321
0.382051
0.369263
0.371275
0.371425
0.371206
0.367332
0.366472
0.375443
0.380239
0.457688
0.383952
0.363576
0.368567
0.365112
0.389077
0.377108
0.396874
0.394254
0.398269
0.564732
0.501703
0.376596
0.384233
0.381167
0.401947
0.37666
0.372462
0.38342
0.374701
0.384576
0.380068
0.376884
0.389343
0.369565
0.365468
0.416997
0.380617
0.376274
0.379705
0.372066
0.371656
0.375828
0.37322
0.386386
0.38277
0.371532
0.365616
0.376446
0.376333
0.373982
0.378689
0.375863
0.36755
0.388643
0.380944
0.381545
0.386801
0.374608
0.372636
0.375746
0.37118
0.38817
0.365003
0.423474
0.438377
0.45001
0.365227
0.365854
0.367259
0.369289
0.388656
0.387991
0.369676
0.369396
0.369784
0.390381
0.368977
0.375838
0.39101
0.367048
0.364682
0.371152
0.38395
0.37782
0.379917
0.373092
0.371403
0.365293
0.380653
0.371143
0.367298
0.378165
0.378953
0.365451
0.363884
0.364095
0.36415
0.37208
0.372105
0.382432
0.385006
0.36188
0.365479
0.372489
0.393994
0.363751
0.359559
0.363999
0.360733
0.369654
0.375528
0.36784
0.374481
0.37719
0.366874
0.367664
0.377303
0.372156
0.373278
0.367867
0.370025
0.310887
0.399877
0.398069
0.369408
0.370901
0.362791
0.374811
0.369119
0.368805
0.39205
0.390206
0.370729
0.770673
0.379228
0.360737
0.377257
0.390196
0.382297
0.366046
0.364352
0.367469
0.374352
0.566215
0.391918
0.395476
0.375859
0.377286
0.368781
0.359962
0.375873
0.364107
0.370109
0.371748
0.371221
0.365142
0.379817
0.363519
0.365941
0.364444
0.394294
0.366237
0.370011
0.378016
0.374866
0.449385
0.390552
0.376536
0.381425
0.378548
0.370373
0.383996
0.695798
0.633622
0.471781
0.437377
0.587202
0.423
0.500293
0.56634
0.4775
0.305467
0.375219
0.375754
0.363931
0.30532
0.281897
0.374389
0.380605
0.38517
0.468621
0.370427
0.370817
0.384641
0.387595
0.37887
0.369956
0.376654
0.36054
0.366342
0.365574
0.372304
0.377699
0.373216
0.3739
0.36938
0.367468
0.363012
0.382551
0.36885
0.370051
0.362637
0.365145
0.370027
0.369029
0.368166
0.369916
0.372256
0.400233
0.374916
0.367924
0.368755
0.385754
0.370189
0.376407
0.367977
0.374664
0.371904
0.370925
0.364208
0.39038
0.34395
0.363725
0.364869
0.380943
0.369833
0.378742
0.365963
0.367392
0.388662
0.378712
0.369312
0.382981
0.369474
0.379516
0.372737
0.391911
0.385663
0.365149
0.385527
0.370918
0.388798
0.38115
0.365698
0.37405
0.38822
0.382306
0.371434
0.381301
0.37754
0.371281
0.372269
0.37984
0.374493
0.375967
0.383037
0.386787
0.370773
0.38408
0.363754
0.386512
0.3849
0.374742
0.38088
0.366641
0.381468
0.367616
0.369339
0.395307
0.47693
0.37498
0.377785
0.361915
0.368864
0.36238
0.375952
0.372891
0.40412
0.371783
0.37538
0.375643
0.366113
0.378256
0.376984
0.377192
0.367438
0.364697
0.371605
0.380872
0.38986
0.390146
0.372688
0.380208
0.366235
0.369125
0.377774
0.39598
0.387144
0.364234
0.368866
0.374163
0.380239
0.366026
0.39099
0.364707
0.37403
0.388432
0.368668
0.369083
0.361081
0.370834
0.374705
0.373433
0.373543
0.370903
0.363328
0.386318
0.375744
0.388731
0.383819
0.395101
0.390651
0.386695
0.362701
0.399753
0.438868
0.372045
0.374263
0.365797
0.365869
0.36634
0.36696
0.370508
0.381117
0.36118
0.373034
0.375359
0.389664
0.371687
0.366613
0.382468
0.39928
0.385054
0.377292
0.37796
0.377068
0.365565
0.465657
0.382505
0.37804
0.411977
0.373811
0.390246
0.363718
0.372152
0.382012
0.367578
0.370884
0.376369
0.363723
0.370901
0.359627
0.370359
0.369409
0.37302
0.365983
0.395176
0.390874
0.371487
0.261942
0.272412
0.752162
0.728925
0.263719
0.484755
0.612937
0.458516
0.293763
0.381182
0.335265
0.347426
0.416567
0.835727
0.275594
0.435463
0.349603
0.501874
0.443114
0.374081
0.506692
0.589798
0.595161
0.283556
0.451618
0.279501
0.687763
0.375644
0.37535
0.369525
0.369844
0.366416
0.358813
0.39011
0.365472
0.374335
0.36561
0.364817
0.362949
0.371556
0.391139
0.376302
0.3694
0.373064
0.372162
0.392756
0.466514
0.367676
0.371514
0.372764
0.367243
0.374416
0.370115
0.391655
0.361709
0.373856
0.385049
0.389601
0.380962
0.374301
0.371856
0.375695
0.400308
0.372414
0.377901
0.379112
0.366108
0.370279
0.373704
0.369011
0.430383
0.376024
0.383436
0.366396
0.378672
0.376425
0.366105
0.378293
0.366667
0.433601
0.379221
0.369407
0.372689
0.388055
0.385869
0.378424
0.387129
0.372431
0.381381
0.408059
0.375285
0.383225
0.38691
0.37484
0.386045
0.517864
0.372923
0.476066
0.36605
0.515788
0.596224
0.560131
0.45129
0.520888
0.606142
0.632255
0.644665
0.433431
0.365245
0.368606
0.373831
0.369304
0.373318
0.37141
0.368323
0.374796
0.367568
0.367292
0.3788
0.376945
0.370845
0.367303
0.375272
0.379047
0.449941
0.371111
0.386913
0.565583
0.91676
0.352688
0.400398
0.376571
0.368155
0.348081
0.37528
0.596258
0.373192
0.380216
0.456715
0.376217
0.431972
0.680696
0.59879
0.415475
0.37834
0.369373
0.391833
0.540503
0.373075
0.732391
0.332285
0.422911
0.245245
0.367494
0.367801
0.37553
0.381886
0.469954
0.522925
0.614031
0.373837
0.377638
0.244943
0.520451
0.604742
0.383973
0.653566
0.471524
0.464827
0.533767
0.497494
0.738979
0.462151
0.371801
0.373094
0.495462
0.38079
0.412351
0.376742
0.377496
0.388173
0.381781
0.36309
0.374947
0.370796
0.385635
0.377384
0.375045
0.375206
0.388738
0.411003
0.383141
0.366082
0.368843
0.375981
0.374612
0.388366
0.420409
0.377612
0.363561
0.374718
0.369499
0.399415
0.379208
0.372107
0.372273
0.380812
0.370852
0.376245
0.378557
0.370377
0.372428
0.37518
0.384874
0.368232
0.367038
0.370535
0.370323
0.372078
0.38558
0.376164
0.598611
0.374578
0.390816
0.371673
0.383241
0.374888
0.363924
0.368011
0.440461
0.377577
0.374464
0.371437
0.37436
0.376227
0.374663
0.373004
0.374977
0.37496
0.376143
0.37065
0.375461
0.373474
0.367528
0.374536
0.37738
0.37105
0.390374
0.372624
0.365181
0.37179
0.379639
0.367463
0.373
0.37324
0.436931
0.366946
0.368316
0.364692
0.290837
0.386697
0.375546
0.370306
0.283541
0.266399
0.334558
0.610722
0.425972
0.451388
0.814615
0.388666
0.395633
0.397833
0.373172
0.372962
0.373747
0.375371
0.371366
0.376532
0.368311
0.376811
0.373585
0.379716
0.379049
0.365352
0.376313
0.570682
0.309968
0.286471
0.266806
0.297355
0.609055
0.370229
0.584711
0.374884
0.381497
0.630815
0.379914
0.507021
0.573341
0.530004
0.550145
0.641186
0.560906
0.755651
0.69266
0.705055
0.678653
0.368335
0.370591
0.385306
0.373842
0.372782
0.401369
0.397067
0.364116
0.369881
0.368002
0.375083
0.363832
0.362437
0.381132
0.375457
0.380799
0.36579
0.368876
0.383544
0.372816
0.37771
0.382705
0.360909
0.369606
0.374777
0.376588
0.434013
0.362356
0.366778
0.369004
0.386052
0.376366
0.383203
0.366737
0.386288
0.399663
0.384709
0.365572
0.37313
0.377982
0.372014
0.368054
0.364518
0.391914
0.370681
0.368261
0.366995
0.369126
0.38108
0.376848
0.366581
0.372109
0.366257
0.374848
0.366939
0.364575
0.368264
0.36726
0.378354
0.375255
0.369173
0.372013
0.379275
0.372849
0.498552
0.645943
0.380245
0.379751
0.549685
0.636632
0.369064
0.55317
0.468464
0.413859
0.559766
0.384149
0.376877
0.378012
0.393538
0.380586
0.376275
0.374119
0.38067
0.364597
0.376328
0.376606
0.375531
0.378173
0.377725
0.37776
0.370412
0.388751
0.376615
0.366131
0.378921
0.379256
0.370218
0.388457
0.407274
0.375361
0.395738
0.388433
0.366603
0.387035
0.36789
0.373412
0.378548
0.395119
0.387236
0.374007
0.36997
0.377223
0.378348
0.371022
0.369896
0.377759
0.381282
0.377317
0.375747
0.373239
0.364021
0.365028
0.36373
0.366597
0.3703
0.371494
0.390958
0.373375
0.393183
0.375661
0.37626
0.367526
0.681505
0.703761
0.659366
0.368825
0.379406
0.377663
0.374044
0.37807
0.381853
0.381444
0.384954
0.375047
0.368729
0.378886
0.380608
0.377565
0.379367
0.364982
0.385743
0.389501
0.385572
0.363679
0.369854
0.366628
0.372553
0.369251
0.376224
0.385224
0.380695
0.393336
0.373302
0.372764
0.371276
0.366093
0.39566
0.378549
0.386237
0.401098
0.369697
0.384139
0.369209
0.372025
0.374438
0.393217
0.384694
0.36976
0.36492
0.370421
0.401184
0.369912
0.397257
0.378695
0.367263
0.369971
0.377977
0.375094
0.379503
0.38642
0.374815
0.368535
0.367742
0.368076
0.376273
0.368934
0.380879
0.390963
0.367215
0.378101
0.377782
0.371004
0.369313
0.37414
0.369658
0.363631
0.528813
0.46419
0.649242
0.366355
0.64531
0.375821
0.3866
0.384011
0.601509
0.377753
0.36583
0.371732
0.371855
0.373041
0.379195
0.53012
0.39574
0.555472
0.731538
0.387438
0.383551
0.374645
0.371549
0.37344
0.395926
0.379107
0.372336
0.377409
0.378013
0.370574
0.372817
0.377398
0.386475
0.374696
0.375233
0.373993
0.369398
0.376172
0.382559
0.366563
0.594321
0.366008
0.366508
0.370678
0.477969
0.502612
0.367205
0.368599
0.451623
0.473151
0.326267
0.372821
0.366567
0.29232
0.414865
0.405322
0.41906
0.424884
0.366331
0.483351
0.370461
0.368127
0.367224
0.377268
0.371277
0.366245
0.368055
0.29002
0.367795
0.458191
0.369691
0.373353
0.376381
0.410903
0.369984
0.370433
0.372721
0.371717
0.380095
0.380798
0.377628
0.378055
0.371731
0.394018
0.363772
0.371628
0.385041
0.39065
0.381122
0.36655
0.372595
0.372151
0.370616
0.372463
0.365684
0.371108
0.359849
0.363479
0.386073
0.368245
0.367447
0.379988
0.452405
0.365987
0.427681
0.368958
0.386394
0.377657
0.371845
0.380208
0.389224
0.376471
0.364687
0.393861
0.367356
0.365443
0.369582
0.365724
0.388057
0.381036
0.370542
0.443905
0.455862
0.514289
0.384125
0.385832
0.373323
0.369517
0.378046
0.373019
0.372604
0.400138
0.381382
0.380667
0.372162
0.506596
0.400388
0.657084
0.530853
0.397994
0.429984
0.370378
0.393855
0.305252
0.595056
0.393459
0.382825
0.379732
0.372295
0.411239
0.371788
0.367464
0.374717
0.402055
0.373664
0.385849
0.377433
0.377529
0.36929
0.370428
0.374532
0.362767
0.364264
0.37706
0.367241
0.367173
0.363393
0.361222
0.366959
0.375792
0.374126
0.828456
0.645386
0.378534
0.374712
0.37127
0.366325
0.458871
0.846277
0.37484
0.38132
0.394687
0.378101
0.521368
0.550862
0.421039
0.439357
0.693252
0.371352
0.646791
0.687502
0.372111
0.369274
0.368842
0.371005
0.374394
0.374902
0.371094
0.380336
0.371488
0.376374
0.37609
0.378014
0.380772
0.371763
0.37408
0.534203
0.591093
0.542463
0.593209
0.573206
0.307063
0.372962
0.375406
0.372838
0.425742
0.532998
0.299039
0.444444
0.532939
0.621669
0.588439
0.537223
0.382677
0.493619
0.434497
0.425862
0.376668
0.38714
0.632397
0.406892
0.377615
0.374453
0.374416
0.378354
0.374162
0.363276
0.369156
0.38369
0.391393
0.368388
0.36939
0.43291
0.368832
0.36636
0.366758
0.453751
0.373398
0.374904
0.373918
0.368831
0.379648
0.378703
0.371341
0.371318
0.606351
0.382796
0.374435
0.367113
0.361982
0.374384
0.37637
0.370506
0.372856
0.371808
0.367503
0.367017
0.375441
0.368839
0.371798
0.367252
0.381185
0.365179
0.375492
0.371814
0.379886
0.372194
0.37089
0.368372
0.298141
0.296113
0.591268
0.374014
0.565422
0.634848
0.366831
0.4102
0.624811
0.422953
0.323691
0.405653
0.68583
0.599904
0.468529
0.465498
0.417586
0.514569
0.578058
0.37719
0.607246
0.362475
0.537698
0.436952
0.374044
0.378155
0.373451
0.376863
0.372455
0.374566
0.376857
0.36809
0.383215
0.365353
0.639655
0.815246
0.361158
0.383125
0.366045
0.380351
0.378636
0.374889
0.374981
0.374305
0.382142
0.393866
0.383695
0.373517
0.531929
0.552503
0.502179
0.373225
0.373919
0.376443
0.687322
0.37613
0.393782
0.373516
0.370792
0.375572
0.365295
0.360269
0.369667
0.366226
0.368945
0.382828
0.398693
0.376739
0.370633
0.399145
0.366543
0.368463
0.384435
0.375999
0.369811
0.388641
0.36027
0.380084
0.393635
0.375851
0.366594
0.369025
0.372474
0.369701
0.380391
0.362716
0.383308
0.370772
0.365717
0.366489
0.375289
0.363509
0.386688
0.371353
0.372761
0.371599
0.372089
0.368865
0.381248
0.371336
0.375038
0.375037
0.373475
0.365329
0.363981
0.371474
0.393144
0.381595
0.37187
0.36175
0.369533
0.368929
0.371707
0.365205
0.375898
0.397005
0.365891
0.375205
0.377893
0.384478
0.36872
0.3676
0.365332
0.387907
0.378072
0.374071
0.362231
0.372184
0.361165
0.371101
0.377017
0.397907
0.387462
0.436378
0.390613
0.36148
0.373459
0.409697
0.371069
0.388624
0.39407
0.363866
0.372251
0.3729
0.391857
0.372207
0.370574
0.374845
0.381847
0.379771
0.376366
0.370007
0.37606
0.371539
0.38409
0.369428
0.380488
0.365928
0.371598
0.37033
0.384963
0.380257
0.378461
0.383718
0.36799
0.367167
0.382354
0.394096
0.387635
0.3916
0.374646
0.378112
0.37433
0.367422
0.385021
0.370419
0.380032
0.373312
0.367624
0.378402
0.368968
0.373651
0.364841
0.368018
0.392663
0.374606
0.372888
0.375774
0.371042
0.370465
0.37597
0.373444
0.381465
0.369519
0.37157
0.382173
0.383188
0.377854
0.374356
0.400315
0.382347
0.370835
0.394298
0.373226
0.379104
0.369516
0.37227
0.381189
0.370998
0.374637
0.377053
0.373731
0.370797
0.372351
0.38162
0.416579
0.367975
0.383318
0.362128
0.390021
0.378328
0.369665
0.370357
0.382617
0.378895
0.367049
0.384081
0.377374
0.368571
0.378743
0.375098
0.379656
0.366649
0.366777
0.33789
0.31411
0.409622
0.366548
0.375534
0.365567
0.363716
0.65915
0.473749
0.372059
0.830231
0.374797
0.374716
0.3937
0.387345
0.378853
0.37361
0.3737
0.374761
0.374689
0.373196
0.369512
0.372975
0.369691
0.374295
0.367376
0.682062
0.369992
0.376706
0.372218
0.750768
0.64955
0.521781
0.478628
0.62019
0.377714
0.334691
0.371455
0.377978
0.298758
0.563147
0.589651
0.495454
0.366665
0.376283
0.368785
0.382754
0.366402
0.388152
0.371518
0.366977
0.364185
0.379512
0.373272
0.374652
0.375311
0.377321
0.367341
0.365334
0.365616
0.7296
0.386828
0.368122
0.370517
0.368753
0.370929
0.389282
0.366329
0.369917
0.363729
0.373978
0.286434
0.366847
0.467411
0.371918
0.468011
0.814126
0.339877
0.36376
0.286624
0.371109
0.37348
0.419436
0.384246
0.371253
0.377603
0.377264
0.386906
0.367035
0.371107
0.376342
0.372261
0.372179
0.447053
0.416284
0.253306
0.369643
0.390238
0.377104
0.375807
0.375083
0.323476
0.376447
0.367404
0.37756
0.510284
0.411634
0.69166
0.540883
0.37223
0.588513
0.374592
0.361706
0.365492
0.3654
0.370976
0.383923
0.364952
0.401923
0.457523
0.448268
0.463671
0.648485
0.70293
0.603203
0.369844
0.375644
0.517215
0.374697
0.421784
0.440294
0.374005
0.676782
0.415886
0.375377
0.705896