/*--------------------------------*- C++ -*----------------------------------*\
| =========                 |                                                 |
| \\      /  F ield         | OpenFOAM: The Open Source CFD Toolbox           |
|  \\    /   O peration     | Version:  2506                                  |
|   \\  /    A nd           | Website:  www.openfoam.com                      |
|    \\/     M anipulation  |                                                 |
\*---------------------------------------------------------------------------*/
FoamFile
{
    version     2.0;
    format      ascii;
    arch        "LSB;label=32;scalar=64";
    class       volScalarField;
    location    "0.01535";
    object      omega;
}
// * * * * * * * * * * * * * * * * * * * * * * * * * * * * * * * * * * * * * //

dimensions      [0 0 -1 0 0 0 0];

internalField   nonuniform List<scalar> 
3946
(
53.5808
70.5827
82.6742
70.1441
74.269
51.7324
110.645
74.1186
116.678
49.1942
49.1879
49.7035
64.5248
149.184
194.877
49.5697
75.0816
49.3694
79.8916
48.1523
151.383
67.8962
80.1119
106.091
102.871
84.6052
97.3122
76.189
48.8586
53.0672
48.5048
60.9975
73.7028
59.0419
94.3642
51.9755
93.4849
94.6792
77.6664
87.1899
56.0605
48.9431
85.2931
51.4257
89.8901
52.0418
49.3321
93.0661
94.1568
80.6348
77.2344
87.9439
53.4486
50.0653
48.6982
55.8646
52.0132
53.2455
85.4127
68.5163
49.6762
354.973
51.7669
66.8718
60.8047
415.728
280.317
636.064
680.218
55.4532
50.2202
79.9186
177.785
48.5134
51.4236
66.0688
51.0013
86.5004
50.7048
82.0954
342.246
74.094
53.293
118.976
58.5501
266.821
71.9913
399.678
310.839
361.21
371.714
175.577
52.0721
209.589
224.864
221.596
92.1997
86.3557
99.3348
60.4662
110.955
102.527
92.5332
112.543
96.2245
95.5043
66.1556
68.889
94.7041
110.524
148.993
116.505
80.1431
241.009
236.4
84.8781
63.9586
55.0603
409.177
338.146
88.9873
143.515
55.7486
52.1373
48.9855
66.3161
295.574
62.1927
107.507
51.6734
108.99
299.637
50.8258
77.4272
107.987
63.3816
118.608
262.763
49.4232
158.461
143.144
343.017
469.075
49.3262
123.408
87.4842
65.97
51.1389
96.9836
70.1806
87.4451
87.5973
94.7815
50.6409
69.4882
49.0041
55.2288
54.772
53.1309
78.5359
69.8293
53.3557
179.626
88.8672
65.7906
128.734
80.279
71.3571
95.5112
158.926
95.398
183.498
86.6793
169.343
53.5139
51.5441
59.4417
53.3605
77.9029
100.936
50.5016
53.6244
50.8673
49.9098
87.7736
88.3863
73.7957
66.4
50.4815
98.2059
52.3301
77.5182
339.682
93.4164
179.397
227.04
383.109
49.0204
83.9634
56.9743
49.6382
55.7113
50.641
51.6025
66.7956
102.1
108.788
72.9388
110.685
79.9844
87.7693
118.855
50.0577
52.3828
52.3767
49.7289
51.5717
63.2188
49.8199
50.6627
375.412
279.693
83.9335
63.7282
54.2737
322.009
334.004
56.3412
52.3947
359.858
88.5595
53.3017
65.5048
57.1812
48.7061
150.333
60.4485
123.805
151.424
99.8128
48.5914
367.363
371.324
214.01
128.089
60.2404
164.355
130.835
56.0819
95.5797
62.6234
153.817
118.44
150.003
100.468
77.2221
86.3897
56.1667
88.0255
166.103
60.89
423.572
345.845
112.102
134.623
80.5452
157.404
116.562
221.501
72.4268
99.5139
121.422
66.9871
58.4242
63.6293
65.1078
61.8482
134.564
151.45
97.0141
97.5999
96.812
93.7805
118.733
119.29
92.3597
77.7404
76.8949
123.616
86.3704
109.875
90.791
54.0365
77.5672
63.5725
87.831
80.8996
96.8127
49.5833
420.387
49.2529
310.446
391.245
388.108
85.2133
95.1132
175.519
93.1338
77.021
470.823
410.054
371.291
387.874
652.207
48.868
401.647
89.8686
120.542
84.8011
193.931
107.881
185.956
141.138
109.329
49.9609
101.514
55.7234
58.3952
53.8726
132.51
105.156
49.3306
72.6825
263.424
302.624
50.2596
57.8773
370.543
476.88
373.849
70.9145
235.506
140.95
63.0217
244.655
153.497
53.4427
49.929
129.774
360.765
312.587
52.6492
500.569
51.7363
162.577
506.858
112.285
63.0892
258.055
463.032
126.357
392.34
52.5961
78.4258
315.6
203.764
60.2339
210.58
230.342
173.553
317.23
227.933
82.2847
50.7216
51.9272
49.2684
188.258
49.9472
56.4233
109.128
52.3538
73.463
71.4502
51.9062
57.1034
53.1051
106.915
54.437
51.3231
70.7975
304.805
50.9769
78.4159
324.112
57.0739
374.072
56.0632
116.413
55.7094
49.8911
53.937
62.9705
58.8042
74.3604
54.2567
49.721
62.3451
54.9948
50.4446
54.2874
62.1655
51.4375
51.2178
53.0676
54.8494
55.2765
50.4901
117.249
99.9751
72.6387
54.5335
110.623
49.2589
148.355
52.3796
82.3801
49.8949
86.2607
49.404
54.6117
55.326
53.1347
49.292
50.1777
57.5099
101.456
140.396
97.6492
59.871
55.433
54.9985
54.6204
57.0738
58.7497
59.5954
414.884
190.877
54.9727
56.3463
55.0537
70.6937
49.7969
49.6155
56.8003
80.0716
91.86
60.6436
79.2835
50.6171
50.0909
52.622
70.2671
223.83
105.465
296.148
206.938
48.4405
62.2964
290.393
65.8602
88.502
73.1235
83.0936
57.9598
49.6665
53.6761
53.3535
103.147
54.8769
146.002
212.964
351.304
397.569
55.0717
115.763
48.7156
111.357
57.3787
50.9177
50.6181
49.7022
85.5707
50.9207
48.7072
49.7195
52.1203
50.75
57.5102
94.2816
95.3182
52.4892
69.2256
103.355
102.193
102.354
55.0472
55.6301
181.017
394.819
60.1918
290.089
186.595
50.6358
53.7339
80.855
170.452
56.2204
53.0527
77.0568
65.2592
70.1038
54.5004
101.344
53.242
65.2572
79.7737
55.8314
54.088
63.1916
169.121
342.011
97.3905
82.9193
316.982
418.805
305.771
64.27
68.5728
153.042
54.8879
54.9827
51.9161
112.963
51.5327
49.9575
59.3073
108.475
55.6208
96.1111
69.6854
52.8856
57.3855
83.2254
49.928
52.5615
77.6786
50.0199
63.7418
77.5851
97.3318
67.6396
87.2632
51.2635
49.7519
53.0203
49.3075
61.5805
73.4174
49.4936
366.714
64.8774
50.3216
51.6199
50.4203
71.8056
69.0857
49.5099
49.7151
48.0192
49.9329
49.8263
56.9833
49.715
49.6381
99.6478
51.1528
73.8434
49.3138
48.9053
49.1398
55.2441
48.7048
78.9657
49.1116
49.3015
49.5515
49.5458
109.17
49.2348
69.9955
49.2907
91.5754
55.477
162.188
68.3996
115.128
76.7342
50.4728
57.0427
49.2486
82.321
52.5014
107.956
50.9069
50.8505
78.4973
48.5454
49.0563
114.247
71.5626
113.576
266.461
250.935
234.068
76.677
51.354
53.2763
56.32
74.523
51.0355
75.7438
130.307
56.7158
65.3879
70.9257
85.2029
53.0522
57.6842
52.5221
60.3606
83.4693
58.7401
49.4779
55.8171
83.2589
49.2056
50.0764
57.8415
78.5849
89.1059
55.4396
58.4519
69.2782
116.39
144.786
95.6873
100.976
56.3004
98.9649
70.6243
94.7698
65.7277
86.9011
50.8818
82.2782
99.3342
54.9635
81.3424
71.8143
74.6011
53.8614
69.6138
50.1156
335.927
440.688
178.704
49.124
54.4165
81.9326
50.278
90.2749
233.709
48.921
263.501
79.2349
104.465
55.1392
51.4946
53.5554
50.0159
78.2696
58.8364
49.7547
85.0137
48.884
54.9376
271.92
193.303
63.5265
139.732
197.062
123.831
50.9863
71.9374
48.8817
73.3722
87.5584
71.9295
94.5592
64.0377
133.371
54.6456
103.785
50.5758
99.0085
109.673
55.7596
85.9324
84.8378
90.6478
94.5663
66.1173
72.675
49.2475
88.6259
51.3679
113.127
58.0438
99.294
64.2941
48.4306
49.7795
49.4368
49.8244
106.439
111.935
59.5473
56.7329
54.3299
62.6768
82.6899
49.3906
49.6205
84.3342
54.7549
48.0085
129.768
53.0894
55.3044
52.6236
220.262
243.208
63.0313
185.376
397.707
186.645
206.988
73.0985
256.774
203.815
223.247
174.396
55.7844
48.6431
54.8522
59.4605
371.024
61.1011
61.707
66.9098
59.2068
52.2178
58.9142
210.939
180.654
373.971
238.299
200.619
190.017
54.5243
92.4419
49.8403
141.79
120.243
64.2907
50.7154
53.669
131.025
106.115
79.5733
448.108
88.005
64.6802
77.9566
79.0545
50.4904
49.0203
72.6194
53.1277
104.86
53.8581
58.749
53.7052
113.226
52.1516
63.5242
50.4545
52.0631
52.6562
56.1657
67.1196
48.6833
60.9598
111.173
52.4269
62.5211
101.229
109.297
180.629
51.9794
84.654
109.836
99.6802
55.9339
103.412
54.557
59.1826
57.5906
53.8827
83.6107
148.85
53.0192
51.1737
81.206
58.5085
51.2675
247.798
73.8377
55.2629
122.577
300.913
52.7066
72.4276
138.061
53.9195
359.73
302.373
294.788
105.91
78.2031
182.418
121.899
67.7022
55.564
272.191
378.93
54.448
58.1339
51.3536
50.5674
57.1125
59.2345
54.7781
53.3589
92.4014
79.5935
79.5668
49.629
51.3463
49.0226
53.5356
70.0585
54.3714
51.626
110.864
55.1311
50.6212
119.505
57.2724
57.1904
54.3001
47.8096
93.6557
49.4381
79.2318
55.7106
94.4471
56.1859
88.6408
60.6911
50.4527
121.096
73.8792
93.8945
51.087
51.3142
50.5255
55.0248
53.4444
52.4273
49.9732
96.0242
58.7355
58.3616
51.6542
99.0255
85.572
115.6
329.356
106.617
151.357
474.435
77.7766
63.0943
51.0521
51.9095
49.8253
180.577
106.002
124.498
198.675
325.967
165.73
99.1233
66.5192
49.5885
415.787
56.327
52.6085
82.3209
145.202
387.191
210.641
335.004
271.697
286.182
51.2021
262.153
203.832
53.17
259.276
264.782
159.124
110.132
176.95
449.878
53.623
197.385
136.366
390.752
403.36
51.9972
231.886
516.864
203.017
49.132
206.218
270.875
87.697
52.5025
103.433
166.713
259.114
112.885
51.8296
51.6313
49.8195
51.4603
54.9835
63.8358
58.3096
54.3163
50.2665
55.7897
345.286
310.275
289.564
286.733
207.625
261.497
51.7233
56.2144
68.5933
143.409
111.355
73.1142
52.5148
54.6871
129.84
53.1229
71.8627
113.56
135.443
54.5447
52.5898
59.8328
57.7622
54.071
54.4368
60.2577
53.2351
83.2581
82.1366
53.5567
91.2128
66.4135
93.4183
63.468
330.541
159.201
53.0878
69.2086
86.3794
87.0373
56.5734
79.3281
48.6916
52.2244
57.9864
48.946
55.1768
99.843
63.0698
64.4341
73.6426
66.2266
111.556
110.912
82.0831
133.866
110.356
82.2059
48.5887
48.5723
48.4565
57.9603
52.6018
53.9825
54.7263
48.2914
73.5612
56.1446
49.7779
86.2709
53.0371
60.0436
352.958
253.199
56.7017
75.5622
373.213
199.858
271.337
76.1491
215.701
81.7292
232.742
54.2702
101.537
50.4201
74.603
54.6996
54.7545
297.325
138.676
79.9315
92.2207
55.1635
52.5058
55.6027
49.0803
55.3
58.504
50.4477
75.6226
65.9047
91.4021
50.4021
52.2719
50.9031
48.8732
142.906
48.7763
48.6533
58.2141
48.5157
49.0538
56.0954
53.6313
53.9779
56.411
69.1326
48.8654
48.8515
52.5874
50.3894
65.454
48.8981
56.5553
229.504
250.167
109.559
48.4726
65.7627
110.442
51.5891
49.0089
48.7055
48.7435
49.3619
49.2804
50.3825
51.6045
49.2504
50.4021
108.808
216.089
296.057
558.208
400.882
260.136
53.24
49.8099
49.0975
48.2564
50.5496
49.4604
48.8774
48.6162
50.2795
56.8896
87.1716
49.6468
66.5166
48.5232
61.2546
49.9075
49.6872
60.3715
49.4806
51.2175
77.2166
114.144
55.0758
54.2552
146.654
57.3046
54.3089
94.9263
82.3749
78.0717
48.9508
50.4266
49.919
58.2431
72.5189
78.5588
105.963
50.1209
54.1167
57.4041
55.2849
48.3814
48.1542
73.1989
51.9847
94.0229
53.7316
76.3691
69.7883
64.5439
54.3163
49.6504
65.8742
48.9093
49.1356
49.2496
49.9568
47.8842
80.6015
86.0996
53.7028
60.1013
53.5233
50.2081
58.0324
49.7317
55.0078
48.673
59.7988
57.1352
52.8289
48.6927
58.5551
71.4178
49.0849
93.6703
48.4016
80.1725
48.8531
48.6339
48.9213
55.856
53.057
52.2578
49.7164
51.4031
52.5085
57.5647
67.368
48.7893
89.3889
55.5366
89.9111
70.1353
48.3223
48.9045
64.6408
55.5869
51.0654
108.157
48.8377
82.2748
50.8325
50.4374
73.292
52.056
63.2071
69.8486
50.1236
72.221
78.2747
64.6534
51.2119
159.206
48.833
49.3439
50.2485
53.6067
68.5774
114.3
51.5749
92.5294
84.044
67.8659
60.9571
60.9046
83.0291
56.2148
86.752
78.7626
72.7656
81.4831
71.3251
114.543
48.224
114.602
49.5979
49.7486
49.0979
49.2262
49.1652
49.1668
204.062
61.8645
48.9088
48.822
132.737
77.5693
86.2812
77.9385
50.379
49.4679
54.8946
149.14
54.126
69.7141
69.5952
62.6246
79.3944
115.997
125.771
54.96
67.1991
107.111
51.3865
116.534
49.4277
72.3954
51.3368
58.5082
85.7864
53.9345
55.8609
51.3903
52.6825
51.508
49.3994
50.3276
48.6862
57.1059
49.1738
48.8879
49.6304
49.122
49.8067
50.0825
50.6092
50.5682
85.0754
50.7947
55.4617
107.53
58.1039
84.1459
48.6784
67.0701
108.906
56.2226
53.2961
90.7197
100.276
56.8706
49.8261
50.8954
109.582
48.3597
49.5931
50.8311
50.4424
50.5171
49.7372
79.1008
79.326
148.818
51.091
115.486
68.4742
53.2445
48.1744
47.961
48.3399
51.9306
48.9781
93.2279
50.9943
101.254
119.725
65.8956
57.3509
58.6297
49.0932
60.2391
50.4355
98.6641
112.227
94.1816
51.6035
71.5311
70.5194
52.6031
69.1169
49.3011
188.604
102.484
440.047
55.2152
370.089
49.8465
50.0997
49.7664
49.7272
51.4636
74.6965
54.8644
119.776
53.9189
54.051
75.6404
53.9672
87.5191
51.1445
48.5833
481.017
131.784
50.7642
129.576
75.1223
48.5708
49.0886
49.2702
48.84
51.9803
98.7219
49.4232
60.7452
50.4293
128.129
71.7818
93.1729
72.3918
118.225
81.653
118.081
50.6437
78.1863
50.9548
49.5799
49.9016
49.5605
49.5202
54.1366
74.8949
66.2965
55.4382
50.2928
83.5817
55.548
77.2604
61.9673
112.925
92.666
52.0252
48.4804
49.8451
55.258
49.8195
74.9507
55.8172
49.2853
303.752
49.3629
49.5615
295.771
333.745
107.135
197.91
439.056
218.291
322.161
342.084
88.275
82.0034
376.548
134.687
56.8346
436.492
425.901
214.461
447.922
103.937
73.782
530.882
160.468
185.458
79.8665
56.3707
48.5663
166.477
314.104
244.821
60.7345
48.9044
51.1708
208.036
50.8352
170.765
53.5057
48.7761
51.0396
50.9743
49.5467
67.0087
49.3249
64.0628
89.6983
85.1755
54.475
61.9632
64.226
59.7162
50.9481
93.343
89.556
52.9029
141.268
136.228
54.015
48.642
60.724
58.9637
84.9202
56.1748
55.1604
57.962
49.8705
67.8715
65.3323
71.1641
50.3434
50.0779
55.8951
97.4344
50.1833
83.8779
49.1509
48.9865
57.4826
97.8582
52.8976
49.0681
81.4883
49.072
94.4709
53.2876
51.6727
108.097
50.9777
57.9255
122.612
48.0076
53.4766
56.3119
57.1959
49.2527
65.6454
61.6808
57.6897
55.3204
48.98
49.9885
50.056
48.6065
55.1144
50.0987
73.1889
49.899
50.2778
50.0117
58.0606
140.477
48.179
100.442
86.4662
68.1589
99.0549
70.6021
55.8074
276.666
203.523
52.7465
56.0917
69.8732
67.6226
89.1999
71.3649
61.7602
52.0016
70.2351
85.0863
58.7709
49.0091
138.954
253
53.29
67.3884
54.4645
53.069
217.056
192.599
64.4036
138.837
247.468
118.698
48.4402
92.8042
61.3671
51.5524
50.3312
75.7231
54.4618
49.1849
67.3929
49.2427
76.8948
49.457
80.6752
93.9848
48.9743
73.1141
87.3168
49.2004
55.2652
51.0184
125.873
82.2657
85.3655
69.9441
50.5177
100.761
95.2061
94.5154
80.9957
48.6958
108.037
55.8249
74.6811
49.1895
99.3857
54.2814
49.5031
112.696
52.8789
56.4078
63.4552
60.2232
67.7453
61.5707
55.0155
140.364
54.8512
86.5916
62.8923
49.0383
66.1176
111.551
51.0435
81.8284
86.1485
116.773
96.727
103.061
103.264
144.493
51.5747
50.6552
88.8322
48.3457
165.906
168.384
65.6532
69.013
83.4852
75.2585
72.296
72.6775
82.1763
74.5887
89.5067
89.687
75.7645
88.3104
114.426
122.07
121.172
73.5781
79.4754
54.5566
98.4558
88.282
60.7139
54.6375
49.2391
50.1244
55.2695
62.0623
64.6787
52.0163
73.4639
100.78
152.06
254.474
288.365
49.4358
63.6466
57.9899
51.6241
53.8564
103.916
53.4053
51.3983
55.6908
170.592
57.2394
214
287.912
61.8268
70.3018
96.2788
94.0726
169.794
353.672
364.762
71.9997
176.598
78.9861
75.2717
203.565
58.1474
317.298
283.953
260.604
77.0142
68.5839
101.714
100.563
70.8993
51.8101
102.939
351.634
79.9802
101.796
107.561
311.548
215.748
346.887
132.747
359.014
479.741
93.8914
81.6744
81.1891
93.922
68.049
61.4714
163.013
70.9136
50.6235
292.551
254.452
159.225
54.4597
55.5906
102.555
136.002
103.545
49.5832
49.2547
53.1076
48.9627
118.175
56.3976
132.393
294.007
133.033
50.4727
66.8669
48.466
113.376
52.8673
99.903
99.5773
92.7859
214.05
140.714
53.9888
97.5321
60.7179
61.2738
53.2576
59.0806
109.244
66.0297
52.4417
51.6462
51.1236
62.1969
49.3898
85.6929
78.8022
117.294
101.172
53.6222
51.7479
56.9083
54.9522
100.257
98.2508
90.9677
52.9747
88.5696
52.9437
52.2208
54.7347
54.2677
56.9049
72.8298
100.259
56.7627
91.3947
92.0197
73.9967
70.9323
75.2996
57.0633
105.645
48.8987
66.0825
70.6575
73.9644
48.4051
48.6402
48.7094
48.8773
86.6027
100.17
49.717
49.3828
49.6079
87.7059
49.6017
53.1506
75.6003
49.0164
48.5564
50.3699
77.8884
65.8309
76.6295
50.1225
49.7488
49.5393
78.5547
50.3166
49.1948
50.3868
50.4431
55.3439
48.862
48.4106
48.279
49.7063
49.2879
105.81
78.7328
48.5128
50.5934
73.5091
133.138
85.9761
48.517
55.4187
51.9125
49.0312
54.396
57.5944
87.8526
81.0362
48.6974
48.8362
52.0253
50.1853
58.1904
51.3544
50.1547
421.181
101.679
101.453
49.1287
49.3416
51.5659
52.3669
50.0101
48.8639
82.9431
74.814
78.9019
241.857
457.088
49.2281
54.8437
51.6772
50.9968
51.4984
48.3711
48.9627
52.7467
202.936
101.226
101.68
73.4331
87.9646
49.3663
64.3472
78.7936
49.021
49.3055
49.3408
49.0539
50.2245
49.8982
48.4358
48.807
48.9972
83.1824
50.4648
54.0971
51.0126
50.7511
78.4166
82.789
54.3401
73.6611
57.5302
57.7607
79.4211
401.565
300.419
263.561
213.211
177.04
119.441
149.389
148.942
219.025
372.083
54.5828
52.8014
71.6448
490.218
401.445
72.0656
77.1286
52.3716
154.937
54.9752
53.9962
56.0165
51.1242
55.633
68.1058
62.9466
63.2773
68.0841
48.6254
59.0022
50.6839
49.6671
51.3654
48.9871
49.1377
70.8972
87.5933
51.6793
49.7142
55.7459
64.4763
52.6678
58.3052
50.272
49.0888
50.2339
146.004
70.084
50.3913
52.5178
78.1722
69.2949
59.2337
52.8451
58.8856
51.9466
58.9176
48.3216
235.805
288.685
48.2543
54.2992
66.738
52.5419
66.9322
48.7465
48.8831
99.4017
55.9525
49.2653
81.4332
48.8411
78.958
49.8292
89.1191
82.6689
49.0371
81.9696
49.3195
83.8126
112.693
48.5219
54.2243
82.2551
113.45
51.2866
56.8135
77.5705
49.8957
51.5317
75.7286
58.2433
86.5747
121.607
145.038
73.0046
122.021
49.2191
93.7186
76.5403
72.1113
93.0343
52.3964
60.915
61.8376
67.3864
134.692
260.143
93.8033
62.2205
80.7086
49.1171
53.2678
60.1278
52.2232
73.511
109.999
88.3886
63.8395
89.1024
101.676
71.1738
59.7933
63.5437
48.5517
54.9139
72.9691
87.5638
122.968
108.963
54.8877
95.2449
50.4361
91.884
88.2286
55.1649
51.4173
60.6176
114.348
75.3425
79.5727
123.261
48.4387
75.8086
111.543
58.6584
49.3859
48.0814
52.9347
55.5032
54.9998
49.5856
80.0511
66.777
98.6977
85.7192
93.5219
99.5338
56.8347
95.2651
100.011
58.3979
54.8161
86.6479
49.8213
54.6501
49.0076
48.5628
49.2364
49.6326
50.1691
95.8176
48.1368
59.6186
88.8294
99.769
85.2766
53.0704
74.7208
120.558
99.18
79.9596
53.6813
87.7927
51.2596
199.807
83.578
90.2319
86.3143
86.7625
94.5439
49.5357
52.0526
98.1226
48.721
49.551
59.2397
75.8301
53.9643
64.8633
50.7332
50.0713
52.1029
48.8381
112.253
99.9237
51.4306
468.362
463.432
284.768
252.091
430.177
166.646
219.838
231.231
495.531
450.915
348.351
295.718
153.197
326.797
428.847
229.876
319.894
170.591
122.497
289.222
319.441
222.001
232.652
402.665
246.362
469.43
363.965
55.0337
55.3822
55.6554
63.3715
48.828
63.3665
82.6673
71.256
52.868
48.837
84.8793
65.3794
51.6778
90.3198
55.8595
50.4235
55.9109
85.0409
119.578
134.748
48.8085
71.6533
72.9287
49.2029
65.9068
65.3769
127.061
57.6536
58.2819
115.679
76.4235
72.2236
71.5914
60.275
50.3411
62.8743
71.5898
54.1915
57.175
48.6739
54.2841
62.8369
73.2582
68.0969
56.1599
60.156
49.8122
80.9772
61.7262
50.4943
87.1892
58.6342
213.678
116.887
65.2819
53.1555
159.954
57.7209
55.3985
64.3735
51.5334
56.9727
63.6981
53.6604
76.3752
97.1333
66.1718
97.8186
246.613
50.2226
318.977
59.0342
149.806
490.663
502.555
224.018
227.267
238.566
265.376
301.647
101.83
49.3132
73.0686
52.3923
50.3925
51.148
84.0817
62.1141
54.623
50.1047
62.6174
50.3364
52.7733
49.5586
49.5545
52.5792
53.0578
257.385
49.6676
125.361
162.246
398.07
318.203
104.248
52.6754
49.7415
246.1
55.0417
176.234
49.11
83.4933
74.7116
64.2719
65.6252
312.127
220.799
60.8458
56.0807
57.941
59.3701
121.465
80.7156
295.607
319.422
166.569
453.544
49.0174
66.3989
50.8275
55.1973
224.764
144.125
214.148
50.6438
245.202
414.792
127.076
429.514
79.4809
200.859
87.6691
81.2738
169.115
202.723
326.181
227.594
50.1605
51.0845
124.534
55.5441
76.8068
53.4291
84.7968
58.1051
54.7651
66.9775
61.7678
50.594
57.0466
56.3533
55.0127
54.3125
57.6575
84.196
139.975
72.3946
62.7078
53.9137
55.6342
59.3312
74.2695
56.3724
68.3692
51.0659
66.3269
163.564
54.7984
75.1643
54.4927
71.3835
49.7671
90.9864
67.3512
50.1487
49.9836
51.8961
147.509
81.8998
66.7248
83.0629
51.32
52.8017
57.9075
57.009
146.924
55.0539
144.079
81.3187
89.4084
53.206
49.5348
53.3522
150.398
55.3275
53.105
52.664
57.3706
52.3871
53.2157
53.6084
52.5234
54.1946
53.8927
53.8639
53.8587
54.0097
72.3231
52.8665
54.6013
50.4599
80.7226
60.5599
48.946
49.5115
51.977
51.2476
60.7442
53.9545
161.401
49.1815
51.5632
83.5759
354.828
81.5134
50.9656
53.7961
430.108
416.999
330.921
279.312
284.859
119.56
288.745
58.4369
381.338
180.516
53.2556
52.7073
53.6145
56.0631
51.073
54.4015
50.5377
52.5841
52.8574
52.8304
52.3256
53.4931
51.6688
289.275
406.976
515.43
497.811
358.703
315.836
55.1633
250.31
50.4806
57.7178
174.067
66.4336
146.45
246.354
184.571
169.529
239.861
126.778
340.189
235.378
408.135
260.857
49.9459
50.7896
57.2491
50.1855
52.5206
135.716
114.525
49.4101
51.5951
49.2895
98.3425
48.3853
53.8342
72.8151
49.811
75.9527
60.5293
49.0611
109.469
52.0748
88.3597
108.386
52.0266
49.0457
50.14
50.527
188.312
48.1224
49.0823
50.7561
85.5271
61.6513
71.0026
49.4281
87.1641
103.579
98.1982
49.1159
74.4781
52.5392
56.4816
48.7243
48.5803
71.4086
49.4355
50.8451
48.923
48.88
86.5758
50.1479
48.5865
49.6096
56.2746
74.343
52.2452
48.4874
70.6574
49.0301
73.286
54.0996
49.0225
49.1214
51.5818
52.2288
112.041
169.872
72.907
104.037
202.414
229.145
77.999
175.089
248.604
191.255
211.151
185.493
107.997
83.291
139.597
107.309
53.1218
52.5339
73.7025
67.7607
59.0003
57.9116
52.9918
52.6833
52.5971
53.3319
90.9421
109.681
98.8306
49.6706
50.7759
70.1196
87.0665
98.8456
60.1155
67.2135
114.339
85.9768
53.3802
80.0234
49.6702
50.7787
73.4199
127.101
127.767
53.4599
49.1396
53.4472
52.1566
49.7137
49.4424
89.0041
58.8901
96.5235
50.7919
52.6485
50.491
49.2375
48.6629
49.2477
49.3911
49.7341
120.03
53.6301
123.451
66.9685
61.5405
52.2516
384.178
429.839
320.992
76.3547
52.9287
58.442
60.1675
61.9208
53.6171
94.9284
121.377
69.9154
48.709
61.2
69.3062
58.218
74.6465
49.049
78.5446
76.8143
109.923
48.1481
49.2961
54.4789
50.6592
49.5426
57.7868
79.5467
72.3291
59.7737
50.0506
51.1776
50.4251
49.2614
97.6151
113.108
148.091
112.195
63.7787
122.025
77.8779
81.4693
70.9807
100.831
83.7747
51.5371
49.0337
51.2823
115.113
51.2114
127.958
92.2052
49.8468
50.0897
80.4022
52.4016
60.6216
108.503
64.7193
50.0224
48.9217
48.848
52.3981
50.5575
71.4951
90.5408
48.9754
63.4332
64.8855
49.4316
91.9016
112.222
49.1202
270.145
152.751
163.995
245.063
49.2543
242.623
79.2384
107.282
110.663
182.141
84.6305
55.2788
76.8998
61.1026
50.2121
88.3484
376.655
138.204
539.65
308.748
77.8184
77.4295
63.2063
50.2979
50.1952
108.561
83.2372
66.9941
84.343
66.2658
58.7715
63.6748
69.8399
111.018
50.2303
53.0357
50.747
60.7921
55.2258
55.389
58.2129
200.324
48.5785
48.7074
49.5131
301.086
188.386
51.4008
52.256
207.57
158.649
352.355
75.0509
49.7012
379.867
66.7656
72.4098
70.6468
69.8998
48.6262
264.52
81.0367
49.1205
69.6695
54.196
52.1299
51.7824
49.484
413.529
49.1371
286.914
49.8911
56.1166
52.498
58.7798
54.3617
49.1439
49.4609
49.3157
51.349
104.125
85.8235
115.958
62.1156
119.766
88.7111
65.3795
51.3354
81.7147
87.8703
49.3403
78.5362
54.1411
53.9852
49.2606
48.7133
50.4429
48.0097
48.4275
78.3154
52.9076
48.8142
55.9652
77.0508
50.3327
75.4478
48.7262
70.912
59.9447
50.8209
51.2169
56.6762
52.1576
48.9134
113.799
63.1726
52.7352
49.0215
48.6852
103.268
50.9104
50.5862
113.05
75.707
129.27
98.0464
60.8224
54.1738
50.3208
52.9052
55.6275
53.1405
58.2476
54.0932
55.9706
52.4815
98.143
56.1913
170.889
112.25
57.1154
67.2558
60.1837
122.766
369.656
256.693
111.81
57.8566
53.3237
51.3656
62.7561
87.0638
55.8373
53.1791
72.8895
51.4688
94.0556
53.9186
84.7456
63.8881
56.9073
77.5726
48.1063
48.3567
70.0117
49.2998
48.8004
56.3508
59.3492
48.8088
111.903
51.4062
350.829
333.212
50.8489
49.7483
59.2775
49.0208
80.3024
339.572
67.1819
84.7545
150.44
51.2885
137.901
341.396
67.9222
71.7255
273.27
50.7729
335.725
588.337
50.883
70.5472
57.7325
70.9696
52.2292
52.0165
82.7572
52.3315
49.5609
52.9742
53.3254
50.8867
55.7027
52.4957
54.9959
346.361
215.699
160.746
166.521
137.567
354.983
53.8314
49.981
50.8453
64.6032
197.755
384.072
72.1387
168.743
380.914
218.03
136.873
59.972
265.713
215.248
64.0625
54.416
57.5703
223.49
58.6125
60.2278
67.3128
50.2073
101.685
55.715
55.8186
54.7179
110.068
58.4383
50.9356
49.1279
66.1594
91.9653
48.6015
69.5208
223.48
78.8172
52.8029
53.6889
60.8627
55.3708
51.2625
93.1972
52.3611
224.994
63.8933
56.0915
50.6876
72.3818
54.79
52.7818
50.3349
51.2579
54.1983
50.3403
92.2956
53.8053
107.682
52.4053
50.1608
60.0691
62.7191
75.9664
50.4085
77.9229
49.5621
49.5219
49.4723
484.674
299.923
269.37
55.9279
183.351
347.747
67.7032
67.231
267.596
220.489
399.402
217.849
255.527
213.013
215.213
194.246
271.598
123.136
130.282
357.263
233.084
64.8163
183.554
90.7326
66.6354
83.4888
67.0669
53.6275
64.4095
56.8443
55.1273
50.7553
54.1513
49.8947
405.161
369.281
246.956
53.3802
66.5521
51.5923
51.0837
54.9744
54.2918
55.7812
56.3195
59.8198
57.3116
51.9009
188.951
440.278
212.443
55.0421
54.9501
54.2705
240.142
91.5162
132.655
54.8133
68.4241
51.4009
48.9309
47.7981
51.4728
48.6873
56.2756
62.8495
110.202
50.8647
49.458
104.724
50.0014
48.8402
50.2463
80.2735
49.3664
102.152
47.992
50.368
57.2579
54.7761
49.074
82.6419
49.3566
49.0731
97.9384
48.2629
122.047
52.3022
53.1872
48.7173
49.793
52.717
56.5561
85.0567
50.3285
50.6627
49.6959
49.6579
55.6002
56.7082
54.374
53.3236
53.8205
48.6113
48.4305
48.9782
64.6153
88.2426
58.2995
47.9862
50.0838
49.7241
51.1989
62.8512
57.0565
111.365
49.3084
112.917
66.9391
99.7144
49.2056
48.8844
51.4478
138.958
81.5782
53.0987
48.1181
50.1369
47.8308
69.1718
85.444
123.964
112.871
70.1973
59.2221
49.6827
53.9115
130.309
66.1317
91.6595
99.5516
49.3385
50.4179
49.534
122.992
49.3414
60.2959
55.5255
82.5437
58.4566
74.0942
58.6305
58.4256
55.302
122.014
56.974
55.7626
63.9026
74.2779
49.6457
76.3652
62.5511
52.947
78.1966
48.7095
54.0469
93.9165
95.3444
94.5631
95.0449
55.9003
57.1559
55.9689
55.575
54.786
54.8864
50.6544
49.6315
51.5264
50.612
49.257
53.7543
48.6221
51.2866
100.775
55.0484
61.6874
49.772
53.2798
50.5348
62.7319
64.3511
80.7545
49.7165
59.2921
80.827
114.144
58.2936
52.131
112.097
116.479
52.3323
136.792
62.1741
66.9222
49.4501
68.3719
51.7276
91.3085
49.7509
58.9446
74.0668
83.409
51.7601
77.821
88.0827
48.8002
94.8353
78.9438
117.64
52.8691
49.2646
87.1308
103.41
94.6487
49.7686
98.8213
74.2234
75.9543
98.2035
54.4268
111.506
50.2438
55.6593
382.099
490.552
220.965
52.8541
87.7611
441.556
77.9084
179.372
229.148
84.5361
268.625
53.8501
50.0464
72.949
53.5618
50.3678
49.897
52.833
52.5832
52.7443
67.5198
52.5126
62.3943
49.8955
50.8589
68.2975
345.658
65.0706
53.8437
53.7769
224.212
184.464
140.261
293.34
334.522
54.6077
437.065
68.2351
75.4517
351.308
280.773
381.315
190.171
49.397
81.5335
49.918
86.0906
57.4308
81.4512
49.3873
49.3603
61.1734
50.8657
76.4506
57.2165
50.2045
53.798
69.0869
48.5247
49.4917
360.045
86.5497
49.3135
51.2455
49.8626
49.8999
102.806
53.7151
49.5015
49.704
51.0283
515.488
49.0137
236.43
53.5621
82.7886
301.617
350.799
48.4998
437.329
50.1421
80.9786
278.961
55.4953
54.3853
57.9412
57.1424
81.3254
48.6909
50.8901
84.1689
51.8005
266.316
220.471
275.35
637.189
55.5185
56.3017
100.682
53.5911
53.4061
385.345
53.3569
55.3219
80.8434
110.692
62.1131
255.539
116.013
50.5394
150.714
65.2628
47.9232
49.93
66.3117
51.0743
107.46
48.2893
134.466
87.9292
75.3454
83.2203
352.919
458.716
205.436
79.3784
65.7239
169.59
53.4542
62.5046
70.9266
53.4347
254.679
170.693
50.9844
203.452
210.664
56.8232
57.5716
51.9577
49.4393
58.0468
82.151
49.2117
73.1291
67.8243
51.1642
52.2301
54.9347
50.1347
63.1622
49.1057
53.407
60.9756
48.6698
63.411
263.768
239.235
496.168
93.6558
49.7582
61.6959
49.3563
85.5253
74.6211
55.3734
88.1036
54.2296
50.4652
241.161
49.1514
52.4237
423.179
90.2567
51.2813
52.5418
57.1207
95.0161
50.769
81.946
68.6638
75.1973
70.1678
107.225
95.8093
112.244
53.9174
60.2668
52.7218
116.13
53.9908
53.1443
53.5078
118.387
137.829
53.9429
457.233
176.503
99.7504
49.2273
71.1356
259.359
390.617
204.59
249.218
216.496
59.6754
109.444
112.861
87.957
79.7714
124.997
57.4355
114.452
145.81
232.456
222.318
79.9348
73.6624
114.687
67.6542
140.454
110.838
58.3143
67.0364
63.0435
57.9496
52.033
50.5
73.4179
70.2003
93.8892
88.8029
87.2248
399.789
167.631
242.214
169.448
282.978
689.117
78.7724
69.6276
327.337
70.1639
81.5676
75.4167
80.1529
116.451
93.4424
54.7672
71.3777
200.835
281.246
390.597
54.7357
56.9509
295.324
298.253
51.4211
106.926
52.8747
55.8646
51.7787
54.8701
53.452
52.6564
67.661
112.094
62.3096
123.639
52.2677
143.607
54.24
54.0607
55.2499
52.9463
54.3674
82.7785
54.1204
51.6649
73.0103
56.8488
102.358
95.7066
142.887
80.4171
84.1659
85.1436
83.8718
49.5198
48.8482
48.8177
53.0565
51.4435
51.0803
102.383
51.7882
53.8475
52.1004
56.2487
52.2085
61.7914
55.4117
76.7753
53.8433
95.5993
87.8378
61.1581
59.7113
52.5432
56.0913
53.4732
52.2155
97.4448
49.0007
69.5158
54.8724
75.9356
48.6918
83.9321
65.5042
63.5109
50.7302
90.2348
92.2172
141.954
89.4874
51.8471
92.2357
93.8277
49.0509
51.2616
118.799
127.881
114.622
116.59
53.2193
350.908
323.021
594.8
714.479
68.4727
110.579
117.51
87.704
80.0155
57.6824
57.3041
56.2202
53.9744
55.5042
71.1698
83.9012
51.5271
49.9901
48.3898
50.4855
52.6848
102.124
52.5022
83.7847
55.5902
51.4373
48.9222
48.6492
49.2159
48.3445
56.5822
54.5009
65.8593
49.1191
70.5558
418.442
147.803
196.354
51.18
51.7684
48.6624
50.0428
68.9529
61.0118
51.1068
55.9911
173.429
48.4472
62.7779
59.4813
65.129
107.817
108.737
137.464
86.7794
138.508
71.4187
76.1737
125.923
89.7713
74.2443
69.0688
208.597
277.193
152.46
290.795
87.0867
86.9981
57.3191
52.2556
188.198
57.7931
52.1122
69.6309
75.2254
56.3675
50.8896
48.1917
49.7921
49.5816
50.0918
49.2099
99.7519
53.4199
48.8517
50.5345
51.3009
53.044
49.7847
51.2644
49.7033
50.004
79.4783
50.6271
104.17
108.754
110.383
51.3258
51.6907
49.9309
48.9863
57.2472
53.9974
108.574
48.5839
53.3932
75.7961
74.9314
48.1603
61.9154
48.8979
89.1471
75.9538
64.9481
60.729
49.4041
52.6557
48.0772
53.0139
98.9214
48.3228
48.3508
59.9147
48.5453
49.1701
48.4467
99.0532
49.0432
51.161
50.1612
65.0047
48.9369
50.5631
51.2261
49.6422
49.5418
50.2019
55.3093
72.3908
50.5281
81.7431
91.1719
71.3443
92.4905
84.3411
163.418
251.957
169.773
282.814
102.496
111.861
274.704
69.2276
91.6927
97.4666
87.1169
98.6047
125.363
67.5864
136.74
157.629
51.7526
148.527
94.603
89.0512
97.9468
49.659
51.1644
84.2654
49.7244
49.414
71.0428
70.3273
57.2316
64.8339
97.2102
50.6349
128.826
69.3048
96.9697
77.9862
78.3901
50.7591
75.7554
67.1119
49.8327
88.2057
55.595
96.9116
56.1354
48.8545
100.493
55.8228
63.9568
49.9367
49.4715
48.436
48.7416
94.3659
52.4951
250.074
126.394
213.119
305.64
94.1694
92.7497
51.8648
93.9959