/*--------------------------------*- C++ -*----------------------------------*\
| =========                 |                                                 |
| \\      /  F ield         | OpenFOAM: The Open Source CFD Toolbox           |
|  \\    /   O peration     | Version:  2506                                  |
|   \\  /    A nd           | Website:  www.openfoam.com                      |
|    \\/     M anipulation  |                                                 |
\*---------------------------------------------------------------------------*/
FoamFile
{
    version     2.0;
    format      ascii;
    arch        "LSB;label=32;scalar=64";
    class       volScalarField;
    location    "0.01535";
    object      p;
}
// * * * * * * * * * * * * * * * * * * * * * * * * * * * * * * * * * * * * * //

dimensions      [0 2 -2 0 0 0 0];

internalField   nonuniform List<scalar> 
3946
(
4.78407
5.97706
5.79168
4.8356
5.25542
5.4187
4.7201
3.09349
3.69104
6.47017
4.82042
3.65008
4.90808
7.0632
5.2425
6.48405
5.28491
5.19187
5.04361
3.66217
6.64752
6.32077
3.50425
0.154702
5.81437
3.80498
5.37663
4.12187
3.30783
5.10362
4.83902
4.31028
2.888
4.98426
6.22807
5.20959
6.35234
5.51065
6.40829
5.65898
4.40148
3.9194
0.69809
6.30811
3.57487
3.26692
5.77339
5.78684
4.27407
4.67557
4.87357
4.78311
5.2026
4.07862
3.80344
4.52703
4.18228
3.84492
4.62368
5.03763
4.66024
-49.344
4.27771
2.55224
2.43892
-50.3708
-52.0946
-49.6257
-49.9398
5.93712
5.35886
6.24814
0.099727
3.83385
5.17102
3.86875
4.9591
3.97419
2.15409
6.72154
-53.144
1.82952
2.02612
5.97745
3.7095
-51.0967
3.62515
-49.1797
-51.5095
-51.7032
-66.9526
-58.8731
5.82285
4.29258
4.3093
2.51248
5.37748
5.24937
7.87321
3.97817
5.05661
4.64269
4.2429
0.125125
4.47951
4.41272
4.80611
5.69234
3.76742
4.77164
2.51665
4.6246
5.42259
5.92376
7.27213
4.29976
2.18199
5.87452
-47.7044
-48.9833
6.39167
3.06527
4.36939
6.24798
5.16171
5.28178
-59.9773
2.86281
4.1078
3.32006
5.5321
-63.214
4.82879
5.11681
4.58101
5.10279
5.21262
-41.5498
5.85822
-11.3808
-20.9975
-61.737
-45.2198
5.33947
1.97465
4.57713
4.96935
4.53814
2.62882
1.1388
5.96346
3.95251
5.75599
2.68072
5.05415
2.50872
3.12134
4.5539
3.18167
6.96579
6.14419
6.4923
-7.88699
5.53313
3.91082
5.43596
5.25765
5.71231
5.96966
-4.59157
4.59101
-22.4748
5.75999
4.51934
5.27421
3.00503
4.70705
2.59365
5.64616
6.19065
4.28185
4.45135
3.8498
6.03516
7.09434
5.73604
5.40587
2.76489
5.19814
4.38638
5.96343
6.67695
-47.5572
4.20158
-54.6738
-55.4949
-55.7944
5.01782
4.5953
3.74728
3.66823
5.18714
4.6793
4.93323
5.02923
5.51304
5.533
4.92965
5.00403
4.91017
6.49661
5.26985
5.94698
5.87764
6.1861
5.62667
5.4122
5.97786
4.28945
4.74004
-46.0925
-53.2667
6.3242
3.69662
6.07646
-51.9726
-53.4163
5.20989
5.16189
-53.5284
4.33081
6.33033
5.38726
4.98623
4.47111
7.16215
4.79598
4.28376
4.97486
5.34134
3.49159
-48.5806
-47.4386
-6.48763
4.86634
3.81472
4.52088
5.41128
5.83958
5.01684
5.22082
-16.0425
4.8537
6.00129
4.94011
5.02638
4.8048
6.18765
5.45764
5.80927
6.44802
-46.8207
-47.6586
2.94739
4.36214
4.63275
3.8495
2.38311
2.90344
2.44891
3.64052
7.52979
4.48499
6.6767
6.35268
6.79847
7.05185
7.49388
7.13788
5.81361
3.16299
3.34866
7.02626
6.44259
6.67102
2.94851
7.70786
5.43427
5.29587
5.74173
6.82975
5.32147
5.52297
5.76689
4.81478
4.30395
4.42248
1.72357
4.9212
-51.3704
5.23773
-52.3258
-51.2035
-54.0874
1.38766
5.92779
-11.792
3.44322
5.4472
-45.3164
-46.3945
-51.4929
-48.7124
-49.1657
3.65026
-76.954
5.76701
6.196
6.15539
-11.2057
5.55515
-29.4306
5.53132
5.36618
5.60583
5.30745
5.86947
5.12506
5.51482
7.51268
0.0363081
3.98839
2.35656
-46.6543
-50.5131
3.48895
5.1987
-44.571
-51.2946
-47.4796
4.89403
-68.5953
-52.7358
6.12042
-51.8518
-0.27092
5.51478
5.64252
2.3786
-41.968
-50.1114
5.35712
-68.9809
5.83242
-51.7474
-53.9603
-0.88834
4.59949
-44.4343
-52.8773
-3.56745
-80.6542
6.33216
1.56181
-53.8448
-39.8444
3.59063
-48.623
-48.3571
-51.699
-46.7457
-45.2767
6.82247
5.19321
5.3054
5.42548
4.40021
3.84127
4.31756
0.596917
7.06811
2.86191
6.93686
5.93253
5.2044
5.88488
5.02819
5.62798
6.42832
5.15957
-40.4669
6.48917
5.97914
-43.9055
5.42986
-53.0736
6.76927
2.42917
5.98237
6.01747
5.71524
5.43682
6.87219
4.73007
2.34416
3.7341
4.66244
6.69119
5.72296
6.72685
7.39101
5.68599
5.58799
6.67295
6.76649
7.18603
4.09565
2.94314
5.1777
3.64747
3.37161
4.44017
4.33963
-2.86273
6.04451
3.79025
5.87285
4.04213
4.90527
4.51374
4.91728
5.55648
4.94788
5.21439
4.26554
5.63141
4.3269
4.49825
7.13423
6.41255
6.42964
6.27198
6.25789
6.26446
5.24136
-75.2127
-16.8662
5.88738
6.15076
5.98623
6.02579
5.26101
5.575
5.6159
4.94162
6.14111
6.16847
4.76273
5.64778
6.07885
5.17511
5.18858
-54.5144
-10.3074
-53.3185
-18.0713
4.96244
2.06787
-41.1286
2.08905
3.98973
7.34962
6.18831
4.38408
2.81286
3.44288
6.19008
6.14886
5.85787
6.17671
-47.2609
-67.0212
-76.6665
6.31412
3.79367
4.70254
5.10952
6.01803
5.93662
6.03389
6.01836
5.21636
5.88532
4.9293
5.22105
6.06206
4.37269
6.60026
6.14836
5.26232
6.46721
7.2857
5.79297
6.38716
5.87799
6.38244
6.60598
-17.2333
-56.1898
4.32996
-67.0006
-54.5241
3.88875
6.6654
3.6112
-11.0057
4.78613
6.20826
5.33296
4.11127
5.19127
7.20406
6.85426
6.54951
6.46282
5.6592
5.72417
5.8601
5.7508
-4.76153
-34.4337
3.59481
5.78329
-61.6756
-46.9156
-0.412498
4.26287
3.46557
6.46583
4.64411
6.62681
5.54617
2.84542
3.91492
4.58016
3.57498
5.46911
3.51999
4.51214
4.52091
3.43231
2.9336
4.7604
4.06062
3.17361
4.13808
3.3888
5.62907
4.92474
3.0048
3.30972
5.49742
5.46169
4.73513
3.66437
3.71206
4.46534
3.46347
3.45488
-65.1423
3.74939
4.36337
4.94101
4.54532
2.68517
4.82974
3.14057
4.45652
4.63492
6.15604
3.84289
5.07218
4.21323
5.04928
3.20606
4.01756
5.40165
5.13196
4.66615
5.3901
2.62232
4.06667
4.7785
3.58263
2.57641
5.76192
3.90266
4.95434
3.92732
2.04241
3.73154
3.3327
5.41439
-8.45946
4.87239
4.28339
7.19279
5.21463
6.46733
4.87207
5.01653
5.51853
3.84445
5.02582
5.35395
2.92176
4.50197
4.96652
2.88595
4.832
3.97435
-37.144
-41.363
-51.6937
7.87005
6.24364
5.55941
2.76363
4.72566
4.14549
3.15504
3.80101
7.85498
4.07688
6.38352
3.65601
3.33781
6.4425
2.82766
7.13053
4.35192
4.43316
3.36571
5.38065
6.04486
5.52448
4.71893
6.53854
5.80217
5.69612
4.45544
3.98763
4.37162
3.01405
6.88569
4.33447
7.96446
6.45772
5.53868
6.04987
5.26102
5.83958
6.29513
3.59251
3.972
5.58465
5.69488
0.271708
6.19708
4.22992
6.36872
4.79085
4.41987
-64.1224
-70.942
-57.7379
4.91625
6.05088
5.22944
4.17788
5.86287
-57.5182
3.06747
-63.2486
5.76089
3.57993
4.98746
5.46463
6.25477
5.63725
4.46863
4.59197
4.7804
4.86173
3.78176
3.80747
-15.8378
-18.2159
5.51942
1.94379
-18.1127
5.11712
5.72921
1.20915
3.80124
4.62656
3.74945
4.14295
6.79309
6.57483
7.87034
5.8006
5.34427
4.03604
4.4819
3.2428
4.58981
5.65638
3.69663
4.72688
4.58688
4.35793
2.90983
3.40887
5.19223
6.08986
4.80053
4.91655
3.42822
3.81486
5.53367
4.74429
3.45532
5.10412
4.38498
5.91295
3.55662
5.21569
3.85212
4.42061
5.1723
4.0496
4.24967
5.03709
6.02494
4.85186
6.48638
6.84164
5.8032
6.17153
-51.5725
-42.3921
4.07527
-17.0838
-26.093
-24.4153
-35.8945
5.19754
-59.7516
-51.29
-43.9805
7.40446
6.54062
4.57691
5.662
3.86976
-49.8563
4.10127
2.96059
3.86053
5.04657
5.98111
5.25649
-33.5224
-53.1366
-71.2831
-53.0866
-52.7205
-48.8067
6.07298
5.25263
3.79486
5.10246
7.67604
5.46363
4.98521
4.14927
3.83326
5.73135
5.88421
-49.7822
3.32595
3.71578
6.07061
3.16864
5.53788
3.36245
6.29553
6.4871
5.88539
6.17409
5.03083
6.40422
6.56475
5.9074
4.48182
5.89473
5.56732
6.36296
5.53987
3.30381
3.35065
6.50058
5.69627
6.10741
4.605
3.65652
3.46464
2.80877
6.00995
6.76694
3.88569
4.33627
6.69401
4.61875
6.04011
4.58627
6.59828
6.55139
4.67833
8.28372
3.20404
4.62174
6.9805
5.21053
3.97526
-58.9286
5.14762
6.02623
7.3312
-51.1724
5.99297
5.68199
1.87333
6.59087
-68.8074
-66.6359
-46.1713
-1.67768
3.93129
-27.3559
-10.841
3.04461
6.05442
-49.1828
-44.3989
7.53654
5.83681
5.54977
5.95968
5.31255
6.02259
6.47768
6.36941
6.5382
5.85954
5.88369
4.80354
6.14151
3.30146
7.11322
6.60067
6.37181
6.21365
4.3815
5.53537
6.10032
7.20567
4.82347
4.66627
4.74601
4.66607
5.63543
4.26581
5.14405
5.24939
5.49282
5.95866
5.40074
5.43388
4.48101
6.65457
5.25861
5.18325
5.51283
5.93219
3.44296
6.05259
6.49973
6.68398
5.98384
5.73985
4.89866
6.07094
4.19113
5.25822
3.6114
-10.5488
-53.344
2.69245
3.56358
-50.9108
5.11617
5.98312
6.02581
6.37188
5.198
-3.96992
5.12282
-56.4909
-28.1748
-4.55496
-57.5174
5.32821
4.35134
3.13402
-9.47923
3.73103
3.69784
5.68825
-10.696
-58.8483
-44.8277
-46.5548
-27.1725
-51.2594
5.60411
-4.24775
-26.2518
5.69109
-3.34759
-31.7534
-4.75402
6.40491
-54.9412
-47.6679
5.09444
-41.2985
2.78574
-78.976
-63.5784
5.61522
-29.2468
-45.6414
-43.6478
3.86421
0.283482
-45.6853
5.54454
6.84182
6.43183
-23.7061
-7.44887
5.42832
6.01346
6.35159
6.10783
5.58083
5.56044
5.08372
7.04274
6.01481
5.91232
5.46437
-8.88283
-1.43218
-0.837833
0.275364
-28.2353
-24.1586
6.2359
5.3213
2.02676
2.92409
0.0517441
4.32968
6.0206
5.91961
0.556228
6.79735
5.11302
6.75059
7.01333
3.95073
5.50355
7.02691
5.80254
6.51171
6.20015
5.91264
5.86873
6.6593
3.97186
6.33947
4.49402
6.68505
6.16334
4.8048
-37.1273
-50.1428
6.59261
4.29665
5.04438
3.76946
5.38722
3.181
5.5754
3.93568
6.01381
6.77101
4.09732
5.46697
3.3758
3.3896
6.04218
-3.5499
4.08342
4.60529
3.6101
5.01952
6.5511
5.35565
4.13557
4.47627
3.24666
5.34848
5.61565
5.19535
6.01185
3.83652
4.92693
5.73594
4.2489
4.814
4.96824
5.69868
-44.6325
-47.8856
6.40637
-2.02625
-48.3097
-1.08026
-40.8265
3.26153
-37.5746
-6.71143
-26.8867
5.12512
4.55125
4.22034
4.73096
6.10876
6.33657
-1.64385
-9.10811
4.71528
4.77285
5.36903
5.75407
4.82579
5.08678
4.15135
4.79963
5.41454
3.37837
5.12246
3.15734
4.51797
5.83576
5.72555
4.1786
6.36974
4.3209
4.45275
6.2007
3.6971
3.57855
6.19087
6.44439
6.24481
6.63421
4.31151
4.67038
4.44749
4.7595
3.84342
4.50551
5.15202
6.78262
-19.6461
-45.7593
4.34404
3.55415
6.11735
4.84373
6.70978
2.51832
3.61928
4.4159
5.57707
5.4396
3.9317
3.92807
3.34624
3.57202
4.14947
-50.8085
-57.8283
-72.3483
-89.9099
-46.7304
3.62924
5.61466
3.20339
2.84852
3.62589
3.81459
3.68664
3.21307
5.64011
3.86094
4.55784
5.05623
4.18023
5.39311
2.78361
5.09967
5.74289
3.62302
3.75073
3.65873
6.70099
2.30391
6.49504
6.48933
6.69531
4.24098
4.65349
3.89247
5.09456
6.69366
4.43004
4.66556
4.99907
3.28094
5.61297
5.10624
3.15964
5.91419
2.79201
3.2504
4.18796
3.97481
3.60664
5.22629
4.36864
2.22378
4.3678
5.77216
4.21035
5.85035
5.03452
4.55132
5.45519
3.87719
4.19682
4.04909
6.52826
3.58858
5.20674
5.23341
3.93311
4.62404
5.43235
5.25354
5.40369
4.48089
4.38376
4.78275
5.40319
4.59274
3.38822
3.34465
5.96296
5.66762
3.27706
1.77257
3.54771
4.17793
3.50758
3.40677
4.30482
3.30591
4.56654
6.0386
4.92512
6.03178
4.92242
4.89294
3.37979
3.66193
2.76255
4.64661
4.40877
3.59776
3.54645
3.5166
5.30036
2.69294
5.05516
4.35015
3.54341
5.46697
4.44946
4.44031
5.47685
5.70333
5.59978
5.33287
5.06628
6.77643
4.75402
3.7485
4.03715
-13.7278
4.45509
4.25182
4.09201
4.71116
4.43967
4.03831
3.21682
6.53578
6.12123
5.83592
5.2487
5.33215
2.57341
3.13631
4.42339
6.70708
4.1633
5.18835
3.70655
2.81534
5.1439
3.62466
4.96127
4.73147
4.6441
4.07476
4.07443
4.78933
-36.4394
4.1106
4.38945
4.81136
4.45394
4.70396
4.41473
4.30411
4.54388
3.67864
6.89302
6.70655
7.1567
6.04105
5.76933
5.14488
4.02795
7.47139
7.95021
7.00871
3.03732
4.74556
6.10355
5.73667
4.30803
4.28075
4.35733
4.67231
3.15282
5.30369
6.40796
5.3962
7.34796
6.39232
4.24732
5.94437
4.48601
5.12398
5.02896
6.07008
5.78259
5.36486
5.25788
4.8074
5.71435
5.21401
6.6537
4.09742
3.30089
5.56051
4.90112
5.1326
4.71967
5.74481
4.24186
5.661
5.29693
6.26182
4.1473
4.74459
5.17832
5.67553
4.6598
3.66799
4.92781
3.92371
5.22264
4.94425
4.35651
4.11417
5.61621
-27.2947
5.72432
6.05157
5.49757
4.79396
5.229
5.04192
4.7262
3.42895
4.1314
5.82835
4.40737
4.88817
-10.8868
5.30551
4.80604
4.70109
2.27561
4.54133
4.94887
4.01294
6.0815
2.27673
3.26994
4.0154
2.94739
4.60324
2.98094
2.80599
3.73557
4.68128
-53.4222
4.11041
-52.8138
3.82514
4.51565
4.94135
5.54052
5.87428
5.97693
4.92705
5.62895
5.09759
5.00316
3.64485
5.14314
6.19796
6.71075
3.99545
-48.2705
6.43844
2.46017
3.9797
2.74547
4.53474
4.6289
4.68019
4.65625
6.62819
5.00384
5.59645
5.34838
4.83844
2.66075
4.01791
6.92938
4.59354
4.03485
6.93947
6.85716
4.07071
4.11171
3.56804
2.47223
4.20824
3.90964
3.73379
5.3493
4.13739
3.01028
3.26802
4.81838
3.84944
3.81903
5.13275
3.21021
4.07168
0.799824
5.2737
3.40278
4.60508
3.81438
4.77306
4.81068
6.1783
4.40696
-52.2691
4.34008
4.15877
-52.0222
-46.4616
3.81073
-30.5315
-77.5828
-32.8765
-63.3707
-42.7814
4.24145
3.70559
-4.05532
-0.81834
3.83311
-47.1948
-74.2394
-46.9655
-50.8715
4.58403
1.41819
-60.0741
-5.52878
-14.7086
-7.3238
6.71705
3.37449
-51.7508
-49.3617
-62.5764
2.8713
4.30701
3.53704
-23.4637
4.50844
-55.8361
6.41339
3.77006
5.78608
2.32123
5.37796
1.80422
5.76744
6.36844
7.24173
6.37145
5.79422
4.74794
3.77323
3.87318
5.71746
6.70886
6.08674
6.47252
7.47747
6.27513
5.48989
4.6743
4.75118
3.76555
3.88216
6.39915
3.14813
5.10273
4.32472
5.8621
3.93163
5.9303
5.46688
5.72705
6.58816
6.69507
5.20274
-11.3542
4.84087
4.86426
3.64832
3.80536
2.67647
4.74871
4.30135
5.9206
5.72035
1.98077
6.17177
4.80458
5.07614
4.66382
3.98724
3.94738
5.40554
4.69372
3.86412
5.82775
5.29206
9.0403
5.44382
7.63837
4.17399
4.78756
3.36642
3.3912
5.00131
4.28103
4.26851
4.08884
4.39821
3.74325
3.27427
-21.0765
3.87195
4.22036
3.09394
4.66075
6.38122
5.89243
6.38858
-45.6403
-51.8943
5.92069
4.30562
2.76184
5.91102
3.1261
4.28579
5.1049
6.7994
5.98048
5.57096
4.94335
4.18231
5.84216
-39.5456
6.6221
7.0263
6.42332
6.33869
-25.9984
-0.66071
5.18145
4.75175
-13.1043
7.091
3.40357
5.04309
7.44542
5.63823
5.23751
2.87927
3.46157
3.31633
3.16451
3.69126
3.60689
5.29303
4.65032
6.54106
4.55021
4.17739
5.67134
6.3159
5.82168
5.00429
5.58779
4.32564
4.21758
4.13854
4.23948
2.64505
4.0648
4.58272
3.77214
3.25606
6.58477
3.57231
3.25239
4.03963
6.46082
4.86229
4.42575
4.02532
5.8672
4.80999
5.08842
5.15728
6.81818
6.81907
6.93231
6.40942
6.24621
4.80235
2.70383
2.70995
2.30266
0.894915
5.83712
5.53018
5.06778
3.32237
6.04793
4.34494
3.0832
-4.12557
3.89495
5.63763
4.65216
3.65476
5.42907
5.41564
3.64666
5.00485
4.44177
4.26171
5.2836
5.42772
5.05226
3.4498
5.37358
5.58115
3.45011
4.1794
3.78462
6.14881
4.40937
4.84345
5.17194
5.32505
4.30491
5.80743
2.43399
5.14037
5.4204
2.86469
5.62678
5.02296
5.14804
2.73087
4.41167
3.52186
-6.47589
-34.3643
-74.4531
4.74273
2.92711
6.95216
6.23643
5.08
4.63817
5.78237
4.93298
6.62363
-37.9424
4.85737
-21.5488
-54.6917
4.0866
4.35384
5.18694
3.34583
-56.142
-48.6218
-71.5252
6.83075
-11.6808
-0.876393
6.80577
-4.41507
5.73047
-37.9499
-20.3741
-60.0241
3.70532
5.75112
5.02178
4.80721
6.63142
5.58466
1.37743
-73.7938
6.38116
6.26005
5.04231
-48.7314
-42.6045
-5.18302
8.13295
-50.4384
-15.5745
3.873
4.00424
5.23543
5.13837
4.11023
6.0745
2.61803
5.2017
3.51994
-28.2027
-32.8328
5.69946
6.50509
6.35185
5.85897
6.11354
6.09346
4.99346
5.07344
6.65164
5.08981
6.09369
6.17934
5.74587
-31.6308
5.29124
4.82143
3.84725
3.83264
4.50481
6.61508
5.43231
4.22428
5.93661
-32.3007
5.44033
6.80603
6.22688
3.96614
6.59054
6.20777
5.48668
7.72505
5.57255
6.0245
6.59304
6.15821
3.41444
5.0769
6.12947
7.33743
2.32165
5.17256
5.93552
5.89197
5.56985
6.62857
6.01548
6.14837
5.8013
3.57613
4.64405
6.25203
6.44717
5.61185
6.27369
6.13987
5.01014
5.76301
6.5556
3.92063
3.94715
3.64089
3.11421
3.36988
4.99922
6.19852
5.99783
3.46285
3.2631
5.04874
4.06199
3.55987
3.9114
2.93696
5.14346
5.29667
4.35115
4.35809
4.63519
5.29121
5.14937
4.87847
5.47007
4.62554
4.4422
5.45608
4.34032
3.11702
5.32489
5.59456
5.11018
5.04617
4.55204
5.21932
5.25311
5.361
5.22993
5.19476
5.00379
3.86285
3.77756
3.32076
4.46486
4.26358
6.10552
5.32675
4.66836
3.81908
5.71535
3.34189
4.55748
4.6909
4.53002
4.31021
5.20678
5.04972
3.36145
3.46794
3.10481
3.33848
5.26424
6.1314
5.09719
5.92023
4.20489
-47.2864
3.49962
4.48681
5.28108
3.65323
3.70019
6.27709
2.51564
4.46984
4.37617
0.922692
5.63956
-33.9655
-48.2726
3.53054
4.61609
2.61078
3.56123
4.7162
4.93469
5.36352
6.57426
-34.5628
6.57748
4.70548
3.07448
4.27441
4.57182
4.24174
4.40832
4.69739
4.24596
3.5076
3.98609
4.37521
3.70451
3.74734
3.88997
4.04436
2.69665
3.84353
3.51711
3.40577
3.3365
0.365381
1.57487
6.66063
2.57616
4.70182
4.82645
5.07627
-45.2042
-51.4813
-64.8993
-7.91561
-18.2407
5.69746
-16.2016
0.967865
-41.4642
-48.0854
6.29271
5.85415
6.0475
-46.4581
-47.8399
5.88136
5.33004
4.83185
-55.7536
6.27241
4.7706
4.03324
3.02837
3.81713
3.485
4.62877
4.53568
5.89211
4.9788
5.5254
2.60937
5.0164
5.32245
3.21383
4.59408
3.90136
5.78375
4.60759
5.01502
3.85267
4.76136
5.13108
4.31571
5.24414
4.22228
3.12896
5.16574
5.25786
4.22875
4.19213
1.02315
6.00567
3.74546
3.23698
3.16311
5.19138
3.1233
3.71547
-56.6254
-52.5639
4.91628
5.37507
4.20466
4.44663
4.48931
3.80028
4.78907
5.35297
5.48946
4.08348
4.83326
3.47978
3.84635
3.95599
5.67745
5.82662
2.93409
3.23917
4.83733
5.63807
5.18113
3.38788
6.05521
4.32112
5.45787
5.66055
5.69814
4.35333
4.95193
5.53617
3.6692
4.14753
3.79592
6.24916
7.4457
3.95755
4.66086
4.27854
4.25022
2.13302
3.47291
4.63093
4.68841
5.18966
3.83773
5.0864
6.37996
-64.311
4.72295
4.51652
5.32435
4.68689
3.77123
6.99484
6.16001
0.747211
4.36042
6.88896
2.06184
6.20189
6.16002
6.55764
0.686763
6.26795
4.94515
4.65484
5.40929
5.66455
4.67906
3.92031
6.57281
5.10629
3.33914
4.48149
3.40721
5.19116
6.16092
5.99152
5.63926
5.69829
4.68087
4.95603
4.42942
5.64822
5.26496
4.34061
5.6292
4.42391
5.53366
6.62021
4.90652
4.63019
5.09495
5.08043
7.05734
5.37336
3.66784
3.98874
5.0465
5.03464
6.68287
5.22501
6.00608
5.33442
4.76472
4.00588
4.31403
4.86436
3.72008
3.69647
5.92747
5.65438
3.90835
2.58166
2.4465
5.80486
4.11315
4.43262
4.51183
5.46825
5.82292
3.76683
6.21836
5.60238
4.84288
-44.7626
3.23333
4.85209
5.34455
5.46536
5.94142
4.71833
5.13279
4.80365
3.95191
5.90393
5.98381
4.00617
4.48575
4.09433
4.24158
3.55276
6.09347
2.93588
5.99237
6.21193
6.38642
-53.399
-47.1633
-54.5213
-28.7983
-51.6575
-48.103
-50.3548
-39.222
-52.2674
-46.6408
-49.4211
-49.9088
-54.7725
-65.3496
-48.4441
-48.9141
-53.2382
-48.8582
-55.9598
-54.2252
-62.4071
-45.3728
-56.8194
-47.8653
-54.1562
-46.9912
-76.681
6.97626
6.64711
5.25249
5.44178
4.86354
4.10764
4.96542
5.17591
6.59097
4.16452
4.87458
3.86453
3.53598
4.48741
5.35401
5.2796
3.72065
6.83372
7.28378
4.25816
5.14628
5.41824
5.61342
6.07843
2.7247
3.73692
4.5366
3.66931
2.64311
2.93367
4.26493
5.57343
5.17545
4.21842
5.17949
3.96844
4.41499
6.36272
6.27244
4.26177
6.46786
5.05268
5.19819
6.63464
5.41441
3.81875
4.42726
3.9329
4.24399
5.15094
6.22963
6.04702
-1.21709
4.14938
4.80394
5.79525
5.58827
6.30311
5.25989
0.98847
5.92943
6.92481
0.244309
5.83482
4.80834
4.40156
2.98196
3.88963
-56.7314
4.82127
-58.6197
4.96765
-21.2186
-10.0269
-6.12765
-10.3221
-5.78628
-41.43
-43.0981
-58.5026
-5.39869
5.52532
6.2985
5.37974
6.23774
4.87591
5.32577
4.56532
3.47973
5.83064
5.35184
5.88231
6.16284
5.22061
5.50996
6.11867
6.34441
-62.2299
5.73364
4.03286
-7.52484
-66.4787
-29.9494
5.02848
5.25285
4.65371
-27.7022
5.65705
-12.9154
4.10177
4.48181
4.71258
5.75349
4.05108
-60.7615
-34.6961
4.74607
6.68335
5.15395
2.90257
-2.27876
1.11458
-59.1764
-51.3209
-53.8305
-53.7457
4.74259
5.76753
5.9357
6.85127
7.10517
-1.83483
-25.2293
6.05109
-21.23
-52.2227
1.4525
-1.25403
0.578101
-19.7407
5.89662
7.0069
-26.6442
-33.2292
-54.0777
-57.739
5.82002
6.31082
-24.9888
6.40388
-13.1616
6.44374
6.29804
4.77516
6.776
6.17562
5.87209
5.59574
7.02593
5.49451
5.787
6.45393
6.40446
-3.2548
4.75266
5.16517
4.80285
6.75969
6.13479
3.98729
5.25189
4.49205
5.09168
5.39727
5.10217
5.49367
6.40196
4.91902
6.34129
5.97187
5.85097
3.55952
5.95154
5.59347
5.43551
6.04619
6.28941
6.61625
6.03552
6.53002
6.2971
6.13955
5.31091
6.94474
-6.34592
6.08974
5.19191
6.13623
5.79964
4.68565
5.10404
5.81991
4.02025
6.239
6.96843
6.72263
6.92745
6.30178
6.1985
6.10833
6.49106
6.34177
6.16332
5.80572
6.0104
6.21399
7.21578
6.90585
6.62973
5.80209
6.94125
6.10707
5.72135
4.72741
6.08489
5.856
5.75929
4.93464
0.21285
5.21653
5.74995
7.098
-46.3052
5.54864
5.14973
5.3873
-50.3555
-47.6435
-45.4454
-62.6248
-37.921
-56.1424
-39.8
6.1856
-45.7108
-49.9838
5.89431
6.05021
6.10412
6.0943
5.98158
6.38546
5.35372
6.65081
6.89115
6.05282
6.2205
5.16135
6.25735
-64.3821
-46.6915
-50.4465
-50.5559
-45.8015
-55.0557
5.57612
-1.54995
4.03134
5.55119
-9.72078
4.60427
-28.0143
-63.7454
-27.4793
-54.4798
-33.5661
-1.41658
-57.5558
-37.5638
-72.2802
-44.8155
6.15725
5.95621
3.22196
5.05688
5.6597
4.95613
3.21168
4.23632
2.90367
4.08104
5.16043
4.94778
3.99742
4.5149
4.52655
4.70433
3.8248
3.67967
4.57862
4.87975
4.37895
3.70152
4.05018
4.00086
5.37346
3.83493
-6.51931
4.96
5.10475
4.25371
6.96029
6.15532
4.23394
4.51094
4.67377
3.80275
3.33179
3.36239
4.39804
3.65304
1.8607
4.72953
3.66859
6.16523
3.80115
3.95098
3.73712
2.2511
4.89375
4.32307
3.51695
4.80097
3.89407
5.81307
5.7635
4.24963
5.22964
5.36789
6.23653
4.46868
4.73091
4.91174
3.18701
4.14222
5.96298
-10.1206
6.5769
4.97899
1.21414
-28.7191
4.38387
1.54082
-7.37853
-8.95062
-0.152878
3.92627
7.14305
6.12371
6.26407
6.34577
6.0999
6.68205
5.27576
5.57441
6.45439
5.21307
6.364
6.30362
6.32963
5.86163
4.26373
5.14979
6.95754
4.11984
4.16724
3.3862
6.55566
5.83957
5.75974
3.75106
5.0623
4.11793
3.35893
5.37428
5.35105
5.88134
5.81043
6.67758
4.75375
5.96688
5.02101
6.40271
4.88747
5.12377
5.26079
4.42738
4.30912
4.56026
5.32602
5.16408
5.25301
5.238
5.39576
5.57336
4.88221
5.47838
6.2055
4.41534
4.24901
5.00485
7.0952
6.08535
-73.5823
-78.2198
-63.4403
6.21495
6.23517
4.43836
1.59555
1.02465
6.20042
4.18454
3.85179
4.9527
4.35465
2.93138
3.70444
2.20814
4.19955
4.68787
4.13799
5.43781
4.57747
4.72157
4.86373
5.42815
5.73848
5.58104
5.52798
4.29381
5.32766
5.6943
5.12045
5.48361
5.25983
4.3901
3.46665
3.93144
5.92099
2.07381
2.1887
3.98075
2.74103
3.26817
3.13197
3.69128
6.93412
6.45955
5.28382
5.02398
3.8496
5.727
4.18024
4.39526
5.46644
5.78985
4.50515
6.58231
4.61223
5.10252
5.18318
4.39265
3.52649
5.38402
6.04984
3.64199
4.09096
2.17323
3.8421
1.71138
6.25156
3.61434
5.64462
4.45037
4.05896
-54.0622
-56.1408
-54.7941
-39.3797
5.31606
-66.3285
3.19469
4.59873
6.8122
-16.6288
4.99696
4.59603
5.0145
5.24083
4.6339
4.7562
-5.59587
-3.9936
-13.5483
-57.1082
5.90442
5.49322
5.88309
6.00306
5.76157
5.12337
6.49736
3.7867
2.81416
5.45405
4.41586
5.048
4.67316
7.08113
5.52918
6.18481
5.42752
5.4051
5.49055
5.74711
5.39228
-20.857
4.1027
3.8207
4.17505
-36.4512
-41.8279
4.06157
3.76395
-51.5529
-54.2443
-55.4526
4.65813
3.1347
-47.1452
-1.67019
-1.29539
-4.07311
-3.15914
3.99822
-2.79946
5.76638
2.90612
5.56988
5.00864
1.57997
3.1386
4.98767
-52.5617
4.29228
-68.2014
5.58092
6.50388
6.33085
7.09963
6.08685
5.06533
4.72406
4.46592
3.15473
1.79185
1.3172
3.44853
2.69726
6.52704
5.83319
3.7031
3.36653
5.78297
5.15212
4.79468
5.54839
2.98319
4.50943
4.20213
4.71022
5.82793
4.14818
4.30647
6.28963
4.59274
4.57283
6.46403
3.66108
3.0622
-3.78194
3.71201
4.80284
5.98417
4.69558
5.85323
3.66702
5.17518
5.0176
4.88097
3.643
3.33998
4.83106
3.82688
6.07627
5.38869
5.64774
5.01667
3.332
6.90333
2.21215
1.50162
6.48606
5.83337
6.77628
5.91141
6.5182
7.07128
6.29532
5.28622
6.29827
2.91514
5.07498
-16.058
-4.28121
6.64889
5.88225
5.3859
4.92303
-45.317
-55.226
4.6068
6.31798
6.20655
6.0641
3.15029
3.92151
4.71161
6.13016
6.92955
6.53366
5.90255
4.8064
6.56094
5.98718
4.61047
5.3935
5.1118
3.90679
4.49537
5.6218
3.95802
4.13006
5.00767
4.61665
3.84104
5.46791
-59.6788
-63.111
5.64009
5.20601
5.9203
5.21499
3.94158
-61.5277
5.01499
5.55826
1.08433
7.04324
2.44363
-14.0503
5.33922
4.46332
-39.5937
5.83501
-66.4414
-69.3684
5.38627
4.33861
5.54941
4.39899
5.51603
5.68042
4.20338
6.37956
5.10603
5.42222
6.05906
6.13852
5.08462
5.42859
5.21365
-7.83689
-36.0222
-3.46846
-10.7722
-2.87101
-48.3212
5.57292
4.91767
5.68196
5.87306
-40.4251
-53.1189
6.54963
-27.6633
-67.0724
-2.16411
1.04883
6.01805
-15.9763
-8.10863
4.56758
6.49467
6.34823
-28.6421
5.99033
6.5849
5.27713
5.58965
5.82712
6.51793
5.1599
5.44729
3.45158
6.22328
3.96119
5.02958
6.54932
5.69139
2.87534
5.17951
-70.146
4.64901
5.76905
5.92534
5.46253
5.45116
5.22378
6.72003
6.14448
-36.4612
5.24858
6.461
5.6606
6.15562
6.28999
6.14265
5.90991
6.38904
5.47481
5.72746
6.30768
5.41839
5.84055
6.20779
5.95608
6.96141
6.71778
4.83118
3.54787
3.9233
4.42627
4.52152
4.36329
-46.7319
-50.1988
-59.9811
6.324
-17.7136
-1.1183
5.90915
2.41748
-50.0928
-47.5938
-49.9594
-51.1125
-56.4433
-52.8724
-45.8782
-48.4485
-38.1525
2.50239
-9.55357
-43.8144
-41.0162
6.74342
-33.5255
6.17055
6.75272
7.2575
6.42351
6.48599
6.48903
6.3133
6.57117
6.20687
6.25849
5.51031
-79.2332
-68.0549
-53.8005
6.13457
5.88323
5.32699
7.03816
6.12664
6.13739
6.3196
5.47771
4.80311
4.96405
5.76448
-32.2016
-69.0666
-32.9641
6.27525
6.07401
6.53922
-32.0771
4.17345
4.43166
2.70163
5.85705
5.42873
5.37542
3.48791
4.26193
5.0573
4.979
3.90491
3.57018
3.79181
3.8544
5.25854
4.66784
3.61592
3.49443
5.97851
5.04929
4.90664
3.58134
2.56408
4.67079
3.8133
4.54237
5.86137
3.81486
4.0702
6.73631
4.50365
5.09411
3.1121
3.12112
4.10869
4.01927
4.50154
5.82226
5.20934
6.21257
5.57221
5.05487
5.10955
6.03891
5.24045
5.61961
4.08727
5.44258
3.54037
4.76629
4.11573
-0.354285
4.49922
5.84099
4.35409
4.62368
5.39415
5.72617
3.17713
4.77059
4.05193
3.53989
3.40108
3.61941
4.65242
5.37275
2.35736
3.20027
2.53497
6.01282
4.14179
4.731
5.51824
4.12707
3.71042
7.09132
5.97868
4.06655
5.08979
4.52092
3.81794
6.45376
7.38577
5.31302
3.71695
4.48863
4.87093
5.28365
4.86535
6.48037
5.03521
5.69625
6.86238
5.56957
6.63909
5.15034
5.82992
5.61602
4.33312
4.50399
3.98359
3.09766
5.57967
3.63412
4.5905
5.84549
5.71364
5.62907
5.91915
5.63603
5.71994
7.75748
4.92228
5.70495
6.44948
4.01279
3.4988
3.97194
6.46839
5.99406
5.30049
4.20831
4.23876
5.66587
4.24081
5.08564
4.39975
3.15697
3.1953
4.73674
4.42776
3.57283
2.66912
4.87522
4.12983
6.1063
5.25573
7.54111
4.57248
4.82973
7.26019
3.09548
7.43526
6.63023
5.55639
5.3492
6.56808
6.9579
6.25526
4.42948
5.21886
4.26162
2.89093
4.67094
4.21407
5.60362
5.45213
5.58291
5.70574
5.18326
5.87483
6.32059
5.44869
6.24676
5.75758
5.61559
4.50308
4.77253
5.46408
2.2616
4.3847
3.875
4.13968
4.309
5.07172
5.27018
3.97784
5.90131
5.40092
-43.2258
-43.9249
-53.6214
4.63344
4.28667
-45.218
3.68016
-31.4068
-56.9056
4.24182
-46.5576
3.99753
5.01837
2.63006
7.03457
4.00733
3.91671
6.38729
6.04687
6.22226
4.30157
3.39879
3.83517
2.7755
5.87982
6.39661
-65.6134
5.94805
6.24984
7.17715
-17.0556
-6.70613
-21.1551
-64.2847
-70.2994
7.20793
-46.32
4.90702
5.76581
-52.3558
-67.1859
-65.4551
-59.0438
4.79619
6.53362
5.34273
6.65354
6.04879
5.01118
4.58875
5.20499
4.99106
3.75285
2.71478
2.64019
3.10472
6.27574
5.38415
3.31069
4.1532
-65.052
6.39216
4.95809
4.2865
6.03536
4.57197
5.13381
4.49839
5.75726
3.58982
5.00016
-49.9939
4.80676
-48.5483
3.95549
2.50529
-43.5056
-49.3373
5.03446
-48.397
5.53411
4.66153
-42.6629
3.18641
3.99217
3.79284
4.47791
7.5946
4.81699
5.99992
4.47532
5.58819
-43.7314
-48.7947
-49.1064
-49.3022
5.61108
4.25284
4.12818
5.93084
4.81134
-54.9966
4.99574
6.42085
3.22239
-1.52873
7.3489
-37.0025
-0.10189
6.04088
-3.66272
6.67368
4.45856
5.33946
6.40499
6.29004
6.20103
2.8576
6.32433
6.32699
6.38246
6.02731
-69.3662
-42.5618
-28.7514
4.15842
3.49582
1.95542
5.86059
6.83594
6.94963
5.93743
-39.4931
-53.9721
5.72165
-21.7493
1.1952
6.55227
6.66713
6.02504
5.09417
5.35015
-3.72138
3.867
1.70131
1.01346
3.7589
2.82817
3.27543
3.56381
4.94894
3.49122
2.90153
2.8017
3.98248
2.05932
-43.1752
-44.8692
-45.6711
4.91192
5.24178
4.9106
5.40992
3.76722
4.41999
4.20585
5.65422
5.95646
5.07126
-37.9575
3.7447
4.59252
-50.6213
5.73007
4.46575
5.37918
4.29438
5.15065
4.31748
5.06961
5.5368
3.36019
3.35351
4.44367
2.22276
2.55008
5.7386
3.97673
4.79301
3.48285
5.56331
5.34442
6.51926
-3.05212
4.15983
4.96187
-11.0369
2.45231
4.70902
4.01929
3.0881
-40.675
-74.5619
-50.1887
-40.3816
-48.1
5.41243
5.39813
5.09532
5.24202
5.34417
6.04289
4.14506
2.32224
4.68383
-11.475
-5.31027
5.10744
5.75794
5.24512
6.47242
4.1747
4.60681
4.84635
0.785805
5.41271
5.99666
6.55923
3.45518
5.74514
3.11301
5.61194
5.84542
6.1572
-22.4849
-21.3784
-21.4502
-16.0164
-47.664
-11.1901
-3.06141
3.20646
-66.3111
4.29787
4.71307
4.55239
5.22377
-1.59517
-0.73763
6.24775
2.06882
-46.2978
-45.5546
-74.1843
6.43434
6.40058
-53.0452
-55.8082
6.1494
4.7204
6.20349
6.77398
6.32937
6.30946
6.24265
6.68745
5.65874
5.48127
5.21033
6.04313
6.03904
6.63974
6.06444
6.04684
6.28865
4.56181
7.25584
5.11887
5.79148
6.10199
5.10708
4.86687
4.64737
5.18877
0.763178
-3.63916
1.62067
5.46204
4.1932
4.36463
3.84958
4.29855
5.04987
5.86674
6.31874
6.59258
5.70823
6.26255
5.90672
5.95493
6.21705
4.88103
6.21485
5.89901
6.07683
6.48523
5.27847
6.28178
5.8237
5.69347
4.73832
6.72047
6.69753
4.96953
3.73849
5.94417
6.28292
6.40323
4.02691
1.53494
4.28418
4.72797
1.86484
3.89775
3.65892
5.39378
3.8726
6.55566
7.02492
6.31187
4.95077
4.98557
2.47579
3.11791
4.49905
6.36201
5.70027
-53.6621
-50.8609
-49.9536
-48.6835
0.9136
1.66308
3.85658
4.32558
5.96109
6.98921
4.84135
6.64447
6.37114
7.00261
5.79672
5.02731
5.30945
4.09416
3.92252
4.82343
5.14998
5.9122
4.54387
4.32202
3.50301
4.89998
3.79648
4.00943
2.18154
5.16588
4.60668
4.23122
4.39386
4.18534
2.36273
-80.9507
-54.5563
-51.3381
5.30174
6.12637
4.85845
5.11597
6.05234
4.68754
5.20064
5.83529
-25.105
5.36414
4.16468
4.69003
4.46425
4.89021
4.39996
5.88927
4.57111
5.48909
4.77034
4.44468
7.82565
4.50435
3.89608
3.80677
-46.0636
-50.415
-53.2719
-10.8679
3.28384
4.46536
5.75024
6.09734
-19.5073
5.19416
2.66155
4.7
5.48873
3.76028
4.94607
4.57713
5.66383
4.21329
4.2432
3.19125
2.24573
3.82332
4.13965
3.58599
4.8656
4.76066
4.78336
5.7206
4.87594
4.46151
5.3021
6.55791
5.09644
3.98105
5.40586
3.19473
3.12498
4.89845
2.71502
4.49478
6.56982
5.43511
4.40898
5.34095
6.09103
5.04715
4.72299
5.29487
4.14286
6.74152
5.02755
3.96325
5.37474
4.43804
5.59893
2.94098
5.04776
4.83684
4.46326
4.79792
5.40646
3.74615
3.90127
4.72561
4.11319
4.34903
3.22361
5.53119
5.175
5.12232
5.44445
5.39581
2.85606
5.11113
3.91555
5.81741