/*--------------------------------*- C++ -*----------------------------------*\
| =========                 |                                                 |
| \\      /  F ield         | OpenFOAM: The Open Source CFD Toolbox           |
|  \\    /   O peration     | Version:  2506                                  |
|   \\  /    A nd           | Website:  www.openfoam.com                      |
|    \\/     M anipulation  |                                                 |
\*---------------------------------------------------------------------------*/
FoamFile
{
    version     2.0;
    format      ascii;
    arch        "LSB;label=32;scalar=64";
    class       volVectorField;
    location    "0.01535";
    object      U;
}
// * * * * * * * * * * * * * * * * * * * * * * * * * * * * * * * * * * * * * //

dimensions      [0 1 -1 0 0 0 0];

internalField   nonuniform List<vector> 
3946
(
(10.0927 -0.0480409 0.0748348)
(10.1171 -0.026298 -0.52457)
(10.1224 0.307119 -0.140782)
(10.0368 0.127271 -0.0110845)
(9.79858 -0.104428 0.0942188)
(9.58474 0.0814106 -0.0857335)
(10.2314 -0.0342246 0.214223)
(10.1253 -0.18074 0.138125)
(10.0269 -0.0252408 0.167226)
(10.0942 -0.0843353 -0.250641)
(9.72662 0.181537 -0.174338)
(10.1599 0.132216 -0.0815483)
(9.82732 0.785843 -0.809632)
(9.75205 -0.170532 -0.0820908)
(10.2015 -0.110394 -0.11527)
(10.092 -0.303651 -0.186493)
(10.0358 -0.0472571 0.292575)
(9.94663 0.0242772 -0.111545)
(9.87291 -0.0883036 0.0781796)
(10.0582 -0.00117789 -0.0165108)
(10.0913 -0.0080622 0.077158)
(10.0874 0.13471 -0.0810608)
(10.0249 0.0227871 0.174705)
(9.88798 -0.149495 -0.368655)
(9.8868 0.12983 -0.0896567)
(9.97496 0.0464006 0.00634237)
(9.94642 -0.210783 -0.705897)
(10.5673 0.19561 -0.27971)
(10.0036 -0.0277885 -0.034699)
(10.0301 0.0204505 -0.0748889)
(10.0862 0.0474617 0.00632034)
(10.1213 -0.0167746 -0.266408)
(10.0593 -0.19513 -0.068698)
(10.2195 -0.111194 0.16629)
(9.74395 -0.181846 0.077949)
(9.99555 -0.0840116 0.0672519)
(9.54292 0.280282 0.331335)
(10.0172 0.1215 -0.247891)
(9.97798 0.00551386 -0.092827)
(9.74199 0.167583 -0.415775)
(10.0325 0.0835402 -0.306281)
(10.0984 -0.117013 0.0102172)
(10.0372 -0.27252 -0.0389127)
(10.0666 0.22749 0.0869553)
(9.83267 0.0397687 0.0486315)
(10.2162 0.172129 0.216547)
(10.0161 0.0619241 -0.121775)
(9.63869 0.134368 0.0875184)
(10.1174 0.0883702 0.01464)
(10.1046 0.0692694 0.0367354)
(9.97724 0.0598663 0.0148319)
(9.82331 0.0350143 -0.123562)
(10.2448 -0.0392861 -0.0472729)
(10.1037 -0.213319 0.00631997)
(10.1448 0.123782 0.0127773)
(9.94469 0.0795327 0.0320548)
(9.87487 0.00903514 -0.0856498)
(9.8069 0.115917 -0.0273573)
(10.195 -0.0784148 -0.319039)
(10.0421 0.0794774 0.104132)
(10.144 0.00848319 0.171713)
(-0.219764 1.47586 1.07882)
(10.1179 -0.0713158 -0.121417)
(10.0701 0.136223 -0.0306153)
(10.0125 -0.119316 0.254748)
(-0.288302 1.10165 0.991189)
(-1.06799 1.17122 1.2707)
(0.101141 1.06409 0.448164)
(-0.0940262 1.45741 0.926818)
(10.157 0.596595 -0.261435)
(9.96305 -0.116508 0.118812)
(9.96506 0.2386 0.405777)
(10.2705 0.320541 1.20376)
(10.1764 0.121535 0.11361)
(9.80723 0.040051 0.252313)
(10.0646 -0.174814 0.0510305)
(9.88258 -0.0387436 -0.109157)
(10.0647 0.0754109 -0.0539912)
(10.2041 -0.196096 0.091784)
(10.0742 0.277394 -0.0910966)
(0.143891 0.996632 2.03286)
(10.8615 0.0209204 0.522996)
(9.90571 -0.0582434 -0.0330268)
(9.51094 -0.0491563 -0.373358)
(10.2293 0.204916 -0.116309)
(-2.56282 0.456942 0.262559)
(9.82119 0.512832 -1.56063)
(-0.310818 1.59772 1.19285)
(-0.271107 1.38532 1.49803)
(0.205561 1.17754 1.75348)
(5.13297 1.13525 -2.16499)
(-1.53481 1.31498 2.32568)
(10.2587 -0.0550548 0.0984659)
(9.84019 -0.0873957 0.000826708)
(9.74697 -0.0759203 -0.0926616)
(9.94444 -0.103019 -0.223618)
(10.1226 -0.031908 0.110829)
(9.99988 -0.107981 -0.0714282)
(10.3019 0.0972431 0.241801)
(10.0863 -0.045751 0.140117)
(10.0838 0.184266 0.0788122)
(10.124 -0.271945 -0.307715)
(10.2275 -0.161913 0.108867)
(6.09803 1.14511 -2.09)
(10.1662 -0.00730164 0.0675708)
(10.0432 -0.0300524 0.106048)
(8.01111 0.339787 -0.544961)
(9.93355 0.382812 0.0471185)
(10.2499 -0.0112505 -0.0433898)
(10.2878 0.0203459 -0.334856)
(10.1379 0.0128844 0.0737526)
(10.0808 0.202417 -0.0320586)
(9.93451 -0.0682736 0.302637)
(10.1604 -0.055729 -0.181112)
(10.0554 0.0626714 -0.123776)
(10.0791 -0.0908557 0.136523)
(10.7358 0.0447753 1.03669)
(10.1391 0.309168 -0.155749)
(-0.435547 1.4982 0.639088)
(-0.588922 1.57609 1.08422)
(9.99158 -0.280686 0.0217016)
(10.0046 -0.0962146 0.155591)
(10.0949 -0.194852 0.16464)
(9.89953 0.406116 -0.0176724)
(10.1786 -0.179699 0.0223924)
(9.80741 -0.113006 0.129094)
(9.97352 0.233169 -3.42422)
(10.1752 0.418509 -0.926572)
(9.89868 -0.288142 -0.0745016)
(9.84802 -0.0491777 0.196636)
(9.98035 -0.0557017 0.0485633)
(13.686 -0.616054 0.0987431)
(10.0008 -0.0993042 0.134925)
(10.0313 -0.0518544 0.0791357)
(10.0292 -0.0756348 0.0576262)
(8.4166 -0.0211325 -0.625616)
(10.2715 -0.00689009 -0.328435)
(-1.86871 0.796133 -2.06875)
(10.143 0.0698109 -0.0945176)
(2.00327 1.14093 -1.74857)
(11.9836 -0.122139 -3.3012)
(4.06033 -0.0519526 -2.27943)
(-1.05698 1.9715 0.0290451)
(10.0005 0.0026903 0.0923844)
(10.9807 0.204068 -0.292366)
(9.96575 -0.00787006 0.149426)
(9.99524 0.12028 -0.0825914)
(9.95914 0.163764 0.0600194)
(9.81166 0.198699 0.0632025)
(9.14872 -0.361324 0.378117)
(9.65957 0.342362 -0.144998)
(10.2108 0.1978 -0.975934)
(10.0266 0.0220362 -0.0339862)
(9.79573 0.113301 0.0146509)
(10.1978 0.00908678 -0.0186916)
(10.0047 -0.083097 0.0508097)
(10.0009 -0.247089 0.17503)
(10.1137 0.017268 -0.00678452)
(10.0322 -0.219854 -0.395695)
(10.0615 -0.0105401 0.0403169)
(10.0102 0.0145006 -0.00292809)
(10.2316 0.290338 0.0260702)
(10.8707 -0.0787129 1.16999)
(10.0051 0.236044 0.0431748)
(9.99646 0.111946 -0.092404)
(9.95831 -0.0380866 0.000472616)
(10.1829 0.102112 0.00313414)
(10.2469 0.0882111 -0.0347574)
(10.1487 -0.0156419 0.155864)
(3.19339 0.0781198 -1.02977)
(10.0743 -0.331783 0.230734)
(8.53724 0.215088 -4.38217)
(10.1543 0.0800951 0.12538)
(10.087 -0.0925431 0.122352)
(10.0142 -0.110613 0.113198)
(10.0005 -0.153249 0.196489)
(10.2304 -0.0217229 -0.086545)
(9.74053 -0.0259198 -0.183639)
(9.82235 0.237197 0.039265)
(9.50371 0.0225169 0.401956)
(9.92957 0.00375236 0.0719882)
(9.78196 -0.213498 -0.0537981)
(9.99261 -0.0916319 0.0266478)
(10.1315 -0.0382914 0.102512)
(10.2839 -0.0255034 -0.0146042)
(10.3538 0.0639903 0.0622053)
(9.802 0.0645833 -0.106999)
(10.2335 0.144683 0.0661015)
(9.77595 0.150188 0.0207693)
(9.97406 -0.012272 -0.162402)
(9.2148 0.323266 -0.265071)
(9.93799 -0.142258 -0.218233)
(-1.07166 1.84443 0.39403)
(9.89156 0.0986741 0.0682646)
(-1.24617 0.855733 1.31367)
(-0.852053 0.849848 1.70358)
(-0.762171 1.05903 1.80205)
(10.0554 -0.00205761 0.0096851)
(9.9717 0.0850774 -0.0649024)
(9.97156 -0.0500235 -0.161874)
(10.0454 0.00292259 0.13275)
(9.95483 0.163085 -0.0657727)
(10.1436 0.00294173 0.0399902)
(9.96776 0.235464 -0.053422)
(10.033 -0.0344223 0.0901669)
(9.91774 0.0546505 0.0966519)
(10.0475 0.253693 -0.0398623)
(10.0565 0.203547 0.276308)
(9.90354 -0.00038637 -0.0225141)
(9.97894 0.357186 -0.312187)
(10.1011 0.270927 -0.178026)
(10.0722 0.26678 -0.0379224)
(9.74751 -0.00149463 0.0253992)
(9.75636 -0.164618 0.219907)
(9.52654 0.0534155 0.355956)
(10.0159 0.0843688 0.0442032)
(9.81003 -0.175873 0.14106)
(9.89067 0.0131057 0.104309)
(9.88251 -0.0552194 -0.0485206)
(9.92065 -0.00547545 -0.184305)
(-0.186335 2.20897 0.881535)
(-0.849971 0.708676 0.965361)
(9.9403 0.0283545 -0.143668)
(10.0817 -0.310964 0.310524)
(10.1158 -0.0832967 0.111614)
(-0.236567 0.59393 0.537183)
(-0.316757 0.636298 0.43666)
(10.103 0.337437 0.524867)
(9.92423 0.0791909 0.169491)
(-0.296189 0.539086 0.459342)
(10.5136 0.0162094 0.232347)
(10.2461 0.248527 -0.0285338)
(10.0714 0.00862127 0.0052603)
(9.4778 0.381404 -1.01061)
(10.0649 0.0270229 0.249851)
(9.80873 -0.0673975 -0.17374)
(10.0764 0.17544 -0.126384)
(10.1732 0.245778 0.0273539)
(10.0583 0.105789 -0.181205)
(10.0704 0.106857 -0.0228559)
(10.0959 -0.176661 -0.0160501)
(-0.18913 2.02358 1.00605)
(-0.355667 1.76693 0.623403)
(0.0381802 1.6866 -3.84153)
(10.1755 -0.0684188 0.00455935)
(10.116 0.13047 0.145046)
(10.2229 -0.0712173 -0.12927)
(10.0389 0.0196373 -0.0120701)
(10.305 0.347479 -0.0930343)
(10.1804 -0.0397588 -0.112603)
(9.99944 0.0137501 0.109237)
(1.62167 0.362309 -2.16534)
(10.4205 -0.029018 0.0669378)
(10.6406 -0.0992972 0.234958)
(9.68734 0.248352 0.142906)
(10.2677 0.139139 0.018604)
(9.97371 -0.0895585 -0.236955)
(10.2389 0.150519 0.116732)
(10.4695 0.8261 0.427466)
(9.98463 -0.106925 0.0731704)
(8.75963 0.305027 -0.0106308)
(-0.182922 2.03972 0.725122)
(-0.322022 2.29791 1.11429)
(10.0685 -0.200455 0.0658776)
(10.037 -0.287323 -0.194945)
(9.97936 0.0751202 0.109063)
(9.82695 0.0601432 -0.0224682)
(9.97224 0.00766626 0.185936)
(9.96458 -0.0210927 0.0147166)
(9.97704 0.0125 0.234897)
(9.95779 -0.205614 0.248453)
(9.67351 0.0207722 0.268814)
(9.95176 0.0728828 -0.030475)
(10.2596 0.0688433 0.0154082)
(10.3754 -0.0716888 0.0591308)
(10.4075 0.0313302 0.0187317)
(10.4346 0.0339556 0.0246812)
(10.1644 -0.00310592 -0.0208284)
(10.2011 -0.15866 0.0347712)
(10.1775 0.407395 -0.209701)
(10.363 0.397743 -0.123404)
(9.81541 -0.171562 0.0108477)
(9.8649 -0.206662 0.126243)
(9.98298 0.223511 0.0282157)
(10.0001 -0.0786171 -0.0881215)
(10.0815 0.203531 0.202947)
(9.85894 0.280607 -0.298406)
(9.9562 -0.232292 -0.176426)
(9.81997 0.442116 0.652917)
(9.91947 -0.114975 -0.151719)
(10.0266 0.0719472 -0.330342)
(9.97245 -0.177449 -0.184451)
(9.89789 -0.0931632 0.0849638)
(10.3175 0.0641397 -0.195671)
(10.1241 -0.099815 -0.0962285)
(9.87975 0.188623 -0.704902)
(10.1664 0.229341 -0.302852)
(10.3203 0.149488 -0.291526)
(9.98042 -0.0235989 0.0656046)
(-0.158782 0.957253 1.24337)
(9.96294 0.128966 -0.019752)
(-0.507168 0.929086 1.06108)
(-0.07635 0.882887 0.569565)
(-0.775041 0.901815 1.73093)
(10.1859 -0.00160917 0.100843)
(10.0863 0.305829 -0.069171)
(6.27276 1.10173 -3.42655)
(7.73322 1.25414 -1.88176)
(9.64612 0.0115547 -0.101095)
(-0.0633743 2.18944 0.653099)
(-0.313288 2.38615 0.971653)
(-0.434915 1.44112 1.62379)
(-0.871334 1.45397 0.326446)
(-0.459581 1.26964 -0.000718952)
(10.0897 0.178596 0.0385633)
(9.72855 1.1595 -0.48636)
(10.0964 -0.0162478 0.167498)
(10.2446 -0.116567 -0.273217)
(10.1574 0.0868484 0.228306)
(5.10257 0.784904 -3.80488)
(9.70966 -0.0138574 -0.199035)
(0.365986 1.11981 -2.89351)
(10.0374 0.0850535 0.0863084)
(9.69511 -0.0601361 -0.625943)
(10.0121 0.0459506 0.0705299)
(9.91071 0.112506 -0.217776)
(10.1617 -0.140785 0.0627878)
(9.91654 0.020487 0.357103)
(9.45964 0.0968753 -0.557649)
(9.74931 -0.103309 -0.0627839)
(9.98646 -0.210477 -0.295798)
(10.0789 0.116391 -0.0421075)
(10.0365 -0.153221 -0.0303868)
(-0.361065 0.110587 -3.20142)
(-2.28569 2.53948 -1.20146)
(9.95958 0.0585985 -0.125904)
(9.92805 0.193629 -0.146598)
(-1.17964 2.32443 -0.191505)
(-0.680021 1.04553 0.200874)
(-1.15447 1.84312 0.292684)
(9.95299 0.316322 -0.0667327)
(-1.77273 0.571833 2.81444)
(-1.35899 0.837866 1.36498)
(10.2466 0.145403 0.0771308)
(-1.90594 2.02633 -0.422993)
(10.5844 0.149514 1.5114)
(9.81756 0.327647 -0.128788)
(9.92875 0.0876754 0.0414278)
(5.464 1.22702 -0.804526)
(-1.70382 1.76806 -0.582244)
(-2.24306 0.719368 0.551478)
(9.35727 0.0269002 -0.153377)
(2.13704 -0.226314 -1.09782)
(9.97211 0.294995 0.10539)
(-2.52164 0.452513 0.583244)
(-0.65004 0.351691 0.171142)
(6.30444 0.923789 -1.99076)
(9.88274 -0.0700161 0.16086)
(2.04754 0.65126 -3.7118)
(-1.3572 0.41539 -0.0620988)
(9.91299 0.0674637 -3.24563)
(3.15974 0.5196 1.84699)
(10.2745 0.114152 -0.0036148)
(10.8685 0.0915756 0.457619)
(-2.58857 2.12555 -0.343233)
(-1.90222 2.19311 0.0367604)
(9.77638 0.491387 -0.949814)
(-2.4715 1.67406 0.681158)
(-2.2096 2.54817 0.899701)
(-0.896078 2.02848 2.18947)
(-1.20625 1.72357 0.417923)
(-2.08522 2.67233 0.433371)
(10.1252 -0.15175 -0.0909784)
(9.98712 0.172353 0.131196)
(10.1298 0.0394654 0.0719684)
(10.0155 0.142978 0.0348883)
(10.1542 0.128061 0.164709)
(10.0093 -0.150338 -0.0112288)
(10.2164 0.0374183 0.587694)
(5.79217 0.278175 -1.4323)
(10.361 0.210699 0.110617)
(10.6754 0.146909 0.464147)
(10.1881 0.142462 0.134837)
(9.9901 0.297617 -0.00560221)
(10.1649 0.704766 -0.333564)
(10.1154 0.274885 -0.169713)
(10.113 0.0994557 1.49443)
(9.75171 0.531621 -0.205039)
(9.63085 0.359954 0.0324928)
(10.2997 0.139639 0.114343)
(5.30956 0.8216 -4.02454)
(10.0965 0.0671925 0.0631905)
(10.2421 0.126461 0.0297115)
(-1.23866 2.31329 0.216232)
(10.3331 0.671943 -0.235038)
(0.310532 2.16347 1.579)
(10.2275 -0.0409367 0.0903644)
(10.5371 0.227635 1.40789)
(9.36758 0.594837 -0.156491)
(10.1096 0.30858 -0.102755)
(9.93298 0.60249 -0.134465)
(10.0018 -0.0481312 -0.20818)
(10.3228 0.0592004 0.00609745)
(10.0061 0.0419084 -0.16373)
(10.3159 -0.0691956 -0.119787)
(10.1058 -0.104146 0.22435)
(8.81474 0.458181 -1.0001)
(9.97082 0.391479 0.0446601)
(9.98703 0.262697 -0.0174532)
(10.0908 0.14607 -0.0177704)
(8.89151 0.438598 0.238538)
(9.99683 0.164677 0.0403868)
(9.67817 0.093117 0.278164)
(10.3867 0.0402613 0.110245)
(10.3564 0.178432 0.05774)
(10.4042 0.00641013 0.134592)
(9.97519 -0.00713714 -0.1255)
(10.1474 0.067176 -0.0607554)
(7.10796 0.669184 0.387211)
(10.2976 0.249513 -0.339465)
(9.93782 0.0521502 -0.00296462)
(6.64731 0.916366 0.0575434)
(10.0186 0.0882152 -0.08124)
(4.95818 1.49456 -3.34443)
(9.9236 -0.134756 0.32171)
(10.0479 -0.148618 0.275784)
(9.91035 -0.072995 0.0300993)
(9.96065 -0.0318639 -0.0802227)
(9.9596 -0.0437376 -0.00620896)
(10.1087 -0.133405 0.0233452)
(9.88634 0.0506882 0.160746)
(9.98298 0.261392 0.404947)
(10.0756 -0.0720147 -0.293473)
(10.1604 -0.125458 -0.147502)
(9.90346 0.347906 -0.529081)
(9.95339 -0.0807488 0.0204955)
(9.9967 0.172361 0.152423)
(10.0234 -0.101187 0.0119668)
(10.422 0.0022655 0.13249)
(10.1677 0.293159 0.112277)
(10.1141 0.305925 0.121484)
(10.1085 0.303277 0.130932)
(10.1744 0.249638 0.1765)
(10.2515 0.260566 0.11566)
(10.2052 0.154715 0.0840994)
(2.36045 0.583977 0.440078)
(2.65874 0.88472 -3.28514)
(9.79898 0.36936 0.150755)
(10.1835 0.238719 0.190133)
(10.0036 -0.0110457 0.0442578)
(10.1094 0.0763649 -0.0898422)
(9.81834 0.289603 -0.0890408)
(10.0718 0.270364 -0.0042885)
(10.0292 -0.0361024 0.0357537)
(10.1792 0.184657 -0.13395)
(9.98095 0.107707 -0.161032)
(10.5848 -0.0106884 0.0121087)
(10.1309 0.192359 -0.158459)
(10.0291 0.130992 0.076162)
(10.0434 0.0987424 0.0987886)
(9.3849 0.150709 -0.469366)
(9.88399 -0.0322783 -0.134373)
(-0.233193 0.465001 1.94499)
(10.2654 0.163171 -3.10105)
(2.95254 0.908795 -3.54548)
(4.84405 -0.0257765 -4.59765)
(9.96698 0.00242536 -0.102327)
(9.8236 0.150634 -1.08071)
(2.41547 1.19366 -3.54335)
(10.8775 0.0406435 0.981652)
(10.3899 0.154295 1.11838)
(9.20919 0.342161 0.689885)
(9.63055 0.328839 0.10444)
(9.90475 0.144927 -0.0229242)
(10.1458 -0.188614 -0.00792365)
(9.99172 -0.243986 0.185166)
(9.619 0.516959 -0.1616)
(10.1506 0.172508 -0.0524346)
(10.3243 0.416393 -0.085178)
(10.2032 0.261142 0.0107472)
(-1.73245 1.86274 0.91985)
(6.26499 0.665283 -3.50616)
(7.72121 0.911151 -0.54079)
(9.9475 0.5224 0.0290527)
(9.96244 -0.0717323 0.181202)
(9.99027 -0.0967283 0.0510672)
(9.70983 -0.301341 0.0466453)
(10.0685 0.106863 -0.00737819)
(9.95667 0.269048 0.0118774)
(9.95247 0.277963 0.0332526)
(9.8798 0.26367 -0.0197275)
(9.61928 -0.0642585 0.0418615)
(9.87503 0.187023 -0.113073)
(9.95688 -0.124602 0.0334182)
(10.1139 0.106188 -0.064262)
(9.98832 0.185264 0.0414725)
(10.103 -0.00278529 0.0743218)
(10.3503 0.143144 0.209161)
(9.6593 0.0307615 -0.0033347)
(9.99174 0.31833 0.0593628)
(10.3715 0.254431 0.0284042)
(10.1883 0.0666561 0.117543)
(9.91867 -0.377536 0.3451)
(9.94409 0.0130971 0.127504)
(9.91832 -0.0913027 0.118435)
(10.1608 0.185471 0.105667)
(10.1792 0.208101 0.116095)
(1.39844 0.508816 -2.53264)
(-0.245423 1.06288 2.94957)
(10.0598 0.0186604 0.0271199)
(-0.920889 0.528666 3.58496)
(-2.63179 0.73414 0.961675)
(9.93466 -0.121715 -0.127878)
(9.19016 0.177069 -0.590007)
(10.5183 0.0206572 -0.438911)
(2.1922 1.07351 -2.36304)
(9.61984 0.478196 -0.542308)
(9.57346 0.397074 -0.161994)
(10.3359 0.368977 -0.17669)
(9.89029 0.124112 -0.0643021)
(10.0872 -0.044387 0.0706856)
(10.2214 0.0921233 0.174836)
(10.3552 0.0402789 -0.0425342)
(10.3635 0.107345 0.0251519)
(10.3277 0.0098769 0.0686838)
(10.1761 0.118192 -0.0314625)
(10.1482 0.11989 0.0737304)
(10.1453 0.123092 0.187103)
(9.71959 0.811936 -0.606047)
(5.06468 1.39821 -3.80695)
(-1.70682 0.812533 -0.231493)
(6.24062 0.952247 -1.43931)
(10.0318 0.181709 -0.0257798)
(9.20929 0.535606 -3.18289)
(-1.31665 1.85479 -0.176821)
(6.26575 0.489384 0.785809)
(10.0616 0.0546847 0.0690269)
(10.1376 0.216497 -0.0903658)
(10.2302 -0.215236 0.0483763)
(9.94635 0.03426 -0.0197588)
(10.3343 0.0760839 0.168402)
(10.2918 -0.00670142 0.0960218)
(10.3468 0.0324134 0.184277)
(9.97468 0.133562 0.025073)
(10.0039 0.00627294 -0.0563784)
(10.0022 -0.169771 0.183804)
(9.96559 -0.152039 0.00326017)
(10.069 -0.0712041 0.0235534)
(10.0609 0.420528 -0.0645897)
(9.96304 0.147028 -0.0353265)
(9.98724 -0.0207067 -0.0347684)
(9.9392 -0.0910186 -0.0671234)
(10.0615 0.146319 0.0709047)
(9.87732 -0.198975 0.10542)
(9.90592 0.112388 0.039832)
(9.99629 0.0388115 -0.0234973)
(9.90725 0.162107 0.113376)
(10.1628 0.139 0.0736352)
(9.92443 0.105911 -0.0766071)
(10.2151 -0.110529 -0.141014)
(10.209 0.0636144 0.194465)
(10.0294 -0.0472233 -0.127443)
(9.79589 0.0602596 0.0999006)
(10.1432 -0.0188711 0.19483)
(10.1598 0.00736645 -0.0684805)
(9.99087 0.186369 0.175904)
(9.85496 0.199455 0.67614)
(10.1084 -0.0177484 0.0173743)
(10.0639 0.128244 -0.0664874)
(0.823662 1.49492 -0.398262)
(10.0459 -0.232127 -0.0377795)
(9.84861 0.271965 0.129751)
(9.85689 0.0661454 -0.106702)
(10.084 -0.165835 0.0271072)
(9.99981 0.00105344 0.257439)
(9.94281 -0.0216232 0.0625652)
(9.92722 0.00882768 0.0341806)
(9.93151 0.0803628 -0.0365415)
(10.076 0.0827252 0.114971)
(9.98646 -0.0479224 0.14511)
(9.89097 -0.00186466 -0.171989)
(9.86508 -0.132695 0.0511901)
(10.1309 -0.0419234 0.0471829)
(10.0383 0.0787615 0.0142879)
(10.1256 -0.285177 -0.397488)
(10.1658 -0.00885646 -0.13477)
(10.0187 -0.218785 -0.0392747)
(10.0075 -0.00785212 0.0885185)
(9.99696 0.0535175 0.0107174)
(10.1981 0.000925217 0.0845394)
(10.1597 0.189432 -0.19949)
(10.1563 0.0537926 -0.120037)
(9.94361 0.190777 -0.0526382)
(10.2393 0.0113044 0.397954)
(10.1379 -0.0797071 0.148322)
(9.95983 0.0550635 0.0269739)
(9.95233 -0.116867 0.144109)
(9.93617 -0.0739388 0.0549934)
(9.9476 0.0177582 0.0402153)
(10.4838 0.19861 -1.00166)
(10.0333 0.117916 0.0258109)
(10.0718 0.0757138 -0.0726489)
(9.83972 -0.204164 0.14076)
(10.9729 0.0894008 1.30776)
(9.80525 0.042047 -0.0118768)
(10.0478 0.119054 0.0866587)
(10.3563 0.199262 -0.0511314)
(10.0174 0.0657594 -0.0933349)
(10.4212 0.0266285 0.00591739)
(9.97665 0.0322444 -0.0582694)
(10.0988 -0.0133264 0.16775)
(9.6598 0.248194 0.0165647)
(10.0183 0.270501 0.100154)
(9.73689 0.217165 0.194789)
(9.78862 0.00494288 0.202328)
(10.324 0.0653735 0.0873435)
(10.0272 -0.101296 -0.0109789)
(10.2209 0.166775 0.0316565)
(10.0356 0.265843 -0.0441271)
(9.92301 0.10432 -0.194973)
(10.2376 0.826897 -0.337531)
(1.80126 1.2714 -4.18944)
(0.409235 1.1462 -3.46535)
(-2.72571 0.946197 -0.518553)
(9.94886 -0.176336 -0.304264)
(10.0439 0.312611 -0.104523)
(9.85956 -0.0679504 0.148146)
(10.1037 0.0993966 0.155234)
(9.92319 -0.0130734 0.224606)
(9.92228 -0.0259874 0.112474)
(10.0944 0.186459 0.0636848)
(10.072 0.0559464 0.207382)
(9.33485 0.421473 -0.564176)
(9.43053 0.502669 -1.32025)
(7.99745 0.444895 -1.24002)
(9.00958 0.624059 -2.20284)
(9.93378 -0.181233 -0.232266)
(8.92043 0.497025 -0.689396)
(10.0315 -0.433263 -0.0188466)
(9.26359 0.450487 -0.798204)
(9.98359 0.14635 -0.164438)
(9.62301 0.516509 -0.732978)
(10.0008 -0.115704 -0.0792885)
(10.1345 0.0403912 0.202712)
(10.1123 -0.0513918 0.0632515)
(9.98751 0.111121 0.13688)
(9.90084 -0.0617206 -0.144905)
(9.64881 0.428541 0.278306)
(10.0475 0.316081 -0.236019)
(9.84993 -0.0535948 0.21273)
(10.0127 -0.0128223 0.331992)
(10.1967 -0.0602708 -0.0154975)
(9.86377 -0.182999 0.00506208)
(10.1585 -0.142889 0.0398916)
(9.77748 0.225056 0.0525064)
(10.1758 -0.127268 -0.0560137)
(10.1867 0.179955 -0.0506548)
(10.201 -0.12582 -0.0516458)
(9.98265 -0.187494 -0.0523764)
(10.1138 -0.06732 -0.0292741)
(10.0274 0.0250423 -0.231576)
(10.1271 0.225842 -0.183022)
(9.66918 0.513462 0.151)
(10.1091 0.226222 0.264542)
(9.96547 -0.0239788 -0.0630762)
(10.2085 0.280788 0.305828)
(9.87391 0.344225 -0.135157)
(10.8314 -0.0642944 -0.428945)
(10.2756 0.0892045 0.13571)
(10.0783 0.0427171 -0.069296)
(10.2806 0.252443 -0.0578023)
(10.1355 -0.118827 0.13072)
(10.0243 0.0467059 0.106028)
(-2.52493 2.45535 2.30518)
(-1.4809 1.58782 1.78082)
(-1.10621 1.37752 2.65881)
(10.0648 -0.017003 0.0637227)
(9.9233 -0.002703 0.343633)
(10.4554 -0.498483 0.886061)
(10.0916 0.0904884 0.0309507)
(8.54892 0.0527398 1.03749)
(-1.49114 1.96615 1.92844)
(9.91489 -0.00820505 -0.131173)
(-1.46008 1.6247 2.62087)
(9.8597 0.279252 -0.552265)
(10.1643 -0.29102 -0.21841)
(10.0092 0.0346352 0.229237)
(9.84473 0.0613334 0.0771908)
(10.0127 0.495185 -0.030379)
(10.0586 0.229496 -0.0950842)
(10.0232 0.0540143 -0.0533613)
(10.0466 -0.0981123 -0.219199)
(10.1518 -0.10529 0.144067)
(10.0602 -0.125738 -0.221975)
(10.1096 -0.0739544 0.0993428)
(10.1124 -0.0891749 -0.0211936)
(10.2844 0.138176 2.09749)
(0.884424 -0.0264292 -0.571498)
(10.0197 -0.201667 -0.37027)
(4.42704 0.648916 -0.924042)
(4.25714 -0.0179675 -4.39941)
(9.83954 -0.238155 0.569159)
(9.81313 0.194225 0.127568)
(10.4066 -0.0839939 0.246418)
(10.0659 0.12343 -0.0800134)
(10.0648 -0.00146601 0.0547799)
(9.72425 0.550304 -0.500164)
(9.93033 0.026559 -0.0621991)
(9.69839 -0.255101 0.291627)
(10.1517 0.0233889 0.039489)
(9.8895 -0.198392 -0.184261)
(10.0071 0.319836 0.468123)
(9.45867 0.0282774 -0.374407)
(10.0228 0.0206195 -0.323825)
(9.94638 0.0012564 0.0139271)
(10.2268 0.575333 -0.480694)
(10.0344 0.0440211 0.264883)
(10.1064 0.145998 0.093301)
(10.0218 0.0618576 -0.0596508)
(10.0623 -0.145511 -0.10398)
(10.0741 -0.138622 -0.259209)
(10.0671 -0.00413019 -0.0629038)
(9.96902 -0.0160487 -0.105887)
(9.87114 -0.0745692 0.0817916)
(10.0537 -0.0442011 0.346049)
(10.0524 0.0844564 -0.00828541)
(9.7408 0.590869 -0.229434)
(10.2488 0.780947 -0.389077)
(9.81917 0.27198 -0.241069)
(10.0873 -0.0576801 -0.0615626)
(10.0865 -0.172137 -0.0899467)
(9.90418 -0.130397 0.0255411)
(10.0948 -0.131351 0.0940619)
(10.0094 0.0899598 0.00284185)
(10.201 -0.338192 0.284191)
(10.0066 0.33783 -0.268557)
(9.91507 -0.101227 0.0180714)
(10.2071 0.553443 -0.355918)
(9.97057 0.00909132 -0.187827)
(10.0665 -0.0200713 -0.162759)
(10.053 0.181171 -0.236283)
(10.1163 -0.0999666 0.0746931)
(10.0185 -0.0410874 -0.0220233)
(9.79447 -0.238289 -0.169099)
(10.0744 0.368509 -0.0769768)
(10.0295 -0.0886657 0.0169064)
(9.91608 0.27271 0.119865)
(10.392 0.164579 0.02966)
(9.99486 -0.0497003 0.359337)
(9.72824 0.0811812 0.316401)
(-1.58197 0.822867 0.942048)
(-1.98261 1.55594 -1.35512)
(10.0257 -0.000272938 -0.238551)
(0.525193 0.33095 -1.58331)
(0.111894 1.41502 -2.42177)
(0.767866 0.607729 -2.90763)
(0.0933558 0.831737 -0.895585)
(9.85884 -0.124784 0.150039)
(-0.565593 0.56391 2.58048)
(-2.73248 1.59342 0.773214)
(-2.22135 2.16334 0.369938)
(8.44388 0.648047 1.11242)
(10.1025 0.583718 0.0184865)
(9.80537 0.0213801 -0.0919399)
(10.4222 0.457587 -0.0843566)
(10.1625 0.0161876 0.0766521)
(-0.659665 1.06449 0.425079)
(10.2365 0.0212946 0.433295)
(10.5684 0.0503159 0.800671)
(10.4012 0.0536368 0.906413)
(10.1778 -0.0225836 0.721177)
(10.0523 0.163869 0.108205)
(9.978 0.250177 0.0018192)
(-0.971596 0.874644 -1.38348)
(-1.14841 0.855701 1.53776)
(5.22216 0.520339 -1.2633)
(-0.771233 0.834224 1.59165)
(-2.33331 1.19657 1.22406)
(-1.42929 2.53217 1.49742)
(10.0698 0.274867 -0.00985)
(10.3419 0.144632 0.221337)
(10.011 0.131412 0.00443654)
(9.90434 0.22594 -0.2199)
(10.3763 0.00211036 -0.0261253)
(9.95242 0.108356 0.124602)
(10.0508 0.0430591 0.0515905)
(10.347 -0.0122184 0.012173)
(10.1024 -0.139462 0.141836)
(10.1157 0.235774 0.0374144)
(10.0579 0.208319 0.0999669)
(8.98728 -0.0239146 1.93603)
(10.0908 -0.0151519 0.0520145)
(9.95772 0.0154075 0.102015)
(9.91637 0.15546 0.0296228)
(9.9915 0.0187915 -0.0983436)
(9.77483 -0.0421683 -0.0974813)
(10.0168 -0.101088 0.159105)
(9.83261 0.0805989 0.207657)
(10.2607 0.306227 0.0427937)
(10.0662 0.0713871 -0.0377094)
(9.993 0.524638 -0.0486638)
(10.4153 -0.00645516 -0.0386592)
(10.2077 0.234178 0.0610877)
(9.9976 -0.0465533 0.0468676)
(10.0093 0.429466 -0.0768727)
(10.237 -0.00684496 -0.0187856)
(10.1185 0.143187 0.0460208)
(9.77662 0.186565 -0.0524596)
(9.62485 0.463879 -0.0652139)
(10.3824 0.520228 -0.0901006)
(10.053 -0.0288917 0.0528486)
(10.0848 -0.273412 -0.0182751)
(9.68425 0.478105 0.429748)
(9.66062 -0.130128 -0.0465861)
(10.0288 0.364627 -0.0955602)
(10.0412 0.0884986 0.0271572)
(9.97879 0.283258 0.705751)
(8.42167 0.195172 1.2106)
(5.41553 0.316849 -0.0927555)
(9.55586 0.108225 0.209338)
(8.06347 0.336673 0.176861)
(10.1001 -0.10863 0.231671)
(10.1893 0.014737 0.265919)
(10.3849 0.0735139 0.0594061)
(10.2607 -0.113177 0.272819)
(9.977 -0.170067 0.296945)
(10.0549 0.51283 -0.354138)
(9.84896 0.781529 -0.277982)
(9.78592 0.510811 -0.0102475)
(9.90425 0.0393033 -0.0814253)
(10.428 -0.0114124 0.365994)
(10.1069 -0.0659703 -0.0142593)
(9.97372 -0.0678846 -0.049255)
(9.89478 0.457265 0.570989)
(10.1074 0.370122 -0.189408)
(10.0654 -0.153329 -0.0396682)
(-0.963073 1.42941 3.16337)
(9.79234 -0.0585114 -0.0693607)
(10.2177 0.554806 -0.20008)
(9.5597 0.128568 0.448409)
(-0.560189 1.78674 -0.774193)
(10.0313 0.331053 0.0200346)
(9.97151 -0.0617378 0.0773388)
(10.0202 0.0930114 1.50496)
(10.2307 0.346317 0.0408597)
(10.1921 0.574945 -1.23141)
(-1.4479 1.54317 2.89395)
(12.4861 -0.402068 -1.69109)
(9.54509 0.0831508 -2.56266)
(10.7114 0.102946 0.459481)
(0.0524122 1.02421 -1.42068)
(11.1682 0.313784 -2.67962)
(9.17039 0.581783 -1.46737)
(9.82045 0.651567 -0.102697)
(-1.58597 1.49226 0.908399)
(-1.11304 2.457 0.0468078)
(9.72991 0.300111 0.237633)
(8.70706 0.0325604 -0.405817)
(9.94717 0.18569 0.182345)
(9.9371 0.0899871 0.0163716)
(9.96214 0.360737 -0.171754)
(9.59948 -0.055442 0.123386)
(10.0183 0.511121 0.0098536)
(10.3211 0.212371 -0.0758601)
(10.2733 0.108519 0.0199231)
(10.082 0.380953 -0.292121)
(10.2241 -0.0867328 -0.309859)
(10.0183 0.0720245 0.128232)
(9.43768 0.0574511 -0.0482331)
(9.9765 0.0684013 -0.126992)
(10.2563 0.132576 0.143592)
(10.3925 -0.0195342 0.00966088)
(9.40181 0.144026 0.294061)
(9.2903 0.235919 0.0920774)
(9.91488 0.01284 0.0797583)
(9.89486 -0.0080549 0.252319)
(9.8341 -0.0787514 -0.0313225)
(10.1777 -0.0603535 -0.00852553)
(9.84629 -0.104446 -0.0571216)
(10.0275 0.069786 -0.0510263)
(10.0693 0.0551006 0.00327466)
(10.1137 0.172903 0.177427)
(9.81335 -0.360153 -0.0569944)
(9.97129 -0.0493603 0.0693694)
(10.1295 -0.0174137 0.285924)
(9.94043 0.0508035 0.340742)
(10.0139 -0.0895337 0.185017)
(9.96901 -0.128891 0.153181)
(9.8851 -0.106488 0.141073)
(9.97409 0.00932972 -0.100715)
(9.92655 0.0537925 0.140676)
(9.71586 -0.102351 0.111704)
(9.90757 0.141051 -0.0469333)
(9.99822 0.115907 0.0514723)
(9.99057 0.0624843 -0.00973803)
(9.99902 0.339266 0.0223247)
(9.88981 0.00681514 0.0105696)
(9.96268 0.0904468 0.0881455)
(9.79928 0.25874 0.181275)
(9.51565 0.414971 0.00967597)
(9.90987 0.190451 0.0129695)
(9.86739 -0.147909 -0.0489963)
(10.1483 0.121074 -0.0019921)
(9.86947 -0.188904 -0.179862)
(10.0003 -0.229008 -0.0940159)
(9.82691 -0.25048 -0.210816)
(10.026 0.0165676 -0.0570823)
(10.8056 -0.0219212 -3.31116)
(4.74207 0.938174 -4.23701)
(9.94438 -0.218613 0.112369)
(6.17228 0.259832 0.226603)
(-1.722 0.694632 0.0352483)
(9.94323 0.172995 0.0036264)
(9.46525 0.308882 0.488072)
(9.95237 0.0919338 0.333182)
(9.56504 0.145778 -0.0151518)
(9.70999 0.05193 0.0404091)
(10.255 0.0931175 1.24197)
(10.0784 -0.0316736 0.223762)
(-2.41759 0.0753493 0.973604)
(-0.0475579 -0.536996 -2.55307)
(6.38885 -0.0675403 1.16027)
(-1.34179 0.631654 2.22689)
(9.87483 -0.158159 -0.150628)
(9.96919 -0.0336631 0.0192545)
(9.88206 0.137088 -0.245515)
(3.87738 0.420568 0.193842)
(9.99286 0.0638414 -0.0238905)
(9.95198 0.150573 -0.0725731)
(9.87248 0.0332856 0.158309)
(8.1912 0.525272 -3.9536)
(0.0418347 1.00786 3.15581)
(-2.46984 2.2266 0.775071)
(3.95241 1.50792 -3.31943)
(1.9593 1.73615 -3.25837)
(-0.9443 1.42131 1.58481)
(9.91959 0.276785 -0.0957803)
(5.5958 0.15416 0.369213)
(3.46294 0.378898 -4.3003)
(10.0084 0.240028 0.127593)
(6.52897 0.337888 0.666219)
(-1.49997 -0.0244255 0.413017)
(10.737 -0.00943283 1.34029)
(5.97135 0.451773 0.0620626)
(-1.60732 0.835424 1.92676)
(-0.944178 1.57851 0.19035)
(9.97115 0.0513517 -0.047479)
(-1.71785 1.40343 -0.183708)
(9.93913 0.0343831 -0.101781)
(5.62823 0.19049 0.478999)
(-1.10846 -0.947559 0.238831)
(9.89582 0.0897631 0.356112)
(7.78322 1.19117 -4.3421)
(-1.28107 1.93988 0.106235)
(-1.50214 2.43713 0.715296)
(9.90482 0.0275752 -0.219791)
(8.59828 0.380955 1.54713)
(-1.96772 1.96391 0.340319)
(9.69886 0.00857995 -0.0388107)
(10.3904 0.22055 0.0652211)
(10.2352 0.00952792 -0.0841353)
(0.810773 1.83724 -2.32071)
(9.76895 0.132005 1.1926)
(10.2046 0.124912 0.131811)
(9.97891 0.311654 -0.0271697)
(9.90013 0.321445 -0.0339952)
(9.96365 0.240632 -0.0208948)
(9.87935 0.236485 0.199044)
(10.0474 0.562026 -0.161745)
(8.97116 0.259239 0.352151)
(9.40636 0.648741 -0.0123282)
(10.0297 0.53091 -0.193787)
(9.84252 0.306667 -0.0230798)
(10.1569 0.0476947 0.219027)
(4.80226 1.05277 0.513426)
(6.96872 0.451176 1.28373)
(4.69513 0.926383 -0.0645534)
(6.54528 0.473894 0.97193)
(-0.747624 1.57789 -1.37604)
(0.195869 1.1916 -0.37979)
(10.1216 0.290399 0.00525914)
(9.45599 0.118962 0.620529)
(10.0122 0.161007 0.140919)
(10.5653 0.257927 1.59277)
(10.6143 0.135584 1.33069)
(10.1576 0.105816 -0.350061)
(9.41051 0.13941 0.107459)
(9.7928 0.31421 0.20522)
(4.66957 0.381463 -1.33666)
(10.3444 0.158999 -0.0359761)
(10.0393 0.075493 0.0535608)
(10.1896 -0.0443219 -0.0971911)
(10.2481 0.00144558 -0.0467745)
(9.69735 -0.0640855 -0.0219622)
(9.4086 0.0473308 0.117113)