/*--------------------------------*- C++ -*----------------------------------*\
| =========                 |                                                 |
| \\      /  F ield         | OpenFOAM: The Open Source CFD Toolbox           |
|  \\    /   O peration     | Version:  2506                                  |
|   \\  /    A nd           | Website:  www.openfoam.com                      |
|    \\/     M anipulation  |                                                 |
\*---------------------------------------------------------------------------*/
FoamFile
{
    version     2.0;
    format      ascii;
    arch        "LSB;label=32;scalar=64";
    class       volScalarField;
    location    "0.01535";
    object      omega;
}
// * * * * * * * * * * * * * * * * * * * * * * * * * * * * * * * * * * * * * //

dimensions      [0 0 -1 0 0 0 0];

internalField   nonuniform List<scalar> 
3918
(
273.037
51.6687
135.587
69.6309
58.6481
687.832
918.205
65.1353
52.0125
126.094
97.6883
293.364
129.591
135.722
68.5996
196.192
311.592
336.239
359.568
79.3819
342.436
72.2273
263.193
211.296
122.419
361.354
69.999
68.476
372.827
166.547
321.105
91.5461
227.969
125.918
213.377
294.798
71.5708
73.4536
267.663
124.544
114.573
166.661
109.566
149.181
95.3322
132.934
58.7289
222.962
228.15
79.4369
156.624
329.655
103.249
148.585
149.113
211.749
95.2927
168.9
82.1943
111.371
68.5924
203.486
110.684
217.829
306.216
78.0325
169.589
201.91
322.259
165.163
96.3036
607.21
499.154
634.548
294.756
281.155
211.041
174.156
191.203
75.6989
164.568
848.824
176.579
191.752
84.7163
163.428
360.76
344.71
1079.16
78.3418
167.678
59.573
426.394
75.0357
94.7726
113.865
232.975
84.1957
303.137
361.07
79.8782
68.8235
115.423
73.0856
69.3302
317.99
123.739
152.658
64.367
250.037
321.222
180.262
602.264
356.481
198.918
322.637
329.532
160.767
500.672
566.509
87.8758
427.727
127.105
332.021
176.748
735.899
70.1771
127.685
154.419
81.0013
68.437
278.45
325.983
65.5105
491.759
437.979
415.056
342.395
372.483
266.832
213.833
330.282
197.641
376.293
498.837
386.726
552.749
258.556
674.9
175.763
65.0458
311.519
62.7124
637.673
147.094
190.673
988.598
583.957
53.1319
61.1681
64.7082
393.198
320.408
292.584
425.045
195.716
388.013
374.092
349.678
276.192
132.669
323.014
386.256
363.599
286.775
183.745
273.479
99.26
454.089
106.026
74.0105
159.324
363.895
141.43
147.115
171.065
185.68
144.949
195.186
144.208
86.6238
425.895
211.574
247.878
99.892
214.049
99.292
294.897
596.608
64.0779
837.971
236.628
342.631
108.442
364.022
268.338
377.049
439.07
256.136
64.0233
232.659
422.422
72.9954
538.671
75.5298
576.768
348.754
217.218
322.579
241.862
684.876
405.646
319.938
91.8511
211.044
412.913
96.4622
243.385
651.241
251.127
544.435
182.309
191.478
101.234
64.3633
614.626
508.333
69.7817
159.49
73.4497
302.776
580.486
365.207
101.331
62.548
69.7188
59.0406
92.6554
231.8
64.6273
107.202
366.914
59.0843
84.3752
170.937
93.1452
357.858
103.63
548.323
188.132
413.377
75.2156
445.173
119.003
600.077
73.8753
362.266
90.8724
231.642
86.0937
57.3963
119.025
60.1483
124.317
86.553
83.3426
350.99
481.327
787.311
65.749
136.177
438.171
205.575
61.7704
79.6694
263.91
65.673
899.806
68.0015
70.7732
703.496
107.412
499.238
54.1909
198.601
132.001
880.942
521.843
366.386
73.0084
226.988
81.8697
69.8753
248.043
496.294
230.271
299.504
99.8828
145.487
197.799
186.045
620.86
305.943
298.439
191.414
566.79
62.0112
81.7105
444.606
775.378
127.318
381.999
217.059
195.2
55.8193
573.726
62.3517
169.088
184.898
55.2485
133.631
148.226
84.749
197.336
173.412
117.299
336.464
72.3031
579.01
82.6967
155.744
404.584
447.767
91.0383
109.036
327.468
487.234
203.36
153.044
175.476
453.367
447.037
355.954
71.8991
52.9258
118.48
171.638
361.064
195.86
82.9045
79.5253
487.396
252.5
277.34
211.624
392.049
253.878
111.345
188.89
300.165
113.167
170.544
360.776
371.528
246.958
259.245
482.007
151.305
183.533
78.4981
71.3846
288.429
146.388
84.6854
230.788
204.604
213.636
352.731
188.339
352.362
164.418
186.24
88.522
510.04
70.7367
569.326
554.526
77.7023
502.622
371.8
423.895
95.8852
109.64
94.7676
122.167
80.8885
292.864
536.3
171.601
983.013
314.805
118.273
238.277
105.929
164.431
114.415
114.413
116.844
83.0168
65.3208
72.6722
381.62
68.6029
68.8767
101.215
64.3716
156.318
66.4178
167.03
82.7927
60.7201
91.7697
419.104
613.669
67.7469
495.278
671.669
66.8953
88.5742
68.4086
60.0891
127.613
250.9
323.384
430.998
74.2606
278.792
156.551
388.981
150.778
153.763
253.724
143.292
127.379
167.311
284.377
861.148
386.85
759.58
108.311
73.335
563.68
209.164
83.613
291.701
211.61
121.307
464.541
94.2278
63.1163
383.002
60.5424
807.137
364.75
87.4981
85.1168
461.337
212.265
1081.79
250.871
226.469
288.053
221.5
91.2277
206.728
83.1043
399.288
266.059
77.3584
458.448
230.221
91.0517
512.757
376.241
56.3665
443.624
230.511
95.4003
969.138
61.1102
117.459
62.7786
53.9759
75.2851
76.4316
69.6548
69.9174
67.1733
54.8908
137.256
101.62
76.7319
106.089
59.2044
82.9616
111.506
69.9388
88.3333
67.3569
66.0339
74.287
62.247
88.2477
279.332
302.68
114.798
205.955
60.6179
101.577
127.004
102.699
954.488
86.9175
250.822
66.6192
83.2529
281.603
128.694
112.129
94.1908
55.9256
71.7147
62.8352
198.097
248.957
726.118
264.718
440.978
64.4948
146.585
76.287
1022.71
429.827
217.266
630.191
335.335
377.853
547.286
92.014
419.942
271.593
255.649
294.678
302.997
120.686
463.116
127.426
73.2661
305.794
66.5583
179.692
849.744
227.988
106.471
360.767
378.38
116.22
65.8414
112.017
68.7884
75.8086
322.227
152.903
202.173
399.89
313.564
202.507
406.692
878.13
612.785
341.677
383.72
262.565
140.567
658.017
458.255
186.568
572.364
622.408
380.459
110.458
759.239
388.849
313.103
166.047
911.551
187.026
260.172
163.503
284.442
250.859
123.949
188.517
142.868
70.0683
695.508
208.331
135.713
214.981
134.475
206.99
227.677
225.224
133.289
521.149
262.769
415.154
419.383
411.061
170.028
55.6959
122.264
265.973
165.724
445.43
85.4626
174.758
87.4479
193.212
140.35
75.4386
70.6116
92.0712
128.89
212.141
160.762
111.015
105.717
126.856
75.0785
95.4219
134.213
56.5034
71.4165
74.5071
72.7775
60.8728
90.7044
72.404
389.819
92.2042
479.021
110.123
348.289
285.931
328.086
344.135
326.814
220.717
193.422
293.585
60.4762
207.807
75.1586
173.352
172.932
207.701
439.225
195.945
464.314
68.3255
58.588
64.7548
55.585
72.0748
82.4221
160.3
55.8099
88.62
115.137
113.466
124.75
691.818
775.821
149.003
904.516
763.972
262.591
312.607
458.18
324.674
251.209
361.765
59.4541
78.7286
80.8483
129.68
65.5835
192.068
252.139
386.564
258.199
99.5726
82.1808
112.496
138.075
128.245
71.6256
90.119
137.814
68.8687
110.236
185.91
67.3149
181.129
111.622
73.1289
122.044
108.922
217.62
333.969
269.504
375.372
77.8711
283.679
142.984
348.203
157.771
101.135
72.2246
81.3434
449.106
73.2072
265.722
55.2603
312.282
385.978
260.969
94.294
78.5325
85.6321
255
107.386
520.055
222.353
303.799
294.132
101.855
163.534
206.766
88.3781
1076.28
73.7469
67.575
65.4087
137.885
146.534
146.364
358.593
376.645
63.63
222.689
179.777
155.969
190.035
71.526
72.9854
130.055
148.709
311.555
174.422
1152.75
53.4026
52.9335
943.08
58.6737
87.201
66.4643
100.757
99.3611
398.513
649.58
153.089
481.541
201.184
251.258
68.3878
67.2945
69.2125
70.9501
80.7771
67.8728
819.611
817.551
271.039
383.095
314.839
79.0073
407.157
290.643
76.5295
176.297
69.2461
379.35
68.8122
549.366
67.3874
76.3641
70.5665
52.1882
395.541
505.62
347.831
447.758
582.722
333.869
107.592
90.9315
221.635
149.699
69.095
158.108
175.145
78.6616
77.3805
59.2102
154.127
165.877
56.4528
393.724
121.225
421.361
83.9656
86.4271
276.868
273.313
94.7329
151.797
298.22
93.2024
73.602
95.6238
93.1518
584.647
123.903
65.947
656.844
728.078
412.984
789.268
720.798
442.955
66.6275
65.498
463.554
58.4394
67.4609
71.9887
83.1228
67.2064
116.048
63.3786
68.3135
180.778
200.693
351.365
63.7251
226.031
65.9145
69.5187
177.757
64.032
115.409
177.294
68.2252
154.331
498.681
1171.13
301.531
146.093
269.085
62.6153
128.869
891.533
69.2806
730.305
433.688
105.261
136.112
96.2547
469.08
66.404
85.2894
483.351
136.945
368.399
882.595
867.956
774.928
681.963
72.6161
127.711
76.8206
117.7
110.291
329.925
117.434
175.103
61.4713
209.447
72.3204
65.1056
570.348
94.8546
218.493
551.819
65.5968
62.2917
102.811
85.5145
167.465
74.1556
669.609
115.944
329.72
685.679
96.2641
61.4207
798.515
56.8575
62.9848
215.641
166.372
115.899
471.429
184.264
298.921
218.94
343.299
66.2607
283.06
342.136
750.092
70.9262
62.5412
74.9541
61.7024
196.196
971.992
305.176
68.8557
85.6562
107.562
77.9547
84.5479
285.285
110.063
480.007
82.3379
81.8545
192.214
274.183
106.675
181.716
600.619
499.227
935.387
268.817
70.7985
531.928
872.825
901.737
528.723
416.675
69.1177
295.385
359.095
59.8611
89.1124
66.6053
151.001
65.3547
902.659
749.382
108.173
393.45
861.3
231.373
586.293
435.13
89.6193
322.753
320.938
72.3371
103.106
197.397
227.63
190.913
173.083
67.7487
366.544
330.872
128.591
170.978
88.3203
70.434
128.758
75.3811
159.664
105.846
273.011
231.754
59.3819
277.014
248.834
80.1658
316.768
69.9822
51.9071
309.277
77.4662
262.989
77.8008
67.0973
874.097
282.017
54.479
101.89
129.281
60.2398
290.706
167.687
165.573
393.822
246.22
149.498
143.895
72.4909
65.9487
88.6554
109.652
652.559
280.692
254.859
66.0382
282.368
115.606
67.332
66.7705
93.0676
97.047
69.118
105.089
63.0652
176.468
354.096
311.963
56.4671
136.967
177.93
53.6379
318.93
104.685
251.599
144.083
349.456
390.841
255.705
63.5969
359.933
378.25
86.5792
70.1277
663.889
102.019
66.3223
191.595
110.821
174.619
270.764
63.6502
89.3442
92.8246
80.2594
390.084
229.721
224.586
65.698
255.834
85.5323
218.09
75.8743
76.314
311.35
205.669
258.389
191.208
305.18
70.1008
101.059
109.826
99.1859
91.4433
131.724
175.118
171.943
59.9624
122.153
72.8369
120.253
227.644
200.321
209.927
132.819
141.892
167.12
300.992
643.577
108.89
87.6013
89.8115
208.883
136.328
65.7786
89.5366
141.729
62.7858
64.8459
62.4215
386.656
521.36
69.9527
121.861
66.6525
408.189
446.855
114.559
81.7397
72.082
65.3747
410.587
379.381
224.232
93.2102
56.9532
87.7648
859.92
976.714
136.184
424.096
561.184
266.792
292.595
294.321
109.983
327.172
77.5415
102.816
61.1365
73.5308
63.4109
353.809
645.922
87.1566
283.217
324.821
104.34
54.3417
55.4123
110.957
56.1817
115.054
77.769
342.729
66.4111
652.59
150.795
65.0634
272.792
300.278
200.991
115.594
338.585
60.7439
60.0481
436.494
953.28
428.971
113.877
286.152
67.2089
572.09
435.309
176.715
111.527
55.4217
63.1977
407.85
284.229
87.1146
118.991
374.031
53.4847
51.9622
51.907
129.337
89.0072
75.4572
109.755
67.4885
68.7773
84.5478
97.3925
59.4178
334.15
57.1533
63.0007
521.087
92.2595
70.3802
72.704
105.6
52.9709
57.8878
80.0304
419.96
313.075
139.701
433.579
107.972
61.4564
68.9034
72.5664
83.7604
397.464
440.733
185.595
464.104
300.324
296.394
191.25
120.458
744.255
70.8002
68.8426
129.942
63.5842
129.751
585.281
88.6945
325.915
114.478
251.697
197.799
83.1215
104.94
63.2524
53.4639
66.6053
97.5309
117.637
123.756
195.443
97.7383
211.73
86.8479
69.7229
342.727
877.138
213.899
421.498
634.549
450.619
125.623
474.287
418.945
422.884
69.1354
361.971
65.3297
156.458
161.956
177.219
434.524
116.892
798.537
384.6
872.745
283.658
268.925
232.07
220.578
128.521
121.265
194.235
143.774
364.64
612.633
434.734
706.506
68.5714
227.318
679.385
71.2028
64.2034
77.452
309.264
66.2689
569.123
163.821
239.897
314.943
464.491
187.175
159.992
297.284
250.039
128.953
202.037
317.346
234.716
200.138
312.473
471.895
207.129
97.4101
366.942
56.6853
96.4998
69.9596
128.924
93.5582
345.021
139.686
284.304
255.639
408.836
579.106
101.587
275.652
285.586
244.192
59.3745
170.553
122.826
305.721
134.628
85.254
101.578
114.489
73.7798
457.022
884.585
357.116
66.8453
646.385
647.835
616.513
86.6127
210.57
354.231
845.047
817.601
134.191
778.466
81.0457
887.144
711.603
792.806
660.883
88.1766
197.179
726.381
163.22
636.876
671.343
285.745
361.045
265.907
262.951
708.501
54.2513
837.121
69.6979
171.933
163.562
447.669
202.437
863.549
63.4648
220.325
53.8099
80.2011
470.721
410.605
212.163
176.743
175.132
375.679
52.5497
180.714
59.1401
96.5964
157.811
177.667
148.889
58.9517
184.042
359.474
341.405
425.602
213.428
82.946
424.355
438.279
89.291
313.095
62.4985
61.6973
428.752
64.9174
100.319
64.2577
109.874
113.579
479.365
208.647
148.223
358.745
118.883
359.732
80.3947
66.3836
57.6927
91.4669
101.161
130.021
136.558
72.4689
239.328
65.6651
64.7757
397.122
398.798
946.761
128.059
72.117
66.6793
65.9838
121.302
65.3133
130.003
278.565
364.864
72.2793
67.541
63.6009
68.8975
68.7345
67.6419
132.814
223.764
326.943
66.4148
149.754
72.9097
60.3502
367.947
286.222
309.235
573.731
223.92
122.967
167.786
67.3415
67.213
61.291
58.347
110.533
69.2431
83.0987
364.322
412.903
278.852
754.065
573.51
698.102
87.862
64.8698
105.993
387.643
575.568
180.035
330.218
182.599
297.944
222.634
95.6339
218.141
496.406
151.229
918.785
82.6711
70.8896
587.288
499.95
56.2553
65.294
83.5635
106.706
136.112
145.828
372.161
380.099
64.2423
786.206
108.562
65.7137
407.908
124.042
202.479
152.38
57.5452
359.524
359.401
68.289
276.613
58.5018
87.9572
390.233
126.922
841.751
62.9232
258.086
366.9
194.718
154.28
564.374
461.885
416.641
154.642
182.367
94.5873
115.973
84.389
62.1205
55.0286
362.929
154.766
240.612
130.72
624.558
661.884
81.8762
127.384
54.9304
51.5952
310.244
391.761
337.991
794.655
290.992
256.114
116.086
178.609
414.532
185.151
350.719
360.613
347.799
80.707
157.176
653.897
100.335
61.6462
58.4004
76.3336
81.1461
237.872
70.9089
183.802
312.012
199.823
288.084
250.663
86.6434
406.641
123.086
194.321
121.013
121.192
52.1677
175.932
66.4548
249.814
357.628
162.599
186.974
196.834
317.569
72.1427
168.54
113.083
87.9757
71.507
86.5159
312.978
64.5871
278.82
263.958
167.398
92.451
250.385
61.7407
71.3656
333.67
87.4498
262.694
205.845
228.565
149.895
66.3252
64.6881
500.985
69.7953
67.1947
76.6934
273.86
274.152
70.2497
73.6681
62.0628
90.3958
88.4548
127.301
136.617
64.3275
181.868
212.886
77.16
73.1955
230.313
119.206
276.436
340.472
446.564
60.6074
386.857
448.05
94.2921
145.384
127.184
77.5066
81.1521
185.018
245.272
155.545
185.751
191.724
146.524
249.741
382.435
397.895
297.289
387.394
408.478
362.299
565.794
431.299
338.521
437.549
100.498
79.353
63.8199
77.2432
203.063
84.5089
196.921
210.706
112.865
133.48
102.786
171.247
140.443
216.08
229.21
90.4715
234.635
70.5209
126.383
265.122
85.9277
59.1897
65.0374
65.1113
293.499
319.418
599.982
666.283
149.862
410.629
417.001
189.246
453.892
207.741
415.392
77.3031
71.0689
87.7898
173.664
171.444
238.676
359.114
274.127
268.06
99.7097
166.201
343.796
86.4377
123.319
253.3
785.652
313.59
102.967
63.4744
486.27
153.623
439.756
161.566
92.4478
165.766
418.496
157.231
203.625
288.126
171.664
244.972
151.56
272.298
213.698
465.965
222.866
93.1129
298.536
68.1359
86.8708
98.3346
437.392
254.972
137.613
75.783
178.535
524.086
122.522
94.238
75.3159
100.7
192.886
265.231
147.762
196.714
211.894
66.5649
63.9331
247.721
65.5321
69.7617
266.284
441.952
846.848
67.2784
101.061
282.829
249.37
152.108
85.2045
83.5081
96.0949
110.606
85.7695
110.901
104.85
70.0877
118.136
72.8851
130.152
72.2285
141.573
84.5441
81.8295
95.1462
60.0773
112.441
206.983
124.408
92.1795
173.07
198.01
223.885
57.4272
58.0963
77.4833
88.3551
234.955
58.515
69.2124
420.089
516.101
813.469
188.549
370.906
186.518
234.428
219.768
69.3323
55.1298
675.477
915.185
73.8974
803.619
685.778
612.979
979.724
70.127
225.164
498.83
731.21
174.034
179.014
261.319
412.83
69.9905
126.474
127.16
262.749
287.296
118.061
273.55
271.435
955.32
280.591
737.293
74.7257
929.122
132.298
312.834
227.004
223.071
74.1828
267.218
149.483
152.29
242.712
221.963
127.773
209.329
224.134
74.1207
246.159
211.547
407.083
347.738
256.051
300.123
260.73
209.035
92.4975
481.541
156.732
69.24
96.1611
95.512
930.132
252.061
209.488
635.698
614.093
596.143
308.248
250.472
83.1243
297.142
639.03
534.656
257.558
201.387
394.905
443.046
309.459
263.241
583.589
897.155
191.602
418.741
437.985
219.551
358.998
352.4
522.889
62.9955
136.637
66.842
61.3715
59.618
139.362
80.411
176.596
75.4214
209.74
109.885
172.49
162.853
112.448
182.869
87.3508
163.263
98.2157
63.8711
66.7755
58.6893
137.078
249.512
496.354
173.823
122.872
249.644
214.924
234.553
175.461
422.761
329.219
280.133
148.045
68.0199
70.9349
134.804
86.4798
146.708
242.703
174.011
105.248
106.241
78.758
188.626
109.506
183.468
174.615
127.085
301.565
76.6944
123.747
901.975
596.15
97.1129
389.23
114.181
511.533
196.849
126.647
675.26
379.375
106.617
95.5228
600.355
76.2808
423.777
602.512
544.966
97.9566
246.935
62.4266
107.091
211.816
65.4787
98.5176
223.45
541.946
345.296
226.713
103.149
305.887
180.385
212.469
265.216
237.249
267.994
220.931
55.4678
67.2621
101.953
58.3407
121.119
86.2746
71.7191
281.565
71.6496
56.0143
399.741
280.38
157.535
66.9198
65.1662
380.776
68.2705
164.26
328.544
313.62
415.044
68.4568
65.1058
63.6852
84.3779
305.82
130.735
109.225
66.6853
66.1073
78.3291
190.815
319.013
241.942
78.9472
80.0882
346.441
71.9203
81.1593
124.109
482.141
785.064
62.4604
271.404
72.5433
242.511
470.221
685.685
288.707
110.07
369.373
117.326
97.362
116.708
508.698
72.7124
64.9304
57.169
58.5949
670.307
204.746
389.617
110.434
137.244
95.8095
66.8597
80.3341
150.278
70.7345
65.9429
138.034
152.55
162.933
73.3712
131.736
68.851
954.143
846.96
60.4483
147.62
98.0539
67.1157
680.815
141.322
558.612
157.029
232.48
62.9766
372.925
239.679
169.942
131.119
70.6509
386.689
363.389
528.805
129.542
99.1732
476.315
86.5062
180.321
390.469
626.313
175.759
126.736
197.076
123.307
86.3971
107.355
77.8303
855.542
82.3701
150.065
108.907
210.477
304.524
188.05
320.64
68.9551
315.693
241.824
152.367
107.895
89.2338
365.053
81.6913
136.076
314.902
252.038
115.331
119.264
861.257
98.1296
91.9116
55.78
65.4704
88.1365
79.8579
110.424
219.498
271.794
147.949
64.3095
328.081
292.303
178.626
837.879
355.123
855.571
72.3514
379.324
637.288
177.465
89.4036
75.3674
155.47
345.354
58.8789
329.406
60.9435
109.088
66.2647
234.633
762.568
84.9132
87.7373
67.7033
304.068
129.627
165.394
106.832
131.888
84.1566
120.664
80.1049
121.527
186.151
152.576
376.537
334.458
140.609
270.556
299.697
329.726
158.527
423.601
111.489
147.904
99.5385
66.2961
120.345
69.0941
350.369
67.356
388.774
276.408
71.34
89.5546
114.408
99.1324
124.877
113.357
197.43
90.5918
374.543
239.267
84.6748
122.578
87.557
65.3838
466.171
158.292
62.5944
243.158
152.096
240.537
71.2505
167.572
389.971
123.86
143.378
349.424
97.799
295.352
212.28
159.492
59.8115
169.359
156.14
266.622
285.601
146.757
186.814
97.9767
87.4446
354.621
155.946
211.282
97.6257
113.194
210.13
473.372
129.337
387.44
284.461
577.493
111.084
378.355
874.923
644.108
81.9613
67.9785
197.717
75.9351
111.321
520.487
89.266
289.149
70.4818
850.369
765.577
335.509
396.853
247.946
177.015
146.834
230.905
495.673
646.429
215.541
384.542
199.013
71.3839
166.764
63.351
304.939
75.9593
55.7305
70.1305
393.869
185.411
95.1024
599.629
891.798
756.009
430.879
259.43
515.338
73.6909
178.456
475.104
390.944
290.905
434.652
214.013
210.369
170.435
230.64
57.5398
446.837
278.401
410.725
119.517
63.8816
91.5127
463.793
267.483
789.036
444.194
77.8923
435.105
420.618
425.057
309.208
300.011
340.76
251.196
202.672
191.438
167.999
485.203
146.174
104.879
277.65
70.9885
75.3156
117.566
60.6742
58.3075
139.22
136.129
86.4898
99.2689
97.7165
303.091
109.537
294.143
100.501
239.68
255.551
123.192
341.953
85.6954
116.447
107.415
132.237
198.141
138.747
151.552
758.639
223.389
416.078
533.52
736.656
70.115
82.0058
237.665
75.4058
476.413
582.866
409.139
245.605
386.929
533.942
306.524
791.448
391.167
383.62
426.25
103.5
518.634
494.736
258.309
208.397
431.6
247.167
413.475
466.681
788.565
737.018
412.76
420.974
206.386
223.661
252.038
100.384
81.4474
101.179
74.1726
266.208
247.709
252.923
1045.95
991.81
266.638
707.603
409.686
235.465
138.583
101.821
169.342
397.927
300.859
70.7826
85.4792
97.6539
122.351
55.6372
55.7428
140.757
847.526
1002.09
218.053
795.119
232.014
475.229
470.467
392.639
256.944
265.283
323.654
332.827
302.869
381.914
305.133
55.7036
421.475
256.431
234.089
301.155
296.931
340.79
67.5692
68.3803
67.0865
71.4507
148.002
303.996
71.4178
75.4893
65.182
62.3295
91.7871
86.3506
54.3153
53.2391
334.069
60.8456
57.8992
82.0046
208.781
56.4102
128.821
77.461
104.049
92.2093
68.6
148.986
110.919
65.5764
343.081
120.385
120.657
104.479
129.025
93.9347
90.1867
127.522
113.914
416.808
919.181
714.099
76.3794
902.969
788.049
379.235
85.0948
96.2093
590.8
219.543
335.508
149.39
259.77
68.7715
66.8268
76.0146
64.6009
68.4496
759.079
376.242
872.248
313.926
246.672
329.931
159.227
142.263
86.8887
231.333
70.7877
220.265
348.054
141.831
164.522
437.212
375.399
397.135
302.326
192.425
161.841
96.4451
71.4585
120.341
337.089
249.625
179.939
63.6506
59.8042
86.7513
256.205
290.344
136.063
140.995
60.7206
64.422
60.4953
93.7288
462.404
254.929
373.335
64.5759
406.492
131.747
177.725
115.3
269.601
208.293
319.521
155.552
56.5376
54.7279
60.344
58.7284
210.21
775.379
1170.19
970.378
718.301
321.51
130.783
100.772
92.838
78.3508
98.496
151.279
147.911
70.5328
150.081
87.6457
314.926
893.352
55.9511
136.627
98.3287
192.498
170.671
134.898
67.3485
73.5263
99.6932
56.6402
131.683
203.416
82.0243
69.4653
71.4991
71.2742
90.6072
200.806
60.1457
54.1653
59.3726
62.84
60.4061
199.478
108.504
593.168
689.649
99.4783
77.2033
377.19
74.6818
67.2809
69.8472
877.106
238.661
256.349
95.9117
115.759
58.1929
55.2129
68.5624
80.8829
85.6933
82.7201
67.6199
987.037
68.6244
430.602
271.691
64.99
89.1727
93.4337
71.1058
139.825
588.516
71.5948
67.4694
54.6384
61.9056
749.569
61.8816
58.0441
208.261
73.1438
235.395
104.818
64.184
67.9242
523.753
139.442
176.511
118.877
58.2497
104.223
147.738
66.4371
76.8141
62.7012
100.542
60.5477
68.8361
130.073
64.7869
243.895
81.5861
67.217
128.606
161.754
453.509
583.602
795.942
257.33
75.378
107.644
165.031
59.6222
1039.3
699.908
515.234
198.402
923.11
66.6443
68.2166
64.0216
79.2647
60.7632
76.2014
64.6084
370.279
60.2868
60.2954
376.716
94.2907
165.106
65.3772
487.08
88.3192
70.2547
549.705
63.1974
75.833
205.966
125.374
67.9397
423.729
348.847
504.675
53.6161
113.088
91.7352
64.18
71.5392
91.5213
158.895
74.7226
101.67
97.1844
103.397
345.154
103.494
203.012
204.225
412.982
307.786
968.559
235.679
57.9002
64.4069
61.6343
66.4405
149.897
598.137
222.828
776.489
137.126
62.4319
690.356
444.737
232.777
248.792
168.349
195.697
227.493
269.802
68.7115
67.9796
187.461
161.317
180.546
260.107
305.908
64.3766
498.212
688.778
315.545
132.033
422.937
65.395
67.8504
62.8389
354.038
59.165
140.37
112.523
108.672
93.4227
73.154
67.2395
107.569
75.4527
91.1672
259.699
313.135
140.806
123.272
64.6416
284.703
68.005
178.781
221.63
406.37
303.223
215.88
154.605
71.7259
134.362
614.062
186.569
70.1093
62.4369
89.4778
87.9986
227.778
340.712
235.863
199.313
427.893
354.351
177.218
251.46
303.588
209.596
405.785
105.612
190.9
291.501
217.141
69.2452
73.3446
57.4247
130.979
72.8448
99.5089
71.8809
338.626
213.233
415.234
118.697
138.159
206.982
71.5405
233.13
332.805
362.696
147.209
82.5276
110.153
59.8897
129.044
82.5632
112.398
109.855
60.8228
63.1013
113.038
117.07
134.696
226.292
190.085
160.346
144.995
68.4506
63.1761
56.0162
260.047
110.68
158.439
78.342
161.682
63.9078
321.096
178.965
123.515
208.473
184.459
405.605
337.173
393.428
433.748
482.282
118.701
145.583
459.224
74.7113
74.1807
140.374
325.195
159.898
179.435
249.888
781.873
630.136
428.216
431.832
711.097
290.602
418.93
332.947
159.606
582.237
162.305
238.548
141.792
94.9537
101.568
463.01
354.536
651.564
103.902
78.677
323.224
134.509
646.205
127.966
483.592
152.931
88.6763
185.188
65.3673
70.569
257.602
597.587
64.6959
314.412
152.557
664.795
198.706
95.0325
85.8138
115.98
100.016
237.484
139.377
667.118
486.876
86.5843
458.798
688.991
135.292
346.449
263.11
244.48
440.356
221.597
421.814
399.616
354.507
228.199
271.136
68.5552
79.5912
70.0429
347.815
309.519
119.609
341.384
492.622
76.1718
60.2725
68.2372
55.6935
58.7116
62.6714
55.178
54.0811
54.2924
63.6841
66.3833
360.89
62.0211
194.154
63.3587
59.208
212.926
108.64
118.305
220.616
174.325
167.381
187.279
164.742
135.388
157.674
88.5897
73.927
122.613
132.855
227.417
66.9148
367.5
297.506
149.511
67.6067
432.98
159.041
70.0947
331.531
301.753
451.313
298.312
218.78
142.986
436.629
231.273
384.637
134.031
415.648
346.576
245.757
285.015
181.306
72.8935
96.0257
271.638
248.177
379.589
80.4097
198.817
412.858
213.419
71.0663
342.131
344.028
269.774
628.41
216.95
134.104
789.398
328.577
69.6243
275.239
386.34
97.9463
69.9597
58.2623
304.642
59.0769
91.7323
67.1535
67.6985
56.1868
67.4211
59.0972
57.7076
76.7914
61.6807
297.935
175.488
162.08
178.081
154.604
184.247
77.8029
81.2777
60.8581
72.2978
104.311
62.9425
65.8455
69.0414
76.0283
58.8547
58.5466
103.638
402.144
281.484
317.796
95.0097
241.277
75.0738
87.6464
99.1364
101.542
84.43
83.0918
90.8629
210.836
350.433
328.501
503.343
211.446
427.842
349.144
92.6094
265.369
164.478
107.881
85.7153
205.055
67.4876
255.292
69.6505
72.4187
130.352
291.562
158.051
238.23
143.454
120.51
69.0507
232.196
329.585
183.122
269.811
245.489
69.4119
75.0385
73.8803
111.032
347.898
407.635
75.5434
454.668
172.93
126.696
330.321
212.699
199.038
57.8929
149.499
151.328
66.9926
205.63
245.808
2501.98
907.813
332.988
165.478
451.782
127.457
221.566
647.191
302.339
1025.92
1220.68
1175.59
931.41
1151.29
1246.6
997.132
1481.8
1066.93
1359.62
799.23
120.97
355.971
568.339
400.917
249.676
289.43
121.702
192.287
331.502
363.557
301.024
544.714
1169.78
1447.87
321.073
299.548
501.712
535.442
429.539
323.938
246.892
166.735
357.289
310.249
104.045
860.691
376.894
463.538
2074.79
83.3197
242.713
589.065
184.03
471.077
139.685
218.623
62.6388
227.922
263.93
108.006
63.6879
154.191
122.506
134.929
121.068
455.69
68.0469
295.261
183.13
359.128
499.173
512.334
725.364
89.5491
752.312
114.318
78.473
96.21
87.5815
250.004
448.842
337.885
163.142
80.2562
292.849
398.255
408.703
293.066
313.354
236.818
189.592
399.182
360.186
192.537
66.0036
65.65
80.8346
66.7934
299.526
223.972
418.025
246.21
102.673
266.338
102.055
86.64
248.121
75.4908
80.3908
131.374
170.91
258.28
183.197
211.046
261.493
357.407
80.0152
55.2171
71.9978
172.87
70.2818
66.2516
130.272
80.7823
88.161
362.408
367.146
577.265
436.199
325.091
66.2839
433.372
126.509
81.7877
189.419
318.813
646.378
689.469
684.314
363.722
74.1035
213.061
57.1325
421.577
378.822
75.9432
343.743
354.705
97.402
101.265
85.3665
92.6022
419.377
163.469
447.033
314.731
202.393
188.169
264.644
63.1214
64.0656
76.0801
682.803
82.071
53.9017
93.3584
64.3372
432.554
101.05
132.654
175.915
425.67
118.659
294.027
70.3914
878.118
57.2732
511.027
387.096
862.409
1021.6
475.924
70.979
752.257
181.143
117.835
56.0699
56.8328
145.102
175.863
66.9987
494.685
942.594
349.622
85.6083
55.9683
66.4974
101.829
87.97
77.582
115.963
193.821
286.699
77.0501
696.391
809.774
318.538
168.704
205.795
923.427
784.462
685.214
66.5045
176.149
74.4181
70.2415
222.113
206.427
82.8611
179.867
133.135
62.9526
81.1347
60.3933
80.3076
254.032
67.4561
169.34
117.904
86.9905
408.699
921.356
236.45
75.3834
351.684
256.427
108.843
57.6523
111.617
84.5645
123.28
90.6506
67.5493
58.0014
63.4758
862.067
967.534
72.0557
93.6508
124.851
101.019
64.2956
264.082
337.549
110.77
77.8492
908.114
1008.64
55.1922
82.6283
268.752
490.852
871.064
411.696
451.455
295.573
205.394
84.8381
68.7885
59.0011
162.921
64.9477
60.4749
247.427
331.633
260.09
209.971
244.619
71.255
64.5628
138.616
93.2903
292.964
53.4031
146.612
68.6241
416.22
729.09
106.168
147.04
403.339
233.662
90.0934
73.3703
118.714
184.414
83.4764
236.573
242.055
309.433
379.417
491.273
414.281
361.703
101.274
174.453
188.606
444.054
213.611
548.663
91.222
72.5801
82.7079
67.2457
147.311
621.678
120.648
120.439
77.6568
54.1121
78.3485
69.123
65.0636
161.708
129.561
124.351
142.544
58.1989
99.4981
82.0824
410.588
118.73
358.329
369.664
163.159
99.9857
366.921
164.618
721.645
433.698
448.189
168.146
219.582
360.351
68.5572
66.8411
67.6549
109.758
96.5622
75.3749
71.2443
207.655
319.431
78.8059
197.531
366.551
476.729
327.083
92.378
151.489
197.84
188.263
68.0374
230.226
297.995
122.308
365.75
121.228
270.078
196.963
326.758
64.2087
120.384
235.398
77.6297
77.611
193.455
197.132
210.432
286.587
260.096
320.191
66.2902
80.0818
55.9447
106.295
89.4512
365.402
136.025
64.3409
322.448
72.8994
135.995
257.952
188.048
204.876
329.893
480.456
806.588
658.137
109.828
85.0232
72.4246
70.2999
55.405
59.1247
59.6029
73.5285
107.588
345.943
65.0259
65.8284
168.955
75.1302
72.7248
224.484
59.3594
57.0952
689.865
110.317
119.914
85.3004
104.205
105.621
226.986
109.635
318.216
57.059
219.613
102.4
343.31
310.013
166.739
160.384
107.083
122.825
121.492
317.632
205.168
159.986
173.805
70.6772
65.128
64.8843
68.9454
71.0486
68.8215
77.2624
132.891
101.988
70.6846
58.6379
139.923
91.0746
120.996
60.4289
237.691
178.926
483.322
268.189
60.687
63.2424
62.0218
138.773
92.1419
84.2341
72.0384
169.552
139.466
202.578
129.96
280.436
96.7204
227.27
712.245
140.275
142.652
130.204
136.705
61.95
70.4995
62.9683
57.1785
318.735
380.382
314.217
349.048
231.027
75.8769
57.6276
60.1843
374.533
135.656
370.464
184.744
279.941
135.57
73.4579
78.0049
127.204
272.96
215.306
64.0063
77.4048
109.185
64.8687
65.6933
616.66
591.566
349.432
563.401
409.928
247.301
204.736
109.967
937.437
764.768
875.743
129.669
124.143
131.138
143.92
136.669
132.257
169.249
164.975
74.5973
71.3243
71.0512
66.4241
68.1564
79.7791
154.761
401.717
472.488
463.833
588.525
276.966
258.277
422.816
396.024
372.333
568.962
375.527
389.83
79.2243
57.8528
57.7209
222.712
293.333
207.064
81.9848
55.8328
60.5939
60.5177
72.4121
64.2818
210.532
68.3085
66.9174
65.2847
89.5641
110.802
420.871
417.522
420.788
417.991
441.248
65.9218
147.618
100.68
75.8692
78.8661
53.9997
68.3426
73.7968
79.8094
179.233
186.408
207.103
135.8
197.164
75.3234
90.2029
60.3146
78.8049
74.7924
65.9391
200.419
613.577
465.698
131.501
935.79
422.699
368.773
91.2282
632.113
472.157
357.181
335.708
255.449
484.569
285.841
785.933
610.991
171.101
372.174
470.367
85.727
375.162