/*--------------------------------*- C++ -*----------------------------------*\
| =========                 |                                                 |
| \\      /  F ield         | OpenFOAM: The Open Source CFD Toolbox           |
|  \\    /   O peration     | Version:  2506                                  |
|   \\  /    A nd           | Website:  www.openfoam.com                      |
|    \\/     M anipulation  |                                                 |
\*---------------------------------------------------------------------------*/
FoamFile
{
    version     2.0;
    format      ascii;
    arch        "LSB;label=32;scalar=64";
    class       volScalarField;
    location    "0.0563527";
    object      k;
}
// * * * * * * * * * * * * * * * * * * * * * * * * * * * * * * * * * * * * * //

dimensions      [0 2 -2 0 0 0 0];

internalField   nonuniform List<scalar> 
3919
(
0.318982
0.326481
0.331862
0.339563
0.319805
0.317052
0.329981
0.321629
0.310761
0.308589
0.306661
0.31161
0.310684
0.31037
0.327308
0.335469
0.31034
0.308807
0.309905
0.318902
0.305947
0.318243
0.315029
0.313242
0.314923
0.335297
0.311778
0.310154
0.340906
0.355919
0.305975
0.309581
0.313853
0.306385
0.31423
0.312042
0.355644
0.310111
0.31537
0.331348
0.338954
0.305892
0.314385
0.324305
0.370799
0.342249
0.369275
0.340094
0.305194
0.311487
0.310478
0.316068
0.314131
0.319622
0.322702
0.311664
0.366642
0.383011
0.313646
0.310597
0.369531
0.322635
0.358035
0.326942
0.310972
0.315272
0.309479
0.334972
0.311059
0.312945
0.309104
0.327173
0.3356
0.347812
0.372855
0.324404
0.306645
0.310452
0.309106
0.312118
0.315364
0.313053
0.309072
0.314286
0.30722
0.312572
0.311785
0.316897
0.34602
0.330383
0.327657
0.371268
0.365983
0.310435
0.329572
0.327118
0.33395
0.317045
0.326822
0.309743
0.311264
0.338274
0.359749
0.312193
0.354625
0.308933
0.340758
0.324968
0.322516
0.313458
0.361562
0.329828
0.323744
0.309152
0.312194
0.309416
0.313382
0.315117
0.319077
0.34349
0.321424
0.31855
0.312009
0.354216
0.308238
0.311844
0.312743
0.318072
0.337365
0.317913
0.309867
0.331401
0.343473
0.311378
0.307057
0.318405
0.340378
0.323566
0.316875
0.343647
0.312415
0.314976
0.325654
0.30993
0.305627
0.3145
0.365411
0.314777
0.308189
0.312073
0.324331
0.311204
0.309268
0.308752
0.310638
0.311526
0.314336
0.322216
0.312273
0.308511
0.307878
0.348242
0.350238
0.31022
0.331233
0.368373
0.380266
0.318033
0.310048
0.314107
0.354927
0.312368
0.311714
0.308251
0.373563
0.315124
0.324399
0.310896
0.34862
0.350248
0.367335
0.347592
0.312127
0.319821
0.356933
0.330467
0.318575
0.305884
0.328061
0.319596
0.316466
0.314122
0.332948
0.304244
0.322827
0.311013
0.325616
0.312595
0.345904
0.333593
0.312965
0.327231
0.314142
0.318339
0.322013
0.31334
0.311299
0.342943
0.31725
0.348374
0.362274
0.31183
0.314762
0.313251
0.333071
0.31294
0.313319
0.317051
0.350036
0.313253
0.312839
0.312902
0.361442
0.353422
0.309905
0.306858
0.359904
0.329198
0.329118
0.350719
0.337643
0.310463
0.346062
0.334859
0.318916
0.315771
0.310222
0.311827
0.318967
0.329763
0.402385
0.35973
0.317632
0.373067
0.388646
0.315861
0.336135
0.369346
0.383762
0.317128
0.328206
0.381975
0.366971
0.337685
0.358239
0.364798
0.332503
0.320245
0.319955
0.354526
0.313658
0.328613
0.372936
0.364229
0.339652
0.360686
0.345895
0.386335
0.330425
0.334253
0.312799
0.370621
0.360789
0.383563
0.307083
0.315188
0.310274
0.37062
0.314173
0.354126
0.326163
0.311299
0.363389
0.311458
0.34359
0.316496
0.314041
0.36352
0.354029
0.357609
0.310526
0.329731
0.31949
0.3144
0.337478
0.36325
0.312481
0.313108
0.311533
0.351839
0.338326
0.314388
0.316541
0.309676
0.310903
0.332834
0.37446
0.341677
0.312722
0.31835
0.338318
0.340288
0.316977
0.345711
0.325862
0.314663
0.338265
0.391342
0.307061
0.324465
0.359598
0.311506
0.329629
0.325407
0.313489
0.327852
0.309234
0.321083
0.352486
0.312184
0.319997
0.313994
0.311339
0.339307
0.311063
0.312011
0.359866
0.319495
0.319905
0.315022
0.341222
0.336137
0.317955
0.334726
0.318867
0.313761
0.370954
0.347704
0.310067
0.313524
0.353354
0.322262
0.311486
0.315889
0.323232
0.340609
0.326523
0.358282
0.356771
0.314752
0.310235
0.313121
0.332724
0.311808
0.312852
0.3133
0.309804
0.328311
0.312637
0.309848
0.309206
0.343456
0.31248
0.322122
0.362614
0.332648
0.313926
0.312834
0.307388
0.342053
0.33924
0.373363
0.370155
0.317588
0.331445
0.307223
0.327763
0.317661
0.317892
0.324482
0.327298
0.336032
0.319817
0.385073
0.369684
0.356172
0.396691
0.351143
0.408891
0.315046
0.314206
0.371569
0.34399
0.309402
0.314825
0.316192
0.312144
0.372393
0.361567
0.372152
0.333215
0.318835
0.344462
0.309639
0.357834
0.359908
0.342239
0.342414
0.372437
0.310537
0.31164
0.361402
0.308305
0.363255
0.338617
0.332542
0.31131
0.31067
0.364083
0.337349
0.331307
0.335185
0.319601
0.333302
0.318559
0.348029
0.32911
0.363595
0.324031
0.402626
0.386408
0.341988
0.374141
0.35068
0.368556
0.35317
0.350974
0.331485
0.316123
0.336378
0.315368
0.339955
0.320827
0.311276
0.339011
0.350139
0.307841
0.367934
0.312333
0.31225
0.323819
0.392479
0.400209
0.338981
0.368062
0.374904
0.310223
0.309461
0.313275
0.31085
0.311372
0.306305
0.330388
0.385586
0.332543
0.339205
0.340574
0.3733
0.374428
0.305825
0.354826
0.314782
0.36224
0.312713
0.357195
0.35126
0.315419
0.357969
0.37256
0.326973
0.314314
0.318307
0.341499
0.346569
0.315167
0.313169
0.314239
0.334966
0.310948
0.325988
0.316446
0.312283
0.306338
0.358784
0.3151
0.325433
0.315631
0.327124
0.341268
0.327043
0.314326
0.327154
0.321794
0.322074
0.321768
0.332556
0.351822
0.335248
0.30676
0.337293
0.315604
0.316901
0.308772
0.308667
0.322034
0.309212
0.322104
0.363997
0.360255
0.315096
0.352652
0.369793
0.362086
0.311462
0.309044
0.307239
0.348012
0.31914
0.382843
0.362841
0.396206
0.324159
0.337907
0.313984
0.308894
0.329404
0.315324
0.320345
0.330457
0.312996
0.338055
0.312652
0.325925
0.334513
0.365448
0.414821
0.349782
0.355664
0.375396
0.372393
0.362889
0.31243
0.31214
0.309596
0.344393
0.347244
0.313314
0.342051
0.349723
0.348324
0.310666
0.309757
0.325237
0.310503
0.37826
0.343835
0.334364
0.324036
0.321891
0.358076
0.311619
0.312201
0.358003
0.321634
0.341007
0.321506
0.367246
0.309003
0.362834
0.34029
0.319055
0.317506
0.353182
0.340203
0.356775
0.367935
0.374728
0.360935
0.357476
0.313881
0.316639
0.357386
0.307965
0.312037
0.313671
0.314194
0.311524
0.35362
0.348366
0.319183
0.312556
0.336159
0.312903
0.313885
0.307126
0.341088
0.317049
0.308676
0.313502
0.312328
0.34617
0.329919
0.370947
0.32421
0.339104
0.312838
0.30579
0.314242
0.311925
0.369488
0.313708
0.311406
0.355678
0.32085
0.309311
0.334076
0.381852
0.334404
0.361906
0.360852
0.31218
0.321397
0.317687
0.309088
0.313108
0.366772
0.309561
0.32255
0.345302
0.309872
0.311546
0.316878
0.34234
0.311807
0.305958
0.311667
0.30846
0.311296
0.312637
0.343706
0.347219
0.357293
0.314833
0.318524
0.339888
0.311072
0.335243
0.346694
0.340231
0.322043
0.310013
0.32021
0.310458
0.313268
0.313456
0.309021
0.329872
0.311067
0.310787
0.342672
0.358386
0.316002
0.334549
0.32198
0.311787
0.328546
0.353763
0.321513
0.314704
0.31203
0.375052
0.312056
0.311157
0.335976
0.372291
0.326682
0.309828
0.313223
0.340835
0.33704
0.335883
0.310994
0.306311
0.311483
0.331463
0.343761
0.367301
0.335777
0.330528
0.380329
0.352348
0.354682
0.313461
0.319909
0.320034
0.310956
0.353525
0.312734
0.314732
0.312743
0.311354
0.314032
0.317159
0.311766
0.312608
0.353416
0.340594
0.355493
0.318965
0.370412
0.353407
0.311261
0.353716
0.314675
0.311106
0.308543
0.310751
0.342054
0.30846
0.367273
0.316025
0.318999
0.330978
0.347249
0.317571
0.327562
0.308057
0.347179
0.308455
0.307854
0.311524
0.365082
0.312831
0.314302
0.319857
0.313931
0.358508
0.312349
0.344923
0.3095
0.380489
0.308808
0.362104
0.350886
0.333343
0.362264
0.311781
0.359329
0.323288
0.333383
0.314336
0.311644
0.312135
0.306962
0.345929
0.313958
0.35961
0.311748
0.343291
0.309496
0.306401
0.305869
0.307328
0.353912
0.311848
0.3479
0.337271
0.312107
0.345003
0.380389
0.363542
0.329747
0.312753
0.30983
0.31272
0.311568
0.312814
0.322085
0.318402
0.317669
0.345194
0.310713
0.310235
0.309346
0.310806
0.362989
0.307476
0.346783
0.353566
0.307148
0.330569
0.307568
0.334356
0.323978
0.332958
0.312263
0.378869
0.311708
0.351149
0.3109
0.316615
0.305763
0.328526
0.346883
0.309773
0.311358
0.350681
0.309654
0.31305
0.31577
0.315778
0.310919
0.374221
0.315941
0.340318
0.31506
0.338523
0.312532
0.311598
0.320632
0.311472
0.307921
0.309649
0.344357
0.365723
0.315495
0.324427
0.315116
0.313639
0.354025
0.315922
0.311848
0.316476
0.314692
0.325135
0.369501
0.361344
0.356531
0.330505
0.321923
0.320152
0.365855
0.318444
0.350402
0.313416
0.310741
0.314635
0.334788
0.343012
0.343245
0.307968
0.314854
0.315437
0.316425
0.309847
0.310303
0.316071
0.311605
0.314092
0.329615
0.340813
0.358463
0.332064
0.313712
0.339696
0.309796
0.312935
0.311553
0.350482
0.364755
0.353672
0.308145
0.344416
0.310542
0.344858
0.311946
0.320499
0.341901
0.322751
0.310186
0.333855
0.347207
0.317571
0.318297
0.320328
0.310695
0.313021
0.322722
0.33109
0.310831
0.332134
0.3122
0.30831
0.35552
0.353683
0.354923
0.309467
0.322151
0.310998
0.309676
0.348816
0.316016
0.329752
0.333035
0.3128
0.358363
0.310047
0.335017
0.312771
0.343951
0.314624
0.344279
0.334844
0.317045
0.311912
0.312241
0.313001
0.314959
0.314133
0.31539
0.352018
0.348176
0.311526
0.310484
0.346745
0.366438
0.362581
0.380481
0.309149
0.314187
0.345326
0.320004
0.305723
0.391564
0.312894
0.307782
0.310762
0.31468
0.357588
0.320473
0.332679
0.339983
0.354759
0.333478
0.307882
0.312903
0.313225
0.323079
0.307864
0.313632
0.304795
0.364309
0.359373
0.309749
0.312175
0.312544
0.321131
0.313827
0.314492
0.32638
0.340021
0.321706
0.319861
0.316657
0.314802
0.378652
0.33304
0.374882
0.338647
0.30893
0.335723
0.31788
0.360973
0.311003
0.312391
0.312922
0.311264
0.313486
0.308659
0.309616
0.311416
0.30973
0.310075
0.315008
0.334584
0.313089
0.31349
0.311712
0.309233
0.305213
0.312165
0.331044
0.354699
0.347403
0.314552
0.362614
0.312097
0.310016
0.31119
0.309683
0.310014
0.311629
0.313202
0.312964
0.312749
0.311645
0.312428
0.312551
0.342391
0.336876
0.352075
0.316954
0.350801
0.312324
0.310201
0.344259
0.311669
0.308084
0.343393
0.351495
0.317784
0.322852
0.309517
0.316329
0.308192
0.310977
0.352877
0.31423
0.363764
0.33432
0.31459
0.311836
0.331082
0.310732
0.348492
0.328536
0.311847
0.311225
0.34299
0.313098
0.311461
0.34626
0.314189
0.315217
0.316267
0.324415
0.309634
0.341296
0.352785
0.312757
0.33761
0.359961
0.351741
0.319482
0.308722
0.310854
0.310138
0.309043
0.313128
0.358798
0.366948
0.327836
0.317885
0.320632
0.332136
0.346009
0.359014
0.310674
0.307581
0.305652
0.313709
0.311073
0.317312
0.31506
0.309532
0.350937
0.305173
0.331766
0.323578
0.333045
0.338528
0.321351
0.320714
0.331204
0.308947
0.309984
0.313626
0.309557
0.317139
0.372468
0.332418
0.315039
0.312515
0.316741
0.311618
0.317944
0.309236
0.353843
0.325903
0.314792
0.31238
0.36625
0.317412
0.31618
0.328268
0.321529
0.305694
0.311832
0.306933
0.366173
0.351623
0.334262
0.312294
0.313993
0.312031
0.309998
0.31209
0.330994
0.30942
0.336381
0.310574
0.344976
0.313718
0.315372
0.344496
0.366427
0.309483
0.360417
0.310793
0.349103
0.317201
0.378963
0.309612
0.31723
0.304666
0.304583
0.359792
0.318821
0.309412
0.312265
0.311139
0.312873
0.306719
0.32635
0.330305
0.315666
0.343993
0.312822
0.311731
0.346121
0.353473
0.312081
0.312412
0.309138
0.315096
0.312746
0.30737
0.308797
0.314205
0.325446
0.313524
0.313237
0.33367
0.330223
0.326565
0.312721
0.320392
0.310719
0.323806
0.319799
0.31305
0.311151
0.316528
0.355536
0.311126
0.313747
0.313417
0.364778
0.313846
0.314758
0.319961
0.395201
0.314024
0.324921
0.313
0.311229
0.31202
0.320754
0.311244
0.311518
0.311215
0.308862
0.33776
0.31287
0.319944
0.32456
0.324556
0.311519
0.310842
0.314042
0.309218
0.3137
0.306654
0.31022
0.32213
0.352823
0.308617
0.313584
0.311704
0.318126
0.310974
0.311596
0.309476
0.311234
0.312945
0.312656
0.313015
0.311525
0.362396
0.347459
0.314411
0.312576
0.312126
0.31025
0.311507
0.313989
0.311438
0.31304
0.343877
0.311496
0.312529
0.344094
0.326175
0.348591
0.309691
0.330516
0.314062
0.335949
0.31739
0.341031
0.363722
0.306642
0.306956
0.324093
0.391573
0.313171
0.313038
0.312994
0.312073
0.313488
0.312712
0.312936
0.31284
0.313812
0.341196
0.348836
0.370883
0.311665
0.309239
0.341191
0.313521
0.317214
0.310231
0.314756
0.312642
0.314537
0.312716
0.395389
0.306914
0.312786
0.312243
0.313153
0.332008
0.311353
0.32364
0.311508
0.309453
0.306442
0.318389
0.312925
0.309616
0.312545
0.311932
0.306721
0.31118
0.313415
0.367553
0.348978
0.313828
0.310198
0.31814
0.306639
0.324638
0.311887
0.310962
0.313059
0.313972
0.315441
0.316052
0.316075
0.323845
0.32605
0.315444
0.308921
0.307601
0.338632
0.361095
0.314978
0.333048
0.313035
0.333222
0.313886
0.310338
0.306847
0.321443
0.34853
0.310608
0.344947
0.311568
0.313666
0.311323
0.368742
0.337044
0.341531
0.312542
0.311074
0.309901
0.314173
0.307681
0.307844
0.318405
0.312174
0.310954
0.311161
0.311186
0.310972
0.31279
0.323
0.329849
0.371179
0.311021
0.311394
0.363436
0.309787
0.31735
0.361714
0.349018
0.310097
0.304015
0.313401
0.309729
0.317224
0.309464
0.312691
0.311958
0.314958
0.351913
0.343971
0.321381
0.313421
0.313932
0.306
0.312314
0.311735
0.312507
0.311537
0.315846
0.310892
0.320025
0.31398
0.31349
0.30834
0.314883
0.314051
0.307185
0.310881
0.335038
0.307787
0.314452
0.313588
0.313578
0.339335
0.310882
0.311285
0.316246
0.310421
0.31058
0.3129
0.310786
0.339781
0.344191
0.314518
0.310963
0.312243
0.313039
0.312617
0.31279
0.312947
0.310141
0.314035
0.309411
0.312242
0.360903
0.330695
0.319035
0.312837
0.311585
0.313386
0.335902
0.312878
0.354694
0.357535
0.310245
0.310009
0.309118
0.310693
0.313783
0.343868
0.309853
0.315914
0.361547
0.364841
0.309963
0.309621
0.312663
0.324722
0.312211
0.369697
0.349287
0.36349
0.310608
0.309466
0.308411
0.347896
0.338422
0.305318
0.324889
0.345668
0.315453
0.342802
0.354888
0.3591
0.347228
0.343745
0.31406
0.340667
0.368896
0.322266
0.308568
0.333828
0.35971
0.357595
0.318988
0.307025
0.312649
0.314741
0.349081
0.315591
0.308019
0.308615
0.311976
0.323941
0.30967
0.306826
0.321644
0.325685
0.350274
0.315543
0.321132
0.310641
0.352003
0.338717
0.336008
0.309906
0.346574
0.310712
0.341927
0.315426
0.327316
0.313104
0.31349
0.314975
0.356908
0.355755
0.335318
0.313488
0.338414
0.345681
0.35922
0.340046
0.315449
0.310509
0.318793
0.31248
0.313887
0.307076
0.311533
0.3123
0.313876
0.321442
0.314367
0.308359
0.318438
0.324993
0.305794
0.310745
0.336248
0.317239
0.359709
0.312518
0.312997
0.311973
0.315308
0.310753
0.311621
0.342029
0.384072
0.315701
0.310731
0.311381
0.345515
0.314351
0.313004
0.337428
0.308962
0.315077
0.310386
0.311555
0.314745
0.346204
0.316931
0.306855
0.313514
0.313583
0.308272
0.309521
0.311314
0.315538
0.369685
0.312694
0.308658
0.348811
0.309602
0.31182
0.350542
0.382768
0.308951
0.343151
0.313387
0.37916
0.329338
0.311653
0.308712
0.311332
0.30929
0.352877
0.306757
0.315049
0.334877
0.310689
0.324768
0.309882
0.311971
0.315809
0.339906
0.347645
0.348546
0.308103
0.342457
0.320679
0.32661
0.313279
0.31337
0.309532
0.314346
0.351431
0.316451
0.364552
0.354209
0.312557
0.312298
0.313873
0.311062
0.310806
0.340725
0.312659
0.365091
0.306553
0.351324
0.31603
0.316023
0.31052
0.313326
0.348283
0.312286
0.311508
0.310744
0.311506
0.311996
0.338
0.343452
0.364396
0.305572
0.307476
0.312405
0.342365
0.308464
0.308813
0.308999
0.354087
0.329942
0.309157
0.307709
0.307968
0.310134
0.312351
0.312411
0.353892
0.33511
0.316576
0.340519
0.312102
0.359875
0.329678
0.336853
0.342205
0.310502
0.372348
0.311472
0.313739
0.363922
0.355296
0.344653
0.306373
0.312215
0.33781
0.330011
0.344769
0.330128
0.332765
0.310573
0.364527
0.329498
0.335725
0.311544
0.34313
0.327231
0.329636
0.312403
0.310839
0.31872
0.335373
0.310158
0.314968
0.3151
0.311053
0.311904
0.310941
0.314079
0.32126
0.3599
0.346412
0.316992
0.308434
0.318168
0.354097
0.314976
0.306051
0.390596
0.344361
0.349744
0.313845
0.33352
0.322501
0.32236
0.361323
0.315287
0.359044
0.354648
0.321735
0.369409
0.320542
0.314736
0.364436
0.372058
0.36401
0.347715
0.325254
0.350883
0.358718
0.316414
0.337431
0.352467
0.330615
0.337762
0.317374
0.351501
0.343132
0.319859
0.332503
0.315315
0.32082
0.338426
0.3117
0.30925
0.339615
0.341754
0.317722
0.312103
0.349681
0.362897
0.307513
0.33707
0.325707
0.351186
0.343702
0.347342
0.307485
0.330618
0.309488
0.345884
0.312814
0.32835
0.35789
0.356698
0.33471
0.323929
0.335358
0.337269
0.369568
0.344821
0.30793
0.329366
0.349786
0.345309
0.323275
0.313039
0.339686
0.311538
0.313485
0.309041
0.321975
0.311241
0.334485
0.318579
0.313329
0.311339
0.386541
0.369509
0.372062
0.311589
0.366467
0.312354
0.349288
0.311759
0.30952
0.340207
0.311146
0.310571
0.310879
0.311655
0.309168
0.311907
0.31229
0.313248
0.311437
0.30931
0.311781
0.316047
0.319875
0.332678
0.311909
0.315398
0.313349
0.311889
0.3738
0.37079
0.378742
0.315558
0.31228
0.314507
0.317444
0.310799
0.309957
0.310554
0.318473
0.309417
0.314637
0.310675
0.311016
0.332815
0.313332
0.314858
0.31229
0.311401
0.322287
0.30912
0.312432
0.311314
0.312081
0.311804
0.311702
0.31537
0.312746
0.311207
0.316343
0.319549
0.312731
0.314861
0.311662
0.3105
0.310031
0.313039
0.312464
0.314711
0.314461
0.308859
0.329098
0.314558
0.326174
0.310965
0.310995
0.313476
0.315455
0.306946
0.313351
0.31157
0.311605
0.3139
0.31007
0.322878
0.316164
0.316166
0.312761
0.311116
0.307244
0.331642
0.311805
0.312392
0.310478
0.305955
0.341072
0.331248
0.32554
0.343113
0.345681
0.345931
0.313678
0.356406
0.354254
0.338955
0.362262
0.306853
0.310636
0.363794
0.311836
0.367068
0.320071
0.334129
0.310036
0.340312
0.377636
0.314394
0.332044
0.346937
0.331202
0.367163
0.309
0.316426
0.313603
0.344023
0.31538
0.338043
0.310039
0.321176
0.313706
0.335406
0.318181
0.3159
0.323656
0.313228
0.352109
0.343575
0.347566
0.328565
0.313722
0.309147
0.312602
0.329983
0.334756
0.317374
0.313202
0.358977
0.313206
0.311856
0.320567
0.359718
0.315448
0.325236
0.312492
0.363591
0.308463
0.308512
0.310823
0.338414
0.314359
0.336766
0.333681
0.345573
0.341245
0.343745
0.347804
0.31401
0.310929
0.325948
0.308163
0.307974
0.327733
0.324951
0.335513
0.354806
0.312456
0.310076
0.350456
0.340957
0.309138
0.315329
0.344116
0.344709
0.31399
0.314507
0.31402
0.308799
0.339937
0.307634
0.311719
0.313809
0.315515
0.314636
0.304391
0.312564
0.313034
0.310982
0.31328
0.31043
0.32496
0.317831
0.354647
0.365367
0.317761
0.352631
0.32352
0.32734
0.343632
0.309997
0.368257
0.307785
0.33813
0.313074
0.31158
0.315973
0.334819
0.37845
0.312488
0.349941
0.380122
0.334282
0.310275
0.369097
0.323693
0.323156
0.385585
0.349549
0.388159
0.384357
0.345119
0.310141
0.317836
0.387525
0.365567
0.374551
0.366755
0.325126
0.31085
0.373305
0.338269
0.365292
0.334534
0.326988
0.311841
0.310701
0.312914
0.337727
0.359694
0.308758
0.313274
0.333312
0.332036
0.344516
0.313295
0.318609
0.336899
0.352444
0.321095
0.313747
0.30801
0.305862
0.351634
0.315705
0.30814
0.329983
0.31043
0.35111
0.352347
0.345142
0.312209
0.338248
0.333461
0.339469
0.313751
0.314604
0.326719
0.340131
0.345696
0.312555
0.322804
0.31293
0.30877
0.369791
0.308766
0.339983
0.358821
0.307487
0.353815
0.314011
0.356657
0.31707
0.31845
0.324659
0.316441
0.326704
0.316523
0.31446
0.309359
0.348068
0.347917
0.329733
0.348148
0.313736
0.354655
0.316922
0.313457
0.349789
0.365754
0.314399
0.310922
0.322074
0.319393
0.340289
0.312674
0.311974
0.312095
0.343176
0.373406
0.366395
0.314531
0.37439
0.368026
0.335437
0.337057
0.34505
0.321085
0.359373
0.311086
0.314438
0.358928
0.325038
0.353573
0.311916
0.312552
0.308552
0.3102
0.310228
0.30962
0.339839
0.3094
0.309174
0.330777
0.340986
0.366696
0.323233
0.31134
0.309704
0.312971
0.320388
0.310635
0.322944
0.31062
0.310948
0.313791
0.309564
0.313056
0.36225
0.341796
0.333654
0.347613
0.358824
0.309438
0.323888
0.347918
0.30888
0.310627
0.307001
0.309397
0.31284
0.314934
0.30587
0.352801
0.312804
0.350685
0.309671
0.314514
0.312948
0.31306
0.311066
0.311643
0.313635
0.362575
0.319951
0.344383
0.312642
0.325019
0.368525
0.337782
0.361536
0.358213
0.345234
0.35182
0.35507
0.305521
0.312823
0.310347
0.344474
0.310812
0.313436
0.313354
0.314133
0.309879
0.310962
0.310352
0.350499
0.330614
0.312416
0.343328
0.314436
0.336005
0.330165
0.380633
0.335876
0.313889
0.314671
0.347222
0.318727
0.326254
0.311383
0.351264
0.316036
0.318469
0.317336
0.312999
0.358696
0.350844
0.310702
0.312518
0.313602
0.356423
0.354622
0.354385
0.31945
0.313397
0.314823
0.323565
0.328434
0.350309
0.30952
0.331498
0.310608
0.313163
0.323523
0.311116
0.368129
0.311898
0.312056
0.3629
0.32001
0.311341
0.305981
0.313721
0.337507
0.33211
0.312338
0.310685
0.309103
0.318126
0.312084
0.311019
0.308394
0.372973
0.336089
0.351084
0.315041
0.330297
0.317313
0.315241
0.3551
0.315991
0.312661
0.313694
0.313579
0.311209
0.312472
0.325705
0.368125
0.381691
0.346443
0.313933
0.311538
0.310597
0.312783
0.316904
0.312541
0.363368
0.31401
0.373586
0.315061
0.341369
0.314863
0.308908
0.312468
0.322593
0.307588
0.34199
0.306435
0.310777
0.371229
0.35337
0.346499
0.314565
0.311921
0.309755
0.312479
0.309453
0.313339
0.307799
0.345678
0.309951
0.314596
0.322041
0.311895
0.314003
0.334488
0.327161
0.312813
0.312777
0.310992
0.309865
0.309792
0.316151
0.310185
0.315509
0.311541
0.312211
0.351432
0.323196
0.31971
0.307871
0.314639
0.315816
0.315893
0.315922
0.311339
0.358555
0.311749
0.330232
0.309285
0.308482
0.317205
0.344709
0.323081
0.315635
0.311998
0.312312
0.337062
0.310022
0.30625
0.312456
0.316297
0.321344
0.366089
0.304739
0.313883
0.374928
0.313455
0.31169
0.318104
0.3286
0.311909
0.313714
0.313319
0.31709
0.31195
0.310965
0.311635
0.310159
0.306456
0.326924
0.347354
0.36025
0.312584
0.343748
0.306523
0.341702
0.313192
0.310118
0.311886
0.307375
0.310909
0.312966
0.312642
0.327716
0.312025
0.336571
0.324855
0.311593
0.311765
0.310316
0.308989
0.335673
0.309451
0.36209
0.310018
0.3096
0.323107
0.358504
0.309328
0.310108
0.311422
0.311203
0.309686
0.344194
0.364257
0.308524
0.355313
0.308533
0.344608
0.31067
0.310313
0.318216
0.311868
0.311437
0.309696
0.311448
0.309168
0.363073
0.340345
0.315914
0.321412
0.313692
0.348415
0.310744
0.313653
0.309472
0.310895
0.308024
0.31503
0.310548
0.312293
0.311678
0.313727
0.334752
0.341532
0.310532
0.307086
0.311938
0.30851
0.369172
0.312747
0.31202
0.317456
0.31416
0.312796
0.313712
0.330158
0.311688
0.306278
0.313902
0.331491
0.320946
0.347568
0.313819
0.334364
0.311948
0.363923
0.369767
0.349388
0.336989
0.329406
0.355834
0.323267
0.311477
0.315702
0.313863
0.36308
0.322022
0.322641
0.339559
0.311042
0.323792
0.318764
0.309791
0.323866
0.340289
0.31932
0.313495
0.31295
0.313932
0.313966
0.312661
0.312025
0.311274
0.342574
0.34566
0.329998
0.313746
0.348491
0.354647
0.348226
0.339686
0.326018
0.336841
0.314669
0.316164
0.316271
0.315534
0.308835
0.313138
0.314511
0.312198
0.333792
0.313683
0.36137
0.375797
0.319271
0.349811
0.354928
0.326657
0.310886
0.311923
0.309339
0.360347
0.314411
0.311398
0.324734
0.312981
0.311732
0.319748
0.347728
0.347315
0.336482
0.318416
0.313174
0.322734
0.353795
0.340926
0.353368
0.322182
0.315307
0.31324
0.308713
0.309005
0.312382
0.311006
0.322537
0.310652
0.323562
0.313278
0.354515
0.311965
0.315577
0.318332
0.319815
0.372987
0.342483
0.313857
0.32221
0.313076
0.337702
0.328874
0.314845
0.311318
0.370716
0.30915
0.308621
0.310564
0.375647
0.308381
0.325096
0.309507
0.306837
0.31721
0.31252
0.339844
0.311258
0.323984
0.324405
0.372234
0.366695
0.332459
0.313629
0.346969
0.35465
0.311685
0.324142
0.331768
0.31387
0.335819
0.319261
0.313725
0.328324
0.321597
0.316282
0.350602
0.330359
0.313001
0.347955
0.354046
0.310767
0.348215
0.323583
0.313316
0.306596
0.323228
0.315027
0.323261
0.315431
0.352713
0.311557
0.31364
0.332292
0.314514
0.336394
0.308814
0.330457
0.312553
0.367147
0.312601
0.312067
0.352333
0.310898
0.314051
0.31126
0.31255
0.354339
0.317007
0.366388
0.307271
0.309331
0.309292
0.310138
0.345206
0.313204
0.313053
0.312686
0.316788
0.317907
0.354237
0.310919
0.309541
0.310611
0.311162
0.336716
0.3634
0.367364
0.331595
0.315842
0.312449
0.3489
0.314856
0.35859
0.312468
0.311485
0.311689
0.305556
0.3132
0.31343
0.342394
0.312012
0.31114
0.310881
0.322313
0.31141
0.334013
0.344118
0.321801
0.310499
0.358452
0.313509
0.314995
0.332583
0.311597
0.322954
0.315704
0.313982
0.310827
0.356614
0.313927
0.315887
0.314575
0.312472
0.310683
0.330732
0.313901
0.315685
0.31513
0.314299
0.332118
0.349764
0.339365
0.313753
0.312839
0.317837
0.312869
0.317781
0.310775
0.334396
0.337551
0.310619
0.309912
0.313208
0.35118
0.333027
0.364423
0.313652
0.310613
0.310348
0.309306
0.372233
0.315693
0.309709
0.309434
0.318688
0.364353
0.332893
0.311371
0.31074
0.31771
0.311546
0.309247
0.30938
0.311904
0.312896
0.311829
0.312631
0.320548
0.32079
0.344208
0.331158
0.364728
0.312148
0.3159
0.321029
0.312788
0.311137
0.312197
0.314136
0.311252
0.313062
0.31059
0.361627
0.31759
0.31191
0.356003
0.311851
0.312723
0.316724
0.309711
0.327007
0.312528
0.312238
0.312564
0.348795
0.311207
0.31372
0.350032
0.312628
0.312834
0.346012
0.364233
0.332612
0.329388
0.341865
0.314473
0.316715
0.310153
0.324178
0.311121
0.315022
0.314573
0.356877
0.348442
0.342881
0.348344
0.313828
0.311658
0.311678
0.311972
0.312232
0.311663
0.347927
0.309809
0.311148
0.324224
0.320813
0.32806
0.313782
0.311423
0.311216
0.312701
0.356209
0.311204
0.311036
0.310149
0.32803
0.311491
0.308368
0.31555
0.358241
0.309871
0.313537
0.310384
0.311192
0.311883
0.326083
0.357333
0.338004
0.318214
0.313555
0.317687
0.308738
0.308154
0.307355
0.312902
0.311731
0.326328
0.310429
0.312957
0.301547
0.310704
0.310404
0.325295
0.353513
0.311216
0.307916
0.308949
0.308499
0.311958
0.350036
0.313443
0.312226
0.312188
0.308066
0.315097
0.363297
0.346531
0.35872
0.32669
0.308275
0.314809
0.310594
0.314927
0.321622
0.313379
0.315792
0.311494
0.311926
0.324522
0.340872
0.321241
0.31264
0.313193
0.314648
0.340991
0.308878
0.320215
0.345703
0.338317
0.312396
0.315288
0.30577
0.312962
0.311982
0.32478
0.337392
0.312441
0.312545
0.346905
0.319753
0.309498
0.319046
0.312058
0.34307
0.317378
0.311762
0.314748
0.310189
0.379918
0.310563
0.309596
0.313109
0.338447
0.309401
0.31109
0.308828
0.309055
0.311163
0.316883
0.313313
0.316404
0.348597
0.344568
0.323746
0.312446
0.337548
0.376996
0.308994
0.326225
0.312268
0.313623
0.337536
0.353717
0.322297
0.335146
0.310925
0.306735
0.323939
0.309927
0.311043
0.311824
0.311217
0.310321
0.342011
0.309907
0.317655
0.314984
0.343121
0.314169
0.310412
0.332959
0.310577
0.311613
0.360646
0.31758
0.339075
0.318827
0.311975
0.307877
0.314384
0.349293
0.335501
0.321892
0.321458
0.34609
0.395266
0.324467
0.323659
0.338193
0.317561
0.307112
0.312285
0.348229
0.3196
0.311978
0.352899
0.312725
0.316329
0.344632
0.310798
0.314193
0.315245
0.313927
0.35059
0.312498
0.380468
0.317394
0.356261
0.372802
0.364727
0.342152
0.398256
0.312357
0.312572
0.369396
0.353033
0.311775
0.306372
0.312743
0.34046
0.308603
0.345982
0.368149
0.370301
0.354158
0.374239
0.309941
0.312875
0.352545
0.376172
0.339342
0.358371
0.321916
0.31848
0.371541
0.37138
0.358213
0.31225
0.355569
0.31449
0.313266
0.327346
0.326441
0.331507
0.312054
0.31074
0.32513
0.342731
0.308069
0.307268
0.313009
0.314139
0.313506
0.330788
0.345881
0.326895
0.322071
0.3225
0.316413
0.317664
0.330455
0.336371
0.344973
0.316984
0.312752
0.31223
0.339951
0.32588
0.356216
0.352936
0.311241
0.31157
0.313094
0.311555
0.311267
0.312444
0.321448
0.311161
0.314226
0.347698
0.356235
0.310371
0.316404
0.352679
0.313324
0.316603
0.310646
0.313148
0.360446
0.319848
0.336478
0.346619
0.383252
0.312715
0.340855
0.332656
0.309376
0.314276
0.315755
0.323152
0.307213
0.334416
0.342747
0.311738
0.331514
0.313472
0.307028
0.346514
0.343574
0.31472
0.312863
0.337084
0.350234
0.314035
0.351627
0.312944
0.338268
0.351947
0.312552
0.341034
0.309755
0.33664
0.308053
0.336613
0.317887
0.310136
0.33909
0.367714
0.31238
0.324231
0.310547
0.322657
0.336297
0.311118
0.353855
0.309563
0.315826
0.313776
0.36597
0.319012
0.308347
0.3127
0.333525
0.328588
0.313291
0.354295
0.314161
0.329687
0.309482
0.310837
0.310372
0.312128
0.307781
0.328506
0.316101
0.309743
0.339922
0.312291
0.311404
0.312674
0.311744
0.337163
0.38776
0.319671
0.369589
0.335671
0.376235
0.331021
0.313633
0.320501
0.309489
0.357999
0.313131
0.338318
0.312089
0.313866
0.37398
0.356337
0.319848
0.312561
0.314087
0.324676
0.347052
0.313859
0.332744
0.338342
0.308798
0.341806
0.308369
0.308429
0.327798
0.351885
0.329172
0.360186
0.302988
0.362976
0.315779
0.315131
0.344491
0.314794
0.314611
0.31371
0.322248
0.313159
0.313988
0.314196
0.316141
0.313785
0.314449
0.313196
0.309287
0.333791
0.340818
0.320399
0.330527
0.34826
0.321021
0.337491
0.311763
0.310219
0.311263
0.310661
0.314434
0.311203
0.311848
0.311419
0.309777
0.309408
0.330307
0.340278
0.308945
0.31294
0.314112
0.346409
0.315841
0.337888
0.315543
0.357463
0.32922
0.307911
0.342613
0.312051
0.34807
0.309075
0.311757
0.315841
0.338277
0.309901
0.310885
0.316861
0.315012
0.334442
0.310165
0.308961
0.310145
0.313405
0.314632
0.313586
0.315281
0.328098
0.354762
0.321708
0.308425
0.311892
0.315209
0.311657
0.311306
0.313564
0.312161
0.31354
0.311862
0.310401
0.307938
0.310483
0.307896
0.311663
0.313953
0.311414
0.354367
0.312038
0.324964
0.318997
0.310268
0.310828
0.308923
0.31158
0.35295
0.314117
0.313017
0.320192
0.340924
0.314389
0.368527
0.341275
0.363178
0.357122
0.315685
0.315612
0.315609
0.316996
0.312012
0.318164
0.34164
0.310555
0.359342
0.315319
0.31057
0.312716
0.323135
0.314558
0.311203
0.311345
0.315482
0.340722
0.311161
0.310186
0.369758
0.355568
0.310364
0.354309
0.320181
0.350149
0.315549
0.310378
0.314417
0.316881
0.310086
0.321169
0.327217
0.310464
0.31221
0.314604
0.352733
0.349145
0.336567
0.313719
0.314157
0.308723
0.359603
0.339283
0.312468
0.312258
0.352774
0.362027
0.311713
0.33877
0.343181
0.311169
0.343694
0.31335
0.31318
0.312457
0.313141
0.313266
0.312701
0.31217
0.31232
0.313585
0.314052
0.311495
0.311115
0.314605
0.337052
0.353185
0.31503
0.313607
0.335424