/*--------------------------------*- C++ -*----------------------------------*\
| =========                 |                                                 |
| \\      /  F ield         | OpenFOAM: The Open Source CFD Toolbox           |
|  \\    /   O peration     | Version:  2506                                  |
|   \\  /    A nd           | Website:  www.openfoam.com                      |
|    \\/     M anipulation  |                                                 |
\*---------------------------------------------------------------------------*/
FoamFile
{
    version     2.0;
    format      ascii;
    arch        "LSB;label=32;scalar=64";
    class       volScalarField;
    location    "0.0207921";
    object      k;
}
// * * * * * * * * * * * * * * * * * * * * * * * * * * * * * * * * * * * * * //

dimensions      [0 2 -2 0 0 0 0];

internalField   nonuniform List<scalar> 
3918
(
0.595243
0.369323
0.389593
0.421821
0.397531
0.794611
0.782075
0.428048
0.369333
0.464749
0.484534
0.640292
0.715322
0.501432
0.395295
0.58728
0.696389
0.300205
0.24027
0.459704
0.777442
0.404755
0.389911
0.610546
0.391668
0.75088
0.439964
0.400612
0.29269
0.685083
0.345008
0.386638
0.397957
0.532652
0.57656
0.956441
0.394698
0.432479
0.680564
0.377926
0.508122
0.369269
0.506588
0.528312
0.385139
0.528929
0.402517
0.634511
0.625513
0.447581
0.559551
0.550923
0.486096
0.722628
0.368572
0.597494
0.366759
0.604007
0.463119
0.445504
0.434732
0.394147
0.430732
0.576198
0.650708
0.378139
0.552478
0.486339
0.63897
0.539522
0.481849
0.791612
0.72532
0.819368
0.472515
0.420141
0.589218
0.692655
0.649662
0.382508
0.453947
0.678498
0.685629
0.538311
0.384572
0.587539
0.24709
0.300656
1.10401
0.383621
0.472561
0.411544
0.815487
0.452515
0.372148
0.387137
0.526207
0.374923
0.436878
0.708612
0.384613
0.396092
0.388594
0.389725
0.401436
0.327552
0.459493
0.531275
0.394514
0.618445
0.341745
0.437103
0.164179
0.347188
0.42538
0.341373
0.234277
0.523042
0.741143
0.819268
0.431377
1.2398
0.716337
0.291793
0.515689
1.00304
0.511107
0.520837
0.571278
0.458452
0.375413
0.68132
0.668437
0.422408
0.471832
0.555996
0.28873
0.299574
0.229489
0.574415
0.646101
0.312901
0.633701
0.778767
0.735847
0.665209
0.67739
0.689533
0.834941
0.66756
0.418741
0.448539
0.420339
0.721274
0.515244
0.561014
0.96659
0.792045
0.379179
0.39961
0.388859
0.304025
0.343539
0.800088
0.273809
0.399236
0.249924
0.45345
0.202023
0.391667
0.539527
0.334948
0.21531
0.22495
0.361643
0.732898
0.948631
0.488873
0.741176
0.494714
0.382873
0.730931
1.11262
0.68144
0.744391
0.554682
0.615751
0.537319
0.665671
0.690254
0.361164
0.733797
0.639546
0.684941
0.480102
0.534513
0.479534
0.61654
0.848956
0.420978
0.939443
0.722283
0.227358
0.500619
0.197582
0.56055
0.697204
0.702206
0.760227
0.422573
0.559196
0.263049
0.437597
0.320126
0.45118
0.802143
0.659567
0.581453
0.372142
0.627614
0.748865
0.941989
0.452193
0.422895
0.600403
0.852071
0.48338
0.554147
0.803613
0.573045
0.792226
0.788214
0.580428
0.485718
0.369272
0.831904
0.246892
0.432575
0.710557
0.379003
0.339749
0.796686
0.625233
0.487155
0.407275
0.437143
0.39101
0.477048
0.61931
0.429377
0.483321
0.781685
0.409386
0.467237
0.569455
0.479244
0.554077
0.490851
0.697191
0.566672
0.368632
0.588003
1.00076
0.360682
0.646641
0.450526
0.766457
0.475157
0.65595
0.467155
0.450783
0.500658
0.400995
0.508404
0.468575
0.463628
0.726534
0.758068
0.897701
0.428628
0.534193
0.718427
0.492075
0.410256
0.447773
0.623076
0.408679
0.9309
0.379562
0.431422
0.890423
0.492075
0.751147
0.374063
0.570848
0.51658
0.932108
0.288032
0.476159
0.442133
0.529971
0.461366
0.434828
0.659593
0.745378
0.553886
0.658714
0.486827
0.369609
0.571352
0.628304
0.857156
0.466276
0.312521
0.585317
0.810968
0.415203
0.456031
0.918086
0.950679
0.525476
0.285925
0.662541
0.647874
0.419633
0.794368
0.396954
0.553102
0.447304
0.397702
0.543982
0.536061
0.466749
0.694363
0.439467
0.50925
0.702314
0.426901
0.749554
0.380955
0.374613
0.428221
0.700862
0.469337
0.495526
0.671539
0.651394
0.602762
0.483072
0.578886
0.760322
0.355073
0.706722
0.409472
0.377265
0.370035
0.702971
0.680645
0.587139
0.43598
0.457318
0.733338
0.60137
0.626355
0.700559
0.443291
0.581654
0.702945
0.718202
0.658102
0.505844
0.467376
0.702487
0.677665
0.605531
0.459291
0.673559
0.500842
0.543118
0.362175
0.384292
0.622545
0.484102
0.464322
0.802612
0.855107
0.603916
0.445999
0.849492
0.592053
0.469149
0.688716
0.58766
0.715145
0.413198
0.691572
0.65571
0.412843
0.683346
0.66348
0.367006
0.382391
0.482791
0.485711
0.480449
0.424099
0.646658
0.295989
0.463193
1.00043
0.833466
0.504684
0.395399
0.67706
0.53227
0.435956
0.703669
0.367509
0.459319
0.391294
0.400353
0.64817
0.394993
0.430493
0.460604
0.383442
0.486565
0.373015
0.464359
0.461079
0.410761
0.495624
0.325619
0.628672
0.435028
0.734354
0.806074
0.429535
0.444085
0.420372
0.403737
0.501205
0.663367
0.657096
0.756817
0.444428
0.627906
0.561682
0.686123
0.504754
0.667211
0.587864
0.616108
0.489253
0.551051
0.62208
0.883221
0.700536
0.83224
0.661661
0.379972
0.636455
0.60364
0.383822
1.00407
0.637645
0.381095
0.344297
0.377576
0.443062
0.280771
0.409875
0.907678
0.844591
0.490412
0.472209
0.338166
0.856321
1.01989
0.603644
0.594825
0.457634
0.4057
0.471132
0.584835
0.481575
0.694029
0.73165
0.460663
0.30896
0.786446
0.569704
0.4788
0.635738
0.408015
0.357366
0.853511
0.392187
0.980172
0.434427
0.387898
0.449949
0.386788
0.544051
0.433816
0.41732
0.524088
0.507334
0.406343
0.400326
0.486963
0.450576
0.377437
0.41011
0.389534
0.384114
0.386336
0.468834
0.392916
0.401483
0.444757
0.475746
0.369464
0.699124
0.655962
0.454392
0.687956
0.392387
0.488608
0.505443
0.479867
0.983382
0.466522
0.616528
0.428225
0.419668
0.6406
0.524126
0.369946
0.480548
0.446272
0.410185
0.408551
0.388939
0.54763
0.84754
0.576566
0.743907
0.424826
0.497864
0.385123
1.08448
0.753225
0.629446
0.509236
0.286724
0.764191
0.825373
0.473896
0.860326
0.653835
0.579528
0.366844
0.698149
0.757256
0.738261
0.477681
0.437257
0.360355
0.424366
0.569336
0.916775
0.669148
0.495797
0.641718
0.697412
0.510835
0.427554
0.701036
0.421479
0.448474
0.701778
0.550741
0.443965
0.612554
0.683684
0.749418
0.728824
1.05465
0.759777
0.70722
0.381504
0.680828
0.474397
0.828946
1.09576
0.566872
0.811899
0.821925
0.690147
0.364906
0.881192
1.0256
0.683851
0.702426
0.9416
0.556754
0.557482
0.58383
0.603792
0.866317
0.508863
0.822833
0.551645
0.414437
0.633349
0.626138
0.485165
0.562056
0.506854
0.865821
0.852916
0.705547
0.535626
0.296984
0.650607
0.259867
0.2616
0.254438
0.415216
0.399125
0.35555
0.36774
0.417405
0.311588
0.470674
0.545104
0.46797
0.553296
0.534393
0.437202
0.424541
0.450016
0.527069
0.653944
0.494301
0.404277
0.371972
0.505428
0.361415
0.365765
0.668124
0.381472
0.429417
0.386487
0.388273
0.419506
0.599601
0.493934
0.99948
0.460908
0.692533
0.465595
0.668912
0.625401
0.653182
0.629257
0.67254
0.600364
0.444039
0.377651
0.424432
0.593409
0.385455
0.449461
0.446299
0.74802
0.819575
0.508967
1.05094
0.425342
0.404
0.397986
0.411898
0.449232
0.441798
0.706625
0.431776
0.468294
0.498225
0.643383
0.50931
0.851717
0.849057
0.54958
0.938644
0.822186
0.669279
0.748688
0.988495
0.721132
0.544888
0.885076
0.463463
0.455609
0.462503
0.520431
0.417212
0.606673
0.671859
0.705669
0.70526
0.483544
0.457038
0.502844
0.537476
0.523098
0.392561
0.380416
0.373002
0.393902
0.499677
0.368525
0.392253
0.380558
0.489137
0.392056
0.373674
0.373101
0.387151
0.781006
0.647884
0.729697
0.378544
0.733739
0.40389
0.679405
0.497167
0.419246
0.438055
0.366949
0.732421
0.442561
1.0268
0.376886
0.493841
0.722487
0.908072
0.368207
0.454225
0.465803
0.487614
0.490533
0.407123
0.614338
0.844661
0.732643
0.413198
0.730636
0.878112
0.604932
1.00236
0.395707
0.40343
0.40461
0.498506
0.528347
0.534973
0.692034
0.692432
0.415091
0.595983
0.526361
0.548152
0.579022
0.421801
0.443406
0.51848
0.537919
0.687757
0.593308
1.00469
0.375787
0.376109
0.911592
0.399224
0.371218
0.429158
0.486674
0.485749
0.705725
0.892296
0.552466
0.753858
0.594586
0.390722
0.401702
0.421529
0.432614
0.432418
0.455304
0.421702
0.895701
0.891828
0.498161
0.684364
0.444292
0.386714
0.627408
0.637219
0.442724
0.484492
0.406978
0.758784
0.427682
0.788302
0.419854
0.427896
0.359434
0.379159
0.698488
0.769016
0.657118
0.71754
0.830972
0.638146
0.492661
0.470851
0.596421
0.544656
0.449713
0.553367
0.823095
0.455415
0.388616
0.41065
0.550916
0.559699
0.395129
0.674823
0.607391
0.838894
0.387439
0.469504
0.631599
0.664231
0.480669
0.545995
0.639304
0.365492
0.381242
0.481047
0.476668
0.786032
0.510265
0.410987
0.810726
0.740931
0.666443
0.906518
0.837797
0.686872
0.407412
0.38719
0.722458
0.408539
0.392176
0.385852
0.459551
0.435246
0.507469
0.411252
0.427613
0.588706
0.685163
0.74828
0.384952
0.57583
0.401418
0.433929
0.568474
0.412145
0.373342
0.56818
0.409284
0.551937
0.696982
1.12694
0.674183
0.550262
0.355989
0.424398
0.519944
0.738707
0.415844
0.80317
0.628887
0.495198
0.537238
0.479898
0.715262
0.424788
0.435412
0.705267
0.528896
0.762762
0.772781
0.771011
0.924881
0.712007
0.431016
0.368768
0.450998
0.454516
0.610441
0.596095
0.507584
0.370768
0.404259
0.531823
0.39343
0.427549
0.462926
0.48011
0.482079
0.827515
0.439216
0.418002
0.491447
0.462229
0.562026
0.444998
0.82695
0.499013
0.676248
0.8285
0.478798
0.421283
0.936358
0.391861
0.417524
0.587123
0.585069
0.714543
0.890781
0.62303
0.676845
0.589987
0.323417
0.427554
0.88025
0.714533
0.876634
0.437838
0.414828
0.452848
0.387103
0.79512
0.838439
0.544703
0.423864
0.463686
0.493596
0.452993
0.461675
0.684563
0.487284
0.742618
0.461091
0.462027
0.549665
0.654355
0.418419
0.694894
0.583721
0.648429
1.42031
0.763043
0.411461
0.763167
0.99105
1.10362
0.278322
0.656082
0.417001
0.588638
0.718948
0.404281
0.367218
0.385262
0.537973
0.39858
0.898763
0.823389
0.464491
0.268653
0.877961
0.669434
0.739499
0.287164
0.359924
0.684086
0.533376
0.407823
0.493401
0.575773
0.732673
0.611117
0.542961
0.425123
0.905898
0.668434
0.432344
0.791562
0.364084
0.381559
0.744643
0.435175
0.767194
0.493396
0.633551
0.614039
0.428597
0.629864
0.668025
0.382389
0.67211
0.416094
0.377424
0.381978
0.446773
0.507412
0.448626
0.41085
0.882655
0.598303
0.37138
0.491866
0.734518
0.405776
0.630171
0.567311
0.541323
0.817398
0.615011
0.534986
0.432994
0.439952
0.457647
0.383141
0.474417
0.858649
0.622786
0.611645
0.391631
0.548553
0.381518
0.37137
0.413656
0.464514
0.460004
0.416929
0.467488
0.40426
0.569618
0.714426
0.639363
0.409284
0.357938
0.464022
0.418084
0.660279
0.47162
0.642361
0.756519
0.710355
0.279184
0.651527
0.402492
0.655174
0.738597
0.370508
0.418877
0.861856
0.370547
0.40021
0.84723
0.589786
0.671944
0.387955
0.41438
0.473453
0.476274
0.452836
0.315582
0.570975
0.508305
0.420305
0.466663
0.470676
0.568813
0.441795
0.427301
0.596027
0.746837
0.802955
0.589836
0.718771
0.410588
0.358305
0.500604
0.57221
0.586729
0.652145
0.707282
0.62058
0.391457
0.387927
0.370027
0.514228
0.598147
0.564843
0.597507
0.518746
0.529365
0.55499
0.64955
0.839307
0.380631
0.38022
0.485479
0.377466
0.373645
0.405005
0.381118
0.365165
0.419408
0.426366
0.401706
0.263627
0.775989
0.404185
0.40602
0.396623
0.63907
0.317784
0.509423
0.385781
0.384108
0.393538
0.663871
0.661815
0.706161
0.463438
0.433599
0.629683
0.72141
0.869708
0.371351
0.783503
0.793976
0.411923
0.639285
0.641448
0.467271
0.46552
0.405626
0.485919
0.411103
0.371371
0.465444
0.70292
0.80009
0.368438
0.64265
0.561094
0.496249
0.393977
0.37723
0.498672
0.370149
0.501347
0.42332
0.286472
0.427226
0.661398
0.394771
0.425651
0.392851
0.681237
0.400887
0.513372
0.66462
0.410015
0.399407
0.795056
0.86543
0.279466
0.503181
0.510417
0.440882
0.541346
0.712611
0.733938
0.499298
0.387037
0.42133
0.777448
0.624773
0.470038
0.533119
0.678784
0.382835
0.385158
0.380361
0.397435
0.376224
0.545083
0.44067
0.450938
0.37936
0.377106
0.364647
0.421192
0.653095
0.412498
0.42459
0.790864
0.47844
0.423797
0.399427
0.380911
0.402829
0.40359
0.386347
0.395643
0.650916
0.514255
1.01061
0.503407
0.442702
0.434602
0.414427
0.38939
0.345287
0.307291
0.520083
0.202772
0.889734
0.879614
0.544135
0.510071
0.935509
0.423221
0.384887
0.375867
0.390729
0.368151
0.686736
0.44996
0.381508
0.368808
0.585205
0.507027
0.436266
0.366294
0.403043
0.390076
0.411824
0.363091
0.375631
0.364256
0.387503
0.364455
0.563041
0.448135
0.401104
0.32709
0.96602
0.423605
0.265659
0.734021
0.331445
0.514916
0.698206
0.242349
0.247785
0.436206
0.701265
0.428444
0.424371
0.474897
0.468721
0.759839
0.375105
0.949846
0.682598
0.642339
0.698841
0.638156
0.474339
0.474386
0.37235
0.369847
0.682813
0.548963
0.683048
0.751705
0.713738
0.832933
0.450748
0.592075
0.809648
0.426411
0.416282
0.454777
0.667362
0.424277
0.75178
0.501183
0.421439
0.637823
0.642395
0.459832
0.52071
0.611682
0.420221
0.674202
0.503657
0.74096
0.677925
0.516906
0.326061
0.341867
0.708393
0.481504
0.724109
0.398481
0.362067
0.408825
0.45277
0.377666
0.689863
0.548604
0.379098
0.680056
0.23881
0.929373
0.490228
0.631756
0.941426
0.603332
0.420672
0.633009
0.524435
0.655426
0.533104
0.384575
0.488809
0.391176
0.391775
0.741257
0.761095
0.732238
0.385929
0.558642
0.696435
0.796627
0.470787
0.558954
0.664137
0.933436
0.757149
0.374433
0.989928
0.460559
0.902297
0.798597
0.797233
0.752698
0.45821
0.494073
0.806477
0.396249
0.602416
0.687783
0.3778
0.749705
0.95915
0.642505
0.824781
0.391405
0.698417
0.412998
0.578922
0.556082
0.727385
0.73867
0.702244
0.398604
0.581013
0.395387
0.431143
0.896823
0.361642
0.577325
0.587223
0.655263
0.960518
0.377622
0.383461
0.40913
0.481302
0.366866
0.378457
0.369593
0.402587
0.376837
0.404283
0.790468
0.82937
0.384004
0.454589
0.286519
0.699434
0.471946
0.713645
0.416218
0.421526
0.704138
0.369955
0.375318
0.365518
0.38352
0.502904
0.771978
0.385337
0.359001
0.671355
0.506812
0.452285
0.471341
0.420708
0.404795
0.580965
0.647764
0.660434
0.463356
0.407472
0.553994
0.420898
0.415713
0.698753
0.977209
0.839966
0.47496
0.443198
0.421598
0.429466
0.508414
0.423677
0.655303
0.652744
0.599047
0.43506
0.390021
0.413766
0.389105
0.434083
0.424075
0.461857
0.604558
0.711565
0.433668
0.542469
0.440486
0.39211
0.668993
0.633515
0.726329
0.793917
0.613606
0.511279
0.591771
0.432347
0.426717
0.398327
0.369756
0.421858
0.420781
0.462461
0.605689
0.694621
0.589223
0.845434
0.751305
0.739709
0.466895
0.413916
0.493895
0.329924
0.810566
0.572465
0.283233
0.535016
0.662592
0.574303
0.478708
0.522632
0.226334
0.430402
0.795637
0.462476
0.439422
0.692519
0.469352
0.396084
0.397868
0.462646
0.495636
0.536949
0.54655
1.02598
0.637179
0.424251
0.781184
0.489984
0.428637
0.697194
0.496444
0.577412
0.447987
0.435332
0.680623
0.817062
0.436906
0.546705
0.399548
0.466229
0.696672
0.521839
0.871675
0.421834
0.602475
0.559007
0.531024
0.545975
0.83562
0.743263
0.378226
0.500163
0.551965
0.483582
0.515985
0.462449
0.427827
0.380113
0.700908
0.555805
0.677946
0.524477
0.630231
0.821891
0.373932
0.383031
0.428425
0.374404
0.766257
0.676876
0.651476
0.878856
0.343263
0.401248
0.370437
0.504
0.320539
0.584269
0.678743
0.64705
0.672072
0.377225
0.54074
0.801489
0.484046
0.401572
0.416142
0.45218
0.461733
0.390358
0.415597
0.824647
0.340995
0.62844
0.741358
0.402127
0.472
0.715188
0.512493
0.381859
0.466968
0.648845
0.383685
0.596133
0.394805
0.547217
0.871118
0.525411
0.59024
0.578349
0.790375
0.410386
0.480392
0.447132
0.38744
0.424822
0.471361
0.485192
0.378465
0.611869
0.416983
0.509638
0.446963
0.559852
0.40996
0.370321
0.638874
0.559425
0.679867
0.52927
0.603042
0.491212
0.424191
0.417731
0.242496
0.436463
0.516784
0.406584
0.618925
0.606386
0.433646
0.519017
0.479682
0.626315
0.382288
0.517907
0.455589
0.433394
0.649239
0.608195
0.558787
0.420573
0.575999
0.452246
0.372253
0.64585
0.733676
0.391577
0.692716
0.699111
0.456443
0.501564
0.473255
0.501146
0.368447
0.574531
0.649026
0.550873
0.520785
0.492099
0.541475
0.714258
0.242655
0.276163
0.349721
0.309695
0.258214
0.635101
0.73914
0.676822
0.613422
0.714137
0.482753
0.367095
0.416885
0.367774
0.568387
0.408806
0.609623
0.628315
0.501247
0.531762
0.491532
0.585062
0.545088
0.858346
0.625092
0.364967
0.57965
0.431482
0.742157
0.769037
0.537994
0.435508
0.417236
0.397811
0.636822
0.663643
0.832146
0.792484
0.547926
0.718167
0.703174
0.627993
0.756372
0.713089
0.320226
0.374257
0.46183
0.599891
0.438674
0.472527
0.382423
0.329898
0.638342
0.620698
0.389781
0.556513
0.672301
0.449727
0.460372
0.412132
0.868201
0.584738
0.424147
0.414489
0.773769
0.513126
0.980135
0.577465
0.483453
0.562123
0.38342
0.570535
0.432346
0.711399
0.592459
0.666532
0.797057
0.678352
0.569057
1.05162
0.533433
0.363865
0.825832
0.414192
0.470646
0.475565
0.685737
0.626987
0.529505
0.450476
0.735429
0.744566
0.524161
0.483296
0.38587
0.449574
0.713285
0.615979
0.456488
0.719519
0.776627
0.389079
0.383132
0.662779
0.396139
0.385474
0.819139
0.936376
0.957245
0.421894
0.483313
0.689847
0.668571
0.564688
0.463094
0.472944
0.485951
0.38484
0.386011
0.383081
0.377298
0.438683
0.512003
0.440915
0.395656
0.522773
0.54811
0.463504
0.456036
0.480912
0.402524
0.506234
0.636576
0.518846
0.478067
0.448694
0.557254
0.409324
0.407904
0.388311
0.386892
0.377908
0.621678
0.413805
0.441248
0.291874
0.25541
0.626798
0.632461
0.494428
0.609228
0.662938
0.623192
0.436112
0.391549
0.831628
0.851079
0.443963
0.8863
0.855213
0.814085
1.01702
0.39346
0.392148
0.738191
0.889821
0.487702
0.607333
0.618934
0.664299
0.399138
0.496619
0.471017
0.565762
0.453362
0.453142
0.783282
0.60131
0.847259
0.545396
0.789473
0.447674
0.724328
0.520961
0.704192
0.633786
0.63234
0.447962
0.369714
0.503663
0.500682
0.577077
0.437281
0.506615
0.573318
0.597941
0.444931
0.578842
0.651876
0.666903
0.349688
0.496835
0.507717
0.829067
0.581753
0.480632
0.773356
0.531997
0.436551
0.48401
0.597584
0.835874
0.389134
0.647166
0.599635
0.820261
0.793659
0.429843
0.540961
0.571209
0.62543
0.827641
0.310707
0.626865
0.496826
0.86275
0.337709
0.742324
0.704399
0.80317
0.7488
0.606303
0.688821
0.757199
0.589909
0.780545
0.694204
0.553278
0.394327
0.392176
0.422595
0.485277
0.370318
0.826154
0.551982
0.575926
0.589094
0.596804
0.620737
0.531382
0.522965
0.436537
0.740762
0.466797
0.540041
0.536252
0.42074
0.409882
0.403047
0.525861
0.894286
0.691801
0.651915
0.497963
0.592411
0.777678
0.593461
0.55423
0.774431
0.728273
0.625032
0.550962
0.418102
0.401195
0.377871
0.573868
0.799422
0.596438
0.480761
0.631003
0.666254
0.364379
0.749645
0.677548
0.745893
0.867261
0.515544
0.923468
0.421915
0.452622
1.00812
0.59496
0.497261
0.749868
0.52576
0.97442
0.667729
0.534922
0.799738
0.669923
0.49586
0.47765
0.711257
0.466972
0.745936
0.493896
0.666798
0.476287
0.631904
0.396486
0.488554
0.597472
0.401757
0.478048
0.562711
0.795846
0.65048
0.571666
0.436708
0.660734
0.775968
0.658424
0.644625
0.543629
0.665086
0.622109
0.422366
0.43052
0.498568
0.414431
0.384014
0.46685
0.519031
0.679869
0.430598
0.436726
0.676123
0.379628
0.507831
0.421543
0.413177
0.693845
0.39303
0.375169
0.669704
0.684527
0.790371
0.427026
0.429606
0.410113
0.464202
0.670538
0.524702
0.498358
0.421824
0.398251
0.429699
0.514697
0.627017
0.53386
0.45175
0.455031
0.648482
0.441007
0.453896
0.482471
0.753769
0.894177
0.417412
0.636915
0.441128
0.374167
0.73981
0.866561
0.45607
0.502031
0.791211
0.50908
0.483661
0.511676
0.351207
0.396496
0.416319
0.392198
0.405236
0.747667
0.614679
0.690033
0.49541
0.484584
0.360059
0.40801
0.433513
0.469205
0.431618
0.397599
0.373493
0.500319
0.521397
0.37214
0.524579
0.427439
1.02773
0.795969
0.4049
0.555579
0.488507
0.429781
0.841744
0.542989
0.777613
0.549876
0.613305
0.416374
0.693842
0.618193
0.378271
0.368865
0.399662
0.786226
0.683671
0.795772
0.705767
0.373099
0.677328
0.438778
0.573611
0.367913
0.745801
0.555167
0.51578
0.599784
0.511815
0.465002
0.504022
0.460488
0.871364
0.461727
0.545269
0.429387
0.65348
0.57007
0.499714
0.590783
0.401316
0.573477
0.477073
0.367605
0.494598
0.561636
0.681135
0.462192
0.508551
0.649697
0.525495
0.504233
0.502921
0.890246
0.479859
0.363285
0.397757
0.434454
0.468193
0.425964
0.38115
0.867316
0.744713
0.396808
0.486996
0.705791
0.354849
0.757
0.924096
0.664757
0.955638
0.445467
0.679613
0.79685
0.373791
0.382645
0.448885
0.568684
0.325717
0.403989
0.450809
0.414702
0.489059
0.421154
0.64196
0.906395
0.467559
0.466238
0.402592
0.573752
0.654878
0.51234
0.460124
0.442552
0.384482
0.512993
0.537979
0.385634
0.606818
0.507852
0.353133
0.920267
0.664122
0.406381
0.439814
0.38138
0.511251
0.356066
0.61353
0.537831
0.366113
0.397923
0.475644
0.407873
0.526757
0.393318
0.697461
0.630198
0.41334
0.472463
0.511158
0.485175
0.390533
0.503483
0.5409
0.474828
0.628879
0.418104
0.383516
0.391144
0.371959
0.493196
0.672631
0.702062
0.39416
0.564008
0.476436
0.596476
0.38996
0.714434
0.753226
0.746779
0.589115
0.724114
0.516788
0.621138
0.787012
0.71437
0.389658
0.37721
0.746358
0.749504
0.407489
0.650401
0.704205
0.450218
0.436607
0.745443
0.654038
0.573432
0.491715
0.508227
0.751072
0.34144
0.509201
0.244706
0.341168
0.344715
0.392853
0.641946
0.957786
0.648832
0.41992
0.428336
0.589438
0.447535
0.387431
0.771013
0.470281
0.533073
0.428779
0.627858
0.871802
0.654501
0.237939
0.422234
0.592461
0.801477
0.836516
0.815129
0.853562
0.64787
0.744539
0.530187
0.435098
0.496346
0.402334
0.640768
0.397061
0.38426
0.428325
0.628874
0.551912
0.4893
0.788211
0.81382
0.823532
0.819849
0.620789
0.395491
0.449548
0.490382
0.661207
0.35332
0.380355
0.585827
0.47444
0.555967
0.570656
0.736031
0.409335
0.410693
0.488294
0.445773
0.384327
0.4032
0.389928
0.65203
0.66953
0.883581
0.311194
0.45434
0.274279
0.907742
0.716703
0.66799
0.482636
0.646019
0.437679
0.370568
0.666613
0.430531
0.230828
0.701315
0.503199
0.406232
0.434201
0.450591
0.391431
0.41223
0.379624
0.401467
0.392297
0.503756
0.494015
0.486367
0.473147
0.501041
0.711813
0.653755
0.867318
0.917988
0.6686
0.57934
0.368056
0.497368
0.383478
0.381851
0.398485
0.527212
0.34928
0.813204
0.595037
0.691512
0.757943
0.845553
0.432724
0.460745
0.461628
0.364667
0.447467
0.72011
0.716141
0.579274
0.429384
0.279932
0.347102
0.579287
0.332665
0.320112
0.712173
0.492085
0.738071
0.250201
0.539291
0.578053
0.717377
0.453311
0.79413
0.881088
0.635592
0.565475
0.248821
0.714293
0.607904
0.51578
0.372328
0.440675
0.426966
0.440601
0.413651
0.706837
0.691565
0.609176
1.04253
0.872553
0.716087
0.797096
0.752817
0.573087
0.522925
0.510554
0.613758
0.269076
0.369777
0.379089
0.380254
0.381945
0.390187
0.394463
0.396455
0.533198
1.03352
1.06294
0.514433
0.891959
0.382919
0.208345
0.697495
0.932773
0.956644
1.05446
0.879918
0.800763
0.754138
0.894157
1.1388
0.38987
0.958616
0.862949
0.38487
0.867401
0.827118
0.818971
0.407254
0.413691
0.405351
0.421564
0.503673
0.582381
0.522009
0.546809
0.407187
0.474149
0.642794
0.632429
0.417996
0.395541
0.723579
0.398194
0.400462
0.393546
0.550714
0.385724
0.386882
0.449087
0.467948
0.459751
0.417233
0.514639
0.476928
0.41288
0.680897
0.391573
0.473795
0.486583
0.484446
0.457061
0.365968
0.377333
0.377115
0.717128
0.91942
0.825839
0.377486
0.902664
0.875512
0.757942
0.386915
0.379665
0.801721
0.575152
0.750464
0.68319
0.701789
0.410531
0.458211
0.390732
0.437263
0.440585
0.881847
0.683087
0.880122
0.410433
0.618926
0.669602
0.511356
0.537175
0.467555
0.638475
0.440985
0.553298
0.677353
0.527738
0.53746
0.790086
0.908459
0.810142
0.807971
0.601427
0.554016
0.380181
0.447261
0.391258
0.802699
0.872037
0.66289
0.388431
0.395724
0.462315
0.718169
1.05109
0.481784
0.532538
0.409747
0.426245
0.391763
0.485037
0.782205
0.675973
0.581182
0.41601
0.717622
0.447766
0.606872
0.518743
0.715138
0.641003
0.739681
0.701055
0.429513
0.422981
0.439927
0.391211
0.600741
0.897808
1.0127
0.92465
0.862495
0.675106
0.522791
0.486263
0.473671
0.452725
0.484447
0.545351
0.54153
0.443346
0.567222
0.392736
0.654547
0.748062
0.392222
0.530633
0.481191
0.568391
0.56725
0.529241
0.389269
0.433407
0.451611
0.411669
0.374423
0.576646
0.439232
0.411958
0.405905
0.505422
0.558729
0.584957
0.391901
0.403519
0.458335
0.365491
0.37462
0.516116
0.436546
0.794791
0.80929
0.484195
0.454343
0.66781
0.448592
0.393029
0.38637
0.72268
0.656165
0.673475
0.477321
0.507647
0.398537
0.388645
0.426153
0.37848
0.463495
0.45729
0.384058
0.878998
0.426997
0.700945
0.392531
0.424799
0.46704
0.477386
0.436867
0.360171
0.694106
0.437109
0.41109
0.374532
0.407018
0.774322
0.418895
0.40171
0.616544
0.444642
0.618633
0.371728
0.396443
0.430674
0.777814
0.533665
0.572389
0.512051
0.405757
0.493169
0.542237
0.429239
0.385988
0.408586
0.487659
0.395339
0.428307
0.66997
0.423133
0.570902
0.402935
0.408669
0.367038
0.380101
0.711983
0.801532
0.876355
0.805899
0.388274
0.490128
0.547015
0.400853
0.965357
0.875348
0.794592
0.548031
0.83386
0.425101
0.410001
0.41271
0.45252
0.396948
0.454847
0.4129
0.707882
0.407011
0.389627
0.768844
0.478832
0.568493
0.383258
0.726334
0.368771
0.432032
0.763017
0.42098
0.36327
0.752932
0.381661
0.426469
0.357498
0.464487
0.273519
0.388505
0.517705
0.48984
0.423838
0.441868
0.476154
0.543077
0.446746
0.494973
0.420132
0.466968
0.599302
0.476315
0.586742
0.407942
0.878201
0.642055
0.87285
0.620454
0.406985
0.394089
0.417084
0.387228
0.533625
0.809416
0.631397
0.894138
0.534458
0.41644
0.803792
0.371772
0.912373
0.943333
0.627678
0.713677
0.648489
0.796713
0.429448
0.423378
0.532706
0.530193
0.549927
0.617011
0.643971
0.426778
0.758172
0.603225
0.648698
0.509234
0.272782
0.393303
0.377997
0.424085
0.690746
0.408646
0.534714
0.500029
0.498187
0.458547
0.446453
0.425617
0.49424
0.446876
0.474647
0.634047
0.607704
0.46542
0.75891
0.416229
0.605416
0.433267
0.607556
0.642677
0.809129
0.622575
0.482426
0.639753
0.393487
0.498541
0.803035
0.578847
0.397941
0.404265
0.47308
0.594351
0.930469
0.68996
0.737248
0.457057
0.659392
0.923995
0.570161
0.603252
0.599142
0.49582
0.35197
0.498904
0.567387
0.671553
0.585815
0.411227
0.361372
0.401847
0.445915
0.404457
0.366927
0.411629
0.995549
0.404711
0.73975
0.503483
0.442768
0.487328
0.398825
0.524573
0.729629
0.376106
0.543803
0.478314
0.378906
0.392402
0.389172
0.364167
0.363668
0.360508
0.387162
0.392747
0.361847
0.373651
0.364768
0.528644
0.48719
0.716775
0.686308
0.38474
0.394871
0.391628
0.719955
0.369187
0.793929
0.396922
0.558333
0.380514
0.652628
0.562808
0.480879
0.526159
0.589181
0.915068
0.741894
0.761272
0.780628
0.76723
0.503977
0.536678
0.757988
0.444323
0.417873
0.562986
0.300668
0.584542
0.637902
0.415413
0.838421
0.708523
1.03097
0.680123
0.845625
0.608181
0.315726
0.626539
0.654964
0.784478
0.790196
0.73019
0.393951
0.625323
0.37681
0.409649
0.610385
0.792246
0.382632
0.382416
0.75013
0.520709
0.833436
0.52292
0.750784
0.385829
0.370615
0.728946
0.419901
0.438946
0.604152
0.81712
0.415026
0.591169
0.565697
0.673031
0.528896
0.443622
0.432548
0.50756
0.505468
0.657054
0.533769
0.648352
0.370086
0.467771
0.333613
0.681436
0.540551
0.541696
0.456068
0.438275
0.5857
0.699825
0.627649
0.351154
0.343683
0.740194
0.588913
0.43525
0.455962
0.439829
0.770844
0.396627
0.478223
0.760111
0.789621
0.450833
0.460162
0.513088
0.436774
0.465287
0.484008
0.410183
0.410605
0.405525
0.391366
0.391746
0.869964
0.385454
0.731515
0.454272
0.458699
0.72858
0.640461
0.64497
0.82564
0.730911
0.72386
0.780683
0.508088
0.552596
0.713694
0.424829
0.447939
0.740907
0.695408
0.624045
0.426558
0.780043
0.637042
0.533902
0.517379
0.29434
0.578109
0.453569
0.635888
0.629992
0.970409
0.769246
0.401755
0.545522
0.802736
0.446256
0.646184
0.556191
0.314311
0.902276
0.424693
0.65767
0.602296
0.450713
0.37995
0.363823
0.403887
0.412807
0.37043
0.575333
0.350297
0.476737
0.425527
0.653417
0.635538
0.598884
0.83059
0.396033
0.528226
0.89808
0.701224
0.409548
0.640879
0.668947
0.365391
0.433474
0.392027
0.722082
0.396742
0.360862
0.404481
0.40404
0.380095
0.395904
0.373271
0.383175
0.450941
0.415927
0.601715
0.724946
0.692178
0.658663
0.695199
0.745354
0.447632
0.571671
0.469275
0.539845
0.504381
0.417063
0.41606
0.458229
0.465916
0.440327
0.407703
0.37417
0.980111
0.742443
0.696261
0.3783
0.589468
0.416939
0.470891
0.49004
0.498945
0.458306
0.471073
0.408737
0.644554
0.646484
0.645875
0.737342
0.798509
0.696451
0.713485
0.473791
0.805464
0.522906
0.383025
0.361437
0.522967
0.405985
0.555624
0.419355
0.400267
0.469582
0.597061
0.375214
0.39648
0.501864
0.370653
0.388594
0.618258
0.772952
0.551469
0.35726
0.606787
0.452976
0.441904
0.438942
0.519368
0.731299
0.775685
0.452205
0.363002
0.492903
0.525543
0.679686
0.647032
0.390916
0.39233
0.584898
0.370057
0.412649
0.579452
0.616117
1.7372
0.920307
0.630811
0.531159
0.74771
0.519547
0.574829
0.726555
0.70723
1.09597
1.2171
1.17857
0.75995
1.00793
1.09415
1.12683
1.30911
0.871879
1.14237
0.845716
0.514366
0.428274
0.787709
0.27787
0.526225
0.463013
0.480962
0.575377
0.664557
0.369012
0.579744
0.711552
1.00897
1.54782
0.348814
0.353469
0.258664
0.304057
0.336211
0.867867
0.711011
0.728872
0.440374
0.489309
0.71733
0.738629
0.346701
0.731505
1.691
0.466351
0.62975
0.667743
0.604663
0.21865
0.499101
0.447486
0.400463
0.652546
0.574806
0.358577
0.392827
0.390801
0.460858
0.490749
0.450183
0.420597
0.411847
0.5666
0.535916
0.318945
0.253592
0.283509
0.874394
0.461213
0.872806
0.507104
0.458655
0.47442
0.509869
0.610757
0.747917
0.598047
0.691809
0.385392
0.485336
0.373455
0.278205
0.346137
0.333474
0.755193
0.589038
0.749012
0.652276
0.375705
0.406806
0.42185
0.384947
0.407493
0.830571
0.662915
0.844361
0.785101
0.503752
0.584427
0.406111
0.4374
0.660149
0.387467
0.552065
0.493266
0.656895
0.77955
0.550267
0.620915
0.551503
0.678157
0.37837
0.377286
0.436529
0.377947
0.431352
0.408946
0.371901
0.379018
0.385211
0.677371
1.0594
0.875589
0.769721
0.733319
0.405175
0.709988
0.506144
0.459596
0.506783
0.710218
0.552972
0.609847
0.61905
0.754412
0.447987
0.503935
0.390129
0.694837
0.383507
0.53076
1.00934
0.510147
0.369
0.371622
0.464181
0.366291
0.727425
0.509878
0.751419
0.367443
0.558649
0.641472
0.462894
0.413769
0.42485
0.44173
0.783675
0.455988
0.38539
0.440567
0.401481
0.704254
0.489258
0.509939
0.56558
0.711294
0.509945
0.649033
0.431975
0.968425
0.396134
0.761267
0.699397
0.859061
1.34433
0.746557
0.438402
0.822292
0.575912
0.506901
0.377453
0.385989
0.555876
0.583818
0.439059
0.746202
1.01312
0.652177
0.461905
0.435262