/*--------------------------------*- C++ -*----------------------------------*\
| =========                 |                                                 |
| \\      /  F ield         | OpenFOAM: The Open Source CFD Toolbox           |
|  \\    /   O peration     | Version:  2506                                  |
|   \\  /    A nd           | Website:  www.openfoam.com                      |
|    \\/     M anipulation  |                                                 |
\*---------------------------------------------------------------------------*/
FoamFile
{
    version     2.0;
    format      ascii;
    arch        "LSB;label=32;scalar=64";
    class       volScalarField;
    location    "0.0207921";
    object      nut;
}
// * * * * * * * * * * * * * * * * * * * * * * * * * * * * * * * * * * * * * //

dimensions      [0 2 -1 0 0 0 0];

internalField   nonuniform List<scalar> 
3918
(
0.0021349
0.00713789
0.00287113
0.00491365
0.00363056
0.000363227
0.00030336
0.00190576
0.0069401
0.00287312
0.000944235
0.00252336
0.00286951
0.00336429
0.00523088
0.000674446
0.000592331
0.000556104
0.000473293
0.00408186
0.000831437
0.00476238
0.00149637
0.00248308
0.0031992
0.00206377
0.00125754
0.00563421
0.000784151
0.00195754
0.000906307
0.00406516
0.00175714
0.00313267
0.00244972
0.00253734
0.00470817
0.00377101
0.000778367
0.00302662
0.00161067
0.00220283
0.000945058
0.00284234
0.0039536
0.00077731
0.00695285
0.000743485
0.00116176
0.00471338
0.00107115
0.00189148
0.0011017
0.00242967
0.0023908
0.00241114
0.0034971
0.0028975
0.00155769
0.00302317
0.00134008
0.00194797
0.00295081
0.00246607
0.000618727
0.00444716
0.00259164
0.00225074
0.000811886
0.0026022
0.000947923
0.00126254
0.00139555
0.00123171
0.000704484
0.000218793
0.000762562
0.00142886
0.0011054
0.00480703
0.00111317
0.000312438
0.00163027
0.00224201
0.00427548
0.00103909
0.00050911
0.000570689
0.000451871
0.00452566
0.0022063
0.00608897
0.00218256
0.00137487
0.0038284
0.00341801
0.00115987
0.00448727
0.00143715
0.000687752
0.00442604
0.00534344
0.00335304
0.00492184
0.0054412
0.000583091
0.00219158
0.000792693
0.00503802
0.00218127
0.000622713
0.000863886
0.000285813
0.00055365
0.000783315
0.000547481
0.000525849
0.00128923
0.00127202
0.000982867
0.00372543
0.00195321
0.00407763
0.000695771
0.00219115
0.000354071
0.0055901
0.00111119
0.00125471
0.00129258
0.00380615
0.00214089
0.0021555
0.00401746
0.000522696
0.000909025
0.000445102
0.000726181
0.000411422
0.0015221
0.00106037
0.000558646
0.00116686
0.000874157
0.000946778
0.00156443
0.000705149
0.00102843
0.000577391
0.00327693
0.00611624
0.00128391
0.00519805
0.00107142
0.00323387
0.0028603
0.000567276
0.000852429
0.00599416
0.00429677
0.00534626
0.000447321
0.000738355
0.00228877
0.000363428
0.000962434
0.000427781
0.000777122
0.000415281
0.000757602
0.000899194
0.000591878
0.000432841
0.000543707
0.00061528
0.00319176
0.00141688
0.00162676
0.000687869
0.00108004
0.0049971
0.00293995
0.00288492
0.00297661
0.003843
0.00291518
0.00107525
0.00160444
0.00147096
0.00367153
0.00364286
0.000764294
0.000915548
0.00109713
0.00426571
0.00199471
0.00339921
0.0017757
0.000919669
0.00409218
0.000981926
0.00263121
0.000422719
0.00262332
0.000400803
0.00175091
0.00142336
0.000620833
0.00253679
0.00204037
0.00216402
0.000633463
0.00235232
0.000280564
0.00124723
0.000416096
0.00141561
0.00251234
0.00108306
0.000631752
0.00102523
0.00210585
0.00140871
0.00351182
0.00257766
0.00209102
0.00107552
0.000962285
0.000369299
0.00114291
0.000990399
0.00300571
0.000821911
0.0039239
0.00530141
0.000712655
0.000472156
0.00471564
0.00310155
0.00429304
0.00109739
0.000978844
0.00157608
0.0020313
0.00252098
0.00144883
0.00437086
0.00155587
0.000744361
0.00178446
0.00414026
0.00185258
0.00381831
0.00206002
0.00109811
0.00125436
0.00024103
0.00193017
0.00120667
0.00265767
0.000454884
0.00440302
0.00239688
0.00282904
0.00067989
0.00224766
0.00063207
0.00119783
0.00131659
0.000977238
0.00661016
0.0041076
0.00289557
0.00211491
0.0017125
0.00161586
0.00187286
0.00124841
0.000923532
0.00201412
0.00115728
0.00105543
0.0018581
0.00286544
0.00275007
0.000552265
0.00516224
0.000998024
0.00554544
0.00187759
0.000372895
0.0034558
0.000473726
0.00560008
0.00229568
0.00151835
0.00096865
0.000339233
0.00131094
0.00283704
0.00209132
0.00161362
0.00182191
0.00216501
0.00133389
0.00234484
0.00106281
0.00101405
0.00248005
0.00092835
0.00150476
0.000329403
0.000942645
0.000900569
0.00135286
0.000399786
0.00276955
0.000978403
0.000983642
0.000288496
0.00204267
0.000532817
0.00200624
0.00277751
0.00686032
0.00130203
0.00556565
0.00147837
0.00106899
0.00658564
0.000992799
0.00175202
0.00192162
0.00104063
0.00119561
0.00100285
0.00101272
0.00521267
0.000509675
0.00432967
0.00235653
0.000945031
0.00140053
0.00262454
0.00106793
0.000618382
0.000678898
0.000633381
0.00131922
0.000821631
0.000925086
0.000793471
0.00133416
0.00404204
0.00696109
0.00299922
0.00200557
0.00182109
0.00261825
0.0046409
0.00249292
0.000917025
0.002067
0.000845606
0.00270302
0.000442287
0.00182226
0.00352958
0.00306545
0.000475721
0.00229979
0.00208578
0.00123614
0.00179623
0.00226934
0.000656551
0.000388533
0.00218424
0.00290787
0.00446799
0.00520058
0.00181579
0.00226303
0.00178261
0.0027829
0.00229526
0.00281527
0.0012551
0.00179151
0.000953618
0.00145159
0.00293003
0.00356459
0.00113863
0.00322648
0.000528934
0.000229856
0.00430176
0.00125465
0.000515337
0.000816171
0.00376882
0.00399251
0.00174926
0.00291619
0.00378994
0.000900559
0.000304481
0.00265841
0.000620361
0.00264345
0.00373097
0.00165878
0.00436719
0.00311319
0.00294392
0.00352803
0.00299615
0.00422112
0.00545215
0.00449951
0.00117152
0.0055429
0.00573786
0.00316185
0.00557797
0.002377
0.00515068
0.00218498
0.0012442
0.00205912
0.00306899
0.000747591
0.000411936
0.001575
0.000831657
0.00035444
0.00380381
0.00370549
0.00574383
0.00371595
0.0036886
0.0022681
0.00196667
0.000531219
0.0051263
0.00193
0.003044
0.00110443
0.00259599
0.00174481
0.00215781
0.00185338
0.00332074
0.0019638
0.00179571
0.000396597
0.00180623
0.000823965
0.00434013
0.00471253
0.000510021
0.00150323
0.00446613
0.00157009
0.00200604
0.00310856
0.00061363
0.00388891
0.0055711
0.000388647
0.00457781
0.00040712
0.00224284
0.00447615
0.00119155
0.000456265
0.00315545
0.000437759
0.00194441
0.00240983
0.00161274
0.00115922
0.00206651
0.00282856
0.00316672
0.000524722
0.00268649
0.00137169
0.000419095
0.00288256
0.00458981
0.000716564
0.000433224
0.00235503
0.000690686
0.00298699
0.00252588
0.000357783
0.00473079
0.0032238
0.0038159
0.00689938
0.00449987
0.00475231
0.00428598
0.00512411
0.0057675
0.00590318
0.0027511
0.00170989
0.00166853
0.00357179
0.00260356
0.0045107
0.00344466
0.00512137
0.00153182
0.00567118
0.00516458
0.00205953
0.00605889
0.00402247
0.00211731
0.00205716
0.00298554
0.00306223
0.00453627
0.00177901
0.00316254
0.00183842
0.000470541
0.00108284
0.000696472
0.00460238
0.00374531
0.000686956
0.000781689
0.00321264
0.00120222
0.00670991
0.00460607
0.00313284
0.00197745
0.00177108
0.000457469
0.00183011
0.000637208
0.0039145
0.00275173
0.00473736
0.000803196
0.000954958
0.000748309
0.000693897
0.000729253
0.000714528
0.000849509
0.00110304
0.000874339
0.00208136
0.00212737
0.000682009
0.00215566
0.0037904
0.000726797
0.00301878
0.00511743
0.000521942
0.00604359
0.000535156
0.00103042
0.000908937
0.00312559
0.00167542
0.00138644
0.000935943
0.00591985
0.00394659
0.00521867
0.00159847
0.000837253
0.000862519
0.000884187
0.000637414
0.00200552
0.00165003
0.00193389
0.000726365
0.000705727
0.0017531
0.000489138
0.00229408
0.00279922
0.000540092
0.00242168
0.00285532
0.00112777
0.000568449
0.0010394
0.00307495
0.000531386
0.00132551
0.00254742
0.00321014
0.000741787
0.0013168
0.00177402
0.00161487
0.00180494
0.00194332
0.00179736
0.00159067
0.00105621
0.00469879
0.000432175
0.00111043
0.00161296
0.00251827
0.002057
0.00318166
0.00304937
0.00270989
0.0010772
0.000359373
0.000510233
0.000483436
0.000573655
0.000373053
0.00103611
0.00508426
0.00277119
0.000838183
0.00176419
0.000442423
0.00164494
0.00284864
0.00101967
0.00280186
0.00118288
0.00528923
0.00542029
0.00367725
0.000954211
0.00292954
0.0022638
0.00286072
0.00350138
0.0030831
0.00443977
0.00363351
0.00295815
0.00450669
0.00462375
0.00471258
0.00506951
0.0018968
0.00476673
0.00500324
0.00202777
0.00197733
0.000999125
0.00318848
0.000947152
0.00214964
0.00205981
0.000923265
0.000685335
0.00280647
0.00183398
0.00115203
0.00273465
0.00156741
0.00498515
0.00158369
0.00149096
0.00253312
0.00100136
0.00240617
0.0023645
0.00440968
0.005327
0.00546246
0.00639057
0.00225898
0.00425903
0.00219435
0.00651629
0.0029672
0.00288615
0.00403327
0.00207434
0.000709744
0.000223232
0.00340864
0.000706849
0.000351263
0.00269772
0.00258148
0.00244002
0.00250807
0.00244386
0.00256566
0.00626806
0.00220174
0.00196318
0.0022116
0.00202909
0.000842218
0.00120256
0.000867935
0.00109222
0.000878563
0.00110512
0.000852707
0.00091753
0.000883302
0.00502826
0.00390397
0.00260849
0.00411216
0.000843129
0.00194603
0.00538672
0.00207325
0.0034281
0.00505026
0.00295855
0.0032618
0.00176167
0.00193364
0.00208273
0.00174169
0.00451123
0.00229526
0.00166867
0.000692872
0.00269048
0.00322553
0.00123098
0.00416894
0.000672771
0.00210466
0.00287944
0.00640952
0.00163301
0.000661444
0.00203013
0.00360513
0.000955796
0.00103761
0.00188045
0.00254489
0.000341132
0.000533929
0.00249832
0.00226488
0.00320442
0.001513
0.00256305
0.00350943
0.00033693
0.00509043
0.00426626
0.00480338
0.0033066
0.00213557
0.00189737
0.00195641
0.0011083
0.00258744
0.00255795
0.00259029
0.00072278
0.000615162
0.0026649
0.00151421
0.000711469
0.00149942
0.00228069
0.000983105
0.000137612
0.00393601
0.00512788
0.000924361
0.00317501
0.00412199
0.00219624
0.0017054
0.00114204
0.00171641
0.000760563
0.000994346
0.00124012
0.00107883
0.00156273
0.00378698
0.00528445
0.00505844
0.00554695
0.00297425
0.00344676
0.000420602
0.000795942
0.000197709
0.00159132
0.00119956
0.00451001
0.000486971
0.00200743
0.00427838
0.00218466
0.00482847
0.00103484
0.00308589
0.00128667
0.00577836
0.00407384
0.00467163
0.00699886
0.00171513
0.000897191
0.00185834
0.00155715
0.00134715
0.00183341
0.00116099
0.00155674
0.00141706
0.000853837
0.00198594
0.00108152
0.00278412
0.00186394
0.00474566
0.00185229
0.00190834
0.00061434
0.00395203
0.00134439
0.00386252
0.00223009
0.00427995
0.00222433
0.000597007
0.00218864
0.0017602
0.00329815
0.00148092
0.0037522
0.00495889
0.0010782
0.00113968
0.000411945
0.000996295
0.00546132
0.000297419
0.00031159
0.00129222
0.00108477
0.00110951
0.00148436
0.00579514
0.0055512
0.00123325
0.00223762
0.00560212
0.0051884
0.00140995
0.00186208
0.00146831
0.00425449
0.0035329
0.000854735
0.00281725
0.00267469
0.00563607
0.00239627
0.00577931
0.00189272
0.000639202
0.00392285
0.00309504
0.00207803
0.00567813
0.0032538
0.0010942
0.000431412
0.000685041
0.0010124
0.00114775
0.00209026
0.00282238
0.00017443
0.00570865
0.000587881
0.000977421
0.00137236
0.000922549
0.00179221
0.00149141
0.00255321
0.00390347
0.000805362
0.00129274
0.000850053
0.000218914
0.000367685
0.00111843
0.000259484
0.00558612
0.00280241
0.00165862
0.00290063
0.00434627
0.00163506
0.000940901
0.00209821
0.00378288
0.00216043
0.005146
0.00201748
0.000605133
0.00320526
0.0016373
0.000460407
0.0017827
0.0023915
0.000990213
0.0012973
0.000998221
0.00140741
0.000418726
0.00400896
0.00117997
0.00115778
0.00109446
0.00178461
0.000825068
0.00277365
0.00270196
0.00234451
0.00119189
0.00431702
0.00169899
0.00111406
0.00218568
0.00211625
0.000773386
0.00254279
0.0025456
0.000537398
0.00031479
0.00186366
0.00255949
0.00431922
0.00544202
0.00163008
0.000357184
0.00195685
0.00296785
0.00138706
0.00107907
0.00154057
0.00166372
0.000639081
0.00354453
0.000625953
0.00116104
0.00125554
0.00266466
0.00258442
0.0030599
0.00298581
0.000427879
0.000500229
0.00140149
0.00237226
0.00454902
0.00133427
0.00109679
0.000751679
0.000362271
0.00199125
0.00279053
0.0016974
0.00180649
0.00362528
0.00398981
0.00397193
0.00249083
0.00559396
0.000970981
0.000330057
0.00322894
0.000309401
0.000471292
0.000953435
0.000454265
0.00038134
0.00361893
0.00190751
0.000213405
0.00445566
0.00247316
0.00138437
0.00176889
0.00297893
0.00182875
0.00549184
0.00204218
0.00190517
0.0026174
0.00205008
0.00402512
0.00489923
0.00234545
0.00503017
0.00223847
0.00221866
0.00209172
0.00213549
0.00551353
0.000646173
0.00228645
0.00462982
0.0012098
0.00610492
0.00717728
0.0010067
0.00119618
0.00193555
0.00280023
0.00524525
0.000661101
0.00165233
0.00693166
0.00114353
0.00409328
0.00347817
0.00257187
0.000810279
0.0030076
0.00180873
0.000707184
0.00111496
0.00233178
0.00249009
0.00386701
0.00428135
0.00323054
0.00109516
0.00211131
0.00181721
0.00513917
0.00167845
0.00324749
0.00496016
0.00558191
0.00435572
0.00385814
0.00519203
0.00396462
0.00506581
0.00188204
0.00102218
0.00188255
0.00448658
0.00248629
0.00203909
0.00700335
0.00192101
0.00336361
0.00224242
0.00387719
0.00103037
0.000630046
0.00220627
0.00444488
0.00102961
0.00126723
0.00389052
0.00554971
0.000658497
0.00336116
0.00495367
0.00200678
0.00435156
0.0032981
0.00127679
0.00190089
0.00111556
0.00109675
0.00165591
0.000467758
0.00222553
0.000939597
0.00218056
0.00181775
0.00209304
0.00167588
0.00322075
0.00463423
0.00160334
0.00311461
0.00280771
0.00244073
0.00205531
0.00494975
0.00319207
0.00128607
0.00458548
0.00488454
0.00374163
0.00321394
0.00310788
0.00554472
0.00257047
0.00457783
0.000861353
0.00235869
0.00241116
0.00248453
0.00345942
0.00314598
0.00291633
0.00207587
0.000616321
0.00344572
0.00410313
0.00435918
0.00179424
0.00268406
0.00583793
0.00404431
0.00249149
0.00216337
0.00199001
0.0055858
0.000556849
0.00140372
0.00452606
0.00259631
0.00399223
0.000547876
0.00038523
0.00396931
0.00451778
0.00508601
0.00571961
0.00103416
0.00163095
0.00261558
0.00442761
0.00654015
0.00490132
0.0001859
0.000381523
0.00265979
0.00173089
0.00101816
0.00118321
0.00158857
0.00156284
0.00331484
0.00139572
0.00387158
0.00187567
0.00452371
0.0046912
0.00563346
0.000491244
0.00121276
0.00405213
0.000841379
0.00215365
0.00232921
0.00360224
0.00617227
0.000941224
0.00646278
0.00180842
0.00443578
0.00076616
0.00446454
0.000223658
0.0026173
0.00171182
0.000689544
0.00107857
0.00102857
0.000895436
0.00167951
0.0021751
0.00300613
0.00091068
0.000463941
0.000653192
0.00212968
0.00159127
0.00198383
0.000637265
0.000923393
0.00164186
0.0017161
0.00489619
0.00235714
0.000857827
0.00207052
0.00109447
0.00106177
0.00167392
0.00684825
0.00712765
0.0071929
0.00308354
0.00409341
0.00521339
0.002968
0.0048924
0.00331427
0.00421944
0.00370622
0.00312282
0.00190507
0.00369475
0.00197183
0.00142589
0.00151137
0.00392614
0.00500668
0.00352147
0.00690676
0.00578169
0.00456154
0.00078093
0.00216079
0.00134843
0.00284686
0.00252233
0.00443096
0.00346443
0.00314887
0.00438836
0.000566243
0.000563551
0.00216783
0.000449697
0.00247186
0.00259922
0.00212304
0.000920927
0.00103517
0.00502181
0.00536519
0.00290798
0.00520109
0.00278171
0.000901021
0.00370823
0.000875347
0.00309348
0.00217539
0.0020148
0.00452241
0.00341357
0.00551866
0.00675362
0.00518002
0.00342198
0.00322181
0.00279088
0.00199546
0.00368311
0.00247948
0.0039709
0.0049214
0.0005877
0.000649783
0.000925937
0.000456262
0.000619881
0.000618516
0.00130566
0.00114235
0.000591108
0.00056095
0.00270061
0.00141056
0.0024387
0.00127695
0.00114454
0.00123824
0.00105033
0.00308019
0.000869724
0.0016706
0.000159525
0.00252942
0.00226672
0.00193327
0.00155962
0.00280914
0.00292503
0.00294448
0.000940513
0.000794684
0.00116697
0.00102079
0.000328464
0.00193706
0.00247542
0.00114107
0.0054255
0.00568761
0.00129789
0.00257668
0.00501922
0.000706855
0.00218204
0.00165072
0.00191689
0.000311317
0.00148616
0.00203746
0.00183786
0.000594678
0.00383488
0.00200091
0.000867251
0.00248002
0.00126144
0.000768435
0.000470333
0.00277633
0.00123176
0.000694791
0.00366038
0.00350217
0.00445121
0.00277541
0.0038408
0.00193286
0.00100369
0.00107559
0.00093831
0.000412063
0.000844412
0.00103394
0.00226183
0.00283329
0.00232789
0.00315601
0.00195186
0.0011365
0.00166831
0.00086484
0.00425854
0.00285431
0.00327444
0.00498572
0.00080897
0.000285477
0.000749342
0.00545106
0.000413362
0.000257948
0.000397517
0.00121409
0.00247639
0.00180646
0.000670936
0.00088549
0.00269638
0.000555697
0.00172382
0.000922987
0.000482146
0.000961887
0.00108112
0.00405905
0.00204756
0.00105062
0.0024342
0.00029629
0.000851752
0.00107012
0.00114554
0.00197609
0.00220014
0.000745667
0.00649243
0.000333797
0.00399182
0.00270912
0.000825171
0.00114222
0.00131461
0.00020414
0.00549676
0.000840198
0.00647212
0.00433294
0.00167707
0.000463365
0.00250665
0.00275699
0.00238091
0.00234876
0.00686498
0.00210842
0.00198952
0.00129741
0.00229707
0.00213711
0.00239407
0.00295653
0.00204723
0.00104221
0.00200515
0.00220041
0.00180533
0.00367325
0.00047272
0.000265481
0.00428515
0.000521761
0.00327833
0.00240295
0.00162213
0.00521365
0.00371929
0.00546584
0.00351166
0.00262364
0.000463449
0.00185853
0.00236568
0.0011153
0.000922289
0.00127764
0.00148981
0.00369025
0.00358841
0.00418147
0.00334176
0.00380084
0.00268008
0.00446074
0.00195766
0.00304081
0.00565725
0.0016813
0.00276478
0.000416411
0.00309243
0.0017553
0.00288677
0.00168707
0.00301868
0.00137553
0.00344901
0.000844869
0.00146816
0.00266725
0.0039476
0.00380034
0.00365652
0.00139742
0.00201737
0.00126314
0.00066173
0.000572596
0.00201428
0.000706374
0.00217145
0.00241581
0.00172317
0.00106173
0.000746921
0.00072683
0.000698054
0.00151534
0.00129585
0.00316976
0.00156563
0.0056163
0.00615958
0.00302987
0.00515381
0.00152616
0.000788627
0.00137292
0.00160087
0.000773461
0.00122341
0.00101283
0.00335523
0.00608688
0.00101683
0.000377943
0.000523132
0.000553786
0.000754138
0.00142239
0.000391925
0.00216097
0.00105312
0.00194616
0.000337565
0.00196044
0.000156372
0.00220737
0.00161227
0.000267991
0.00088438
0.00307608
0.00409252
0.00350418
0.00176684
0.000873684
0.000929346
0.00276361
0.000380414
0.00172643
0.000227236
0.0040205
0.0021596
0.00157115
0.0035371
0.00267933
0.00230145
0.00625916
0.000782471
0.00215947
0.00184191
0.00220456
0.00201578
0.00118092
0.000999974
0.00126406
0.000490305
0.00315148
0.00209345
0.00160643
0.00148645
0.000980733
0.00130837
0.000772002
0.000434671
0.00131896
0.00194863
0.00107885
0.00107743
0.00119144
0.00176229
0.00402432
0.00100521
0.000938057
0.000921801
0.000801351
0.000383796
0.000518633
0.00456915
0.00299049
0.00679198
0.00721639
0.00256322
0.00169166
0.00185176
0.000898002
0.00106904
0.00107352
0.00310154
0.00215433
0.000443356
0.00118903
0.00170568
0.0016687
0.00159848
0.00432899
0.00117537
0.000440881
0.000774444
0.0028925
0.00290309
0.00125903
0.00121193
0.00114876
0.00403337
0.00230295
0.000960591
0.00265412
0.00226928
0.000214016
0.00253853
0.000599621
0.00106702
0.00195861
0.00291887
0.004204
0.0071031
0.000969019
0.0052517
0.00178438
0.00237786
0.00151047
0.00139202
0.00229663
0.00222913
0.00352355
0.00224995
0.00297961
0.0041803
0.00479299
0.00261952
0.000805593
0.00526296
0.00211457
0.000989365
0.00267563
0.00368525
0.00127431
0.00226295
0.00483119
0.00169556
0.00484092
0.00220293
0.002384
0.00238785
0.00114044
0.00577403
0.00433379
0.000469227
0.00373466
0.00354321
0.00435902
0.000739724
0.00141225
0.00237609
0.0050795
0.00617106
0.00356101
0.00351623
0.0015825
0.00255682
0.0022765
0.00196312
0.00180651
0.00530318
0.00460059
0.00212516
0.00289984
0.00128284
0.0015918
0.00100789
0.00594145
0.00156865
0.00149727
0.00357174
0.00237363
0.00280338
0.00494429
0.00412371
0.00131497
0.00131608
0.00167883
0.00233136
0.000891107
0.00203008
0.00249206
0.000514593
0.000689418
0.000757873
0.000455824
0.000641362
0.0016196
0.000558706
0.000960649
0.00162586
0.000962861
0.00320674
0.00436854
0.00513341
0.00446716
0.00281637
0.00402627
0.000870396
0.000759785
0.00090081
0.000935285
0.0010396
0.0012226
0.00111886
0.00284996
0.00201708
0.00388265
0.000585909
0.0043303
0.00327414
0.00264785
0.0047087
0.0040793
0.00375939
0.00576298
0.00227204
0.00111627
0.000994485
0.0011408
0.000956379
0.00145271
0.00118817
0.00149586
0.00177827
0.00281085
0.000427066
0.00424825
0.00458652
0.0041928
0.000967538
0.00112634
0.00107797
0.000577586
0.00260392
0.00206483
0.00349171
0.00301935
0.00187178
0.00393239
0.00299408
0.000270262
0.000352537
0.00162131
0.00314978
0.00394196
0.00143561
0.0028069
0.00194289
0.00114206
0.00168496
0.000869296
0.000461225
0.00105542
0.00104988
0.00101189
0.00123558
0.000917287
0.0038241
0.00144645
0.00202455
0.00150258
0.00201395
0.00351795
0.00184164
0.00454357
0.00344066
0.00331368
0.00152103
0.000595216
0.00324725
0.00125336
0.00317956
0.00140653
0.000979863
0.00105568
0.00487914
0.00333418
0.00288555
0.00242914
0.0021059
0.00226634
0.00292635
0.00549818
0.00516624
0.00228123
0.00498596
0.00500939
0.00182147
0.00283583
0.00083814
0.00462175
0.00266268
0.000653088
0.000921048
0.00109679
0.00111265
0.00154826
0.00140783
0.00348116
0.00443083
0.00347309
0.003586
0.00154217
0.000857
0.00125367
0.00304053
0.00535963
0.00108089
0.0012662
0.00117525
0.00132103
0.00460808
0.00112396
0.00116124
0.000916602
0.00106642
0.00184179
0.00242768
0.0014175
0.00284149
0.00612468
0.00473627
0.00398515
0.000595749
0.00209081
0.00165564
0.000338153
0.000310151
0.000160008
0.00103837
0.000555368
0.00118356
0.00107755
0.00100507
0.00171556
0.00308448
0.000456367
0.000203647
0.00224328
0.000758109
0.000306577
0.000427293
0.000516018
0.00526205
0.00174545
0.0010152
0.00116351
0.00126917
0.00110163
0.00252035
0.00126705
0.00451189
0.00269579
0.0028724
0.00159631
0.000580185
0.00299024
0.00240382
0.0021442
0.000247672
0.000895416
0.00103485
0.00161764
0.000150008
0.00257983
0.000555251
0.000846204
0.000790327
0.00159503
0.000933983
0.00272211
0.00280865
0.00220034
0.000978991
0.00159929
0.00254896
0.00249591
0.00156758
0.00127957
0.00081806
0.000617416
0.000860278
0.000810273
0.00119564
0.00284627
0.00134611
0.0014543
0.00112045
0.00190315
0.00186245
0.00216393
0.00326921
0.000303724
0.00126387
0.00292565
0.000299528
0.00127422
0.000345133
0.00117009
0.00176758
0.00491331
0.00086935
0.000657258
0.000385609
0.00259381
0.00197171
0.00211354
0.000414136
0.000850602
0.00101197
0.000389098
0.000185141
0.000934664
0.00062439
0.000809942
0.00256734
0.0019048
0.00058475
0.00061787
0.00432547
0.00285889
0.00231334
0.00452522
0.00594979
0.00202395
0.00306716
0.0028692
0.0052519
0.00253655
0.00440555
0.00245299
0.00246115
0.0029571
0.00315407
0.00342021
0.00319417
0.00428907
0.0047319
0.00390239
0.00340769
0.00348639
0.00294355
0.000517065
0.00133331
0.00199989
0.00206583
0.00304377
0.00236169
0.00295442
0.00174773
0.00194358
0.00210871
0.00107988
0.00341708
0.00400194
0.00271578
0.00387449
0.00390132
0.002122
0.00220018
0.00354729
0.00427687
0.00410583
0.0031086
0.00319874
0.0028855
0.00352568
0.0017231
0.00289147
0.00422926
0.00276673
0.000579313
0.000386435
0.00107063
0.00178765
0.00114584
0.00214829
0.00282216
0.00103676
0.000468248
0.00169288
0.00206989
0.000872001
0.000508583
0.00148931
0.000610535
0.00033754
0.000596558
0.00239012
0.00182195
0.00551104
0.00249587
0.000679691
0.00399495
0.00293555
0.00229907
0.00077785
0.00181768
0.00240491
0.00325176
0.00118915
0.00323983
0.00257376
0.00246597
0.000833865
0.00265761
0.00205497
0.00556475
0.00351777
0.00428267
0.0062213
0.00316818
0.00433138
0.00560592
0.0021459
0.005686
0.00625934
0.000737545
0.000909493
0.00124014
0.00136281
0.00446047
0.000340264
0.00528151
0.00226195
0.00100063
0.000839904
0.000878544
0.00263636
0.002423
0.00350216
0.00121675
0.000446214
0.00116387
0.00109959
0.00283838
0.00533043
0.00467391
0.0020279
0.00183738
0.0018181
0.00538502
0.00407404
0.00180069
0.00321595
0.00128215
0.0034696
0.000659501
0.000308013
0.00174643
0.000400531
0.00106602
0.00112446
0.00154287
0.000441592
0.00128619
0.00116486
0.000813764
0.00100115
0.00106062
0.00086569
0.000651915
0.0045608
0.00373789
0.00313037
0.00296534
0.000260114
0.000849087
0.00170963
0.00101404
0.00271548
0.00336772
0.00561658
0.00403342
0.00237386
0.00576141
0.00571064
0.00262529
0.00265547
0.00244116
0.00478307
0.00120447
0.00355201
0.000596053
0.000413641
0.00235893
0.00106601
0.00110592
0.00224418
0.000373575
0.00118913
0.00035001
0.00127426
0.000500759
0.00643252
0.000499981
0.00116235
0.00218344
0.00271089
0.00530317
0.000674577
0.0016604
0.00138919
0.00395029
0.00351889
0.000814466
0.00362447
0.00227715
0.000908909
0.00112438
0.0012443
0.000765896
0.000736644
0.000860996
0.00123443
0.00109173
0.00167537
0.000430623
0.00160933
0.00117777
0.00308073
0.00205413
0.000265714
0.00218331
0.000514
0.00475721
0.00162931
0.0018807
0.00235843
0.00187111
0.00482309
0.00113092
0.00180851
0.00270145
0.00202565
0.00201937
0.000911839
0.000755407
0.000615175
0.000940512
0.00384889
0.00367911
0.00199391
0.00322521
0.00405248
0.0034687
0.00144562
0.00238138
0.00178509
0.00585938
0.00220798
0.00106564
0.00151253
0.00107064
0.00181347
0.000622928
0.0021198
0.00169401
0.00110321
0.00206722
0.00410748
0.00128952
0.00116608
0.000822474
0.00202414
0.00141639
0.00284344
0.00194815
0.00495607
0.000669677
0.000743327
0.00245356
0.00287827
0.00523568
0.00164931
0.0031969
0.00232714
0.00324578
0.00233635
0.00428042
0.0038234
0.00525719
0.00308459
0.00325901
0.00280464
0.00061357
0.00277854
0.00378094
0.00100236
0.00110824
0.00107969
0.00151672
0.000536779
0.00437893
0.0019721
0.00338509
0.00546222
0.00333978
0.00497364
0.00178271
0.00321769
0.000747685
0.00186557
0.00482937
0.00195209
0.00208796
0.00239746
0.00311831
0.00149737
0.00228555
0.00145336
0.000721061
0.000928941
0.00404141
0.00286412
0.0040446
0.00445763
0.000453827
0.00335576
0.00557644
0.00181569
0.0022991
0.00246322
0.00431027
0.00181985
0.00205744
0.00317498
0.00180055
0.00186293
0.00356146
0.0017862
0.00301097
0.00178074
0.00587451
0.00218911
0.00127237
0.0024841
0.00143398
0.00128232
0.00232951
0.00366893
0.00392598
0.00197728
0.0029042
0.00236119
0.00297697
0.0028649
0.00291457
0.00054023
0.00245864
0.000497524
0.000994154
0.000531482
0.00355417
0.00154622
0.00106616
0.000334284
0.00389801
0.00457501
0.00087568
0.00153929
0.00349715
0.000310774
0.00131748
0.00183253
0.00367003
0.00074827
0.000573837
0.000585866
0.000552179
0.00117584
0.00111167
0.00310562
0.00169297
0.000426071
0.000443353
0.00229636
0.0019815
0.00201219
0.00575932
0.00225237
0.00555027
0.00169193
0.00419773
0.00629274
0.00569838
0.00143981
0.00201646
0.00120874
0.00128253
0.000141115
0.00104064
0.0017727
0.00201248
0.000696667
0.00207744
0.000970838
0.000685965
0.00074273
0.000984061
0.000678713
0.00117517
0.00239137
0.00181107
0.00259171
0.00625096
0.000566959
0.00145686
0.000744454
0.00317469
0.00320848
0.00425283
0.000327726
0.00261748
0.000187599
0.000689639
0.00118978
0.00040124
0.00196517
0.00205205
0.000608007
0.000943746
0.000643177
0.000565384
0.00146103
0.00207777
0.00189648
0.00048346
0.00349547
0.00106539
0.00134035
0.00336155
0.00321013
0.0025454
0.00587598
0.00611092
0.00287382
0.00203162
0.00359087
0.00215856
0.00182193
0.000607042
0.00108016
0.00200499
0.0044917
0.00187285
0.00270742
0.00252423
0.00113518
0.0040529
0.00323004
0.00356629
0.0029076
0.00202357
0.00147106
0.00217898
0.00102909
0.00256445
0.00157046
0.00140685
0.000434582
0.00575435
0.00120537
0.00193425
0.00437366
0.000832605
0.000460178
0.00153424
0.00194467
0.000445533
0.000345343
0.00102649
0.00026832
0.00075005
0.00029649
0.00118187
0.00131311
0.00137176
0.000445065
0.00196214
0.00066658
0.000919081
0.0011275
0.000817251
0.000907867
0.000621035
0.000565445
0.000569755
0.00167825
0.000783609
0.00181562
0.0011169
0.00355336
0.00420714
0.00325149
0.00456341
0.00267143
0.00241087
0.00216903
0.000738767
0.000508714
0.000990572
0.001079
0.000627643
0.00187123
0.00301343
0.00357547
0.0030484
0.000453254
0.000966966
0.00477651
0.00431784
0.00385856
0.00293582
0.00432969
0.00562438
0.00123653
0.000682958
0.000549097
0.00190647
0.000254602
0.00133982
0.000450431
0.000850411
0.00241414
0.00177373
0.00324093
0.00240202
0.00242948
0.0026426
0.00264772
0.00294403
0.00662226
0.00275721
0.00239867
0.00113061
0.00252819
0.00277582
0.00257673
0.00560074
0.00557854
0.00556182
0.00552484
0.00263065
0.0012725
0.00443011
0.00531131
0.00536375
0.00577872
0.00343553
0.0047718
0.00701632
0.00715243
0.0018037
0.00581361
0.00582621
0.00389308
0.00271767
0.00632384
0.00295057
0.00521147
0.00379662
0.00413103
0.00550204
0.00304944
0.0034903
0.00592629
0.00202042
0.00324608
0.00307002
0.0044428
0.00274087
0.00385234
0.00371323
0.00298909
0.0032526
0.00122053
0.000537226
0.000431382
0.00474404
0.000446352
0.000402981
0.00080035
0.00417302
0.00376639
0.00130723
0.00248428
0.00103602
0.00353017
0.00241023
0.00376285
0.00248934
0.00467749
0.00469341
0.00393958
0.000990317
0.00175857
0.000162071
0.00044801
0.00106551
0.000575649
0.00257977
0.000843739
0.00115684
0.000640242
0.00181793
0.00194006
0.00189946
0.00341897
0.00291688
0.00114112
0.00208958
0.00175737
0.00213297
0.00274156
0.00296415
0.00372024
0.00182391
0.00324477
0.00244951
0.00313578
0.00135199
0.00556516
0.00558709
0.00367511
0.00238831
0.00288559
0.00158929
0.000738496
0.00491935
0.00373683
0.00529329
0.00418545
0.00149878
0.00217713
0.000722914
0.00478825
0.00114336
0.00266867
0.00116535
0.00106828
0.000969883
0.00105092
0.000925894
0.00367393
0.00656791
0.00683791
0.00574863
0.00600972
0.000654311
0.000622644
0.000179455
0.000425688
0.000298637
0.000922118
0.00133558
0.00185844
0.00233744
0.00132435
0.000904671
0.000866377
0.00101785
0.0026397
0.00127932
0.00429202
0.000915095
0.00015495
0.00327826
0.00182989
0.00150574
0.00288482
0.00103732
0.000934502
0.00551998
0.00557564
0.00378249
0.00615473
0.00278186
0.00259564
0.00404414
0.00481373
0.00460955
0.00546167
0.00462589
0.00221747
0.00568001
0.00688672
0.00605397
0.00564365
0.00572017
0.0017716
0.00306952
0.000347028
0.000252259
0.00100869
0.00151895
0.00172856
0.00194609
0.00552066
0.00523407
0.000299355
0.000876271
0.000781224
0.00111653
0.001267
0.00286076
0.00362704
0.0021495
0.0044855
0.00147823
0.00186541
0.00389921
0.00011859
0.00284977
0.00155748
0.0012394
0.00222506
0.00210357
0.000852272
0.00153079
0.00250151
0.000340931
0.0021693
0.00578729
0.0059093