/*--------------------------------*- C++ -*----------------------------------*\
| =========                 |                                                 |
| \\      /  F ield         | OpenFOAM: The Open Source CFD Toolbox           |
|  \\    /   O peration     | Version:  2506                                  |
|   \\  /    A nd           | Website:  www.openfoam.com                      |
|    \\/     M anipulation  |                                                 |
\*---------------------------------------------------------------------------*/
FoamFile
{
    version     2.0;
    format      ascii;
    arch        "LSB;label=32;scalar=64";
    class       surfaceScalarField;
    location    "0.0817324";
    object      phi;
}
// * * * * * * * * * * * * * * * * * * * * * * * * * * * * * * * * * * * * * //

dimensions      [0 3 -1 0 0 0 0];

oriented        oriented;

internalField   nonuniform List<scalar> 
7371
(
0.00660118
-0.0131833
0.0130118
-0.00642972
-0.00777224
0.00205213
0.00349484
0.00222526
-0.000955406
0.00154902
0.000213327
-0.000806944
-0.00499247
0.010951
-7.41464e-05
-0.00588436
0.0165119
-0.00576772
-0.00502168
-0.00572254
-0.00275869
-0.00100112
0.00402468
-0.000264862
0.000563223
0.00110921
-0.000393271
-0.00127916
0.0468263
0.0111264
0.00215645
-0.0601091
0.0048609
-0.0329143
0.0118235
0.000834012
-0.00997969
0.00991041
-0.000764731
-0.0246139
-0.0579077
-0.00903715
-0.0581702
-0.0867598
0.0572964
0.0876335
0.0282954
0.170877
-0.245623
0.0464501
0.0016478
-0.00146063
-0.00138367
0.0011965
0.0535514
-0.0526977
0.0191516
-0.000547652
0.00139697
-0.00070052
-0.000148796
-0.00289105
-0.0056778
0.00173883
0.00683003
0.0611736
-0.0417188
0.0643192
-0.083774
0.0572428
0.000998171
-0.058241
0.00122527
-9.44171e-05
-0.000245977
-0.000884874
-0.000148659
-0.00223449
0.0014666
0.00091655
-0.00015077
-6.23026e-06
-0.00147006
0.00162707
-0.00267054
-0.00116686
-0.00140845
0.00524586
-0.000851842
-0.00268929
0.00138581
0.00215531
-0.0558431
0.0558087
3.43759e-05
-0.00582936
-0.0426515
-0.00736222
0.0460725
0.0133349
-0.0593704
-3.69519e-05
0.0913937
-0.00206264
-0.0432586
-0.00082952
-0.000399925
-0.00103714
0.00226658
-0.000644783
0.00834376
-0.00851411
0.000815129
0.00789255
-0.0147352
-0.000723419
0.0248646
-0.0144957
0.0167198
-0.0270887
-0.0664598
-0.0230908
0.0895506
0.0253585
-0.13568
0.126361
-0.0160391
-0.0551209
-0.0599573
0.115078
-0.0284236
0.0596856
0.0200913
-0.0513533
0.0030694
0.00376678
0.000865517
-0.00770169
-0.0342106
-0.037963
0.0993323
-0.0271587
0.000973464
0.00231076
-0.00131854
-0.00196568
-0.0557562
0.0273326
0.0582894
0.0632937
-0.0618976
0.00279709
-0.00042879
0.00109507
-0.00346337
-0.0127825
0.00158336
-0.0118964
0.0230956
0.00373674
-0.00352065
0.000686804
-0.000902892
-0.00177222
0.00361853
0.00612056
-0.00796686
-0.0018172
-0.000679648
-0.00116325
0.00366009
-0.00350948
0.0110444
-0.00744101
-9.39165e-05
0.000465823
-0.000405606
0.000815927
-0.000876144
0.0105436
-0.0613472
0.132987
-0.0821833
0.0298998
0.0177002
-0.0476
0.0341515
-0.0662287
0.0619769
-0.00185199
0.00345107
-0.00113689
-0.000462189
0.0012688
-0.00169355
0.000244619
0.000180134
0.0198845
-0.00203714
0.0144627
0.0152746
-0.0215631
-0.0211977
0.00556568
0.0300947
-0.0113251
-0.000857851
0.00888814
0.00329481
0.000886197
0.000382754
-0.000606488
-0.000662462
0.00308767
0.00465293
-0.0022831
-0.00545749
0.011603
0.00507218
-0.00263768
-0.0140375
-0.0018148
0.00102504
0.000565887
0.000223867
-0.0349162
0.0528746
0.0418116
-0.0597701
0.0060809
-0.00912666
0.000757728
0.00228803
0.0206098
-0.055526
0.0266876
-0.0202001
0.02778
-0.0342675
0.00911715
-0.0475723
0.0651428
-0.0517954
0.130592
-0.0176229
0.0347514
-0.0694494
0.00131628
0.000408318
-0.00258857
0.000863978
0.00710436
-0.0104667
-0.00199791
-0.0239071
0.0347495
0.0791372
-0.0899795
0.00319355
-0.00982127
0.00274409
0.00388363
-0.00597458
0.0159436
-0.00354418
-0.00642483
-0.00100238
-0.00468432
0.00169315
0.00399355
0.00124501
-0.00286184
0.00407912
-0.0024623
-0.000934438
0.000380136
0.0014405
-0.00173097
-0.00061942
0.00496596
-0.00261557
0.00697662
0.00746519
-0.00981731
-0.00462449
0.000953203
-0.00501804
0.0110415
0.00827793
-0.00715638
0.00140099
-0.00252253
0.0193114
-0.0374959
0.00967082
-0.000516268
0.000586368
-0.000563499
0.000493399
-0.086242
0.00343297
-0.0654297
0.0694475
-0.00401778
-0.0018399
-0.00195287
0.0078553
-0.00406253
0.0922054
-0.0518515
-0.0999866
0.0596328
-0.0272428
-0.0631037
-0.0410844
0.000519611
0.00281251
-0.000414533
-0.00291759
-0.000318466
0.00361334
-0.00111404
-0.00218083
-0.00337717
0.0042885
0.000837475
-0.0017488
0.000441117
-0.000226171
2.64652e-05
-0.000241411
0.000463464
0.000753462
-0.00184349
0.000626563
0.00212602
-0.014277
-0.00540083
0.0175518
-0.0254983
-0.0531382
0.0877537
-0.0599494
-0.0689601
-0.0171573
0.146067
-0.000208902
0.00110465
-0.00187429
0.000978543
0.000598198
-0.00210152
0.000547912
0.0300246
-0.059785
-0.0201238
0.0297946
-0.0351691
0.00136398
-0.00359697
0.00145703
0.000775959
0.00513871
-0.00205054
-0.00184315
-0.00147863
0.000254946
0.000774504
0.000449178
0.0019856
-0.00464824
-0.000152492
0.00281513
0.00078421
-0.000186013
-0.0165984
0.0034904
0.012368
0.00074004
0.0900634
-0.0277612
-0.0327321
-0.02957
-0.015491
-0.0434024
0.151099
-0.00780871
-0.00769499
0.00884236
-0.000639037
0.047758
-0.0612455
0.0161693
0.0666478
-0.0202849
-0.0625322
-0.000666573
0.000345664
-0.000315233
0.000636141
0.000843709
0.00168624
-0.00338179
-0.00806896
-0.0163749
0.0168819
0.00756197
-0.00177178
-0.00285077
0.00289159
0.000441486
-8.93667e-05
-0.000845819
0.0004937
0.0034345
1.22727e-05
0.0385541
-0.0420009
0.0308974
0.000160891
-0.0276238
-0.00686645
0.00133243
-0.0494094
0.00659295
0.0374948
0.00532166
0.0351164
-0.0351299
1.34999e-05
-0.0188897
-0.0435168
0.0129971
0.0402072
0.00150211
0.00363925
-0.00165775
0.000569342
-0.00255083
-0.00337244
0.0112812
-0.00109481
-0.00681396
0.00748204
-0.0117708
-0.00139637
0.00568513
0.00797908
-0.0112373
0.0107403
-0.0185993
0.0122657
-0.00528938
0.011623
0.0166123
-0.0141431
-0.0210685
-0.0253314
0.01332
0.0121675
-0.000156021
-0.0141515
-0.00320088
-0.00263714
0.000521755
0.00144417
0.000671211
-0.0010176
-7.31534e-06
-0.000538633
0.00156355
0.00116091
0.00161784
-4.55194e-05
-0.000584154
0.000629674
0.00838456
-0.00974343
-0.0184633
0.0198221
-0.00514814
0.0192324
-0.000104521
-0.0139797
-0.00325078
0.000961845
0.0020494
0.000239531
-0.000702675
0.000272155
-0.000130799
0.000561318
-0.00547391
0.0068095
0.00250765
-0.00384324
-0.000982559
-8.05621e-05
-0.00119044
0.000884165
-0.000676283
-0.00360376
0.00204914
0.00521474
0.00411421
-0.002318
0.00326169
-0.0050579
-0.0376905
0.0659494
0.0381941
-0.0664531
-0.000255615
-0.00174605
0.000811227
0.00129583
-0.000411667
0.00121527
0.0233974
0.0161322
-0.0395296
0.0434887
-0.0559644
0.0428558
0.0427521
-0.0296434
0.0257346
-0.0225661
-0.0653161
0.0254838
-0.0223258
0.105395
-0.0573349
-0.000648151
0.0015923
0.0115936
-0.0125378
-0.0330377
-0.0519665
0.0236705
0.0613337
-0.00112772
-0.000424021
0.00207601
-0.000524269
0.00966963
0.0145144
-0.024184
-0.00357667
-0.0067943
0.0089562
0.00141477
-0.0194179
0.0390163
-0.0076377
-0.0119607
-0.0258418
0.0258358
6.00017e-06
0.0638303
0.0391368
-0.154819
-0.0381967
-0.00706305
0.0358265
0.00320205
0.000296478
0.000144639
0.00169756
-0.00117809
-0.000550644
3.1175e-05
0.00172186
-0.00272507
-0.000936434
0.00193964
0.00048162
0.000740746
-0.000402786
-0.000819579
-0.00298134
0.00270598
-0.00137798
0.00165333
0.000783708
-0.000362026
-0.000589239
0.000167557
-0.0022827
0.00120341
0.00721758
-0.00613828
-0.00113326
9.15861e-05
0.000258033
0.000783645
-0.00399422
0.00213257
-0.000559796
0.00242145
-0.00124212
-0.00372865
0.00351405
0.00145672
0.00192334
-0.0016758
0.00145002
-0.00654064
0.00382307
0.00419863
-0.00454324
-0.001396
0.0017406
0.00160882
-0.000375433
-0.00092157
-0.000311813
0.00618767
-0.00198904
0.00255544
0.00135162
-0.000837671
-0.0505497
0.0580553
-0.00205162
0.000550367
0.00255053
-0.00104928
-0.0354929
-0.00715863
0.00101034
-0.00145468
0.000444345
0.00111745
-0.00141337
-0.000881498
0.00117742
-0.00757513
0.00426212
0.0021859
0.00112711
0.0355207
0.013029
-0.0466978
-0.00185192
0.000688281
-0.000645872
-0.000173332
0.000130922
0.000641076
-0.000202794
0.00112281
-0.0015611
2.78711e-05
0.0450174
-0.052176
0.00187742
0.00269842
-0.00133299
-0.00324285
-0.000583408
-0.000699191
0.00105643
-0.0728192
0.0504918
-0.0149696
0.037297
-0.0217445
-0.0800661
0.0289915
-0.00152951
0.000873123
0.000656382
-0.0069808
0.006531
0.00361587
-0.00316607
7.08071e-05
0.00278096
-0.00256014
-0.000291636
0.000428836
-4.75724e-05
-0.000381264
-0.0557593
0.0340148
-0.0054109
-0.000734809
0.0035214
0.00262431
-0.000876587
-0.00127967
-0.00283555
0.00499182
-0.00607224
0.0189681
-0.057115
0.0442191
0.001173
0.000701163
0.00079056
-0.00266472
0.00023786
-0.0028963
-0.00417365
0.00683208
0.00357007
-0.00194285
-0.000953546
-0.000673667
-0.00183482
-0.0119028
0.00660706
0.00713052
-1.85651e-05
0.0024317
-0.00365525
0.00264308
-0.00251798
-0.0127917
0.0126666
0.0072772
-0.00441216
-0.0107067
0.0078417
-0.00192674
0.00397497
-0.00199744
-5.0787e-05
0.000312375
0.00113656
-0.000443728
-0.00100521
0.000984352
-0.00184156
0.000246275
0.000610932
-0.00145779
-0.00105331
0.000324241
0.00218686
0.00299493
-0.0100367
0.00445871
0.00258305
0.00119884
0.00289885
-0.0067311
0.00263341
0.00725971
-0.00471806
-0.00514848
0.00260683
0.000578007
-0.000448535
-0.00035215
0.000222679
0.014902
-0.00049624
-0.00714605
0.00228394
-0.00757301
-0.00256046
0.00784953
-0.006073
-0.000233819
0.00433756
0.00196927
0.00480122
0.00043153
-0.00488519
-0.000347556
-0.00123348
0.00281193
-0.00275654
-0.000310921
-0.000113439
0.00042436
0.000502436
-0.000275413
0.000350984
-0.000140695
0.000468079
0.0024388
-0.00276619
-0.00243401
0.000212662
0.000369354
-2.96843e-05
-0.00443253
0.00554093
-0.00107872
-0.00795778
0.00216726
-0.00540806
-0.00819292
-0.0242083
-0.020737
-0.0403238
-0.00583122
0.00691048
0.0483898
0.0598192
-0.064338
0.0142903
0.0522042
0.000178493
-0.0602876
-0.00122684
0.000368742
0.00138227
-0.000524171
-0.113576
0.0198422
0.0304054
0.0633287
-0.0555251
0.0808117
-0.0228215
-0.00246502
0.00232817
-0.00200215
0.00458373
-0.00490975
4.80212e-05
-0.0555731
-0.00197887
0.00178268
-0.001621
0.00156246
0.00182745
0.000285196
-0.0036751
-0.00200847
0.000768683
-0.00260376
-0.000669101
-0.00366577
1.96924e-05
0.00431518
-0.0554306
0.10377
-0.000489839
0.00359521
0.0035497
-0.00665507
0.0244369
0.0172657
0.0248756
-0.0393235
0.0862461
-0.0363789
-0.00180711
0.00078201
0.000405978
0.0401771
-0.0402212
4.41334e-05
0.060255
-0.0205993
0.000521309
0.0692015
-0.107718
0.0760109
1.39461e-05
0.0693556
-0.000168024
0.00450389
-0.0119594
0.00884303
-0.00138751
-0.00025057
-0.00227148
0.00301414
-0.000492091
0.00340896
-0.000928265
-0.00273126
-0.00241766
-0.00408603
0.00251074
0.00399294
0.0236884
-0.0475956
-7.06502e-05
0.00141385
0.00210787
0.0695008
0.00224311
-0.000938074
-0.00244193
0.00273657
0.0027761
-0.00210371
0.00228712
-0.000323639
0.000279626
-0.000695158
-0.0010087
0.00138209
0.00032177
-0.00126706
-0.000164744
0.000736643
-8.12222e-05
-0.000201483
0.129877
0.00136186
-0.0011789
-0.000264184
0.000690985
-0.000337824
0.0641595
-0.0603033
-0.00385627
0.00642386
0.00380118
-0.00703148
-0.00742482
-0.00582077
0.0145023
-0.0012567
-0.00620439
-0.00481138
0.00519072
0.00582504
0.00432341
0.00474768
-0.00493652
-0.00413457
-0.00856596
0.022817
-0.0193833
0.00513225
0.000543501
0.00181562
-0.00920607
0.00684695
-0.00187656
0.0114712
0.000902411
-0.010497
0.0092083
-0.0135788
-0.000657116
0.00116554
-0.00725788
0.0085408
-0.00244846
0.00255363
0.0150049
-0.0177476
0.000189123
0.00271609
-0.00134597
0.000938914
-0.00230903
-0.00191671
-0.00240838
0.00164896
0.00267613
-0.000102948
-0.000648049
0.000750997
0.00613792
0.000455117
-0.00369625
-0.00289679
-0.000633541
-0.000834422
0.000306768
0.0011612
-0.00312155
0.0003348
-0.00160607
0.00439283
0.017725
-0.0236306
3.62354e-05
-0.000264485
0.000530833
-0.000302584
-0.00464035
0.00215695
-0.000638155
-0.00424684
-0.00473266
0.00527799
0.00370151
0.00958558
-0.0108052
0.000254654
0.000964928
0.000770069
0.00483058
0.0114728
-0.0170735
-0.0176001
-0.00223663
0.0137722
0.00606451
0.000125432
0.00037277
-0.0015406
0.0010424
0.00100753
0.00285515
-0.00311752
-0.000745155
-0.00110178
0.00103892
-0.000190968
0.000253823
-0.00179701
-0.00187014
0.00103001
-0.00118676
-0.00514758
0.0075095
-0.00117515
0.000283023
0.000673857
0.00021597
-0.00117285
-0.000733546
0.000230201
0.000503346
-0.00186763
-0.000939417
0.000117755
-0.0027433
-0.0101012
-0.00131668
0.0141612
-0.000958685
0.00140375
0.00464054
-0.0050856
-0.000748963
0.000577408
0.00283755
-0.00266599
-0.0006462
0.00205448
-0.00499159
0.0035833
-0.00117858
0.000560539
0.00051487
0.000103174
0.00334673
0.0021365
-0.00580444
0.000321209
-0.0108619
0.000475371
0.0028114
0.000368181
-0.000711962
0.00161258
0.00695317
0.000596921
-8.4901e-05
-0.0104326
0.00509219
0.0101187
-0.00477833
0.0258257
0.0599523
-0.123469
-0.0048981
-0.00174543
0.00313405
-0.00216973
-0.0144109
0.00796146
0.00374026
0.00261642
-0.00870939
0.00235271
-0.00488492
0.00921027
-0.0142588
-0.00848835
0.0167291
-0.00445938
-0.00378136
0.00167141
-0.00330172
0.00322634
-0.00159603
-0.00040775
0.00066037
-0.00025262
0.00523338
-0.00578638
0.0001552
0.000397801
0.00408454
-0.00681264
0.000874234
0.00185387
0.00041018
0.00277536
-0.000235055
-0.00295049
-0.000498256
-0.00946339
-0.000132592
0.0100942
0.00482497
-0.0044025
-0.00117713
-0.000425797
-0.00380798
-0.00158005
0.000949789
0.000421358
0.00179707
0.0022406
-0.0113225
0.00728485
0.000976986
-0.00157374
-0.000613077
0.00120983
0.0535881
-0.0782871
0.024699
0.00120798
0.00138841
-0.00151235
-0.00108404
-0.00275911
-0.00104242
0.00380152
-0.0015008
0.000805102
0.000695697
-0.0578724
0.0893779
0.00422889
-0.0357344
0.00155318
-0.00103296
-0.000388644
-0.000131578
-0.000427742
0.00198093
0.0361933
0.0039975
0.0147643
-0.00394938
-0.0107885
0.00258141
0.0121565
0.00180485
-0.00245074
0.000218148
0.0013425
0.0102875
-0.00730657
0.0055171
-0.00371224
0.00397998
-0.00606517
0.00355999
-0.0014748
-0.00755306
0.00402926
-0.00517663
0.00870043
0.00125326
-0.00726596
0.00505402
-0.00452999
-0.00328296
-0.00207154
0.00988449
-0.00436059
0.00373278
-0.000121151
-0.00239962
-0.00071639
0.00243605
0.000679961
0.00126792
-0.000447773
-0.000820149
0.00809768
-0.00895248
0.00210805
-0.00778571
0.00188245
0.00560202
0.00030124
0.000485611
0.000212131
-0.0004996
-0.000198142
-0.00155639
6.75067e-05
0.00306993
-0.00158105
-0.00528131
-9.20992e-06
0.00669427
-0.0014004
-0.0001677
0.006151
-0.0045829
-0.0214551
0.000789355
0.00259976
0.018066
-0.000873923
0.00471805
-0.00130968
-0.00253445
0.00104407
0.00081002
-0.00115738
-0.000696709
-0.000588929
0.00881869
-0.00873477
0.000505005
0.00215735
0.000743978
0.00363842
-0.00653975
0.00372695
-0.00190676
0.000377488
-0.00219768
0.000459335
0.00255231
0.00873773
-0.0117494
0.00794034
-0.00399592
0.0117458
-0.0156902
0.00194606
0.000878403
0.000230313
-0.00305478
0.00026144
0.00149524
-0.00077969
-0.000630573
0.00225601
0.00360794
-0.000982959
0.00062856
-0.000322016
0.000676415
0.000594783
0.00101743
-0.00182591
0.000213696
-0.000393144
-0.00244541
0.00181157
0.00102699
0.00181757
0.00131959
-0.00317004
3.28804e-05
0.00314916
-0.000760439
0.000347845
-0.00935602
-0.005149
0.0164109
-0.000197194
-0.000918034
-0.000699569
-0.0191923
-0.00873189
0.0112298
0.0166945
-0.00699739
0.00326376
-0.00608368
-0.000501476
0.00129842
-0.00377828
0.00338111
-0.00388914
0.00139421
-0.00088618
0.000837068
-0.000801475
-3.55936e-05
0.00038818
-0.000502707
0.000862813
-0.000748286
-0.00763345
0.00429725
-0.00145394
0.00479014
0.000657599
-0.000450283
-0.000344167
0.000136851
1.71331e-05
0.000261621
0.000765314
0.00696146
0.00249345
-0.00762373
-0.00183119
0.0293604
-0.0175079
0.00225099
0.00113001
0.000811923
0.00129341
0.000622645
-0.00272798
0.000574002
-0.000530668
-4.3334e-05
0.0079228
0.00658717
-0.0229318
0.00842183
0.000190292
-0.00105455
-0.00205679
-0.00169287
0.00141897
-0.00314785
0.00342174
-9.69059e-05
0.00198273
0.0009447
-0.00283052
0.0036982
-0.0018729
-0.00356656
0.00174126
-2.0766e-05
-0.00408356
0.00212545
0.00081338
-0.000749026
0.000719353
-0.00549664
0.00323419
0.00163188
-3.49596e-05
-0.000463037
-0.00067108
0.00116908
-0.00228243
0.00106095
-0.00229695
-0.000249934
-0.00418337
0.000757977
0.00367532
0.00114793
-0.00064126
-0.00155879
0.00105212
0.000366131
-0.000120132
-0.00475441
0.00450841
-0.001248
0.00184011
0.000146926
-0.000739038
-0.00339725
0.00386976
-0.00187101
0.0013985
-0.000132527
0.00201596
0.0011581
-0.0026523
0.00197305
-0.00247929
0.00816167
-0.00765542
0.00274725
0.00259918
0.00253191
-0.00787834
0.0235269
-0.00640404
0.0158557
-0.0329785
0.000716767
-0.00713513
0.00281522
0.00360314
0.00340934
-0.00274315
0.000494712
0.00216824
-0.00150537
0.00303532
0.000919958
0.0058525
-0.00429287
-0.00247959
-0.0166975
-0.00192468
0.0233701
-0.00235989
0.00148293
0.00074444
-0.0188355
-0.0127116
0.0261846
0.00536257
0.0696587
0.0440963
-0.0554099
0.00223927
-0.00210096
0.00038474
-0.000523054
0.00126529
-0.000804397
-0.000803133
0.000342243
-0.00018675
-0.00213279
-0.00167469
-0.000643645
-0.00296494
-0.00569211
0.0093007
-0.00228715
0.000666288
0.00206671
-0.000445842
-0.0486837
0.0466739
-0.00586036
0.00787016
0.00210338
-0.00259733
8.85074e-06
0.000485097
2.05955e-05
-0.0024869
0.00287648
-0.00390264
0.0754818
-0.129452
0.000174526
-0.000226486
0.00299046
0.0133252
-0.00700727
-0.00681416
0.00014659
0.00119732
0.00103079
-0.0023747
-0.00794668
0.00410199
-0.00357853
0.00742322
0.000806425
0.00276633
-0.00145115
-0.00212161
0.00209439
-0.00182013
0.00146334
-0.00173761
-0.00115709
0.00143351
-0.00269081
0.00241439
0.000205956
0.00152038
-0.00116289
-0.000563445
0.000788013
0.00213805
-0.000822679
0.00263655
-0.00158709
-0.00310125
-0.00286857
0.00117049
-0.00467207
0.00564991
-0.00167888
-0.00550544
-0.0100612
4.88563e-05
-0.00199589
-0.00203848
0.00375074
0.00185781
-0.0416787
0.0101683
0.020222
-0.00303358
0.0143568
0.012303
-0.0236263
0.00210872
-2.52403e-05
-0.00174494
-0.000338544
0.00190475
-0.00134083
0.0015448
-0.00759281
-0.024789
0.00798132
0.0244005
-0.00118807
-0.00167941
0.000289173
0.00257831
0.0178969
-0.00575035
-0.003157
-0.00898952
-0.00151946
0.000530654
-0.000856821
0.00278935
-0.00272605
-0.00559376
0.00553047
-0.00502762
-0.00268105
-6.35674e-05
-0.00425251
0.00410302
0.00349121
0.00439406
-0.00687942
-0.00100585
-0.00214477
-0.00172723
0.00143344
0.000265232
-0.000277378
-0.0007214
-0.000637836
-0.00329364
0.00171223
0.00221925
-0.0240586
-0.00394121
0.000932485
-0.0139982
0.00220384
0.0112011
-0.00674651
0.00250693
-0.00581773
0.0060536
0.00350086
-0.00675404
-0.0059862
0.00559419
0.00388826
0.00451006
-0.00592567
-0.00247265
-0.00225837
0.000857674
0.00709151
-0.00569081
-0.00125506
0.00024292
0.0042461
-0.00323396
-0.0339059
0.0117429
-0.00333885
-0.00220714
-0.000793854
-0.00222641
0.00361194
-0.000591674
-0.00759346
-0.000717418
-0.00117437
-0.000427304
-0.00116589
0.00141675
-0.000684842
-0.000448421
0.000711627
-0.000909404
0.000197777
0.000452254
-0.00132791
0.000648517
0.000227142
-0.0014816
-0.0105769
0.014552
0.00136311
-0.00133653
-0.000899793
0.000873208
0.00209534
0.00406855
0.00222581
-0.00482973
-0.00146463
0.000660991
0.000404238
0.00257402
-0.00178772
0.00889208
0.00407413
-0.00497483
-0.00261995
0.0425586
0.0209784
-0.0253392
0.00272674
0.00163405
0.0142373
-0.00210847
-0.0087916
-0.00333722
0.00517174
-0.0117612
0.00905826
-0.00246877
-0.0216907
0.0115381
-0.00868293
-0.00822348
0.00738785
0.00958551
-0.00874988
0.0842651
0.0136214
-0.0978865
-0.00413712
0.00912068
-0.00189589
-0.00125823
0.00127536
-0.00047796
0.00297956
0.00141178
0.00037438
-0.00168671
-9.94446e-05
-0.0018989
0.00994747
0.000797265
-0.00884583
-0.000598917
0.000114631
0.000872466
-0.0634304
0.0616068
0.00182368
0.00847971
-0.00565278
-0.0111677
0.00834077
0.0160946
-0.0174904
-0.000984897
0.000941379
-0.00292553
0.00180934
-0.00115992
0.000195118
0.00286891
-0.00125372
-0.000641728
0.00326765
-0.00507076
0.00140997
0.000463896
0.00110237
-0.000854634
-0.00210447
0.00158531
-0.000588693
0.00293945
0.000893019
-0.0014473
-0.00150806
-8.62159e-05
-0.00116589
0.00102527
0.00806472
-0.00973814
-0.000167378
0.000545224
-0.000520943
-0.00123369
-0.00381268
0.00293401
0.0028402
-0.00257753
-0.00319667
0.0012918
-0.000131638
0.00177384
-0.000906134
0.00140647
0.00233986
0.000429192
-0.00392597
0.000858786
0.000914655
0.00215253
0.00263947
0.000134264
-0.00393082
0.00742478
-0.00639302
0.00750207
-0.00853382
0.00804156
-0.00978077
0.00421666
0.00129387
-0.00146457
-0.00404595
0.00069175
-0.000189314
-0.00646458
-0.0138152
0.00441543
0.00419973
0.00520004
-0.00224106
-0.00124265
-0.00287415
-0.000284468
0.00135013
0.00180849
-0.000871906
0.00161269
-0.00335402
0.00108951
-0.000611483
-0.000109845
0.00104287
0.0057604
-0.00454726
-5.94722e-05
-0.000932911
-0.00209135
0.00308373
0.000645377
0.00304966
0.140463
0.00498487
-0.0943509
0.00158568
0.000747252
-0.000921159
0.00101548
-0.00590181
0.0013729
0.00351343
-0.00266107
-0.00562485
0.00495409
0.00333182
-0.000491107
0.00375021
-0.00306517
0.00310312
-0.00348522
0.00344727
-0.00169134
-0.00125885
-0.000424546
0.00337474
-0.00393831
0.00234904
0.00033407
0.00415836
-0.00727456
-0.00768462
0.00208973
-0.00317116
-0.000920755
0.00370467
0.000519391
0.00245456
-0.00154044
-0.00425943
0.00169805
-0.000503797
-0.00021706
-0.00184108
-0.00350822
0.0021404
-0.000913001
-6.09986e-05
-0.00253422
-0.00213168
0.00523428
5.29144e-07
0.00200892
-0.0035471
-0.000500307
-0.00188891
-0.000698523
0.00165453
-0.000184556
9.09825e-05
0.00198875
-0.00189517
-0.00315619
0.00351052
-0.000538891
-0.0306203
-0.025145
-0.000206332
-0.00185334
-0.00109651
0.00143048
-0.000121272
-0.000191762
0.000839851
0.000421548
0.000169084
0.127002
-0.0482006
-0.113012
0.0391047
-0.0318937
-0.00570895
0.000378092
-0.0021349
0.000343433
-0.0018031
0.000626198
0.000295409
2.72437e-05
-0.00243567
-0.00152787
-0.0050871
0.00438856
-0.00244593
0.00417131
-0.00273581
0.00101043
0.0046468
-0.00232345
-0.00264182
-0.000647483
0.00118942
0.00343881
0.00130068
-0.00348843
-0.00196946
-0.00128849
0.00362246
-0.000364506
-0.00273669
0.00206317
0.000576619
-0.000730736
-0.00193515
-0.00338323
-0.00168978
0.00328953
0.00178349
-0.00110886
0.00180633
0.00079777
-0.00210809
0.0413886
-9.08547e-05
-0.000339755
0.0166063
0.0172305
-0.0334971
0.0131117
-0.0272972
0.0138458
0.00868964
-0.0189815
0.0102506
4.12424e-05
0.00950045
0.0100144
-0.0108252
-0.00742426
-0.0122643
0.000707054
-0.0253763
0.0290094
-0.0113871
0.014655
-0.000624907
-0.00158205
0.000445583
0.00649875
-0.00172222
-0.0144538
0.0096773
0.00626631
-0.00678047
0.0056859
-0.0166137
0.0207709
0.00210908
-0.0166417
-0.00094788
0.0154529
0.00213665
-0.00768283
0.0121016
-0.004227
0.00348095
-0.00799306
-0.000171223
0.000385231
-0.0015269
0.00131289
0.00220481
-0.00116928
-0.00122229
-0.000669289
0.000778735
-0.00255537
0.00589792
-0.00913829
-0.0114338
-0.0106726
0.00178302
0.000666128
0.00622206
-0.00795762
-0.0124159
0.00140705
-0.00848128
0.00979277
-0.0216024
0.00215402
-0.00824009
0.00645566
-0.00710973
0.00889416
0.00429278
-0.00110695
-0.00411409
0.00392768
-0.00322377
0.00260834
-0.00331225
-0.00277784
-0.00216137
0.00368416
-0.0019094
-0.00340982
0.0018594
0.00345982
-0.000167909
-0.000956185
-3.58275e-05
0.00316626
-0.00232162
0.00230452
-0.00264109
0.0027937
-0.00139488
0.00124227
0.00356709
0.00109141
-0.00293664
-0.00563288
-0.00113787
0.00215747
0.00461328
-0.00111951
-0.000321329
0.000214003
0.00281667
-0.00469881
0.00300778
-0.00112563
0.00302165
-0.00383018
-0.00597474
0.00678327
0.00463164
-0.00299849
0.00118352
0.00846794
-0.000814648
0.00237247
-0.00505907
0.00326375
-0.000577146
0.00139997
0.00342041
-0.00244791
-0.0102136
0.00395972
-0.00466407
0.0109179
0.0146813
0.00359772
-0.0116778
-0.0071812
0.00593492
0.00679136
-0.00554508
-0.00143928
0.0119741
-0.00650557
0.140703
-0.0691319
-0.00596694
0.0202434
-0.00978268
-0.00697978
-0.00609549
0.00988502
-0.00389318
0.000103645
-0.00125142
0.00121159
-0.00184909
0.00194752
0.0018933
0.00224007
0.00417929
-0.00679453
0.00456276
-0.00236035
0.000444157
0.0057068
-0.00123775
0.00541597
0.00239841
-0.00106412
-0.00279906
0.00146478
-0.0011252
0.00453015
-0.00100654
-0.00849622
0.0234847
0.00290468
-0.000564021
-0.00197192
0.000115907
0.0016046
0.00118417
0.00125484
-0.000546336
-0.00127252
0.00259748
-0.000883071
-0.000459567
-0.00190832
0.000603755
0.00142047
0.000801916
-0.000748434
0.000724095
-0.00291208
-0.000229676
-0.00158093
0.00507205
-0.0043677
0.00632008
0.00318452
-0.00902924
-0.00205374
0.00455284
0.00176303
-0.000115863
0.0043822
0.00211724
-0.00655199
0.00431889
-0.00788017
-0.000529665
0.0078209
-0.105617
-0.0323951
-0.0427159
0.180728
-0.00900397
-0.00245287
-0.00873224
-0.00354514
0.00548308
0.153047
-0.0624629
0.0838178
-0.174402
-0.0474278
-0.0783297
0.124407
0.00135032
-7.79367e-05
0.00829917
-0.00886601
0.00256952
-0.000950352
0.0129328
-0.014552
-0.000300693
-0.0192591
0.00954641
0.0100134
0.00540582
-0.0367096
-0.00383473
0.0351385
0.00360815
-0.0151254
0.0119766
-0.00507964
-0.0103145
0.00544977
-0.00390973
0.0112105
0.0324912
0.0388744
-0.00186058
0.0616005
-0.0755338
0.00755967
0.00213617
-0.00227107
0.00402934
-0.00151435
-0.00377079
0.0012558
-0.000456793
0.00559694
-0.00111081
-0.000493059
0.00302162
-0.00197651
-0.000552053
0.00283207
-0.00162773
-0.0016974
0.00273179
-0.00235921
-0.00959666
0.00922408
-0.000840926
0.00142618
-0.00157771
0.000992458
-0.00113838
-0.00138217
0.00205836
0.000650387
0.000848128
0.000149284
0.00167452
-0.00133817
-0.00129704
0.000960688
0.00243645
-0.00018453
-0.000529123
-0.00254048
-0.000537368
0.00360697
-0.0138195
0.0286714
-0.0309151
0.0160631
-0.00839495
-0.0076816
0.00346829
0.010022
-0.00775806
-0.00573225
0.0251997
-0.0189776
-0.000816305
-0.0293861
0.00916339
0.0245238
-0.00430108
-0.0101601
-0.0319377
0.00462678
-0.00811804
0.00809388
-0.00460263
-0.0117849
0.000131242
0.0134532
-0.0175651
0.00881787
0.00844657
-0.00554224
-0.000995766
0.014446
0.00747933
0.00425927
-0.00942327
0.018327
-0.00244643
0.00168821
0.000812844
-5.46242e-05
-0.00318796
0.00131772
-0.000505439
0.00237568
0.000736954
0.000344508
-0.00426942
-0.000184732
-0.000142922
-0.00211878
0.000946557
-0.000631312
0.000718346
-0.00103359
0.000119621
-0.00112633
-0.000223656
-8.29396e-05
0.000772419
0.00118831
0.000798361
-0.00112485
-0.000861816
-0.000260869
0.000339035
0.000573876
-0.000652041
0.000551334
0.000376104
0.00224514
-0.0016221
0.00359361
0.000232611
-0.000937505
0.00295004
-0.0104328
0.00733563
-0.00868772
-0.00309454
0.0116498
-0.00576588
-0.00909746
0.0104505
-0.00338027
0.0082443
-0.00462617
-0.00552764
-0.000249594
-0.00583173
0.00544701
0.00380162
-0.00299705
-0.00625158
-0.000119723
0.00539646
0.000170268
-0.00295551
-0.00799388
0.00820608
0.00884489
-0.00831
-0.00811576
0.000701757
0.0111873
-0.00377331
-0.00175144
0.000679311
0.00194498
-0.000872845
0.00451739
-0.00329946
-0.00933369
-0.000797888
0.0036114
-0.00208941
-0.00220338
0.0557914
-0.000677628
-0.0333594
0.0203613
-0.00209597
0.00905547
0.00851344
-0.0080277
-0.00437892
0.0548961
-0.028762
0.0565663
0.00513143
-0.000492376
-0.00501431
0.000375257
-0.00128215
0.0681673
-0.0668852
-0.065958
-0.0802648
0.0810308
0.00662136
0.00258079
-0.00407072
-0.00226914
0.000292187
-0.00770461
0.00692004
0.00260579
-0.00643238
0.0052109
-0.00138431
0.000862185
-0.00935508
0.00267062
0.000927178
0.00161311
-0.00664644
0.00685832
-0.0101179
0.0172301
-0.00972253
-0.163525
-0.054023
0.0418056
-0.0280201
0.0211511
-0.000860932
2.56478e-05
0.000835284
0.000940185
0.00452067
-0.0047239
0.000163037
-0.00330082
0.00407797
0.000355667
-0.0012166
-0.00340262
0.00437482
0.00318012
-0.00415232
0.0027502
-0.00540836
-0.00453497
0.00719313
-0.000532274
0.00490082
0.00162544
-0.00599398
0.0224068
-0.0231256
-0.00152072
0.00223949
-0.00750471
-0.000367428
0.00516935
0.00270279
-0.00295343
0.00161866
0.00191801
-0.000583236
0.00260592
-0.00699322
0.00247059
0.00215214
-0.00249965
-0.000670371
0.00264552
-0.000356489
0.00290192
-0.00115781
0.000408029
-0.00940707
0.00855633
-0.000759397
0.000397372
0.00842897
0.000140706
-0.0157509
0.00196355
-0.00233827
0.00261399
-0.00137171
0.0021721
0.000207674
-0.00105692
0.00279769
0.00103722
-0.00277798
-0.00499182
-0.00380013
-0.00131451
-0.00239007
0.00104655
-0.000725354
0.00348731
-0.024564
0.0160559
-0.000702433
1.82125e-05
0.00143409
-0.00074987
-0.00492883
0.00205369
0.00389062
-0.00124714
-0.00153506
0.00209736
-0.000140313
-0.00112571
0.000443796
0.000822224
0.000630841
-0.000400641
0.00263722
-0.000124168
-0.0070108
-0.000364813
-0.00564547
0.00942196
-0.00341168
-0.00239944
0.00344104
-0.00178217
0.000740577
0.0016236
-0.0017073
0.00855164
-0.00308055
0.00731476
-0.00459902
0.000706849
-0.000221238
-0.00458806
0.0108664
-0.00352809
-0.00754126
0.00245577
-0.00401436
0.00611946
0.00182258
0.00215383
0.00170897
-0.00216214
-0.00390743
-0.00155134
0.00296705
8.2889e-05
-0.0014986
0.00506882
-0.00076364
-0.00312404
-0.00118114
-0.00368227
0.00541061
-0.00383393
0.00210559
-6.67131e-05
0.00126078
-0.00154128
0.00385251
-0.00357202
-0.000439383
0.000713768
0.000154451
-0.000511582
-0.00562971
0.00385647
0.00228483
-0.000236481
0.00281088
-0.000224267
-0.00235014
-0.000464224
0.00233497
-0.00223307
0.000362322
0.000922325
0.000905439
0.00957888
-0.00536326
-0.00512105
-0.00043251
0.00602469
-0.000453472
0.00539353
0.00799345
-0.0103272
-0.00229804
0.00394014
0.0004944
0.00493875
0.00759511
-0.00802997
0.00168945
0.0030583
0.00329382
0.000206707
-0.000731505
0.000524797
0.00109712
-0.00167045
4.85115e-05
0.000524819
-0.000596532
0.000302154
0.00292501
-0.00263063
-0.00181514
0.00204511
-0.00348075
0.0009694
0.000750449
0.00123223
-0.00295208
-0.00103304
-0.000881646
0.00191468
0.00225618
-0.000691678
-0.000758079
0.0027182
0.00107937