/*--------------------------------*- C++ -*----------------------------------*\
| =========                 |                                                 |
| \\      /  F ield         | OpenFOAM: The Open Source CFD Toolbox           |
|  \\    /   O peration     | Version:  2506                                  |
|   \\  /    A nd           | Website:  www.openfoam.com                      |
|    \\/     M anipulation  |                                                 |
\*---------------------------------------------------------------------------*/
FoamFile
{
    version     2.0;
    format      ascii;
    arch        "LSB;label=32;scalar=64";
    class       volScalarField;
    location    "0.0153672";
    object      k;
}
// * * * * * * * * * * * * * * * * * * * * * * * * * * * * * * * * * * * * * //

dimensions      [0 2 -2 0 0 0 0];

internalField   nonuniform List<scalar> 
47425
(
0.366476
0.384603
0.368528
0.358607
0.447383
0.368445
0.423855
0.368484
0.370454
0.804295
0.372216
0.385154
0.397361
0.367255
0.371044
0.374843
0.368607
0.401036
0.84196
0.504145
0.365766
0.366872
0.376487
0.365245
0.37668
0.371567
0.365896
0.763471
0.365338
0.381996
0.382529
0.374487
0.377379
0.372397
0.366417
0.37756
0.371829
0.380334
0.377109
0.361497
0.38655
0.366803
0.384798
0.383161
1.25331
0.391853
0.374671
0.377169
0.370587
0.370678
0.669249
0.412906
0.371757
0.719774
0.392879
0.377212
0.37049
0.382652
0.444891
0.378118
0.752884
0.693916
0.736998
0.386142
0.369871
0.37331
0.375157
0.373638
0.740832
0.398697
0.366898
0.377061
0.372402
0.375303
0.701093
0.37284
0.742721
0.370941
0.784107
0.467867
0.697935
0.371201
0.375335
0.383448
0.368415
0.369288
0.37083
0.362239
0.413554
0.518528
0.374575
0.372558
0.374032
0.384825
0.392152
0.38022
0.365705
0.365188
0.37164
0.384766
0.367063
0.466779
0.369683
0.489566
0.368289
0.375224
0.369202
0.360485
0.363169
0.382168
0.624373
0.366474
0.374049
0.373158
0.370877
0.732563
0.370436
0.613551
0.391286
0.37518
0.36121
0.372403
0.377273
0.397761
0.381191
0.379876
0.372364
0.369486
0.380289
0.375244
0.377366
0.378893
0.52994
0.384308
0.373933
0.401281
0.375798
0.379214
0.377077
0.362198
0.380877
0.388983
0.365925
0.387076
0.373906
0.370562
0.406597
0.368081
0.378459
0.380224
0.383773
0.716533
0.373536
0.721592
0.389806
0.373355
0.400574
0.801755
0.393191
0.379638
0.37309
0.373682
0.371201
0.372346
0.608727
0.7329
0.377285
0.705724
0.37572
0.765879
0.698414
0.390041
0.373495
0.377993
0.391454
0.428748
0.734123
0.368197
0.373715
0.364722
0.719569
0.366534
0.370286
0.374562
0.366674
0.378725
0.373967
0.460804
0.379339
0.370888
0.376839
0.379177
0.422687
0.374705
0.37065
0.37419
0.373985
0.365658
0.374999
0.363176
0.375725
0.379622
0.365744
0.371628
0.39596
0.379886
0.372314
0.373139
0.379692
0.378619
0.374043
0.371822
0.38397
0.368699
0.370472
0.373188
0.378796
0.443307
0.394742
0.39099
0.499034
0.367151
0.377757
0.368534
0.402751
0.48782
0.371308
0.378327
0.383217
0.407755
0.377551
0.37479
0.38776
0.370846
0.378069
0.365447
0.484151
0.386524
0.472547
0.375843
0.363445
0.374611
0.371825
0.370623
0.370669
0.382148
0.363255
0.392416
0.36638
0.378838
0.364591
0.464055
0.375497
0.371841
0.376455
0.374047
0.372693
0.38712
0.360767
0.374419
0.408963
0.393668
0.384363
0.381412
0.38972
0.387917
0.368486
0.390782
0.372699
0.378336
0.38348
0.463279
0.473469
0.377319
0.452909
0.385237
0.455978
0.503885
0.461304
0.556686
0.758722
0.365256
0.721307
0.38795
0.372057
0.366102
0.382342
0.362793
0.388517
0.37552
0.641252
0.394663
0.37178
0.364527
0.368624
0.377699
0.372621
0.37403
0.363403
0.396799
0.391025
0.369252
0.376914
0.371445
0.750821
0.741165
0.702821
0.368012
0.369452
0.376274
0.366995
0.658764
0.370252
0.370059
0.524505
0.382411
0.375274
0.395707
0.367996
0.585238
0.510791
0.373898
0.367839
0.367642
0.386646
0.369713
0.377015
0.367699
0.373322
0.375813
0.370172
0.661225
0.386189
0.367682
0.397364
0.377219
0.663007
0.371641
0.365651
0.372444
0.385411
0.383786
0.366524
0.369378
0.373487
0.375503
0.378599
0.373995
0.371799
0.386193
0.379282
0.379111
0.370814
0.384511
0.374817
0.399544
0.379751
0.374384
0.39103
0.376263
0.427568
0.378439
0.389863
0.376359
0.368332
0.372749
0.389395
0.379614
0.366604
0.373957
0.392511
0.541389
0.359463
0.372135
0.386547
0.37128
0.372323
0.392122
0.377338
0.372634
0.378499
0.371874
0.364588
0.36752
0.380077
0.370717
0.378833
0.366439
0.380368
0.376913
0.377605
0.379156
0.376953
0.373756
0.378757
0.376462
0.366594
0.369972
0.419415
0.371746
0.571379
0.368715
0.693406
0.377681
0.394575
0.39089
0.369491
0.373079
0.364261
0.377915
0.377719
0.843165
0.676513
0.383528
0.391526
0.368978
0.368766
0.36765
0.371623
0.373687
0.374286
0.374988
0.367866
0.363282
0.369085
0.368823
0.41633
0.374547
0.371924
0.529534
0.336223
0.375752
0.633034
0.333868
0.385009
0.387344
0.651583
0.372007
0.371973
0.374246
0.375998
0.597304
0.38718
0.367233
0.368189
0.379232
0.378614
0.374031
0.364886
0.618798
0.615443
0.510767
0.370988
0.447538
0.385036
0.370713
0.376836
0.392933
0.379477
0.373448
0.370383
0.381384
0.374475
0.372077
0.369433
0.378566
0.381821
0.375987
0.368733
0.370138
0.373228
0.369849
0.380061
0.38816
0.371736
0.385664
0.378055
0.65021
0.375254
0.436361
0.385065
0.392111
0.436276
0.387032
0.375659
0.38828
0.390719
0.368439
0.390335
0.396127
0.365832
0.384876
0.373929
0.385884
0.473019
0.364756
0.398786
0.371252
0.411535
0.364903
0.370275
0.36995
0.369196
0.391264
0.375535
0.36824
0.364104
0.367066
0.383003
0.369903
0.376079
0.384577
0.374015
0.367974
0.370268
0.375146
0.371972
0.384306
0.377589
0.392602
0.370687
0.386264
0.679829
0.377292
0.377637
0.379892
0.36949
0.464799
0.468431
0.386113
0.373376
0.389261
0.394602
0.380049
0.480865
0.375646
0.632926
0.405547
0.40417
0.38415
0.472478
0.366064
0.368819
0.370754
0.371278
0.367645
0.371595
0.849318
0.364528
0.402007
0.371049
0.453558
0.384691
0.378167
0.440045
0.430287
0.377736
0.370528
0.303744
0.365931
0.370812
0.370673
0.367312
0.366831
0.412427
0.396095
0.387215
0.368597
0.370882
0.367878
0.517271
0.370558
0.368159
0.310005
0.371188
0.372278
0.391999
0.683653
0.374016
0.197766
0.227306
0.365959
0.392046
0.36645
0.369465
0.397225
0.385108
0.634312
0.382221
0.391337
0.366384
0.456174
0.409684
0.391293
0.377459
0.497544
0.554151
0.367531
0.369445
0.365561
0.378228
0.379448
0.393434
0.373179
0.383059
0.3874
0.371717
0.386566
0.476932
0.39602
0.370644
0.487375
0.382628
0.370974
0.384391
0.37826
0.367747
0.377175
0.376644
0.414196
0.380815
0.371326
0.37238
0.948517
0.389866
0.389811
0.71293
0.693323
0.364363
0.388849
0.6377
0.386019
0.458764
0.402784
0.38385
0.710327
0.372279
0.369594
0.382454
0.475578
0.39372
0.386312
0.373055
0.398472
0.366904
0.368041
0.380326
0.372606
0.388787
0.686789
0.698678
0.395453
0.404174
0.377414
0.384022
0.390059
0.381586
0.382857
0.381585
0.375407
0.378337
0.394246
0.380478
0.369168
0.440852
0.396706
0.698948
0.540784
0.377055
0.387683
0.376944
0.366996
0.704102
0.369368
0.710633
0.380027
0.400326
0.389896
0.366669
0.377311
0.373085
0.411613
0.376679
0.365534
0.405884
0.389515
0.37175
0.411727
0.376957
0.908571
0.389736
0.393151
0.401662
0.37103
0.363417
0.398085
0.363966
0.412417
0.376006
0.368366
0.39637
0.370374
0.368296
0.377326
0.365921
0.503977
0.568488
0.379721
0.472689
0.376568
0.380939
0.363536
0.363035
0.37128
0.3754
0.363764
0.367057
0.374051
0.664953
0.485365
0.36489
0.373115
0.371413
0.377162
0.370349
0.370103
0.374031
0.525549
0.37308
0.366121
0.371182
0.368922
0.365185
0.371995
0.369558
0.367873
0.379242
0.373339
0.384991
0.553939
0.366368
0.333315
0.511126
0.538797
0.252482
0.372915
0.42146
0.408476
0.397456
0.518286
0.307642
0.70898
0.372305
0.371415
0.395355
0.39006
0.550543
0.376572
0.379119
0.36908
0.363946
0.392183
0.38847
0.376781
0.388046
0.391007
0.421834
0.381516
0.382673
0.502308
0.48937
0.437512
0.557511
0.495563
0.593393
0.619362
0.374075
0.391008
0.37213
0.366229
0.371649
0.270775
0.385474
0.365604
0.377605
0.369061
0.315339
0.271027
0.368987
0.400259
0.368226
0.370321
0.390517
0.368159
0.370958
0.369435
0.375566
0.468676
0.369322
0.375813
0.370787
0.384655
0.377515
0.537426
0.463439
0.364934
0.39768
0.373726
0.364713
0.366875
0.388814
0.386081
0.576631
0.368193
0.366008
0.382706
0.436379
0.802889
0.373292
0.371366
0.452301
0.383276
0.373407
0.391691
0.374632
0.38418
0.686657
0.444936
0.752812
0.372013
0.434286
0.367995
0.411433
0.369638
0.374992
0.383973
0.373094
0.668601
0.480134
0.411529
0.533351
0.392503
0.3716
0.378509
0.421394
0.368345
0.37914
0.291983
0.367656
0.423254
0.381022
0.405854
0.706608
0.394102
0.393253
0.54021
0.383723
0.372498
0.453131
0.448828
0.369778
0.451285
0.477954
0.362328
0.376325
0.361896
0.375831
0.378502
0.380068
0.523429
1.96607
0.389643
0.386964
0.472837
0.596984
0.577061
0.569714
0.391185
0.373541
0.388551
0.388083
0.433415
0.369897
0.392015
0.390194
0.336778
0.374822
0.375873
0.375721
0.364979
0.392492
0.510297
0.374989
0.669124
0.368182
0.429923
0.380512
0.374471
0.377416
0.378272
0.387283
0.47168
0.383478
0.425991
0.509276
0.392789
0.382498
0.385547
0.463467
0.3681
0.400663
0.376898
0.403159
0.633295
0.476023
0.365448
0.374794
0.379001
0.370684
0.378936
0.676541
0.471871
0.54618
0.380225
0.408524
0.386475
0.560137
0.370861
0.81033
0.412357
0.396693
0.388693
0.60289
0.365425
0.368946
0.369704
0.391921
0.39256
0.376943
0.440472
0.530663
0.418856
0.367763
0.379375
0.645599
0.672366
0.529844
0.534211
0.705384
0.404929
0.388102
0.451029
0.366504
0.49442
0.37976
0.39291
0.98685
0.390553
0.375316
0.371287
0.392394
0.431642
0.39377
0.361908
0.392351
0.47763
0.370919
0.375764
0.372608
0.384312
0.375382
0.418432
0.378944
0.39829
0.382292
0.385225
0.382457
0.364787
0.361627
0.379126
0.416092
0.49215
0.379465
0.413254
0.371337
0.57021
0.389476
0.37812
0.364299
0.950788
0.589699
0.660962
0.28389
0.392497
0.396018
0.64674
0.317107
0.391664
0.428874
0.380581
0.383271
0.574024
0.374733
0.375929
0.390528
0.408275
0.370866
0.586319
0.861505
0.366748
0.874404
0.369767
0.638081
0.948631
0.364309
0.383371
0.378708
0.570362
0.382099
0.38022
0.396681
0.605856
0.372715
0.472859
0.377817
0.373994
0.365681
0.377508
0.862891
0.866943
0.392256
0.41001
0.391446
0.628855
0.371413
0.364942
0.818913
0.90112
0.3809
0.376485
0.805006
0.988659
0.776654
0.385137
0.493552
0.723533
0.681318
0.379968
0.495859
0.462025
0.383021
0.379147
0.830567
0.961807
0.415309
0.416826
0.375532
0.374608
0.393996
0.378164
0.497619
0.371439
0.369401
0.369048
0.371446
0.619581
0.894319
0.382238
0.603973
0.43738
0.36201
0.504161
0.366862
0.377162
0.377239
0.39392
0.399156
0.368777
0.66544
0.370754
0.781727
0.574383
0.673696
0.412008
0.389285
0.376931
0.388249
0.371974
0.563175
1.00732
0.386967
0.606891
0.555257
0.694285
0.487908
0.825682
0.625369
0.37336
0.372766
0.842554
0.368701
0.374356
0.370091
0.638209
0.530513
0.366497
0.391056
0.602285
0.446759
0.669714
0.635455
0.387513
0.503927
0.920684
0.379842
0.406909
0.70123
0.377966
0.81439
0.785492
0.374608
0.374824
0.379569
0.376178
0.404571
0.363083
0.380393
0.397725
0.384063
0.50288
0.411812
0.385145
0.499206
0.424844
0.785826
0.380566
0.386374
0.409532
0.381652
0.78941
0.362642
0.381693
0.370472
1.05234
0.368449
1.5029
0.392403
0.512368
0.403438
1.17677
0.61012
0.58746
0.434212
0.54474
0.416747
0.370102
0.403775
0.579422
0.566487
0.457917
0.662547
0.392925
0.478543
0.595353
0.390166
0.365183
0.598172
0.569079
0.365718
0.375628
0.374249
0.382482
0.602223
0.682526
0.37036
0.390306
0.371753
1.01216
0.375785
0.643122
0.413368
0.37604
0.377424
0.446918
0.410238
0.588872
0.412935
0.39802
0.429468
0.468994
0.365888
0.790441
0.549416
0.37212
0.785293
0.58551
0.38131
0.529111
0.375328
0.413924
0.757976
0.410888
1.07842
0.586237
0.377699
0.417879
0.412572
0.373121
0.376836
0.43605
0.476758
0.454202
0.365487
0.433466
0.368608
0.433063
0.430417
0.398575
0.398734
0.401741
0.373176
0.752918
0.480927
0.417503
0.577659
0.667583
0.371654
0.502846
0.286577
0.402778
0.400913
0.39213
0.630525
0.493166
0.660207
0.365313
0.693377
0.462438
0.373357
0.426833
0.400957
0.489982
0.381542
0.428696
0.547943
0.364836
0.634363
0.397096
0.945224
0.400547
0.381957
0.39193
0.47275
0.41338
0.469444
0.402461
0.372444
0.784398
0.380938
0.390675
0.868582
0.367988
0.376349
0.633965
0.394351
0.457186
1.02215
0.389321
0.451232
0.380477
0.81376
0.561275
0.545789
0.521209
0.451664
0.396195
0.475487
0.753238
1.0175
0.54889
0.381908
0.382563
0.373517
0.37123
0.390017
0.619856
0.382569
0.367674
0.39603
0.369926
0.390256
0.391633
0.39798
0.406109
0.38977
0.474706
0.371479
0.39475
0.406544
0.374849
0.37683
0.403941
0.401611
0.383188
0.366407
0.382483
0.378415
0.381851
0.398626
0.631749
0.369323
0.391365
0.365212
0.375137
0.520273
0.36335
0.370616
0.433246
0.966105
0.664786
0.379113
0.430283
0.524522
0.375173
0.395642
0.481905
0.381518
0.398999
0.382114
0.389556
0.438414
0.371194
0.409806
0.411442
0.382259
0.362974
0.367002
0.385008
0.521241
0.375076
0.418198
0.734114
0.375858
0.513439
0.437425
0.731057
0.377064
0.386907
0.391211
0.373877
0.38058
0.380879
0.371461
0.49003
0.50249
0.741318
0.384918
0.617368
0.374641
0.368823
0.441425
0.363788
0.671198
0.376824
0.580551
0.368807
0.736911
0.774236
0.377532
0.369635
0.448487
0.372347
0.407836
0.374925
0.384666
0.372385
0.365782
0.369483
0.375576
0.378084
0.430116
0.390113
0.401446
0.379556
0.374914
0.375916
0.378426
0.466128
0.374782
0.554819
0.3753
0.363824
0.385603
0.384805
0.368769
0.37006
0.389149
0.368714
0.37083
0.360678
0.37578
0.383647
0.37431
0.572174
0.527947
0.381747
0.397355
0.634571
0.364415
0.371009
0.369774
0.367406
0.389952
0.386617
0.400215
0.404167
0.37488
0.374452
0.438391
0.373501
0.373015
0.372033
0.682171
0.39348
0.74402
0.682831
0.733078
0.381012
0.375922
0.370886
0.365391
0.381703
0.60023
0.387759
0.365222
0.371564
0.376825
0.372108
0.43092
0.371873
0.383323
0.430279
0.377516
0.362868
0.371561
0.372044
0.380408
0.367919
0.382891
0.379368
0.41377
0.368927
0.375889
0.38084
0.375803
0.376451
0.364597
0.382543
0.366371
0.393952
0.396909
0.375647
0.365661
0.368195
0.368936
0.369021
0.380713
0.374924
0.379523
0.373167
0.376135
0.525278
0.373068
0.4518
0.36857
0.375261
0.412978
0.37832
0.383367
0.370281
0.373631
0.383782
0.388769
0.614298
0.393532
0.559038
0.362738
0.372662
0.381629
0.372954
0.382203
0.404231
0.37764
0.370713
0.366268
0.477978
0.470232
0.633008
0.388075
0.488193
0.388094
0.383978
0.408808
0.882593
0.37992
0.372538
0.37248
0.69894
0.369236
0.373477
0.388891
0.377961
0.37793
0.735047
0.373187
0.382626
0.388508
0.377648
0.408388
0.821235
0.725822
0.371499
0.366243
0.36786
0.393034
0.39239
0.374839
0.726966
0.713852
0.370731
0.378894
0.570357
0.36935
0.386495
0.463668
0.371457
0.368924
0.372825
0.372278
0.395865
0.376331
0.369651
0.393898
0.412329
0.372701
0.37123
0.553823
0.369773
0.441157
0.500509
0.33049
0.540209
0.381536
0.392213
0.407067
0.382149
0.390311
0.390423
0.751429
0.542831
0.381285
0.385018
0.372153
0.389218
0.380655
0.403578
0.370706
0.366549
0.382595
0.381319
0.517751
0.458768
0.70082
0.659343
0.396721
0.385617
0.377166
0.379221
0.371078
0.386161
0.377759
0.367483
0.374464
0.377047
0.319562
0.373533
0.369342
0.466853
1.19279
0.401227
0.367963
0.383568
0.508741
0.742282
0.361523
0.530728
0.460105
0.600578
0.552387
0.435793
0.37137
0.371487
0.381511
0.775778
0.370234
0.383049
0.380418
0.373716
0.456928
0.389242
0.345907
0.379455
0.465139
0.376064
0.383392
0.394718
0.388264
0.636459
0.619264
0.254602
0.40177
0.309037
0.421562
0.372983
0.814625
0.375392
0.771775
0.388443
0.76046
0.385863
0.497633
0.37645
0.493223
0.389217
0.398266
0.371198
0.37728
0.381945
0.457214
0.423743
0.376659
0.380124
1.00639
0.258751
0.386823
0.549462
0.340845
0.543684
0.370104
0.375861
0.294087
0.61118
0.541503
0.38913
0.954292
0.375419
0.766745
1.00596
0.266996
0.409945
0.377309
0.409348
0.360604
0.37243
0.370407
0.511382
0.387046
0.374037
0.368556
0.380307
0.366678
0.369845
0.366808
0.472602
0.367897
0.365875
0.382098
0.374546
0.453438
0.382863
0.395767
0.384104
0.368528
0.39606
0.481534
0.361214
0.365698
0.49397
0.904726
0.384482
0.820946
0.401155
0.468071
0.674049
0.444549
0.403358
0.372399
0.414512
0.374892
0.366553
0.379167
0.37119
0.365979
0.382044
0.372078
0.363386
0.361454
0.39129
0.376519
0.388957
0.662305
0.371299
0.369468
0.36835
0.373548
0.464844
0.585381
0.383191
0.369241
0.381301
0.526961
0.518996
0.369729
0.387991
0.748548
0.402683
0.393811
0.383113
0.436375
0.380749
0.369447
0.38442
0.530792
0.386685
0.378518
0.592537
0.37311
0.394282
0.373543
0.398202
0.377934
0.40589
0.383841
0.374654
0.378753
0.405309
0.358702
0.380742
1.09291
0.36581
0.45609
0.394134
0.373565
0.545141
0.412012
0.371021
0.385772
0.608416
0.505155
0.391671
0.377469
0.397232
0.434481
0.383235
0.37896
0.728833
0.483844
0.419806
0.510352
0.378209
0.369319
0.525172
0.380095
0.865141
0.376567
0.40326
0.401631
0.370525
0.50069
0.416278
0.571418
0.442017
0.375358
0.374723
0.632529
0.382601
0.403094
0.366782
0.379731
0.395365
0.432185
0.652008
0.391894
0.372185
0.29546
0.535236
0.668093
0.442851
0.624202
0.409893
0.847055
0.395294
0.388493
0.702327
0.40614
0.483999
0.296403
0.575378
0.603467
0.373845
0.371786
0.277137
0.384484
0.382317
0.656526
0.385006
0.418561
0.372427
0.421927
0.375543
0.377096
0.794117
0.285515
0.506341
0.346094
0.403039
0.385109
0.380743
0.393452
0.388422
0.382278
0.372792
0.390215
0.392543
0.250478
0.240937
0.378401
0.408095
0.368641
0.420969
0.455737
0.389372
0.376324
0.399107
0.253795
0.418211
0.405286
0.360454
0.378509
0.550874
0.401552
0.376554
0.763091
0.397506
0.493492
0.451302
0.395874
0.378583
0.372846
0.980119
0.372229
0.363564
0.407343
0.394668
0.433714
0.375352
0.41823
0.377096
0.522538
0.367062
0.397522
0.386587
0.369527
0.527125
0.393551
0.634742
0.616882
0.369861
0.593859
0.453703
0.372957
1.04915
0.36895
0.368245
0.381195
0.434204
0.701388
0.620573
0.402673
0.66107
0.471588
0.374341
0.492338
0.676111
0.399073
0.640843
0.430342
0.366314
0.586512
0.687406
0.39974
0.803217
0.413299
0.3933
0.54556
0.415153
0.379242
0.393121
0.663431
0.338946
0.364658
0.524507
0.382961
0.398204
0.390146
0.39498
0.474327
0.464955
0.64624
0.379544
0.379313
0.590392
0.378916
0.380928
0.498532
0.373697
0.395437
0.612363
0.390094
0.78633
0.723369
0.684599
0.457058
0.382901
0.442635
0.367407
0.372636
0.459119
0.371907
0.369492
0.398186
0.369501
0.453771
0.650657
0.374457
0.507829
0.375813
0.498036
0.408188
0.767247
0.37495
0.447351
0.380365
0.375589
0.403961
0.376792
0.384948
0.370697
0.367031
0.557912
0.360816
0.391944
0.39362
0.387839
0.379756
0.397247
0.38812
0.592012
0.395613
0.377746
0.382604
0.427296
0.353912
0.609606
0.515127
0.571216
0.764969
0.409985
0.438797
0.180997
0.349235
0.686927
0.430792
0.490741
0.429779
0.653916
0.493574
1.03343
0.413682
0.38907
0.483597
0.781414
0.397629
0.280329
0.440904
0.286395
0.437741
0.442533
0.6386
0.443398
0.36996
0.428428
0.252953
0.377314
0.731502
0.384989
0.39342
0.36824
0.37317
0.470909
0.371652
0.619883
0.483278
0.377467
0.392229
0.380298
0.511418
0.575577
0.379063
0.399914
0.413262
0.744513
0.421721
0.371296
0.499659
0.534025
0.369273
0.380596
0.385916
0.372309
0.600443
0.378208
0.472952
0.632915
0.369693
0.398085
0.383625
0.380931
0.302547
0.394005
0.531036
0.37006
0.378096
0.677063
1.17123
0.374451
0.379466
0.373846
0.376057
0.510709
0.419394
0.689616
0.39052
0.373067
0.466253
0.383854
0.389184
0.37772
0.395132
0.390851
0.507278
0.49601
0.51004
0.4372
0.445949
0.374004
0.382621
0.678209
0.774116
0.436774
0.509283
0.396884
0.728612
0.461604
0.653723
0.488611
0.405273
0.39436
0.379884
0.401489
0.423635
0.527445
0.377118
0.413883
0.842027
0.38989
0.876791
0.392172
0.370807
0.381071
0.384793
0.37527
0.365231
0.53688
0.367782
0.362286
0.363543
0.379408
0.45426
0.511781
0.375153
0.53832
0.406026
0.39872
0.36994
0.37735
0.452139
0.410342
0.444587
0.390291
0.365831
0.421726
0.376912
0.363446
0.413379
0.401818
0.565595
0.382261
0.478432
0.397794
0.43545
0.385651
0.448527
0.376927
0.379479
0.36434
0.384054
0.386998
0.694108
0.365594
0.441334
0.297576
0.401061
0.383317
0.399972
0.390627
0.456565
0.449113
0.377951
0.374491
0.381651
0.464874
0.422586
0.365774
0.880701
0.434516
0.488166
0.37611
0.366239
0.506217
0.381377
0.382926
0.507721
0.373028
0.379498
0.4094
0.626828
0.370244
0.548636
0.370137
0.375368
0.453418
0.389284
0.387673
0.481965
0.369084
0.437602
0.434787
0.437686
0.467721
0.794446
0.378775
0.38068
0.388195
0.399085
0.398775
0.393843
0.374201
0.375331
0.384813
0.56718
0.38664
0.394168
0.58052
0.398259
0.650227
0.374867
0.388467
0.430969
0.368485
0.394377
0.390685
0.381342
0.406526
0.378012
0.38517
0.415338
0.402897
0.423745
0.37854
0.543906
0.387607
1.09823
0.673795
0.410342
0.383449
0.488707
0.387592
0.305838
0.436082
0.31864
0.467343
0.245778
0.420735
0.494553
0.430384
0.606933
0.610245
0.397398
0.33899
0.275085
0.988355
0.611953
0.613801
1.25334
0.527342
0.305742
0.728355
0.372738
0.38604
0.659314
0.430551
0.636464
0.410967
0.600147
0.610442
0.382007
0.392189
0.378233
0.366293
0.378067
0.369455
0.650231
0.405587
0.383029
0.551778
0.365294
0.369819
0.37844
0.381841
0.38128
0.385814
0.396288
0.372453
0.440766
0.782285
0.367759
0.380234
0.377174
0.367661
0.659989
0.633915
0.408316
0.376567
0.557233
0.368561
0.377372
0.382694
0.404657
0.372643
0.3761
0.36787
0.366389
0.456417
0.363892
0.423261
0.378411
0.379597
0.377297
0.398106
0.376426
0.378363
0.370357
0.425653
0.369696
0.401331
0.611041
0.443498
0.398304
0.426402
0.376497
0.400173
0.391716
0.382757
0.373175
0.388393
0.37668
0.384605
0.420468
0.388587
0.431629
0.473329
0.379312
0.392197
0.436595
0.426494
0.501829
0.45034
0.645379
0.833506
0.392127
0.380095
0.707128
0.544342
0.454326
0.373525
0.370745
0.382574
0.368405
0.375922
0.370355
0.385542
0.396865
0.369867
0.382516
0.372501
0.373249
0.383495
0.48888
0.413335
0.384565
0.377624
0.373966
0.642416
0.369102
0.371424
0.404502
0.84007
0.688703
0.389089
0.387807
0.386898
0.404563
0.415507
0.612457
0.438312
0.375219
0.384227
0.381573
0.372855
0.405553
0.412335
0.382475
0.368226
0.431178
0.407588
0.509536
0.426773
0.572209
0.528568
0.395577
0.40507
0.365756
0.375978
0.396534
0.372533
0.367992
0.604518
0.377493
0.388443
0.66767
0.388789
0.390351
0.277302
0.438429
0.368679
0.376787
0.371689
0.392937
0.682448
0.383559
0.457258
0.682749
0.537857
0.828919
0.747884
0.370956
0.389163
0.534032
0.36895
0.553967
0.51657
0.657114
0.373195
0.369459
0.538666
0.379552
0.564611
0.434405
0.379641
0.685014
0.72846
0.378792
0.37169
0.770641
0.379682
0.370807
0.361327
0.370004
0.387016
0.386722
0.548733
0.378083
0.747378
0.370165
0.3865
0.363117
0.785191
0.375518
0.787495
0.381753
0.403273
0.372805
0.461168
0.370248
0.430754
0.363303
0.485041
0.485191
0.485517
0.635458
0.372509
0.37672
0.694553
0.438782
0.386543
0.429686
0.407837
0.380296
0.411362
0.387045
0.590055
0.434814
0.376616
0.362966
0.454195
0.37762
0.409162
0.39277
0.370171
0.385079
0.371588
0.371656
0.374589
0.57223
0.366697
0.373686
0.375476
0.371688
0.366498
0.377433
0.379337
0.382951
0.386861
0.398979
0.392028
0.366593
0.303016
0.393419
0.408568
0.427489
0.346665
0.745114
0.374734
0.659297
0.409626
0.288254
0.390747
0.404998
0.395531
0.374574
0.363456
0.390785
0.388868
0.377274
0.376003
0.369418
0.683916
0.368262
0.377697
0.401754
1.07204
0.257624
0.385158
0.733508
0.375259
0.603604
0.525003
1.02197
0.228948
0.389662
0.394882
0.383906
0.375556
0.761984
0.404058
0.425779
0.372929
0.37054
0.636445
0.387941
0.389556
0.371093
0.386482
0.400049
0.392003
0.597277
0.375784
0.382507
0.367426
0.374483
0.398062
0.365776
0.386031
0.967071
0.996941
0.649935
0.471714
0.697896
0.377251
0.371264
0.363415
0.379836
0.370724
0.414596
0.374754
0.445761
0.394588
0.375043
0.37223
0.376951
0.376478
0.377891
0.380944
0.374441
0.382886
0.518413
0.383989
0.409463
0.691022
0.384452
0.597943
0.772319
0.389089
0.408623
0.376424
0.491837
0.389583
0.405473
0.616045
0.37505
0.42008
0.376929
0.407316
0.375082
0.375221
0.455919
0.539275
0.383623
0.393267
0.696618
0.420581
0.58312
0.561775
0.378269
1.15302
0.410206
0.424717
0.406751
0.379214
0.444897
0.397572
0.361829
0.37416
0.360352
0.578525
0.23182
0.379012
0.39919
0.455542
0.239544
0.694601
0.368119
0.378194
0.430888
0.378222
0.430594
0.391201
0.885653
0.389706
0.3833
0.380912
0.750996
0.37688
0.416185
0.395831
0.378186
0.37668
0.392707
0.373527
0.368574
0.588961
0.39982
0.701123
0.368359
0.701632
0.67772
0.456802
0.401821
0.387147
0.474973
0.394773
0.382375
0.370932
0.382938
0.684033
0.380095
0.488512
0.487403
0.382405
0.374675
0.369639
0.371811
0.37558
0.371567
0.424813
0.408615
0.401462
0.383201
0.414703
0.372139
0.449644
0.372233
0.382838
0.376271
0.586034
0.923822
0.398915
0.385191
0.372446
0.555541
0.368274
0.376213
0.378722
0.370722
0.387893
0.378642
0.364815
0.375272
0.381689
0.61983
0.531373
0.37154
0.664152
0.373911
0.380606
0.364701
0.375919
0.64149
0.400151
0.713808
0.370984
0.366577
0.746249
0.804004
0.375468
0.371646
0.580059
0.388456
0.405292
0.414114
0.406823
0.391888
0.446611
0.383693
0.378412
0.391159
0.376971
0.496889
0.36906
0.384434
0.373204
0.371871
0.526736
0.584881
0.365821
0.37698
0.381257
0.380082
0.383175
0.521652
0.387305
0.393665
0.422241
0.380227
0.463475
0.421167
0.499163
0.416614
0.376993
0.371935
0.370281
0.412679
0.370521
0.474846
0.423402
0.368247
1.02364
0.372969
0.373023
0.391167
0.380834
0.413542
0.596472
0.378362
0.459029
0.375181
1.08529
0.420283
0.402163
0.38137
0.579053
0.383828
0.535236
0.398165
0.437564
0.368945
0.417597
0.423343
0.604258
0.479501
0.376243
0.366768
0.370039
0.497824
0.390735
0.938317
0.536679
0.385051
0.448871
0.376131
0.4861
0.473819
0.417772
0.517419
0.494811
0.668599
0.382748
0.402193
0.899826
0.500573
0.39551
0.485408
0.376732
0.971625
0.424269
0.381481
0.368793
0.372122
0.371732
0.377593
0.374559
0.589307
0.372359
0.482648
0.373489
0.452156
0.404421
0.537599
0.373033
0.375075
0.367835
0.52405
0.47534
0.508948
0.375214
0.382319
0.477037
0.40819
0.400251
0.366565
0.366268
0.368207
0.377883
0.372491
0.405555
0.373365
0.539214
0.449604
0.929651
0.72555
0.525652
0.551335
0.425238
0.427743
0.367244
0.573666
0.377492
0.396754
0.375306
0.482749
0.420315
0.381937
0.451015
0.709466
0.451042
0.369091
0.366395
0.59814
0.7705
0.413391
0.715528
0.798428
0.605119
0.63107
0.56245
0.65091
0.432102
0.606374
0.744935
0.374771
0.378542
0.376235
0.469521
0.605747
0.379924
0.371248
0.432225
0.39639
0.402636
0.704392
0.4983
0.772254
0.379035
0.371093
0.373834
0.363974
0.379854
0.753998
0.384589
0.453
0.55592
0.368655
1.07399
1.11263
0.370244
0.462173
0.443273
0.729884
0.391606
0.492447
0.710551
0.696648
0.46791
0.61796
0.517039
0.535999
0.377287
0.394799
0.389309
0.729916
0.697429
0.420318
0.386467
0.536075
0.469414
0.562702
0.376535
0.399835
0.853115
0.591124
0.282615
0.367637
0.327797
0.372193
0.244597
0.422899
0.46267
0.576409
0.246059
0.455452
0.485327
0.221869
0.471449
0.472496
0.455065
0.424751
0.480461
0.388465
0.522361
0.385483
0.37269
0.37974
0.385182
0.650764
0.670949
0.714213
0.422146
0.427366
0.517261
0.416835
0.272012
0.437305
0.401124
0.381004
0.519404
0.383329
0.294969
0.379294
0.443623
0.435412
0.691244
0.489709
0.764332
0.774494
0.691485
0.388286
0.430901
0.615461
0.353287
0.536286
0.409767
0.420058
0.372635
0.737081
0.550885
0.380318
1.16562
0.604888
0.377405
0.461134
0.674126
0.720314
0.431887
0.392104
0.485332
0.699922
0.400389
0.369544
0.39537
0.392426
0.437611
0.476004
0.609064
0.412037
0.595788
0.785872
0.556689
0.474216
0.610323
0.453342
0.745716
0.583781
0.483673
0.717124
0.540456
0.414327
0.467134
0.378604
0.372833
0.375605
0.402701
0.535285
0.632908
0.377923
0.393486
0.404829
0.378395
0.377437
0.563078
0.471533
0.3777
0.386504
0.72435
0.918167
0.252336
0.425377
0.370303
0.395988
0.58272
0.530831
0.37862
0.287054
0.390102
0.27749
0.333809
0.574005
0.389435
0.385573
0.37805
0.425971
0.735296
0.459818
0.390678
0.488204
0.37478
0.699361
0.573309
0.47701
0.588458
0.40768
0.373352
0.369837
0.377667
0.388988
0.433635
0.373074
0.380329
0.375209
0.373751
0.538563
0.549524
0.662559
0.380699
0.484978
0.408895
0.431038
0.40162
0.470396
0.391242
0.394547
0.386128
0.366205
0.382456
0.381859
0.468203
0.376478
0.391661
0.400484
0.597526
0.382431
0.42665
0.462336
0.689157
0.671493
0.419761
0.800588
0.268347
0.39908
0.410128
0.531625
0.392597
0.656591
0.457823
0.367211
0.441676
0.520719
0.438526
0.472071
0.580943
0.486175
0.48093
0.625413
0.389249
0.373491
0.420733
0.375514
0.369629
0.431712
0.368138
0.372035
0.544751
0.373292
0.356391
0.457057
1.02148
0.369287
0.370473
0.748468
0.36894
0.374921
0.507931
0.37198
0.590941
0.443054
0.705605
0.37057
0.543271
0.467769
0.610588
0.37875
0.457643
0.36938
0.59756
0.375971
0.376034
0.406308
0.45306
0.484355
0.403037
0.382192
0.387646
0.373131
0.492146
0.372753
0.369067
0.367956
0.460086
0.525407
0.372695
0.385267
0.373679
0.376566
0.385675
0.49135
0.373961
0.457443
0.376693
0.573152
0.381722
0.407373
0.38445
0.485786
0.381309
0.456184
0.382091
0.383623
0.376029
0.398331
0.379908
0.458806
0.446436
0.653441
0.668444
0.691141
0.426277
0.40038
0.391412
0.371144
0.368466
0.827435
0.620189
0.4252
0.409922
0.384901
0.389806
0.368893
0.368627
0.517198
0.503477
0.681241
0.53873
0.415407
0.377185
0.436948
0.373002
0.602277
0.37437
0.396738
0.385753
0.392793
0.850165
0.438225
0.366387
0.389909
0.430134
0.367989
0.279997
0.373715
0.300394
0.414514
0.814391
0.474886
0.711233
0.367429
0.392881
0.40324
0.390331
0.410962
0.371582
0.371021
0.363875
0.376264
0.384942
0.37458
0.547389
0.426091
0.755534
0.445461
0.37411
0.498664
0.386492
0.369924
0.340118
0.854022
0.808228
0.282511
0.323528
0.378827
0.688193
0.484927
0.453184
0.419146
0.410965
0.265566
0.391902
0.383405
0.363246
0.433575
0.557873
0.692772
0.533075
0.451702
0.366479
0.43339
0.640301
0.391731
0.369884
0.677462
0.662465
0.562802
0.568063
0.364362
0.3628
0.430523
0.365989
0.742748
0.368406
0.374132
0.369775
0.625897
0.372427
0.407019
0.479869
0.478987
0.373542
0.37077
0.39032
0.372327
0.367145
0.377128
0.42631
0.547198
0.462657
0.399646
0.564897
0.389651
0.547542
0.412492
0.796327
0.468526
0.467655
0.620364
0.322329
0.451585
0.439532
0.565056
0.441621
0.364729
0.380294
0.369165
0.387241
0.759163
0.399176
0.374229
0.377864
0.410239
0.366135
0.497282
0.395968
0.388332
0.473258
0.39361
0.370818