/*--------------------------------*- C++ -*----------------------------------*\
| =========                 |                                                 |
| \\      /  F ield         | OpenFOAM: The Open Source CFD Toolbox           |
|  \\    /   O peration     | Version:  2506                                  |
|   \\  /    A nd           | Website:  www.openfoam.com                      |
|    \\/     M anipulation  |                                                 |
\*---------------------------------------------------------------------------*/
FoamFile
{
    version     2.0;
    format      ascii;
    arch        "LSB;label=32;scalar=64";
    class       volScalarField;
    location    "0.0153672";
    object      nut;
}
// * * * * * * * * * * * * * * * * * * * * * * * * * * * * * * * * * * * * * //

dimensions      [0 2 -1 0 0 0 0];

internalField   nonuniform List<scalar> 
47425
(
0.00683964
0.00544946
0.00596412
0.00223925
0.00362809
0.00527955
0.00550232
0.00362957
0.00742792
0.00144116
0.00263194
0.00742545
0.00633108
0.00521884
0.00448423
0.0036976
0.00613031
0.00292958
0.00033282
0.00315748
0.00454705
0.00754602
0.00359965
0.00613159
0.00742773
0.00751543
0.00542893
0.000457246
0.0060444
0.00680778
0.00750467
0.00750123
0.00735364
0.00608853
0.00713237
0.0056578
0.00751133
0.0053914
0.00579843
0.00515261
0.00520476
0.00708952
0.00708197
0.00262601
0.00068756
0.00354153
0.00398421
0.00460507
0.00499827
0.00735388
0.000567438
0.00394816
0.00735849
0.000945127
0.00336712
0.00309528
0.00752978
0.00657354
0.00203312
0.00610479
0.000881321
0.000576777
0.00101131
0.00402136
0.00734102
0.00737712
0.0057584
0.00639351
0.00107525
0.00473941
0.00516266
0.00727945
0.00714638
0.00450504
0.00127365
0.00740858
0.00104469
0.00476835
0.000212977
0.00260825
0.00120604
0.00616151
0.00743127
0.00703193
0.00749019
0.00472714
0.00704338
0.00728826
0.00517171
0.00124856
0.00750603
0.00468926
0.00753013
0.00335575
0.00262816
0.0019509
0.00728096
0.00736706
0.00494585
0.00472035
0.00601227
0.00110655
0.00720578
0.00100063
0.00740208
0.00689536
0.00747907
0.00450791
0.00754284
0.00756335
0.000999846
0.00612424
0.00665291
0.00246238
0.00697801
0.000304474
0.00708683
0.00071569
0.00464604
0.00653828
0.00531003
0.00744179
0.00628002
0.00397627
0.00380481
0.00653412
0.00464644
0.00743791
0.00358413
0.00747815
0.00745961
0.0036832
0.00100019
0.00305244
0.00723724
0.00638596
0.00705892
0.00635037
0.00554503
0.00385001
0.00515467
0.00286886
0.00533442
0.00628195
0.00689499
0.00741268
0.00454904
0.00591544
0.0024858
0.00512363
0.00640616
0.00048699
0.00725597
0.000368534
0.00381555
0.00441272
0.00379885
0.000265213
0.00393373
0.00498276
0.00703639
0.0075475
0.007342
0.00736236
0.00115965
0.000465325
0.00749751
0.00127566
0.00356237
0.000839106
0.0012935
0.00431823
0.0049105
0.0046881
0.00513783
0.00141929
0.00033202
0.00605026
0.00700854
0.00751086
0.000278409
0.00750178
0.0067537
0.00748892
0.0074104
0.0068311
0.00678229
0.00119327
0.00261624
0.00698913
0.00744397
0.00620869
0.00428022
0.00476579
0.00743796
0.00717278
0.00582724
0.00519915
0.00711615
0.00517317
0.00558013
0.00311801
0.00754078
0.00718275
0.00337799
0.00241375
0.00723996
0.00719337
0.00419119
0.00738127
0.0061329
0.00626478
0.00737613
0.00500025
0.00621277
0.0064867
0.00590343
0.00259292
0.00402966
0.00399919
0.00215002
0.00414757
0.00692742
0.004685
0.00239809
0.00174531
0.00742391
0.0030983
0.00687953
0.00507225
0.00622666
0.00511035
0.00353466
0.00749606
0.00231386
0.00398127
0.00231601
0.00320324
0.00246068
0.00208898
0.00497995
0.007055
0.00753869
0.00421522
0.00744647
0.00697448
0.00615043
0.00561621
0.00751297
0.00540796
0.00756875
0.00245684
0.00604627
0.00741001
0.00422839
0.00754089
0.007553
0.00315051
0.00423429
0.00722223
0.00316184
0.00740634
0.00560437
0.00283722
0.00636169
0.0025419
0.00750115
0.00631086
0.00654602
0.00489877
0.00532659
0.00296101
0.00235199
0.00720762
0.00287321
0.00214356
0.00321356
0.000517806
0.0025294
0.000642688
0.000879818
0.00702775
0.000892715
0.00305243
0.00494307
0.00510005
0.00357834
0.00462535
0.00194217
0.00690402
0.000654692
0.00650159
0.00737641
0.00683743
0.00638492
0.00369597
0.00349808
0.00735032
0.00590148
0.00456389
0.00413002
0.00741353
0.00409737
0.00675578
0.000725186
0.000806237
0.000477567
0.00753555
0.00735805
0.00747927
0.00354348
0.000668328
0.00445429
0.00312529
0.00151657
0.00492364
0.00360668
0.00313787
0.00460487
0.00201834
0.00175555
0.007592
0.00647471
0.00746517
0.00289892
0.00749966
0.00527901
0.00655872
0.0071866
0.00548867
0.00571648
0.00098991
0.005622
0.00517856
0.00302429
0.00761029
0.000907916
0.00722186
0.00737901
0.00702496
0.0075131
0.00743448
0.00748984
0.00715089
0.00724005
0.00690053
0.00658873
0.00727792
0.00522584
0.00433183
0.00746352
0.00735478
0.00599005
0.00730906
0.00736681
0.0032376
0.00506269
0.00754758
0.00714614
0.00388903
0.00193148
0.00663296
0.00457092
0.00439878
0.00741124
0.00724823
0.00288838
0.0072188
0.005563
0.00747064
0.00289986
0.000759834
0.00505036
0.00753127
0.00192828
0.00752162
0.00715711
0.0040189
0.00503962
0.00752171
0.00554503
0.00749089
0.00752715
0.00481939
0.00422836
0.00439108
0.00438303
0.00714963
0.00707006
0.00450314
0.00727992
0.00730687
0.00476441
0.00676945
0.00592152
0.00726275
0.00624886
0.00410368
0.00208572
0.00739928
0.000833218
0.00746665
0.00261224
0.00506002
0.00360409
0.00362146
0.00735778
0.00262675
0.00744651
0.00391553
0.00732399
0.000895497
0.000864458
0.00737055
0.00410493
0.00510323
0.00480226
0.00474741
0.00483743
0.00552008
0.00412576
0.00548689
0.00745811
0.00371243
0.00600856
0.00728021
0.00356181
0.00584459
0.00706889
0.000977763
0.000318201
0.00727137
0.000479481
0.000387354
0.00410923
0.000435514
0.000618056
0.00720101
0.00527845
0.0056789
0.00566484
0.000833596
0.0041121
0.00726754
0.00708422
0.00610835
0.00593589
0.00463807
0.00472346
0.000887728
0.000592691
0.0014091
0.00539382
0.00124121
0.00590275
0.00691355
0.00725474
0.00648482
0.00720799
0.00428673
0.00481029
0.00286025
0.00550393
0.00749588
0.00509923
0.0066813
0.00461487
0.00713677
0.00633188
0.00584824
0.00535372
0.00561923
0.0034433
0.0030046
0.00649147
0.00438545
0.00713634
0.000991849
0.00292594
0.00237936
0.00734084
0.00274283
0.00345782
0.00416529
0.00747878
0.00548562
0.00691511
0.00592
0.00371294
0.00351105
0.00551354
0.0043184
0.00699356
0.00248988
0.000949062
0.00744937
0.0019696
0.00681745
0.00196941
0.0072888
0.00708812
0.00750123
0.00559094
0.00692399
0.0033316
0.0063146
0.00746751
0.00753691
0.00711587
0.0049992
0.00288292
0.00507728
0.00755315
0.00658646
0.00711715
0.00706851
0.00658558
0.00516322
0.0055645
0.0034435
0.00475048
0.00319801
0.000620864
0.00601761
0.00544586
0.00670657
0.00741463
0.00176273
0.00154892
0.00473651
0.00701315
0.00455735
0.0060604
0.00734807
0.00164183
0.00750999
0.00208427
0.00277145
0.00312294
0.00638679
0.00286337
0.00757672
0.00538202
0.00549634
0.00747444
0.00755739
0.00720148
0.000832272
0.00647564
0.00259102
0.00745288
0.00177332
0.00716168
0.0065512
0.00249903
0.00266706
0.00521169
0.00755778
0.000798275
0.00706177
0.00679885
0.00716495
0.00717648
0.00746668
0.00268038
0.00541941
0.00725448
0.00712017
0.00554518
0.00751644
0.00140745
0.00741997
0.00605411
0.000616158
0.00519234
0.00748599
0.000730845
0.00136652
0.00756294
0.000217311
0.000308424
0.00560591
0.00723842
0.00722363
0.00753474
0.00446293
0.00409652
0.00185425
0.00757345
0.00289681
0.00708069
0.00191825
0.00245776
0.00445707
0.00560751
0.00164243
0.00204753
0.00722176
0.00423292
0.00468109
0.00356078
0.00307238
0.00307393
0.00733603
0.00408669
0.00288269
0.0055504
0.00552477
0.00330342
0.00453236
0.00733122
0.00267544
0.00395529
0.00528767
0.00301294
0.00355397
0.00628218
0.00494701
0.00679031
0.00206475
0.00533503
0.0071082
0.0074151
0.000275438
0.00479104
0.00620563
0.000459726
0.000738744
0.007545
0.00486555
0.000154087
0.00217331
0.000950445
0.00226324
0.00268535
0.00054633
0.0067784
0.00736967
0.00584402
0.00349909
0.00340761
0.00337522
0.00742959
0.00325032
0.00590366
0.00494062
0.00707253
0.00456502
0.00549424
0.00253057
0.000505902
0.00317055
0.00350822
0.0042735
0.00751935
0.00349115
0.00704702
0.00586764
0.0055675
0.00557309
0.00746776
0.00207663
0.00478292
0.00738906
0.00163184
0.00203214
0.00092043
0.0013996
0.00415309
0.00748015
0.00496012
0.00749481
0.000874223
0.00537439
0.0007896
0.00451163
0.00582782
0.00668908
0.00524169
0.00596936
0.00507092
0.00259823
0.00455433
0.00717676
0.00192691
0.00567181
0.00748269
0.0048385
0.00410923
0.000709464
0.00665963
0.00189634
0.00445038
0.0074746
0.00749101
0.00265033
0.00495096
0.00464058
0.00731118
0.0057832
0.00503657
0.00493578
0.00468257
0.00473143
0.00601655
0.00107933
0.00064237
0.00551215
0.000911037
0.00573944
0.00328348
0.0042681
0.00744378
0.00721647
0.00670754
0.0055035
0.00481726
0.00753351
0.000552327
0.0014352
0.00386977
0.00569114
0.00741327
0.00408548
0.00726123
0.00264566
0.00707483
0.00115238
0.00431314
0.00747202
0.00485102
0.00738878
0.00633743
0.00551593
0.00735474
0.00415487
0.00744495
0.00736336
0.0049604
0.00093592
0.00757685
0.000634163
0.00201555
0.00248737
0.000696617
0.00454217
0.00530419
0.00266242
0.00458041
0.000851352
0.000474083
0.00076474
0.00500877
0.00663084
0.00546716
0.00314319
0.000915435
0.00279672
0.00405226
0.00692504
0.00569652
0.00603469
0.00293145
0.00643462
0.00447164
0.00146717
0.00230685
0.00552501
0.00247832
0.00119878
0.000770883
0.00557718
0.000311957
0.00138236
0.000628793
0.000768325
0.00451223
0.00314681
0.00747875
0.00739824
0.0050615
0.000662162
0.00202098
0.00508497
0.0050125
0.00753355
0.000984781
0.000557393
0.0075671
0.00231131
0.00412669
0.0075282
0.00228291
0.00755016
0.0075431
0.00534183
0.00513723
0.00169443
0.00725373
0.00760668
0.00658559
0.00539109
0.00540242
0.00113372
0.00161549
0.00754951
0.00151124
0.00724243
0.00751306
0.00744761
0.00188186
0.00470003
0.00272737
0.00355456
0.00709481
0.00730591
0.00147007
0.000786686
0.00513427
0.00442481
0.00165072
0.00570982
0.00572888
0.00319943
0.00304782
0.00297353
0.00189935
0.00241414
0.00117614
0.00740146
0.00125682
0.00703659
0.00410931
0.00746258
0.00221573
0.0029122
0.00745629
0.0017987
0.0013276
0.00427605
0.00180846
0.00572869
0.00713521
0.00523543
0.00362786
0.00522223
0.00379576
0.000783219
0.00560507
0.00318071
0.00181793
0.00180489
0.000578712
0.00177848
0.00426517
0.000552303
0.00738597
0.00743265
0.0037978
0.00234706
0.00428139
0.00159996
0.00137623
0.00364385
0.00619694
0.00598378
0.00338729
0.00369179
0.00410749
0.00217312
0.00153914
0.00467886
0.00656422
0.00213887
0.00213758
0.00162338
0.000527272
0.00406532
0.00540007
0.00394379
0.0040636
0.00395897
0.00744311
0.00345786
0.0039108
0.00104796
0.00335882
0.00545552
0.00396699
0.00718632
0.00355111
0.000846616
0.00466772
0.00222772
0.00708495
0.00239118
0.00288221
0.00378577
0.0054352
0.00538519
0.00363732
0.00133977
0.00418663
0.00171035
0.000705596
0.00664586
0.00735028
0.00708668
0.00128586
0.00653228
0.00268877
0.00700735
0.00176861
0.000766663
0.00377762
0.00425587
0.00438557
0.00738513
0.00517927
0.00325256
0.000780991
0.00283832
0.000982166
0.00733685
0.00300001
0.00364946
0.00262599
0.00462376
0.00207431
0.00171106
0.00167815
0.00542374
0.000643333
0.00430252
0.00495023
0.00556909
0.00671938
0.00612258
0.00531804
0.00150709
0.0028285
0.00359986
0.00667625
0.00668305
0.000721616
0.00110205
0.000734139
0.00177942
0.000778465
0.00209728
0.00405682
0.00135853
0.0048831
0.00128151
0.00205975
0.00206589
0.00155241
0.00440426
0.00654293
0.00581177
0.00752307
0.00172212
0.00379356
0.00398466
0.00508491
0.00161682
0.00699046
0.00486518
0.00728074
0.00741545
0.00302539
0.00234412
0.0030429
0.00422659
0.00650414
0.00235069
0.00751453
0.00457183
0.0038798
0.00721332
0.00291897
0.00142613
0.00603886
0.00267664
0.00534748
0.00151096
0.00208407
0.00301064
0.00353417
0.000214431
0.000260053
0.00166623
0.000509703
0.00356519
0.00404737
0.000467744
0.000642363
0.00692304
0.00123281
0.00347351
0.00430699
0.000395503
0.00268813
0.00693906
0.00331058
0.0019223
0.0072268
0.000706787
0.000340499
0.0028458
0.000686353
0.00257615
0.000861864
0.000598961
0.00653422
0.00473232
0.00282054
0.00127883
0.00390017
0.00707331
0.00245358
0.000536405
0.0071475
0.00211244
0.00589308
0.00224386
0.00737031
0.0067797
0.00242273
0.00205317
0.00446252
0.002126
0.00635779
0.000914547
0.00746559
0.00745112
0.00270567
0.00223586
0.00511181
0.00733543
0.00071472
0.00133736
0.00182311
0.00381381
0.00388129
0.00247699
0.000954199
0.00515223
0.000857379
0.00162199
0.0067545
0.00428429
0.00197881
0.000571391
0.00269383
0.00218573
0.00629566
0.00726556
0.00258376
0.00486303
0.00215351
0.00578626
0.00740867
0.0073599
0.0055975
0.00209697
0.00069797
0.00525125
0.000445736
0.00447618
0.00523479
0.00217845
0.00711659
0.00435389
0.00605397
0.00551548
0.0019738
0.00707457
0.00146777
0.00759598
0.000337349
0.0010223
0.0021355
0.00200541
0.00605736
0.00566937
0.00361132
0.00719737
0.000692765
0.000619519
0.00355052
0.00202542
0.000760236
0.00076688
0.00208119
0.00106835
0.000502209
0.00394762
0.00733312
0.000428532
0.00476027
0.00717699
0.00514854
0.000692152
0.000346836
0.0048409
0.00557802
0.00147875
0.00196546
0.00117382
0.000624303
0.00346981
0.000936599
0.000996296
0.00351758
0.00469048
0.000716163
0.00658886
0.000869558
0.000208644
0.00748389
0.00589728
0.004837
0.00683084
0.00299948
0.00398367
0.00718864
0.00311774
0.0042101
0.000963191
0.00185325
0.0062578
0.00135336
0.00511445
0.00033973
0.00659465
0.00405082
0.00265751
0.00750792
0.00092373
0.00440616
0.00321836
0.00246347
0.00262952
0.00429583
0.0021535
0.00213719
0.000763114
0.0068684
0.000843026
0.000700518
0.00092388
0.00429394
0.00102529
0.00221387
0.00480598
0.00518373
0.00109893
0.00155239
0.00245486
0.000620354
0.00260174
0.00108004
0.000788081
0.00297247
0.00247615
0.000993148
0.00181403
0.00740042
0.0025176
0.00436283
0.00256689
0.002843
0.000556424
0.00648199
0.00470128
0.0057458
0.00131222
0.00566473
0.000489553
0.00238236
0.00574607
0.00719444
0.00202138
0.00214854
0.000917783
0.00212849
0.00336028
0.001382
0.000980279
0.0047637
0.000866063
0.00127002
0.00389888
0.000512254
0.00123416
0.00310713
0.00319013
0.00559402
0.00191655
0.000594755
0.0021196
0.00140399
0.00346581
0.0068976
0.00222877
0.0049207
0.00385821
0.00620953
0.00129325
0.00187146
0.00153044
0.00529281
0.00183932
0.00487291
0.00388162
0.00136519
0.00195889
0.00248169
0.00361964
0.0067724
0.000359396
0.00148609
0.00182779
0.00130243
0.00194737
0.00698792
0.00100537
0.000459745
0.00174211
0.00331651
0.00426435
0.00299176
0.00232197
0.000947415
0.00662606
0.00131808
0.00167869
0.00711962
0.00155612
0.00353248
0.00258798
0.00293946
0.00161482
0.00251317
0.00739651
0.000559134
0.00351518
0.000647298
0.00271046
0.00586218
0.00293861
0.00258966
0.00170384
0.00409693
0.00590239
0.00396272
0.000947295
0.00528768
0.00576579
0.000560724
0.00752687
0.00482056
0.000688958
0.00475466
0.00236143
0.00131326
0.00258756
0.00109317
0.00516494
0.000197072
0.00233643
0.000697725
0.00282525
0.00131696
0.00399828
0.000926073
0.00152273
0.00125912
0.00293375
0.0041757
0.00712733
0.00426952
0.00431202
0.00294878
0.000496733
0.00394186
0.0066898
0.00631952
0.00648664
0.00402881
0.0027622
0.00721011
0.00738816
0.00311415
0.000900653
0.00744367
0.00293457
0.00357588
0.00568221
0.00729473
0.00296875
0.00316822
0.00744876
0.0069945
0.0035739
0.0038664
0.00612348
0.00399502
0.000892314
0.00410152
0.0049972
0.00691057
0.00761123
0.00123601
0.00586425
0.006968
0.000785489
0.00118301
0.00086689
0.00736174
0.000781303
0.000446114
0.00733661
0.000220576
0.000786588
0.000449512
0.00411332
0.00544306
0.00450275
0.00174854
0.0075743
0.00468626
0.00469657
0.00403304
0.00327207
0.0044509
0.00358022
0.00120748
0.00455363
0.00321032
0.00076946
0.00424111
0.000300014
0.00235445
0.00120405
0.00744656
0.00314891
0.00206908
0.00728781
0.00547702
0.00196387
0.00758082
0.00171678
0.00177159
0.000345189
0.00654108
0.00121599
0.00678276
0.00320065
0.00407335
0.0066416
0.00134473
0.00636569
0.00237306
0.00694066
0.00116115
0.000221675
0.00480587
0.00753452
0.000511112
0.00502412
0.000257484
0.00544537
0.00389025
0.00530869
0.00523703
0.00671405
0.00703875
0.00531724
0.00238459
0.00628412
0.00222889
0.00427116
0.00496834
0.00749407
0.00247005
0.00071409
0.00416235
0.00123635
0.00699908
0.00552958
0.00315137
0.00451409
0.00526984
0.0067708
0.00246779
0.00286375
0.00743589
0.00449155
0.00583238
0.00537651
0.00391897
0.00125189
0.00104351
0.00503715
0.00416533
0.00345475
0.00420366
0.00706226
0.0058639
0.00730307
0.00219943
0.00228301
0.00196216
0.00374278
0.0052195
0.00548307
0.00131441
0.00697918
0.00723743
0.0062582
0.0015542
0.00300612
0.00119948
0.00118548
0.0011772
0.00437705
0.0060212
0.00602969
0.00562509
0.00715321
0.00122716
0.00539957
0.00743353
0.00455874
0.0034909
0.00534647
0.00114535
0.00560769
0.00240708
0.00313633
0.00363197
0.00711271
0.00530944
0.00421849
0.00404461
0.00571074
0.0031935
0.00426284
0.00446956
0.00483399
0.00514921
0.00488855
0.00241437
0.00209958
0.00630158
0.00443972
0.00286287
0.00363279
0.00231348
0.0074383
0.00714661
0.00281169
0.00611008
0.0068817
0.00483441
0.00741536
0.00746173
0.00513223
0.00479878
0.00167369
0.00528519
0.00262954
0.0073849
0.00554663
0.000502849
0.00460891
0.00436784
0.00679297
0.00618941
0.00417
0.0043986
0.000279488
0.00356966
0.00140163
0.00728614
0.00644704
0.00517147
0.00748135
0.0072331
0.00361808
0.00436251
0.00714988
0.00749701
0.00249162
0.000913097
0.00139329
0.00312795
0.00174712
0.00368835
0.00578264
0.00363886
0.00248238
0.00209402
0.00449566
0.00476584
0.000804759
0.0059946
0.00463713
0.00416197
0.00426957
0.00748724
0.000327922
0.00573532
0.00389631
0.00710667
0.00294373
0.00352594
0.0003028
0.000230346
0.00555686
0.00705277
0.00749283
0.00415684
0.00391912
0.00666032
0.000220646
0.00104164
0.00609753
0.00263733
0.00133709
0.00622414
0.00738169
0.00244374
0.00751245
0.00629433
0.00720392
0.00525017
0.00400071
0.00429017
0.00476702
0.00662576
0.00261288
0.00518773
0.00739087
0.00111756
0.00561046
0.00443389
0.00242706
0.000971654
0.00123505
0.00359514
0.0028962
0.00617426
0.00285873
0.00306828
0.0074189
0.00052288
0.00134445
0.00289248
0.00454234
0.00345923
0.00408247
0.00407485
0.00135261
0.00752813
0.0073974
0.00564973
0.00534997
0.000960595
0.00143476
0.00093411
0.00123619
0.00363605
0.00290885
0.00751937
0.00750596
0.00460172
0.00639862
0.00540216
0.00687016
0.00762019
0.000967171
0.000424144
0.00744736
0.00753511
0.00305625
0.00119595
0.0038129
0.00753586
0.00639831
0.00127499
0.000856164
0.00442967
0.00176762
0.00229587
0.0023327
0.000456315
0.00280895
0.00708357
0.00756231
0.00604758
0.000862645
0.00700082
0.00440952
0.00461619
0.00753969
0.000735324
0.000216262
0.0001907
0.00178287
0.0013211
0.0069831
0.00726876
0.00326987
0.00509568
0.000540984
0.000918339
0.000466756
0.000386487
0.000596164
0.00203123
0.00740636
0.000822574
0.00716631
0.000311526
0.00399044
0.000681812
0.0046454
0.00198349
0.00730245
0.00395839
0.00227386
0.0023002
0.00729544
0.00550892
0.00406785
0.00094326
0.00136104
0.00496558
0.00542308
0.000417955
0.000497732
0.00493401
0.00137399
0.00066967
0.00109878
0.00587684
0.00743133
0.000644608
0.000515268
0.00139638
0.0074887
0.00104603
0.00722021
0.000624373
0.000790122
0.000287972
0.0024432
0.0069628
0.00205116
0.00745328
0.00526469
0.00441107
0.00233256
0.00640448
0.00463552
0.00646819
0.00399251
0.00507046
0.0074517
0.00740973
0.00441288
0.00727516
0.00717583
0.00465427
0.0067226
0.00196026
0.0040894
0.00248875
0.00413491
0.00727728
0.00664703
0.000915549
0.00527997
0.00383021
0.00225612
0.000622134
0.0056228
0.0019243
0.00446593
0.00101959
0.00297244
0.00132614
0.00470424
0.00741105
0.00484326
0.0040348
0.00699383
0.00399836
0.00364553
0.00443439
0.0069545
0.0057462
0.00704154
0.0054107
0.00343645
0.00629273
0.00380954
0.000654215
0.00416597
0.00449446
0.00495856
0.00329627
0.00121218
0.00256352
0.004553
0.00560538
0.00350429
0.000986651
0.000931923
0.00506752
0.0035054
0.000322172
0.00161782
0.00208023
0.00416174
0.00160034
0.0032863
0.00429964
0.00405119
0.00105751
0.00483441
0.00431197
0.00179226
0.00666768
0.0023782
0.00325007
0.00335013
0.00357246
0.00198168
0.00499223
0.00631919
0.00752274
0.00243955
0.00420292
0.00452211
0.0023491
0.00614436
0.000999874
0.00301972
0.00376043
0.000373651
0.00222331
0.00741112
0.00363745
0.000681541
0.00176787
0.00248646
0.00747409
0.00291537
0.00139792
0.00693091
0.00753483
0.000640955
0.00189964
0.00161342
0.00171772
0.00721811
0.00569219
0.00109494
0.00057459
0.000721122
0.00718291
0.0059965
0.000500664
0.00745136
0.00202053
0.0035278
0.00134574
0.00145793
0.00727764
0.00403959
0.000728114
0.00408612
0.0048504
0.00579997
0.00377569
0.00634553
0.00112431
0.000283151
0.00472525
0.00371148
0.000512107
0.000595952
0.000595249
0.00252671
0.00093899
0.00226231
0.000466911
0.00362748
0.00359611
0.000738642
0.00399321
0.0026339
0.000711651
0.000761042
0.000321425
0.00750407
0.00733961
0.000701794
0.00641132
0.00435541
0.00061495
0.00635522
0.00336544
0.00573163
0.0047306
0.00517448
0.00710388
0.000433555
0.00063572
0.00164064
0.000687429
0.00240452
0.0048166
0.00453599
0.00571444
0.00336466
0.005998
0.00686759
0.00533605
0.00634612
0.000610687
0.000519089
0.00670712
0.00214778
0.0070347
0.0038669
0.00299651
0.00360602
0.00381749
0.00575465
0.000705657
0.00129413
0.00459302
0.000617278
0.00288399
0.00132047
0.00478239
0.00424838
0.00082372
0.00284371
0.00118954
0.0018588
0.00292709
0.00297445
0.00699425
0.00112916
0.00750741
0.00682251
0.00281803
0.00442646
0.00146443
0.00362792
0.00318169
0.00363974
0.000734657
0.00452902
0.00323894
0.00375866
0.00748474
0.0028459
0.00610571
0.00193161
0.000301852
0.00392931
0.000518623
0.0035878
0.00553107
0.00207542
0.00553395
0.00618306
0.00626348
0.00325415
0.00118024
0.00149904
0.00163932
0.000626257
0.00187123
0.00571502
0.000176981
0.00107157
0.00681911
0.00285012
0.00150893
0.00441802
0.000778972
0.000416233
0.0026986
0.00118047
0.00147493
0.00341207
0.000809791
0.00203124
0.0068869
0.00363646
0.000920975
0.000828809
0.00748657
0.000993808
0.00727206
0.00229632
0.00640724
0.00268241
0.00224243
0.00102382
0.00087956
0.00582099
0.00560619
0.000201588
0.00754499
0.0055553
0.00106367
0.00675749
0.00298149
0.00245138
0.00426305
0.000421149
0.00145958
0.000271386
0.00127797
0.00317931
0.00127152
0.00732746
0.00655029
0.0012287
0.00749305
0.00406907
0.00264836
0.00610775
0.00148788
0.000599681
0.00739794
0.00243109
0.00720974
0.000843
0.00513719
0.000530751
0.00302798
0.00234644
0.00710613
0.00268323
0.00266755
0.00723578
0.006691
0.0037124
0.00755433
0.00111463
0.00461315
0.0026353
0.00658446
0.00490719
0.00363879
0.00297687
0.0029563
0.00217758
0.00322966
0.00535992
0.00513224
0.00181449
0.000698764
0.000694325
0.000741033
0.00119676
0.000777977
0.00126432
0.00316985
0.00030059
0.000606601
0.00138519
0.00223264
0.00297444
0.000849879
0.000910747
0.00233688
0.00126253
0.00213902
0.00630264
0.00310135
0.00126833
0.00426969
0.000483714
0.00300363
0.000488699
0.00220624
0.00113468
0.00130521
0.000977193
0.000575706
0.00197168
0.000674937
0.00294571
0.00160108
0.00511261
0.00181718
0.00611091
0.00662327
0.0010104
0.0038806
0.000779839
0.00143439
0.0059425
0.00238645
0.0060389
0.00126463
0.000948818
0.00719956
0.00620571
0.00182493
0.000823649
0.00405048
0.00283746
0.00117556
0.00106742
0.00657621
0.00733005
0.00403764
0.00554934
0.000748958
0.00738598
0.000956913
0.000299457
0.00590131
0.00331452
0.00585798
0.00495188
0.000615103
0.00281155
0.000680909
0.00449714
0.00597538
0.000578671
0.000838071
0.00667518
0.00255159
0.00667405
0.00725814
0.00106698
0.00282872
0.000649025
0.00565411
0.00718388
0.00214796
0.00665236
0.00563917
0.00652002
0.00625965
0.00279706
0.00207431
0.00139222
0.00227054
0.00129095
0.00346481
0.00736165
0.00223094
0.00122775
0.000737578
0.00095178
0.000879766
0.0020737
0.000909545
0.00101232
0.000965661
0.000934617
0.00460855
0.00302139
0.00427268
0.00145668
0.00451709
0.00231767
0.00343782
0.00176313
0.000488364
0.00338052
0.00148934
0.00344509
0.0063967
0.00347854
0.00658231
0.00642773
0.00586333
0.00214356
0.00361206
0.00306206
0.00683163
0.00320265
0.00148136
0.000786833
0.00512391
0.000595426
0.00708829
0.00416838
0.0075163
0.0048576
0.00105679
0.00273529
0.00130439
0.00265359
0.00473501
0.004106
0.00466558
0.00629613
0.00291108
0.00392836
0.00316225
0.0067664
0.000891045
0.0034736
0.00152373
0.00296765
0.00123169
0.00700866
0.00467733
0.00388358
0.00409932
0.00297284
0.000880157
0.00738812
0.00524628
0.000816158
0.00249789
0.0024419
0.00321682
0.00246506
0.00254736
0.00252908
0.00668829
0.00702109
0.00644867
0.00202454
0.00194968
0.00600435
0.000293265
0.0053266
0.00183244
0.0070974
0.00724839
0.00189208
0.00451336
0.0062957
0.00105464
0.00734748
0.00439302
0.00179326
0.00229411
0.00749183
0.00116548
0.00719516
0.00705785
0.00125029
0.00352782
0.00289656
0.000840574
0.00748996
0.0015663
0.00158678
0.00175382
0.000991656
0.000989118
0.00642519
0.00572269
0.0029489
0.00618927
0.00249016
0.00154028
0.00666218
0.00741846
0.00352855
0.00117736
0.00302508
0.00447768
0.00208472
0.0035219
0.00199417
0.00731743
0.00211469
0.00140881
0.00398131
0.0066037
0.00549624
0.00657361
0.00416193
0.0044143
0.00231902
0.00413212
0.000470714
0.00437621
0.00738689
0.000767597
0.00290889
0.000629509
0.000846892
0.00673836
0.00450223
0.00124611
0.00313261
0.000571928
0.00150559
0.00088948
0.00160381
0.000470842
0.00275497
0.00149359
0.00196361
0.000587482
0.000980092
0.00304783
0.000611355
0.000444067
0.00136913
0.000377301
0.00086721
0.00172815
0.00113376
0.000768476
0.000774762
0.00751075
0.00384319
0.000893042
0.000893896
0.000900654
0.00159696
0.00154913
0.000634407
0.00298805
0.00376773
0.00490312
0.00746776
0.00337221
0.00732986
0.00093375
0.00301266
0.00444266
0.000737249
0.00453418
0.00234941
0.00597013
0.00666242
0.00327101
0.0060092
0.00178908
0.00739295
0.00240174
0.000531002
0.00609295
0.00720731
0.00464766
0.00633307
0.0015687
0.0030729
0.00627663
0.00673646
0.000588599
0.00728757
0.00559415
0.00676504
0.00204124
0.00378478
0.00476032
0.0066946
0.00617501
0.000794622
0.00502116
0.00240412
0.00686575
0.00720873
0.00735122
0.00634467
0.00506625
0.00384449
0.00722366
0.00384406
0.0039291
0.00304677
0.00105506
0.00132015
0.00430979
0.00202668
0.00447516
0.00277099
0.00349571
0.00384574
0.00700166
0.00319852
0.00437382
0.00653011
0.00199953
0.00479592
0.00334541
0.00117253
0.00499711
0.00293005
0.00138436
0.00395784
0.00113833
0.0027219
0.000986606
0.000389431
0.00296365
0.00653367
0.00199835
0.00047782
0.00258372
0.0069485
0.00731733
0.00717019
0.00501228
0.00494458
0.00747778
0.00751128
0.00476575
0.00327433
0.00724097
0.0072812
0.0075202
0.00658696
0.00332076
0.00194039
0.00321139
0.00681354
0.00434489
0.000855649
0.00657266
0.00690909
0.00374133
0.000473015
0.000654128
0.00382226
0.00527443
0.00623079
0.00329167
0.00420401
0.00055084
0.00195084
0.00560086
0.0041198
0.00711456
0.00414471
0.00217241
0.00391865
0.00332949
0.00445743
0.00140046
0.00197359
0.00132879
0.00110049
0.000258025
0.0014802
0.00194421
0.00428538
0.0044181
0.00375553
0.00333611
0.00715134
0.00497763
0.000417563
0.00738938
0.00189422
0.000954028
0.00347796
0.00304453
0.000574159
0.00194711
0.00495234
0.00396365
0.00747994
0.0031319
0.00085593
0.00398395
0.00173745
0.00226118
0.0028174
0.000540095
0.000771712
0.00394877
0.00436203
0.00107067
0.00562209
0.000688461
0.000704033
0.00101205
0.00741557
0.00735124
0.000248556
0.00684999
0.000462666
0.00230325
0.00355173
0.00101841
0.00101743
0.00712274
0.00746598
0.00100546
0.00713158
0.00704472
0.00587887
0.00734848
0.00448807
0.00615421
0.00244627
0.00660668
0.000333345
0.00340698
0.00665197
0.00455577
0.00028712
0.00447652
0.000485721
0.00579803
0.00437749
0.00437833
0.00115967
0.00606182
0.00387673
0.00615207
0.000735682
0.0021262
0.00213393
0.0012772
0.00309529
0.00699611
0.000874476
0.00311044
0.0034155
0.00307812
0.00649672
0.00344091
0.00421352
0.00747599
0.000394649
0.00156414
0.0052024
0.00614773
0.00185784
0.0058922
0.00309462
0.0040212
0.00633456
0.00242575
0.005839
0.00652599
0.00453823
0.00132785
0.00529807
0.00573678
0.00606791
0.00380537
0.00746505
0.00545378
0.00681724
0.0028457
0.00597482
0.00189269
0.00258844
0.00449956
0.000486071
0.00637787
0.00346936
0.000812343
0.000670211
0.00105093
0.00429365
0.00225157
0.00201439
0.000415756
0.00402772
0.00124498
0.00405249
0.00716734
0.00335635
0.00183867
0.00401565
0.00641741
0.00716382
0.0069081
0.000311892
0.00685173
0.00695762
0.00298407
0.000442976
0.000429164
0.0045573
0.00023715
0.000396392
0.000998403
0.00105384
0.000743347
0.000547227
0.00641269
0.000673504
0.00409347
0.00720024
0.0024407
0.000460368
0.00237999
0.00722239
0.00708852
0.000818312
0.00629599
0.00045182
0.00728378
0.00294683
0.0065119
0.00301354
0.000584684
0.00719521
0.00322172
0.0030778
0.00689531
0.00372774
0.00723639
0.00300369
0.000577095
0.000496711
0.00060152
0.00166489
0.00202237
0.00703338
0.00717969
0.00642978
0.00381411
0.00732856
0.00179106
0.00751496
0.00100913
0.0042722
0.00722341
0.00690973
0.00484858
0.00715701
0.00403997
0.00321341
0.00748971
0.00336009
0.000841419
0.00701291
0.00134871
0.00084834
0.00638717
0.000226119
0.0004838
0.00291363
0.00298612
0.00504543
0.00135925
0.00480212
0.00224573
0.00131209
0.00661727
0.00179438
0.00683724
0.0025341
0.00509617
0.00280405
0.00212544
0.000606738
0.0033635
0.00425117
0.000703345
0.0016442
0.0021428
0.000837322
0.00558507
0.00132421
0.00510174
0.0019362
0.00289735
0.00597199
0.0012468
0.00297784
0.0032588
0.00699963
0.000621862
0.000857745
0.000567333
0.00670684
0.00501528
0.000988635
0.000460537
0.00308216
0.0047841
0.00257518
0.00127638
0.000643578
0.00208033
0.00693298
0.00261632
0.00443587
0.00690301
0.00409357
0.000657393
0.00669161
0.0021663
0.00320229
0.00718442
0.00280709
0.00283397
0.00718788
0.00485591
0.00273004
0.00231226
0.0007645
0.00542632
0.00124755
0.00281863
0.00232206
0.00322182
0.00206853
0.00153318
0.0037015
0.00687199
0.00684408
0.00685469
0.000620688
0.00508984
0.00103169
0.00361815
0.0054377
0.00645788
0.00398865
0.00747301
0.00256206
0.007453
0.00239359
0.00241273
0.00358245