/*--------------------------------*- C++ -*----------------------------------*\
| =========                 |                                                 |
| \\      /  F ield         | OpenFOAM: The Open Source CFD Toolbox           |
|  \\    /   O peration     | Version:  2506                                  |
|   \\  /    A nd           | Website:  www.openfoam.com                      |
|    \\/     M anipulation  |                                                 |
\*---------------------------------------------------------------------------*/
FoamFile
{
    version     2.0;
    format      ascii;
    arch        "LSB;label=32;scalar=64";
    class       surfaceScalarField;
    location    "0.0153672";
    object      phi;
}
// * * * * * * * * * * * * * * * * * * * * * * * * * * * * * * * * * * * * * //

dimensions      [0 3 -1 0 0 0 0];

oriented        oriented;

internalField   nonuniform List<scalar> 
92401
(
0.147723
-0.0945492
-0.00815675
-0.0450168
-0.0649374
0.0603981
0.0391804
-0.034641
0.0217853
-0.0385751
0.0426219
-0.0258321
0.00624029
-0.0122329
0.0122149
-0.00622232
0.00125502
-0.000476364
-0.00549366
0.00471501
0.0195014
0.00988357
-0.0257829
-0.00360204
0.00539964
-0.00445158
0.000306966
0.0322913
-0.0257152
0.0129253
0.0494247
-0.0393448
0.0316792
-0.041759
0.000818626
-0.00114288
-0.000417847
0.000742102
0.00464385
-0.0416321
0.0393227
0.0265254
0.023892
-0.0897401
-0.0161821
0.0102154
-0.000134609
0.00610135
-0.0344834
-0.0397389
-0.0159712
-0.0164105
0.0545207
-0.0221391
0.00165686
-0.063986
0.0623291
-0.00281451
-0.00770068
0.00195166
0.00332834
0.00242067
-0.00090837
0.00137436
0.000383042
-0.000849033
-0.00460091
0.0100694
0.00024123
-0.00570974
0.0158558
-0.0054706
-0.00461492
-0.00577028
-0.0405755
0.00873987
0.0366769
-0.00484131
-0.0396634
0.0110365
-0.0559569
-0.054178
-0.00312917
0.0555022
0.0018049
0.0913989
-0.0898131
0.0232636
-0.0248494
0.0505474
0.0608144
-0.0718429
-0.0395188
-0.0324222
0.0506901
-0.0579313
-0.00252565
-0.00108724
0.00389197
-0.000279074
0.0310499
-0.0632968
-0.000175375
0.0615164
-0.061079
-0.0323398
0.0319024
0.0125551
-0.0170751
0.000686823
0.00383315
-0.0364686
0.10644
0.0603637
-0.130335
-0.0838853
0.109492
0.00698872
-0.0325958
-0.129486
0.0327217
0.0299142
0.0668502
0.0155532
-0.0621582
0.0376705
0.00893443
0.0614505
0.0106812
-0.0565784
-0.0443257
0.0104491
0.00229446
0.0315822
-0.0498822
-0.0415102
0.0643192
0.0270732
-0.0337137
0.0397484
-0.0135547
0.00752
-0.0210002
-0.101421
0.0658029
0.0566186
-0.0859744
0.085161
0.000813361
0.0321355
0.0023517
-0.0770104
0.0425232
-0.000937065
0.0289241
-0.0318123
0.00382519
0.0279383
-0.0505944
0.0226561
0.000220386
5.36587e-05
-0.000109431
-0.000164613
0.00013393
-0.0594919
0.059358
-0.0689872
0.0430981
0.0626111
-0.0367221
0.0900707
-0.0256559
-0.0133909
-0.0510239
-0.000869475
0.0706968
0.00189481
-0.0717222
-0.0463943
0.0735368
0.0372127
-0.0643551
0.000483467
0.000983397
-0.000324432
-0.00114243
-0.00212612
-0.00408058
0.00087616
0.00533055
-0.0384505
0.0850081
-0.0463794
-0.000178147
0.000419725
-0.000943034
-0.000667809
0.00119112
-0.0540264
0.0538916
0.000134766
0.0751566
-0.00662946
-0.020174
-0.0483531
-0.0980627
0.0886917
0.00640943
0.00296157
-0.0534204
0.0264299
0.0120849
0.0149056
1.53965e-05
-0.016086
0.00600531
0.0100653
-0.0132755
0.0247571
0.0383417
-0.0498233
0.00110717
-0.000437404
-0.000250036
5.93023e-06
1.04823e-05
0.00086653
-0.000882943
0.00126044
0.00025828
-0.00085079
-0.000667929
0.00405624
-0.00900312
0.00525277
-0.000305894
0.0685827
0.0050165
-0.0179736
-0.0556256
-0.0147854
-0.00453415
0.0100149
0.00930468
-0.0402194
-0.0514121
-0.0556639
0.147295
0.00369066
-0.0327311
-0.00402789
0.0330683
-0.000405316
0.000558884
0.000688951
-0.000842519
0.00572865
0.00369134
-0.0286943
0.0192743
0.0183336
-0.00694718
-0.00930509
-0.00208135
0.0405948
-0.0759415
-0.0275247
0.0628714
-0.0279141
-0.00346459
0.0101633
0.0212154
0.0117456
0.00772609
0.0129377
-0.0324093
-0.00117293
-0.000463535
-5.621e-06
0.00164209
0.0239756
-0.00863318
0.0367202
-0.00136865
0.000960153
-0.00156335
0.00197186
0.0463019
-0.033897
-0.0687632
0.0563583
0.000618207
-0.000272447
-0.00034576
-0.00104222
-2.78253e-05
0.000543771
0.000526269
0.00107686
-0.000811168
0.00138704
-0.00165274
0.022418
-0.0214771
-0.0632661
0.0623253
0.00127728
-0.0129197
0.00260377
0.00903861
0.0445772
0.0560448
0.0184099
-0.119032
-0.116619
0.0246205
0.129143
-0.0371446
-0.0053956
-0.0433819
0.00453347
0.0442441
0.0520927
-0.0295008
0.0257028
-0.0482948
0.0263055
-0.00396183
-0.153064
0.13072
0.00612636
0.0150429
-0.0254307
0.00426146
0.000686107
-0.00023095
-0.000698001
0.000242844
0.0370297
0.0131146
-0.00188477
-0.0482595
-0.0021786
0.0817734
-0.0837012
0.00410641
-0.01959
0.0486711
-0.114196
0.0851153
0.0412894
0.00469446
-0.0513795
0.0416502
-0.000360758
-0.0022941
-0.0294895
0.0419723
-0.0101887
0.0708759
0.016876
-0.0313193
-0.0564326
0.128524
-0.140885
-0.0299638
0.042325
-0.0142949
-0.0459833
0.0579841
-0.0827164
0.00207355
0.0806429
0.00143242
-0.100122
0.165431
-0.0667418
-0.00234799
0.00334553
-0.000486171
-0.000511372
0.0886146
-0.15011
0.0309254
0.0305703
0.00160937
-0.000238903
0.000717613
-0.00208808
-0.0851174
0.143338
-0.106343
0.0481222
0.0279853
0.0039125
-0.0397616
0.00786385
0.086898
-0.017619
-0.078374
0.00909501
0.00586604
0.0310803
-0.0512413
0.0331703
0.0293932
-0.13762
0.0750563
0.0850949
0.113564
-0.0770701
-0.121588
0.00088638
-0.000918819
-0.000745896
0.000778335
-0.0950501
-0.0276693
0.110796
0.0119231
0.00263733
-0.00558034
0.0142258
-0.0112828
-0.0138559
-0.03379
0.0575985
-0.00995264
-0.00500848
0.0163107
-0.0137737
0.00247143
0.000276779
-0.000601366
-0.000495988
0.000820575
0.0209436
-0.0247747
-0.00117745
-0.001719
-0.000773631
0.00142583
0.00106681
-0.0576312
0.0603236
-0.00269235
-0.00235618
-0.00595956
-0.0020344
0.0103501
-0.0354025
0.0282331
-0.00668645
0.0200014
-0.0485319
-0.0553548
-0.051862
0.0430725
0.0975901
-0.0888006
-0.00743414
-0.00157233
0.0047074
0.00429907
0.0471002
0.012818
0.000897972
-0.0608161
0.00026356
-0.00870924
0.00682986
0.00161582
-0.0365207
-0.0560114
0.0119845
0.0805477
0.0646331
-0.0386141
0.0255322
-0.0515512
-0.00818458
0.0589662
-0.0575265
0.00674485
-0.0600495
-0.0336525
0.00912015
0.0845819
0.0174601
0.00511049
-0.0343067
0.0117361
0.0599157
-0.0574688
-0.00244687
0.00205742
0.00185111
-0.00110262
-0.00280591
0.0413944
-0.043312
0.00191758
-0.049316
-0.043502
0.109739
-0.0169213
0.000913957
-0.00956918
0.00927585
-0.00062063
0.00319658
0.00587534
0.00229585
-0.0113678
0.00140241
0.00619074
-0.00732959
-0.0281908
-0.0558456
-0.00907459
0.093111
0.0244791
-0.00682965
0.016553
-0.0342024
-0.0860503
0.0942987
-0.104569
0.0963203
0.071339
-0.0481257
-0.0232134
0.00160352
-0.034372
-0.0100195
0.042788
0.00765765
-0.0057506
-0.00844009
0.00653304
0.045348
-0.0683875
-0.0616817
0.0847213
0.0750942
-0.0650831
0.0285989
-0.0386101
-0.0130035
-0.00787256
0.0308002
-0.00992416
-0.060203
-0.0875681
0.0575773
0.0901938
-0.0410637
0.0538994
-0.0112322
0.0987251
-0.049201
-0.0495241
-0.00363406
0.0144755
-0.00318381
0.000927459
0.000610226
-0.000688052
-0.000849633
0.0486858
-0.0173461
-0.00516673
-0.026173
0.00355178
-0.00175279
-0.000552155
-0.00124684
0.00556155
-0.00973164
0.00854514
-0.00437506
0.0727365
-0.0426178
0.025782
-0.0559007
0.00838423
-0.000114205
-0.00699447
-0.00127556
0.00159264
-0.000544451
-0.00104819
-0.0627404
0.0632943
-0.00055394
0.010802
0.00430951
-0.0950238
0.0799122
-0.0107844
0.0136225
-0.0099422
0.00710404
-0.0727984
0.0162349
0.0837179
-0.0271543
0.0191524
-0.0975966
0.0744574
0.00398676
-0.0507873
0.0417009
-0.00813437
0.0172208
0.00872542
-0.00173512
-0.00295945
-0.00403086
6.50198e-05
-0.00105141
0.000986395
0.0218492
0.174989
-0.240547
0.0437089
0.000166971
-0.000263039
-0.02377
0.0609225
-0.054221
0.0170686
-0.000118412
0.00517745
-0.00416519
-0.000893845
0.000848773
0.00176323
-0.00342317
-0.0723464
0.0016016
0.0707449
-0.0335436
0.114364
-0.048023
-0.0327971
6.37582e-05
0.00114211
0.00937258
-0.0105785
-0.00181937
0.0924973
-0.0906779
0.00232186
-0.00162705
-0.00107556
0.000380752
0.0012943
0.000584528
-0.000611762
-0.00126707
-0.0366246
-0.0018636
0.0324093
0.0185604
-0.0642452
-0.072563
-0.0162034
0.00570475
0.0830616
-0.00057269
0.00186699
-0.098384
-0.041718
0.112691
0.0274113
0.0268347
0.165545
-0.0833286
-0.0570329
-0.025184
-0.018249
0.119266
-0.0441129
-0.0569039
0.0424113
0.0287047
0.0375989
-0.108715
0.10718
-0.247162
0.105673
0.0343098
0.00151077
-0.0013126
-0.00146615
0.00126798
-0.0124958
-0.0361286
0.0569288
-0.00830446
0.0250163
0.0404718
-0.0251698
-0.0403182
-0.0356099
-0.0266363
-0.0192173
0.0814635
-0.0551234
-0.0127766
0.0554042
0.000832062
-0.0114367
0.00731053
0.00329409
0.0558276
-0.0288209
-0.0513854
0.0243787
-0.0885922
0.104091
-0.0503807
0.0348824
0.0155741
-0.0223891
0.00690481
-8.97826e-05
0.0526631
-0.0615591
0.0647236
-0.0574317
-0.00273954
-0.0144655
0.0746367
-0.00530366
-0.0120788
0.00203461
0.0153478
-0.00113017
0.0573201
-0.0571154
0.000925455
0.135244
-0.0543969
-0.00178133
-0.0790652
0.0581026
-0.00722894
-0.0477773
-0.00309639
0.0536447
-0.0210148
-0.0765295
0.0438996
-0.00940087
-0.00191061
0.0143011
-0.00298959
0.00519493
-0.00170398
-0.00480064
0.00130969
0.00203436
-0.042323
0.0389565
0.00133214
-0.000994529
-0.0858789
0.00429191
0.0187728
-0.0125996
-0.0626573
0.0471303
0.015527
-0.0604126
-0.0159511
0.00968343
0.0666803
-0.0980501
-0.00485145
0.104716
-0.00181474
0.0037198
0.0226424
-0.0123937
-0.0139685
-0.0697887
0.149511
-0.0671022
-0.0126204
-0.00526432
0.0142382
0.0224001
-0.031374
-0.0503878
0.0955867
0.0371942
-0.0823931
0.0269436
0.00222827
-0.0144442
-0.0147277
-0.0352711
0.0365339
0.000771569
-0.00401501
0.00698467
-0.00995773
0.00698807
-0.00065579
-0.00395223
0.0101696
0.0372077
0.0374204
-0.0746281
0.00105821
-0.00181136
7.67801e-05
0.000676367
0.0187399
0.00795519
-0.0180208
-0.00867432
0.0229062
0.00845075
-0.00289578
-0.0284612
-0.0508894
-0.00104836
0.00717477
0.044763
0.000400547
-0.0427236
-0.000909055
0.000568962
0.00139831
-0.052158
0.0373511
0.0513666
-0.0365597
-0.0427407
0.0287686
0.0181864
-0.00421419
0.00129712
-0.00304373
-0.00941819
0.0111648
-0.00795307
-0.00476881
-0.00368224
0.0164041
-0.0420629
-0.0044637
0.0112555
0.0736157
0.0405433
-0.0736648
-0.0404941
-0.0439322
0.000127072
0.0438052
0.0873953
-0.0483017
0.0580067
0.00375348
-0.00777794
-0.03848
0.0425044
0.0364503
0.0110601
-0.00573965
-0.0417707
-0.00047093
0.000304803
0.000972331
-0.000806204
-0.0167726
-0.0447893
0.0615619
-0.000255946
-0.0012572
-0.00428578
0.0321529
-0.0241137
0.00583298
0.0279113
-0.0415223
0.0942078
-0.0886182
-0.000370349
-0.00521922
-0.0219077
0.10032
-0.0186009
-0.0598113
-0.0307897
0.00655452
0.0155736
0.00866152
-0.039024
0.0351907
0.014427
-0.0105937
0.0310677
-0.0250808
0.0011167
-0.0071036
0.0193442
0.0712271
-0.121241
0.0306698
0.0735026
-0.0729874
-0.0240377
0.0235224
-0.142522
0.00314361
0.0032351
0.136144
0.0305614
0.012263
-0.0410209
-0.00180355
0.0398493
-0.058163
0.0187978
-0.000484078
0.00200635
-0.00117707
0.00022748
-0.00105676
-0.0132124
-0.00180181
0.074137
-0.0413421
0.0190228
-0.0518177
-0.0117191
0.0466363
0.000451319
-0.0353685
0.00471944
0.0975291
-0.0926403
-0.00960824
0.0510499
-0.0981808
0.0566659
-0.00953501
-0.0500358
-0.000718458
0.0390352
0.0153178
-0.00499943
0.00890382
-0.0192222
-0.0240556
0.0485272
-0.0131881
-0.0112834
-0.0498496
-0.000186263
-0.00731838
-0.123234
0.176595
-0.0460434
0.00986156
0.00948547
-0.0620258
0.0426787
0.0503107
0.00580995
-0.046259
-0.0119693
0.00633342
-0.00354948
0.00918537
-0.0552403
0.000730527
0.0545098
0.109327
0.0419751
-0.134441
-0.0168614
-0.00872726
0.000340059
-0.00358211
0.01907
-0.112359
-0.0240119
0.117301
0.0122992
0.0659337
-0.0687475
0.00273911
-0.0537426
-0.0110223
0.000482804
0.00178718
-0.00252593
0.00193493
-0.00174369
0.000291568
-0.0514256
0.0282714
0.0730212
-0.049867
-0.00184276
0.000925657
0.000889281
-0.0355854
-0.00780369
0.0461282
0.000246216
-0.000301803
0.0003258
-0.000893915
5.37908e-05
0.000514324
0.000145809
0.00203533
-0.00163813
0.00132431
1.82759e-05
0.000295536
0.000349686
-0.000122878
0.000880357
0.10353
0.119429
-0.0752368
0.000246692
-0.00102402
0.00112702
-0.0528885
0.0536463
-0.000757851
-0.00967803
0.0754096
-0.0703386
0.00460711
0.00176828
-0.0186796
0.00496507
0.0119463
-0.0592471
-0.0033194
-0.0168954
0.00425088
0.0465574
-0.0339129
-0.0641986
0.000512867
0.0636857
-0.00626129
-0.0154963
-0.0123243
0.0340819
0.00023429
-0.000305024
-0.000434821
0.000505554
-0.00401682
-0.00764813
0.00901842
0.00264654
0.0550127
0.0437335
-0.0173631
0.0467644
0.0880428
-0.0370004
-0.0978068
-0.0115831
-0.0438874
-0.0217511
0.0215173
-0.0568557
0.0570895
-0.00958653
0.0280767
-0.00789127
-0.0105989
-0.0158863
-0.0130492
0.0145126
0.0144229
0.0976363
-0.0939764
0.0170153
-0.0206752
0.00102887
-0.00420281
-0.000221971
0.00339592
0.000583362
-0.065337
0.0647536
-0.0722578
0.00285985
0.065166
0.00423198
0.0401226
0.0372786
-0.0774012
0.0191468
-0.0601433
0.0294133
0.0023571
-0.00148718
0.00102437
-0.00189429
-0.000157968
-0.000570555
0.00218676
-0.00145824
-6.23937e-05
0.000420148
-0.000903447
0.000545693
0.0644295
0.0552757
-0.0395366
-0.0801686
0.00629735
-0.0860752
0.0816947
-0.0019169
-0.0135407
4.80292e-05
0.0265807
-0.013088
0.0511802
-0.0510859
0.0198513
-0.0199456
-0.000442212
0.00121864
-0.000592291
-0.00018414
0.0202266
0.0486831
-0.0497629
-0.0478317
-0.0016585
0.000834344
0.00148992
-0.000665759
-7.63749e-05
0.079959
-0.0798826
-0.0501805
-0.0155705
-0.0233238
0.0890749
-0.0505979
0.000417335
0.0120449
0.0175141
0.0151864
-0.0447454
0.000360347
-0.00273957
9.35627e-05
0.00228567
-0.00158446
-0.000665523
0.000591484
-0.109804
-0.00659283
-0.0452439
0.16164
-0.00935437
0.00571508
0.140373
-0.136733
-0.0385115
0.0427219
-0.0633055
0.0590951
-0.0769399
0.0752859
0.00165404
0.00211734
-0.0511484
-0.030076
0.0655422
0.0192525
-0.00569059
-0.0791041
0.0516054
0.090657
-0.154864
0.0126016
0.0432733
0.0139997
0.0326353
-0.0899083
0.10453
-0.107895
0.0434881
-0.00331755
0.012513
-0.011437
0.00224164
-0.00247657
0.000524055
-0.000942767
0.00289529
-0.00260233
-0.00552037
0.00145961
0.0066631
0.0603153
-0.00584054
-0.0175662
-0.0369086
-0.0565145
0.0286244
0.0278901
-0.0913263
-0.00708006
0.0123523
0.00012299
-0.000156885
-0.00244268
-0.117968
0.0235186
0.00748103
0.0869682
0.000772353
-0.0532648
-0.00998534
0.0624778
0.0468315
0.0276333
-0.101957
0.0274925
0.0387554
-0.0419914
-0.019853
0.023089
0.0469591
-0.0583617
0.050158
0.0295323
-0.0559619
0.0500982
-0.0236686
0.0338758
-0.0361209
0.00120818
0.00103683
0.0154966
-0.145012
0.0919468
0.0375683
0.000930762
-0.0586623
-0.0038008
0.0527542
0.000105192
-0.10628
-0.0338505
-0.00951097
0.00646678
0.0368947
-0.0480234
0.0452684
0.0489335
-0.0461785
-0.0416724
0.0814194
-0.039747
0.00996461
-0.10088
0.0489241
-0.0170191
0.00778932
0.0238703
-0.0146405
-0.0885044
0.0939766
0.0375244
-0.0429966
0.0569527
0.0335317
-0.0797999
-0.0106845
-0.0480574
0.140213
0.00592808
-0.0980833
-0.000328717
0.00315795
0.00328165
-0.00611088
0.0549883
-0.0727841
0.0838858
-0.06609
0.00869641
-0.0406577
-0.00856898
0.0405303
-0.0432287
0.0285956
0.104039
-0.0894061
-0.0507269
-0.0276805
0.0561765
0.0222309
-0.0106894
-0.000818482
0.00681355
0.00469429
-0.00901084
0.020231
-0.0170717
0.00585157
4.52214e-05
0.0737913
-0.0738365
0.0147702
-0.0443111
-0.0184826
0.0486948
-0.0331014
-0.00270623
-0.0128873
0.00126958
-0.0237623
-0.0206205
0.0431132
0.036288
-0.035455
-0.00083302
0.0632107
-0.0413526
0.0622579
-0.084116
-0.0998397
0.0971374
0.100339
0.000357691
-0.0109078
-0.00191314
0.0124632
0.0510582
-0.000337405
0.000334209
0.000374164
-0.000370967
-0.000272749
0.0467433
-0.107832
0.0613617
-0.0086549
-0.000146152
0.00481049
0.00399056
0.0269935
0.00994602
-0.0369395
0.00103251
-0.00119557
-0.00849184
-0.0314648
-0.036102
0.0182508
0.0576421
0.000670962
-0.058313
0.0722093
-0.043368
-0.0510308
0.0221896
0.00191322
-0.0250913
-0.0211477
0.0685288
0.0432472
-0.0395667
-0.00796616
0.00935637
0.136611
-0.12166
0.0363307
-0.0512815
-0.0462153
0.0376935
0.0224243
-0.0139026
-0.0521542
0.0519488
0.000205458
-0.0485099
0.0302329
0.0110489
-0.0474748
-0.0106071
0.0470331
-0.00235396
0.160437
-0.160416
0.00233257
0.109238
0.0160816
-0.0158275
0.0508458
0.00891824
-0.0519581
-0.0078059
-0.0140565
0.00435607
0.0103411
-0.000640733
-0.00947632
-0.00511437
0.00473813
0.00985256
0.0675957
-0.0380956
-0.0539685
0.0244684
0.0297884
-0.0161273
0.0227192
-0.0363804
0.0271333
-0.0956455
0.0915235
-0.0230113
-0.00553368
0.000471478
-0.00899429
-0.0959177
0.10897
-0.0232785
0.0102266
-0.0110138
0.0477744
0.0145317
-0.0512923
-0.00434928
0.000167012
0.00300426
0.00117801
0.0836628
-0.00706826
0.051707
-0.128302
6.28099e-05
-0.000705446
-4.15572e-06
0.000646792
-0.0673759
0.0586133
0.0746591
-0.0658965
0.00334458
0.00134343
-0.00188166
-0.00280634
-0.077543
0.075634
0.00190899
0.0625177
-0.0594973
-0.00302038
0.0593781
0.000640818
-0.0600189
-0.0144752
0.12457
-0.000381363
-0.109713
0.0101539
-0.031374
0.033265
-0.0238026
-0.000586513
-0.0562671
-0.0676634
0.0119743
0.0673577
-0.0116686
-0.0129382
-0.0020718
0.000405681
-0.000679817
0.00020429
6.98458e-05
0.00110168
-0.000304651
-0.000220757
-0.000576275
-0.0639413
0.0076016
-0.00176516
0.0581049
0.000517739
-0.00528222
0.00171304
0.00305144
0.0118049
-0.014355
0.000179469
0.00237056
0.00794293
-0.00672713
0.0105891
0.0560956
-0.0106123
-0.0230926
-0.0223908
0.0367051
-0.00524665
-0.0359174
0.00445901
0.000782571
0.0673694
-0.000524232
-0.0676277
0.00772595
-0.071576
0.0193216
0.0445284
-0.0430479
-0.0324453
0.0425503
0.032943
-0.0325353
0.0175454
-0.0897702
0.10476
-0.000766608
0.0148378
-0.00764781
-0.0064234
0.0495528
-0.0589168
0.0473091
-0.0379451
-0.0622365
-0.00800587
-0.00642296
0.000672083
-0.000172686
0.00402453
-0.00452393
-0.0114871
-0.00283261
0.00166119
0.0126586
-0.00773411
-0.00890763
0.0106489
0.00599285
-8.71306e-05
-0.00213516
0.0012707
0.000951584
-0.000419948
0.000464247
-4.42989e-05
0.000418253
-0.0699025
-0.0252092
0.0946934
-0.000124045
-0.000220892
-0.00127395
0.00161889
4.61276e-05
-0.000424064
-4.20108e-05
0.000388994
-0.0645876
-0.000173133
-2.04124e-05
0.000657791
0.000644054
0.000127888
-0.000430286
-0.000341656
-0.0291456
0.0624755
0.0793434
-0.112673
-0.0087978
-0.00226964
0.00707904
0.0039884
-0.0142192
-0.000142143
0.00556357
-0.00486791
0.00541493
0.0124355
-0.0129825
-0.000564471
0.000510565
-0.000119226
-0.0666721
0.0662147
0.00045745
0.0314891
0.0473021
-0.0602617
-0.0185295
0.0122642
-0.0750056
-0.0223699
0.0851112
-0.0130547
0.00290225
0.00528455
-0.00463897
-0.00615478
-0.00226095
-0.0168959
0.0592984
0.0126318
-0.0550343
0.0685886
0.00442165
-0.0530035
-0.0200067
0.00017661
0.000427214
-0.000766411
0.000162586
-0.00042763
-9.07139e-05
-0.00267282
-0.00111926
-0.0011373
0.00492937
0.0663639
-0.0462954
0.0114839
-0.0315523
-0.000739799
-0.00270386
0.00149145
0.0019522
-0.0161439
0.0110427
-0.00387488
0.00897604
0.00144211
-0.102992
0.102909
-0.00135901
0.0029568
0.000593035
-0.0101809
0.00663104
0.00963545
-0.0101203
0.00148166
-0.000996824
0.00972115
0.00370729
-0.0104716
0.0379369
0.0567566
-0.0283296
-0.0273807
0.0549188
0.0286032
-0.0561414
0.0278371
-0.0552178
-0.000206438
-0.000593627
-0.0329136
0.0124473
-0.00998137
0.079177
0.0251236
0.00720195
0.0698085
-0.0536681
0.096879
-0.113019
0.00421428
0.0928042
-0.0970185
-0.00670544
-0.00662626
0.0129463
0.000385382
-0.0339759
-0.0873517
0.0273626
0.093965
0.0223867
0.0626959
-0.0257442
-0.0593384
-0.0233432
0.115144
-0.0538636
-0.0423566
0.045199
0.0520764
-0.0555953
0.0552948
0.000300574
-0.0379868
0.0365807
0.00140608
0.0409605
-0.0805938
0.0742055
-0.0345721
0.0652589
-0.0821548
-0.00926321
-0.00799933
0.0105571
0.000860336
0.000653806
-0.000577816
-0.000936325
-0.00607855
-0.0427421
-0.00677469
0.00125722
0.00138601
-0.00242553
-0.000217693
-0.0553414
0.0512235
0.0863417
-0.0822238
0.0342053
-0.0322374
-0.00196783
0.0106838
0.0280267
-0.0142549
-0.0244556
0.00412166
-0.000538976
0.00225959
-0.00584227
-0.0646562
-0.00124797
0.0206961
0.0452081
-0.00287049
0.00670802
0.000284134
0.0417633
-0.111973
0.10512
-0.0349103
0.0444784
0.0137909
-0.0583959
0.00012669
-0.00357728
0.0068672
0.00155538
-0.00484531
-0.00136552
0.0605423
-0.0591768
0.0362052
0.00613903
0.014176
-0.0565203
0.00410385
-0.00723572
0.00259289
-0.181311
0.0268194
0.164207
-0.00971595
0.0390843
-0.0109796
-0.0281047
-0.0010017
-0.00166024
-0.00124381
0.00390574
-0.0408294
0.0441543
0.124973
-0.128297
-0.00174299
0.000683923
-0.00212507
0.00318414
0.0899018
-0.00196314
-0.0434603
0.00042326
-0.00115064
0.00205635
-0.00132898
-0.0179881
-0.116021
0.0144758
0.119533
0.00314333
0.0521631
-0.00374684
-0.0515595
0.0490934
-0.0696078
0.0593481
-0.0388337
0.032061
-0.0368848
0.0495271
-0.0447033
0.00886324
-0.00248178
0.00605534
-0.0124368
0.00160126
-0.0440162
0.0538848
-0.0541782
-0.0365914
0.0967776
0.018256
-0.0251596
-0.0898741
0.047357
0.017387
-0.135343
0.0705991
-0.00141535
-0.00846141
0.00619494
0.00368182
0.0277486
-0.0502949
-0.00323657
0.0286458
-0.0266125
0.00757544
-0.00579452
0.000198621
-0.00197954
-0.0881753
0.00342093
-0.00251716
0.0744255
-0.150797
0.0788884
-0.0265914
-0.0869882
0.0415546
0.072025
-0.0714347
0.0205713
0.00291835
0.0479451
-0.0436798
0.0291204
0.0109574
-0.083156
0.0955286
-0.0123726
-0.0213223
-0.00965846
0.117411
-0.0864303
-0.00343649
-0.00393701
0.00598672
0.00138678
-0.0260604
0.059952
0.0412026
-0.0720678
0.0286997
-0.000621223
-0.000391278
-0.00100562
0.00201812
0.0475154
-0.04887
0.0541088
-0.0377885
-0.00718425
-0.0449042
-0.122932
0.0455373
0.0773949
-0.0433557
-0.0329869
0.0278326
0.00303288
-0.00208623
0.000570886
-0.00151753
0.00243899
-0.000269046
0.000862928
-0.0863212
0.00361494
0.0827062
0.0591962
0.0133013
-0.121059
0.0485617
-0.0719811
0.000357677
0.0716234
0.00100035
-0.00155906
0.00812432
-0.00756561
0.048197
0.15448
-0.221233
0.0185558
0.00163338
-0.00230334
0.00157294
-0.000902982
-0.0920442
0.0669033
0.0239024
0.00123852
-0.00229709
-0.00156743
0.00341192
0.000452601
-0.00090009
0.0083944
-0.00797175
0.000477445
0.00825616
0.00820863
-0.0160285
-0.000436319
0.0408243
0.0103627
0.00291046
-0.00263833
0.00136125
-0.0972611
0.105727
0.00624849
-0.0147145
0.0120752
-0.0667685
-0.0222363
0.0769296
-0.000165125
-0.00164999
0.0882472
-0.0864321
-0.0434716
-0.0372785
0.089835
-0.00908482
-0.0402639
0.0249264
0.0403269
-0.0249894
0.0525885
0.0213857
-0.0722033
-0.0017709
-0.00244052
0.000523381
0.00223691
-0.000319771
-0.122949
-0.0425981
0.0391347
0.126412
0.0494001
-0.0383512
-0.0324433
-0.0369709
-0.0320045
0.101419
-0.00190914
0.00421537
0.000199987
-0.00250621
-0.031072
-0.0800773
0.0275808
0.0835686
-0.0298501
-0.027889
0.0199506
-0.000933283
-0.00306209
-0.0016126
0.00340828
-0.00358156
0.00178587
-0.0056595
0.00570003
0.0241767
-0.0761536
-0.0837925
0.135769
-0.000295101
-0.000341751
0.000402842
0.00023401
0.05521
-0.058898
0.0482844
-0.0445964
-0.0142207
0.0420812
-0.00676223
-0.0210984
0.0864947
-0.0863983
-0.0196141
0.0195176
0.0264168
0.0227555
-0.0630309
0.0138586
-0.127682
0.0739528
0.0196219
0.034107
-0.00504152
0.00267588
8.51296e-05
0.00228051
-0.0076118
0.00915653
-0.000544387
-0.0136679
-0.00363223
0.01874
-0.00143978
-0.0642441
-0.00364065
0.0153248
0.05256
-0.0093689
0.104064
-0.00695392
-0.087741
0.0059676
-0.0471758
0.0816352
-0.040427
-0.00172188
0.00407456
-0.00169037
-0.000662317
-0.0149586
0.000614425
-0.00260103
0.0169452
-0.107183
0.000848488
0.0132573
0.0930774
0.000131527
-0.000203517
0.00047072
-0.000398731
0.0376659
0.00837797
0.0275718
-0.00625047
0.0468133
0.0537776
-0.0943405
1.83591e-05
0.000616511
-0.000503343
-0.000571171
0.00213349
-0.00141159
-0.000150727
0.0177394
0.111694
-0.048747
-0.080686
-0.00012791
-7.56067e-05
0.000211649
-0.000339559
0.0615749
0.0166958
-0.0919027
0.013632
-0.154596
0.0844933
0.0768465
-0.00674407
-0.0183995
0.00100323
-0.0515484
0.0689447
0.0249598
-0.014878
0.0176212
-0.0277029
-0.0657022
-0.0246406
0.0903428
-0.0765464
0.0382794
0.0382671
-0.00216085
-0.000263265
-3.71327e-05
0.00246124
-0.0391695
0.0419163
0.00807017
-0.0108169
0.0481001
-0.0558113
0.00771116
-0.0602916
0.0341265
0.0454156
-0.0192505
0.00423946
-0.00210067
-0.0019979
-0.000140888
-0.00310324
-0.0025867
0.00064842
-0.0425007
-0.0435497
0.045821
0.0143693
0.0022636
-0.0624539
0.00171087
-0.000340905
-0.000963131
-0.000406833
-0.00485314
0.0106473
-0.0124775
0.00668333
0.0064712
0.0217603
-0.0397504
0.0115189
-0.0197121
-0.0169256
-0.0074794
0.0441171
-0.073917
-0.00958398
0.0283682
0.0551329
-0.00148254
0.0149128
-0.00854358
-0.00488665
-0.053267
0.000415233
0.0331397
0.000379306
0.0268146
-0.134516
0.126414
-0.0187123
0.0273195
-0.033701
-0.0512497
-0.0278377
0.0556748
-7.39238e-05
0.0389815
0.0027633
-0.0416709
-0.0585758
-0.0601938
0.11877
-0.00300513
-0.000894077
-0.00178099
0.00568019
0.00317888
-0.00461556
0.00164695
-0.00021027
0.0361932
-0.00556346
-0.0284606
-0.00216922
-0.00319634
-0.00209587
0.00228708
0.00408611
-0.0111022
0.0687003
-0.0616841
0.0756924
9.6422e-05
0.0280332
0.00923942
-0.00645508
-0.0308176
0.0577008
0.000763672
-0.0584644
-0.055796
0.114563
-0.0292376
0.0604208
0.0208651
-0.0520483
-0.0147921
-0.0234885
0.0153808
0.0228998
0.00339292
0.00357289
0.000765901
-0.00773172
-0.0342752
-0.0387182
0.099187
-0.0261937
0.0428007
-0.0347953
-0.000270105
-0.0077353
-0.0532536
0.115204
-0.0487133
-0.0132375
-0.00165617
0.00191554
-0.000205661
-5.37034e-05
-0.000968687
0.02138
-0.00366437
-0.0167469
0.00267436
0.00365918
0.000225002
-0.00655855
-0.000269851
-5.39082e-05
-1.74497e-05
0.000341209
2.27114e-05
5.90017e-05
-0.000351564
-0.00893718
0.0232024
0.0695894
-0.0838545
0.0807493
-0.0816238
0.000874478
0.000310136
-0.000351808
4.16722e-05
-0.0129863
0.0010084
0.00220737
-0.00143807
-0.0017777
-0.00965968
-0.00733731
0.0049974
0.0119996
-0.0557668
0.0265292
0.000255966
0.000327586
-0.00081161
0.000228059
0.0335566
0.055241
-0.0355589
-0.0532387
0.0150139
0.154407
-0.179751
0.0103297
0.058445
0.0651225
-0.0631468
0.00198585
-0.0129948
-0.00155568
0.0125646
-0.0321571
-0.0294669
0.0616241
0.0322335
-0.0643906
-0.0536669
-0.0444832
-0.0664447
0.164595
0.0507077
-0.0564098
0.00570211
-0.0729513
0.133559
-0.0712202
0.0329576
-0.0300746
0.0867501
-0.00323513
-0.0693712
-0.0141438
0.0697165
-0.0699595
0.0106305
-0.0103874
-0.000311044
-0.00586379
0.00747826
-0.00130343
0.00247362
-0.00568277
0.00572159
-0.00251244
-0.000148001
6.47876e-06
0.000832751
-0.000691228
0.0218787
0.0222626
-0.0333439
-0.0107974
-0.0051567
-0.00538976
0.00607895
0.0044675
-0.0105667
0.0329266
-0.0442468
0.0218868
0.000785218
-0.00830876
0.0110388
-0.00351524
0.0497775
-0.00483081
-0.0449466
0.0398838
0.0354584
-0.126523
0.0511809
-0.0994966
0.0614836
0.0778968
0.0331418
-0.100405
-0.0458686
0.108614
-0.0399697
-0.0227752
0.00194553
0.00888502
-0.0124435
0.00161292
0.0277929
-0.00373729
-0.0240557
-0.0297175
0.0453325
-0.00390166
0.0196115
-0.0315961
0.00135901
1.54448e-05
0.000783613
-0.00215807
0.0117822
-0.0383946
-0.00120898
0.000195478
-0.000201173
0.00121468
0.00266031
-0.000208548
0.000883387
-0.00333515
-0.000213627
-0.00234141
-0.0770545
-0.0146784
0.00167634
-0.0107206
0.0237226
0.0194383
-0.0893672
0.0220086
0.0479203
-0.00285129
0.0573189
-0.0823695
0.0279019
0.000918089
-0.000831153
0.00169907
-0.001786
0.0788094
0.0131458
0.00164686
-0.0936021
-0.00104361
-0.00081033
0.00209948
-0.000245536
0.00233228
0.00154734
-0.0681403
0.0642607
0.00626118
-0.00106304
-0.0045516
-0.000646536
0.0060779
0.00439289
-0.00343783
-0.00703296
-0.111226
0.0975047
-0.0880345
0.101756
-0.0556869
0.109728
-0.0540415
0.00352754
-0.0457442
0.00912183
0.0330948
0.00347712
-0.00386014
0.000995847
-0.000612829
0.0476128
-0.00178118
0.00080465
-0.130114
0.00153721
0.0727807
-0.0334063
-0.000383654
0.00119849
0.0299089
-0.0242301
-0.00687729
0.077527
-0.0293417
0.0334317
0.00382187
-0.00476917
0.000126875
0.000820422
0.0339613
0.023155
-0.0744519
0.0173356
-0.00087818
0.00039713
0.000826962
-0.000345911
-0.000430024
0.00139861
0.00510932
0.000555042
-0.00754962
0.00609507
0.00527642
0.0760997
0.0408282
-0.0373555
-0.0795723
-0.132937
0.142464
-0.00874236
-0.000784372
0.0308431
-0.0310228
0.000179697
-0.0361136
0.000327368
0.000267738
-0.00300081
-0.0020361
0.0144716
0.207413
-0.157392
-0.0644932
0.0294468
-0.0610181
-0.0183245
0.0498958
-0.00288899
0.0385145
-0.000259962
-0.0857496
0.047495
-0.021886
0.00892745
-0.0376365
0.0471983
0.0466251
-0.0561869
-0.0667424
0.0887041
-0.151078
0.129116
-0.000103083
0.000165681
-0.0014728
0.00141021
0.000265299
0.00217538
-0.000763903
-0.00167678
0.0454304
-0.0165164
0.0404533
-0.0693673
-0.00353142
0.000427976
0.00316783
-6.43936e-05
-0.0120596
0.0108987
-0.0364757
0.0117975
-0.045139
0.0057556
-0.00290452
0.0178202
-0.0206713
-0.131487
0.0151752
0.125437
-0.00912546
0.0395579
-0.0260451
-0.0196498
0.00613695
0.035296
-0.0542631
0.0069076
0.00442322
0.00761794
0.0513211
-0.0633623
0.0245914
-0.00752799
-0.0254539
0.00839056
-0.0804723
-0.0077753
0.0154492
0.00120385
-0.000924182
-1.43739e-05
-0.000142707
0.0060871
0.00135473
-0.00729913
0.0177363
-0.0321805
0.0390356
0.0163051
-0.141695
-0.0240166
0.149407
-0.111734
-0.015373
0.0260488
0.101058
0.0576961
-0.0346707
0.0291533
-0.0521787
0.109058
-0.00649692
0.00451607
-0.107077
-0.0178973
-0.037648
-0.00395007
-0.0154617
0.00744112
0.0119706
-0.00129416
0.000474026
0.000117833
0.000702299
0.014528
-0.076829
0.062301
0.104823
-0.0069803
-0.112318
-0.0268751
0.0561615
-0.0471837
0.0400448
-0.122276
0.0130184
0.069213
-0.00461365
-0.0119532
-0.0275651
0.044132
0.00326285
0.0488599
0.0802282
-0.128927
-0.000161354
0.0495477
-0.0832997
0.0899651
-0.0562131
-0.0969512
0.0946532
-0.00630857
0.00860661
0.00174581
0.00285167
-0.0942578
0.0896603
-0.00142995
0.00360358
0.00587471
-0.00804833
0.000106664
-0.000836306
-0.000211191
0.000940833
0.0879284
0.00232614
-0.0193107
-0.0709439
-0.000482145
0.000595834
-0.000432201
0.000318511
0.000798196
0.00316921
-0.00214305