/*--------------------------------*- C++ -*----------------------------------*\
| =========                 |                                                 |
| \\      /  F ield         | OpenFOAM: The Open Source CFD Toolbox           |
|  \\    /   O peration     | Version:  2506                                  |
|   \\  /    A nd           | Website:  www.openfoam.com                      |
|    \\/     M anipulation  |                                                 |
\*---------------------------------------------------------------------------*/
FoamFile
{
    version     2.0;
    format      ascii;
    arch        "LSB;label=32;scalar=64";
    class       volScalarField;
    location    "0.0689058";
    object      omega;
}
// * * * * * * * * * * * * * * * * * * * * * * * * * * * * * * * * * * * * * //

dimensions      [0 0 -1 0 0 0 0];

internalField   nonuniform List<scalar> 
3918
(
347.017
104.707
130.273
115.031
59.3296
726.211
997.161
54.0363
102.484
243.429
99.2647
261.338
312.35
174.429
91.177
197.32
298.526
342.52
376.562
226.632
405.37
125.174
242.511
226.026
113.214
296.239
65.6148
78.6421
325.073
397.606
388.338
89.4495
214.922
255.712
319.79
330.963
132.185
71.9041
266.485
114.844
101.296
160.816
86.9934
169.469
94.3362
146.795
56.908
223.989
279.091
87.7278
163.297
226.439
109.47
323.359
155.691
308.053
116.647
368.921
72.7618
235.35
66.644
190.172
215.568
237.413
229.609
102.777
285.569
257.039
476.482
276.477
80.1919
700.597
591.398
750.839
461.065
448.946
418.077
357.576
363.946
80.4822
304.561
934.977
440.577
304.586
91.422
298.564
433.823
409.252
1267.95
91.1366
286.056
123.685
335.493
64.4671
108.934
104.113
265.431
80.0019
272.189
316.924
92.9282
81.0077
114.527
86.1029
79.072
292.071
222.896
120.386
152.371
252.699
318.1
320.667
465.875
347.952
318.088
304.996
281.81
271.409
611.743
681.533
170.187
502.146
401.009
455.652
321.64
874.283
219.394
135.165
155.503
75.9227
67.1277
411.137
240.12
71.013
575.131
520.668
362.931
446.345
348.911
407.558
219.863
331.49
464.845
325.251
643.688
505.033
623.799
250.959
708.095
293.78
73.4983
312.124
204.942
769.156
188.052
221.605
1058.63
625.893
51.7923
61.7073
104.436
476.128
406.246
335.651
571.236
309.509
309.379
569.266
279.214
288.171
120.914
333.764
352.418
306.604
291.43
302.589
280.497
90.4143
493.461
98.8373
79.0849
309.315
247.657
287.151
292.004
229.023
186.982
163.263
430.825
397.262
113.114
523.788
200.46
373.517
108.904
369.762
108.353
430.633
793.151
62.7012
960.47
377.447
298.162
122.28
284.414
391.02
435.309
440.834
323.621
58.6528
309.45
535.635
72.4325
644.827
72.5276
579.305
431.597
279.007
451.708
240.964
773.341
344.94
278.126
232.823
329.235
326.434
89.6199
417.903
715.968
343.878
664.36
299.463
191.293
114.462
102.819
764.598
429.242
69.5043
253.391
80.5269
425.439
704.982
460.115
107.984
63.5687
61.0652
56.728
99.2715
239.732
56.9369
134.8
315.857
52.4964
72.5753
261.827
91.0416
503.906
84.9667
630.448
214.691
346.588
251.977
209.771
130.285
688.964
61.771
423.905
86.2064
225.315
85.3379
191.521
136.684
60.741
141.865
96.1448
71.2915
283.049
622.606
930.274
63.3269
153.667
513.444
363.298
56.7804
73.0487
221.744
115.793
992.261
70.4813
73.0704
735.686
124.674
532.304
54.5894
238.349
157.303
962.717
494.938
289.459
78.4506
291.861
86.1613
65.4505
219.886
615.309
241.064
268.652
100.558
143.828
238.57
224.063
624.412
292.441
332.644
207.056
571.664
64.9675
80.2609
435.286
828.873
115.978
456.681
259.515
316.227
180.024
689.433
123.571
193.332
274.28
127.623
133.18
139.871
73.6849
394.387
285.933
99.8745
412.257
96.6665
667.686
89.9312
154.793
497.453
591.249
102.497
98.2467
408.78
294.183
213.64
283.02
160.717
462.27
551.69
401.092
75.2516
111.995
123.444
311.382
436.289
222.341
113.747
87.166
250.102
209.972
201.662
339.696
319.854
417.659
273.793
342.461
295.684
91.9711
304.227
313.092
328.248
287.39
444.589
650.418
305.59
169.955
104.047
75.4387
399.733
261.925
93.0194
339.168
296.649
225.526
292.803
405.82
427.78
305.691
265.128
210.891
631.521
74.7111
667.368
649.813
149.188
622.488
451.26
437.064
105.078
141.94
79.2333
254.695
215.94
345.444
472.537
322.17
1194.76
260.976
133.987
224.14
351.834
201.067
201.671
259.279
125.791
93.2287
88.9417
131.884
520.279
79.1636
74.406
289.143
79.0869
254.468
84.6136
279.75
77.1139
59.3068
153.78
350.98
726.533
62.8311
548.624
710.562
76.2335
171.561
82.6238
63.302
156.875
301.088
306.441
498.469
105.067
210.303
240.1
352.767
303.752
345.889
320.45
304.592
179.554
202.117
394.658
899.265
374.488
824.306
244.441
88.4001
605.44
264.7
83.9925
289.339
352.928
120.122
487.309
96.5012
139.949
397.437
57.1274
851.403
327.376
183.703
72.7907
514.38
288.264
1172.95
194.061
237.994
381.992
287.012
87.259
226.609
196.64
407.929
239.208
73.1597
480.877
261.075
236.287
631.012
414.318
48.1289
551.969
261.143
94.8345
1330.09
117.26
119.269
163.842
118.434
218.706
112.905
62.1784
236.934
211.679
136.409
133.595
113.297
81.0741
106.501
49.8747
85.7676
102.211
83.7182
88.7399
78.5654
132.424
72.3238
197.693
102.723
280.68
233.433
250.454
358.042
61.738
89.1339
110.342
88.8707
1092.39
77.1661
292.887
212.631
152.472
330.789
144.027
112.695
102.055
199.006
116.906
62.8062
183.95
360.075
799.374
394.512
395.275
67.9665
230.237
86.7542
1175
397.315
219.363
682.622
442.034
447.93
684.339
98.6517
320.264
326.339
567.651
298.514
230.866
309.949
507.271
191.984
77.4233
472.518
69.408
197.936
968.747
325.014
113.029
451.441
446.071
115.228
76.1918
243.421
100.852
72.9649
333.39
167.663
295.16
500.518
344.578
441.958
231.527
993.598
715.363
325.464
447.569
340.461
211.91
831.344
312.086
291.31
692.498
649.817
448.428
123.555
819.811
475.02
206.049
312.127
1332.14
255.916
393.294
236.463
413.204
466.851
116.352
323.221
140.451
65.1766
796.305
162.538
309.32
263.967
272.598
328.913
313.415
323.204
124.508
498.386
267.305
491.379
565.898
461.676
397.604
47.1965
131.273
352.033
324.298
423.75
72.3855
215.131
72.7391
189.908
152.693
92.7287
89.1842
168.926
112.51
222.927
304.215
233.639
103.228
109.117
101.811
110.795
255.032
55.9327
180.791
83.5396
80.6068
53.7849
231.887
236.504
460.389
88.8538
507.754
196.12
288.329
280.171
261.432
348.079
242.391
221.081
319.022
384.621
50.5784
252.444
79.0265
300.866
329.852
293.579
356.1
265.215
215.973
215.813
182.11
102.148
183.572
64.1499
138.601
317.359
179.5
98.4582
138.272
275.736
148.791
730.677
835.541
230.303
964.1
822.108
221.247
226.262
214.591
233.214
256.231
203.074
195.327
80.5838
85.8231
146.118
63.3932
193.562
205.925
301.906
345.627
104.417
79.1599
115.225
139.129
136.091
85.4546
102.8
141.459
65.5431
111.005
181.641
81.105
174.479
135.343
82.7411
123.24
115.749
208.064
415.632
267.235
466.442
89.3654
405.7
143.029
279.048
224.557
209.664
73.8718
96.8485
425.866
71.1591
330.665
104.751
292.779
353.917
279.711
106.614
71.7726
80.505
232.976
121.86
654.932
221.548
415.671
407.182
209.321
378.306
323.47
238.584
1308.39
82.1093
74.9242
193.942
171.595
139.627
134.635
314.641
347.414
52.0898
229.892
248.387
148.332
182.181
60.2656
64.1812
131.578
179.786
320.4
174.144
1298.64
51.3451
51.1234
1036.43
54.392
95.0681
57.306
104.249
90.0735
461.379
796.777
155.039
522.141
202.599
232.653
74.8055
70.4061
69.7809
76.1204
87.6314
70.3161
897.078
898.368
367.58
513.75
338.208
86.8652
523.052
371.831
84.7093
280.81
116.983
397.084
69.2668
664.584
75.5223
211.063
99.689
143.414
442.35
581.21
397.935
517.969
718.865
400.369
115.937
96.8382
257.121
158.596
59.5775
166.456
343.77
79.9043
87.19
57.9597
174.115
176.636
55.1065
366.348
276.846
318.276
89.7623
72.2775
218.827
332.103
101.704
218.339
342.013
100.308
82.0934
102.176
99.4351
628.784
135.159
96.8706
696.742
807.621
508.313
911.549
840.864
524.946
78.9471
79.3246
562.516
50.2155
79.1838
83.294
76.0594
61.9567
123.844
67.8589
67.5644
176.903
346.385
301.845
78.942
276.567
78.7443
71.4578
164.776
61.4617
118.544
202.611
78.0133
190.657
640.092
1168.13
285.874
136.855
299.833
55.7638
147.052
974.563
76.9734
781.95
462.35
97.5919
136.417
103.936
535.378
67.6364
143.067
521.385
150.884
389.172
1036.74
933.149
890.573
746.251
83.6003
131.023
80.7259
259.18
292.661
428.267
109.204
169.38
58.4928
290.103
79.5597
67.1364
616.811
104.627
287.484
573.89
55.7664
61.186
108.151
84.462
176
77.1252
701.379
140.807
371.806
784.91
99.6764
53.9849
948.672
52.5062
62.6585
297.892
155.488
289.79
471.718
250.654
226.588
228.709
482.687
75.6206
310.732
429.524
755.955
72.3193
62.754
234.305
106.356
349.037
1051.52
226.174
64.8156
85.8278
113.175
79.3675
83.497
275.044
136.077
526.984
78.1043
77.1245
245.704
216.174
211.278
293.158
686.424
558.198
1012.2
320.583
133.405
616.06
981.794
1030.59
550.544
218.314
68.5279
430.678
395.212
57.4758
93.4904
68.7234
171.726
80.7252
990.737
819.757
192.842
302.886
935.083
245.366
577.088
359.1
112.185
266.288
524.601
163.269
94.2537
258.06
246.289
275.249
283.77
67.477
452.345
366.239
260.736
321.433
102.204
89.2766
275.485
94.2734
358.496
101.257
268.526
215.821
204.652
210.847
299.783
80.776
266.108
58.1644
122.969
418.835
75.148
316.543
83.1131
108.648
941.291
424.394
57.061
98.7657
266.422
61.743
215.34
146.813
198.391
382.941
292.388
177.549
272.264
77.4533
143.3
86.3918
184.236
778.19
317.456
229.16
101.946
409.93
114.333
105.528
88.5925
128.049
151.371
86.3217
141.357
101.488
245.412
349.214
386.423
129.153
141.609
311.415
180.574
259.129
235.13
370.587
311.208
401.852
333.209
315.867
67.6461
320.909
543.988
108.254
88.782
790.172
119.059
132.382
330.835
251.339
328.413
435.445
61.6814
89.3819
87.702
80.3199
482.944
298.736
288.079
63.84
339.856
71.4574
394.042
79.784
115.316
439.491
381.02
281.958
312.029
383.85
105.428
121.05
121.463
253.536
252.235
276.66
335.661
288.184
111.62
119.538
92.6167
121.438
379.864
294.964
344.489
182.94
139.878
229.713
297.653
744.502
106.13
88.9922
224.621
199.096
136.931
72.9507
96.9485
142.534
53.915
57.0417
99.7706
304.873
643.075
134.573
239.812
71.6053
541.262
645.647
99.278
84.6503
80.8557
76.477
465.114
471.5
283.419
122.163
196.512
280.262
936.245
1058.34
137.092
504.252
674.996
343.034
326.393
327.313
187.404
432.098
83.2733
89.8881
127.614
93.5464
213.646
359.846
712.818
92.9923
244.877
223.365
86.1935
46.8279
61.1532
93.8124
62.0591
88.7211
119.099
274.713
59.27
733.021
141.46
64.5091
353.121
373.37
288.727
111.813
394.321
60.2563
57.6443
469.627
1025.55
581.268
128.436
481.177
61.3351
589.25
484.597
356.526
90.4961
58.9329
64.4192
561.814
298.586
82.1508
125.863
493.539
116.953
132.696
133.549
119.639
90.3955
263.653
219.002
215.794
75.8521
97.7065
97.6012
49.7031
390.011
49.0849
56.3383
641.948
74.9106
60.9065
82.8826
103.006
157.76
119.086
85.2663
453.996
264.319
114.584
242.844
108.916
145.984
68.3531
80.3568
87.3123
336.168
369.874
293.99
410.483
385.093
332.177
266.414
127.163
970.951
104.567
81.1514
121.982
72.6877
131.816
748.277
170.366
500.315
121.118
309.105
336.126
113.744
109.04
105.796
155.388
106.259
115.17
110.8
132.454
182.992
97.9895
261.72
150.256
72.2527
314.967
1019.96
329.649
316.218
682.404
512.535
132.772
484.668
349.888
367.327
71.6125
387.332
56.8603
284.473
267.69
337.839
366.014
123.968
960.232
483.627
1028.85
218.348
276.776
207.992
184.776
133.884
128.79
275.752
147.098
427.801
697.348
510.714
779.653
59.4179
285.579
759.201
88.6505
76.7053
74.0084
296.465
69.7214
620.397
270.763
392.332
371.845
579.81
406.384
250.342
395.601
359.982
253.926
341.15
419.622
256.074
254.93
347.24
409.974
281.708
99.7604
378.562
49.3977
115.459
177.144
223.757
98.8168
337.318
150.899
298.869
243.021
571.498
477.413
95.816
258.558
345.231
286.587
51.4582
437.482
118.466
276.935
134.78
94.2869
92.8184
104.554
81.85
508.839
959.685
381.188
77.8751
725.39
703.243
658.119
87.7275
272.525
425.16
946.533
904.546
138.132
1033.58
69.6764
1184.07
855.662
870.821
782.58
111.741
293.372
891.859
151.616
655.54
725.748
365.065
449.751
260.986
335.546
783.763
174.223
938.285
106.787
330.005
177.109
506.585
442.326
953.478
73.0036
343.622
118.848
88.6327
320.317
339.126
258.953
322.997
391.544
294.329
109.71
173.719
50.0103
92.1574
155.384
167.007
151.36
58.4453
174.244
517.569
364.451
236.412
199.806
103.553
429.62
439.369
85.4495
312.837
65.4938
54.3549
473.517
103.79
103.435
94.9112
105.652
125.246
483.847
195.694
150.146
373.239
118.1
297.904
76.4473
66.6477
48.8302
294.48
285.64
348.013
260.94
137.811
336.509
66.1004
62.7838
444.024
244.221
1027.18
179.274
73.4927
67.5339
63.1346
136.452
60.0021
285.632
291.595
484.892
74.4127
71.556
65.8193
65.3358
67.4182
62.9894
356.085
247.328
327.17
61.9934
162.325
70.6371
55.7442
416.321
321.319
314.737
701.114
234.657
132.624
185.661
70.3271
62.5633
137.729
106.238
216.771
104.305
87.2498
484.796
569.24
415.303
852.788
691.347
797.35
94.4543
71.9169
116.548
423.371
612.733
191.585
453.41
267.15
322.185
396.602
104.866
255.206
409.966
254.237
979.425
69.8372
58.6873
646.183
583.961
46.1635
67.1056
90.3448
91.8201
137.024
137.388
250.695
405.297
53.4592
860.777
122.956
63.3241
523.926
167.39
248.074
279.12
187.453
319.655
285.369
56.8505
223.507
56.9244
81.4828
462.623
141.95
896.379
54.7749
335.995
377.429
304.209
167.12
717.482
520.152
329.111
267.353
243.148
88.3781
91.9182
70.8087
54.0535
56.2689
314.85
154.298
366.841
132.639
698.499
697.977
80.8089
124.165
177.047
122.627
246.125
455.926
410.891
933.157
264.636
276.936
120.838
321.379
323.846
242.509
468.126
459.136
411.982
81.2181
181.207
700.19
107.191
58.7591
47.4181
73.3184
79.7035
358.418
61.6743
302.934
415.274
429.961
264.26
398.746
76.145
406.473
130.766
185.009
239.728
292.538
123.946
319.013
96.79
393.285
219.149
306.354
245.806
255.781
256.811
66.3317
282.171
207.806
91.5598
111.437
96.698
443.129
88.7252
275.369
292.249
228.185
154.167
401.048
57.3251
82.936
441.797
219.979
311.204
252.876
245.279
309.485
66.2068
67.1473
492.111
67.4644
253.278
117.431
429.97
429.803
62.8627
220.986
211.647
268.451
81.8237
117.643
238.046
57.2556
374.886
344.412
250.28
118.663
333.241
199.524
377.067
468.128
220.951
102.249
482.12
538.987
177.849
251.412
229.097
174.881
109.408
245.409
237.719
259.103
254.271
295.271
273.046
294.492
345.155
353.083
394.016
298.736
381.14
458.419
728.314
570.928
443.103
535.454
111.29
88.966
184.512
88.5818
183.344
155.305
219.838
217.93
104.486
128.364
99.4541
184.682
134.879
343.616
337.366
96.164
666.746
75.1865
361.84
352.165
215.056
147.229
64.4516
80.2026
224.024
279.358
709.84
771.009
165.9
516.876
461.03
245.521
326.511
329.161
386.243
104.675
145.439
263.441
262.084
292.376
339.517
379.153
217.655
328.398
96.4333
178.938
345.617
190.692
255.932
436.499
845.718
438.258
208.303
67.8334
638.147
226.512
548.115
157.806
79.4167
175.251
579.953
162.327
318.563
291.251
168.976
213.377
288.29
396.29
351.593
484.041
322.685
113.113
392.917
91.5157
157.746
135.49
504.26
210.106
138.573
63.0052
353.507
574.998
108.744
80.5044
79.725
182.237
281.956
255.891
305.603
253.044
400.122
82.1902
131.355
354.168
139.168
91.8475
360.125
294.089
957.934
73.4469
111.671
277.174
250.498
143.051
80.3836
80.3416
95.6949
103.205
84.4726
102.487
99.0436
63.2581
129.484
69.5118
126.087
238.637
134.781
76.9505
76.6693
87.8374
60.98
108.803
228.777
119.31
87.2324
326.046
289.93
397.194
49.239
109.207
84.3097
98.1564
240.941
50.2416
63.0362
320.394
454.56
916.235
165.657
504.831
185.254
233.057
242.625
61.1351
47.8453
721.342
972.156
71.6863
861.025
693.004
656.403
1081.66
85.4311
209.858
587.925
781.169
257.314
233.718
238.414
565.591
183.692
199.09
227.309
375.707
425.12
222.236
390.942
332.969
1040.62
235.49
793.229
76.4113
1054.37
152.416
382.812
227.679
216.701
67.2498
314.076
238.335
223.698
301.627
396.178
97.2757
291.87
260.481
62.4807
239.371
279.392
478.772
321.966
221.012
263.937
249.754
240.311
81.3555
657.206
124.661
58.2464
91.4435
277.085
1013.46
323.357
222.651
709.06
703.843
686.669
349.181
385.476
262.191
491.751
742.622
513.799
244.249
329.801
295.546
426.518
287.584
302.076
590.522
977.429
177.64
402.835
457.941
246.634
391.485
376.708
563.007
73.1147
137.942
66.8402
226.962
109.024
393.375
260.819
246.031
279.132
344.853
266.259
290.496
286.288
217.358
308.939
80.1768
163.587
221.882
56.0573
70.1064
57.1992
198.09
300.369
370.409
336.812
111.288
378.894
317.514
308.731
196.807
350.485
362.217
328.326
146.613
69.7824
78.7875
137.479
231.03
305.366
345.108
442.15
275.521
318.642
108.81
290.842
292.523
287.087
300.975
138.902
307.558
133.526
228.095
1024.9
723.97
87.2605
287.497
111.673
212.297
321.38
127.055
718.612
445.862
118.226
100.144
660.551
67.4918
457.905
701.191
561.717
107.519
382.883
73.0154
94.1874
221.612
67.0178
108.416
299.436
658.47
413.854
281.561
205.777
253.979
293.944
273.121
226.724
267.339
222.554
224.484
164.278
70.4389
136.451
118.486
121.81
118.179
247.556
388.712
82.114
194.583
390.727
344.529
255.164
67.3816
72.6462
460.043
84.7769
159.668
401.737
248.237
436.736
70.0747
59.9436
60.9109
82.0092
302.482
144.987
111.135
67.7955
95.307
110.427
480.071
401.994
365.748
90.6345
90.4957
409.518
70.8402
79.3939
158.5
522.982
886.812
56.6907
277.438
69.1007
421.076
529.261
701.115
398.752
102.274
423.032
108.008
93.5903
122.425
760.053
72.4166
62.34
53.1847
51.9053
724.999
206.36
453.288
115.162
267.369
118.012
85.6689
147.948
261.614
81.4466
77.0693
141.099
232.212
366.741
84.1047
145.827
69.597
1391.51
912.693
55.6728
132.605
97.2731
69.5509
715.789
137.1
588.6
161.707
222.841
67.7953
412.404
267.381
167.681
133.994
77.5991
413.943
491.738
663.069
338.801
108.022
597.961
148.858
351.601
411.916
745.925
287.481
126.501
205.594
110.973
77.0749
110.802
74.469
920.949
87.1537
168.872
216.017
313.513
464.709
297.929
427.196
123.836
416.32
306.429
152.278
99.8773
282.618
318.699
70.9106
111.647
308.414
302.497
97.7859
115.735
904.858
96.1696
95.6247
46.9499
60.2758
94.5024
172.693
105.144
308.488
417.538
147.124
208.78
209.281
352.346
340.787
943.169
416.857
1041.68
76.4881
472.82
705.148
174.168
96.5952
69.5006
142.952
473.524
57.8189
274.793
57.6063
90.6831
57.1842
227.835
907.175
95.0686
96.9164
94.0317
430.092
259.675
302.278
194.738
242.121
90.8205
154.42
219.992
128.174
401.509
225.566
439.828
214.425
306.684
343.215
472.528
383.303
281.417
462.62
302.452
134.616
114.696
85.6889
177.939
106.41
243.336
71.9115
324.419
242.727
60.421
79.9346
93.3255
79.1195
117.883
92.8337
294.866
81.8847
472.591
341.766
107.22
122.674
98.1189
231.07
553.899
338.725
113.497
395.189
298.719
227.141
79.2609
420.488
197.901
250.178
352.215
361.925
195.098
386.369
281.818
401.983
95.6611
169.772
305.596
385.301
265.082
309.342
280.131
148.317
137.317
227.533
342.636
326.986
90.195
101.431
312.481
617.624
98.9381
319.617
317.342
591.427
106.982
481.706
993.085
716.065
233.696
66.8859
350.694
77.273
106.408
544.932
86.3951
237.062
69.7832
923.158
889.181
371.911
370.251
288.296
321.386
282.078
243.983
590.633
673.178
275.533
216.803
307.913
81.3886
284.479
95.687
419.966
160.546
103.546
83.8222
512.152
170.284
92.0462
682.237
955.941
841.469
436.636
254.567
611.953
62.8623
297.979
337.228
473.395
296.397
362.342
306.191
269.587
255.742
347.189
131.936
384.214
325.011
432.228
115.855
67.7444
87.3844
584.392
240.29
853.588
626.026
74.4059
416.504
282.528
200.356
316.997
499.402
374.871
425.501
282.479
429.846
273.533
529.03
305.16
101.475
399.163
67.6033
68.7951
114.506
123.621
115.658
132.68
131.959
187.091
82.5488
81.2078
437.161
104.003
320.704
242.742
254.41
272.589
243.846
445.137
96.854
135.02
104.678
123.638
185.948
165.297
157.952
860.297
265.925
496.9
583.809
779.879
81.8026
76.7196
303.781
104.97
735.182
662.245
547.044
359.458
586.728
500.173
374.561
872.467
402.814
434.277
528.893
97.371
612.176
453.406
202.746
153.771
399.401
464.002
342.094
568.694
832.891
848.719
354.938
322.898
203.734
375.71
330.592
154.967
130.828
177.143
117.982
263.724
285.289
227.732
1194.32
1037.02
416.41
802.738
451.65
309.568
126.831
258.96
264.141
333.087
375.98
78.722
88.6883
95.4742
113.148
59.0015
59.054
153.177
1049.2
1149.42
337.818
866.137
307.764
377.423
240.73
215.29
258.894
276.647
259.916
218.084
213.414
206.512
291.779
112.924
204.579
228.3
343.948
290.985
208.904
230.879
80.9916
85.1097
84.7892
88.5068
256.172
423.965
214.368
241.682
105.397
199.502
272.789
304.581
176.657
161.001
509.831
104.339
184.815
172.868
263.442
118.275
123.617
94.9497
152.209
139.166
88.8559
202.88
171.312
75.5337
303.519
114.169
200.918
123.145
246.26
152.772
111.832
119.197
116.574
521.615
973.204
760.895
84.9995
955.849
846.236
422.959
91.5052
104.014
717.767
226.093
411.444
411.064
316.417
104.387
156.006
90.2485
112.942
112.005
852.87
440.195
962.033
595.429
294.478
414.772
256.575
155.533
77.1118
240.857
59.9979
300.964
276.964
184.019
224.741
459.896
290.897
421.431
275.956
297.463
261.27
101.009
60.7961
113.15
304.01
312.21
374.515
92.1864
146.27
279.508
412.46
303.621
353.979
147.632
64.2666
68.5862
60.1707
135.178
367.034
274.974
365.936
73.3347
552.075
247.332
175.186
114.906
301.887
202.056
481.973
288.715
176.088
174.146
206.058
120.598
222.84
795.545
1281.22
1039.38
739.702
379.584
142.994
108.982
97.8884
79.8126
98.3585
156.175
156.098
65.4528
158.893
88.6491
352.951
981.021
54.9708
151.416
105.937
222.184
181.434
153.202
79.5391
83.4681
138.451
181.433
132.967
308.834
154.589
115.317
124.418
206.105
227.599
351.163
129.326
157.177
194.009
93.0073
120.42
333.45
193.931
638.694
743.736
105.173
80.2335
433.71
76.7511
76.9627
81.2035
956.794
234.765
264.09
90.1384
121.864
56.7224
53.8045
69.2221
85.2029
84.7079
81.0198
65.0101
1099.58
69.4373
532.603
364.083
61.1372
96.3693
89.8133
68.7413
143.407
686.595
68.4664
78.8701
52.846
63.7741
824.397
55.225
51.4731
198.377
73.798
217.919
107.869
73.082
64.2918
539.411
136.359
176.174
110.041
54.1088
97.6175
149.458
67.0055
76.7467
63.7909
108.643
173.638
72.0131
386.46
71.1212
314.817
155.993
79.1246
134.568
152.186
539.23
641.544
855.209
247.756
82.1924
121.982
196.444
62.7156
1153.01
772.473
637.389
239.416
968.064
62.6384
63.9193
63.3639
79.3639
61.2257
70.7925
62.7157
586.02
60.0136
61.3227
475.231
86.6622
165.076
77.5773
582.148
97.62
72.818
551.674
61.1215
100.838
352.515
117.752
68.2349
496.597
494.094
603.823
46.1517
109.829
86.7612
54.4463
60.5273
80.3407
133.854
63.0479
82.5868
213.628
186.952
443.599
140.517
238.438
372.943
295.595
367.421
1064.85
225.647
49.9225
79.5264
52.9748
79.2145
178.819
626.274
227.579
878.902
153.492
60.897
740.091
525.399
300.399
312.685
339.294
401.888
427.037
286.681
69.9507
56.3148
260.417
199.496
217.692
343.324
244.892
58.7906
505.397
762.32
355.433
161.891
386.457
65.9795
78.0317
53.0065
319.324
56.9723
151.169
100.581
123.377
127.933
61.1598
53.7785
110.764
76.1295
84.4121
299.712
418.536
267.322
329.201
75.6129
393.438
68.4025
256.334
270.095
395.345
402.435
346.421
360.977
81.7189
181.816
658.83
201.634
78.3921
57.4173
96.3609
277.145
286.763
301.904
269.072
254.235
372.046
206.292
261.778
234.453
326.315
315.279
325.901
114.458
282.07
367.037
217.217
116.147
103.819
174.178
274.903
146.578
115.183
121.844
400.736
306.595
416.087
96.1076
254.308
352.441
148.759
352.574
406.278
342.253
293.65
241.742
104.015
110.691
121.187
109.151
121.489
123.389
114.286
96.556
125.525
110.286
137.466
352.086
317.59
321.877
351.141
83.874
103.828
138.577
359.205
114.461
340.339
91.3428
259.925
116.09
297.216
192.355
191.751
306.74
172.306
341.313
344.492
420.203
464.479
522.636
141.554
150.882
480.986
61.543
134.107
137.585
481.133
177.697
252.632
340.675
879.071
754.778
226.775
528.301
835.478
407.586
401.833
206.557
297.832
584.669
332.665
303.496
139.216
272.886
117.421
440.593
204.552
732.069
105.353
84.0459
306.194
154.082
778.112
135.138
522.522
145.01
112.068
372.378
67.8329
74.6426
309.896
661.046
66.994
424.815
144.425
761.872
352.457
173.415
174.548
117.625
99.7736
245.777
142.203
730.884
492.474
88.5594
579.68
763.955
123.411
265.14
305.198
325.007
285.074
278.615
570.326
433.651
497.712
267.653
377.554
58.8364
67.3697
59.7975
207.507
379.704
164.232
378.562
272.299
102.64
188.523
243.202
191.698
207.603
229.197
168.532
158.651
163.82
122.938
129.256
222.398
104.574
467.378
153.658
195.06
549.074
326.231
288.096
284.314
373.606
374.563
321.418
309.059
313.755
374.821
193.879
66.0772
303.817
273.998
372.413
58.486
466.768
263.976
139.544
258.096
619.052
268.068
62.5696
359.345
369.307
425.126
396.503
331.001
264.266
481.996
343.916
255.67
138.93
359.61
220.078
308.814
217.671
243.29
62.43
96.9378
305.73
300.098
561.084
112.352
226.887
383.319
325.19
104.535
455.493
449.226
354.073
768.125
426.526
147.09
1026.85
335.06
79.8203
454.681
364.19
102.492
67.3731
56.6406
287.876
57.0921
112.301
105.481
116.127
125.326
121.583
112.278
119.772
77.8351
53.3924
212.145
326.53
402.64
403.621
364.167
352.666
87.7218
281.878
216.163
270.568
99.5365
93.0077
95.2943
168.675
176.291
147.078
112.383
103.139
318.513
337.296
326.558
95.987
334.143
75.7282
83.5645
131.367
98.8056
107.011
144.772
180.922
391.859
337.913
307.304
550.44
305.602
436.217
333.831
245.328
424.536
267.919
106.134
111.841
314.761
77.9138
373.278
81.4442
138.243
236.212
380.586
157.637
223.851
224.472
128.95
84.869
319.597
537.773
295.116
443.289
309.181
142.995
77.8791
76.6708
104.586
386.849
468.31
68.5842
564.283
314.798
116.027
277.902
226.957
185.334
56.6213
273.542
152.73
81.1333
233.786
289.785
2476.54
978.307
468.976
208.3
599.507
146.787
267.104
763.7
523.448
1143.53
1580.64
1436.13
1076.68
1416.93
1486.8
1086.83
1882.71
1337.67
1606.03
855.222
121.456
277.157
620.398
421.999
411.389
306.096
201.205
426.238
385.466
513.184
431.018
608.352
1352.94
1606.06
345.301
298.031
490.246
542.118
353.212
394.498
256.871
329.792
280.525
567.91
303.658
968.549
493.031
556.006
2053.86
79.6658
244.494
708.633
204.725
443.026
279.156
341.953
113.525
217.272
390.173
120.07
85.1606
146.728
203.656
169.532
240.17
570.094
71.0038
384.014
276.027
464.733
562.268
574.813
787.09
78.5529
795.265
95.4059
64.669
91.113
177.508
197.646
434.711
454.766
322.644
84.6971
248.654
528.807
325.509
388.437
345.208
242.098
188.6
418.924
201.218
187.63
80.5032
69.407
91.3892
70.2383
407.799
351.748
336.882
280.942
269.485
380.604
199.708
133.452
481.438
172.187
258.503
338.349
331.046
365.896
290.166
260.953
327.953
367.499
87.7158
54.4986
71.8922
164.931
71.0632
70.3836
133.648
85.9666
92.4205
347.56
353.968
430.239
485.075
360.558
76.8026
476.014
146.095
86.041
288.77
456.808
739.718
771.635
756.946
382.362
67.8564
288.727
56.4678
458.758
463.983
270.265
318.538
582.271
110.19
113.249
98.2061
109.047
572.111
239.12
584.912
488.676
503.056
419.099
367.057
61.0907
55.309
73.1909
688.249
80.8017
46.272
255.088
75.0314
502.917
113.478
159.532
200.036
498.156
127.888
343.078
71.4251
998.21
56.6205
578.611
424.75
916.218
1219.79
535.298
72.6968
837.496
193.567
130.623
53.1985
55.6133
137.417
168.931
56.1924
596.582
1127.34
403.766
89.1675
186.088
91.9562
116.286
103.896
108.664
150.064
661.85
401.531
76.5246
826.411
1016.79
377.493
267.793
445.243
1025.5
983.424
792.811
75.4431
263.44
82.9647
76.2647
295.221
196.642
92.1482
171.678
135.233
62.2016
84.783
54.5885
75.6118
260.445
80.7586
180.664
118.198
85.0604
425.104
999.721
232.714
72.4202
407.316
295.877
114.326
56.1335
118.731
82.4633
139.477
91.3808
264.589
204.755
205.29
895.246
1057.09
64.9003
89.877
117.888
106.525
58.579
257.558
417.254
342.382
102.405
997.005
1108.61
47.0484
84.1432
286.457
517.057
936.469
363.299
408.764
227.245
191.588
110.643
78.5581
212.565
242.24
241.849
228.255
415.939
449.857
269.541
231.17
368.671
75.6975
65.4832
140.407
102.358
308.468
151.215
145.841
64.3432
363.935
816.611
168.935
307.863
455.084
449.328
109.479
93.459
191.14
278.219
97.57
359.489
332.223
268.674
451.454
438.814
327.202
388.297
82.5286
229.913
294.84
352.75
230.25
598.004
96.1046
61.3493
85.5005
118.186
273.804
486.441
141.263
110.098
80.0952
52.8378
78.1091
67.7357
82.5369
152.126
134.918
129.18
132.896
118.436
99.9368
84.7696
398.482
116.611
303.32
339.11
238.887
137.677
277.773
196.518
811.832
548.661
580.36
201.485
294.664
246.037
63.08
75.5996
74.8232
143.341
183.021
84.9046
73.4003
205.977
578.077
84.9165
475.273
368.304
620.421
406.169
101.711
172.572
290.513
296.652
68.5105
319.196
412.54
269.743
614.913
249.886
387.123
291.631
436.217
72.1517
132.155
354.334
259.45
71.9307
321.967
328.489
370.531
268.291
219.616
244.618
106.561
142.006
122.08
107.276
108.241
467.479
110.714
97.2167
250.942
79.7027
130.106
302.995
235.962
316.963
398.491
574.326
843.269
689.219
110.005
81.6314
61.9116
64.871
58.6439
52.1932
52.0196
66.4098
124.241
349.439
78.4371
79.3643
210.353
145.326
243.187
371.923
56.5759
53.0726
700.541
108.074
124.903
89.8224
108.286
249.763
259.374
116.254
372.614
109.714
231.053
173.676
467.118
391.774
298.195
292.67
145.714
178.326
158.434
426.842
258.628
204.916
303.215
72.2043
66.2281
66.5149
81.6538
81.953
75.1588
83.3844
130.983
94.326
61.4171
53.7257
135.979
89.1162
120.102
51.4503
297.422
185.583
642.693
280.557
55.9873
58.9687
57.5957
146.701
93.4528
87.6167
71.8106
154.545
129.204
184.157
121.148
242.746
97.8432
198.933
794.446
146.812
150.319
138.569
146.996
194.254
204.143
185.781
178.357
269.62
272.096
271.086
286.126
200.588
64.7189
46.5376
51.0891
489.476
346.119
459.991
302.979
408.576
223.913
111.318
154.74
225.888
391.751
341.444
69.2953
86.1078
135.362
69.4538
69.6642
752.992
662.007
406.469
654.548
476.867
309.284
332.981
120.07
1004.21
890.502
937.476
154.86
141.138
269.108
286.404
265.674
264.437
326.836
258.284
140.873
172.105
98.9392
151.681
118.878
185.108
310.526
290.955
261.393
556.094
694.721
338.46
308.032
494.239
329.329
420.679
653.18
429
440.462
88.0688
58.5622
55.9187
247.508
318.155
229.893
86.4386
48.0459
53.1536
91.2462
152.564
131.253
302.588
78.7424
82.7251
80.6914
109.351
155.834
286.637
246.313
219.622
381.651
262.532
74.6744
187.492
124.524
84.0706
86.3752
181.223
136.151
112.326
117.497
330.399
224.891
285.007
142.284
184.905
83.1388
95.2094
58.2862
87.5388
102.393
57.7504
218.24
634.931
579.694
135.726
999.143
346.774
462.405
96.1332
824.052
210.285
208.237
255.251
234.576
567.405
335.271
887.193
674.307
180.307
385.197
357.606
73.1299