/*--------------------------------*- C++ -*----------------------------------*\
| =========                 |                                                 |
| \\      /  F ield         | OpenFOAM: The Open Source CFD Toolbox           |
|  \\    /   O peration     | Version:  2506                                  |
|   \\  /    A nd           | Website:  www.openfoam.com                      |
|    \\/     M anipulation  |                                                 |
\*---------------------------------------------------------------------------*/
FoamFile
{
    version     2.0;
    format      ascii;
    arch        "LSB;label=32;scalar=64";
    class       volScalarField;
    location    "0.0689058";
    object      p;
}
// * * * * * * * * * * * * * * * * * * * * * * * * * * * * * * * * * * * * * //

dimensions      [0 2 -2 0 0 0 0];

internalField   nonuniform List<scalar> 
3918
(
-35.8522
-2.39796
-5.76924
-23.4095
-1.08764
24.6538
18.0609
17.587
-4.60263
-8.46292
19.6172
-31.0198
-27.7228
-38.1702
-19.0551
25.8138
29.3967
-29.1045
-29.0588
-4.91945
53.5672
-21.4894
3.8845
-28.6737
3.25503
-33.0023
25.3149
-18.0838
-28.2373
-29.6207
-28.9823
-4.50671
-17.9667
-10.6852
-22.4345
-40.5477
-10.6995
-7.35878
49.0052
-8.66804
-4.58661
-12.8721
24.5233
-18.1164
3.4226
5.51062
6.34348
49.7725
-30.7535
-26.2851
33.3823
-28.1068
-20.1667
-31.6127
-17.0761
-25.2732
-17.8359
-33.2645
2.89388
-11.2439
12.2084
-15.3509
-25.6674
-16.4064
23.8273
-10.3945
-30.8192
-30.2699
-29.2804
-29.8162
21.3549
-74.8778
-55.5308
-61.5421
-38.0706
-38.5517
-39.6506
-38.3553
-35.8242
-3.69751
-28.7314
49.4012
-37.3321
-17.9842
-12.0011
-36.598
-29.1493
-29.4341
-72.4439
-16.8271
-22.3959
-13.6432
-48.658
35.8389
-5.29734
10.7282
-28.4921
-6.7
-28.2177
56.8956
-19.2701
-20.1356
-12.1286
-18.2419
-18.9432
-29.0662
-33.4836
35.095
-10.0601
-30.2477
-28.2104
-28.4603
-28.3006
-28.3912
-28.647
-28.0695
-27.9316
-28.6067
-58.8188
-63.9396
-21.2161
-39.1743
-30.387
-30.2666
-35.067
-62.7412
-10.4038
-22.2717
53.9721
32.9979
5.37281
-40.4592
7.58107
-22.8617
58.5518
57.1437
-28.8366
-29.0588
-28.8436
-38.7888
59.4111
-28.9459
-42.7027
56.0252
-49.4462
-51.7102
43.2755
57.485
-49.6376
-25.0874
-24.6388
-28.5784
-1.81871
-54.6875
-37.2736
-41.8129
-94.536
-62.4214
10.6234
-9.81569
-11.3081
-28.3769
-29.7802
-29.1932
-31.1558
-28.8811
-28.8182
-37.0498
-28.5171
-28.7401
41.5177
-28.6915
-28.5819
-28.1053
-28.447
-27.811
-32.7384
0.260447
50.5876
32.8561
-1.97288
-28.6135
-31.2401
-30.8228
-23.8987
-18.3909
53.6523
-31.4755
-33.9235
-37.5463
-15.6494
-41.9109
53.5114
56.9747
-29.6605
-37.2291
-33.2187
-38.4673
-58.4486
-1.30929
-66.1129
-30.5742
-28.3714
-33.2987
-27.9955
-36.7149
-31.87
-80.3457
-30.559
14.4891
-42.1771
-31.423
-17.006
-30.8013
29.2774
-30.598
-50.7892
-45.3742
-32.2789
14.2863
-59.2351
-30.7438
-28.483
-8.204
-21.5804
-48.3128
45.3606
-36.5793
-99.0207
-34.148
-58.5953
-27.9353
3.26028
-34.9078
-6.82882
-56.2824
-28.1875
-21.0164
-30.6705
-3.13703
-29.721
-72.9282
-45.0191
-27.5128
-6.13246
41.8622
-1.28038
-16.0683
-8.52301
35.2246
-33.0575
-27.7338
14.142
6.31739
-28.7253
45.7568
-42.7859
-1.81955
-59.485
-44.4443
-28.0185
-15.7896
-28.8436
-19.0518
44.6093
10.5524
-22.6851
32.4961
54.2267
32.5912
-6.12351
-39.1395
-5.80466
-24.1413
-24.9587
7.65946
-29.7255
-54.4788
-77.2329
17.2589
-23.498
-40.0359
-35.2897
5.66366
-5.8377
41.716
-18.0506
-79.5138
2.54851
-10.938
-77.8914
-33.2096
-30.3415
7.36795
-42.0268
-24.6361
-79.6844
-29.1808
-29.0972
-24.9824
-29.1974
-3.69006
1.338
-29.2549
-57.8477
-28.3997
-2.99521
34.4875
-11.3843
-33.3739
-29.3103
18.5474
-28.3594
-29.041
-34.1521
12.6875
-14.0436
35.1195
56.911
-92.9426
-11.9646
-28.8501
-33.3078
-21.0751
-11.2549
-58.4961
-12.0361
-31.608
-28.4568
-9.73
51.0552
-4.0773
-0.728212
-39.8653
-28.6257
40.6843
-43.9506
-26.3929
-61.1469
-9.2783
-12.3346
-30.0593
-47.8451
-28.4804
39.4941
-44.2922
-26.6712
16.272
-28.912
53.1911
-27.3636
-30.6034
-23.6721
-9.0055
-5.50669
-13.016
-34.8857
-50.9875
-30.6093
-14.5865
-28.9229
-27.3968
-29.1659
10.4183
-20.8195
-28.3326
-36.5041
-23.851
-26.7668
-34.2156
-11.006
-31.3504
-8.40163
-1.75312
-24.7175
-38.7733
-36.2606
-29.4033
-18.1722
-5.21904
3.4455
-34.0195
-31.8695
-17.5435
-29.5853
-34.4885
-30.3557
-28.0788
-30.1253
-34.1967
-29.2542
-25.401
-16.1025
-52.5356
-9.84224
-55.9958
-53.2845
-18.0193
-51.8741
-47.0569
-30.471
-15.9196
-38.7571
9.43191
-15.0472
-8.19289
-32.8388
-29.8546
-35.6393
-78.0363
-31.3334
-34.3408
-16.8454
-29.5772
-37.2981
-21.1416
-24.0764
-16.8622
-27.0918
-13.8566
-13.3932
-38.5145
-16.6781
-24.0236
-5.41894
-13.5495
-26.4573
-11.5698
-26.2358
32.4633
5.36262
-18.5097
-28.8265
54.2385
27.0687
46.6932
14.6542
-25.332
-27.7907
-24.2164
-11.9799
-33.9246
-28.8506
-23.1468
-21.2317
-14.434
0.194578
-24.0405
-16.967
-8.38903
-35.7545
-45.1121
-35.5939
-35.8211
-40.1484
-46.7893
-48.6119
-13.6768
-81.7255
-23.6206
-11.7401
60.9025
-29.1284
-0.762805
-34.2574
-39.0778
-8.85296
-28.6809
-11.5343
-17.1039
-28.875
4.21748
-115.047
-42.3599
-23.5349
32.8608
59.8379
-29.7274
-85.8439
3.34303
-28.7832
-40.2493
-28.6537
-0.429163
-29.8642
-22.5878
-75.1642
-30.3508
40.9658
-28.7996
-32.5266
-15.1469
62.1344
57.6896
28.2515
60.0717
-29.5988
-10.4143
-88.5089
-16.5551
-11.536
-20.9805
-7.91605
-12.7332
-16.3172
-3.78508
-14.4082
-9.49531
-11.258
-9.88565
-25.9873
-13.8523
-5.93233
18.8076
-9.9182
5.44514
-20.9381
-12.8002
-17.9532
-14.0585
-12.4771
-8.11889
-6.1213
-30.8414
4.96779
-13.4691
-39.738
-4.37079
-3.27114
-7.62279
-2.1725
-66.2563
40.2844
-19.9772
-4.88398
-22.4303
-13.4943
-16.5765
-5.68295
-17.0538
-9.00105
-20.5258
-11.1575
-8.15366
-42.8483
-59.9743
-43.6023
-0.9812
-17.0921
-34.5174
-20.5244
-63.221
-24.7756
49.2605
56.4507
-31.0159
53.0101
-65.1052
-18.3186
55.7538
-29.0671
-40.9392
-28.123
-30.0796
-23.0973
-42.4948
-30.532
-23.5269
-35.0549
-21.3319
-28.9194
-61.446
56.7862
-16.2138
-49.9536
-62.3072
48.1143
-25.2152
-24.7286
-23.2888
20.122
-61.4416
-0.141602
-28.2458
-37.337
-23.381
-38.2569
-29.0709
-74.3545
-58.1818
-18.1236
-29.7596
-26.1697
-33.7035
-59.6427
-31.8356
-32.5041
-58.1896
-40.8771
-63.1488
-18.4715
-99.4975
-43.6288
-30.5742
-23.4976
-81.3097
-28.3444
-38.4374
-29.0287
-45.4429
-39.9088
5.43425
-35.9301
47.3935
-4.54443
57.2256
58.3031
-29.052
-29.1607
-28.9343
-28.5245
-30.7489
-27.5871
42.7249
-29.2212
25.8431
-30.8689
-31.5872
-31.2087
-33.8969
20.7611
-10.522
-28.3914
-28.6841
-28.615
26.1029
-22.3726
30.0473
-15.5179
-31.5424
-25.7952
-24.927
-27.8822
40.8727
-31.1242
-33.8831
-18.2698
-12.1834
-2.46217
-3.93105
-5.97152
-26.5109
4.05056
-2.42289
-12.4494
-10.246
31.501
-14.5477
-7.31914
-40.5744
0.197062
-37.1799
-28.5611
-12.0371
-8.77747
-5.705
-72.9342
11.4203
-30.3759
-29.6997
-28.8486
31.6058
-28.9861
2.02369
-28.6197
-29.6326
-35.6868
-27.3669
-30.6915
-28.6721
-4.67659
-2.88342
-18.1234
-0.362787
22.286
-24.9857
-31.9585
-6.68454
-32.4121
-32.5769
-21.2315
-32.336
-87.9731
-96.2353
-20.6528
-91.417
-82.9564
-30.0486
-30.2666
-28.1196
-29.76
-30.386
-28.7126
-5.22686
-26.2016
-25.9686
-31.9945
-6.47923
53.2206
58.4872
59.5846
56.2577
19.4975
17.2718
32.2928
35.5457
27.3914
-20.6475
-17.1382
-17.6079
-2.87918
26.5253
-15.8761
-19.8335
-15.9468
-32.9329
-17.0481
-9.64441
-15.2966
-12.7754
-37.616
-29.7573
-40.2842
-12.6413
-29.5748
-10.4437
14.8811
-34.0316
-12.6192
-2.01969
-11.3501
0.411227
3.24885
-40.675
-7.92508
-29.4516
-7.91727
-33.8616
-18.3528
22.3527
22.7733
-28.0879
-31.8533
-31.7914
26.6493
-34.5505
-30.8017
-20.363
-38.794
-27.806
-16.4641
-104.058
-17.7974
-16.7497
-0.773079
-33.7164
-8.35377
-6.84033
-24.2972
-2.21458
13.4921
-19.7702
-38.7788
34.3749
30.3593
5.04162
28.4919
18.938
-35.1278
-34.8425
53.1737
-177.92
13.0296
14.9056
-132.075
5.88708
-4.42079
32.9008
2.63686
43.6011
-64.2282
-71.5617
18.9258
-56.2744
-9.9115
-11.6416
-14.7168
-20.6575
-22.702
-24.1184
-25.0761
-18.7982
-148.613
-105.639
-59.7314
-47.8524
-28.3549
-9.74607
-56.0683
-45.7909
-27.2141
-31.8865
-17.0735
52.0553
-13.1043
-60.7337
-22.2475
-6.11331
-1.91951
0.507731
-53.2875
-67.4326
-44.1442
-56.0095
-65.938
-56.5009
-16.3622
-13.0755
-37.9137
-12.4023
35.8658
-26.243
-33.512
-7.50481
-15.2948
11.0243
-38.4816
-11.8895
5.70623
-23.964
-14.2427
-41.6873
-10.3997
22.0299
24.2306
-25.4203
-17.3618
-22.0222
-36.7356
-1.24624
-6.72554
-12.7088
-8.74451
-32.0068
-16.2899
-20.4532
-57.3027
-76.6175
-48.1225
-56.8581
-59.5598
-50.0362
-20.0925
-16.0348
-56.4321
27.1731
-18.0297
-17.3827
42.9005
36.9512
-20.9607
-16.51
-16.7305
47.9132
-26.7089
-33.5673
-17.9978
-43.8903
-18.1564
-3.63172
34.5725
-11.5181
-11.7219
-40.6232
-22.2344
-18.3982
-50.13
-94.0091
49.9638
53.994
-28.7387
36.6389
-36.1018
34.8774
-23.1576
-109.603
51.8971
47.9893
50.2389
-22.2681
-49.389
-11.1896
-19.793
55.0981
-25.2905
49.7256
-81.5175
-89.4606
-73.3533
27.9572
-25.1676
-15.8054
-13.301
-8.22448
-17.2764
-45.1655
40.5921
-14.5407
-3.44657
-36.0305
-12.4753
-5.46106
57.7398
-31.6179
-31.0895
30.0263
32.188
-5.11426
17.5059
-11.3221
-24.7305
-10.0836
25.0421
-32.5443
-51.2411
-65.8919
-8.53561
38.7212
-72.4402
12.6165
-1.68465
-30.3961
50.9562
-24.8274
-41.4906
-28.6184
-28.4397
-14.8183
-31.2859
-12.5861
-36.2132
-49.3955
22.6844
-0.545272
-5.7878
-4.50505
-11.1706
-37.9653
-48.8566
-27.6519
-13.9449
-10.4172
-15.9852
-17.0989
-7.40861
38.5527
-35.8514
-33.1198
20.461
43.1008
-45.226
-29.6999
-23.5605
-24.3671
50.6256
-34.4643
-99.7603
-31.345
-15.3739
-70.9168
-67.8447
-61.8993
-28.7539
-28.2427
-13.3304
-38.2769
-36.1688
2.72499
0.908906
-1.61053
-42.5098
-21.7489
-105.633
-68.8243
-28.8795
-27.9543
-101.731
58.8414
-33.0393
-28.6481
-11.2125
-31.557
-36.2835
-8.36409
-12.0854
-28.4643
-33.1821
-31.8817
-30.5338
-16.7873
-36.9605
-25.3388
-23.8855
-32.2691
-4.07519
-11.8908
-27.0473
-26.5493
-32.5696
-9.53748
-26.8291
-29.1719
-2.9233
12.3527
-28.4858
1.7298
-3.42788
3.15594
-3.98534
-28.8502
-2.01718
-29.84
-24.1158
-21.479
-88.5579
-37.6578
15.4297
10.5225
-23.9721
-11.8545
-29.0625
52.2742
-18.8778
-29.2944
-21.5919
-33.7766
-27.1019
-21.9383
-20.8694
-8.01051
-35.2505
-61.0384
-24.2867
-28.5766
-14.403
-35.9971
-9.55441
-5.70983
-22.8241
-16.3431
-33.7908
-25.946
-30.4131
-12.5677
-29.2665
-7.07936
-40.6294
-13.0796
-16.3358
-32.2051
-9.21539
-29.0674
-13.2261
-23.6219
-27.0094
-21.6834
-28.3814
-31.026
-3.62922
-11.1036
-37.9903
-16.4938
-26.5395
-67.7773
-19.6336
-13.1254
-32.6052
-20.5544
-27.7193
-33.8159
0.868544
14.1768
37.0407
-5.17118
-29.2325
-31.3642
-30.4713
-4.20481
-32.4593
0.0379177
-40.0784
-22.0287
-23.4843
-42.1221
-43.0205
-33.5516
-26.8167
-32.8708
-17.5013
-16.6132
-13.4399
-22.3528
-21.3162
-22.4975
-28.8322
-23.6512
-9.67393
-8.0601
-10.0342
10.7228
-29.2121
-29.5773
-22.075
-27.0279
-13.4355
-20.668
-20.2056
-61.7452
-2.01212
-6.98988
-22.9431
-15.031
-5.6068
-19.1793
-16.36
-15.0233
32.5905
32.2371
-17.3594
-28.0724
-50.7333
-21.4329
-22.197
-9.91444
-45.0804
-34.7691
-13.5549
-4.94351
-9.30163
-14.5557
-36.3793
-49.1047
-29.4073
-31.0875
-11.0382
-18.6286
36.6414
-113.656
-16.8709
-42.276
-61.784
-29.4376
-45.7581
-44.1868
-30.0134
-39.3908
-4.63981
5.28088
-12.0798
-9.98173
-2.86027
-54.6307
-35.4254
-2.8718
6.34789
-28.299
-6.45916
18.7552
13.8192
44.6398
14.594
0.0750765
-24.7637
-28.9792
-1.81386
36.2788
6.24402
8.27624
-29.6178
-46.8135
-29.1049
46.7458
-53.7583
2.5388
0.916214
59.3408
-85.3994
-32.9852
-29.1315
57.3932
38.7072
61.4601
53.5075
-34.3161
-8.69761
14.0186
-0.113333
-27.8703
-20.7053
20.3751
50.9891
-52.3451
-6.44756
-6.96872
-5.59014
6.22954
6.33044
-23.7347
-28.008
-5.91319
1.41019
-9.71326
4.16504
30.0381
-48.1575
32.0359
35.3356
-52.4034
26.0091
-1.88592
-9.42273
-7.75383
-1.74296
-11.4862
-12.4869
-30.2179
-18.3253
6.07722
-30.8567
-9.10025
-15.4317
-11.0301
-16.2084
-12.9427
-28.2039
-28.1371
-27.5096
-28.5624
-35.4572
-34.806
-29.6452
-15.3594
-62.6781
-25.5554
-17.0865
1.84293
-9.75898
-5.62275
-56.7216
-26.527
-39.5247
-11.1016
-45.4392
-34.1833
-25.9309
-8.14386
-16.1592
0.851615
-19.1488
-14.9582
-10.9867
-17.2296
0.264802
2.87731
-45.4069
-27.5064
-11.9817
-28.3302
-67.1221
-28.3562
-28.2387
39.0041
-32.4735
-15.5198
59.2885
-28.3221
-28.1382
-14.6245
-25.796
9.12641
-28.9221
-29.59
-29.8331
-27.1885
-17.961
-75.3873
-50.7301
38.222
-31.1181
-16.8518
-28.7397
-29.3097
-13.3037
-17.7083
-32.6189
52.2926
-22.0137
-63.7831
-65.4502
-84.7737
35.5079
-53.6417
-66.9327
-26.7885
-25.7604
40.5641
-32.2764
-21.4214
39.4553
-37.3198
-35.94
-24.9302
-49.152
-36.725
-39.2132
-44.6038
-31.7987
-24.3333
-34.2971
56.8123
-30.2685
-28.796
-28.8671
-28.2157
-27.5114
-9.82043
48.4528
16.1456
-9.31126
-5.24973
-22.0779
-12.1144
-23.8149
49.522
-28.1354
57.2205
59.7069
59.3261
42.0548
-18.6259
-45.9222
-21.3015
33.4185
-43.8209
52.2687
-5.67176
43.2455
-14.4585
-9.91875
7.91453
-14.8799
33.4641
16.6401
35.226
-10.543
59.0243
34.5594
22.8436
28.7148
-46.1567
-52.2925
-71.0994
-66.3131
-16.4508
-68.4102
7.23112
-67.1703
-66.2071
-88.0547
-63.1576
-26.9479
-30.7007
-65.7936
11.7642
-65.1723
-64.8457
-28.846
-23.092
-31.5511
-22.8758
-76.868
-2.64608
-60.2877
-13.9348
-9.80721
-16.7221
-37.0588
-37.1625
37.0263
-14.0437
-36.9111
-9.8521
-15.1431
-26.9317
-27.984
-32.8627
-26.2826
-38.3332
-31.2441
-5.81033
-10.4092
23.6851
41.3981
-11.6905
-12.7951
-15.4031
0.575816
-14.0572
-34.9208
-29.9088
-28.8753
-13.9196
-18.5455
-29.415
-63.0887
-9.69857
-33.8238
-16.7046
36.7272
-50.9896
-1.61691
-6.51922
-2.38932
-4.57845
-29.7882
-3.00823
-10.941
-10.4292
-62.8821
41.1933
-28.2528
40.4798
-7.43557
18.4647
-14.2615
-23.9752
-25.7684
-20.0455
-20.2954
-30.4388
-15.0183
-14.7294
-41.8149
-29.3365
-46.9314
-31.7612
-0.189047
-14.3851
2.60035
-30.3003
8.9915
-24.2384
5.31912
-52.9331
-15.2256
-4.84115
-13.8177
1.0041
11.3667
-7.87886
-33.6226
0.0688461
34.4813
28.4808
-1.4382
-16.0529
5.46196
-43.3322
-47.418
38.4985
-67.8423
4.80763
-24.1332
55.084
-17.4963
3.79273
-6.60905
0.028591
-13.0246
-24.272
0.563803
-36.916
-44.5137
-35.0086
-65.2268
-54.3643
-60.2062
-30.2434
-22.552
-5.84571
-28.6286
-28.3572
-26.9043
-30.1135
-29.0638
-13.6594
-38.2073
-5.33181
-28.7279
-29.1165
-29.4767
-154.546
24.2415
26.1806
38.5608
59.5334
22.4746
2.8925
-9.43696
-6.4251
46.5358
45.0242
-31.4299
53.9586
22.8439
-80.4778
-34.5111
7.22961
-52.6192
-36.02
-18.7139
-18.4601
-2.92075
-5.9288
-32.5654
30.1652
-28.1841
11.4308
35.1264
-45.7073
-4.97344
-57.3862
11.2805
-23.8131
-30.9089
-29.2648
-5.71173
-63.0397
-55.6916
-28.2129
-28.6791
-28.9164
43.0816
17.9641
29.8703
36.3192
16.2563
-6.30846
35.11
57.8466
3.55596
54.9422
-76.3723
3.84373
-10.3083
-6.98772
-3.0926
-30.028
-51.1184
-47.8688
-93.0358
-28.0159
-28.3818
-8.54475
-31.4863
-28.1538
-28.4388
-24.755
-50.8032
-37.6954
1.96823
-29.4112
-8.98082
11.4257
-3.67093
27.6256
21.5713
19.882
-28.4412
1.31508
-33.4912
-28.8214
-38.8129
-30.0021
-34.8978
-5.55748
-24.2972
-25.1622
-4.20952
-14.0438
-19.99
-6.26473
-36.3641
-18.3491
-35.5351
-30.3638
-35.9248
-28.4665
-30.0027
-32.3607
-2.63683
-35.017
-30.2613
-10.5715
-13.578
-14.884
-30.6402
-11.1191
-17.9348
-28.2042
-34.3666
-24.7981
-33.0468
3.06317
-0.541293
-37.7984
-13.7578
-27.448
-30.275
-29.0137
-28.8134
-6.44457
-11.336
-28.116
-3.67083
-14.8113
-21.5096
-34.1854
-37.7795
2.04422
-8.34024
-10.8247
-20.3964
5.15156
-11.6202
-32.8332
34.8237
-36.9993
-35.0887
-20.9069
-26.7289
-32.1062
-30.2297
-30.6166
-42.1696
-28.1699
-12.2324
-53.6334
-57.4083
-28.6709
-33.5582
-28.0773
-18.0117
-11.7015
-29.4018
-29.4263
-29.0406
-29.5151
-29.1275
-28.8616
-27.8887
-28.5405
-28.6418
-28.5728
-28.4652
-29.0161
-51.1197
-60.8737
-50.2732
-46.254
-61.4528
-29.2678
2.88952
0.768068
-0.244472
-22.5056
-19.6193
46.6776
47.8991
40.2828
40.0008
47.0669
44.2431
53.2007
-42.4494
-35.772
2.56468
-41.3152
-23.0203
-24.5333
-44.4493
-18.3314
-18.3217
-14.9738
-19.9218
7.79094
-4.23291
-75.1364
-59.9482
-1.50012
-53.9036
-37.3077
-31.1117
-29.5543
-25.7074
-29.0668
-11.4967
-20.0443
-15.5859
-29.2021
-28.6699
-28.6441
-28.5366
-30.2801
-18.8043
-8.02879
-16.7532
-22.3037
-13.2165
-17.7487
-34.5363
-101.64
-43.5036
-18.3734
-21.0233
-50.2946
-38.7704
-32.1678
52.0085
23.3574
-5.34248
-38.3732
51.6343
-29.4644
55.9487
56.4466
54.1893
-23.3598
-42.074
-35.2585
-41.2117
-26.2338
-18.4366
-40.5898
-17.3705
-20.2525
-19.7959
-54.3645
37.783
-15.3741
33.9137
-38.7379
-58.2218
39.082
17.6413
2.89412
-28.9156
-26.8928
-29.7622
-28.9949
-33.0213
-32.3489
-14.7879
-6.00457
-26.535
-10.4011
-15.5231
-42.4803
-35.3875
-60.4319
-19.7329
-28.2295
43.2016
46.9917
53.9231
37.1543
43.9707
26.8165
6.92572
2.87764
6.96508
3.80612
31.3811
13.8957
22.6554
-8.97056
-18.8902
51.3807
37.5405
36.7099
42.099
-8.01353
43.129
53.5725
48.5742
46.45
-30.295
-30.4187
-30.3053
19.7275
-10.5962
-6.70298
-11.2211
32.1108
34.5741
39.4224
-28.987
-29.4708
34.9892
54.8695
-48.7981
52.4231
56.8297
-29.1328
34.7967
18.4307
-120.432
-165.633
-18.9231
-97.3948
17.5566
32.614
-84.4093
-16.8933
-15.7923
-60.4615
-63.6471
-28.9724
56.4797
-31.0272
-46.4384
-3.10801
-32.2218
-32.1284
-35.6129
-30.6015
-26.5172
-32.2478
-47.2551
-87.991
-27.8007
-73.0143
0.368183
30.5193
-38.2054
-47.9219
46.7356
44.4169
29.1125
-28.3415
-38.0181
-36.9678
-35.7882
-34.5574
13.556
-23.9548
-18.6148
19.5794
-29.2449
55.2197
-30.4153
-29.8196
-27.9639
-29.1554
-31.4827
-29.4816
39.53
-49.1029
-3.77887
18.493
1.59117
-21.5855
-104.98
-31.9729
-31.0557
-60.5542
-68.9845
-64.6118
-29.5969
-37.7577
-18.3419
-37.2968
-88.3079
-29.2842
-29.6528
-35.5726
-29.4431
-29.456
51.5451
55.8234
28.9057
29.8604
52.3794
51.5347
-25.5836
-22.7468
-28.9587
45.0615
57.5084
-11.1397
-8.62434
-6.99072
-14.798
-0.695019
-27.3441
-24.5698
-23.1047
-17.1787
-24.9409
-22.718
-14.3547
-20.3428
-25.8733
-28.0195
-8.27152
-20.6833
-29.6391
3.94992
-4.27935
10.4601
-22.002
-29.1663
-27.6211
-36.7286
0.0976461
-29.806
-26.5896
-24.82
-22.9466
-26.5469
-26.4064
-27.086
45.1185
-15.5939
-15.6977
-16.264
-11.9046
-29.0467
-25.8277
-40.8523
-23.2309
-23.8889
-9.7606
-28.5291
-22.8788
-30.5587
-27.2839
-24.5096
-36.0346
-20.056
-31.2201
-69.0168
56.3266
44.0211
-28.1921
45.8255
-27.7646
-28.6293
52.2996
-5.30483
-53.4117
-28.894
-4.63419
37.019
39.8081
47.6503
55.4878
51.0804
-26.6218
-43.8556
-13.7742
-7.78694
6.14462
1.38279
-27.9579
-46.5233
-61.0892
-48.2602
-44.1138
-23.8547
-15.9909
-28.012
-28.3726
-29.2457
-28.8959
-30.0813
-29.5292
-12.1136
-11.9279
-18.8672
-11.4764
-7.50337
-15.2715
-22.0265
-25.9096
-24.5935
-11.3395
-20.3751
-28.4708
-29.5639
2.53748
-22.3351
-48.5236
-20.6716
-18.5204
-42.2479
59.3245
48.4925
-15.4434
30.1534
-7.47665
19.2933
20.2535
-21.1877
-0.47786
-13.3061
-14.4323
-24.4513
-38.7982
-47.1812
-34.8849
-28.0961
-27.4951
-52.7484
-21.4779
-8.41512
-30.3542
-69.3646
-75.134
17.3673
13.8799
20.9706
-33.49
-53.8799
-21.8059
-36.4654
43.6839
56.4333
43.8353
21.5156
18.5705
59.8486
-5.58492
-14.6154
9.70467
16.4608
25.5538
47.1093
-52.0972
-7.69515
-26.3282
-17.715
-22.5464
-19.2333
-22.3538
-23.899
-19.051
-17.7461
-36.431
-8.28537
-2.63589
-30.3669
-16.2505
-65.6075
-63.5817
10.187
46.5043
43.9335
-12.0937
-41.4771
43.7581
10.1625
-18.4291
13.6968
-21.9409
-19.0115
-45.8143
-17.0071
-13.8643
-15.8349
49.48
-46.4223
-55.0336
-27.134
-11.8071
-41.3037
-26.0697
-38.5837
-29.9078
-57.0346
-29.7038
33.7213
33.0586
46.8413
43.3212
45.2875
42.1468
-72.8853
-23.5491
-32.3835
-13.6878
-27.2335
-42.3478
-25.2487
-38.057
-16.2142
-42.4691
-31.5391
-18.8139
-3.47355
-23.1699
-14.3805
5.80817
4.89728
2.10423
-29.8126
37.5947
35.2729
-82.0884
32.9529
-1.03189
23.9648
39.7368
-28.7508
-23.5818
-10.327
-32.6227
-33.6718
-10.1211
-15.2381
-29.4962
-29.5092
-37.2151
-68.0209
-52.7401
-74.203
-24.4769
-46.5639
-69.0146
-12.0611
-10.4914
24.2219
55.4673
-29.4101
5.88494
-28.3426
6.90818
-2.14211
1.98072
41.0502
-66.5774
-26.5941
-27.3665
-20.2233
-35.2126
-27.979
-24.1653
-31.0174
-26.7207
-12.6778
-18.8816
-20.8357
-10.3418
-38.6031
-35.1066
-29.4173
-29.9284
-25.2214
-29.2488
-30.081
-29.3563
-28.5348
-29.1203
-23.5657
-13.1067
-18.2865
-20.0831
-32.4459
-17.8949
-28.0122
-6.31581
-10.9715
-10.5091
3.23229
-4.53438
-8.20464
-1.17204
-1.78596
1.43469
-31.7063
-2.30917
-35.0576
-28.5984
-11.6989
-7.32669
-12.0926
-21.2613
-36.5793
-13.8945
-11.9565
-41.3913
-30.9022
-30.2058
2.89746
-27.8095
-28.7666
-25.2429
-37.3792
-25.6205
-21.1424
-35.2671
-24.8606
-29.3107
-11.8471
-17.7583
-35.0943
-26.3313
-10.94
-34.7406
-32.4267
-24.4903
-21.5243
-29.1871
-35.7388
-21.8494
-9.3192
-12.4806
-27.3109
-30.8446
5.33405
-28.2314
-28.0575
-29.2582
-2.6422
-43.3509
-77.977
-59.0918
-2.5551
-17.8383
-37.3284
0.361045
-8.42077
1.34022
11.1988
-28.354
-15.3029
-89.4097
-66.7632
-18.864
-28.9969
-28.4068
-35.4609
-27.1618
-31.0724
-30.8951
-34.9913
-31.5981
-30.6864
-29.9884
-25.7432
-32.3593
-18.5451
-44.1378
-6.52264
-5.24603
-25.6547
-49.3882
-7.87559
48.4116
-59.7359
-125.61
-60.9018
-28.1689
-11.5414
63.3695
10.8439
-28.2367
-27.1065
-29.6214
-28.1696
-29.434
-28.9074
-29.8485
-29.2531
-41.5162
-11.0978
-29.2072
-29.1548
-29.9429
-3.40143
1.29872
-4.37025
-50.4028
-30.1392
-178.313
-34.693
31.2438
-28.6885
-28.7274
-29.1502
-35.2824
-29.6614
55.6613
-38.4653
-28.0936
-40.8372
-28.1231
-29.2897
-33.2899
47.2819
-31.2654
-7.86941
-6.23663
-2.61789
-15.5828
-3.52747
-5.24855
-6.08698
-19.9296
-8.5029
-2.57659
-31.3846
35.4864
-28.4831
-23.6475
-32.9543
-32.4851
-23.8983
59.6344
-6.26881
-38.2309
-1.23112
4.27273
-4.496
-31.233
-18.6587
-68.235
-43.4987
-63.9082
-43.869
-84.3027
-27.6921
35.3011
-31.2471
-7.50306
-46.557
-35.0891
-46.7828
-40.1924
-29.6098
-28.611
-28.8906
52.4801
-28.6896
-28.928
-57.5479
39.0366
-61.6044
-28.8892
-28.6216
24.3156
-26.8639
-35.785
58.7729
-34.1617
58.865
59.9751
-28.0727
-36.0337
34.56
-38.1032
-29.2149
-29.3228
-27.6491
-28.6048
-23.3598
-31.0128
-26.9525
-28.9586
-71.3804
-67.3694
57.137
-61.9563
43.96
-30.2519
-17.0306
-12.3488
-31.4279
-28.3547
-28.6431
8.31481
4.13037
-1.62857
4.31245
8.7914
6.26074
-26.4114
-64.4597
-68.0279
-30.9666
-124.654
-29.3109
-28.0365
-26.7082
-29.9299
-31.8715
-30.3522
-28.9392
-30.294
-30.0665
-29.9999
-28.9329
-8.53648
-29.5619
-30.1523
-28.8454
-29.7893
-29.5098
-29.6686
-23.9976
-24.8893
-23.0112
-25.295
-36.5365
-33.2852
-17.7898
-18.0309
-13.4026
-7.41216
-19.7133
-18.253
-5.67512
-4.51579
-39.3991
-12.6759
-2.02566
-8.54043
-30.4799
-2.0901
-7.91463
-27.8809
-30.7908
-29.8758
-22.9455
-41.1762
-33.2901
-23.5865
9.00297
-2.59202
-30.3492
-33.7724
-30.0978
-29.6859
-13.7658
-14.9465
-10.0477
-62.7233
-90.0752
-15.7707
-4.80131
-112.602
-137.839
-23.89
-10.5949
-12.4615
-64.1913
-20.2154
-24.3304
-30.2763
-27.8746
-14.8929
-18.6138
-13.7357
-19.5048
-16.4125
-65.7509
-55.8485
-179.806
-42.7677
-38.3843
-46.7211
-37.6302
9.2391
40.2193
38.4084
11.903
-31.6427
0.951094
-21.1925
-19.6532
-28.4958
-28.9882
-27.8683
-31.7794
-29.4442
-21.586
-7.73006
13.5525
-1.63625
-33.3554
-40.3752
-36.5689
-11.5952
-9.20377
-5.51086
-22.729
-35.4252
-35.0179
29.9333
-14.7106
-23.0889
0.397416
-21.7478
-44.9618
-32.9409
-40.4576
-25.4395
-47.3331
-28.3054
56.2288
51.6281
56.7497
54.7018
57.2703
-22.5451
-2.99786
-4.95367
-2.23684
-4.85935
-36.3846
-38.5056
-176.92
-114.366
-4.35441
-49.4947
-31.6883
-22.9553
-22.6426
-0.766404
13.0372
-2.0606
-19.9781
38.863
54.8266
-9.96061
-9.10322
27.9669
15.2572
-34.7376
-20.0635
-45.2652
-38.0569
-26.9454
-18.1027
-23.7532
-27.5714
-0.362887
-15.2614
-35.4075
-23.6753
-16.2248
-16.6362
-10.6103
-15.678
-28.8007
-5.03655
-1.79262
-14.4493
-0.926535
-1.79101
-24.4981
-19.8045
-17.78
-170.993
-11.3553
-9.29236
-59.4772
-3.72796
-14.8176
-13.4137
50.1712
48.5548
45.0991
39.6821
0.668038
6.14903
6.37332
-2.44518
-5.46922
3.36212
-2.25239
3.40284
-161.154
-16.6973
-59.0378
-29.5394
7.87426
-20.2248
14.8757
6.25502
-14.5087
-57.6764
-13.1696
-20.1711
7.61447
-11.8754
-67.7447
25.4154
20.7538
38.4526
7.55439
30.086
-7.23781
-10.1332
-7.56707
23.9473
28.6005
23.7252
43.8574
20.5138
29.0964
30.2863
-8.4711
-3.41995
-10.6839
-23.5435
-3.19633
-19.7366
-20.5597
-24.1814
-46.4279
-17.7546
-19.0695
-15.6791
-14.8955
-56.8155
-69.6714
-119.67
-31.0713
-10.5635
-25.8129
-40.0452
-8.00743
-124.068
-80.9969
-64.985
-29.13
-7.31965
-1.22442
-4.45138
-10.8307
-19.5133
-6.58354
44.1359
-11.1911
56.5378
-3.69518
-1.26124
57.709
44.9058
46.272
-7.11244
-60.0759
-4.54937
-21.1662
3.34155
11.6901
-5.84276
-23.1151
-15.9735
-17.383
-30.4794
-33.695
-30.2046
20.9781
44.3189
46.351
12.9281
15.7899
0.157685
0.40692
9.6749
25.2318
-9.25549
-27.4679
-46.1126
-31.9786
-33.016
-31.8358
-32.8365
-52.782
-95.6189
14.9221
25.8526
-15.0431
27.4429
-16.6413
-34.7724
-5.69381
46.9589
-64.7389
-21.3854
1.32218
-125.037
-31.3316
-36.1778
-36.906
-39.3652
-40.3532
-38.5003
-30.0442
-8.16975
5.1114
-41.7293
-38.4756
-44.374
-19.3327
-10.7513
29.7135
-1.79803
57.5044
-38.8665
-37.6709
-28.2021
-5.0983
-1.2352
28.1029
24.7963
12.0532
11.1586
38.7305
-21.9232
-30.4111
13.2377
7.31526
2.33379
4.90078
30.2369
-42.9633
-35.4029
-28.4052
-23.4579
-23.7086
-29.3561
3.63245
-32.9391
-31.1716
-26.3732
-39.0769
-30.3841
-26.3123
-20.2783
-36.2242
-42.8298
-22.3759
-20.5123
0.36309
-16.2944
-22.0888
-30.0446
-28.7489
-28.8505
-29.064
-27.9556
-30.5852
-29.2106
-28.5492
-31.8489
-30.2513
-28.231
-14.2956
-20.4683
-20.5759
-18.0565
-21.3484
-4.97382
-3.54034
-24.3995
-13.4828
-14.8441
-22.5087
-30.9789
-30.3773
-26.9128
2.86581
-28.871
-37.614
-12.0687
-38.1996
-37.0336
-29.5316
-19.7726
-4.53532
-15.3673
-8.15996
-12.6303
-11.0291
-13.5475
-16.0788
-10.1735
-15.1178
-16.1287
-13.324
-13.739
-32.7049
-33.5957
-26.6495
-31.1248
-21.3381
-14.0577
-4.05366
-33.2982
-16.2668
-24.0473
-12.5323
-22.1385
-5.57777
-11.7853
-20.6688
-31.7883
-32.4622
41.2873
-41.4815
-45.1944
39.1211
49.0724
37.7987
-33.4174
10.2145
49.0494
24.9544
-16.7847
52.7809
-30.8148
53.3318
-31.3247
-31.0394
-65.1899
-63.1065
-29.2874
-47.5388
-61.5126
-40.3835
-28.6908
-28.4356
-27.071
-38.415
-27.3002
-30.3962
-9.84799
-22.8558
-7.01729
-30.189
-29.2467
-66.2269
-7.85556
-8.30993
-28.2557
-39.1844
-75.7685
-8.46642
-39.3067
-16.3788
-13.3402
-34.1065
-18.9004
-13.5528
-45.8097
-74.8334
-17.6065
-41.9574
50.9126
-61.5467
-33.9758
-24.9942
-25.1353
37.2037
47.2148
38.7424
39.9221
51.8866
59.1148
21.5935
59.4985
48.44
46.3444
-29.4685
-28.7875
-32.5108
-28.7403
-29.1819
-36.0586
-28.7531
-32.7796
-33.6878
-36.4255
33.7918
34.4833
33.7846
-29.8053
-29.2031
-33.1232
-22.3608
-27.4195
-13.9028
-15.0808
-19.6069
-7.55804
-12.566
-14.6189
-10.7192
-8.93179
-4.68254
-10.0834
-8.03322
-30.4195
-8.35981
-40.9389
-18.4554
-13.2994
-42.6999
-22.6991
-24.6399
-32.7061
-35.3524
-27.4813
-28.2321
-33.315
-6.17533
-31.8783
-20.6501
36.7371
-25.5274
-24.0757
-27.0302
2.55856
-25.0047
-19.2506
-12.3376
-17.517
-32.7949
-35.1554
40.4179
-22.8305
-32.0719
-47.9027
-45.4125
-29.2114
-30.2038
-29.1613
-33.7084
-30.7043
50.7757
-28.7265
-30.1661
-29.1178
-29.4487
-29.1167
19.2693
0.801499
-28.8684
-29.5268
-29.9747
-7.07426
-28.3154
-28.2803
-29.1685
-26.0503
-52.8536
-47.2447
-50.7785
-58.1829
-34.8779
-33.1745
-68.1953
-19.783
-16.2039
-36.9443
-43.7287
0.675927
12.0745
15.6481
54.3454
13.039
-13.1489
-18.2846
-22.8232
-2.01273
-14.7702
-3.80369
-4.28959
2.00587
14.4061
-29.0176
-31.1715
-32.141
-42.8582
-40.9633
-28.8696
-28.2336
-22.996
-14.4033
-14.9889
-5.95325
-13.2687
-13.9693
-22.3214
-20.7671
-13.6212
-11.2153
-5.9408
-40.3796
-38.9399
-36.0395
-2.8306
-22.3623
-10.8501
-13.6195
-19.9889
-11.8683
-15.4834
-18.9152
-12.1504
-14.8801
-5.74953
-20.1128
-31.2135
-34.3883
-50.115
-18.9298
-3.24263
-42.2742
-18.7977
-11.0593
-8.34411
-31.3118
-22.1362
-36.3276
-22.7392
-17.3213
-28.0031
-43.5576
-13.7379
-16.4985
-36.6037
-17.9783
-20.3376
-21.4111
-28.9467
-31.0298
-31.9946
-23.7523
-17.6432
-19.2845
-16.4603
45.8025
40.1228
49.6541
44.8221
-32.2845
-31.1906
53.7702
44.4004
53.6995
-12.3641
-1.67371
-15.3562
-14.9242
-21.9898
-39.3865
-35.9235
-124.169
-99.3595
-44.7179
-39.6115
-48.055
-39.1871
-42.8325
-52.421
-41.5774
-79.5224
-81.7698
-78.5668
-96.1072
-92.3624
-96.9581
-91.947
-96.2963
-105.014
-108.46
-13.9761
3.25319
-28.0945
31.5036
-28.2146
-34.4905
-28.4977
-36.7297
-42.8251
-37.6449
-29.862
-38.7637
43.741
-127.135
-125.816
-29.3379
-28.4507
-28.6715
-29.1088
-28.6906
-28.7124
-29.2705
-35.5205
-27.9451
-34.1843
-18.0334
-63.8571
-29.4102
-71.1167
-126.295
39.636
-30.2442
46.4597
55.3171
-28.7271
-28.6228
-29.977
-13.2805
52.284
-36.4808
-13.7167
-17.1904
-14.7323
-30.6432
-31.6732
-15.7925
-31.585
-4.24839
-45.6325
-28.9123
-29.1088
-29.425
-29.8497
-102.357
0.604373
-80.0111
4.30006
3.15946
-6.39148
-17.7682
22.1043
25.7744
-34.3207
-36.4434
-10.7193
-28.3675
-29.6213
-27.8017
-28.0712
-28.0729
-31.8944
48.1603
44.7673
-30.4104
-16.9955
-21.7642
-15.2627
-16.4045
-14.4587
-26.7562
-30.348
-32.684
-33.155
-6.44592
-41.6226
-13.4805
-26.5121
-44.1081
-5.9833
-13.8525
-6.36877
-15.4171
-27.3513
-33.3128
-31.5104
-30.9208
-43.5164
-7.33199
4.59788
-16.1007
-11.5277
-20.538
-15.3816
-11.8989
-7.8531
-11.4369
-16.027
-52.1366
-41.3775
-39.4585
60.0702
-19.9894
-31.8535
-36.3468
-27.5579
-28.2423
57.137
52.7564
53.1515
56.9023
40.7596
38.9828
-30.6829
2.08836
51.1343
-29.7554
-17.9445
-38.8299
-36.7449
-19.9256
-7.29922
-27.0212
-19.3056
-49.9184
-37.8506
-53.7743
-36.3688
-54.3596
-39.8673
-64.7152
5.551
24.9426
10.682
-72.6592
9.89933
17.8266
-5.35666
-17.4632
-60.522
-30.4247
-37.0464
-37.0657
-70.4868
-27.0141
-46.7321
-21.6187
-63.4996
4.02397
-61.7167
-48.3693
-189.858
-134.547
-28.0204
-8.27164
-89.5061
-23.2264
-26.3105
5.50598
4.25623
53.4862
48.3696
33.2544
-61.6281
-86.3062
-47.6994
-20.8411
-10.0668
-22.6257
-14.3545
-30.4453
-10.3149
-32.3678
-49.9145
-40.8192
0.760002
-58.2838
-57.8775
-48.8884
-29.6141
-38.938
-77.0304
-72.3337
-65.1404
-26.1321
-44.6981
-14.4953
-25.9655
-38.1349
-16.8143
-13.043
-7.10622
-9.13716
-10.6424
-21.3733
28.5807
42.1747
48.5923
-24.6267
-15.5103
11.0569
33.422
42.7169
14.7757
41.4437
1.09622
-46.4151
-39.0076
-1.80093
2.02462
-20.9105
32.873
-30.1433
4.06808
-15.1044
-8.02742
-16.6584
-67.2616
-105.581
23.1024
48.8301
44.1995
-9.2631
25.4964
38.4147
-33.6023
-27.5696
-27.1773
-75.3566
-90.5462
30.6258
16.8606