/*--------------------------------*- C++ -*----------------------------------*\
| =========                 |                                                 |
| \\      /  F ield         | OpenFOAM: The Open Source CFD Toolbox           |
|  \\    /   O peration     | Version:  2506                                  |
|   \\  /    A nd           | Website:  www.openfoam.com                      |
|    \\/     M anipulation  |                                                 |
\*---------------------------------------------------------------------------*/
FoamFile
{
    version     2.0;
    format      ascii;
    arch        "LSB;label=32;scalar=64";
    class       volScalarField;
    location    "0.0595072";
    object      k;
}
// * * * * * * * * * * * * * * * * * * * * * * * * * * * * * * * * * * * * * //

dimensions      [0 2 -2 0 0 0 0];

internalField   nonuniform List<scalar> 
47425
(
0.305866
0.339539
0.316156
0.320858
0.474677
0.323116
0.430875
0.328765
0.366888
1.27895
0.336732
0.327133
0.368134
0.316989
0.311653
0.334984
0.313955
0.346712
1.10592
0.539388
0.323474
0.313701
0.326536
0.318496
0.313378
0.306872
0.305098
0.851149
0.303122
0.307951
0.320824
0.322415
0.356132
0.306877
0.305849
0.323406
0.313344
0.363341
0.313214
0.321061
0.363994
0.475607
0.918409
0.378401
1.51329
0.352005
0.33326
0.350702
0.310173
0.306535
0.802643
0.621965
0.305188
0.836478
0.371077
0.366006
0.307392
0.306371
0.430292
0.315332
0.892843
0.856088
0.899987
0.330888
0.364462
0.312777
0.3415
0.367445
0.795727
0.322498
0.311253
0.301546
0.307176
0.317336
0.91838
0.368709
0.921126
0.315056
0.841358
0.533794
0.931604
0.317939
0.316857
0.348669
0.316544
0.321356
0.303937
0.303813
0.533578
0.619983
0.317265
0.34231
0.310615
0.369547
0.381591
0.366502
0.309375
0.305287
0.313076
0.357663
0.335379
0.438371
0.316923
0.460797
0.309898
0.372183
0.308797
0.321525
0.375619
0.319646
1.18425
0.32506
0.428873
0.352796
0.334719
0.837159
0.330058
0.647422
0.339989
0.33514
0.322587
0.362699
0.34359
0.350656
0.351346
0.396697
0.326173
0.364887
0.354377
0.310813
0.318563
0.331275
0.509901
0.351066
0.470068
0.350724
0.319273
0.40269
0.314347
0.313401
0.354073
0.371027
0.33581
0.462368
0.333577
0.366223
0.442492
0.340327
0.363628
0.361616
0.465363
0.806633
0.360301
0.816265
0.338823
0.327904
0.350237
0.943873
0.355136
0.331905
0.339514
0.307642
0.305656
0.317665
0.754324
0.865045
0.338823
0.931416
0.338853
0.89458
0.989731
0.353105
0.353858
0.32691
0.351499
0.384905
0.860604
0.302351
0.305688
0.309996
0.861047
0.302546
0.302594
0.309781
0.308171
0.337359
0.3139
0.427774
0.353991
0.302848
0.357978
0.306774
0.432282
0.365297
0.310999
0.320167
0.360532
0.327894
0.333293
0.297034
0.336316
0.36524
0.341884
0.322702
0.340983
0.377102
0.302254
0.318089
0.349544
0.3619
0.306845
0.309558
0.352195
0.31546
0.311495
0.312238
0.307381
0.592346
0.344504
0.3552
0.548083
0.290594
0.58474
0.306781
0.399297
0.527417
0.310214
0.326844
0.358695
0.391934
0.308284
0.320733
0.346831
0.36937
0.369421
0.325452
0.575386
0.338959
0.537519
0.368159
0.338579
0.301262
0.30742
0.315752
0.311454
0.362572
0.312605
0.357579
0.306551
0.312957
0.310096
0.513708
0.315903
0.365695
0.31939
0.307962
0.314507
0.364667
0.311731
0.357616
0.381224
0.352268
0.317069
0.363314
0.378814
0.351977
0.309694
0.376144
0.306972
0.329102
0.321198
0.523666
0.573973
0.308145
0.513765
0.375354
0.515246
0.462694
0.559119
0.554275
0.956392
0.303715
0.925414
0.3671
0.319305
0.309615
0.355658
0.324736
0.365343
0.347989
0.787803
0.328226
0.371308
0.307418
0.312384
0.330134
0.330296
0.309525
0.321272
0.369641
0.337425
0.305218
0.331665
0.307838
0.881342
0.868664
0.819943
0.308924
0.3052
0.312314
0.327631
0.813936
0.32448
0.333112
0.587282
0.346401
0.345872
0.371565
0.321516
0.653143
0.561635
0.317809
0.313769
0.302798
0.340899
0.306741
0.31757
0.306297
0.30534
0.308669
0.307016
0.899576
0.333603
0.311834
0.383812
0.309052
0.863338
0.322209
0.304867
0.310694
0.318752
0.318887
0.305803
0.315003
0.302613
0.30894
0.308416
0.315674
0.313499
0.342382
0.320402
0.311686
0.324963
0.316945
0.32078
0.347014
0.327505
0.3156
0.317634
0.360284
0.358896
0.345394
0.329407
0.324509
0.308213
0.32608
0.369264
0.35845
0.328999
0.317809
0.363593
1.0522
0.308305
0.321986
0.385664
0.320015
0.428527
0.360155
0.364438
0.313389
0.357615
0.319036
0.30688
0.355253
0.349943
0.364514
0.326306
0.314177
0.349754
0.323663
0.320822
0.324143
0.330729
0.309448
0.313038
0.318771
0.322526
0.323475
0.401428
0.30583
0.660408
0.307096
0.890154
0.334465
0.367689
0.357054
0.308363
0.352398
0.305296
0.337825
0.32089
0.611586
0.872597
0.30599
0.340754
0.313815
0.313054
0.322087
0.318586
0.310844
0.359969
0.326847
0.307638
0.314963
0.321455
0.305641
0.448831
0.310672
0.319116
0.504746
0.550422
0.314296
0.637089
0.570638
0.357368
0.554568
0.767286
0.308374
0.311463
0.312818
0.310762
0.780118
0.335309
0.305075
0.309431
0.316177
0.316932
0.325763
0.310187
0.712974
0.763511
0.515302
0.356386
0.404944
0.494037
0.310868
0.317084
0.356404
0.316139
0.355192
0.363124
0.377802
0.316072
0.369613
0.316102
0.31066
0.339917
0.320727
0.318394
0.315529
0.348613
0.35767
0.370076
0.339182
0.314054
0.35051
0.316876
0.765018
0.362047
0.40187
0.345039
0.352962
0.824862
0.337739
0.307944
0.340547
0.35023
0.328346
0.336932
0.350496
0.302904
0.331292
0.305208
0.328893
0.454268
0.3044
0.354287
0.320943
0.366331
0.306454
0.30788
0.3087
0.31476
0.319264
0.334303
0.31445
0.306269
0.310024
0.32806
0.328038
0.340446
0.334899
0.307648
0.316229
0.298672
0.303681
0.314688
0.337243
0.31744
0.339754
0.363306
0.375394
0.778667
0.320265
0.313331
0.335297
0.365736
0.459126
0.46222
0.340439
0.31043
0.345756
0.43682
0.322252
0.469839
0.362383
0.862089
0.351609
0.35299
0.308666
0.461715
0.310883
0.313567
0.321878
0.322894
0.306329
0.301556
1.0407
0.310566
0.361859
0.310724
0.44234
0.303499
0.308434
0.42281
0.411902
0.321038
0.307231
0.284262
0.305303
0.318736
0.304862
0.30661
0.307191
0.383302
0.454616
0.324965
0.311506
0.322796
0.310161
0.532817
0.317812
0.317859
0.227192
0.318615
0.308619
0.319794
0.761846
0.31882
0.213755
0.232735
0.305044
0.347057
0.303792
0.313041
0.363384
0.344821
0.870231
0.316686
0.346801
0.306227
0.461289
0.378543
0.369539
0.322989
0.794914
2.4342
0.312053
0.328448
0.336866
0.32173
0.366008
0.377763
0.322675
0.331247
0.378948
0.297619
0.359425
0.477299
0.346728
0.312651
0.483357
0.342586
0.314736
0.328987
0.341606
0.30656
0.361923
0.373633
0.364439
0.343651
0.314031
0.310025
1.01146
0.323709
0.397224
0.847627
0.809247
0.310263
0.357762
0.75248
0.352144
0.426973
0.790226
0.376794
0.808227
0.308505
0.307258
0.354876
0.519341
0.38151
0.375569
0.304132
0.371963
0.311392
0.321802
0.306176
0.345929
0.325157
0.774726
0.712712
0.34377
0.344961
0.347824
0.322718
0.375357
0.351705
0.352427
0.36059
0.342854
0.327787
0.345836
0.354536
0.308498
0.395009
0.364484
0.87172
0.570718
0.344405
0.317547
0.360911
0.308106
0.87423
0.316479
1.0046
0.354548
0.443803
0.345275
0.327296
0.327864
0.302092
0.362793
0.315124
0.302241
0.39318
0.396479
0.368557
0.392454
0.357062
1.10497
0.345694
0.375663
0.372222
0.363677
0.307836
0.357374
0.328195
0.390659
0.341576
0.324788
0.359363
0.324715
0.334363
0.316361
0.312994
0.487238
0.563435
0.31003
0.449767
0.310767
0.329737
0.311305
0.307049
0.594581
0.300736
0.317889
0.319408
0.306879
0.682067
1.11518
0.322268
0.334698
0.308664
0.343806
0.302601
0.330146
0.331348
0.551389
0.330275
0.309019
0.323558
0.310345
0.317874
0.314687
0.304904
0.319138
0.309146
0.30493
0.335301
0.555038
0.307235
0.243647
0.619193
0.568591
0.253816
0.335917
0.971056
0.365374
0.340369
0.511933
0.275905
0.83245
0.340465
0.30756
0.472998
0.339985
0.56862
0.321503
0.348022
0.308183
0.313347
0.431626
0.349999
0.325978
0.344821
0.465456
0.38308
0.348381
0.37843
0.496736
0.473871
0.607985
0.887039
0.947467
0.626898
0.65783
0.363101
0.360804
0.313211
0.307885
0.345002
0.313181
0.333178
0.340569
0.351385
0.310842
0.318005
0.337502
0.309585
0.383706
0.330104
0.308909
0.36777
0.309394
0.314271
0.313925
0.347539
0.434624
0.309766
0.308891
0.309799
0.359083
0.351051
0.530363
0.445601
0.306315
0.345855
0.302803
0.310908
0.312279
0.348682
0.357518
0.493916
0.316746
0.311363
0.313238
0.404832
0.902713
0.325183
0.325167
0.407929
0.347956
0.343048
0.345594
0.333805
0.3768
1.65432
0.444467
0.870366
0.366857
0.403066
0.305943
0.400236
0.314002
0.336331
0.342439
0.315932
1.29435
0.442266
0.366667
0.487098
0.36718
0.302584
0.330946
0.408491
0.31499
0.349083
0.230847
0.311904
0.395545
0.371667
0.392429
0.724438
0.373585
0.367811
0.504784
0.313442
0.313151
0.445425
0.544348
0.332203
0.417204
0.458131
0.331138
0.324735
0.30945
0.333022
0.353775
0.351869
2.94878
0.680661
0.37472
0.547575
0.524361
1.39358
2.38123
0.52229
0.362415
0.360765
0.373542
0.37004
1.50032
0.312456
0.337125
0.37277
0.306723
0.33534
0.358616
0.358134
0.306521
0.383749
0.481836
0.363484
1.04332
0.307438
0.388627
0.376584
0.365704
0.357275
0.349892
0.374811
0.457333
0.355997
0.375848
0.474432
0.333058
0.315026
0.34287
0.42739
0.308869
0.41484
0.371473
0.368167
0.654843
1.05946
0.307306
0.363501
0.325742
0.361892
0.36129
0.680983
0.549697
1.54124
0.313927
0.373445
0.33227
0.943094
0.317173
1.62153
0.401412
0.381879
0.506915
0.598426
0.323971
0.309474
0.315666
0.328373
0.474842
0.326229
0.406949
0.982545
0.401077
0.307493
0.309624
0.694148
0.943696
0.516127
0.553244
0.945322
0.40105
0.356722
0.401565
0.314945
0.484059
0.371204
0.387048
1.18702
0.333021
0.308149
0.312556
0.357175
0.395461
0.372646
0.333156
0.323487
0.467063
0.312104
0.32989
0.308801
0.352852
0.366707
0.383697
0.350698
0.337857
0.319297
0.381416
0.312364
0.315162
0.326171
0.324121
0.3826
0.469929
0.34185
0.37327
0.31177
1.79694
0.380695
0.365581
0.33552
0.960703
0.672807
1.06892
0.347066
0.341153
0.339359
0.735017
0.389428
0.345115
0.382226
0.356673
0.359238
0.880966
0.365139
0.321203
0.362882
0.361338
0.305
0.592609
1.01803
0.314583
1.00339
0.342672
0.670676
0.585199
0.311514
0.347544
0.372315
0.624435
0.341015
0.34406
0.340059
0.761054
0.501795
0.62097
0.317586
0.328673
0.30823
0.319058
1.21405
1.24396
0.347221
0.369986
0.388263
0.745891
0.315499
0.3042
1.62433
1.16067
0.35595
0.321608
0.895276
1.35054
0.96305
0.370518
0.705665
1.11003
0.789326
0.324407
0.453554
0.44844
0.332861
0.345319
1.24727
1.38525
0.365072
0.374078
0.345844
0.322904
0.346079
0.330594
0.494745
0.330546
0.366939
0.310851
0.363348
1.01256
0.985524
0.323407
0.583027
0.440463
0.320627
0.527113
0.303515
0.339008
0.313955
0.343233
0.387954
0.308065
0.768971
0.314025
0.874087
0.654942
0.815817
0.404369
0.415867
0.339609
0.356289
0.321762
0.557165
1.13342
0.353726
0.939542
0.524931
0.80498
0.479305
0.908857
0.709197
0.329594
0.320779
0.943298
0.33675
0.321166
0.317127
0.734514
0.714348
0.316946
0.337951
0.639018
0.416481
0.995019
0.807445
0.353307
0.46555
1.04402
0.346789
0.331364
0.806414
0.319169
0.804931
0.831169
0.316811
0.310099
0.325729
0.309008
0.371413
0.314996
0.317674
0.362905
0.37282
0.480128
0.347061
0.326315
0.510388
1.02775
0.825746
0.355844
0.345979
0.554718
0.32203
0.995021
0.338264
0.347737
0.359876
1.56022
0.34444
1.93765
0.38566
0.512637
0.347347
0.782433
0.637229
0.680256
0.430944
0.553198
0.37845
0.363527
0.396931
0.592441
0.435375
0.465327
0.808294
0.388159
0.461855
0.919708
0.354562
0.312849
0.750494
1.88172
0.333337
0.339069
0.359344
0.379488
1.1348
0.988042
0.307233
0.325956
0.359144
0.778277
0.355946
0.601374
0.381653
0.346946
0.352603
0.480042
0.363527
0.622974
0.624136
0.349521
0.383967
0.442723
0.328152
0.9228
2.02037
0.341256
0.871969
0.851106
0.376772
0.78891
0.360615
0.370213
1.03917
0.37174
0.970378
2.08729
0.330306
0.376144
0.43626
0.365346
0.353225
0.397972
0.504407
0.412193
0.328044
0.397647
0.33156
0.866165
0.402065
0.358
0.373916
0.558342
0.315176
0.847201
0.734152
0.366219
0.827046
1.05106
0.30966
0.477542
0.544335
0.358578
0.347429
0.523229
0.726108
0.506722
0.814806
0.31626
0.774839
0.457189
0.3054
0.387941
0.368185
0.500419
0.342696
0.392793
0.616285
0.305503
0.587254
0.358463
1.39064
0.381077
0.303567
0.371326
0.535078
0.36548
0.675643
0.444903
0.328739
0.763632
0.31213
0.337055
1.16773
0.306326
0.377503
0.723733
0.343053
0.741167
1.38375
0.368123
0.408948
0.310911
0.909654
0.638051
0.849576
0.790453
0.417612
0.344817
0.431389
0.942391
0.986672
0.840909
0.353302
0.357557
0.355431
0.322901
0.378266
0.731097
0.349378
0.332468
0.345218
0.307875
0.3292
0.355235
0.324178
0.349144
0.362385
0.437474
0.313588
0.363217
0.577152
0.327638
0.311184
0.37512
0.354683
0.359422
0.307886
0.340605
0.337779
0.323968
0.375993
0.663763
0.340598
0.327658
0.312856
0.310099
0.532763
0.317504
0.317395
0.670529
1.18005
0.727353
0.323702
0.649798
0.477761
0.335257
0.613052
0.431413
0.592143
0.35918
0.321463
0.348213
0.394947
0.315347
0.365535
0.378088
0.363603
0.317379
0.316483
0.361269
0.514705
0.351727
0.418261
0.857923
0.346768
0.674706
0.404836
0.880724
0.304974
0.36262
0.354361
0.307822
0.324286
0.366194
0.308789
1.60466
0.581844
0.839505
0.374719
1.00563
0.310008
0.334392
0.525688
0.31568
0.803254
0.424314
0.629618
0.313466
0.974217
0.955488
0.318485
0.306797
1.0598
0.326019
0.847611
0.321121
0.362091
0.316368
0.312482
0.316933
0.332108
0.337255
0.626074
0.399526
0.387094
0.340733
0.32858
0.309533
0.357973
1.47768
0.363333
1.84423
0.56126
0.314931
0.373809
0.334452
0.330575
0.329129
0.36026
0.346211
0.362907
0.333232
0.299926
0.350525
0.359532
1.2696
1.5002
0.35253
0.357125
1.36357
0.341359
0.308987
0.309628
0.307885
0.348342
0.373848
0.400065
0.378194
0.335576
0.311228
0.402333
0.30533
0.298949
0.324198
0.73832
0.389673
0.84352
0.767339
0.834451
0.325379
0.313157
0.304113
0.306163
0.309223
0.64769
0.32907
0.306384
0.328952
0.356039
0.311437
0.477559
0.308351
0.373363
0.454292
0.33804
0.309296
0.315079
0.335642
0.336918
0.313788
0.342856
0.32453
0.507276
0.323936
0.35023
0.393493
0.323315
0.326938
0.311458
0.334961
0.314211
0.366386
0.390001
0.308664
0.303046
0.317045
0.321995
0.313349
0.357247
0.30781
0.31143
0.308324
0.326073
0.839573
0.322268
0.428311
0.303675
0.309853
0.733399
0.324209
0.36099
0.305639
0.316804
0.350251
0.368525
0.759562
0.372902
1.76652
0.308644
0.316302
0.357292
0.309818
0.30719
0.380736
0.336259
0.306454
0.307597
0.928903
0.434996
0.675722
0.36553
0.560076
0.368046
0.307221
0.38804
1.0322
0.357913
0.316433
0.316911
0.798629
0.311913
0.322024
0.337568
0.333214
0.330818
0.796166
0.314904
0.331098
0.347577
0.331595
0.36963
0.919315
0.817693
0.315476
0.310851
0.309756
0.367403
0.344462
0.305834
0.808368
0.980008
0.310269
0.351058
0.806016
0.319212
0.673359
0.456322
0.307563
0.312627
0.31363
0.319967
0.618948
0.337347
0.333475
0.328551
0.368354
0.323265
0.361543
0.593033
0.362927
0.49476
0.507734
0.469212
0.58836
0.355813
0.387721
0.39951
0.379196
0.342186
0.329086
0.833642
0.595015
0.377902
0.363719
0.360551
0.35351
0.339942
0.334354
0.309935
0.306528
0.357077
0.349973
0.501431
0.425655
0.887063
0.718828
0.339244
0.377895
0.320996
0.322796
0.365125
0.309208
0.329411
0.308274
0.308909
0.317353
0.296152
0.309013
0.328255
0.645532
1.02707
0.351971
0.30634
0.469014
0.506337
0.846091
0.325646
0.798973
1.86832
0.74435
0.858083
0.404384
0.308763
0.305729
0.360615
0.876602
0.305446
0.372717
0.341055
0.308724
0.684028
0.626619
0.602754
0.332521
1.37059
0.306023
0.314417
0.344962
0.345849
0.742528
0.815291
0.333421
0.443177
0.308244
0.376606
0.316843
0.920468
0.353682
0.883328
0.371912
0.875928
0.35363
0.494404
0.498583
0.553928
0.380213
0.382705
0.608443
0.352597
0.354015
0.404758
0.387493
0.360722
0.341629
1.27995
0.659536
0.334642
0.608275
0.789707
0.597341
0.318832
0.313185
0.822872
0.690717
0.793357
0.314821
1.07757
0.315262
0.865324
0.683858
0.625418
0.693438
0.30778
0.366171
0.312816
0.330381
0.330296
0.519924
0.424528
0.309407
0.307688
0.360792
0.330119
0.307596
0.309605
0.467644
0.309053
0.303633
0.33853
0.348409
0.432893
0.336301
0.370405
0.368444
0.313591
0.450932
0.446688
0.315315
0.317413
0.488335
0.624641
0.330148
1.54653
0.354678
0.432311
0.764735
0.400838
0.331012
0.308766
0.506031
0.328324
0.303346
0.372499
0.324557
0.314139
0.329305
0.313841
0.312354
0.321662
0.336791
0.322469
0.365372
0.695789
0.320638
0.326714
0.323365
0.332143
0.424812
0.912253
0.333227
0.31566
0.334678
0.582764
0.363688
0.33733
0.334623
0.864207
0.352334
0.383578
0.368189
0.408026
0.341263
0.354628
0.333586
0.524637
0.374213
0.360122
0.976039
0.33086
0.394775
0.349868
0.346684
0.353739
0.391003
0.326894
0.336855
0.313769
0.355617
0.327988
0.350866
1.78998
0.315785
0.420814
0.376037
0.344357
0.678715
0.365854
0.48779
0.364156
0.582655
0.654629
0.340643
0.31426
0.394599
0.3928
0.346393
0.314626
0.803483
0.465283
0.379173
1.57698
0.504859
0.32115
0.512003
0.536007
1.27591
0.781938
0.395888
0.545766
0.412009
0.568174
0.482625
0.890928
0.299452
0.454536
0.325415
0.62144
0.368206
0.401416
0.362624
0.359917
0.34669
0.379876
0.616725
0.333492
0.365839
0.410274
0.507108
0.781929
0.421761
0.753615
0.356579
1.05937
0.373333
0.374645
0.842598
0.558199
0.720993
0.66619
0.658528
0.561891
0.34279
0.33186
0.334566
0.388006
0.365812
0.78812
0.359101
0.373463
0.317631
0.487256
0.358342
0.314679
0.875937
0.458664
0.518042
0.239977
0.407541
0.342323
0.355973
0.357748
0.38817
0.320318
0.301682
0.344589
0.401122
0.227043
0.215664
0.535525
0.358995
0.373297
0.423519
0.461192
0.375805
0.360179
0.360024
0.191619
0.370624
0.40372
0.225048
0.371165
0.834561
0.599044
0.342781
1.11308
0.388727
0.48173
1.88059
0.392122
0.374828
0.318834
0.656925
0.310671
0.310844
0.36134
0.369865
0.389459
0.341004
0.56027
0.356732
0.484904
0.319765
0.377808
0.364285
0.305926
1.21754
0.537753
1.05169
0.511248
0.306213
0.919536
0.493678
0.311164
2.65117
0.312772
0.308563
0.475796
0.473365
0.982365
0.745589
0.352504
0.69609
1.66957
0.342569
0.608386
0.991245
0.556928
1.49982
0.383254
0.332052
0.599117
0.672836
0.387139
0.965696
0.363216
0.337119
0.528918
0.363012
0.317878
0.369903
0.785512
0.735078
0.304023
0.52143
0.319478
0.379879
0.342759
0.376887
0.589373
0.432133
0.771487
0.351417
0.36068
0.75017
0.310787
0.323463
0.457789
0.314189
0.351434
1.0819
0.339604
0.911696
0.824576
0.844919
0.797694
0.376378
0.39721
0.306287
0.304666
0.422124
0.31259
0.319945
0.39317
0.320865
0.414131
0.925071
0.312311
0.526407
0.31922
0.47407
0.367706
0.86861
0.36058
0.464322
0.317382
0.331029
0.404572
0.314077
0.335338
0.324668
0.308376
0.534888
0.320964
0.370259
0.362753
0.324022
0.359656
0.344202
0.370421
0.717995
0.33838
0.318528
0.324916
0.390525
0.206044
0.649695
0.48028
0.683059
1.02185
0.379282
0.429221
0.127813
0.28753
0.894495
0.407598
0.54146
0.383519
0.742798
0.710883
1.31582
0.363825
0.33604
0.541155
1.18447
0.348721
0.385023
0.454859
0.425649
0.413826
0.404715
0.879857
1.40254
0.261309
0.378096
0.200035
0.346657
1.16145
0.331916
0.35146
0.322781
0.315008
0.447487
0.323065
0.589725
0.470435
0.322062
0.379616
0.318036
0.549472
0.630039
0.331778
0.427882
0.363513
0.875035
0.451607
0.352617
0.534065
0.524773
0.306861
0.314309
0.354395
0.312986
0.660895
0.314155
0.435407
0.603091
0.326571
0.344699
0.320316
0.320599
0.602753
0.387282
0.520364
0.311842
0.313826
0.547898
0.706645
0.316693
0.337812
0.315948
0.314867
0.629041
0.443651
0.796271
0.346004
0.314717
0.447615
0.388351
0.34699
0.318273
0.379026
0.374344
0.545607
0.436847
1.80866
0.408187
0.416345
0.316393
0.37077
0.84308
0.992539
0.39363
0.864904
0.355034
0.97866
0.421213
0.724162
0.467663
0.523122
0.391311
0.32981
0.360598
0.414748
0.557811
0.354352
0.365305
0.97253
0.374529
1.38193
0.373246
0.343038
0.369803
0.582324
0.415575
0.315094
0.867515
0.310853
0.328369
0.311177
0.359733
0.813089
0.482695
0.330652
0.51245
0.346242
0.344173
0.316453
0.330938
0.417136
0.401248
0.407044
0.350005
0.328893
0.398326
0.340942
0.306179
0.400342
0.358865
2.55281
0.368539
0.457408
0.348776
0.401015
0.354225
0.417342
0.307241
0.357241
0.339869
0.339272
0.369568
0.829389
0.306872
0.667783
0.58154
0.39126
0.379798
0.351487
0.382512
0.441651
0.657898
0.318404
0.341439
0.347663
0.495434
0.3799
0.308184
1.24094
1.28315
0.6494
0.309757
0.315769
0.501752
0.353079
0.353643
0.501476
0.364427
0.331785
0.36075
1.24363
0.314753
0.57016
0.311872
0.332359
0.422891
0.329924
0.381694
0.45256
0.316002
0.586172
0.402619
0.396401
0.443073
0.933706
0.321825
0.359953
0.363194
0.390414
0.352709
0.358684
0.304968
0.303924
0.374466
0.582963
0.37388
0.358063
0.952371
0.372525
0.611088
0.358365
0.383028
0.392735
0.343754
0.778085
0.348199
0.509255
0.364391
0.355022
0.34255
0.388385
0.56386
0.447301
0.323975
0.621285
0.376931
0.689303
0.749745
1.19415
0.320821
0.45209
0.37769
0.231803
0.387653
0.248546
0.437322
0.222242
0.39155
0.760135
0.398182
0.621462
0.682963
0.359649
0.228815
0.46201
0.962311
0.52176
0.666886
1.60263
1.74683
0.711769
0.813999
0.320549
0.351421
0.74388
0.387618
0.924346
0.370839
0.778421
0.768481
0.335255
0.364431
0.329796
0.307594
0.354183
0.307047
0.721143
0.387611
0.361761
0.551374
0.325713
0.355594
0.308471
0.335408
0.352891
0.348721
0.39107
0.308355
0.407459
0.906057
0.311052
0.319758
0.346489
0.317111
0.760959
1.00351
0.392337
0.42357
0.538544
0.31054
0.299961
0.339686
0.360022
0.327457
0.334354
0.321686
0.315869
0.4371
0.315592
0.361074
0.331051
0.310114
0.313435
0.906832
0.325914
0.342194
0.314005
0.427808
0.353272
0.346073
0.691614
0.405289
0.337228
0.38546
0.342819
0.368653
0.386776
0.368343
0.321146
0.377152
0.36305
0.327657
0.348641
0.351112
0.431995
0.452008
0.331824
0.336934
0.399029
0.42622
0.475174
0.565123
0.913189
0.919719
0.340376
0.315295
0.955641
0.527059
0.552677
0.321571
0.3106
0.332783
0.305778
0.329126
0.314629
0.318899
0.346454
0.312494
0.318694
0.31498
0.321247
0.314323
0.53488
0.371925
0.34443
0.320142
0.322887
0.617075
0.311084
0.316304
0.396388
1.05073
0.54331
0.374183
0.362238
0.323948
0.359005
0.466953
0.672389
0.400017
0.328431
0.363797
0.327505
0.326501
0.364245
0.429919
0.361404
0.321311
0.394496
0.400471
0.61437
0.390775
0.748496
0.575772
0.38412
0.38781
0.328111
0.338486
0.372383
0.305626
0.3265
0.600546
0.324246
0.345152
0.712291
0.348484
0.366969
0.51146
0.389943
0.318892
0.351078
0.318993
0.351318
0.729697
0.349515
0.424775
3.06839
0.579834
1.0794
0.8371
0.32822
0.337411
0.526787
0.31282
0.551967
0.488689
0.690525
0.369858
0.310481
0.788736
0.309371
0.54111
0.41146
0.320397
0.717378
0.86089
0.309036
0.318546
0.892826
0.308395
0.31533
0.31452
0.310491
0.345468
0.567248
0.577432
0.337633
0.803119
0.328987
0.334139
0.320278
0.865392
0.333129
0.904591
0.311667
0.351619
0.313713
0.428456
0.335146
0.503608
0.312119
0.655678
0.469196
0.470768
0.701159
0.333513
0.33011
0.888489
0.441401
0.343482
0.41369
0.664131
0.336556
0.422697
0.325241
0.5888
0.401581
0.317277
0.307864
0.453067
0.324809
0.381095
0.347876
0.309403
0.335621
0.314735
0.317154
0.333924
0.743312
0.32348
0.315664
0.31397
0.327649
0.317979
0.34358
0.309463
0.3658
0.436038
0.383255
0.379231
0.319562
0.429506
0.326154
0.378173
0.903716
0.484805
0.750004
0.326439
1.89688
0.359443
0.543534
0.375766
0.337206
0.382625
0.319951
0.312026
0.347894
0.356225
0.302051
0.324551
0.310216
0.665697
0.309573
0.326108
0.365935
0.775633
0.191021
0.335117
0.798871
0.912857
0.605124
0.55786
0.99092
0.15875
0.401663
0.285453
0.346588
0.452198
2.38414
0.534801
0.380009
0.309686
0.312468
0.752344
0.343892
0.535153
0.615333
0.375894
0.588011
0.366075
0.59586
0.317314
0.362506
0.345843
0.307408
0.387047
0.303699
0.347422
1.10103
1.06022
1.09373
0.450007
0.832671
0.328321
0.304156
0.312426
0.367942
0.311363
0.368451
0.317944
0.409925
0.377994
0.308511
0.313081
0.363587
0.309111
0.330453
0.359594
0.319016
0.357555
0.50433
0.332353
0.370105
0.817683
0.361708
0.719336
0.812227
0.350898
0.386617
0.310587
0.472892
0.352374
0.367543
0.678737
0.313174
0.378194
0.344176
0.362793
0.319838
0.322403
0.479288
0.515176
0.375501
0.351614
0.790385
0.377059
0.637501
0.582286
0.360508
0.948489
0.437035
0.371481
0.347109
0.35156
0.391923
0.350425
0.3031
0.329884
0.216795
0.585389
0.213825
0.324019
0.356239
0.425625
0.191253
0.841583
0.341651
0.367588
0.389894
0.229672
0.394316
0.720546
1.97906
0.365414
0.322112
0.365827
0.571502
0.320134
0.372825
0.374646
0.323164
0.35271
0.330493
0.614256
0.327553
1.49765
0.387314
0.965323
0.33566
1.3562
0.868653
1.07186
0.341151
0.342203
0.454199
0.366893
0.327176
0.374508
0.33273
0.821513
0.308879
0.465391
0.612271
0.308701
0.314424
0.32068
0.323552
0.353849
0.360479
0.38668
0.389991
0.371748
0.340205
0.397567
0.33641
0.442089
0.327677
0.366092
0.313982
2.33479
1.21437
0.371889
0.444226
0.30622
2.42248
0.306031
0.309271
0.356864
0.306984
0.374904
0.357176
0.306982
0.302152
0.339642
1.19004
0.60791
0.370891
0.811768
0.312312
0.36126
0.328195
0.359561
0.802154
0.383818
0.835079
0.304781
0.329684
0.788346
0.881181
0.335807
0.338267
0.62707
0.377038
0.354233
0.480819
0.381198
0.371438
0.40787
0.372829
0.301733
0.382307
0.353231
0.473153
0.311108
0.360538
0.30902
0.333299
0.808013
0.695608
0.326863
0.372374
0.334258
0.355431
0.324901
0.529703
0.325568
0.342696
0.364116
0.34897
0.433754
0.392635
0.477817
0.366288
0.303728
0.325348
0.311977
0.371436
0.304861
0.520754
0.436778
0.323002
0.632756
0.336033
0.310405
0.355759
0.312062
0.371579
0.626791
0.331139
0.425431
0.366211
0.957871
0.388141
0.367698
0.371793
0.718423
0.373142
0.525122
0.36347
0.395705
0.379739
0.403879
0.377213
0.73417
0.447348
0.363188
0.327309
0.320492
0.54648
0.334537
0.955717
1.74288
0.375888
0.415232
0.357436
0.467019
0.443783
0.380256
0.891521
0.473041
0.648376
0.312605
0.390797
1.04091
0.478494
0.348478
0.46164
0.325952
1.11643
0.382246
0.377484
0.323838
0.310581
0.314669
0.339633
0.31257
2.46586
0.314323
0.635321
0.311464
0.417307
0.382306
0.520427
0.338929
0.34399
0.331699
0.597077
0.457791
0.500015
0.315022
0.315957
0.44571
0.364368
0.351702
0.311806
0.309619
0.310342
0.331511
0.309205
0.365981
0.31546
0.548867
0.424432
1.03478
0.755224
0.592554
0.553928
0.381319
0.389181
0.307398
0.581551
0.322605
0.33422
0.320575
0.452735
0.488478
0.322537
0.415618
0.776705
0.480824
0.313018
0.312925
1.51356
0.811014
0.376062
0.854347
0.863168
0.634547
0.747674
0.565498
0.730454
0.397314
0.626988
0.763777
0.308823
0.317616
0.302787
0.465253
0.602374
0.325882
0.30998
0.392793
0.355511
0.382395
0.809644
0.474411
0.957862
0.345873
0.312444
0.331187
0.311795
0.352462
0.80954
0.845171
0.714614
0.776243
0.319486
1.08172
0.686322
0.314977
0.524798
0.46495
0.765271
0.369939
0.468021
0.762629
0.783114
0.466816
0.84629
0.496215
0.778256
0.367545
0.334545
0.381259
1.10533
0.762745
0.384966
0.329314
0.546937
0.435527
0.574536
0.349088
0.367822
1.11723
1.07283
0.223938
0.324119
0.234141
0.311674
0.222487
0.372266
0.454043
0.596083
0.206942
0.428258
0.491078
0.142663
0.454199
1.53202
0.406249
0.3742
0.739437
0.327974
0.490512
0.32047
0.305637
0.324579
0.336567
0.841062
0.693894
1.81106
0.386041
0.381569
0.618265
0.367417
0.464963
0.402509
0.354024
0.329127
0.590795
0.379922
0.419629
0.320732
0.415939
0.399145
0.749483
0.457894
0.804196
0.958606
0.76846
0.373704
0.395205
0.733525
0.29658
0.546838
0.352176
0.379759
0.318278
0.797161
0.611035
0.649566
0.801698
0.606713
0.310238
0.423859
0.869851
0.812152
0.38142
0.356817
0.454693
1.2071
0.348099
0.312389
0.362264
0.334267
0.856798
0.320961
0.608619
1.07393
0.948556
1.76227
0.536601
0.451794
0.794176
1.36168
0.867002
0.579731
0.745324
0.923938
0.523368
0.371181
0.440144
0.356464
0.301313
0.316722
0.415379
0.510471
1.78504
0.358891
0.390935
0.405062
0.377361
0.462477
0.562643
0.475092
0.372717
0.379884
1.03606
1.08973
0.203581
0.391144
0.331467
0.360661
1.53036
0.823684
0.37035
0.675952
0.328515
0.439593
0.55992
0.560773
0.335652
0.332453
0.322621
0.38606
0.906971
0.448613
0.349333
0.768066
0.312611
0.939427
0.705697
0.46687
0.692823
0.359391
0.31304
0.320584
0.317349
0.355468
0.392747
0.324158
0.338433
0.32423
0.315991
0.503039
0.676902
0.724074
0.318817
0.47049
0.358605
0.385202
0.3412
0.653119
0.351974
0.335071
0.332661
0.311425
0.323845
0.327125
0.451977
0.307032
0.351114
0.365611
0.611917
0.321077
0.387684
0.494647
0.794994
0.86337
0.379912
0.941636
0.54006
0.367692
0.341442
0.529714
0.326972
2.04292
0.416251
0.317414
0.419511
0.501681
0.401149
0.453129
0.726013
0.901592
0.44529
0.840391
0.336958
0.307278
0.388594
0.313711
0.313228
0.403566
0.316294
0.315298
0.57708
0.311266
0.278192
1.19605
0.583155
0.310813
0.312848
0.688975
0.330415
0.323658
0.576961
0.322026
0.737758
0.396545
0.771155
0.314359
0.540637
0.441336
0.669325
0.319625
0.435709
0.318232
1.06951
0.364328
0.31315
0.994199
0.422087
0.497183
0.351914
0.365337
0.373676
0.316012
0.499359
0.315295
0.318362
0.307494
0.443631
0.544965
0.319507
0.320706
0.318717
0.316139
0.328808
1.3819
0.313098
0.450646
0.312354
0.570498
0.348821
0.363477
0.355865
0.464918
0.331749
0.417967
0.303216
0.33429
0.331978
0.346636
0.313726
0.431072
0.404102
0.852132
0.941474
0.791554
0.390203
0.341247
0.337674
0.312325
0.313752
1.03781
0.636231
0.395792
0.36684
0.3052
0.332007
0.304699
0.318684
0.525149
0.504835
0.766581
0.941158
0.367599
0.350363
0.405073
0.313088
0.582571
0.352378
0.450381
0.361844
0.357256
1.06043
0.411978
0.305764
0.331194
0.397004
0.314715
0.496231
0.31126
0.689456
0.36895
0.90505
0.487254
0.773811
0.318903
0.333847
0.351997
0.374409
0.3568
0.358241
0.313218
0.311687
0.316844
0.325953
0.354897
0.589408
0.368181
0.8612
0.411322
0.321681
0.513843
0.381689
0.361455
0.287545
1.05727
0.885305
0.289211
0.319505
0.319173
0.844066
0.312296
0.416959
0.374565
0.361905
0.281002
0.363142
0.359306
0.311043
0.41522
0.517172
0.955506
0.529889
0.436537
0.304936
0.397387
0.614749
0.345347
0.314668
0.860965
0.808194
0.390036
0.741291
0.317394
0.310123
0.394164
0.31767
0.877266
0.311127
0.311482
0.315734
0.66093
0.312342
0.353571
0.453603
0.461983
0.311584
0.328794
0.33497
0.33112
0.312912
0.351085
0.365202
0.587319
0.426846
0.368536
0.576815
0.360799
0.63014
0.357757
0.897909
0.44123
0.325107
0.678149
0.247632
0.428341
0.526867
0.583112
0.395836
0.311164
0.313914
0.306858
0.360814
0.836671
0.372498
0.311445
0.352742
0.371894
0.306925
0.480944
0.33854
0.369298
0.458354
0.331699
0.316676
0.345814
0.336106
1.66043
0.909902
0.381118
0.357848
0.422888
0.354596
0.802768
1.09998
1.09162
0.778267
0.347375
0.330817