/*--------------------------------*- C++ -*----------------------------------*\
| =========                 |                                                 |
| \\      /  F ield         | OpenFOAM: The Open Source CFD Toolbox           |
|  \\    /   O peration     | Version:  2506                                  |
|   \\  /    A nd           | Website:  www.openfoam.com                      |
|    \\/     M anipulation  |                                                 |
\*---------------------------------------------------------------------------*/
FoamFile
{
    version     2.0;
    format      ascii;
    arch        "LSB;label=32;scalar=64";
    class       volScalarField;
    location    "0.0595072";
    object      nut;
}
// * * * * * * * * * * * * * * * * * * * * * * * * * * * * * * * * * * * * * //

dimensions      [0 2 -1 0 0 0 0];

internalField   nonuniform List<scalar> 
47425
(
0.00520046
0.00503094
0.00438808
0.0019785
0.00331288
0.00451368
0.0045489
0.0032208
0.00742778
0.00211347
0.00243978
0.00737769
0.00513018
0.00397306
0.00324144
0.00376854
0.00455454
0.00252118
0.000260758
0.00283632
0.00380371
0.00688405
0.00309747
0.00501382
0.00674863
0.00692425
0.00389844
0.000500029
0.00429718
0.00553173
0.00728962
0.0071246
0.00745918
0.0045031
0.00554553
0.00480655
0.00696676
0.00537817
0.00477468
0.00429135
0.00505036
0.0045742
0.00499103
0.00260976
0.000879938
0.00335633
0.00346161
0.00451938
0.00393129
0.00644936
0.000654631
0.00269624
0.00610576
0.00105468
0.0032721
0.00296117
0.00688944
0.00525516
0.00243225
0.00512409
0.000899023
0.000733295
0.000993715
0.00309277
0.0073849
0.00691901
0.00555517
0.00423676
0.00108189
0.00528058
0.00396888
0.00578294
0.00629308
0.00348602
0.00138607
0.00746319
0.00103489
0.00386313
0.000232603
0.00200835
0.00136666
0.00487462
0.00728779
0.00742898
0.00649937
0.00390215
0.00563721
0.00586407
0.00440309
0.00146465
0.00708618
0.00445858
0.00718276
0.0032267
0.00259235
0.00188021
0.00639057
0.00577638
0.00354862
0.00455067
0.00556888
0.000973557
0.00604547
0.000994837
0.00620603
0.00701571
0.00637238
0.00343328
0.00648587
0.00702665
0.00327272
0.00520766
0.00600885
0.0022704
0.0073774
0.000349005
0.00739234
0.00075112
0.00433064
0.00535205
0.00405615
0.00747141
0.00590736
0.00267145
0.00361764
0.00687507
0.00381996
0.0074179
0.0033552
0.00722881
0.00704116
0.00344382
0.0010346
0.0029172
0.00492313
0.0047904
0.00665635
0.00663471
0.00454049
0.0032118
0.00499045
0.0027149
0.00471799
0.00523493
0.00637897
0.00742414
0.00395377
0.00542501
0.00240614
0.00499694
0.00529222
0.000547258
0.00738988
0.00042498
0.0030681
0.00387239
0.0029524
0.00030608
0.0038395
0.00459038
0.00750764
0.00702148
0.0061082
0.00677727
0.00121307
0.000462464
0.0074342
0.00138216
0.00318154
0.000794414
0.00141603
0.00410858
0.00479084
0.00344898
0.00486807
0.00128134
0.000397208
0.00428614
0.00579367
0.00699842
0.000323371
0.00634511
0.0050071
0.00670746
0.0065615
0.00695882
0.00552363
0.00112278
0.00236768
0.00543325
0.00746956
0.00425755
0.0052197
0.00474281
0.0066345
0.00742233
0.00582734
0.00450856
0.00752919
0.00357203
0.00509774
0.00296963
0.00631849
0.00737974
0.00245975
0.00236966
0.00563909
0.00733924
0.00402122
0.00747106
0.00484541
0.00467503
0.00745925
0.00336078
0.0048935
0.00489089
0.00403623
0.00174738
0.00345827
0.00381166
0.00192352
0.0024136
0.00475279
0.00317257
0.00238772
0.0016302
0.00663217
0.00250592
0.00727915
0.00412926
0.00426985
0.00441271
0.00334252
0.00748889
0.00223532
0.00349458
0.0017679
0.00299957
0.00199183
0.0020289
0.00404776
0.00503774
0.00717341
0.00306997
0.00697236
0.00733158
0.00455091
0.00590008
0.00705074
0.00402035
0.00724198
0.00234421
0.00469489
0.00742026
0.00348321
0.00713536
0.00673995
0.00303335
0.00328247
0.00739659
0.00305236
0.00745995
0.00402776
0.00268398
0.00529958
0.00391562
0.006959
0.0047282
0.00487812
0.00400007
0.00401154
0.00221748
0.00182826
0.0063396
0.00231905
0.0020912
0.00231787
0.000551209
0.00187718
0.000617388
0.000910364
0.00525667
0.000831611
0.00296894
0.00399576
0.00360281
0.00339906
0.00355831
0.00402942
0.00749343
0.000778131
0.00511646
0.00737543
0.00539878
0.00460816
0.00335024
0.00295362
0.00665244
0.00488179
0.0049864
0.00383606
0.00694731
0.00384322
0.00509255
0.00107712
0.000834836
0.000566943
0.00718348
0.00628928
0.00714477
0.00323653
0.000836573
0.00374206
0.00284962
0.0017512
0.0046856
0.00331002
0.00304045
0.00344352
0.0015336
0.00184503
0.00701947
0.00515871
0.00641989
0.00416365
0.00697196
0.00403852
0.00489618
0.00583336
0.00427881
0.00366367
0.000985895
0.00409088
0.00415269
0.00297235
0.00714801
0.000861302
0.00635131
0.00666283
0.00586819
0.00690656
0.00685687
0.00682044
0.00594654
0.00598993
0.00607299
0.00516416
0.00666751
0.00375484
0.00407837
0.00676671
0.0068909
0.00516544
0.00659118
0.00661578
0.00264557
0.00404604
0.00729986
0.00645521
0.00385733
0.00197069
0.00571167
0.00420136
0.00342612
0.0064128
0.00666294
0.00281255
0.00743426
0.00488587
0.00712046
0.00279083
0.0011053
0.00394657
0.00731382
0.00192608
0.00727406
0.00444558
0.00385136
0.00502326
0.00692254
0.00563157
0.00714564
0.00711381
0.00481493
0.00405693
0.00439935
0.00388306
0.00595648
0.00717422
0.00389888
0.00657019
0.00633659
0.00409302
0.00544934
0.0047533
0.00656486
0.00519286
0.00362404
0.00335119
0.00625863
0.000913984
0.00672651
0.00213858
0.00476133
0.00347896
0.00346095
0.0065139
0.00241253
0.0065518
0.00357667
0.00688575
0.00112123
0.001038
0.00709911
0.00275984
0.00389676
0.00363178
0.0039082
0.00425844
0.00382285
0.00402495
0.00484813
0.0068127
0.00309642
0.00452024
0.00625033
0.00349208
0.00396234
0.00606701
0.000913442
0.000409513
0.00669871
0.000493553
0.000513242
0.00398518
0.000485428
0.000835737
0.00643744
0.0038684
0.00411467
0.00392382
0.000983492
0.00382635
0.00614484
0.0062659
0.00420667
0.00418962
0.00403131
0.00385595
0.000991218
0.000735856
0.00125949
0.00543758
0.00102167
0.00381991
0.00539008
0.00720058
0.00523166
0.0072613
0.00422941
0.00478996
0.00284693
0.00455557
0.00748961
0.00394402
0.0051922
0.00435399
0.00732297
0.0049113
0.00467013
0.00523101
0.00562935
0.00339759
0.00280842
0.00506077
0.00418065
0.00726934
0.00123272
0.00278215
0.0020777
0.00744303
0.00260197
0.00335742
0.00301233
0.00711005
0.00403223
0.00740277
0.00486916
0.00296578
0.00330218
0.00358503
0.00330021
0.00557812
0.00229835
0.000886768
0.00648815
0.0016222
0.00559776
0.00164763
0.00632346
0.00594766
0.00699258
0.00451949
0.00538127
0.00299106
0.00508135
0.00653752
0.00713594
0.00657405
0.00440809
0.00266614
0.00376897
0.00716078
0.00566157
0.00523769
0.00529266
0.00527884
0.00483646
0.00438945
0.00260802
0.00472291
0.00372038
0.000686427
0.00519358
0.00452405
0.00630038
0.0074118
0.00177523
0.00207595
0.0044472
0.00625
0.00429469
0.00423477
0.00683627
0.00206032
0.0074783
0.00328319
0.00241105
0.00276285
0.00527292
0.00288518
0.00730465
0.00431488
0.00437002
0.00622475
0.00701222
0.005844
0.000913362
0.00492411
0.00245789
0.00674856
0.001834
0.00652475
0.00522819
0.00215214
0.0024309
0.00455843
0.00673234
0.000716931
0.0055659
0.00537758
0.00548654
0.00629875
0.00696117
0.0023058
0.00294874
0.00612813
0.00553796
0.00476793
0.00702013
0.0020671
0.00711032
0.00513614
0.000457524
0.0044279
0.00711409
0.000913214
0.00133067
0.00706965
0.00032364
0.000338166
0.004294
0.00744589
0.00582213
0.00704308
0.00426848
0.00387598
0.00131878
0.00706234
0.00272676
0.00617287
0.00208634
0.0022874
0.00433149
0.00481087
0.00153819
0.00746611
0.00601504
0.00347095
0.00337084
0.00259313
0.00299925
0.00301177
0.00668526
0.00338442
0.00285124
0.00305255
0.00532737
0.00296718
0.00344663
0.00652231
0.00255477
0.003672
0.00402095
0.00272829
0.00337726
0.004496
0.00492983
0.00631294
0.00172497
0.00507785
0.00661366
0.00661321
0.00030644
0.00394723
0.00518445
0.000542233
0.000824911
0.00712946
0.00466672
0.000170597
0.00207562
0.000798663
0.00269394
0.00315409
0.000715946
0.00518269
0.00632917
0.00590998
0.00304264
0.00335453
0.0033283
0.00655298
0.00314024
0.00460833
0.00384739
0.00632039
0.00430508
0.00392332
0.00171654
0.000997371
0.00280917
0.00299414
0.00403221
0.00624423
0.0034246
0.00741643
0.00605415
0.00567857
0.00526761
0.00614078
0.00194459
0.0046949
0.0064812
0.00188189
0.00194766
0.000953327
0.00120387
0.0039452
0.0073214
0.00483248
0.00701259
0.00114805
0.00447648
0.00120176
0.00421686
0.00409567
0.0051789
0.00472663
0.00556439
0.00345642
0.00197551
0.00356473
0.00531203
0.00189635
0.00437345
0.00748588
0.00420197
0.0039902
0.00163317
0.00515856
0.00185357
0.00345708
0.00747322
0.00701778
0.00251082
0.00410649
0.0037125
0.00743239
0.00510307
0.00418022
0.00445474
0.00413517
0.00395404
0.00482565
0.000909071
0.000623198
0.00436586
0.000816234
0.00457777
0.00290231
0.00339205
0.00635075
0.00401207
0.00486013
0.00413402
0.0040585
0.00688295
0.00058295
0.00280078
0.00337476
0.00507167
0.00656218
0.00376539
0.00546781
0.0024193
0.00743503
0.00169082
0.0040581
0.00687715
0.00417599
0.00659594
0.00533847
0.00449037
0.00613609
0.00356643
0.00722371
0.00669392
0.003877
0.00104437
0.00726484
0.000710553
0.00237693
0.00217474
0.00070453
0.00421956
0.00414576
0.00217504
0.00392841
0.00081032
0.000737232
0.000936302
0.00325755
0.00498333
0.00384475
0.00293428
0.000886655
0.00249411
0.00367556
0.00571478
0.0044254
0.00428559
0.00309891
0.00577874
0.00421483
0.00133008
0.00201925
0.00555645
0.00246468
0.0010947
0.000704493
0.0035252
0.000574534
0.00202723
0.000669425
0.000856945
0.0045001
0.00302295
0.00703121
0.00656641
0.00480938
0.000729253
0.00128505
0.00476056
0.00482228
0.00708991
0.000865019
0.000714666
0.00714903
0.00226276
0.00365816
0.0071471
0.00221524
0.00716435
0.0071258
0.0043101
0.00480161
0.0016063
0.00640061
0.00712122
0.0050684
0.00520848
0.00519106
0.00104848
0.00183242
0.00700399
0.00130792
0.00628729
0.0066609
0.00662332
0.00178195
0.00452265
0.00200124
0.00263714
0.00568628
0.00718115
0.00128984
0.000665644
0.00449448
0.00389864
0.00194689
0.00533546
0.0056111
0.00300481
0.00276818
0.00294507
0.00577534
0.00239799
0.00109027
0.0074237
0.00111785
0.00545032
0.00393156
0.00693457
0.00201734
0.00271016
0.00709153
0.00368826
0.0012919
0.00335055
0.00198493
0.00470344
0.00554861
0.00463614
0.00352198
0.00453882
0.00310617
0.000675986
0.00468309
0.00260897
0.00178995
0.00177456
0.00109456
0.00173138
0.00412451
0.000552803
0.00695037
0.00652864
0.00420055
0.00270287
0.00383721
0.00145472
0.00135247
0.00320344
0.00490024
0.00452707
0.00318824
0.00356219
0.0039058
0.00833747
0.00135263
0.00398436
0.00424377
0.00253992
0.00202425
0.00578025
0.000557715
0.00391274
0.00537219
0.00386732
0.00396765
0.0066403
0.00679648
0.00340895
0.00386332
0.000741765
0.00276507
0.00479114
0.00366046
0.00565019
0.00351103
0.000788932
0.0046241
0.00207288
0.00568782
0.00186128
0.00286743
0.00376016
0.0054612
0.00529077
0.00357869
0.00198857
0.00391564
0.00165727
0.000749259
0.00526099
0.00698953
0.0050748
0.00107531
0.00533045
0.00273568
0.00697829
0.00168996
0.00182139
0.00402189
0.00308198
0.00434284
0.00710528
0.00514757
0.00315883
0.00113651
0.00226624
0.00122085
0.00687236
0.00230027
0.00258754
0.00289995
0.00357675
0.00492292
0.00168805
0.00164641
0.00377882
0.000950201
0.00357374
0.00357801
0.00430312
0.00493998
0.00378479
0.00482615
0.00125748
0.00394832
0.00376963
0.00450585
0.00606862
0.000809463
0.00236473
0.000717701
0.00157908
0.00106893
0.00208709
0.00388901
0.00130292
0.00350792
0.00128628
0.0020059
0.00205028
0.00132786
0.0030609
0.00527796
0.00429496
0.00746876
0.00148037
0.00369031
0.00344721
0.00436933
0.00137339
0.00588083
0.00429609
0.00597179
0.0074604
0.00293823
0.00186631
0.00298836
0.00320832
0.00545001
0.00233885
0.00659671
0.00317173
0.00309934
0.00705626
0.00239995
0.00227238
0.00427524
0.00211374
0.00389346
0.00322802
0.0020603
0.00293142
0.00311454
0.000226367
0.000666167
0.00166042
0.000694857
0.00332368
0.00334423
0.000620318
0.000928829
0.00520591
0.00105386
0.00333355
0.00416972
0.000543923
0.00262798
0.0070251
0.00319114
0.00152448
0.00617053
0.000703762
0.000345879
0.00225542
0.000842298
0.00224606
0.000965271
0.000849964
0.00549483
0.00450539
0.00277291
0.00196848
0.00368437
0.00734756
0.00213545
0.000706971
0.00481932
0.00170875
0.00430234
0.00202722
0.00630181
0.0059529
0.00218106
0.00215893
0.00419823
0.00179894
0.00513915
0.00144067
0.00713472
0.00591993
0.00370616
0.00203419
0.00490119
0.00723903
0.000787111
0.00177168
0.0016639
0.00371314
0.00262096
0.00213772
0.00118763
0.0040485
0.00118046
0.00265049
0.00514966
0.00318843
0.00227452
0.000840978
0.00207997
0.00181665
0.0058833
0.00511769
0.00202639
0.00403704
0.00272795
0.00501131
0.00740451
0.00640512
0.00400417
0.00285245
0.000812549
0.00411184
0.000502552
0.00395732
0.00439152
0.00296166
0.00528945
0.00374139
0.00409257
0.00453828
0.00194576
0.00575857
0.00148496
0.00704345
0.000375614
0.00133624
0.00137923
0.00198654
0.00414485
0.00538106
0.00345922
0.005466
0.000654333
0.00078166
0.00339457
0.00228673
0.000990767
0.000953457
0.00233281
0.00117511
0.000556286
0.00357972
0.00536818
0.000530431
0.0038359
0.00462482
0.00428652
0.00104545
0.000610135
0.00395187
0.00386388
0.0013425
0.00258951
0.00123531
0.000780082
0.0032669
0.00110409
0.00121112
0.00336114
0.00464937
0.00110707
0.00611059
0.00148086
0.000237322
0.00723074
0.00443022
0.00384273
0.00545401
0.00301283
0.00307849
0.00738043
0.00297812
0.00414796
0.000854105
0.00162887
0.00464037
0.00141107
0.00493146
0.000396199
0.00686215
0.00361501
0.00234585
0.00556987
0.00101525
0.00392883
0.00307161
0.00237429
0.00307005
0.0039647
0.00495543
0.00211862
0.000712592
0.0060943
0.00140998
0.000737336
0.00232055
0.00373795
0.00104401
0.0017616
0.00478125
0.00555686
0.00106807
0.00178539
0.00226447
0.000832176
0.002586
0.00096278
0.00325967
0.00283328
0.00217329
0.00100379
0.00542154
0.00594954
0.00215572
0.00428475
0.00255693
0.00373213
0.00110126
0.00526193
0.00376936
0.00575601
0.00139785
0.00560441
0.000609185
0.00223639
0.00556859
0.0073978
0.00192569
0.00169908
0.000914831
0.00195108
0.00218565
0.00114583
0.000890415
0.00406273
0.000937512
0.00493794
0.00291309
0.000439041
0.00155201
0.00308877
0.00323431
0.00561321
0.00153883
0.000582332
0.00166585
0.00262535
0.00594594
0.00715856
0.00188576
0.00456328
0.00379491
0.00627827
0.0010767
0.00286811
0.00162709
0.00417968
0.00161487
0.00406171
0.00356063
0.00114903
0.00185633
0.00240303
0.00272249
0.00560126
0.000406264
0.0016802
0.00157431
0.0014587
0.00361253
0.00540343
0.00107454
0.000757953
0.00164357
0.00280576
0.00288293
0.00164959
0.00256397
0.0013917
0.00547928
0.00134216
0.00139355
0.00555046
0.00123405
0.00338465
0.00257243
0.00278544
0.00133466
0.00249131
0.00603948
0.000725932
0.00333965
0.00065103
0.00264362
0.00375842
0.0030907
0.00203123
0.00134928
0.00244777
0.00407755
0.0030025
0.00122578
0.00393106
0.00426271
0.000655509
0.00700859
0.00364398
0.000884646
0.00366697
0.00273688
0.0020867
0.00242492
0.00120157
0.00371713
0.000166059
0.00223798
0.00108773
0.00261019
0.0011785
0.00283074
0.000900627
0.00137589
0.00136663
0.00278299
0.00398401
0.00741051
0.00409549
0.00368446
0.00290398
0.00072902
0.00376704
0.00597298
0.00446422
0.00501165
0.00318539
0.00416621
0.00729519
0.00745384
0.00300266
0.000998438
0.00681349
0.00281494
0.00246818
0.00531217
0.0065232
0.00286072
0.00232825
0.00747107
0.00557106
0.00337242
0.00356034
0.00623117
0.00387998
0.00116645
0.00387311
0.00352996
0.00571009
0.00701168
0.00216145
0.00469916
0.00587253
0.000830732
0.001716
0.000984648
0.00670124
0.000976688
0.00043549
0.00625633
0.000378807
0.000799666
0.000594265
0.00394391
0.00482111
0.00425712
0.0014599
0.00688293
0.00442618
0.00450152
0.0039329
0.00276216
0.00352969
0.00346805
0.00108072
0.00435783
0.00278857
0.00086366
0.00400757
0.000363261
0.00175216
0.00126718
0.0065739
0.00304841
0.001969
0.00585378
0.00473039
0.00192816
0.00713427
0.00294252
0.00175544
0.000421699
0.00730108
0.0015865
0.00525612
0.00303364
0.00307709
0.00545594
0.00137499
0.00477041
0.00217284
0.00457335
0.00131158
0.000280214
0.00398905
0.00697265
0.00233962
0.00470082
0.000816151
0.00376151
0.00377425
0.00449299
0.00429278
0.00553818
0.00725626
0.00380561
0.00227221
0.00539372
0.00218855
0.00404654
0.00377294
0.00720006
0.00230687
0.00162815
0.0040338
0.00462047
0.00490333
0.00465326
0.0031028
0.00420827
0.00445647
0.00586559
0.00237416
0.00263244
0.0074721
0.00388831
0.00360073
0.00513883
0.00383461
0.00312565
0.00362106
0.00356501
0.00394855
0.00437414
0.00388991
0.00584556
0.00477785
0.00631081
0.00207847
0.00224488
0.00196175
0.00362031
0.004792
0.0041612
0.00125052
0.00540242
0.00516288
0.00546348
0.00153887
0.00299144
0.00126596
0.00124869
0.00125097
0.00336126
0.00454785
0.00422571
0.00423962
0.00639246
0.00120042
0.00401446
0.0065014
0.00415388
0.00319373
0.0040677
0.00144674
0.00411884
0.002374
0.00277562
0.00343667
0.00612729
0.00443892
0.00374382
0.00380603
0.00458708
0.00302178
0.00329892
0.002869
0.00371993
0.00508227
0.00496909
0.00214317
0.00191864
0.00475739
0.00415414
0.00232759
0.00376395
0.00229315
0.00675094
0.00536264
0.00232321
0.00466499
0.00579036
0.00468272
0.00684794
0.00664382
0.0034822
0.00434411
0.00201024
0.00444943
0.00241219
0.00606557
0.0043927
0.000993264
0.00405036
0.00423832
0.00507629
0.00514889
0.0039834
0.00428234
0.00032956
0.00347518
0.00378661
0.00600606
0.00524789
0.00500363
0.00717737
0.00626327
0.0035115
0.00411657
0.0063379
0.0067432
0.0030092
0.00099016
0.00132143
0.00303543
0.00178474
0.00351456
0.00389892
0.00354504
0.00179928
0.00196291
0.00333364
0.00400265
0.00084773
0.00481304
0.00399802
0.00387725
0.00400887
0.00655861
0.000312436
0.0046634
0.0036243
0.00743028
0.002664
0.002688
0.000409221
0.000237782
0.00465722
0.00580926
0.00699226
0.00401858
0.00367171
0.00507004
0.000216907
0.00122809
0.00477099
0.00253852
0.00137573
0.00493664
0.00447434
0.0033459
0.00696617
0.0050102
0.00670095
0.00429261
0.00289234
0.00391629
0.00425494
0.00516052
0.00195339
0.00428786
0.00743716
0.00137439
0.00571926
0.00353829
0.00308335
0.00106655
0.00162134
0.0034716
0.00287964
0.00501935
0.00284779
0.002873
0.00600996
0.000589879
0.00180885
0.00287974
0.00392519
0.00339982
0.00389038
0.00385038
0.00115726
0.00720959
0.00670989
0.00574192
0.00538353
0.00090014
0.00130827
0.00132572
0.00184365
0.00310413
0.00287972
0.0072387
0.00705976
0.00454913
0.00498511
0.00512848
0.00561053
0.00716688
0.00109415
0.000781231
0.00709987
0.00646708
0.00292552
0.00220114
0.00304255
0.00711456
0.00522549
0.00174914
0.000912206
0.00345773
0.00204364
0.0050218
0.00148619
0.00056588
0.00302366
0.00625011
0.00706396
0.00617162
0.000912768
0.00540035
0.00435008
0.00425023
0.00717265
0.000952524
0.000353889
0.000506099
0.0016689
0.00377809
0.00607433
0.00690813
0.00232983
0.00401947
0.000952447
0.000828343
0.000809076
0.000485287
0.000786099
0.00173064
0.00649784
0.000823937
0.00739763
0.000347885
0.00390483
0.000758841
0.00444722
0.00175205
0.00573525
0.00296289
0.00224757
0.00225493
0.00470436
0.00559654
0.0039892
0.000910563
0.00110355
0.0050032
0.00516726
0.00047738
0.000430199
0.00367082
0.00176356
0.000697524
0.00131946
0.00467515
0.00675951
0.000868877
0.000638202
0.00157121
0.00706954
0.00134677
0.00628962
0.000762452
0.00109479
0.00054408
0.00244049
0.00567586
0.00157305
0.0066655
0.00462306
0.00384864
0.0022216
0.00620424
0.00364076
0.00479254
0.00380744
0.00419128
0.00681195
0.00638315
0.00346299
0.00669285
0.00583218
0.00429727
0.00376927
0.00160053
0.00383262
0.00240738
0.00404945
0.00556628
0.00386578
0.000956486
0.00347501
0.00336984
0.00196586
0.000584671
0.0042006
0.00382502
0.00324722
0.000998851
0.00164523
0.00132275
0.00465266
0.00656667
0.00470086
0.00341811
0.00553994
0.00341562
0.00318106
0.00372515
0.00703553
0.00463232
0.0050751
0.00452135
0.00318786
0.00440249
0.0036919
0.000669367
0.00352633
0.00402871
0.00423144
0.00295138
0.00112599
0.00262431
0.00395698
0.00459233
0.00313691
0.00125367
0.00129166
0.0038074
0.0032552
0.000378015
0.00151307
0.00205284
0.00405943
0.00148573
0.003111
0.00401317
0.00286347
0.00116374
0.00475553
0.00409551
0.00231787
0.00643364
0.00237951
0.00271467
0.00312552
0.00333086
0.00194487
0.00416145
0.00584598
0.0070776
0.00188147
0.00327464
0.00434097
0.00383197
0.00501452
0.000837232
0.00293967
0.00332504
0.000447478
0.00182371
0.00538705
0.00345443
0.000924738
0.0016917
0.00231843
0.00703263
0.00290564
0.00106263
0.00529649
0.00726723
0.000679647
0.00187333
0.00138797
0.00371115
0.00437678
0.00466217
0.00152965
0.000615547
0.00072237
0.00453111
0.00557777
0.000627635
0.00564731
0.00176485
0.00307566
0.00153189
0.0010121
0.00439571
0.00341929
0.00117418
0.00400814
0.0047563
0.00453916
0.00359308
0.00545991
0.000916308
0.000295608
0.00375096
0.0035949
0.000721358
0.000539559
0.00069193
0.0021351
0.0011211
0.00201447
0.000564808
0.00352557
0.00353176
0.00083807
0.00238555
0.00244222
0.00097283
0.00091023
0.000418411
0.00611788
0.00564774
0.000669377
0.00639281
0.00426027
0.00085705
0.00532734
0.00310718
0.0040354
0.00314208
0.00504029
0.00625296
0.000475723
0.000473272
0.00204872
0.000752326
0.00241773
0.00367964
0.00434103
0.00443284
0.00334311
0.0046041
0.00526217
0.00400791
0.00470049
0.000740604
0.000682583
0.00405029
0.00176174
0.00380369
0.00424419
0.00265309
0.00354243
0.00366545
0.0045668
0.000609277
0.00113435
0.00436266
0.000689796
0.00280916
0.00143732
0.00292624
0.00345317
0.000968514
0.00281202
0.00109943
0.00460697
0.00291309
0.00291155
0.0063442
0.00117856
0.00708973
0.00545064
0.00243415
0.00428498
0.00146725
0.00335493
0.00230727
0.00339496
0.000893282
0.00391139
0.00341202
0.00364869
0.00703635
0.00325858
0.00354051
0.00178696
0.000465506
0.00281258
0.000701074
0.00361541
0.00441726
0.00488918
0.00451983
0.00503928
0.00486481
0.00340008
0.0012597
0.00170908
0.00126249
0.000633886
0.00450371
0.00396641
0.000159247
0.000955237
0.00428826
0.00402618
0.00128632
0.0037507
0.000733052
0.000455616
0.00265542
0.000936414
0.0013324
0.00280976
0.000770425
0.00173112
0.00605325
0.00348433
0.00106648
0.00124577
0.00648845
0.000986983
0.00688046
0.0026304
0.00473591
0.00262001
0.00188107
0.000862891
0.00104501
0.00589246
0.00568924
0.000248028
0.00692894
0.00455907
0.00118283
0.00587822
0.00281051
0.00406398
0.00336214
0.000529444
0.00149101
0.000792803
0.00173171
0.00315235
0.00113289
0.00570819
0.0048984
0.0010444
0.00659585
0.00369422
0.0026314
0.00508732
0.00131249
0.000617807
0.00679922
0.00228615
0.00708965
0.00076106
0.00410326
0.000592973
0.00280449
0.00277556
0.0059586
0.00251646
0.00266931
0.006436
0.00482203
0.00326029
0.00713944
0.00136943
0.00328929
0.00351096
0.00616484
0.00413562
0.00350167
0.00254042
0.00288797
0.00179332
0.00312232
0.00362175
0.00391155
0.00146433
0.000575346
0.000815102
0.000716836
0.00119812
0.000837091
0.00105799
0.00266029
0.000250672
0.000741306
0.00129691
0.00181212
0.00264569
0.00110216
0.000998989
0.00236237
0.0014643
0.00211261
0.00609831
0.00268395
0.00145772
0.00385469
0.000895245
0.00322958
0.000550215
0.00188903
0.00118659
0.00141254
0.00145037
0.000784695
0.00186548
0.00068237
0.00264189
0.00226573
0.00406373
0.00171734
0.00499421
0.00552835
0.000956529
0.00334255
0.000953878
0.00180044
0.00504444
0.00234766
0.0039601
0.00143012
0.00117755
0.00708733
0.00589099
0.00158992
0.000964116
0.00366656
0.00267987
0.00113663
0.00110081
0.00428701
0.00708003
0.00386919
0.00408491
0.000809421
0.00720147
0.000908154
0.000360085
0.00499884
0.00259908
0.00410381
0.00360986
0.000869788
0.0027874
0.000763004
0.00323019
0.00424001
0.000533558
0.000985132
0.00524774
0.00233372
0.00522185
0.00647039
0.00126772
0.00293736
0.000763871
0.00360369
0.00614284
0.0025177
0.00686896
0.00458979
0.00518599
0.00486242
0.00273721
0.00227372
0.00145823
0.00323437
0.00110654
0.00502995
0.00670478
0.00216274
0.00128241
0.000845662
0.000873363
0.00183074
0.00196115
0.00104914
0.000949057
0.000818924
0.000852183
0.00315018
0.00300957
0.00398109
0.00138031
0.0050754
0.00274184
0.00312983
0.00137505
0.000524624
0.00348142
0.00265566
0.00347545
0.0044797
0.00337759
0.00402067
0.00605971
0.00459004
0.0025686
0.00292046
0.00267701
0.00539426
0.00291417
0.00149827
0.000763168
0.00416156
0.000582985
0.0074443
0.00306594
0.0068738
0.00441054
0.000919813
0.00270448
0.00116448
0.0036787
0.00345581
0.00333824
0.0044152
0.00474177
0.0037676
0.00321862
0.00701367
0.00740083
0.000799156
0.00298308
0.00124919
0.00284383
0.00104616
0.00564934
0.00451603
0.00339383
0.00385258
0.00290487
0.000972956
0.00637401
0.00392493
0.00109003
0.00246721
0.00243078
0.00267906
0.00243945
0.00230464
0.00215757
0.0048792
0.00749383
0.00650501
0.00196531
0.00150824
0.00461332
0.000491981
0.00602756
0.00177994
0.00688051
0.006167
0.00186284
0.00435175
0.00635592
0.000977365
0.00742106
0.00410759
0.00142993
0.00315942
0.00688272
0.00131222
0.00671985
0.00728055
0.0011092
0.00285275
0.00287406
0.000769331
0.00729939
0.00197035
0.00134406
0.00169316
0.000956512
0.00116138
0.0046492
0.00582474
0.00285221
0.0058365
0.00186269
0.00289526
0.00508494
0.00585627
0.00348113
0.0011758
0.0029747
0.00426723
0.00234324
0.00340643
0.00250596
0.00738825
0.00209993
0.00115628
0.00361719
0.00342741
0.00477228
0.00470006
0.00301369
0.00432358
0.00218684
0.00329627
0.000620604
0.00405314
0.00697717
0.00100355
0.00286875
0.000660189
0.000975062
0.00605983
0.00332017
0.00124531
0.00309253
0.000640893
0.00143329
0.000562553
0.00142919
0.000627362
0.00302629
0.0016371
0.00155345
0.000543045
0.00115864
0.00289909
0.000659027
0.000577279
0.00242863
0.000313605
0.00116417
0.00342921
0.00348418
0.00112606
0.000941611
0.00733455
0.00366432
0.000986609
0.000751514
0.0010747
0.00130154
0.00156875
0.000802902
0.002799
0.00363168
0.00430683
0.00692266
0.00309027
0.00639107
0.00102758
0.00294484
0.0043173
0.000678657
0.00381931
0.00229597
0.00423989
0.00609552
0.00314687
0.00434472
0.00177711
0.00647805
0.00175645
0.000600913
0.00473587
0.00661088
0.00328416
0.00497133
0.00100553
0.00346136
0.00539633
0.00629906
0.000572454
0.00615527
0.00352027
0.00671188
0.00167823
0.00309737
0.00433632
0.00571136
0.00501092
0.00143338
0.00355085
0.00255468
0.00746507
0.00699193
0.00676661
0.00452275
0.00449091
0.00354307
0.00577983
0.00331476
0.00358375
0.00243196
0.00127431
0.00111799
0.00322568
0.00180393
0.00413194
0.00265922
0.00347338
0.00371098
0.00632322
0.00315176
0.00427116
0.00622226
0.00215652
0.00455839
0.00311289
0.00106413
0.00480058
0.00271569
0.00119569
0.00369913
0.00112815
0.00189128
0.00119756
0.000342216
0.00276112
0.00516356
0.00194048
0.000457556
0.00322242
0.00703501
0.00606335
0.00523668
0.00336871
0.00445989
0.00714347
0.00699049
0.0036794
0.00278477
0.00738024
0.00645237
0.00733207
0.00521254
0.00292295
0.00175825
0.00299796
0.00607168
0.00330426
0.000932204
0.00514513
0.00581404
0.00375997
0.000568703
0.000609987
0.00374871
0.00539696
0.00472058
0.00308129
0.00493349
0.000679078
0.00175782
0.00481512
0.00400871
0.00586219
0.0034189
0.00181417
0.00429058
0.0032143
0.00349209
0.00130654
0.0019561
0.00153331
0.000945726
0.000275169
0.00233058
0.0019157
0.00372093
0.00382633
0.0033634
0.00323268
0.00560412
0.00430306
0.000474443
0.00640627
0.00178547
0.0010783
0.00329284
0.00295184
0.000730479
0.00202949
0.00396202
0.00380705
0.00734414
0.00296104
0.00105779
0.00379003
0.00152551
0.00627362
0.00265686
0.000749121
0.000854512
0.00327607
0.003099
0.00107456
0.00454181
0.000684564
0.000608224
0.00121752
0.00741959
0.00677977
0.000306797
0.00585085
0.000509386
0.00196523
0.00308134
0.00108709
0.00102161
0.00603824
0.00725596
0.000954773
0.00609585
0.00579359
0.00475746
0.00644765
0.00424025
0.00368588
0.00216197
0.00546338
0.000359833
0.00312061
0.0039615
0.0037261
0.000312024
0.0041361
0.000564157
0.00472142
0.00314397
0.00361334
0.00110464
0.00559369
0.00444922
0.00478025
0.000963744
0.00187579
0.00187783
0.00133471
0.00269566
0.0061132
0.000791077
0.003276
0.00321954
0.00326763
0.00413275
0.00309442
0.00383741
0.00717138
0.000373216
0.00129456
0.00434613
0.0047471
0.00276818
0.00390256
0.0027123
0.0028353
0.00463053
0.00226452
0.00438692
0.00474777
0.00412914
0.00154321
0.00441592
0.00444482
0.00456951
0.00346986
0.0067363
0.00537042
0.00486489
0.00276181
0.00417952
0.00270368
0.00254567
0.00354387
0.000668375
0.00479108
0.00277009
0.00141125
0.0011788
0.00150689
0.00362565
0.00566124
0.00183211
0.00069111
0.00394968
0.00102992
0.00398559
0.00716133
0.00269951
0.00173466
0.00380879
0.00433014
0.00736414
0.00485543
0.000347157
0.00482671
0.00644939
0.00241882
0.000470446
0.000570878
0.00356715
0.000291181
0.00131014
0.00113401
0.00238928
0.00111759
0.000544592
0.00491038
0.000895486
0.00388918
0.00506421
0.0058899
0.000530468
0.00207336
0.00682558
0.00565192
0.00100495
0.00415905
0.000530643
0.00503248
0.00290596
0.00444471
0.00291198
0.000637558
0.00732973
0.00313632
0.00280795
0.00550393
0.00367548
0.00566837
0.00284942
0.00047259
0.000455037
0.00072257
0.00144763
0.00126249
0.00566418
0.00614185
0.00495023
0.0036417
0.00698492
0.00146409
0.00720577
0.000927149
0.00418143
0.00653328
0.005722
0.00473123
0.00663599
0.00325744
0.00296221
0.00718618
0.00309491
0.000897144
0.00529263
0.00104426
0.000925575
0.00639758
0.000300423
0.000555168
0.0027667
0.00290425
0.00369357
0.00124347
0.00447929
0.00199407
0.0012289
0.00533564
0.00162667
0.00716087
0.00201088
0.004056
0.00228351
0.00199705
0.000858457
0.003328
0.00385827
0.000680836
0.00129179
0.00199939
0.00163394
0.00566127
0.00164983
0.00412342
0.00185444
0.00319579
0.00612343
0.00130663
0.00272545
0.00232778
0.00647349
0.000605013
0.000830966
0.000576313
0.00566812
0.0040945
0.000874311
0.000588198
0.00178325
0.00372271
0.00249833
0.00106586
0.00073135
0.00176372
0.00444668
0.00424266
0.00429497
0.00489274
0.00399189
0.000574992
0.00501963
0.00172082
0.00311528
0.00672771
0.00257064
0.00259964
0.0048381
0.00386773
0.00515412
0.0022757
0.00182792
0.00469175
0.00492089
0.00213083
0.00331486
0.00279089
0.00194482
0.0021717
0.00356833
0.00595678
0.00581925
0.00524211
0.00077376
0.00359886
0.000968676
0.00247454
0.00372697
0.00497833
0.00328806
0.00703077
0.00245742
0.00747121
0.00203106
0.0023569
0.00358932
0.00426779
0.00237969
0.00340645
0.00256549