/*--------------------------------*- C++ -*----------------------------------*\
| =========                 |                                                 |
| \\      /  F ield         | OpenFOAM: The Open Source CFD Toolbox           |
|  \\    /   O peration     | Version:  2506                                  |
|   \\  /    A nd           | Website:  www.openfoam.com                      |
|    \\/     M anipulation  |                                                 |
\*---------------------------------------------------------------------------*/
FoamFile
{
    version     2.0;
    format      ascii;
    arch        "LSB;label=32;scalar=64";
    class       volScalarField;
    location    "0.0595072";
    object      omega;
}
// * * * * * * * * * * * * * * * * * * * * * * * * * * * * * * * * * * * * * //

dimensions      [0 0 -1 0 0 0 0];

internalField   nonuniform List<scalar> 
47425
(
58.8152
67.4901
72.0487
162.172
140.611
71.5859
94.7207
102.076
49.394
605.142
138.017
44.3408
71.7584
79.7845
96.1464
88.8895
68.9325
47.9808
1312.05
190.172
85.0419
45.5693
105.42
63.5237
46.4358
44.3185
78.2616
690.405
70.5397
55.6699
44.0111
45.2538
47.7441
68.1478
55.1524
67.2844
44.9771
67.5586
65.5989
74.8158
72.0728
103.976
184.012
144.995
1719.77
104.878
96.2729
77.5997
78.8985
47.5295
576.503
230.679
49.9836
737.632
113.406
123.602
44.6178
58.299
81.2057
61.5391
993.127
1167.46
905.679
44.4922
49.3523
45.2055
61.4743
86.7278
735.497
44.6887
78.4234
52.1441
48.8117
91.0309
662.576
49.4036
890.07
81.5548
1340.22
265.788
681.667
65.2234
43.4778
46.9336
48.7038
82.3537
53.9161
51.8092
121.183
407.739
44.7723
76.7756
43.2445
114.528
147.199
194.926
48.4112
52.8509
88.2247
78.5957
60.2238
91.9741
52.4232
97.5079
49.935
53.05
48.4587
93.6494
57.9135
45.4905
361.856
62.4196
71.3735
155.389
45.3708
897.042
44.6487
229.086
78.5078
62.619
79.5304
48.5449
58.163
63.1263
97.1202
57.7008
85.3866
49.1901
105.62
42.9964
45.2429
96.1941
126.453
120.343
95.4816
68.0739
47.9651
60.6944
69.232
97.5781
70.9501
132.437
71.1765
88.3235
52.2932
49.3287
111.916
62.7331
151.125
72.3675
87.9335
500.459
48.756
699.923
46.4984
84.6775
59.516
903.778
92.4952
72.3043
45.2225
43.8144
50.0402
46.8721
411.54
828.75
45.5762
673.882
106.506
725.61
698.949
85.9432
73.8613
45.7016
72.205
65.876
724.734
70.5415
52.7623
44.2952
1004.82
47.6817
60.433
46.1846
46.9666
48.4794
56.8286
76.9813
149.51
55.7397
47.9249
72.0542
82.8174
77.0212
46.8761
43.1356
61.8691
72.7269
44.2668
83.1554
65.9735
122.992
54.1085
43.7281
49.4663
159.137
53.5998
43.3409
86.9249
48.4403
63.3269
66.2153
47.2158
93.8649
63.6548
63.8408
76.1555
248.461
47.0065
93.1876
284.938
120.399
123.031
96.6979
167.23
239.671
46.7741
130.429
49.277
60.1318
72.2002
72.6838
103.764
49.3225
165.266
93.1306
325.463
113.002
269.862
181.458
83.6462
59.801
42.8555
102.852
44.6698
49.4534
68.6907
60.6057
43.4779
77.8432
42.8193
219.139
67.2866
49.2833
91.6943
43.1601
46.6632
120.219
94.9686
48.3488
124.895
47.2211
78.7208
135.364
71.4799
89.8905
44.5026
71.6862
62.9283
82.2741
80.0684
236.154
313.944
48.6064
221.541
179.492
222.293
112.779
297.85
183.094
1050.56
57.7771
997.419
123.647
79.9109
85.937
104.634
91.2612
90.6689
46.4392
622.166
44.6509
50.3438
56.9422
67.7894
98.5402
111.828
46.528
65.8104
56.3188
87.9611
43.9332
86.2987
60.4488
818.239
1040.52
672.631
43.0049
48.527
43.7122
101.229
690.28
86.7116
116.897
258.27
73.9289
104.492
122.207
93.3685
425.889
227.057
45.2754
60.8232
47.1656
81.8749
43.9964
78.6353
62.5583
52.3437
72.139
83.8003
690.246
54.8784
75.092
129.127
43.2361
698.068
50.7311
45.7564
52.9455
46.1521
46.5062
44.8362
52.9725
50.5202
50.8712
59.7224
47.345
83.4919
83.9506
47.3497
45.2316
62.9111
48.0862
48.4871
47.2343
80.9447
43.2336
49.2058
93.4024
54.8882
60.4715
78.4049
94.7162
48.0622
48.9393
131.292
48.216
67.3368
44.6332
130.282
951.966
78.1197
44.0244
200.232
43.994
96.3939
93.5137
72.5501
45.2709
63.5019
44.6476
43.1386
73.7815
86.258
82.8563
84.0332
52.7454
48.7515
83.0143
48.4319
46.8715
80.8031
56.7863
65.8569
48.5571
62.1095
89.2581
66.0458
48.8653
488.346
45.6546
416.236
70.2462
105.689
103.167
47.3392
146.07
46.5973
94.4524
46.6021
545.458
364.896
43.1025
50.0586
80.5324
86.1985
82.4132
74.8129
81.312
89.4345
67.4172
45.1566
101.718
71.1144
48.8999
87.1063
78.4061
52.5986
144.809
1344.09
46.9188
282.465
1111.83
89.6742
1142.43
804.451
47.9033
80.5147
76.025
79.1988
710.994
87.6313
49.6473
49.3833
75.1609
75.6469
80.8081
80.4438
475.767
783.514
152.991
65.5413
71.9747
129.332
57.6741
44.036
68.1245
43.5375
83.9814
75.8094
132.705
69.3814
49.3502
80.1471
59.832
78.0702
43.7974
64.829
67.5632
66.6436
63.5367
108.923
120.773
62.0566
83.8411
43.5908
521.04
130.132
74.6295
46.3574
135.652
245.684
47.6367
43.311
47.7606
47.3107
67.4337
49.6792
106.141
84.4913
48.2362
54.7153
143.1
99.3456
46.9162
50.8916
57.3342
54.6051
48.4629
51.7649
44.1468
69.6449
58.9361
111.768
61.8831
46.8479
43.4454
43.8309
74.4171
127.692
44.8736
42.963
55.8553
57.0236
57.3778
59.6131
69.7294
72.3189
51.8701
76.9242
100.902
431.406
61.6655
69.2588
53.2186
49.345
130.587
129.424
76.5514
49.6687
80.5078
103.151
47.1386
139.579
48.458
262.576
48.3082
51.1496
58.5379
124.804
42.5596
72.671
73.656
51.8726
43.685
51.601
1139.41
63.0703
147.223
46.043
98.6352
46.515
58.9944
83.7764
72.4436
70.4274
45.6352
396.498
54.8524
59.2712
55.5654
48.6778
44.1293
58.1216
116.11
48.3944
56.2492
67.7014
44.1816
257.761
44.6973
61.8867
496.57
71.9562
43.3813
350.185
572.526
45.0969
660.474
688.228
71.0395
46.6105
52.1788
44.4466
85.132
88.9637
659.877
44.8416
127.184
49.6084
112.553
56.904
85.3145
67.1373
516.787
326.033
51.8789
94.6277
99.9351
84.9519
122.033
125.429
48.2666
97.8743
132.906
97.4985
67.4676
133.985
51.5432
47.9355
134.65
93.2969
78.2741
120.583
101.149
68.1852
73.4149
59.1853
53.5361
67.6765
47.4821
46.8797
1324.45
62.2527
76.6184
1005.32
981.011
43.5184
76.6623
1638.87
169.658
92.7139
293.334
119.462
768.533
59.526
48.5463
60.0469
170.687
113.73
112.841
46.4112
118.45
67.5716
83.6415
48.4425
80.3537
57.8875
451.329
700.053
122.374
49.2242
86.2614
43.4209
109.606
47.4225
58.2125
63.5002
65.0873
44.8929
177.845
75.5151
47.5989
67.6361
187.139
782.16
227.315
87.2973
43.3724
74.6845
43.9361
761.492
70.6982
640.681
84.0787
108.359
66.6695
69.2451
58.9217
87.4003
54.1182
88.4006
56.8974
207.335
90.6557
49.2336
71.6441
89.4848
635.374
66.6201
202.67
68.9737
48.6641
43.8651
142.333
79.9209
71.5502
45.9578
63.6457
67.469
72.892
80.8584
80.0095
64.8604
126.258
196.261
71.0125
98.2183
67.8861
113.612
91.7748
48.3485
148.198
61.8782
76.8958
78.7009
44.5854
298.139
398.169
95.4938
65.9937
47.0368
91.3069
55.3422
136.464
44.5658
253.629
81.3867
44.9341
77.4805
47.0509
59.544
70.0806
49.6902
89.4837
42.796
45.5533
48.2128
165.688
42.2907
342.898
250.116
261.453
360.263
79.6095
234.229
58.4777
46.6106
145.11
324.202
396.364
104.516
61.7178
123.025
115.867
163.524
128.905
94.6854
53.9274
70.8064
100.716
112.943
56.41
81.8114
349.947
57.9002
62.6986
153.542
120.283
116.176
172.468
743.122
467.37
225.645
249.218
80.6872
119.355
44.5458
46.8878
71.7351
429.455
177.358
71.5396
72.8671
43.8429
367.628
402.756
43.3045
169.574
90.2379
43.2216
166.018
43.1851
44.1033
72.8346
72.3796
84.3165
48.3963
43.3761
61.1237
68.942
67.6262
137.504
106.47
43.7344
245.429
48.1611
46.6766
47.1484
195.675
79.0505
246.805
120.11
54.7569
43.6195
68.4585
1356.15
72.3516
83.4051
71.2113
65.2158
61.1374
115.013
120.586
127.943
286.447
95.1312
798.303
49.4171
66.321
56.133
62.7168
45.2807
166.72
126.354
44.5507
295.089
95.1058
71.6583
245.398
78.0663
54.5332
71.384
67.5224
69.3992
112.384
331.771
66.6021
73.8908
207.64
221.141
661.855
215.773
89.1769
173.497
45.0972
47.9658
106.04
174.714
86.5741
82.8939
93.0604
103.37
47.8319
68.3555
104.453
99.3139
90.0889
353.678
503.212
94.0479
129.03
162.069
688.442
411.959
204.236
92.6245
67.1543
96.5894
93.2643
225.941
45.9732
48.1629
96.4896
413.504
121.277
74.8498
97.8386
54.2496
109.298
126.838
78.6066
503.317
54.0521
64.8435
131.331
97.2574
65.4206
66.1325
104.734
102.687
90.9167
58.2384
125.901
45.3589
45.0711
45.9271
80.1536
57.9443
151.641
53.2327
217.855
288.595
263.423
99.7105
83.7012
45.8451
70.3033
114.374
491.957
242.559
892.418
45.346
58.2904
54.4237
325.211
88.6762
329.383
237.797
231.947
134.147
219.587
90.6531
86.4933
73.3574
46.4988
125.461
67.5961
74.4951
248.852
74.0839
68.2429
51.0206
264.919
399.071
151.565
201.512
662.075
192.158
91.7257
68.7249
89.781
106.237
185.056
188.778
522.239
46.3682
58.3841
72.7728
47.8225
63.2933
100.98
96.6451
54.1683
119.143
53.0715
76.7885
51.7099
47.2966
124.805
66.6018
117.355
44.9548
45.3377
163.078
47.3515
99.366
105.239
44.8522
62.859
107.309
79.9603
68.1345
80.0752
556.668
184.776
124.711
107.727
1875.75
1009.97
643.767
451.948
102.643
49.6275
1134.29
419.267
54.017
63.372
106.995
86.154
396.504
138.943
45.7221
113.715
58.1961
49.4286
204.354
957.743
139.479
1191.25
152.565
248.914
688.499
56.6923
77.1397
134.269
317.217
92.5572
46.8264
46.5547
807.841
104.121
363.407
73.8171
162.13
48.9113
53.5971
556.633
576.193
82.7065
53.6934
75.55
517.739
44.2203
51.3858
438.277
570.583
72.625
44.427
1050.24
762.292
578.789
99.7857
269.239
519.257
552.951
80.1301
88.4137
107.642
64.6375
108.304
548.369
1373.29
64.1527
60.045
58.7841
52.3428
47.983
81.8901
133.21
65.9599
49.5561
48.5317
90.7425
354.979
1166.09
51.5748
228.946
102.677
73.0104
177.979
57.3813
90.6103
76.7134
46.66
199.385
53.4968
517.841
44.584
792.894
490.139
591.504
203.554
100.333
63.112
102.997
58.866
217.717
1450.01
104.203
391.569
182.329
471.985
160.064
773.424
618.387
92.0725
59.7555
1605.86
87.7891
49.0271
73.9825
598.299
1082.18
80.2014
52.478
475.992
77.5446
805.483
766.889
108.148
114.937
848.595
103.176
45.0612
595.168
52.1641
543.558
1003.35
43.8145
69.9963
84.765
56.657
123.277
102.322
43.0427
121.857
89.8801
117.394
57.6948
43.5109
193.161
208.407
599.522
51.8561
95.7062
226.954
45.4263
840.62
86.098
113.21
151.572
508.207
86.8766
391.016
182.034
146.211
56.9954
554.924
224.059
293.145
86.3017
162.691
62.5844
76.0317
71.4307
342.839
243.855
109.365
727.298
150.1
109.082
282.147
125.142
143.951
747.659
347.082
56.0273
157.288
83.8658
148.415
304.062
897.191
58.388
45.853
62.3946
492.878
63.5117
302.953
58.9599
62.3041
47.6633
149.785
55.3755
207.161
311.858
54.0762
60.9134
92.3169
80.7712
984.307
409.152
117.146
750.826
351.144
121.981
243.919
64.244
57.2716
1051.42
57.1048
369.618
351.044
46.1414
59.1255
95.6022
96.2728
56.2615
71.1385
143.744
74.9396
78.4855
66.7621
81.6305
243.262
67.0891
192.853
155.602
205.085
56.2688
734.805
436.944
54.7783
566.974
244.413
57.308
107.761
644.802
218.17
46.9469
181.492
440.174
197.632
488.334
57.7192
577.309
113.894
55.0224
68.8171
108.781
184.83
123.031
65.8138
247.373
50.5843
232.11
107.335
1278.26
144.15
80.7697
120.143
263.426
55.1986
276.023
109.11
109.489
622.975
79.401
79.0707
1070.04
43.7072
103.596
372.545
62.4257
270.808
663.127
151.808
72.059
83.6427
955.964
285.101
418.418
302.834
77.8459
69.9004
100.544
684.934
721.972
302.16
88.68
48.25
86.7859
87.6385
130.258
334.559
92.7459
55.662
62.6787
61.4319
45.2336
85.2658
44.4372
46.8408
120.688
82.6108
46.0246
129.032
233.837
61.6769
47.7042
131.128
64.3279
48.1086
55.2652
100.997
94.8728
50.2178
96.9057
569.045
87.9391
48.5597
54.79
44.226
246.484
67.5662
54.0473
684.446
687.673
287.638
48.3048
665.307
149.146
53.5868
1013.68
93.2933
996.429
91.072
66.6783
81.7955
66.7116
45.8158
82.5849
83.9912
92.4516
114.902
89.6632
104.171
161.81
80.7115
80.8419
428.917
86.5283
1359.29
70.5697
695.029
46.3917
118.954
179.97
52.5852
68.5538
189.918
43.2825
545.336
331.452
1230.65
51.3238
633.868
58.9804
110.228
170.84
57.8599
584.189
88.9471
289.768
68.5418
742.782
700.413
79.84
44
452.982
69.3536
404.91
85.3703
95.9374
70.4137
72.7925
57.227
45.7685
88.6204
275.535
74.0725
176.872
84.2034
87.0887
42.9903
155.177
591.687
90.0722
386.597
114.465
67.6797
120.475
79.4751
74.1786
56.1117
151.742
131.517
48.5682
85.701
83.2958
68.211
93.7597
406.189
414.299
81.7211
90.4446
311.734
87.7549
52.8585
64.8049
48.787
167.595
166.534
203.933
104.465
70.0283
74.793
65.5003
56.5174
57.9035
59.339
479.78
130.263
666.311
513.317
630.521
58.0173
68.8583
71.9673
72.2147
48.373
323.076
81.9711
47.1258
79.1914
111.481
76.5635
330.093
74.8637
157.272
112.419
98.3626
50.4784
70.9812
89.6523
88.5221
68.407
113.461
98.3747
176.813
87.0812
68.9122
79.1882
150.858
170.401
65.4682
80.633
134.994
97.341
170.072
45.7217
56.5107
136.469
69.0237
54.1156
76.2905
44.9493
46.8752
88.543
75.0611
401.031
72.4291
88.9574
50.0655
70.5383
646.193
80.0444
85.1728
60.2092
61.5286
87.9276
86.0569
944.081
107.304
466.517
51.3888
60.2723
71.4066
43.166
49.0463
108.425
81.6844
48.3526
45.6159
308.688
107.159
511.355
120.421
254.899
104.72
78.7964
109.46
573.671
182.338
94.921
79.1753
942.079
64.8059
80.5458
87.0639
83.1191
50.4402
950.334
67.5267
91.3551
46.7784
124.473
55.4278
915.542
1013.49
67.7391
53.5096
44.2998
91.4262
93.8151
60.3219
1181.24
797.991
65.0325
138.292
454.435
64.6619
150.494
121.741
44.151
62.3981
46.8038
74.5389
213.996
86.1394
78.3736
45.3303
56.4165
75.3907
48.6131
312.707
63.4569
139.83
164.67
439.935
321.212
102.492
134.642
75.4031
133.155
119.104
44.3956
602.742
328.947
131.227
92.6627
106.05
90.8676
88.288
288.918
42.9893
45.683
62.1877
65.0081
134.864
75.5228
362.246
389.895
45.9494
131.226
44.3445
43.505
80.2626
62.0264
64.2316
54.9456
43.1023
290.044
368.936
43.5237
50.7578
220.656
466.607
48.7352
43.0581
89.7551
174.995
927.522
94.1791
390.955
372.042
500.846
391.322
71.7791
49.4012
43.2802
58.4312
960.377
56.5605
85.6804
80.2438
43.0419
718.121
1214
1190.98
199.246
362.774
50.3796
45.5141
53.3402
84.7001
779.6
634.439
412.101
540.419
392.118
55.4495
48.7613
854.833
47.8102
914.184
95.2441
910.359
79.517
145.832
86.9331
186.955
169.166
169.719
129.336
63.0027
88.7433
72.9654
65.6102
72.0982
66.1142
1255.32
823.971
91.1627
344.913
714.448
329.304
68.1971
46.3325
655.8
513.558
504.932
44.532
800.117
50.1241
981.014
624.65
732.415
284.139
54.2262
61.4277
46.9306
71.4636
85.8214
166.527
68.4255
84.9841
64.2015
94.7598
78.7632
45.1554
48.5035
119.782
46.1766
52.0616
78.7781
92.4341
94.2556
87.747
153.862
90.9861
56.3377
116.647
99.4431
90.7381
94.1923
140.243
1068.36
59.2192
337.33
69.3357
90.9492
464.821
66.0567
56.382
47.0202
107.646
96.0542
54.7562
109.058
102.028
84.3292
46.806
67.7503
61.5464
71.1429
105.648
73.247
98.9658
282.709
90.927
81.0964
76.4196
112.538
79.2795
347.617
44.763
68.7365
106.69
308.967
281.566
88.5986
102.796
942.961
232.86
186.853
90.6997
72.4083
109.696
88.3661
53.4183
132.049
78.6901
87.931
421.093
51.4266
165.906
128.88
110.92
106.2
201.044
78.5528
57.6217
44.3327
53.3514
100.16
80.8267
467.116
62.9742
91.5719
127.918
103.565
895.006
56.5522
90.5485
105.417
275.14
386.966
146.929
44.686
135.804
66.0209
46.3038
43.2939
561.481
100.43
58.7929
424.93
115.349
68.8842
151.704
784.331
1117.98
172.571
70.9759
869.56
72.9567
211.048
133.691
581.588
295.873
103.404
95.1702
529.256
91.8646
63.2425
79.888
100.17
54.1876
63.2214
350.758
45.0951
101.766
568.752
152.995
568.473
86.6686
439.54
49.8697
1144.94
105.893
106.079
623.151
233.991
295.221
558.612
425.316
270.454
56.0308
58.7598
428.563
55.6973
85.866
315.981
67.4072
58.7131
78.7111
155.074
71.0955
50.3248
739.703
475.07
176.673
318.98
168.563
93.0318
82.002
80.704
116.111
69.5724
57.3303
85.9771
62.3522
306.565
315.953
132.219
54.3923
98.1407
79.7817
122.85
106.087
98.2632
78.8351
312.873
58.7797
65.6542
326.253
132.127
580.635
204.714
99.2654
748.538
138.238
112.492
408.206
134.607
128.738
50.2559
557.396
43.8198
57.0289
51.4775
86.3168
67.6233
101.643
213.357
105.077
122.981
81.7523
110.729
99.84
43.4779
373.643
151.886
588.533
1098.26
108.872
397.352
129.914
70.4429
542.253
69.1999
61.2316
97.8036
116.125
690.573
436.252
53.7685
313.712
370.709
86.3674
1921.25
407.421
129.873
372.516
62.0265
88.5306
241.878
341.664
145.792
746.359
54.1616
52.2417
154.794
51.6384
48.1415
106.162
321.581
578.666
46.856
139.269
44.0485
144.419
63.5767
143.849
313.318
91.8712
293.659
59.6384
63.3968
791.187
44.8536
53.9827
108.076
53.4497
125.043
266.218
46.6124
952.676
553.03
888.073
460.639
119.396
67.1489
53.6574
62.197
84.874
47.3919
86.6071
149.415
63.0715
71.5344
662.207
45.9334
165.073
45.0261
134.641
71.4339
731.516
128.573
106.242
45.5118
131.545
151.564
48.7999
60.7632
99.5825
43.1933
202.087
97.5787
105.458
54.8869
45.5378
102.71
47.0564
128.263
400.372
45.2076
75.8902
49.5716
63.7406
358.122
221.432
125.33
450.002
845.968
358.494
81.741
509.88
387.869
689.712
73.2004
204.658
347.972
336.17
300.919
898.599
55.1076
45.3963
201.626
812.547
53.655
430.075
115.716
452.112
79.4651
67.3386
622.89
574.009
333.007
57.3586
293.147
131.216
409.642
45.0738
204.654
64.6311
56.9806
95.2171
96.6521
295.196
109.22
63.845
161.7
80.3099
265.013
376.694
44.4677
72.4686
54.5111
907.603
89.8396
131.58
196.849
138.511
71.5793
44.3937
91.5941
76.6201
461.31
43.6237
104.59
317.946
65.3294
50.1552
78.0532
74.4542
692.988
138.94
210.787
96.54
74.0156
1026.88
687.368
60.3486
144.753
60.505
48.6627
410.283
85.6222
532.631
56.665
51.2332
96.9462
56.5371
47.4769
61.3716
70.9873
136.761
239.962
299.574
402.291
70.411
74.0689
47.1891
171.435
601.772
938.096
68.5149
472.434
181.034
670.49
77.5761
362.98
110.688
166.061
130.022
82.8442
261.244
75.5506
187.965
113.218
59.6429
1034.74
107.58
520.372
107.395
76.576
109.487
144.833
68.58
68.6474
337.738
106.44
122.663
57.6866
123.443
542.683
127.675
79.4539
159.659
46.5111
63.2086
46.0375
75.0336
78.4789
148.364
71.0868
95.1435
95.1712
74.1602
77.2201
64.5705
74.8158
60.0406
363.977
49.797
107.289
49.4207
68.2577
124.559
76.1765
54.3853
79.1051
100.143
88.0635
127.224
355.329
48.1442
170.139
463.521
158.584
156.246
51.6934
156.803
91.339
304.926
65.2573
45.5627
53.4455
164.335
56.7867
66.803
874.502
212.881
364.844
45.0196
51.2031
185.552
81.1349
55.6399
134.79
49.1072
80.7736
54.458
393.625
45.7309
156.231
46.4105
45.6502
76.8903
67.4666
132.806
106.076
43.2916
297.497
65.52
67.8257
90.0402
803.963
65.8488
61.7972
127.338
61.7002
57.4447
123.887
59.9748
51.8972
107.57
210.057
125.687
83.91
406.434
109.359
243.854
48.5047
182.4
64.7539
95.0335
227.018
50.034
108.351
65.911
82.113
156.642
70.5383
581.824
109.106
46.4335
520.795
131.392
1044.1
302.138
197.06
87.1948
94.1527
122.13
361.687
60.9326
441.819
92.0799
354.248
65.7028
392.987
64.5554
252.743
220.039
124.056
347.2
547.976
396.236
1144.37
540.25
467.347
457.018
470.546
327.335
43.704
95.9035
325.106
69.5705
636.204
58.702
496.205
625.354
119.777
100.348
76.5752
44.4329
114.612
48.0432
250.436
131.624
83.7934
186.995
85.2805
154.877
72.7546
54.3335
112.14
49.5394
220.059
47.5999
69.1844
708.429
65.6799
43.6316
105.503
63.7881
756.775
289.917
72.7044
67.2435
173.95
50.451
85.2098
49.9505
51.8622
105.721
77.1053
56.3238
63.0362
304.943
88.8779
55.3671
44.3467
44.3531
46.3208
200.504
72.5718
96.5814
54.3277
80.2402
98.5761
55.6228
236.578
72.2606
48.1294
59.9604
82.968
138.632
111.354
99.2575
50.7883
119.664
85.0005
52.6588
51.9799
77.0254
83.8953
101.818
69.1216
124.07
66.3126
88.5797
115.897
298.804
761.534
1118.79
123.274
61.0616
492.476
169.963
171.51
45.7101
51.2258
44.4702
90.7701
73.7969
44.0443
45.619
46.2168
112.216
43.1821
48.8163
43.814
60.3014
182.993
53.5784
114.888
52.727
97.7182
243.11
60.4619
54.4035
62.4188
1074.65
890.692
99.8165
67.1188
68.6246
59.2816
94.6497
484.761
64.6803
68.2082
90.7518
43.7364
95.4987
51.6758
87.1835
112.437
92.011
63.0445
204.73
262.591
64.696
2080.83
247.051
200.511
61.4945
85.7508
100.638
115.193
54.5359
75.8762
302.832
45.9652
193.312
617.306
105.831
124.319
654.304
64.889
80.4873
92.2178
43.435
118.647
411.471
92.2195
90.8466
462.481
218.24
1087.94
623.748
100.187
49.1794
141.64
68.8757
185.812
149.022
567.158
49.8488
45.7952
645.845
52.8763
194.241
77.7554
103.98
659.909
842.683
51.1798
43.9013
935.119
50.591
54.4274
66.111
48.1556
81.4736
153.898
267.086
61.7992
578.176
105.424
52.027
85.9551
717.039
80.5418
606.952
66.0113
61.6882
86.8206
84.8795
59.915
113.19
65.2933
569.231
113.974
116.67
525.327
123.722
53.9996
662.05
111.309
106.687
82.6672
160.699
108.762
78.8135
45.3527
263.208
73.2336
73.0021
64.853
121.541
83.2298
59.0104
47.0582
66.8182
148.208
71.744
66.8005
80.8701
457.299
73.2532
71.0184
68.7097
94.4273
47.2038
63.9765
63.6114
132.449
104.327
141.753
148.971
90.173
467.52
63.2964
57.0901
455.902
411.269
497.715
90.0361
335.065
53.0142
582.25
95.1384
327.41
96.0022
44.6776
115.586
200.555
93.5271
69.7555
44.0717
63.8905
424.404
64.1374
50.5642
54.2931
1507.7
334.61
45.5023
1493.4
582.96
332.287
222.718
886.659
291.502
75.9782
318.769
89.116
89.2929
404.784
1008.17
63.0082
45.3714
55.2852
493.035
46.3041
1008.5
122.272
129.353
132.295
125.714
336.875
43.2913
115.583
123.166
55.8525
105.305
53.5778
121.927
2002.96
1909.69
817.871
97.7664
659.544
44.4209
49.5219
63.1134
101.036
44.5764
55.8312
44.1236
73.9497
90.3984
47.2214
54.7153
76.8484
46.5811
101.446
121.394
44.3929
115.53
122.684
44.817
54.5781
883.432
56.5382
837.567
603.843
126.829
133.121
84.0886
122.724
68.675
53.441
552.311
58.6947
58.6875
48.0634
51.7668
78.8555
141.187
124.335
176.761
112.831
48.0785
557.437
61.3343
318.847
356.37
63.6798
574.901
79.6807
54.8688
60.8552
57.4122
63.9363
47.9984
130.21
50.9593
358.331
219.516
371.023
57.1651
56.8843
83.5267
325.152
471.938
91.7749
147.134
64.8136
314.039
64.4932
162.041
466.466
85.0795
56.4637
91.6424
993.93
63.7765
59.2432
120.261
48.0348
137.207
127.131
126.962
84.6886
290.574
170.196
528.099
71.5425
275.6
407.658
323.35
53.9502
175.956
93.9572
102.819
53.9788
64.3568
63.4726
487.119
85.8268
99.8477
247.428
82.8288
63.1586
97.5288
46.0194
143.992
48.2491
63.9972
165.468
103.571
79.7147
167.067
98.7568
92.1934
80.9251
126.649
45.572
322.585
263.746
107.709
103.871
45.6347
326.884
60.3188
45.4302
85.6255
47.657
108.032
89.423
50.265
55.1815
98.9283
286.614
237.331
49.6423
818.597
45.2875
97.5255
95.9383
48.1619
777.822
148.729
670.693
49.9154
68.4673
539.768
681.612
88.5644
102.647
186.82
127.983
50.1959
97.8222
63.5905
146.313
81.7767
134.414
49.8636
135.741
101.038
107.398
62.0525
88.4646
44.1574
60.8606
583.729
362.299
107.567
97.8415
101.866
86.6634
86.3995
161.9
44.308
50.4928
59.8191
86.8352
81.3978
66.6011
112.516
52.8812
58.1538
52.1406
72.8301
58.1056
69.8082
190.347
84.0097
68.2546
1016.74
78.5807
65.2083
78.7184
44.6974
83.2648
207.969
46.8837
76.4543
81.215
576.554
64.3986
63.1618
94.8463
1489.99
95.453
157.056
120.68
65.5462
60.7189
77.21
62.8034
846.105
94.393
68.3202
64.3565
44.5552
281.154
46.5222
428.796
442.04
112.119
73.5459
59.3155
115.526
89.1531
57.8147
438.972
119.079
300.512
43.7375
138.568
592.257
118.989
49.8081
100.168
54.7039
626.718
57.8382
53.8836
90.5311
43.8323
60.9722
87.8499
52.4563
367.005
44.1162
373.014
46.5436
73.7036
66.7871
148.067
87.4955
126.984
113.102
555.858
109.156
119.556
75.4937
45.2649
103.612
58.8295
53.5275
81.3127
76.8908
63.5049
124.329
47.0604
65.8607
47.32
289.689
87.204
623.175
543.345
319.809
158.299
67.7409
70.2128
61.3343
195.072
90.8511
45.1023
43.162
112.447
145.816
46.7817
72.1799
1053.17
121.763
67.0034
75.4888
607.523
846.833
59.539
550.988
550.366
200.236
365.403
164.15
537.412
72.0366
222.403
739.231
75.3273
43.1247
62.0186
107.711
314.693
44.0416
44.5854
70.4792
144.863
153.502
984.601
109.225
1037.35
119.322
70.1003
85.0988
77.3141
75.6829
554.665
198.445
327.837
461.504
66.9753
407.649
1245.84
66.3063
159.434
114.857
410.273
150.981
127.547
703.836
1056.01
107.06
620.045
125.561
417.697
81.7619
44.9423
153.178
781.152
679.483
62.9632
103.067
148.63
98.4621
251.72
49.0475
71.8805
956.135
384.318
374.503
55.9952
368.735
67.0107
373.291
56.7128
113.62
189.868
314.328
87.2135
120.745
292.477
104.433
933.847
72.0423
59.758
380.521
46.8623
146.249
45.5079
55.0562
44.1101
82.0247
438.851
446.875
327.688
59.3888
63.1317
302.376
57.1057
551.077
72.2204
53.705
81.2117
218.236
153.844
641.492
51.2014
73.1335
64.3179
275.733
100.37
577.249
908.12
431.321
104.579
61.5966
424.269
355.854
152.976
47.6656
61.8127
43.0722
700.155
271.169
466.953
1267.6
239.966
95.5341
80.0938
778.559
406.716
63.2392
87.6176
102.33
329.169
60.8143
47.7099
88.2832
81.6286
789.692
294.906
225.171
252.482
321.632
331.002
162.506
91.2785
842.161
471.019
716.642
202.061
329.922
651.754
151.05
57.8764
107.436
58.1495
59.1656
78.2015
76.5816
137.136
300.523
85.1035
178.907
182.108
146.987
112.686
191.227
112.378
102.508
128.617
749.321
1129.42
457.412
69.2821
119.059
82.6963
271.648
571.243
156.463
621.181
80.8524
500.831
433.172
176.763
47.6592
44.3034
70.4907
63.7308
693.953
94.5688
58.4714
496.951
72.91
861.091
451.5
107.336
454.51
63.4851
45.9898
46.8051
43.3736
97.8237
62.426
91.6753
131.062
73.7851
46.119
145.044
686.997
534.443
44.3934
106.466
49.6371
62.6928
56.6639
695.478
49.255
54.9456
52.9915
104.377
46.4237
54.3107
98.7902
56.5986
58.4864
53.4709
239.088
44.4573
58.2067
132.269
410.987
304.969
63.4718
558.31
733.788
54.5575
53.0028
164.988
79.1235
303.804
74.7533
91.7448
82.4406
288.995
68.337
92.2407
1040.24
487.513
88.5279
632.139
46.5901
46.2754
62.2077
46.0964
47.5601
70.9946
54.0931
80.608
211.843
88.9282
365.716
248.166
222.671
81.7183
43.8691
589.586
131.598
83.8867
553.452
102.288
684.764
63.4917
425.59
44.822
182.029
87.1206
226.251
47.5622
86.0012
77.9908
687.48
49.0446
43.5165
177.922
81.2311
134.312
60.8807
72.4046
91.5376
47.8969
140.489
48.9403
63.936
147.765
93.4496
287.548
68.9721
45.8615
61.5207
45.3993
52.3731
287.506
43.4339
95.193
43.9027
221.835
116.193
50.6702
112.406
112.1
57.2308
73.3729
76.2072
129.472
150.45
51.5569
48.3426
91.0717
68.251
290.369
610.343
508.419
60.6677
46.1061
58.2398
65.3603
90.5444
919.915
237.617
63.8043
53.3653
78.1236
46.9649
48.5532
77.2651
152.811
195.235
509.036
377.577
57.1408
76.9085
75.2382
43.6103
226.904
72.7867
113.45
113.537
50.2439
990.264
77.4839
58.1199
70.8043
72.6322
159.979
625.115
45.1736
475.849
54.8722
742.168
122.371
528.78
70.5819
44.6438
60.5461
104.678
49.4719
48.5093
125.691
44.9797
44.4231
54.7169
60.9082
235.519
53.8538
759.891
71.3211
60.4223
155.578
171.477
48.3936
421.712
964.988
748.477
528.126
440.954
55.3665
381.588
294.297
73.987
57.4649
53.4256
670.473
90.7132
96.1172
48.7333
77.77
307.721
765.86
160.189
86.1581
45.4321
65.9459
236.648
46.357
56.1883
603.946
451.849
256.742
770.743
75.0965
46.9343
69.3307
82.2306
1143.34
50.5008
46.2073
43.729
275.142
46.9989
50.5875
92.1909
100.97
45.0264
113.744
46.3811
145.659
86.5742
142.072
51.4586
235.853
88.1709
112.206
166.082
111.022
248.047
49.3309
624.163
94.2322
316.907
322.01
373.036
85.7991
125.137
205.514
66.5302
45.0937
51.0018
54.1763
86.7487
571.411
116.454
46.4562
83.0159
64.8357
48.9226
120.657
62.3042
134.705
101.909
46.9849
98.8929
49.1289
79.0455
287.034
576.185
71.548
99.9742
80.4254
103.936
526.397
348.458
473.598
852.643
142.127
46.7715
48.3831
44.2091
105.171
836.076
79.9263
772.358
121.873
45.2412
117.424
441.834
46.235
46.527
55.8677
75.3907
60.1172
301.113
76.4471
91.6438
311.739
51.0741
97.1043
65.838
129.05
158.232
51.484
680.628
82.2126
111.029
55.7499
124.353
46.1906
129.931
123.23
93.67
92.1222
80.4741
66.9939
69.6357
50.4957
227.022
62.1366
50.5424
115.685
199.528
230.946
150.532
98.7199
112.379
191.28
71.6188
294.956
120.739
134.969
101.708
100.898
146.948
76.0446
129.771
445.995
99.9197
53.7831
48.9109
312.277
90.2781
102.329
50.1206
102.508
87.0866
48.2626
94.4586
411.548
95.1448
72.4973
86.634
667.963
75.7548
91.2691
147.566
58.972
156.336
48.1412
765.102
85.4075
79.3733
83.3817
55.4362
114.454
55.4196
521.524
43.7916
77.2592
657.434
59.6741
110.561
199.803
100.456
48.9964
581.778
59.4228
45.3965
101.134
131.506
60.5254
328.324
45.2276
351.995
99.4157
44.1277
71.2134
117.15
735.213
184.235
72.1902
44.7844
131.756
407.184
288.944
116.937
123.851
992.796
213.801
313.901
128.091
82.5124
102.795
59.7946
520.672
1052.53
152.996
163.601
100.198
1022.12
467.871
546.429
409.397
183.999
64.3826
51.3664
152.802
73.7495
555.976
313.173
77.5462
855.052
107.459
102.392
71.8006
50.7011
106.054
87.9336
91.209
80.5117
148.365
184.326
886.218
57.393
119.108
645.499
619.086
182.268
178.483
62.3774
632.99
47.5871
65.8891
346.533
148.443
44.3854
335.726
435.1
72.3217
124.188
48.4252
94.9208
56.0471
80.9259
174.534
82.0896
617.386
44.0347
50.8725
87.5643
480.925
172.015
123.575
164.506
343.577
122.04
78.725
430.622
108.665
69.8416
239.784
799.642
270.284
59.7838
370.451
160.407
92.8027
65.9964
128.902
47.1948
116.497
80.2219
74.234
65.2685
60.083
86.9124
44.1844
43.8192
49.4743
100.244
49.7124
160.567
392.45
738.869
96.3409
86.1326
59.5379
49.57
103.278
654.597
52.2073
143.531
71.6936
226.357
67.4462
128.523
224.653
421.932
47.8846
57.3909
273.122
53.0738
70.8752
128.809
92.2907
395.364
86.4328
263.276
461.317
226.963
648.74
196.051
381.007
93.651
153.796
146.944
53.9638
479.637
132.486
85.6926
170.785
97.7099
89.2461
44.1352
52.7884
49.9444
45.2658
87.4653
339.774
43.4635
952.637
111.766
344.726
114.742
370.467
1232.99
54.7595
252.591
858.731
141.621
345.12
77.2675
69.8241
781.914
1008.88
284.86
169.013
52.7794
438.681
103.571
618.661
53.2635
54.3372
241.055
1025.13
60.8728
83.1261
51.2245
233.855
531.45
48.0094
483.251
204.792
541.1
720.662
49.7595
343.789
74.4599
700.531
339.456
200.968
399.438
284.53
516.749
351.731
231.369
82.4529
77.9016
75.2454
49.244
53.9053
1394.45
73.7168
108.691
77.3804
82.7938
131.667
1132.34
144.862
242.804
299.56
150.929
287.321
126.259
44.705
78.8426
1026.78
636.683
318.185
193.711
245.747
87.8067
481.18
61.9936
257.841
319.075
57.9935
544.302
95.7746
294.605
320.915
159.954
226.641
230.619
148.904
50.9687
138.471
61.5145
548.992
72.8215
197.487
82.8664
262.38
55.9346
67.3005
335.019
121.617
297.529
45.3311
1354.35
46.1542
59.5594
57.1118
55.3974
94.8564
518.769
169.586
94.384
665.733
74.9475
49.2004
57.8524
878.038
76.4966
98.3257
852.474
349.213
912.224
543.028
164.368
220.234
158.373
186.339
742.803
65.779
453.255
133.565
66.4163
180.673
65.0371
148.022
74.7552
608.052
454.827
561.004
362.898
268.473