/*--------------------------------*- C++ -*----------------------------------*\
| =========                 |                                                 |
| \\      /  F ield         | OpenFOAM: The Open Source CFD Toolbox           |
|  \\    /   O peration     | Version:  2506                                  |
|   \\  /    A nd           | Website:  www.openfoam.com                      |
|    \\/     M anipulation  |                                                 |
\*---------------------------------------------------------------------------*/
FoamFile
{
    version     2.0;
    format      ascii;
    arch        "LSB;label=32;scalar=64";
    class       volScalarField;
    location    "0.0595072";
    object      p;
}
// * * * * * * * * * * * * * * * * * * * * * * * * * * * * * * * * * * * * * //

dimensions      [0 2 -2 0 0 0 0];

internalField   nonuniform List<scalar> 
47425
(
1.18414
1.38388
-0.0110008
-6.26932
-22.5607
0.0728792
-20.4278
0.0441572
12.7619
-38.7283
0.0110207
13.2418
-15.8699
-0.00835138
-2.33579
11.7982
0.0253356
23.8
-115.77
-38.2942
2.38658
15.4113
-0.0306531
1.071
14.1638
1.0688
0.106418
-47.049
0.00936279
0.205365
15.2803
12.1138
13.4199
0.405057
-0.0349539
0.0195486
16.1223
13.1879
6.35923
1.26887
1.50004
-0.814064
3.08391
13.1054
-40.3594
1.22259
0.166107
12.9969
1.17352
0.567574
44.0856
-0.109641
0.2126
-33.3116
1.02681
8.24248
1.22228
0.0276204
-10.924
0.0677422
-34.9944
-34.5994
-64.4465
20.527
12.6096
2.62501
13.5036
-2.43698
-47.9886
22.6609
3.18546
0.821883
0.730113
2.2179
-53.9532
12.439
-63.5741
0.205398
-83.1445
-22.6088
-56.1861
10.0314
20.5296
12.3286
2.03152
1.13552
0.602806
1.48928
-5.00405
-28.3687
14.5707
1.67412
0.524634
1.10649
1.14663
1.19962
0.454976
1.15973
1.32813
11.2618
12.1933
20.3054
8.968
45.1515
8.94566
0.498952
1.47502
1.2021
1.87865
13.4967
-36.6472
13.0886
0.0284801
1.0925
-1.17101
33.8366
-0.776266
45.0715
7.64844
-3.66473
1.14272
13.4428
12.9622
-9.70087
10.9349
-1.12043
1.14394
12.5014
1.09142
0.60274
21.5008
0.533798
54.5517
7.72814
-0.011409
-12.4397
2.08319
-1.10547
10.9536
-1.04741
13.485
-5.35665
5.66538
-0.784047
10.9475
12.5611
-21.0085
12.7464
5.66285
13.3718
-0.228001
35.9371
12.8016
-10.0055
20.9322
1.21579
0.391148
-127.477
1.13911
0.332643
-2.56253
1.05273
0.741436
10.6076
-53.5038
-94.0028
12.8004
-54.1614
0.809075
-49.3715
-54.8176
0.554481
12.5517
18.0919
1.19467
13.0232
26.1263
0.059355
0.0489814
0.374163
19.6775
1.2986
0.0753899
0.077787
0.220358
12.1934
10.0118
49.3163
0.405929
1.3091
13.3304
0.488828
-12.5939
13.551
0.382991
-2.07789
13.5338
0.968314
-2.78539
1.23785
0.331395
0.779337
2.00913
-1.71491
8.4296
1.59219
0.0219833
-1.28284
12.0835
12.4486
1.18428
-2.24809
12.5177
1.04025
0.899634
-3.24024
1.50447
-25.528
21.0261
13.33
-24.9634
-4.25453
3.57916
1.27823
1.91576
-22.7856
0.473522
-2.94939
-4.91017
-9.57261
1.92642
0.174448
0.878933
13.1677
0.136236
12.2118
-27.774
0.634671
-25.0746
0.138159
0.144101
0.430771
0.580801
-6.99771
7.8042
12.4488
1.18805
12.3448
0.853827
0.0150581
1.13273
-20.6837
0.0544832
13.5106
0.253866
0.216839
14.6943
0.342827
7.14089
12.3794
0.272983
13.037
9.5453
9.42323
-11.3495
1.04543
0.0643338
-11.2749
0.256226
9.58366
10.083
-25.1587
-27.6948
10.0269
-22.7101
10.1297
-23.8379
32.7449
-26.0594
31.812
-32.6133
1.37685
-37.9702
0.707036
0.694823
-3.7075
0.653735
0.0113783
1.60851
-0.990014
54.8002
19.4417
12.6328
0.0271677
0.111254
11.425
-5.60326
10.2647
12.8665
-10.0086
1.33885
0.957412
0.231867
0.192131
-52.44
-66.1006
34.5458
0.44722
0.964394
11.1033
10.5018
46.942
0.00332414
0.0541534
-16.1813
1.23608
0.534651
0.41021
0.157346
-35.555
-15.7145
11.7409
11.3852
0.0808065
0.987582
0.103441
11.6534
1.19673
0.721683
0.218133
-6.42987
-59.122
4.79968
0.100519
13.3687
0.0691739
-58.2161
13.0621
0.772147
0.839727
11.6969
11.4409
1.30032
13.3213
0.650758
0.0144032
0.133272
15.7734
-0.0604375
0.156306
11.9543
7.2013
12.1142
12.9423
12.4275
-2.80994
0.444093
20.0952
12.7631
12.7291
19.1628
-4.45175
1.07012
0.157942
8.29979
0.701682
0.159047
12.7935
13.0523
9.61219
0.203811
-41.2348
0.612051
10.7099
12.5732
10.5548
-2.45616
12.0985
12.4429
15.7309
12.364
10.5033
0.955829
12.9262
1.10774
12.9584
0.0756277
9.93433
13.42
0.088889
5.9766
7.32015
-0.027338
6.76427
0.536339
6.56413
13.3864
0.0315972
-13.6304
0.344867
-29.922
0.513818
-36.1745
0.20298
2.37779
0.298146
0.265087
0.04657
0.138046
0.226056
7.37509
-61.5844
57.1583
0.991702
6.81834
4.29721
2.77703
0.956273
0.0322073
0.558644
0.152607
0.743027
1.44791
2.70247
0.0463901
0.101737
-6.89803
-5.10435
-1.81419
16.3864
-59.3891
0.644982
26.4882
-58.5608
1.65766
-61.5193
-32.9686
0.804957
-0.189808
0.796766
-3.16879
-63.9439
1.13639
0.886671
0.549589
-3.72247
-1.43042
1.10185
1.25901
-24.6999
-61.2968
-27.2086
13.256
18.9553
-2.26795
1.05184
0.643443
-12.7967
0.88751
13.2268
13.4916
13.5094
6.92798
13.4272
0.854806
10.6008
0.188466
-1.11651
0.595137
0.527533
13.2918
13.4134
12.3034
8.10682
11.3655
1.05247
-0.212746
-24.6291
12.3704
-13.3693
13.4526
-1.34751
-4.24585
12.8905
0.920164
11.3061
12.775
12.3825
9.27427
0.590374
-0.11669
11.4944
1.33719
7.28477
21.0232
0.916269
13.801
12.2907
15.351
1.26248
0.35934
0.992519
0.16677
3.26438
0.0458361
0.163139
1.01023
1.28658
-0.482783
0.117885
0.0611469
23.7804
0.0287407
1.61659
1.39657
1.0571
0.00477278
0.176721
11.4508
7.63794
12.5343
12.5336
44.4214
0.0498453
0.0216502
12.7852
12.9927
-20.8386
-24.6083
0.370819
1.39393
1.31739
-9.60417
12.1214
-27.3952
13.4175
-30.5231
27.0435
20.0373
0.115717
-21.4583
0.241439
1.24971
0.418981
2.01378
0.169292
0.837952
-60.4136
0.280091
-0.0186154
0.337365
-19.4008
0.928398
0.106078
-19.6119
-15.6929
0.174019
0.241819
-28.634
0.377496
-0.20427
0.146848
0.426061
0.28633
-11.1681
-11.1012
19.691
1.65815
1.26032
0.0738572
-28.0974
18.644
1.64236
-28.4425
0.0597944
0.250027
-28.9308
-40.2915
14.0994
-28.3836
-28.2876
0.256935
13.3605
0.114738
17.2072
12.3574
0.122609
-45.7361
11.7963
0.0636055
0.757228
-17.1832
-10.4635
13.4109
6.72013
-54.1509
-27.0679
2.13284
0.652648
0.866204
2.70382
0.622324
0.548463
12.3648
8.38139
13.4095
-1.39128
12.553
-27.7709
5.87523
4.21656
-29.5208
11.056
0.600415
7.56237
10.4831
0.635617
12.8116
-1.90299
29.694
12.5716
-0.588005
1.48912
-84.1981
9.31577
-11.0514
-41.7722
-43.0117
0.22788
1.46964
-44.6458
0.0470815
4.35275
-23.5506
12.8669
-39.1068
0.235607
0.202493
12.6711
-36.2724
13.5136
13.5854
0.370479
0.158559
0.955939
-0.00569129
0.821712
1.03975
0.762715
-32.3851
-30.6892
2.26369
14.0261
0.272021
18.3039
11.8448
13.4943
13.4954
13.5542
13.4819
19.7706
3.02458
13.4226
9.90609
-6.27481
0.124935
-64.805
-28.9726
-0.0183968
18.8518
4.97024
0.193985
-66.8292
-0.0165916
-55.3013
0.310903
-12.8533
-13.8537
0.763948
13.8504
9.84099
26.3925
0.401407
0.652799
0.895271
-16.2239
13.349
-16.659
0.984804
-65.2386
-12.1501
0.881748
-14.6612
13.4463
1.03011
6.14636
0.970503
-15.9595
13.3123
12.053
-15.3094
0.311566
0.909391
0.166766
0.863333
28.742
27.2352
16.5055
15.6393
0.149205
0.00123276
2.5209
1.06136
-0.352761
0.168217
1.18372
0.0920198
1.17548
30.7905
-11.0337
0.0705561
12.2396
1.09195
0.977652
1.30629
0.0294583
-2.92044
-23.9956
1.18833
0.213673
0.127703
1.04935
15.4286
0.0581053
0.720944
0.804427
0.791806
1.17896
18.7149
35.7058
0.959369
-27.6108
-8.51918
-33.019
-27.4878
0.944708
-1.4906
5.12449
0.323073
42.6594
-28.5081
54.948
-10.0467
1.52535
-18.277
0.445183
57.2262
2.17295
0.805499
1.28478
0.202957
-10.5363
1.55932
1.11902
1.0186
-29.9117
25.8709
12.7312
13.0001
45.0088
41.2888
-16.426
-51.927
-23.767
46.4814
43.3862
12.8869
0.626638
18.4217
0.406642
6.82778
-28.4304
1.42619
5.99646
7.32254
0.286119
-29.3556
-29.3381
0.140386
6.11342
0.728476
0.423013
7.33111
0.317891
16.557
0.093578
0.663288
32.1696
0.240851
0.0269102
0.150503
0.450072
0.257363
52.1406
-19.8729
0.0496786
5.28811
0.679815
16.2555
16.6884
-15.7609
0.467596
-27.9114
-16.954
6.53564
2.70565
24.1469
-47.8158
0.0914052
0.12918
-7.94925
1.15732
13.0482
4.30624
-0.0277582
13.5852
-33.8791
-18.0417
-48.915
13.5559
26.7142
0.180004
-10.984
17.9894
-16.3386
0.0588957
19.5078
-38.0579
-9.79588
-17.9176
-29.5158
-15.9683
0.88479
0.0859414
-12.5647
0.108802
-17.6418
-26.876
0.0347625
-20.7172
1.09336
1.0711
-39.2088
1.11539
1.13488
15.7565
16.259
12.5309
-23.9029
-5.34529
1.12655
-12.3235
48.3042
0.0409651
14.6259
1.37241
0.266046
1.13005
1.11352
-30.163
-62.899
-10.2752
0.825689
-17.9335
-17.1403
-25.9247
4.99325
1.19771
13.1132
13.3062
1.30593
-13.2111
17.0718
24.2953
13.169
-27.6804
-17.2
3.08917
1.15614
0.47891
1.06361
33.4007
12.9094
-16.474
0.329031
3.56187
13.0156
12.9992
12.8965
12.7036
13.2219
-21.3003
-3.88249
23.8488
26.5843
17.6758
7.5168
-1.51624
35.6604
0.718694
-8.44527
0.268449
-16.1424
-8.51151
-7.22914
-0.126179
13.2263
15.7119
13.0327
1.11108
-39.8678
-30.7022
-44.0868
10.8957
-9.25948
6.15102
-23.7972
1.24903
-40.6596
1.1538
1.08769
-7.72057
10.4188
1.2313
10.2101
0.388868
5.12151
-9.05194
0.937417
-2.61908
-26.5636
-6.93721
-0.765465
17.6253
50.2713
-57.3043
40.3643
-27.2886
-59.8463
0.245802
1.03754
23.7407
0.522787
52.3535
0.547922
0.392024
-63.1439
15.1717
2.5248
0.297399
12.7988
22.4455
11.3111
0.951959
13.5897
-19.287
10.1462
13.7111
13.9355
13.4482
0.961893
-14.0172
-7.64246
29.3957
14.6885
1.04218
10.9244
0.622512
0.638896
8.24854
-10.3619
-3.28846
-10.4851
-10.7522
10.8565
-41.9733
0.774072
0.675511
0.748133
-55.4784
-56.6218
-22.3111
-27.722
0.755135
-0.901213
-39.1617
-29.1553
-5.63858
11.2674
0.852659
1.26021
-41.0705
4.36579
-1.32376
0.942983
9.62029
1.19114
32.1681
-113.034
-16.0849
-30.5404
0.960901
55.3317
-60.096
1.58205
11.3017
2.76482
-34.3496
11.3449
-5.23658
17.9515
-26.8762
1.97764
-28.474
2.6237
-11.0899
1.09671
7.51127
-27.6279
-27.2587
10.5402
18.8345
-11.4829
-48.2443
9.88381
1.34034
-28.9564
-38.6216
12.076
9.1567
-59.9843
-58.8755
-42.0661
10.7342
-8.10812
-20.1401
-42.0863
10.1967
26.1205
-21.9136
-9.03133
-7.06198
-25.1007
-40.0928
-6.03179
8.32502
12.6572
12.8699
13.7359
10.5693
-3.4703
13.4012
13.377
14.2209
1.2878
-31.5739
-36.5237
11.1969
42.0689
-19.76
11.7136
-17.5511
6.14082
10.6221
-9.40655
-2.95314
10.7746
9.60804
-52.3228
13.7833
-35.115
-62.9923
-37.6439
10.2805
-11.8547
12.2934
1.59045
1.75124
-18.5792
-39.6181
0.896117
-30.0056
-22.2433
60.771
-22.5757
-51.6877
-28.8778
0.0547782
1.37059
-43.3033
0.289611
15.1273
0.117031
-46.981
-40.4761
0.0361116
0.609312
-34.3819
-14.5805
-44.2252
45.7214
0.451924
-6.61553
-53.0522
-0.0955977
22.875
-30.182
15.232
-66.1998
-20.2664
11.3172
0.357448
0.438705
0.888852
0.443222
1.2938
-0.0605302
0.442846
7.70234
34.8028
15.193
25.2674
-22.1378
-12.8668
28.3705
-3.41004
4.44354
-11.5397
13.5088
-71.9312
0.878552
0.993119
0.983034
-38.6603
0.897412
-66.1282
0.998658
7.02143
7.51429
-61.96
51.0118
-29.5215
-24.1166
34.7472
-4.42837
12.8843
-9.28497
-25.7545
-26.5816
-28.6769
44.2116
12.7405
-18.3942
-33.0222
-6.43167
-5.99077
-38.9086
-30.3479
2.54558
-14.9239
12.6109
12.8921
-28.2547
-50.9276
-1.27324
10.2003
12.7715
-60.558
12.9309
-13.71
-13.1538
12.91
13.1661
-21.5062
3.37668
50.7248
-19.3592
4.08919
30.1245
26.7493
10.1494
-90.5153
-41.5306
-15.6238
-117.184
62.05
13.2346
-24.9164
13.236
23.8233
-68.6489
2.84371
-63.3329
-37.3747
-3.18114
21.193
-7.05069
13.0865
13.1326
15.6826
-21.901
4.12416
0.14967
26.5377
0.331064
-6.14587
13.6619
-13.7051
-0.866992
-21.1455
16.238
-61.9654
-42.2057
5.56142
-37.4709
-29.9383
0.159725
49.2616
-39.5918
-4.18609
29.9673
-10.3271
-15.7702
-23.9261
-31.2773
7.7459
-45.2013
-21.9357
6.24932
-2.4628
0.5284
-24.2243
-4.74626
25.2457
-15.6546
1.17706
25.4552
0.753049
-59.5437
0.259929
0.253105
-7.85262
-23.5004
21.6293
-5.50748
-12.9984
-8.44402
-65.3617
0.148889
-13.5115
-64.5245
1.03213
-9.32354
58.2544
-7.04085
-26.0681
-57.7086
0.222896
10.7434
-0.0319806
-128.814
-30.4217
-32.3389
-30.2351
19.5936
-6.11858
-2.20627
-42.2231
-55.8408
-14.2569
0.508207
12.9579
1.31494
0.533684
2.65414
54.1016
13.3745
12.6533
-8.38963
0.580922
15.9307
13.5312
22.4539
13.1157
0.521471
22.9422
13.9233
10.7537
-15.699
1.54591
12.2919
10.2461
-10.8769
12.4678
0.53142
1.24401
10.9791
13.2094
13.2325
-62.6449
12.4544
17.9771
1.08432
0.280165
-27.0654
14.1581
13.6059
-59.0428
-54.9785
59.6323
15.0121
-61.2589
22.8383
1.63111
-55.4558
8.94638
-58.4285
1.07346
1.13222
12.9865
19.3981
11.0868
1.12306
1.00735
1.44785
6.68552
9.29537
0.955901
-19.1357
0.900746
-12.8032
58.4042
12.4636
-46.4528
-13.0892
-73.2473
1.078
11.2348
0.154392
13.8865
1.39544
12.5379
1.30576
-43.8326
-24.6829
-39.2398
-3.6296
-9.36673
1.38716
2.58465
-32.9653
1.64205
-53.9203
-1.08346
-48.4017
1.78833
-60.4454
-89.6904
0.633646
0.1013
-43.6277
0.254705
-43.7832
12.2103
1.59908
0.977463
0.839355
-0.283686
-0.690803
-12.4415
-30.4575
-7.42941
12.2459
1.33545
12.3009
0.899249
12.2059
-43.9416
9.99857
-38.8352
1.7234
1.35011
9.75381
0.609876
9.96912
9.25747
0.195375
1.22568
13.0528
1.13765
-3.54117
1.14315
1.19628
-26.9972
-39.9373
-3.09875
0.851579
-29.4182
0.988749
0.641379
0.494862
0.466435
0.0849104
1.09838
12.3929
12.1108
1.02512
0.794633
41.7991
1.22634
1.08836
1.4122
-47.8421
0.811203
-55.5234
-39.7971
-49.5484
9.50262
0.284362
0.880028
0.150281
1.08678
-45.643
-11.781
0.90644
0.914929
0.886665
0.927364
-27.9573
0.929027
-0.0195451
-16.4154
0.713143
0.529793
0.334421
0.532061
0.309651
0.386955
0.586534
-11.8989
-16.2746
-0.016135
12.2881
-2.5046
-10.1644
-8.8746
0.676352
1.06063
-11.6588
1.33549
0.1385
1.50695
1.02333
-10.9557
0.0311577
1.39696
0.70623
0.656823
1.60399
-6.22476
0.0367398
-47.9374
0.726292
-16.5399
1.13404
0.00791995
-50.072
0.0400459
0.545693
0.0440816
0.873101
0.899779
0.53439
50.6076
0.817604
-34.8293
0.928359
0.265183
1.60758
0.849374
0.614962
0.865538
0.50727
0.847451
0.288643
-13.2422
-10.953
-39.4901
10.757
-13.1385
0.862267
1.15264
0.746006
-29.0224
0.199975
0.245255
0.168883
-56.964
0.118906
1.26655
-0.00801841
0.255324
1.64508
-146.067
0.102939
1.44876
12.4105
0.00275755
-7.68042
28.4603
25.7058
0.0345946
7.36984
0.146575
1.07069
0.580131
0.2482
-55.5741
-55.009
0.0699973
1.01987
-46.6051
-0.0857515
-5.93206
-23.0231
0.0767712
0.953458
5.16155
-0.0582534
-7.79207
0.0523469
1.16117
19.7134
1.80931
0.0486181
12.4252
-24.6525
12.4728
-29.0058
-25.9052
-29.3413
-24.4775
0.514408
12.3996
-18.5156
12.5446
0.319186
16.5081
-37.1804
-26.1772
12.8581
-11.5253
12.8384
0.712763
1.37001
-28.6851
0.917382
0.504472
12.6717
12.6884
40.8267
44.22
62.7218
-15.7145
28.234
12.874
14.884
22.9381
12.7374
0.670444
0.203618
0.494381
-0.0779885
-28.6865
-28.2049
0.704127
2.17558
-2.91555
-60.2222
-2.36595
1.09327
0.123636
-25.3837
-56.8146
0.808537
-44.6085
-4.92094
-31.3528
-42.5744
-14.5755
0.26377
0.746995
13.3535
-58.2067
0.251626
13.4589
0.60778
0.171469
-54.5793
-53.7725
-57.6841
0.183369
-41.0317
16.3761
9.81361
1.83355
-16.4042
-61.8051
-60.6611
-27.3329
60.4422
-27.7235
34.0904
12.3475
-42.4731
13.0007
-60.971
12.3897
-56.7811
12.2811
-27.1061
2.97168
-24.077
12.8967
12.8262
2.33144
12.6812
12.5617
33.3845
2.6673
12.8006
12.5722
-69.5388
-46.9985
-15.1056
-25.1951
-48.7291
-24.8907
1.20627
14.9742
-40.496
-30.4502
-37.6423
13.9254
-56.851
6.0821
-55.8444
-61.5665
-40.1495
-17.4909
15.2282
3.50146
9.46403
12.7193
1.90823
-32.0401
-1.24696
0.026101
1.75058
0.165392
0.138851
1.28214
0.371158
-26.0799
0.29818
0.144305
0.543235
1.5119
-21.2024
1.17893
0.0577855
0.231058
1.78426
-12.4274
-9.24728
0.700156
13.3804
-31.3128
-60.9022
-2.62406
-49.665
-12.5238
-3.77766
-22.2513
37.2102
9.12236
8.5412
-7.97476
-0.0131143
0.166189
-2.95616
-0.0287294
-0.0857928
-1.11074
-0.0190374
1.8671
1.8825
12.0135
-6.1137
1.21053
42.8589
-0.0774071
12.6747
0.129324
-0.00240643
43.5541
-48.9005
24.3213
-0.0717793
0.88532
-25.935
-27.2977
-0.95913
1.29014
12.0828
-12.6624
0.25408
0.162863
-14.5955
12.6211
0.103459
13.4236
54.8524
1.01565
0.50275
-15.2019
-1.56066
0.856669
0.779403
0.466963
12.5347
12.534
10.9871
12.669
12.9838
4.38618
3.32474
-4.83082
-55.8426
5.17452
-7.08937
12.5845
12.4801
62.3306
3.25819
0.671302
0.82011
-24.3784
-38.2281
5.30288
16.2735
0.626599
29.0825
-5.52445
15.0898
-34.9121
47.9255
29.8342
-17.0113
3.8958
4.56341
-23.2617
-59.093
-83.2042
1.61741
-11.4591
-60.6831
2.42711
-14.4003
-7.38021
-39.6555
-26.9686
2.28892
16.0315
-62.9537
10.6479
-7.54302
2.74031
10.9205
-1.61292
15.7426
0.64415
14.5114
10.0521
-38.8998
4.11314
58.1005
-19.9653
55.8857
32.54
-73.4974
13.5704
13.6138
-59.3113
-13.311
-1.2842
-31.861
-24.8298
-1.66281
2.36766
2.06143
-32.4019
-3.07035
7.00881
57.9332
-8.45632
13.4862
-6.73224
-19.1247
7.83556
7.89098
-35.2163
-30.9171
-28.8161
-28.6942
0.627971
-17.515
0.991154
-18.292
-11.4887
1.73982
0.765755
-16.4058
-4.59809
-28.4943
-28.3246
-1.34794
7.08171
0.49634
-12.2289
-22.5788
9.34733
9.04327
-17.1673
-28.031
9.34587
-8.02461
-28.0821
1.59009
-39.2546
-0.695623
-4.58605
-50.4596
1.70626
52.7308
-9.05544
0.810062
0.868169
-0.0801794
-61.6379
0.911718
0.938289
-4.33091
0.330432
11.2085
0.768224
-30.6184
11.6234
36.649
11.8961
11.7951
11.5624
0.98139
-15.4772
-6.35275
-9.22991
-59.1423
-1.7135
-43.285
-11.0848
-0.0382788
-59.5311
0.0397658
0.800704
0.358575
-8.44431
-56.5434
-25.6291
11.2725
38.3373
-11.9858
1.66738
-34.9087
-43.849
-11.1217
-47.3823
33.9613
12.4086
-12.0098
42.5762
12.4549
-69.4362
19.9562
11.0581
49.1466
34.5048
12.2672
12.6121
60.869
-43.1552
1.17729
54.4378
7.35983
12.5778
-10.0564
12.4619
-31.1746
8.32851
60.2385
12.6657
12.8167
37.2701
10.8132
18.5987
-5.81493
-2.67019
15.6067
-33.2383
24.2522
-22.759
-56.695
-71.9636
-24.7405
12.9033
36.8564
14.3951
4.82636
7.70887
12.1145
12.2309
1.15409
1.15031
40.9737
-42.7598
12.9097
-28.5708
1.92029
7.59355
-18.3191
-70.0553
1.25345
-15.9932
13.5902
5.95337
1.04041
10.6563
-8.44445
1.3214
1.27382
-27.3616
2.73291
0.929381
-7.51623
10.7441
0.831929
22.3797
0.858318
-18.5262
27.9325
2.25858
16.1107
37.265
-26.9898
57.2452
41.8244
-31.3955
-62.6831
-27.3695
-27.3316
-27.02
-27.1599
-27.516
-23.6726
-34.1759
-27.5869
59.3938
-2.16899
-52.7805
11.3486
-0.415964
-38.2497
-55.1112
-4.98587
-28.2154
-16.7241
-27.0522
-14.9543
42.0202
-45.088
-38.953
-26.8995
24.2858
-26.6482
1.15922
-58.064
23.3326
6.16625
1.18296
-1.4052
45.8923
9.28661
-22.7219
-8.97142
13.2794
1.10107
-7.40678
-25.9352
-31.4612
-1.73205
-4.68844
18.7455
-27.8393
-7.58427
1.19808
-22.6596
46.8162
-2.18582
5.68621
1.25449
2.62752
-38.9141
10.574
8.25563
-0.487308
1.35343
5.25749
-2.404
-3.027
62.9787
3.3786
-18.4302
-6.53937
2.25201
-61.0705
-59.952
9.30076
9.57013
8.72758
11.6266
-23.7149
-9.6976
57.1186
-8.5332
11.399
-18.0026
-3.15303
-5.39028
9.14101
-12.2792
9.14204
-20.4079
-27.5383
-45.9757
31.7035
-14.7198
17.997
9.39979
-57.3389
-69.4787
33.311
-57.6903
9.86937
-62.2466
33.1899
-2.30437
19.0152
-17.7339
0.775414
0.383784
-7.71959
-13.5118
-40.2143
0.560643
8.81749
-95.8339
13.4187
-35.648
13.2721
-1.45208
10.7588
1.81602
-0.395478
0.247628
-6.42325
8.17498
1.81868
15.8772
0.285248
-53.1028
34.8098
11.7395
41.0202
12.6746
-0.468923
11.6585
13.4708
30.9977
0.262274
30.9101
1.36875
0.304188
-20.9177
0.929555
0.324081
-16.0126
-9.15308
-33.0395
-3.67693
33.4693
6.82347
27.7238
0.91418
19.6089
15.3182
1.05705
0.972982
0.453345
1.03682
57.3584
0.403843
-10.1638
-28.3993
12.7493
13.1085
15.2332
12.9582
-23.154
-33.5215
-0.618639
-3.72756
-3.68454
-14.4307
34.2908
0.211208
-60.2877
-8.98886
-34.7902
0.222204
9.19122
-23.3976
12.8438
12.9981
-20.365
13.099
1.10836
7.01535
-45.8848
17.9569
55.2012
0.377079
0.0418133
34.3503
6.79521
1.13944
34.5815
8.26851
-13.9819
37.441
-12.3742
39.2484
-50.7775
2.05549
13.4986
-0.226769
-7.89186
-0.310158
1.02373
-0.890822
0.253404
13.5013
-35.7555
5.00177
1.20395
-38.4337
0.834784
9.75626
12.954
13.0832
24.8659
4.50341
1.11805
-6.10664
-0.0884587
-12.6724
12.7521
1.29106
-21.3231
59.7058
-20.3487
0.987834
58.2441
12.9869
-58.3836
54.0953
-2.22238
5.43424
35.5358
13.1173
-27.297
38.8894
-27.46
-6.17464
-27.2842
-14.7009
-39.6899
33.9579
-6.42508
60.5828
0.907779
-27.5566
-27.0732
-63.3615
-56.5085
-36.0124
-63.0997
-39.6207
-31.5401
57.1219
10.0368
10.8806
49.819
23.9183
-46.8811
7.41635
-49.2603
44.6017
1.09862
11.2554
0.0575357
1.13806
0.922614
0.844734
58.6044
0.940324
0.943098
11.3339
1.07785
1.0024
11.3505
-5.70465
1.00928
-7.26009
0.991516
7.5196
26.5473
-47.594
0.277149
2.17661
-6.10341
0.279496
-41.2748
-27.7545
-22.7743
0.536147
38.6261
14.1687
-1.98575
-5.05198
7.81434
4.51468
1.07064
12.1736
11.6397
-26.9212
1.02866
19.2977
-2.73453
3.15623
12.1987
-0.442066
8.44306
12.253
12.0096
-13.2578
11.7466
9.16288
51.8557
25.2599
13.2901
22.6241
11.381
-0.886412
11.8613
1.2628
-3.26069
1.16831
5.68575
-0.0425575
23.7125
11.3888
-16.7577
23.0936
0.213288
10.1976
28.0854
-13.8527
33.759
-25.5776
-51.8385
-43.0288
0.296318
0.024264
-24.3668
35.3306
-8.87561
-1.86408
9.35107
1.81319
0.360984
0.063503
9.96207
13.3467
29.5279
9.13198
1.75719
12.1867
11.8675
0.0696079
-36.0185
35.5331
-0.0711111
8.20894
-11.6549
42.0137
13.2452
10.6869
-9.70333
-47.5122
-57.3126
12.4205
12.3556
-4.32467
-8.46244
-8.69232
-29.3022
32.2038
1.31857
0.940177
-0.925301
0.511313
19.0932
-17.4673
0.475275
0.400058
30.4275
0.435509
-7.34284
26.0121
-34.5402
-25.1755
0.636895
-10.6781
14.2071
0.0185297
0.782153
12.8901
9.64455
-3.39243
21.0454
4.24871
-48.1938
0.874237
0.748271
-35.5896
-4.09319
14.0092
0.735702
8.24166
12.4714
60.279
0.76871
-10.2875
-39.8907
-39.4228
-90.7779
-59.729
0.789829
16.7483
46.6317
-0.0212505
8.10036
9.99666
-40.8941
13.6095
6.62327
-39.3904
13.3475
23.2573
-16.6994
9.65458
-39.5633
-61.5584
15.0584
19.1132
-46.5582
15.3515
11.2717
2.98707
14.652
12.8774
1.63742
-34.6474
-6.20801
6.64716
14.4487
12.0383
13.2505
2.14152
0.0470764
34.6556
0.0564508
-8.13391
0.608814
36.5005
12.9872
-12.0852
5.0063
57.6428
-23.5226
-28.5817
-44.2762
3.52873
-5.13283
-53.1227
-18.4219
14.7129
-15.1222
-6.40633
0.0289245
-8.77884
12.3025
5.68972
3.46094
0.134686
0.320459
-18.9192
-4.38365
-11.3453
1.02782
0.530518
0.27983
0.225941
-5.51039
13.5603
-42.8608
13.9091
0.142099
0.141649
11.723
11.668
12.6951
1.54006
0.173566
-8.77065
4.31135
0.263453
-0.118691
-26.1374
3.75836
-7.74246
-42.929
-27.8486
-32.7797
14.6343
-31.336
18.3107
-29.115
1.18093
-27.5673
0.955745
2.93605
0.250222
-4.67045
1.12697
3.83051
-1.6957
12.207
7.62366
13.6672
-4.58758
-6.40686
-56.2922
-27.659
23.6868
35.3502
-36.824
-27.7068
-30.6185
-58.3569
-27.2975
-8.09929
-27.6004
1.48904
1.42873
-51.8721
-62.4458
-5.98329
0.06501
12.1216
52.4697
-3.20848
-62.0108
0.681223
5.15506
-2.56289
0.0943697
-29.9873
1.02516
1.15031
1.00229
2.49011
7.2988
0.713678
1.09454
-50.2155
-51.8569
-40.6108
22.1529
-36.4207
12.9236
0.936057
14.8169
6.77515
4.50763
21.5047
12.3487
22.5261
1.14073
4.04504
5.60198
0.861212
2.38979
-12.1304
9.24839
13.8248
9.2044
42.6799
1.62255
23.4356
-56.172
-4.39018
-46.8674
40.1788
10.8641
9.70952
6.68186
-16.9792
-8.8993
12.0001
-36.5304
7.83225
8.14158
-4.12747
17.8473
9.94372
-4.9276
-15.2453
-17.059
13.489
-1.74586
-56.6517
0.0954587
-45.5088
-32.5462
13.3711
-63.3431
-6.0257
34.2274
-1.6301
13.3414
14.4609
17.4211
-5.98838
12.6014
-27.398
-14.9868
-27.1343
-4.41007
-7.98305
16.6852
-26.8184
-21.8747
1.92093
1.01415
15.7298
-27.2275
6.92301
-2.10311
-45.3157
0.73679
0.646379
12.0333
-59.403
-5.15374
-2.09987
0.958013
-1.35385
11.6833
11.3136
-0.110429
11.7365
-22.0385
11.7388
-64.2345
12.0273
-33.5088
-30.1307
-7.21827
11.275
-7.9012
1.2629
11.3632
-2.38074
0.572171
-7.95706
51.8936
0.152078
34.2182
-8.33903
0.0846844
-3.09567
0.248661
12.908
11.5314
12.6841
-8.88272
0.161789
12.2504
-1.08192
0.0513491
0.748524
-23.9775
1.95832
0.340944
13.0086
-30.1546
-31.7622
0.132644
-3.84731
0.732533
-30.1531
0.469133
0.364788
0.938488
0.293623
1.07999
0.989795
0.0325074
0.701625
11.6573
-27.2455
-18.9343
12.999
45.1342
16.2514
12.7511
-0.0564958
13.4423
37.4396
0.06671
33.3388
0.829996
0.192593
-0.791342
25.1112
0.898856
0.105396
54.7035
13.5223
27.8849
-9.28966
-13.3155
0.192485
-3.3646
-0.0251358
1.02041
2.41226
0.647101
49.7622
1.06853
0.618312
0.652443
12.2398
-40.667
-21.6346
-4.15623
2.95426
0.805294
0.501009
15.4787
-29.5818
25.8986
16.8649
2.94506
0.507593
42.446
-13.6817
40.2767
32.1778
12.1362
12.8555
0.36298
-5.82997
1.84281
-13.1139
-11.9162
12.8577
-57.3671
1.13465
1.25284
1.00397
11.1717
1.09514
47.7954
-3.99811
45.8981
1.16497
-61.7097
-9.61905
-13.6421
0.962925
-44.1229
1.07125
28.1886
12.4655
32.0526
1.36584
-17.2543
4.31005
-46.0569
29.9015
12.3867
12.0357
-0.540059
-23.9205
11.936
-65.7517
-28.0438
12.4487
33.725
12.3109
-22.0397
43.327
6.7992
-5.07215
43.0191
36.8277
1.57004
3.1465
-60.6325
42.931
9.99736
39.6643
-4.71225
-57.5376
29.3965
-1.96517
-0.0595445
0.302007
-0.0493987
0.902581
14.1929
-40.5651
-0.0279053
-34.6256
16.6123
38.3856
-11.1555
36.4579
-0.061968
-0.047544
-13.5499
56.9542
-18.0791
47.5995
16.5501
4.47165
24.5703
4.65228
17.0411
0.0489079
-0.0427388
0.0167318
-0.0158026
9.12052
-14.4703
13.5714
-31.9894
2.47454
-39.5322
10.0209
-21.4729
44.555
-2.56854
-1.85342
0.183803
38.2423
0.0589519
22.971
-1.58224
8.85587
-8.29617
0.546469
31.7201
35.9078
-13.4685
0.114002
0.527342
-46.0985
-61.3912
-7.92513
51.5237
27.2939
54.7183
58.0536
44.0071
-41.6156
-1.2752
43.744
-43.8475
-0.0122563
5.62288
0.0586142
-27.4775
-17.2394
-1.26895
1.83206
-8.44741
-0.00528775
11.7639
-36.6055
41.5886
-44.1058
11.6975
-1.59434
10.2412
1.62744
-5.53303
-66.0143
2.0575
-35.3464
-14.5758
12.0684
-64.9096
-53.9251
12.094
-11.1209
-12.8742
21.7256
12.1346
-13.3618
26.2891
-60.1955
-31.0455
-42.7032
39.6052
-39.3274
5.15975
25.7457
4.56261
-56.1096
-47.1024
0.276162
0.0116171
49.3262
-2.55496
-37.0451
-1.78025
-16.3039
-63.0527
-24.3993
-28.3571
2.03457
-28.6691
0.342418
-28.4385
14.45
-21.5652
49.5592
-27.0353
20.7246
-31.234
-26.7241
-20.3714
-44.7494
33.5768
31.3377
-37.2054
11.1615
24.5677
17.2512
6.36109
13.8318
-2.61167
-31.4057
-77.1227
-32.6207
15.9585
19.8878
-40.2341
23.6975
-29.6126
-15.2097
6.3617
6.01302
-34.1523
13.0838
-29.6737
14.4363
30.646
32.7597
60.5082
29.7536
-28.8639
-57.5003
43.3888
13.0647
37.1862
-48.8424
-28.0711
51.152
30.8015
-3.69646
22.4244
23.1774
-44.0688
-31.0997
-55.6023
15.7872
11.2815
36.1305
-56.2939
44.2639
28.9222
13.388
37.3527
-31.6363
2.18756
2.81903
13.3381
-12.1884
-58.2934
-27.2022
45.5856
-3.78147
-23.7682
-50.1037
42.3278
46.8459
38.6294
-38.862
-96.0228
45.2997
-30.363
-57.2662
46.6344
-1.28912
-9.3987
12.9138
1.06841
1.03591
-7.71602
44.2263
-26.2749
1.33942
1.37945
1.03872
1.60066
0.301423
4.87532
-33.4595
-4.56062
0.909396
-54.9764
-73.9734
-27.0958
-19.2263
-0.5111
-17.4252
-30.4476
-42.7794
0.926717
-35.9563
-1.68095
-34.7445
-27.7368
43.4587
19.4009
26.8135
-0.016083
4.88302
-70.4689
-25.1266
-9.10347
-50.7734
0.0150935
-59.78
-42.4927
-25.5858
-42.2255
-4.51261
16.492
12.3227
15.6466
11.558
43.2837
0.0922566
-0.030319
0.142309
15.2218
-11.4291
-54.9747
-53.7141
16.6802
37.5239
24.8063
29.6604
0.230958
-55.6669
-5.12899
12.9429
4.45266
-0.426657
19.4651
7.84141
-14.108
15.2236
-10.5367
-9.00052
-6.73725
17.8877
36.5433
-31.2961
52.9341
-27.9777
19.5765
-66.5904
-50.6637
-9.69661
15.6005
33.9918
-8.74268
-39.7358
7.69989
14.9645
-18.3791
-27.8801
16.2413
47.1517
59.3196
-51.3347
-0.502809
-58.5219
15.0512
1.524
-9.60948
11.4125
7.74508
-16.0246
3.92078
8.55395
-41.9519
-8.55279
-26.7859
-16.0785
-28.5158
0.133501
12.6445
-66.3566
-17.0968
0.0240939
60.5054
13.2587
45.9211
12.0287
-19.8498
17.4509
0.809401
33.8496
55.3944
15.9629
33.9421
-0.0871276
-46.9803
13.1361
12.9654
-3.36267
6.34802
-36.6128
-4.30084
-7.99368
13.2955
4.23324
-22.4784
5.54275
10.1491
-6.71793
-12.7652
-27.0348
-0.0527072
14.4494
-0.00867255
14.9179
-0.0317075
-20.1654
12.9932
-23.2393
12.3526
-30.8705
-0.0497271
34.1605
-8.94961
35.4095
-0.00965039
9.00207
-0.0289547
-0.023486
-4.4876
7.77771
17.5227
33.8332
30.914
-30.552
-53.6413
41.6805
24.2872
21.8844
5.34007
0.0011876
0.199184
-74.6825
43.2365
18.685
14.6059
0.0872864
18.9819
0.157434
0.0921498
-21.7124
-23.7356
-38.1224
-35.1864
7.15586
2.18798
-5.37339
12.8985
43.0816
11.3467
-15.0685
11.295
-6.43755
-77.6117
-15.8275
0.333444
3.972
-9.12706
-6.24262
-36.8032
13.2661
-35.6938
23.3687
-75.2948
-31.7303
-28.3487
0.294048
22.1636
2.56525
13.2107
35.133
13.2682
-10.8327
11.2867
12.1167
8.80973
13.1657
-40.1489
18.9517
3.70863
42.9934
12.576
-22.924
13.3605
13.279
-28.7767
-77.0614
-30.0722
-28.1257
-28.6862
9.83083
58.5871
-27.0196
-3.81331
11.67
19.4411
-28.7571
0.640562
0.627797
11.2346
-23.5009
-28.4291
-47.6654
31.0071
-2.14302
1.20476
2.85868
-28.7701
28.0833
10.1211
-56.3389
-26.1358
-27.1367
59.7517
14.4182
10.9217
2.03092
14.504
-56.7082
16.9954
11.4889
19.2559
-1.01093
17.6636
22.7046
44.2498
35.8114
10.8954
-16.982
22.3204
-9.83967
0.704774
0.615839
31.2332
-31.5677
-13.7946
0.594179
55.2451
0.616082
-28.8906
30.8192
20.1156
38.7478
-27.1895
-21.1602
-28.0588
31.2525
-12.1214
-31.9176
-7.08683
11.684
1.89965
14.3679
0.778631
14.314
0.551408
11.7232
0.70265
-12.4597
0.338824
34.4012
2.40852
4.54085
-26.6188
8.93283
1.25266
10.2372
-6.45547
-36.0819
-48.7259
-21.0917
4.84944
36.5195
1.29663
58.0704
-38.5197
58.4443
51.8194
1.16223
4.47586
6.23679
1.03139
1.19801
-90.7674
10.2547
-28.8667
-11.2255
4.95626
1.03551
-26.8793
6.74144
6.69242
9.61028
6.98774
1.07839
-35.2628
-4.17115
1.17265
-15.0183
1.62001
0.943199
1.38756
1.11916
-8.44012
7.41867
-56.9095
0.91113
1.15701
-11.4807
-8.43105
23.2939
-18.5211
12.5393
12.4264
-0.0577978
0.266449
-10.1125
-17.1937
9.19365
0.204994
-2.60497
10.2245
0.120763
56.7084
0.114412
2.11979
0.167792
0.00528713
-29.7004
0.0123658
-27.2731
-7.49993
52.2951
4.69788
-0.562784
-2.94317
0.453211
-6.24126
-41.3701
1.9211
0.129746
7.41374
-27.3991
0.112815
8.19632
28.0826
42.1906
-11.1085
9.66494
9.20706
-44.074
-24.7093
0.037213
47.5841
-60.1476
-22.2527
-8.15586
49.1336
-9.78069
-10.6915
31.9209
-66.7784
-3.04167
0.146691
0.0360481
-0.0309575
0.00922543
-0.00273112
-30.2323
17.5858
-0.00753717
-54.8195
-0.307304
0.107755
-10.0189
3.21473
15.2865
-47.7724
5.93059
15.8987
-26.9668
1.69836
15.6678
58.7891
15.1079
-45.0669
40.7741
17.5956
32.7837
0.374031
42.9892
0.600986
5.33348
24.0118
0.185662
-44.4763
-24.004
0.718924
0.751778
-140.583
17.7614
-27.8587
1.17477