/*--------------------------------*- C++ -*----------------------------------*\
| =========                 |                                                 |
| \\      /  F ield         | OpenFOAM: The Open Source CFD Toolbox           |
|  \\    /   O peration     | Version:  2506                                  |
|   \\  /    A nd           | Website:  www.openfoam.com                      |
|    \\/     M anipulation  |                                                 |
\*---------------------------------------------------------------------------*/
FoamFile
{
    version     2.0;
    format      ascii;
    arch        "LSB;label=32;scalar=64";
    class       surfaceScalarField;
    location    "0.0595072";
    object      phi;
}
// * * * * * * * * * * * * * * * * * * * * * * * * * * * * * * * * * * * * * //

dimensions      [0 3 -1 0 0 0 0];

oriented        oriented;

internalField   nonuniform List<scalar> 
92401
(
0.147735
-0.0966438
-0.00701513
-0.0440762
-0.0628204
0.0602614
0.0383543
-0.0357953
0.0223015
-0.039814
0.0430644
-0.0255519
0.00655552
-0.0130219
0.0128499
-0.00638352
0.0013473
-0.000510919
-0.00588392
0.00504754
0.0194729
0.00975063
-0.0253708
-0.00385269
0.00578786
-0.00477308
0.000332525
0.0323568
-0.0256181
0.0127342
0.0480804
-0.038643
0.0324561
-0.0418934
0.000358239
-0.00083393
2.95123e-05
0.000446178
0.00469779
-0.0416945
0.0385408
0.024157
0.0244057
-0.0871035
-0.0172392
0.0109671
-0.000177883
0.00645
-0.0344915
-0.0401841
-0.0169969
-0.0186269
0.0592668
-0.0236429
0.0021877
-0.0666339
0.0644462
-0.00243932
-0.00773832
0.00203902
0.00346292
0.00223638
-0.00096138
0.00153101
0.000236151
-0.000805782
-0.00489282
0.0107367
2.31235e-05
-0.00586699
0.0163902
-0.00578337
-0.00495449
-0.00565236
-0.040856
0.00838259
0.0370231
-0.00454973
-0.0393302
0.010903
-0.0547832
-0.0542426
-0.00273628
0.0551205
0.00185838
0.0907652
-0.0894476
0.0220376
-0.0233552
0.0501367
0.0601386
-0.0712909
-0.0389845
-0.0325783
0.051165
-0.0579169
-0.00271752
-0.00103239
0.00399781
-0.000247898
0.031527
-0.0635954
-0.000509898
0.0612236
-0.0603846
-0.032395
0.031556
0.0125941
-0.0173638
0.00128773
0.00348198
-0.0358906
0.106459
0.0617134
-0.132282
-0.0846928
0.107525
0.00897378
-0.0318061
-0.131137
0.0322939
0.0296247
0.0692184
0.014853
-0.0619701
0.0372399
0.00987726
0.0600931
0.00928414
-0.0545243
-0.0443431
0.0102145
0.00245726
0.0316713
-0.0504142
-0.0411776
0.0654843
0.0261076
-0.0332396
0.0405278
-0.0139187
0.00663051
-0.0200524
-0.102003
0.0652464
0.0568093
-0.086063
0.0862683
-0.000205326
0.0350483
-0.00747392
-0.0773375
0.0497631
0.00422133
0.0244714
-0.0217928
-0.00689997
0.026885
-0.0503985
0.0235135
0.000156575
-3.45925e-05
-8.94925e-05
-3.24897e-05
0.000724161
-0.0584747
0.0577505
-0.0685793
0.0428926
0.062418
-0.0367313
0.0901271
-0.0254294
-0.0128001
-0.0518975
-0.000229423
0.0704497
0.00038883
-0.0706091
-0.0477018
0.0731108
0.039854
-0.065263
0.000545582
0.0011014
-0.000375363
-0.00127162
-0.00223606
-0.00347815
0.000270457
0.00544375
-0.0382116
0.083912
-0.0462105
0.000510106
0.000330058
-0.000806608
-0.000615029
0.00109158
-0.054648
0.0542911
0.000356838
0.0755064
-0.00791361
-0.0184672
-0.0491255
-0.0984241
0.0911102
0.00487399
0.00243988
-0.0550932
0.0274824
0.0110973
0.0165134
-0.00293286
-0.0152112
0.00763548
0.0105086
-0.0125488
0.0258983
0.0374421
-0.0507916
0.000939475
-0.000350928
-0.00025849
9.86964e-05
-4.43482e-05
0.000742393
-0.000796741
0.000720858
0.000207658
-0.000585657
-0.000342858
0.00417803
-0.00923766
0.0051048
-4.51767e-05
0.0679085
0.0050613
-0.0171997
-0.0557701
-0.0150942
-0.00470952
0.0105678
0.00923596
-0.040989
-0.0529005
-0.0547597
0.148649
0.00335094
-0.0340634
-0.00376888
0.0344814
-0.000374098
0.000558674
0.000551312
-0.000735888
0.00447485
0.00446334
-0.0281606
0.0192224
0.0187905
-0.00660386
-0.00956325
-0.00262339
0.041685
-0.0764573
-0.0273721
0.0621443
-0.0290281
-0.0031939
0.0103316
0.0218904
0.0122843
0.0081458
0.0130506
-0.0334807
-0.000518183
-0.000351297
-3.78047e-06
0.000873261
0.0252309
-0.0097325
0.0365642
-0.000827044
0.00050837
-0.000930136
0.00124881
0.0442401
-0.0330762
-0.0682655
0.0571015
0.000532479
-0.000305127
-0.000227352
-0.00110957
-9.0069e-06
0.000566627
0.00055195
0.000736461
-0.000213286
0.000458674
-0.000981849
0.0226722
-0.022818
-0.0624807
0.0626266
0.0011386
-0.0127016
0.00280477
0.00875822
0.0430118
0.058564
0.0185229
-0.120099
-0.114834
0.0268043
0.126835
-0.0388052
-0.00547983
-0.0443644
0.00375337
0.0460909
0.0543285
-0.0296177
0.0258342
-0.0505451
0.0253769
-0.00335341
-0.152361
0.130338
0.00783693
0.0170592
-0.0282975
0.00340142
0.000692448
-0.000219207
-0.0007319
0.000258659
0.038027
0.0125675
-0.00139722
-0.0491972
-0.00255198
0.084086
-0.085484
0.00394997
-0.0181271
0.0497395
-0.116082
0.0844699
0.0423171
0.00530569
-0.0531026
0.0424268
-0.000109765
-0.00233512
-0.0291428
0.0415605
-0.0100826
0.0708906
0.0171203
-0.0314839
-0.056527
0.130051
-0.143433
-0.0289418
0.0423235
-0.0151718
-0.0454078
0.0582444
-0.082422
-0.000591081
0.0830131
0.00109965
-0.0978756
0.163213
-0.0664371
-0.00252689
0.00339847
-0.000614982
-0.000256603
0.089409
-0.148635
0.0306689
0.0285567
0.00153489
-0.0003985
0.000886474
-0.00202286
-0.0870613
0.142891
-0.103986
0.0481562
0.0306366
0.00300939
-0.0408844
0.00723838
0.0864476
-0.0154411
-0.0815882
0.0105817
0.00572593
0.0314988
-0.0523965
0.0276517
0.0267674
-0.124622
0.0702031
0.0869798
0.113053
-0.0800014
-0.120031
0.00122528
6.90255e-05
-0.0018343
0.000539997
-0.0937404
-0.0290169
0.111216
0.011541
0.00114449
-0.00604528
0.0160121
-0.0111113
-0.0139862
-0.0338112
0.0578957
-0.0100983
-0.00556418
0.0171548
-0.0144451
0.00285449
0.000390395
-0.000684913
-0.000591702
0.00088622
0.0218542
-0.0261131
-0.00130535
-0.00187862
-0.000702708
0.00153838
0.00104295
-0.0576531
0.0603625
-0.0027094
-0.0025763
-0.00628198
-0.0020631
0.0109214
-0.0366087
0.0281568
-0.00553433
0.0183376
-0.0472339
-0.0557965
-0.0513262
0.0415874
0.0983384
-0.0885996
-0.00761693
-0.00176001
0.00505749
0.00431946
0.0469218
0.0109908
0.00236878
-0.0602814
0.000448449
-0.009447
0.0069125
0.00208605
-0.0398511
-0.053758
0.0116098
0.0819993
0.0647073
-0.0388768
0.0266294
-0.0524599
-0.00971003
0.0599246
-0.0588212
0.00860666
-0.0588384
-0.0339003
0.00777678
0.0849619
0.0162495
0.00501918
-0.0330457
0.011777
0.0613517
-0.0621234
0.000771634
0.00185214
0.00178442
-0.00152665
-0.00210992
0.0406078
-0.0435494
0.0029416
-0.0582016
-0.0346398
0.106274
-0.0134327
0.000850106
-0.00989397
0.00976317
-0.000719308
0.00286209
0.00595109
0.00269038
-0.0115036
0.00181061
0.00646832
-0.00783048
-0.0247086
-0.0579248
-0.0088788
0.0915121
0.025927
-0.0078092
0.0180669
-0.0361847
-0.084
0.0925455
-0.101269
0.0927239
0.0792634
-0.0516305
-0.0276329
0.00155695
-0.0346179
-0.0101568
0.0432177
0.00828416
-0.00561838
-0.00945154
0.00678575
0.0466715
-0.0703842
-0.0621447
0.0858574
0.0740263
-0.0647094
0.0293637
-0.0386805
-0.0135624
-0.00832444
0.0323659
-0.0104791
-0.0581769
-0.0867869
0.0571997
0.087764
-0.0416303
0.0543571
-0.0111699
0.0976973
-0.0482812
-0.049416
-0.0045441
0.0153243
-0.00249605
0.00100863
0.000683928
-0.000715255
-0.000977301
0.0473428
-0.0157975
-0.005247
-0.0262983
0.00366723
-0.00189768
-0.000475323
-0.00129422
0.00542676
-0.0102127
0.0087566
-0.0039707
0.0724106
-0.0422793
0.025751
-0.0558823
0.00881973
-0.000379932
-0.00686617
-0.00157363
0.00167389
-0.000603727
-0.00107016
-0.0653201
0.0648501
0.000470022
0.012195
0.00542071
-0.0967911
0.0791754
-0.0116462
0.014291
-0.0103001
0.0076553
-0.072707
0.0161395
0.0833934
-0.0268259
0.0182871
-0.097303
0.0756134
0.0034026
-0.0526976
0.0430864
-0.00834766
0.0179589
0.00885747
-0.00181677
-0.00301206
-0.00402863
8.34181e-05
-0.00086109
0.000777672
0.0284597
0.170661
-0.245498
0.0463765
0.00031936
-0.000101083
-0.0247559
0.0602956
-0.0527811
0.0172414
-2.06142e-05
0.0052486
-0.00446003
-0.000767947
0.000215849
0.00156829
-0.00199742
-0.0708974
0.000666564
0.0702309
-0.0323771
0.113774
-0.0477444
-0.0336522
0.00050212
0.000536982
0.0095074
-0.0105465
0.00061234
0.0909666
-0.091579
0.00239713
-0.00163836
-0.00121312
0.000454356
0.00137455
0.000692552
-0.000707192
-0.00135991
-0.0366546
-0.00159965
0.0324058
0.0188751
-0.0638297
-0.0724575
-0.016338
0.00664068
0.0821548
-0.000620278
0.00199483
-0.100147
-0.0420626
0.112842
0.0293679
0.0272782
0.170127
-0.084874
-0.0577101
-0.0275432
-0.0181783
0.119113
-0.0434657
-0.0574688
0.0397404
0.0299548
0.0385692
-0.108264
0.104741
-0.248898
0.109454
0.0347031
0.00163514
-0.00145961
-0.00138996
0.00121443
-0.0122783
-0.035475
0.0556244
-0.00787113
0.0258263
0.0403494
-0.0261294
-0.0400462
-0.0353566
-0.0258019
-0.019767
0.0809256
-0.0533649
-0.0139399
0.0550265
0.00107683
-0.0121273
0.00905237
0.00199808
0.055372
-0.0284441
-0.0508466
0.0239186
-0.0893469
0.105316
-0.0501223
0.0341532
0.0165495
-0.0232803
0.00693651
-0.000205699
0.0517862
-0.0600544
0.0636403
-0.0571065
-0.00348385
-0.0137634
0.0743538
-0.00536955
-0.0130627
0.00243308
0.0159992
0.000283548
0.0584454
-0.0579265
-0.000802399
0.135252
-0.0537514
-0.00260751
-0.0788936
0.0595061
-0.00750692
-0.0484927
-0.00350657
0.0514481
-0.0213876
-0.0726701
0.0426095
-0.00990962
-0.00184343
0.0150005
-0.00324744
0.00538258
-0.00165368
-0.00478455
0.00105565
0.00256173
-0.0439223
0.0405102
0.000850305
-0.000812606
-0.0862225
0.00343814
0.0195836
-0.0129437
-0.0631946
0.0466206
0.0165741
-0.0595485
-0.0170398
0.0109804
0.0656079
-0.0998609
-0.00080157
0.103587
-0.00292419
0.00369777
0.0236025
-0.0127465
-0.0145538
-0.0712991
0.149775
-0.0659965
-0.0124795
-0.00479701
0.0133678
0.0225918
-0.0311626
-0.0517729
0.0995224
0.0389126
-0.0866621
0.0289439
0.00171989
-0.0146127
-0.0160511
-0.0361779
0.0378237
0.000915927
-0.00483855
0.00739376
-0.00996866
0.00741345
-0.000303609
-0.00453815
0.0102685
0.0359346
0.037942
-0.0738766
0.0011003
-0.00189849
4.65057e-05
0.000751686
0.0196936
0.00832282
-0.0190001
-0.00901633
0.0223078
0.0113549
-0.00209291
-0.0315698
-0.0522902
-0.00164645
0.00692749
0.0470092
-0.000159186
-0.0437631
-0.000972558
0.000558871
0.00151399
-0.0517722
0.0368909
0.0520145
-0.0371332
-0.0449086
0.0302635
0.0181111
-0.00346607
0.00134209
-0.00347613
-0.00990165
0.0120357
-0.00949485
-0.00507824
-0.00319429
0.0177674
-0.0435113
-0.00483813
0.0121715
0.0724694
0.0396981
-0.0720712
-0.0400963
-0.0448958
-0.000388671
0.0452845
0.0861958
-0.048679
0.0595835
0.00364121
-0.00769165
-0.0372569
0.0413073
0.0359811
0.01138
-0.00542346
-0.0419377
-0.00048079
0.000325781
0.00101509
-0.000860085
-0.016827
-0.0449799
0.0618069
-0.000244535
-0.00134583
-0.00419552
0.0308357
-0.022999
0.00616133
0.0278673
-0.0417203
0.097899
-0.0906802
-0.00201694
-0.00520188
-0.0214374
0.101314
-0.018625
-0.0612519
-0.0322899
0.00681755
0.0144282
0.0110441
-0.0392826
0.0360414
0.0140903
-0.010849
0.0325692
-0.0251263
0.0013433
-0.00878624
0.0190026
0.0721126
-0.121878
0.0307627
0.076296
-0.0752694
-0.024313
0.0232864
-0.143358
0.00210334
0.00367378
0.137581
0.0305727
0.0123435
-0.0412626
-0.00165358
0.0398259
-0.0578287
0.0204075
-0.00240476
0.00213258
-0.00123137
0.000244939
-0.00114615
-0.0145882
-0.00114749
0.0733976
-0.0416422
0.0188073
-0.0505627
-0.0118404
0.0477608
0.00040485
-0.0363253
0.00520923
0.0956091
-0.0930027
-0.00781566
0.0494289
-0.0989707
0.0581084
-0.0085665
-0.0483386
-0.000360623
0.0368588
0.0151242
-0.00360206
0.00864454
-0.0201666
-0.0234223
0.0477929
-0.0133117
-0.0110589
-0.0483369
-1.64574e-06
-0.00552045
-0.122867
0.17587
-0.047483
0.010152
0.0097432
-0.0635709
0.0436757
0.0494949
0.00549931
-0.0448422
-0.0128682
0.00673589
-0.00361657
0.00974891
-0.0565294
-0.000856704
0.0573861
0.110421
0.0444713
-0.136721
-0.0181719
-0.00924789
0.000328242
-0.00394858
0.0185349
-0.116158
-0.0224658
0.120089
0.0126324
0.0666278
-0.069517
0.00284619
-0.0558032
-0.0106139
0.000512539
0.00190788
-0.00266495
0.00202783
-0.00179769
0.000282405
-0.050668
0.0260039
0.0738416
-0.0491774
-0.0019396
0.000975744
0.000954852
-0.0342341
-0.00772156
0.0448019
0.000275125
-0.000306851
0.000351352
-0.000905255
0.000122024
0.00043188
0.000193282
0.00210967
-0.00179265
0.00143667
0.00012906
0.000226914
0.000405483
-0.000226236
0.000760228
0.105769
0.121569
-0.0796029
0.000126465
-0.000806517
0.00108554
-0.0528901
0.0527974
9.27227e-05
-0.0105986
0.0760806
-0.0713841
0.00590205
0.00176112
-0.0196245
0.00524188
0.0126216
-0.0603345
-0.00315421
-0.0172294
0.00399707
0.0475667
-0.0343344
-0.0634806
-0.00267016
0.0661508
-0.0067262
-0.0167052
-0.0127957
0.0362271
0.000321734
-0.000379585
-0.000527866
0.000585717
-0.00395728
-0.00741548
0.00907356
0.00229921
0.0549849
0.043906
-0.0175078
0.048215
0.0895032
-0.0380783
-0.0996399
-0.0127021
-0.0443413
-0.0193793
0.0188477
-0.0543964
0.054928
-0.0109788
0.0291115
-0.00628264
-0.0118501
-0.0150761
-0.0135376
0.0135298
0.0150839
0.0970024
-0.0950055
0.0189539
-0.0209508
0.00115516
-0.0043724
-0.000404854
0.00362209
0.00114012
-0.0664233
0.0652832
-0.0724661
0.00339328
0.0666168
0.00245601
0.0389639
0.0383516
-0.0773155
0.0190796
-0.0600659
0.0282842
0.00204532
-0.00117093
0.000523861
-0.00139825
0.000216574
-0.000262505
0.00124635
-0.00120042
-8.30403e-05
0.000434477
-0.00100188
0.000650441
0.0637025
0.0565339
-0.039028
-0.0812084
0.00582347
-0.0869688
0.0824081
-0.0012628
-0.0136761
0.000516823
0.0265737
-0.0134144
0.0535722
-0.0527154
0.0190082
-0.0198649
-0.000524728
0.00138373
-0.00069242
-0.000166578
0.0203366
0.0478708
-0.0491279
-0.0469774
-0.00173138
0.000957047
0.00152886
-0.000754523
0.00122374
0.0803133
-0.0815371
-0.0499631
-0.0152052
-0.0221932
0.0873615
-0.0499982
3.51283e-05
0.0116628
0.0167608
0.0167466
-0.0451702
0.000534334
-0.00277212
0.000391798
0.00184599
-0.00174724
-0.000591747
0.000607604
-0.106076
-0.00908081
-0.0429334
0.15809
-0.0097016
0.00712003
0.137191
-0.134609
-0.038561
0.0419405
-0.0647159
0.0613365
-0.0792486
0.0790341
0.00021448
0.00129234
-0.0500149
-0.0305247
0.0671382
0.019363
-0.00599215
-0.0805091
0.0505482
0.0946882
-0.156856
0.0116193
0.0415217
0.0159544
0.0331961
-0.0906722
0.10411
-0.108493
0.0433463
-0.00357033
0.0131928
-0.0119583
0.00233589
-0.00163337
-7.64354e-05
-0.00062658
0.00233638
-0.00287642
-0.00563417
0.00170853
0.00680206
0.0607146
-0.00610254
-0.0182757
-0.0363364
-0.0567451
0.0282177
0.0285273
-0.0927342
-0.00777657
0.0121191
0.000605642
-0.000537768
-0.00170124
-0.11797
0.0265824
0.00509008
0.0862979
0.00134066
-0.0535898
-0.0101664
0.0624155
0.0454897
0.0292558
-0.101404
0.0266583
0.0382839
-0.0435431
-0.018971
0.0242302
0.0482143
-0.0601355
0.0502051
0.0313292
-0.0560817
0.0496035
-0.0248509
0.0346735
-0.0360194
0.000206974
0.00113891
0.0161421
-0.142039
0.0911631
0.0347342
0.00142185
-0.0616714
-0.00382933
0.0522726
0.000325027
-0.107691
-0.033872
-0.00875358
0.00677947
0.0358461
-0.0486846
0.0444035
0.0500811
-0.0458
-0.0424984
0.0822823
-0.0397839
0.0104472
-0.102016
0.0480255
-0.0169843
0.00753191
0.0245386
-0.0150861
-0.0884179
0.093791
0.036379
-0.0417521
0.0585641
0.0328132
-0.0828356
-0.00854165
-0.0463336
0.141542
0.00414266
-0.0993512
-0.000545657
0.00295789
0.00361768
-0.00602991
0.0536601
-0.0719743
0.0829344
-0.0646202
0.00802189
-0.0392276
-0.00827611
0.0394818
-0.0434077
0.0314286
0.103145
-0.0911663
-0.0499904
-0.0264443
0.0528721
0.0235626
-0.00968286
-0.000388437
0.00621826
0.00385304
-0.0107975
0.0230615
-0.0183157
0.00605171
9.29332e-05
0.0739003
-0.0739932
0.0149058
-0.0441002
-0.0194902
0.0482223
-0.0341701
-0.000782183
-0.01327
0.00147801
-0.0261922
-0.0206369
0.045351
0.0346383
-0.0345727
-6.55894e-05
0.0611887
-0.0417147
0.0642966
-0.0837707
-0.0993923
0.097614
0.0987807
5.58192e-05
-0.0108706
-0.00177154
0.0125863
0.0495441
-0.000215129
1.28614e-05
0.000179782
2.24852e-05
-0.00041029
0.0480977
-0.111102
0.0634145
-0.00859233
-0.000617447
0.00497993
0.00422984
0.0268863
0.00996042
-0.0368467
0.00120134
-0.000943657
-0.00885001
-0.0334311
-0.0356784
0.0109079
0.0572446
0.00100444
-0.0582491
0.0728443
-0.0441347
-0.0511888
0.0224793
0.00160477
-0.0251845
-0.0207634
0.069386
0.0430307
-0.0395725
-0.00804934
0.0093065
0.13362
-0.119533
0.0363953
-0.0504817
-0.0450176
0.0364904
0.02189
-0.0133628
-0.0524805
0.0525322
-5.16716e-05
-0.0477779
0.0296453
0.0107611
-0.0469144
-0.0108601
0.0470134
-0.00231816
0.161015
-0.160831
0.00213398
0.107649
0.0159399
-0.0160642
0.0507828
0.00860392
-0.0512352
-0.0081515
-0.0144972
0.00469327
0.0106836
-0.000879626
-0.00956145
-0.00537353
0.00470919
0.0102258
0.0659152
-0.0375821
-0.0525951
0.0242619
0.0296184
-0.0154937
0.0240172
-0.0381418
0.0266889
-0.0934307
0.0894801
-0.0227383
-0.00587843
0.000444415
-0.00906318
-0.0943703
0.107017
-0.023067
0.0104207
-0.0114218
0.0480224
0.0139537
-0.0505543
-0.00420285
-0.000516733
0.00324597
0.00147362
0.0839469
-0.00474862
0.0507132
-0.129912
4.3903e-05
-0.00069616
-2.06091e-05
0.000672866
-0.0668654
0.0587718
0.0741193
-0.0660257
0.00337653
0.000886599
-0.00227832
-0.0019848
-0.077944
0.0756784
0.00226554
0.0629957
-0.0597499
-0.00324583
0.0605698
-0.000735826
-0.0598339
-0.0107447
0.123547
-0.000612973
-0.11219
0.00991395
-0.0311465
0.0328954
-0.0238447
3.90804e-06
-0.0561984
-0.0675839
0.0115869
0.0664616
-0.0104646
-0.0132834
-0.00215649
0.000199072
-0.000510692
-5.92874e-05
0.000370907
0.00121202
-0.000104478
-0.000262174
-0.000845367
-0.0634515
0.00772657
-0.00144845
0.0571734
0.000386388
-0.0054643
0.00191657
0.00316134
0.0121929
-0.0146798
-2.92764e-05
0.00251617
0.00820453
-0.00674717
0.0107356
0.0557009
-0.00941822
-0.0227577
-0.023525
0.036091
-0.00530458
-0.0363311
0.00554463
9.18562e-05
0.0669601
-0.000304037
-0.0667479
0.00765435
-0.0716407
0.019211
0.0447754
-0.0431397
-0.0317555
0.0416825
0.0332127
-0.0353024
0.0213167
-0.0908248
0.10481
-0.000938137
0.0152396
-0.00783179
-0.00646968
0.0490754
-0.0589162
0.0473667
-0.0375259
-0.0625469
-0.00680183
-0.0081048
0.000883045
-0.000259435
0.00434857
-0.00497218
-0.0120643
-0.00276947
0.00175189
0.0130819
-0.0081505
-0.00929018
0.0108242
0.00661649
-0.000139125
-0.0022303
0.0014384
0.000931028
-0.00033944
0.000425885
-8.64452e-05
0.00176997
-0.0734233
-0.0272444
0.0988978
-0.000148814
-4.34768e-05
-0.00144426
0.00163655
0.000112826
-0.000344132
-0.000108135
0.0023233
-0.0658039
-7.711e-05
-9.22108e-05
0.000595206
0.000613205
0.000150204
-0.000391379
-0.00037203
-0.0282167
0.063462
0.0782874
-0.113533
-0.00916289
-0.00222561
0.00725706
0.00413144
-0.0145928
-0.000296613
0.00572652
-0.00529686
0.00549705
0.013166
-0.0133662
-0.000454254
0.000665817
-0.000288672
-0.0661418
0.0668389
-0.000697073
0.0304081
0.0471218
-0.0600429
-0.0174869
0.0114156
-0.0754472
-0.0212216
0.0852531
-0.01355
0.00276271
0.00549038
-0.00456463
-0.0064174
-0.00256792
-0.0165823
0.0584153
0.0129081
-0.0547411
0.0690706
0.00479352
-0.0537578
-0.0201063
0.000202018
0.000421051
-0.000753538
0.00013047
-9.66928e-05
-0.000244735
-0.00266771
-0.00117735
-0.00134271
0.00518778
0.0650952
-0.0459306
0.0120481
-0.0312128
-0.000836317
-0.00268537
0.00139283
0.00212886
-0.0166324
0.0100057
-0.00320525
0.00983195
0.00155966
-0.101466
0.101157
-0.00125152
0.00313051
0.000784862
-0.0105793
0.00666394
0.010234
-0.0107594
0.00158411
-0.00105873
0.00990282
0.00398996
-0.0107623
0.0367839
0.0562682
-0.0279569
-0.0272766
0.0548041
0.0281916
-0.0557191
0.0277543
-0.0550309
-0.000644592
0.000487891
-0.0330829
0.0124733
-0.0100471
0.0792167
0.0233413
0.00760374
0.0695271
-0.0542522
0.0980287
-0.113304
0.0048305
0.0926786
-0.0975091
-0.00694876
-0.00714852
0.013515
0.000582322
-0.0343096
-0.0868601
0.0275363
0.0936335
0.0219013
0.0616266
-0.0242422
-0.0592858
-0.0235256
0.11325
-0.0529407
-0.0418492
0.0448972
0.0517561
-0.0557886
0.0558
-1.14158e-05
-0.0390649
0.0367228
0.00234207
0.0396668
-0.0781234
0.0728238
-0.0343672
0.0674534
-0.0840356
-0.00987524
-0.0081112
0.0110377
0.0008236
0.000637212
-0.000550774
-0.000910039
-0.00575745
-0.0426259
-0.0074053
0.00124875
0.00146855
-0.00259709
-0.000120207
-0.0574117
0.0518767
0.0855279
-0.0799929
0.0357945
-0.0334871
-0.00230742
0.0122121
0.017434
-0.0121695
-0.0174766
0.00420493
-0.000426844
0.00219661
-0.0059747
-0.0643892
-0.000605855
0.0200627
0.0449324
-0.00293584
0.00668064
0.000460131
0.0390137
-0.109395
0.104694
-0.0343134
0.0460222
0.0134902
-0.0593706
-0.000141806
-0.00364612
0.00696808
0.00167408
-0.00499604
0.00014373
0.0606035
-0.0607472
0.0379883
0.00641776
0.0151609
-0.0595669
0.00428219
-0.00732577
0.00261673
-0.183358
0.0279829
0.162845
-0.00746968
0.0397083
-0.0110076
-0.0287006
-0.00125112
-0.00152424
-0.00116063
0.003936
-0.0419856
0.0458105
0.124798
-0.128623
-0.00189791
0.000685121
-0.00194984
0.00316263
0.0916077
-0.00235947
-0.043226
0.000497025
-0.00124288
0.00204896
-0.0013031
-0.0188112
-0.116426
0.0162791
0.118958
0.00377197
0.052383
-0.00409425
-0.0520607
0.0487339
-0.0703868
0.0605421
-0.0388892
0.0319735
-0.0365226
0.0486081
-0.044059
0.00840075
-0.00163194
0.00575255
-0.0125214
0.00131654
-0.0443839
0.0532939
-0.0537088
-0.0361077
0.0973055
0.0177073
-0.0244519
-0.0905609
0.0469878
0.0183298
-0.134147
0.0688298
-0.00182931
-0.00865268
0.00633619
0.00414581
0.0278499
-0.0499786
-0.00324217
0.0289238
-0.026692
0.00736636
-0.00586601
7.00564e-05
-0.0015704
-0.0862676
0.00271601
-0.000244695
0.0718808
-0.149887
0.0782513
-0.0272517
-0.0875257
0.0411961
0.0735813
-0.0727015
0.0205043
0.0030589
0.0491382
-0.0433225
0.0290647
0.0104051
-0.0827898
0.095706
-0.0129162
-0.0210808
-0.00949226
0.117914
-0.0873413
-0.00361045
-0.00385628
0.006102
0.00136473
-0.0258025
0.059182
0.0406468
-0.0721684
0.0280337
-0.000800961
-0.000415946
-0.00103174
0.00224865
0.0467299
-0.0492196
0.0547623
-0.0377182
-0.00715415
-0.0450009
-0.12382
0.0478162
0.0760034
-0.0429209
-0.032521
0.027664
0.00306494
-0.00219899
0.000808474
-0.00167442
0.00283406
-0.000406338
0.000637216
-0.0863682
0.00357313
0.0827951
0.061457
0.0129203
-0.122866
0.0484887
-0.071025
0.000393794
0.0706312
0.00137322
-0.0017161
0.0083662
-0.00802332
0.048432
0.156339
-0.226399
0.0216284
0.00185139
-0.00232531
0.00141829
-0.000944374
-0.0916432
0.0649407
0.0265325
0.000170012
-0.00114501
-0.000472071
0.00248919
-0.000872116
-0.000627257
0.00836763
-0.00848815
0.000747773
0.00777322
0.00789512
-0.0148971
-0.00077123
0.0408727
0.012508
0.00304165
-0.00276989
0.00157963
-0.0985318
0.105217
0.00745132
-0.0141368
0.0121591
-0.066881
-0.0232069
0.0779287
0.00213688
-0.00483297
0.0878801
-0.085184
-0.040902
-0.0369072
0.0868233
-0.00901411
-0.0407103
0.0245981
0.0405673
-0.0244551
0.0536124
0.0206189
-0.0721121
-0.00211926
-0.00136878
0.000163882
0.00153748
-0.000332581
-0.123643
-0.0431446
0.0395402
0.127247
0.048456
-0.0376949
-0.0318511
-0.0376137
-0.0309502
0.100415
-0.00186384
0.00427895
0.000420889
-0.00283599
-0.0310619
-0.0803315
0.0285444
0.0828489
-0.0296871
-0.0286299
0.0205988
-0.000763477
-0.00329936
-0.00165263
0.0031855
-0.00378745
0.00225457
-0.00578644
0.005602
0.0253878
-0.0772834
-0.0852868
0.137182
-0.000509952
-0.000180853
0.000357888
0.000332916
0.0572753
-0.0603248
0.0480189
-0.0449694
-0.0150481
0.0442573
-0.0076681
-0.0215411
0.0867568
-0.0862007
-0.0187188
0.0181627
0.0265294
0.0224204
-0.0635876
0.0146378
-0.127288
0.0739022
0.0183431
0.0350427
-0.00530543
0.00315529
9.19799e-05
0.00205816
-0.00804913
0.00959875
-0.000176394
-0.0134675
-0.00372805
0.0180595
-0.00086394
-0.0621745
-0.00492189
0.0143644
0.052732
-0.0084789
0.103021
-0.00512683
-0.0894151
0.00906051
-0.0472606
0.0806398
-0.0424397
-0.00152306
0.00418688
-0.00156283
-0.001101
-0.015115
0.000319481
-0.00214419
0.0169397
-0.106408
0.00406848
0.0133276
0.089012
-2.50956e-05
-0.000311701
0.000580406
-0.000243609
0.03735
0.00799936
0.0271201
-0.00495082
0.0462447
0.0527242
-0.094018
-0.000177777
0.000488535
-0.000335854
-0.000536949
0.00218228
-0.00147943
-0.000165906
0.0174303
0.111058
-0.0478332
-0.0806555
-0.000246599
-6.51023e-05
0.000160169
-0.000406767
0.0618375
0.0169567
-0.0921406
0.0133464
-0.157172
0.08605
0.077178
-0.00605608
-0.0180917
0.000190499
-0.0516591
0.0695603
0.0249258
-0.0146587
0.0168061
-0.0270732
-0.0664602
-0.0231335
0.0895937
-0.0780496
0.0386115
0.039438
-0.00194408
-0.000355545
0.0006164
0.00168322
-0.0379835
0.0410459
0.00772673
-0.0107891
0.0465603
-0.0545064
0.00794615
-0.0606674
0.0337208
0.0450512
-0.0181046
0.00452799
-0.00270513
-0.00165491
-0.000167944
-0.00325098
-0.00249984
0.000445396
-0.042206
-0.041794
0.0467286
0.0141349
0.00260528
-0.0634688
0.00225411
-5.54594e-05
-0.00187818
-0.00032047
0.00420366
0.00403325
0.00093715
-0.00917406
0.00709343
0.0225669
-0.0406126
0.0109522
-0.0190762
-0.0154824
-0.00923926
0.0437979
-0.0753659
-0.00987978
0.0293778
0.0558678
-0.00180068
0.0151141
-0.00831173
-0.00500173
-0.0529837
0.000557064
0.0333504
-0.000186273
0.0252906
-0.135797
0.126289
-0.0157829
0.0285893
-0.0345185
-0.0517238
-0.0271122
0.0548665
-0.000113033
0.0402885
0.00341706
-0.0435925
-0.0551622
-0.0599621
0.115124
-0.00319102
-0.00102504
-0.00177538
0.00599145
0.00317573
-0.00476658
0.00170346
-0.00011261
0.0367025
-0.00625414
-0.0281081
-0.00234028
-0.00326081
-0.00229479
0.00236457
0.00370459
-0.0110005
0.0660142
-0.0587183
0.0761406
-0.000246192
0.0275199
0.009647
-0.00674862
-0.0304183
0.0586044
-0.000820529
-0.0577839
-0.0530595
0.113718
-0.0284235
0.0596903
0.0200944
-0.0513612
-0.0163831
-0.0257349
0.0175496
0.0245684
0.00311518
0.00376469
0.000850283
-0.00773015
-0.0342142
-0.0379777
0.0993383
-0.0271464
0.0447173
-0.0363573
-0.000407175
-0.0079528
-0.0502116
0.115711
-0.050844
-0.0146556
-0.0013806
0.00165975
-0.00010924
-0.000169911
-0.000648491
0.0215753
-0.00478825
-0.0161386
0.00302557
0.00374922
0.000212495
-0.00698728
-0.000279097
-3.98318e-05
6.00333e-06
0.000312925
3.8238e-05
1.54254e-05
-0.00033276
-0.00913469
0.0230624
0.0702759
-0.0842035
0.0801076
-0.0805154
0.000407807
0.000301618
-0.000315265
1.36473e-05
-0.0127707
0.000974072
0.00230063
-0.00134181
-0.00193289
-0.00854949
-0.00562521
0.00655439
0.00762032
-0.0557586
0.0273351
0.000273423
0.000249752
-0.000796974
0.000273799
0.033642
0.0549566
-0.0350478
-0.0535508
0.0119149
0.159187
-0.179764
0.00866214
0.0583012
0.0633086
-0.0619195
0.00198077
-0.0135363
-0.00180112
0.0133567
-0.0334042
-0.0301126
0.0635168
0.0311186
-0.0645228
-0.0543076
-0.0448166
-0.0654836
0.164608
0.0499018
-0.0557515
0.00584963
-0.0726262
0.13453
-0.0713223
0.0329883
-0.030108
0.0858779
-0.0036029
-0.0689569
-0.0133181
0.0699238
-0.0703807
0.011433
-0.0109761
8.21834e-05
-0.0062292
0.00726637
-0.00111935
0.00112074
-0.00488249
0.00674269
-0.00298093
-0.00022932
0.000199031
0.000681552
-0.000651264
0.0223027
0.0232414
-0.033902
-0.011642
-0.00536434
-0.00500701
0.00623616
0.00413519
-0.0107893
0.0321068
-0.0429728
0.0216553
0.00111307
-0.00860495
0.0107951
-0.0033032
0.0485732
-0.00415381
-0.0444194
0.0380528
0.0357276
-0.126565
0.0527845
-0.0978995
0.0599804
0.0759719
0.0329826
-0.0997636
-0.0469132
0.10789
-0.0370843
-0.0238929
0.00166045
0.00911907
-0.0124186
0.00163909
0.0276015
-0.00257486
-0.0250267
-0.0305184
0.0435855
-0.00378028
0.0202064
-0.0315022
0.000990111
-0.000177002
0.00108115
-0.00189425
0.0117297
-0.0384217
-0.000772909
0.000193348
0.000405702
0.000173859
0.00277243
-0.000378535
0.00105106
-0.00344496
-0.000823615
-0.00240225
-0.0782772
-0.0127789
0.00144701
-0.0118998
0.0232317
0.0201469
-0.090363
0.0206621
0.049554
-0.0033404
0.0580161
-0.0818689
0.0271932
0.000858067
-0.000546227
0.000522102
-0.000833942
0.0792334
0.0125818
0.00229237
-0.0941076
-0.000544687
-0.000799097
0.00155369
-0.000209907
0.00490542
-0.00094159
-0.0691495
0.0651857
0.0066076
-0.00107159
-0.00495603
-0.000579974
0.00644097
0.00459039
-0.00363259
-0.00739877
-0.11039
0.0964158
-0.0875426
0.101517
-0.054294
0.109582
-0.0552877
0.0022434
-0.0437527
0.00880036
0.0327089
0.0036983
-0.00352934
0.000709919
-0.000878881
0.0493706
-0.00288385
0.00127404
-0.129617
0.00259506
0.0739621
-0.0338693
5.81359e-05
0.00103586
0.0317766
-0.0254747
-0.0073377
0.0781821
-0.030774
0.0342088
0.00410494
-0.00506781
0.000131319
0.000831551
0.0340906
0.0235954
-0.07539
0.017704
-4.1108e-06
-8.5972e-05
2.51901e-05
6.48927e-05
-0.000452238
0.00149681
0.00539641
0.00022129
-0.00800922
0.00647058
0.00564359
0.0746247
0.0407474
-0.0370564
-0.0783157
-0.131158
0.141367
-0.00895063
-0.00125915
0.03155
-0.032591
0.00104102
-0.0365251
-2.53807e-05
0.000335982
-0.00317845
-0.00222534
0.0146849
0.206739
-0.158938
-0.0624863
0.0293071
-0.0610341
-0.0179343
0.0496613
-0.00308285
0.0390858
-0.000975484
-0.085425
0.0473146
-0.0230741
0.0101443
-0.0380624
0.0476097
0.0463324
-0.0558798
-0.0667655
0.0890517
-0.151512
0.129226
-0.000196487
5.05382e-05
-0.00145303
0.00159898
0.000188361
0.00230424
-0.000628457
-0.00186414
0.0435296
-0.0147551
0.0382883
-0.0670628
-0.00355475
0.000330868
0.00342681
-0.000202926
-0.0118909
0.0106329
-0.0368043
0.0121002
-0.0463208
0.0059338
-0.00323323
0.0184706
-0.0211712
-0.136225
0.0184706
0.128402
-0.010647
0.0332077
-0.0227144
-0.0157364
0.00524307
0.0344903
-0.0530023
0.00662109
0.00457015
0.00755397
0.0519181
-0.0640423
0.0246924
-0.007069
-0.0251061
0.00748269
-0.07926
-0.00859694
0.0151499
0.00124676
-0.00111206
5.36623e-05
0.000133879
0.00248466
0.00150771
-0.00412625
0.0183934
-0.0320478
0.0383467
0.0179816
-0.143352
-0.0229558
0.148326
-0.112972
-0.0150112
0.0258134
0.102169
0.0571822
-0.0353735
0.0289507
-0.0507595
0.111101
-0.00608015
0.00334987
-0.108371
-0.0169603
-0.0370049
-0.00416558
-0.0162386
0.00810037
0.0123038
-0.00134166
0.000481605
4.51808e-05
0.000814871
0.015284
-0.0775108
0.0622268
0.108777
-0.00717227
-0.112349
-0.026376
0.0557805
-0.0463649
0.03986
-0.122203
0.0149289
0.0674138
-0.00397086
-0.0122905
-0.0269675
0.0432289
0.00390502
0.0497582
0.0852876
-0.133071
-0.00197442
0.0492036
-0.0829599
0.0890989
-0.0553426
-0.0960552
0.0958206
-0.00721123
0.00744583
0.0021938
0.0045293
-0.0945884
0.0878653
-0.00174391
0.0036235
0.00609236
-0.00797195
0.000245986
-0.000960921
-0.000288885
0.00100382
0.0889114
0.000806646
-0.0175486
-0.0721694
-0.000805765
0.000755244
-2.69947e-05
7.75158e-05
0.000825043
0.00331958
-0.00233439
-0.00181024