/*--------------------------------*- C++ -*----------------------------------*\
| =========                 |                                                 |
| \\      /  F ield         | OpenFOAM: The Open Source CFD Toolbox           |
|  \\    /   O peration     | Version:  2506                                  |
|   \\  /    A nd           | Website:  www.openfoam.com                      |
|    \\/     M anipulation  |                                                 |
\*---------------------------------------------------------------------------*/
FoamFile
{
    version     2.0;
    format      ascii;
    arch        "LSB;label=32;scalar=64";
    class       volVectorField;
    location    "0.0595072";
    object      U;
}
// * * * * * * * * * * * * * * * * * * * * * * * * * * * * * * * * * * * * * //

dimensions      [0 1 -1 0 0 0 0];

internalField   nonuniform List<vector> 
47425
(
(10.1857 0.166623 -0.00037643)
(10.0486 -0.161809 -0.000419308)
(10.0283 -0.014696 -0.0107622)
(11.5057 -0.52479 -0.221378)
(12.4831 0.417644 0.740617)
(10.066 0.0154768 0.00608225)
(12.3785 0.265946 0.720045)
(10.0566 0.0168076 0.00329176)
(10.0048 0.00864274 0.00570517)
(2.38773 4.84079 -1.14703)
(10.0362 0.0155014 0.000980996)
(9.97279 0.0572134 -0.00131709)
(12.1688 0.367566 0.266602)
(10.0399 -0.0051502 -0.00416178)
(11.0703 0.274474 -0.135775)
(10.1191 -0.209749 -0.0291862)
(10.0505 -0.00338261 -0.00512236)
(8.76228 -0.531276 -1.4845)
(8.69071 1.30008 -5.03516)
(13.5274 -0.472701 -1.02629)
(10.8897 -0.716417 -0.598303)
(9.81044 -0.0436349 -0.0283992)
(9.96304 0.0280446 0.00172476)
(9.98904 0.0155812 0.00976806)
(9.90867 -0.0878086 -0.0149261)
(9.99755 0.031433 -0.0161141)
(9.99132 0.0265117 0.00269779)
(11.4924 -0.344796 -8.82829)
(10.003 0.0289608 0.00302291)
(10.0346 0.0138724 0.00522978)
(9.73209 0.724237 0.050597)
(10.0297 0.10297 -0.000229451)
(10.0015 0.00668071 0.00606849)
(10.0006 -0.00251396 0.00486284)
(9.98104 0.00981709 0.000157817)
(9.94157 -0.00636016 0.010464)
(9.75423 -0.0226156 -0.0703464)
(10.0017 0.0166906 0.00771725)
(10.5501 0.39095 0.00998271)
(10.0404 0.0466402 0.00228496)
(9.86608 0.102585 0.00147058)
(9.46151 0.270592 -1.12922)
(6.14587 -2.40526 -1.39387)
(9.98341 0.0133404 0.00525107)
(-0.1638 -1.25129 0.85725)
(9.98547 0.0705662 0.0167687)
(9.97122 -0.00883362 -0.0209096)
(9.99584 0.0298991 0.00552478)
(10.0729 -0.0357164 -0.00776313)
(10.0605 0.0227175 -0.00438618)
(2.14409 -0.568894 -5.84364)
(9.02194 1.07511 1.47873)
(10.0357 -0.00511099 0.00430916)
(6.88471 -5.52674 2.3825)
(9.99538 0.0224257 -0.00935273)
(10.1988 0.0111951 0.0502741)
(10.2032 -0.134419 0.0359979)
(10.0475 -0.00127562 0.0260522)
(12.1871 1.33322 1.60708)
(9.99268 0.0179737 0.0179057)
(5.46414 -5.47968 1.81847)
(5.11942 -0.413279 2.40596)
(4.87558 -3.79168 0.861032)
(9.11491 -1.16851 -0.0600281)
(10.0074 0.0106068 -0.00682399)
(10.8166 -0.318331 0.0229555)
(9.98896 -0.0136344 -0.00648395)
(10.6703 0.0797682 0.505739)
(8.44071 -4.98714 2.55474)
(9.03712 0.542531 0.339401)
(10.8202 -0.568138 0.159443)
(10.0478 0.00346428 0.00918912)
(10.9399 -0.113265 -0.0194219)
(10.8265 0.249017 -0.627722)
(4.56194 2.29856 0.694947)
(9.99891 -0.00377513 0.000656242)
(5.12916 -3.47242 1.60374)
(9.98923 -0.0155452 0.00677928)
(7.62589 -3.69242 1.84134)
(11.8637 0.0786967 1.61282)
(4.86054 1.6533 0.785974)
(10.2203 0.316681 -0.00635063)
(9.18574 0.111608 -0.285726)
(10.0124 0.0142362 -0.00685229)
(9.80361 -0.00351897 0.11419)
(10.2459 -0.0729961 0.0183526)
(10.7296 -0.16124 -0.0282712)
(10.1436 0.0875893 -0.0202453)
(11.0459 0.446347 -1.72361)
(10.9719 -0.459816 2.27217)
(9.78626 0.416085 -0.0373579)
(10.6462 -0.000713859 -0.0254935)
(10.0514 0.01966 0.00838035)
(10.1388 -0.0641327 0.00890325)
(10.0816 -0.058139 0.0148059)
(10.034 -0.00613742 0.00929406)
(10.0439 -0.0264768 -0.0229432)
(10.2739 -0.277745 -0.00497112)
(10.1701 -0.0237768 0.0125022)
(10.028 0.0170624 0.0328471)
(10.0301 0.0354108 -0.0037496)
(8.76824 0.114366 -4.08034)
(10.281 0.188868 0.0228124)
(5.31132 1.97893 -0.689615)
(10.2973 0.136466 -0.0324496)
(10.5921 -0.773604 0.134079)
(10.1011 0.198838 0.0467638)
(10.1285 -0.0525512 0.00895052)
(9.21031 -0.0836007 -0.0997116)
(9.93657 0.070071 0.0126933)
(-1.41252 -2.07303 -0.400429)
(10.0335 -0.0909521 0.0213113)
(10.5406 -0.962166 0.2239)
(10.2538 -0.0207372 0.00530358)
(10.8827 -0.465691 0.0901702)
(1.80473 -4.23158 -5.84101)
(10.8798 -0.429301 0.0701754)
(4.09096 0.0253863 -4.3844)
(10.3628 0.170794 -0.00505771)
(11.0813 0.362111 0.470223)
(10.3328 -0.0509738 0.00326847)
(10.0002 0.00391699 0.00571083)
(10.0019 0.0511191 -0.00188774)
(11.7698 0.776248 -0.662902)
(10.0925 -0.0583408 0.00282065)
(10.8175 -0.857245 0.185236)
(10.1761 -0.0883505 0.00344792)
(10.0072 0.00384691 -0.00687768)
(9.95909 -0.00830936 0.00282297)
(9.991 0.0260761 -0.0166667)
(9.22822 -0.316184 0.339)
(10.4358 0.472481 -0.0367498)
(4.2908 0.0472485 0.538065)
(10.3375 -0.457284 0.0374324)
(9.88265 -0.313176 -1.13604)
(12.0402 -0.51567 -0.884011)
(10.9651 0.800079 0.266441)
(10.8402 -0.868184 0.322841)
(10.1479 -0.0981495 0.0125782)
(11.1021 0.0615282 -0.0422221)
(9.98242 0.00538095 0.00257502)
(12.3257 0.179905 0.258449)
(10.514 0.0432572 -0.0499842)
(10.5992 -1.22999 0.312072)
(10.208 0.22485 0.0128726)
(10.0048 0.00517679 0.00580229)
(12.0843 0.128133 1.00297)
(10.018 -0.0266982 0.000599128)
(10.4811 0.0239051 -0.026935)
(9.97578 -0.0165555 0.0065396)
(10.5193 -1.2757 0.174948)
(2.94653 -0.376355 -6.89102)
(10.0075 0.0148387 -0.00963964)
(5.68086 0.0829386 -11.482)
(9.01606 -1.16769 -0.731521)
(9.96821 0.0588661 0.00351625)
(10.9408 0.426628 -1.66765)
(7.50179 -3.87871 -2.6314)
(10.0717 -0.0471503 0.0237151)
(10.0015 -0.0348544 -0.00695809)
(11.1556 -0.3251 0.0534768)
(10.0028 0.0351894 -0.00877038)
(10.0047 0.00669641 0.0389172)
(10.1639 0.291749 0.0283728)
(12.218 0.162028 -0.371025)
(0.190155 -1.79353 -2.07822)
(10.0089 -0.0269765 0.00396655)
(4.95739 2.11132 0.658486)
(9.94568 -0.0131099 0.0188388)
(12.2217 0.700857 -4.26235)
(5.96153 1.61707 0.33019)
(9.98246 0.00213182 0.00376234)
(10.0015 0.0235416 -0.00318727)
(9.48109 -0.976555 -0.644328)
(10.2195 -0.0308328 0.0418602)
(9.31797 -3.05018 -1.31274)
(2.77646 0.986944 -7.63201)
(10.0048 0.0257624 0.00602576)
(10.0225 0.0207926 0.00970657)
(10.051 0.0126683 0.00385004)
(2.60956 0.442954 -10.9684)
(10.0465 -0.102829 0.0118638)
(10.0096 0.022002 0.00191816)
(10.0046 0.0143072 0.0141695)
(10.0424 -0.0158388 6.65619e-05)
(10.0276 0.0182309 0.00321718)
(10.2142 0.0826274 -0.0177674)
(5.66774 -0.480478 -0.63181)
(9.85108 0.00322631 -0.0148376)
(10.1042 0.140272 0.0430979)
(10.0008 -0.00979573 -0.00336951)
(9.977 0.00113437 0.00659653)
(12.2445 -0.463485 -0.807043)
(9.997 0.00168535 0.00376522)
(10.0059 0.0120589 0.0318507)
(11.1058 -0.0623058 -0.0175313)
(10.0018 0.00103269 0.00749961)
(9.99167 -0.00324295 0.00540869)
(11.2771 -0.0051928 -0.00863942)
(10.281 -0.250231 0.0634203)
(9.97335 0.00189908 0.0123941)
(10.334 -0.0317155 0.00847979)
(9.60784 0.173726 0.0689224)
(11.052 -0.213506 -0.0104762)
(10.2695 -1.49113 -0.901069)
(10.599 -0.0128614 -0.0402919)
(10.005 -0.00366981 0.0120175)
(11.037 -0.113618 -0.0178933)
(10.0098 0.0990607 -0.0107548)
(10.0024 0.0129347 -0.00330746)
(10.2437 -0.149864 0.01827)
(11.0435 0.101718 -0.0144073)
(10.0067 0.0275229 -0.0013208)
(9.99592 -0.0122566 0.0296773)
(10.6618 -0.063024 0.0368455)
(11.3142 -0.0119435 -0.174594)
(10.7561 0.0167826 -0.0626744)
(10.9348 0.251394 1.74352)
(8.75848 -1.27937 -0.648479)
(9.9523 -0.0259672 0.0101018)
(11.7691 -0.347211 1.74901)
(11.077 0.149738 0.180306)
(9.99463 -1.52744 -0.933401)
(10.8255 0.115345 -0.0126193)
(10.5995 -0.0091493 -0.0305155)
(11.8452 -0.603855 1.67685)
(10.0337 0.0170937 0.000737791)
(11.2296 0.000439828 -0.0739846)
(11.4116 0.302341 0.177542)
(11.9258 0.20972 -0.285194)
(10.7635 0.0146901 -0.068286)
(10.0233 -0.0320844 -0.0123357)
(10.4185 -0.101834 -0.00870012)
(10.0011 -0.00422225 -0.000397853)
(9.78812 -0.00573779 0.00469513)
(10.0227 0.237064 -0.0044369)
(11.6787 0.16637 1.67353)
(9.97864 0.0414096 -0.00468201)
(12.0006 0.192125 1.49102)
(9.75887 -0.00222245 -0.023496)
(9.8572 -0.0156402 0.0115599)
(10.0068 0.0114113 0.0117156)
(10.0478 -0.0176715 0.0135079)
(11.8407 0.624552 0.0351798)
(10.4423 0.400928 0.0469003)
(10.0076 -0.0028318 0.0120359)
(10.2872 -0.0611009 0.00961323)
(10.0105 -0.000628264 0.00341104)
(10.026 -0.0162102 0.00328657)
(9.97564 4.96656e-05 -0.00717332)
(10.0045 0.0371101 -0.00333186)
(11.8388 -0.242704 1.6566)
(9.93653 -0.00938551 0.00389814)
(10.0032 0.00428552 0.00577596)
(9.92904 -0.0133872 0.00815951)
(9.94316 -0.00590957 0.00171352)
(9.84991 0.0948858 -0.0168354)
(9.74785 -0.00132446 0.00747242)
(10.4309 -0.620158 0.138801)
(10.0099 0.00113312 -0.00687489)
(9.7446 0.00445023 0.0012646)
(9.99807 0.0231546 -0.000621755)
(10.232 0.0656119 -0.0171225)
(10.1362 0.0192114 0.0150404)
(11.7324 0.12839 0.794876)
(10.1496 -0.500777 -0.0973591)
(10.0161 0.00786655 -0.027956)
(11.8129 0.139615 0.63202)
(10.0094 -0.00347508 -0.0133655)
(10.2597 0.0712194 -0.0232247)
(10.2029 0.0617273 -0.00615237)
(12.073 0.306624 1.22095)
(11.5418 0.302224 1.44598)
(10.1614 -0.158156 -0.0126486)
(11.9233 0.00990108 1.58475)
(10.0679 0.00667477 0.0145988)
(11.9956 0.166706 1.41388)
(6.706 3.37443 2.29086)
(11.5062 0.188542 1.52782)
(5.89385 1.27409 -5.15769)
(4.5884 -5.50442 1.66717)
(10.1856 0.148795 -0.00599612)
(3.9821 -5.52692 0.995136)
(9.88366 -0.00449469 0.0131271)
(9.99298 0.0060615 0.00769627)
(11.2751 -0.147396 0.0564422)
(9.89603 -0.00218974 0.023169)
(9.9822 -0.0162202 -0.0129418)
(9.85378 -0.171063 0.0100936)
(10.9079 -0.587632 -0.0275764)
(1.40878 1.74445 -3.54657)
(9.23862 0.795238 0.043883)
(10.0029 -0.00159197 -0.00212355)
(9.99844 0.00203053 -0.00797591)
(10.0211 -0.0193018 -0.017593)
(10.3282 0.351709 0.446388)
(11.8158 0.733808 0.218101)
(10.2135 -0.671191 0.146696)
(10.05 -0.147308 0.0227838)
(11.8261 -0.123406 0.240082)
(10.058 0.151641 0.0193119)
(10.0667 0.0211693 0.0305606)
(9.9693 -0.00772206 -0.00419331)
(10.0304 -0.0226506 -0.0102391)
(10.7345 4.06174 -0.415088)
(6.27924 1.80688 -0.061151)
(1.49645 1.18103 -6.23419)
(9.99424 0.00510665 -0.0171008)
(10.0752 -0.054068 0.0191006)
(10.0656 -0.627807 -0.0101145)
(10.1657 -0.528056 -0.159957)
(1.24239 -0.715801 -5.8304)
(9.98704 -0.00847758 -0.0254668)
(9.96191 -0.0119684 -0.0322306)
(10.86 2.47384 1.1604)
(10.1758 -0.132974 0.0182805)
(9.8681 0.00253126 0.00590585)
(9.8169 -0.00532944 0.0183116)
(9.91943 -0.0025672 0.0203191)
(12.8346 2.19537 -0.834465)
(11.2005 2.17096 1.05186)
(9.99302 0.174444 0.00902987)
(10.117 0.146162 -0.0203472)
(10.0147 -0.00521497 -0.0157622)
(10.2261 -0.0260706 0.0121955)
(10.0476 0.00612433 -0.00387133)
(10.0856 0.25006 -0.0132182)
(10.0989 0.0568965 0.00461663)
(10.0465 -0.00384985 -0.00969566)
(10.0009 -0.00854585 0.00458148)
(11.364 -0.0204076 0.271163)
(10.2189 -0.222311 0.0956473)
(10.5591 -0.736854 -1.35026)
(9.98775 0.0251931 -0.00946673)
(9.96585 -0.00700678 0.0074651)
(10.0041 0.0190024 0.0325904)
(10.1955 0.245148 0.0898201)
(9.95604 0.117416 0.00557529)
(10.0484 0.000768292 0.0201677)
(10.0131 -0.00571828 -0.0144363)
(10.0022 0.253073 -0.0172148)
(10.0145 0.284533 -0.0119318)
(10.0993 0.0645867 0.00418855)
(9.93068 0.282159 -0.0182076)
(10.032 -0.0201697 0.00436337)
(10.0135 0.0105318 -0.0071436)
(10.0361 0.00541689 0.0193939)
(9.65424 0.426813 -0.18023)
(9.96586 -0.00505403 -0.0106146)
(9.9863 -0.0211219 -0.00580576)
(9.9886 0.236996 -0.0191842)
(10.4176 -0.449093 -0.0462666)
(10.1039 0.24579 0.00304372)
(9.93821 0.221928 -0.00878408)
(9.99102 0.186609 -0.0206037)
(11.1965 -1.30557 -0.131427)
(9.94586 0.0084386 0.00666437)
(9.21969 0.233639 0.0969442)
(9.96195 0.156336 -0.0143157)
(9.99637 0.0221943 -0.00769034)
(9.58559 0.298667 2.01312)
(11.4352 -0.245858 -0.518562)
(10.073 -0.0116191 -0.00519652)
(9.96324 -0.00973992 -0.0131494)
(10.3566 -0.409044 0.0358596)
(10.5925 0.494933 -0.037578)
(9.82179 -0.00369423 -0.0105214)
(10.0113 -0.00627261 -0.00737013)
(10.04 -0.145583 0.0189623)
(10.2503 0.720795 -0.104159)
(9.85627 -0.0129424 -0.0121802)
(-0.811759 -1.07859 -0.134377)
(10.653 -0.0854966 0.0318534)
(10.0829 0.956735 -0.0750792)
(9.97932 -0.00166912 0.00748218)
(10.0778 0.843368 -0.0488478)
(10.6354 -0.181434 -1.01901)
(10.0108 -0.00807496 -0.00083378)
(10.0033 0.00576327 0.00425103)
(9.78767 -0.0133395 -0.056058)
(10.0112 0.00312561 0.00467514)
(10.0805 0.852347 -0.105548)
(10.118 -0.0687299 -0.0258468)
(10.0061 0.0235313 0.00572129)
(9.94038 -0.0107195 0.00781156)
(10.0022 0.0182015 0.00589702)
(10.023 -0.0108782 0.0113466)
(10.216 0.183312 0.0178631)
(10.0006 0.00600985 0.00842998)
(9.98107 0.0167294 0.00815764)
(10.5195 0.892504 -0.333688)
(10.341 1.09822 -0.380612)
(9.95855 0.00407701 0.00832091)
(10.5066 -0.482988 0.0552436)
(9.96294 -0.0258873 0.0219358)
(10.4472 0.836026 -0.293905)
(9.9712 -0.0676185 0.0173598)
(9.95222 0.0132127 0.00590893)
(12.2245 0.269973 -0.573604)
(10.0156 0.0092855 -0.0186322)
(10.534 -0.428888 1.45413)
(10.0394 -0.00786943 -0.0109089)
(10.3984 0.966848 -2.7414)
(9.97491 -0.00449421 -0.0150952)
(10.639 0.118997 0.0132027)
(9.97294 -0.00669483 -0.0209654)
(10.019 0.0216193 -0.0183136)
(9.83911 0.0112546 0.00803508)
(10.0368 0.00635606 0.0170764)
(9.98478 0.00501992 -0.0114939)
(10.3379 0.978903 -0.292359)
(1.49201 -1.96386 1.3366)
(2.04761 -0.636402 -2.57749)
(10.0635 0.0556685 0.0155444)
(10.3538 1.4967 -0.90261)
(10.7073 0.736715 -0.317593)
(10.8047 0.693899 -0.308823)
(9.99637 -0.0324819 0.0216894)
(9.97365 0.0131974 -0.00156099)
(9.9826 0.0205327 0.0128309)
(9.92327 -0.00823871 -0.0120306)
(9.95458 -0.0060941 0.00448541)
(10.1347 -0.211673 -0.00763103)
(10.8086 0.62885 -0.214225)
(9.97155 -0.0223939 0.00692474)
(10.0366 -0.000347756 0.0100666)
(11.3962 -1.23311 0.292152)
(11.4935 0.518396 -0.196862)
(11.117 0.563185 -0.16275)
(8.13313 -1.31269 -5.11542)
(-0.0434765 4.38474 0.703884)
(10.5671 -0.296986 0.061309)
(7.47719 -0.963308 -5.65309)
(-0.100034 4.1488 1.02714)
(9.84455 -0.180951 0.00836514)
(-0.159784 4.31008 0.889575)
(9.04741 -1.17419 1.28224)
(10.0221 -0.033351 0.00546029)
(11.0431 0.645566 -0.325194)
(10.9924 0.699711 -0.352679)
(11.2756 0.61126 -0.314491)
(-1.21355 3.37637 1.21418)
(10.1313 0.116841 0.00601952)
(10.0107 0.0143681 -0.00708404)
(10.0043 0.00167082 -0.0188192)
(11.3498 0.650884 -0.415119)
(11.2246 0.689998 -0.480306)
(10.0662 0.00935457 0.0231177)
(10.0844 0.108628 0.0146994)
(9.83537 3.53369 2.66048)
(-1.10606 3.35732 1.21286)
(12.9637 -0.446549 -3.06084)
(10.0067 -0.014124 0.00806067)
(8.80303 -0.733214 -3.31486)
(10.088 0.197778 1.1961)
(9.99184 -0.0407217 -0.00457533)
(10.9589 0.441704 -0.0498372)
(11.9826 0.282716 0.280249)
(10.9459 0.353984 -0.0393704)
(9.99519 -0.0173571 0.00475352)
(9.9986 -0.00479725 0.00698781)
(9.9829 -0.00670591 0.000657221)
(10.4628 0.376782 0.00858)
(9.99924 0.00197126 -0.000367049)
(9.999 -0.030896 0.0283778)
(10.1564 0.0835266 -0.0307966)
(9.96872 -0.00320801 -0.00189093)
(11.1042 0.205518 -0.0536761)
(10.0257 0.0045481 -0.0108798)
(9.98808 0.0492589 0.0194162)
(9.9968 -0.018693 0.00147455)
(10.0057 -0.00718731 0.00873798)
(9.95519 0.00636519 0.00719251)
(10.3934 0.324708 -0.00351678)
(10.132 0.0573558 0.00778366)
(10.0692 0.00293575 0.0360426)
(11.0286 0.221306 -0.0526349)
(9.10273 4.12878 2.18119)
(9.96962 0.00410069 0.0014753)
(11.9849 1.55142 -1.40493)
(9.99734 -0.00815275 -0.00192855)
(10.8904 -0.145986 -0.047029)
(6.65177 -0.961068 2.06248)
(9.76048 1.42059 -0.607694)
(9.9915 0.0443092 -0.0156876)
(9.83447 1.50167 -0.679938)
(10.0078 0.0260913 0.00339028)
(10.045 -0.00158003 0.00596504)
(10.0679 1.28298 -0.903544)
(9.98055 0.00171113 0.0105298)
(10.7098 -0.186195 0.0490248)
(9.94302 1.17761 -0.632101)
(10.2652 -0.0626 0.0403287)
(10.6007 0.0506178 -0.270522)
(8.22468 0.27983 -4.18687)
(10.059 -0.0339394 0.00323504)
(9.63425 1.89478 -0.626923)
(10.0521 0.000282866 0.0218008)
(9.03917 2.03079 -1.04098)
(10.0876 -0.0964118 0.024677)
(10.0127 -0.0212336 0.00382572)
(10.0016 0.0191952 0.00353567)
(9.98729 0.0146994 0.00413907)
(10.8171 1.03086 0.865635)
(9.96381 0.00881752 0.00411981)
(9.99126 0.0199771 -0.000191203)
(10.0359 -0.0318881 0.00463756)
(9.97168 0.0519832 0.0168711)
(11.1539 0.613389 -0.00301968)
(10.0472 0.0166695 -0.00287555)
(10.0338 0.0233522 -0.000192988)
(8.63805 0.27033 -0.608938)
(9.96204 -0.0087988 0.0280877)
(9.86803 0.0979817 0.0108936)
(10.0744 -0.13847 0.0362161)
(10.0644 0.00961899 -0.00759093)
(10.0918 0.0177806 0.0188289)
(9.96689 0.0262433 0.00889847)
(10.1137 0.036365 0.00486144)
(10.3458 1.32453 -1.04991)
(10.0038 0.00977124 0.00693467)
(9.98892 0.00456138 0.00280072)
(3.01275 -0.491209 -5.84286)
(10.0276 -0.00736449 0.0130156)
(10.0344 -0.00415515 0.00537385)
(10.014 0.129193 -0.0331017)
(10.0043 0.0111194 0.00689614)
(12.6516 1.30891 -0.621204)
(12.7625 0.981376 -0.359166)
(9.96054 -0.0151093 -0.00384147)
(9.9532 -0.101118 0.0152143)
(9.89954 -0.00251352 0.0187478)
(11.3586 -0.00193769 1.2673)
(10.0494 0.0629743 -0.0248303)
(12.7453 1.29052 -0.525013)
(9.99932 0.0063882 -0.00341625)
(-1.26433 -0.861952 2.15121)
(8.17217 -0.544966 -0.705838)
(9.19099 -0.900386 1.85228)
(10.0271 0.00249112 0.0125085)
(12.6875 1.21551 -0.460834)
(10.0634 0.0360352 -0.0203188)
(10.1026 0.116544 0.0173715)
(10.0134 0.00931938 -0.0589939)
(9.7581 0.0907737 0.157525)
(10.0242 -0.00279064 0.00507847)
(10.0243 0.0374254 -0.0136121)
(6.69746 -1.18995 -0.402006)
(10.0026 0.00241079 -0.0226114)
(9.95543 0.00423076 0.00565271)
(10.0001 0.00158452 0.0182963)
(12.5425 1.3964 -0.558747)
(10.0523 0.0174796 0.017098)
(10.0281 -0.00737096 0.000270135)
(12.3742 1.36666 -0.611223)
(12.2873 0.800305 -0.197735)
(10.0288 -0.00890741 0.015979)
(10.0185 -0.00874007 -0.000541745)
(-0.229416 2.02502 0.6814)
(10.0483 0.000405925 0.00125043)
(10.6451 -0.350387 0.165843)
(9.9911 0.00199317 0.00122472)
(10.064 0.0147444 0.0391912)
(10.0417 -0.0119511 0.00577729)
(11.9345 0.929204 -0.33026)
(11.2055 0.107468 1.43338)
(9.26334 0.706739 0.815994)
(9.93028 0.082669 0.133288)
(10.0279 -0.0538996 0.0189364)
(10.0123 0.00625995 -0.0189086)
(12.6415 -0.46568 0.207166)
(9.30633 0.200063 -0.419565)
(9.79671 0.0644212 -0.0223824)
(-0.112469 1.82167 0.447614)
(10.0228 -0.02929 -0.0161447)
(10.0271 0.0134715 -0.00690091)
(-0.611526 1.71894 0.688631)
(12.1079 1.81862 -1.17459)
(9.87713 0.0848952 0.0153676)
(0.0365764 1.9345 0.451693)
(0.0171487 1.97058 0.660078)
(9.99971 0.0259102 -0.00845228)
(9.99828 0.012951 0.00156012)
(10.0359 0.00507207 -0.00910083)
(9.62294 -0.373355 0.019661)
(9.99834 0.0068235 -0.00462997)
(9.97721 -0.00701705 -0.00577345)
(11.0216 0.569493 -0.0548253)
(10.0037 0.258026 0.0296695)
(9.94287 0.0324966 -0.00175902)
(10.0522 0.00707531 0.0265604)
(12.608 1.03907 -0.21388)
(11.85 1.22775 -0.332591)
(9.96932 0.00922158 -0.00039984)
(10.4249 0.377513 -0.0345897)
(-4.27418 -2.63947 -0.275447)
(-1.29953 -2.67516 0.687307)
(10.7842 0.395923 -0.13727)
(9.95313 -0.000794256 0.0119204)
(10.3052 -0.10792 0.117589)
(10.9638 -0.118015 -0.747745)
(9.87383 -0.000620684 0.000118541)
(9.87265 0.00159728 0.00136044)
(10.0478 -0.0185629 0.020352)
(10.3321 0.144033 -0.00432138)
(9.9797 -0.0130902 0.00686455)
(10.775 0.219985 0.289964)
(10.0023 0.000823954 0.00316858)
(13.0061 0.828234 -0.610237)
(10.328 1.51056 -1.14366)
(10.7033 0.378416 -0.0725811)
(13.0349 1.01611 -0.940986)
(10.0856 0.0499055 -0.00762586)
(9.99686 0.00460553 0.00745314)
(10.4662 0.743437 0.146806)
(10.1695 -0.108893 0.0266115)
(10.017 0.00854988 0.00290132)
(10.005 0.00681681 -0.0031288)
(11.0729 0.684903 -0.524417)
(7.97012 -0.776755 -1.48069)
(10.0192 -0.00664922 -0.00443276)
(10.8865 0.15729 0.0265471)
(9.9796 0.155241 0.0297311)
(11.697 -5.36741 -2.22406)
(10.5014 -0.86778 0.898092)
(11.602 -0.0624356 0.934045)
(6.45689 0.709634 0.306036)
(6.23392 0.673818 0.14895)
(10.0627 0.00807277 0.00897728)
(9.89548 0.191521 -0.0199525)
(4.79399 0.557465 -0.183927)
(10.0084 0.0139452 -0.00109383)
(10.0193 -1.74492 -3.51583)
(7.33334 0.520979 2.11761)
(9.98452 0.00117626 -0.00231498)
(9.99189 0.984057 0.556278)
(10.0106 -0.0159951 -0.000703281)
(10.0282 -0.000876944 0.0179836)
(10.0186 0.000351846 -0.00037004)
(13.2341 0.451913 -0.0992715)
(9.97661 0.0104859 -0.003918)
(9.98475 0.00443367 -0.00119956)
(10.0422 -0.0241876 0.00373989)
(9.85715 0.000477653 -0.0303033)
(10.035 -0.0182437 0.0202139)
(10.0236 -0.00713105 -0.00430774)
(10.0454 0.0114938 0.0240918)
(9.93795 -0.0211886 -0.00379746)
(11.1085 1.07267 0.681629)
(9.69739 -0.203749 -2.86464)
(12.7761 3.53977 1.60615)
(10.792 0.477863 0.0261276)
(9.71231 1.45181 1.35557)
(10.0339 0.0212614 0.000599835)
(9.34879 -0.988568 0.0746991)
(9.98666 0.015677 0.00443969)
(10.0004 0.00139918 -0.00994148)
(10.003 0.00341069 -0.0077364)
(9.9997 0.00128716 -0.0072442)
(9.9848 0.0172422 -0.00350623)
(9.17061 0.380582 -0.889081)
(11.2798 0.683028 0.226759)
(9.98614 0.0134838 -0.00498023)
(10.2179 -0.546265 0.103713)
(11.3986 1.55887 1.97138)
(10.0053 0.0259931 0.00126027)
(3.37962 0.30336 1.54442)
(13.2103 -0.990712 -2.95975)
(9.96414 0.00640703 -0.00869016)
(9.35382 -0.581905 0.0260741)
(10.4303 0.028163 0.0219091)
(10.0208 -0.00169131 -0.0199957)
(3.90694 1.14358 1.18047)
(10.0083 -0.0056546 -0.00440969)
(7.29297 -2.8216 0.53799)
(9.99985 -0.00176277 -0.00443869)
(11.5863 -0.116735 1.14057)
(12.0303 0.430764 0.00509798)
(9.9728 -0.0273238 -0.00033904)
(9.9495 -0.00526334 -0.00965961)
(10.1902 0.574402 0.0539579)
(8.61594 -0.613835 -2.31247)
(9.93793 -0.0129421 0.0135301)
(10.0298 0.015022 0.0161216)
(10.2603 0.00293935 0.00943567)
(12.0252 -0.0790897 0.775628)
(10.0013 0.0040007 0.00215801)
(12.2691 0.39041 0.297831)
(10.4058 -0.0197095 0.0144792)
(0.817184 -0.701271 0.152704)
(11.9749 0.359936 0.111429)
(10.3387 -0.00951418 0.011706)
(12.0918 0.373877 0.227449)
(10.0006 -0.00344739 -0.00350116)
(10.1155 -0.107174 -0.0102669)
(10.5318 0.392909 0.0236849)
(10.3718 -0.0449013 0.00145288)
(12.2858 0.460169 0.123315)
(9.99864 -0.0200615 0.000481882)
(10.0637 -0.218298 -0.000130707)
(12.1259 0.429378 0.067077)
(9.98069 -0.0229255 -0.00115168)
(10.4145 -0.053589 0.0077205)
(9.99764 0.00206597 -0.00762614)
(10.0221 -0.00469125 0.00201088)
(6.90206 0.35201 -5.21173)
(6.72431 -0.147665 -5.80797)
(9.72724 0.0870854 0.378352)
(8.83731 0.335011 -4.24341)
(10.0023 -0.00115249 -0.010111)
(9.98052 0.00120881 -0.00242424)
(10.8092 0.651842 -0.24714)
(10.3951 -0.158877 0.0288381)
(8.23283 0.145615 0.298262)
(10.0221 -0.0245311 -0.0129516)
(10.0518 0.0262776 -0.0120008)
(9.97108 -0.0219539 -0.00269462)
(10.0015 0.0367144 -0.00807802)
(5.29032 0.231274 -6.47082)
(3.1926 -0.537555 1.44527)
(9.96125 -0.0192269 -0.00149201)
(10.0173 0.0448452 -0.00346777)
(9.98498 -0.0595883 -0.0172422)
(9.93528 -0.00504152 0.00262652)
(10.1416 -0.136495 0.0377099)
(9.95329 -0.0239329 -0.00130783)
(11.2112 -0.0746237 0.00199317)
(11.7653 -1.3707 1.6092)
(10.1021 0.00540159 0.0108542)
(10.0472 0.0280147 -0.024417)
(9.99099 -0.030284 -0.0131567)
(10.0113 0.0278376 0.00131569)
(9.73026 0.216426 0.0335985)
(10.0106 -0.0278825 -0.0169854)
(10.6357 -0.19192 0.00192434)
(9.96059 -0.0175138 -0.0166699)
(10.0137 0.0109129 -0.0169385)
(10.0581 0.030449 -0.00448164)
(9.2669 -0.87692 -1.27854)
(5.1761 0.707424 -4.88071)
(10.0473 -0.0683529 -0.00934928)
(-0.126051 -1.97734 0.486438)
(10.1068 -2.62464 1.06721)
(13.1454 -1.26146 -1.10613)
(-0.107115 -2.10974 0.39607)
(10.2978 0.0496943 0.0231096)
(5.38027 -0.262713 1.35541)
(10.5134 -0.488476 -2.61477)
(10.9676 -1.53449 0.407324)
(5.70397 0.306442 -3.84324)
(-0.339265 1.8415 1.15695)
(1.51589 0.630014 -3.65897)
(11.3293 -0.0412058 0.578579)
(10.7316 -0.0208427 -0.0507288)
(11.0324 -0.00798208 1.27781)
(9.91805 0.00660575 0.00496395)
(3.74068 -0.215932 -0.354787)
(10.8069 0.0209138 -0.336921)
(10.6604 -0.024334 0.0188858)
(9.99245 -0.0345536 0.0230205)
(10.0112 0.0210744 -0.0398653)
(11.3748 -0.0200399 1.18246)
(9.95352 0.114022 0.0532486)
(10.1701 -0.0398843 0.0155046)
(9.95594 0.0457993 -0.00761852)
(-0.99637 1.1286 0.313579)
(8.11738 0.25058 -2.53628)
(10.016 -0.00631959 0.00601032)
(9.9845 -0.00477332 0.00433458)
(5.04902 0.288686 -2.46481)
(5.94849 0.144287 -3.12361)
(10.9085 -0.806416 -1.52149)
(-2.86066 -3.11958 -1.06023)
(4.26174 0.350879 1.90949)
(4.07138 -0.00802931 -3.95962)
(3.80183 -0.0726979 -4.82355)
(10.0056 -0.00407195 0.00975714)
(9.787 0.00306048 0.00751802)
(9.46279 -0.0323408 0.0637882)
(10.0101 -0.0180022 0.000569365)
(10.4165 0.0415326 -0.0314087)
(-0.394826 2.00878 0.628742)
(10.9397 -0.0765778 -0.25806)
(10.471 0.0366295 -0.0357028)
(10.3464 0.0406535 -0.0217441)
(10.0543 0.0259929 -0.00222447)
(-0.32904 1.95117 1.37871)
(-0.496274 2.15018 1.34168)
(10.0462 0.0145892 -0.0217325)
(10.4329 0.00425741 -0.0466735)
(9.93061 0.0302855 0.00703094)
(10.015 0.00911994 -0.0128567)
(10.3781 0.0193253 -0.0252085)
(10.0296 0.0151962 -0.0279514)
(9.70096 -0.00919901 -0.0501572)
(10.0298 0.00751236 -0.025421)
(10.0143 0.00310226 -0.0148386)
(6.98118 -0.713945 -3.18902)
(10.0406 0.00723051 0.00562268)
(10.0093 0.0182275 0.0264687)
(10.0232 -0.0147959 -0.0161241)
(9.87102 0.0150692 0.000264658)
(9.88905 0.0188657 -0.000458049)
(4.26942 -0.519707 -2.48677)
(12.6041 -1.30912 -0.546865)
(10.0156 -0.00141262 0.00650664)
(10.8274 0.406579 -0.212697)
(10.0257 0.0338337 -0.0115478)
(9.71784 -0.347691 0.11203)
(9.69604 -0.430131 0.165713)
(12.1404 -0.0599245 -0.0548271)
(9.88793 0.000258823 -0.00515021)
(-0.205988 -1.06717 1.68655)
(12.2329 -0.140167 -0.0681704)
(10.4695 0.0944193 0.00897825)
(10.8042 0.368498 -0.0364146)
(8.13063 0.288452 -3.47911)
(11.5003 2.9298 1.26609)
(9.98162 -0.0243692 -0.00682614)
(9.98459 -0.0247595 -0.0022994)
(11.6934 1.6827 2.09876)
(10.0163 -0.0181777 -0.0182656)
(10.0005 0.0321865 0.00384727)
(10.9751 0.683249 0.354174)
(9.97422 -0.0262299 -0.00473752)
(9.98353 -0.00298515 0.00154312)
(-2.38698 0.612912 2.16653)
(12.5299 0.425334 -0.0432886)
(11.0207 3.3806 -0.294276)
(10.0019 0.000729071 0.00489491)
(7.69353 0.54025 -2.70551)
(9.9864 0.00707431 -0.00047158)
(11.9896 -0.199523 -0.298032)
(9.54153 -0.419 0.270846)
(12.1893 -0.0775806 -0.0290736)
(9.90083 0.00527021 0.00327863)
(9.35274 -0.454006 0.233911)
(-1.32067 0.0219546 2.23972)
(11.704 1.79367 2.56739)
(12.4257 -0.387189 -0.853255)
(-0.831502 1.63985 1.37318)
(12.1452 0.306474 0.244991)
(10.4726 0.187728 0.0546827)
(9.94256 -0.0164183 0.0116861)
(12.1682 0.0745852 -0.2315)
(9.97112 0.0139142 0.00282414)
(12.3322 -0.0890205 0.139201)
(-0.152866 -1.2453 1.02696)
(9.97924 0.0162241 0.0026363)
(12.813 0.047805 -1.22127)
(9.92802 0.00280197 0.0192195)
(9.91346 0.00152503 0.00946115)
(11.3651 -1.58751 0.286664)
(9.93638 -0.0031128 0.00570651)
(10.1766 0.11682 -0.0146324)
(8.19119 -5.81366 0.0953596)
(9.5493 0.427739 0.0537723)
(9.99037 -0.246141 -0.0164733)
(12.6355 -0.72258 0.0942407)
(10.53 1.46019 1.32904)
(10.024 -0.00643542 0.0275375)
(11.8136 -2.58151 -0.893297)
(5.25881 -0.867418 -0.188271)
(10.7088 0.0349985 0.028485)
(9.63167 -0.732979 -0.891748)
(10.0041 0.104132 0.0180273)
(10.4841 0.193315 0.0165438)
(9.96781 -0.0106119 0.0063959)
(9.98211 -0.0135076 0.000104345)
(0.758259 1.55258 -0.501905)
(1.02114 -4.38441 1.85875)
(12.3328 -0.621826 0.163881)
(10.15 -1.61289 -0.429927)
(12.3066 -1.25909 -0.345191)
(1.24118 4.54554 1.13398)
(-1.24684 0.610566 1.15482)
(9.48967 -3.61533 4.30382)
(9.97953 -0.0102357 -0.00453863)
(10.0029 0.0121298 -0.00940153)
(9.989 0.0140702 -0.00386714)
(9.83242 -0.0509164 -0.0344477)
(4.23692 0.921436 -0.890192)
(9.64744 -0.555004 0.162213)
(9.0083 -0.659558 1.06503)
(9.98775 0.0207602 -0.00892048)
(-0.497747 -1.62336 0.266303)
(12.2732 -0.0749476 0.00193194)
(10.1287 0.203932 -0.264775)
(10.0987 0.0377799 0.0126441)
(10.0148 -0.0309974 0.0144001)
(10.0955 0.0330383 0.0104296)
(6.28469 -1.84853 -3.24466)
(10.0048 -0.00306862 -0.00677587)
(5.1922 4.97825 -0.132287)
(10.0273 0.008053 -0.00115373)
(10.2526 -0.60147 -3.10767)
(9.9882 -0.00371258 -0.0028507)
(9.99912 -0.00619254 -0.00613458)
(10.01 -0.0096483 -0.00617822)
(10.0161 -0.00965 -0.00981507)
(9.9881 -0.0118691 0.0032405)
(12.7829 1.25363 0.332549)
(11.934 0.279127 0.793737)
(8.98296 1.48997 2.44224)
(7.06191 4.08589 2.44516)
(9.39212 1.20279 0.488092)
(10.4166 0.53243 -0.0570891)
(11.2263 1.1417 0.0338051)
(6.62892 -0.408966 -2.96101)
(10.5831 -0.136748 0.0434801)
(12.4586 -0.244152 0.0223141)
(10.5522 -0.757474 0.123433)
(12.0454 0.0311175 -0.0450932)
(8.1295 -0.155965 4.49437)
(5.52307 -1.60919 2.01096)
(10.597 -0.246755 0.200714)
(9.99941 -0.00942116 0.00500946)
(9.55269 0.910825 -0.309222)
(10.0046 -0.00544899 0.00987867)
(10.1504 -0.0114287 -0.00150657)
(13.2533 -2.3977 2.87571)
(12.3505 -0.472948 0.795832)
(-1.66925 3.17611 0.194915)
(10.1471 -0.919848 0.243096)
(11.8133 -1.03054 -0.440238)
(10.4907 -1.08265 -1.1647)
(10.2207 -0.309454 1.69785)
(10.1932 -0.0151221 0.0109639)
(-3.97704 -3.20282 1.35691)
(10.0244 -0.000830786 0.00476872)
(10.0847 -0.00867002 -0.000593611)
(10.5091 -0.118926 0.987694)
(9.68033 -0.0968045 4.78917)
(10.2154 -0.0269946 0.0156062)
(10.2772 0.541825 -0.417618)
(9.99323 -0.00647761 0.000431357)
(10.5863 -1.33815 0.612865)
(10.6592 0.0912758 1.2452)
(9.96398 -0.0120316 -0.00189848)
(11.0795 -0.406235 -3.07711)
(10.1002 1.25288 -2.16201)
(12.2743 0.422746 1.517)
(10.7945 0.498832 -0.138153)
(9.52105 0.127967 0.286488)
(3.14494 0.973453 -3.83233)
(0.446522 3.39609 3.1337)
(5.29661 3.22245 0.745068)
(13.2167 -0.82517 -2.81611)
(5.14144 -0.650133 -0.166603)
(9.80019 -0.00228076 -0.0416884)
(9.88794 -0.00903065 -0.00144172)
(8.35849 1.75072 2.76339)
(9.9613 -0.00896094 -0.00179988)
(4.51272 -0.789247 -0.26622)
(9.8403 -0.00337123 -0.0269832)
(9.82642 -0.0117558 -0.0272165)
(-0.140934 -1.19013 0.876459)
(9.58987 -1.29317 0.843527)
(10.8932 -0.523657 0.13258)
(9.98279 0.00479444 8.2881e-05)
(9.99809 0.0186514 0.0021136)
(8.30626 0.308264 -2.87214)
(10.024 0.0151878 0.0198411)
(9.9532 0.0011971 -0.00486606)
(9.99346 0.974931 0.964092)
(12.402 -0.718965 -2.9057)
(10.2383 0.35401 0.0338835)
(9.89531 0.0598098 0.00424416)
(9.91069 -0.117302 -0.00544335)