/*--------------------------------*- C++ -*----------------------------------*\
| =========                 |                                                 |
| \\      /  F ield         | OpenFOAM: The Open Source CFD Toolbox           |
|  \\    /   O peration     | Version:  2506                                  |
|   \\  /    A nd           | Website:  www.openfoam.com                      |
|    \\/     M anipulation  |                                                 |
\*---------------------------------------------------------------------------*/
FoamFile
{
    version     2.0;
    format      ascii;
    arch        "LSB;label=32;scalar=64";
    class       volScalarField;
    location    "0.0263932";
    object      p;
}
// * * * * * * * * * * * * * * * * * * * * * * * * * * * * * * * * * * * * * //

dimensions      [0 2 -2 0 0 0 0];

internalField   nonuniform List<scalar> 
47425
(
1.2133
1.25332
0.127871
-0.688817
-14.3974
0.18
-12.6267
0.109608
14.3142
-29.432
-0.0507523
15.0412
-8.82369
-0.00336781
-0.38417
13.6964
0.108746
27.8565
-96.3575
-25.9168
6.3647
16.9191
-0.0855115
0.734108
15.8731
0.826196
0.0414302
-33.4909
0.0469037
0.0450087
16.7535
13.9064
14.6517
0.097639
0.182162
-0.00352834
18.0061
14.6228
7.5269
1.02604
1.41659
0.888515
2.92723
14.6184
-35.5068
0.974339
0.113907
14.3716
0.920456
0.266159
49.8079
1.6924
-0.107232
-25.0827
1.07888
9.65944
1.25953
0.209731
-13.8637
0.0770355
-27.2678
-27.8491
-65.0283
21.8325
13.9936
4.16154
14.4791
-0.153057
-43.3618
24.1127
4.17232
0.581918
2.47307
7.80899
-51.9592
13.8876
-65.6031
0.097269
-108.454
-15.7748
-56.0249
10.7896
23.0019
13.5074
1.3284
1.46702
1.9101
0.56444
-0.808085
-21.2806
16.4209
3.32062
0.226149
1.37759
1.37055
0.97122
0.267949
1.1691
1.47142
13.0699
12.968
26.2793
10.6921
47.683
10.3744
1.61244
1.14023
1.166
1.17097
14.9454
-47.0778
14.2421
1.3775
1.45214
0.805449
37.2104
1.06563
52.0836
9.4657
-0.861433
1.47554
14.7646
14.2521
-4.40556
12.4723
1.06032
1.08883
13.9083
0.400741
0.44302
22.5095
1.09969
58.262
8.63553
0.986169
-5.34451
2.72558
1.01898
12.3648
0.685171
14.5908
-7.46377
7.171
1.25796
12.3048
13.9612
-12.1354
14.0219
7.48298
14.8379
1.59588
44.2221
14.1203
1.47173
22.7314
0.80048
6.58617
-106.73
1.16836
0.216157
0.00678053
0.773573
0.531299
12.2655
-40.1081
-74.728
14.0227
-51.7464
0.563067
-36.499
-53.2909
0.927162
13.6328
19.9877
0.839741
14.2586
35.6796
0.0113582
0.0500836
0.291101
30.0949
0.843378
0.130069
0.121319
0.060459
13.2712
11.5505
52.7938
0.433318
1.09073
14.6244
0.477929
-8.793
14.7948
0.428887
0.172583
14.7487
0.818582
-0.308649
1.17301
-0.0262344
1.9953
1.32329
0.567927
10.7235
2.87604
-0.0243695
0.894236
13.4444
13.7806
0.860968
0.407494
13.659
0.910993
2.13404
-1.23459
2.69805
-12.6964
22.6709
15.0223
-17.9099
-1.1751
3.38193
2.69894
3.57426
-15.9666
0.0411039
-0.791608
-1.62338
-6.09772
3.71014
0.364877
1.72428
14.788
-0.045241
13.4973
-20.317
0.726631
-18.1205
-0.214705
0.191239
0.23141
0.195843
-5.55987
9.18727
13.9589
1.11956
13.8788
0.426402
0.0818189
0.963592
-13.9738
0.0152352
14.8924
-0.140378
0.341654
16.5474
-0.0490877
7.75389
13.6497
0.294959
14.6001
10.8768
10.8297
-5.69508
1.18417
0.245232
-5.54965
0.249516
11.1754
11.5242
-17.865
-19.982
11.5564
-15.6644
11.2466
-16.4423
32.3246
-18.2675
37.0084
-26.3561
1.30903
-31.2046
1.32449
0.368885
-0.53258
0.551644
0.1602
1.43483
0.83953
59.3557
21.0715
13.8958
0.0273006
0.137731
9.72191
-4.9218
11.1837
14.4233
-6.11774
1.21099
0.702333
0.246972
0.0837949
-67.9964
-78.5423
40.6266
0.231668
0.843959
12.725
13.657
52.3693
-0.22573
0.0881231
-9.08754
1.50784
0.13364
0.838445
0.157118
-37.9403
-9.12692
13.2418
12.8319
-0.2496
1.0092
-0.0251073
12.6548
1.11733
0.500404
0.202322
-2.52001
-67.1067
9.57276
0.106091
14.7533
-0.251609
-66.2537
14.4212
0.535286
0.576405
13.3474
13.1485
0.958941
15.1733
0.444191
0.158576
0.291945
18.0397
-0.0339451
0.226485
13.8991
8.67838
14.0604
14.4694
13.7933
-1.90425
0.13726
21.6297
13.992
14.0773
16.4497
-1.67702
0.42653
0.202675
9.42101
1.47731
0.205542
14.0944
14.6274
11.3197
0.452661
-31.8529
2.034
12.187
14.0382
12.2357
0.252893
13.6848
13.7778
17.4749
13.5152
12.0737
0.638682
14.5437
1.06693
14.3515
-0.0089897
11.6927
14.5302
0.172886
8.05076
9.25131
-0.0844282
7.93175
0.864271
8.63259
14.4271
0.079328
-11.464
0.12105
-22.0756
0.263683
-29.9441
0.144261
4.25488
0.290689
0.157529
0.0933016
0.0688927
-0.0567257
9.40451
-81.4485
61.2991
0.685077
9.01387
7.52942
6.18829
0.568437
0.217043
0.346968
0.215613
0.573662
1.63404
5.8015
0.0267251
-0.0537473
-2.71556
-0.982969
0.939927
21.554
-76.0812
1.44687
31.2956
-73.0503
1.34144
-78.394
-25.5951
0.679459
3.34389
4.34631
1.02737
-81.0912
0.86433
0.754177
0.26099
0.677692
2.66069
0.896317
1.01517
-16.7731
-76.2739
-17.2585
14.573
24.1728
0.114274
1.02035
2.5237
-7.00062
2.86992
14.6106
14.8151
14.8849
8.09577
14.7759
0.44785
12.255
0.212331
1.11275
0.463314
0.58174
14.4973
14.675
13.7306
9.33583
13.0782
0.958474
1.8705
-16.4578
13.3426
-8.87509
14.636
0.493636
-0.163722
15.051
0.848867
13.2893
14.2155
13.6708
11.8682
0.45442
1.24033
13.8469
1.45044
12.0852
27.492
0.517964
15.3972
13.5604
17.3627
1.05447
0.296727
0.755128
0.171973
2.68489
0.0625882
0.148646
0.629221
0.898935
1.08709
0.0892201
0.052653
26.6304
-0.0591557
1.23473
1.02676
0.872577
0.337445
-0.0735184
13.0665
10.5277
13.833
13.8549
49.92
-0.149878
0.0549555
14.2029
14.5097
-17.7574
-21.3595
0.0578903
0.921589
1.19399
-4.61832
13.352
-22.6162
14.7643
-50.9063
29.9806
18.964
0.0921567
-17.0927
0.13879
1.0867
-0.225449
1.12036
0.0694091
0.749641
-68.9107
0.238691
-0.00462688
0.14289
-17.3107
0.486301
0.100408
-17.0292
-12.9466
-0.118235
0.207434
-40.4277
0.49197
1.09753
0.000710567
0.416168
0.274026
-9.13459
-5.62965
20.4055
1.02492
0.995341
0.221405
-24.0847
21.3092
0.970753
-41.1221
-0.137537
0.123209
-43.1766
-32.6832
15.4976
-40.4933
-40.5703
0.179014
14.5474
0.147647
18.6919
13.8404
0.0104875
-41.2266
13.262
0.187119
0.522419
-15.1566
-8.6196
14.7328
8.90295
-56.2402
-18.4288
4.37956
-0.0135449
1.13221
8.45431
0.00765368
0.768744
13.7548
9.97524
14.8057
0.321858
13.7288
-19.2839
8.53427
6.11617
-21.3224
11.6735
0.343868
7.47304
12.1235
0.199874
14.1442
0.450475
32.7191
13.5283
1.30702
1.17298
-102.862
8.57646
-5.24227
-34.0585
-36.2276
0.118187
1.40338
-36.6468
-0.237378
9.22099
-7.34749
14.3062
-32.6938
0.473606
0.174134
13.7753
-24.0883
14.8838
14.9049
0.479538
0.0331857
0.810204
0.00448
0.698408
1.12972
0.508239
-23.5528
-41.6524
3.51973
13.3948
0.281362
19.4823
13.1807
14.7228
14.7451
14.7978
14.8662
23.0361
1.91484
14.8088
10.8527
-10.0822
0.327673
-80.4845
-19.5643
-0.0580223
20.4533
7.02031
0.03247
-87.1004
0.0390462
-51.4946
0.641207
-6.37003
-7.89212
0.635503
15.3791
10.6764
30.4993
0.24442
0.413118
1.35525
-8.80317
14.8391
-10.3617
1.71887
-89.2854
-6.51003
1.6225
-8.54034
14.6369
0.954653
7.29767
1.40274
-9.66056
14.687
13.5397
-9.10923
0.231868
1.51638
0.202543
0.430512
35.5232
34.6648
16.287
22.5331
0.173902
0.0755122
6.59246
1.35488
0.630403
0.248062
1.10813
0.341381
0.909892
38.4029
-3.17594
0.256404
13.5766
0.702097
0.635132
0.928716
0.119657
-0.329171
-17.074
0.906981
0.200903
-0.132681
0.574873
16.8309
-0.193333
1.56557
0.622341
0.635765
0.629172
21.8424
42.5836
0.861534
-42.4713
-2.40387
-23.7826
-41.0646
1.35663
1.73419
10.8761
0.041009
48.5924
-43.038
61.2826
-4.97392
2.80957
-9.51504
0.449837
60.9539
7.83641
1.99733
0.767298
0.539048
-4.79875
1.36662
1.18607
0.733387
-46.1709
30.9049
13.9642
14.4062
50.3052
46.5736
-5.72319
-53.3425
-9.71744
52.9046
50.367
14.2359
0.410389
19.74
0.46482
8.0784
-40.444
7.20516
7.41721
8.79775
0.260837
-43.206
-43.6564
0.187883
7.53129
0.612227
0.309093
8.7408
0.21689
18.2479
-0.0264693
0.358145
37.3074
0.154196
-0.485969
-0.0271737
0.392698
0.113597
56.5918
-15.3613
0.119278
10.172
0.60489
17.4973
17.7009
-8.29904
0.271033
-53.0538
-9.29666
7.93164
4.65166
30.0379
-60.2877
0.363553
0.128638
-11.5145
1.11267
14.3743
2.99307
-0.0703985
14.9244
-60.7229
-14.4722
-58.3339
14.8649
31.7251
0.539402
-7.26383
19.0352
-8.85935
0.0820914
20.7527
-61.7734
-14.4936
-9.69568
-48.5863
-8.75276
1.35213
0.280711
-8.54649
0.216578
-9.90707
-44.9093
-0.0262984
-11.8817
1.05231
0.76341
-34.9263
0.986056
1.43851
14.0055
17.5592
14.0759
-16.961
-1.07604
1.08828
-11.4299
50.6931
1.61491
17.5775
0.942818
0.895219
1.28233
1.4838
-16.0235
-88.9642
-6.8093
2.23547
-11.7594
-11.8845
-12.8916
-2.11787
0.950049
14.6067
14.7304
1.28185
-1.78465
18.0528
24.417
14.7166
-43.2733
-9.5104
1.47697
0.562915
0.323505
0.940532
36.6749
14.1905
-6.85728
0.204812
10.2452
14.3241
14.2406
13.9315
13.6107
14.6361
-21.4613
-6.08731
23.6421
25.4128
18.4709
9.3192
-0.418864
40.6171
1.44574
-4.33511
1.53032
-8.65824
-22.273
-0.567907
1.01451
14.7354
17.7215
14.3779
1.10884
-51.9204
-20.6519
-33.9271
11.6413
-5.56298
9.75009
-46.2577
1.28046
-52.8565
1.40408
1.75289
-3.01383
3.74001
0.94227
13.7766
-0.00612553
4.82794
-4.61383
0.735694
4.34941
-18.5227
-11.7647
0.828272
18.4839
56.4552
-72.747
41.6604
-17.7753
-45.308
0.205703
0.638222
22.8688
0.641284
55.0172
0.47749
-0.0438198
-75.3473
15.0264
3.4622
0.26029
14.685
27.8542
13.1426
0.396064
13.4721
-10.8613
11.4338
15.3396
15.3057
14.7161
0.563382
-6.48957
-6.12261
31.6844
15.0361
0.900268
12.1295
0.564393
0.487816
8.73758
-6.37054
-15.5778
-5.19108
-3.82982
15.1618
-28.471
0.816248
0.221161
0.401701
-85.6617
-63.573
-14.9851
-38.8499
1.38302
-1.33669
-31.8496
-41.2699
-2.19422
9.74166
0.593535
1.34704
-24.6705
6.43129
0.528743
0.866856
14.2276
2.7872
39.0059
-92.6956
-8.52841
-23.4036
0.826029
58.5756
-84.3096
1.04207
12.7253
4.01333
-32.6503
12.8318
-2.25028
18.7241
-20.0067
2.19209
-20.0114
3.92766
-4.62466
1.43351
9.34838
-16.5526
-16.409
12.1185
19.3705
-6.12456
-43.1338
11.0129
1.07473
-14.3997
-27.6039
13.2671
9.97146
-51.5212
-71.7739
-31.716
11.717
-1.34997
-9.97012
-34.3698
11.6267
23.4827
-18.4913
-4.37897
-2.71477
-14.6518
-33.1615
0.854059
14.3682
14.0426
16.6082
13.79
11.4394
-11.8134
14.6893
14.7752
15.404
1.2202
-62.9213
-29.5926
13.8232
40.9957
-12.2512
13.4833
-35.4764
7.51934
11.5374
-4.49526
-2.14318
12.6722
10.6251
-37.9941
15.233
-24.6653
-79.7656
-32.675
11.9642
-4.30416
13.6921
0.923633
1.10478
-10.1019
-33.2031
0.707993
-57.4635
-28.7536
63.6752
-16.7624
-67.8059
-21.8765
0.00315609
1.14703
-36.2876
0.883313
18.8742
-0.0598582
-45.3849
-32.5691
-0.0567771
3.89579
-28.6664
-18.6489
-38.0301
51.4421
0.760881
-11.9407
-77.8341
0.150298
24.0951
-19.8776
18.0429
-91.7261
-21.6185
12.8566
0.0711704
0.327389
2.28913
0.712195
3.13049
1.84503
0.882378
9.50628
40.5765
14.5068
27.3253
-25.1235
-0.561114
23.7017
-0.382349
1.57767
-5.88322
15.6214
-56.8232
0.831303
1.14044
0.705545
-26.6051
1.21278
-84.519
0.380666
14.7893
5.20471
-92.355
56.1469
-45.8094
-14.4297
41.5509
2.75229
14.2246
-5.08279
-20.7801
-54.041
-18.9058
52.2252
14.1314
-9.19325
-50.6805
-5.50498
0.380816
-31.3995
-20.4053
1.30796
-8.09693
13.8813
14.2948
-46.6948
-48.5789
0.561884
10.231
13.9593
-85.5843
14.039
-24.0056
-10.1829
13.7239
14.5026
-14.5606
1.91996
54.9894
-11.5491
7.37027
34.9252
33.0791
11.7585
-73.8528
-26.3152
-8.54681
-101.093
66.871
14.593
-34.3446
14.5127
26.92
-92.9846
5.08203
-91.0654
-35.8071
-0.455766
24.2958
-2.61977
14.4927
14.1842
19.7675
-17.2746
-1.91788
-0.0226253
29.9845
0.357713
-1.40372
19.888
-6.27454
1.35953
-10.2
17.2154
-47.6146
-23.1148
5.12503
-23.3613
-60.7526
0.0839563
50.4986
-44.0139
-1.22052
32.1516
-5.36982
-7.09651
-16.8805
-21.1184
9.25284
-34.4979
-13.2282
7.67589
4.61544
0.400161
-17.0896
-4.59704
28.8809
-36.4849
1.2537
22.0487
0.414006
-45.0027
0.0775984
0.556008
-5.21626
-16.3066
25.9898
1.71219
-6.81483
-5.77874
-92.3163
0.0305717
-6.70541
-47.0254
0.828579
-3.85106
61.7471
-1.89896
-12.0105
-59.3683
0.366157
6.7796
0.111928
-114.353
-53.5425
-25.6128
-51.6088
25.8109
0.639956
-7.28031
-39.9222
-62.6243
-4.63626
0.330138
14.1982
0.668535
0.586096
4.42108
56.5124
15.4565
14.0992
-2.98608
0.407877
16.1463
15.1193
25.345
14.6112
0.636243
20.0156
15.1863
12.3957
-7.58558
1.20905
13.5043
11.7833
-5.03691
13.8792
0.440575
0.669969
12.5151
15.9078
14.4614
-78.4248
13.8498
22.1712
1.11611
-0.0403367
-23.8642
15.6945
15.0101
-71.9827
-51.4545
60.7426
17.5622
-76.5219
19.3093
1.24395
-68.826
4.69429
-73.2218
0.349772
0.137607
14.4536
24.6888
12.4718
1.72491
1.43417
1.86966
10.6148
10.4204
1.19595
-10.699
0.916879
-7.52054
62.8184
13.8981
-40.0538
-12.5365
-58.2018
0.809578
13.1656
-0.536321
15.5511
1.09603
14.0418
0.849614
-28.2883
-17.7462
-33.5197
-0.423605
-3.79393
0.790545
4.34456
-21.6573
1.28413
-40.9005
0.73787
-35.9584
1.07424
-46.6256
-73.7212
1.72185
-0.0598642
-45.5939
0.38463
-43.3976
13.4082
2.63301
0.79361
1.29733
2.24487
0.935118
-6.37304
-17.4418
-3.28875
13.4354
0.990405
13.3381
0.62026
13.2714
-35.3355
11.6835
-23.823
2.05223
0.668944
11.4642
0.435407
11.4851
11.3299
0.805756
1.02509
14.5345
1.00272
-0.821353
1.70788
1.31318
-18.0653
-35.8956
-5.69636
1.14002
-43.8537
0.815324
0.391462
0.366897
0.352783
0.338864
1.55074
13.8598
13.3722
0.852339
0.338807
45.2953
1.16897
0.761693
1.40767
-36.5893
1.82028
-43.3865
-28.7366
-37.7042
13.4604
0.2241
1.7902
0.108267
0.799459
-33.8003
-4.9067
0.815899
0.894411
1.84565
2.03032
-47.1318
2.02201
0.067311
-10.2108
0.328378
0.275653
0.218916
0.0564443
0.0217583
0.220134
0.432173
-5.12851
-8.98922
-0.000244361
13.276
0.48913
-3.54098
-2.473
0.547258
1.24454
-5.22867
1.31518
0.36465
1.07535
0.762322
-4.54329
-0.00739148
0.937412
0.493503
0.432249
1.19306
-2.43856
-0.0252963
-51.0152
0.458198
-12.5068
1.46732
-0.239457
-52.4377
0.0242235
1.52468
0.127151
0.360079
0.68781
1.09873
56.1178
1.77503
-12.4625
1.00918
0.328855
1.71169
0.743602
0.348956
1.05325
0.473621
0.550898
0.297389
-3.24699
-8.64238
-30.3281
12.5392
-7.30698
0.476445
0.831684
0.926261
-16.0824
-0.0971266
0.119555
0.113374
-46.4933
0.107518
1.4867
0.103859
0.0913138
1.3801
-128.752
0.113771
0.709632
13.4995
0.0460447
-5.60532
25.1984
30.2381
-0.0272663
8.92155
0.218303
1.13191
0.22908
0.348585
-45.0548
-50.9153
0.0810184
0.571403
-34.77
0.00133498
2.22708
-16.9276
0.0024076
0.76281
6.33283
-0.339445
-2.53944
-0.094992
1.57117
20.9548
0.112254
-0.196599
13.7069
-16.8873
13.7485
-18.3445
-21.7692
-41.0882
-17.6938
0.489296
13.6519
-10.2768
13.8324
1.58673
17.8348
-25.6297
-19.3629
14.262
-7.35992
14.2771
0.44997
1.01529
-44.8861
0.694848
0.510661
13.7171
13.9028
44.0161
47.4285
65.7542
-34.4779
30.0093
14.2542
16.4828
24.8801
14.0161
0.651373
0.0354245
0.408041
-0.320292
-45.0403
-44.3534
0.546576
1.3626
1.45052
-74.187
-1.27454
0.985477
1.90574
-25.5547
-46.1143
0.649545
-34.7174
-0.604483
-24.5153
-24.4682
-14.2615
0.230284
0.499985
14.7847
-46.6328
-0.0270814
14.904
0.692192
0.0564207
-63.7953
-62.8677
-69.9297
0.480749
-40.0075
18.8262
10.4361
5.72248
-8.39882
-74.2504
-71.0059
-40.2174
64.6026
-41.691
37.6077
13.7474
-31.7935
14.4709
-49.1151
13.9204
-45.2632
13.6971
-18.5082
1.50717
-22.0134
14.4696
14.2355
1.60923
14.001
13.7946
34.7404
4.93735
14.3893
13.8536
-55.1303
-52.0102
-7.4221
-18.4785
-53.0636
-17.9656
0.798571
16.9215
-45.7801
-22.8755
-23.71
15.1359
-79.8761
8.37667
-50.9719
-91.2076
-45.7773
-5.56654
17.2758
8.98694
11.0705
14.2742
1.12723
-22.5226
1.30243
1.7285
0.975624
0.0942578
0.0861473
0.927625
0.553374
-17.1994
0.130413
0.0496795
-0.085409
1.15042
-13.2182
0.726274
0.381408
0.439109
1.12415
-1.93335
-13.735
0.575355
16.2049
-22.2779
-91.5378
-2.89171
-68.4927
-4.7287
-8.07287
-13.5504
38.3899
7.42724
10.0739
-2.98242
0.049064
0.133226
0.401551
0.0201659
-0.125915
-0.0671862
0.344814
1.14993
1.41793
11.47
-5.44433
0.998049
49.6344
-0.0455446
14.6536
-0.0734189
0.015579
45.5371
-51.3036
27.3445
0.269585
1.10561
-18.5469
-46.9639
0.0959519
1.2753
18.3604
-5.65946
1.509
0.182882
-13.0596
14.0545
-0.562171
17.4139
58.33
1.25093
1.06793
-5.57547
0.519924
1.02567
0.518218
0.930104
13.098
14.1272
9.41924
13.8073
14.6018
6.9607
5.12722
-1.84233
-47.0136
7.6983
-5.19301
13.4076
13.5971
65.5759
5.74461
1.64364
2.21117
-33.45
-24.1207
5.14534
18.1615
1.57464
34.0837
-3.25847
16.5431
-23.7728
50.8262
33.1553
-2.57534
2.13284
7.96082
-29.6877
-74.0799
-62.0266
2.00809
-6.30067
-75.8191
1.63573
-7.36536
-3.07572
-23.302
-51.3218
1.70512
16.1267
-80.6577
13.0044
-3.31572
1.58843
11.8356
-2.68784
13.6036
-8.69682
15.6087
11.5926
-42.1763
11.6805
62.0386
-12.9409
57.9617
33.8973
-58.5574
14.8291
14.833
-43.5395
-7.22469
2.1785
-41.5367
-17.7394
-9.39442
1.3491
1.32618
-40.1734
-0.247604
7.9922
60.93
-3.97348
9.65648
-2.67378
-10.6815
9.32468
9.90799
-22.7539
-40.237
-24.0824
-43.246
0.36837
-9.44656
1.41153
-10.0569
-6.73194
1.30277
1.2413
-8.55435
-0.952288
-42.1026
-42.8932
-0.0899322
9.67056
0.871142
-7.13304
-15.4262
11.2124
10.172
-9.03979
-42.6467
11.3531
-3.89316
-44.2131
3.05865
-23.3422
0.347743
-1.67279
-45.7413
3.44313
55.8972
-2.93566
2.36691
2.30996
1.26248
-88.3287
0.733787
0.833312
-3.45379
0.316119
12.4426
0.35212
-17.9188
12.907
35.0017
14.511
13.1211
13.0589
0.977666
-2.13692
-2.26067
-5.16554
-87.2772
0.159009
-31.3505
-5.3637
-0.257131
-55.005
-0.120616
0.661609
1.83553
-3.75314
-42.8083
-15.3598
13.9464
43.5552
-0.673128
1.27601
-27.0761
-32.1698
-1.23265
-41.6209
36.8541
13.3183
-2.76776
40.7472
14.2124
-54.0148
19.0338
10.3712
51.7091
36.6151
14.6493
13.0273
64.383
-47.001
1.0182
56.6746
8.13681
14.4493
-5.04498
14.7658
-18.5029
14.5458
62.4533
13.7145
14.1492
44.1367
12.1051
17.4418
-11.0607
-0.841736
16.7732
-55.5493
26.5186
-15.1636
-43.6218
-55.4984
-14.098
14.3309
39.4954
16.3891
6.91694
14.2241
13.503
15.493
1.18908
1.12298
44.3925
-30.7077
13.5318
-18.4077
3.78034
12.2485
-10.2155
-55.4054
0.883289
-10.6858
14.0239
5.14589
0.764722
13.1867
-4.16566
1.16098
1.08383
-35.5832
4.4822
0.874304
-4.48321
12.5502
0.813979
23.0185
0.935049
-8.76204
29.3355
7.17516
20.0365
38.6788
-44.5996
60.3516
44.5853
-22.821
-46.3178
-46.056
-17.2228
-43.8517
-44.1115
-19.322
-14.5215
-22.365
-46.0665
63.0725
1.35581
-55
9.01086
0.148343
-25.1697
-59.4107
-5.31106
-40.4603
-10.8154
-39.4505
-9.85194
43.387
-30.2218
-20.6747
-45.3765
27.8997
-43.9738
1.11353
-65.53
26.528
9.80891
0.843896
0.622055
48.4867
8.39721
-32.7567
-14.7644
14.8241
1.11956
-2.11716
-19.0752
-24.9928
-0.298301
-1.09436
19.3762
-21.2711
-3.06193
1.06762
-15.5378
46.6389
0.0291971
7.34071
1.20991
5.90577
-33.252
11.9511
9.65517
-10.7051
1.34128
7.79885
2.5768
1.85942
66.2687
4.92378
-23.6307
-2.51062
3.6495
-84.6989
-87.3012
10.7595
11.1992
10.0526
13.4588
-16.8124
-5.09368
61.507
-7.03384
13.2549
-18.7006
-0.0894742
-3.49042
10.5637
-6.81898
10.5125
-13.8024
-48.015
-31.1227
36.7639
-17.8872
18.6335
11.0406
-43.5894
-53.6403
33.247
-63.3727
11.5206
-47.2248
38.0081
-12.8738
25.5657
-8.21536
2.66146
0.203483
-1.02443
-8.36177
-28.7611
2.62677
14.7044
-78.9512
14.6794
-14.5595
14.5908
0.376656
11.8149
2.74477
1.08689
0.223838
-0.545426
8.16946
3.2263
16.9722
0.639563
-55.688
36.9118
13.2534
43.1218
14.3644
5.71961
12.917
14.827
32.877
1.22689
32.8517
0.96692
0.762655
-12.1713
0.740331
0.370104
-14.1654
-9.08622
-20.526
-0.582395
37.6543
6.28667
31.4879
0.902682
16.7043
17.3839
1.76282
0.438209
0.239902
2.74436
62.9958
0.266481
-2.70647
-41.2052
14.2612
14.5769
19.3804
14.3852
-13.8025
-20.3494
3.13687
-0.797136
-0.642076
-8.55117
37.4917
0.302057
-41.7213
0.91412
-20.9737
2.13894
10.9188
-18.1251
14.182
14.1104
-10.7058
14.7124
1.06965
8.99498
-41.3944
19.2944
58.3736
1.49326
1.38715
38.6365
11.6353
2.66281
35.5971
9.55539
-8.16891
40.5621
-15.2011
42.6477
-69.0695
5.96753
14.5984
1.38734
-4.66289
3.74852
0.873222
0.850673
0.247508
14.7152
-24.5533
5.77855
1.74471
-12.4797
1.85561
1.19465
14.1962
14.4585
26.184
6.75113
3.12043
-4.8133
1.5572
-6.57016
14.0183
1.72281
-12.4009
64.037
-12.7985
1.55006
62.6819
14.2085
-84.7293
56.7498
2.56619
4.42395
35.7748
14.5706
-42.0882
39.7646
-41.9576
1.96804
-41.7015
-13.8599
-28.9387
38.8088
2.6291
63.9823
0.483548
-43.0761
-39.4051
-89.4474
-86.5249
-30.3116
-66.9898
-19.7096
-42.3665
61.5391
11.1393
12.3322
51.4089
25.9769
-31.1066
10.2863
-33.2867
51.3548
0.805533
12.6733
0.0123693
0.811217
0.147543
0.655413
62.7491
0.799224
0.514086
19.6088
1.10411
0.857768
13.0598
-3.73827
0.768654
-3.93824
0.82507
8.94864
31.7884
-33.7301
2.12194
3.44241
-2.32167
1.28866
-40.4599
-41.7714
-13.6687
1.9988
43.8022
15.6673
-0.0954727
-3.27072
6.93875
5.80035
0.814618
13.5835
13.7928
-47.478
0.887331
16.9239
-0.586526
4.81577
13.3618
0.29843
9.95516
13.7133
13.3201
-8.99813
12.7586
13.272
53.2873
30.6023
12.9208
27.9032
12.9017
0.906846
13.3346
0.819386
-0.394706
1.82249
7.52145
-0.131229
22.5294
12.7161
-12.0368
29.4865
0.45965
11.4198
32.9448
-8.56727
36.0861
-17.7555
-36.7352
-54.5124
2.08804
0.114538
-13.7487
36.215
-3.81585
0.163899
10.6806
2.86469
0.438714
0.314075
11.1622
14.9379
31.9464
9.4609
3.39902
13.5533
13.0444
0.111308
-25.0342
38.3523
-0.136897
10.1761
-5.69852
42.4724
14.3832
12.5304
-6.40898
-39.0085
-85.8188
13.7654
13.5537
-4.3102
-8.77366
-4.42213
-22.7794
35.9987
1.16857
1.78913
0.761488
-0.523303
19.4739
-11.0705
-0.22522
0.646406
35.2439
0.692548
-1.77858
26.0266
-26.0838
-18.3227
0.602908
-6.19061
15.823
-0.0526869
0.519078
14.7094
11.435
-6.6864
24.2062
6.90509
-48.0467
0.355559
0.914125
-41.998
-7.48079
15.662
0.560614
9.64
14.2831
65.7622
0.584557
-5.2179
-28.3064
-26.7441
-67.4646
-46.4718
0.59723
19.3843
51.7666
-0.0404996
14.9744
13.9769
-36.6793
14.948
7.97146
-22.8056
14.0926
21.4711
-11.1304
10.6713
-33.6744
-59.841
17.154
21.7348
-49.0726
17.3079
13.1776
4.65305
15.842
14.3538
2.7128
-24.9718
-2.57449
17.0512
16.3235
16.4075
14.8218
10.5186
0.0616657
43.3306
-0.0908529
-1.66535
1.90282
39.9056
14.508
-7.49867
6.43125
61.0478
-15.8509
-20.4826
-43.7333
4.91249
-1.86962
-37.4508
-12.3524
16.8826
-9.90647
-0.751022
-0.0337359
-4.12887
13.7215
12.1672
9.42383
0.114887
0.0313439
-13.4407
-1.14157
-7.60654
1.48891
1.5633
0.141367
1.32737
-1.94458
14.781
-29.5243
15.0536
1.30377
1.61453
14.4132
13.1799
13.8339
1.65705
1.90782
-3.85419
5.66024
1.35823
2.49716
-39.6642
3.12926
-6.03395
-50.6224
-41.3612
-46.1145
16.78
-65.5228
19.2493
-40.0947
1.14996
-44.7668
0.305569
4.06659
3.32707
-1.2382
0.769827
4.12071
0.5064
16.2796
2.22792
17.4697
-1.64198
-6.66827
-87.5136
-43.1096
26.7695
33.7198
-42.7765
-27.9919
-28.2411
-69.9033
-43.5848
-3.73376
-44.3815
1.52003
1.44516
-54.0305
-78.8026
-7.84195
1.65111
15.0116
53.7921
-2.08761
-79.4187
2.61177
6.82967
0.757921
1.4906
-30.0735
2.70167
1.43868
1.38622
3.80225
9.40632
1.95419
0.79423
-70.2279
-73.8169
-28.0604
28.4795
-33.5631
14.3494
0.587074
16.118
8.90301
5.85474
26.3821
13.8126
28.4729
0.103204
5.9
7.39961
1.72562
4.30385
-5.72641
10.2518
15.1738
10.2371
43.8285
2.3563
23.5987
-46.7101
-1.15719
-37.5139
39.7273
12.4468
11.4085
7.64943
-21.6037
-6.5652
12.2477
-35.0844
9.73372
6.32929
-1.28656
17.6227
11.5778
-2.2263
-9.267
-23.6887
14.8098
-0.763291
-41.11
2.02962
-32.814
-35.8753
14.6506
-76.2814
-1.70851
35.1055
-3.13782
14.5187
12.9925
18.1647
-1.9799
14.148
-43.8477
-5.32473
-42.6135
-2.95783
-7.45193
23.1889
-43.8907
-11.323
1.39943
2.45222
21.7752
-44.4902
13.5278
2.7767
-31.1828
0.610019
0.953504
13.3343
-91.0421
-1.73729
5.12868
1.03703
1.03588
13.1953
11.8121
2.04467
13.1223
-9.04215
13.3355
-88.3953
13.1182
-55.9771
-21.0374
-1.80537
10.1814
-2.8313
-4.86457
12.6607
-1.65616
1.40124
-3.48268
57.8926
0.479705
39.4414
-2.58392
0.437893
-1.63216
-0.240521
14.6412
13.1034
14.3441
-1.1215
0.802867
13.6799
-4.31236
0.351893
0.389968
-15.1966
3.88685
-0.162839
14.3586
-36.0645
-58.4914
-0.100427
-1.19177
0.472646
-27.0708
0.302615
0.319484
1.41152
0.557689
1.39883
1.27699
0.0991438
0.503867
13.5919
-29.9104
-31.0481
14.633
52.0351
18.351
13.9622
-0.0580045
14.6207
45.6266
-0.0252115
41.4109
2.10193
-0.587634
8.93979
33.914
0.985671
-0.0505741
57.0734
14.9083
28.3956
-3.9788
-8.11947
0.169798
-1.18737
-0.0947817
0.851973
4.09288
0.960415
54.698
0.786055
0.67352
0.648656
14.0234
-23.3225
-12.0633
-1.27441
1.90737
1.79151
0.521773
15.1342
-18.9079
27.2364
20.8094
0.851788
0.482545
47.3234
-8.91946
45.9725
32.4827
12.976
14.2234
0.406036
-3.55889
3.58181
-7.12806
-6.97288
14.5616
-85.6592
1.24176
1.05444
0.855672
12.7146
1.42147
53.9759
-1.0592
49.4382
1.05257
-67.2148
-7.5518
-8.34617
1.08021
-36.4508
1.13243
35.3421
14.2416
36.7869
0.982207
-11.0499
5.62771
-36.5677
29.6074
13.6103
13.8018
1.19889
-16.5151
13.7052
-87.873
-12.8821
13.8706
38.3509
13.5238
-14.8484
47.8588
5.99447
-1.75756
46.7095
36.3882
3.59786
5.0743
-62.1667
45.9789
11.5433
45.0133
-1.5203
-55.0882
30.636
0.454238
0.0586448
0.00227232
0.317979
1.9006
16.0592
-33.929
1.65643
-20.7908
18.6705
42.8309
-9.6975
39.568
0.0153694
0.0391912
-6.92523
60.1843
-10.3753
52.986
17.447
6.35483
27.7945
8.08949
20.5241
-0.0178634
-0.205968
-0.053167
-0.0466681
10.387
-8.21144
15.6975
-26.9695
0.503246
-28.3206
14.7938
-14.2865
50.7908
3.20902
2.01214
0.152048
44.8054
0.0816969
24.7692
0.532455
10.7443
-3.73697
2.67518
36.5558
39.6319
-7.80813
0.221453
1.60952
-32.3665
-54.8086
-5.85924
56.5255
32.0457
59.253
61.4744
50.008
-48.4648
1.476
49.9507
-40.1392
0.0631986
6.94091
0.268472
-17.3117
-25.4379
0.309336
3.52845
-2.97552
-0.220751
13.1638
-32.8572
44.375
-35.3205
13.2737
1.45516
12.6375
4.39484
-2.02017
-86.755
2.16674
-21.437
-10.3883
13.4209
-75.513
-86.7341
13.2912
-5.34516
-7.42614
20.4319
13.2058
-7.59078
28.0487
-69.637
-20.2247
-29.4315
41.9168
-28.9229
7.06821
28.1669
7.3383
-38.8239
-41.0341
6.64391
1.15727
54.9673
1.81525
-28.2062
0.327605
-9.22878
-49.0501
-6.01404
-41.7459
1.24499
-42.6695
0.235269
-41.5996
13.3502
-14.8388
55.5121
-43.0581
25.2135
-20.3426
-44.4401
-10.8992
-26.3161
37.2905
35.0724
-24.8196
13.3185
22.3796
18.2746
7.85017
15.3554
-3.93438
-45.4709
-121.299
-58.8563
21.6461
25.2401
-26.879
28.4887
-40.3516
-6.90023
9.03879
4.4981
-37.7219
14.4771
-43.9285
17.1138
35.8669
37.1233
65.4621
35.1941
-16.5258
-45.1072
50.718
14.5009
40.2345
-34.7232
-43.2951
53.5391
32.2031
-1.23131
24.0784
21.0344
-32.1475
-43.5245
-86.7249
24.1456
11.3344
40.664
-41.8217
49.9091
33.1262
14.8094
41.9096
-59.2557
8.1038
4.8435
15.2037
-5.51698
-30.0478
-49.6775
48.6069
-0.56603
-35.9152
-71.429
48.4041
48.7232
45.4305
-48.9601
-79.0269
48.5209
-12.54
-43.6631
49.3845
1.46992
-5.05441
13.9122
0.909594
2.43133
-3.60624
46.8204
-21.7995
-0.153742
2.53457
2.38814
3.01852
1.63997
12.1406
-22.7147
-1.7543
2.05933
-40.9282
-59.255
-45.3658
-10.545
2.52339
-9.39769
-32.5176
-20.6978
2.19682
-42.7926
4.28956
-41.3424
-41.1754
46.4588
23.528
29.1554
0.0162688
11.5928
-54.7152
-15.5776
-5.11375
-52.6957
-0.0654064
-45.3067
-29.099
-15.573
-30.1299
1.36308
18.1214
14.1329
17.198
13.2454
45.4276
0.293106
-0.132266
0.0559502
17.1398
-18.342
-63.1356
-42.4118
17.4102
41.8404
26.4118
34.2347
5.82374
-66.7762
-2.41718
16.7898
8.03586
0.932895
21.8864
11.8929
-6.24734
17.3795
-6.17127
-5.54483
1.65384
18.5126
39.5824
-20.3979
59.0489
-68.3552
22.2367
-87.6652
-58.5256
-5.91129
13.4082
40.9732
-2.63398
-33.4908
2.32218
17.2378
-17.0855
-48.6863
21.8239
50.5042
65.8657
-50.6062
-10.5847
-44.8536
16.9082
3.24656
-7.71343
12.7936
9.35092
-14.3506
5.83807
13.0081
-29.1554
-3.9287
-46.9469
-0.814749
-61.5913
0.05116
14.0534
-85.2729
-9.44342
-0.112498
65.1643
11.9542
53.0491
7.35293
-37.7315
19.8713
7.64521
38.4169
59.7982
18.1724
39.0001
-0.193213
-38.1128
14.6431
14.37
3.04432
13.4448
-24.9807
2.34422
-3.48224
14.753
5.99411
-12.9805
7.25484
11.8787
-2.50485
-3.96997
-23.6776
0.00992554
15.4018
-0.0197159
16.3837
0.250021
-6.0457
14.3563
-13.6619
13.8932
-41.1127
-0.0873888
35.8236
-6.56
40.782
0.245038
3.77596
0.00947961
0.00837107
-4.22636
6.14034
18.7597
39.3439
29.7062
-65.9491
-40.5388
49.5919
29.514
23.5535
10.9309
0.0893939
0.0737609
-58.1251
50.1802
24.1901
19.9313
0.616345
21.3072
0.0808064
0.089022
-11.7208
-17.794
-25.7822
-46.9056
13.0104
1.36135
-12.0602
14.4046
42.8134
13.0744
-7.34413
13.2379
-3.612
-61.7223
-12.1338
0.155617
8.92506
-2.10429
-2.4953
-41.7491
14.2383
-42.8788
28.3853
-59.4654
-21.306
-17.7862
0.208992
24.6724
8.78034
14.7353
37.3196
14.6366
-3.96962
12.5554
13.7649
13.352
14.5159
-28.2708
16.1517
14.2289
46.6378
14.4943
-13.2199
14.789
14.6723
-42.2709
-60.3445
-17.8549
-44.5926
-40.3268
13.8502
60.5118
-50.6699
-7.46159
17.7039
24.5882
-40.6892
0.685464
0.427037
12.4424
-14.2485
-48.1763
-34.4817
37.9311
5.42473
0.93532
9.74256
-54.7741
31.1173
11.7193
-42.6682
-60.0646
-50.579
66.2197
16.1389
12.1507
9.06304
16.3029
-60.136
20.023
13.1611
21.8404
-14.4566
18.8435
27.1074
49.1239
40.6696
12.4941
-9.46253
25.8513
-2.79227
0.617072
0.379081
33.0599
-20.6143
-14.18
0.38607
60.0604
0.372534
-53.6196
31.9205
28.8564
43.9101
-47.6225
-29.9033
-43.8723
36.9095
-5.70713
-21.1363
-11.164
12.8957
2.60691
16.4694
1.2826
23.5379
1.11483
13.391
1.26869
-4.73704
0.308727
40.2255
8.32949
5.80002
-16.5056
8.53759
1.1554
9.38257
0.298017
-31.4758
-36.7308
-12.4014
6.94381
40.8216
0.911443
63.3497
-44.5779
62.6798
58.2436
0.979142
4.36789
5.5189
0.915044
1.00975
-73.7275
16.8398
-39.34
-25.9479
6.70634
1.79085
-40.8949
6.69197
6.52775
13.0774
9.22314
0.963268
-49.9905
-0.0587794
1.44477
-0.708811
1.36454
0.936209
1.33631
1.29974
0.059815
6.34002
-42.3636
0.284776
1.59457
-7.35742
-2.81747
24.101
-14.7233
14.0393
14.0102
-0.152754
0.174513
-4.78389
-8.69503
7.85087
0.585806
3.83525
9.23007
-0.00910704
59.731
0.37564
1.96333
0.0754184
-0.0465485
-18.8519
-0.0318959
-46.3144
1.39169
53.8505
4.93488
0.060156
-12.2928
-6.66469
0.982481
-27.7479
2.14378
0.103467
7.85319
-45.6715
0.157438
5.75898
28.3856
43.0099
-2.81704
9.84803
11.4171
-32.7772
-15.5166
0.0673221
51.2958
-46.5584
-13.5163
-4.92974
54.5067
-6.39434
-3.47717
33.6576
-52.0845
5.03512
0.04116
0.064109
0.305196
0.0143946
-0.162537
-49.8618
19.2093
-0.215796
-41.7401
6.33177
0.34204
-2.94568
3.32534
19.7133
-35.6961
7.6852
17.7858
-17.2162
1.92991
15.7491
64.0133
16.8901
-66.1757
44.811
19.7888
32.1198
0.32057
50.4367
0.344654
12.4054
25.5849
-0.0144594
-33.0307
-46.7451
0.754841
0.48957
-119.18
25.6737
-46.497
2.19639
-3.97032
0.328134
14.7362
29.4219
54.9877
14.7868
56.8831
14.8061
-69.2671
-46.9288
-45.1103
-47.6636
-4.3906