/*--------------------------------*- C++ -*----------------------------------*\
| =========                 |                                                 |
| \\      /  F ield         | OpenFOAM: The Open Source CFD Toolbox           |
|  \\    /   O peration     | Version:  2506                                  |
|   \\  /    A nd           | Website:  www.openfoam.com                      |
|    \\/     M anipulation  |                                                 |
\*---------------------------------------------------------------------------*/
FoamFile
{
    version     2.0;
    format      ascii;
    arch        "LSB;label=32;scalar=64";
    class       surfaceScalarField;
    location    "0.0263932";
    object      phi;
}
// * * * * * * * * * * * * * * * * * * * * * * * * * * * * * * * * * * * * * //

dimensions      [0 3 -1 0 0 0 0];

oriented        oriented;

internalField   nonuniform List<scalar> 
92401
(
0.147357
-0.0953356
-0.00706468
-0.0449567
-0.0626894
0.0600505
0.0373459
-0.034707
0.0224428
-0.0394364
0.042734
-0.0257404
0.0063452
-0.0124225
0.0123253
-0.00624807
0.00137412
-0.000456083
-0.00569311
0.00477508
0.0195042
0.00973018
-0.0255365
-0.00369786
0.00545299
-0.00449145
0.000412579
0.0324485
-0.0258458
0.0129015
0.0484134
-0.0387539
0.0321941
-0.0418536
0.00061381
-0.00116715
-0.000251442
0.000804786
0.004766
-0.0418817
0.0375381
0.025216
0.0236872
-0.0864413
-0.0166179
0.0106587
-8.51255e-05
0.00604437
-0.0342028
-0.0401634
-0.0169144
-0.0161708
0.0561928
-0.0231077
0.00157055
-0.064603
0.0630324
-0.00202983
-0.00764483
0.00195222
0.003359
0.0023336
-0.000927648
0.00142819
0.000316871
-0.000817413
-0.0046808
0.010245
3.76606e-05
-0.00560186
0.0159416
-0.00561112
-0.00457975
-0.00575075
-0.0402715
0.00817565
0.0367063
-0.00461045
-0.0391721
0.0107556
-0.0553177
-0.0539547
-0.00341454
0.0556296
0.00173961
0.0908846
-0.0893643
0.02326
-0.0247802
0.050054
0.0601566
-0.0713038
-0.0389067
-0.0323984
0.0511853
-0.057959
-0.00253797
-0.00105625
0.00385543
-0.000261211
0.0317382
-0.0636883
-0.000448234
0.0614506
-0.0612132
-0.0322433
0.0320059
0.012599
-0.0172531
0.00109823
0.00355592
-0.036608
0.106812
0.0606029
-0.130807
-0.084527
0.108276
0.00815699
-0.0319056
-0.130587
0.0315735
0.0300021
0.0690119
0.0155813
-0.0618842
0.0369296
0.00937332
0.0613194
0.00978398
-0.0555221
-0.0440928
0.0104421
0.00203463
0.031616
-0.050329
-0.0412315
0.0653266
0.0262338
-0.0334508
0.0401451
-0.013867
0.00717279
-0.0200933
-0.10174
0.0650926
0.0567404
-0.0864657
0.0862294
0.000236276
0.0315765
-0.000108642
-0.0751852
0.0437174
-0.000903165
0.0275903
-0.0289717
0.00228459
0.0270783
-0.050418
0.0233396
0.000149622
-5.67735e-05
-4.1469e-05
-5.13794e-05
-0.000186483
-0.0590484
0.0592349
-0.0687522
0.0427455
0.0627404
-0.0367336
0.0899516
-0.0255949
-0.0124532
-0.0519034
-0.000408083
0.0700714
0.000647091
-0.0703104
-0.0472584
0.0730309
0.038951
-0.0647236
0.000510635
0.00100489
-0.000355226
-0.0011603
-0.00219354
-0.00375164
0.000529975
0.00541521
-0.0383818
0.0840795
-0.0461116
0.000413947
0.0003447
-0.000813922
-0.000688626
0.00115785
-0.0546054
0.054156
0.000449415
0.0748272
-0.007367
-0.0192248
-0.0482353
-0.0975191
0.0893588
0.00594556
0.00221476
-0.0552918
0.0271167
0.0116928
0.0164823
-0.00164028
-0.0159516
0.00662772
0.0109642
-0.0126159
0.0257451
0.0377714
-0.0509006
0.000954591
-0.000297209
-0.000312683
6.99354e-05
2.03657e-05
0.000744799
-0.0008351
0.00121797
0.000218634
-0.000834148
-0.000602456
0.0040287
-0.0090732
0.00520608
-0.000161581
0.0679777
0.00504995
-0.0172739
-0.0557538
-0.0149316
-0.00449419
0.0100654
0.00936033
-0.040448
-0.0531689
-0.0553781
0.148995
0.00363967
-0.033434
-0.00375192
0.0335462
-0.000432733
0.000544646
0.000713044
-0.000824958
0.00495371
0.00402729
-0.0284153
0.0194343
0.0185807
-0.00697047
-0.00941164
-0.0021986
0.0414759
-0.0761164
-0.0275023
0.0621429
-0.0280912
-0.00340816
0.0102044
0.0212949
0.0118624
0.00802125
0.0129105
-0.0327941
-0.000972957
-0.000418302
-5.1332e-05
0.00144259
0.0249787
-0.00957676
0.0366606
-0.00128357
0.000892295
-0.00153439
0.00192566
0.0444743
-0.0331444
-0.0683096
0.0569797
0.00062653
-0.00027992
-0.000346609
-0.00106269
-5.76193e-05
0.000560688
0.00055962
0.000974814
-0.000501769
0.001076
-0.00154904
0.0223237
-0.0218521
-0.0627778
0.0623062
0.00119784
-0.0127797
0.00261447
0.00896738
0.0435898
0.0572763
0.0189291
-0.119795
-0.116412
0.0254057
0.12931
-0.0383038
-0.0052917
-0.0437091
0.00406523
0.0449356
0.0525742
-0.0286665
0.0253296
-0.0492373
0.0254716
-0.0042723
-0.151052
0.129852
0.00611941
0.0167058
-0.0259321
0.00310688
0.000694035
-0.000246614
-0.000687953
0.000240532
0.0378125
0.0127216
-0.00205197
-0.0484821
-0.00183643
0.0829361
-0.0847225
0.00362283
-0.018488
0.0498714
-0.116061
0.0846778
0.0417545
0.00520476
-0.052251
0.0420838
-0.000329319
-0.00240708
-0.0290303
0.0414529
-0.0100156
0.0710509
0.0166538
-0.0313181
-0.0563866
0.127962
-0.141417
-0.0287375
0.0421919
-0.0143918
-0.0456525
0.0576372
-0.0809632
-0.000292408
0.0812556
0.00152321
-0.0986583
0.164943
-0.0678082
-0.00236489
0.00330165
-0.000528852
-0.000407909
0.0885452
-0.147872
0.0308711
0.0284558
0.00156833
-0.00027955
0.000797771
-0.00208655
-0.0853114
0.143288
-0.104657
0.0466804
0.0287872
0.00344745
-0.0397211
0.00748648
0.0872738
-0.0166625
-0.0795171
0.00890583
0.00609119
0.0311219
-0.0516049
0.0313913
0.0287126
-0.134381
0.0742767
0.085202
0.113225
-0.0784561
-0.119971
0.000438454
0.000615318
-0.00273348
0.00167971
-0.0951065
-0.0287481
0.111543
0.012312
0.0018195
-0.00575567
0.014816
-0.0108798
-0.0138991
-0.0335469
0.0575687
-0.0101227
-0.00533146
0.0165281
-0.0139676
0.00277088
0.000303904
-0.00064089
-0.000505797
0.000842784
0.0210566
-0.025233
-0.00115509
-0.00173601
-0.000742231
0.00143358
0.00104467
-0.0570504
0.0594716
-0.00242126
-0.00240583
-0.00609166
-0.0019976
0.0104951
-0.0359026
0.0279519
-0.00594843
0.0186702
-0.0474616
-0.0557357
-0.0510193
0.0414571
0.098112
-0.0885498
-0.00742715
-0.00165689
0.00491257
0.00417148
0.0469598
0.0117726
0.00171614
-0.0604486
0.000325724
-0.00895389
0.00666423
0.00196394
-0.0384713
-0.053681
0.0116238
0.0805285
0.0646665
-0.0388375
0.0265198
-0.0523488
-0.00888471
0.0593572
-0.058611
0.00813847
-0.059453
-0.0341303
0.00856166
0.0850216
0.0169167
0.00515902
-0.0336437
0.011568
0.0594938
-0.0584401
-0.00105369
0.00190985
0.00185934
-0.00116461
-0.00260458
0.0414041
-0.0437986
0.0023945
-0.0507723
-0.0408471
0.107443
-0.0158234
0.00086568
-0.00964307
0.00939958
-0.000622192
0.00307513
0.00595174
0.002465
-0.0114919
0.00170601
0.00611724
-0.00749752
-0.0250529
-0.0572765
-0.00932076
0.0916502
0.025395
-0.00718155
0.0167607
-0.0349741
-0.0845773
0.0924442
-0.101977
0.0941104
0.0757859
-0.0505743
-0.0252116
0.00126783
-0.0342597
-0.0100332
0.0430251
0.00793072
-0.00552655
-0.00884751
0.00644334
0.0459045
-0.069477
-0.0613224
0.084895
0.0743144
-0.0647558
0.0291143
-0.0386729
-0.013245
-0.00839307
0.0316049
-0.00996691
-0.0587306
-0.0873902
0.0566139
0.089507
-0.0412412
0.05355
-0.011041
0.098004
-0.0487076
-0.0492964
-0.00400716
0.0145588
-0.00262096
0.000935988
0.000635329
-0.000694446
-0.00087687
0.0477623
-0.0162557
-0.00528064
-0.0262259
0.00350869
-0.00176071
-0.000512352
-0.00123562
0.00554466
-0.00986445
0.00851551
-0.00419572
0.0726974
-0.0422263
0.0256468
-0.0561179
0.00844977
-0.000267701
-0.0068454
-0.00133666
0.00160081
-0.000560531
-0.00104028
-0.0636362
0.064103
-0.000466871
0.0117315
0.0055167
-0.0957279
0.0784798
-0.0110005
0.0139148
-0.0101108
0.00719645
-0.0725656
0.0166754
0.0829309
-0.0270407
0.0187895
-0.097731
0.0753545
0.00358706
-0.0522198
0.0421411
-0.00795489
0.0180336
0.00853171
-0.00176198
-0.00286134
-0.00390839
8.48164e-05
-0.00097114
0.000886324
0.0259351
0.171116
-0.242086
0.0450356
0.000271285
-0.000269428
-0.0248473
0.0605965
-0.0529841
0.0172348
-9.08018e-05
0.00511412
-0.0041976
-0.000825714
0.000754932
0.00182804
-0.00308474
-0.0719849
0.000345487
0.0716394
-0.0327911
0.114493
-0.0480391
-0.0336633
0.000219374
0.000885278
0.00934869
-0.0104533
-0.000486473
0.0901899
-0.0897034
0.00233044
-0.00162938
-0.00111714
0.000416084
0.00127507
0.000597628
-0.000603877
-0.00126883
-0.0366019
-0.00146848
0.0323528
0.0192077
-0.0641763
-0.0719048
-0.0163384
0.00572907
0.0825141
-0.000581724
0.0018568
-0.0990815
-0.0417236
0.112473
0.0283321
0.0274891
0.168156
-0.0843381
-0.0576459
-0.0261723
-0.0176049
0.118564
-0.0437597
-0.0571991
0.0410751
0.0300866
0.0373319
-0.108494
0.105314
-0.247253
0.107881
0.0340586
0.00151828
-0.00132614
-0.00142788
0.00123574
-0.0120154
-0.035851
0.0560574
-0.00819104
0.0251965
0.0405757
-0.0255376
-0.0402346
-0.0353177
-0.0261777
-0.0196404
0.0811358
-0.0543534
-0.0130252
0.0553633
0.000729322
-0.0118731
0.00797422
0.00316955
0.0555011
-0.0285672
-0.0509196
0.0239857
-0.088348
0.104139
-0.0500853
0.0342943
0.015804
-0.0227468
0.00707667
-0.000133883
0.0519081
-0.0602989
0.0638919
-0.0566537
-0.0036037
-0.0146263
0.0748837
-0.00533564
-0.0124092
0.00210992
0.0156349
-0.000456604
0.0576386
-0.0571979
1.5919e-05
0.136426
-0.0540782
-0.0029858
-0.0793619
0.0591639
-0.00782184
-0.0483445
-0.0029976
0.0529879
-0.0209871
-0.0753042
0.0433033
-0.00952211
-0.00201098
0.0146137
-0.00308063
0.00523621
-0.00168538
-0.00476381
0.00121298
0.00211605
-0.0428697
0.0394789
0.00127479
-0.000951387
-0.0864288
0.00375386
0.0191621
-0.0128802
-0.0630414
0.0476001
0.0154413
-0.0597518
-0.0167974
0.0105363
0.066013
-0.0982907
-0.00271763
0.103317
-0.00230836
0.00383456
0.0230337
-0.0125729
-0.0142954
-0.0701495
0.150033
-0.0664654
-0.0134182
-0.0050408
0.014033
0.0224597
-0.0314519
-0.0506451
0.096646
0.0379458
-0.0839468
0.0275687
0.002271
-0.0146508
-0.0151889
-0.0357714
0.036776
0.00111153
-0.00366223
0.00671109
-0.00936831
0.00631946
-0.000474253
-0.00411622
0.0101351
0.036581
0.038228
-0.074809
0.0011023
-0.001843
6.54788e-05
0.000675212
0.0189875
0.00823481
-0.0183715
-0.0088508
0.0221597
0.00924323
-0.00265181
-0.0287511
-0.0509597
-0.000793167
0.00636599
0.0453869
0.000374913
-0.0432446
-0.000916868
0.000585644
0.00143353
-0.0524675
0.0377347
0.0516384
-0.0369057
-0.0437461
0.029399
0.0184721
-0.00412508
0.00131843
-0.00311899
-0.00962037
0.0114209
-0.00844579
-0.004915
-0.00361535
0.0169761
-0.0427607
-0.00456179
0.0115511
0.0719841
0.039686
-0.0722179
-0.0394523
-0.0439399
-0.000220909
0.0441608
0.0865618
-0.0485509
0.0590894
0.00367623
-0.00784204
-0.0382529
0.0424187
0.0359573
0.0111193
-0.00573487
-0.0413417
-0.000480787
0.00028899
0.000986158
-0.000794361
-0.0168082
-0.0446562
0.0614644
-0.000287367
-0.00125611
-0.00454291
0.0318907
-0.0236716
0.00606426
0.028031
-0.0419373
0.0973
-0.0906537
-0.00178012
-0.00486625
-0.0212627
0.100484
-0.0187904
-0.0604311
-0.0315885
0.00683217
0.0154349
0.00932138
-0.0391028
0.0354393
0.0144077
-0.0107442
0.0321866
-0.0251256
0.00141616
-0.00847717
0.0184491
0.071929
-0.120651
0.0302726
0.0754535
-0.074173
-0.0240859
0.0228054
-0.142726
0.00289106
0.00270893
0.137126
0.0300439
0.0127768
-0.0412181
-0.00160257
0.0401346
-0.057943
0.0198269
-0.00201859
0.00206156
-0.00122969
0.000236077
-0.00106794
-0.0147743
-0.00150109
0.0734536
-0.0416049
0.0188897
-0.0507384
-0.011331
0.0473023
0.000702234
-0.0366735
0.00572123
0.0959373
-0.0932203
-0.00843831
0.0502932
-0.098664
0.0578912
-0.00952034
-0.0491611
-0.000411635
0.0382417
0.015433
-0.00433816
0.00877332
-0.0198681
-0.0234733
0.0479463
-0.0133712
-0.0111018
-0.0491253
-3.5879e-05
-0.00544675
-0.122597
0.176056
-0.0480123
0.00991971
0.00899895
-0.0621633
0.0432446
0.0504462
0.00527722
-0.0458037
-0.0123583
0.00659599
-0.00355718
0.00931947
-0.0555498
0.000296031
0.0552537
0.10956
0.0433816
-0.135035
-0.0179064
-0.00893509
0.000405269
-0.00382846
0.0188685
-0.114227
-0.0229862
0.118344
0.0125537
0.0656927
-0.0692475
0.00296785
-0.0544314
-0.0106997
0.000455623
0.00182229
-0.00256528
0.00193568
-0.00181148
0.000331419
-0.0510299
0.0257116
0.0743087
-0.0489904
-0.00191351
0.000956234
0.000899658
-0.0348282
-0.00778784
0.0455839
0.000218998
-0.000310224
0.000331726
-0.00090485
8.77098e-05
0.000485415
6.3887e-05
0.00209079
-0.00167849
0.00133085
6.86909e-05
0.000278949
0.000469473
-0.000277311
0.000762429
0.104819
0.120421
-0.0778831
0.000140939
-0.000888561
0.00121709
-0.0528747
0.0531177
-0.000242992
-0.0109574
0.0754112
-0.0704542
0.00600034
0.00181583
-0.0190157
0.00498547
0.0122144
-0.0601363
-0.00369582
-0.0169904
0.00412621
0.0473943
-0.0345301
-0.0646266
-0.000388976
0.0650156
-0.00621309
-0.016123
-0.0124226
0.0347587
0.00025311
-0.000334574
-0.000452505
0.000533969
-0.00403439
-0.00746142
0.00891304
0.00258277
0.0549773
0.0439169
-0.0175111
0.0472995
0.0885788
-0.0378495
-0.0980288
-0.0121297
-0.0442971
-0.0212086
0.020717
-0.0564638
0.0569555
-0.0101924
0.0288469
-0.00739935
-0.0112552
-0.0153293
-0.0132788
0.0140014
0.0146066
0.0970263
-0.0956895
0.0180928
-0.0194297
0.00102495
-0.00427153
-0.000259616
0.0035062
0.00055539
-0.0651323
0.0645769
-0.0731976
0.00371248
0.0667521
0.00273295
0.039628
0.0378303
-0.0774584
0.0190579
-0.0602222
0.0290346
0.00227658
-0.00137649
0.000823876
-0.00172397
4.89837e-05
-0.000494263
0.00174099
-0.00129571
-6.2722e-05
0.000401454
-0.000921798
0.000583067
0.0634089
0.0556413
-0.0390406
-0.0800096
0.00558027
-0.0860123
0.0821289
-0.0016968
-0.013497
0.000167032
0.026494
-0.0131641
0.0521761
-0.0518648
0.0194628
-0.0197741
-0.000466415
0.00125712
-0.000622622
-0.000168084
0.0203428
0.048083
-0.0493678
-0.0473818
-0.00173778
0.000858544
0.00154846
-0.000669222
0.000214479
0.0796375
-0.079852
-0.0500055
-0.0152256
-0.0228671
0.0880982
-0.0503436
0.00033806
0.0117512
0.0170437
0.0163152
-0.0451102
0.000451661
-0.00278971
0.000185648
0.00215241
-0.00164488
-0.000701901
0.000608995
-0.107815
-0.00827859
-0.0443244
0.160418
-0.0106822
0.00725347
0.138501
-0.135073
-0.0383283
0.0426768
-0.0643467
0.0599983
-0.0785228
0.0772306
0.00129226
0.00159557
-0.0507124
-0.0302217
0.0653106
0.0188202
-0.0052942
-0.0788366
0.0506013
0.0928564
-0.155196
0.0117388
0.0424522
0.0153865
0.0327014
-0.0905401
0.104396
-0.10765
0.0428819
-0.00336015
0.0127606
-0.011558
0.00215751
-0.00224287
0.000284164
-0.000819149
0.00277785
-0.00269156
-0.00550091
0.00149747
0.006695
0.0605193
-0.00585194
-0.0182132
-0.0364542
-0.0566363
0.0283172
0.0283191
-0.0923354
-0.00763112
0.0122758
0.000279093
-0.000354514
-0.00216745
-0.117149
0.0242417
0.00592289
0.0869841
0.000783419
-0.0536489
-0.00975738
0.0626229
0.0456068
0.0283947
-0.101142
0.0271404
0.0381964
-0.0438501
-0.0189899
0.0246435
0.0476414
-0.0597355
0.0502905
0.0303554
-0.0561376
0.0499431
-0.024161
0.034167
-0.0357295
0.000745654
0.000816823
0.0161787
-0.142999
0.0913544
0.0354659
0.00101521
-0.0607356
-0.00329649
0.0527396
0.000184103
-0.108215
-0.0336851
-0.00935922
0.00669672
0.0363476
-0.0483928
0.0445977
0.0501567
-0.0463615
-0.042179
0.0819382
-0.0397592
0.010769
-0.102462
0.0478429
-0.0168372
0.00764956
0.0242799
-0.0150922
-0.0883125
0.0931256
0.0369554
-0.0417685
0.0579972
0.0335938
-0.0817717
-0.00981932
-0.0480948
0.141938
0.00503005
-0.0988731
-0.000410047
0.00311213
0.00340068
-0.00610276
0.0545558
-0.0730364
0.0833735
-0.0648928
0.00889956
-0.0402567
-0.0086588
0.0400159
-0.0433947
0.0309901
0.103161
-0.0907568
-0.0502012
-0.026798
0.0541073
0.0228919
-0.0103206
-0.000620177
0.00659359
0.00434716
-0.0094665
0.0207797
-0.0176011
0.00628792
7.60958e-05
0.073691
-0.0737671
0.0148879
-0.0441738
-0.0191069
0.0485568
-0.0338435
-0.00161298
-0.0131003
0.00156524
-0.0247166
-0.0204613
0.0436126
0.0351264
-0.0349755
-0.000150851
0.0621663
-0.0415315
0.0631832
-0.083818
-0.0995003
0.0970754
0.0994512
0.000169017
-0.0107521
-0.00184984
0.0124329
0.0500143
-7.45142e-05
-5.8525e-05
0.000182796
-4.9757e-05
-0.000179224
0.0467732
-0.108314
0.0617199
-0.00863558
-0.000379467
0.00492104
0.00409401
0.0268367
0.0100198
-0.0368565
0.00115479
-0.00109324
-0.00869713
-0.0315485
-0.0342133
0.0149896
0.0572665
0.000640779
-0.0579072
0.0728263
-0.0440067
-0.0512072
0.0223876
0.00183468
-0.02478
-0.0211474
0.0695037
0.0429265
-0.0396038
-0.00798136
0.00930517
0.135318
-0.119905
0.0354493
-0.0508622
-0.045209
0.0370627
0.0219066
-0.0137602
-0.0528362
0.0520633
0.000772881
-0.0479783
0.0298476
0.0104389
-0.0466222
-0.0105294
0.0467127
-0.0025916
0.159402
-0.15849
0.00167885
0.1081
0.0159224
-0.0157471
0.0506824
0.00857515
-0.0513372
-0.00792033
-0.014358
0.00450494
0.010537
-0.000683912
-0.0095755
-0.00522128
0.00478887
0.0100079
0.0668849
-0.0382498
-0.0532393
0.0246042
0.0298086
-0.0159089
0.0235257
-0.0374254
0.0270201
-0.0943992
0.0901308
-0.0227517
-0.00565568
0.00038779
-0.00909011
-0.0942175
0.107771
-0.0234842
0.0099308
-0.011271
0.0477121
0.0139359
-0.0503771
-0.00441701
3.47866e-05
0.00315994
0.00122229
0.0827253
-0.00555095
0.0519477
-0.129122
5.30892e-05
-0.000723184
1.70145e-05
0.00065308
-0.0664616
0.0577561
0.0744833
-0.0657778
0.00357403
0.00135192
-0.00217381
-0.00275214
-0.0777592
0.0754727
0.00228653
0.0621732
-0.0588766
-0.00329657
0.0601581
-0.000346498
-0.0598116
-0.0122917
0.123431
-0.0007017
-0.110438
0.00989652
-0.0311156
0.0329703
-0.0236703
-0.000295437
-0.0564632
-0.0674571
0.0124105
0.0669249
-0.0118784
-0.0131161
-0.00211506
0.000450062
-0.000662324
-0.000125686
0.000337948
0.00111117
-0.000228749
-0.000234663
-0.000647757
-0.0636804
0.0073527
-0.00134431
0.057672
0.000502616
-0.00536518
0.00178058
0.00308199
0.0119798
-0.0144898
5.21031e-05
0.00245797
0.00803885
-0.00669478
0.0106357
0.0559295
-0.00993451
-0.0223136
-0.0236815
0.0363484
-0.00554784
-0.036473
0.00567243
0.000386833
0.0667551
-0.000341828
-0.0668001
0.00743076
-0.071488
0.0193856
0.0446717
-0.0430069
-0.032259
0.0422157
0.0330503
-0.0338425
0.0197407
-0.0908728
0.104975
-0.000849755
0.0149613
-0.00775051
-0.00636104
0.0491946
-0.0589466
0.0472453
-0.0374933
-0.0629762
-0.00685152
-0.00734683
0.000685467
-0.000131748
0.00415551
-0.00470923
-0.0117491
-0.00275174
0.00174211
0.0127587
-0.00784715
-0.0090926
0.0106704
0.00626932
-0.000120107
-0.00213728
0.00130028
0.000957106
-0.000472602
0.000548578
-7.59762e-05
0.00110273
-0.0710732
-0.0258353
0.0958057
-0.000151456
-0.000183158
-0.00128149
0.00161611
0.000118055
-0.000506686
-8.39712e-05
0.00154496
-0.0661716
-0.00014696
-5.93497e-05
0.000754888
0.000653517
9.44599e-05
-0.000422591
-0.000325385
-0.028435
0.0643416
0.0768701
-0.112777
-0.00896765
-0.00221253
0.0071114
0.00406878
-0.014367
-0.000269196
0.00566854
-0.00514481
0.00537764
0.0128754
-0.0131082
-0.000710781
0.000772914
-0.000209093
-0.0661502
0.0662865
-0.000136324
0.0305741
0.0468598
-0.0599039
-0.01753
0.0126084
-0.0754178
-0.0220924
0.0849018
-0.0132459
0.00268531
0.00541577
-0.00452248
-0.00619125
-0.00253216
-0.0166047
0.0583762
0.0128245
-0.054596
0.0690322
0.00458929
-0.0533918
-0.0202296
0.000156055
0.000429792
-0.000793589
0.000207742
-0.000422218
-0.000170508
-0.0026103
-0.00113941
-0.00120766
0.00495737
0.0655733
-0.0460905
0.011758
-0.0312409
-0.000788828
-0.00265015
0.00146305
0.00197593
-0.0162422
0.0108666
-0.0040171
0.00939275
0.00158199
-0.101621
0.102013
-0.00197396
0.00297894
0.000659066
-0.0102895
0.00665155
0.00975882
-0.0103665
0.00163899
-0.0010313
0.00985211
0.0036687
-0.0105419
0.0375445
0.0558802
-0.0278513
-0.02733
0.0548678
0.0282324
-0.0557702
0.0277136
-0.0550436
-0.000262975
-2.41786e-05
-0.0331637
0.0124547
-0.010032
0.0792202
0.0239944
0.00708786
0.0686746
-0.0537995
0.0971336
-0.112009
0.00470831
0.0925597
-0.097268
-0.00674467
-0.00676109
0.0131013
0.000404417
-0.0338638
-0.0876022
0.027788
0.093678
0.0227004
0.0618723
-0.0255357
-0.059037
-0.0233827
0.11424
-0.0533123
-0.0419856
0.0449822
0.0518712
-0.0561133
0.0554016
0.000711746
-0.0384544
0.0366801
0.00177434
0.0405963
-0.0798055
0.0731563
-0.033947
0.0662808
-0.0828855
-0.00933825
-0.00809909
0.0106927
0.000904236
0.000646634
-0.000605704
-0.000945167
-0.00621999
-0.0428282
-0.00706518
0.00126937
0.00138381
-0.00248674
-0.000166439
-0.0570237
0.0514253
0.0861054
-0.0805071
0.0343016
-0.0325525
-0.00174909
0.00906243
0.0243356
-0.0127766
-0.0206215
0.00420493
-0.000552406
0.00222979
-0.00588231
-0.0646105
-0.000689668
0.0206051
0.0446951
-0.00281856
0.00673538
0.000288118
0.0407778
-0.110529
0.103792
-0.0340404
0.0454757
0.0139346
-0.0592156
-0.000194708
-0.0035925
0.00692866
0.00154961
-0.00488577
-0.000700707
0.0609147
-0.060214
0.0368204
0.00616039
0.0144993
-0.0574801
0.00415898
-0.00730346
0.00259207
-0.181713
0.0283179
0.161289
-0.00789426
0.0389101
-0.0110069
-0.0279032
-0.00106711
-0.00157425
-0.00121026
0.00385162
-0.0410589
0.0445204
0.124148
-0.12761
-0.00175572
0.00065808
-0.00210633
0.00320398
0.090232
-0.00199197
-0.0427644
0.000452069
-0.00116072
0.00204885
-0.00134019
-0.018558
-0.116171
0.0156413
0.119087
0.00377209
0.0518004
-0.00375633
-0.0518162
0.0491572
-0.0704248
0.0599295
-0.0386619
0.0319001
-0.036651
0.0488253
-0.0440744
0.00866089
-0.00229839
0.00613048
-0.012493
0.00119986
-0.0445749
0.0533551
-0.0536655
-0.0363407
0.0967216
0.0182935
-0.0252252
-0.0897899
0.047457
0.0177849
-0.135043
0.0698007
-0.00154432
-0.00860059
0.00627326
0.00387165
0.0279999
-0.0501781
-0.00335828
0.0290527
-0.0268986
0.00750786
-0.00576282
0.000120823
-0.00186586
-0.0869479
0.00287386
-0.00142776
0.0729889
-0.150027
0.0784658
-0.0270994
-0.0867572
0.0414258
0.0724307
-0.0718924
0.0209682
0.00237323
0.048551
-0.0431601
0.0292757
0.0101865
-0.0832751
0.0963545
-0.0130794
-0.0207285
-0.00957358
0.117713
-0.0874112
-0.00347331
-0.00392341
0.00603983
0.00135689
-0.0258503
0.0592848
0.04088
-0.0721861
0.0281794
-0.000679774
-0.000409305
-0.000974657
0.00206374
0.0465179
-0.0483034
0.0545251
-0.0379249
-0.00692315
-0.0451714
-0.123969
0.0477781
0.0761911
-0.0430031
-0.0325552
0.02758
0.0030583
-0.00210539
0.000653337
-0.00160624
0.00257797
-0.000273688
0.000754015
-0.0858806
0.00304744
0.0828332
0.0603058
0.0141766
-0.122376
0.0478933
-0.0714792
0.000326315
0.0711529
0.00127244
-0.00179855
0.00828859
-0.00776248
0.0488971
0.154096
-0.223337
0.0203441
0.00173638
-0.00226076
0.00149579
-0.000971418
-0.0916963
0.0653741
0.0259642
0.000358032
-0.00305645
-0.000924996
0.00315413
0.00082732
-0.000751403
0.00836726
-0.00810916
0.000493297
0.00812607
0.00802951
-0.0155947
-0.000560861
0.0412371
0.0116246
0.00296837
-0.00266194
0.00142995
-0.0978462
0.105204
0.00699201
-0.0143495
0.011739
-0.0668199
-0.0225318
0.0776126
0.00142523
-0.00341176
0.0880344
-0.0860479
-0.0427167
-0.0366036
0.0883632
-0.00904294
-0.040783
0.0246672
0.040439
-0.0243232
0.0534551
0.0215013
-0.0729657
-0.00199067
-0.00198251
0.000270592
0.00198675
-0.000274829
-0.123537
-0.0429502
0.0398616
0.126626
0.0481683
-0.0377294
-0.0316033
-0.0376657
-0.0313822
0.100651
-0.00192563
0.00425591
0.000297083
-0.00262737
-0.0306432
-0.0800298
0.0279315
0.0827415
-0.029661
-0.0289682
0.0207043
-0.000866257
-0.00316476
-0.00166337
0.00337293
-0.00365809
0.00194853
-0.0054229
0.00531864
0.0252651
-0.0771315
-0.0852205
0.137087
-0.000278484
-0.000458441
0.000435909
0.000301016
0.0569491
-0.0604594
0.0475348
-0.0440245
-0.0144243
0.0427341
-0.00717275
-0.0211371
0.0864075
-0.0858743
-0.0188805
0.0183474
0.0261098
0.0227575
-0.0634631
0.0145958
-0.127612
0.0742648
0.0187847
0.034562
-0.00517653
0.00283699
0.000124383
0.00221516
-0.00778861
0.00945989
-0.000398842
-0.0134898
-0.00372119
0.0184387
-0.00122779
-0.0631891
-0.00443828
0.0147081
0.0529193
-0.00958263
0.10429
-0.0061217
-0.0885855
0.00860976
-0.0470841
0.0802998
-0.0418255
-0.00167715
0.00415358
-0.00170395
-0.000772479
-0.0149164
0.000448569
-0.0024184
0.0168862
-0.107783
0.00443841
0.0124479
0.0908971
0.000109171
-0.000300769
0.000649457
-0.000457859
0.0366074
0.00810914
0.0272676
-0.00506279
0.0457279
0.0534554
-0.0941205
-8.20909e-06
0.000780667
-0.000663286
-0.000593904
0.00211057
-0.0014172
-9.94716e-05
0.0173662
0.110533
-0.0474066
-0.0804921
-0.00019441
-0.000106359
0.000242434
-0.000436844
0.0620166
0.0169246
-0.092224
0.0132828
-0.156232
0.0862262
0.0760225
-0.00601663
-0.0182787
0.000805044
-0.0518914
0.0693651
0.0251285
-0.0149018
0.0172574
-0.0274841
-0.0659111
-0.0239824
0.0898935
-0.0773406
0.038089
0.0392516
-0.00222719
-0.000239006
0.000171025
0.00229517
-0.039338
0.0420506
0.00763534
-0.010348
0.0474003
-0.0551259
0.00772562
-0.0606388
0.0339755
0.0452598
-0.0185965
0.00440501
-0.00232713
-0.00189679
-0.00018109
-0.00315316
-0.00259797
0.000574603
-0.0420067
-0.0425706
0.046023
0.0145271
0.00189622
-0.0624463
0.00223309
-0.00033964
-0.00189376
3.12528e-07
0.0010911
0.00565712
-0.0118173
0.00506908
0.00695799
0.0218498
-0.0398785
0.0110707
-0.0190822
-0.0159308
-0.00878663
0.0437995
-0.0745533
-0.0101073
0.0296146
0.055046
-0.00165254
0.0148502
-0.00834233
-0.00485537
-0.0528554
0.00048364
0.0332896
0.00026237
0.0253923
-0.13429
0.126264
-0.0173665
0.0283308
-0.0340753
-0.0513059
-0.0272459
0.0549595
-8.25681e-05
0.0393974
0.0031902
-0.042505
-0.0567312
-0.0598062
0.116537
-0.00303196
-0.00104048
-0.00172555
0.00579799
0.00318817
-0.004677
0.00168831
-0.000199475
0.036068
-0.00530076
-0.028422
-0.00234528
-0.00315241
-0.00223761
0.00235805
0.004032
-0.0122577
0.0676152
-0.0593895
0.0756293
4.43357e-05
0.0278402
0.00924559
-0.00627385
-0.030812
0.0588067
-0.000208589
-0.0585981
-0.0534375
0.113136
-0.0286216
0.0599909
0.0202113
-0.0515807
-0.0150291
-0.0245759
0.0160889
0.0235161
0.00329175
0.00364702
0.000730425
-0.00766919
-0.0334303
-0.0386614
0.0992108
-0.0271191
0.0433531
-0.0352821
-8.88503e-05
-0.00798212
-0.0520155
0.114768
-0.0491007
-0.0136521
-0.00155445
0.00183834
-0.000202411
-8.14746e-05
-0.00103846
0.0216271
-0.00398394
-0.0166047
0.00277772
0.00387587
6.7376e-05
-0.00672096
-0.000245809
-3.94792e-05
-4.2545e-05
0.000327833
3.13735e-05
7.47792e-05
-0.000351961
-0.0088819
0.0220768
0.0705095
-0.0837044
0.0808531
-0.0802093
-0.000643736
0.000309795
-0.000372304
6.2509e-05
-0.012829
0.000956086
0.00222755
-0.0014134
-0.00177024
-0.00795224
-0.00602576
0.00381145
0.0101665
-0.0557671
0.0271455
0.000215968
0.000312759
-0.000806397
0.00027767
0.0342999
0.0543388
-0.0343422
-0.0542966
0.0137223
0.156647
-0.179786
0.00941656
0.0584015
0.0639738
-0.0623844
0.00197065
-0.012976
-0.0017712
0.0127766
-0.0331538
-0.0299723
0.0631261
0.0313313
-0.0644852
-0.0545642
-0.0448531
-0.0649855
0.164403
0.0505018
-0.0563728
0.00587094
-0.0731912
0.134693
-0.0714359
0.0327963
-0.0302257
0.0855599
-0.00395869
-0.0686371
-0.0129641
0.0698161
-0.0709837
0.0108293
-0.0096617
-0.000237254
-0.005969
0.00745526
-0.001249
0.00249424
-0.00579714
0.0062058
-0.0029029
-0.000183948
9.02333e-05
0.000785983
-0.000692269
0.0220978
0.0225468
-0.0336708
-0.0109737
-0.00513823
-0.00536379
0.0061276
0.00437442
-0.0114573
0.0323914
-0.0427327
0.0217986
0.00088743
-0.00842918
0.0109689
-0.00342716
0.0501024
-0.00449053
-0.0456119
0.0384163
0.0351859
-0.126576
0.0529741
-0.0981887
0.060181
0.0764239
0.0329669
-0.0998243
-0.046629
0.108478
-0.0380446
-0.0238045
0.00187086
0.00882961
-0.0123304
0.00162996
0.0281394
-0.00330156
-0.0248378
-0.0303874
0.0439395
-0.00358632
0.0196964
-0.0314393
0.00121463
-4.41423e-05
0.000907582
-0.00207806
0.0118927
-0.0387912
-0.0011489
0.000172429
0.000164927
0.00081154
0.00265129
-0.000266157
0.00095808
-0.00334322
-0.000821138
-0.00247716
-0.0775635
-0.0139665
0.00159188
-0.0113274
0.023702
0.02006
-0.0906247
0.0213617
0.0492031
-0.00323504
0.0578651
-0.082183
0.0275529
0.00106226
-0.000764367
0.00117904
-0.00147693
0.0787332
0.0125036
0.00217098
-0.0934078
-0.000965702
-0.000759385
0.00202788
-0.000302796
0.00386194
0.000919422
-0.0696245
0.0648432
0.00638786
-0.0009315
-0.00469327
-0.000763087
0.0062618
0.00442356
-0.00346179
-0.00722357
-0.111462
0.0972861
-0.0879237
0.1021
-0.0553656
0.109913
-0.0545478
0.002781
-0.0447503
0.00924916
0.0327201
0.00350921
-0.0036528
0.000837283
-0.000693698
0.0487548
-0.002949
0.00149648
-0.129041
0.00255178
0.0730522
-0.0333762
-0.000170724
0.00154222
0.030569
-0.0250742
-0.00703706
0.0780464
-0.0305331
0.0341037
0.00390993
-0.00488852
0.00019795
0.000780643
0.0335716
0.0230276
-0.0737892
0.0171899
-0.000406903
3.18212e-05
0.00050673
-0.000131648
-0.000389356
0.00143424
0.00521692
0.000195454
-0.00774928
0.0061598
0.00549941
0.0748126
0.0408192
-0.0371226
-0.0785091
-0.13184
0.141187
-0.00842528
-0.000921858
0.0312937
-0.031888
0.000594297
-0.0359696
-0.000103738
0.000275187
-0.00300674
-0.00215696
0.0148949
0.20665
-0.158416
-0.0631286
0.0287586
-0.0604155
-0.0175799
0.0492368
-0.00305053
0.0390815
-0.000824101
-0.0856896
0.0474322
-0.0226853
0.00974336
-0.0380712
0.0476023
0.0463269
-0.0558581
-0.0667276
0.089273
-0.152157
0.129612
-0.000132491
0.000141003
-0.0014612
0.00145269
0.000243021
0.00217972
-0.00070246
-0.00172028
0.0447481
-0.015655
0.0400211
-0.0691142
-0.00348995
0.00039611
0.00320552
-0.000111682
-0.011871
0.0107441
-0.0369443
0.0121811
-0.0462182
0.00572938
-0.00294546
0.0179747
-0.0207586
-0.133078
0.0163335
0.126888
-0.0101428
0.0391401
-0.0259036
-0.0183703
0.00513372
0.0345929
-0.0532858
0.00682184
0.00479041
0.00772504
0.051274
-0.0637894
0.0249675
-0.0071337
-0.0250868
0.00725296
-0.079297
-0.00782308
0.0145545
0.00120321
-0.000971409
1.12173e-05
-0.00163487
0.00394895
0.00131622
-0.0036303
0.0184716
-0.0322754
0.0387713
0.0173998
-0.143523
-0.0222806
0.148403
-0.111896
-0.0153403
0.026162
0.101075
0.0575713
-0.0353036
0.0288065
-0.0510742
0.109699
-0.00628725
0.00456342
-0.107975
-0.0174255
-0.0374579
-0.00409955
-0.0156793
0.00765148
0.0121273
-0.00134423
0.000504592
0.000121946
0.000717694
0.0150553
-0.0769716
0.0619162
0.107575
-0.00755761
-0.112309
-0.0267737
0.0557051
-0.0463569
0.0399871
-0.122258
0.0140013
0.0682693
-0.00440167
-0.0120834
-0.0274599
0.043945
0.00269999
0.0491675
0.0822733
-0.13015
-0.00129058
0.0495856
-0.0832264
0.0893366
-0.0556959
-0.0966485
0.0952572
-0.00646801
0.00785936
0.00155698
0.00372479
-0.09426
0.0889782
-0.00148623
0.0035732
0.00586334
-0.00795031
0.000143274
-0.000866472
-0.000232808
0.000956007
0.0879727
0.00100584
-0.0179787
-0.0709999
-0.000678852
0.000802364
-0.000462662
0.00033915
0.000902247
0.00325299
-0.00228675
-0.00186849