/*--------------------------------*- C++ -*----------------------------------*\
| =========                 |                                                 |
| \\      /  F ield         | OpenFOAM: The Open Source CFD Toolbox           |
|  \\    /   O peration     | Version:  2506                                  |
|   \\  /    A nd           | Website:  www.openfoam.com                      |
|    \\/     M anipulation  |                                                 |
\*---------------------------------------------------------------------------*/
FoamFile
{
    version     2.0;
    format      ascii;
    arch        "LSB;label=32;scalar=64";
    class       volVectorField;
    location    "0.0263932";
    object      U;
}
// * * * * * * * * * * * * * * * * * * * * * * * * * * * * * * * * * * * * * //

dimensions      [0 1 -1 0 0 0 0];

internalField   nonuniform List<vector> 
47425
(
(10.0932 0.0570684 -0.021389)
(10.047 -0.044587 -0.10161)
(10.0037 -0.0462033 0.0706855)
(11.0667 -0.424806 -0.185163)
(11.9234 0.651867 0.671644)
(10.0857 -0.0250071 0.0130542)
(11.8474 0.481412 0.624525)
(10.1059 -0.0016694 0.0200697)
(10.0321 0.00264844 -0.0134257)
(4.88007 6.76689 -0.669662)
(10.0661 0.00402334 0.0111001)
(9.96196 0.232387 0.027485)
(11.7128 0.473195 0.182512)
(10.0115 -0.0114092 0.0685405)
(10.4585 0.449852 -0.102608)
(9.82331 -0.120162 -0.00243875)
(10.0171 -0.0200797 0.0797082)
(8.63289 -0.476657 -1.2478)
(8.52032 1.04559 -4.56156)
(12.8907 -0.477967 -0.937425)
(10.6134 -0.55838 -0.448532)
(9.73063 -0.0344998 0.0177575)
(10.0301 0.0924439 0.012681)
(10.0828 -0.0394469 0.124299)
(9.97984 -0.169563 0.101222)
(9.98706 0.0113589 -0.0217128)
(9.9646 0.0413772 0.0224853)
(11.161 -0.268473 -8.05646)
(9.99483 0.0332079 0.0311092)
(10.0801 -0.0365166 -0.0184179)
(9.708 0.628331 0.138946)
(9.95599 -0.0256706 0.0475189)
(10.0246 -0.0641616 -0.03081)
(9.94874 -0.0305963 0.00469393)
(10.0194 -0.149632 -0.0427761)
(10.1932 -0.0158427 -0.0407176)
(9.72688 -0.0743854 -0.015863)
(9.97493 0.0516716 0.00665481)
(10.4979 0.261864 -0.0280615)
(10.0209 0.0299867 0.0121103)
(9.87784 0.0976026 -0.00522599)
(9.35545 0.217885 -0.335816)
(8.63673 -0.57077 0.126342)
(10.0052 0.0323952 0.0187153)
(0.305376 -0.543863 1.06341)
(10.1637 -0.0620831 0.00969564)
(9.98205 -0.0206489 -0.0968203)
(10.0039 0.0958218 -0.0210302)
(10.0309 -0.0622479 0.0239312)
(10.0006 -0.0330487 -0.0511863)
(1.97133 -0.606422 -5.30539)
(9.33259 0.910162 1.1089)
(10.0379 0.00714613 0.0391357)
(7.07686 -6.18601 2.81661)
(9.97656 0.0181516 0.0131205)
(10.2134 0.0961502 -0.117979)
(10.0946 -0.0757288 -0.0887655)
(10.0395 0.0773719 0.0247657)
(12.7161 0.686977 0.954858)
(10.0261 0.011286 -0.00300801)
(5.24721 -6.05428 2.24267)
(5.2483 0.363248 2.48485)
(6.49683 -7.28381 1.58783)
(9.08234 -1.0882 0.144316)
(10.0048 0.00625486 0.00282175)
(10.5583 -0.189318 0.116928)
(10.0377 -0.00924657 0.00175077)
(10.4863 0.216939 0.467587)
(8.57372 -6.75961 3.16004)
(9.11259 0.582176 0.46067)
(10.7979 -0.286612 0.227158)
(9.9837 0.0609884 0.0347106)
(10.6183 0.0237824 0.0349664)
(10.5783 0.271816 -0.537403)
(7.02419 5.03908 1.47784)
(9.98792 -0.0249268 0.0403396)
(7.12924 -7.16433 2.45069)
(10.008 -0.00643603 0.00735208)
(8.35393 -5.96119 2.958)
(11.4208 0.40855 1.74422)
(7.51458 4.30452 1.58505)
(10.173 0.244114 0.0861116)
(9.31041 0.108108 -0.0935276)
(10.0046 0.14183 0.0459768)
(9.87505 0.0355229 -0.0906812)
(10.0239 -0.0499672 0.0863189)
(10.41 -0.141103 -0.0126807)
(10.1304 0.0921774 -0.00507901)
(10.1454 0.991507 -1.39526)
(10.6586 -0.0147261 2.55526)
(9.72299 0.443648 0.10629)
(10.4808 -0.077559 0.0241459)
(10.0808 0.0456069 0.0661752)
(9.99287 -0.0447703 -0.00144576)
(9.94862 -0.0971301 -0.019652)
(10.0377 -0.000558749 -0.0241542)
(10.0464 0.0122478 -0.0546412)
(10.1191 -0.289659 -0.0769297)
(10.0496 -0.0927721 0.140679)
(9.8486 0.120934 0.0424391)
(10.183 0.035937 -0.0880323)
(8.58921 0.093202 -3.60131)
(10.2427 0.15284 0.0752332)
(5.44661 1.90633 -0.353043)
(10.2783 0.0345412 0.079787)
(10.1654 -0.528448 0.113865)
(10.0521 0.0551082 0.000519403)
(9.93193 -0.0453188 0.146038)
(9.84897 -0.0242779 -0.0127966)
(9.91166 0.192309 0.0410902)
(-3.82813 -1.98957 0.478578)
(10.1188 -0.0530649 -0.00639816)
(10.0824 -0.691202 0.203128)
(10.1488 -0.00242642 0.0299199)
(10.5005 -0.449536 0.127475)
(1.76197 -4.11806 -5.26254)
(10.4981 -0.42047 0.0919461)
(4.10298 0.100561 -3.75116)
(10.2576 0.112909 0.0442028)
(10.6671 0.274425 0.44193)
(10.1818 0.0286688 -0.0298732)
(10.0031 -0.0373029 -0.00577335)
(9.9995 0.0477124 0.0661586)
(11.4345 0.818468 -0.592911)
(10.0704 0.0370897 0.00752651)
(10.2936 -0.766937 0.255886)
(9.98351 -0.0647154 0.0542899)
(9.9916 0.000559001 -0.00344948)
(9.91049 -0.0644076 -0.0727873)
(10.0561 0.0149672 0.0429943)
(9.40127 -0.14492 0.470241)
(9.95465 0.253503 -0.0370073)
(4.42803 0.0328754 1.13733)
(10.4736 -0.303288 0.0844969)
(9.62659 -0.200982 -0.195057)
(11.6115 -0.48475 -0.745892)
(10.9098 0.538851 0.282354)
(10.3293 -0.765762 0.378232)
(10.1272 -0.0366993 0.00140609)
(10.7025 0.23258 -0.0637984)
(10.1258 -0.115797 -0.0494884)
(12.0921 -0.0607951 -0.138285)
(10.4098 0.017726 -0.111636)
(10.1047 -1.02244 0.370207)
(10.0846 0.214214 -0.0394075)
(10.0172 0.00390948 -0.00232655)
(11.7832 0.0654529 0.815915)
(10.1382 0.035846 -0.0937893)
(10.332 -0.0128791 -0.0544672)
(10.0127 0.00858255 -0.0448275)
(10.0234 -1.01909 0.24311)
(2.98598 -0.370426 -6.21814)
(10.057 0.0520635 0.0538345)
(5.6739 0.131213 -10.7389)
(8.8966 -1.05762 -0.455491)
(9.98559 0.00131254 -0.0149211)
(10.6683 0.339487 -1.46428)
(7.37539 -3.57251 -2.3241)
(9.92978 0.0281331 -0.13657)
(9.88408 -0.0307816 0.0574754)
(10.7283 -0.404377 0.180824)
(9.95722 0.11125 -0.0711619)
(10.0424 -0.00727137 0.00938002)
(10.0353 0.249434 -0.046937)
(11.7665 0.0996243 -0.299502)
(1.2564 -1.83479 -1.93234)
(9.89093 -0.0339072 -0.0997272)
(7.4969 4.74999 1.45173)
(10.01 -0.0611868 -0.0135756)
(11.8648 0.520902 -3.76437)
(8.624 4.09627 1.15127)
(10.1501 -0.0224813 -0.00393248)
(10.0864 0.056289 0.0166339)
(9.30522 -0.881753 -0.42326)
(10.1695 0.104153 -0.0775634)
(9.30678 -2.84393 -0.968338)
(2.77991 0.785089 -6.89885)
(9.99279 0.018926 0.014681)
(10.0684 0.0366454 0.0329516)
(10.0404 -0.0659564 -0.0127292)
(2.56242 0.286961 -10.2303)
(9.99353 -0.0243469 -0.0175488)
(10.0249 0.0244718 0.0253633)
(9.89086 -0.0651672 0.0216391)
(9.98409 -0.0658836 -0.0379031)
(10.077 -0.0768715 -0.0966357)
(10.1347 -0.0408637 -0.0613434)
(5.5831 -0.362271 -0.165361)
(9.95854 -0.029088 -0.0618298)
(10.0737 0.0406362 -0.0313)
(10.0111 -0.00123932 0.0397376)
(10.0316 -0.104976 0.0232475)
(11.5887 0.494218 -1.19612)
(10.0091 0.0196397 0.00735591)
(9.90222 -0.0368514 0.00719009)
(10.7597 -0.217847 0.059152)
(10.026 0.000501935 -0.0112951)
(10.0159 -0.00874632 -0.0511357)
(10.9061 -0.201412 0.132772)
(10.1202 -0.136231 0.0457482)
(10.0747 -0.0126709 0.0209041)
(10.2156 -0.12032 -0.000209904)
(9.92711 0.0527659 0.0434332)
(10.6781 -0.29721 0.0620679)
(10.1682 -1.28792 -0.744505)
(10.3897 -0.0147624 0.0894081)
(10.0093 0.00736561 0.0586184)
(10.691 -0.229932 0.05051)
(10.0089 0.220791 -0.0817406)
(9.96327 0.0700079 -0.0165177)
(10.119 -0.0886085 -0.0962201)
(10.8198 0.0454007 0.09196)
(10.0138 0.143687 -0.0104853)
(10.0716 -0.0957357 0.0191557)
(10.3598 -0.00858609 -0.0145791)
(10.9029 -0.319912 -0.166789)
(10.5492 0.0257254 -0.0071108)
(10.3312 0.317833 0.980839)
(8.6747 -1.17454 -0.370941)
(10.0813 -0.0498309 0.00752226)
(11.3687 -0.0847606 2.14835)
(10.7679 0.0853221 0.146535)
(9.55349 -0.890945 -0.317143)
(10.5514 -0.0383709 0.0203972)
(10.3823 -0.0100442 0.123006)
(11.4033 -0.358471 2.09769)
(10.0737 -0.0557368 0.0484535)
(10.7855 -0.269557 -0.0733947)
(10.9256 0.507609 0.323945)
(11.3884 0.769909 -0.203862)
(10.5776 0.00146006 -0.024928)
(9.94521 0.000515668 0.109119)
(10.1811 -0.0688314 0.0192113)
(10.0063 0.0109481 0.0120284)
(10.0845 0.0433468 0.0104209)
(9.95808 0.165258 0.00527625)
(11.276 0.55575 1.83643)
(9.91328 0.0455555 -0.0299821)
(11.5556 0.525824 1.65013)
(10.0873 -0.00439212 0.00440297)
(9.93056 0.0229382 0.0713225)
(9.96369 -0.0212018 -0.0257058)
(9.97585 0.023751 0.0173511)
(11.526 0.123689 -0.177284)
(10.3611 0.27806 0.0209271)
(9.96216 -0.0329608 0.0412758)
(10.1989 -0.0349506 0.0388637)
(9.88582 -0.00952717 0.0349546)
(10.0074 0.02887 -0.0663665)
(9.89781 0.092911 -0.00851066)
(9.96649 -0.0340552 0.0717409)
(11.381 0.0516027 1.82178)
(10.1684 -0.0144634 -0.044114)
(10.0002 -0.0269066 0.00455805)
(9.97646 -0.0762575 0.0321594)
(9.9596 -0.0160955 0.050535)
(9.86963 0.0224166 0.0880413)
(10.1081 -0.0906352 -0.107272)
(10.5604 -0.384919 0.155531)
(10.0428 0.00611497 0.0121331)
(10.0009 -0.0558323 -0.134137)
(9.97824 -0.052126 -0.0219995)
(9.98518 0.0876004 -0.0748586)
(10.3056 0.0147683 -0.0482246)
(11.3251 0.24762 0.641174)
(9.83171 -0.318442 -0.0574164)
(9.91662 0.0182276 0.0301249)
(11.3923 0.260783 0.509195)
(9.86278 0.0174525 0.0811467)
(10.1848 0.162011 -0.0945065)
(9.99211 0.0824747 -0.049605)
(11.5968 0.637153 1.31222)
(11.1101 0.6823 1.5156)
(10.2346 -0.12172 -0.0112422)
(11.4575 0.351783 1.62789)
(10.2501 0.041393 0.0243863)
(11.5166 0.49246 1.47042)
(7.04698 3.21337 2.63882)
(11.0793 0.580617 1.58742)
(5.79723 1.17048 -4.69189)
(4.375 -5.8647 1.95722)
(10.105 0.0227181 -0.00823684)
(4.24763 -6.26422 1.21247)
(9.86621 0.144756 -0.0405848)
(9.971 -0.0323627 -0.115507)
(10.9059 -0.164168 0.105158)
(9.92311 0.0920533 -0.00633851)
(9.98254 -0.0544327 0.0402665)
(9.83919 0.107455 0.0453252)
(10.4312 -0.575066 0.0477925)
(1.37415 1.66978 -3.03717)
(9.24155 0.676184 0.164386)
(10.0033 -0.00094 -0.00236797)
(9.87533 0.0313927 0.0258212)
(9.97367 -0.0843421 0.0713243)
(10.8223 0.140444 0.444281)
(11.6755 0.254422 -0.0566511)
(10.1981 -0.475325 0.186719)
(10.0396 -0.0849607 -0.0475388)
(11.44 0.00758883 0.458811)
(9.91454 0.0875496 -0.0291189)
(10.1506 -0.0224932 0.0908097)
(9.99687 -0.135107 0.00719271)
(9.9897 -0.0898941 0.0862224)
(12.7618 3.50547 0.308438)
(7.52793 1.37231 0.803321)
(1.46168 1.08732 -5.76704)
(9.87601 -0.0158261 0.0332455)
(10.0355 -0.0290299 -0.0486689)
(9.9975 -0.570361 0.0528364)
(10.0192 -0.434603 -0.0773449)
(1.12654 -0.597233 -5.2667)
(10.0302 -0.0120226 -0.0133899)
(10.0429 -0.0216968 -0.0207938)
(10.6438 2.62117 1.61996)
(9.98994 0.0036181 -0.133312)
(9.95661 0.0264855 -0.0363472)
(9.85749 0.109176 -0.0675688)
(9.88398 0.0558601 0.0303658)
(13.6505 1.09272 -0.0752712)
(10.8749 2.33384 1.53645)
(10.0981 0.149603 0.100804)
(10.2127 0.117643 -0.0540294)
(10.0131 0.0894365 -0.112524)
(10.1105 -0.0839675 -0.100667)
(10.0655 0.0428651 -0.0596549)
(9.93389 0.0841445 0.0775369)
(10.0031 0.074827 -0.0691632)
(10.0131 -0.0435329 -0.0631935)
(10.0241 0.0180766 -0.0893547)
(10.9993 0.0612827 0.319787)
(12.1443 -1.95059 1.23846)
(10.2992 -0.668751 -1.07342)
(9.98577 0.047343 0.042557)
(9.95003 0.0172352 -0.0230651)
(9.92636 0.00401055 0.0210323)
(12.232 -1.33138 1.34726)
(9.92715 0.0212095 -0.188704)
(10.0721 -0.0339513 -0.0416094)
(9.95331 -0.0670509 -0.0205709)
(10.0556 0.209713 0.0552747)
(10.0189 0.192077 0.00344479)
(10.0891 -0.0255759 0.0529965)
(9.79769 0.153347 -0.0405342)
(10.1037 -0.0328648 0.0615536)
(9.83833 -0.0119901 -0.0724228)
(10.0783 0.0303097 0.0603906)
(9.66206 0.355806 -0.0530371)
(9.98147 0.100972 -0.0135688)
(9.95059 -0.0308015 0.0243039)
(10.0101 0.195037 0.0533883)
(10.3779 -0.414836 -0.0161676)
(10.0274 0.193402 0.0349623)
(9.85041 0.0525223 0.0101987)
(10.028 0.200368 0.134707)
(11.1526 -0.896177 0.0418237)
(10.0576 -0.0131084 -0.0620249)
(9.39926 0.251454 0.228961)
(9.9334 0.12816 0.0259288)
(10.0908 0.0849708 0.0185902)
(10.3046 0.176787 2.04023)
(10.8121 -0.617157 -0.427834)
(10.0421 -0.0325736 0.0595439)
(9.96769 0.0458422 -0.0547742)
(10.3342 -0.244352 0.103017)
(10.2099 0.305864 -0.0141954)
(9.95945 0.00399847 -0.0159604)
(10.0448 0.0247962 0.0699431)
(10.0267 -0.0829019 -0.0311352)
(10.1438 0.641717 -0.0850323)
(9.979 0.00227806 -0.0479178)
(-1.07136 -1.43433 -0.247275)
(10.3918 -0.0819506 0.0633187)
(10.0939 0.786292 -0.0192263)
(9.98537 -0.0257344 0.00679594)
(10.0782 0.693846 -0.0214689)
(9.79408 -0.193467 -0.382473)
(9.97405 -0.0856063 0.024063)
(9.99986 0.000664371 -0.00469338)
(9.75718 -0.0790678 -0.00519774)
(10.0144 -0.00683445 -0.00467629)
(10.0421 0.757493 -0.0584548)
(10.2002 -0.0304625 0.0319752)
(10.0818 0.0460763 -0.0280338)
(9.9634 -0.092274 0.0268083)
(10.0329 0.0379585 -0.000738937)
(9.9679 0.0937464 0.000885275)
(10.1004 0.181428 0.0509348)
(10.0821 -0.0712351 -0.0499292)
(9.9987 0.0140131 -0.0268472)
(10.4121 0.814023 -0.198699)
(10.2923 1.00368 -0.226612)
(10.118 -0.0122054 0.0161873)
(10.4765 -0.255595 0.131222)
(10.0202 -0.042947 -0.119779)
(10.3468 0.756821 -0.179726)
(10.0228 -0.0110966 0.0240549)
(9.92225 0.0239735 -0.0165188)
(11.7864 -0.502669 -0.697893)
(9.93469 0.0164112 0.0624326)
(10.341 -0.936818 1.73532)
(9.9903 -0.0838171 0.0164044)
(11.2498 -1.14215 -3.79196)
(9.95018 -0.0472463 0.0145106)
(10.5105 0.126633 0.000611762)
(9.94942 0.0500538 -0.100979)
(9.98927 -0.0620951 -0.064131)
(9.81379 -0.0247635 0.0500337)
(10.0875 0.00996678 -0.0418158)
(10.0471 0.0719221 -0.106272)
(10.2822 0.890504 -0.167578)
(2.2958 -1.88253 2.08507)
(2.23544 -0.449691 -2.15911)
(10.088 0.047302 0.0810948)
(10.2492 1.41948 -0.683457)
(10.5736 0.661301 -0.314275)
(10.6633 0.620146 -0.300309)
(9.99049 0.00798035 0.0571639)
(9.98839 -0.065265 0.017237)
(9.97705 -0.0166876 -0.0218443)
(9.95169 0.0739525 -0.0228628)
(9.99612 -0.0595675 0.00223856)
(10.1316 -0.0564902 -0.0247665)
(10.6333 0.583306 -0.176604)
(9.9652 -0.0338442 0.0140491)
(10.0076 -0.00293736 -0.0612548)
(10.757 -1.3147 0.570027)
(11.2002 0.524233 -0.158084)
(10.8501 0.502265 0.0174041)
(8.00628 -1.24941 -4.58696)
(0.0408723 5.86968 0.440051)
(10.2333 -0.208954 0.0439762)
(7.37898 -0.908523 -5.06071)
(0.158792 5.51294 0.727969)
(9.91074 -0.0138179 0.0289492)
(-0.0579917 5.94352 0.613871)
(8.81821 -1.96468 1.59973)
(10.0015 0.0882609 -0.0545558)
(10.8365 0.619957 -0.30988)
(10.8028 0.648919 -0.341449)
(11.0318 0.576072 -0.302471)
(-0.832433 5.67213 0.759969)
(10.1329 0.105942 -0.044569)
(10.0041 0.00365969 -0.0438588)
(10.0192 -0.0846616 0.0410243)
(11.0856 0.602124 -0.408132)
(10.9835 0.62381 -0.477235)
(10.0405 0.0298622 0.00530673)
(10.0551 0.0494901 0.0213586)
(9.90278 3.7898 3.2794)
(-0.834982 5.30341 0.511453)
(12.4693 -0.312973 -2.72918)
(10.0319 0.0257998 -0.00230348)
(8.66698 -0.70309 -2.8899)
(10.2658 0.224819 0.771374)
(10.0165 -0.0286727 0.0342972)
(10.6931 0.293678 0.0359187)
(11.559 0.409804 0.308863)
(10.6731 0.176088 0.0365879)
(10.0684 0.040529 -0.00439364)
(10.0064 -0.00211635 0.0072656)
(9.98334 0.00767281 -0.00175461)
(10.4399 0.289731 -0.0243324)
(9.99597 0.00252712 0.00126753)
(9.99402 -0.0395036 0.0789943)
(10.014 0.113567 0.0408254)
(9.95012 0.0727744 -0.0510044)
(10.8095 0.0700582 0.0712984)
(10.0427 -0.0656555 -0.0272941)
(10.0922 -0.0544213 -0.0542403)
(10.0751 0.0327476 -0.0142655)
(10.0196 -0.00529033 -0.00586149)
(9.93733 -0.1237 0.00792839)
(10.366 0.222711 -0.058292)
(10.2179 -0.0174971 -0.0947972)
(9.92048 0.0136617 0.0049429)
(10.7517 0.0812513 0.0420323)
(9.41312 4.59605 2.72361)
(9.98228 -0.126095 0.0294013)
(11.6782 1.64651 -1.1571)
(10.0089 -0.0215023 -0.0519347)
(10.4984 -0.23926 0.0079515)
(8.43512 -0.288011 1.05129)
(9.74049 1.35028 -0.416725)
(10.0027 -0.00782148 -0.0560383)
(9.81842 1.41671 -0.46542)
(10.0473 -0.0149787 -0.175428)
(9.9896 -0.00370106 0.0871722)
(9.98327 1.24009 -0.747405)
(9.97488 0.0500654 -0.18689)
(10.3442 -0.168614 0.00516615)
(9.88221 1.12383 -0.478921)
(10.1764 -0.0941933 0.0741159)
(10.3911 -0.0262303 -0.250106)
(8.09926 0.255714 -3.7001)
(10.0144 0.0400591 -0.0148809)
(9.66215 1.75195 -0.371422)
(9.95744 -0.0622583 -0.0221037)
(9.04889 1.93782 -0.780752)
(10.0706 -0.133595 0.00915882)
(9.919 -0.0619019 0.00424905)
(9.98299 0.0728332 -0.0296304)
(10.0112 -0.0152213 -0.034476)
(10.9868 0.518693 0.751526)
(9.9979 0.0194287 -0.0347826)
(9.99249 0.00544879 -0.023655)
(10.0396 -0.00259182 0.0467701)
(10.0306 0.0145088 0.0140405)
(10.9938 0.298336 0.113016)
(10.1009 -0.0393154 0.0191735)
(10.1151 0.000669585 0.0204109)
(8.73157 0.266197 -0.377009)
(10.0132 -0.00447102 0.0418984)
(9.88955 0.0276024 0.0412682)
(9.97627 -0.0826898 0.0451402)
(9.95819 -0.0624942 -0.0910112)
(10.0637 -0.0724596 -0.00412173)
(10.0537 -0.0103074 0.0412911)
(10.0836 0.033581 -0.0416404)
(10.2089 1.28766 -0.90564)
(10.0462 0.00871817 -0.00468486)
(9.97671 -0.00193975 -0.017698)
(2.85389 -0.281394 -5.26836)
(10.0045 0.0894051 0.0251309)
(10.0463 0.0399645 -0.0333058)
(10.0202 0.102816 0.00798347)
(10.021 0.0134949 -0.00785252)
(12.4253 1.06287 0.0342203)
(12.5083 0.686758 0.354702)
(9.96012 -0.0847179 0.0238115)
(9.86251 -0.03747 0.0799091)
(9.99144 -0.00167931 -0.0514174)
(11.0464 -0.207196 0.978557)
(9.87322 0.0482932 0.0627337)
(12.4429 1.39819 -0.0462781)
(9.98047 -0.0547807 0.0168973)
(-0.245202 -2.38993 3.35124)
(8.09454 -0.421579 -0.448175)
(9.58067 -0.672164 2.06032)
(9.99603 0.0604962 -0.0593639)
(12.3852 1.27309 0.0330618)
(10.0063 -0.00757501 -0.0491063)
(10.0722 0.0431643 0.0047478)
(10.0793 0.0257477 -0.0126366)
(9.99459 -0.000261895 0.0738751)
(10.0217 -0.00719139 -0.0294234)
(10.0816 -0.0665924 -0.0202669)
(8.71379 -0.384739 0.739437)
(9.97084 0.00104381 0.00771348)
(9.91714 0.120863 -0.0276939)
(10.008 -0.0271733 -0.0390389)
(12.3789 0.992873 0.0681346)
(10.0263 -0.0682232 0.0279848)
(10.068 0.0481018 -0.00372263)
(12.1912 1.09351 -0.0431774)
(12.0535 0.356125 0.258649)
(9.98139 0.101855 0.0195081)
(10.0267 -0.00468165 0.000974221)
(-0.457531 1.76178 1.30572)
(9.96664 0.0604371 -0.0431279)
(10.3032 -0.27528 0.0987404)
(9.96419 0.0604314 0.0154162)
(10.0346 0.0866514 0.059864)
(10.0696 -0.0099013 -0.00702826)
(11.7838 0.492264 0.0286203)
(10.8886 -0.119811 1.16765)
(9.449 0.565836 0.977681)
(10.0428 0.0285548 0.0363279)
(10.0537 0.0678473 -0.0336447)
(9.95717 0.0222331 -0.00546644)
(12.5314 -0.257961 1.08126)
(9.35477 0.138251 -0.287056)
(9.91933 -0.0479484 -0.0396466)
(-0.296459 1.63702 1.01565)
(9.98621 0.00797656 0.111145)
(10.0383 -0.0126338 0.0362219)
(-1.36089 1.6839 1.48543)
(11.7873 2.072 -0.990107)
(9.82304 0.127109 0.0277041)
(0.099352 1.72001 0.656671)
(-0.0579803 1.95352 1.19951)
(10.0177 0.0431858 0.0176309)
(9.94975 -0.023132 0.0355122)
(10.0275 -0.0185327 -0.0851051)
(9.74032 -0.334173 0.0916821)
(10.0102 -0.035618 0.0502789)
(9.87464 0.03081 0.00344784)
(12.3619 2.57811 0.832858)
(10.1749 0.213388 0.17381)
(10.059 0.130979 -0.0366926)
(10.0987 0.0205864 -0.0206602)
(12.408 0.166671 0.267697)
(11.7285 0.820593 0.0255475)
(10.0735 -0.131492 -0.086122)
(10.1954 0.265475 -0.153244)
(-4.59674 -2.2967 -0.617021)
(4.63053 -1.4802 -3.19603)
(10.6094 0.284787 -0.169324)
(9.96378 0.00665688 0.0658843)
(10.1745 -0.162782 0.132478)
(10.738 -0.158191 -0.615757)
(9.96429 0.0309184 -0.100062)
(9.92725 0.113293 -0.0854011)
(10.027 -0.0851967 -0.121438)
(10.2132 0.135115 0.00231209)
(9.9941 0.0122665 -0.00679902)
(10.5131 0.212578 0.234297)
(10.1059 -0.0330816 0.113342)
(12.4718 0.998374 -0.521134)
(10.2139 1.47439 -0.946969)
(10.4959 0.211894 -0.172078)
(12.5264 1.18445 -0.805381)
(10.3539 0.0299428 -0.144134)
(9.93473 -0.0214358 -0.0991016)
(10.5563 0.627263 0.166512)
(10.2622 0.00150155 0.0194206)
(9.97572 0.0595469 0.0378719)
(10.0566 0.016525 -0.00915983)
(10.4084 0.77746 -0.356217)
(7.93559 -0.664869 -1.07248)
(10.0405 0.00235458 0.0693139)
(10.5678 0.228885 0.0963947)
(9.99963 -0.0172442 0.0574193)
(13.2214 -5.2753 -1.43772)
(10.704 -0.515071 0.878941)
(11.2427 -0.17716 0.630688)
(6.10329 1.57094 0.428093)
(5.98514 1.57728 0.299399)
(10.0421 -0.034042 -0.0325575)
(9.9297 0.148689 0.116261)
(5.22645 1.36749 -0.166308)
(10.0537 0.00244264 0.00932003)
(9.80628 -1.68789 -3.04155)
(8.38363 0.268615 0.909616)
(9.97539 9.58275e-05 -0.0436603)
(9.82687 1.68803 1.01311)
(10.0734 -0.101727 0.00764376)
(10.0069 0.0819562 -0.0144417)
(10.0697 -0.019084 0.0569704)
(12.7002 0.354338 -0.103427)
(9.94187 -0.00403025 -0.00891708)
(9.98131 -0.0333414 -0.0135909)
(10.0226 -0.00931537 -0.020955)
(9.98117 0.0416716 -0.00321084)
(10.027 0.0174998 0.00843008)
(10.0044 -0.0231458 0.0594973)
(10.0237 -0.0145184 0.0585051)
(9.98889 0.0548015 -0.0520183)
(11.2103 0.535458 0.473301)
(10.3144 1.86762 -3.5369)
(14.0105 2.50385 0.579343)
(10.6468 0.268752 0.00754055)
(10.0081 1.08418 1.41684)
(10.0728 -0.0288433 -0.0977337)
(9.40082 -0.856468 0.22002)
(10.2755 0.0124915 -0.0534786)
(10.0058 0.00664016 0.0282841)
(10.0386 0.00479645 -0.00343795)
(10.0197 -0.00688294 -0.0237695)
(10.0152 0.0119986 0.0831525)
(9.13094 0.270656 -0.735762)
(11.4782 0.327352 0.235386)
(10.0085 0.012117 0.0260982)
(10.186 -0.366382 0.15306)
(11.8869 1.03255 1.68561)
(10.1094 0.004295 0.00376141)
(5.93473 -2.32119 3.20488)
(12.6682 -0.968841 -2.54042)
(9.89599 0.00384126 0.0353522)
(9.54623 -0.419335 0.182778)
(10.4831 -0.0725512 0.0931618)
(10.0518 0.0239574 -0.0196153)
(6.52284 -0.211666 2.75644)
(9.94904 -0.0088534 0.0110197)
(9.43106 -5.13999 1.20618)
(10.0918 0.131039 0.0218183)
(11.219 -0.320166 0.80799)
(11.6299 0.52599 0.0532665)
(10.0493 -0.00758129 -0.0721546)
(9.9772 0.100665 -0.00360683)
(10.3139 0.386671 -0.0530189)
(8.50992 -0.583482 -1.97791)
(9.8825 -0.0445742 0.0536912)
(9.97147 0.0700363 0.0898719)
(10.1572 0.000728984 0.0721056)
(11.7219 -0.0166611 0.586374)
(9.9964 -0.0127526 -0.00439426)
(11.798 0.540659 0.348042)
(10.1839 -0.00899446 0.0370848)
(3.79843 1.60438 1.33528)
(11.5758 0.467637 0.15094)
(10.1719 -0.00486848 0.0549348)
(11.6525 0.498766 0.262101)
(10.0271 -0.00791099 -0.014195)
(10.119 -0.0141012 0.00221034)
(10.4319 0.277674 0.00142459)
(10.1977 0.0146859 0.0206653)
(11.8197 0.599621 0.188518)
(9.98504 -0.0563648 0.0496777)
(10.0007 -0.276973 0.0495406)
(11.7042 0.538133 0.0988647)
(10.0121 -0.0170251 0.0159385)
(10.208 -0.0153324 0.0122)
(10.0076 0.00576458 -0.00688709)
(10.0418 0.0107178 0.0211905)
(6.80954 0.281404 -4.65867)
(6.61373 -0.210657 -5.19651)
(10.0832 0.0587795 0.398628)
(8.6904 0.318122 -3.77101)
(10.0259 0.00479184 -0.00342114)
(9.95608 -0.0137192 0.000766159)
(10.6187 0.499417 -0.250349)
(10.1854 -0.109383 0.101271)
(9.75978 0.057706 0.597584)
(10.0644 -0.010952 0.0172076)
(9.96511 -0.0265574 -0.0608704)
(10.0431 -0.0287975 0.0338578)
(9.93624 0.153806 -0.061438)
(5.17914 0.0838328 -5.81048)
(4.50923 -1.71321 -0.734917)
(10.0483 0.00806505 0.00510688)
(10.0036 0.0890836 -0.0303548)
(9.89617 -0.0668475 -0.00564372)
(9.98064 -0.0365968 0.0236819)
(10.0448 -0.0624036 0.00536809)
(10.0952 0.0341235 0.00661118)
(10.8467 -0.176192 0.148045)
(11.3031 -1.5054 2.28601)
(10.0268 0.0076612 -0.00784617)
(10.0165 -0.0715078 0.0179287)
(10.1025 0.0163273 0.0758569)
(10.0111 -0.0202733 0.0731176)
(9.88251 0.123813 -0.00852079)
(10.0453 -0.0222323 0.107325)
(10.367 -0.117244 0.0237223)
(10.0117 0.0133431 0.00839614)
(10.0155 -0.0616334 -0.0665002)
(10.1211 -0.0814221 0.049908)
(9.181 -0.791067 -0.962329)
(5.09798 0.573179 -4.27504)
(9.94408 0.00238756 -0.0258678)
(-0.536597 -1.55298 1.14988)
(9.95481 -2.59949 1.38347)
(12.6907 -1.37683 -0.890508)
(-0.320406 -1.65674 0.753768)
(10.0563 0.0476159 0.00572469)
(8.65677 -0.161949 0.769386)
(10.2784 -0.495964 -2.26352)
(11.0385 -1.07474 0.437745)
(5.5836 0.265527 -3.29859)
(-0.35055 1.67581 2.35024)
(1.37406 0.423061 -2.88828)
(11.1897 -0.011891 0.504325)
(10.4809 -0.0217209 -0.005847)
(11.0608 -0.0206408 0.973664)
(10.07 -0.0209197 -0.0170995)
(3.8864 -0.265563 0.168307)
(10.5835 -0.039502 -0.326659)
(10.4451 -0.00183983 -0.0166551)
(9.9673 -0.0130986 0.0108512)
(10.1033 -0.0522429 0.0113259)
(11.0771 -0.186424 0.8203)
(9.76939 0.134506 -0.00275879)
(10.1074 0.0581405 0.0747956)
(9.98713 0.022695 -0.0542128)
(-3.09756 0.74156 0.616814)
(8.09663 0.254062 -2.1443)
(10.1343 0.013834 -0.0721122)
(10.0018 -0.0228788 -0.00838157)
(5.11701 0.295228 -1.90234)
(5.90129 0.134992 -2.59599)
(10.4594 0.445545 -2.11477)
(-2.15957 -3.50676 -1.46026)
(4.89678 1.25869 0.404285)
(4.26944 0.111708 -3.33812)
(3.96355 0.0436652 -4.21331)
(10.0484 0.0178159 -0.0150168)
(9.89513 0.0136067 -0.0207683)
(9.55746 -0.0432206 0.169035)
(9.92926 -0.0378466 0.0272822)
(10.3651 0.0374346 -0.0746143)
(-0.560083 1.78187 1.42579)
(10.717 -0.112577 -0.251743)
(10.3819 0.0217796 -0.0658309)
(10.3694 0.0125805 -0.0133331)
(10.0469 -0.0438941 0.0313028)
(-0.363123 1.7206 2.16973)
(-0.124822 1.89236 2.21018)
(9.92703 -0.0582939 0.0378083)
(10.3356 -0.0436103 -0.0217903)
(9.94887 0.0315772 0.0821103)
(9.91232 -0.0101729 0.0174525)
(10.3583 -0.0348984 -0.00468071)
(9.97855 0.0198849 0.0415787)
(9.68536 0.00768462 0.00915257)
(10.0567 -0.0194417 -0.048126)
(9.95884 -0.0316401 0.00117405)
(6.76619 -0.608495 -2.75093)
(9.90708 0.00439208 -0.0602016)
(9.9898 0.0333745 0.0375476)
(10.0099 -0.0962624 0.0439056)
(10.0082 0.0679491 -0.00529172)
(10.0391 0.00830843 -0.0334215)
(4.09049 -0.444476 -1.95818)
(12.3575 -1.23602 -0.0720055)
(10.0014 -0.020563 -0.0283761)
(10.5165 0.408887 -0.186858)
(10.0627 -0.0512123 -0.0307918)
(9.80847 -0.380038 0.201875)
(9.71839 -0.422899 0.323686)
(11.7163 -0.0239328 -0.0441219)
(10.0184 -0.105619 0.04193)
(-1.01613 -0.819726 3.23444)
(11.8576 -0.0931235 -0.0619802)
(10.3566 0.144149 -0.00405047)
(10.5754 0.178413 0.0214574)
(8.05044 0.283454 -3.04126)
(13.898 1.67654 0.370718)
(10.0334 -0.0811882 -0.0308958)
(10.0388 -0.102116 -0.00231767)
(12.2501 1.24186 1.78802)
(10.0214 0.0248824 -0.121781)
(10.0433 0.0200162 -0.0291143)
(11.2692 0.308615 0.351703)
(9.99167 -0.117034 0.00771858)
(9.97551 0.0207716 0.00575109)
(0.777285 -0.891152 0.905373)
(12.2063 -0.321548 0.408577)
(12.9165 2.56016 0.487617)
(10.0135 0.00135603 0.00605039)
(7.64256 0.483636 -2.25931)
(9.98977 -0.106168 -0.0659263)
(11.4023 -0.899096 -0.204763)
(9.60362 -0.371213 0.444995)
(11.7793 -0.0383739 -0.0295696)
(10.2143 0.102625 0.0139027)
(9.42421 -0.364779 0.418251)
(3.06447 0.966518 1.67885)
(12.3492 1.36447 2.23634)
(11.985 -0.330907 -0.734098)
(-1.07331 1.88607 2.67696)
(11.6921 0.308449 0.0602195)
(10.3084 0.0866037 0.108164)
(10.1362 0.0241136 -0.0549737)
(11.6373 0.77638 -0.140619)
(9.98919 -0.0475809 0.0586478)
(11.9406 -0.0415285 0.0993628)
(-0.154895 -0.911937 2.28601)
(9.97595 -0.0136695 0.0797029)
(12.2295 0.0179538 -1.06781)
(9.95139 -0.0335386 -0.0728836)
(10.0015 -0.0378188 -0.0682795)
(11.3735 -1.9987 1.55438)
(10.1227 -0.0532319 -0.0199612)
(9.9912 -0.0689903 -0.0856041)
(8.5005 -5.69641 0.544442)
(9.58882 0.413806 0.011982)
(9.95271 -0.183809 0.139355)
(12.2098 -0.843608 0.294931)
(10.2672 1.26523 1.42796)
(10.1096 -0.125773 0.0180106)
(11.8747 -2.09057 -0.401672)
(5.38974 -0.678288 0.227936)
(10.4 0.0450787 0.097251)
(9.50686 -0.657549 -0.625257)
(10.0255 0.00945825 0.00844438)
(10.1843 0.127167 0.0241297)
(10.1593 -0.0696767 0.0685127)
(10.1283 -0.0498567 0.0337523)
(4.57607 1.83922 -2.75944)
(0.715626 -1.34255 1.48172)
(11.7202 0.155845 -0.577653)
(9.68561 -1.20996 -0.117308)
(11.4857 -1.99126 -0.0287248)
(3.46775 5.84153 -0.75773)
(0.243096 -0.0938571 -1.45365)
(10.3065 -3.34662 4.34622)
(10.0993 -0.0299686 -0.0565857)
(10.0225 0.043826 -0.00148145)
(9.9548 -0.0266294 0.00935882)
(10.0151 -0.120057 -0.1138)
(6.93375 0.547945 -1.8434)
(9.68189 -0.523906 0.332918)
(9.26541 -0.468135 1.29897)
(9.94796 0.0370061 0.0337768)
(-1.49865 -1.021 0.821019)
(11.877 -0.0387166 -0.00910465)
(9.85867 0.208955 -0.0256903)
(10.0504 -0.0230929 -0.068941)
(10.0276 0.00207371 0.00583046)
(10.0242 0.0239274 -0.114449)
(6.18548 -1.75926 -2.77371)
(10.0142 0.042429 0.0147666)
(6.96518 5.89606 -0.13698)
(10.0297 -0.140221 0.0285999)
(9.992 -0.594214 -2.74827)
(10.0044 0.00279544 0.00626064)
(10.04 -0.0111685 0.00562542)
(10.0817 0.00885564 0.100726)
(10.164 0.0498679 0.0449018)
(9.96661 -0.00475558 -0.0169598)
(12.8096 0.333871 -0.238559)
(12.2643 0.0329494 0.247788)
(9.31401 1.18641 2.63757)
(7.4732 3.99071 2.7683)
(9.48351 0.883254 0.630872)
(10.2282 0.45397 -0.050712)
(11.1463 0.7081 0.187726)
(6.34452 -0.291683 -2.59124)
(10.3316 -0.106175 0.0466821)
(10.6883 0.0603413 -0.0741462)
(10.1381 -0.491185 0.0980072)
(11.6404 0.0650886 -0.0376267)
(9.24505 0.159414 5.00392)
(7.3452 -0.447959 0.580022)
(10.3048 -0.246407 0.170677)
(10.0019 0.0315176 0.013323)
(9.58406 0.870896 -0.17612)
(10.0535 -0.0126485 0.00162054)
(10.0731 0.049384 0.00887705)
(14.4034 -1.89678 1.82887)
(11.8815 -0.733173 0.642582)
(-0.567645 3.62098 0.266537)
(10.1768 -0.713193 0.291619)
(11.6248 -0.858696 -0.188996)
(10.2922 -0.954953 -0.912639)
(13.1307 0.163748 -1.21005)
(10.1061 -0.0958331 0.0705837)
(-1.21453 -1.3147 -0.501981)
(10.0249 0.0170892 -0.0889636)
(10.0044 0.0486194 -0.0529112)
(10.7491 -0.13981 0.709978)
(10.8036 0.191733 5.27207)
(10.1774 -0.055144 0.0260605)
(10.0603 0.468065 -0.318269)
(10.0709 -0.0162161 0.04564)
(10.725 -0.935104 0.623754)
(10.9728 0.00886317 0.954814)
(10.0215 -0.00282501 -0.0203405)
(10.7766 -0.442407 -2.70918)
(10.2686 -0.648678 -3.08672)
(12.8591 0.150057 0.590161)
(10.244 0.418287 -0.120654)
(9.69794 0.0176606 0.320558)
(3.17232 0.690766 -3.18254)
(1.15424 0.489381 3.85799)
(5.52635 3.13514 1.04373)
(12.6739 -0.820084 -2.40489)
(5.75682 -0.376571 -0.0800787)
(9.95228 -0.0264803 -0.183176)
(9.93059 -0.037267 0.0088873)
(8.70138 1.47811 2.99103)
(10.0139 -0.0949105 0.133918)
(4.60156 -0.605159 0.222891)
(9.99645 -0.0745019 -0.173473)
(9.99579 -0.0411533 -0.187149)
(-2.34016 2.04164 -0.473981)
(9.72165 -1.07825 0.959826)
(10.8159 -0.183446 0.181768)
(10.0705 -0.0499445 0.0254634)
(9.80208 0.0627137 0.0674777)
(8.22801 0.306762 -2.49296)
(10.0114 0.0618762 0.136337)
(10.0136 -0.00735956 0.00979165)
(10.2443 0.586375 1.02729)
(11.9621 -0.730444 -2.5125)
(10.2793 0.267343 0.127784)
(9.86399 0.143203 0.00169083)
(9.87601 -0.139184 0.0452422)
(9.95982 0.00757104 -0.0519887)
(9.91089 -0.0707503 -0.0208586)
(11.6014 -0.737069 -1.62293)
(11.5725 0.0578492 -0.101747)
(8.45421 0.0202686 0.237109)
(9.86008 -0.861619 0.609268)
(9.7952 -0.0884024 -0.0183274)
(10.0421 -0.070203 -0.0517157)
(9.87582 -0.0415796 0.0188121)
(9.91372 -0.0429506 0.000665161)
(10.4209 0.795817 0.323994)