/*--------------------------------*- C++ -*----------------------------------*\
| =========                 |                                                 |
| \\      /  F ield         | OpenFOAM: The Open Source CFD Toolbox           |
|  \\    /   O peration     | Version:  2506                                  |
|   \\  /    A nd           | Website:  www.openfoam.com                      |
|    \\/     M anipulation  |                                                 |
\*---------------------------------------------------------------------------*/
FoamFile
{
    version     2.0;
    format      ascii;
    arch        "LSB;label=32;scalar=64";
    class       volScalarField;
    location    "0.0689058";
    object      nut;
}
// * * * * * * * * * * * * * * * * * * * * * * * * * * * * * * * * * * * * * //

dimensions      [0 2 -1 0 0 0 0];

internalField   nonuniform List<scalar> 
3991
(
0.00247994
0.000966816
0.00647896
0.00298966
0.00054055
0.00287347
0.00100224
0.000546793
0.00331528
0.00155807
0.00158545
0.00518415
0.00268763
0.00378048
0.000985311
0.00276441
0.00286235
0.00191217
0.00185038
0.000644807
0.00193874
0.00107343
0.00124321
0.00213261
0.00161494
0.000740529
0.000697517
0.00126948
0.00432716
0.00665367
0.0018503
0.00175658
0.00190709
0.00198655
0.00257064
0.00109431
0.00117865
0.000234112
0.00527598
0.00158824
0.00146291
0.00278409
0.00164303
0.00273676
0.00293804
0.00040798
0.000229072
0.00651121
0.00188334
0.000867031
0.000885816
0.0013627
0.00108589
0.000943615
0.000968304
0.00457599
0.00688948
0.00424917
0.00228356
0.002864
0.000746498
0.000568867
0.000887514
0.00112396
0.00395424
0.0031672
0.00289828
0.00165232
0.00114667
0.00572285
0.00110444
0.00456252
0.000962743
0.00328632
0.00119918
0.00301708
0.000957764
0.000723863
0.00587789
0.000983769
0.00638119
0.00163034
0.00123176
0.00312308
0.00109798
0.000443692
0.00328362
0.00273788
0.00091333
0.00453934
0.00293158
0.00175915
0.000916327
0.000468913
0.00200649
0.000583784
0.00050475
0.00107316
0.000950016
0.00270709
0.0046828
0.00469027
0.00148621
0.00701836
0.00416811
0.000343352
0.00234836
0.000491148
0.000287727
0.00231944
0.00119965
0.00202669
0.00098665
0.00390754
0.00531762
0.000453874
0.000452532
0.00124329
0.00506839
0.00100395
0.000544282
0.00121089
0.0045408
0.00193329
0.0011683
0.00158372
0.00195813
0.00224106
0.000869453
0.00150814
0.00316824
0.0012727
0.00263207
0.00549509
0.00393519
0.00468577
0.00587392
0.00483199
0.00318679
0.00117293
0.00182364
0.000612226
0.000527551
0.000712265
0.00181651
0.00149606
0.00376658
0.000842891
0.000601379
0.00065971
0.000658081
0.000283881
0.000162634
0.000513476
0.00132238
0.000737426
0.000947609
0.000514985
0.000376649
0.00105105
0.00201773
0.000615295
0.00390315
0.000820249
0.000412423
0.00128804
0.00249607
0.00165039
0.0020615
0.00216529
0.0025106
0.00214004
0.000446285
0.00076825
0.00056273
0.000443946
0.00242009
0.00527816
0.00523943
0.00201235
0.00144193
0.00115834
0.0008285
0.00100529
0.00313416
0.00384995
0.00341357
0.00260135
0.00334572
0.000385535
0.00132566
0.00205554
0.000248653
0.000667226
0.000832302
0.00155574
0.00365591
0.00398526
0.000376028
0.00454926
0.00290805
0.00105871
0.000915521
0.00206431
0.00201436
0.00088555
0.00138782
0.00149238
0.00170066
0.000839689
0.000486471
0.00225681
0.00150477
0.000794422
0.00276923
0.00271051
0.00470432
0.000810773
0.000487605
0.00121299
0.00129327
0.000897776
0.00109731
0.000913399
0.00107985
0.000783996
0.00121813
0.00452815
0.0039267
0.000491593
0.00163808
0.00303482
0.000665092
0.000873169
0.00390365
0.00227574
0.00490393
0.00197259
0.00293486
0.00057337
0.00103946
0.000535676
0.0016129
0.00492702
0.000511526
0.00259669
0.00516935
0.00462325
0.00227442
0.00186393
0.00292172
0.00424031
0.0030243
0.00439342
0.00444246
0.0026459
0.00212763
0.00063662
0.00122512
0.00106945
0.000363778
0.000778557
0.000726394
0.000585405
0.00355795
0.00028876
0.000765626
0.00206609
0.00250752
0.00233723
0.000312076
0.00116877
0.00325775
0.000557
0.000201852
0.00113184
0.00458116
0.00267467
0.00557447
0.00166059
0.00116736
0.000465382
0.00335675
0.000473352
0.00404119
0.00168755
0.00437535
0.000822004
0.000772973
0.00201054
0.00032888
0.00122969
0.00435725
0.000308972
0.00267093
0.0038504
0.00125857
0.00369359
0.00206629
0.00310565
0.00507051
0.00615777
0.00177369
0.00262113
0.00355706
0.00100002
0.00453675
0.000192937
0.00190399
0.0009725
0.00534926
0.00415529
0.0044407
0.00541239
0.000431728
0.000753544
0.00114272
0.00405527
0.00136952
0.00260066
0.00153412
0.00197081
0.00376526
0.00226744
0.00184506
0.00117071
0.00261447
0.00337452
0.00243522
0.00131027
0.00108906
0.00113219
0.00381877
0.00176732
0.00180716
0.0027831
0.000425397
0.00343697
0.00115209
0.00189333
0.00177292
0.00332693
0.00165387
0.00300968
0.00578676
0.00186233
0.00163435
0.000767927
0.000686806
0.00195732
0.00132154
0.0034057
0.0043199
0.000184053
0.00150065
0.000362316
0.00182774
0.00440604
0.000597847
0.00128336
0.00252921
0.00162906
0.00140118
0.000649394
0.00140284
0.00107745
0.00144686
0.00127328
0.00403376
0.00229375
0.000657903
0.00189732
0.000550662
0.00078426
0.00456177
0.000574716
0.00149172
0.00235008
0.00108114
0.00188296
0.000888678
0.000453574
0.000466324
0.00333102
0.00141838
0.00191387
0.000963715
0.000345305
0.000769796
0.00108836
0.00224294
0.000913204
0.00256633
0.00276658
0.00474497
0.000664096
0.00468666
0.00633533
0.00175289
0.00240433
0.00300796
0.00100129
0.00147225
0.00196969
0.00121069
0.00365185
0.000438985
0.000317668
0.00081252
0.00267358
0.00204287
0.00148904
0.00103323
0.000616149
0.00192797
0.00179926
0.00329336
0.00117867
0.00284657
0.00246045
0.00203681
0.00174879
0.0020373
0.0040095
0.0061471
0.00191005
0.00145935
0.000789626
0.00129347
0.00405734
0.000861396
0.00213803
0.00132036
0.00447434
0.00557486
0.00620019
0.00480361
0.00463765
0.00169635
0.00168557
0.0022136
0.00292317
0.00231846
0.00169881
0.00321221
0.00513722
0.00416068
0.00309833
0.00148969
0.00139733
0.000716971
0.000783401
0.00077938
0.00193572
0.00265031
0.00124536
0.00159728
0.00281085
0.00262225
0.00229963
0.00174211
0.00289949
0.00202547
0.00176612
0.00127262
0.00239448
0.00166919
0.00306057
0.00284786
0.0010261
0.00153943
0.000904238
0.00115595
0.00136257
0.000934198
0.00124683
0.00285439
0.00210498
0.00183013
0.00169829
0.000965901
0.00034114
0.000272947
0.000706539
0.000845823
0.00104894
0.00041888
0.000582128
0.00030736
0.00128081
0.00120583
0.0050181
0.00170855
0.000436232
0.000713724
0.000739912
0.000475119
0.000223507
0.00267611
0.00307221
0.00504995
0.00288223
0.0025521
0.00327639
0.00626026
0.00681526
0.00214131
0.00685393
0.00468846
0.00345654
0.00452249
0.00508143
0.00448412
0.00683448
0.0048462
0.00679886
0.00275316
0.00152593
0.00201487
0.00154196
0.00267096
0.0010961
0.00218922
0.00296945
0.00198643
0.00098391
0.000905557
0.00125449
0.00113026
0.0014255
0.0014158
0.000793734
0.00215977
0.0017462
0.000708031
0.00110048
0.00087568
0.00131606
0.000778013
0.000896731
0.000817039
0.000917485
0.00024922
0.000597154
0.000542785
0.000792501
0.00360836
0.000953605
0.00176368
0.000871127
0.000640686
0.00402059
0.00405094
0.00633921
0.00314651
0.0025312
0.00309697
0.00368054
0.00272486
0.00206095
0.00225646
0.000829347
0.000868194
0.000795173
0.00105559
0.000514971
0.000729355
0.000815609
0.00128578
0.00139572
0.00119646
0.000748552
0.00161744
0.000371397
0.000763941
0.000314634
0.00261826
0.00193176
0.00360092
0.000988021
0.00146101
0.00193925
0.000309058
0.00126998
0.000702466
0.00180928
0.000894329
0.000192367
0.000681915
0.000662358
0.00211842
0.00285809
0.000879781
0.000469998
0.000783348
0.000357257
0.00442367
0.0011946
0.000821888
0.00351588
0.000592263
0.00114444
0.00173126
0.0004133
0.00141781
0.00415746
0.000920585
0.000869272
0.000911059
0.000751311
0.000739136
0.00227878
0.00149526
0.002106
0.0013451
0.000868429
0.00149382
0.00030179
0.00354232
0.00285095
0.00184348
0.00343956
0.00240906
0.00320551
0.00553869
0.000610112
0.00337344
0.00101349
0.00500598
0.00540704
0.00200507
0.00297542
0.00211578
0.00294061
0.00376017
0.00312309
0.000810697
0.00091801
0.000667957
0.00293133
0.00265814
0.00256049
0.000796965
0.000327709
0.000560065
0.00118943
0.00105819
0.00179574
0.00366837
0.000527483
0.00185234
0.000750778
0.00216104
0.0012513
0.000252354
0.000550483
0.00380212
0.000655193
0.00243469
0.00263701
0.00175689
0.00148954
0.000737174
0.00105577
0.00452567
0.00107126
0.00207824
0.001984
0.00102249
0.000278377
0.0016661
0.000891263
0.000544001
0.00416556
0.000757961
0.00326167
0.00419562
0.00172877
0.000812577
0.00192488
0.00111902
0.00088746
0.00213007
0.00281783
0.003097
0.00057921
0.00166787
0.000789092
0.000841767
0.000821844
0.00091765
0.00334147
0.000265539
0.00457214
0.00185727
0.00104495
0.000917789
0.000667495
0.00362571
0.00258882
0.00235916
0.00704245
0.00416216
0.00507652
0.000547414
0.00118344
0.000965565
0.00103156
0.00128784
0.00508726
0.00146367
0.00445557
0.00100318
0.00423666
0.0022698
0.00281685
0.00590176
0.00181664
0.000824079
0.0014786
0.00402067
0.00576306
0.000863063
0.000839478
0.000620978
0.00120168
0.000886399
0.00160372
0.00138447
0.00215157
0.000830109
0.00177252
0.00136807
0.00140741
0.00153135
0.000780476
0.00113401
0.000358945
0.000546228
0.00060171
0.00100862
0.00142425
0.0010113
0.000474196
0.000540776
0.000700013
0.00153772
0.00062195
0.0012938
0.000612677
0.000620265
0.000990797
0.00143864
0.00069099
0.000586003
0.00111445
0.000419272
0.000878492
0.000548562
0.000749978
0.000869008
0.00106038
0.00147724
0.00502451
0.00223637
0.00111109
0.000347864
0.000557862
0.00121761
0.00254128
0.000843669
0.00386131
0.00404513
0.00405471
0.00122383
0.00391093
0.00533627
0.002991
0.0038026
0.00231284
0.00352777
0.00399396
0.0042888
0.00407859
0.00609179
0.00400262
0.00357059
0.00603378
0.00702294
0.00674385
0.00289071
0.00580991
0.00134952
0.00456349
0.00385068
0.00215638
0.0026983
0.00213647
0.00284958
0.00181236
0.000924346
0.00143086
0.000730005
0.000950365
0.000592006
0.00124614
0.00130055
0.00110422
0.000815625
0.00086459
0.00165442
0.00250808
0.0012455
0.00196963
0.0028016
0.00177332
0.0020513
0.00183211
0.00177671
0.00181713
0.000646697
0.000773523
0.000736873
0.000839718
0.00105744
0.000920953
0.00334096
0.00208265
0.00433435
0.00191728
0.00176012
0.00267308
0.00391616
0.000821032
0.00118202
0.00195786
0.00137423
0.00129799
0.00114584
0.0022494
0.00215042
0.000548946
0.000895197
0.000944715
0.000576115
0.00488556
0.00144575
0.00500066
0.004889
0.00184606
0.000631915
0.00132851
0.00339003
0.00306469
0.000542089
0.00201866
0.00101912
0.00183944
0.00257596
0.00468874
0.00190536
0.0013365
0.00131544
0.00206617
0.00230545
0.00246243
0.0020353
0.00274271
0.00479918
0.000491996
0.000777395
0.00169078
0.00162422
0.00188111
0.0025891
0.00122266
0.00125593
0.00121013
0.000768916
0.00179315
0.0012649
0.00110906
0.00270297
0.00263926
0.00240078
0.0024577
0.000603991
0.00166121
0.00515431
0.000802114
0.000542199
0.00248597
0.000978449
0.000588152
0.000979337
0.00107971
0.00147782
0.00146489
0.000835605
0.000835205
0.00295807
0.00374198
0.00234682
0.00356584
0.000200382
0.000959971
0.000825533
0.00274454
0.00216612
0.0022556
0.00330281
0.00124629
0.00631411
0.000617219
0.00423184
0.00375772
0.00223249
0.00161411
0.00552953
0.00132956
0.00341464
0.00092333
0.00156167
0.00213879
0.00100458
0.00233393
0.00245917
0.00226879
0.000495512
0.00569372
0.0046298
0.00471164
0.00458645
0.00611278
0.00111518
0.00290911
0.00104886
0.00179222
0.00162033
0.000357493
0.000384204
0.0025549
0.000610281
0.000817089
0.000816549
0.00326042
0.00124007
0.0010722
0.000523332
0.000341721
0.000993654
0.00131271
0.00118331
0.00118216
0.00203166
0.000837773
0.00435707
0.000186752
0.000713762
0.00303193
0.000691978
0.00180618
0.000891379
0.00223205
0.00119912
0.00168124
0.00445976
0.00234819
0.00169908
0.00119592
0.000846718
0.00137383
0.00329514
0.00133986
0.00455178
0.00135471
0.000495837
0.000939831
0.00162043
0.00217738
0.00144929
0.00122113
0.00112564
0.00258848
0.00314581
0.00307849
0.00462554
0.00405442
0.00418087
0.000572653
0.00566753
0.00314728
0.00355412
0.00615583
0.000955322
0.00120875
0.000683432
0.00193977
0.00168661
0.00314993
0.00450946
0.00162577
0.00104167
0.00285785
0.00404387
0.00105064
0.000811065
0.00223908
0.00669038
0.00558096
0.00218088
0.00303402
0.00276714
0.00178217
0.0017964
0.0016324
0.000909573
0.000518904
0.00372711
0.00472793
0.00414691
0.00142121
0.00221252
0.00248844
0.00261209
0.00288733
0.00654299
0.00168169
0.000135655
0.000630878
0.00110479
0.000893168
0.00149888
0.00362124
0.00398536
0.00221558
0.00118634
0.0014639
0.00248209
0.00203046
0.00291356
0.000529102
0.00223693
9.48348e-05
0.00091871
0.000787044
0.00136026
0.000778148
0.000891099
0.00100312
0.000550335
0.000814995
0.000363929
0.000730214
0.00135537
0.00199954
0.00193307
0.00111579
0.00106913
0.000869889
0.00158427
0.000301357
0.000204625
0.00129341
0.000594271
0.00438206
0.00282919
0.00365501
0.00230126
0.0040685
0.00632085
0.00518055
0.00522034
0.00445501
0.000718666
0.000707212
0.00212013
0.00120912
0.00191355
0.00136097
0.00048695
0.00031299
0.000112266
0.000212338
0.000238238
0.000101745
0.000577771
0.00356227
0.000493458
0.00144654
0.000420394
0.00200678
0.00100701
0.000891264
0.00252515
0.00357585
0.00228904
0.00211125
0.00121826
0.00636455
0.00646672
0.00361664
0.00155687
0.00124509
0.00227624
0.00226598
0.000884706
0.00451776
0.00199956
0.00478664
0.00179794
0.00223389
0.00185229
0.00108882
0.00161876
0.00503451
9.37528e-05
0.00088684
0.000261717
0.000789367
0.000245076
0.000575958
0.00224765
0.00150401
0.00153755
0.000833534
0.0013701
0.00349964
0.00381655
0.00376673
0.00297556
0.00291136
0.00217533
0.00318855
0.00253431
0.0023371
0.00192043
0.00285545
0.0020548
0.00230962
0.00341855
0.000773005
0.00146465
0.00070574
0.00148371
0.00123098
0.000959682
0.000898953
0.00216772
0.00160681
0.000995986
0.00104799
0.00109827
0.00109984
0.0008267
0.000880036
0.00160554
0.00328375
0.000796965
0.000456821
0.00054463
0.00168582
0.00031664
0.00182054
0.00129994
0.00472018
0.00560368
0.00520073
0.00516567
0.00490411
0.00498237
0.00355275
0.00525879
0.000487712
0.000480745
0.00024743
0.000542551
0.000452389
0.000491398
0.00104025
0.00110339
0.000921203
0.0010083
0.00217689
0.000972733
0.00133774
0.00160287
0.00130951
0.000635598
0.00049588
0.00116068
0.000909659
0.000860693
0.00105011
0.000802676
0.000669204
0.000852585
0.000595661
0.000685921
0.000759667
0.000607443
0.000776755
0.00426098
0.00601308
0.00266422
0.00223704
0.00190729
0.00093785
0.000618098
0.000287823
0.0015703
0.000502447
0.000420566
0.00143464
0.000918991
0.000619452
0.00121557
0.00129687
0.00358109
0.000790035
0.00158323
0.000705798
0.000510619
0.00083279
0.00152023
0.00179044
0.000955724
0.00200903
0.00210789
0.00232623
0.00172322
0.00205448
0.000301734
0.000208567
0.00129022
0.000875991
0.00320536
0.000525323
0.000411084
0.000433616
0.000424159
0.000324732
0.000434257
0.000796736
0.00307172
0.00129846
0.00195014
0.00183026
0.00214224
0.00151257
0.0021309
0.00154727
0.00114713
0.00073862
0.000940292
0.00098442
0.00177957
0.00142359
0.000440233
0.000870198
0.0054952
0.00517466
0.00705086
0.00107135
0.00649825
0.00643503
0.00155705
0.00313216
0.00252745
0.00505248
0.00219904
0.00274184
0.00379932
0.00209688
0.0016791
0.00246946
0.00250721
0.00196866
0.00152983
0.00537681
0.00377698
0.00542148
0.00199083
0.000677578
0.000566071
0.000562108
0.00112787
0.000618325
0.000532915
0.00472348
0.00371765
0.00572385
0.00127649
0.00300602
0.00579617
0.0023611
0.00146828
0.00103402
0.000770949
0.00509066
0.00565091
0.00103143
0.00183851
0.00317553
0.000514815
0.00206733
0.00528228
0.00154093
0.00652177
0.00148798
0.000863705
0.00092333
0.00266685
0.00214305
0.000677923
0.000612742
0.00680611
0.00342107
0.00116475
0.00453494
0.0014342
0.00081653
0.00150388
0.00716247
0.00396753
0.00335974
0.00422421
0.0055285
0.00359795
0.001957
0.00545126
0.00516313
0.00177754
0.00139396
0.000589959
0.000478482
0.00107815
0.000242895
0.000563956
0.00438982
0.000725307
0.00126578
0.00337287
0.001663
0.00082764
0.00300633
0.000964695
0.000826623
0.00472385
0.00481769
0.00449169
0.00241234
0.00387616
0.00111295
0.00197253
0.00655107
0.00248986
0.00211945
0.00254422
0.000749166
0.00108079
0.000747185
0.00127631
0.00137551
0.000274389
0.00264899
0.00100179
0.000396673
0.000719637
0.00125349
0.000165356
0.000968735
0.00041155
0.000387034
0.00429727
0.00226893
0.00112123
0.00438264
0.00273168
0.00203099
0.00438907
0.00232652
0.00134255
0.00270736
0.000455607
0.000296642
0.000508346
0.0014667
0.00425572
0.00390017
0.00309538
0.00517504
0.00666903
0.00439402
0.00135668
0.00061703
0.000757136
0.00612335
0.00162429
0.00536556
0.00375512
0.00177672
0.000519855
0.00032984
0.000421255
0.0012495
0.00146698
0.000847267
0.00246097
0.000924441
0.00705146
0.00656765
0.00371711
0.00241756
0.00266148
0.00267312
0.0029474
0.00479664
0.00255786
0.000983752
0.00379385
0.00211792
0.00482859
0.00204967
0.000752792
0.000788571
0.000785122
0.000786864
0.000763702
0.00127745
0.00156803
0.001253
0.000650371
0.000722757
0.000941971
0.0013045
0.000631304
0.000586238
0.000963921
0.000507714
0.000926389
0.000626081
0.00144732
0.0027083
0.00390418
0.000738047
0.00255982
0.00369591
0.000722282
0.00245877
0.00162468
0.00232672
0.00219217
0.00357061
0.00354665
0.00332752
0.00262394
0.00199885
0.0018017
0.00173719
0.00280941
0.0026411
0.00174577
0.00468221
0.00117455
0.000640296
0.000598069
0.000789868
0.000554381
0.000532437
0.000733786
0.00429063
0.00046891
0.00102674
0.00137094
0.000763555
0.000936404
0.00167175
0.00112309
0.00203989
0.00480516
0.00197192
0.00447183
0.00315888
0.0020263
0.00240774
0.00154554
0.000806193
0.00130154
0.00051946
0.000519052
0.0012719
0.000224276
0.000628108
0.00223208
0.00451281
0.00464489
0.004699
0.00433188
0.00228366
0.00116331
0.00171916
0.00155974
0.000946741
0.00391101
0.00214362
0.0036016
0.00396667
0.00316572
0.00108746
0.00327217
0.000558299
0.0014142
0.00423203
0.00405078
0.00461154
0.00420252
0.00077947
0.00150039
0.000773263
0.000722344
0.00612798
0.000743237
0.000781493
0.000678502
0.000481335
0.0018841
0.00407485
0.00174734
0.00116351
0.00121361
0.00171959
0.00156259
0.000669562
0.00235556
0.00178944
0.00450906
0.000959565
0.000721972
0.000299607
0.000191476
0.0048087
0.000624597
0.000383423
0.000272806
0.000904718
0.000689742
0.00270073
0.00113308
0.00209766
0.00193752
0.00158877
0.00303132
0.00348855
0.00285844
0.00126519
0.00113221
0.000763715
0.00112856
0.00119024
0.00126926
0.000833281
0.000907554
0.000951229
0.00055457
0.00208065
0.0011231
0.00118025
0.00187242
0.000931753
0.0011506
0.000641257
0.00123733
0.00109939
0.00125469
0.00107045
0.00141114
0.000775566
0.000332346
0.0018889
0.00140586
0.000785572
0.00133085
0.00345893
0.000992674
0.00403185
0.00335098
0.00340887
0.00313889
0.00290827
0.00415886
0.00139614
0.00184559
0.00179559
0.000841386
0.00326211
0.0041353
0.00261945
0.00200182
0.00434052
0.000415855
0.000751841
0.000607974
0.00126743
0.000847916
0.00136015
0.00134174
0.00247649
0.00200828
0.000929922
0.00099787
0.00118596
0.00351942
0.00115267
0.000317165
0.0012597
0.00218806
0.000767363
0.00288748
0.00181075
0.000876329
0.00121195
0.000744004
0.00143519
0.000847646
0.00117013
0.00213339
0.00101713
0.00136762
0.00100878
0.00103544
0.00286267
0.00132033
0.00123187
0.00112101
0.00257051
0.000768382
0.000694766
0.00161275
0.000341437
0.000636303
0.000458691
0.000865554
0.000718212
0.000460989
0.00115412
0.000454896
0.00072248
0.000518632
0.000671241
0.00149844
0.00128188
0.0064577
0.00402631
0.000927454
0.00334186
0.00570916
0.00685143
0.00469347
0.00166855
0.00180772
0.00113051
0.00167649
0.00123622
0.000630221
0.00295373
0.000986014
0.00372947
0.000742442
0.00119542
0.00201676
0.00178767
0.00236601
0.00236251
0.00143696
0.000817824
0.00109976
0.000707848
0.00584422
0.00408659
0.00244931
0.00149294
0.000877471
0.00304738
0.00115075
0.00452243
0.00095531
0.000374152
0.00120527
0.000962959
0.000496416
0.000394078
0.00189938
0.0010998
0.00135607
0.00109697
0.000932125
0.000942052
0.000738922
0.000129787
0.00636554
0.00467121
0.00173032
0.00515508
0.00344611
0.000251353
0.000463598
0.000580186
0.00364338
0.00236638
0.00208711
0.0037132
0.00152052
0.000830004
0.00118209
0.00119253
0.0010405
0.00225773
0.000931065
0.00209767
0.000742504
0.00134851
0.00181866
0.00412612
0.000954098
0.00150627
0.00144584
0.000799286
0.000986555
0.000791975
0.000664652
0.000877413
0.000631262
0.000914242
0.00023366
0.00107387
0.00111227
0.00110655
0.000816808
0.000968774
0.00171544
0.00130615
0.00111357
0.00207072
0.00134312
0.000955104
0.0017497
0.0012219
0.000327388
0.00112569
0.00162097
0.000672852
0.000843142
0.00302862
0.00134596
0.000739382
0.00163292
0.00144019
0.000822249
0.000913686
0.00231726
0.00407613
0.00204775
0.00142073
0.000755995
0.00124368
0.000987876
0.000351842
0.00110096
0.000294727
0.000852039
0.0015916
0.000715335
0.000692395
0.000841743
0.000981184
0.000424672
0.000291556
0.000359601
0.000250851
0.00102928
0.000846573
0.0020363
0.00348208
0.00341912
0.000842774
0.0012674
0.00443497
0.00251739
0.00188753
0.000986291
0.0012965
0.00226364
0.00169746
0.00113656
0.00316661
0.00253316
0.00337491
0.00472977
0.00216828
0.00300713
0.00373298
0.00434888
0.00197429
0.00202656
0.00207779
0.00128183
0.00135618
0.00091457
0.00173012
0.00134939
0.000277975
0.00240632
0.00195517
0.00274868
0.00133836
0.00171677
0.00223998
0.00543943
0.00123678
0.00147505
0.00169832
0.00181768
0.000933961
0.00388793
0.00140961
0.000573421
0.00115491
0.000904523
0.00211464
0.0018818
0.00314797
0.00257459
0.00225184
0.000944647
0.000667562
0.000549277
0.000706936
0.000602595
0.000729208
0.00129552
0.000838664
0.000414615
0.00136769
0.00137056
0.00120394
0.000351734
0.00116142
0.00126306
0.000524804
0.000738224
0.000792874
0.00126166
0.00104372
0.000952038
0.001233
0.000680108
0.00223314
0.00295901
0.00385406
0.00258638
0.00295366
0.000532474
0.00132266
0.00184879
0.000582463
0.00197875
0.000799906
0.00180792
0.00112077
0.000954314
0.000892673
0.000583087
0.000618383
0.000564975
0.000581469
0.000842375
0.000582284
0.000617979
0.000819475
0.00152542
0.000310168
0.000338041
0.000292319
0.000579978
0.000735375
0.000624809
0.00087835
0.000714959
0.000589444
0.00179328
0.00209349
0.0026333
0.00310582
0.00166794
0.00307159
0.00176612
0.00111274
0.00212623
0.00248543
0.0033909
0.0034617
0.00105249
0.00119642
0.00296154
0.001116
0.000747069
0.000924909
0.00114239
0.000989346
0.00112743
0.00122736
0.00130464
0.00112359
0.00207186
0.00280294
0.00292489
0.0055314
0.00651522
0.00553609
0.00139726
0.00209282
0.00212667
0.000620107
0.00071309
0.00185572
0.00210856
0.00142743
0.00292592
0.00402306
0.00237966
0.00088809
0.00376562
0.00254628
0.00359322
0.00328982
0.00111003
0.0013507
0.0029569
0.00294801
0.00206828
0.00262217
0.00242678
0.00227401
0.0013386
0.00163493
0.0023089
0.00268345
0.00271893
0.00160595
0.00101161
0.000585222
0.000929043
0.000761935
0.00383369
0.000501235
0.0019483
0.00139619
0.00151109
0.00110825
0.00166854
0.00107949
0.00210772
0.00163707
0.000971984
0.000984179
0.00102843
0.000488482
0.000729383
0.000553009
0.0035516
0.00658195
0.00663426
0.0052574
0.00538654
0.006712
0.00141618
0.000306288
0.000738361
0.000730152
0.00103569
0.00115863
0.00244991
0.00280561
0.00183818
0.00280425
0.00321004
0.00178808
0.00117235
0.00165846
0.00454294
0.00132227
0.0011611
0.000505411
0.00129459
0.000749538
0.000856895
0.000437569
0.00124423
0.00183713
0.0012056
0.00191597
0.00247331
0.00104151
0.00132577
0.000848857
0.000372034
0.000801189
0.000977816
0.000484672
0.00157953
0.000612775
0.0013363
0.00152333
0.000410012
0.00108124
0.000503639
0.000586066
0.00052518
0.000336512
0.000366513
0.000294217
0.000537338
0.000540636
0.00091646
0.000899349
0.00091971
0.000857132
0.000321053
0.000156544
0.000301803
0.000610414
0.00122341
0.00142466
0.000722683
0.0012785
0.00149386
0.000328458
0.00109018
0.00101908
0.000292815
0.000433084
0.00243237
0.000524491
0.000356194
0.000157316
0.000279218
0.000464753
0.000421446
0.00422331
0.00322144
0.00076874
0.000565846
0.000966598
0.000916577
0.00469868
0.00327332
0.00167665
0.00111535
0.00061294
0.000921771
0.00107419
0.000718202
0.000655941
0.000400328
0.00050276
0.000672658
0.00128984
0.000387583
0.000498677
0.00118714
0.00213122
0.00144014
0.00258087
0.000407751
0.000652758
0.00205142
0.0012837
0.000652153
0.00143507
0.00245118
0.00369786
0.000981933
0.00340547
0.00273297
0.000862511
0.0013874
0.000248633
0.00504923
0.00689081
0.00127993
0.000813829
0.000332438
0.00195958
0.00559179
0.00198502
0.00238516
0.00237474
0.00453319
0.00151021
0.00393523
0.000917935
0.00092352
0.00122299
0.00217971
0.000563605
0.00124905
0.000412725
0.00107886
0.000740571
0.0010225
0.000965505
0.000279648
0.00207985
0.00165021
0.00160593
0.000839498
0.00107488
0.00085013
0.00145776
0.00188984
0.00221722
0.00117308
0.00378695
0.00123065
0.00113554
0.000967349
0.00102418
0.000617128
0.000218023
0.00161556
0.00352049
0.00138643
0.00218548
0.00270539
0.00495821
0.00212345
0.00287835
0.000271939
0.00422821
0.00216477
0.00222868
0.00173197
0.00161429
0.00264282
0.0047743
0.00535271
0.0005337
0.00534346
0.00102344
0.00390819
0.000314065
0.000337901
0.00264034
0.00221574
0.000473909
0.000358066
0.000564044
0.00215471
0.00136452
0.00339685
0.0044079
0.00322902
0.00132837
0.000736119
0.000728282
0.00028911
0.00185282
0.002682
0.00174678
0.00121027
0.000959152
0.0012632
0.00089921
0.00056665
0.000646356
0.00019935
0.000553349
0.00166952
0.000445261
0.00313267
0.00111163
0.000257679
0.00154909
0.00164033
0.000223312
0.000452164
0.000790783
0.000252112
0.000636273
0.00120743
0.00436511
0.00525996
0.00344679
0.00228404
0.00178936
0.000598221
0.00290303
0.005363
0.00219888
0.00309291
0.00103173
0.000953753
0.00584422
0.000873024
0.000521299
0.000635814
0.00101002
0.00225359
0.000952485
0.00056386
0.00061115
0.000570037
0.000497084
0.000224268
0.000383988
0.00624141
0.000594435
0.000367999
0.000353523
0.000445791
0.00062136
0.000444507
0.00160512
0.00164213
0.000873145
0.000626231
0.00175788
0.000363277
0.000308827
0.00203435
0.00493566
0.00410583
0.00281687
0.00296821
0.00276311
0.00733099
0.000411507
0.00446983
0.00185793
0.00382552
0.00234629
0.00314384
0.00216346
0.00641471
0.00348481
0.00285236
0.00172646
0.000514473
0.000427938
0.000516549
0.00091526
0.00130109
0.00199626
0.00337521
0.00110906
0.00190306
0.00398635
0.00313555
0.00207297
0.00559429
0.00401599
0.00290821
0.00295378
0.00199383
0.000790674
0.000852106
0.00116572
0.00530594
0.00207567
0.00064423
0.00187256
0.00116107
0.00102486
0.00250773
0.00115964
0.000853043
0.000893802
0.000641243
0.000372581
0.000768361
0.000611122
0.00139239
0.00135673
0.00268966
0.00131468
0.000771683
0.000838249
0.000260479
0.00141142
0.00217165
0.00229439
0.00149996
0.00447444
0.00144206
0.00183845
0.00184231
0.00447553
0.00185649
0.0045733
0.00183663
0.00359912
0.00247033
0.000736771
0.0036675
0.00197895
0.00119739
0.0027181
0.00221551
0.000598847
0.00080226
0.00169488
0.00392467
0.00349145
0.0011159
0.00119409
0.00153045
0.000388005
0.00103113
0.000828526
0.000902101
0.000568176
0.000842858
0.00167831
0.00167923
0.00283869
0.00455273
0.0065073
0.0020168
0.000468237
0.00635724
0.00396532
0.00201791
0.00126912
0.000566587
0.000245831
0.00236863
0.000563655
0.00149619
0.000734457
0.00158996
0.00478789
0.00263974
0.00034122
0.00183578
0.00185749
0.00319399
0.00560321
0.00114365
0.0016288
0.00118091
0.00295027
0.000267927
0.0028887
0.00059842
0.00189829
0.00285626
0.00170584
0.000382394
0.00515768
0.00121337
0.00165329
0.000872423
0.00305093
0.00165324
0.00214179
0.00120232
0.00308654
0.0014131
0.00126507
0.000745874
0.00162745
0.00210267
0.00299442
0.00213566
0.00460186
0.00337174
0.00416191
0.00249904
0.00299101
0.0011819
0.00572525
0.00692324
0.00471569
0.00283636
0.00327315
0.00313839
0.00475658
0.00341454
0.000917575
0.00368477
0.00117949
0.00554129
0.00489677
0.00180039
0.000917272
0.000767823
0.00122631
0.000545188
0.00134709
0.00254125
0.000797526
0.000686212
0.00210839
0.0032202
0.00201518
0.00156704
0.00250555
0.00296234
0.00265651
0.00158278
0.00143549
0.000853985
0.00169498
0.00352029
0.00111442
0.00108596
0.000960041
0.000529491
0.000309286
0.000112189
0.000440345
0.000496403
0.00115125
0.00092649
0.000669226
0.000430623
0.00030408
0.000830284
0.000388142
0.00136146
0.0013769
0.000948232
0.00317278
0.00164168
0.00188503
0.000813313
0.00158747
0.000999881
0.000461573
0.00037994
0.000452607
0.000818505
0.000296802
0.000457047
0.00565951
0.00240618
0.00244006
0.00349466
0.00363031
0.00259604
0.00198708
0.00504803
0.00472146
0.00532258
0.00121439
0.000653618
0.0046346
0.000452207
0.00171109
0.004363
0.00339735
0.000772131
0.000714366
0.00137284
0.00405918
0.00728456
0.00641559
0.00514991
0.00451962
0.00483673
0.00326579
0.00109205
0.00110559
0.000995104
0.00489369
0.00201765
0.00545059
0.0011464
0.00087772
0.00103476
0.00158417
0.00281314
0.00258804
0.000284495
0.0010424
0.000173551
0.00693182
0.0062884
0.00294472
0.00178666
0.00413049
0.00633516
0.00547456
0.00400062
0.000807912
0.000557981
0.000754814
0.00194802
0.00084843
0.00209334
0.00293023
0.00112025
0.000520901
0.000678643
0.000868067
0.000929503
0.000843697
0.000197182
0.000234576
0.000166727
0.000157073
0.00041907
0.000788792
0.00117186
0.00111846
0.00118603
0.000423098
0.000585675
0.000771905
0.000368068
0.000955476
0.000525219
0.000799912
0.00274907
0.00615898
0.00288699
0.00266769
0.00135221
0.00131794
0.000552812
0.00108039
0.000911163
0.000809637
0.00092969
0.00217823
0.00144468
0.000314048
0.0036739
0.000307025
0.00118587
0.00250905
0.000995763
0.00055789
0.000821616
0.000743737
0.000633697
0.00119041
0.00137491
0.00197852
0.00038056
0.0020715
0.000840514
0.00033275
0.00028778
0.000749408
0.00342416
0.00460829
0.00141248
0.00214682
0.00100367
0.00133075
0.0021763
0.00462618
0.00320382
0.00114842
0.00100704
0.00456992
0.00322506
0.00485128
0.00266148
0.00450556
0.000538601
0.000852576
0.000470065
0.00151562
0.00195717
0.00492303
0.00409383
0.00537878
0.00363931
0.00342812
0.00402643
0.00300012
0.00228052
0.0043038
0.0064309
0.000739477
0.00111522
0.00556703
0.0031357