/*--------------------------------*- C++ -*----------------------------------*\
| =========                 |                                                 |
| \\      /  F ield         | OpenFOAM: The Open Source CFD Toolbox           |
|  \\    /   O peration     | Version:  2506                                  |
|   \\  /    A nd           | Website:  www.openfoam.com                      |
|    \\/     M anipulation  |                                                 |
\*---------------------------------------------------------------------------*/
FoamFile
{
    version     2.0;
    format      ascii;
    arch        "LSB;label=32;scalar=64";
    class       volScalarField;
    location    "0.0689511";
    object      k;
}
// * * * * * * * * * * * * * * * * * * * * * * * * * * * * * * * * * * * * * //

dimensions      [0 2 -2 0 0 0 0];

internalField   nonuniform List<scalar> 
47425
(
0.294353
0.328073
0.308181
0.314618
0.46321
0.313362
0.419556
0.319627
0.366887
1.36482
0.328231
0.323856
0.358505
0.308893
0.302444
0.326752
0.305155
0.335539
1.09494
0.527166
0.31538
0.302319
0.31665
0.30963
0.303507
0.295593
0.295136
0.830182
0.293146
0.297829
0.309678
0.318434
0.356125
0.296694
0.292856
0.311665
0.302017
0.36334
0.303222
0.311964
0.356211
0.507021
0.979227
0.378401
1.68082
0.341835
0.326562
0.350656
0.300302
0.295746
0.780077
0.611652
0.294655
0.81518
0.364135
0.361433
0.296275
0.296453
0.410375
0.305513
0.831377
0.849491
0.912092
0.32022
0.364462
0.300627
0.341185
0.358365
0.790141
0.311302
0.301888
0.290132
0.294948
0.307693
0.91681
0.368709
0.946111
0.306017
0.82733
0.519481
0.919068
0.309001
0.30652
0.348608
0.318057
0.312837
0.291797
0.291072
0.519352
0.592601
0.306222
0.334882
0.298166
0.366897
0.378524
0.362983
0.297866
0.295598
0.306571
0.351574
0.334636
0.425549
0.306013
0.447858
0.299054
0.365837
0.301465
0.315952
0.412137
0.312318
1.28335
0.321107
0.42204
0.348682
0.32361
0.814611
0.319029
0.629183
0.331936
0.327448
0.316666
0.362698
0.343065
0.341409
0.345175
0.387031
0.317808
0.364887
0.350338
0.299013
0.30751
0.322253
0.494014
0.343073
0.478071
0.341992
0.308316
0.392828
0.305304
0.304953
0.354014
0.358828
0.327716
0.452904
0.324212
0.366223
0.431456
0.339968
0.357071
0.361583
0.456479
0.792117
0.360298
0.797108
0.327332
0.318777
0.337665
0.925846
0.345605
0.322411
0.329258
0.29605
0.292662
0.307445
0.749076
0.844088
0.338067
0.922164
0.333141
0.881811
1.04517
0.34443
0.353843
0.315395
0.341787
0.372835
0.845409
0.29207
0.294965
0.298723
0.847486
0.290542
0.292016
0.297067
0.297018
0.336875
0.304659
0.413397
0.348537
0.292725
0.357975
0.297309
0.416502
0.365296
0.298461
0.310514
0.360532
0.318147
0.323737
0.287978
0.328576
0.363613
0.362743
0.312315
0.329401
0.375461
0.291856
0.307979
0.347538
0.361897
0.296689
0.30003
0.352121
0.309869
0.301182
0.300695
0.301655
0.581212
0.333065
0.353642
0.52752
0.285766
0.580852
0.298816
0.396901
0.508442
0.298157
0.316372
0.348027
0.380264
0.30266
0.310809
0.336691
0.36937
0.365207
0.316918
0.560407
0.329235
0.523312
0.364246
0.33381
0.290618
0.295971
0.304219
0.300772
0.362566
0.303894
0.357555
0.295365
0.303694
0.298497
0.497368
0.304786
0.365695
0.310614
0.297148
0.30383
0.359886
0.30349
0.357614
0.376773
0.352161
0.31021
0.358932
0.367849
0.346077
0.298393
0.365432
0.296672
0.322421
0.31444
0.510783
0.560126
0.297596
0.50025
0.370895
0.502104
0.448696
0.545197
0.538622
0.874967
0.291778
0.875941
0.360283
0.309775
0.301711
0.349107
0.318519
0.358951
0.338203
0.770039
0.315551
0.371308
0.297121
0.304352
0.320762
0.318063
0.299818
0.314883
0.357306
0.327479
0.293618
0.322178
0.298999
0.876326
0.840835
0.791521
0.297305
0.294485
0.301902
0.317852
0.791746
0.316984
0.326199
0.571334
0.33611
0.340979
0.368368
0.313572
0.649195
0.544496
0.307069
0.306242
0.291804
0.331805
0.296113
0.309866
0.295062
0.294688
0.298924
0.298874
0.936502
0.322854
0.301955
0.383805
0.297696
0.881923
0.315572
0.293118
0.30034
0.30799
0.308339
0.294056
0.304669
0.289928
0.298864
0.298617
0.304502
0.304017
0.332027
0.309493
0.299487
0.316118
0.306264
0.310243
0.334203
0.319087
0.306009
0.308169
0.360268
0.344986
0.332656
0.318036
0.315711
0.298236
0.317811
0.363493
0.358445
0.322268
0.307336
0.356743
1.17429
0.299505
0.310524
0.385664
0.308814
0.422424
0.357345
0.364437
0.302013
0.357608
0.308311
0.296635
0.355246
0.341539
0.364514
0.316821
0.303622
0.349724
0.314169
0.310877
0.313217
0.321367
0.299918
0.301952
0.308961
0.318906
0.313646
0.391927
0.294461
0.635667
0.295399
0.927961
0.323808
0.360985
0.348611
0.297202
0.346077
0.29495
0.32882
0.310256
0.581276
0.849454
0.29515
0.329515
0.306229
0.305744
0.314048
0.307249
0.303288
0.354754
0.318554
0.296384
0.30795
0.314404
0.295628
0.440469
0.303355
0.309555
0.489186
0.489184
0.304607
0.616229
0.510944
0.35122
0.495854
0.735399
0.297434
0.304093
0.30528
0.303589
0.722527
0.325034
0.293379
0.298275
0.309002
0.309757
0.317692
0.299368
0.690451
0.704835
0.50143
0.356381
0.392602
0.478906
0.298645
0.307851
0.346767
0.307167
0.355176
0.363124
0.377802
0.306344
0.369613
0.307943
0.302478
0.329076
0.311254
0.309597
0.306705
0.348582
0.357669
0.368266
0.329024
0.309572
0.341222
0.307618
0.763271
0.360973
0.390955
0.344949
0.342242
0.784338
0.325998
0.296417
0.328796
0.350157
0.327355
0.325728
0.339849
0.295219
0.320015
0.294795
0.319627
0.440633
0.293494
0.342174
0.318245
0.354172
0.294808
0.296537
0.297167
0.304618
0.30671
0.324715
0.303949
0.296243
0.298958
0.31886
0.318329
0.331496
0.323329
0.296898
0.307621
0.28683
0.294138
0.304162
0.328072
0.313145
0.328927
0.363305
0.375393
0.755193
0.310527
0.303449
0.329148
0.365735
0.449104
0.451588
0.331336
0.299811
0.337435
0.429398
0.318507
0.458839
0.362381
1.08298
0.339551
0.340611
0.298414
0.450996
0.299146
0.303393
0.310804
0.329019
0.295949
0.290449
1.03332
0.299409
0.351936
0.298747
0.431827
0.290913
0.298251
0.412809
0.401337
0.311418
0.295618
0.281737
0.294202
0.30986
0.29395
0.295011
0.294662
0.37243
0.446396
0.313253
0.306872
0.311987
0.298072
0.518515
0.3067
0.31446
0.20634
0.308603
0.297771
0.285497
0.750336
0.308184
0.206778
0.227595
0.295293
0.346981
0.292416
0.301533
0.362352
0.334495
0.907228
0.305744
0.336957
0.294857
0.452662
0.367658
0.369492
0.314806
0.750158
2.2449
0.303214
0.320484
0.339028
0.312661
0.359143
0.370655
0.319626
0.323752
0.378947
0.290448
0.359191
0.466368
0.335506
0.303541
0.472278
0.336197
0.305297
0.319087
0.33483
0.296715
0.361919
0.362425
0.352455
0.343373
0.302507
0.301597
0.978816
0.312563
0.391112
0.845957
0.806859
0.29909
0.352526
0.72522
0.343771
0.414495
0.777935
0.376793
0.781775
0.297051
0.294912
0.354838
0.509903
0.381507
0.375569
0.292625
0.366932
0.300658
0.314313
0.292996
0.337666
0.312618
0.78249
0.698419
0.334324
0.332131
0.340444
0.31234
0.374628
0.351689
0.352412
0.360588
0.342668
0.315231
0.334258
0.354482
0.298937
0.380582
0.355921
0.89486
0.559444
0.334635
0.307006
0.358467
0.296728
0.892852
0.306515
1.10294
0.347151
0.437118
0.336428
0.318008
0.320712
0.293259
0.351302
0.305891
0.291944
0.389246
0.383034
0.368557
0.381834
0.352997
0.986433
0.33674
0.371604
0.362241
0.363677
0.297355
0.346722
0.321954
0.380343
0.341421
0.316058
0.34989
0.314998
0.327996
0.306909
0.303056
0.473147
0.547604
0.301022
0.436772
0.301065
0.320314
0.304648
0.29629
0.657624
0.29073
0.310764
0.309687
0.295319
0.663408
0.993693
0.312708
0.334125
0.297532
0.337283
0.292266
0.320202
0.321012
0.534442
0.320464
0.297408
0.313091
0.299389
0.309485
0.304479
0.292902
0.311037
0.297534
0.293575
0.323514
0.538879
0.295918
0.252249
0.608452
0.554756
0.278422
0.324592
0.91041
0.354221
0.329259
0.496647
0.261388
0.813146
0.332518
0.298407
0.455834
0.331551
0.554162
0.312217
0.340561
0.298039
0.301976
0.425596
0.34372
0.314626
0.335455
0.419994
0.371035
0.34834
0.37843
0.48195
0.459984
0.671699
0.85619
0.858555
0.606722
0.636474
0.363099
0.356163
0.302902
0.29647
0.336369
0.317629
0.323472
0.332084
0.34474
0.299239
0.329358
0.361925
0.298616
0.376619
0.321671
0.297349
0.360865
0.297924
0.303076
0.304934
0.340083
0.420148
0.299603
0.297613
0.30112
0.352877
0.344397
0.513419
0.430469
0.295944
0.337484
0.291684
0.299413
0.30158
0.340112
0.351285
0.444884
0.308838
0.301112
0.304187
0.39266
0.904486
0.313533
0.313557
0.392912
0.339209
0.342952
0.334757
0.322247
0.3768
1.9553
0.434765
0.86723
0.366857
0.389595
0.293104
0.392461
0.3029
0.327776
0.331364
0.304816
1.40959
0.42691
0.356816
0.509859
0.357984
0.290345
0.319236
0.395802
0.303567
0.338589
0.221259
0.300574
0.383327
0.365936
0.386472
0.704069
0.367954
0.358998
0.486141
0.303373
0.302591
0.432253
0.527959
0.325028
0.402925
0.44122
0.326357
0.312908
0.299401
0.322529
0.34849
0.346798
3.59778
0.665186
0.362908
0.535776
0.514741
1.22742
2.33329
0.502694
0.357379
0.360763
0.373541
0.361971
2.04016
0.302184
0.325708
0.372764
0.268888
0.32523
0.365892
0.352863
0.296168
0.37901
0.46513
0.363484
1.12183
0.294895
0.377187
0.376583
0.365703
0.357267
0.349858
0.37481
0.445272
0.342739
0.361518
0.459818
0.320572
0.305191
0.332322
0.413351
0.298289
0.407041
0.366669
0.358131
0.63754
0.967189
0.297267
0.3635
0.313994
0.36189
0.35762
0.657876
0.542118
1.4234
0.303857
0.360196
0.321478
0.9518
0.310289
1.71103
0.39781
0.378278
0.487611
0.577564
0.316934
0.301927
0.306252
0.317236
0.461393
0.316165
0.395342
1.10551
0.383405
0.297088
0.300657
0.675569
1.00764
0.503321
0.540748
0.933684
0.396004
0.348016
0.387144
0.307198
0.465905
0.36505
0.381382
1.05517
0.321725
0.297951
0.303089
0.357122
0.382472
0.368981
0.324302
0.311187
0.455311
0.30203
0.32292
0.298658
0.35284
0.358987
0.373189
0.338609
0.327882
0.308762
0.373867
0.303562
0.309212
0.31988
0.312465
0.369326
0.447637
0.335956
0.363505
0.302829
1.73684
0.37638
0.360879
0.32873
0.92879
0.654041
1.06799
0.349557
0.33294
0.327404
0.723093
0.385147
0.332712
0.369804
0.351667
0.360163
0.883559
0.359617
0.310009
0.356773
0.350243
0.293356
0.573368
1.00704
0.307001
0.992209
0.336357
0.650275
0.564381
0.303593
0.339459
0.368407
0.609967
0.333483
0.332468
0.329392
0.737357
0.496812
0.609884
0.31189
0.322605
0.29854
0.30999
1.29389
1.28511
0.338933
0.356916
0.380821
0.772522
0.304538
0.293796
1.85942
1.23455
0.355699
0.309787
0.875874
1.35592
1.03287
0.365844
0.723525
1.18868
0.818223
0.317602
0.436906
0.433016
0.323831
0.334566
1.32216
1.30474
0.351818
0.362429
0.345277
0.312088
0.333094
0.32403
0.473508
0.328177
0.366939
0.300922
0.368254
1.09287
0.976612
0.313052
0.562384
0.43055
0.314149
0.504347
0.293489
0.33317
0.306113
0.331587
0.38307
0.29905
0.75618
0.303644
0.851382
0.615843
0.883202
0.399595
0.418829
0.33231
0.350375
0.323281
0.54159
1.085
0.350621
0.977021
0.503775
0.77195
0.464394
0.878639
0.682731
0.321197
0.324459
0.952068
0.337762
0.307696
0.308067
0.747834
0.704015
0.308642
0.327382
0.626508
0.3992
0.929173
0.788915
0.34968
0.449855
1.02979
0.344443
0.318922
0.842082
0.308637
0.785602
0.80984
0.306406
0.300417
0.317556
0.298232
0.36743
0.307786
0.308827
0.35922
0.368985
0.465663
0.332811
0.316519
0.497393
1.28507
0.798284
0.346992
0.332955
0.545674
0.311186
0.982987
0.33395
0.339645
0.357158
1.73283
0.33989
1.94498
0.383192
0.497835
0.333387
0.749312
0.619307
0.658718
0.420773
0.536895
0.366229
0.363526
0.383521
0.58078
0.393972
0.451844
0.792415
0.388158
0.448041
0.909521
0.342239
0.305909
0.715418
1.70905
0.345993
0.32917
0.359334
0.379488
1.24808
0.951376
0.297047
0.315253
0.359141
0.783633
0.355934
0.577753
0.367425
0.346845
0.352548
0.467155
0.350273
0.601013
0.606306
0.338732
0.371679
0.429504
0.319565
0.901602
2.11069
0.331044
0.849513
0.845402
0.376772
0.82263
0.360612
0.358371
1.05216
0.360161
0.990617
2.65057
0.318896
0.364481
0.424177
0.365345
0.353185
0.386185
0.493822
0.394401
0.320965
0.385412
0.323652
0.761522
0.388971
0.347906
0.367079
0.546363
0.305303
0.82706
0.727968
0.353789
0.829314
1.37683
0.30075
0.458729
0.517529
0.353314
0.33614
0.508013
0.750306
0.489572
0.866477
0.306572
0.759707
0.446823
0.294697
0.374823
0.36157
0.483705
0.330707
0.380576
0.586605
0.294485
0.567186
0.352201
1.40385
0.373766
0.293554
0.361377
0.517878
0.354097
0.678565
0.432832
0.317772
0.705768
0.303102
0.329348
1.19063
0.295152
0.369595
0.706243
0.333946
0.759022
1.28125
0.361075
0.393358
0.301661
0.890971
0.576885
0.910856
0.793288
0.40506
0.33446
0.416326
0.946924
0.943143
0.913261
0.350235
0.357547
0.347152
0.313655
0.375067
0.71602
0.347866
0.330807
0.336026
0.29816
0.31871
0.353718
0.313053
0.348939
0.359442
0.418899
0.303506
0.356848
0.55812
0.317633
0.301158
0.368729
0.345356
0.359404
0.297871
0.331813
0.329597
0.313294
0.375964
0.625409
0.338224
0.315906
0.302288
0.298564
0.517134
0.309855
0.308884
0.620792
1.1125
0.707266
0.312666
0.602288
0.460966
0.348387
0.560992
0.414806
0.539626
0.355504
0.311568
0.346035
0.38294
0.304706
0.361926
0.374056
0.353781
0.309017
0.308334
0.354791
0.501162
0.345403
0.405968
0.831634
0.346548
0.664985
0.391646
0.87096
0.293632
0.356458
0.344125
0.297002
0.314312
0.365953
0.29743
1.54158
0.560484
0.803909
0.364714
0.937828
0.300455
0.325495
0.514557
0.306338
0.794996
0.412205
0.61896
0.318094
0.975181
0.949428
0.308121
0.296063
1.09377
0.315845
1.03778
0.319109
0.357033
0.307369
0.302136
0.305465
0.322778
0.331332
0.630287
0.390553
0.385836
0.330549
0.327226
0.296435
0.356072
1.49624
0.357904
1.76125
0.558424
0.305234
0.368488
0.325709
0.322558
0.319627
0.351307
0.341503
0.362906
0.327539
0.29367
0.33956
0.354488
1.24136
1.50865
0.339118
0.347283
1.70059
0.335333
0.298996
0.299482
0.297173
0.3381
0.369001
0.400062
0.377989
0.3272
0.30282
0.388598
0.29392
0.289426
0.313804
0.72035
0.388051
0.823953
0.75174
0.81616
0.314598
0.302969
0.294905
0.296302
0.298645
0.632687
0.321902
0.294009
0.31792
0.352298
0.304061
0.453548
0.300278
0.369578
0.442628
0.326883
0.29931
0.305739
0.327103
0.327503
0.304664
0.33432
0.318029
0.49308
0.317758
0.3502
0.390149
0.316689
0.320279
0.302242
0.326274
0.308514
0.359337
0.385734
0.298148
0.291714
0.31119
0.31446
0.303723
0.350067
0.297198
0.305306
0.299818
0.315777
0.834581
0.312896
0.413703
0.291578
0.299664
0.694412
0.313905
0.355673
0.295339
0.305478
0.343512
0.363196
0.744396
0.371293
1.56604
0.29868
0.305884
0.349748
0.298057
0.295188
0.379131
0.327231
0.293697
0.295295
0.848841
0.42085
0.657447
0.356959
0.537216
0.366284
0.300333
0.386399
1.16318
0.352337
0.308089
0.308289
0.7809
0.302953
0.312949
0.327188
0.324504
0.344932
0.774255
0.306113
0.321018
0.347484
0.322483
0.356026
0.896321
0.797509
0.305562
0.299854
0.298343
0.356233
0.335242
0.294344
0.788517
1.01752
0.300844
0.344561
0.808431
0.310063
0.847206
0.441727
0.296439
0.303334
0.302833
0.310364
0.583853
0.327711
0.324429
0.316074
0.355093
0.313867
0.361543
0.57931
0.362926
0.481289
0.491052
0.470804
0.56731
0.348394
0.38772
0.390163
0.379196
0.334675
0.316697
0.811978
0.571788
0.377901
0.354256
0.360542
0.343789
0.33044
0.292548
0.296884
0.295753
0.357064
0.349916
0.488975
0.410512
0.86168
0.702204
0.327363
0.377892
0.309794
0.311761
0.365124
0.298556
0.3195
0.298356
0.29749
0.28017
0.275059
0.297255
0.339452
0.63565
0.995177
0.339289
0.296167
0.462142
0.489961
0.82588
0.317338
0.793591
1.37783
0.80993
0.861807
0.391054
0.297626
0.294186
0.360613
0.855122
0.294706
0.372716
0.334235
0.297672
0.617545
0.56376
0.541121
0.324226
1.30125
0.295713
0.304239
0.333892
0.334919
0.677676
0.756679
0.37059
0.433887
0.339592
0.363812
0.311035
0.897871
0.353674
0.863482
0.371899
0.85712
0.352976
0.483225
0.534228
0.538889
0.380212
0.382693
0.642047
0.352532
0.3539
0.390946
0.375874
0.360717
0.341156
1.27031
0.602865
0.326263
0.581764
0.713707
0.573613
0.309513
0.302812
0.769613
0.65815
0.783448
0.306508
1.07648
0.305891
0.880954
0.645676
0.591434
0.679055
0.298113
0.35511
0.301331
0.328003
0.324321
0.508574
0.416592
0.299317
0.298925
0.354804
0.322567
0.29626
0.297243
0.456734
0.298179
0.292745
0.328686
0.371757
0.422099
0.327812
0.361494
0.362803
0.312001
0.472166
0.431387
0.307925
0.30882
0.477537
0.580267
0.317324
1.68406
0.342609
0.41772
0.803516
0.384649
0.317353
0.29776
0.490027
0.319265
0.292563
0.367876
0.315287
0.304066
0.318767
0.302166
0.310871
0.313391
0.326983
0.309692
0.357023
0.673182
0.309232
0.317245
0.312034
0.320746
0.411178
0.991555
0.321245
0.304046
0.324215
0.559754
0.30884
0.333993
0.32509
0.842609
0.344606
0.37915
0.363737
0.393724
0.335513
0.349913
0.3223
0.507694
0.368422
0.35378
1.02899
0.322226
0.387799
0.344614
0.336033
0.353533
0.390831
0.316794
0.336596
0.302846
0.343713
0.321721
0.343581
2.68487
0.306113
0.407451
0.375986
0.344008
0.656749
0.353795
0.553936
0.361477
0.561373
0.643905
0.330382
0.301716
0.393073
0.380303
0.335152
0.303889
0.782373
0.449368
0.366452
1.3205
0.566603
0.311723
0.49057
0.484436
1.29302
0.864891
0.385268
0.49654
0.442119
0.558604
0.469984
0.886876
0.258564
0.513966
0.317695
0.609069
0.362753
0.390757
0.369709
0.354813
0.33292
0.367197
0.593681
0.323001
0.360003
0.400658
0.492243
0.762212
0.409872
0.732635
0.343918
1.04464
0.373326
0.374643
0.833961
0.550549
0.69703
0.653697
0.6313
0.540921
0.363576
0.345213
0.319839
0.378464
0.361336
0.767084
0.350894
0.358438
0.310612
0.480828
0.35377
0.30588
0.852149
0.47864
0.50141
0.209221
0.40158
0.333332
0.349098
0.349072
0.377429
0.317094
0.289934
0.336148
0.391615
0.204863
0.195016
0.540538
0.347325
0.394803
0.410163
0.448501
0.371472
0.355606
0.351274
0.167034
0.358675
0.392538
0.185245
0.368327
0.825548
0.585316
0.336205
1.22177
0.38572
0.465389
1.65299
0.38972
0.37279
0.308332
0.611372
0.298498
0.301392
0.348469
0.364648
0.377105
0.33216
0.555367
0.354779
0.465835
0.311149
0.376819
0.36149
0.295875
1.41203
0.529045
1.01116
0.477605
0.299532
0.912594
0.478984
0.30086
2.51866
0.302798
0.298357
0.468328
0.459143
0.971892
0.801015
0.341142
0.675982
1.65569
0.355422
0.615537
0.980639
0.660713
1.69808
0.370801
0.330809
0.580966
0.648567
0.386603
0.949153
0.350512
0.324308
0.510608
0.35075
0.306784
0.369813
0.762478
0.716345
0.292481
0.503326
0.309116
0.379619
0.33286
0.376502
0.577601
0.419655
0.766697
0.351385
0.360678
0.735692
0.300137
0.311784
0.439293
0.303831
0.342512
1.08041
0.328045
0.889854
0.808073
0.824964
0.789086
0.376378
0.383882
0.295367
0.29416
0.409785
0.30205
0.31193
0.389706
0.311294
0.399292
0.921508
0.302314
0.513838
0.306337
0.459745
0.357918
0.846145
0.3556
0.450594
0.307041
0.323183
0.400912
0.302988
0.324968
0.315202
0.297989
0.514131
0.314711
0.363815
0.350293
0.312714
0.353639
0.333289
0.364745
0.762772
0.32793
0.310275
0.313431
0.376926
0.174777
0.625397
0.462171
0.668935
1.0142
0.316549
0.417858
0.103708
0.253974
0.911319
0.396763
0.529628
0.334501
0.721411
0.687698
1.21624
0.350023
0.324403
0.530143
1.27164
0.335118
0.397466
0.440724
0.434384
0.400306
0.390299
0.894028
1.36023
0.229998
0.365549
0.184664
0.341991
1.20433
0.320023
0.343972
0.315492
0.306528
0.432183
0.314744
0.567986
0.44944
0.319537
0.37596
0.31128
0.52909
0.613452
0.320217
0.417335
0.351725
0.816141
0.44001
0.34925
0.516981
0.505896
0.296323
0.301889
0.349547
0.305361
0.653519
0.303688
0.421446
0.581923
0.319216
0.33288
0.313918
0.313507
0.597572
0.382573
0.502996
0.304679
0.308429
0.509021
0.653711
0.30772
0.331095
0.306804
0.305573
0.607159
0.431314
0.77213
0.333212
0.305684
0.429463
0.378206
0.335341
0.309395
0.370394
0.370041
0.5263
0.387742
1.9615
0.395575
0.399243
0.305807
0.366655
0.839502
0.981095
0.379075
0.830755
0.348086
0.98347
0.407056
0.696159
0.453671
0.513643
0.38878
0.320411
0.352027
0.401063
0.543565
0.350428
0.352707
0.948189
0.374529
1.28072
0.373239
0.334125
0.365419
0.56996
0.405897
0.304564
0.896218
0.301295
0.321845
0.30276
0.353984
0.767208
0.468507
0.328087
0.497227
0.345978
0.331721
0.307545
0.327356
0.404123
0.396695
0.393926
0.340073
0.324979
0.386089
0.331129
0.296473
0.382507
0.345289
3.98669
0.359179
0.444173
0.335799
0.387325
0.34411
0.400823
0.297281
0.350463
0.332499
0.330762
0.362102
0.810138
0.296249
0.715413
0.561726
0.391248
0.379798
0.338967
0.38251
0.430878
0.672298
0.310231
0.331362
0.336667
0.479082
0.365322
0.298444
1.23975
1.46211
0.638692
0.298881
0.304885
0.490623
0.352996
0.353605
0.48641
0.364427
0.322648
0.348647
1.36735
0.303537
0.551888
0.300406
0.322644
0.407428
0.319071
0.379021
0.437819
0.305513
0.569723
0.387903
0.38187
0.428331
0.923452
0.313527
0.35995
0.353841
0.379285
0.342393
0.350568
0.295566
0.291669
0.374465
0.570841
0.370036
0.349334
1.15885
0.370035
0.590402
0.358355
0.383028
0.38032
0.339272
0.770873
0.337599
0.500245
0.354846
0.35501
0.335136
0.3778
0.550622
0.435324
0.317347
0.606379
0.376929
0.649913
0.735719
1.3634
0.309539
0.43922
0.377687
0.234056
0.374118
0.247584
0.42458
0.215872
0.377727
0.781305
0.385577
0.606206
0.663158
0.349665
0.207464
0.450522
0.93211
0.503186
0.64194
1.91968
1.64042
0.719439
0.791404
0.309278
0.345471
0.733355
0.375632
0.919077
0.359471
0.773909
0.752943
0.325908
0.358255
0.321911
0.296647
0.348488
0.296804
0.702662
0.383259
0.355627
0.537284
0.318393
0.350397
0.300608
0.324088
0.346538
0.337791
0.385044
0.297162
0.395177
0.892168
0.30262
0.31001
0.337063
0.307028
0.78629
1.12216
0.383093
0.416157
0.519704
0.300874
0.289723
0.329506
0.346806
0.318924
0.325659
0.313212
0.307191
0.458909
0.308489
0.347424
0.321651
0.30077
0.302713
0.968931
0.31617
0.332637
0.308888
0.41919
0.348793
0.335752
0.663986
0.393053
0.324727
0.373519
0.338928
0.357513
0.383268
0.36585
0.310766
0.374747
0.358923
0.317045
0.335621
0.342571
0.42303
0.439402
0.321831
0.329657
0.386866
0.413767
0.461927
0.552123
0.914728
0.89956
0.332444
0.30327
1.00687
0.51272
0.537008
0.31102
0.300136
0.322208
0.295596
0.31744
0.303921
0.307575
0.333052
0.303302
0.309743
0.30613
0.309812
0.302175
0.52722
0.358117
0.333583
0.310807
0.315043
0.59877
0.302089
0.307015
0.388371
1.04255
0.520216
0.374181
0.362234
0.311073
0.345518
0.455464
0.64085
0.384604
0.319016
0.359774
0.318511
0.318998
0.351031
0.417649
0.354876
0.313459
0.381975
0.393638
0.591849
0.377739
0.741314
0.565722
0.377221
0.37709
0.319622
0.328394
0.366619
0.294191
0.318735
0.584767
0.312445
0.337927
0.698255
0.342529
0.362184
0.480164
0.375613
0.310538
0.344633
0.308104
0.341332
0.714665
0.345016
0.413507
3.63931
0.567921
1.01611
0.81954
0.319319
0.326097
0.50946
0.303034
0.536581
0.476103
0.671754
0.369858
0.299677
0.782863
0.298377
0.526102
0.398846
0.312562
0.699416
0.869691
0.29911
0.307195
0.867665
0.298458
0.306512
0.30596
0.30047
0.342119
0.557766
0.563351
0.327641
0.78669
0.319929
0.322221
0.312517
0.847743
0.323382
0.885062
0.301492
0.341545
0.304073
0.415542
0.334856
0.486738
0.303737
0.649756
0.45766
0.459715
0.681866
0.325266
0.319914
0.90493
0.429126
0.334199
0.402674
0.712637
0.326699
0.410566
0.321322
0.574268
0.389093
0.307505
0.298403
0.440416
0.314381
0.370414
0.336119
0.299427
0.325684
0.305534
0.308196
0.329005
0.751507
0.316568
0.306783
0.305438
0.31902
0.313398
0.343453
0.297841
0.361678
0.425442
0.380795
0.375068
0.31211
0.445564
0.313165
0.367344
0.911499
0.486179
0.728181
0.318176
2.52751
0.347976
0.521956
0.371182
0.303464
0.378398
0.309714
0.30525
0.341226
0.352152
0.291074
0.315086
0.299113
0.646842
0.298608
0.315134
0.354465
0.728846
0.162194
0.322456
0.779117
0.868312
0.584299
0.546743
0.884758
0.144991
0.388859
0.234768
0.33966
0.465798
2.75669
0.477104
0.365862
0.297873
0.302357
0.737816
0.333591
0.476849
0.643115
0.369512
0.579883
0.359249
0.576405
0.307893
0.358531
0.341697
0.296823
0.380943
0.292326
0.339235
1.08447
1.01491
1.09316
0.437429
0.858722
0.31628
0.293796
0.303556
0.36177
0.300819
0.356226
0.30789
0.397942
0.373867
0.299184
0.304303
0.358478
0.299701
0.323012
0.353451
0.313717
0.351195
0.486292
0.321583
0.357065
0.802986
0.351132
0.73033
0.790306
0.342381
0.380235
0.300846
0.459055
0.339296
0.354621
0.694493
0.302893
0.364678
0.334509
0.349521
0.311295
0.311749
0.468192
0.499962
0.3755
0.340521
0.777651
0.364167
0.627607
0.574943
0.360507
0.847127
0.428034
0.358325
0.332922
0.35154
0.377162
0.337412
0.297587
0.328744
0.189109
0.571258
0.192545
0.312865
0.343642
0.413325
0.169697
0.908427
0.340399
0.365841
0.377727
0.194915
0.38247
0.770329
2.2151
0.358341
0.310429
0.365598
0.527018
0.311743
0.360289
0.371234
0.313479
0.350723
0.320904
0.636788
0.32555
1.46964
0.386409
0.91343
0.33487
1.53548
0.909254
0.972919
0.32915
0.336798
0.433485
0.363093
0.315641
0.367859
0.323809
0.80792
0.299386
0.449297
0.612584
0.298761
0.303125
0.312054
0.319623
0.347381
0.360469
0.374357
0.383627
0.37168
0.328015
0.390486
0.328923
0.431946
0.321116
0.36096
0.302912
2.59588
1.23669
0.362429
0.431939
0.295217
2.08899
0.295931
0.298059
0.351821
0.295983
0.370075
0.352528
0.294068
0.291359
0.336486
1.49157
0.584583
0.370891
0.794984
0.302123
0.361227
0.321878
0.35956
0.787022
0.378196
0.812084
0.292811
0.32111
0.768641
0.859874
0.326139
0.331343
0.609725
0.377037
0.342284
0.466139
0.368988
0.365621
0.394763
0.367805
0.290768
0.378541
0.348705
0.457744
0.301049
0.355776
0.298123
0.326712
0.80434
0.720762
0.31602
0.403745
0.324682
0.350386
0.315577
0.515921
0.315393
0.330756
0.348985
0.342977
0.420696
0.379361
0.463252
0.352614
0.293814
0.323471
0.302271
0.360326
0.29772
0.502257
0.427695
0.319985
0.599161
0.32797
0.299796
0.35
0.301701
0.367868
0.60893
0.320191
0.410988
0.36307
1.00589
0.377233
0.357309
0.369073
0.701636
0.370067
0.510237
0.353131
0.383989
0.414727
0.392965
0.364608
0.746609
0.434717
0.363187
0.318623
0.308983
0.527121
0.323529
0.883551
1.65103
0.375887
0.402886
0.357432
0.45557
0.428862
0.367243
0.856381
0.459807
0.628951
0.303552
0.387687
1.09242
0.465744
0.336678
0.447734
0.315048
1.11125
0.369216
0.368679
0.314776
0.299452
0.304281
0.33199
0.302902
3.51766
0.302568
0.623836
0.299648
0.404686
0.367807
0.50652
0.331536
0.336548
0.324248
0.622399
0.445775
0.484547
0.306719
0.306511
0.433493
0.353542
0.34066
0.302062
0.299466
0.299005
0.321337
0.298291
0.356371
0.304122
0.537564
0.412156
1.11749
0.738599
0.565278
0.536338
0.370363
0.378235
0.297102
0.563209
0.312768
0.321258
0.311456
0.440098
0.472326
0.312935
0.40187
0.756495
0.469135
0.303087
0.303888
1.7267
0.791632
0.365022
0.832432
0.83984
0.61559
0.739202
0.54643
0.720531
0.385734
0.605224
0.741322
0.298996
0.307872
0.292722
0.453263
0.588157
0.316328
0.299778
0.381966
0.345769
0.378804
0.770302
0.461325
0.945255
0.34107
0.304464
0.322675
0.304366
0.341552
0.767908
0.934614
0.764327
0.760684
0.316078
1.167
0.602395
0.31038
0.514146
0.451994
0.746381
0.367226
0.456637
0.743455
0.75742
0.455082
0.834652
0.482902
0.789175
0.361824
0.322893
0.376133
1.11445
0.750515
0.372307
0.320519
0.528554
0.423654
0.562079
0.339471
0.358294
1.10945
1.07169
0.201965
0.332962
0.204587
0.301608
0.200087
0.357718
0.443565
0.575379
0.185829
0.415425
0.478926
0.134895
0.44236
1.41704
0.392507
0.362061
0.759167
0.31701
0.475821
0.308636
0.295311
0.312964
0.323397
0.844195
0.674935
2.0503
0.372371
0.370131
0.611547
0.355961
0.439595
0.390001
0.342782
0.31903
0.57393
0.379922
0.422434
0.310148
0.402373
0.385835
0.725251
0.442512
0.785902
0.948863
0.747223
0.373699
0.381764
0.725719
0.260753
0.528935
0.341489
0.366907
0.308685
0.779381
0.603626
0.654292
0.729623
0.590071
0.300861
0.409613
0.858131
0.793059
0.369162
0.356002
0.439253
1.43478
0.335327
0.30322
0.361819
0.32694
0.822216
0.320264
0.585774
0.889298
1.056
1.89044
0.519901
0.43486
0.777377
1.34586
0.85034
0.559144
0.759408
0.923201
0.504573
0.358506
0.426024
0.356456
0.291107
0.309989
0.403326
0.490889
1.87343
0.352245
0.389823
0.404403
0.375742
0.451381
0.545925
0.465198
0.369281
0.378313
1.04803
1.06519
0.178819
0.379776
0.324841
0.349968
1.5178
0.822009
0.368831
0.642604
0.319147
0.420155
0.549065
0.539297
0.322988
0.320621
0.314612
0.374288
0.900192
0.438065
0.339331
0.727647
0.303986
0.936659
0.698123
0.453831
0.682351
0.349395
0.302729
0.315149
0.306778
0.350272
0.377584
0.31556
0.330387
0.316333
0.304652
0.485195
0.625979
0.709537
0.30854
0.45606
0.345505
0.37366
0.330109
0.603855
0.338321
0.324902
0.321833
0.302512
0.311942
0.316092
0.438882
0.297515
0.340968
0.351743
0.595241
0.31063
0.372459
0.485293
0.776118
0.869595
0.368073
0.872411
0.499893
0.354641
0.32856
0.515446
0.32046
3.03885
0.398629
0.308992
0.405113
0.451309
0.388577
0.436849
0.705115
0.962478
0.425758
0.836316
0.326056
0.297077
0.374217
0.303279
0.302276
0.389134
0.304172
0.305732
0.564239
0.303052
0.249599
1.63256
0.550551
0.300827
0.302141
0.633196
0.320437
0.313628
0.556266
0.313264
0.729246
0.380471
0.761702
0.303014
0.526295
0.425688
0.650757
0.308078
0.421516
0.308047
0.997889
0.364328
0.302419
1.1976
0.410001
0.486001
0.339636
0.353996
0.373675
0.303188
0.487517
0.302677
0.308389
0.301187
0.432184
0.54269
0.311672
0.309079
0.309549
0.305626
0.318102
1.84971
0.302406
0.439116
0.3018
0.551623
0.339754
0.351531
0.345973
0.450459
0.321565
0.40033
0.293151
0.325075
0.320359
0.333338
0.302824
0.418307
0.389283
0.872005
0.950677
0.773105
0.378012
0.328038
0.326714
0.3023
0.30471
1.03145
0.618744
0.382851
0.354629
0.29493
0.319997
0.293589
0.308408
0.511292
0.494304
0.750484
0.954095
0.354286
0.35544
0.387398
0.302284
0.555968
0.347538
0.439298
0.357211
0.343611
1.05829
0.397359
0.295818
0.321976
0.385562
0.307293
0.489913
0.301437
0.669341
0.356927
0.888792
0.477553
0.75582
0.309479
0.321378
0.339346
0.374406
0.344886
0.358236
0.306313
0.301392
0.306825
0.314774
0.354886
0.577241
0.354184
0.840533
0.399422
0.317638
0.501773
0.381689
0.361451
0.266089
1.04288
0.862188
0.252959
0.316519
0.30846
0.8265
0.302041
0.399627
0.362817
0.350058
0.277221
0.359535
0.356602
0.301469
0.404473
0.439972
0.944635
0.514945
0.423769
0.293371
0.383865
0.535439
0.333157
0.30454
0.860048
0.798636
0.341356
0.744509
0.308281
0.300385
0.381516
0.308122
0.867776
0.299135
0.300428
0.304923
0.63881
0.301692
0.341784
0.438735
0.446236
0.300553
0.317883
0.323491
0.321737
0.306435
0.346177
0.351098
0.575253
0.411811
0.364632
0.558147
0.356737
0.593284
0.34595
0.874983
0.428379
0.282556
0.645805
0.193078
0.416017
0.510187
0.568374
0.381362
0.301054
0.303193
0.296417
0.355233
0.814916
0.368463
0.30045
0.347066
0.360292
0.294203
0.466291
0.326089
0.366091
0.445897
0.320386
0.30752
0.334353
0.32448
2.01516
0.911209
0.36779
0.354402
0.409529
0.350144
0.786323
0.967482
1.00089
0.760538
0.342347
0.319556