/*--------------------------------*- C++ -*----------------------------------*\
| =========                 |                                                 |
| \\      /  F ield         | OpenFOAM: The Open Source CFD Toolbox           |
|  \\    /   O peration     | Version:  2506                                  |
|   \\  /    A nd           | Website:  www.openfoam.com                      |
|    \\/     M anipulation  |                                                 |
\*---------------------------------------------------------------------------*/
FoamFile
{
    version     2.0;
    format      ascii;
    arch        "LSB;label=32;scalar=64";
    class       volScalarField;
    location    "0.0689511";
    object      nut;
}
// * * * * * * * * * * * * * * * * * * * * * * * * * * * * * * * * * * * * * //

dimensions      [0 2 -1 0 0 0 0];

internalField   nonuniform List<scalar> 
47425
(
0.00496656
0.00487577
0.00430893
0.00195937
0.00322328
0.00442542
0.00437545
0.00316592
0.00742777
0.00229548
0.00240554
0.0073852
0.00495822
0.0039017
0.00316039
0.00372193
0.00446266
0.00241002
0.000248878
0.00270962
0.00374476
0.00675414
0.00304266
0.00492683
0.00666959
0.00675515
0.00380772
0.000485736
0.00419181
0.00540424
0.00714544
0.00713638
0.00745915
0.00434776
0.00528158
0.00468086
0.00681192
0.00537817
0.00462263
0.00419946
0.00499606
0.00443059
0.00488075
0.00260976
0.000902116
0.00330746
0.00342207
0.00451877
0.00382678
0.00630426
0.000635462
0.00263902
0.00596004
0.00113267
0.00324133
0.00294092
0.00666184
0.00509601
0.00247631
0.00500525
0.000905474
0.000713964
0.00103463
0.00292843
0.0073849
0.00673694
0.00555506
0.00410873
0.00107834
0.00518989
0.003867
0.00556113
0.0060443
0.00340552
0.00145817
0.00746319
0.00107502
0.00378436
0.000197492
0.00191808
0.00142284
0.0047551
0.007122
0.00742905
0.00601171
0.00383687
0.00540224
0.00549951
0.00412083
0.00147305
0.00693202
0.00440696
0.00710154
0.00321461
0.00258193
0.00186993
0.00625856
0.00558949
0.0034895
0.00451187
0.0055662
0.000940697
0.00587091
0.000967196
0.00600261
0.00699229
0.00605073
0.00338648
0.00612443
0.00703446
0.00346402
0.0051773
0.00580119
0.00225358
0.00734096
0.000338345
0.00736479
0.000730449
0.00427908
0.00524269
0.00399482
0.0074714
0.00590384
0.00253186
0.0035853
0.00670138
0.00374539
0.0074179
0.00333564
0.00711297
0.0068555
0.0033966
0.00100443
0.00288381
0.00456177
0.00444969
0.00647735
0.00644029
0.00443939
0.0031541
0.00499007
0.00223404
0.00465974
0.00497033
0.00627586
0.00742414
0.00374934
0.00542248
0.00238441
0.00499671
0.00500819
0.000539902
0.00738985
0.000415909
0.00291476
0.00380108
0.00283507
0.000301905
0.00378761
0.00452338
0.0074443
0.00685535
0.00589662
0.0066305
0.00118355
0.000423705
0.00743271
0.00144541
0.00314194
0.000778782
0.00152467
0.00405777
0.00479069
0.00325161
0.00480034
0.00123307
0.00038965
0.0041735
0.005614
0.00688186
0.000316626
0.00604813
0.00486038
0.00650791
0.00640282
0.00696011
0.00538583
0.00108691
0.00234211
0.00519342
0.00746955
0.00414048
0.00502591
0.00474284
0.0064869
0.00734194
0.00582736
0.0044325
0.00746287
0.00346193
0.00500329
0.00295826
0.0057547
0.00730447
0.00238066
0.0023639
0.00548554
0.00724962
0.00400973
0.00747105
0.00470631
0.00456238
0.00745919
0.00332381
0.00471466
0.00472154
0.00394292
0.00183545
0.00328575
0.00380335
0.00184067
0.00237608
0.00442158
0.0031053
0.00238051
0.00161207
0.00650958
0.00244715
0.0071938
0.00392243
0.00419455
0.00432011
0.00329331
0.00748889
0.00222143
0.00344528
0.00169608
0.00295621
0.00190432
0.00201536
0.00401429
0.0048591
0.00704579
0.00298862
0.00676363
0.00733161
0.00444563
0.00590001
0.00688073
0.00393389
0.00710533
0.00220539
0.00456026
0.00742026
0.00340083
0.0070224
0.00666516
0.00301285
0.00322372
0.00739659
0.00303451
0.00745965
0.00395117
0.00266349
0.00509188
0.0038827
0.0068135
0.00438398
0.00472258
0.00394438
0.00394267
0.00212453
0.00176708
0.00611492
0.00221928
0.00207714
0.00221927
0.000540666
0.00181532
0.000595729
0.000902953
0.00498694
0.000820383
0.00294124
0.0039058
0.0035553
0.00336666
0.00351454
0.00399401
0.00747393
0.000750667
0.00500409
0.00737543
0.00526164
0.00451782
0.00329774
0.00287237
0.00647604
0.00482806
0.00489151
0.00377912
0.00676111
0.00378785
0.00497283
0.00100136
0.000818503
0.000546377
0.0070564
0.00612535
0.00698428
0.00318547
0.000813717
0.00368779
0.00281712
0.00183588
0.00461546
0.00328045
0.00302735
0.00337017
0.0014732
0.00190616
0.00695662
0.00509515
0.00620727
0.00410772
0.00683367
0.00397928
0.00469528
0.0056243
0.00417026
0.00357747
0.000958315
0.00382924
0.00406329
0.00297233
0.00702675
0.000843677
0.00632699
0.00645356
0.00568369
0.00680278
0.00675
0.00652387
0.00581473
0.00567723
0.00593766
0.0050268
0.00650769
0.00365196
0.00401623
0.00668712
0.00668363
0.00508396
0.00649767
0.00655733
0.00255691
0.00397724
0.00713486
0.0064011
0.00385729
0.00194209
0.00550068
0.00412819
0.0033498
0.00621711
0.00655886
0.00279048
0.00743424
0.0048315
0.00696441
0.00276441
0.00122146
0.00385167
0.00717846
0.00192608
0.00713433
0.00411932
0.00383638
0.00502325
0.00677755
0.00563157
0.00699826
0.00699046
0.00481462
0.00400791
0.00439932
0.00380809
0.00578693
0.00717403
0.00382971
0.00616109
0.0060584
0.00402542
0.00528342
0.00461815
0.00640302
0.00516857
0.00356032
0.00329721
0.00604143
0.00098379
0.00657299
0.00216962
0.00468488
0.00344705
0.00341975
0.00635674
0.00238568
0.0064101
0.00352437
0.00667308
0.00113118
0.00100449
0.00692213
0.00261416
0.00383745
0.00357867
0.00381986
0.00414638
0.00375849
0.00399549
0.00477765
0.00651516
0.00305846
0.00444518
0.00612025
0.00356626
0.00389863
0.00594397
0.000880579
0.000385523
0.00664249
0.000478436
0.000487251
0.00395077
0.000460939
0.000955429
0.00629029
0.00381112
0.00404932
0.00386259
0.00101666
0.00376727
0.00593822
0.0061381
0.00414209
0.00412817
0.00397636
0.00374861
0.00108026
0.000744349
0.00121796
0.00543755
0.000974838
0.00380922
0.00518023
0.00708246
0.00506647
0.00714458
0.0042292
0.00478999
0.00284693
0.00441886
0.00748961
0.003843
0.00508236
0.00428397
0.00722069
0.00479561
0.00456926
0.00523093
0.00562937
0.00338932
0.00276605
0.00502147
0.00412483
0.00715483
0.00129977
0.00277785
0.00197994
0.00744304
0.00256216
0.00322548
0.00287685
0.00695476
0.00391387
0.00740269
0.00486302
0.0028204
0.00325163
0.0035045
0.00315382
0.00535871
0.00226575
0.000857695
0.00628495
0.00155696
0.00558775
0.00158859
0.00604836
0.00576991
0.00683984
0.00440276
0.00518157
0.00293756
0.00493712
0.00643832
0.00696334
0.00611553
0.00432676
0.00262631
0.00356909
0.00704795
0.00552676
0.00493333
0.00510755
0.00514617
0.00477022
0.00435912
0.00247784
0.00472286
0.00372038
0.000663201
0.00508095
0.00440581
0.0062425
0.0074118
0.00172227
0.00212998
0.00438734
0.00598993
0.00424266
0.00407845
0.00683779
0.00205222
0.00747829
0.00414039
0.00234095
0.00271776
0.00511415
0.00280098
0.00720541
0.00420327
0.00425024
0.00562416
0.00688682
0.00564208
0.000916862
0.00477394
0.00242395
0.00658042
0.00186937
0.0062759
0.00507242
0.00206335
0.00238027
0.00446395
0.00657227
0.000715828
0.00537275
0.00525598
0.005278
0.00613407
0.00673811
0.00225383
0.00290163
0.00608151
0.00506158
0.00463259
0.0068763
0.00194816
0.00692805
0.00501745
0.000428124
0.00433099
0.00700387
0.000837684
0.00128686
0.00704766
0.00031815
0.000334306
0.00419474
0.00744587
0.00563797
0.00685002
0.00426246
0.00381747
0.00131926
0.00693671
0.00268776
0.00600166
0.00202795
0.00225356
0.00433122
0.00472706
0.00151466
0.00719202
0.00587834
0.00341127
0.00335567
0.00246709
0.00297061
0.0029833
0.00668039
0.00333293
0.00285124
0.00294617
0.00532565
0.00286999
0.00327867
0.00636505
0.00245165
0.00363184
0.00392799
0.00268723
0.00334358
0.0043677
0.00492963
0.00603044
0.00164735
0.00507714
0.00645012
0.00637036
0.000295665
0.00390818
0.00502225
0.000518102
0.000835533
0.00700807
0.0046326
0.000147105
0.00205077
0.000767133
0.00262517
0.00315409
0.000750633
0.00499613
0.00612082
0.00590948
0.00292225
0.00335452
0.0033283
0.00633917
0.00311891
0.00446058
0.0037864
0.00608877
0.00425382
0.00377703
0.00170359
0.000985712
0.00276391
0.00286295
0.00398506
0.00584961
0.0034213
0.00741648
0.00605407
0.00567854
0.00526709
0.00570297
0.00191175
0.00469482
0.00630449
0.00185097
0.00192462
0.00100579
0.00116614
0.00388734
0.00717003
0.00481576
0.0068581
0.00121823
0.00437931
0.00127467
0.00416987
0.00393452
0.00504081
0.00464676
0.00550352
0.00336046
0.00187461
0.00347278
0.00513037
0.00188683
0.0042026
0.00748588
0.00418811
0.00396714
0.00186901
0.00488554
0.00184353
0.00331593
0.00747321
0.00685289
0.0024731
0.00404235
0.00354679
0.00743277
0.00502795
0.00402904
0.00438162
0.00407398
0.00386715
0.00468346
0.000875122
0.000600784
0.00425832
0.000783934
0.00446195
0.0028526
0.00335624
0.00616577
0.00429811
0.00471792
0.00403793
0.0039818
0.00670236
0.000564739
0.00252957
0.00331629
0.00506792
0.00640263
0.00372539
0.00525664
0.00237903
0.00735258
0.00194505
0.00399734
0.00673498
0.00408844
0.00645911
0.00523218
0.00438317
0.00591234
0.00350962
0.00710027
0.00647702
0.00366916
0.00101454
0.00714476
0.000735394
0.00233105
0.00208449
0.000738144
0.00414646
0.0040156
0.00209154
0.00348807
0.00079544
0.000828284
0.000916667
0.00317999
0.00479894
0.00363898
0.00289763
0.000852074
0.00245324
0.00362574
0.00550642
0.00429538
0.00413771
0.00307107
0.00563465
0.00415723
0.00128656
0.00193176
0.00555534
0.00246468
0.00106366
0.000684421
0.00370129
0.000567799
0.00187411
0.000653099
0.000835457
0.00449996
0.00300342
0.00684861
0.00641707
0.00474814
0.000734344
0.00122401
0.00470094
0.00477627
0.00698521
0.000885741
0.000867774
0.00703412
0.00224176
0.00360599
0.00702507
0.00219433
0.0070522
0.00697223
0.00421457
0.00473936
0.00154718
0.00628077
0.00699757
0.00495531
0.00516333
0.00514121
0.00100531
0.00189282
0.00687612
0.00122506
0.006081
0.00642321
0.00639782
0.00175991
0.0044831
0.00196796
0.00258976
0.0055318
0.00703682
0.00124285
0.000644566
0.00439895
0.00381831
0.00193761
0.00525763
0.00560991
0.00295733
0.00271646
0.00294507
0.00659358
0.00243441
0.00107337
0.0074237
0.00107541
0.0051989
0.00394516
0.00672064
0.00198874
0.00265937
0.00689052
0.00409552
0.00124198
0.00318901
0.00191849
0.00455141
0.00530544
0.00453916
0.00351582
0.0044099
0.00303149
0.00068102
0.00454536
0.00252793
0.00177599
0.00176104
0.00106817
0.00171828
0.00407477
0.000540345
0.0067693
0.00639334
0.00402258
0.00274747
0.00377576
0.00138875
0.00131333
0.00317548
0.00458106
0.00439834
0.00313763
0.0035353
0.00387595
0.0100282
0.00137264
0.00392163
0.00386327
0.00283542
0.00185637
0.00587372
0.000545996
0.00388546
0.00537204
0.00386731
0.00392409
0.00826611
0.00659929
0.00333275
0.00386329
0.000693597
0.00270699
0.00475722
0.0036277
0.00551237
0.00348928
0.000762586
0.00462405
0.00216578
0.00546642
0.00178922
0.00286743
0.00376016
0.00546097
0.00529002
0.00357869
0.00213591
0.00383208
0.00161266
0.000740528
0.00520062
0.00683373
0.00485158
0.00103354
0.00517505
0.00270972
0.00698096
0.00166675
0.00166907
0.00378553
0.00298497
0.0043428
0.00695889
0.00514754
0.00314241
0.00113839
0.00217578
0.00114198
0.00654223
0.00220651
0.00244587
0.00297646
0.0035177
0.0051693
0.00168045
0.00163862
0.00368933
0.000913472
0.00351792
0.00351706
0.00420683
0.00477462
0.0036574
0.00470528
0.00120675
0.00427985
0.00403383
0.00433071
0.00589903
0.000780414
0.0025538
0.000697596
0.00152653
0.000877562
0.00207388
0.00384125
0.00126929
0.00343896
0.00124199
0.00198874
0.00203519
0.00144327
0.00293723
0.00510579
0.00419452
0.00746835
0.00141985
0.00367217
0.0033948
0.00432217
0.00131664
0.00570334
0.00425264
0.00584736
0.00746034
0.00290668
0.00179374
0.00294914
0.00309555
0.00520209
0.00231556
0.00652271
0.00313624
0.00306693
0.00661326
0.00231511
0.00230177
0.00421617
0.00202638
0.00379763
0.0033276
0.00204856
0.00291239
0.00307881
0.000219395
0.000656765
0.00169756
0.000770585
0.00328342
0.00325519
0.00061116
0.000928007
0.00487907
0.00101793
0.00330983
0.00417521
0.00054637
0.00260744
0.00689577
0.00316414
0.00145237
0.00591272
0.000682223
0.000340889
0.00221948
0.000824004
0.00222197
0.000936874
0.000840332
0.00535998
0.00445276
0.00275791
0.00184969
0.00364351
0.0072572
0.00205178
0.000686924
0.00450401
0.00164971
0.00425005
0.00200634
0.00616053
0.00582423
0.00237535
0.0022866
0.00414787
0.00175411
0.00493915
0.00142097
0.00697301
0.00569074
0.0043048
0.00221222
0.0048995
0.00709541
0.000771402
0.00190987
0.00175665
0.00368941
0.00251514
0.00226991
0.0012017
0.00398374
0.00114396
0.00304111
0.00502739
0.00312046
0.0024514
0.000895624
0.00197567
0.00174768
0.00587855
0.00485305
0.00198871
0.00398222
0.0028007
0.00499732
0.00740451
0.00620553
0.00388278
0.00299081
0.000820931
0.0039302
0.000496277
0.00375829
0.00434857
0.00297598
0.00511686
0.00369857
0.00400557
0.00443794
0.00193346
0.00559641
0.00143484
0.00694374
0.000366431
0.001342
0.00140392
0.00197477
0.00410345
0.00532297
0.00343048
0.00500717
0.000632479
0.000747644
0.0033797
0.00218816
0.000992732
0.000929302
0.00231734
0.00115648
0.000595304
0.00352503
0.00477202
0.000549679
0.00381797
0.00449126
0.00419637
0.00114041
0.000558448
0.00388146
0.00367755
0.0013022
0.00257432
0.00130808
0.000754578
0.00324962
0.00109418
0.00117841
0.0033498
0.00452065
0.0011177
0.00586249
0.00158786
0.00023446
0.00708536
0.00430218
0.00377645
0.00527423
0.00299664
0.00303102
0.00728207
0.00296295
0.00412651
0.000818592
0.00158554
0.00448146
0.00141563
0.00573846
0.000388586
0.00678746
0.00352982
0.00233908
0.00526527
0.000988499
0.0038949
0.00303565
0.00236355
0.00365263
0.00393055
0.00550887
0.00211181
0.000687401
0.00585835
0.00146366
0.000715628
0.00236353
0.00354645
0.00100531
0.00169036
0.00478124
0.00527209
0.00103152
0.00174119
0.0022646
0.000819844
0.00258599
0.000923796
0.00341603
0.00278359
0.00214541
0.000998701
0.00529665
0.00553344
0.00211475
0.00428462
0.00255693
0.00405591
0.00122758
0.00509272
0.00360456
0.00575595
0.00142481
0.00560398
0.000606958
0.00218717
0.00556653
0.00739777
0.00188736
0.00164204
0.000880384
0.0019395
0.00206393
0.00110382
0.000864605
0.00399787
0.000926289
0.00507218
0.00283905
0.000416313
0.00150332
0.00308877
0.00342697
0.00561309
0.00148081
0.000710715
0.001592
0.00279426
0.00717579
0.00704962
0.00180667
0.00407219
0.00379482
0.00627786
0.00103845
0.00322206
0.00162233
0.00411846
0.00155839
0.00400396
0.00323538
0.00110364
0.00182996
0.00238094
0.00253361
0.00546432
0.000399135
0.0016508
0.00153154
0.00142746
0.00478518
0.00527635
0.00104469
0.000784479
0.00163144
0.00271172
0.00282174
0.0015924
0.00242817
0.00151079
0.00535339
0.00130507
0.00133525
0.00537633
0.00118053
0.00335411
0.00255779
0.00273626
0.00128064
0.00247049
0.00578882
0.000698159
0.00331036
0.00065417
0.00261813
0.00364599
0.00304895
0.00193713
0.0012896
0.00233056
0.00394288
0.00293706
0.00118691
0.00384549
0.00417386
0.000672793
0.00682591
0.00359616
0.000862365
0.00347107
0.00265567
0.00228876
0.00239804
0.00118344
0.00362342
0.000157922
0.00224722
0.000796042
0.00286884
0.00113335
0.00271584
0.000885259
0.00138001
0.00136637
0.002964
0.0039664
0.00741052
0.00404036
0.00361124
0.00289166
0.000721257
0.00375894
0.00596003
0.00422551
0.0048645
0.00302917
0.00415736
0.00713894
0.00745279
0.00299043
0.000975112
0.00662547
0.00279014
0.00239142
0.00523042
0.00633528
0.00283623
0.00221264
0.00747109
0.00543849
0.00332858
0.00351601
0.00585917
0.00387984
0.00115718
0.00385884
0.00334043
0.00555249
0.00685649
0.00207509
0.00463884
0.00580644
0.000840249
0.00197396
0.000962705
0.00655469
0.000945869
0.000425377
0.00576273
0.000385382
0.000780603
0.000566967
0.00392153
0.00467583
0.00424386
0.00140308
0.00679401
0.00440426
0.00447747
0.00387938
0.00271729
0.00346515
0.00343681
0.00104126
0.00431747
0.00270573
0.000832596
0.00400576
0.000325169
0.00167582
0.00124334
0.00636058
0.0030224
0.00194031
0.00570415
0.00462247
0.00192738
0.00697574
0.00296511
0.00168829
0.000433891
0.00720077
0.00150728
0.00508431
0.00299242
0.00293447
0.00525179
0.00134444
0.0046159
0.00210487
0.00443732
0.00129906
0.000279982
0.00387993
0.00683132
0.00237639
0.00462692
0.000855465
0.00374786
0.00374776
0.00440549
0.00417576
0.00541388
0.0072357
0.00373645
0.00220253
0.00521572
0.00218502
0.00398556
0.00376427
0.00708714
0.00229947
0.00276709
0.0040027
0.00493483
0.0045681
0.00451872
0.00308062
0.00415288
0.00437697
0.0057592
0.00234444
0.0026109
0.0074721
0.00384514
0.00353983
0.00505774
0.00380733
0.00313663
0.00415992
0.00363609
0.00389376
0.00529359
0.00384748
0.00571383
0.0046596
0.00618791
0.00204766
0.00223026
0.00196174
0.00361933
0.00470845
0.00406991
0.0012077
0.00517407
0.00497998
0.00535854
0.00148649
0.00298521
0.0012388
0.00123067
0.0012558
0.00321804
0.00444868
0.00404964
0.00414176
0.00623692
0.00119015
0.00394831
0.00630314
0.00407029
0.0031566
0.00393798
0.00148879
0.00396114
0.00236194
0.0027065
0.00337944
0.00602072
0.00435048
0.00369078
0.00375248
0.00448879
0.00298391
0.00325702
0.00278953
0.00366904
0.00508206
0.00494781
0.0021196
0.00189842
0.00464534
0.00409994
0.00230588
0.00372753
0.00228056
0.00647606
0.00515886
0.00230082
0.00458176
0.00565741
0.00463539
0.006718
0.00639579
0.00338268
0.00426958
0.00212203
0.00436204
0.00232003
0.00581491
0.00428228
0.000992606
0.0039733
0.00420699
0.00492469
0.00503735
0.00394487
0.00425126
0.000320561
0.00346767
0.00356052
0.00584488
0.00511746
0.00495055
0.00705081
0.00608275
0.00350409
0.00406091
0.00610907
0.00655033
0.0027871
0.000978862
0.00127992
0.00299961
0.00174951
0.00350554
0.00382335
0.00353753
0.00208966
0.00194438
0.00325233
0.00393831
0.000831988
0.00472085
0.00393072
0.00381717
0.00395611
0.00605168
0.000302011
0.00457929
0.00356868
0.00743041
0.00262429
0.00253782
0.000408183
0.000229374
0.00456073
0.00563148
0.00684688
0.00395695
0.00362224
0.00487137
0.000208695
0.00135418
0.00466863
0.00251491
0.0013082
0.00482017
0.00491291
0.00343556
0.00680956
0.00491318
0.00650931
0.00420805
0.00281532
0.00385484
0.00419287
0.00508376
0.00188173
0.00421046
0.00743716
0.00147829
0.0057192
0.00339448
0.00291572
0.00105671
0.00172572
0.0034352
0.00287963
0.0048221
0.00284779
0.00284128
0.00594749
0.000582572
0.00170957
0.00287974
0.0038757
0.00339966
0.00383649
0.00379619
0.00111202
0.0070784
0.00655039
0.00574173
0.00538245
0.000866941
0.00126973
0.00127678
0.00181736
0.0030064
0.00287971
0.00710028
0.00681775
0.00454909
0.00485164
0.00503836
0.00548555
0.00703666
0.00106336
0.000773373
0.00697535
0.00587787
0.00266525
0.00244769
0.00290315
0.00699059
0.0049379
0.0017383
0.000895142
0.00340611
0.00201925
0.00406775
0.00148045
0.000554413
0.0030552
0.00606351
0.00689438
0.00617165
0.000895263
0.00521391
0.00435008
0.00418367
0.00706414
0.000906993
0.000374906
0.000479109
0.00164791
0.00436661
0.00586524
0.0067314
0.0022071
0.00377435
0.000919011
0.000840527
0.000852788
0.000507751
0.00082841
0.00167616
0.00647274
0.000790322
0.0073976
0.000331334
0.00390476
0.000767221
0.00444314
0.00168324
0.00540268
0.00291219
0.00224757
0.0022549
0.00449019
0.00559552
0.00398891
0.00088686
0.00105598
0.00500277
0.00516438
0.000471532
0.000461825
0.00358006
0.0016815
0.000726409
0.00145818
0.00459314
0.0065898
0.000882023
0.000701651
0.00153701
0.00704194
0.00136323
0.00612953
0.000773284
0.00108614
0.000574177
0.00237432
0.00553556
0.00150214
0.00647732
0.00460686
0.00375544
0.00214295
0.00588113
0.00353287
0.00446509
0.00377413
0.00412551
0.00654973
0.00620194
0.00330589
0.00657247
0.00564349
0.00420806
0.0037634
0.00152581
0.00378392
0.00237822
0.00401829
0.00502051
0.00381566
0.000943221
0.0034234
0.00331595
0.00187152
0.000563309
0.00415298
0.00402568
0.00309108
0.000968561
0.00164986
0.00128219
0.00458372
0.00632987
0.00442876
0.00336182
0.00537533
0.00337707
0.00312658
0.00364225
0.00688805
0.00450699
0.00458436
0.00441845
0.00314111
0.0042474
0.00364944
0.000649226
0.00344493
0.00396306
0.00413767
0.00289347
0.00109323
0.00282813
0.00376716
0.00447596
0.00308124
0.00124796
0.00116364
0.00376185
0.00320849
0.000369156
0.00149638
0.00204094
0.00403461
0.00146916
0.00308476
0.0039854
0.00269755
0.00112772
0.00471854
0.00405685
0.00239293
0.00633053
0.00235835
0.00269042
0.00307718
0.0033295
0.00194444
0.00407059
0.00584292
0.0068899
0.00179172
0.00323307
0.00429567
0.00587637
0.00489331
0.000802881
0.00293941
0.00332267
0.00043983
0.00174684
0.00534542
0.00342965
0.00093536
0.00164167
0.00228323
0.0068627
0.00290001
0.00102345
0.00496451
0.00710087
0.000666751
0.00179986
0.00133601
0.00313391
0.00451748
0.00455761
0.00153232
0.000625573
0.000727017
0.00481853
0.00539878
0.000608268
0.0052037
0.00174827
0.00307944
0.00150224
0.000950077
0.00445853
0.00336898
0.00116524
0.00397837
0.00481013
0.00448427
0.00356619
0.0054551
0.000881754
0.000288837
0.00350859
0.00356478
0.000712696
0.000519431
0.000677636
0.00204307
0.00108032
0.00196405
0.000543741
0.00352553
0.00353175
0.0008456
0.00230398
0.00234103
0.00106189
0.000945549
0.000422898
0.00558024
0.00514406
0.000763165
0.00655314
0.00423411
0.000821315
0.00523054
0.00322352
0.00398875
0.00300112
0.00500778
0.00610466
0.000462464
0.00054047
0.00230693
0.000707642
0.00239993
0.00358736
0.00429824
0.00430916
0.00329655
0.0043294
0.00505492
0.00390399
0.00458266
0.000703177
0.000648785
0.0041363
0.00168447
0.00381922
0.00421521
0.00256084
0.00352194
0.00364099
0.00444232
0.000510396
0.00108627
0.00427438
0.000635716
0.00279888
0.00141412
0.00291024
0.00339846
0.00101122
0.00280111
0.00106016
0.00429847
0.00290414
0.00290327
0.00618737
0.00113917
0.00696994
0.00531669
0.00234963
0.00425463
0.00143472
0.00330516
0.00249164
0.00338538
0.000863481
0.00385101
0.00340758
0.00363472
0.00691755
0.00374168
0.00347316
0.00174547
0.0004497
0.00274878
0.000728478
0.0034822
0.00431086
0.0049939
0.0044246
0.00489042
0.00463967
0.00329538
0.00121293
0.00172099
0.00120448
0.000612878
0.0045711
0.00387205
0.000156659
0.000879237
0.00459765
0.00462464
0.00123099
0.00374159
0.000705352
0.000445024
0.0026536
0.000822373
0.00129414
0.00275171
0.000740174
0.0016678
0.00568083
0.00348364
0.00102946
0.00125906
0.006195
0.000947992
0.00652292
0.00262951
0.0043851
0.00261869
0.00182538
0.000824931
0.00101028
0.0058923
0.00568914
0.00024051
0.00674998
0.0045644
0.00116019
0.00568448
0.00277457
0.00428084
0.00319047
0.000523523
0.00145546
0.000918956
0.00168061
0.00315235
0.00109193
0.00553888
0.00474389
0.0010029
0.00644842
0.00364473
0.0026198
0.00499635
0.00126724
0.000636211
0.00662573
0.00221031
0.0069304
0.000732223
0.00387784
0.000575209
0.00278112
0.00288656
0.00560336
0.00248621
0.00265721
0.00620713
0.00442783
0.00320753
0.00697517
0.00137824
0.00324268
0.00348026
0.00620945
0.00392212
0.00347101
0.00243264
0.00286573
0.00177393
0.00303403
0.00343843
0.00373473
0.00141281
0.000551881
0.000791097
0.000698183
0.00114339
0.000818586
0.000988378
0.00253088
0.000224386
0.000730618
0.00137039
0.0017251
0.00253396
0.00105267
0.000975393
0.00226207
0.00144034
0.00207724
0.00605616
0.00256613
0.00164435
0.00378405
0.00090944
0.00328471
0.000603749
0.00183897
0.00116049
0.0013828
0.00140941
0.000753902
0.00181106
0.000655324
0.0026186
0.00258151
0.00388492
0.00166803
0.00492074
0.00538628
0.00092254
0.00328449
0.000946423
0.00181795
0.00502999
0.00233632
0.00390233
0.00146907
0.0012226
0.00668141
0.00552614
0.00158149
0.000931056
0.00364056
0.00266475
0.00115697
0.00106953
0.0041554
0.00690465
0.00384264
0.00401943
0.000782322
0.00704765
0.000878768
0.000357292
0.00492772
0.00247625
0.00405402
0.00341677
0.000865973
0.00277036
0.000763305
0.00319031
0.00418369
0.000514025
0.00100639
0.00512866
0.0023091
0.00509952
0.00633429
0.00126122
0.00307496
0.000746723
0.00354512
0.00601567
0.00257766
0.0066106
0.00458598
0.00507392
0.00461695
0.00272142
0.00210836
0.00143031
0.00382702
0.00106728
0.0051814
0.00650717
0.00214974
0.00125163
0.000819233
0.000850417
0.00192898
0.00194186
0.0010352
0.000911168
0.000818947
0.000828915
0.00301883
0.0029998
0.00392397
0.00136379
0.00499942
0.00267252
0.00309769
0.00131221
0.000509813
0.00348142
0.0025518
0.00347542
0.00432493
0.00335711
0.00370425
0.00586931
0.00446807
0.00249571
0.00286356
0.00264948
0.0052569
0.00287801
0.00151222
0.000747725
0.00414634
0.00056877
0.00744392
0.0028806
0.00684677
0.00439086
0.000887008
0.00268911
0.00112511
0.00362609
0.00340453
0.0032338
0.00435089
0.00462774
0.0039648
0.00316792
0.00992012
0.00730792
0.00077038
0.00289473
0.00120284
0.00280293
0.00106155
0.00550005
0.00447266
0.00334731
0.00380397
0.0028754
0.000948757
0.00623758
0.004014
0.00123259
0.00246717
0.00243077
0.00256283
0.00243944
0.00224869
0.00208901
0.00478707
0.00742414
0.00637371
0.00192564
0.00145492
0.00450693
0.000491577
0.00665833
0.00173166
0.00671778
0.00599327
0.00179538
0.00435098
0.00635564
0.000937926
0.00742105
0.00405061
0.00137297
0.0034838
0.00669808
0.00126422
0.00660926
0.00728987
0.00106586
0.00272255
0.00286397
0.000738701
0.00715415
0.00189945
0.00129559
0.00165182
0.000922373
0.00114705
0.0044155
0.00582476
0.00281521
0.00566447
0.00178385
0.00286229
0.00490638
0.00563726
0.00348112
0.00115953
0.00295934
0.00421489
0.00281808
0.00339501
0.00245818
0.00738819
0.00209993
0.00110176
0.0035869
0.00328071
0.00456703
0.00432628
0.00285976
0.00432335
0.00216303
0.00320042
0.000602973
0.00387287
0.00702314
0.000967106
0.00286875
0.000652306
0.000961886
0.00637208
0.00328498
0.00119907
0.00309252
0.000644194
0.0013937
0.000554707
0.00138432
0.00061837
0.00301963
0.00146282
0.00153008
0.000526815
0.00112803
0.00285856
0.000625826
0.000629329
0.00247962
0.000315588
0.00119677
0.00442637
0.00351795
0.00123797
0.000917421
0.00719636
0.00363269
0.000956326
0.000723339
0.00105453
0.00125402
0.00153111
0.00078431
0.00275969
0.0036008
0.00424365
0.00676387
0.00305775
0.00624884
0.000988639
0.00292827
0.00428057
0.000658352
0.00375609
0.00227898
0.00415212
0.00589012
0.0031184
0.00424799
0.00176336
0.00623811
0.00169891
0.000593933
0.00462124
0.00625823
0.0032334
0.00481736
0.000983566
0.00382181
0.0052126
0.00603543
0.000551443
0.00598078
0.00339621
0.00639712
0.00162962
0.00304392
0.0042737
0.00564914
0.00491289
0.00146882
0.00349343
0.00253898
0.0073875
0.00681998
0.00657506
0.00472972
0.00440715
0.00349196
0.00575211
0.00328464
0.00355808
0.00232575
0.00123
0.00107351
0.00312096
0.00172837
0.00410919
0.00261872
0.00345764
0.00369819
0.00619899
0.00314169
0.00424649
0.00609604
0.00211443
0.00450262
0.00303564
0.00103029
0.00471692
0.0026862
0.00114623
0.00354066
0.00109956
0.00182887
0.00116473
0.000330591
0.00272876
0.00501226
0.00197229
0.000443504
0.00282322
0.00690373
0.0058795
0.00497189
0.00328273
0.00436899
0.00697787
0.00687768
0.00355949
0.00273743
0.00728286
0.00638766
0.00719621
0.00505342
0.00280411
0.00169792
0.0029467
0.00593956
0.00323239
0.000913717
0.00504015
0.00569248
0.00378926
0.000577124
0.00059573
0.0037487
0.00539701
0.00453705
0.00293517
0.00452883
0.000743636
0.00168503
0.00471429
0.0039865
0.00561902
0.00336383
0.00176298
0.00443535
0.00318448
0.00342954
0.00125991
0.00193931
0.00143625
0.000914725
0.000236476
0.0021721
0.0018984
0.00376754
0.00376897
0.00330381
0.00320753
0.00539655
0.00423752
0.000468808
0.0062456
0.00176666
0.000894488
0.00326458
0.00293251
0.000755585
0.00200594
0.003904
0.00377132
0.00720778
0.00291866
0.00105588
0.00376544
0.00146773
0.00678857
0.00256081
0.000725112
0.000829572
0.00319838
0.00297443
0.00104169
0.00443565
0.000664693
0.000583716
0.00118642
0.00741959
0.00655744
0.000302587
0.00562788
0.000504607
0.00189399
0.00302651
0.00105782
0.00107976
0.00588615
0.00708042
0.000938806
0.0059258
0.00568093
0.00463178
0.00623852
0.00421974
0.00355734
0.00207426
0.00533823
0.00035301
0.0030729
0.00372222
0.00368025
0.000304672
0.00407109
0.000551804
0.00460064
0.00298529
0.0035336
0.00107501
0.00559136
0.00421778
0.00467713
0.000950346
0.00180782
0.00179181
0.00129658
0.00265514
0.0059823
0.000772611
0.00325913
0.00317571
0.0032761
0.00419329
0.003042
0.0038113
0.00717767
0.00036289
0.00124097
0.00425658
0.00463812
0.00310408
0.00373763
0.00267996
0.00271417
0.00445051
0.00223072
0.00424013
0.00465762
0.00410164
0.00156798
0.00436588
0.00429974
0.00441369
0.0034206
0.00674699
0.00536854
0.00468128
0.00274563
0.0040736
0.00269499
0.00253165
0.00348485
0.000739567
0.00470253
0.00264064
0.00151958
0.00119584
0.00148633
0.00357126
0.00717542
0.00177584
0.000797959
0.00392549
0.000980705
0.00396348
0.00701686
0.00266508
0.00171794
0.00378127
0.00416664
0.00726936
0.00469589
0.00034336
0.00467068
0.00632544
0.00234684
0.000490872
0.000525471
0.00342095
0.000287867
0.00147734
0.00112787
0.00231791
0.00120013
0.00052013
0.00466353
0.000816491
0.00385017
0.00491265
0.0069515
0.000500612
0.00202637
0.00668726
0.0055196
0.00098652
0.00391283
0.000500474
0.00482119
0.00288116
0.00410302
0.00288468
0.00062399
0.00722162
0.00311906
0.00278946
0.00531454
0.00364637
0.00546275
0.00281561
0.000453941
0.000452053
0.000750895
0.00139859
0.00124366
0.00558877
0.00595592
0.00484875
0.0036098
0.00679007
0.00139584
0.00707019
0.000873631
0.00415849
0.00633105
0.00556845
0.00469727
0.0064332
0.00319897
0.00293522
0.00719701
0.00306369
0.000868665
0.00505851
0.00100311
0.000917
0.00625378
0.000307804
0.000544026
0.00273291
0.00288017
0.00359127
0.00121088
0.00454693
0.00193282
0.00116849
0.00516288
0.00158322
0.0070148
0.00194885
0.00397375
0.00224054
0.00206305
0.000870406
0.00332799
0.00377415
0.00065431
0.001243
0.00193005
0.00150815
0.00566126
0.00177393
0.00401859
0.00180071
0.00317832
0.00612341
0.00127178
0.00262835
0.00230648
0.00646802
0.000566851
0.000810923
0.000546543
0.00549353
0.00393261
0.000844277
0.00055368
0.00184503
0.00365291
0.00249158
0.00102456
0.000669252
0.00169866
0.00446333
0.00499061
0.00425321
0.00467733
0.00399063
0.00055147
0.00494739
0.00165033
0.00310104
0.00660339
0.00256222
0.00256165
0.00464541
0.00385657
0.00486548
0.00227305
0.00199743
0.00468898
0.00546729
0.0021622
0.00310052
0.00275469
0.00192938
0.00219151
0.00354986
0.00587199
0.00565295
0.00512234
0.000748322
0.00350065
0.000929065
0.00219591
0.00362168
0.00483078
0.00322602
0.00703667
0.0024347
0.00747112
0.00197186
0.0023376
0.00358899
0.00414795