/*--------------------------------*- C++ -*----------------------------------*\
| =========                 |                                                 |
| \\      /  F ield         | OpenFOAM: The Open Source CFD Toolbox           |
|  \\    /   O peration     | Version:  2506                                  |
|   \\  /    A nd           | Website:  www.openfoam.com                      |
|    \\/     M anipulation  |                                                 |
\*---------------------------------------------------------------------------*/
FoamFile
{
    version     2.0;
    format      ascii;
    arch        "LSB;label=32;scalar=64";
    class       volScalarField;
    location    "0.0689511";
    object      omega;
}
// * * * * * * * * * * * * * * * * * * * * * * * * * * * * * * * * * * * * * //

dimensions      [0 0 -1 0 0 0 0];

internalField   nonuniform List<scalar> 
47425
(
59.267
67.2863
71.5215
160.571
142.721
70.8096
95.8886
100.958
49.394
594.568
136.448
43.852
72.3052
79.1688
95.6983
87.791
68.3797
47.6019
1349.91
194.554
84.2191
44.7606
104.07
62.8457
45.5062
43.7582
77.51
691.253
69.9332
55.1103
43.3393
44.6212
47.7434
68.2407
55.4485
66.583
44.3366
67.5583
65.5952
74.2865
71.2985
114.436
200.631
144.994
1863.2
103.353
95.4282
77.5998
78.4738
46.912
572.24
231.772
49.4384
700.756
112.341
122.898
44.4734
58.1735
79.3882
61.0384
918.168
1189.82
881.565
43.8977
49.3523
44.6237
61.4188
87.2203
732.736
44.261
78.0677
52.1715
48.7977
90.3511
628.74
49.4036
880.084
80.8638
1328.92
270.833
645.938
64.9832
43.0385
46.925
52.9062
81.5345
54.0142
52.9269
126.031
402.294
44.175
75.9894
41.9861
114.134
146.605
194.116
47.5934
52.8846
87.8554
77.9219
60.1193
91.9753
52.1236
97.1274
49.8206
52.32
49.8229
93.2982
67.294
44.3983
347.165
62.0222
72.7505
154.724
44.0828
885.865
43.3181
227.9
77.572
62.458
79.2691
48.5449
58.1087
63.0839
96.2751
57.7539
84.8532
49.1901
105.029
42.0378
44.8559
94.8753
124.887
118.965
104.799
68.0243
47.5991
60.9954
68.7715
96.6847
70.9437
130.245
70.3291
91.1216
51.6601
49.3287
115.075
62.6961
149.752
72.3642
91.1466
503.299
48.7558
695.293
46.1472
83.865
59.319
895.16
91.2463
71.2765
44.2295
43.1852
49.6321
46.3684
421.016
818.704
45.4837
637.993
106.03
729.555
685.504
84.8816
73.8606
45.5327
71.2006
65.6686
726.339
69.9818
52.541
43.4072
996.94
48.0383
60.081
45.6471
46.3886
48.4008
56.5669
75.8984
148.813
56.3646
47.9246
71.8055
82.8709
77.0206
46.0098
42.2932
61.8688
71.7759
43.3797
83.1841
65.672
122.914
63.0343
42.7566
49.0956
158.831
53.2045
42.4822
86.6737
48.44
63.0408
65.7619
47.2064
93.2269
63.882
63.686
76.5055
251.142
46.5078
92.9818
286.591
120.268
131.367
96.2279
166.73
241.286
45.8028
129.282
48.3788
60.499
72.1557
71.9445
102.235
49.3224
164.402
91.9862
330.413
111.371
274.803
180.735
83.1554
59.809
42.0068
101.793
44.469
49.4525
68.3579
60.6025
42.9264
77.1994
42.0102
222.051
66.8352
49.2833
91.3346
42.3142
45.5848
119.45
94.1427
48.3484
124.163
47.2089
78.511
134.76
72.2422
89.1332
43.7944
72.427
62.8199
81.7418
79.7529
240.422
316.978
48.6672
225.411
178.56
226.247
111.458
300.33
182.988
969.005
58.5085
927.163
122.493
79.3115
84.8625
103.695
90.6289
89.8725
45.2509
626.168
43.7774
50.3438
56.4693
67.367
97.2673
110.732
46.2965
65.2193
55.6127
86.6549
43.4275
85.0556
60.1265
827.619
1027.28
663.513
42.1327
48.0765
43.226
99.7819
685.219
85.9551
115.791
273.916
72.8227
103.943
121.68
93.0434
440.669
239.343
44.1405
60.1046
47.01
80.776
43.3314
77.8697
62.8422
52.3955
71.6798
83.5434
717.178
54.9744
74.3128
129.126
42.366
715.917
49.877
45.4196
52.8425
45.2741
45.6798
45.0738
52.3962
51.0686
50.3336
59.4049
46.7911
83.2477
82.6714
46.282
44.809
62.1795
47.1344
47.3124
46.349
80.2281
42.8893
48.1431
93.3991
54.0233
60.4754
77.0401
94.2478
47.9703
48.4553
130.262
48.2154
66.7015
44.1295
129.049
961.387
77.7597
43.2577
200.232
43.2857
102.547
93.1464
72.5499
44.5608
63.5006
44.0553
42.4343
73.7848
85.2163
82.8568
83.1968
52.4668
48.7486
82.0346
48.112
46.4303
79.8343
56.7659
65.3837
48.2525
61.701
88.0947
67.4258
48.7403
484.479
44.9413
427.707
69.1176
104.723
101.941
46.7538
145.064
46.0132
93.299
46.1806
513.866
365.059
42.6386
49.6864
79.8
85.4352
82.2144
74.1004
80.6942
88.7886
66.6758
45.4914
100.688
70.7292
48.3033
90.3886
77.8107
52.0788
145.634
1268.88
45.8574
282.58
1048.63
88.8992
1075.75
744.212
47.2846
79.7909
75.3905
78.5973
671.81
86.2783
49.4051
48.594
74.6005
75.0349
79.8952
79.8611
484.871
742.094
154.884
65.5407
72.1218
125.723
57.6509
43.4666
68.4435
42.993
83.9819
75.8089
132.705
69.3265
49.3502
80.1308
59.5153
76.8158
43.1059
64.5584
67.1236
66.6387
63.5362
108.655
118.951
61.6496
82.7239
42.9945
538.435
129.947
75.0966
46.3452
133.576
243.17
46.9632
42.6208
47.0685
47.3014
67.3152
49.2249
104.517
84.24
47.7069
55.0123
141.069
99.1947
46.6979
50.1069
56.9541
53.916
48.7417
51.3936
43.4464
69.188
59.1926
110.539
61.564
46.0125
42.9332
43.0598
73.5721
126.221
44.1813
42.1255
55.6603
58.1412
57.5889
59.1046
68.7751
71.8367
51.5609
76.9248
100.902
430.099
61.1159
68.8748
52.727
49.345
133.471
131.712
75.5209
50.0526
79.5338
105.284
46.5804
142.558
48.4578
261.565
47.5362
50.5643
58.3506
127.514
41.5168
72.1804
73.1262
58.5011
42.9732
51.479
1127.01
62.7174
145.191
45.3993
99.9654
46.3541
58.7986
85.0284
72.5198
69.7628
44.9797
393.581
54.7581
58.9537
55.6934
48.0938
43.7307
57.6018
118.325
48.3305
60.6277
67.3461
43.3477
266.156
44.2694
62.6733
481.963
71.2546
42.5152
340.816
583.077
43.7286
649.939
680.799
70.396
46.6005
51.8655
44.0193
85.0102
87.6222
687.681
44.0763
125.367
49.1293
115.68
56.3924
85.309
66.5965
495.267
312.138
51.5816
93.9486
101.031
84.3687
120.899
124.244
47.8453
97.1373
132.906
98.5852
67.4454
136.593
51.1682
47.6888
137.341
92.5694
77.7234
118.742
100.141
67.9337
73.417
60.0993
53.2214
67.6312
46.8994
47.3438
1310.21
62.1862
77.8757
997.328
965.681
42.6779
76.0969
1609.41
167.631
93.5701
296.338
119.462
764.76
59.4563
48.1818
60.0455
174.49
113.729
112.841
46.1614
117.647
67.4034
83.0112
48.1207
79.3793
57.9163
459.317
708.542
120.961
48.791
85.4302
42.805
109.499
47.4199
58.2107
63.5002
65.0583
44.2743
174.844
75.505
47.4164
66.8203
184.931
731.695
233.779
86.0833
42.8179
74.4361
43.2668
732.912
69.9917
658.206
83.2521
111.098
66.741
68.4364
58.2739
87.2675
54.0072
88.0824
56.905
206.297
91.1422
49.2336
72.2679
88.9802
527.783
66.7311
201.573
69.423
48.664
43.3911
140.197
79.6453
72.1809
45.9346
62.8602
67.7772
71.8908
80.5101
79.363
64.7077
126.273
197.182
70.6902
98.412
67.4738
112.288
90.7705
48.054
153.003
61.6225
76.9612
77.7757
44.062
298.499
392.831
94.2946
65.9295
46.4703
90.5363
55.5995
134.594
43.6598
260.908
80.1695
44.1587
76.5795
46.3515
59.1504
69.4655
49.5407
88.6242
41.9045
45.3256
48.2176
165.376
41.4176
343.012
261.021
266.135
377.191
78.2818
226.718
58.6676
46.0566
143.694
315.578
405.281
104.566
62.1819
125.264
114.421
165.236
127.267
93.9287
54.1258
70.3025
102.858
111.922
55.8377
80.692
326.448
57.2473
62.7036
153.541
119.198
115.417
181.477
730.059
458.114
222.018
245.165
80.6895
118.586
44.2282
46.2002
70.8422
432.535
174.756
70.642
72.1776
42.839
371.845
417.073
42.4525
168.002
89.2048
42.3268
164.453
42.2455
43.469
72.3522
71.7573
83.6022
47.7017
42.5309
60.767
68.3429
66.9874
136.757
106.518
43.0394
242.446
47.9664
46.6142
47.1379
193.255
78.3576
226.064
119.253
54.4329
43.2279
68.023
1403.25
71.2744
82.1192
70.2149
64.5176
61.1332
113.196
118.628
127.943
296.547
96.6947
807.954
49.4171
65.5944
56.3782
63.7453
45.0701
164.816
124.602
44.2371
286.376
93.8457
71.6805
237.275
78.6533
54.7259
70.3294
68.1696
68.8376
111.691
324.893
66.1276
74.13
206.046
219.457
659.139
214.141
88.1027
170.586
44.816
47.3292
107.457
180.876
86.083
82.3288
91.4078
102.774
47.8578
68.0714
102.794
98.5744
89.4743
358.767
484.604
92.5401
138.685
175.451
661.193
397.243
200.95
91.9786
67.1557
96.5894
92.2434
246.811
45.7904
47.7604
96.4889
387.672
120.145
76.9129
97.2691
53.728
108.621
125.919
78.6072
517.979
53.9466
65.0512
131.331
97.2574
65.4219
66.1354
104.734
104.71
89.4393
57.4921
124.058
44.6592
44.6595
45.0366
79.2981
57.6398
150.215
52.5242
214.868
285.008
255.496
99.588
83.7018
45.1213
70.3035
113.804
489.344
249.16
873.662
45.0061
57.8248
54.3793
319.775
88.208
330.999
236.728
230.852
132.168
215.118
90.0911
85.8466
72.7987
46.1472
126.153
67.1937
75.0305
258.306
71.9209
68.6002
50.9672
266.455
394.564
152.232
206.106
658.017
190.948
90.5997
67.7595
89.3285
104.249
183.559
187.394
435.029
45.9073
58.3555
72.2585
47.818
62.6442
100.48
95.5289
54.2876
121.553
52.9566
75.934
51.0757
47.2954
123.504
67.0675
114.816
44.3173
44.9683
161.458
46.5392
98.5933
104.3
44.0787
62.471
101.375
79.6827
68.3866
79.7416
521.949
183.728
123.911
106.772
1864.34
995.853
629.128
453.626
101.4
49.3845
1183.15
415.026
53.4614
62.8607
106.25
86.2623
397.096
137.92
44.9564
112.755
58.4303
49.6144
202.241
961.497
138.321
1204.13
151.378
249.471
671.617
56.6407
76.2357
133.582
329.767
91.528
45.8122
45.9071
769.255
110.304
369.692
73.3851
160.793
48.4601
53.2241
544.714
562.017
81.7127
52.5964
76.1819
543.659
43.6738
51.6271
431.941
558.059
72.5992
43.6602
1045.03
709.955
587.976
99.1607
287.667
523.667
579.754
79.7247
86.7796
108.357
64.4133
107.217
539.35
1356.42
64.2043
60.1512
58.735
52.0615
47.0255
81.3691
127.442
65.6706
49.5561
48.4925
94.8428
365.41
1189.64
51.1566
226.906
104.601
72.2419
169.472
57.3574
90.0808
76.4218
46.0195
198.126
53.436
527.012
43.7293
789.389
458.898
629.098
202.351
102.068
62.4295
102.136
64.5637
220.588
1451.22
103.743
394.244
178.1
485.833
161.207
759.754
615.415
91.1189
67.9921
1656.04
88.4665
48.8771
73.4129
627.407
1104.2
79.5171
52.2892
481.114
76.5147
710.335
765.253
107.607
113.078
839.229
102.825
44.3545
616.197
51.591
494.757
993.142
43.245
69.829
84.0886
56.5451
122.614
101.545
42.4092
121.237
89.4181
117.583
57.6336
42.9476
199.539
223.939
588.609
51.1225
94.3265
231.383
45.1186
846.901
85.7404
111.886
151.111
474.404
86.474
353.063
181.452
146.792
56.9079
511.945
224.126
278.702
87.7851
163.217
62.5745
76.0318
72.7456
348.989
226.267
110.938
723.237
150.1
109.5
266.251
122.949
142.588
716.348
322.666
62.5277
155.654
83.8658
148.415
307.719
775.001
58.3278
45.4322
62.3948
478.382
63.5145
296.453
58.1956
62.3091
47.656
152.661
54.7091
205.558
311.114
53.8959
60.29
91.8248
79.9338
973.349
416.131
116.604
754.18
349.488
121.981
240.046
64.2448
56.777
964.143
56.6926
354.518
369.377
45.236
58.7305
104.164
96.2747
56.2588
70.9933
153.263
72.7156
77.9333
66.3476
80.833
235.373
66.612
190.117
154.174
215.646
55.8721
730.568
440.979
54.0188
580.971
253.371
56.9996
105.418
628.825
216.565
46.1785
180.035
471.178
201.622
519.084
57.2668
582.119
116.659
54.8137
68.9295
107.799
187.246
120.861
65.4218
237.445
50.8713
229.759
106.393
1302.41
142.761
80.5144
118.525
267.342
55.1171
291.16
109.776
108.194
594.626
78.8201
78.9073
1105.86
43.2399
102.775
370.776
62.2522
285.812
559.803
150.571
70.3869
83.253
946.151
256.71
476.954
276.519
77.5858
69.8333
99.4246
686.171
690.255
308.118
88.3006
48.2486
85.921
86.8551
129.706
331.099
92.5438
55.5042
62.5327
61.2931
44.7014
85.0822
43.8515
46.8199
120.198
80.1751
45.8091
127.896
233.384
60.7281
47.5367
130.007
64.3631
48.106
54.7708
99.6861
93.7419
49.6715
96.902
540.458
87.6492
48.5056
54.4419
43.5447
249.211
66.7957
53.1968
655.528
563.585
288.34
47.7011
636.756
147.717
60.4552
970.219
91.426
951.776
90.6544
66.6338
81.5377
66.7337
44.8491
82.1764
83.5418
91.1954
113.722
88.9814
103.233
164.593
80.0011
81.7042
430.196
86.5126
1409.45
70.5097
700.497
46.1643
117.939
177.356
52.0678
67.9966
189.871
42.6378
519.905
331.984
1179.26
50.6493
622.199
59.0945
108.773
175.349
58.3302
591.323
89.3012
294.06
71.686
750.683
698.215
79.4141
43.3391
460.267
68.2625
448.185
85.1445
95.2657
69.7695
72.3547
56.4224
44.609
88.6758
286.165
74.88
176.583
82.9367
86.9296
41.8271
154.85
417.835
89.4157
356.901
122.244
67.5488
119.615
78.4296
73.6945
55.4986
149.847
130.799
48.5681
85.1824
82.9617
67.1367
93.1067
395.762
362.664
80.4756
89.1897
321.254
87.1566
52.3285
64.272
48.0248
165.116
165.452
203.932
104.436
69.4921
74.4047
64.4484
56.8062
58.1179
58.5615
484.598
129.991
665.123
516.345
632.172
57.9849
68.1032
72.8224
71.5403
47.8834
326.434
81.529
46.6449
78.1075
111.607
77.2123
304.641
75.8059
156.472
115.004
96.727
49.7134
70.2772
88.6273
87.2763
67.8721
112.041
97.6443
176.761
86.6052
68.9091
78.8529
149.41
168.708
65.0635
79.58
133.794
96.401
169.14
46.0385
56.5461
135.252
68.633
53.686
75.5206
44.2391
47.7354
88.6331
73.9598
386.079
71.7316
88.6487
50.1431
69.9776
628.861
79.0036
84.5434
59.9712
60.6426
87.0781
85.4326
934.677
107.073
439.834
51.1012
59.7725
70.6484
42.2727
48.5288
108.197
80.5807
48.0755
45.0809
304.56
106.884
513.664
119.002
254.007
104.487
78.5522
109.229
556.635
181.208
94.7286
78.2794
938.595
64.1734
79.6161
85.7148
82.0261
56.9977
937.248
66.8473
89.9543
46.7651
122.884
54.7276
904.033
1000.97
66.9984
53.246
43.5735
90.027
92.551
60.4232
1166.78
751.394
64.4394
137.007
465.302
64.3261
172.445
122.733
43.5328
61.7387
46.523
73.7548
207.384
85.0128
77.3764
44.7289
55.7499
74.5444
48.613
322.069
63.4576
141.786
168.416
445.539
328.738
101.419
134.642
76.2268
133.155
117.79
43.5495
601.598
334.464
131.227
91.4044
106.052
89.6102
87.0453
263.077
41.9423
45.1504
62.1876
65.0107
135.724
74.1626
357.439
386.387
45.2839
131.226
43.6313
42.8929
80.263
61.5371
63.4134
54.3895
42.2771
263.475
355.661
42.6151
57.7509
238.495
406.578
47.9416
42.3665
93.5908
176.669
922.625
93.1673
393.013
338.721
547.082
392.181
71.6712
49.0847
42.6704
58.4306
955.163
56.5229
85.6803
79.8903
42.1384
680.87
1152.45
1129.43
196.749
298
50.4179
45.1969
53.2009
84.2081
737.397
597.539
434.563
534.734
409.932
54.5989
48.053
852.22
47.8093
903.921
95.2424
900.596
79.4429
148.693
98.8821
185.046
169.166
169.717
142.989
63.0026
88.7211
71.4151
65.3972
72.1034
66.0594
1270.06
788.048
91.1335
345.978
667.59
334.578
67.3859
45.9516
624.401
499.481
509.724
43.5261
789.656
49.9044
1002.09
594.467
712.382
286
53.8541
61.7018
46.521
71.1989
86.3603
169.939
70.8354
84.7235
66.947
94.0095
78.1886
45.2324
47.9275
122.135
45.3678
51.873
78.1086
98.7823
95.8137
86.633
152.002
90.2879
62.1454
123.744
98.0305
89.9473
93.1317
143.738
1030.1
59.1271
335.438
69.2211
89.7199
487.021
64.4554
56.8327
47.0405
110.646
94.968
54.427
108.933
100.841
83.4832
46.2783
67.044
67.8112
70.9279
104.098
72.9131
97.8297
278.606
89.7644
80.0506
75.4129
110.852
77.9672
350.605
44.0468
67.9285
105.222
312.243
265.408
88.7842
101.322
937.349
230.293
185.772
90.1542
71.7576
108.765
87.7986
53.5881
129.985
78.0795
87.2056
430.01
50.9004
164.436
128.089
109.202
106.182
200.999
77.8251
57.6074
43.9551
53.0552
99.5094
79.9832
456.893
62.5575
91.7422
127.912
103.533
880.529
56.2941
103.628
105.398
271.442
392.226
144.699
43.9646
135.542
65.484
45.6221
42.796
562.494
99.8783
58.098
421.358
125.425
68.396
147.389
746.004
1137.51
179.493
71.362
816.317
84.9624
230.79
137.65
590.368
272.151
115.277
94.2999
522.699
91.1815
65.112
82.4458
99.4937
53.9238
62.5254
346.067
44.5011
100.989
562.172
154.607
567.619
87.4932
441.636
49.0236
1144.64
105.892
106.079
641.039
238.956
297.744
537.94
425.552
264.97
65.1543
67.1092
419.095
55.419
85.3394
316.934
67.0857
57.5385
77.872
160.216
70.6441
50.1059
737.91
485.384
182.09
295.659
167.33
92.9184
81.2188
81.007
114.492
73.242
57.3568
86.1038
62.8152
291.339
300.586
130.682
54.1868
103.373
80.6524
125.239
105.474
97.6673
79.0744
292.316
58.4842
66.3246
291.395
131.598
583.791
201.123
98.9287
745.781
137.702
112.064
384.554
134.195
128.404
49.8325
536.682
42.8265
56.6879
50.6938
85.706
67.3519
100.497
222.892
104.798
120.423
80.7967
110.583
99.4547
42.7717
377.38
152.324
579.303
1062.05
108.969
395.866
137.552
69.7912
480.124
68.4351
61.0086
100.94
120.742
694.769
465.438
53.6584
315.252
362.209
91.7916
1932.2
405.249
143.707
367.18
61.7975
88.4142
242.789
338.551
145.69
739.972
53.5192
52.0302
154.349
50.9323
48.1389
106.157
322.747
568.951
47.2124
138.395
43.4966
144.369
62.9138
143.775
316.427
92.7921
305.404
59.6346
63.3976
783.583
44.4649
53.7613
105.431
53.4492
123.447
252.383
46.2447
946.699
555.199
877.599
469.523
119.396
66.6215
53.3262
62.0082
85.3657
46.8409
85.5838
148.754
62.3043
70.4504
660.944
45.6273
168.491
44.2019
135.579
71.5033
730.124
127.862
110.902
45.1534
129.99
150.877
48.8129
60.1331
98.2692
42.7213
198.255
97.0525
104.537
54.8478
45.0753
101.883
46.3905
127.278
429.989
44.4661
75.5206
49.9376
62.9914
316.693
218.038
123.43
456.584
854.776
320.271
82.5707
462.185
347.615
665.007
73.8236
209.012
317.763
340.757
304.012
844.41
54.4854
44.7091
206.592
773.338
53.3788
437.044
118.555
456.822
79.5345
65.9343
646.533
576.344
305.077
56.9301
281.79
130.601
383.241
44.4208
202.466
64.1147
56.909
94.5906
95.8273
290.672
104.72
63.5263
160.919
79.7677
269.205
394.005
43.6989
75.5203
53.745
876.576
93.0892
131.063
207.154
137.178
71.3104
43.7226
90.9652
75.9711
479.806
43.0907
104.367
313.897
64.7797
49.7621
77.4337
73.8834
690.058
138.095
209.914
95.5014
73.7218
990.265
613.221
60.0002
143.387
60.1634
48.2411
409.431
89.4606
536.279
56.5259
50.8146
94.9914
57.2121
46.9428
60.9774
71.0706
135.973
249.626
271.09
394.659
69.8048
72.1665
46.9955
170.558
611.638
941.685
67.4172
430.672
179.254
681.656
76.7956
352.692
110.041
170.146
129.602
81.6547
258.124
76.2786
190.967
113.126
59.5287
1026.54
107.579
501.888
107.394
77.2557
108.849
153.867
69.1557
68.1645
359.104
105.217
121.475
57.5929
122.996
507.338
126.568
79.1268
158.148
46.478
63.077
44.9183
74.5538
77.8176
147.519
70.229
93.785
95.4547
74.4325
76.106
64.0642
73.859
60.0033
401.879
49.1493
107.247
48.6292
67.5156
122.768
73.9412
54.0506
78.3568
99.3332
86.9518
125.931
351.102
47.4942
178.23
455.728
158.582
156.246
51.0895
156.802
92.4035
321.826
64.8061
44.633
52.8212
166.823
55.6379
66.2189
874.123
219.592
368.832
44.4911
50.8712
189.045
81.1303
55.6363
135.261
49.1072
79.654
54.03
392.489
45.317
155.426
45.4524
44.2592
75.8827
67.1363
132.341
106.098
42.7043
299.941
64.4157
67.1191
89.2816
805.066
65.3145
61.7966
125.689
62.2451
57.365
122.478
60.2411
51.7395
107.57
212.651
125.04
82.881
411.219
108.994
240.179
48.5038
182.4
64.204
94.5864
234.971
49.6334
115.629
66.1236
82.1145
154.938
71.0089
574.988
110.158
45.1858
520.843
131.392
996.332
304.318
213.965
86.4007
93.6295
122.129
363.331
59.8215
446.333
92.3653
349.099
65.3792
407.641
63.6859
253.864
219.809
122.322
331.504
541.236
375.909
1124.17
536.393
403.296
466.3
464.831
325.153
42.9769
95.1006
332.566
69.2313
644.245
58.3912
505.456
623.654
118.096
99.4932
75.857
43.8576
113.969
47.4974
250.936
130.882
83.0795
187.634
84.7673
153.752
72.3986
54.1123
111.127
48.8041
218.359
47.6366
68.7435
707.97
65.4847
43.0107
104.244
63.7337
799.428
293.621
73.4937
68.9523
173.029
50.3069
85.3079
49.6183
50.8947
104.774
76.2008
55.4441
62.5276
312.435
88.3055
54.4546
43.5399
44.1013
46.0396
204.86
71.7402
95.258
53.6999
81.7351
98.0284
55.3449
227.653
72.1263
47.8122
59.4996
82.4805
136.522
110.847
98.9267
50.1316
119.282
84.5224
52.0084
51.3081
76.0826
85.3574
102.027
68.229
122.722
65.9189
89.3824
115.76
301.893
770.633
1115.44
121.83
60.5057
510.511
169.648
190.211
45.051
51.0479
43.5876
90.0457
72.6576
43.555
44.7207
45.2015
110.798
42.5304
47.9252
43.0521
59.7962
188.017
52.4642
113.206
52.3282
97.4645
240.296
59.9365
53.9335
63.9393
1079.74
873.24
99.8161
67.1175
68.5627
59.1643
100.57
470.851
63.5279
67.6699
90.2482
42.9781
94.8319
50.5936
88.0264
111.439
91.3999
62.3745
202.978
263.04
63.857
2071.14
260.449
198.705
61.4898
84.8036
99.3986
114.3
54.5146
75.2172
300.53
45.5396
191.28
624.85
104.923
123.507
634.153
64.2005
79.5435
91.3824
42.746
116.948
409.431
91.6272
91.5144
466.571
221.774
1057.02
626.596
99.8375
48.5898
140.113
68.3179
186.258
150.408
566.2
49.8488
45.7003
643.445
53.0176
192.584
78.065
103.275
661.188
805.45
50.8159
43.3865
924.222
50.3658
53.9545
66.0568
48.1636
81.0758
156.793
271.591
61.3763
579.438
104.113
51.7879
84.9174
721.73
79.4336
605.121
65.5326
61.7042
86.0519
84.5179
59.8881
115.402
64.9408
564.142
115.569
118.928
525.895
122.504
53.4768
699.412
113.322
105.236
83.7681
169.947
107.396
79.3768
44.7669
264.938
73.0589
72.2421
64.3369
123.659
84.1124
58.8516
46.0708
67.2793
145.999
72.0577
66.1703
80.213
476.647
72.5095
71.3493
69.2025
93.2643
46.4501
63.9752
63.624
131.729
104.439
141.298
148.152
89.562
476.401
63.4403
56.6181
445.618
406.558
489.918
89.0935
335.948
52.3818
570.72
94.557
309.434
95.4712
44.1385
114.537
198.625
93.1306
69.8582
43.3444
63.6969
419.277
63.9325
49.82
53.8878
1441.61
308.664
44.7932
1475.04
568.643
327.918
235.878
737.221
278.759
76.3483
287.533
88.2195
94.816
396.56
953.042
62.581
44.5434
54.7789
488.04
45.4755
952.794
133.393
128.251
141.331
124.537
333.704
42.6349
114.948
122.496
55.8512
104.472
53.5127
120.484
2017.85
1861.1
819.553
97.6978
690.482
43.553
49.3284
62.6049
100.219
44.3027
55.465
43.5476
74.0553
89.9046
47.2566
54.6476
76.3162
46.5866
100.973
120.417
43.5899
114.631
120.869
43.9464
53.6232
875.666
56.1471
843.906
600.005
125.281
132.019
83.7713
122.43
68.5092
52.4407
594.352
58.6676
57.7092
47.6862
50.773
78.3379
139.14
129.295
175.297
112.831
47.2047
566.195
60.9137
325.177
381.223
63.6797
477.543
81.7804
53.8522
60.8805
57.4092
62.9536
47.0024
129.022
50.8261
333.613
220.654
352.296
56.9516
56.722
83.3197
306.489
492.366
93.1859
146.831
64.575
291.244
64.3142
172.591
443.853
84.2521
56.3222
91.6139
955.66
63.0117
59.2023
119.713
47.4725
136.882
125.273
137.079
84.4144
302.054
169.996
457.302
71.4164
280.848
420.522
313.792
53.6464
174.563
90.3368
102.284
53.7537
65.0739
63.215
493.829
85.523
98.8838
278.966
82.4925
62.7488
96.7302
45.4225
142.68
48.2483
64.069
164.111
103.561
79.0787
165.572
97.715
94.0105
80.5397
125.772
44.6959
309.003
247.695
106.331
103.57
45.0799
286.839
59.8921
44.5199
85.0333
47.0021
107.334
88.8568
50.3089
55.3291
98.4655
291.757
228.987
49.6423
815.089
44.8274
97.5303
95.2856
48.1617
770.5
147.637
666.518
49.9024
68.0668
539.337
679.462
87.2805
101.786
186.93
127.983
49.3912
100.742
63.3079
145.164
81.7539
133.506
49.8438
135.073
100.469
106.148
61.1798
87.8783
43.4178
60.2935
588.324
393.875
106.255
105.248
100.395
86.0586
85.7047
163.336
43.8822
49.9505
59.5764
86.0929
80.5645
66.3407
111.455
51.8568
58.1759
51.9108
72.3834
57.9402
69.499
192.486
86.2216
67.9078
981.677
77.7691
64.7916
78.1566
44.1388
82.848
206.561
46.0539
75.2584
80.9192
457.43
64.3741
63.3031
94.5017
1461.44
95.0591
156.878
118.952
65.1541
71.2361
78.0872
62.3751
853.215
94.1022
68.3197
63.5552
43.336
282.717
46.101
379.92
430.511
112.119
72.9554
59.3148
117.145
88.071
56.8356
440.072
119.127
296.76
43.376
138.016
538.595
119.196
49.1588
99.2834
54.001
551.743
56.8273
54.1597
89.6569
42.9817
60.4449
87.7168
51.9304
398.002
42.969
377.492
46.2303
72.8447
66.7165
147.841
86.5993
125.649
113.087
567.466
110.397
118.555
75.0198
44.8195
104.086
58.6654
53.0932
80.4921
76.1368
63.1316
122.684
47.0321
66.1279
47.3562
294.246
87.0003
607.669
547.611
315.817
156.599
67.8875
70.4265
61.0277
193.224
89.8109
44.1516
42.3995
112.465
146.366
46.2812
71.2998
1039.46
126.379
66.3293
74.9761
524.236
842.293
59.3078
555.281
547.161
200.447
374.059
161.827
544.75
71.9597
218.493
740.022
74.7971
42.4704
61.7707
108.99
314.903
43.3201
44.2525
70.6476
142.867
152.777
914.989
108.843
1048.56
118.719
69.5194
84.0864
76.7033
76.4965
522.224
205.672
369.816
465.935
66.6074
371.331
1123.98
65.8421
168.656
117.249
407.263
150.425
129.306
698.109
1043.35
108.438
624.065
125.38
430.8
81.1294
44.2338
152.147
793.741
689.273
62.6991
101.681
146.189
98.9386
256.028
48.626
72.3676
961.463
377.579
355.83
65.4341
343.255
66.5308
354.201
55.9731
115.918
186.308
298.03
87.0143
122.359
284.535
105.433
883.496
71.3483
59.4942
390.959
46.538
144.876
45.1558
54.8365
43.3143
81.3151
435.342
440.74
322.913
58.6343
63.2868
309.584
57.0144
535.966
72.4367
53.3803
80.4004
214.336
153.844
643.752
50.6397
72.5098
63.5773
271.608
99.614
578.928
909.624
426.741
104.579
60.5393
431.7
333.78
151.676
46.8965
61.4235
42.649
689.734
278.986
451.945
1186.69
240.803
94.4381
79.3332
773.323
410.941
63.0103
87.5166
101.492
345.086
60.6964
47.4549
88.2284
81.2776
773.637
278.065
223.115
232.458
329.191
326.49
161.857
89.6246
833.237
418.431
716.077
200.816
343.802
664.209
149.89
57.4772
107.584
58.1491
59.2988
78.8513
77.0395
135.044
299.861
84.4949
178.654
181.961
146.684
113.188
191.37
114.466
102.794
128.35
764.272
1126.67
429.212
69.4986
118.004
82.5124
253.198
582.042
156.591
594.59
80.5268
489.723
425.571
174.596
47.2396
43.52
69.9125
63.7313
705.263
95.6688
58.2297
477.289
72.1847
875.274
460.656
108.047
462.269
63.5695
45.5975
46.1389
42.8624
97.1047
61.0407
90.5405
129.672
73.153
45.5321
142.594
652.199
539.563
43.9573
105.999
48.6117
62.3088
56.7275
668.924
48.3321
54.6012
52.8787
103.949
45.7375
54.4475
99.3026
56.2863
58.2556
52.6662
239.742
43.9993
56.914
134.811
409.902
315.553
63.5266
512.469
706.209
53.8442
52.4931
164.966
78.7386
326.511
72.529
90.7406
82.3203
261.788
67.8731
91.0598
1025.3
503.779
85.0215
630.406
46.166
46.2067
61.3213
45.6591
47.3013
70.2971
53.3876
80.188
214.86
88.8924
346.576
252.045
209.665
81.0558
43.3848
559.984
130.229
82.8618
543.487
101.41
688.636
61.758
424.128
44.4688
182.845
86.1977
224.912
46.895
85.3508
77.0615
626.055
49.0445
43.0371
191.735
81.2119
136.835
60.7343
73.1582
91.5375
47.249
141.842
48.3531
63.4851
146.757
94.0693
329.296
68.5756
45.4985
61.1364
44.7481
51.7409
301.684
42.9497
96.124
43.4525
219.421
114.761
49.7163
110.753
111.55
56.5222
71.2636
75.9867
128.038
147.992
51.1978
48.3916
90.9562
66.986
283.054
622.621
508.548
60.0044
45.1081
58.4084
65.0967
89.6689
930.573
237.346
63.3064
52.8999
77.8255
46.2468
48.2369
76.5178
153.714
200.234
513.593
363.323
56.7533
77.7483
73.0302
43.1212
221.671
72.2896
115.79
112.808
49.3163
992.32
76.9326
57.6621
70.4826
73.0805
158.783
621.202
44.8153
465.627
54.3679
735.497
124.657
532.644
69.7518
43.8079
60.4355
104.677
48.5861
48.5084
124.629
44.5695
43.876
54.5888
60.9068
238.317
52.7314
755.371
70.6368
60.0951
157.268
171.477
48.393
405.767
962.657
745.091
494.32
437.707
55.1796
380.152
289.412
72.6895
57.184
53.0046
666.06
90.2631
95.7659
48.4207
78.4429
291.796
771.949
160.412
86.1029
45.6436
65.4153
219.761
45.5063
55.8917
615.225
451.031
241.085
772.463
74.0493
46.655
69.5838
81.3001
1137.23
50.6065
45.8873
43.2981
268.575
46.712
50.0535
90.8747
100.494
44.6671
112.832
45.8589
143.852
86.0069
141.28
50.2546
238.537
87.1489
111.611
162.66
110.396
223.985
48.4562
624.478
94.1644
292.358
311.317
331.811
85.7409
127.228
207.182
65.804
44.7134
50.9973
53.7262
86.0755
571.789
115.822
46.1383
82.3949
64.9585
48.6202
120.183
62.1195
134.12
102.648
46.5886
97.7529
48.5513
78.7342
295.221
587.101
71.6623
99.5447
80.2108
103.282
522.784
296.413
433.621
842.934
141.309
46.4283
47.9915
43.7901
104.565
828.59
79.5044
761.695
116.027
44.5889
117.116
457.177
45.8526
46.2044
55.5186
74.5791
59.9264
259.457
75.8517
90.6749
316.139
52.3041
96.6013
65.8891
128.566
180.265
50.9096
689.539
81.7847
109.519
55.005
123.645
45.8764
132.772
123.23
93.668
91.019
80.3553
66.357
69.8593
49.9662
225.588
62.0474
50.0575
114.934
197.437
229.513
159.931
98.435
110.915
193.443
71.1192
274.208
127.65
133.121
100.618
103.193
139.772
73.6488
146.803
393.852
98.8772
53.3807
48.8154
285.864
89.3247
101.123
49.4682
99.8121
87.4505
48.1093
93.5387
412.3
96.6781
71.7484
85.5298
667.723
76.3722
89.9184
147.706
58.3062
154.772
47.2745
776.154
85.6518
78.4315
82.2824
54.8339
112.942
54.8533
497.409
43.4771
76.4026
661.109
59.6148
109.071
197.541
99.3964
49.1095
591.257
59.2621
44.7479
102.477
129.884
61.0332
335.554
44.8134
347.234
98.2225
43.6686
69.9025
116.312
731.664
183.179
72.0289
44.0028
131.148
408.802
292.403
116.329
123.267
980.829
213.544
282.9
127.428
81.243
102.266
59.7944
517.165
1057.68
152.996
160.835
100.198
1083.11
462.348
551.802
400.918
185.561
64.4482
50.5426
152.802
73.7494
551.758
307.981
75.2524
890.975
106.461
112.038
71.4004
50.5983
105.037
87.3246
90.6251
80.7349
149.313
184.326
880.36
57.3932
119.11
642.728
617.418
182.268
176.317
61.6452
619.932
47.5595
65.8896
344.033
148.443
43.5871
332.642
428.017
72.5315
123.436
48.3368
93.5046
55.4268
80.9266
172.982
81.2948
613.471
43.8447
50.2616
86.3722
477.737
172.81
122.841
162.573
311.01
121.222
78.4097
436.178
107.861
68.986
222.177
797.967
242.03
59.6042
361.627
160.407
93.7333
65.8305
128.333
47.0044
113.737
79.8689
73.4552
64.318
60.0818
85.8359
43.6185
43.5559
49.4743
100.246
49.8018
160.565
390.305
735.86
95.3925
87.4091
59.3906
48.7923
102.745
646.39
51.8636
142.769
71.8593
233.306
67.3456
135.692
224.199
431.589
47.7714
57.3488
277.081
52.9739
69.9382
136.021
94.7829
402.878
87.1407
249.723
469.331
209.589
644.008
197.303
379.573
96.3849
162.378
146.928
53.6409
487.517
137.639
84.4232
174.549
100.694
91.4734
43.7377
52.0617
49.5194
44.9707
87.8583
345.888
42.7831
952.808
110.487
349.22
114.084
378.579
1108.9
54.7994
249.962
829.883
149.741
348.741
76.8881
69.8234
770.945
1002.5
288.128
168.879
52.0525
456.608
103.451
627.06
53.1141
53.5136
243.5
1020.39
60.9232
84.0951
50.8778
239.194
530.511
47.8218
459.682
201.485
540.002
720.97
49.5819
339.701
74.175
670.108
319.512
199.718
417.816
273.313
518.812
342.561
229.724
82.2996
78.3812
74.4995
48.7866
53.7186
1422.09
74.0909
110.761
79.1071
81.8969
137.128
1165.78
149.343
224.065
295.636
154.553
259.814
124.661
44.0851
79.1039
1049.57
639.435
313.765
193.416
249.065
88.4723
489.301
61.419
258.428
339.758
57.9745
548.169
91.9632
304.132
312.83
170.312
246.341
249.717
157.085
50.2297
135.006
60.779
554.96
72.554
196.214
83.603
266.89
55.0045
67.1074
328.054
120.228
287.451
44.7509
1364.43
46.1367
59.156
57.4864
54.619
97.8408
520.904
178.979
99.1653
659.723
74.1066
49.4957
56.8794
874.893
85.7487
98.7886
850.634
362.485
911.085
550.745
173.834
240.478
157.249
185.769
735.923
65.75
444.094
138.15
66.2841
180.277
64.5541
154.505
76.9587
649.809
463.552
567.91
366.562