/*--------------------------------*- C++ -*----------------------------------*\
| =========                 |                                                 |
| \\      /  F ield         | OpenFOAM: The Open Source CFD Toolbox           |
|  \\    /   O peration     | Version:  2506                                  |
|   \\  /    A nd           | Website:  www.openfoam.com                      |
|    \\/     M anipulation  |                                                 |
\*---------------------------------------------------------------------------*/
FoamFile
{
    version     2.0;
    format      ascii;
    arch        "LSB;label=32;scalar=64";
    class       volScalarField;
    location    "0.0689511";
    object      p;
}
// * * * * * * * * * * * * * * * * * * * * * * * * * * * * * * * * * * * * * //

dimensions      [0 2 -2 0 0 0 0];

internalField   nonuniform List<scalar> 
47425
(
0.929951
1.17708
0.0126034
-7.12413
-23.876
0.0618386
-21.7398
0.0512261
12.3426
-39.8746
0.00788113
12.8102
-17.0387
-0.00628185
-2.97003
11.4634
0.0236923
23.2747
-118.22
-40.0227
1.73633
14.9533
-0.0260393
0.97729
13.7143
0.948908
0.0971048
-48.7372
0.0123708
0.178475
14.8727
11.6828
12.9952
0.393753
-0.018271
0.0175814
15.6715
12.7687
5.98575
1.08774
1.34906
-2.51389
1.69062
12.6861
-41.1881
1.10787
0.13879
12.579
0.981998
0.515542
43.4556
-0.936492
0.208272
-35.6454
0.865652
7.79384
1.00362
0.0173371
-10.5318
0.0643722
-37.4465
-35.9843
-60.6546
20.1306
12.1928
2.17795
13.0748
-3.29795
-47.5913
22.2113
2.82492
0.767325
0.194868
1.75945
-51.7239
12.0208
-59.2915
0.195626
-72.631
-23.9488
-53.6598
9.67582
20.0567
11.9071
1.84844
0.782928
0.0659166
1.24628
-5.76959
-29.723
14.1617
1.16209
0.496037
0.744135
0.809883
0.934292
0.431371
0.800734
1.0369
10.8584
11.7812
19.929
8.52606
44.9171
8.54812
-0.180481
1.31262
0.921249
1.64671
13.0434
-35.0307
12.683
-0.606839
0.717942
-1.87581
33.0835
-1.47246
44.547
7.25264
-4.51907
0.744969
13.0181
12.5506
-10.5185
10.5
-1.98176
0.817385
12.0837
0.96936
0.596129
20.9865
-0.0730828
53.8745
7.33118
-1.75307
-13.4174
1.83593
-1.91853
10.5294
-1.62535
13.0596
-5.00002
5.24128
-1.67354
10.4925
12.1422
-22.6181
12.3112
5.24648
12.9429
-1.09881
35.5138
12.3845
-10.3006
20.5114
1.12972
-0.142326
-127.66
0.900992
0.318194
-3.32144
0.976679
0.675849
10.1761
-53.4804
-94.9304
12.3697
-52.2488
0.742539
-49.7765
-52.6396
0.530164
12.1373
17.6763
0.893372
12.7652
25.523
0.0472311
0.0702389
0.354445
18.9279
1.15389
0.0744706
0.0915658
0.236834
11.7716
9.58627
48.6618
0.39657
1.10686
12.9013
0.454021
-13.1034
13.1261
0.359635
-2.69777
13.1099
0.852813
-3.42149
0.93648
0.302862
0.299088
1.881
-2.384
7.98074
1.11743
0.0231563
-1.91986
11.6449
12.0305
0.894121
-2.87391
12.1007
0.939587
0.393545
-3.81946
1.02338
-27.803
20.607
12.904
-26.3538
-5.15799
2.90724
0.779665
1.44894
-24.1881
0.4664
-3.59236
-5.78324
-10.3158
1.42842
0.158845
0.406727
12.734
0.136942
11.805
-29.2116
0.549001
-26.3707
0.151318
0.131381
0.408623
0.53746
-7.27962
7.45254
12.0305
0.896571
11.9285
0.775959
0.0364779
1.028
-22.1194
0.057054
13.0867
0.252071
0.194442
14.2649
0.321738
6.80135
11.9626
0.243312
12.6188
9.14489
9.0503
-12.5846
0.54153
0.0543578
-12.4634
0.265565
9.10716
9.67418
-26.4748
-29.0367
9.60676
-24.0366
9.75374
-25.2195
32.9186
-27.4582
31.2464
-34.464
1.14388
-39.6307
0.645876
0.644772
-4.43118
0.615044
-0.00592689
1.45205
-1.67518
54.287
19.0351
12.2157
0.0286889
0.11021
11.0294
-5.77274
9.91521
12.4391
-10.7509
1.08912
0.864005
0.200258
0.154738
-49.3976
-62.9869
33.7183
0.419632
0.826772
10.7027
9.98256
46.2692
-0.00859239
0.0273374
-18.177
0.96383
0.492806
0.379148
0.158575
-34.5616
-17.4282
11.3117
10.9825
0.077698
0.699141
0.0915093
11.2205
1.01495
0.65978
0.198025
-7.33687
-56.5075
4.1527
0.0952969
12.9408
0.0638982
-55.5606
12.6513
0.698083
0.779647
11.2722
11.0418
1.15446
12.9014
0.609035
0.0150494
0.145144
15.3484
-0.0379613
0.153245
11.5423
6.75289
11.6546
12.5266
11.9891
-2.98645
0.422171
19.6241
12.3261
12.3118
18.4534
-5.15736
0.93596
0.138172
7.89436
0.131053
0.142317
12.3586
12.6346
9.24731
0.161653
-43.15
0.026969
10.361
12.1546
10.1923
-3.90731
11.6584
12.0239
15.2748
11.9451
10.154
0.877821
12.5082
0.990601
12.5398
0.0822239
9.54992
12.9888
0.0816287
5.58363
6.97263
-0.0148414
6.37926
0.48465
6.16377
12.9859
0.0415448
-14.0856
0.321088
-31.3026
0.477949
-36.4117
0.20692
1.88254
0.298433
0.247407
0.0733451
0.103845
0.210683
6.9979
-57.3948
56.4649
0.868624
6.48334
3.78653
2.25054
0.838126
0.022912
0.510114
0.134715
0.696043
1.23379
2.18751
0.0518244
0.0901094
-8.16133
-5.82848
-2.36756
15.6149
-56.2651
0.145227
25.8043
-55.57
1.50031
-57.9861
-34.0356
0.743809
-0.772795
0.231039
-3.83048
-59.7638
0.875581
0.811692
0.524306
-4.39184
-2.06936
0.965769
1.10586
-26.7555
-57.6002
-27.9869
12.8258
18.2777
-3.269
0.930391
0.189835
-13.8646
0.407311
12.7966
13.0644
13.0807
6.56121
13.0022
0.778155
10.2175
0.186976
-1.67385
0.552467
0.510429
12.8626
12.9841
11.8587
7.70185
10.9621
0.896663
-0.760388
-26.7631
11.9306
-14.0604
13.0255
-1.98657
-7.76585
12.5309
0.828496
10.9695
12.3556
11.9438
8.87911
0.561133
-0.776049
11.1143
1.07331
6.93249
20.5385
0.845538
13.5537
11.8527
15.0587
1.07496
0.323599
0.950232
0.152639
3.16336
0.0366915
0.155528
0.917078
1.16503
-0.871595
0.102428
0.0744877
23.2876
0.0220409
1.5066
1.2494
0.936695
0.0235142
0.180563
11.0365
7.21591
12.1166
12.1149
43.7008
0.0613277
0.0217936
12.353
12.5735
-21.2053
-24.9785
0.360811
1.25104
1.18309
-10.7664
11.687
-28.1248
12.9931
-30.1652
26.5199
19.546
0.0897585
-22.0794
0.242341
1.05534
0.397273
1.90761
0.15145
0.760585
-57.0512
0.261123
-2.02347e-05
0.319207
-19.5905
0.850631
0.0864442
-19.8905
-16.0921
0.193267
0.229596
-29.2262
0.355329
-0.782529
0.142203
0.398253
0.293305
-11.4675
-12.4181
19.2752
1.48584
1.08905
0.0631079
-28.4729
18.2078
1.6977
-29.001
0.0696624
0.244627
-29.2887
-41.5261
13.6561
-28.9946
-28.9319
0.234763
12.9401
0.114185
16.7852
11.9208
0.115937
-45.1713
11.3563
0.0605451
0.677674
-17.4093
-10.7153
12.9862
6.28956
-52.3103
-26.9071
1.63128
0.586652
0.494205
2.28082
0.573129
0.524999
11.9185
7.99223
12.9798
-2.13216
12.1217
-29.0418
5.48308
3.77011
-30.8054
10.6578
0.546997
7.26794
10.0852
0.572181
12.3805
-2.81788
29.1208
12.1412
-1.22761
1.35493
-80.5136
9.07043
-12.3863
-43.1409
-44.1413
0.202667
1.21672
-46.0924
0.0335661
3.58939
-27.5961
12.4337
-40.1157
0.214244
0.190273
12.2425
-37.2545
13.0889
13.1607
0.363841
0.151888
0.840465
-0.0115465
0.739672
0.963751
0.658996
-33.0744
-28.655
1.84966
13.9761
0.253295
17.9269
11.4355
13.0719
13.0692
13.1299
13.0581
19.305
2.81225
12.9948
9.53949
-5.73261
0.130046
-60.8144
-30.4158
-0.00901801
18.4037
4.50524
0.180626
-62.1584
-0.0218325
-53.5088
0.329115
-14.2664
-14.8742
0.716519
13.4216
9.47548
25.8336
0.369141
0.592212
0.545218
-18.1576
12.9262
-17.7488
0.557301
-59.6391
-13.1425
0.50059
-15.739
13.0204
0.926307
5.7422
0.602464
-16.9947
12.8807
11.5618
-16.3357
0.278154
0.492721
0.127819
0.777035
28.2584
26.7396
16.0409
15.1724
0.138995
-0.00386957
1.96887
0.707582
-1.25545
0.15876
1.03451
0.0827171
1.04649
30.318
-11.7686
0.0499332
11.8234
0.965105
0.857327
1.0922
0.0310092
-3.6038
-25.5038
1.00871
0.224193
0.106202
0.966843
14.973
0.0730489
0.221358
0.737235
0.735131
1.05236
18.199
35.1764
0.867397
-28.2953
-10.5016
-34.5223
-28.2512
0.567249
-4.22991
4.39143
0.296411
42.0362
-29.0222
54.4384
-11.6766
0.969409
-20.7168
0.422708
56.632
1.75114
0.237589
1.18491
0.18437
-11.9132
1.35081
0.970544
0.915922
-29.6517
25.413
12.2976
12.5662
44.4008
40.7105
-17.2025
-49.4559
-27.34
45.8201
42.7451
12.4538
0.5736
17.9494
0.369555
6.39605
-29.0894
1.05183
5.57604
6.90191
0.294157
-29.8415
-29.6491
0.132655
5.69936
0.70953
0.383326
6.9238
0.326448
16.0888
0.0800327
0.613804
31.4804
0.210102
0.034984
0.151335
0.392855
0.262312
51.5067
-20.508
0.0616697
4.84394
0.650653
15.7763
16.2345
-16.5954
0.400382
-27.8623
-17.9436
6.10509
2.25389
23.6878
-45.4244
0.0777728
0.110666
-7.4374
0.976246
12.6329
4.08522
-0.0246527
13.159
-32.1801
-18.6259
-46.66
13.1306
26.2214
0.175536
-11.822
17.5256
-17.3088
0.0440673
19.0499
-35.9551
-9.06605
-18.9316
-29.3938
-17.2026
0.426036
0.0953184
-13.3338
0.0865343
-18.6715
-27.4206
0.030167
-21.0767
0.96396
0.962661
-39.3095
0.941256
0.859793
15.8726
15.8526
12.0746
-25.0108
-6.72562
1.02335
-12.328
47.5858
-0.523796
14.1124
1.24263
-0.25386
0.976991
0.953939
-31.0854
-58.6746
-10.4449
-0.0791523
-19.1339
-19.3301
-28.7786
5.88548
0.998502
12.6959
12.8849
1.13682
-13.4044
16.6333
23.7325
12.7496
-28.1728
-18.1555
2.86889
0.932279
0.454138
0.780231
32.6917
12.4774
-19.3625
0.304337
2.81045
12.5836
12.5675
12.4667
12.2722
12.7906
-21.0618
-3.71933
23.6536
26.8595
17.3956
7.11585
-1.753
35.0752
0.233814
-8.73139
-0.430054
-17.0844
-9.97614
-9.97618
-0.720259
12.7948
15.3286
12.6029
0.811716
-37.3799
-32.1211
-44.4406
10.585
-9.88318
5.55151
-21.6014
0.969609
-39.7338
0.874787
0.753
-9.86253
9.58769
0.919632
9.76168
0.371382
4.99646
-11.1726
0.843697
-3.45818
-26.6404
-6.51665
-1.46476
17.1421
49.867
-54.8516
40.3357
-28.724
-60.085
0.240424
0.89205
23.7951
0.472052
51.6195
0.504262
0.376371
-58.3672
14.9208
2.1662
0.301927
12.3754
21.9745
10.9021
0.839756
13.3452
-20.4457
9.76272
13.2901
13.4941
13.0234
0.850959
-15.0756
-7.89866
28.8584
14.3906
0.896452
10.5275
0.567014
0.574833
8.00466
-11.0514
-3.75286
-11.6297
-11.7162
10.4112
-42.7786
0.705469
0.6254
0.675029
-50.6303
-52.6742
-25.4972
-28.6062
0.275801
-0.936315
-40.3852
-29.7495
-6.29391
11.3687
0.724292
0.586339
-42.1359
3.93448
-1.97458
0.872885
8.97803
0.646193
31.5583
-113.671
-17.071
-32.053
0.882319
54.507
-56.1282
1.46496
10.8664
2.29207
-34.2309
10.8977
-5.95413
17.666
-27.9771
1.20731
-29.8514
2.17276
-11.9964
0.71094
7.07396
-30.4869
-29.8021
10.1624
18.7134
-12.6428
-47.5097
9.54986
1.04934
-31.4809
-40.045
11.6658
8.87745
-61.4168
-55.8572
-42.9279
10.3394
-9.82263
-22.8326
-42.981
9.79774
25.3576
-22.2161
-9.88805
-7.857
-28.0318
-41.2736
-6.37999
7.74238
12.2346
12.3986
13.6432
10.1714
-3.64882
12.986
12.9471
13.8147
0.429578
-28.7827
-38.1331
10.7777
41.7171
-20.9881
11.3021
-17.2599
5.71459
10.2043
-10.2904
-3.18305
10.3581
9.23637
-54.5321
13.3487
-36.3289
-58.6314
-37.0446
9.87911
-12.5482
11.8718
1.43215
1.77711
-19.6748
-41.16
0.75676
-29.3767
-21.0272
59.7419
-23.4588
-49.0347
-30.5074
0.0369332
0.949359
-44.2222
-0.18272
14.6724
0.103065
-46.2676
-41.8941
0.014779
0.119853
-35.2802
-14.0763
-44.5349
45.1433
0.409331
-5.78177
-49.5265
-0.485372
22.439
-32.5237
14.8093
-61.3874
-19.7542
10.9268
0.337889
0.369361
0.482671
0.417936
0.713753
-0.544531
0.398091
7.25248
34.2222
14.958
24.7646
-21.3405
-12.0609
28.652
-4.32798
4.24495
-13.001
13.0915
-71.7185
0.793317
0.680332
0.913746
-39.6778
0.797851
-62.8785
0.866908
6.433
7.20392
-57.5219
50.6162
-29.9213
-25.3635
34.2588
-4.90325
12.4685
-10.1502
-26.5001
-27.3
-28.8343
43.6701
12.325
-19.2453
-31.0064
-6.63739
-6.67834
-40.0117
-30.823
2.4707
-16.2645
12.1963
12.4753
-24.4797
-49.4465
-1.83931
10.0049
12.3557
-56.7167
12.4998
-12.1698
-13.5634
12.4828
12.7377
-22.8224
3.53086
50.0673
-21.2204
3.61483
29.6575
26.3449
9.70397
-90.3434
-42.7469
-17.0123
-119.025
61.2662
12.804
-21.8544
12.808
23.4153
-62.0603
2.55437
-59.2804
-32.401
-3.91082
20.8012
-8.17873
12.6547
12.7071
15.1239
-22.692
3.76746
0.146766
26.0854
0.300397
-10.5043
13.1545
-14.4156
-1.48928
-24.8284
15.7714
-61.871
-43.6939
5.55634
-38.7468
-28.957
0.158947
48.4991
-38.9328
-5.0125
29.407
-11.6054
-17.9658
-25.2161
-33.4909
7.3084
-46.8057
-23.1943
5.8153
-2.76536
0.51768
-25.4664
-4.90113
24.7901
-15.6295
0.925125
24.6722
0.68735
-62.1284
0.227177
0.232292
-8.02896
-24.8612
21.0437
-7.63996
-14.3654
-8.90927
-60.7823
0.12466
-14.5422
-66.5632
0.934035
-9.59203
57.5002
-7.78738
-30.0434
-54.9861
0.225357
10.3472
-0.0283597
-130.151
-29.4637
-28.4875
-29.0156
19.1748
-6.74356
-1.47415
-41.2715
-53.2872
-15.8461
0.450347
12.5282
1.2322
0.496449
2.16581
53.2968
12.9336
12.2404
-9.17815
0.553666
15.6923
13.098
21.9826
12.6807
0.469252
22.1609
13.52
10.3229
-17.9115
1.43488
11.9341
9.82209
-11.7433
12.0479
0.521467
1.10379
10.5357
12.7671
12.8085
-58.2336
12.0202
17.587
1.0046
0.271162
-27.253
13.7078
13.219
-55.3394
-52.2261
58.7822
14.5827
-57.0482
23.0466
1.31071
-52.5674
9.33118
-54.9198
0.861924
0.882756
12.553
18.7017
10.6952
0.920089
0.825898
1.28611
6.10229
8.86168
0.844356
-20.3279
0.816322
-13.8852
57.7582
12.0361
-47.2297
-12.9955
-73.7684
0.966776
10.7747
0.139158
13.4318
1.13973
12.1035
1.20611
-44.0274
-25.9402
-39.7367
-4.64361
-11.078
1.26027
2.06794
-33.556
1.52689
-54.4623
-1.77138
-48.9537
1.58721
-60.5657
-89.9027
0.144249
0.0982705
-37.2818
0.260227
-37.6592
11.7848
1.09396
0.917434
0.394124
-0.858295
-1.36952
-13.7296
-32.8342
-8.46185
11.8121
1.20782
11.8852
0.8152
11.7703
-38.8452
9.61702
-37.5478
0.930128
1.31168
9.32568
0.531752
9.59304
8.84622
0.200627
1.08756
12.6343
0.987949
-4.37835
0.991527
0.972251
-29.9059
-35.0211
-2.9109
0.477925
-25.2986
0.843448
0.581667
0.454315
0.435468
0.120246
0.915213
11.9744
11.6916
0.929472
0.731517
41.2085
0.961579
0.951243
1.24118
-49.2498
0.313013
-55.3392
-39.8404
-49.3894
8.92915
0.272124
0.456759
0.143589
0.985933
-45.7553
-12.7695
0.81428
0.806415
0.439625
0.458026
-27.9265
0.446968
-0.0219126
-17.6268
0.69433
0.501545
0.313492
0.494435
0.248675
0.370983
0.548868
-12.9176
-17.9264
-0.0131533
11.8652
-3.85842
-11.1056
-9.80184
0.63777
0.965594
-12.712
1.04191
0.0904422
1.33954
0.891005
-11.9788
0.0277544
1.30483
0.675381
0.613562
1.39416
-7.11011
0.0191863
-46.1118
0.657194
-17.1424
0.743128
0.0155138
-48.2883
0.028819
0.0789945
0.046263
0.795846
0.829618
0.0937569
50.222
0.318587
-36.5154
0.813776
0.25436
1.48161
0.770914
0.551782
0.400144
0.472786
0.770712
0.254125
-17.2666
-11.238
-40.8375
10.3484
-14.7177
0.432916
0.959675
0.349213
-31.6348
0.175681
0.216404
0.142338
-58.5789
0.109479
0.916378
-0.00200751
0.258088
1.36259
-148.602
0.101801
1.29732
11.993
-0.00706409
-8.00977
29.1012
24.9372
0.0352529
6.9566
0.11678
0.946617
0.531181
0.229249
-57.2155
-52.9927
0.0508405
0.858679
-45.9366
-0.0729309
-8.10588
-23.9392
0.077316
0.865742
4.8113
-0.0379878
-9.52616
0.0403347
0.766625
19.3159
2.03689
0.0573775
12.0091
-26.4221
12.0565
-30.1454
-26.2977
-29.8059
-25.8539
0.513164
11.9829
-19.8251
12.1277
-0.287794
16.1492
-37.393
-27.5333
12.4396
-11.2424
12.4189
0.634588
1.1411
-28.9114
0.838966
0.494786
12.2563
12.2725
40.4977
43.5594
62.0523
-16.9602
27.6823
12.4546
14.4972
22.4616
12.3204
0.590256
0.167678
0.461894
-0.0643033
-28.8766
-28.596
0.653085
2.23773
-4.47725
-56.0761
-2.5708
0.949144
-0.733654
-24.8968
-58.4399
0.714818
-41.8769
-8.94325
-31.9195
-43.4486
-14.4378
0.267021
0.663191
12.9319
-59.9271
0.225906
13.0364
0.546248
0.17896
-52.2607
-51.9052
-54.9262
-0.132529
-35.7878
15.9123
9.51798
1.19401
-16.9698
-58.1711
-57.1076
-28.3381
59.6525
-28.6252
33.5029
11.9016
-43.9604
12.5824
-62.7615
11.9731
-58.6309
11.8693
-28.3667
2.47586
-22.7142
12.4628
12.3926
1.56462
12.252
12.1307
33.2076
2.40374
12.3683
12.144
-71.4173
-46.1494
-15.9666
-26.5249
-47.2926
-26.3997
1.05494
14.55
-39.8524
-31.8004
-39.0122
13.4972
-53.4428
5.64926
-55.1513
-57.3878
-39.8016
-21.6059
14.7692
2.7596
9.01747
12.3055
1.71356
-33.4373
-2.22654
-0.478402
1.54877
0.147666
0.148947
1.16367
0.349012
-27.3238
0.291755
0.13148
0.520166
1.16998
-22.3038
1.0897
0.0559492
0.204017
1.61252
-12.9008
-8.55265
0.626964
12.8628
-32.711
-56.6944
-2.73065
-47.7805
-12.9988
-3.05
-24.097
36.6964
8.8903
8.15876
-8.98492
-0.0239606
0.15622
-4.64121
-0.0402713
-0.0735407
-1.40213
-0.0163349
1.62221
1.75965
11.6407
-6.33036
0.867883
42.2355
-0.0608864
12.2476
0.124171
-0.00232609
42.8403
-46.88
23.8396
-0.0681423
0.408443
-27.4804
-27.6772
-1.6353
0.997083
10.9883
-13.6414
0.192258
0.170547
-14.6248
12.1695
0.133469
12.856
54.2521
0.569332
0.0790256
-17.5904
-2.32667
0.732276
0.676219
-0.0336345
12.1132
12.1039
10.6091
12.2396
12.5518
3.9004
2.79442
-5.85934
-54.5724
4.66967
-7.35112
12.1566
12.0563
61.0004
2.80353
0.317077
0.349331
-22.6578
-39.6844
5.05444
15.8105
0.136715
28.6205
-6.0429
14.6843
-35.6565
47.2013
29.4126
-20.499
4.17264
3.97337
-22.1331
-55.5979
-83.7459
0.483105
-12.5425
-56.8609
1.94124
-16.2758
-8.55338
-40.5841
-27.3818
2.39184
15.5565
-58.585
10.2073
-8.631
2.1714
10.5327
-1.62027
15.8691
1.84821
14.2159
9.61579
-38.4352
3.14695
57.1397
-21.1054
55.0453
31.9341
-75.4257
13.1437
13.1872
-61.7043
-14.8698
-2.37588
-32.3302
-26.464
-0.584115
2.25486
1.89981
-32.9232
-3.96206
6.57049
57.7507
-9.47559
12.8643
-7.66111
-20.7851
7.41389
7.48959
-36.8678
-31.4874
-29.245
-28.9151
0.522092
-18.422
0.610681
-19.2859
-11.3949
1.55387
0.315566
-17.3559
-5.68916
-28.8242
-28.5893
-2.81586
6.61366
0.0162834
-13.3028
-23.7975
8.89659
8.60501
-18.058
-28.3173
8.98531
-9.07209
-28.2678
1.00595
-40.4951
-1.20369
-5.77748
-49.3483
1.17459
51.9602
-10.0211
0.306306
0.314448
-0.770012
-57.396
0.819321
0.859742
-4.45688
0.337419
10.9496
0.690877
-32.6052
11.199
35.9074
11.4584
11.3811
11.1505
0.86637
-18.1664
-9.30551
-11.0645
-54.944
-2.47859
-42.9469
-12.6205
-0.0309841
-58.5231
0.0275158
0.724244
-0.354244
-9.69864
-57.2585
-27.7892
10.7951
37.5233
-14.706
1.28585
-35.8843
-44.1323
-12.1085
-46.1923
33.3741
11.9882
-12.9555
42.314
12.0102
-71.3757
19.8038
10.8122
48.3938
33.9234
11.7931
12.1785
59.9795
-41.9343
1.05258
53.6688
7.05598
12.1424
-10.955
12.0265
-32.6292
7.54844
59.3722
12.2319
12.3851
36.4007
10.387
18.0125
-5.1907
-3.17245
15.1341
-29.4179
23.7545
-23.6571
-57.3533
-73.6209
-26.7184
12.47
36.2294
13.9593
4.33463
6.9104
11.6709
11.7308
0.830898
0.886623
40.3086
-44.604
12.5777
-29.9709
1.43945
6.79881
-19.3766
-71.9217
0.970231
-17.0613
13.3004
5.6666
0.745964
10.1752
-9.2059
1.01281
1.13248
-25.7493
2.20016
0.834574
-8.20377
10.3521
0.778253
22.0604
0.769554
-21.0454
27.3588
1.59228
15.5934
36.6716
-27.4042
56.5466
41.1158
-32.6459
-64.8443
-27.6538
-28.593
-27.4973
-27.5887
-30.077
-24.8583
-35.6056
-27.8445
58.4888
-3.36515
-50.8491
11.1913
-0.599191
-39.9496
-51.1908
-5.01341
-28.8889
-17.8349
-27.9138
-15.7983
41.2963
-47.3499
-40.4751
-27.2514
23.6934
-27.1124
0.989988
-54.9125
22.8825
5.70684
0.934857
-2.14144
45.2206
8.97085
-20.9713
-8.63719
12.846
0.852409
-8.19909
-27.2202
-32.5962
-2.12796
-5.75328
18.5076
-29.2806
-8.85019
0.962631
-24.1979
46.2204
-2.88477
5.28589
1.05241
2.10067
-39.4793
10.1928
7.99963
0.694542
1.07399
4.78228
-3.08077
-3.68908
62.3519
2.94195
-17.3979
-7.37181
1.77103
-56.8492
-55.6457
8.92658
9.15129
8.32828
11.2251
-25.0731
-10.8499
56.1247
-8.81966
11.0019
-17.6936
-4.1315
-5.82933
8.73643
-13.389
8.73924
-21.9232
-27.8051
-43.0888
31.2125
-14.2111
17.5766
9.00904
-57.8178
-71.2877
32.8687
-54.7467
9.51615
-63.0065
32.5731
-2.66579
18.5852
-20.4061
0.171851
0.367499
-8.22554
-14.4974
-41.0932
0.00556556
8.48422
-95.7981
12.9893
-38.3645
12.8408
-2.19408
10.3578
1.06008
-1.10784
0.229985
-8.56276
7.86601
1.33389
15.441
-0.217608
-50.9608
34.623
11.3259
40.8309
12.266
-0.861705
11.2575
13.044
30.7789
-0.304398
30.6811
1.081
-0.179652
-21.3104
0.836344
0.297545
-15.8461
-9.21889
-29.5747
-4.63253
33.0156
6.81485
27.259
0.820962
18.8706
14.8606
0.922498
0.867906
0.4171
0.955428
56.7751
0.389095
-11.0302
-29.442
12.3316
12.6902
14.7383
12.5407
-23.6583
-34.252
-1.20694
-4.55117
-4.54204
-15.8898
33.8561
0.202152
-61.8203
-9.66015
-36.3491
-0.339645
8.77471
-24.2525
12.4254
12.582
-21.3653
12.6783
0.741663
6.67469
-44.4091
17.4752
54.8264
-0.131402
-0.58306
33.8723
6.26832
0.573001
34.1494
7.93146
-15.5721
37.0101
-11.8939
38.844
-47.8319
1.50692
13.0726
-0.752417
-8.65533
-0.903274
0.942522
-1.5559
0.246282
13.0732
-36.2334
4.54992
0.948113
-39.6713
0.352252
8.44744
12.5217
12.651
24.721
3.98259
0.126755
-6.40419
-0.972994
-13.5869
12.319
1.0359
-21.9821
59.3892
-21.7013
0.518174
57.9745
12.5553
-54.2304
53.9447
-2.82863
5.2196
35.5885
12.6851
-28.0278
38.1255
-28.2531
-6.48668
-28.0359
-14.8444
-37.9172
33.5183
-6.86138
60.2642
0.827776
-28.1345
-28.0992
-59.2005
-52.1478
-36.8233
-60.293
-41.9079
-31.714
56.8661
9.71921
10.4515
49.8221
23.6649
-48.4892
7.03027
-50.7781
44.1185
1.00835
10.8325
0.0596905
0.986018
0.815143
0.782778
58.337
0.80411
0.829022
10.8018
0.989684
0.926792
10.9916
-6.19363
0.916572
-7.99786
0.857858
7.09165
26.0767
-48.6942
-0.309403
1.83639
-6.96472
-0.308415
-40.5357
-24.3015
-23.7766
-0.417751
37.8363
13.7569
-2.5809
-5.507
7.88843
4.06598
0.972587
11.7565
11.2074
-27.7545
0.954213
18.5927
-3.33524
2.68542
11.8412
-1.08867
8.0486
11.7758
11.5875
-14.0912
11.3337
8.61033
51.7786
24.6747
13.1789
22.1887
10.977
-1.56459
11.4247
1.02496
-3.92047
0.980632
5.27296
-0.0224056
23.0187
10.9776
-17.669
22.6341
0.197561
9.83647
27.6175
-14.9862
33.5045
-27.0807
-53.6952
-41.1831
-0.246086
0.0236209
-26.9887
35.3792
-10.346
-2.47557
9.01877
1.55262
0.16257
0.0579658
9.58648
12.9173
29.0333
8.84775
1.35107
11.7645
11.547
0.050675
-36.3946
35.0088
-0.0676975
7.76639
-12.7106
42.1355
12.8713
10.247
-10.4977
-48.8706
-53.0544
12.0024
11.9375
-4.45329
-8.46604
-9.76741
-30.6328
31.7414
1.10133
0.512603
-1.36044
0.521081
18.9604
-17.7218
0.487813
0.370635
29.9491
0.404745
-9.11502
26.0226
-35.9503
-26.2734
0.587016
-11.6973
13.7744
0.00920516
0.688324
12.4545
9.22201
-2.66684
20.5852
3.76202
-47.2966
0.783656
0.692996
-35.547
-3.64695
13.5992
0.694623
7.9045
12.0802
59.6354
0.69301
-11.0878
-37.7742
-40.8987
-93.7837
-61.5669
0.716671
16.3528
46.1392
-0.0138541
7.2518
9.42413
-41.0071
13.1837
6.23977
-40.113
13.015
23.7226
-17.6096
9.30638
-40.3446
-58.7494
14.5959
18.6796
-45.4153
14.9052
10.8624
2.50618
14.2475
12.4325
1.01224
-36.2043
-7.06553
6.03636
14.0003
11.5467
12.828
1.03464
0.0420715
34.0887
0.0571922
-8.93508
0.0971097
36.1224
12.5736
-12.7283
4.53309
57.3716
-24.7001
-29.8534
-43.3755
3.07428
-5.80767
-55.88
-19.5814
14.2628
-16.1142
-7.77768
0.0165176
-9.96705
11.847
4.7539
2.71093
0.120437
0.302669
-20.0061
-5.29335
-12.0637
0.896728
-0.038124
0.272473
-0.311447
-6.29306
13.1301
-44.9428
13.5095
-0.488097
-0.466816
11.2718
11.2464
12.2796
1.35683
-0.419805
-10.506
3.82784
-0.29419
-0.687673
-27.5595
3.61113
-8.01911
-41.3619
-28.9555
-30.7253
14.1765
-28.3342
18.0347
-30.3091
0.939058
-28.0682
0.784574
2.62628
-0.322948
-5.41146
0.924058
3.59614
-2.20075
11.7622
8.62421
13.2471
-5.27042
-6.37574
-51.8148
-28.0185
23.2237
35.8865
-36.2286
-27.1435
-30.6784
-54.5839
-27.7193
-9.18871
-27.9396
1.09064
0.918496
-49.5346
-58.896
-5.76325
-0.501723
11.665
52.4356
-3.4676
-58.4231
-0.952583
4.73553
-3.653
-0.462043
-29.5637
0.569501
0.781379
0.693272
2.08488
6.84397
0.191532
1.00831
-47.0083
-48.2371
-42.0691
21.7042
-36.4341
12.6087
0.849086
14.3882
6.29506
4.11446
21.0573
11.9459
22.0873
0.835351
3.56658
5.15069
0.471607
1.89817
-13.1321
8.78823
13.3889
8.77557
42.3614
1.41538
23.3861
-57.7999
-5.29956
-48.2079
40.5043
10.4584
9.24496
6.31893
-16.1262
-9.36504
11.9629
-36.3982
7.42136
8.37914
-4.94007
17.8168
9.49809
-5.61733
-16.6889
-15.8859
13.0649
-1.89185
-58.8937
-0.221743
-45.9186
-31.5836
12.9486
-59.2253
-7.36938
33.5722
-1.56782
12.9165
14.5725
17.1989
-6.84164
12.1732
-27.8771
-15.4431
-27.7673
-4.79203
-8.14253
16.2344
-27.2857
-24.2161
1.36339
0.518107
15.2665
-27.6298
6.45948
-3.91866
-46.4741
0.639334
0.468867
11.6129
-55.3175
-5.96162
-2.50687
0.685211
-1.83137
11.2743
10.9504
-1.6563
11.3323
-27.0371
11.3187
-59.4799
11.6034
-31.9254
-31.2445
-7.88845
10.9431
-8.785
1.05425
10.9408
-2.65893
0.0758647
-8.72699
51.4611
0.142912
33.717
-10.0101
0.098117
-3.5554
0.243629
12.4882
11.1342
12.2636
-9.29137
0.138309
11.8342
-1.10885
0.0725137
0.724309
-25.3656
1.43376
0.314763
12.5841
-27.8259
-30.4132
0.150538
-5.30798
0.678975
-30.0262
0.438542
0.328003
0.608227
0.297488
0.775645
0.649705
0.0342256
0.657762
11.2242
-23.147
-17.5997
12.566
44.543
15.8233
12.3181
-0.0432314
13.015
36.8324
0.0771897
32.6763
0.266608
0.203045
-1.28592
24.4803
0.826585
0.0730345
54.4977
13.0946
27.5167
-10.2982
-14.2349
0.176663
-3.68183
-0.0195785
0.906307
1.84966
0.604507
49.1163
0.942357
0.571794
0.586444
11.8073
-42.0698
-23.693
-4.96417
3.13235
0.377592
0.473603
14.9651
-30.5406
25.3621
16.3668
2.94699
0.47121
41.9016
-14.4743
39.7404
31.5097
11.7818
12.4286
0.341208
-6.14695
1.37425
-14.6675
-13.122
12.4298
-53.1044
0.801239
0.985481
0.883546
10.751
0.940962
47.2495
-4.7197
45.2607
0.975078
-58.5272
-9.89209
-14.5897
0.832051
-44.9454
0.893761
27.766
12.0137
31.615
1.16352
-18.3426
4.08428
-47.4784
30.0091
11.9705
11.5617
-1.11783
-25.2864
11.5696
-61.0366
-33.1767
12.0309
33.2481
11.8945
-23.1305
42.7962
6.94185
-6.32392
42.667
37.0771
1.06225
2.66767
-57.2173
42.6462
9.75864
39.1295
-5.52934
-55.7195
29.2348
-2.79648
-0.0356861
0.292493
-0.0103545
0.415698
13.7577
-36.7391
-0.645932
-36.1638
16.1657
37.8542
-11.4111
36.1087
-0.0239499
-0.0429129
-14.9312
57.0201
-19.1593
47.0735
16.0479
4.06286
24.1493
4.14769
16.5597
0.0461216
-0.0353652
0.00926069
-0.0149399
8.68554
-15.427
13.1174
-32.7901
2.87317
-40.9588
9.23035
-23.2276
44.0237
-3.33047
-2.44021
0.173124
37.727
0.0629877
22.5731
-2.13288
8.66215
-9.52358
0.121108
31.2427
35.2688
-14.9092
0.145896
-0.0218176
-41.0696
-62.4416
-8.19242
51.1068
26.5688
54.3708
57.8112
43.4346
-39.9019
-1.63184
43.1866
-44.1874
-0.0127272
5.29347
0.0529532
-28.7256
-15.765
-1.67636
1.38826
-9.27386
-0.00637085
11.33
-36.9505
41.3231
-45.4569
11.2791
-2.16178
9.81225
1.08827
-6.51006
-61.353
1.11758
-36.4236
-16.2378
11.6423
-60.8431
-49.1082
11.6471
-12.7657
-14.2333
22.0675
11.6847
-14.2828
26.1478
-58.2818
-32.2882
-44.2128
39.3719
-37.5445
4.68419
25.234
4.09806
-57.5348
-47.9995
-0.422184
-0.495276
48.7376
-3.22157
-38.3956
-2.51498
-17.4128
-65.0822
-29.7787
-28.8773
1.90368
-29.0099
0.33393
-28.8945
14.292
-22.6692
48.9722
-27.5536
20.161
-32.3768
-27.181
-20.7573
-45.9019
32.959
30.7384
-35.9036
10.7111
24.9936
16.8959
5.91886
13.4629
-2.63725
-31.0353
-79.1594
-29.7558
15.4276
19.2408
-41.2861
23.2809
-30.5727
-16.0952
5.98497
5.78279
-31.8789
12.6524
-29.9813
14.0034
30.182
32.2632
59.7894
29.0486
-29.6614
-59.4646
42.7266
12.6324
36.6123
-49.8472
-28.6915
50.8076
30.1884
-4.08891
21.916
23.7425
-44.4114
-31.423
-50.5229
15.2436
10.9819
35.4423
-58.2309
43.7636
28.2905
12.9683
36.6552
-29.9088
1.74681
2.33212
12.92
-13.1174
-56.0601
-27.6601
44.7587
-7.42986
-20.8014
-47.4509
41.8487
46.2226
37.8244
-35.773
-98.1757
44.4613
-33.4042
-57.6475
45.8554
-1.7567
-10.0545
12.4847
0.677414
0.511525
-8.75924
43.4812
-27.1484
1.24959
0.875086
0.555006
1.08015
-0.316086
4.10112
-33.9745
-6.04215
0.445161
-55.3307
-73.688
-27.372
-20.1137
-1.10132
-18.0262
-29.8699
-43.5902
0.485989
-35.6531
-2.24948
-34.8378
-28.8947
42.6528
18.9382
26.3129
-0.0106425
4.47229
-72.0157
-25.6822
-9.8217
-49.0032
0.0186637
-61.6781
-44.1176
-26.6046
-43.8605
-5.26043
16.0376
11.9049
15.2433
11.1364
42.7414
0.0820271
-0.0236107
0.122094
14.8082
-10.4563
-52.1996
-55.6393
16.3173
37.0714
24.5051
29.2182
-0.393979
-52.7136
-5.68166
12.4557
3.83966
-1.13008
19.0481
7.24249
-15.1038
14.7907
-11.3641
-9.61173
-7.69745
17.5298
36.0779
-32.1344
52.3039
-26.9286
19.0807
-61.772
-48.5214
-10.379
15.014
33.4756
-9.56029
-35.9075
7.16748
14.5206
-18.3778
-27.9132
15.8728
46.6327
58.5307
-41.9165
-0.973233
-58.5165
14.6665
1.00778
-9.85197
11.0429
7.32475
-16.1155
3.43733
8.11105
-43.5042
-9.51021
-27.2017
-15.0203
-28.0227
0.115373
12.2179
-61.6043
-18.1079
0.0157698
59.6273
12.8422
45.4607
11.4272
-21.8827
17.0156
-0.109794
33.3603
55.0768
15.5347
33.4837
-0.0637997
-47.2777
12.7168
12.5433
-5.37106
5.96985
-38.128
-4.89548
-9.11971
12.875
3.77747
-23.1527
5.1007
9.68003
-7.52747
-13.2954
-27.3632
-0.0348016
14.1206
0.00109379
14.4818
-0.0171027
-20.9113
12.5756
-24.0327
11.9522
-29.4033
-0.0453791
33.5581
-9.02548
34.8858
-0.00545647
8.49945
-0.000176049
-0.0212217
-4.61584
7.66171
17.1048
33.3116
30.2372
-28.9185
-53.5247
41.1545
23.8385
21.5225
4.7829
0.0144211
0.166188
-76.3233
42.6545
18.1926
14.1406
0.098359
18.5832
0.14682
0.0976522
-22.5676
-24.69
-39.1188
-34.4325
6.57616
1.81011
-5.06201
12.4482
42.5354
10.9065
-17.2981
10.8126
-7.0005
-78.5756
-16.3247
0.318733
3.43857
-10.0088
-7.18451
-36.5669
12.8954
-35.4432
22.9348
-77.007
-32.2668
-29.5173
0.269438
21.6943
2.18257
12.7799
34.5083
12.8374
-11.7467
10.8472
11.7294
8.28573
12.7352
-41.0553
18.2406
3.07261
42.4142
12.1456
-23.6679
12.9303
12.8491
-29.2657
-78.8045
-30.5457
-28.3634
-29.3219
9.345
57.8644
-28.2697
-3.63991
11.2429
19.0125
-29.3221
0.592046
0.535881
10.852
-24.0741
-28.3853
-49.1651
30.5145
-2.74756
1.06695
2.23118
-28.4251
27.5929
9.64928
-56.8607
-26.5012
-27.5843
59.0437
13.9498
10.53
1.55896
14.0563
-54.506
16.5607
11.0825
18.7855
-2.16699
17.1781
22.2688
43.6566
35.3556
10.4766
-18.0681
21.862
-10.448
0.639466
0.562282
30.8141
-32.4124
-13.5556
0.54211
54.5532
0.568643
-28.5085
30.1697
19.4054
38.2077
-27.5525
-20.2077
-28.2347
30.7653
-13.0429
-33.2385
-6.50629
11.2939
1.60557
13.9234
0.436227
13.5628
0.154365
11.3059
0.245485
-13.1416
0.299299
33.8975
1.99932
4.05075
-26.9067
8.81248
0.951208
10.2166
-6.84847
-34.5728
-47.5041
-21.5349
4.36202
36.0254
1.11814
57.4576
-35.0874
57.7807
51.1966
1.04693
4.32383
6.19802
0.912564
1.05102
-91.9985
9.93082
-26.9733
-11.164
4.5062
0.624087
-28.0263
6.5833
6.52698
9.11875
6.50607
0.953848
-32.497
-4.84656
0.841137
-20.3058
1.27886
0.544326
1.01094
0.774644
-10.5236
7.45681
-57.5638
0.468549
0.806229
-12.2403
-11.2598
22.7386
-19.0359
12.1207
12.008
-0.0489771
0.244106
-11.0379
-17.6342
9.25453
0.206248
-3.09938
10.2019
0.124677
56.0088
0.0934003
1.16578
0.153234
0.00213415
-30.6849
0.0107938
-27.6384
-9.0385
51.8932
4.39919
-1.36684
-3.28012
0.147108
-8.48332
-39.029
1.6394
0.125151
7.146
-27.8102
0.105267
7.91402
27.4001
41.5507
-11.4813
9.39694
8.70124
-43.0526
-25.5017
0.0184692
46.9018
-60.1657
-22.8386
-8.54972
48.6585
-10.3541
-11.4112
31.3272
-66.7924
-3.48053
0.128293
0.0547858
-0.0293295
0.00733709
0.0043842
-29.2578
17.128
0.00363542
-54.0689
-0.734331
0.0907156
-10.6213
2.93989
14.7772
-46.9943
5.45507
15.4401
-27.5685
1.395