/*--------------------------------*- C++ -*----------------------------------*\
| =========                 |                                                 |
| \\      /  F ield         | OpenFOAM: The Open Source CFD Toolbox           |
|  \\    /   O peration     | Version:  2506                                  |
|   \\  /    A nd           | Website:  www.openfoam.com                      |
|    \\/     M anipulation  |                                                 |
\*---------------------------------------------------------------------------*/
FoamFile
{
    version     2.0;
    format      ascii;
    arch        "LSB;label=32;scalar=64";
    class       surfaceScalarField;
    location    "0.0689511";
    object      phi;
}
// * * * * * * * * * * * * * * * * * * * * * * * * * * * * * * * * * * * * * //

dimensions      [0 3 -1 0 0 0 0];

oriented        oriented;

internalField   nonuniform List<scalar> 
92401
(
0.148192
-0.0973775
-0.00690714
-0.0439077
-0.0632724
0.0605419
0.0391718
-0.0364413
0.02222
-0.0397237
0.0429962
-0.0254925
0.00658129
-0.0131201
0.0129464
-0.00640763
0.00134198
-0.000527752
-0.00591709
0.00510286
0.0194269
0.00971876
-0.0253092
-0.00383641
0.00586314
-0.00482497
0.000303807
0.0322754
-0.0255672
0.0127187
0.0480782
-0.0386426
0.0324579
-0.0418936
0.000345082
-0.00072928
0.000106382
0.000277816
0.00469021
-0.0415946
0.0385963
0.0242275
0.0243641
-0.0871879
-0.0173947
0.0110275
-0.000174352
0.0065416
-0.03443
-0.0400617
-0.0166227
-0.0196669
0.0596225
-0.0233328
0.0021488
-0.0667557
0.0646069
-0.00249125
-0.00775893
0.00205457
0.00347631
0.00222804
-0.000963775
0.00154759
0.000221942
-0.000805754
-0.00495165
0.0108671
-1.2861e-05
-0.00590262
0.0164606
-0.00577926
-0.00499936
-0.00568195
-0.0408276
0.00837801
0.0369982
-0.00454864
-0.0393437
0.0109103
-0.0547406
-0.054116
-0.00275541
0.0549872
0.00188416
0.0907432
-0.089362
0.0220213
-0.0234025
0.0502718
0.0601335
-0.071423
-0.0389823
-0.0326007
0.0511394
-0.0578824
-0.00274612
-0.00102041
0.00402122
-0.000254689
0.0314664
-0.0635615
-0.000505611
0.0612433
-0.0602064
-0.0324444
0.0314075
0.0125428
-0.017344
0.00132891
0.00347229
-0.0360331
0.106654
0.0617914
-0.132413
-0.0846925
0.107527
0.00897187
-0.0318067
-0.131081
0.0323382
0.0296041
0.0691382
0.0148818
-0.0621179
0.0373683
0.00986773
0.0602413
0.00927908
-0.0546385
-0.0443006
0.0101288
0.002504
0.0316678
-0.0504141
-0.0411765
0.0654841
0.0261065
-0.0332333
0.0405903
-0.0138223
0.0064653
-0.0202146
-0.102328
0.0656418
0.056901
-0.0857993
0.0863991
-0.000599756
0.034602
-0.00623629
-0.0771187
0.048753
0.00204145
0.0264454
-0.0205365
-0.00795039
0.026885
-0.0503983
0.0235134
0.000171491
-3.65325e-06
-0.000123977
-4.38605e-05
0.000769227
-0.0584381
0.0576689
-0.0685666
0.0429191
0.0623723
-0.0367247
0.0901246
-0.025426
-0.0128048
-0.0518939
-0.000365263
0.0706425
0.000657631
-0.0709348
-0.0477198
0.0731487
0.0398676
-0.0652965
0.000553431
0.00111181
-0.000382183
-0.00128306
-0.00216504
-0.00350529
0.000197871
0.00547246
-0.0382586
0.0839428
-0.0462479
0.00056372
0.000338534
-0.00080315
-0.000569546
0.00103416
-0.054749
0.0542186
0.000530367
0.0755854
-0.00788528
-0.0185947
-0.0491054
-0.0989746
0.0915131
0.00472788
0.00273359
-0.0549483
0.0273753
0.0111043
0.0164687
-0.00288028
-0.0150578
0.0076837
0.0102543
-0.0125949
0.0259236
0.0374422
-0.0507709
0.000927953
-0.000369153
-0.000220266
9.9612e-05
-7.22249e-05
0.000773996
-0.000801383
0.000556027
0.000180519
-0.000462494
-0.000274051
0.00416281
-0.00921505
0.00506497
-1.27328e-05
0.0679078
0.00506144
-0.017199
-0.0557703
-0.0150763
-0.00473171
0.0106438
0.00916428
-0.0409711
-0.0528882
-0.0547689
0.148628
0.00335514
-0.0343713
-0.00329743
0.0343136
-0.000333969
0.00054165
0.000472795
-0.000680477
0.00434007
0.00449139
-0.0280029
0.0191715
0.0188083
-0.0065209
-0.0095906
-0.0026968
0.0417307
-0.0765247
-0.02748
0.0622739
-0.0291996
-0.00314335
0.010303
0.02204
0.0122765
0.00823492
0.0130743
-0.0335857
-0.000398811
-0.00033102
3.19426e-05
0.000697888
0.0252309
-0.00973249
0.0365642
-0.000645748
0.000381738
-0.000729066
0.000993076
0.0441696
-0.033094
-0.0681823
0.0571066
0.000448952
-0.00027041
-0.000178542
-0.00111894
1.03789e-05
0.000565701
0.000542861
0.000676021
-0.000195238
0.000325273
-0.000806056
0.0226942
-0.023037
-0.0623521
0.0626948
0.00108211
-0.0126875
0.00286783
0.00873754
0.043012
0.0585935
0.0185064
-0.120112
-0.113393
0.0262902
0.125466
-0.0383627
-0.0054545
-0.0445745
0.00375543
0.0462736
0.0547942
-0.030093
0.0260585
-0.0507597
0.0260031
-0.00333221
-0.15302
0.130349
0.00848118
0.0163417
-0.0286529
0.00382998
0.000688596
-0.000206565
-0.000746496
0.000264464
0.0380999
0.0123754
-0.00135599
-0.0491193
-0.00256501
0.0842396
-0.0857293
0.00405472
-0.0181776
0.0496588
-0.116081
0.0846002
0.0424784
0.00531292
-0.0532458
0.0426206
-0.00014218
-0.00233075
-0.0292226
0.0416678
-0.0101145
0.0709149
0.0171203
-0.0315499
-0.0564854
0.130894
-0.144511
-0.0295538
0.0431707
-0.015161
-0.0456071
0.0584374
-0.0824839
-0.000629039
0.083113
0.00109457
-0.0978553
0.163125
-0.0663644
-0.00254085
0.00339585
-0.000626465
-0.000228533
0.089734
-0.149008
0.0305076
0.028766
0.00154739
-0.000429017
0.00090082
-0.0020192
-0.0872227
0.142839
-0.104022
0.0484063
0.0308477
0.00287483
-0.0412228
0.0075002
0.0862102
-0.0151163
-0.0824681
0.0113742
0.00574109
0.0316922
-0.0525943
0.0250207
0.027398
-0.120504
0.0680855
0.0871879
0.113177
-0.080076
-0.120289
0.00110727
-0.000143864
-0.00115964
0.000196232
-0.0936663
-0.0287522
0.110894
0.0115248
0.00122872
-0.00597643
0.0160682
-0.0113205
-0.0140707
-0.033999
0.058213
-0.0101434
-0.00561344
0.0173598
-0.014541
0.0027947
0.00040309
-0.00068229
-0.000604779
0.000883979
0.0221316
-0.0262922
-0.00145282
-0.00188813
-0.000700195
0.00154816
0.00104016
-0.0577624
0.0603897
-0.00262729
-0.0025875
-0.00632255
-0.00211388
0.0110239
-0.0368282
0.0283053
-0.00554783
0.0183382
-0.0472345
-0.0557963
-0.0513127
0.0415677
0.0983422
-0.0885972
-0.00763342
-0.00179827
0.0051037
0.004328
0.046894
0.0110163
0.00228362
-0.0601939
0.000518946
-0.00952856
0.00699814
0.00201148
-0.0400693
-0.0539091
0.011532
0.0824463
0.0647066
-0.0388768
0.0266305
-0.0524603
-0.00966312
0.0598261
-0.0587745
0.00861158
-0.0589103
-0.0339616
0.0078045
0.0850675
0.0162108
0.00495705
-0.0329612
0.0117933
0.0623125
-0.0628529
0.000540463
0.00185788
0.00178005
-0.00156573
-0.00207221
0.0405916
-0.0437917
0.00320005
-0.0585789
-0.0361513
0.107624
-0.0128941
0.000842778
-0.00994403
0.00984629
-0.000745037
0.00279374
0.00592745
0.00272803
-0.0114492
0.00174944
0.0066247
-0.00785519
-0.0245788
-0.0579821
-0.00891865
0.0914795
0.0258597
-0.00794052
0.0183798
-0.036299
-0.083998
0.0925544
-0.101271
0.0927148
0.0783963
-0.050807
-0.0275893
0.00159259
-0.0346308
-0.0101502
0.0431884
0.00821732
-0.00562582
-0.00953494
0.00694344
0.0465365
-0.0702553
-0.0622066
0.0859254
0.074024
-0.0647092
0.0293658
-0.0386806
-0.0137191
-0.00874026
0.0330458
-0.0105865
-0.0581694
-0.0867665
0.0572682
0.0876677
-0.0416081
0.0543364
-0.0111357
0.0976976
-0.0482786
-0.049419
-0.00467726
0.0154844
-0.00258983
0.00101236
0.000686484
-0.000715598
-0.000983241
0.0473393
-0.0157946
-0.0052457
-0.026299
0.00366572
-0.00190492
-0.000462454
-0.00129834
0.0053927
-0.0102097
0.0087447
-0.00392775
0.0723118
-0.0423724
0.0258825
-0.0558219
0.00889561
-0.000413236
-0.00688187
-0.0016005
0.00166644
-0.000607723
-0.00105872
-0.065699
0.0651384
0.000560636
0.0120086
0.00555514
-0.0966855
0.0791217
-0.0118148
0.0143334
-0.0102868
0.00776825
-0.0728974
0.0162288
0.0834612
-0.0267925
0.0184932
-0.0974702
0.0755725
0.00340446
-0.0526739
0.0430083
-0.00837153
0.0180371
0.0088117
-0.00182405
-0.00299761
-0.00399004
8.77553e-05
-0.000809007
0.000721251
0.0283685
0.170789
-0.245575
0.0464174
0.000307237
-3.00265e-05
-0.0248483
0.0603226
-0.0527671
0.0172928
-1.71142e-05
0.00524503
-0.00447676
-0.000751156
6.15079e-05
0.00146154
-0.00171829
-0.0709324
0.000649961
0.0702825
-0.0323757
0.113765
-0.0477408
-0.0336484
0.000525977
0.000495567
0.00948879
-0.0105103
0.000545427
0.0914541
-0.0919995
0.00240566
-0.0016334
-0.00122321
0.000450949
0.00138137
0.000703582
-0.000713811
-0.00137114
-0.0367103
-0.00155087
0.0324327
0.0187747
-0.0638023
-0.0724144
-0.0162889
0.00658946
0.0821138
-0.000627845
0.00200921
-0.100466
-0.0420135
0.112876
0.0296038
0.0271888
0.170332
-0.0849566
-0.0578079
-0.0275674
-0.0182586
0.119124
-0.0434819
-0.0573838
0.0397328
0.0299242
0.0386113
-0.108268
0.104681
-0.248935
0.109478
0.0347762
0.00164722
-0.00146568
-0.001386
0.00120446
-0.0122865
-0.0354379
0.0555432
-0.00781883
0.0260694
0.0403911
-0.026326
-0.0401345
-0.0353586
-0.0257988
-0.0197675
0.0809249
-0.053373
-0.0139504
0.0550369
0.00115368
-0.0120697
0.00917923
0.00173678
0.0553711
-0.028443
-0.0508464
0.0239182
-0.0894905
0.105449
-0.0501951
0.0342366
0.0167281
-0.0233794
0.0068943
-0.000242992
0.0517846
-0.0600533
0.0636397
-0.0571473
-0.00348917
-0.0137965
0.074433
-0.00534755
-0.0131924
0.00249137
0.0160486
0.000221145
0.0588165
-0.0582216
-0.000815983
0.135186
-0.0537781
-0.0024697
-0.0789378
0.0597397
-0.00752949
-0.0488463
-0.00336386
0.0510386
-0.0218736
-0.0706988
0.0415338
-0.00998895
-0.0017659
0.0150667
-0.00331188
0.0054104
-0.00168661
-0.00478234
0.00105855
0.00258121
-0.0441192
0.0407067
0.000831355
-0.000783713
-0.0862391
0.00345052
0.0196649
-0.0129257
-0.0631477
0.0465398
0.016608
-0.0595499
-0.0170397
0.0109793
0.0656102
-0.100572
-0.000757322
0.104019
-0.00268942
0.0037108
0.0237518
-0.0128074
-0.0146553
-0.0713194
0.149766
-0.0659905
-0.0124565
-0.00472227
0.0132944
0.0225176
-0.0310898
-0.0520848
0.100034
0.0390875
-0.087037
0.0291938
0.00152006
-0.0145097
-0.0162041
-0.0363239
0.0379809
0.000924205
-0.00494068
0.00750124
-0.0101676
0.00760702
-0.000269801
-0.00457069
0.0102332
0.0359868
0.0378523
-0.0738391
0.00108906
-0.00190583
4.07806e-05
0.00077599
0.0199255
0.00832733
-0.0191593
-0.00909357
0.0225478
0.0110013
-0.00189861
-0.0316505
-0.0524942
-0.00190549
0.00701707
0.0473826
-0.000187595
-0.0439316
-0.000987589
0.000543992
0.00153265
-0.0518225
0.0369731
0.0519816
-0.0371323
-0.0449098
0.0302925
0.017798
-0.00318075
0.0013645
-0.00356244
-0.00991256
0.0121105
-0.00970977
-0.00508512
-0.00305387
0.0178488
-0.0436309
-0.00487795
0.012185
0.0724456
0.0396548
-0.0720843
-0.040016
-0.0453023
-0.000296151
0.0455985
0.0861904
-0.0486814
0.0595913
0.00366765
-0.00765418
-0.0372222
0.0412087
0.0359777
0.0113199
-0.00533085
-0.0419668
-0.000478352
0.000339188
0.00102011
-0.000880947
-0.0168372
-0.0449963
0.0618335
-0.000226813
-0.00137048
-0.0041216
0.0307892
-0.0229999
0.00617265
0.0278651
-0.041692
0.0978845
-0.0906617
-0.00203065
-0.00519212
-0.0214826
0.101426
-0.0185694
-0.0613741
-0.0321223
0.00680872
0.0139923
0.0113213
-0.039168
0.0359642
0.0139334
-0.0107296
0.0325705
-0.0251261
0.00134314
-0.00878755
0.0191841
0.0723831
-0.122539
0.0309719
0.076299
-0.0752742
-0.0243149
0.0232901
-0.143413
0.00208698
0.00364389
0.137683
0.0305698
0.0123841
-0.0412641
-0.00168976
0.0398959
-0.0577042
0.0203935
-0.00258519
0.0021445
-0.00122203
0.00024761
-0.00117008
-0.0146356
-0.00112474
0.0733982
-0.0416421
0.0188073
-0.0505634
-0.0119211
0.0477516
0.000415254
-0.0362457
0.00517935
0.0957782
-0.0931658
-0.00779177
0.0494837
-0.0989598
0.0579748
-0.00849863
-0.0483417
-0.000382619
0.0368032
0.015089
-0.00346568
0.00866019
-0.0202836
-0.0234218
0.0477921
-0.0133106
-0.0110597
-0.0483091
-3.26467e-05
-0.00555847
-0.122868
0.175883
-0.0474556
0.0101218
0.00979177
-0.0635777
0.0436641
0.0494739
0.00548242
-0.0448345
-0.0130052
0.0067525
-0.0036441
0.00989681
-0.0574375
-0.000800475
0.058238
0.110504
0.0443964
-0.136824
-0.0180769
-0.00933528
0.000289986
-0.00395992
0.0185577
-0.116216
-0.0225473
0.120206
0.0126821
0.0665575
-0.0694478
0.00282347
-0.0558447
-0.0105565
0.000530439
0.00192569
-0.00268294
0.00205043
-0.00178326
0.000263272
-0.0507271
0.0261348
0.0737799
-0.0491876
-0.00193521
0.000975871
0.000969721
-0.0342108
-0.00772806
0.0447623
0.000294467
-0.000303993
0.000355425
-0.000902269
0.000122651
0.000424193
0.000237871
0.00210702
-0.00181328
0.00145708
0.000138084
0.000218121
0.000357942
-0.000168763
0.000738773
0.106034
0.122194
-0.080036
0.000152218
-0.000754793
0.000960517
-0.0528617
0.052716
0.000145655
-0.01059
0.0760749
-0.0714273
0.00594244
0.00170741
-0.0196683
0.00527543
0.0126855
-0.0603519
-0.00309979
-0.0172547
0.00401516
0.0475053
-0.0342658
-0.0631069
-0.00281424
0.0659212
-0.00694845
-0.0166565
-0.012758
0.036363
0.000337277
-0.000390825
-0.000542069
0.000595617
-0.00391731
-0.00742457
0.00911621
0.00222567
0.0549848
0.043906
-0.0175077
0.0483173
0.0895599
-0.0380495
-0.0998277
-0.0127137
-0.0442646
-0.0190689
0.0186271
-0.0540072
0.054449
-0.0111404
0.0288514
-0.00592447
-0.0117866
-0.0150822
-0.0134827
0.0134378
0.015127
0.0967491
-0.0947752
0.0188473
-0.0208211
0.00120697
-0.00439376
-0.000444554
0.00363135
0.00120375
-0.0667754
0.0655717
-0.0724741
0.00336936
0.0666706
0.0024341
0.0389243
0.0383229
-0.0772472
0.0191131
-0.0599988
0.028172
0.00200135
-0.00113613
0.000479588
-0.0013448
0.000237543
-0.000196992
0.001138
-0.00117855
-8.69898e-05
0.00043978
-0.00101847
0.000665681
0.0639174
0.0566264
-0.039146
-0.0813979
0.00590672
-0.0870073
0.0824245
-0.00132398
-0.0137626
0.000662092
0.0265205
-0.01342
0.0535389
-0.0526764
0.0190738
-0.0199364
-0.000533684
0.0013962
-0.000699379
-0.000163138
0.0203107
0.0478978
-0.0490954
-0.0469426
-0.0017143
0.00100598
0.00150106
-0.000792748
0.00131447
0.08063
-0.0819445
-0.0499764
-0.0151198
-0.0222415
0.0873377
-0.0499901
1.37372e-05
0.0116466
0.0167575
0.0167202
-0.0451244
0.000546095
-0.00275019
0.000430616
0.00177348
-0.00177975
-0.000532048
0.000597505
-0.106107
-0.00927604
-0.0430358
0.158419
-0.00970278
0.00723076
0.13705
-0.134578
-0.038658
0.0419076
-0.0646728
0.0614232
-0.0796232
0.0793305
0.000292764
0.00126263
-0.049977
-0.030549
0.0671895
0.0192831
-0.0060027
-0.0804699
0.0506758
0.0948855
-0.157174
0.0116128
0.0415909
0.0158725
0.0332204
-0.0906839
0.104013
-0.108458
0.0433692
-0.00362445
0.0132888
-0.0120649
0.00240052
-0.00148406
-0.000125401
-0.000586849
0.00219631
-0.0028895
-0.00566196
0.00173029
0.00682117
0.0607599
-0.00615147
-0.0183256
-0.0362828
-0.0567449
0.0282154
0.0285296
-0.0928648
-0.007691
0.0119932
0.000672553
-0.000557422
-0.00159919
-0.118115
0.0265524
0.00517642
0.0863858
0.00129352
-0.0533848
-0.0102513
0.0623426
0.0455699
0.0292187
-0.101533
0.0267449
0.0384034
-0.0434055
-0.019071
0.0240731
0.0483254
-0.0600458
0.0501237
0.0315628
-0.0562824
0.0496087
-0.0248891
0.0347061
-0.0360248
0.000255053
0.00106371
0.0161692
-0.142137
0.0912598
0.0347079
0.00143449
-0.0617596
-0.00388167
0.0521529
0.000328283
-0.10743
-0.0339144
-0.00869562
0.00686698
0.0357431
-0.0486001
0.0443825
0.0500302
-0.0458126
-0.0423979
0.0821319
-0.039734
0.0103926
-0.101937
0.0481391
-0.0170336
0.00746968
0.0246286
-0.0150648
-0.088186
0.0937231
0.0362635
-0.0418005
0.0586666
0.032836
-0.0827934
-0.00870921
-0.046094
0.141547
0.00413258
-0.099586
-0.000546332
0.00292902
0.00364853
-0.00603123
0.0536616
-0.0719759
0.0829509
-0.0646366
0.00785707
-0.0390299
-0.00828072
0.0394535
-0.0433435
0.0313643
0.103277
-0.091298
-0.0499881
-0.0264423
0.0528621
0.0235684
-0.0095876
-0.000445382
0.00619901
0.00383397
-0.0110714
0.0236587
-0.01837
0.00578275
-5.08432e-05
0.0741401
-0.0740892
0.0149009
-0.0440159
-0.0194852
0.0480892
-0.034286
-0.000628125
-0.0131751
0.00158972
-0.0264887
-0.0209043
0.0458032
0.0345658
-0.0345049
-6.08967e-05
0.0611773
-0.0417174
0.0643127
-0.0837726
-0.0991435
0.0973428
0.0985497
2.87003e-05
-0.0108651
-0.00176569
0.0126021
0.0494667
-0.00023424
2.86817e-05
0.000231443
-2.58849e-05
-0.000497046
0.0485064
-0.111789
0.0637794
-0.00857684
-0.000649554
0.00499164
0.00423475
0.0268861
0.00996068
-0.0368468
0.00121955
-0.000929828
-0.00886656
-0.032953
-0.0382907
0.0126648
0.0572445
0.00101099
-0.0582554
0.0728441
-0.0441347
-0.051189
0.0224797
0.00164106
-0.0252205
-0.0207211
0.0693863
0.0430315
-0.0395738
-0.00805473
0.00930298
0.133512
-0.1195
0.0367369
-0.050749
-0.0450177
0.0364874
0.0218885
-0.0133582
-0.0525308
0.052439
9.18472e-05
-0.0477772
0.0296444
0.0107314
-0.0468032
-0.0108433
0.0469151
-0.00217852
0.161152
-0.161069
0.00209497
0.107656
0.0159363
-0.0160654
0.0507593
0.00858312
-0.0512175
-0.00812488
-0.0145339
0.00470462
0.0107323
-0.000902966
-0.00956654
-0.00540765
0.00471581
0.0102584
0.0659551
-0.0376736
-0.0525905
0.024309
0.0295556
-0.0153443
0.0240413
-0.0382526
0.0267117
-0.093572
0.0895688
-0.0227086
-0.0059104
0.000471464
-0.00909497
-0.0943429
0.106936
-0.0229327
0.0103397
-0.0114553
0.0480698
0.0140281
-0.0506426
-0.00411317
-0.000654785
0.00322764
0.00154031
0.0840108
-0.00469158
0.0507826
-0.130102
3.95396e-05
-0.000684361
-3.94537e-05
0.000684275
-0.0670572
0.0588623
0.074206
-0.0660112
0.00326252
0.000784494
-0.00223953
-0.00180748
-0.0777252
0.0755231
0.00220208
0.063322
-0.059996
-0.00332591
0.0605326
-0.000778364
-0.0597542
-0.0107231
0.123544
-0.000599896
-0.112221
0.00988609
-0.0311172
0.0328777
-0.0237964
-7.13656e-06
-0.0562188
-0.06753
0.0115552
0.0664078
-0.010433
-0.0133305
-0.00214647
0.000136334
-0.000438083
-1.71412e-05
0.000318891
0.00122499
-9.29961e-05
-0.000262327
-0.000869668
-0.0634812
0.00783677
-0.00149641
0.0571409
0.000367709
-0.00548356
0.00194408
0.00317177
0.0122591
-0.0147205
-4.71995e-05
0.00250858
0.00822326
-0.00673877
0.0107746
0.0557412
-0.00955763
-0.0226551
-0.0235285
0.0361372
-0.005323
-0.0363737
0.00555954
0.000100348
0.0668773
-0.00030202
-0.0666757
0.00759751
-0.0713977
0.0191764
0.0446239
-0.0432039
-0.0316866
0.0415955
0.033295
-0.0353289
0.0215853
-0.0910444
0.104788
-0.000970761
0.0153054
-0.00784608
-0.00648856
0.0489989
-0.0588106
0.047301
-0.0374893
-0.0626135
-0.00678145
-0.00805222
0.000958684
-0.000310668
0.00436407
-0.00501209
-0.0121488
-0.00275382
0.00176261
0.01314
-0.00820738
-0.00935134
0.0108718
0.00668694
-0.000143532
-0.00223815
0.00145732
0.000924365
-0.000299336
0.000374404
-7.50679e-05
0.00173135
-0.0738679
-0.0275183
0.0996548
-0.000149285
-2.22108e-05
-0.00146372
0.00163521
9.9811e-05
-0.000304788
-9.43584e-05
0.00253157
-0.0656385
-6.49402e-05
-8.16755e-05
0.000521019
0.000600479
0.000180274
-0.000380448
-0.000400305
-0.0282206
0.0632894
0.0784659
-0.113535
-0.00921813
-0.00221241
0.00727598
0.00415456
-0.0146412
-0.000333951
0.005757
-0.00535367
0.0055054
0.013271
-0.0134227
-0.000387281
0.000575632
-0.000253291
-0.0664975
0.0672313
-0.000733813
0.0304033
0.0471978
-0.0600747
-0.0175263
0.0114671
-0.0753929
-0.0213233
0.085249
-0.0136229
0.00273788
0.00553138
-0.00455851
-0.00644596
-0.00261845
-0.0166245
0.058579
0.0128831
-0.0548376
0.0691937
0.00485317
-0.0539667
-0.0200802
0.000233885
0.000415128
-0.000729183
8.01699e-05
-7.52548e-05
-0.000212216
-0.00267363
-0.00117422
-0.00137903
0.00522688
0.0650922
-0.0459291
0.0120498
-0.031213
-0.000847891
-0.00268915
0.0013895
0.00214754
-0.0170501
0.0102114
-0.0028663
0.00970502
0.0013571
-0.101474
0.101299
-0.00118257
0.00315819
0.000796531
-0.0106286
0.00667388
0.010359
-0.0108495
0.0015563
-0.00106582
0.0099227
0.00402796
-0.0107925
0.0367747
0.0562761
-0.0279586
-0.0272757
0.054804
0.0281903
-0.0557187
0.0277553
-0.0550309
-0.000807601
0.000572799
-0.0329985
0.0124732
-0.0100476
0.0792172
0.0234294
0.00746351
0.0696527
-0.0542342
0.0979026
-0.113321
0.00484761
0.0926094
-0.097457
-0.00696928
-0.00722122
0.0135943
0.000596241
-0.0342699
-0.0868982
0.0275937
0.0935744
0.0218606
0.0616176
-0.0243005
-0.0591777
-0.0235274
0.11324
-0.0529377
-0.0418495
0.0448981
0.0517554
-0.0558256
0.0558158
9.82053e-06
-0.039091
0.0367331
0.00235788
0.0396374
-0.0780078
0.0726625
-0.034292
0.0675368
-0.0841613
-0.00996422
-0.00812356
0.0111185
0.000774216
0.000629777
-0.000513972
-0.000890021
-0.0058015
-0.0426469
-0.00737722
0.00123603
0.00148588
-0.00262108
-0.000100825
-0.0574088
0.0518757
0.0855293
-0.0799963
0.0363501
-0.03362
-0.00273007
0.0129515
0.0186919
-0.0131787
-0.0184647
0.0042138
-0.000409856
0.00219049
-0.00599443
-0.064425
-0.000727077
0.020099
0.045053
-0.00294655
0.00667692
0.000483428
0.0389796
-0.109388
0.10473
-0.0343218
0.0460556
0.0133857
-0.0593714
-6.98724e-05
-0.00364946
0.00697326
0.00170051
-0.00502432
0.000135654
0.0606123
-0.060748
0.0381109
0.00658191
0.0150996
-0.0597924
0.00431205
-0.00733697
0.00261507
-0.183927
0.0281876
0.163203
-0.00746371
0.0398527
-0.0109579
-0.0288948
-0.00126209
-0.00152033
-0.00116969
0.00395211
-0.0420232
0.0460958
0.124986
-0.129059
-0.00191265
0.000689738
-0.00193221
0.00315512
0.0914833
-0.00217282
-0.0432549
0.000502325
-0.0012552
0.00204922
-0.00129634
-0.019028
-0.116574
0.0161546
0.119448
0.00371217
0.0524241
-0.00409779
-0.0520385
0.0486973
-0.0703881
0.0605527
-0.0388619
0.031931
-0.0365388
0.0486744
-0.0440666
0.00834449
-0.00152684
0.00565044
-0.0124681
0.00127553
-0.0443965
0.0533559
-0.0537047
-0.03619
0.0971957
0.0177726
-0.0244514
-0.0905169
0.0466625
0.0186186
-0.133835
0.0685537
-0.00187098
-0.00864847
0.00632265
0.0041968
0.0277964
-0.0498571
-0.00324854
0.028854
-0.0266248
0.00737384
-0.00587568
2.60074e-05
-0.00152417
-0.0862722
0.00265788
8.98274e-06
0.0715228
-0.14942
0.0778882
-0.0275566
-0.0874863
0.0410949
0.073948
-0.0728011
0.0204026
0.00313233
0.0492661
-0.0432246
0.0290542
0.010334
-0.0826967
0.0956226
-0.0129259
-0.0210023
-0.00947245
0.117783
-0.0873085
-0.00363919
-0.00382775
0.00610916
0.00135779
-0.0258024
0.0591801
0.0406464
-0.0721682
0.0280335
-0.000816802
-0.000413847
-0.00103823
0.00226888
0.0466197
-0.0490733
0.0546065
-0.0376779
-0.00717693
-0.0449176
-0.123546
0.047728
0.0758182
-0.0429207
-0.0325212
0.0276647
0.00305277
-0.00221583
0.000845188
-0.00168212
0.00288765
-0.000442402
0.000607518
-0.0864286
0.00359278
0.0828358
0.0613931
0.0126782
-0.122459
0.0483874
-0.0710282
0.000495521
0.0705326
0.00133243
-0.00166982
0.00847617
-0.00813878
0.0485955
0.156474
-0.22645
0.0213807
0.00187445
-0.00233379
0.00139145
-0.000932108
-0.0916435
0.0649422
0.0265308
0.00017046
-0.000700158
-0.000158551
0.00214292
-0.00128421
-0.000622089
0.00835743
-0.00851337
0.000778023
0.00765944
0.00790018
-0.0148042
-0.000755471
0.0408096
0.0124893
0.00304647
-0.00278678
0.00161475
-0.0985362
0.105201
0.00730643
-0.0139714
0.0122902
-0.0671801
-0.0232988
0.0781887
0.00203613
-0.0046597
0.0877414
-0.0851178
-0.0399005
-0.0364691
0.0859333
-0.00956364
-0.0407179
0.0245631
0.0406074
-0.0244526
0.0535669
0.0206619
-0.0721127
-0.00211602
-0.0012789
0.000174501
0.00146069
-0.000356294
-0.123557
-0.0432047
0.0395969
0.127165
0.0483983
-0.0376669
-0.0319242
-0.0376158
-0.0309777
0.100518
-0.00184005
0.00426858
0.000445807
-0.00287435
-0.031006
-0.0804158
0.028639
0.0827828
-0.0297067
-0.0285518
0.0205806
-0.000737438
-0.00331844
-0.00164198
0.00313033
-0.00380746
0.00231911
-0.00576841
0.00558491
0.0253959
-0.077387
-0.085365
0.137356
-0.000530329
-0.000132354
0.000329971
0.000332711
0.0572345
-0.0603625
0.0480893
-0.0449613
-0.0149717
0.0445234
-0.00780323
-0.0217485
0.0869283
-0.0862716
-0.0187803
0.0181236
0.026551
0.0223689
-0.0635502
0.0146304
-0.127336
0.0738977
0.018414
0.0350248
-0.00532311
0.00321569
8.68854e-05
0.00202054
-0.00816641
0.00965006
-0.000151222
-0.0134732
-0.00372309
0.0179929
-0.000796569
-0.0619276
-0.00496022
0.0141401
0.0527478
-0.00825164
0.103042
-0.00511061
-0.0896795
0.00900084
-0.0473489
0.0807153
-0.0423673
-0.00148325
0.00418474
-0.00150743
-0.00119406
-0.0152121
0.000340586
-0.00208612
0.0169576
-0.106001
0.0043812
0.0132107
0.0884087
-4.4855e-05
-0.000305642
0.000542703
-0.000192206
0.0373217
0.00799981
0.027124
-0.00504506
0.0463765
0.0527411
-0.0940725
-0.000214097
0.000418155
-0.000248913
-0.000518321
0.00219214
-0.00149161
-0.000182207
0.017319
0.111284
-0.0479387
-0.0806639
-0.000253818
-5.18234e-05
0.000138807
-0.000392625
0.0617796
0.0169821
-0.0921599
0.0133983
-0.157166
0.086017
0.0772028
-0.00605417
-0.018095
0.000181939
-0.0515929
0.069506
0.0248837
-0.0145537
0.0167347
-0.0270646
-0.0664597
-0.0231064
0.0895661
-0.0780081
0.0386494
0.0393587
-0.00185914
-0.000388695
0.000716907
0.00153093
-0.037902
0.0409908
0.00776038
-0.0108492
0.0464939
-0.0544734
0.0079795
-0.060531
0.0336778
0.045032
-0.0181788
0.00453126
-0.00277007
-0.00159933
-0.000161866
-0.00326389
-0.00247842
0.000419194
-0.0422106
-0.0417873
0.0469473
0.0141636
0.00264027
-0.0637511
0.00206603
4.11004e-05
-0.00177361
-0.000333518
0.00382395
0.00547206
0.0022398
-0.0115358
0.00709448
0.0227648
-0.0408358
0.0109766
-0.019018
-0.0154917
-0.00924287
0.0437526
-0.0750167
-0.00978045
0.0291505
0.0556466
-0.00182591
0.0151737
-0.00830241
-0.00504542
-0.0529466
0.000604339
0.0333242
-0.000230538
0.02534
-0.135729
0.126327
-0.0159383
0.0285855
-0.0345668
-0.0517811
-0.0271112
0.0548665
-0.000325248
0.0404888
0.00363382
-0.0437973
-0.0551299
-0.0599611
0.115091
-0.00322088
-0.00102586
-0.00177013
0.00601688
0.0031673
-0.00478325
0.00170837
-9.24293e-05
0.0368544
-0.00635198
-0.0281523
-0.00235012
-0.00326848
-0.00230816
0.00235576
0.00355861
-0.0108457
0.0660063
-0.0587192
0.0761138
-0.000269457
0.0272886
0.00977009
-0.00684858
-0.0302101
0.0586333
-0.000813743
-0.0578196
-0.0530563
0.113678
-0.0284241
0.0596865
0.0200936
-0.051356
-0.0167444
-0.0255752
0.017776
0.0245436
0.0030886
0.00377249
0.000857938
-0.00771903
-0.034217
-0.0379661
0.099339
-0.0271559
0.0451525
-0.0366382
-0.000549984
-0.00796429
-0.0495083
0.115972
-0.0514175
-0.0150463
-0.00134695
0.00162008
-8.80195e-05
-0.000185112
-0.000562977
0.0214702
-0.00483929
-0.0160679
0.00305883
0.0037659
0.000265437
-0.00709017
-0.000288661
-4.11775e-05
2.13451e-05
0.000308494
3.89047e-05
-8.13596e-07
-0.000326752
-0.00923802
0.0230742
0.0703056
-0.0841418
0.0799443
-0.0809742
0.00102994
0.000291123
-0.000289772
-1.35097e-06
-0.0127406
0.000978788
0.002309
-0.00133121
-0.00195658
-0.00852367
-0.00613477
0.00650266
0.00815578
-0.0557572
0.0273331
0.000292337
0.000230849
-0.000790563
0.000267377
0.0335454
0.0551029
-0.0352101
-0.0534382
0.0117972
0.15937
-0.179827
0.00865993
0.058295
0.0632976
-0.0619061
0.00194682
-0.0136344
-0.00184469
0.0135322
-0.033404
-0.030113
0.063517
0.0311186
-0.0645226
-0.0543792
-0.0449487
-0.0654832
0.164811
0.0497894
-0.0556059
0.00581658
-0.0728181
0.134666
-0.0714052
0.0329584
-0.0300239
0.0859939
-0.00354657
-0.0690061
-0.0134413
0.0697538
-0.0701534
0.0115828
-0.0111832
0.000124149
-0.00623811
0.0071996
-0.00108563
0.000767702
-0.0046254
0.00678282
-0.00292512
-0.000236398
0.000217524
0.000659332
-0.000640458
0.0222411
0.0233064
-0.0338163
-0.0117312
-0.00540032
-0.00493847
0.00622397
0.00411481
-0.0108683
0.0321126
-0.0428467
0.0216024
0.00113572
-0.0085889
0.01072
-0.00326685
0.048522
-0.00415307
-0.0443689
0.038047
0.0357383
-0.126564
0.0527787
-0.097899
0.0599831
0.0759629
0.0329809
-0.0997613
-0.0469255
0.107884
-0.03707
-0.0238889
0.00164326
0.00920071
-0.0124504
0.0016064
0.0273578
-0.00237434
-0.0249835
-0.0305183
0.0435759
-0.00387633
0.0202624
-0.0314682
0.000955011
-0.000196234
0.00110262
-0.00186139
0.0117506
-0.0383754
-0.000631338
0.00017885
0.000369584
8.29036e-05
0.00279274
-0.000404381
0.0010731
-0.00346146
-0.000758814
-0.00250718
-0.0782696
-0.0127498
0.00151572
-0.0119111
0.0231452
0.0200981
-0.0904785
0.0208448
0.0495357
-0.00339981
0.0581028
-0.0818121
0.027109
0.000761946
-0.000475219
0.000407294
-0.000694022
0.079217
0.0125743
0.00228797
-0.0940793
-0.000420122
-0.00079262
0.00135859
-0.000145849
0.00496159
-0.000844362
-0.0690986
0.0649813
0.00671919
-0.00113787
-0.00502398
-0.000557342
0.00647923
0.00462059
-0.00367379
-0.00742603
-0.110392
0.0963882
-0.0875235
0.101527
-0.0541391
0.109321
-0.0551819
0.00229507
-0.043706
0.00869412
0.0327168
0.00372375
-0.00352552
0.000691704
-0.000889932
0.0493454
-0.0028099
0.0012161
-0.129531
0.00247046
0.0740046
-0.0340764
7.74427e-05
0.00111538
0.0323783
-0.0260397
-0.00745391
0.0781821
-0.0307731
0.034208
0.00415277
-0.00509966
0.000106608
0.000840284
0.0342653
0.0237622
-0.0757353
0.0177079
1.65401e-06
-1.93674e-05
-4.51946e-05
6.2908e-05
-0.000470052
0.00151494
0.00543434
0.00018884
-0.00806214
0.00654467
0.00567025
0.0746252
0.0407457
-0.0370556
-0.0783152
-0.130942
0.141682
-0.00923932
-0.00150134
0.0315439
-0.0326587
0.00111475
-0.0367515
7.54867e-07
0.000358487
-0.00321776
-0.00224039
0.0146623
0.206758
-0.158928
-0.0624918
0.0293431
-0.0610486
-0.0180354
0.0497409
-0.00308307
0.0389787
-0.00104719
-0.0852287
0.0472972
-0.0231604
0.0101711
-0.038056
0.0476572
0.0462152
-0.0558164
-0.0667859
0.0893202
-0.151788
0.129254
-0.000200136
4.47508e-05
-0.00145369
0.00160907
0.000181775
0.00231634
-0.000625006
-0.00187311
0.0433125
-0.014512
0.0380508
-0.0668513
-0.00356736
0.000334013
0.0034453
-0.00021196
-0.0118266
0.0104979
-0.0367273
0.0121584
-0.0462611
0.00593144
-0.00324732
0.0185457
-0.0212298
-0.137134
0.0187644
0.129169
-0.0108001
0.031508
-0.0217485
-0.0141456
0.0043861
0.0345323
-0.0529293
0.00657039
0.0044633
0.0076364
0.0520304
-0.0641301
0.0247115
-0.00707496
-0.025144
0.00750741
-0.0793988
-0.00849601
0.0149974
0.00124957
-0.00112045
5.26589e-05
-7.37373e-07
0.00276021
0.00182251
-0.00458198
0.0184307
-0.0320945
0.0383753
0.0179834
-0.143331
-0.0229961
0.148344
-0.113336
-0.0150326
0.0259973
0.102371
0.0571802
-0.0351103
0.0286552
-0.0507252
0.111569
-0.0061006
0.00321476
-0.108683
-0.0169798
-0.0370687
-0.00420508
-0.016339
0.0082163
0.0123278
-0.00132465
0.000464886
1.63081e-05
0.00084346
0.0152768
-0.0776533
0.0623766
0.108752
-0.0071186
-0.112357
-0.0264112
0.055849
-0.0464176
0.0397992
-0.122217
0.0149944
0.0674233
-0.00394621
-0.0122422
-0.0269324
0.0431209
0.00383557
0.0500514
0.0857741
-0.133996
-0.00182981
0.0492332
-0.0829493
0.0890054
-0.0552892
-0.0959834
0.0959133
-0.0073605
0.00743066
0.00243105
0.00453366
-0.0948297
0.0878649
-0.00176616
0.00362472
0.00611307
-0.00797163
0.000251175
-0.000967256
-0.000287497
0.00100358
0.0890572
0.000748149
-0.0174761
-0.0723292
-0.000812398
0.000766743
2.29412e-05
2.27141e-05
0.000763877
0.00331188
-0.00231943
-0.00175633