/*--------------------------------*- C++ -*----------------------------------*\
| =========                 |                                                 |
| \\      /  F ield         | OpenFOAM: The Open Source CFD Toolbox           |
|  \\    /   O peration     | Version:  2506                                  |
|   \\  /    A nd           | Website:  www.openfoam.com                      |
|    \\/     M anipulation  |                                                 |
\*---------------------------------------------------------------------------*/
FoamFile
{
    version     2.0;
    format      ascii;
    arch        "LSB;label=32;scalar=64";
    class       volVectorField;
    location    "0.0689511";
    object      U;
}
// * * * * * * * * * * * * * * * * * * * * * * * * * * * * * * * * * * * * * //

dimensions      [0 1 -1 0 0 0 0];

internalField   nonuniform List<vector> 
47425
(
(10.2318 0.195581 0.00508419)
(10.0847 -0.210043 -0.00538844)
(10.0085 -0.00549071 -0.0133207)
(11.5801 -0.533865 -0.236795)
(12.5889 0.356209 0.737373)
(10.0388 0.00994874 0.00308039)
(12.4876 0.198849 0.724457)
(10.0323 0.0128184 0.00255907)
(10.0047 0.00865585 0.00583263)
(1.74372 4.14056 -1.61693)
(10.0112 0.0144283 0.000689506)
(9.98583 0.0628254 -0.00586684)
(12.2793 0.334223 0.262631)
(10.0153 0.00100536 -0.00700418)
(11.1666 0.152143 -0.145494)
(10.1249 -0.215997 -0.0129835)
(10.0283 0.00265316 -0.00834809)
(8.78938 -0.542976 -1.50742)
(8.71174 1.33408 -5.11445)
(13.6711 -0.495279 -1.08793)
(10.9301 -0.70797 -0.61761)
(9.80426 -0.0420912 -0.0293656)
(9.95821 0.0233415 -0.00157477)
(9.96526 0.0105508 0.0109823)
(9.90553 -0.0843495 -0.00846886)
(10.0083 0.0280258 -0.00424571)
(9.99002 0.0264677 -0.00291724)
(11.5384 -0.389226 -8.9312)
(10 0.0255349 -0.00199918)
(10.0231 0.019306 0.0172247)
(9.7109 0.739696 0.0186401)
(10.0416 0.0951829 -0.00158407)
(10.0018 0.00670539 0.00604022)
(9.99438 0.000893102 0.00958487)
(10.0044 0.00686174 0.0044456)
(9.96275 -0.00718164 0.0122805)
(9.74714 -0.0181509 -0.0869919)
(10.0017 0.0166196 0.00766525)
(10.5527 0.424454 -0.00822446)
(10.0772 0.0598059 0.00949557)
(9.86101 0.146541 -0.00570392)
(9.48707 0.221915 -1.01174)
(5.86577 -2.68594 -0.978314)
(9.98338 0.01337 0.00526396)
(-0.0884067 -1.77855 0.339138)
(9.97385 0.0769784 0.00794838)
(9.96893 -0.00537753 -0.0166547)
(9.99545 0.0294872 0.00583397)
(10.0991 -0.0620023 -0.00231919)
(10.0671 0.0201721 -0.0049189)
(2.16 -0.595389 -5.90622)
(9.01254 1.18475 1.42007)
(10.0434 -0.0111675 0.00710978)
(6.6914 -5.1545 1.91032)
(9.99334 0.0449496 -0.0089697)
(10.2129 0.0135597 0.0369061)
(10.2502 -0.164463 0.033179)
(10.0237 0.00598652 0.0250186)
(12.0567 1.37788 1.58664)
(9.99252 0.0254059 0.0148761)
(5.49807 -5.10904 1.36088)
(5.29705 -0.641259 2.34443)
(3.98845 -2.78567 0.543201)
(9.06722 -1.18606 -0.0871756)
(10.0074 0.0107109 -0.00692524)
(10.8318 -0.352507 0.00759417)
(9.98733 -0.0116457 -0.00657486)
(10.7177 0.194207 0.589222)
(8.04631 -4.22651 2.18467)
(9.00273 0.556916 0.311971)
(10.8142 -0.622787 0.144984)
(10.0614 0.0095774 0.00561735)
(10.999 -0.148474 -0.0175703)
(10.8629 0.276995 -0.636083)
(3.79607 1.54136 0.275753)
(9.99894 -0.00376818 0.000649214)
(4.16827 -2.54332 1.2562)
(9.98049 -0.0206629 0.00579653)
(6.64267 -2.7792 1.52407)
(11.9491 -0.0590712 1.55744)
(4.16534 1.05847 0.391085)
(10.2246 0.337412 -0.0145257)
(9.18547 0.137564 -0.323833)
(10.0135 0.0126526 -0.00658169)
(9.69273 -0.00123724 0.12086)
(10.291 -0.0702239 0.0173947)
(10.8082 -0.12966 -0.0424906)
(10.1604 0.113976 -0.0106184)
(11.1281 0.132207 -1.64751)
(11.0528 -0.647818 2.13905)
(9.76274 0.441131 -0.0483516)
(10.6758 -0.00448564 -0.0360532)
(10.0533 0.00458466 0.0114401)
(10.1717 -0.0586792 0.00607218)
(10.1232 -0.0589481 0.0151823)
(10.0647 -0.00755499 0.00598053)
(10.0472 -0.0190004 -0.010238)
(10.346 -0.308057 -0.0043961)
(10.2044 -0.0333191 0.0135544)
(10.0395 0.0177147 0.0312033)
(10.0228 0.0367496 0.00127458)
(8.75481 0.115465 -4.13913)
(10.2969 0.187153 0.00212743)
(5.32005 1.96303 -0.766283)
(10.3061 0.158143 -0.0344205)
(10.7021 -0.77308 0.077756)
(10.1352 0.255315 0.0624198)
(10.1727 -0.0637478 0.010622)
(8.92265 -0.114871 -0.314542)
(9.9534 0.0727593 -8.33762e-06)
(-0.655182 -1.47156 -0.491779)
(10.0132 -0.0834575 0.00729547)
(10.642 -0.963445 0.142115)
(10.3144 -0.0216057 0.00351028)
(10.9698 -0.451607 0.0420335)
(1.80256 -4.17516 -5.91208)
(10.968 -0.407678 0.0288147)
(4.0799 0.0334362 -4.43404)
(10.3824 0.160318 -0.00200209)
(11.1619 0.379092 0.443041)
(10.3966 -0.0559594 0.00334799)
(10.0002 0.00384632 0.0056996)
(9.99999 0.0524949 -0.00437327)
(11.8267 0.76545 -0.717209)
(10.0771 -0.0554046 -0.00116959)
(10.917 -0.834741 0.0971612)
(10.2315 -0.0982401 0.00329273)
(10.0073 0.00391709 -0.00695979)
(9.94513 -0.00379098 0.00360411)
(10.0022 0.031376 -0.0113493)
(9.20488 -0.316995 0.313526)
(10.5865 0.445524 -0.0400571)
(4.29192 0.0503076 0.487772)
(10.3607 -0.507547 0.0295333)
(10.0019 -0.207722 -1.06054)
(12.1353 -0.525331 -0.924241)
(10.9243 0.863982 0.269353)
(10.9357 -0.865274 0.233108)
(10.149 -0.0965694 -0.00199273)
(11.1427 0.00752413 -0.0520957)
(9.9821 0.00677479 0.00277615)
(12.147 0.246267 0.294417)
(10.513 0.043389 -0.040473)
(10.6761 -1.2299 0.197707)
(10.2047 0.225725 -0.00343037)
(10.0046 0.00523982 0.00583446)
(12.3234 0.159838 0.909012)
(10.0129 -0.0289936 0.00536406)
(10.4708 0.0236759 -0.018247)
(9.97574 -0.0172466 0.00662247)
(10.595 -1.26299 0.0605551)
(2.93719 -0.381341 -6.93109)
(10.0071 0.0147793 -0.0102326)
(5.64473 0.0906216 -11.514)
(8.98881 -1.17814 -0.758292)
(9.96903 0.0816032 0.00924331)
(11.0054 0.451522 -1.69382)
(7.42795 -3.93828 -2.65732)
(10.126 -0.062653 0.0182802)
(9.99219 -0.0213299 -0.00532788)
(11.2397 -0.281161 0.0158673)
(10.0144 0.0468183 0.00285458)
(10.009 0.00987824 0.0211023)
(10.1592 0.300856 0.00493879)
(12.1491 0.18039 -0.454201)
(-0.240865 -1.75997 -2.08884)
(10.0134 -0.0282801 0.00161555)
(4.17951 1.38218 0.241561)
(9.95346 -0.0132272 0.0248788)
(12.2108 0.717969 -4.32957)
(5.23781 1.06534 0.0328164)
(9.99089 -0.00182595 0.00540233)
(10.0007 0.023557 -0.00342644)
(9.45996 -0.987183 -0.663154)
(10.2715 -0.029371 0.0339573)
(9.31578 -3.05092 -1.37194)
(2.77773 0.978502 -7.70424)
(10.0034 0.0274274 -0.00280275)
(10.0252 0.0201938 0.00141699)
(10.0463 0.0120563 -0.000373589)
(2.61853 0.437072 -11.0431)
(10.06 -0.122693 0.0179441)
(10.0095 0.0219509 -0.00701854)
(10.0141 0.0100343 0.0128193)
(10.039 -0.00462709 -0.00248728)
(10.0266 0.0228637 0.00407719)
(10.2156 0.0863945 -0.00602807)
(5.66395 -0.517818 -0.676243)
(9.83562 0.00353688 -0.00751506)
(10.1372 0.169125 0.0559832)
(10.0008 -0.0101638 -0.00375515)
(9.97902 0.000587099 0.00214904)
(12.2613 -0.663434 -0.706977)
(9.9969 0.00160159 0.0036714)
(10.0182 0.00739254 0.028507)
(11.1766 -0.0156481 -0.0303442)
(10.0018 0.00103648 0.00748087)
(10.0048 -0.00393531 0.00662212)
(11.3434 0.0536436 -0.0315245)
(10.344 -0.250385 0.0720352)
(9.9764 0.00785359 0.00807418)
(10.3869 -0.0451738 0.0141911)
(9.36902 0.25323 -0.0787378)
(11.1342 -0.169931 -0.0312422)
(10.3162 -1.47885 -0.944929)
(10.6497 -0.015435 -0.0463083)
(10.0012 -0.00897351 0.0124723)
(11.1138 -0.0705444 -0.0318935)
(10.0016 0.0923375 -0.013305)
(10.0026 0.0131221 -0.00316007)
(10.3039 -0.164063 0.00974615)
(11.1118 0.114208 -0.0113659)
(10.0066 0.0253639 -0.000935407)
(9.96506 -0.0100754 0.0221092)
(10.7141 -0.0626236 0.0344463)
(11.3706 0.0892989 -0.170791)
(10.7995 0.0210316 -0.0618222)
(11.157 0.189208 1.7744)
(8.72265 -1.29278 -0.679424)
(9.94614 -0.0361306 0.0101189)
(11.8272 -0.462327 1.59142)
(11.166 0.174332 0.184353)
(10.0198 -1.36203 -0.980421)
(10.8796 0.151714 -0.0181951)
(10.6443 -0.00844648 -0.0324212)
(11.9147 -0.707266 1.50572)
(10.0348 0.00975684 0.00563922)
(11.2872 0.102967 -0.0678196)
(11.463 0.255546 0.108291)
(11.985 0.049679 -0.301935)
(10.8033 0.0225378 -0.0633118)
(10.0171 -0.0237794 -0.0066948)
(10.4963 -0.094072 -0.00959038)
(10.0012 -0.00444259 -0.000464084)
(9.77172 -0.00666444 0.00140794)
(10.0242 0.258883 0.00848802)
(11.76 0.00236174 1.60357)
(9.98349 0.0393588 -0.00187262)
(12.0799 0.0554591 1.42882)
(9.75799 -0.000300517 -0.0405399)
(9.85363 -0.0124152 0.000101015)
(10.0049 0.0140227 0.0149792)
(10.0628 -0.0200044 0.0077014)
(11.8042 0.74464 0.0551199)
(10.4181 0.43295 0.0229511)
(10.0077 -0.00272741 0.0119063)
(10.3425 -0.0727651 0.0055716)
(10.0107 -0.000147609 0.00299742)
(10.0305 -0.0165069 0.00564451)
(9.97559 0.00321478 -0.0126863)
(10.0005 0.0545784 0.0102288)
(11.9271 -0.375949 1.58005)
(9.95884 -0.0104904 0.00793567)
(10.0032 0.00422554 0.00572163)
(9.92075 -0.00478508 0.0126505)
(9.96222 -0.00505953 -0.00683577)
(9.85166 0.0750861 -0.0274007)
(9.73392 0.0105911 0.0104386)
(10.4354 -0.665015 0.127769)
(10.0098 0.00106278 -0.00697344)
(9.73867 0.0186411 0.00464313)
(9.99853 0.0253662 -0.000591888)
(10.2348 0.0570949 -0.0129969)
(10.1312 0.0145484 0.00791153)
(11.8494 0.0586371 0.832095)
(10.2969 -0.512263 -0.122748)
(10.0282 0.00235373 -0.0169934)
(11.9295 0.0780819 0.661521)
(10.0185 -0.00103161 -0.00662386)
(10.2567 0.0813896 -0.0137577)
(10.2023 0.0567353 -0.002232)
(12.1614 0.180021 1.1848)
(11.6361 0.168656 1.42104)
(10.1607 -0.166878 -0.0213177)
(12.0175 -0.122344 1.55511)
(10.063 0.00442839 0.00822189)
(12.0893 0.0388097 1.38224)
(6.66492 3.37045 2.22009)
(11.6076 0.0499751 1.50134)
(5.92357 1.28095 -5.24123)
(4.73948 -5.2325 1.2368)
(10.221 0.169722 0.00401199)
(3.83688 -5.01068 0.517656)
(9.87448 -0.00659211 0.0169476)
(9.99116 0.00453954 0.00998099)
(11.315 -0.163977 0.0301641)
(9.89382 -0.00589439 0.0212367)
(9.97147 -0.00318011 -0.016627)
(9.81418 -0.185817 0.00349877)
(11.002 -0.5499 -0.0912855)
(1.39182 1.74037 -3.66034)
(9.23652 0.80443 0.000387348)
(10.0029 -0.00158686 -0.00212269)
(10.0097 -0.00531032 -0.0190208)
(10.0078 -0.00500734 -0.0191472)
(10.2329 0.377175 0.432895)
(11.7415 0.846932 0.237535)
(10.2034 -0.697268 0.110273)
(10.0234 -0.141556 0.0170512)
(11.8906 -0.135914 0.146643)
(10.1066 0.160246 0.0270858)
(10.0713 0.0286031 0.0165971)
(9.95792 -0.00886253 -0.00186824)
(10.0242 -0.0101849 -0.0119193)
(10.3906 4.11264 -0.516243)
(6.02507 1.79491 -0.331885)
(1.50469 1.20276 -6.33249)
(10.0198 0.00439241 -0.0113679)
(10.0837 -0.0437016 0.0174545)
(10.0546 -0.637875 -0.0513845)
(10.1674 -0.511126 -0.158249)
(1.25536 -0.737867 -5.88578)
(9.98479 -0.00150438 -0.016608)
(9.95708 -0.00467299 -0.0230789)
(10.8808 2.38674 0.901606)
(10.2214 -0.139746 0.0184526)
(9.8634 -0.004629 0.00579324)
(9.81946 -0.00767343 0.0164222)
(9.9098 0.000318106 0.0170831)
(12.589 2.3863 -0.970036)
(11.2602 2.08489 0.801423)
(10.0192 0.185971 -0.00510089)
(10.1087 0.144756 -0.00889503)
(10.0189 -0.0029209 0.000927119)
(10.2704 -0.0309546 0.0108391)
(10.0495 0.00422277 -0.000491375)
(10.0891 0.249041 -0.00377158)
(10.1187 0.0500766 0.00517126)
(10.0463 -0.0114033 -0.0120905)
(9.99205 -0.0102802 0.00858822)
(11.4454 -0.0589618 0.263709)
(9.61248 0.108177 -0.167835)
(10.604 -0.735393 -1.38344)
(9.99204 0.0185046 -0.0100925)
(9.9659 -0.00737985 0.0074681)
(10.0239 0.0150914 0.0207391)
(9.69047 0.510063 -0.182518)
(9.97047 0.106621 0.00344425)
(10.036 0.0129577 0.0108239)
(10.0202 -0.0102576 -0.0140524)
(9.99576 0.255299 -0.039545)
(10.004 0.286211 -0.038045)
(10.1198 0.0835868 0.0130413)
(9.93762 0.276514 -0.029307)
(10.0426 -0.0181052 -0.00312736)
(10.0334 0.0112697 -0.000130389)
(10.0119 0.00748695 0.0166486)
(9.65546 0.455122 -0.193636)
(9.95805 -0.00481287 -0.00896138)
(9.97058 -0.024686 -0.00176714)
(9.98554 0.235913 -0.0390335)
(10.4254 -0.464054 -0.0685651)
(10.0925 0.248182 -0.0138389)
(9.94448 0.207231 -0.0235104)
(9.99307 0.18921 -0.0382837)
(11.1981 -1.35385 -0.189889)
(9.94645 0.00709819 0.00511405)
(9.20165 0.247827 0.0672811)
(9.97032 0.151299 -0.0219941)
(9.99553 0.0218952 -0.00805786)
(9.51502 0.315604 1.96145)
(11.5169 -0.0946967 -0.505143)
(10.0933 -0.0260142 0.00177828)
(9.94697 -0.00534147 -0.00645413)
(10.3565 -0.432484 0.000744233)
(10.7097 0.489137 -0.0552881)
(9.80207 -0.00186217 -0.00825925)
(10.0112 -0.00646068 -0.00861201)
(10.0116 -0.142306 0.0151252)
(10.2549 0.739846 -0.113108)
(9.83927 -0.0102751 -0.00909315)
(-1.00361 -1.59582 -0.242213)
(10.7164 -0.100756 0.0237053)
(10.0746 0.974506 -0.0907683)
(9.97933 -0.00176008 0.00749671)
(10.0678 0.860469 -0.0659852)
(10.8791 -0.00176916 -0.849478)
(10.0125 -0.00427308 -0.00201364)
(10.0033 0.00580768 0.00424293)
(9.77707 -0.0135123 -0.070982)
(10.0114 0.00319221 0.00454202)
(10.082 0.871282 -0.11775)
(10.1224 -0.0900336 -0.0163167)
(10.0059 0.0238689 0.00630377)
(9.94457 -0.0238078 0.00201009)
(10.0022 0.0182156 0.00598713)
(10.0023 -0.011602 0.00876582)
(10.2289 0.180744 -0.00112318)
(10.0008 0.0066385 0.0085969)
(9.97734 0.0247757 0.00804024)
(10.5541 0.91539 -0.340749)
(10.3619 1.1227 -0.389206)
(9.96059 -0.00696884 0.00436158)
(10.5029 -0.520854 0.0278985)
(9.97507 -0.0165572 0.0182742)
(10.4815 0.858829 -0.298414)
(9.96395 -0.0693587 0.00756725)
(9.96593 0.00206828 0.00122748)
(12.2428 0.467107 -0.515533)
(10.028 0.00469038 -0.0160699)
(10.6577 -0.175385 1.32474)
(10.0536 -0.00175461 -0.00413622)
(10.0049 1.30157 -2.51052)
(9.9521 -0.00363763 -0.00843132)
(10.6905 0.13032 0.0127876)
(9.9621 -0.00462037 -0.018958)
(10.0215 0.0251366 -0.0171522)
(9.82895 0.00775315 0.00767513)
(10.0361 0.00990591 0.0104125)
(9.97592 0.00350203 -0.0111514)
(10.3603 1.00378 -0.297712)
(1.26285 -1.80651 0.987615)
(2.03802 -0.668262 -2.62246)
(10.0782 0.0652944 0.00628169)
(10.3688 1.5182 -0.936039)
(10.7406 0.751863 -0.337266)
(10.8408 0.708684 -0.327801)
(9.99686 -0.0222048 0.0304999)
(9.98364 0.00982631 0.000555277)
(9.97045 0.0187762 0.0115993)
(9.89239 -0.00263191 -0.0113144)
(9.9564 0.00551848 0.00278973)
(10.145 -0.22556 0.00502565)
(10.848 0.646669 -0.225223)
(9.95564 -0.0230042 0.00139202)
(10.0359 0.00471435 0.00664076)
(11.4984 -1.18037 0.164967)
(11.5574 0.521672 -0.221862)
(11.1815 0.580968 -0.184365)
(8.12925 -1.32357 -5.18476)
(-0.0349378 3.85982 0.624212)
(10.6408 -0.310186 0.0482197)
(7.46845 -0.973712 -5.72958)
(-0.0949035 3.66343 0.904339)
(9.81175 -0.199425 -0.000292431)
(-0.143762 3.76737 0.792369)
(9.27703 -0.791149 1.14069)
(10.0163 -0.050628 0.00901737)
(11.0872 0.657496 -0.349593)
(11.0339 0.713796 -0.377769)
(11.3279 0.618904 -0.339931)
(-1.05743 2.8466 1.08185)
(10.1865 0.123847 0.00654122)
(10.0153 0.0155812 -0.00367862)
(10.0024 -0.00173384 -0.0122404)
(11.403 0.654747 -0.449542)
(11.2736 0.696815 -0.515516)
(10.0871 0.0169112 0.0200661)
(10.1089 0.120391 0.0228092)
(9.79891 3.38028 2.25501)
(-0.947493 2.85638 1.0931)
(13.0347 -0.506291 -3.14283)
(10.0065 -0.0145188 0.00820897)
(8.82924 -0.756123 -3.35572)
(10.1932 0.386713 1.22237)
(9.99979 -0.0589131 0.0024401)
(11.0047 0.465088 -0.0536787)
(12.0802 0.237847 0.272418)
(10.9876 0.375863 -0.042232)
(9.99491 -0.0181594 0.00489401)
(9.99861 -0.00488526 0.0069449)
(9.9829 -0.00682725 0.000579799)
(10.4667 0.406428 -0.00669736)
(9.99926 0.00191491 -0.00039481)
(10.0022 -0.0272947 0.0376351)
(10.1583 0.0763016 -0.0224073)
(9.96193 -0.00363958 -0.0125973)
(11.1625 0.241938 -0.0642884)
(10.0215 -0.00504615 -0.0168247)
(9.98288 0.0451265 0.00705913)
(9.99635 -0.01955 0.00160033)
(10.0058 -0.00731731 0.00866544)
(9.96101 0.00250807 0.00517531)
(10.3951 0.336627 -0.0140225)
(10.1114 0.0542303 0.00565374)
(10.0848 0.00915321 0.0267375)
(11.0795 0.252076 -0.0567502)
(8.92723 3.86049 1.81136)
(9.97231 -0.00238551 -0.000450524)
(12.0192 1.52962 -1.49073)
(9.99712 -0.00813059 -0.00244934)
(10.9753 -0.076048 -0.0470503)
(6.95526 -0.855066 2.32887)
(9.77416 1.44078 -0.632147)
(10.0055 0.0317978 -0.00596299)
(9.84359 1.5205 -0.705612)
(10.0079 0.0260348 0.00642679)
(10.0366 -0.0110691 -0.00486446)
(10.0854 1.30252 -0.933974)
(9.97822 -0.00123188 0.0108025)
(10.753 -0.20902 0.0254097)
(9.96107 1.19946 -0.654057)
(10.2939 -0.0731783 0.0339975)
(10.6393 0.0824138 -0.279099)
(8.25596 0.302874 -4.22053)
(10.0801 -0.0394001 0.0156283)
(9.62905 1.90699 -0.657238)
(10.0506 -0.0126874 0.00830235)
(9.03873 2.03761 -1.08105)
(10.1153 -0.123705 0.0349702)
(10.0117 -0.0127509 0.0094036)
(10.0002 0.0191228 -0.0013492)
(9.99232 0.0114035 -0.00896904)
(10.7418 1.09566 0.856066)
(9.96543 0.00896255 -0.00725401)
(9.99438 0.0163561 -0.0139123)
(10.0272 -0.0340965 0.0104749)
(9.95631 0.0778651 0.0342522)
(11.1626 0.671647 -0.00999578)
(10.0247 0.00878957 -0.00328983)
(10.0153 0.0154122 -0.000230944)
(8.63653 0.306409 -0.635276)
(9.97241 -0.00549379 0.0131705)
(9.83715 0.120533 0.0113743)
(10.0927 -0.16867 0.048604)
(10.0753 0.0275881 -0.00734341)
(10.0738 0.00460398 0.0101959)
(9.95765 0.0224469 0.00761604)
(10.1018 0.0353597 -0.000243024)
(10.3645 1.34051 -1.08961)
(10.0035 0.00990506 0.0069347)
(9.98896 0.00452545 0.00284646)
(3.03139 -0.53069 -5.90869)
(9.99845 -0.00702145 0.00971359)
(10.0222 -0.00794356 0.00422087)
(9.99051 0.132683 -0.0266471)
(10.0042 0.0111181 0.00696029)
(12.654 1.35061 -0.786921)
(12.7676 1.03784 -0.544965)
(9.96606 -0.0107854 0.00044351)
(9.92102 -0.115796 0.012253)
(9.88884 0.0120288 0.020363)
(11.5019 0.0974653 1.27003)
(10.0503 0.0627723 -0.0126624)
(12.7735 1.25111 -0.656202)
(9.99939 0.00622934 -0.00334726)
(-1.67029 -0.569767 1.56834)
(8.17018 -0.553995 -0.734013)
(9.15104 -0.905827 1.79346)
(10.0128 0.0147152 0.0143723)
(12.707 1.1891 -0.598341)
(10.0584 0.0275298 -0.010358)
(10.14 0.11924 0.0249662)
(9.99903 0.00337233 -0.0412708)
(9.62046 0.131669 0.121425)
(10.0284 0.000155931 0.0111435)
(10.0175 0.0306534 -0.0126444)
(6.38048 -1.31338 -0.668345)
(9.99629 -0.00132225 -0.0176538)
(9.94092 0.010968 0.00681928)
(10.0107 0.00737014 0.0206616)
(12.5345 1.47418 -0.710422)
(10.0525 0.0219099 0.00714901)
(10.0167 -0.0128371 -0.000373927)
(12.3735 1.41643 -0.749168)
(12.3035 0.892817 -0.307461)
(10.0014 -0.00889252 0.0128832)
(10.0308 -0.0118642 -4.56377e-05)
(-0.178237 1.98691 0.523978)
(10.049 0.00591113 0.00490582)
(10.7125 -0.374973 0.133703)
(10.0049 0.00196628 -0.00989992)
(10.0575 0.0118442 0.0373294)
(10.0464 -0.0160597 0.0021554)
(11.9442 1.01744 -0.399384)
(11.3478 0.21822 1.43954)
(9.22907 0.722652 0.779351)
(9.90067 0.1081 0.144462)
(10.0439 -0.0743665 0.0180247)
(10.0169 0.00377531 -0.0135322)
(12.6447 -0.481578 -0.0564724)
(9.31285 0.237347 -0.445187)
(9.73455 0.0667397 -0.0409307)
(-0.066097 1.79214 0.339815)
(10.0203 -0.0237846 -0.00959441)
(10.0364 0.0125982 -0.0135845)
(-0.37722 1.69344 0.505583)
(12.143 1.74629 -1.22848)
(9.89451 0.0759546 0.00149025)
(0.0314789 1.91986 0.373968)
(0.0204375 1.95232 0.511943)
(9.99718 0.0164858 -0.00950332)
(9.99776 0.0143248 0.00160082)
(10.0278 0.0035818 -0.00603547)
(9.60367 -0.35611 -0.00452441)
(9.99821 0.0042347 -0.00656272)
(9.974 -0.0153953 -0.00503845)
(10.6565 0.147765 -0.286159)
(10.0059 0.266949 0.0115588)
(9.93601 0.0212829 -0.00162225)
(10.0413 0.0112104 0.0199346)
(12.5895 1.21761 -0.322046)
(11.8564 1.30298 -0.398391)
(9.96931 0.0103363 -0.000360436)
(10.4745 0.381415 -0.0302358)
(-3.92162 -2.43768 -0.16549)
(-1.95435 -3.04576 1.26623)
(10.8499 0.41369 -0.123037)
(9.94197 0.00148171 0.012743)
(10.2664 -0.0930056 0.124578)
(11.0163 -0.101459 -0.779091)
(9.85823 -8.67092e-06 0.01192)
(9.8587 -0.000285843 0.0110282)
(10.0503 -0.0309946 0.00931894)
(10.3471 0.139606 -0.000334205)
(9.97973 -0.0132373 0.00682316)
(10.8382 0.273292 0.320141)
(9.99986 0.00247668 0.000681711)
(13.0891 0.792363 -0.656018)
(10.3421 1.52555 -1.18609)
(10.7476 0.393408 -0.0641086)
(13.1132 0.979465 -0.995749)
(10.0743 0.0369149 -0.00144347)
(9.99408 0.00566621 0.0130634)
(10.4034 0.782367 0.139863)
(10.1718 -0.105417 0.0294842)
(10.0136 0.011427 0.00447864)
(10.0043 0.00714792 -0.00329465)
(11.1708 0.556845 -0.562963)
(7.9551 -0.79222 -1.51955)
(10.0181 -0.00589065 -0.00774902)
(10.9771 0.142854 -0.00258802)
(9.97008 0.209682 0.0179872)
(11.3999 -5.2941 -2.40601)
(10.448 -0.89389 0.860697)
(11.76 0.0092257 0.95596)
(6.53308 0.435951 0.280131)
(6.30905 0.400817 0.124014)
(10.0592 0.0183574 -7.52763e-05)
(9.91404 0.259132 -0.0430132)
(4.54397 0.289883 -0.199721)
(9.98509 0.0120392 -0.00115988)
(10.0495 -1.74345 -3.58315)
(7.73727 0.341128 1.98332)
(9.98435 0.00138231 -0.00227639)
(10.0146 0.742048 0.441162)
(10.01 -0.00134635 -0.00872069)
(10.0339 -0.00319865 0.0169243)
(10.0177 0.00146002 -0.000825269)
(13.3483 0.51103 -0.150596)
(9.97664 0.0104459 -0.00393097)
(9.98473 0.00444258 -0.0012228)
(10.0539 -0.0248174 -0.00107697)
(9.83274 0.00101808 -0.0185476)
(10.0496 -0.0151778 0.0274111)
(9.99852 -0.0020824 -0.00686903)
(10.0483 0.0178091 0.0110933)
(9.90346 -0.04411 -0.000597703)
(11.0328 1.15339 0.69689)
(9.44144 -0.640343 -2.63355)
(12.4999 3.68981 1.77953)
(10.7764 0.528066 0.0250449)
(9.65683 1.48092 1.31412)
(10.0231 0.00549356 -0.00227855)
(9.30005 -1.00452 0.0572519)
(9.97664 0.0141707 0.000394434)
(10.0004 0.00207088 -0.0104691)
(10.003 0.00390514 -0.00800609)
(9.99972 0.00129735 -0.00734593)
(9.9846 0.0182405 -0.00492383)
(9.19458 0.421761 -0.905023)
(11.1844 0.765758 0.220515)
(9.98622 0.0140711 -0.00524804)
(10.2146 -0.569957 0.0694933)
(11.2882 1.63635 1.99513)
(9.99421 0.0140696 0.000984603)
(2.643 0.541095 1.06472)
(13.3024 -0.996795 -3.06381)
(9.96702 -0.00789937 -0.00834657)
(9.32685 -0.572246 0.00608782)
(10.4482 0.0222146 0.0389324)
(10.0197 -0.00739962 -0.0101291)
(3.30718 1.18406 0.846522)
(10.0068 -0.00961698 -0.00503193)
(6.4823 -2.16484 0.208947)
(9.97796 -0.0017022 0.00308223)
(11.7583 -0.0267985 1.15407)
(12.1162 0.403606 -0.0187806)
(9.96972 -0.0223167 0.000806193)
(9.92654 -0.0107087 -0.00947795)
(10.1693 0.599699 0.0414163)
(8.64433 -0.633573 -2.34405)
(9.92935 -0.00252436 0.0170596)
(10.0265 0.0122608 0.0052162)
(10.3227 0.00134724 0.00680526)
(12.2717 -0.0718684 0.762796)
(10.0013 0.00389955 0.00219267)
(12.3597 0.337005 0.272438)
(10.465 -0.0172023 0.00151405)
(0.482622 -0.430371 -0.116236)
(12.0626 0.327848 0.0933757)
(10.3984 -0.0106896 0.00470909)
(12.1863 0.331026 0.209017)
(10.0006 -0.00339181 -0.00368054)
(10.1162 -0.136578 -0.00310382)
(10.532 0.412126 0.0198367)
(10.4389 -0.0504597 -0.00256086)
(12.3721 0.413731 0.091758)
(9.99878 -0.0214513 -0.000159042)
(10.0714 -0.222456 -0.0163459)
(12.2172 0.396842 0.0464635)
(9.96361 -0.0379282 -0.000706533)
(10.481 -0.0556494 0.00123714)
(9.98909 -0.0148238 -0.0121412)
(10.0313 -0.0138677 0.0107003)
(6.91222 0.355726 -5.24876)
(6.7367 -0.150478 -5.85284)
(9.67926 0.0933623 0.362688)
(8.86604 0.361109 -4.27925)
(9.99381 -0.0181731 -0.0155655)
(9.97138 -0.0134441 -0.0056837)
(10.8473 0.653819 -0.266475)
(10.4594 -0.171094 0.0240802)
(7.89048 0.121732 0.54603)
(10.0162 -0.0371497 -0.0145769)
(10.056 0.0411708 -0.0160756)
(9.98389 -0.0262172 -0.00458214)
(10.0129 0.0531914 0.00337044)
(5.29393 0.226232 -6.51888)
(3.5123 -0.936883 1.62191)
(9.97351 -0.0263359 -0.00405141)
(10.0165 0.0411991 -0.00637704)
(10.0098 -0.064485 -0.0101834)
(9.91683 -0.0306874 0.00728226)
(10.1798 -0.154036 0.0388876)
(9.96929 -0.0273634 -0.00379495)
(11.2858 -0.0314313 -0.0222998)
(11.7999 -1.3262 1.336)
(10.1249 0.0163502 0.00819541)
(10.0423 0.027917 -0.0216349)
(10.0061 -0.0279789 -0.0107871)
(10.0115 0.037482 0.00223861)
(9.71035 0.212581 0.0290303)
(10.0177 -0.0251594 -0.00998761)
(10.7102 -0.175007 -0.0163415)
(9.95657 -0.0148876 -0.00476409)
(10.0117 0.0248162 -0.0143105)
(10.0694 0.0488355 -0.00411675)
(9.27169 -0.884089 -1.30681)
(5.18143 0.695235 -4.91815)
(10.0613 -0.0767706 -0.00873576)
(-0.0896589 -2.07062 0.35739)
(10.0519 -2.57739 0.862073)
(13.2581 -1.21122 -1.1665)
(-0.114008 -2.14799 0.309383)
(10.3719 0.0520754 0.0142828)
(5.5388 -0.311368 1.97581)
(10.5733 -0.505344 -2.65399)
(10.9314 -1.6092 0.38386)
(5.69457 0.304657 -3.89313)
(-0.259995 1.82711 0.873472)
(1.51389 0.640752 -3.71011)
(11.4595 -0.0487626 0.661342)
(10.7753 -0.0137309 -0.0625214)
(11.3258 0.0147151 1.34308)
(9.91683 0.0057348 0.00657242)
(3.72311 -0.252667 -0.412702)
(10.8486 0.055363 -0.347178)
(10.6959 -0.0214786 0.00468832)
(9.98029 -0.0510442 0.0332003)
(10.0084 0.0199061 -0.0427899)
(11.5306 0.0921553 1.22267)
(10.0018 0.123628 0.0584652)
(10.1935 -0.0408036 0.0170565)
(9.95048 0.0241517 -0.00293908)
(-0.676339 1.11971 0.21597)
(8.11963 0.268713 -2.56665)
(10.0145 -0.00712916 0.00782235)
(9.9844 -0.00481714 0.004406)
(5.03756 0.288546 -2.51567)
(5.93583 0.140288 -3.17391)
(10.7876 -1.2174 -1.2512)
(-2.39482 -2.8033 -1.07024)
(4.95484 0.220411 1.99655)
(4.05395 -0.00622861 -4.01192)
(3.78361 -0.0662033 -4.87205)
(10.0054 -0.0040725 0.0102127)
(9.80363 0.00105573 0.00464561)
(9.46664 -0.0280965 0.0297533)
(10.0152 -0.000810323 -0.00897542)
(10.4153 0.0421836 -0.0197733)
(-0.321677 1.95768 0.477918)
(10.9885 -0.0446536 -0.264115)
(10.4679 0.0369426 -0.0236615)
(10.3372 0.0397549 -0.0109626)
(10.0513 0.0180517 -0.00044777)
(-0.27985 1.89744 1.09111)
(-0.49563 2.01743 1.04101)
(10.0493 0.0220884 -0.0181503)
(10.4184 0.00436774 -0.0347251)
(9.93194 0.0170864 0.00421699)
(10.0312 0.00387671 -0.00903104)
(10.3652 0.0193112 -0.0134078)
(10.0366 0.00987678 -0.0216769)
(9.6955 -0.000764038 -0.0704787)
(10.0205 0.00610972 -0.0107286)
(10.0187 -0.00238174 -0.0104227)
(7.00361 -0.751586 -3.22986)
(10.0472 0.00408391 0.00681947)
(10.0271 0.0129922 0.0156608)
(10.017 -0.00520326 -0.017913)
(9.86034 0.00321893 0.0055453)
(9.87558 0.0077827 0.00635682)
(4.27815 -0.560975 -2.55066)
(12.6683 -1.2602 -0.675546)
(10.0234 0.000450128 0.012003)
(10.8797 0.420522 -0.216658)
(10.0206 0.0309421 -0.0136613)
(9.69109 -0.337663 0.0995225)
(9.66056 -0.4247 0.152014)
(12.2546 -0.0525185 -0.0619851)
(9.86714 -0.00464427 -0.00366725)
(-0.155802 -1.08647 1.27119)
(12.3389 -0.154961 -0.0926421)
(10.4863 0.123159 -0.00239689)
(10.8309 0.383196 -0.0380026)
(8.12946 0.300212 -3.51559)
(10.9696 3.07191 1.40188)
(9.98174 -0.012971 -0.00960163)
(9.98271 -0.0142898 -0.00490308)
(11.5747 1.73376 2.12171)
(9.99869 -0.0382632 -0.0105643)
(9.99942 0.0330091 0.00504308)
(10.8856 0.756834 0.346404)
(9.97039 -0.0151747 -0.00625506)
(9.98354 -0.00311372 0.00145468)
(-2.66717 0.639598 1.75107)
(12.546 0.595124 -0.154285)
(10.6866 3.49005 -0.415951)
(10.0018 0.000691862 0.00484538)
(7.72214 0.569361 -2.7303)
(10.0062 0.00454811 0.00290882)
(12.0571 -0.0139216 -0.298727)
(9.50469 -0.412113 0.24845)
(12.3118 -0.0772301 -0.0446872)
(9.9159 0.00173122 0.00529309)
(9.31561 -0.444296 0.207532)
(-1.27257 -0.286789 1.61009)
(11.572 1.85001 2.59853)
(12.5252 -0.41696 -0.883731)
(-0.769964 1.4366 1.00029)
(12.2745 0.290094 0.245992)
(10.5466 0.196651 0.042393)
(9.95779 -0.0139303 0.0112189)
(12.2176 -0.108582 -0.248917)
(9.9809 0.0117958 0.00499832)
(12.4694 -0.0925285 0.0896826)
(-0.116859 -1.30338 0.773358)
(9.98553 0.0154141 0.0064656)
(12.8776 0.0640147 -1.28925)
(9.89367 0.000596899 0.00963963)
(9.88572 -0.0024414 0.00119793)
(11.3564 -1.41546 -0.123756)
(9.92238 -0.00690812 -0.00320159)
(10.2319 0.119578 -0.0104939)
(8.12874 -5.79002 0.0244717)
(9.52012 0.449104 0.0336323)
(9.99103 -0.242087 -0.0288598)
(12.7612 -0.640336 0.00664017)
(10.594 1.52936 1.18423)
(10.0239 -0.0146788 0.0159158)
(11.7999 -2.61711 -0.996532)
(5.26332 -0.893664 -0.232494)
(10.7371 0.0305546 0.00505414)
(9.63146 -0.732748 -0.909365)
(10.0233 0.122755 0.0247136)
(10.5491 0.211085 0.0164824)
(9.96644 -0.0129322 -0.0039806)
(9.99462 -0.0175381 -0.00487304)
(-0.175125 1.23547 -0.108288)
(0.930223 -4.52076 1.90165)
(12.2513 -0.777849 0.272383)
(10.1715 -1.50725 -0.559206)
(12.379 -1.01044 -0.422016)
(1.11281 4.70801 1.06665)
(-0.733013 0.613129 0.417744)
(9.31866 -3.61881 4.24309)
(9.99859 -0.0137825 -0.00507034)
(10.0025 0.012182 -0.00969333)
(9.98899 0.0140298 -0.00394026)
(9.82086 -0.0377163 -0.0168382)
(2.61363 1.09319 0.3151)
(9.61833 -0.550692 0.156108)
(8.97388 -0.668013 1.02883)
(9.98742 0.0208747 -0.00909279)
(-0.228199 -1.6344 0.150407)
(12.4012 -0.0742569 -0.0366016)
(10.3757 0.161709 -0.314047)
(10.1263 0.0353103 0.0105552)
(10.0224 -0.0199154 0.00337578)
(10.1232 0.0318039 0.0118587)
(6.27004 -1.859 -3.30202)
(10.0048 -0.00302898 -0.00704092)
(4.51496 4.5383 -0.510696)
(10.0308 0.0110326 -0.00428274)
(10.3149 -0.634185 -3.14353)
(9.98815 -0.00367458 -0.0029321)
(9.99891 -0.00614372 -0.0062231)
(10.0093 -0.00972949 -0.00722993)
(10.0147 -0.0100816 -0.0110005)
(9.98809 -0.0118945 0.00333122)
(12.7024 1.44772 0.466202)
(11.7411 0.323174 0.795467)
(8.94476 1.49211 2.38588)
(7.0029 4.07226 2.38621)
(9.37116 1.20458 0.440422)
(10.4314 0.548763 -0.059942)
(11.2071 1.21747 0.0257651)
(6.65321 -0.44567 -2.99858)
(10.6484 -0.146353 0.0374234)
(12.5252 -0.352197 0.0654967)
(10.6604 -0.758694 0.0747068)
(12.1801 0.0411054 -0.0488085)
(8.19347 -0.195867 4.39877)
(5.76167 -1.64909 2.37571)
(10.6552 -0.283184 0.187658)
(9.99943 -0.00947088 0.00508924)
(9.57239 0.935206 -0.33259)
(10.0042 -0.00537518 0.00992786)
(10.1984 -0.0166023 -0.00161855)
(12.9725 -2.41494 2.9835)
(12.4832 -0.396825 0.769563)
(-1.35175 3.47141 -0.00470959)
(10.1269 -0.950149 0.209771)
(11.8843 -1.00988 -0.519325)
(10.5317 -1.0699 -1.19417)
(9.92729 -0.3898 1.484)
(10.2336 -0.0250939 0.0103505)
(-3.89525 -3.2296 1.17361)
(10.0551 -0.00343058 0.00292195)
(10.1255 -0.0123176 -0.00158342)
(10.7088 -0.193209 1.217)
(9.67027 -0.115127 4.67266)
(10.2632 -0.0370256 0.0155168)
(10.3026 0.547698 -0.433526)
(9.99214 -0.00252974 0.00380818)
(10.549 -1.3936 0.590791)
(10.8702 0.0604899 1.41774)
(9.96456 -0.00754912 -0.00237724)
(11.1448 -0.426745 -3.12118)
(9.83754 1.71228 -1.97868)
(12.0264 0.447786 1.4906)
(10.9244 0.444622 -0.156329)
(9.49251 0.128148 0.269967)
(3.13298 0.957003 -3.88539)
(0.367376 3.57518 3.00417)
(5.26942 3.21742 0.684936)
(13.3128 -0.83508 -2.91677)
(4.76323 -0.831275 -0.289862)
(9.78288 -0.00323809 -0.0222649)
(9.88737 -0.00880256 0.00150287)
(8.31277 1.75013 2.70301)
(9.95462 -0.00374771 0.000724206)
(4.52932 -0.816714 -0.31786)
(9.82423 -0.00270112 -0.0099946)
(9.80961 -0.0128604 -0.0098274)
(-0.0890476 -1.61225 1.02332)
(9.53893 -1.31918 0.814149)
(10.8858 -0.580984 0.118412)
(9.9859 0.00493348 0.00244541)
(9.99998 0.0182755 7.19831e-05)
(8.33894 0.344443 -2.89549)
(10.0158 0.0151885 0.0113268)
(9.96419 -0.000586513 0.0006273)
(9.94291 1.00765 0.922558)