/*--------------------------------*- C++ -*----------------------------------*\
| =========                 |                                                 |
| \\      /  F ield         | OpenFOAM: The Open Source CFD Toolbox           |
|  \\    /   O peration     | Version:  2506                                  |
|   \\  /    A nd           | Website:  www.openfoam.com                      |
|    \\/     M anipulation  |                                                 |
\*---------------------------------------------------------------------------*/
FoamFile
{
    version     2.0;
    format      ascii;
    arch        "LSB;label=32;scalar=64";
    class       volScalarField;
    location    "0.00481384";
    object      nut;
}
// * * * * * * * * * * * * * * * * * * * * * * * * * * * * * * * * * * * * * //

dimensions      [0 2 -1 0 0 0 0];

internalField   nonuniform List<scalar> 
3972
(
0.00122281
0.00315701
0.00621162
0.00720393
0.000210818
0.00181087
0.00557128
0.00408433
0.00415541
0.00124211
0.00409381
0.00638776
0.0044376
0.00351863
0.00315109
0.00723411
0.00517614
0.00365884
0.00411978
0.00327874
0.000726046
0.00124069
0.00094347
0.00717509
0.000190247
0.00716509
0.00693148
0.00373771
0.00153829
0.00741462
0.000336751
0.00047476
0.00749072
0.00158183
0.00738781
0.0040501
0.00274987
0.00612538
0.00457229
0.0029639
0.00524945
0.00530593
0.0031557
0.00149263
0.00519103
0.00691792
0.0045415
0.0018107
0.00489976
0.00585804
0.0071425
0.00524083
0.0024465
0.00550518
0.00195402
0.00716733
0.00133878
0.00408257
0.00141952
0.000935289
0.00627068
0.000987327
0.00723766
0.00352975
0.00699151
0.00330172
0.000774989
0.00310284
0.0034443
0.00215761
0.000918695
0.00548381
0.000983057
0.00531101
0.00177305
0.00740149
0.00256089
0.00338206
0.00619633
0.000930585
0.00271101
0.00612262
0.00749091
0.00498494
0.00600503
0.00277042
0.00571178
0.00218564
0.00147809
0.00412612
0.00138835
0.00281051
0.00129499
0.00175596
0.00443378
0.00366294
0.00753029
0.00666044
0.00503115
0.00581738
0.00652918
0.00714111
0.00692915
0.00642864
0.00678866
0.00453283
0.00321485
0.00651364
0.00214716
0.00697167
0.00170477
0.00623569
0.00712924
0.000838059
0.00456412
0.00616174
0.00709379
0.0012683
0.00325991
0.00211169
0.00082224
0.00126724
0.00361873
0.00415115
0.00715512
0.000459316
0.00272199
0.000560649
0.000524956
0.00039624
0.000828223
0.00192147
0.000540399
0.000431511
0.00245837
0.00445669
0.00392111
0.0040466
0.00290768
0.00607091
0.00177279
0.00692374
0.001635
0.00147942
0.00281673
0.00645852
0.0016789
0.00447588
0.00309491
0.00146956
0.00432126
0.00464528
0.00738135
0.00493333
0.0025009
0.00454814
0.0030337
0.00174544
0.00257029
0.00084331
0.00734386
0.00556051
0.00662102
0.00340183
0.00727303
0.00118956
0.00653164
0.00209478
0.00369706
0.00259388
0.00174359
0.00719888
0.00754964
0.00514544
0.00716358
0.0068431
0.00655178
0.00751253
0.00738489
0.00752035
0.00382052
0.000948294
0.00655225
0.00211303
0.00707017
0.00753963
0.00750819
0.00415961
0.00745928
0.000363554
0.00741795
0.00729879
0.00125522
0.00749152
0.00335394
0.00465567
0.00688762
0.00617686
0.00203461
0.00671778
0.00686238
0.0043819
0.00323165
0.004955
0.00438853
0.00512484
0.00602435
0.00433805
0.00217826
0.00378205
0.000707199
0.0064428
0.000905848
0.000917764
0.00355655
0.0054276
0.0012697
0.00682256
0.00372686
0.00665734
0.00733642
0.00143613
0.00519329
0.00483533
0.0005193
0.0072113
0.000151464
0.00113054
0.000224329
0.00108066
0.000179716
0.000795067
0.000719977
0.00043619
0.00451812
0.00677765
0.00671133
0.00695133
0.00402255
0.00254338
0.00393645
0.00107548
0.000752698
0.00262857
0.00295917
0.00483148
0.00416616
0.00688794
0.00612155
0.00355091
0.00709135
0.000183942
0.00116594
0.00239541
0.0074174
0.00322908
0.000562773
0.00121049
0.00598183
0.00315262
0.00072134
0.00307592
0.0040392
0.00721055
0.000701965
0.0026543
0.00735108
0.00108454
0.00261355
0.00679382
0.00262707
0.00158998
0.000506641
0.000881138
0.00147115
0.000756588
0.00419457
0.00312829
0.00729646
0.0074143
0.00424816
0.000811475
0.00688897
0.000462336
0.000159284
0.000205399
0.00703899
0.00402605
0.00483106
0.00262514
0.00709132
0.00718337
0.00300483
0.00331839
0.00054522
0.000906977
0.00660114
0.000763723
0.00375563
0.00023677
0.00740395
0.00593628
0.00381925
0.00326483
0.00310202
0.00571572
0.00238407
0.00321412
0.00494269
0.0033518
0.00270895
0.00422283
0.000806985
0.00606766
0.000279456
0.007262
0.00701957
0.00716848
0.00684001
0.00669902
0.000579594
0.000194294
0.00408236
0.00662898
0.00712659
0.00402541
0.00564802
0.00710541
0.00684444
0.00275059
0.00513648
0.000553124
0.00163777
0.00732785
0.00735847
0.000732073
0.00715093
0.00227554
0.00741596
0.00213122
0.00117768
0.00736248
0.00103039
0.00496892
0.00592166
0.00711184
0.00521639
0.00297011
0.00693252
0.00242217
0.00693056
0.00148273
0.00587217
0.00323978
0.000205204
0.000721171
0.000340873
0.00689413
0.00692479
0.0043313
0.00623276
0.00719441
0.00701592
0.00172509
0.00715945
0.00714505
0.00614308
0.00693678
0.00667504
0.00479924
0.00729051
0.00421927
0.00750553
0.00509344
0.00391598
0.00341749
0.00313997
0.00354074
0.00517542
0.00261188
0.00614591
0.00351586
0.00720463
0.00131117
0.0059224
0.00134875
0.00612548
0.00119131
0.00665102
0.00670868
0.00081544
0.00662872
0.00140369
0.0068036
0.00137974
0.00562332
0.000144511
0.000305549
0.00738032
0.00710215
0.00168018
0.00647534
0.00748578
0.00662095
0.00170294
0.00752858
0.00655695
0.000693648
0.00673198
0.00483192
0.00661384
0.00179814
0.00643681
0.00636186
0.00497005
0.000169764
0.00624443
0.00678754
0.00693967
0.00730293
0.00691859
0.00289632
0.00596381
0.0045402
0.00682162
0.00625982
0.00334418
0.00732862
0.00230852
0.00434732
0.00683124
0.00516578
0.00400999
0.00689274
0.00431138
0.00331045
0.00584848
0.00585956
0.00750118
0.00504386
0.00470599
0.00405267
0.00708848
0.00636902
0.00544519
0.00682482
0.00679533
0.00682651
0.00711011
0.00658838
0.00674499
0.00224955
0.00215947
0.00256348
0.0064456
0.00373411
0.000310657
0.000319548
0.00107361
0.00312504
0.00118281
0.00185045
0.00689528
0.00272484
0.00248176
0.00154611
0.00746839
0.00706871
0.00736669
0.0035796
0.00353046
0.00465125
0.00189988
0.0035179
0.00471372
0.00138314
0.00237778
0.000474255
0.00637801
0.00540713
0.00325501
0.00283326
0.00183369
0.00230659
0.00147507
0.00525028
0.00711567
0.00215479
0.00351583
0.00684345
0.0053724
0.00554715
0.000544903
0.00245168
0.000434843
0.000734789
0.00287137
0.00681548
0.00450375
0.00717053
0.0037148
0.00195334
0.00315422
0.00322268
0.00337884
0.00184728
0.00422537
0.00602138
0.00689466
0.00425355
0.00136228
0.00606167
0.0018852
0.00145453
0.00403424
0.00688181
0.00463941
0.00686151
0.000603479
0.000533798
0.000737822
0.00209954
0.00410716
0.00258865
0.000365976
0.00700282
0.0064668
0.00165558
0.0012782
0.00500377
0.00186368
0.00120222
0.00709348
0.00185387
0.00248043
0.00363396
0.00287046
0.00670329
0.00630874
0.00582354
0.00681747
0.00432999
0.00294476
0.0027556
0.00560646
0.00412342
0.000833005
0.00445003
0.00520835
0.00369403
0.00695817
0.00679328
0.002293
0.00256627
0.00513059
0.0071772
0.00704699
0.00507692
0.00336616
0.00521542
0.00584543
0.00414457
0.00699623
0.00163431
0.00702393
0.00193026
0.00153925
0.00130092
0.00668453
0.00023386
0.00708489
0.00642717
0.000334961
0.00712836
0.00645796
0.00442336
0.00312756
0.005382
0.00677763
0.00629588
0.00711107
0.00681515
0.00673554
0.00411005
0.00676052
0.00641374
0.00721095
0.00736713
0.00478732
0.00541019
0.00156967
0.00187131
0.000462311
0.000840482
0.00107954
0.00127022
0.00292765
0.00667591
0.00713217
0.00745046
0.00503797
0.00361493
0.00524957
0.00665501
0.000319744
0.000626553
0.000533035
0.00679389
0.000137825
0.00663225
0.00623667
0.00456206
0.00213855
0.00708383
0.0019986
0.00443053
0.00619632
0.00679336
0.00560523
0.00702806
0.00740195
0.000582835
0.000651823
0.00124948
0.000627401
0.00290701
0.00547003
0.00739677
0.00718416
0.00448139
0.00708974
0.00454514
0.00713122
0.00609785
0.00325882
0.00176763
0.00195883
0.00726656
0.00528763
0.00517203
0.00734517
0.00149172
0.00164164
0.00487813
0.00736911
0.000867042
0.000921467
0.00096012
0.000579909
0.000542062
0.00185198
0.00317742
0.000728247
0.000730858
0.00338541
0.00324408
0.00428973
0.00695277
0.00392261
0.00173093
0.000600382
0.000602885
0.00643517
0.000595442
0.00367525
0.00481945
0.00464212
0.00651402
0.00519989
0.00339588
0.00736105
0.00719574
0.006478
0.00698496
0.00712619
0.00696427
0.00700778
0.0029626
0.00464427
0.00294798
0.00198619
0.00182525
0.00651622
0.00450642
0.00354379
0.00676572
0.0065187
0.00681617
0.00701812
0.00322483
0.0010933
0.000951484
0.00498708
0.00734813
0.00746265
0.00255005
0.0071562
0.00706319
0.00742232
0.00453105
0.00299924
0.00236046
0.00664977
0.00542532
0.00584151
0.00144804
0.000798458
0.00644239
0.0072959
0.00722609
0.00678537
0.00724601
0.00661787
0.00499161
0.000533735
0.00703679
0.00670746
0.00434576
0.00455178
0.00732691
0.00313867
0.00746273
0.00378266
0.00689679
0.00737873
0.00698342
0.00430141
0.00149079
0.0066507
0.00646929
0.00497925
0.00490017
0.00576363
0.00729245
0.00623401
0.00658078
0.00716305
0.00577877
0.00742923
0.00334959
0.00716702
0.00688804
0.0051597
0.00712563
0.00154981
0.00140475
0.00709262
0.00576947
0.00744925
0.00685599
0.00275039
0.00487047
0.00719628
0.00477298
0.00109113
0.00569776
0.00577305
0.00236168
0.000369326
0.00104398
0.000502057
0.000517649
0.00290268
0.00362842
0.00709272
0.00332986
0.0030267
0.00707473
0.0053124
0.00410757
0.00665924
0.00710727
0.0060888
0.00497632
0.00425816
0.00518318
0.00402946
0.00507812
0.003799
0.000814077
0.00723321
0.00402849
0.00695326
0.00611152
0.00184767
0.00221675
0.00460541
0.0025401
0.00681994
0.00504883
0.0031482
0.000794172
0.00191461
0.00501749
0.00728659
0.00665599
0.00741021
0.000796641
0.00499348
0.00647382
0.00707254
0.0046661
0.00335804
0.00617319
0.00662717
0.00728443
0.000275677
0.00191249
0.000907926
0.00722708
0.00565112
0.00291009
0.00234466
0.00535224
0.00442531
0.00712882
0.00739966
0.00750466
0.00342632
0.00239089
0.00695189
0.0056334
0.00733339
0.00700396
0.00194135
0.00360136
0.00504572
0.00150415
0.00328349
0.00679296
0.00180654
0.00555661
0.00694959
0.00687896
0.00734906
0.00369292
0.00326215
0.00435479
0.00123277
0.000703238
0.000656211
0.000129623
0.00685676
0.00628963
0.0050616
0.00721155
0.0035434
7.65527e-05
0.00590488
0.00160469
0.000738334
0.00116369
0.00303136
0.00717
0.00360671
0.00587591
0.00567631
0.000462641
0.000826476
0.000154255
0.00730654
0.00741161
0.00528288
0.00440207
0.00432772
0.00485012
0.00548112
0.00706947
0.00315958
0.000996992
0.00665716
0.00329673
0.00683552
0.000793156
0.000856686
0.00713393
0.000295211
0.00720337
0.00258341
0.00525344
0.00670764
0.00156267
0.000798177
0.00622231
0.00107774
0.00167541
0.0008083
0.00582321
0.00351822
0.00500711
0.00410686
0.00553683
0.00362995
0.00630272
0.00480667
0.00154413
0.000409009
0.000737969
0.000178142
0.00302321
0.00233204
0.00264664
0.00653227
0.00552399
0.00275651
0.00708694
0.0072064
0.00664594
0.00541761
0.00343009
0.00714149
0.00718969
0.00207294
0.00598986
0.00486108
0.00715375
0.00723643
0.00303226
0.00688227
0.00672769
0.00132794
0.00731177
0.00595447
0.00329386
0.00466375
0.00747666
0.00626771
0.00627219
0.00444904
0.000495686
0.00173771
0.00531353
0.00675689
0.0055623
0.00569935
0.00711027
0.00661222
0.00686169
0.00151024
0.0048032
0.004504
0.00485135
0.00747595
0.00336119
0.00107001
0.000525313
0.00035814
0.00732887
0.00672359
0.00400895
0.00599712
0.00708579
0.0048498
0.00683746
0.00723422
0.00450527
0.00294272
0.00171086
0.00349562
0.00334435
0.00159843
0.00380547
0.00736806
0.00270328
0.00350802
0.00734505
0.00214044
0.00334056
0.006634
0.000528438
0.00313032
0.00121978
0.00358992
0.0041766
0.000139588
0.00195415
0.00164102
0.00734848
0.000203537
0.00587925
0.00751296
0.00054303
0.00119314
0.00446978
0.00682805
0.00705921
0.00226359
0.00305619
0.00710695
0.00712708
0.00392668
0.000458051
0.00215492
0.000133198
0.000225949
0.000828489
0.00265381
0.000134825
0.00350976
0.000620564
0.00019306
0.00672846
0.00477236
0.00255799
0.00446958
0.00201741
0.00363427
0.00424042
0.000286556
0.000175533
0.00206064
0.00681535
0.0010319
0.000582031
0.00610968
0.00517388
0.00531396
0.00160178
0.0012718
0.00633203
0.000132816
0.000351663
0.00035858
0.000380877
0.00721016
0.00177266
0.00383581
0.00651175
0.00608631
0.0031952
0.00301312
0.00553256
0.00686779
0.00709172
0.00692252
0.00698105
0.0052945
0.00676477
0.00438215
0.00477176
0.005336
0.00706924
0.00710105
0.00601552
0.0069933
0.00720301
0.00703929
0.00707261
0.00327522
0.00467906
0.00320367
0.00637071
0.00703487
0.00718145
0.00620923
0.00438286
0.00559604
0.00524839
0.00700271
0.0069351
0.00652376
0.00586528
0.0062316
0.00690453
0.00286603
0.00355268
0.0073184
0.00601088
0.00137052
0.00400163
0.00153101
0.00248498
0.00553815
0.00598648
0.00693466
0.00583249
0.0055257
0.0067303
0.00718519
0.00655386
0.00549556
0.000726381
0.00671181
0.00668977
0.00405762
0.0052844
0.00710561
0.00669117
0.00142396
0.00652483
0.00266365
0.00123911
0.00737919
0.00570523
0.00420863
0.00596451
0.00186624
0.00596438
0.00578339
0.00583754
0.00248431
0.00715444
0.00700143
0.00256243
8.33392e-05
0.0003203
0.00599635
0.00494681
0.00592307
0.00703559
0.00690679
0.0068737
0.00146519
0.00739713
0.000515929
0.00269969
0.00274324
0.00280354
0.00355774
0.00281164
0.00300567
0.00390868
0.00708864
0.00608178
0.00538124
0.00732378
0.00722749
0.00746549
0.00740572
0.00727917
0.00720046
0.00733124
0.00302242
0.000781729
0.00743988
0.000281741
0.000223513
0.00109411
0.00506667
0.00682904
0.000172451
0.00662428
0.00568263
0.00610759
0.00688514
0.00722378
0.00745157
0.00266962
0.00707898
0.000379272
0.0071659
0.00419872
0.00713445
0.00223543
0.00636061
0.00157207
0.00532153
0.001546
0.00355071
0.00722668
0.00282356
0.00723804
0.00709687
0.00531747
0.00178654
0.00296312
0.000162609
0.00683621
0.00572909
0.00352072
0.00713895
0.0014722
0.0063816
0.00607474
0.000692467
0.0063771
0.00289763
0.000389758
0.000148664
0.00226934
0.00167196
0.00223576
0.00617448
0.00332584
0.00151286
0.0049608
0.00239287
0.00716537
0.00653845
0.00390865
0.00493641
0.00410536
0.00740217
0.00146593
0.0022617
9.99796e-05
0.00191279
0.000409363
0.00712555
0.000594691
0.00125142
0.00068712
0.00712198
0.00697958
0.00338694
0.00036688
0.00378989
0.0074064
0.000178321
0.00679503
0.000128955
0.00028388
0.00717395
0.00738641
0.00364364
0.00385826
0.00154258
0.00070911
0.0059084
0.00443746
0.00295618
0.00372695
0.00691769
0.00696568
0.0069156
0.00696899
0.00476982
0.00653816
0.00514809
0.00688493
0.00419251
0.00690649
0.00678868
0.00670185
0.00704191
0.00529141
0.00682336
0.00382275
0.00692743
0.00716641
0.00709764
0.00710614
0.00203489
0.00497475
0.00559159
0.00727331
0.00730917
0.00726539
0.00734313
0.00119138
0.00368578
0.00424976
0.00457306
0.00520392
0.00457062
0.00743982
0.00746189
0.00736001
0.00732863
0.00742042
0.00735694
0.00752418
0.00572604
0.00552543
0.0068617
0.00708603
0.00686883
0.00544249
0.00682523
0.00698385
0.00459791
0.00679881
0.0069555
0.00606216
0.00513138
0.00180005
0.00252962
0.0070716
0.00051251
0.00320678
0.00581929
0.00264672
0.00628591
0.00674897
0.00120727
0.00131774
0.000706886
0.00742498
0.00740765
0.00583214
0.00100935
0.00714285
0.00593777
0.00720699
0.00519938
0.00694732
0.00562394
0.00721315
0.00738752
0.00441246
0.00252672
0.00681171
0.00530955
0.00707395
0.00615083
0.00556169
0.00730325
0.00572853
0.00734621
0.00453231
0.00530372
0.00662556
0.00683109
0.0026681
0.00685709
0.0066535
0.00380342
0.000475956
0.00433075
0.00501783
0.00284888
0.00333999
0.00692051
0.0042188
0.00720271
0.00498621
0.00753036
0.00710651
0.00080959
0.00718315
0.00617085
0.00553606
0.00549086
0.00761735
0.00730608
0.00738514
0.00756891
0.00758138
0.00253759
0.00057885
0.000819576
0.00161003
0.00113871
0.0011394
0.00388156
0.00382604
0.00452224
0.00112887
0.006387
0.000599358
0.000577844
0.00677247
0.00405571
0.00158747
0.00107965
0.00743094
0.00733532
0.00491573
0.00728704
0.00657197
0.00618068
0.0043102
0.00741753
0.00548492
0.00298779
0.0063565
0.00567651
0.00309853
0.00680725
0.00724969
0.00250408
0.00293695
0.00639175
0.00655399
0.0074361
0.00241617
0.00156094
0.00358024
0.0067241
0.0044008
0.000775403
0.00353816
0.00670529
0.00486807
0.00632969
0.00674513
0.00691488
0.001608
0.00540076
0.000962789
0.00499771
0.000217743
0.00102826
0.00624747
0.000109748
0.000103531
0.00708552
0.000464977
0.00201207
0.0071286
0.000474759
0.00162173
0.000237445
0.000213941
0.000222207
0.00070956
0.000391986
0.000379803
0.000105406
0.00693326
0.000361306
0.00606516
0.0040443
0.00323471
0.00625536
0.00287344
0.00447951
0.00681537
0.00510391
0.00038183
0.000504075
0.00650418
0.00491028
0.000607418
0.000212711
0.000282622
0.00500671
0.00700525
0.00722426
0.00353646
0.00402461
0.000960566
0.00715325
0.00688619
0.00677895
0.00714144
0.00711977
0.00436573
0.0070414
0.000230581
0.00478987
0.00122303
0.00073045
0.000996837
0.00438631
0.00521815
0.00734684
0.00705059
0.00412829
0.00739491
0.00687647
0.00742795
0.00743082
0.00366902
0.00291046
0.0074444
0.0069352
0.00724768
0.00464983
0.00687339
0.00726051
0.00379425
0.00649102
0.00649646
0.00556891
0.00674777
0.00461381
0.00672659
0.00704377
0.00222552
0.00120074
0.00557528
0.00414671
0.000708703
0.00249248
0.00560658
0.00591833
0.00702686
0.00152791
0.00694594
0.00704437
0.00711175
0.00570434
0.00698451
0.00662058
0.00496261
0.00435969
0.00735334
0.0069306
0.00499387
0.000137353
0.00743901
0.00721779
0.00740696
0.00564369
0.0046919
0.00329006
0.00236311
0.0069431
0.00317018
0.000633323
0.00727341
0.00609872
0.00683082
0.000804604
0.00305457
0.00252434
0.000403315
0.00111331
0.00226734
0.00170334
0.00302211
0.00195156
0.00172718
0.00134268
0.00692718
0.00329433
0.00409982
0.00502904
0.000118701
0.00698435
0.00300721
0.00367091
0.0036274
0.0028958
0.00379771
0.00197328
0.00297098
0.00300456
0.0048901
0.00604874
0.00705571
0.0046501
0.00322756
0.00687193
0.00541204
0.00662535
0.00644425
0.00214947
0.00387406
0.00430613
0.00664405
0.00650947
0.00669576
0.0043935
0.00325239
0.00648081
0.00741069
0.00742218
0.00715064
0.00414802
0.00749593
0.00445164
0.00428817
0.00431209
0.00385552
0.0073708
0.00578773
0.00751126
0.00745015
0.00522176
0.00737663
0.00577037
0.000353123
0.00667367
0.000363029
0.000284656
0.00313946
0.00684594
0.00729496
0.00440415
0.00144471
0.00621286
0.00673305
0.00198862
0.000337566
0.0013383
0.001763
0.00111203
0.00576659
0.00378394
0.000680616
0.00106195
0.000511311
0.00255456
0.000201854
0.000622198
0.000548401
0.000235295
0.000915639
0.00727094
0.00528521
0.00720354
0.0059486
0.0063856
0.00515126
0.00693588
0.00646868
0.00375643
0.00126509
0.00200779
0.00242535
0.00685508
0.00104767
0.00711278
0.00357453
0.00329793
0.00119744
0.00472246
0.00209146
0.000984355
0.00701997
0.00694035
0.00304722
0.00721669
0.00372065
0.0074289
0.00626901
0.00347949
0.00595574
0.00668458
0.005444
0.00658056
0.00520208
0.00422885
0.00512849
0.00425667
0.00691941
0.000120704
0.000926627
0.00668641
0.00629481
0.000139728
0.00128938
0.000597621
0.00683063
0.00121988
0.00422229
0.0069995
0.00267062
0.000770655
0.00390502
0.00588795
0.006701
0.00651775
0.00230321
0.00315193
0.000442576
0.00212599
0.00405288
0.00698853
0.00731007
0.00286066
0.00728984
0.00652244
0.00639434
0.00421412
0.00393759
0.00614374
0.0074604
0.00640609
0.00104471
0.00161146
0.000420904
0.0031433
0.00159212
0.000494101
0.00115228
0.00243324
0.00737649
0.00703574
0.00503559
0.0069013
0.00464593
0.00695018
0.00714781
0.0029463
0.00152387
0.000609873
0.0020724
0.00732279
0.000846848
0.00473163
0.00468151
0.00254529
0.00303927
0.00385554
0.00520072
0.00062986
0.00412456
0.00247682
0.00327888
0.00313498
0.00397838
0.00400093
0.00423513
0.00310843
0.00712455
0.00408333
0.00409671
0.00639671
0.00711684
0.00669648
0.00586924
0.00672139
0.0047445
0.00335752
0.00724746
0.00419538
0.00697711
0.00602645
0.00626863
0.00137192
0.00693642
0.00713683
0.00622193
0.00268361
0.00639894
0.00693716
0.00618536
0.00518482
0.00140728
0.00163962
0.00161835
0.00215719
0.00150059
0.0039143
0.00644072
0.00637542
0.00483157
0.00275786
0.00122393
0.00652824
0.00144079
0.00552316
0.00333313
0.00641539
0.00679794
0.00729048
0.00716032
0.00724375
0.00494751
0.00585491
0.00729675
0.00499871
0.00696825
0.00692524
0.0057696
0.00688622
0.00664247
0.00193877
0.00640251
0.00437554
0.00672045
0.00501656
0.00518985
0.0039542
0.00510812
0.00299493
0.00742387
0.00652516
0.00571492
0.00571127
0.00732092
0.00733715
0.00644479
0.00282844
0.0067734
0.00347568
0.00454798
0.00409411
0.00740151
0.00699881
0.00695282
0.00707976
0.00659728
0.00446468
0.00658833
0.00573844
0.00465023
0.00330099
0.00653247
0.00238054
0.00729585
0.0068709
0.00739228
0.00630331
0.00637884
0.00752597
0.00716505
0.00685291
0.00500191
0.00665286
0.00605073
0.00700844
0.00726209
0.00414048
0.00519321
0.00705069
0.00424061
0.00155942
0.00682823
0.00719881
0.00515962
0.00488738
0.00476414
0.00490996
0.00176163
0.0015991
0.000390942
0.00665196
0.00153566
0.000612031
0.00485147
0.00479998
0.000250389
0.000385595
0.00151237
0.00145633
0.00472352
0.00269107
0.00653972
0.00746887
0.00653121
0.00353392
0.0043931
0.0071664
0.00218319
0.00677554
0.00311565
0.00396465
0.00186414
0.00551278
0.00167378
0.00274552
0.00370389
0.00736619
0.00669153
0.00577172
0.00064589
0.000729352
0.000768312
0.00131127
0.000947281
0.00204349
0.00743422
0.000290463
0.00655106
0.00669871
0.00729564
0.00739291
0.00690592
0.000493653
0.00116609
0.00178399
0.00685926
0.00447285
0.00401056
0.00624943
0.00518215
0.00276548
0.00233944
0.0014515
0.00702108
0.000915811
0.00038435
0.00743276
0.00423747
0.00677062
0.00123258
0.00736495
0.00670022
0.00474422
0.00473216
0.00440848
0.00689719
0.00737207
0.00523017
0.00457083
0.00531216
0.007002
0.00533277
0.00744354
0.00715566
0.00740977
0.00641072
0.00637127
0.00469874
0.00523036
0.00697567
0.0016279
0.00705571
0.00414594
0.00514639
0.00472801
0.00294577
0.00171406
0.00307119
0.00124971
0.00712743
0.00649176
0.00662218
0.00351119
0.00747025
0.00637441
0.00126788
0.00751401
0.00750121
0.00716082
0.00233757
0.00147997
0.00302921
0.00551667
0.00397679
0.00471247
0.00505696
0.00214517
0.00511841
0.0024083
0.00675905
0.00570207
0.00705258
0.00635026
0.00439854
0.000975224
0.00053638
0.00307706
0.000113792
0.000605234
0.0006967
0.00708553
0.00693815
0.00724281
0.000586251
0.00649497
0.00723518
0.00547225
0.00454662
0.00695943
0.00251977
0.00267074
0.00365692
0.00255505
0.00267397
0.00207541
0.00285154
0.00158324
0.00035413
0.000308199
0.00400241
0.000807204
0.00352421
0.00104537
0.00105153
0.00134295
0.0020962
0.000151262
0.000453748
0.00019052
0.000377145
0.000521453
0.000202646
0.00127179
0.00160834
0.00104923
0.000112594
0.000938772
0.000318624
0.00675935
0.0068497
0.00739464
0.00741847
0.0074036
0.00678785
0.0068277
0.00690078
0.0067024
0.00425515
0.00265926
0.00375943
0.00687371
0.00539237
0.00280427
0.00230731
0.0061908
0.00737326
0.00677709
0.00597028
0.00516749
0.00701566
0.00719869
0.0028831
0.00734799
0.00735395
0.00454676
0.00730707
0.00401204
0.00119302
0.00477369
0.00468938
0.00336087
0.00644725
0.00752732
0.00296135
0.00513722
0.00738429
0.00424421
0.00445939
0.00703235
0.00429099
0.00725389
0.0051983
0.00742871
0.00678055
0.0056115
0.0069054
0.00564894
0.00441439
0.00483276
0.00701252
0.00687858
0.00711191
0.00474538
0.00372922
0.00695949
0.00435727
0.00702688
0.00718193
0.00651655
0.00705122
0.00553563
0.00469751
0.00421005
0.0069816
0.00109036
0.000517088
0.00231446
0.00401076
0.00728109
0.00739189
0.00751463
0.00665156
0.00709936
0.00184504
0.00661091
0.00734123
0.00699522
0.00610268
0.00654625
0.00381306
0.00734085
0.00208782
0.00750346
0.00754889
0.00723002
0.00733037
0.0073755
0.00691212
0.0059722
0.00488304
0.00504677
0.0074366
0.00750237
0.00490878
0.00481291
0.00503743
0.0051162
0.00749764
0.00726781
0.00701621
0.00554752
0.00671982
0.00720475
0.00428375
0.00400649
0.00678227
0.0071676
0.00207257
0.00712911
0.00480753
0.00689312
0.00314924
0.00334566
0.00716853
0.00724642
0.00700306
0.00691259
0.00703241
0.00513246
0.00407728
0.00727003
0.00689363
0.00729709
0.00345861
0.00154694
0.0070469
0.00369125
0.00725507
0.00749788
0.00737622
0.00244375
0.00450376
0.00590099
0.00664702
0.00705913
0.00722532
0.00531011
0.00210115
0.00438412
0.00744433
0.0066299
0.00649776
0.00166126
0.00211189
0.00729653
0.00303955
0.00758455
0.0067997
0.000724279
0.00709399
0.00690345
0.00555978
0.00489455
0.00401019
0.00730895
0.00359292
0.00185485
0.00118904
0.00061302
0.000187541
0.00083718
0.00741803
0.00708505
0.00523721
0.00721102
0.00743389
0.00571962
0.0016618
0.00347682
0.00118611
0.000518092
0.000766909
0.00705323
0.00719943
0.000215849
0.000368034
0.00659402
0.000357807
0.00732028
0.00735844
0.00585441
0.000190048
0.00029857
0.000405354
0.00742409
0.00721992
0.000652683
0.000486446
0.00727694
0.00742634
0.00413622
0.00219588
0.0035738
0.00737735
0.00359496
0.00585831
0.00404881
0.00505294
0.00691908
0.000373681
0.0070728
0.00394479
0.00547616
0.00748306
0.0070298
0.00697406
0.0075098
0.00693979
0.0074589
0.00211223
0.00562914
0.00122128
0.00608823
0.00558321
0.00678533
0.00674211
0.00324607
0.00719804
0.00667713
0.00688625
0.00676001
0.0012232
0.0070487
0.00169161
0.00180873
0.00320494
0.00451061
0.00722313
0.00678464
0.00016866
0.00724817
0.0010896
0.00673924
0.00701917
0.00601368
0.0038885
0.00743425
0.00722185
0.00568379
0.00700263
0.00504618
0.005468
0.00669843
0.00690121
0.00348911
0.000597915
0.00374634
0.00562689
0.00601687
0.00739315
0.00730331
0.00613291
0.00687327
0.0006161
0.000849554
0.00681355
0.00531667
0.00675281
0.000873827
0.00627015
0.00640471
0.00646177
0.00692789
0.00455797
0.00228296
0.0049297
0.00217397
0.00101381
0.00485257
0.00669026
0.00493667
0.00141906
0.00321039
0.00675114
0.00292693
0.000787781
0.0061263
0.00298202
0.0067303
0.0070539
0.00654944
0.0071306
0.00161782
0.00206817
0.00692251
0.00620286
0.00437291
0.00598408
0.00727882
0.00312074
0.00711371
0.0071049
0.00647847
0.00405239
0.00645099
0.00149907
0.0068058
0.00645929
0.00669091
0.00636714
0.00571507
0.00740002
0.00709771
0.0061557
0.00713657
0.00541981
0.00718835
0.00699927
0.00691378
0.00683783
0.00705935
0.00713116
0.00693246
0.00718186
0.00329868
0.000225923
0.00676937
0.00676006
0.00353636
0.00535355
0.00644954
0.000228025
0.00366147
0.000332893
0.00711153
0.00687811
0.00394574
0.00536869
0.00704703
0.00110094
0.00117692
0.00416077
0.00576623
0.00319763
0.00718569
0.00583472
0.00117898
0.00554006
0.00536234
0.00522102
0.00691783
0.00637171
0.00571818
0.00414299
0.00424339
0.00708215
0.00682706
0.00704574
0.00488239
0.00711545
0.00722448
0.00698044
0.00381879
0.00717585
0.00728112
0.00520268
0.00739749
0.00699289
0.00528108
0.00587353
0.00347606
0.00234804
0.00653892
0.00365726
0.00339731
0.00422402
0.00313222
0.00651971
0.00700108
0.00276293
0.00711697
0.00699006
0.00309228
0.00725689
0.00143584
0.00502974
0.00491076
0.00613777
0.00728211
0.00140311
0.000470151
0.00102385
0.00270023
0.00661211
0.00317861
0.00722485
0.00330356
0.00128954
0.0042262
0.000357825
0.00672625
0.00617711
0.000795413
0.0073163
0.00421087
0.00653722
0.00472162
0.00533311
0.00429777
0.00676146
0.00398926
0.00576568
0.00728547
0.00703902
0.00155542
0.0026146
0.00622251
0.00485281
0.00294895
0.00733325
0.00423341
0.00643804
0.00730951
0.00724834
0.00648205
0.000639871
0.00111609
0.00221323
0.00152449
0.000108614
0.000675705
0.00472208
0.00376517
0.00326343
0.00684801
0.00305878
0.00191133
0.00499638
0.00419524
0.00233396
0.00642955
0.0046932
0.00312671
0.00634696
0.00566043
0.00457889
0.00214682
0.00180324
0.0036861
0.00102762
0.00087046
0.00100474
0.00747259
0.00746614
0.00475234
0.00663682
0.00699
0.00330391
0.000688142
5.56371e-05
0.00320487
0.00286031
0.00738086
0.00114454
0.00400815
0.0024237
0.0063634
0.000481247
0.0017411
0.00124138
0.000117428
0.00242387
0.00124705
0.000438219
0.000131733
0.000285817
0.000439365
0.00134544
0.000572773
0.00759275
0.00497402
0.00738808
0.0062775
0.00742849
0.000509837
0.00700983
0.00416466
0.00472931
0.00346561
0.00258678
0.00753447
0.00711524
0.00677806
0.0071494
0.00721928
0.00295235
0.00700881
0.001886
0.00105183
0.00087346
0.00116668
0.00129992
0.00698995
0.0017353
0.00192718
0.000156872
0.00212248
0.00118229
0.000496976
0.000649516
0.000378604
0.000542576
0.000483425
0.00215255
0.000493109
0.00608608
0.00017365
0.000437633
0.00577876
0.00692165
0.00709951
0.00699794
0.000489693
0.00693913
0.000365794
0.0039531
0.0062523
0.00414668
0.00192283
0.00124105
0.000489215
0.00188865
0.000151612
0.000661052
0.000519033
0.000752219
0.00711855
0.00143982
0.000588215
0.00179435
0.00344522
0.00312864
0.00222745
0.00193221
0.00736178
0.000890011
0.000776582
0.00115933
0.00447113
0.00148659
0.00316656
0.00221623
0.00554524
0.00180718
0.00465917
0.00487187
0.00187886
0.000984792
0.000396478
0.00102334
0.000705592
0.000325235
0.000929403
0.000733598
0.00681531
0.00741542
0.00494877
0.00589533
0.00584463
0.00323276
0.00710816
0.00295989
0.00643282
0.00735419
0.00357355
0.00720859
0.00639857
0.00258037
0.00744801
0.00339534
0.00693349
0.00687206
0.00706018
0.00690094
0.00202109
0.00655257
0.00261799
0.00300867
0.00357068
0.00488695
0.00545033
0.00672604
0.0073864
0.00530508
0.00190125
0.00599565
0.0072635
0.00746195
0.00577148
0.00341596
0.00301347
0.00326564
0.00302859
0.00247961
0.00290637
0.00334541
0.00562483
0.00654275
0.00745086
0.00616869
0.00557278
0.00383217
0.00647551
0.00699621
0.00620957
0.00680718
0.003124
0.00559702
0.00524463
0.00327711
0.00361246
0.00359104
0.00320215
0.00499784
0.00589718
0.00413769
0.00248912
0.00647313
0.00635098
0.00545397
0.00627258
0.00487433
0.00431925
0.00736094
0.00713908
0.00671758
0.00736421
0.00750538
0.00721101
0.0050134
0.00358643
0.00111386
0.0075418
0.00741256
0.00521102
0.00337195
0.00327224
0.00698406
0.00593171
0.00717904
0.00473206
0.00528224
0.00640074
0.00468771
0.00362674
0.00733372
0.000152588
0.000555048
0.000331562
0.000175838
0.00719907
0.00478271
0.00478959
0.00430198
0.00158742
0.00411143
0.00479857
0.00371563
0.00708845
0.00236717
0.00722185
0.00529296
0.00182512
0.00483704
0.0070451
0.00518497
0.00610518
0.00327689
0.0055318
0.00355003