/*--------------------------------*- C++ -*----------------------------------*\
| =========                 |                                                 |
| \\      /  F ield         | OpenFOAM: The Open Source CFD Toolbox           |
|  \\    /   O peration     | Version:  2506                                  |
|   \\  /    A nd           | Website:  www.openfoam.com                      |
|    \\/     M anipulation  |                                                 |
\*---------------------------------------------------------------------------*/
FoamFile
{
    version     2.0;
    format      ascii;
    arch        "LSB;label=32;scalar=64";
    class       surfaceScalarField;
    location    "0.00481384";
    object      phi;
}
// * * * * * * * * * * * * * * * * * * * * * * * * * * * * * * * * * * * * * //

dimensions      [0 3 -1 0 0 0 0];

oriented        oriented;

internalField   nonuniform List<scalar> 
7516
(
0.000185215
-0.066128
0.0659428
0.00434302
-0.00894461
0.00525092
-0.000649329
-0.0145334
-0.00426959
0.00977119
0.00903183
-0.0271943
-0.00318588
0.0101319
0.0202483
0.000248477
-0.0005866
-0.000482707
0.00082083
0.0402931
-0.0422046
0.00191151
0.0234304
-0.00644546
0.0179607
-0.0349456
0.00555547
-0.00957962
0.00873729
-0.00471314
0.000169815
0.00116177
0.00953027
-0.0108619
0.00232316
-0.00159778
-0.00101238
0.000287006
0.00500706
-0.0017073
-0.00473727
0.00143751
-0.000899977
-0.00383218
0.0102876
-0.00435776
-0.00344608
0.0152922
-0.0537627
0.03035
0.073818
-0.0504054
-0.0168513
-0.0125502
0.0152171
0.0141844
-0.0134941
-0.000270955
0.0267149
-0.0129498
-0.0150732
0.00787789
0.0230442
-0.0158489
-0.000259145
0.00326617
0.00310312
-0.00611015
0.0475888
-0.031289
-0.00213232
-0.0141675
0.0295499
-0.0161596
0.0213072
-0.0346975
-0.0035007
0.00123891
0.00250735
-0.000245566
-0.00177675
-0.00152832
-0.000473375
0.0576673
-0.00178177
-0.0558855
-0.033884
-0.00104415
-0.00822975
-0.00186186
0.00206485
-0.000152403
-5.05881e-05
0.000848747
-0.00808566
0.0111842
-0.00394729
-0.00354929
0.0191412
-0.0324433
0.0303902
-0.0639784
-0.0164454
0.0500335
-0.00152436
-0.000346819
0.00021621
0.00165497
0.00755904
-0.0306979
0.0143394
-0.000540791
0.00052585
0.00133715
-0.00132221
-5.76041e-06
0.000180273
0.0012662
-0.00144071
-0.031778
-0.00571468
0.0369077
0.000584912
-0.000244419
0.00138942
-0.00312276
0.00197776
0.0206755
-0.0227808
-0.0104914
-0.0028161
0.00463467
0.00867287
0.000399952
-0.00352576
0.00288241
0.000243392
-0.00810597
0.0163156
-0.0126229
0.00441324
0.00330496
-0.00350372
0.00672126
-0.0065225
-0.00311068
0.00297456
0.00053607
-0.000131712
-0.00706605
0.000801589
0.00639617
-0.000552469
0.00666443
-0.0065204
0.000408437
-0.000752397
0.000100137
0.00683839
-0.00618613
-0.0015455
0.0014753
-0.00170656
-0.0440107
0.00402604
-0.00654214
0.0465268
-0.0387446
0.0224135
0.0127818
-0.0858997
-0.00857214
0.0944718
0.0025221
-0.00149407
-0.00122922
-0.00240158
0.0354644
-0.0429628
0.00990004
0.00179639
0.00228499
-0.00783788
0.0037565
0.033161
-0.00413766
-0.0121781
-0.0168453
-0.000169278
-0.0051228
-0.00231286
0.00419848
-0.00491621
0.00274281
-0.00202509
0.0744401
0.0941714
-0.0639611
-0.00397173
-0.00129251
0.00480776
0.000456488
-0.0185339
-0.0122391
0.0322214
-0.00144838
0.0516545
-0.0514362
-0.000218332
0.00331795
-0.000911497
-0.0050005
0.00259405
0.0467162
0.00162367
0.00196171
-9.50155e-05
0.0011977
-0.0030644
0.00949735
-0.0415164
0.00685006
0.025169
-0.000457604
0.0579154
-0.0574578
0.0338491
0.0145647
-0.00752993
-0.0408838
0.0338688
-0.0371948
0.00129613
0.00202991
0.00914277
-0.0204624
0.00974141
0.00157826
0.000105086
-0.00256372
0.00093427
-0.00241655
0.00183129
0.0011482
-0.000562938
0.00170215
0.0498385
-0.0515406
0.00144091
0.0034219
0.000319616
-0.00518243
5.8191e-05
-0.000108705
-0.00406438
0.0560929
-0.00664494
-0.049448
0.00311379
-0.00631372
0.00294078
0.00188524
0.00207746
-0.00290959
0.000172751
0.00923948
-0.011332
0.00191975
-0.00527422
0.00288779
0.00209708
0.000289339
0.00782373
-0.0214632
0.0153033
-0.00166384
0.0032318
-0.00296572
-0.00405014
0.00378405
0.0347331
-0.00592001
0.0059369
-0.03475
-0.00312515
0.00350636
-0.0153461
0.0149649
-0.00374511
0.00144682
-0.000118264
4.72223e-05
-0.000774418
0.003959
-0.00777077
-0.00128206
0.00913147
-7.86324e-05
0.00574646
0.00668776
-0.0265485
0.0141143
0.00508134
-0.0124377
0.00316898
-0.0061389
0.00114431
0.00248105
0.00251354
-0.0721002
0.0719935
0.000106649
-0.00740935
-0.082559
0.0178682
-0.000170341
0.000979088
-0.00377447
0.0581195
-0.0612051
0.00308566
0.00254822
-0.0300601
0.0856313
0.000746999
-0.00354245
-0.000167339
0.00296279
-0.00262169
0.00293995
0.00279553
-0.000537521
0.00103795
0.00182273
-0.00222498
0.00389552
0.000717472
-0.00238801
-0.00958572
-0.00334506
0.00836577
-0.0032795
0.0103757
0.00325765
-0.0103539
-0.0332281
0.0680563
-0.0521696
0.0173414
-0.0134107
-0.0013787
0.00760843
-0.0547181
0.0174172
0.0437822
-0.0064813
0.0195458
-0.0867826
0.0458475
0.0213893
-0.00120835
0.00897595
-0.00773926
-2.835e-05
-0.00350731
0.0106936
0.012775
-0.0199613
-0.00662216
0.00114498
0.00758981
-0.00211263
-0.0209
-0.000124521
0.0114388
-0.000986514
0.0384094
-0.00268976
-0.0053508
0.00941933
4.67107e-05
-0.00411525
-0.00553468
0.00543902
-0.000656743
0.00621685
-0.00465659
0.000150698
-0.00171097
-0.000105968
0.00174208
-0.00136057
-0.00233657
0.0103792
-0.0081827
0.000140038
-0.00198861
-0.00119381
0.00230129
0.000881142
-0.0128495
-0.00840288
0.0103171
0.0109353
0.00133117
-0.018391
0.00388616
0.0131737
0.00246997
9.63429e-05
-0.000763356
-0.00180296
0.00166039
-0.000703469
0.0111627
-0.00357839
-0.00660093
0.0169151
-0.00996231
-0.0223569
0.0538655
-0.0529545
-0.000911
-0.0222141
0.091989
-0.0159094
-0.0023275
0.00263212
0.000442381
-0.000159282
0.00221464
-0.00201722
-3.81333e-05
-0.0524007
0.0500071
0.00239362
-0.0459669
0.0590647
0.0172924
-0.0740833
0.0100855
0.0115971
0.0615549
-0.027946
0.0124621
-0.0460709
-0.00203638
-0.000352308
0.00024744
0.00214125
0.0515109
-0.00113553
-0.0503753
-0.000274298
0.00036856
-0.00213064
0.0017075
0.000330439
-0.00231224
0.00200919
-0.00216312
0.000228589
-7.46528e-05
-0.00294377
0.00262246
0.00167571
-0.00135441
0.00180661
-0.00347596
-0.000319267
0.000988714
-0.0015611
-0.00237139
-0.00288988
0.00205917
-0.00134207
0.00217278
0.062228
-0.0616153
-0.000612651
-0.00605249
-0.00943218
0.0777126
-0.00872659
-0.0501102
-0.00389659
0.0627334
-0.0570127
0.0577835
-0.00339408
0.0819355
0.0170228
-0.0662946
-0.0326638
0.0013616
-0.00145432
-0.00149004
0.00158276
0.0496737
-0.0678061
-0.00941147
0.0275439
-0.000241727
-0.00733379
-0.00319508
0.000940748
-0.00149078
-0.0509802
-0.000755948
0.0517361
0.0524636
-0.0495016
0.00212737
-0.00176814
0.0428213
-0.0186312
0.100553
-0.124743
0.00554398
0.00117113
0.000119018
0.00167149
-0.00296164
0.0315667
-0.0685985
-0.0269465
0.00204368
0.00429998
-0.00386746
-0.00247621
-0.0133797
0.00243185
0.00979768
0.00115021
0.0435265
0.0126328
-0.078323
0.0221637
0.000513867
0.0430127
-0.00176736
0.00556129
0.00356742
-0.00736135
0.0155443
-0.0199164
-0.0141618
-0.00189014
0.000544839
0.00281153
-0.00146623
-0.00129888
0.00154291
-0.00213417
0.00252953
0.000595769
-0.00176089
-0.00136441
-0.0125225
0.00968663
0.00975652
-0.00692065
0.0148806
-0.00234896
-0.0116522
-0.000879457
0.00743157
0.000164049
-0.00763717
4.15424e-05
0.00370441
-0.0046466
0.00390384
-0.00296165
0.00746363
0.000355014
0.00706199
-0.000616849
0.00296058
-0.00206314
-0.000130812
-0.00109264
-0.00401888
-0.00151236
0.000404375
0.00512687
0.00462197
0.000146727
-0.000953897
-0.0038148
0.00202344
0.000576059
0.00176678
-0.00436627
-0.00415843
0.00216299
-0.014692
0.00532394
-0.0236026
0.0329706
0.0322274
-0.037513
-0.0174987
0.0227843
-0.0195533
0.013597
-0.00704719
0.0130035
-0.0170708
0.00996778
-0.00758895
-0.00783727
0.000110474
-0.00934401
-0.0397103
0.0551507
-0.00563369
-0.0098067
-0.0369667
0.0179444
-0.000530943
-0.0247088
-0.00909582
0.0127921
0.0210125
0.0129295
-0.0176689
0.0546079
0.0241234
0.00170854
0.0541503
0.00487793
0.00596274
-0.00340909
0.0018676
0.00115041
-0.00291292
0.0123207
-0.00600652
4.11941e-05
-0.0063554
0.0310089
0.00652404
0.00940184
-0.0469348
0.0415242
-0.0258624
0.0204524
-0.0361141
0.0278559
-0.0495152
-0.018051
-0.0103196
-0.0305043
-0.00243827
0.0432622
0.00141599
-0.000353317
-0.00106268
-0.0296233
0.0023212
0.00566557
0.0216365
0.0174309
0.021594
-0.0158342
-0.0231907
0.00189329
0.00135361
-0.00349132
-0.00911332
0.0298026
-0.00784494
-0.00525188
0.0042181
0.00200658
-0.00850856
-0.0231213
-0.00191987
-0.00240813
0.01353
-0.00920204
-0.0667861
0.0782752
-0.0175415
2.81015e-05
0.00366186
-0.00363177
-0.00204886
0.0177463
-0.00286112
-0.0128363
-0.00845102
0.00583027
0.00131249
0.00130826
-0.0495072
0.0553448
0.0227401
-0.0285777
0.00210564
0.00377146
-0.00232039
-0.00355671
-0.0154108
-0.0515464
-0.0236765
-0.00221852
0.0288278
-0.0473813
0.0396757
0.00178558
-0.0289838
0.00463922
0.00120598
-0.000109672
-0.00346561
0.0023693
0.00451306
-0.00415805
-0.000326912
0.0465593
-0.0598983
0.00524781
0.00809115
-0.000602132
0.000333432
-0.0126041
-0.011413
0.0236837
-0.00348046
0.0023213
0.00248118
-0.00132202
0.000621041
-0.000214698
-0.00388681
-0.00491399
-0.0013134
-0.00779575
0.0140231
-0.0698365
0.0544126
-0.0774638
0.0928877
0.000936502
-0.00106726
0.00227422
-0.00214346
-0.00179163
0.0218822
-0.010285
-0.000483423
-0.00290306
0.00459868
-0.0012122
0.00409441
0.0123549
-0.0158293
0.0363526
-0.0470783
0.00780102
0.00292461
-0.00197981
0.00226875
-0.000820904
0.00053196
0.00247582
0.00281286
0.00248445
-0.00777314
-0.00258523
-0.00875634
0.000187533
0.011154
0.000146673
-0.00234088
0.00160474
0.000589462
-0.0116799
-0.00349685
0.00659833
0.00857845
5.4994e-05
-0.000135102
-0.00142071
0.00150082
0.00035131
-0.00230332
0.000798917
0.00115309
-6.18244e-05
0.0021076
-0.000698842
-0.00134693
0.00306166
-0.000659418
0.000127289
0.00189377
-0.0019006
0.000910559
-0.00168988
0.000238527
-0.000915378
0.00117963
-0.00128145
0.0010172
0.00053655
-0.00109106
0.000554509
0.00214526
-0.00930065
-0.00141244
0.00856782
0.00692366
0.0121393
-0.0162646
-0.00279838
0.000698151
-0.00809499
0.00726513
0.00838014
-0.000242781
0.000547998
-0.00868536
0.0009269
0.000938918
0.0015822
-0.00344802
0.00435357
0.000335751
-0.0069143
0.000827838
0.000635496
-0.00322647
0.00176313
-0.00162419
0.000494231
-0.000264764
0.00190953
-0.00209954
3.07279e-05
-0.00844612
0.00586133
-0.00190332
0.00460253
-0.00219962
-0.0022209
-0.025125
0.00688603
-0.0146463
0.0328853
-0.00516239
-0.00545801
0.00337233
0.00724808
-0.0237058
0.0235686
-0.00546613
0.00560339
-0.00222208
0.0139494
-0.000564636
-0.0105933
0.01813
-0.00534142
0.00505632
-0.0120209
0.00734588
-0.000381291
-0.00160708
0.00207847
-0.000270415
-0.000533816
0.00387307
-0.00306884
-0.043485
0.0439989
-0.00245884
-0.0151806
0.0176966
-5.7183e-05
-0.00549221
0.000397792
-0.00197163
-0.00205255
0.00129796
0.00101652
0.000578581
-0.00188228
0.00189578
-0.0111542
0.00741642
-0.0416847
-0.00231219
-0.0558707
-0.0022164
0.000652058
0.00263023
-0.00106589
7.10717e-05
0.00418786
-0.0727007
0.0685128
0.00542585
-0.021376
0.0030778
0.0128723
-0.00133872
0.00429296
-0.00220059
-0.00260334
0.00470821
-0.00150211
-0.000602761
0.0114219
0.00765162
-0.0317752
0.0127017
-0.00065173
0.00177405
-0.00173917
-0.00338553
-0.000756021
0.00229612
0.00184543
-0.00230405
-0.0325037
0.0108397
-0.00629053
-0.00502458
0.00380726
0.00750785
0.00206585
0.00181127
-0.00291103
-0.000966089
-0.000783501
0.00131485
0.00073759
-0.00126894
0.00215845
-0.00248156
-0.00149774
0.00361043
9.90252e-05
-0.00221171
-0.00183612
0.000348221
0.00148214
-0.00477958
-9.05274e-07
-0.0457291
0.00602102
0.039709
-0.00345338
0.0082767
-0.00356851
-0.00125481
0.00464304
-0.0157549
0.0691582
0.00690482
-0.0482071
-0.000248749
0.000894918
0.00183554
-0.00248171
-0.00178897
0.00430572
0.0053529
-0.00786965
-0.000304281
-0.000188544
0.00130539
0.00106484
-0.000739998
8.9141e-05
-0.000413981
0.0010192
-0.000500565
-0.00172666
0.00120803
-0.0118443
0.00888359
0.00291881
4.18633e-05
-0.049434
0.0579387
-0.00404593
-0.00445877
-0.00467208
0.00958876
-0.00801672
0.00310004
0.019304
-0.00418264
0.0105536
0.00143543
-0.0131825
0.00119351
-0.0146625
-0.00164038
0.00248307
-0.000380922
0.03897
0.00882701
-0.0006586
-0.0471384
0.00146841
-0.00220062
0.00108218
-0.000349969
0.000757051
0.00113883
0.000834361
-0.00273025
-0.00836722
-0.000839289
0.00217304
5.67186e-05
-0.00217074
0.00170151
0.000412504
0.000676071
-0.0056706
0.00305742
0.00193711
-0.000487906
0.00107469
-0.000499428
-8.73571e-05
0.00824448
-0.0107381
-0.043288
0.0457816
0.00800596
-0.000784412
-0.00859934
0.00137779
-0.00346557
0.00110807
-0.00141776
0.00377525
-0.00430562
-0.00121925
-0.00198207
0.046558
-0.0324056
0.000437731
-0.0145901
0.0120364
0.0163304
0.00677521
-0.0351419
0.00112371
-0.00119571
0.0022121
-0.00214009
0.000129836
0.00041001
0.00270377
-0.00324361
0.0657716
-0.0304048
-0.0575809
-0.00463519
0.00395685
0.000808172
0.00379456
0.00064871
-0.00403326
-0.00163851
-0.0386014
0.0381252
0.00211465
0.00228327
0.00125228
-0.00101079
-0.00252476
-0.0153825
0.00814051
-0.00118535
-0.000267025
0.000966004
0.000486368
-0.0110473
0.00221908
0.00548321
-0.0151573
0.00689734
-0.00358429
-0.0194
-0.0112337
-0.00545504
-0.00460493
0.00156987
-0.00845565
-0.00157561
-0.00664819
0.0029301
0.0052937
-0.00207275
0.00292157
-0.000439792
-0.000409028
-0.000723843
0.000210461
0.000142882
0.000370499
-0.00262865
-0.000705044
0.00543934
9.50775e-05
-0.007949
0.00635538
0.00149854
0.00901448
0.00219872
-0.0111181
0.0247422
0.0314192
-0.0321987
-0.0239627
-0.00238534
0.00741404
-0.0200393
0.0150106
-0.0109911
-0.00213928
0.0107814
0.0110576
0.00358312
-0.0155769
0.000936184
-0.0468412
0.0455507
0.00129044
0.00484235
-0.0342766
-0.00327863
0.0327129
-0.0009449
0.00153267
-0.00200934
0.00142157
0.00298206
0.000743114
0.00138825
0.0156303
-0.000855768
-0.0161628
0.00741695
-0.00135683
-0.0106973
0.00463721
-0.0463807
0.0429867
-0.00826578
-0.00495137
-0.00710898
0.0203261
-0.000481797
0.0032644
0.000758173
-0.00354077
0.00775931
0.00664094
-0.0244087
-0.000534469
0.00368454
-0.000665635
-0.00248444
0.00307699
-0.000353231
0.000245885
-0.00296964
-0.00283022
0.0059312
0.00431598
-0.00446606
-0.00186119
0.00333971
0.00298754
-0.00633114
0.0147807
-0.0278496
-0.0127293
0.000530512
0.0123629
-0.0102656
-0.00909656
0.0114131
-0.00837798
0.00237378
0.00717337
-0.00443921
0.00658799
-0.00304876
0.00889249
-0.0131545
0.00596248
-0.00170042
0.00225698
0.00167618
-0.0033571
0.0123654
0.00345071
-0.00727963
0.0411484
-0.0126472
-0.0302587
-0.00447537
-0.0372039
0.0419739
-0.00143525
0.000516827
3.33264e-05
0.000885099
-0.000490929
0.00150078
0.000750553
-0.00176041
0.000187441
-0.00116259
0.000251309
-0.0594957
0.0576083
-0.00779709
0.00968444
-0.00896472
-0.00154702
0.00534934
0.00460885
-0.00705942
-0.00651415
0.00527053
-0.00073764
0.00378506
-0.00831795
0.00189932
-0.000757141
-0.00894819
0.00780601
-0.00558998
0.0127227
-0.00530409
-0.00182863
-0.0022315
0.00100798
0.00309112
0.00658285
0.00115472
-0.0147547
0.00701718
0.0122408
-0.0112363
0.00557835
-0.00538699
-0.0435398
-0.010166
-0.000649207
0.00753574
0.0154957
0.0120814
0.022215
-0.0497921
0.0245282
-0.0521227
0.00160003
0.0259944
0.00370897
0.00905105
0.00260721
-0.0153672
0.000992658
-0.00323433
0.011723
-0.00948132
0.0175439
-0.0143334
0.0137123
0.00190906
-0.00128804
-0.0308384
-0.00418763
0.00917311
0.0223292
-0.00357998
-0.0279223
0.0389376
-0.000752137
-0.0399138
0.00172839
-0.00118431
-0.0581754
0.0593597
-0.0100607
0.00396052
0.0482294
-0.0421292
-0.0443828
-0.00173142
0.0449299
-0.00295069
0.0205184
-0.00155224
-0.0160154
0.00355342
-0.01878
-0.0156118
-0.00301674
0.020225
-0.020159
0.00347374
-0.00226249
-0.000615482
0.00520932
-0.00534755
0.011076
-0.0109378
-0.00306835
0.00301743
-0.00173019
0.00881924
-0.000339798
-0.00674925
-0.000973297
0.00179003
0.000415884
-0.00123262
-0.0369671
0.00513674
0.0976019
-0.0113013
0.00565386
0.00538385
0.000263584
-0.0009839
-0.00318143
0.00217656
0.00198877
-0.012225
0.0012342
0.000967513
0.0100233
-0.00157989
-0.0017331
0.00817771
0.00580056
-0.00438994
-0.00958834
0.00129029
0.00102273
0.00540007
-0.0051623
0.00338421
-0.00362198
-0.000562307
0.0014376
-0.000875289
-0.00238581
-0.000413378
0.000502925
0.00229626
-0.00751449
0.00185217
-0.00771742
-0.00156886
0.00230144
0.0184086
-0.00026991
0.000745581
-0.00207345
0.0106151
-0.000835389
-0.0061617
-0.00361797
0.0126666
-0.016537
0.00961688
0.00514083
-0.00802978
-0.00260326
0.00251019
0.0029078
-0.00447116
-0.000946832
0.034678
-0.0486551
-0.0279315
0.0419085
-0.00451115
-0.0190415
0.00589085
0.0176618
-0.00109422
-0.000115944
-0.00133496
0.00254512
-0.0123239
0.0103649
-0.000974899
0.00443919
-0.00653734
-0.00114814
0.00324629
-0.010395
-0.00076852
-0.00306886
0.0142324
-0.00289744
0.00258665
0.000471991
0.00998673
-0.0106778
-0.0033328
0.000681518
-0.00965356
0.00412048
0.00485156
-0.0525456
0.0929648
-0.000181098
0.000403696
0.000514456
-0.000737055
-0.0155796
-0.00358095
0.0165753
-0.0085691
0.000689376
-0.00434531
0.0108469
-0.00766943
-0.00322872
5.12625e-05
-0.0169205
0.00358157
3.76018e-05
0.0133013
-0.00174506
0.00698345
-0.00991046
-0.00163182
0.00395968
0.0013376
0.003123
-0.00842028
0.0332932
-0.0136621
-0.0333981
0.0137669
-0.0103827
-0.0141946
-0.00500478
-0.00399915
0.0027335
0.0101492
0.000624672
-0.000769591
-0.0024736
0.00261852
-0.0026173
0.000853257
-0.013062
0.014826
0.00258171
-0.00101593
-0.000848303
-0.00208977
0.00340211
-0.0102333
-0.00173791
-0.0211259
-0.030233
-0.0580462
0.00304338
0.0550028
0.010919
-0.0113928
-0.00444019
0.0330034
0.00271944
0.00592343
-0.0416463
-0.00500412
0.00298522
-0.00351577
-0.00100423
0.00100762
0.0043324
-0.00433579
0.0417461
0.00991485
-0.00499206
-0.0466688
0.0567613
-0.0973296
0.0147059
0.0280197
-0.0237978
-0.0642542
0.0600323
0.00245084
-0.00461094
0.00895587
-0.00679577
0.0363653
0.0446131
-0.054202
-0.0267764
-0.0305017
0.0292334
0.0257966
-0.00541376
-0.00253147
0.00642759
0.00875288
-0.0111373
-0.00404317
0.00595037
0.00421105
-0.0094799
-0.00177392
-0.00491764
0.00128498
-0.0214288
0.00538275
0.00231506
0.013731
0.0186148
-0.0490548
0.00931409
-0.00480774
0.0113661
-0.0200574
-0.00827749
-0.00253516
0.00259172
0.000263938
-0.00414852
-0.00331041
0.00556732
-0.00463689
-0.00448227
0.000963346
0.000897237
-0.00802113
0.00620932
-0.000524771
0.00584563
-0.0668876
0.0029362
-1.37769e-05
-0.000338418
0.000386414
-3.42188e-05
-0.00171022
0.00159063
0.000176311
0.00323363
-0.000964231
-0.000110953
-0.00551245
0.00185624
0.00542299
-0.00185042
0.0012499
0.000359018
0.000241504
-0.000928306
-0.00121873
-0.000801357
0.00294839
0.0113065
-0.0181824
0.00640756
0.000468365
-0.000210436
-0.000248508
-0.00532144
0.00557366
-0.00273233
0.00147045
-0.00431178
0.000467148
0.00211797
-0.00121162
-0.0013735
-0.00592342
0.0112451
-0.00687546
0.00155379
0.0125813
-0.00798964
-0.00374289
-0.0214092
0.0218871
-0.0135016
0.0130237
0.00390019
-0.00551624
0.00321218
-0.00159613
-0.000442579
-0.0577328
0.00612719
0.00372863
-0.00463155
-0.00522428
0.00172536
-0.00256794
-0.000340677
0.00118325
0.00299034
-0.00485094
-0.00277459
-0.0113688
-0.00197187
-0.000295683
-0.00151417
0.0012194
0.000590454
-0.00363996
0.00239478
0.0028065
-0.00156131
0.000856164
-0.000282837
-0.000593318
1.99909e-05
-0.0129485
0.00762675
0.00508828
0.00023348
-0.00188898
-0.00861671
-0.00244281
0.00329619
-0.00109301
-0.00110241
-0.0020255
-0.00103014
-0.0021111
-0.00114908
-0.00204588
0.00089659
-0.000961807
-0.0027929
6.39311e-05
-0.0333624
0.00731346
-0.0258635
0.0519124
-0.0870239
0.0426774
-0.0380462
0.0823928
-0.00272312
-0.000760476
-0.000156361
-0.0862515
-0.000587165
-0.00586459
0.00267731
-0.0164074
0.0195947
0.00290577
-0.0485122
0.0397418
-0.0554043
0.0503038
0.00800626
-0.00300567
0.00192934
-0.000996417
-0.00350294
0.000262479
0.00139358
0.00184688
-0.000126063
-0.000888276
0.00154019
-0.00159061
0.00189779
0.000431833
-0.000739007
-0.00178625
0.0018999
0.00162843
0.042587
-0.0126124
-0.115692
0.0857174
-0.0824955
-0.0565353
0.0652361
0.0737947
-0.0843759
0.00591349
0.00671259
0.0717498
0.00917766
-0.0509665
-0.00033568
7.23468e-05
-0.00152292
0.013985
-0.000895122
0.0258801
-0.000492515
-0.00263545
-0.00599107
-0.00133988
0.000261037
-0.00264904
-1.32646e-05
0.00160854
0.00105376
-0.00442997
0.00710221
-0.00971707
0.00704483
0.00302032
-0.00923927
0.00518347
0.00898065
-0.00551536
-0.00864875
-0.00192096
2.08832e-05
0.00708354
-0.00221036
0.00202041
0.00346531
-0.00327536
0.0108088
-0.0873908
-0.00490253
0.00259242
-0.00225775
0.00456786
-0.00294883
0.00305565
-0.00233652
0.00107998
-0.00179911
-0.00740595
-8.57998e-05
0.00933727
-0.0114411
0.00903016
-0.0069263
-0.00295357
-0.018171
0.0170664
0.00405813
0.00151229
-0.00352842
0.00189787
0.00152051
0.00136588
-0.0013741
0.00250765
0.00068401
-0.00202053
0.00252458
0.00294056
0.00897896
0.0312306
0.00277747
-0.0429871
0.00169532
-0.00623127
0.00107038
0.000392495
-0.00173416
0.00177919
0.00088975
0.0109833
-0.0148267
-0.000629541
0.00755424
-0.00682457
0.000670252
0.00265457
0.000425003
-0.000625595
0.00200134
-0.00180075
0.000356945
-0.00894905
-7.28643e-05
-0.00032593
-0.00232421
-0.00157504
0.0103948
0.00179532
0.00127715
-0.00470973
0.00301603
0.000416552
-0.00295819
0.0028801
0.00305078
0.00891508
0.00856369
0.00865548
-0.0134048
-0.00381436
0.00559547
0.00741944
-0.00445122
0.00659737
-0.00576455
0.00782267
0.0126927
-0.000499813
-0.0022413
0.00387976
0.00591579
0.00121156
0.0523236
-0.00266888
-0.0496547
-0.0130789
-0.00877183
-0.0038125
0.0256632
-0.0104605
0.0129936
-0.0156119
0.00185443
-1.40738e-05
-0.00181674
-2.36186e-05
-0.00794082
-0.00122027
0.0582468
-0.0642166
-0.0148607
0.0208305
-0.017249
0.0178374
-0.0107339
0.0101455
-0.0131986
0.00116305
-0.00897769
-0.00650625
0.000327197
-0.000111477
0.0047453
-0.00799796
-5.77369e-05
-0.00609273
0.0111306
-0.0140156
-0.00950064
0.00486906
-0.00421005
0.00884163
-0.0112688
0.0160979
-0.00777848
0.00294945
-0.00445254
-0.000426853
0.00263706
0.00224233
0.0125157
0.0265547
-0.0274236
-0.0116468
0.00643759
-0.0033103
0.000419654
-0.00354694
0.0040684
-0.00324065
0.00361144
0.00556016
-0.00812972
0.00691009
0.00361041
-0.0120961
-5.29172e-05
0.00223934
-0.00461246
0.00922947
0.00269806
-0.00731507
-0.00261125
0.0022324
-0.00142365
-0.00268167
0.00106466
0.00196666
-0.0113987
-0.00996503
0.0102128
8.3497e-05
0.000942648
-0.000884687
-0.000141458
0.00507445
0.00685974
-0.0059011
-0.0060331
0.00412448
0.00116734
0.00508392
-0.000525276
0.000807298
7.39694e-05
-0.000355992
-0.0142926
0.014921
0.0106781
-0.00182267
-0.00945956
0.0082907
0.00299153
-0.00790564
-0.00316255
0.00407691
0.00699128
-0.0554626
0.0302332
-0.0549003
0.0801298
0.00472511
-0.0025584
-0.0103952
0.00822849
0.00878959
-0.0126697
-0.00489207
0.0087722
-0.00210666
-0.0101277
0.00900001
0.0129457
-0.0117482
0.00935616
0.00131701
0.0113192
0.000309422
0.00257029
-0.00796214
-0.00349485
0.0088867
0.0113371
-0.00305856
0.00397345
2.60531e-05
-0.0123281
0.00529701
-0.0130435
-0.00917578
-0.00321495
0.00966023
0.00273051
-0.00494584
0.00888794
-0.0131179
-0.00906854
-0.00380186
0.00160155
-0.0153909
0.00776018
0.00429732
0.00333337
0.00152609
-0.00289499
0.000395608
-0.00228328
0.00263586
-0.000887045
-0.00379933
0.00228323
0.000337289
0.00117881
0.00285242
0.000437705
-0.00034533
0.00116939
-0.00129103
0.000466963
0.00225082
0.000185249
-0.00139476
0.0321254
-0.00190079
-0.0288298
0.0394399
-0.0359923
0.00816923
-0.00941152
0.00318695
-0.00194465
-0.0144014
0.0130331
-0.0152014
0.0165697
0.00507408
-0.00570784
0.00175182
-0.0311618
-0.00604801
0.00233736
0.0896517
-0.0377243
0.000875216
-5.79083e-05
0.00025767
-0.00107498
-0.00134572
-9.95166e-05
0.000529859
-0.000447873
0.000313428
0.00131407
0.00951332
-0.00734685
-0.0069633
0.00479683
-0.000606042
0.00435415
-0.0196177
0.002217
-0.00259379
0.010756
-0.000697767
0.00637756
-0.00778645
-0.00275973
0.00310263
0.00224882
0.016504
0.0285959
-0.0345871
-0.0105128
-0.0503538
6.99672e-05
0.0502838
0.0228826
-0.0660893
-0.00714708
-0.0353765
-0.00123651
-0.0626934
0.0768255
0.0286892
0.0134624
-0.0686766
-0.00747926
0.0454757
-0.00187824
0.0717795
-0.0707626
0.0124455
-0.000724686
-0.00167496
0.00279214
0.00172022
0.0031027
5.67081e-05
-0.00248916
0.00408457
0.0275717
-0.0272007
0.00796414
0.0175787
-0.0372614
0.0122916
-0.0233769
0.0133764
-0.00229108
-0.0184691
-0.00111067
0.0100791
0.0129949
-0.0105689
-0.00360004
0.00117406
-0.00836544
0.0146875
-0.00354837
-0.0027737
-0.00911906
-0.0207002
-0.00477257
0.0415453
-0.0160726
0.00285804
-0.00466824
-0.00264234
0.000477255
-0.00231764
-0.000605553
0.00262839
-0.00455235
0.000879044
0.00644103
-0.00684816
0.019957
-0.0195499
-0.00507519
0.0053217
-0.0116158
0.0113693
0.0155318
-0.00126703
0.00909978
-0.00107807
0.000753158
0.001851
0.000122537
-0.00303611
0.00183551
0.00343892
0.00712257
-0.0087651
0.000326571
0.00862685
-0.0104357
0.00148227
-0.000926064
-0.00295908
0.00144617
0.000708315
-0.00313431
0.00222455
0.000201444
0.00125628
-0.00111339
-0.00118784
0.00104495
-0.0032515
-1.40624e-06
0.00222606
0.000265068
-0.00135212
-0.00113902
-0.00282105
0.00286545
-0.000955541
0.000911136
0.00319615
-0.00544567
-0.00187239
-0.00177309
0.000823068
-0.00330034
0.000410671
-0.00453368
0.00135221
0.00438745
-0.00108155
0.00211637
0.00676556
-0.00780039
-0.00115296
0.00125066
0.0063399
-0.00162113
-0.00566147
0.0017055
0.00557711
0.000366695
0.000920324
-0.0058207
-2.68032e-05
-0.00192832
0.000104698
-0.00148485
0.00153788
-7.98307e-05
0.000884404
-0.00219298
-0.000619742
-0.00294344
0.0252471
-0.0437129
-2.18684e-05
0.00453683
0.0457427
-0.0475961
-0.00268342
-0.00305306
0.00633533
-0.00671743
0.00343517
0.000447921
-0.00041365
0.0053658
4.27935e-05
-0.00443268
-0.0036808
0.00807069
0.00505029
-0.000656325
-0.00112779
0.0042915
-0.000251367
-0.00359221
0.0360781
-0.0479718
0.0129236
-0.00102996
0.00726051
-0.0231334
0.00606382
0.00980906
0.00856188
-0.0071756
0.00587423
-0.00127291
0.001594
-0.00765152
0.00733042
0.000161756
-0.0072916
0.00585693
0.00376115
-0.012296
-0.00993429
0.0157654
-0.0034424
0.0021438
0.000683792
-0.000783915
-0.0560042
0.0631894
-0.0443256
0.0371404
0.0038087
-0.00216293
0.00049803
-0.000552558
0.00159443
-0.00194311
0.000901239
-0.00122853
0.00226272
0.000772424
-0.00416583
0.00294488
-0.00103354
-0.00317369
4.14017e-05
-0.0117255
-0.00101627
-0.000663048
0.00411967
0.0438671
-0.00714468
0.00226874
-0.00684955
-0.00799325
0.00707844
0.0033652
-0.00245039
0.00488525
-0.0517438
0.0468585
-0.0363173
0.0412025
0.00193284
0.000901875
-0.000420219
-0.0024145
-0.0562782
0.0662958
-0.0463349
-0.0405216
0.0471507
0.00973045
0.026332
-0.0416051
-0.00840339
0.00333436
-0.00142894
0.00280279
-0.0169768
0.0102338
0.0274185
0.0157582
-0.0512357
0.00673463
0.0287429
0.00558498
-0.0479531
0.0253913
-0.00621069
-0.0200135
0.00214288
-0.0824989
0.0790918
0.0747009
0.00413405
0.00236411
-0.034914
0.003863
-0.00674801
-0.0124997
0.0153847
-0.072038
-0.0618618
0.0716872
0.0622126
-0.0516621
0.0407538
0.016046
-0.0051377
0.00036561
0.00276303
-0.0520545
-0.0044808
0.018754
-0.0301582
-0.0113765
0.0294131
-0.00406999
0.0085059
0.0365738
-0.16104
0.0382145
0.0015998
0.0045355
-0.00909328
0.00295798
0.00674294
-0.0204845
0.00504109
0.00870045
0.0147488
-0.0104719
0.00483056
-0.00910747
0.0282224
0.0726066
-0.0738827
-0.0269463
-8.65703e-06
4.57585e-06
0.00091464
-0.0466304
0.0118628
-0.00243635
-0.00113046
-0.0348069
0.063957
-0.0775143
0.044929
-0.0228774
0.0334462
-0.0581348
-0.0203696
0.0450582
0.0195776
-0.0200728
-0.0461351
0.00233028
0.0555851
0.0242099
-0.00729777
0.0207016
-0.0376137
0.0412467
-0.0262439
-0.0482423
0.0332395
-0.0234363
0.0148011
-0.0369222
-0.0558684
0.0487799
-0.00140712
0.0161488
-0.0137125
-0.00102916
0.00328843
-0.0046509
0.000590318
0.000772153
-0.0376034
0.0490778
-0.0114743
0.0136585
-0.0129686
-0.0017061
0.01201
-0.027223
0.00713974
0.00841062
0.0126592
-0.0282095
0.00934794
0.0100802
-0.0122884
-0.0161756
0.00959111
0.0149951
0.0349944
-0.0181666
0.0719004
-0.0786325
-0.0286444
0.0115954
0.0923394
-0.0320345
-0.0369681
0.0200399
0.00927673
0.00765144
-0.0220258
-0.00277656
0.0363978
0.0579629
0.0238733
0.0209719
-0.0196687
-0.0251765
0.00426756
-0.0381674
0.0381752
-0.00427537
-0.00901181
0.00818149
0.0112384
-0.0104081
0.00713197
-0.00644949
-0.00315128
-0.00239514
0.00964153
-0.00303762
-0.00420877
0.00586999
-0.0522997
0.0464298
0.00137187
-0.0346656
-0.0294086
0.0585607
0.00551355
0.00898654
-0.000382589
-0.0120573
0.103057
-0.163758
0.0420705
-0.00677307
-0.00976877
-0.0271276
0.0379377
0.010949
0.0413618
-0.0434837
0.0399009
0.0275611
-0.0945897
-0.00214712
0.00183613
-0.00314665
0.00171151
-0.00232675
-0.115678
0.107106
0.00332274
-0.00675696
0.000214154
-0.0020296
-0.00345877
-0.000365055
-0.00193256
0.00197349
0.000324123
0.000774523
0.000124179
0.00120057
-0.00158508
0.000260332
-0.0037822
0.00172477
-0.00124291
0.00308533
-0.00519343
0.00278417
0.00205176
-0.00119014
-0.00607702
0.00956741
0.00365156
-0.0136632
0.000444242
-0.00366626
0.000681404
-0.00203972
-0.00164732
0.0516544
0.0105058
-0.00840208
-0.00174675
-0.02899
0.0392544
-0.00201995
0.000886831
0.00191908
0.0483759
-0.0383028
0.0011935
-0.0112666
0.0129123
-0.000914763
-0.00121456
-0.010783
-0.0286896
0.00245956
0.0285501
-0.0023201
0.0496394
-0.0497674
-0.0552762
-0.00423844
0.00287986
0.0565093
-0.0446912
-0.0732
0.075407
-0.00220704
-0.00200839
0.0426412
-0.0493273
-0.0033074
0.000607631
0.000373246
0.00232653
0.00214792
-0.0332912
0.00646736
0.024676
-0.023302
-0.0543779
-0.00659092
0.00229581
-0.0138759
0.002728
-0.00584611
-0.00654263
-0.00130606
0.00310038
0.00109348
0.00393843
-0.00242258
-0.0013017
0.00904585
-0.0675537
0.0510985
-0.00333799
0.000774584
0.00147031
0.00109309
-0.00694655
-0.0052331
0.0109655
0.00121413
-0.0118592
0.0048283
0.010152
-0.0290343
-0.0036745
0.0225568
0.00324155
-0.00160078
0.0615681
0.00384102
-0.0654092
0.0265759
-0.017175
0.000751155
0.0272937
0.00568327
0.00310112