/*--------------------------------*- C++ -*----------------------------------*\
| =========                 |                                                 |
| \\      /  F ield         | OpenFOAM: The Open Source CFD Toolbox           |
|  \\    /   O peration     | Version:  2506                                  |
|   \\  /    A nd           | Website:  www.openfoam.com                      |
|    \\/     M anipulation  |                                                 |
\*---------------------------------------------------------------------------*/
FoamFile
{
    version     2.0;
    format      ascii;
    arch        "LSB;label=32;scalar=64";
    class       volVectorField;
    location    "0.00481384";
    object      U;
}
// * * * * * * * * * * * * * * * * * * * * * * * * * * * * * * * * * * * * * //

dimensions      [0 1 -1 0 0 0 0];

internalField   nonuniform List<vector> 
3972
(
(8.35734 -0.141224 1.54952)
(9.32434 -0.574389 0.318976)
(10.2109 -0.0744659 0.143654)
(10.3031 0.0204709 -0.0493401)
(1.91302 -3.86755 -5.13377)
(9.93095 -0.268701 0.294855)
(10.7852 -0.17489 -0.548825)
(9.13827 -0.826711 -0.199651)
(9.60514 -0.650335 -0.333975)
(9.56753 -2.37337 -0.76167)
(9.99323 -1.01589 -0.383329)
(8.80181 -0.971654 -0.162228)
(10.3453 0.816762 -0.0510632)
(9.48954 -0.659141 -0.43676)
(10.3164 -0.0815022 0.0785737)
(9.80935 -0.364339 -0.218397)
(10.3135 -0.00532463 0.195332)
(11.0114 -0.402722 0.33407)
(9.82499 0.0394595 -0.186423)
(10.2617 -0.21459 -0.180974)
(12.5599 5.14293 2.04627)
(11.5026 0.527378 1.62428)
(9.18898 0.129748 1.10591)
(10.3576 0.150738 -0.389329)
(16.037 -3.70856 -1.56751)
(9.47733 -0.486921 0.0908741)
(10.6599 0.073198 -0.254372)
(10.323 0.494274 0.226375)
(11.6731 -0.621007 0.599365)
(9.80438 -0.0597365 0.0755371)
(11.4879 -1.16985 3.22201)
(9.15799 -5.20478 0.684769)
(8.82197 -0.818067 -0.883715)
(11.8342 -1.12495 0.159947)
(9.57161 -0.023416 0.138034)
(10.0339 -0.283158 0.372545)
(11.2165 -0.450229 0.129684)
(10.6013 0.248491 -0.333434)
(9.89316 -0.692142 0.56689)
(11.2908 -0.591224 0.113955)
(10.905 -0.198807 -0.14572)
(10.551 0.323942 0.0953423)
(9.57943 -1.1635 0.271578)
(11.5528 0.230218 1.18819)
(10.4689 0.0916115 0.106661)
(10.2198 -0.956229 0.818329)
(9.51896 -0.521969 -0.377445)
(11.8291 -0.876497 0.210837)
(9.99057 -0.164309 0.269235)
(9.50116 -0.529168 -0.186087)
(10.327 0.0087627 0.0117476)
(10.152 -0.712597 0.5599)
(11.0576 -0.0681918 0.513389)
(10.5271 -0.00794103 -0.378454)
(10.8177 -1.37917 0.253239)
(9.34121 0.795012 -0.210572)
(10.1663 -0.220791 1.22032)
(9.80622 -0.6859 0.706382)
(10.1257 -0.395603 -2.68215)
(12.306 -0.35971 0.916368)
(8.24275 0.950289 0.0811562)
(8.92687 -1.72525 -0.1914)
(9.94838 0.178023 0.0323989)
(9.44788 0.403362 -0.511177)
(10.4259 -0.63303 0.315934)
(11.6295 -0.721576 0.375717)
(11.6318 -1.90181 -0.802581)
(10.3481 0.015603 0.1563)
(11.1373 -0.705591 0.125488)
(11.3198 1.49891 1.0426)
(9.56861 -1.36292 -0.760229)
(11.0607 -0.560191 0.380707)
(12.3559 0.947042 0.324362)
(10.1801 -0.232584 0.412257)
(11.5296 0.426784 0.35149)
(9.68056 0.114575 0.0337852)
(10.2427 -1.25242 -0.561732)
(9.89307 0.252671 0.023772)
(10.4361 -0.597895 -0.178468)
(11.3202 -2.12008 -1.01343)
(10.3509 -1.41374 -0.668209)
(10.3796 0.323286 0.0543687)
(9.61145 -0.509578 0.0469086)
(10.3761 -0.698832 -0.201987)
(9.71924 -1.12166 -0.0192206)
(10.0549 -0.337221 1.05243)
(9.95405 -0.0953058 -0.302197)
(9.99403 -1.37587 -0.638903)
(9.50146 -0.684654 -1.48133)
(9.70884 0.492626 -1.06473)
(10.0261 -1.77222 -0.871999)
(11.1763 -0.489109 0.285923)
(9.69529 -2.46635 -0.764382)
(9.85021 -1.19778 -0.890201)
(9.83556 -0.641083 -0.353476)
(10.0562 -0.366526 0.316772)
(10.4985 -0.0165572 -0.162932)
(10.3231 0.270308 -0.0283314)
(10.0435 0.657419 -0.643845)
(9.82473 -0.921583 0.0425503)
(9.96862 -0.518677 0.258459)
(10.5271 -0.233149 -0.0482943)
(9.96924 -0.533195 0.472903)
(10.0682 -0.43176 -0.377939)
(10.1396 0.916888 0.341699)
(10.0591 -0.524043 -0.256809)
(9.08021 -1.14271 0.437508)
(10.9162 -0.10676 0.130737)
(11.4215 -0.562165 0.357643)
(10.5595 0.0035346 0.0485728)
(9.27547 -2.09674 -0.144505)
(10.0947 -0.362824 -0.149564)
(10.3808 -0.00246017 -0.233491)
(10.1487 -3.32896 -1.29432)
(10.1845 -1.02426 -0.410416)
(10.5654 0.32608 -0.0545643)
(9.94233 -0.404553 0.427586)
(9.8445 -0.595688 1.20899)
(9.97823 0.122545 1.01141)
(10.2408 -1.59894 -0.557678)
(6.97443 -2.77982 -1.09543)
(9.72849 -0.704356 1.20836)
(9.96329 -0.0345116 0.704698)
(10.1256 -0.908055 0.0439864)
(9.51142 -0.59788 -0.329257)
(13.0602 -1.66567 2.28242)
(9.79692 -0.751917 -1.56578)
(13.1799 -1.8104 1.36243)
(12.6511 -2.44073 -0.0936458)
(14.5147 -0.251937 -0.0496752)
(13.3855 -0.835186 1.41103)
(9.25344 -1.86277 -0.0819149)
(13.4171 -1.26704 1.07767)
(13.073 -3.15305 -0.37873)
(10.1698 -0.612044 0.561909)
(10.071 0.242215 0.857198)
(9.62841 -1.27285 0.716629)
(9.88971 0.894146 -0.9571)
(10.5645 -0.275451 -0.487833)
(9.49461 0.167766 0.54195)
(10.7481 -1.59515 -0.589528)
(10.0089 0.13949 0.311002)
(8.46633 -1.1548 0.936822)
(11.0097 -2.21739 -1.03855)
(10.4933 -1.12775 1.07911)
(9.62951 -0.0687934 0.594981)
(11.1801 -0.344716 0.372333)
(9.97444 -0.234746 -0.0378388)
(10.0701 0.750501 0.0703262)
(10.7011 -1.7859 -0.500514)
(10.2972 -0.275129 0.681795)
(9.79149 -1.02825 -0.38658)
(9.46328 -0.502955 -0.335447)
(10.2626 -0.0272192 0.101458)
(10.0223 0.163217 -0.87587)
(9.8315 -0.696909 -0.402891)
(9.26753 -0.121109 -0.239378)
(10.8516 -1.44681 -0.499201)
(10.6789 -1.28845 -0.560288)
(11.3381 -1.70081 -1.00813)
(9.75753 -0.55386 0.0389975)
(9.60907 -0.450168 0.457074)
(10.7076 -0.154056 0.361043)
(10.8198 -0.269521 0.311068)
(9.53175 -0.509013 0.6146)
(9.11398 -1.47608 -1.37599)
(10.6214 -0.0938816 0.31781)
(11.6981 0.152324 0.528566)
(9.43835 -1.04491 -0.316072)
(11.3796 0.0440653 0.277795)
(11.6544 -0.0051312 0.337904)
(10.3872 -0.650188 -0.0502442)
(9.44497 -0.18878 -0.0649902)
(9.55125 -0.726995 0.107563)
(10.1248 -0.141122 0.0246803)
(10.2381 -0.248233 -0.0252465)
(9.14065 0.40658 -0.256174)
(9.65023 -0.851868 -0.483247)
(10.0244 -0.71901 0.200375)
(9.40985 -0.536137 -0.572411)
(9.95639 -0.520669 0.440827)
(8.90834 -0.0406258 1.75831)
(10.7637 -0.0246014 0.405654)
(11.4802 -0.554097 0.495864)
(9.8126 -0.151816 0.19783)
(10.1111 0.0151283 0.0303894)
(10.0502 -0.0270802 0.225058)
(10.0394 0.524248 0.08852)
(10.1098 0.0721201 0.263901)
(11.4387 -0.429092 3.83984)
(9.68395 -0.174428 -0.578394)
(10.0179 -0.153839 0.226631)
(12.0467 -1.07121 0.314405)
(9.8892 -0.0800801 -0.27522)
(10.4784 -0.260767 0.413164)
(9.58597 0.151448 -0.379825)
(9.94066 -0.190755 0.270894)
(10.241 -0.478464 -0.0328639)
(10.7745 1.24487 0.727974)
(10.3119 -0.467454 0.410951)
(10.4176 -0.362546 0.200549)
(10.317 -0.414814 -0.305778)
(11.1497 -0.570102 0.270031)
(9.89887 0.64531 -0.15199)
(9.32523 -0.289938 0.892368)
(10.1829 -1.22785 -0.20153)
(9.61385 -0.243471 0.0933398)
(10.6961 -0.998384 -0.0210525)
(10.8702 0.679167 0.645191)
(10.0044 -0.888783 0.232312)
(9.61336 -0.265865 1.59867)
(9.7794 -0.279246 0.233723)
(11.953 1.16591 2.42625)
(12.1545 1.21812 2.36214)
(10.0479 -0.388124 0.138154)
(10.6811 -0.04899 -0.0483136)
(11.7935 -0.106315 0.769066)
(10.464 0.225864 -0.242628)
(10.6067 -0.345803 -0.115128)
(9.79997 -0.473956 -0.403442)
(10.7049 -0.414412 -0.0323414)
(8.06113 -1.67483 0.385011)
(10.829 -0.502191 0.0443452)
(10.0232 -0.531672 0.664402)
(10.8774 -4.71079 -0.823751)
(10.4255 -0.351086 0.288232)
(11.5773 -9.06778 -2.11268)
(11.9399 -0.7086 0.820573)
(15.1076 -6.50377 0.243434)
(11.7695 -1.54959 -0.808288)
(11.2115 -13.9974 -1.30269)
(10.6623 -2.17527 1.20385)
(6.8938 -3.7985 -1.27647)
(1.28709 -5.56598 -1.66175)
(10.372 -0.634272 -0.41647)
(10.4367 -0.236542 0.177062)
(10.7326 -0.190967 -0.131046)
(9.95056 -0.236628 0.323945)
(9.37044 -1.52659 -1.40011)
(9.99224 -1.03975 -1.00034)
(9.08529 -1.20507 -0.327388)
(11.4553 -0.943447 1.14742)
(6.33376 -3.03486 -0.563455)
(8.60303 -0.984188 -0.0317998)
(11.0118 -0.254432 0.22786)
(10.3204 -0.229295 0.0229141)
(9.90498 -1.15663 -0.104265)
(10.4149 -0.151189 0.0909347)
(10.6276 0.225911 0.0759008)
(10.4824 -0.730123 0.0685901)
(10.3499 -0.495142 0.14377)
(6.03385 -3.22726 -6.11674)
(10.3708 -2.09287 -1.0462)
(10.0125 -0.893983 0.343796)
(10.4336 0.0577953 0.0623078)
(10.8465 -0.315521 -0.0876517)
(6.3871 -2.84147 -2.417)
(6.81091 -2.71567 -0.140675)
(10.3558 0.547204 -0.630655)
(10.5603 -1.11165 -0.687476)
(13.0825 -0.786378 0.296225)
(10.7416 -1.44368 -0.221879)
(10.4278 0.302554 -0.67823)
(10.1387 -0.125314 0.0975595)
(10.3106 -2.06682 -2.3717)
(10.9866 -1.05815 -0.0575262)
(10.6039 -0.0432154 0.27181)
(8.64772 -1.7421 -1.15464)
(9.22819 -1.49148 0.430038)
(10.2042 0.523713 -0.263662)
(10.1404 -1.36098 0.398733)
(11.526 -0.948359 0.152862)
(3.55313 -4.40147 -2.68903)
(12.6314 -1.15176 0.221384)
(11.3337 -1.44284 -0.296696)
(9.35666 -4.3076 0.393234)
(10.4574 0.635708 -0.102036)
(10.5277 0.334401 -0.355531)
(10.1968 0.132501 0.316306)
(9.77386 -0.70253 0.210861)
(10.3256 -0.293903 -0.199297)
(12.9582 0.00813395 0.552801)
(9.92791 -0.532072 0.0337635)
(4.98862 -4.73234 0.638525)
(6.64671 -1.63854 -0.900033)
(7.14123 -6.91691 -2.97663)
(10.333 -0.0916488 0.0475283)
(10.3337 -0.0346037 -0.198378)
(10.4944 0.262887 0.306335)
(8.64528 -0.130246 0.199892)
(10.2972 0.0990332 -0.111159)
(9.0051 -0.772147 -0.177724)
(10.2483 -1.02257 -1.059)
(10.3134 -0.971646 -0.280498)
(9.57359 -5.05185 -0.529508)
(10.5364 -2.28292 -0.0265189)
(10.6946 -0.296688 -0.480581)
(10.5256 -4.12985 -1.5069)
(9.78417 -0.546367 0.621472)
(5.8654 -6.31512 -1.08649)
(10.0642 0.570643 0.116314)
(9.49938 -0.621765 -0.857889)
(10.6206 -1.15295 -0.675409)
(10.5005 0.809797 0.314479)
(10.6473 0.375425 0.0714395)
(10.6956 -0.0314226 0.171406)
(8.97352 -1.57652 -0.141115)
(10.685 -1.19615 -0.24608)
(10.4891 0.307751 -0.217777)
(10.4817 -1.20343 -0.386303)
(10.6239 -1.00458 -0.057408)
(9.36052 -0.373072 -0.35041)
(9.17315 -2.5653 -2.45503)
(10.813 -0.0221107 0.582137)
(11.7007 0.92451 3.10458)
(9.50142 -0.490869 -0.0378821)
(10.6053 0.223413 0.276424)
(10.0548 0.235826 -0.168279)
(10.5743 -0.430733 0.107648)
(10.5782 -0.361487 0.0219209)
(13.1473 -1.72562 -0.160022)
(2.41885 -7.21455 -2.00568)
(11.0135 -0.423932 0.324044)
(9.96806 -0.450186 -0.306563)
(10.206 -0.605689 -0.400587)
(10.0832 0.806114 0.346935)
(10.4397 -0.45808 -0.120643)
(9.67038 -0.276069 0.374366)
(10.3243 0.568735 0.235391)
(10.5079 -0.921661 -0.336997)
(10.3393 0.461935 0.00181713)
(11.7217 -3.92315 0.167189)
(10.0497 -1.31052 -1.01837)
(10.2659 -0.414671 0.0110535)
(9.51564 -0.321746 0.0343856)
(9.53769 -0.634892 -0.479756)
(10.0945 0.0513778 -0.0296603)
(11.2327 -0.944782 0.0510029)
(9.65055 -0.396604 -0.28072)
(10.7923 0.917975 0.436912)
(11.2424 -1.70475 -0.0143025)
(9.51547 -0.457135 0.0195919)
(10.6308 -2.56704 -2.25059)
(9.82237 0.369194 0.193363)
(10.6591 -0.0776701 0.166948)
(9.87852 -0.416059 -0.306927)
(9.49088 -0.895059 -0.678401)
(9.15265 -0.877551 -0.126262)
(10.498 -0.372345 -0.16522)
(10.964 -0.119058 0.254198)
(10.509 -0.223302 0.00922082)
(9.77236 -0.53822 -0.209955)
(9.56397 -0.857443 0.00675743)
(9.4838 -0.3392 0.259334)
(9.33197 5.04252 0.501332)
(8.91791 -3.48577 -1.49172)
(2.82799 -5.53699 -2.74826)
(10.2963 -0.607131 0.136267)
(10.0491 -0.847081 -0.0478565)
(10.0888 -0.843857 -0.031302)
(10.0391 -0.425797 0.41218)
(9.89016 -0.278756 -0.031953)
(10.4907 0.0407345 -0.0530308)
(11.6363 -0.312889 0.693427)
(10.3584 0.166011 0.142867)
(10.3006 0.147046 0.222417)
(10.0753 -0.39454 -0.02395)
(10.1124 -0.692558 0.503789)
(9.85641 -0.451551 -0.436782)
(10.0604 0.10133 0.162422)
(10.5607 -0.161436 -0.0688237)
(10.055 -0.280849 0.117104)
(10.2087 0.0195512 0.134252)
(10.4783 -0.6313 -0.068821)
(10.685 -0.378432 0.702417)
(10.7863 -0.0555667 -0.0961979)
(9.98169 -0.0083589 -0.350138)
(10.3872 -1.31305 0.725014)
(10.1749 0.216265 -0.313739)
(10.1153 -0.5427 -1.1077)
(10.4518 -0.0806963 -0.0829461)
(10.3764 -0.341014 0.598072)
(10.3489 0.289202 0.0398932)
(11.3124 -1.65137 -0.379235)
(10.6303 -0.47681 -0.125191)
(11.3267 -1.74643 -0.691456)
(10.024 -0.756435 -0.18832)
(8.33897 -2.20865 -0.0616682)
(10.5463 0.10513 -0.309117)
(10.5419 -0.312349 -0.325905)
(12.9766 0.761549 1.76874)
(10.2748 0.165111 0.398587)
(11.7263 0.411731 1.65563)
(10.349 0.314079 -0.0570133)
(12.0755 -0.226704 1.26418)
(10.6222 -0.482521 0.158816)
(8.18703 7.62827 1.98037)
(13.3598 -1.51559 -1.33349)
(9.49694 -0.346361 -0.0709378)
(10.0775 -0.264888 -0.397353)
(9.52174 -1.86312 -0.697601)
(10.614 -0.215566 0.102206)
(10.0068 -0.187421 0.0686038)
(10.8011 -0.408503 -0.225678)
(8.65228 -1.42258 -0.202863)
(10.216 -0.326784 0.3612)
(9.86444 0.243898 -0.251017)
(12.814 -4.02283 -0.223351)
(10.4126 -0.199609 0.0589172)
(10.9178 -0.193586 0.121476)
(10.0725 -0.452761 -0.128674)
(11.6661 -0.284467 0.178634)
(10.327 0.636508 0.0336795)
(10.5533 0.319945 -0.0823415)
(10.227 0.590164 -0.598361)
(1.56143 -8.25653 -1.22484)
(10.3247 -0.22093 0.0409427)
(10.2351 0.108703 0.193314)
(10.2774 0.180857 -0.0557868)
(10.2324 -0.097996 0.115158)
(10.7241 0.134119 0.109099)
(9.83922 0.736968 -1.49454)
(9.77987 -0.587454 0.165637)
(10.2587 0.137484 -0.389784)
(10.2238 -0.098814 0.266901)
(10.2083 -0.0836486 0.00105963)
(9.3374 -1.25688 0.515807)
(10.4494 -0.199827 0.15862)
(9.52535 -1.57938 -1.31264)
(10.4979 -0.010747 0.797928)
(10.2329 0.0165695 0.0197425)
(10.6005 -0.0852214 0.0923302)
(10.0707 -1.54876 -0.338038)
(10.1285 -0.78848 0.205234)
(10.1397 -0.282437 -0.375523)
(9.16091 -1.04796 0.360161)
(10.1485 -0.275752 0.324837)
(10.5465 0.093599 0.14357)
(9.98122 -0.200689 -0.203924)
(10.3953 -0.277401 -0.0416252)
(10.1742 -0.172311 0.329848)
(10.5222 -0.658561 0.370636)
(10.3449 -0.47434 0.0232782)
(10.4505 -0.361325 -0.0871409)
(10.5884 -0.0074038 -0.0429734)
(10.3286 0.370317 0.0459058)
(9.86082 -0.581858 0.848031)
(9.77958 -0.446234 -0.461933)
(10.7588 0.368145 0.758728)
(10.1665 -0.490475 0.357279)
(10.3454 -0.554153 0.469)
(11.1902 -0.880822 0.0775677)
(10.5476 -1.29402 0.220417)
(11.1472 -0.714155 0.0904382)
(10.7695 -0.0800083 0.20415)
(10.5468 -0.190925 -0.699289)
(7.02662 -7.16806 0.507638)
(10.4124 -5.79413 0.0922434)
(12.5971 -0.686404 0.396951)
(11.0783 -0.0416804 0.319821)
(8.09108 -3.39336 -0.637915)
(10.6025 -1.35176 -0.14723)
(10.2271 -0.0993266 0.0808255)
(10.3461 -0.72856 0.510264)
(10.8017 -0.940644 -0.249941)
(11.7231 -0.322071 0.411606)
(9.57352 -0.337803 0.273074)
(9.33075 -0.48689 0.321869)
(10.2473 -0.220503 0.314972)
(9.43788 -0.863397 0.281854)
(10.0917 -0.970063 0.44891)
(10.3257 -0.752432 -0.1425)
(9.53871 -1.38946 0.158906)
(10.3541 -1.20124 -0.448493)
(10.1999 -0.287468 -0.286236)
(8.6684 -3.44364 0.0211959)
(11.5787 0.641032 0.718621)
(0.88466 -5.35826 0.223494)
(10.8439 0.196271 0.235915)
(10.7823 0.118262 0.194465)
(10.7199 0.638497 0.632775)
(11.0077 0.561396 0.586294)
(11.5279 -0.225417 1.0769)
(11.5642 -0.49553 0.821328)
(11.6695 -0.0298749 1.19978)
(9.82573 0.33816 0.213492)
(10.3802 -0.929783 0.357671)
(11.6383 0.55715 0.642438)
(9.34218 -0.869716 0.514331)
(9.70705 -0.50448 -0.456282)
(10.2601 0.0377854 -0.402161)
(10.2698 -0.608712 -0.130499)
(13.4983 -2.59825 -0.669082)
(11.2714 -0.487809 0.35958)
(12.0214 -0.201826 2.23279)
(11.0745 -2.2643 0.731354)
(11.4915 -0.554963 0.422855)
(10.8932 0.431984 -0.0693075)
(10.5291 -0.0925857 -0.396018)
(10.6497 -0.027703 0.364635)
(10.2405 -0.358654 0.0734444)
(11.5116 -0.626191 0.355561)
(10.4606 -0.402957 -0.159276)
(11.1388 -0.60638 0.0020392)
(10.7847 -0.376255 -0.0265649)
(9.42332 -1.65317 -1.07252)
(10.1102 -0.779468 -0.040951)
(9.80572 -0.566739 0.155142)
(10.2381 -0.762572 -0.26669)
(10.1472 -0.854603 -0.375942)
(12.119 0.0298785 0.497757)
(10.4576 -0.224384 0.0755524)
(12.1708 0.696756 0.663162)
(11.5428 1.23062 2.00456)
(9.47899 -1.01076 0.553613)
(9.95971 -0.558089 0.8094)
(10.1686 -0.531931 0.430115)
(10.5651 0.390112 -0.0301861)
(11.1588 -3.26976 -1.19402)
(11.7977 -2.15323 -0.426302)
(10.7289 -2.44223 -0.523832)
(10.3345 -1.20004 -1.08645)
(10.5644 0.179752 0.539616)
(10.4898 -1.1265 -0.521198)
(8.50151 -3.21982 -4.0348)
(10.3795 0.197382 -0.0854987)
(9.66139 -0.929471 0.42915)
(9.73725 -1.55931 -1.41303)
(11.9464 -1.15525 0.192788)
(9.86299 -0.0598658 0.434404)
(11.6022 -0.810499 0.254307)
(11.9382 -0.93828 0.56785)
(10.6748 -0.138646 0.147795)
(11.2253 -0.888549 -0.117512)
(11.3359 -1.03825 -0.314359)
(9.4332 -1.12729 0.465959)
(10.0101 -0.695252 -0.556373)
(10.5655 -0.456568 -0.172358)
(10.6768 -0.411983 -0.178095)
(10.3906 -0.480237 -0.154412)
(10.5764 -0.570633 -0.119711)
(9.62617 -1.09027 0.452466)
(9.45638 -1.32148 0.353118)
(10.0262 -0.549873 -0.242131)
(10.4893 0.412051 0.106134)
(10.2701 0.151871 0.16371)
(8.93964 -3.15686 0.302653)
(9.62716 -0.894899 0.422508)
(10.5464 0.38828 -0.351906)
(10.3318 -0.276587 -0.0247461)
(10.4739 -0.226977 -0.0175822)
(10.3607 -0.237373 0.0534927)
(10.032 -1.17692 0.507312)
(10.5771 -0.996345 0.0874266)
(10.3543 -0.066743 -0.0420016)
(10.1492 -0.316307 0.126944)
(10.5364 0.00227997 0.255127)
(11.1706 0.360499 0.125517)
(10.1436 -0.52092 0.011504)
(10.4313 -0.373284 0.0862149)
(10.8356 -0.119961 0.109448)
(9.01079 -0.829283 0.658657)
(10.5476 -0.176214 0.121044)
(11.8158 -0.796688 0.379131)
(10.3281 -0.270291 0.0884473)
(12.2327 -1.04671 0.363708)
(12.1198 -1.08942 0.138686)
(12.1903 -0.821092 0.692896)
(10.684 -0.37433 -0.387273)
(5.38416 -6.95029 0.138932)
(9.812 -0.676268 0.109299)
(10.1445 -0.476465 0.556919)
(8.70062 -6.82659 0.204027)
(10.4556 -0.0967711 0.239526)
(10.6872 0.408428 0.107727)
(10.4844 0.0183507 0.13357)
(10.243 0.330172 0.174101)
(10.3803 -0.575393 0.0444391)
(10.5177 -0.442368 -0.0908005)
(9.84513 -0.493477 0.284037)
(10.3593 0.0614609 -0.0493027)
(10.4132 0.155404 -0.120768)
(10.9071 -0.222351 0.195246)
(10.5232 -0.588012 0.17003)
(10.5558 -0.120511 0.222121)
(10.6108 -0.136126 0.481044)
(10.3141 -0.33429 0.00493803)
(10.4004 -0.452209 0.00158488)
(10.3859 -0.0454171 0.0596602)
(10.3613 -0.393195 0.135434)
(8.52204 -1.81767 0.298301)
(10.983 1.17527 0.384668)
(12.6772 3.24971 2.54243)
(13.524 -1.02868 0.503243)
(8.65674 -2.44114 -0.728679)
(12.0345 -1.571 -0.505788)
(9.4848 -0.155031 0.763559)
(10.3262 0.414278 -0.0109401)
(10.708 -0.180785 0.0860801)
(10.0866 -0.491047 0.702096)
(9.34891 -0.820812 0.406258)
(9.92865 0.225189 0.626278)
(10.1704 0.863889 1.30745)
(9.55162 0.014582 0.560964)
(6.22115 -5.78763 -2.08)
(7.27226 -3.55379 -1.24119)
(6.82573 -4.34188 -1.27855)
(9.88436 -0.888481 -0.684532)
(1.4261 -3.33768 -5.4696)
(10.4187 0.00936908 -0.106712)
(10.6119 0.0606314 0.0277826)
(10.181 -0.642909 0.0754115)
(11.3655 -0.835107 0.159532)
(9.47129 0.0259313 0.0292684)
(10.4862 -0.0750136 -0.0515821)
(9.87334 -0.40311 0.378191)
(10.0065 -0.549984 0.513965)
(9.83031 -0.722432 -0.482707)
(9.7245 -0.514205 0.564774)
(10.1913 -0.491254 -0.889443)
(9.64517 0.546468 0.795891)
(9.05727 -3.40352 -3.53707)
(9.24533 -2.69482 -3.00131)
(9.67495 -1.80816 -1.50497)
(9.80673 -2.24192 -2.02922)
(10.4709 0.531927 -0.0500855)
(10.7153 -0.121377 -0.203468)
(10.3143 -0.319438 0.0827143)
(10.0779 -0.277708 0.148802)
(10.0209 -0.470499 0.0392328)
(9.00396 -0.687083 -0.159009)
(9.42892 -0.454194 -0.133079)
(9.72299 -0.218879 -0.348089)
(11.1985 0.256164 0.204636)
(11.3444 -0.323234 0.53372)
(10.0404 -1.78498 0.37819)
(10.6119 -1.50985 0.267455)
(10.1938 -0.531626 0.249734)
(9.97314 -0.690965 -0.0595314)
(9.7269 -0.482058 0.0968443)
(9.50468 -0.600411 -0.123107)
(8.70318 -2.08973 0.322853)
(9.08803 -1.8698 0.405675)
(9.66925 -0.503515 -0.0198611)
(9.35468 -0.389728 -0.181593)
(11.8262 -1.83951 0.346403)
(10.6969 -2.22303 0.445323)
(12.3228 0.636496 2.05701)
(12.0332 -2.7026 0.541755)
(12.1592 -1.93291 0.256674)
(10.7157 -1.51 0.0980198)
(10.955 0.420542 0.0997734)
(12.6197 3.59289 0.871215)
(13.1548 3.66473 1.4189)
(10.8735 -0.874023 0.00193649)
(10.8071 -0.830335 0.126854)
(10.5035 -0.239552 0.0182976)
(10.4858 -0.484339 0.124766)
(10.7286 -0.987801 -0.0638783)
(8.12964 -3.09918 -0.629249)
(7.11557 -3.64994 -0.146714)
(7.96726 -2.69572 -0.0825131)
(10.3289 -0.490825 0.253971)
(7.21647 -3.17797 0.154704)
(10.4188 0.445193 0.47718)
(10.7937 -0.535163 0.221508)
(10.5827 -0.385547 0.173383)
(10.5897 -0.231997 0.144262)
(11.2074 -0.293625 0.314717)
(10.9155 -0.215381 0.342762)
(10.0224 -0.126811 -0.375169)
(9.99703 0.00141587 0.329121)
(9.84691 -0.248162 0.0506395)
(9.61277 -0.352513 -0.230418)
(9.82832 -0.511517 -0.10829)
(9.95457 -0.21796 0.104005)
(9.65981 -0.407084 -0.0680958)
(9.70369 -1.1382 -0.34165)
(10.2379 -0.334375 0.173003)
(9.6942 -1.19794 -0.437091)
(9.57219 -1.58565 -0.537666)
(9.3586 -1.82132 -0.21219)
(11.02 -0.186941 0.350126)
(11.0116 -0.217364 0.400839)
(10.8159 -0.940601 0.0526781)
(10.4957 -0.549064 -0.214377)
(9.57086 -0.578388 0.51236)
(10.4715 -0.534096 -0.285931)
(9.96082 -0.90196 0.0740121)
(9.97937 0.694401 -0.0895509)
(9.11229 -0.452066 0.554542)
(12.3492 0.161927 0.616073)
(9.89883 0.0793946 0.0777276)
(10.2541 -0.301945 -0.00288758)
(9.87719 0.646799 0.508964)
(11.1492 -1.09096 -0.0824632)
(9.57769 -0.275799 0.235653)
(10.6192 -1.08771 -0.535028)
(9.83221 -0.523947 0.475073)
(9.71534 0.449344 -0.0997207)
(8.72033 -0.230845 -0.114422)
(10.7952 -0.126301 0.522178)
(9.54065 -0.329523 0.158887)
(10.411 0.431761 0.011237)
(10.2262 -0.354619 0.391155)
(11.4811 -1.23508 -0.181222)
(9.47827 -0.124344 -0.536855)
(9.5579 -0.253422 0.0584121)
(9.8526 -0.0896407 0.0881466)
(9.66205 0.0166633 0.557543)
(10.2081 0.459627 -0.000662382)
(10.2753 0.218716 -0.151792)
(10.5969 -0.346311 -0.254588)
(10.2351 0.120196 0.421136)
(10.7202 -2.17065 1.48185)
(10.2367 -0.364861 -0.277249)
(9.93768 -0.30953 0.208155)
(10.6798 -0.344355 -0.111391)
(9.99365 -0.499227 0.501194)
(10.1952 0.0582819 -0.0756023)
(9.93061 -1.41054 -0.394362)
(9.62103 -0.468522 0.242686)
(10.4269 0.220758 0.419236)
(10.5238 -0.0939655 0.0161126)
(10.4941 0.0693028 -0.297098)
(9.60176 -0.659882 -0.0602013)
(9.45325 -1.60472 0.621653)
(10.1018 -0.749529 0.300958)
(10.5572 -0.362642 -0.071884)
(10.8067 -0.258621 -0.34553)
(10.1828 -0.0160935 0.420624)
(10.1105 -0.628283 -0.172667)
(10.1037 -0.295152 0.0647407)
(10.2281 -0.30576 -0.172728)
(10.2413 -0.157162 -0.0459394)
(10.4102 -0.219403 0.0299378)
(10.3365 -0.585706 -0.279238)
(10.0863 -0.0219449 0.0998174)
(10.0888 0.396836 0.616154)
(9.42847 -0.686426 0.162718)
(10.5543 0.590016 -0.198014)
(10.1733 0.00698999 -0.00728476)
(10.3082 0.416262 0.0273507)
(10.3756 0.179665 -0.0519609)
(9.95841 0.0305775 0.50863)
(9.22312 -1.55209 -1.49616)
(9.71051 0.835241 -0.464079)
(10.3054 0.11 0.164844)
(10.5352 1.32988 -0.297478)
(10.5786 -0.199311 0.066753)
(9.75826 0.128814 -0.107178)
(10.3197 -0.278502 -1.09125)
(9.17391 1.16593 -0.45766)
(9.60236 -1.41038 0.655662)
(9.07228 -2.31425 -0.65618)
(10.0342 -0.212812 -0.725693)
(10.9189 -0.278428 0.163294)
(11.5385 0.21973 0.353931)
(12.6332 -2.97425 -1.1965)
(12.5533 -0.0973016 0.415594)
(5.43594 -4.92481 -2.32522)
(14.0598 2.52958 1.17649)
(9.35586 -0.788005 0.492027)
(9.14191 -0.768388 0.763677)
(10.4737 -0.111606 0.193217)
(9.87353 -1.48261 0.500246)
(10.428 0.380612 0.519029)
(9.87215 -0.60983 0.267627)
(10.1338 -0.0603501 0.29606)
(11.057 -0.114209 0.235439)
(10.4656 0.0403398 0.427376)
(10.4255 0.271243 0.0321073)
(9.64827 -0.166443 0.140866)
(10.114 -0.622451 -0.187293)
(10.2611 -0.19457 -0.441006)
(10.6514 0.112704 0.051535)
(10.6095 -0.242468 0.995337)
(10.4909 -0.273818 0.598153)
(10.1214 0.184651 0.355987)
(12.1446 -1.36144 0.0465612)
(9.73855 0.453781 0.362001)
(9.81565 0.518432 0.300316)
(10.4529 0.328608 0.103982)
(10.4539 0.225644 0.174612)
(11.3793 0.667863 0.332958)
(11.4728 0.385895 0.318225)
(9.89709 0.733332 0.225668)
(11.4083 -0.714862 0.149235)
(10.107 -0.564283 0.574458)
(10.5392 -0.28254 0.107179)
(9.92295 -0.711583 -0.211343)
(12.71 -0.616655 0.703681)
(9.90444 -0.24452 0.175044)
(10.333 -0.480599 0.0180978)
(10.0123 -0.434765 -0.269562)
(10.5987 -0.41632 0.317163)
(9.76728 -0.223607 -0.319626)
(12.0796 -1.08716 -0.0845968)
(9.92831 -0.311403 1.22023)
(9.24196 -1.16542 0.605273)
(10.5096 -0.331682 0.168294)
(10.0298 0.549347 -0.753868)
(10.0519 -0.589419 0.135535)
(10.0946 -0.393643 -0.123676)
(9.66597 0.402852 -0.812314)
(10.0363 -0.290025 0.166587)
(7.94699 -6.70306 0.82078)
(10.8508 -1.31234 -0.245365)
(14.6256 -3.31393 0.457905)
(10.4065 -0.0420859 0.736728)
(9.69854 -0.651845 -0.443145)
(10.0823 0.424089 -0.514435)
(9.74621 0.375285 -0.0481593)
(9.96685 -0.782537 0.400846)
(9.78137 -0.196413 0.0641044)
(9.9418 -0.677302 0.282417)
(9.52902 0.21949 -0.090092)
(10.2577 -0.284488 -0.0242892)
(9.84564 -0.124448 0.230855)
(8.91154 -1.25618 0.44866)
(9.81881 -0.164105 0.55626)
(9.95133 -0.324316 0.628699)
(10.2003 0.428223 0.408627)
(10.2489 -0.595213 0.33188)
(11.5425 -0.862366 -0.0373174)
(10.2805 -0.349522 0.109171)
(10.8035 0.109215 0.0495829)
(12.1366 0.197533 0.297748)
(11.147 0.374364 0.192553)
(9.63072 -0.955089 -0.845888)
(10.0505 -0.368306 0.614404)
(10.6836 -0.00544094 0.141398)
(10.5258 -0.447424 -0.218514)
(10.4994 -0.219383 -0.113949)
(10.3082 0.128999 0.125887)
(10.7016 1.11343 0.599842)
(10.9317 0.187685 0.652145)
(10.5533 -0.683937 0.063737)
(12.0222 1.32796 0.57769)
(12.8699 -1.47001 0.277899)
(14.1983 1.36835 0.389872)
(1.9335 -6.89328 0.606452)
(10.5371 -0.0704732 0.183048)
(10.6443 0.005966 0.0687014)
(10.1184 0.151491 0.395661)
(10.4102 -0.323204 0.342866)
(10.6321 -0.621391 0.141293)
(0.34107 -9.81362 -2.42988)
(10.5445 0.406138 0.111609)
(11.457 1.92526 0.778028)
(12.1541 0.334176 0.868171)
(11.779 -1.70628 -1.14488)
(10.877 -0.751393 -0.151442)
(10.3578 0.274846 -0.233574)
(9.14949 -0.929862 0.394644)
(9.75173 -0.18902 0.0966936)
(10.0782 -0.542738 0.585419)
(12.5156 -3.19113 -0.313263)
(9.87171 -2.2895 0.541564)
(1.39723 -5.96053 -4.46622)
(9.8515 -0.440804 0.198867)
(9.57209 -0.497402 0.340181)
(10.3189 0.127278 -0.077398)
(9.85228 -0.886611 0.615459)
(9.67935 -1.71588 0.426353)
(9.87784 -0.185247 -0.0358074)
(10.8603 -0.0186223 0.10405)
(10.3082 -0.48273 0.079906)
(10.2018 -1.00576 -0.456652)
(12.3288 0.192805 1.6844)
(10.4089 0.365949 0.303897)
(10.9853 -0.915982 -0.128812)
(10.4302 -0.363057 0.170202)
(11.3153 -1.75722 0.319076)
(10.7595 -3.1697 0.21658)
(10.6928 0.188653 -0.277231)
(7.32921 -7.21286 -0.537011)
(9.94877 -0.520538 -0.815296)
(10.0814 0.370259 0.302733)
(9.87333 0.445004 0.207269)
(9.81875 -0.788644 -0.483333)
(10.3624 -1.74789 -0.0715304)
(9.37068 -0.684498 1.13044)
(9.98701 -0.363111 -0.805326)
(9.42097 0.127153 -0.276414)
(11.8316 -0.274794 0.650766)
(12.8839 1.16117 1.78849)
(9.20812 -0.0780575 -0.00796846)
(10.5978 0.289834 -0.692077)
(9.43178 0.32175 0.58118)
(10.3551 -0.140104 -0.24277)
(10.0493 -0.252088 0.000886034)
(10.1742 0.759242 -0.104584)
(9.732 -0.091385 -0.153314)
(10.0742 0.0692232 -0.478873)
(11.6519 1.13477 1.04967)
(9.46987 -4.34072 -1.44012)
(13.3601 1.46451 1.41203)
(1.65952 -4.12927 -4.02805)
(10.0324 -0.321916 0.679503)
(11.2521 0.573516 0.745933)
(9.98662 0.389186 0.484665)
(8.82309 0.347252 -0.494505)
(10.3658 0.656237 0.286718)
(9.80571 0.636897 -0.519845)
(10.2387 -0.207821 0.137635)
(10.6147 0.333238 -0.0804824)
(10.5026 0.305448 0.31741)
(9.88151 -0.541386 0.422741)
(10.3738 0.687174 0.551406)
(10.6045 -0.136945 -0.0216951)
(10.3918 0.0682428 -0.000522416)
(11.3939 0.629416 0.323031)
(9.49024 -0.582885 0.193174)
(10.0025 -0.223798 -0.215912)
(10.3448 0.173789 0.00586405)
(10.2952 0.193211 0.241291)
(11.1694 0.657133 0.204227)
(9.98245 -0.402104 -0.251344)
(10.5354 -0.648851 0.111989)
(9.90362 -0.34616 -0.327222)
(9.92971 -0.454097 -0.0970177)
(9.67098 -0.172641 0.107969)
(8.84915 -0.805487 -0.119041)
(10.6473 -0.638452 0.148631)
(9.89047 -0.430361 0.142377)
(10.3205 -0.725554 -0.0498729)
(10.0492 -0.243712 -0.0781074)
(9.97409 -0.655897 -0.133207)
(7.3553 -4.58396 -1.03324)
(10.3672 -1.26492 -1.45531)
(9.67166 -1.16354 -0.0638946)
(9.89105 -0.336252 -0.0303057)
(10.1622 -0.132148 -0.0545861)
(9.74085 0.515075 -0.184497)
(9.91739 -0.911999 0.199937)
(9.07069 -1.00159 0.443381)
(9.47772 -0.530486 -0.128313)
(9.76857 -0.299866 -0.184677)
(10.704 -0.377662 -0.435908)
(9.9935 -0.160908 0.287921)
(10.4408 -0.380865 -0.428195)
(10.0061 -0.114 0.199298)
(10.163 -0.167107 -0.447406)
(10.1087 -2.65516 -2.80642)
(7.15409 -4.18671 -0.215131)
(10.9985 -0.426536 4.47699)
(10.0532 -0.408487 0.165612)
(10.5127 0.17711 -0.468824)
(9.93032 0.588978 0.418043)
(10.6108 -0.372931 0.154996)
(10.1397 -0.58028 -0.0255515)
(9.86861 -1.19154 0.566438)
(10.6757 -0.634161 -0.0769256)
(9.76024 -0.149339 0.140496)
(10.9515 -0.022277 0.0798484)
(10.2492 0.236246 0.661289)
(9.85648 -1.60465 -0.724884)
(9.39556 -1.524 -1.2077)
(10.0029 -1.23795 -0.230994)
(11.6541 -0.835521 0.118613)
(10.3603 -0.197323 0.15786)
(9.71418 -0.632741 -0.259372)
(10.0529 0.64372 -0.136007)
(9.88371 -0.036152 0.299501)
(10.4354 -0.645991 -0.0385117)
(10.8791 -1.46015 -0.207248)
(10.6692 0.49467 -0.480039)
(10.4315 0.506247 0.133286)
(7.98339 -3.66349 -3.23407)
(11.2239 -0.245477 0.380975)
(11.6807 -1.04524 0.948816)
(10.0871 -0.0343129 0.214087)
(10.7227 -1.03201 -0.0556607)
(6.31598 -10.6267 -0.834889)
(10.099 -1.24608 -0.436384)
(9.31642 -1.49333 0.519321)
(9.75094 0.262094 -0.246098)
(11.3235 -8.15706 -3.54685)
(10.5451 -0.0276479 0.281533)
(9.38243 0.414351 -0.0851023)
(5.17592 -3.99574 -3.06104)
(9.58949 -2.22471 -0.926476)
(10.6627 -0.268231 0.239368)
(10.5171 -0.171473 0.169481)
(10.2444 -0.485662 -0.0420832)
(10.6757 -1.25074 -0.250927)
(11.2194 -0.452194 0.405819)
(11.0198 0.063842 -0.46025)
(10.1587 -0.208814 -0.115545)
(10.4703 -0.351629 0.276634)
(8.72138 6.72553 0.9981)
(9.72315 -1.0555 -1.0994)
(2.74807 -12.7433 -1.84925)
(3.39846 -7.85051 0.217198)
(11.2843 -0.0992958 4.47824)
(10.7663 -1.13444 -0.737216)
(5.08088 -13.6132 0.69576)
(9.79769 -0.835142 -0.0150954)
(12.7402 -0.337113 1.33617)
(16.3025 -7.00314 -0.556794)
(9.71743 0.667983 0.0705017)
(10.0005 -0.603452 -0.133286)
(10.6222 -1.38776 -0.49157)
(10.7627 -0.584987 -0.134976)
(9.1015 -1.33059 -0.837284)
(10.0777 -0.179715 0.185827)
(10.4214 0.0258759 0.37454)
(11.3488 -2.79521 -4.70144)