/*--------------------------------*- C++ -*----------------------------------*\
| =========                 |                                                 |
| \\      /  F ield         | OpenFOAM: The Open Source CFD Toolbox           |
|  \\    /   O peration     | Version:  2506                                  |
|   \\  /    A nd           | Website:  www.openfoam.com                      |
|    \\/     M anipulation  |                                                 |
\*---------------------------------------------------------------------------*/
FoamFile
{
    version     2.0;
    format      ascii;
    arch        "LSB;label=32;scalar=64";
    class       volScalarField;
    location    "0.0380695";
    object      k;
}
// * * * * * * * * * * * * * * * * * * * * * * * * * * * * * * * * * * * * * //

dimensions      [0 2 -2 0 0 0 0];

internalField   nonuniform List<scalar> 
3926
(
0.343097
0.344295
0.469167
0.67952
0.548204
0.820889
0.835801
0.948806
0.755477
0.877935
0.894063
0.356113
0.342864
0.357161
0.360563
0.344969
0.347899
0.353781
0.509659
0.336435
0.471187
0.581194
0.548457
0.350329
0.405083
0.530317
0.505769
0.66544
0.698145
0.363004
0.370613
0.426864
0.357914
0.370926
0.423082
0.358862
0.916102
0.417934
0.363377
0.335031
0.632962
1.00732
0.399902
0.349636
0.350967
0.990559
0.399599
0.493123
0.800295
0.411912
0.473412
0.942573
0.801677
0.867749
0.375373
0.420731
1.12326
0.742654
0.442204
0.739662
0.359813
0.638698
0.939741
0.4279
0.86143
0.781444
0.849981
0.669352
0.777227
0.864947
0.744921
0.352362
0.763625
0.334979
0.370531
0.470765
0.380788
0.740598
0.459321
0.358644
0.554992
0.422083
0.831033
1.15208
0.346022
0.407932
0.358101
0.370611
0.836758
0.366336
0.3557
0.429435
0.501742
0.385353
0.397782
0.998532
0.372057
0.42548
0.826093
0.461743
0.597372
0.417656
0.464483
0.428283
0.640069
0.57058
0.428261
0.398417
0.406546
0.383073
0.473667
0.419845
0.400492
0.416748
0.34881
0.734112
0.552657
0.346184
0.817851
0.93939
0.339194
0.338802
0.359968
0.469802
0.388469
0.429259
0.645634
0.402951
0.60376
0.445986
0.409286
0.413015
0.397011
0.410529
0.801649
0.786536
0.854115
0.813014
0.90051
0.503646
0.352289
0.355604
0.466593
0.513541
0.400569
0.658322
0.452715
0.558694
0.425372
0.445824
0.468362
0.495993
0.449689
0.53491
0.591481
0.618358
0.440813
0.669986
0.585226
0.636825
0.477193
0.399218
0.423325
0.787762
0.808339
0.420376
0.379473
0.344688
0.373093
0.565749
1.10976
0.387516
0.358126
0.361942
0.405716
0.467328
0.41433
0.822976
0.548776
0.431845
0.713065
0.342782
0.605321
0.347054
0.344657
0.443666
0.460748
0.39014
0.489649
0.453987
0.812075
0.413099
0.66239
0.38608
0.394321
0.36378
0.377798
0.38532
0.40391
0.876682
0.440332
0.914123
0.847993
0.394487
0.382156
0.550207
0.371697
0.692652
0.428626
0.342213
0.34369
0.381888
0.480896
0.352338
0.359465
0.622583
0.387347
0.468465
0.448937
0.505604
0.366516
0.483954
0.371381
0.869493
0.411968
0.81624
0.795106
0.450353
0.348674
0.419364
0.366881
0.68688
0.357498
0.38094
0.46877
0.465723
0.437675
0.570712
0.963387
0.451451
0.915969
0.385485
0.362102
0.770627
0.345211
0.445746
0.725103
0.427017
0.366049
0.963765
0.82617
0.631271
1.05594
0.566553
0.400342
0.579203
1.02924
0.441706
0.527416
0.900957
0.900713
0.824488
0.422539
0.792835
0.884684
0.418471
0.339959
0.474205
0.463562
0.852666
0.82778
0.94322
0.361993
0.467727
0.413889
0.523153
0.348987
0.456798
0.359015
0.353643
0.763325
0.884231
0.338127
0.3858
0.585992
0.737883
0.630238
0.706321
0.878081
0.581186
0.536367
0.344472
0.397664
0.669191
0.343844
0.522472
0.385072
0.449095
0.430183
0.71824
1.03481
0.570664
0.396011
0.487821
0.394583
0.629228
1.06933
0.451335
0.382694
0.826296
0.919534
0.604016
0.700052
0.36545
0.497203
0.423233
0.419711
0.334153
0.603585
0.442783
0.610686
0.35666
0.874238
0.602398
0.611377
0.418568
0.718265
0.544499
0.963036
0.388379
0.521305
0.377386
0.334237
0.345591
0.35611
0.341656
0.479118
0.587969
0.934414
0.439394
0.720195
0.604244
0.458138
0.348624
0.409702
0.350866
0.876002
0.729668
0.866118
0.56277
0.771036
0.425457
0.385154
0.567684
0.849956
0.913331
0.848943
0.847704
0.374012
0.355622
0.402911
0.340304
0.526842
0.489742
0.835496
0.521026
0.470619
0.380407
0.585334
0.356061
0.347545
0.350354
0.85935
0.376144
0.602018
0.419508
0.483973
0.395992
0.762456
0.448509
0.36058
0.495753
0.477122
0.545194
0.413003
0.384857
0.541025
0.590733
0.489722
0.433324
0.913771
0.391315
1.00696
0.474582
0.444314
0.452159
0.467516
0.345901
0.45396
0.329064
0.345031
0.368597
0.392688
0.372495
0.491644
0.506877
0.451506
0.353219
0.468547
0.346577
0.37186
0.891188
0.662602
0.543455
0.414642
0.410593
0.422697
0.849297
0.400006
0.339219
0.363032
0.359901
0.443965
0.497572
0.41856
0.363472
0.435983
0.349841
0.343254
0.344439
0.459755
0.334981
0.553821
0.424734
0.351372
0.361001
0.450391
0.343626
0.818595
0.365711
0.398282
0.958323
0.729847
0.339057
0.645624
0.923956
0.598123
0.796655
0.372436
0.343016
0.913343
0.432915
0.351299
0.883634
0.338259
0.624493
0.595068
0.430095
0.415792
0.350752
0.350431
0.577214
0.353702
0.389094
0.441901
0.36865
0.397859
0.88277
0.44996
0.354976
0.344536
0.357063
0.336395
0.33796
0.526247
0.513165
0.429026
0.513504
0.352445
0.574678
0.576692
0.4711
0.34697
0.411234
0.341522
0.386494
0.741914
0.562601
0.481524
0.940295
0.439855
0.547236
0.908775
0.943543
0.478686
0.523186
0.578855
0.465686
0.571536
0.778267
0.496014
0.731164
0.448968
0.499852
0.572685
0.891638
0.389563
0.504856
0.35887
0.723029
0.554451
0.986033
0.977226
0.483783
0.57371
0.726944
0.879237
0.551978
0.985895
0.829215
0.964001
0.881494
0.675783
0.695951
0.812944
0.479457
0.495735
0.809793
0.768782
0.495042
0.363524
0.364459
0.410827
0.340553
0.703363
0.746052
0.915146
0.937674
0.354326
0.360161
0.356404
0.735922
0.995545
0.948881
1.11581
0.794292
0.701909
0.370163
0.379414
0.36469
0.365443
0.453158
0.630103
0.353831
0.36002
0.667025
0.494382
0.606764
0.686053
0.450487
0.447003
0.523537
0.343694
0.356493
0.393175
0.409523
0.819847
0.767816
0.685665
1.10053
0.399639
0.392463
0.37046
0.365619
0.361605
0.624185
0.503635
0.463683
0.867169
0.356988
0.818616
0.428438
0.497665
0.387521
0.502449
0.566817
0.866007
0.382552
0.372142
0.377127
0.761624
0.370362
0.828274
0.976798
0.906434
0.355553
0.558524
0.864862
0.683168
0.737858
0.535241
0.413827
0.434791
0.394725
0.346055
0.338491
0.418116
0.598697
0.575523
0.805207
0.734292
0.504225
0.655942
0.384796
0.358503
0.367853
0.345313
0.342666
0.345997
0.347581
0.348523
0.517764
0.473942
0.413005
0.805412
0.716176
0.594734
0.398354
0.419499
0.356573
0.374817
0.418269
0.365821
0.378257
0.636328
0.364419
0.36954
0.558916
0.52515
0.756688
0.511239
0.357352
0.397079
0.48131
0.746362
0.426796
0.433397
0.481455
0.46125
0.512274
0.376543
0.460079
0.44763
0.444145
0.372474
0.535516
0.358063
0.361232
0.365815
0.587689
0.630879
0.367966
0.386959
0.374789
0.502293
0.459832
0.431825
0.916633
0.458822
0.395356
0.445562
0.349139
0.340777
0.432075
0.418016
0.428163
0.518063
0.448577
0.40494
0.501974
0.377978
0.39808
0.488986
0.752137
0.536902
0.395557
0.366132
0.359741
0.345617
0.337616
0.50852
0.452398
0.645312
0.503476
0.463848
0.353402
0.351565
0.349606
0.356407
0.363881
0.360296
0.369174
0.34675
0.374104
0.370983
0.372968
0.37145
0.454554
0.578544
0.344556
0.34935
0.359636
0.351768
0.371215
0.344455
0.390279
0.378916
0.497651
0.54565
0.533342
0.39862
0.400272
0.371916
0.386489
0.369795
0.368099
0.345581
0.346443
0.341109
0.444741
0.337926
0.377453
0.462696
0.398743
0.34582
0.464883
0.382552
0.356669
0.358117
0.358923
0.353844
0.352712
0.807048
0.363645
0.365268
0.379401
0.342346
0.345594
0.348038
0.339022
0.340836
0.340777
0.343408
0.341862
0.383009
0.369558
0.964695
0.48205
0.801579
0.398379
0.981178
0.392762
0.357808
0.406256
0.674087
0.434472
0.720427
0.627621
0.42847
0.938268
0.348006
1.00292
0.941817
0.343421
0.35435
0.603807
0.732465
0.353752
0.355567
0.458467
0.330335
0.697107
0.47029
0.44256
0.340563
0.365056
0.365837
0.370362
0.353799
0.346718
0.371536
0.344263
0.349439
0.579134
0.435878
0.375063
0.413792
0.346796
0.390367
0.455514
0.368407
0.372588
0.898263
0.367737
0.4499
0.886311
0.997008
0.450266
0.358779
0.435046
0.354652
0.659286
0.384003
0.340818
0.462262
0.353257
0.343106
0.371705
0.405529
0.383299
0.767171
0.59508
0.930759
0.35014
0.452078
0.404148
0.370018
1.06392
0.532046
1.2342
0.344626
0.341929
0.815806
0.542557
0.730333
0.449111
0.343005
0.370323
0.344643
0.928893
0.387073
0.336371
0.813455
0.400255
0.363806
0.35221
0.587506
0.34315
0.450928
0.503829
0.364708
0.955005
0.446838
0.379201
0.964363
0.6706
0.384756
0.804281
0.743214
0.375092
0.832608
0.358949
0.354593
0.382216
0.56644
0.41501
0.418378
0.361173
1.05131
0.888929
0.687148
0.50924
0.84407
0.485414
0.372398
0.445688
0.400079
0.396242
0.644327
0.547653
0.782723
0.376524
0.362906
0.521073
0.423039
0.494074
0.804754
0.436696
0.441914
0.340251
0.347059
0.339925
0.374126
0.331738
0.719777
0.340774
0.72344
0.39472
0.345872
0.457607
0.588793
0.637451
0.540373
0.459908
0.566476
0.355062
0.362031
0.383042
1.03728
0.348925
0.437238
0.987613
0.342185
0.330054
0.342088
0.451735
1.02808
0.659644
0.747984
0.49842
0.359477
0.364056
0.367842
0.633427
0.347763
0.379515
0.759583
0.642885
0.690895
0.529022
0.504895
0.469484
0.882408
0.737066
0.367081
0.400223
0.50691
0.353525
1.03119
0.947118
0.348646
0.348407
0.339928
0.34822
0.359135
0.341631
0.408818
0.408732
0.522131
0.800474
0.742041
0.545237
0.366727
0.470383
0.894066
0.698776
0.8746
0.706212
0.440623
0.359967
0.527418
0.603957
0.813448
0.451112
0.420641
0.505431
0.457767
0.731814
0.386487
0.722204
0.862355
0.516061
0.501582
0.364955
0.462733
0.346337
0.734958
0.563477
0.455486
0.42467
0.407731
0.393203
0.446497
0.413446
0.569153
0.392686
0.336193
0.367015
0.344094
0.835494
0.467973
0.878554
1.08727
0.814464
0.685445
0.527032
0.376746
0.373194
0.501851
0.52377
0.378535
0.341434
0.85502
0.78239
0.443068
0.426204
0.336422
0.361204
1.01052
0.43481
0.39446
0.375268
0.509132
0.426868
0.602642
0.455066
0.594416
0.379678
0.357082
0.421114
0.99759
0.532375
0.468123
0.956694
1.05412
0.558887
0.415007
0.464717
0.360147
0.358643
0.352208
0.33878
0.456808
0.372695
0.40683
0.678948
0.40524
0.882406
0.528723
0.437305
0.373363
0.866815
0.383295
0.398041
0.439879
0.962684
0.346773
0.452549
0.366691
0.912022
0.394619
0.499085
0.413086
0.525213
0.703596
0.789593
0.364062
0.694705
0.804639
0.590339
0.399917
0.69011
0.677649
0.999375
0.3711
0.372286
0.377671
0.34262
0.341169
0.915414
0.404036
0.333456
0.891011
0.549758
0.995509
0.3688
0.367113
0.360175
0.791519
0.521566
0.470041
0.382699
0.356836
0.351569
0.36391
0.349967
0.347815
0.348659
0.366512
0.368424
0.374597
0.521737
0.371019
0.348947
0.360757
0.350726
0.344645
0.370115
0.344144
0.363882
0.346887
0.3458
0.350519
0.345351
0.793532
0.820893
0.347398
0.83533
0.34978
0.36372
0.357257
0.357878
0.375875
0.351662
0.955597
1.07643
1.06957
0.405151
0.388585
0.641299
0.704948
0.34006
0.433315
0.352775
0.364995
0.884506
0.563934
0.407348
0.382403
0.392119
0.840711
0.616922
0.553853
0.791794
0.435125
0.573334
0.463236
0.408307
0.817298
0.689524
0.398713
0.630217
0.820292
0.696425
0.612846
0.654067
0.353117
0.887922
0.501858
0.382196
0.774083
0.545957
0.520019
0.8521
0.641782
0.793564
0.768391
0.811026
0.598756
0.348385
0.90412
0.464012
0.624357
0.522929
0.396579
0.364782
1.06801
0.979286
0.775072
0.371718
0.787532
0.452649
0.806091
0.788762
0.53403
0.926123
0.987529
0.710135
0.57437
0.503848
0.372592
0.398255
0.377177
0.347683
0.820934
0.780912
0.857508
0.853204
0.734026
0.738201
0.79329
0.748357
0.42257
0.364326
0.377782
0.377907
0.359091
0.448356
0.365013
0.707213
0.686038
0.855835
0.487941
0.34837
0.917118
1.08469
1.01869
0.785818
0.621366
0.418862
0.920313
1.10031
0.906364
0.335248
0.618467
0.346873
0.699648
0.607854
0.783186
0.621986
0.455478
0.537207
0.570267
0.897456
0.935735
0.837559
0.936969
0.882451
0.940096
1.06604
0.945574
0.3631
0.345335
0.350634
0.389977
0.390891
0.339065
0.333178
0.351055
0.437218
0.375103
0.361561
0.363505
0.365227
0.527573
0.346331
0.338321
0.339341
0.338107
0.367328
0.359506
0.483941
0.429293
0.434808
0.398284
0.481641
0.462304
0.539325
0.411258
0.365958
0.363474
0.773074
0.629073
0.739029
0.346437
0.401119
0.385541
0.341556
0.42084
0.430369
0.352616
0.360538
0.470507
0.727232
0.361639
0.601332
0.413444
0.447865
0.486687
0.421789
1.00268
0.41109
0.431852
0.448087
0.394888
0.392643
0.354859
0.381968
0.751135
0.54377
0.365313
0.401788
0.442387
0.363133
0.892113
0.60946
0.370188
0.586981
0.556878
0.564833
0.848991
0.733922
0.526425
0.730789
0.62031
0.939888
0.424569
0.391716
0.463969
0.386517
0.539124
0.371309
0.427379
0.349376
0.339415
0.339368
0.346709
0.465788
0.474321
0.367955
0.36027
0.338518
0.507042
0.438643
0.509994
0.362323
0.376513
0.499898
0.343243
0.88215
0.560174
0.542396
1.02207
0.982771
0.801083
0.615447
0.345557
0.425869
0.361094
0.376449
0.356225
0.387313
0.826773
0.354928
0.628176
0.955624
0.628892
0.75636
0.479439
0.365313
0.335285
0.381594
0.333348
0.362491
0.419715
0.381011
0.400241
0.37956
0.425317
0.356776
0.485161
0.680523
1.09662
0.430153
0.339307
0.341625
0.348967
0.35486
0.369052
0.419323
0.452386
0.856782
0.384611
0.390471
0.572789
0.465504
0.353698
0.401756
0.347159
0.80268
0.574021
0.427434
0.416607
0.35293
0.376267
0.814364
0.385979
0.510658
0.792384
0.412845
0.629508
0.657729
0.419901
0.57661
0.340177
0.340741
0.677772
0.409866
0.337903
0.337198
0.390071
0.418812
0.427111
0.341955
0.401247
0.34931
0.681155
0.674045
0.760395
0.564125
0.572605
0.457373
0.919888
0.340586
0.332522
0.333231
0.337459
0.341378
0.347465
0.351505
0.409791
0.356463
0.409036
0.731641
0.471896
0.593822
0.477936
0.627666
0.358385
0.414083
0.513074
0.812329
0.600539
0.339748
0.334887
0.955993
0.84307
0.645283
0.492285
0.473314
0.752563
0.500546
0.679834
0.581419
0.466821
0.458087
0.627232
0.388284
0.522516
0.342678
0.838488
0.548404
0.495861
0.778803
0.904008
0.438744
0.426939
0.484466
0.850995
0.363957
0.381078
0.838939
0.883632
0.546861
0.413032
0.352937
0.372016
0.50296
0.358338
0.420193
0.340809
0.357725
0.719
0.905062
0.370285
0.469334
0.530735
0.48809
0.897585
0.37519
0.980729
1.01112
0.352247
0.43381
0.36687
0.349563
0.872616
0.408281
0.846931
0.376149
0.416719
0.812544
0.360571
0.58059
0.74486
0.437874
0.460293
0.438514
0.50028
0.367861
0.344386
0.360447
0.405763
0.352415
0.543469
0.366938
0.358276
0.651852
0.706979
0.950176
0.889547
0.534065
0.725425
0.356356
0.352577
0.435322
0.44944
0.410211
0.385868
0.449725
0.35622
0.337997
0.340069
0.427332
0.486805
0.383868
0.344213
0.370361
0.372683
0.490331
0.381093
0.706349
0.399782
0.342808
0.340397
0.351194
0.377553
0.370007
0.607601
0.658587
0.622178
0.659078
0.702363
0.792857
0.440943
0.41348
0.40095
0.383873
0.894624
0.400881
0.394257
0.477218
0.367628
0.90778
0.59161
0.429156
0.449498
0.467163
0.837185
0.398207
0.363448
0.463824
0.423511
0.845628
0.420454
0.435397
0.747941
0.374315
0.572998
0.371639
0.617558
0.584935
0.551398
0.337314
0.77274
0.451113
0.694233
0.396486
0.715317
0.856731
0.604684
0.386825
0.415479
0.489986
0.531827
0.670597
0.907292
0.699292
0.338071
0.579177
0.92553
0.527257
0.867027
0.832594
0.747027
0.521016
0.411239
0.35983
0.368922
0.371373
0.424595
1.03693
0.478946
0.623195
1.1104
0.499983
0.493045
0.504869
0.54693
0.661353
0.334279
0.361975
0.45966
0.370419
0.379724
0.375955
0.414814
0.368769
0.3572
0.608985
0.354404
0.384225
0.373038
0.384209
0.992696
0.611695
0.666128
0.698129
0.651992
0.657704
0.630156
0.353335
0.340063
0.353433
0.650014
0.346269
0.353294
0.56972
0.876604
0.641069
1.05575
0.352953
0.98709
0.790583
1.07897
0.924316
0.477431
1.01265
0.793948
0.756209
0.801309
0.948548
0.849624
0.55875
0.862275
0.448307
0.734966
0.365359
0.910559
0.750069
0.698922
0.618092
0.772405
0.8945
0.555212
0.646396
0.579915
0.760856
0.707949
0.763888
1.1438
0.536918
0.642462
0.700503
0.793997
0.817773
0.428475
0.369124
0.615099
0.477613
0.601647
0.690918
0.506954
0.647827
0.582871
0.697965
0.74348
0.658203
0.810995
0.35459
1.07528
0.413
1.224
1.24679
0.498443
0.765419
0.462085
1.03593
0.706834
0.548456
0.465428
0.389603
0.375738
0.411674
0.458132
0.705493
0.521887
0.892184
0.43003
0.88782
0.93647
1.21375
0.779688
0.366378
0.923158
1.29829
0.85552
0.781119
0.342218
0.735582
0.900677
0.788864
0.388057
0.358922
0.70562
0.404057
0.460329
0.720432
0.798184
0.419986
0.332558
0.352004
0.368776
0.393619
0.463948
0.405992
0.416003
0.352598
0.399022
0.386049
0.672062
0.968083
0.464447
0.588109
0.637181
0.458552
0.403189
0.370078
0.426536
0.418032
0.426805
0.457923
0.463413
0.430115
0.40526
0.442701
0.34331
0.337805
0.663014
0.384803
0.3516
0.447789
0.878773
0.390798
0.433976
0.383582
0.417814
0.953364
0.782163
0.526503
0.716227
0.343578
0.349229
0.608842
0.824281
0.687938
0.812315
0.812188
0.669306
0.713438
0.807658
0.691707
0.406824
0.70641
0.703018
0.73604
0.426133
0.873666
0.344004
0.336549
0.358546
0.328481
0.333923
0.538548
0.539477
0.432894
0.431996
0.342589
0.535524
0.650925
0.808521
0.786409
0.789695
0.588275
0.701131
0.753966
0.834502
0.584847
0.516645
1.12354
0.37901
0.583642
0.762406
0.363971
0.354121
0.342
0.519688
0.477188
0.409922
0.719784
0.451451
0.366511
0.821907
0.457221
0.680827
0.355008
0.396562
0.414144
0.425436
0.362404
0.542503
1.08758
0.37008
0.414631
0.362039
0.369226
0.382207
0.35948
0.35516
0.339017
0.472598
0.377275
0.391767
0.383423
0.358911
0.340707
0.408015
0.364905
1.00682
0.488046
0.416089
0.662388
0.438477
0.387661
0.439055
0.365871
0.407552
0.34171
0.345014
0.397424
0.343318
0.35021
0.356894
0.346175
0.347866
0.342741
0.639722
0.717686
0.433674
0.392179
0.892109
0.404113
0.469494
0.486303
0.648179
0.63635
0.614073
0.749189
0.948988
1.00497
0.815272
1.08053
0.974187
0.530183
0.381128
0.342671
0.389877
0.72887
0.474539
0.71437
0.380158
0.343376
0.44818
0.511105
0.344588
0.375824
1.04344
0.362186
0.464424
0.785242
0.366898
0.452079
0.366644
0.40997
0.336198
0.525518
0.956514
0.378856
0.548764
0.464572
0.406498
0.342626
0.351109
0.341187
0.495111
0.45148
0.361832
0.347724
0.426351
0.354844
0.450501
0.397163
0.400232
0.599223
0.432401
0.517969
0.39481
0.386083
0.74493
0.682153
0.627436
0.604379
0.750288
0.559058
0.355683
0.444278
0.371757
0.995263
0.355266
0.378611
0.428134
0.384118
0.528583
0.811846
0.443371
0.418022
0.511124
0.362272
0.423422
0.937175
0.340922
0.339523
0.374775
0.390155
0.761193
0.444787
1.01702
0.597174
0.380277
0.34876
0.372971
0.439743
0.523219
0.663362
0.730027
0.845168
0.449353
0.370342
0.528525
0.969178
0.558269
0.54434
0.816405
0.601557
1.14014
1.04617
0.471446
1.12945
1.00331
0.864777
1.01184
0.347186
0.523978
0.426595
0.339422
0.358241
0.368483
0.595947
0.365669
0.787613
0.404972
0.751123
0.725748
0.357442
0.382208
0.400779
0.346689
0.413032
0.460539
0.678213
0.711432
0.619704
0.884761
1.04065
0.531127
0.576925
0.421746
0.387164
0.662016
0.90197
0.810181
0.335564
0.343994
0.343223
0.337321
0.365621
0.355187
0.342833
0.407972
0.358703
0.426678
0.491928
0.425268
0.385776
0.395579
0.437068
0.603412
0.653716
0.942125
0.918789
0.437248
0.628888
0.449365
0.73378
0.520471
0.893984
0.350696
0.355242
0.896954
0.441642
0.399855
0.422866
0.444272
0.464773
0.983248
1.16144
0.417334
0.788659
0.618551
0.634566
0.722531
0.455606
0.509039
0.542754
0.338152
0.443837
0.381242
0.34417
0.881749
0.422969
0.342536
0.399394
0.398739
0.598115
0.862718
0.829203
0.599729
0.875095
0.85889
0.875449
0.853705
0.373667
0.37955
0.690154
0.391897
0.837292
0.494649
0.765162
0.408693
0.417239
0.347751
0.507218
0.350927
0.468622
0.334615
0.357882
0.345757
0.374714
0.418228
0.587241
0.634733
0.528292
0.962575
0.369161
1.00605
0.670604
0.799464
0.526384
0.335868
0.356979
0.411182
0.351749
0.338407
0.3349
0.391268
0.337869
0.358817
0.329213
0.390303
0.785066
0.500761
0.395489
0.652138
0.667346
0.566229
0.732908
0.449594
1.28158
0.609929
0.4995
0.389339
0.63423
0.760233
0.78899
0.573681
0.953073
0.346776
0.716861
0.35619
0.346227
0.424059
0.360084
0.361447
0.37936
0.353674
0.376186
0.792572
0.359899
0.631778
0.587608
0.767433
0.70608
0.457893
0.43678
0.76397
0.375447
0.496337
0.587941
0.558651
0.332389
0.791981
0.416448
0.418527
0.416729
0.343717
0.350824
0.348443
0.357383
0.342331
0.582621
0.500093
0.372695
0.357192
0.353753
0.391481
0.376724
0.37351
0.527362
0.494453
1.04123
0.829137
0.915978
0.976626
0.45764
0.476517
0.514119
0.998572
0.478789
0.810919
0.754842
0.564734
0.347058
0.544172
0.696037
0.798966
0.351429
0.344382
0.373963
0.384179
0.360339
0.381327
0.521892
0.459718
0.552672
0.440593
0.420842
0.429212
0.442809
0.471218
0.493292
0.831698
0.676132
0.61678
0.796373
0.65176
0.611802
0.651213
0.561889
0.565096
0.38189
0.422315
0.381015
0.4114
0.40156
0.546458
0.430285
0.411648
0.366309
0.416525
0.335163
0.345285
0.339198
0.336146
0.445562
0.334917
0.635721
0.340812
0.350646
0.357606
0.807098
0.994512
0.704598
0.75808
0.390298
0.45915
0.347697
0.367892
0.36712
0.352516
0.428582
0.971298
0.798135
0.587518
0.451279
0.731519
0.370809
0.899044
0.412416
0.886441
0.519746
0.705211
0.774985
0.990478
0.952099
0.861567
0.854586
0.699331
0.474967
0.460332
0.865333
0.428962
0.438012
0.353884
0.751601
0.388398
0.374923
0.356839
0.380782
0.33966
0.68898
0.901102
0.508866
0.445886
0.390045
0.352162
0.354081
0.561172
0.563951
0.451002
0.652173
0.34364
0.347964
0.402051
0.45517
0.458847
0.93611
0.558558
0.886419
0.715559
0.929862
0.843621
0.969522
0.661197
0.956493
0.902292
0.856397
0.945879
0.965273
0.776895
0.911498
0.620296
0.662026
0.406703
0.753644
0.3985
0.366061
0.372199
0.45825
0.38097
0.356226
0.354073
0.541249
0.682973
0.546104
0.652199
0.563853
0.702578
0.465764
0.802282
0.844906
0.386106
0.799232
0.487946
0.72768
0.745959
0.355725
0.361053
0.382153
0.375266
0.358358
0.377877
0.353057
0.426309
0.531385
0.910556
0.796842
0.536887
0.676384
0.363205
0.411372
0.384398
1.03533
0.657244
0.365877
0.355795
0.384457
0.830706
0.355661
0.403178
0.394765
0.829307
0.681457
0.662599
0.409736
0.394427
0.372146
0.474162
0.476281
0.693801
0.467299
0.691821
0.726895
0.719845
0.442964
0.462683
0.409247
0.452994
0.568144
0.346648
0.344456
0.378703
0.469862
0.420323
0.4095
0.407254
0.581602
0.591322
0.723024
0.791408
0.66816
0.656595
0.580171
0.488874
0.50276
0.464019
0.419715
0.447164
0.402494
0.430455
0.430477
0.411769
0.458702
0.561371
0.390116
0.355624
0.342217
0.351698
0.345766
0.387314
0.379938
0.376255
0.349449
0.353496
0.457636
0.465544
0.573005
0.404128
0.426657
0.354112
0.376847
0.372141
0.396125
0.412891
0.339018
0.350063
0.455134
0.430261
0.663395
0.387925
0.706713
0.403378
0.364534
0.372605
0.370053
0.434295
0.928952
0.349846
0.978897
0.384595
0.413545
0.441514
0.339109
0.442957
0.507043
0.341873
0.398785
0.470672
0.422731
0.419345
0.461048
0.395339
0.397842
0.526302
0.80493
0.433467
0.415732
0.43948
0.417051
0.569168
0.661288
0.679858
0.510785
0.548071
0.447919
0.572166
0.720926
0.382406
0.364798
0.37323
0.339663
0.359073
0.705628
0.345849
0.36373
0.408862
0.937049
0.929227
0.685446
0.910507
0.508199
0.80738
0.940788
0.548294
0.879708
0.372537
0.336329
0.348619
0.519661
0.57768
0.354223
0.36956
0.372316
0.421693
0.357554
0.650466
0.372715
0.362164
0.338852
0.468889
0.761006
0.414029
0.405211
0.446331
0.402558
0.379956
0.481318
0.393231
0.378299
0.354578
0.352398
0.340814
0.349655
0.341166
0.341436
0.420092
0.346764
0.354672
0.344266
0.351734
0.46689
0.386255
0.350975
0.338399
0.343764
0.377434
0.344091
0.398733
0.666037
0.427428
0.436429
0.341618
0.337357
0.39407
0.396843
0.384708
0.369149
0.388608
0.340379
0.561687
0.354538
0.369024
0.633454
0.36084
0.350264
0.33398
0.36388
0.367892
0.34935
0.407303
0.497315
0.375789
0.366313
0.338379
0.364815
0.342504
0.348505
0.35083
0.345367
0.369136
0.347028
0.356494
0.371398
0.367631
0.570852
0.360669
0.342451
0.557844
0.354553
0.518748
0.65928
0.36364
0.390038
0.404189
0.343135
0.361788
0.49803
0.371763
0.363129
0.365783
0.390758
0.500082
0.369077
0.492202
0.352175
0.365471
0.432664
0.601477
0.460603
0.629845
0.405998
0.390297
0.420579
0.462551
0.420477
0.370994
0.353538
0.367873
0.374703
0.386983
0.590851
0.439004
0.452321
0.347913
0.429844
0.502961
0.351093
0.394583
0.337401
0.381315
0.385082
0.426708
0.797035
0.520652
0.958079
0.738024
0.387464
0.499801
0.443361
0.863522
0.351948
0.350927
0.354694
0.38744
0.338781
0.403066
0.356749
0.357223
0.354685
0.396344
0.85551
0.775063
0.356509
0.358388
0.388248
0.412086
0.807709
0.599118
0.5847
0.381099
0.54004
0.469029
0.345856
0.348831
0.372362
0.797745
0.399763
0.442317
0.374472
0.462132
0.807078
0.899366
0.381273
0.425404
0.88556
0.376714
0.360659
0.481002
0.356938
0.475718
0.426252
0.401909
0.388492
0.359294
0.362014
0.347571
0.665911
0.433461
0.352861
0.349704
0.400072
0.353284
0.345079
0.34698
0.35053
0.365551
0.630281
0.394849
0.379818
0.417119
0.533346
0.395079
0.391238
0.383802
0.524354
0.440667
0.49039
0.427157
0.910149
0.642397
0.426588
0.730437
0.552907
0.818831
0.347523
0.336135
0.364232
0.34768
0.450198
0.527471
0.353997
0.481814
0.984511
0.590834
0.34025
0.354538
0.353882
0.352877
0.341951
0.34606
0.480881
0.551291
0.420811
0.934944
0.433791
0.490333
0.422946
0.370601
0.346678
0.420527
0.492734
0.408655
0.41734
0.518521
0.509237
0.426954
0.365857
0.380204
0.354948
0.418593
0.454119
0.540492
0.73162
0.394751
0.353935
0.350184
0.38208
0.393592
0.584615
0.345535
0.419202
0.820325
0.52608
0.574538
0.667038
0.482399
0.47879
0.406149
0.405259
0.374488
0.343355
0.348858
0.382942
0.345952
0.344929
0.374674
1.00841
1.06386
0.440493
0.393288
0.417117
0.351416
0.816785
0.887824
0.51206
0.85962
0.561177
0.453011
0.536995
0.530881
0.490504
0.976435
0.490054
0.460147
0.764486
0.807486
0.354467
0.464508
0.340244
0.343951
0.469169
0.3514
0.3499
0.476767
0.426533
0.947075
0.653897
0.419276
0.859139
0.603224
0.460664
0.492886
0.768974
0.834548
0.483712
0.524447
0.545997
0.409409
0.349516
0.341686
0.344452
0.491535
0.37626
0.371219
0.985513
0.704632
0.527712
0.362694
0.44939
0.68553
0.376285
0.414767
0.413076
0.339914
0.409113
0.630596
0.553924
0.527256
0.415733
0.380511
0.355994
0.334541
0.903177
0.458337
0.402794
0.369443
0.449253
0.416077
0.355759
0.593985
0.431779
0.513864
0.351325
0.373498
0.62405
0.368715
0.471594
0.401372
0.428123
0.426711
0.730121
0.727253
0.523257
0.450807
0.489938
0.894066
0.750833
0.512611
0.427506
0.687244
0.804613
0.44466
0.908976
0.579557
0.678608
0.37649
0.58602
0.479284
0.388395
0.467544
0.398811
0.398679
0.58438
0.346211
0.389236
0.432588
0.432367
0.424429
0.406209
0.398215
0.36889
0.594285
0.710834
0.918599
0.454485
0.390626
0.668118
0.598227
0.446372
0.738728
0.352183
0.370972
0.369028
0.625268
0.562052
0.352399
0.345987
0.496812
0.819171
0.677902
0.366503
0.377529
0.442044
0.633506
0.390773
0.527331
0.905327
1.18675
0.910785
0.457116
0.359545
0.422638
0.511862
0.960068
0.51146
0.51936
0.496056
0.562111
0.341869
0.346312
0.346186
0.4066
0.429698
0.593954
0.43249
0.410575
0.439301
0.350119
0.601147
0.788219
0.867113
0.448517
0.554202
0.598019
0.529098
0.787144
0.640596
0.5306
0.617244
0.417352
0.572958
0.621752
0.588476
0.468378
0.757262
0.389596
0.450123
0.425766
0.359235
0.878559
0.414454
0.868116
0.336716
0.400895
0.429352
0.505787
0.42885
0.790263
0.67345
0.454563
0.390014
0.369716
0.516159
0.745784
0.969208
0.93731
0.336769
0.746716
0.376775
0.43331
0.665923
0.446539
0.771228
1.03412
0.339162
0.772455
0.420066
0.422942
0.3825
0.385958
0.382908
0.33911
0.737353
0.395324
0.641399
0.545814
0.760354
0.387166
0.348562
0.394898
0.398018
0.384977
0.922638
0.649028
0.345966
0.75665
0.345492
0.431923
0.501241
0.734636
0.647422
0.432048
0.553546
0.602424
0.588492
0.543414
0.454484
0.46307
0.65969
0.823539
0.356534
0.74784
0.936833
0.424797
0.455654
0.463161
0.438886
0.740836
0.358853
0.34913
0.83678
0.359294
0.633425
0.362663
0.359231
0.363135
0.377417
0.366816
0.365855
0.355936
0.349684
0.358413
0.351519
0.336851
0.364246
0.349704
0.623418
0.91229
0.359001
0.716234
0.369685
0.362895
0.355675
0.346192
0.626057
0.491055
0.601794
0.605247
0.441385
0.788689
0.40933
0.340297
0.355315
0.335534
0.358116
0.327578
0.355217
0.372453
0.380564
0.444691
0.932173
0.38712
0.375127
0.837388
0.791429
0.596628
0.770312
0.903741
0.647175
0.866548
0.677774
0.72676
0.540273
0.694944
0.640792
0.567116
0.92313
0.929462
0.990004
0.684312
0.452984
0.866113
1.12172
0.831544
0.463297
0.853168
0.949318
0.546736
0.671277
0.566178
0.408949
0.562584
0.571484
0.987315
0.940096
1.07091
0.490806
0.453315
0.959549
0.741831
0.880106
0.392183
0.380652
0.77581
0.711064
0.444702
0.364724
0.362798
0.91025
1.14054
0.933541
0.357816
0.374572
0.398065
0.437326
0.375164
0.484796
0.384899
0.750851
0.806784
0.657471
0.712359
0.885782
0.731899
0.806959
0.519336
0.463228
0.403072
0.714359
0.681139
0.46851
0.380141
0.389859
0.566893
0.552875
0.841776
0.342038
0.445482
0.523299
0.484722
0.428528
0.529736
0.436553
0.618724
0.460042
0.869107
0.856732
0.430727
0.342289
0.338653
1.02007
0.948772
1.13009
0.334661
1.03253
0.912323
0.355692
0.972416
0.941883
1.05926
0.33928
0.34166
0.339136
0.340734
0.335555
0.370915
0.379009
0.354518
0.350799
0.992764
0.845735
0.888121
0.787235
0.820143
0.944001
0.341142
0.344475
0.341563
0.356251
0.868846
0.349507
0.39031
0.40346
0.380399
0.377696
0.423475
0.407353
0.399164
0.380444
0.359693
0.553937
0.353834
0.345698
0.382093
0.35555
0.335439
0.339726
0.35523
0.358388
0.611372
0.507494
0.480926
0.405303
0.367771
0.369678
0.368852
0.342825
0.757349
0.366865
0.351163
0.353383
0.504522
0.469216
1.03848
0.99791
0.802011
0.862195
0.368504
0.476486
0.365516
0.378861
0.350937
0.345114
0.341878
0.335313
0.441868
0.637136
0.406869
0.597866
0.395732
0.346905
0.331947
0.356646
0.345473
0.347043
0.51636
0.345607
0.339114
0.375843
0.356619
0.566647
0.38237
0.349068
0.361393
0.368794
0.38784
0.417438
0.819054
0.410415
0.61086
0.458234
0.388598
0.518206
0.631201
0.483199
0.581996
0.850868
0.512537
0.482616
0.58931
0.689563
0.497467
0.44139
0.676948
0.939476
0.457247
0.526355
0.98649
0.466828
0.503489
0.453758
0.538189
0.896897
1.00562
0.76124
0.999665
0.801273
0.545145
0.51061
0.349556
0.38117
0.474453
0.347828
0.461178
0.361625
0.399392
0.476492
0.366296
0.376042
0.379361
0.382111
0.550244
0.501571
0.561118
0.631994
0.364923
0.354267
0.364632
0.346897
0.399136