/*--------------------------------*- C++ -*----------------------------------*\
| =========                 |                                                 |
| \\      /  F ield         | OpenFOAM: The Open Source CFD Toolbox           |
|  \\    /   O peration     | Version:  2506                                  |
|   \\  /    A nd           | Website:  www.openfoam.com                      |
|    \\/     M anipulation  |                                                 |
\*---------------------------------------------------------------------------*/
FoamFile
{
    version     2.0;
    format      ascii;
    arch        "LSB;label=32;scalar=64";
    class       volScalarField;
    location    "0.0380695";
    object      p;
}
// * * * * * * * * * * * * * * * * * * * * * * * * * * * * * * * * * * * * * //

dimensions      [0 2 -2 0 0 0 0];

internalField   nonuniform List<scalar> 
3926
(
5.02319
21.8349
23.2312
48.4401
56.6337
40.007
-4.20264
-116.505
-47.156
-83.2769
-42.2168
10.5954
21.0068
9.54142
25.209
19.9812
5.48467
21.4151
32.0786
16.53
18.9512
39.0981
45.7063
4.92131
28.307
47.755
44.0307
49.8633
47.0008
4.1895
-11.8519
27.0265
-12.3715
-13.6058
-16.4393
-13.1781
-52.7944
25.0822
30.6256
12.9651
35.6189
-101.658
-2.76653
16.9875
26.352
-64.318
-0.842131
-24.1194
48.1282
32.5131
29.6943
-81.3704
64.6625
-54.4873
31.1851
0.903242
-55.0652
60.3254
22.6224
55.6203
19.9468
-41.5169
-80.9366
43.6398
-48.9067
-33.9461
-43.1202
-39.2735
-42.3557
-30.8652
-22.1758
23.9352
-42.766
17.6507
-12.4323
62.7718
-8.65305
46.3859
44.9373
25.8154
56.5901
31.5389
-28.8015
-73.2323
16.2474
12.0817
18.2414
16.2352
-49.5022
28.806
24.8787
34.1504
22.3783
-4.32336
11.6086
-86.3375
2.5466
-16.7314
60.1371
-18.4205
-29.7942
39.8312
-2.1171
36.2225
-1.73649
15.5143
29.0899
18.7103
25.1357
23.6129
26.2636
30.3915
36.9926
32.7473
22.6202
63.0286
49.0894
20.4228
12.2325
39.0283
14.1972
15.519
25.2141
25.237
23.8579
25.3915
-38.9652
35.0346
-9.86891
19.8466
18.6701
10.2313
1.36049
-5.119
48.6446
41.6313
37.586
4.42945
29.8077
52.339
15.5147
26.7337
44.8791
43.1041
32.7618
50.7798
47.8078
31.7283
34.3353
35.9694
45.4566
42.3201
40.592
50.1754
47.5792
41.4756
34.0501
46.8552
52.1036
52.4958
-15.7075
25.9089
34.9124
63.1643
47.2459
38.804
31.6962
23.3626
5.05862
45.211
-65.937
-13.4519
21.4025
28.0623
8.1623
-20.2036
31.8683
56.1005
37.4075
18.8701
62.847
10.7387
63.1664
12.7366
18.7696
9.80431
-8.22744
35.1564
38.1197
36.5893
45.5489
26.844
46.7544
17.1544
25.7723
23.4553
5.54212
36.4155
18.1325
9.35411
44.8943
-23.4775
59.9183
14.5436
21.8722
34.4048
29.6597
63.0048
5.40181
18.5097
20.5765
24.8198
46.7398
-13.0298
24.0482
57.801
31.6278
41.4132
34.0259
37.2999
5.24026
-21.6073
-3.19684
-44.1524
-16.9281
60.7564
55.2276
13.5465
23.9119
-13.0363
0.649446
58.5629
6.94571
28.6187
-7.02422
49.6984
-17.9186
51.6236
-59.1604
1.04232
-49.1979
2.94652
-6.4747
61.2269
18.8143
32.9831
46.9788
8.84759
24.8968
-128.517
24.7104
51.2457
-75.9506
-8.9243
-4.64231
65.6302
-55.0702
-7.93477
4.47152
-26.3375
10.1425
45.4354
34.9379
61.1841
55.1079
-17.5798
19.9423
44.6702
46.8135
-46.2174
48.8098
-63.2682
11.3134
-21.9298
13.9573
19.2703
20.8555
4.70937
29.162
19.7825
29.6316
-51.7728
7.10672
37.4718
-30.2592
-39.5398
-26.111
-41.0979
-50.2401
-3.09015
30.3767
22.3022
32.2672
-39.3934
20.2642
48.5539
12.4231
9.57682
13.4243
63.4872
-78.7768
36.5526
37.1905
31.4143
32.5385
-37.3215
-75.0698
-21.1417
24.0208
-3.30004
-62.113
11.4933
53.2665
19.2594
-20.5537
-17.3581
38.7048
15.7203
40.3051
-22.6741
-37.218
18.258
2.28815
58.164
46.2934
26.5346
-43.1175
58.0602
-61.6562
0.0737653
54.4578
30.9761
17.0665
22.8783
19.9789
21.4843
34.614
63.7583
63.2743
65.0627
62.9737
65.4881
-23.4315
21.0052
17.6743
13.7183
65.0898
60.0421
56.2592
66.0985
52.347
63.6913
62.8184
64.4681
-42.668
-46.3558
-43.84
-48.7019
-15.739
22.9725
17.3187
19.3698
-27.8818
-25.2901
-47.7918
13.7308
-15.3326
24.6033
21.1812
-0.31246
-1.10724
20.0099
38.4583
30.3956
-38.7339
18.4124
53.1958
34.0303
57.9859
46.0623
22.6271
-24.7123
45.0129
54.4793
26.2573
23.8484
-8.25093
-31.7904
-23.6515
-20.2331
-64.2642
23.0143
-70.543
-15.7941
14.5121
-18.6405
24.9611
20.7953
45.5401
16.9102
10.3667
-10.4996
30.6574
15.5464
39.2848
45.2457
25.7871
21.7735
-21.5455
15.9926
30.282
-81.8358
53.8444
49.8147
33.0396
41.8927
23.1747
-46.031
34.3636
18.7096
27.8102
11.9678
7.22174
26.9216
44.7611
21.5453
39.6651
23.0146
15.7188
16.0366
46.5999
15.8612
-28.2741
-10.658
23.9712
26.2094
48.5982
17.7646
-44.0545
24.8549
27.4648
-83.9716
58.6233
8.43005
6.14761
-62.5272
48.1859
-42.1438
21.8897
19.26
-82.9571
-2.99034
15.3742
31.7142
10.0085
-31.2409
-27.4877
-19.5902
-18.2493
-12.4262
13.426
49.9326
15.1422
26.9295
12.216
30.9137
4.72328
-93.1261
-6.66922
-1.36507
1.93118
4.15056
16.2704
15.427
-5.58558
-6.79023
-4.80194
7.21674
17.2082
26.4917
31.9416
-24.2802
24.1642
38.7014
17.0861
-12.9415
-81.0849
45.1793
3.26363
-77.6598
41.3605
32.8622
-65.981
-52.4512
-22.8931
-30.6094
-32.601
-21.7233
-12.3691
-33.3885
-9.92504
-45.7304
19.0751
23.4537
21.8556
-48.6005
29.8422
-17.8124
23.4799
-37.4617
53.0551
-78.9948
-68.1748
47.9169
45.3818
42.6077
19.3917
45.8612
-190.273
-44.5202
-70.4059
33.064
63.1603
27.4583
38.7681
48.3587
35.4434
63.7012
60.9368
29.9875
22.8399
27.3989
19.3052
19.5602
-40.1681
-48.3923
-75.0665
-106.925
-6.53481
-5.25296
-7.10523
-45.6149
-73.3732
-80.6748
-76.25
-54.9258
-42.541
-14.1684
-15.5718
-13.1696
-14.673
-21.6023
-25.0474
22.3622
24.1038
62.5765
14.0353
30.0328
37.2209
37.2965
-18.3658
51.0431
11.3203
13.7398
-1.25954
-1.61462
-60.0811
-46.0392
-34.3215
-72.2599
31.3263
23.4837
17.7965
14.5099
16.6107
-41.6631
-5.51671
1.51107
-61.4328
12.3078
57.5158
-6.18266
20.58
28.3108
42.4937
58.9061
27.1863
24.8813
23.6568
22.4592
54.5101
-13.5765
-59.4997
-51.8399
26.4939
26.0262
-9.50134
12.0701
-1.94648
54.5595
27.8375
33.5689
34.2135
32.8716
21.0687
18.352
36.965
31.6959
40.0506
41.6705
49.4954
36.2602
55.5867
36.771
27.8218
30.0921
22.0624
15.8393
22.2387
19.6231
18.1877
11.1579
7.60362
-5.36904
-51.7968
-45.5018
-36.4176
20.0387
12.797
12.3268
25.7432
24.814
21.1154
13.9819
47.6011
17.444
27.3657
-32.1797
-28.8248
-42.7747
-20.4871
14.7282
-8.63922
45.1434
-42.5703
35.9414
25.6681
41.4933
29.3147
38.1357
29.9723
23.3369
33.7213
45.5612
21.0984
53.0535
-5.61136
-5.1728
-8.32503
55.4361
57.6545
8.91337
12.4439
8.60403
52.4746
13.1224
17.1539
-22.405
23.6618
7.42321
43.6306
23.1887
22.3018
45.6758
1.81348
-11.0656
9.6121
48.4286
43.0379
42.4412
36.308
38.163
48.7008
60.1841
56.239
27.9692
30.5873
26.8479
19.6599
19.2128
43.5124
34.0523
21.3261
47.1424
39.7771
20.7361
21.9718
22.6991
-11.042
4.43257
8.23637
4.41217
6.01504
24.9692
14.6518
23.3431
8.06053
0.696337
-1.41002
-1.70435
17.4598
17.077
18.5587
17.8567
21.13
35.0321
31.011
53.1726
57.2451
53.1665
37.3233
38.5898
32.0868
36.7625
29.6763
26.8041
20.8096
20.6942
19.6375
41.8235
18.552
-1.52188
18.3298
31.936
16.1878
37.2862
1.7747
13.6966
20.3888
19.35
19.2769
17.0676
60.9187
14.7008
23.675
23.079
14.2124
16.8911
15.9175
18.6076
22.101
21.2714
21.6817
20.5607
-10.1316
-10.814
-60.1076
48.8894
-51.5415
-3.33086
-58.556
-3.99866
0.424955
28.3788
48.593
26.9658
37.8416
-5.54514
34.5978
-61.5619
23.2778
-53.7859
-54.9053
0.457455
27.7038
-36.8284
62.0163
24.0461
26.9942
47.339
15.3806
-35.7324
38.1831
44.2268
20.1131
22.5523
26.7637
19.7176
3.91511
15.3031
11.3932
17.8525
19.8805
-15.6566
-18.896
0.37005
-17.6843
22.4013
32.6249
37.2378
1.26141
-6.72934
-39.6691
7.07026
19.2354
-2.25437
-66.5668
-19.7074
4.00711
40.6072
15.4317
-39.7864
12.7028
16.7766
10.8833
16.9312
21.3753
31.796
15.102
32.4136
50.0748
58.2486
-57.6193
14.6121
35.2235
27.4633
-11.6538
-109.132
-33.6996
-55.3397
22.1253
19.6433
-44.3534
66.6075
62.5963
26.7035
20.9921
0.746579
20.5196
-4.50009
29.8337
17.5327
-53.9255
20.8273
14.1891
16.1243
-26.6717
6.90044
-15.7526
-26.306
5.02025
-91.2927
-19.3228
32.8071
-16.227
37.3859
31.2261
60.3357
55.6729
25.6787
33.3973
25.7742
19.1735
10.7038
35.7858
42.5852
37.0965
29.4321
-50.8504
39.502
61.6177
50.2432
58.7101
-3.38263
29.7358
14.7086
19.2755
32.2568
-35.3148
33.6463
56.9833
23.9379
30.4501
-18.3099
-16.6447
36.3967
-49.4799
44.2176
13.7486
11.1303
15.5149
19.5344
-1.4504
16.0645
-46.1007
21.7039
2.0892
34.7555
20.7651
-19.6539
44.4032
57.7232
18.7878
47.6999
-34.3123
11.4115
-2.02088
15.5615
-76.3344
-9.64158
15.6975
-134.656
20.4013
16.0805
17.7661
26.4536
-68.9366
60.408
-76.0664
-4.70149
9.39006
27.9433
-9.48221
53.2296
17.2933
26.8491
-5.25735
59.7622
45.3072
-15.5878
-11.3051
35.0675
-109.661
-42.2061
2.95509
-9.36982
-7.13769
19.0938
-55.2185
-173.247
15.8869
21.5747
18.0378
23.1588
29.3093
15.9396
38.2605
26.9258
-28.706
32.7203
-52.7596
-18.7419
22.4423
30.3403
27.9354
37.3962
37.8244
3.25304
2.80835
24.6338
-28.4046
-30.1646
-46.2802
5.20964
38.4405
49.6239
0.74546
-48.0126
32.4075
47.3965
-60.5218
-19.2143
37.3836
25.1436
-23.3714
0.69289
-37.6048
-32.4213
-18.8021
31.095
-8.03358
31.9782
-11.5022
-16.2866
-9.83899
-0.543721
17.8276
25.0501
10.5948
-11.0192
39.6964
-55.7315
-66.0117
34.3092
24.7401
26.5485
1.98662
8.65385
-22.9231
-7.51878
13.4186
15.6591
-7.99778
-38.2135
-2.20572
-14.5052
10.8899
-2.50331
-84.0574
-13.8465
0.39475
-0.360338
-15.9807
-17.3553
-32.6176
-20.6153
-33.9662
32.7603
23.9271
-7.53178
-62.5494
-27.4696
46.0204
-178.719
-102.514
-32.3156
-9.56838
19.5864
11.189
29.9135
26.3558
19.7067
28.6772
20.9712
39.5337
54.2489
27.5183
28.1639
43.6373
26.2805
24.2044
18.658
34.8879
27.7401
10.5161
-59.7499
12.9178
-5.07956
27.0803
-65.8566
37.2484
46.2859
-12.641
65.9687
57.7044
-52.0685
8.43913
38.035
56.3742
51.3993
5.38508
54.4782
30.6378
-63.6304
18.2581
22.3582
14.4396
16.8344
20.0189
-61.3299
5.22005
17.0703
59.7511
-29.0409
-66.9037
15.7472
28.9337
23.8459
62.3211
-21.8502
49.1471
17.5036
24.5296
24.5038
27.1121
22.2448
21.7447
22.2972
28.8246
29.0976
15.2536
44.6691
13.5771
20.1178
27.8235
24.5442
22.258
11.2987
20.2649
27.773
23.0839
23.6441
21.2144
14.1324
39.4153
62.7
11.7082
55.5363
12.5979
24.6936
20.7061
17.0862
19.6413
20.1976
-53.4181
-51.7742
-76.1018
-3.27814
27.8677
-34.326
-38.0333
5.54618
42.3275
-3.5941
-12.1641
-44.084
6.77893
23.5564
-12.9977
8.01979
45.5259
-35.0724
-27.0935
-45.1645
-18.0367
-27.7752
-0.743328
37.9838
57.4598
-28.1168
0.354897
39.1201
63.2498
62.9446
16.9132
-17.7924
11.9244
-68.3976
46.5473
34.8203
61.1969
17.2385
64.7355
64.53
-35.8569
-40.245
61.7527
61.105
48.7302
25.0381
-166.789
-23.2824
-35.6374
45.5979
19.4745
30.6513
-59.1163
-192.334
62.4539
62.9438
53.6914
48.2879
53.9677
55.6355
38.4492
-67.5037
-104.626
56.1858
51.1715
51.6371
32.2721
37.4273
-11.5695
17.7231
57.0372
54.5542
33.4665
23.4745
63.7403
59.6264
60.0339
54.1739
-13.1119
30.4376
33.6653
32.9156
28.7883
21.0379
16.0921
-44.3878
-39.7297
-44.8888
-24.707
20.2325
-59.7894
-56.2342
-61.7739
-49.6219
59.2264
19.0719
-104.686
-76.1171
-156.48
18.231
-36.654
22.8689
-40.5544
-36.1406
-38.5034
-39.437
-16.7601
-24.5498
-17.3208
-42.4007
-58.7449
-14.2054
-95.6603
-23.4618
-58.2486
-71.3568
7.02467
-2.21677
-2.61581
0.304756
-13.8697
-10.6497
19.0137
14.4957
15.506
7.5305
16.5856
29.736
14.5999
26.5988
43.208
18.1751
18.7635
18.381
18.1557
-7.76728
25.34
31.3987
11.2184
-3.6763
15.1622
-20.3164
45.5896
-25.2776
-12.3518
-13.555
-8.88744
-39.8755
37.6541
53.2513
21.8169
34.3365
29.6626
16.5268
37.1407
41.123
15.4612
25.0782
50.9688
62.29
24.3513
57.2339
39.7228
40.1781
44.494
31.6556
-51.78
20.3775
39.4246
37.8632
36.6046
22.3379
13.1467
35.6029
62.1281
32.9579
29.245
36.4144
25.9035
13.2596
-0.688442
35.6865
33.4364
-24.0172
-28.1683
17.071
-46.6936
62.0174
37.133
61.8884
52.5339
-204.222
-5.13557
20.0355
-13.0711
25.4083
50.8858
15.7853
28.5544
22.8191
19.5641
20.361
23.1369
32.9165
50.6327
26.8767
24.4849
18.2357
46.9637
40.817
50.8852
27.8629
30.6408
-4.29534
3.4659
4.32942
24.6152
1.63815
-99.3277
-67.0381
-44.0639
-37.1919
3.39837
16.759
22.7384
25.48
-0.418698
-15.0315
-43.1783
4.68193
-38.237
-52.4566
-34.3318
-18.1089
18.9277
31.4106
16.0517
26.1315
17.7188
6.23913
17.4881
0.380954
4.91194
15.7558
17.1817
12.4974
24.939
-40.5874
-71.944
-12.8009
12.4327
13.5053
22.5486
22.7407
29.5888
-0.772131
46.4257
64.0625
8.69642
32.7088
46.8641
28.0025
25.1796
-0.404706
23.8748
48.6991
-1.99477
1.7934
23.118
22.0988
34.8659
52.6072
34.5741
-23.453
4.09513
40.011
29.3936
18.9154
42.9694
-31.4327
18.3025
16.8823
56.3895
-5.27445
17.4668
17.2823
34.6408
37.8903
41.4426
16.8953
4.15577
25.5928
63.3166
-23.4558
23.9349
-32.2123
29.8507
-15.3216
-95.2688
19.2528
17.7408
16.237
15.6293
18.594
24.1739
21.5907
27.5901
18.1287
29.3101
-44.992
-11.4581
-31.3337
10.9875
-35.6886
-6.6613
-17.3571
-24.651
-45.2311
-36.0048
2.24039
15.3429
-77.9125
27.0991
-39.9299
46.6735
38.1496
-46.7879
44.7488
49.6144
51.1962
51.492
43.717
31.852
36.1155
19.2696
18.1955
64.6966
57.1278
17.3427
36.9848
-69.9254
40.6325
40.5813
50.3876
63.2817
11.0349
11.092
-62.225
31.1089
16.6885
-5.52915
20.3624
24.3937
-22.8039
25.3388
0.296416
15.4854
13.4028
7.51995
-60.87
-0.114714
26.6723
-21.6283
42.3139
-49.2685
29.3534
-76.5814
-86.676
23.9199
16.4707
24.0119
11.1908
59.0214
33.7827
58.3769
9.59329
25.473
-62.7093
7.27531
-31.5982
-42.804
0.473049
-23.7366
9.69951
16.9791
14.8866
20.024
15.6343
38.5933
8.18079
57.6057
16.8271
4.40815
54.0395
58.3973
-80.7049
14.624
-25.8263
-36.6709
18.4512
3.67527
-19.8028
42.1594
40.3662
12.8568
35.4913
24.5707
16.8285
1.57624
-17.7781
-8.22551
-15.8997
-12.5455
26.0205
32.1233
48.3263
37.4938
54.9946
-9.61409
17.0412
18.8885
12.6156
8.72932
12.1538
55.6554
55.0953
57.2906
58.856
57.4495
60.5807
46.7271
-1.62837
0.500202
10.8117
6.21857
23.7326
12.631
26.784
30.0933
28.3985
-27.3033
7.03345
-16.2082
-20.3273
-39.4239
26.8015
28.2801
39.9822
36.5912
36.0442
44.6411
48.274
63.6971
29.2329
40.3631
30.9648
54.5996
59.2947
18.5553
12.1339
61.4634
-9.60435
64.158
33.4742
41.076
61.0751
50.4697
32.3957
32.0041
31.692
55.5258
61.9789
27.9837
-49.0408
17.6102
54.0629
-56.4967
-26.6603
64.4923
61.281
60.7228
64.7785
28.8362
27.0889
30.2613
30.0635
64.5003
-60.1231
-12.4012
-42.7654
-65.1522
-22.3617
2.94607
-26.008
-31.8893
-44.2515
18.8436
13.0033
48.817
26.9299
31.4429
32.2444
37.0466
30.4095
26.9242
-34.9072
-6.23553
-4.21778
0.749907
-3.69214
-58.9523
58.7866
59.2987
58.6989
58.5555
59.4123
56.8473
-7.9091
21.0158
2.07591
-39.6013
13.4239
12.4593
-33.0107
34.9756
-1.76797
-54.7145
6.89878
-94.7973
-52.2412
-69.07
-77.4633
46.4702
-104.801
38.8924
59.5724
26.4578
-113.605
-49.5671
1.009
-19.7228
-17.2556
-43.5536
26.8082
-48.549
-51.801
58.6387
-38.4339
-60.3865
-55.3623
48.5726
60.7415
-10.0252
58.9167
54.2503
55.6182
-54.816
53.8269
20.8274
-40.1738
-44.1333
-44.4168
38.4788
24.5492
26.5564
48.2745
55.4458
50.2701
47.3977
60.9956
60.7923
62.6267
61.8808
-88.7567
63.2978
26.4295
-48.0502
36.6677
-68.563
-75.5842
36.3387
56.2309
37.9088
-58.4682
-39.9427
-30.6182
29.4844
37.1057
32.3954
22.4314
37.3827
-38.5218
64.594
64.7562
39.4695
-58.629
-68.8905
-85.735
62.6735
30.2022
-93.224
-85.3667
38.0758
41.2042
21.2077
43.3903
14.4054
33.3988
26.8808
24.6589
29.2578
38.8168
38.6882
61.8597
63.6967
42.046
17.8977
12.9846
6.38085
39.8636
43.6231
25.4672
23.1974
13.2854
17.9086
32.1195
53.2268
-59.1043
43.8454
51.7784
53.6961
43.9648
-1.57984
29.3924
-9.01293
-6.91498
-0.523406
2.53671
-6.04989
13.4065
14.8841
5.4457
9.13043
19.8359
32.4983
29.8115
24.3479
26.7727
-136.197
20.8277
36.8747
12.1136
43.5355
63.4036
55.6138
-22.6607
57.066
22.1764
20.4445
58.2588
62.0572
57.6029
54.1767
47.8926
59.7373
65.2022
54.3149
63.5831
43.2844
-32.2968
-37.7869
-56.1207
25.0954
-33.4196
17.5736
18.8828
15.9708
15.7615
13.6644
-29.5302
2.01177
-19.502
45.0384
15.3573
54.9337
56.4771
41.8492
62.9869
64.9382
58.0927
60.2795
-39.9677
61.6182
-24.1508
-7.26344
-78.7428
22.4588
-24.1558
-29.52
25.1532
13.1887
12.4864
-12.3262
-7.52024
-5.04159
-45.1957
-4.8601
6.42501
54.1639
-12.2415
30.7512
-5.7401
31.9253
25.2674
34.2928
22.6033
-27.0571
-59.9832
25.691
25.0417
24.1305
25.1068
19.2398
23.0762
21.6188
19.5728
45.4233
30.6288
25.9527
-11.27
18.5485
10.6755
17.0192
26.7215
-128.491
44.8312
39.5676
15.8501
14.0504
5.82325
-9.91669
4.44322
-15.8227
13.6942
15.2054
18.9478
13.513
11.715
24.6772
16.9107
22.6285
20.8175
-47.3099
59.6123
29.0179
28.3662
-70.2756
14.9415
33.7567
6.67481
-30.8942
-38.967
-35.0411
61.9337
-92.5391
-87.1042
34.7777
-62.8851
-64.0981
-0.350397
7.24654
12.4456
-10.8492
-52.363
-1.93092
-48.4892
22.5604
18.1851
36.4865
38.6307
13.4169
12.494
-62.1328
10.4508
-21.3146
-3.13461
-9.66135
-12.2445
-10.339
-15.8197
5.73037
-27.5836
-185.656
-3.17442
16.5759
39.8838
39.9667
17.9443
25.7939
20.334
51.9979
24.1182
16.5082
23.9356
20.9779
24.4738
29.4563
28.3585
34.7058
56.9175
38.8454
56.3833
-11.6612
33.2616
61.699
50.2449
53.7965
57.9931
43.8731
-36.9847
19.465
28.6988
2.83109
-54.2347
7.12867
30.8393
9.54591
30.999
16.2044
26.7507
-2.74249
-15.0971
-6.49813
-4.1841
-10.0029
-11.2911
17.6903
4.60507
18.0731
17.8279
-45.7198
0.0401524
-64.0193
-28.8134
32.7616
21.9539
31.8982
30.6229
47.6563
-41.4778
48.7567
-48.4163
-20.8742
-13.8986
-29.0202
-70.577
-18.6602
10.0249
-46.8271
-25.2451
-66.5077
-76.2952
-27.5585
-91.6791
-74.5422
-82.6671
-63.4008
19.5221
-23.7048
4.66812
19.015
29.5025
24.9883
58.1619
17.0102
59.865
36.4382
53.6478
46.9184
26.926
20.9883
33.1119
11.4744
18.4412
-21.3955
-39.4076
57.4863
15.9578
-82.8771
-74.5831
-27.6253
-24.0301
14.7988
-0.291377
60.7245
-113.028
51.058
16.3086
21.4194
17.4891
18.4923
30.8114
13.176
22.3349
38.1172
26.5385
43.9496
52.21
42.3525
34.779
35.8975
33.2277
58.6375
17.9336
-118.663
-85.8262
45.6215
-22.2188
38.4966
51.7141
54.3332
64.5549
-1.21196
11.9268
39.3609
1.54543
-15.5132
-16.2347
-19.5538
-19.4135
-118.619
-76.9914
6.09076
-48.7401
65.1129
62.7696
43.7006
25.4136
-10.441
-18.8979
18.7602
4.58201
10.9942
13.9357
-63.5546
-18.3464
-10.604
-6.46733
1.02822
-32.2896
-50.8591
42.955
53.4375
-53.2951
50.6015
-47.0554
54.4385
2.42304
17.0339
-34.0054
7.49045
7.40367
46.158
60.8667
12.6096
41.2138
17.642
-23.8581
-8.49158
48.0354
6.5277
27.0012
6.36884
-5.9202
16.7693
-21.331
-37.3385
-30.4534
-99.5917
3.22552
-83.5748
-39.61
-51.2908
-23.4299
10.7527
23.4126
12.987
22.4521
18.5821
17.9998
-9.19105
15.5149
5.04872
14.6275
7.0116
41.839
16.6198
17.5223
62.7758
22.1857
47.3691
60.923
49.5146
61.4563
50.7772
62.8711
12.9807
49.4707
57.9771
52.5928
45.9904
-169.939
-10.6752
38.2316
14.4679
16.5813
22.9696
9.54879
15.5208
24.4363
0.768522
21.2778
-49.3043
28.9444
24.2918
58.9767
43.1498
-39.6932
37.6427
23.5993
63.1259
32.8033
49.9749
57.9031
53.9531
17.1065
-36.2811
-6.49124
-14.4364
11.5816
-7.24983
18.8539
15.1752
19.9371
-7.74813
53.0711
52.978
-14.6671
26.0676
25.1779
34.1445
32.015
31.4096
20.6895
27.6223
-58.5672
-50.9168
-55.2659
-60.7134
10.5057
-10.1426
-12.7623
-105.058
-10.2797
50.0538
60.6194
47.0074
19.0359
50.0397
48.2667
13.2029
22.0522
-5.43002
23.995
11.8727
19.6736
16.6223
26.6747
28.5349
37.9901
31.3194
31.665
29.2452
28.5357
26.4961
-15.3848
-35.2966
-29.1604
54.4357
51.5651
33.6165
52.0975
47.3668
20.3471
34.7366
22.9735
6.67328
23.4798
42.2736
34.4743
45.2644
38.9943
40.8515
26.9068
34.035
17.3356
19.2137
20.7632
17.2619
-7.964
17.1747
65.3035
16.243
25.1488
25.1525
46.7758
-58.6882
-38.8452
-46.1385
5.06872
-23.8015
5.1883
-8.44742
-7.91591
-2.9961
-14.7895
-72.9234
-50.158
-25.0999
20.3364
-54.7778
14.8443
31.1822
28.1264
-85.0301
30.97
32.7196
-14.1444
-101.944
-205.556
-32.6867
49.5897
-30.8912
19.8288
-6.47316
-31.7183
18.0365
7.72447
15.3958
-55.9326
7.43923
24.9282
25.5833
30.1355
18.825
61.6217
-68.3011
-22.2952
42.0542
37.9876
26.2394
27.8208
2.534
55.1885
41.1822
59.4961
19.4453
22.9485
1.79139
-13.262
-12.8237
-61.8417
-14.5749
49.4389
-49.3668
-64.3596
58.4745
-61.4543
62.4027
-170.383
34.5077
26.4795
-69.664
-62.2493
63.8722
-59.7795
-32.4059
-39.2387
40.4891
49.9119
26.9722
-13.6317
-3.4075
-15.2683
-16.148
-5.4841
26.6433
-31.7306
52.7083
14.8537
56.959
1.45305
63.7806
-20.354
54.3453
50.5938
-13.148
-38.6852
49.7535
56.7076
52.9579
20.452
23.6548
21.9117
24.6509
23.3209
34.8572
24.4369
38.6516
43.8842
-50.3266
30.3051
33.8964
-46.7555
-8.06453
-1.59142
-4.74068
-65.8697
-25.0377
-0.851128
6.376
2.04162
31.9057
3.78652
5.20326
10.1146
-55.2553
-52.8538
-41.0416
-11.663
-13.0729
-12.2222
-22.4046
3.18296
58.2163
16.5104
62.3898
61.3842
62.7031
-4.89116
13.2577
62.7096
-0.874092
49.9093
20.2798
23.1513
33.079
-12.8438
-2.94454
-5.68447
0.558305
-7.71281
-20.5228
-11.7119
-28.8953
-44.4281
-24.7978
54.2347
50.3479
46.1062
50.2418
22.4323
20.9602
26.5783
42.93
33.2607
34.6379
6.44304
-27.6872
20.7095
17.5186
16.9703
21.8744
22.296
37.0079
35.2549
31.7201
24.6692
24.8839
33.7346
24.8637
43.5989
35.6733
-12.0574
-9.39108
-5.56837
-9.73843
-12.6701
-13.8971
18.93
-8.68634
-4.11101
-7.96656
21.781
30.9396
8.42749
26.4335
21.0282
20.8036
23.8123
47.567
-54.2897
23.5493
-50.9824
16.2562
-17.545
-18.8454
17.3832
-20.1264
-24.6196
22.8133
15.3697
4.22441
-16.6433
-17.7229
-22.7385
-12.7349
-14.04
38.083
-18.0246
29.7602
24.7278
23.1264
37.7057
51.2102
36.8477
56.4017
52.7154
33.5352
33.0063
49.7475
34.063
32.3557
29.3075
30.7496
19.059
27.2331
-25.7147
20.9824
19.8329
37.9651
-60.6301
-82.5653
-36.4612
10.232
46.2429
49.3496
-54.5444
45.0404
53.8755
-0.697993
9.2602
8.59261
-10.4717
-30.5742
-4.09537
-5.43049
29.8908
17.2954
-0.64227
-4.78368
22.6888
11.5197
16.537
0.542235
-50.0961
24.5493
27.8492
41.2848
37.1216
30.5127
38.9663
36.8588
30.7882
23.978
26.3241
20.8342
24.9438
19.9646
18.8981
-10.6327
20.0713
23.447
17.7546
23.7003
8.72573
30.9119
17.7383
14.292
17.1107
-1.46224
16.2468
26.6779
52.6115
43.7635
42.5315
20.5515
16.7652
25.5797
31.6078
27.1423
29.8175
33.4469
18.8604
4.55905
22.3686
16.901
-35.0254
28.9844
-7.93502
14.3377
-5.43791
22.7435
10.6747
-10.0371
-26.0779
-15.8854
-12.4191
4.35501
14.3274
21.6516
20.718
24.4415
20.3916
26.0226
25.2033
27.1326
29.5897
29.7682
35.657
28.2091
15.6077
2.60996
8.89148
-8.91257
10.0394
-2.64731
-6.50505
-7.76794
22.7184
26.099
5.11849
22.1663
19.5137
22.0223
22.173
46.9964
28.1946
50.8755
20.7512
23.1547
-11.0133
39.7044
32.9956
51.5739
36.9529
9.49154
3.51643
-10.6705
-12.7109
25.533
19.9085
25.2196
25.6985
36.772
60.0344
8.6516
45.5281
16.0691
46.0685
37.4216
24.0189
25.8218
17.9106
20.9001
13.35
7.29971
-55.2638
-17.5842
-153.561
58.9565
34.4401
-17.5535
4.10979
33.8272
4.27996
25.1221
26.0423
35.0643
17.1541
40.3005
22.8627
22.7175
26.271
38.3274
52.6062
61.5086
24.9688
25.042
30.7563
17.6076
51.2513
28.4255
33.1333
-6.49494
21.0996
-23.4066
-4.01264
-12.7557
-11.149
-49.1631
1.06857
-14.3128
-7.202
24.3332
52.4919
62.9529
-14.5297
-16.4311
-50.7583
20.3509
29.3687
-5.4794
27.504
49.878
11.9859
18.8185
6.60271
8.08639
26.9348
4.37369
-33.2486
0.77114
25.3073
24.1233
24.4367
23.8474
16.5647
22.8856
22.9871
30.226
37.138
34.7925
32.0682
-19.0591
51.9788
32.7235
32.8984
36.5989
1.27915
2.03335
44.2688
-16.3137
-6.59146
19.5555
-7.34444
-40.3927
-26.8291
-60.8525
21.3377
15.2049
10.5945
13.3792
36.6589
-1.66646
7.81304
25.0306
-35.1582
-31.5916
20.498
10.1457
12.8041
20.185
18.3332
23.1775
26.0846
57.1183
20.0624
-69.7013
15.7332
-11.7406
8.63522
-13.696
-11.2601
-15.962
-25.5839
-14.0082
-8.64845
-27.0826
-21.8207
-14.2185
14.1496
1.70338
-10.4647
-10.7038
42.8923
57.34
37.3205
30.194
25.7056
22.9782
31.1608
39.1072
39.0795
20.8962
41.1587
54.4685
52.7135
-1.65209
-36.293
-17.3529
-10.5593
-11.5303
31.5657
13.607
18.8708
12.3966
32.1045
23.5256
13.9641
-8.34995
-62.8398
-82.1335
6.18993
-4.90048
37.4866
-2.57687
-56.2282
-60.1693
-10.9706
-58.594
-30.0094
-18.6273
-27.1825
-23.6283
-22.0763
-132.138
-21.6756
-21.9966
-42.6791
-54.2402
18.369
5.76095
17.0158
22.3843
52.5852
25.2811
22.721
44.8752
23.1945
-87.6752
64.767
26.53
62.8303
58.9984
42.9865
19.5388
4.06971
-38.7875
-11.6262
-4.86173
-19.2213
31.5789
22.3174
20.2481
20.8132
47.4667
6.86281
6.85586
-102.66
52.5109
-23.5364
1.55117
6.54134
-37.8488
3.3992
-9.97619
-9.04959
19.0585
38.7267
-36.7619
-10.7548
-27.9814
14.6788
5.54345
13.1783
15.5028
-54.8038
-21.5093
-17.8532
7.29491
-19.4892
-18.3822
6.21701
-17.209
-18.2827
-7.37616
13.2489
2.57598
58.1899
22.7093
25.2661
19.8801
39.1627
40.2266
-9.92136
54.6996
-14.9724
40.4877
30.3357
-105.222
65.0989
-3.98132
-10.3183
45.0046
-8.38015
31.4371
-46.9584
-0.494368
-36.9226
11.4149
25.5933
-19.5203
18.4773
11.1515
4.29964
2.68693
-11.716
16.6212
26.9354
36.6917
64.2847
40.4256
34.249
32.8529
29.8401
-27.6051
-37.0036
-66.3907
-4.24344
0.4951
-38.4332
40.5044
5.18207
33.6727
15.7352
15.0427
27.0246
46.2248
50.5621
1.17245
19.8466
40.3443
-11.4511
61.6457
27.6094
28.5615
20.8735
11.58
23.2089
-20.1236
-7.70194
-53.821
-87.1686
-15.2524
-4.16575
-15.6905
2.6513
-25.4878
-28.7057
11.6516
9.29861
2.49597
17.0416
21.8125
22.0992
1.70557
23.4229
-19.2009
1.80679
3.50768
13.9111
11.541
50.8976
48.114
61.5892
36.9438
46.9399
59.5486
39.2783
57.067
44.3906
51.0343
57.9607
41.077
64.6225
57.3734
57.9552
7.12127
55.3484
26.1767
40.0191
27.9623
18.9888
-55.0104
24.4619
-56.6566
16.5131
-18.1551
43.8195
49.83
44.5785
60.4314
52.9356
28.4228
31.2406
30.5669
-29.3325
61.5017
-75.2848
-57.5827
16.5911
-37.0892
31.7622
48.998
-41.4484
49.6697
-42.3801
-56.7294
21.7018
-41.977
40.0033
40.3936
28.6707
7.13322
19.158
-12.4591
-49.1785
-4.6806
-38.8922
55.6737
-85.819
1.32866
-12.5309
-0.754105
-4.74637
34.4082
-97.3507
-37.7453
19.2801
-4.19553
22.8167
17.9989
-20.0841
61.8307
60.1505
25.6937
57.7586
-33.9461
55.5437
-32.7431
-13.9234
47.1893
58.0064
31.8996
-12.1144
53.9953
-80.7594
-14.5797
-19.4826
46.6048
-13.5935
40.2969
20.6927
18.2796
31.937
15.6952
61.7348
30.1469
29.1983
29.4407
32.8677
31.711
8.34292
9.19565
8.38091
7.09401
11.0757
7.86293
23.6136
21.9529
-39.3499
-55.1403
22.1329
57.7743
15.7722
11.9892
10.271
13.4509
-17.5574
-18.268
-24.4976
-33.6795
-10.5721
62.4183
29.168
20.7747
25.7919
18.4031
13.3062
15.2129
-7.77001
-7.46193
-10.718
-16.4708
-71.8156
15.6769
12.3305
33.4767
42.4619
-28.1118
-35.9897
-50.9632
-38.2566
-45.9812
-40.7696
-42.5588
34.8566
24.8881
58.907
49.0306
8.5604
-14.9557
-76.0572
39.2781
49.0817
34.7703
62.6605
63.0318
5.72562
63.9455
24.7488
37.9592
36.7604
8.33619
-17.7478
-31.1664
49.9735
-106.019
-107.472
-70.8696
-23.5693
-17.3379
-47.9094
-46.0035
-47.0035
4.4925
32.8047
59.3981
61.3818
-2.8803
7.12584
10.6476
-157.633
-80.1253
-106.936
20.939
16.8081
16.5176
44.8363
30.8979
52.9754
31.1129
59.9746
63.754
65.6661
65.9896
-64.8021
64.5776
61.6468
56.4045
28.3379
41.0467
62.0649
59.2961
46.4569
35.566
33.2341
-12.9656
56.1267
-26.1248
22.8109
28.2132
53.2986
51.5389
34.7002
49.7389
40.1237
36.3672
-20.9334
40.0144
18.4268
34.6942
19.7888
12.3637
-72.3794
-77.1969
-56.636
15.8798
-56.4004
-53.2178
27.4441
-104.907
-117.867
-77.9166
9.52417
19.7067
17.2642
19.5999
16.9318
32.8741
33.9572
26.4678
24.3064
-74.5799
-17.9455
-51.6696
-33.8415
0.937617
-56.5321
19.0827
19.8726
16.1864
26.0634
33.8892
22.2815
35.9573
12.7314
24.2519
7.88032
14.0678
27.9801
15.0399
21.1161
29.1351
64.8646
24.5432
19.692
18.9652
20.9193
15.0155
11.0107
25.4482
27.3643
52.8115
39.4001
26.0467
33.2443
30.4031
11.2826
10.2079
-4.71763
-39.9281
-6.39881
23.0614
23.9277
20.3311
49.9804
-88.7435
-132.676
-64.1519
-50.7529
2.44675
-24.0244
-12.4281
26.2285
21.9206
19.5515
16.1297
15.1126
24.3641
39.1421
7.35671
3.98722
18.6638
21.2224
13.6042
26.0723
20.9723
21.0204
32.1548
22.5643
19.3801
16.5507
26.8362
57.8169
31.4925
23.4336
25.7986
31.7183
37.9204
36.2872
62.2461
39.0118
41.5591
45.3499
24.8901
48.3495
58.0293
53.459
38.2989
-17.8923
-21.0796
-25.8379
-31.5261
-45.2916
-19.1894
-14.1296
-40.201
-181.052
-13.7977
-23.9173
-53.9221
-23.3441
-26.0084
-18.6998
-29.0827
-50.1204
-105.354
-17.9704
-54.8549
30.11
-24.3354
-22.8533
0.609446
-2.57488
-20.6852
12.757
-19.0768
-6.07492
-13.8044
-25.6352
-4.75333
-6.67196
-13.6045
-10.2285
-14.8912
-22.9211
-27.0035
-32.9198
18.5847
21.2919
28.9219
21.6056
35.7548
23.8701
31.7474
18.2279
35.9522
35.5973
35.1906
35.1938
39.3959
29.9392
23.2791
30.8708
25.9044
25.1347
-11.4818
-37.9617
46.188
57.4866
-58.4553
-51.9556
-7.61834
-54.361
-37.0138
17.939
21.8017
3.71604
63.29
34.3688
-39.008
-10.91
9.2685
22.9657
25.8261
13.5302
-10.6094
15.2654
4.37324
16.7243
16.6672
17.8055
10.265
10.6612
12.0631
14.5129
16.5244
39.8741
25.2868
-21.1482
13.0229
-17.6878
-27.4919
-11
20.3284
10.727
3.98277
-16.2726
-60.9816
-24.8073
-13.2578
7.3631
-15.3558
-118.966
-42.1697
-73.2917
-57.7344
-27.8251
20.9048
41.0744
31.9844
28.472
58.4281
18.5118
25.3375
54.8942
48.6418
45.4413
55.9741
13.6047
16.4797
14.9515
42.4074
12.2973
51.2378
36.2076
-9.57201
-14.2783
-51.1867
-27.9773
18.3682
-1.31793
23.68
-10.2988
-21.7812
-26.9621
-51.731
-67.854
-43.5305
-40.3865
-32.5323
-26.3215
-32.1595
20.8747
23.208
30.0634
19.5941
29.8088
24.9732
27.471
58.5028
44.2836
19.7056
45.7566
4.24012
39.6945
33.7227
-25.166
-25.6528
-0.3852
16.7799
-58.7781
-5.80982
-51.5066
2.67047
-3.70105
18.2248
-14.7927
-51.8434
-26.9911
-20.7004
31.8406
42.1878
-7.64163
32.3374
-18.1522
-55.3762
3.45329
16.5511
-12.2381
13.0373
-15.7499
-26.3242
-19.7628
-13.403
-8.49708
-20.1516
-14.3624
-12.0153
2.06629
13.1326
8.65563
17.7546
25.8493
21.8987
31.2771
15.747
39.0521
12.5907
47.0408
-0.345514
38.9104
9.17652
-2.15324
-7.41693
15.606
27.3928
27.554
32.3483
41.9074
46.5964
56.394
35.2786
59.9169
61.6579
22.1741
17.9707
-32.8834
22.5191
33.9442
-66.2928
-83.3747
-23.691
19.1841
36.6899
37.4219
21.4859
26.4971
29.6706
22.7492
18.7419
2.11115
8.75882
20.1224
18.0592
45.3398
-2.61497
36.1982
53.681
57.4125
53.4624
51.95
36.0198
48.9531
49.903
28.0733
65.9469
42.7011
46.8509
53.821
49.4926
-174.718
16.4754
-48.6164
52.6854
-9.46919
-50.7113
31.63
20.8398
-42.2994
-10.2117
30.1648
36.2011
23.9555
23.3712
17.998
32.3141
23.69
37.3686
15.1545
21.432
17.4465
32.2301
52.1266
56.8447
52.0502
40.012
62.7543
56.5143
52.4596
54.1807
63.6458
59.2089
32.5512
39.0058
32.6483
48.2521
36.8672
16.0216
8.65462
-9.29089
1.26363
42.4684
28.9964
10.7258
3.26556
4.03595
35.1142
42.4195
23.5544
55.1927
20.5365
20.8968
-25.0288
32.3092
5.46636
-4.19881