/*--------------------------------*- C++ -*----------------------------------*\
| =========                 |                                                 |
| \\      /  F ield         | OpenFOAM: The Open Source CFD Toolbox           |
|  \\    /   O peration     | Version:  2506                                  |
|   \\  /    A nd           | Website:  www.openfoam.com                      |
|    \\/     M anipulation  |                                                 |
\*---------------------------------------------------------------------------*/
FoamFile
{
    version     2.0;
    format      ascii;
    arch        "LSB;label=32;scalar=64";
    class       volScalarField;
    location    "0.0563527";
    object      k;
}
// * * * * * * * * * * * * * * * * * * * * * * * * * * * * * * * * * * * * * //

dimensions      [0 2 -2 0 0 0 0];

internalField   nonuniform List<scalar> 
47425
(
0.310048
0.343309
0.318982
0.322985
0.47923
0.326481
0.435371
0.331862
0.366888
1.25449
0.339563
0.329091
0.371978
0.319805
0.31512
0.337806
0.317052
0.350373
1.10796
0.543138
0.326203
0.317755
0.329981
0.321629
0.317278
0.310761
0.308589
0.857078
0.306661
0.31161
0.324855
0.324478
0.356138
0.310684
0.31037
0.327308
0.317174
0.363344
0.316742
0.32409
0.366492
0.470732
0.893041
0.378402
1.45264
0.355427
0.335469
0.350746
0.313808
0.31034
0.810189
0.624631
0.308807
0.851535
0.373376
0.367179
0.311371
0.309905
0.43722
0.318902
0.925916
0.85605
0.894264
0.334682
0.364462
0.316958
0.341746
0.370329
0.804634
0.326603
0.31456
0.305947
0.311411
0.320981
0.918237
0.368709
0.91391
0.318243
0.8539
0.53936
0.933712
0.321126
0.320547
0.348724
0.317691
0.324519
0.308212
0.308128
0.538187
0.629798
0.321195
0.344922
0.315029
0.370688
0.382891
0.367777
0.313242
0.308977
0.315425
0.360329
0.335883
0.442829
0.320794
0.464591
0.313814
0.37334
0.312045
0.323511
0.365044
0.323096
1.16303
0.327008
0.429748
0.354149
0.338413
0.84344
0.333849
0.653515
0.342983
0.338111
0.324656
0.3627
0.343973
0.354062
0.35351
0.399794
0.328959
0.364888
0.355722
0.314923
0.322368
0.334562
0.515356
0.354016
0.467691
0.353797
0.323064
0.40609
0.317584
0.316444
0.354129
0.374936
0.338486
0.465236
0.336878
0.366224
0.445988
0.340593
0.365784
0.361648
0.467688
0.811505
0.360304
0.822337
0.342858
0.330917
0.354211
0.948008
0.358359
0.335297
0.34332
0.311778
0.310154
0.321125
0.755411
0.870876
0.339316
0.930183
0.340906
0.896776
0.969179
0.355919
0.353871
0.330864
0.354958
0.389434
0.865092
0.305975
0.309581
0.313853
0.864476
0.306755
0.306385
0.31423
0.312042
0.337707
0.317289
0.432771
0.355644
0.30668
0.357981
0.310111
0.437061
0.365297
0.31537
0.323853
0.360533
0.331348
0.336812
0.30042
0.338954
0.365762
0.337692
0.326663
0.34519
0.377382
0.305892
0.321968
0.3507
0.361903
0.310293
0.313291
0.352253
0.317309
0.315223
0.316732
0.30975
0.596944
0.34865
0.356148
0.555921
0.292633
0.584067
0.309703
0.39977
0.534667
0.314385
0.330633
0.361712
0.395796
0.310423
0.324305
0.350623
0.369371
0.370799
0.328397
0.581014
0.342249
0.543128
0.369275
0.340094
0.305194
0.311487
0.31998
0.3151
0.362577
0.315698
0.357601
0.310478
0.316068
0.314131
0.520102
0.319622
0.365695
0.322702
0.311664
0.318236
0.366642
0.314882
0.357619
0.383011
0.352351
0.319539
0.36473
0.382995
0.354407
0.313646
0.380261
0.310597
0.33151
0.323632
0.528824
0.579271
0.311853
0.519116
0.376744
0.520482
0.466918
0.564402
0.558674
0.993921
0.308028
0.946961
0.369531
0.322635
0.312136
0.358035
0.326942
0.36745
0.351347
0.793242
0.332546
0.371308
0.310972
0.315272
0.333608
0.334639
0.313031
0.323942
0.373264
0.341047
0.309479
0.334972
0.311059
0.882345
0.876208
0.829
0.312945
0.309104
0.315977
0.330967
0.820927
0.327173
0.3356
0.592005
0.350001
0.347812
0.372855
0.324404
0.654198
0.56672
0.321749
0.316822
0.306645
0.344017
0.310452
0.320264
0.310202
0.309106
0.312118
0.3102
0.88758
0.337165
0.315364
0.383821
0.313053
0.858702
0.325281
0.309072
0.314286
0.322319
0.322329
0.309746
0.318703
0.30722
0.312572
0.311785
0.319703
0.316897
0.34602
0.324056
0.316172
0.327956
0.320812
0.32447
0.351671
0.330383
0.319053
0.321345
0.3603
0.364121
0.350182
0.333367
0.327657
0.311829
0.328518
0.371268
0.358456
0.331687
0.321575
0.365983
1.03919
0.311553
0.326177
0.385664
0.324155
0.430688
0.361671
0.364439
0.317274
0.357622
0.323055
0.310435
0.355261
0.352792
0.364515
0.329572
0.318102
0.349781
0.327118
0.324406
0.327998
0.33395
0.312918
0.317045
0.322269
0.324369
0.326822
0.404637
0.309743
0.668221
0.311264
0.876866
0.338274
0.36985
0.359749
0.312193
0.354625
0.308933
0.340758
0.324678
0.622425
0.877614
0.309723
0.344542
0.316462
0.315661
0.324968
0.322516
0.313458
0.361562
0.329828
0.311683
0.317468
0.323744
0.309152
0.451417
0.313534
0.322769
0.510127
0.569188
0.317654
0.644238
0.58818
0.359539
0.572481
0.776608
0.312194
0.314172
0.315567
0.313486
0.795897
0.338972
0.309416
0.313382
0.318926
0.319623
0.328314
0.314127
0.721652
0.779201
0.520472
0.356391
0.409341
0.499193
0.315117
0.32052
0.360221
0.319451
0.355206
0.363124
0.377802
0.319537
0.369613
0.319077
0.313882
0.34349
0.324391
0.321424
0.31855
0.348642
0.357672
0.371105
0.342815
0.31616
0.353438
0.320449
0.768182
0.362732
0.405621
0.345118
0.356986
0.831995
0.341587
0.312009
0.344356
0.350296
0.329007
0.340652
0.354216
0.305731
0.335091
0.308971
0.332434
0.458288
0.308238
0.358133
0.322441
0.370118
0.310618
0.311844
0.312743
0.318072
0.323825
0.337365
0.317913
0.309867
0.314038
0.331203
0.331401
0.343473
0.338956
0.311378
0.319541
0.303024
0.307057
0.318405
0.340378
0.319486
0.343437
0.363307
0.375394
0.786364
0.323566
0.316875
0.337975
0.365736
0.462403
0.46571
0.343647
0.314123
0.348496
0.439424
0.324174
0.473552
0.362386
0.798531
0.355743
0.35739
0.312415
0.46525
0.314976
0.317295
0.325654
0.322984
0.30993
0.305627
1.03968
0.3145
0.365411
0.314777
0.445663
0.308189
0.312073
0.425915
0.415201
0.324331
0.311204
0.285318
0.309268
0.321717
0.308752
0.310638
0.311526
0.386694
0.457582
0.329203
0.314189
0.326501
0.314336
0.537308
0.321867
0.320209
0.236415
0.322216
0.312273
0.331884
0.766343
0.322863
0.216942
0.235396
0.308511
0.347123
0.307878
0.317034
0.364063
0.348242
0.853713
0.320411
0.350238
0.31022
0.463938
0.381935
0.369585
0.325588
0.814737
2.40237
0.315474
0.331233
0.335487
0.325125
0.368373
0.380266
0.324344
0.33403
0.378948
0.301041
0.359601
0.481514
0.350468
0.315946
0.487607
0.345166
0.318033
0.332576
0.343925
0.310048
0.361926
0.377244
0.368748
0.34386
0.317867
0.313536
1.02127
0.327742
0.399653
0.847531
0.810373
0.314107
0.360246
0.761959
0.354927
0.431299
0.791528
0.376794
0.818112
0.312368
0.311714
0.354907
0.521598
0.381514
0.375569
0.308251
0.373563
0.315124
0.324399
0.310896
0.34862
0.329689
0.768717
0.717583
0.346855
0.349367
0.350248
0.32641
0.375833
0.351722
0.352442
0.360591
0.343008
0.332291
0.350052
0.354585
0.311927
0.399845
0.367335
0.868765
0.573708
0.347592
0.32131
0.361719
0.312127
0.870208
0.319821
0.97446
0.356933
0.446044
0.348768
0.330467
0.330917
0.305394
0.366588
0.318575
0.305884
0.394472
0.400265
0.368557
0.396575
0.358525
1.15954
0.349228
0.377054
0.376143
0.363678
0.31138
0.361059
0.330368
0.394667
0.341703
0.327918
0.363114
0.328061
0.336606
0.319596
0.316466
0.491348
0.568165
0.313382
0.453494
0.314122
0.332948
0.313658
0.310919
0.564881
0.304244
0.320293
0.322827
0.311013
0.687406
1.1535
0.325616
0.335109
0.312595
0.345904
0.306374
0.333593
0.335261
0.558413
0.333507
0.312965
0.327231
0.314142
0.320615
0.318339
0.309104
0.322013
0.31334
0.308821
0.339241
0.559891
0.311299
0.246163
0.623446
0.572275
0.248948
0.339848
0.971979
0.369114
0.344636
0.51736
0.282828
0.83969
0.343078
0.310908
0.477
0.342943
0.573745
0.325086
0.35054
0.311743
0.31725
0.433929
0.352803
0.330071
0.348374
0.477018
0.386781
0.348418
0.37843
0.501727
0.478571
0.589128
0.900376
0.982922
0.633776
0.665154
0.363102
0.362274
0.316538
0.31183
0.348025
0.308714
0.33693
0.343449
0.353763
0.314762
0.312774
0.32624
0.313251
0.386093
0.333071
0.31294
0.370186
0.313319
0.317996
0.317051
0.350036
0.439756
0.313253
0.312839
0.312902
0.361442
0.353422
0.536515
0.450781
0.309905
0.348928
0.306858
0.314918
0.315952
0.351943
0.359904
0.511564
0.319914
0.314873
0.316405
0.408531
0.901458
0.329198
0.329118
0.412964
0.350719
0.343132
0.349533
0.337643
0.3768
1.53094
0.447495
0.870857
0.366858
0.407193
0.310463
0.402579
0.317812
0.33957
0.346062
0.319759
1.25833
0.447392
0.370264
0.489178
0.370783
0.306972
0.334859
0.412692
0.318916
0.352905
0.232726
0.315771
0.399645
0.373726
0.394602
0.732406
0.37564
0.37069
0.511897
0.316984
0.317062
0.449605
0.548988
0.334806
0.422467
0.464009
0.33288
0.328767
0.312943
0.336923
0.355696
0.353694
2.66852
0.690983
0.378261
0.550146
0.527132
1.44805
2.41635
0.529718
0.364223
0.360767
0.373543
0.372408
1.33907
0.316109
0.341268
0.372779
0.322843
0.339097
0.355796
0.3599
0.310222
0.385286
0.487876
0.363485
1.02355
0.311827
0.392519
0.376584
0.365704
0.357282
0.349923
0.374811
0.461227
0.360444
0.380679
0.478824
0.33726
0.318358
0.346367
0.432264
0.312575
0.416456
0.37195
0.371865
0.660785
1.0852
0.31107
0.363501
0.329711
0.361893
0.362535
0.688118
0.551564
1.56069
0.317617
0.378144
0.336026
0.927338
0.31963
1.57098
0.402712
0.383141
0.511662
0.605664
0.326463
0.31195
0.318967
0.332508
0.476641
0.329763
0.41093
0.937082
0.406753
0.311175
0.312816
0.700003
0.926406
0.519876
0.556903
0.947155
0.402385
0.35973
0.406141
0.317632
0.490326
0.373067
0.388646
1.26378
0.337306
0.311667
0.315861
0.35722
0.39931
0.374291
0.336135
0.327913
0.470885
0.315672
0.33283
0.312694
0.352863
0.369346
0.387216
0.354863
0.341374
0.323252
0.383762
0.315875
0.317128
0.328206
0.328196
0.387308
0.477617
0.344123
0.376587
0.314943
1.77678
0.381975
0.366971
0.337685
0.971383
0.678925
1.07307
0.342297
0.343983
0.343692
0.740725
0.386962
0.349473
0.387136
0.358239
0.359774
0.877467
0.366858
0.32528
0.364798
0.365047
0.309459
0.599502
1.01932
0.317577
1.00766
0.344803
0.677295
0.594904
0.314797
0.350735
0.373288
0.630572
0.343959
0.347414
0.344025
0.767916
0.499997
0.623726
0.319392
0.33106
0.3118
0.32205
1.18585
1.2138
0.350302
0.37402
0.390919
0.739309
0.319379
0.308141
1.56337
1.139
0.356142
0.325735
0.902379
1.34254
0.944423
0.372273
0.702533
1.08932
0.78584
0.326881
0.459806
0.453519
0.336339
0.348827
1.22474
1.41089
0.369979
0.378139
0.34625
0.326563
0.350474
0.333036
0.501503
0.331878
0.366939
0.314333
0.360374
1.00625
0.982351
0.326921
0.590632
0.443304
0.323337
0.534252
0.307283
0.341147
0.317112
0.347452
0.389628
0.311403
0.771681
0.317898
0.880721
0.670227
0.795384
0.405883
0.416032
0.342384
0.358872
0.322716
0.562414
1.1479
0.355403
0.927555
0.532108
0.8143
0.484219
0.917975
0.719351
0.332503
0.321702
0.945238
0.336957
0.32601
0.320245
0.731636
0.716526
0.319955
0.341638
0.643851
0.422521
1.01522
0.814037
0.354526
0.470712
1.04757
0.348159
0.335715
0.788157
0.322624
0.806329
0.838923
0.320597
0.313658
0.328613
0.312836
0.372936
0.317341
0.320872
0.364229
0.373752
0.485093
0.3522
0.329644
0.515255
0.949575
0.834855
0.358433
0.350602
0.557727
0.325802
0.998817
0.339652
0.350591
0.360686
1.51022
0.345895
1.91544
0.386335
0.516801
0.352725
0.795
0.642346
0.67472
0.434157
0.558163
0.382006
0.363527
0.401086
0.596419
0.449276
0.470064
0.812207
0.388161
0.465664
0.921076
0.358919
0.315551
0.762358
1.93403
0.33049
0.342499
0.359354
0.379489
1.07852
0.993622
0.310893
0.329905
0.359147
0.777358
0.355956
0.609922
0.386473
0.347028
0.352649
0.485155
0.367968
0.630409
0.629371
0.353143
0.388243
0.447324
0.33117
0.929961
1.94565
0.34468
0.8789
0.853936
0.376772
0.764589
0.360618
0.373918
1.03312
0.375418
0.974527
1.86167
0.334537
0.379817
0.440012
0.365347
0.353257
0.40175
0.507855
0.418638
0.330425
0.401516
0.334253
0.887928
0.405949
0.36164
0.376127
0.562365
0.318471
0.853556
0.731698
0.371028
0.825569
0.968813
0.312799
0.484018
0.55397
0.360481
0.351601
0.52729
0.72363
0.512336
0.803953
0.31958
0.779257
0.460363
0.309395
0.392686
0.370621
0.505858
0.346954
0.396621
0.625008
0.309575
0.594725
0.360789
1.38464
0.383563
0.307083
0.374418
0.540451
0.369336
0.679741
0.449061
0.332645
0.787433
0.315188
0.340336
1.16408
0.310274
0.380258
0.729161
0.346401
0.747068
1.39676
0.37062
0.414402
0.314173
0.91502
0.656502
0.829109
0.780806
0.421568
0.34857
0.437049
0.929118
1.01412
0.832679
0.354126
0.357565
0.35787
0.326163
0.379244
0.73565
0.350306
0.333453
0.348641
0.311299
0.333102
0.356201
0.328049
0.349302
0.363389
0.444209
0.317102
0.365382
0.58334
0.331039
0.314722
0.377299
0.358194
0.359438
0.311458
0.34359
0.340704
0.327489
0.376022
0.675099
0.341918
0.33196
0.316496
0.314041
0.537468
0.320601
0.320724
0.683379
1.21389
0.73292
0.327372
0.662623
0.484256
0.332417
0.62804
0.437572
0.607577
0.360275
0.324955
0.349486
0.399153
0.319258
0.366677
0.379586
0.366704
0.320218
0.319376
0.36352
0.519152
0.354029
0.422005
0.866343
0.346942
0.679666
0.40973
0.882259
0.308924
0.364795
0.357609
0.311934
0.327793
0.366388
0.312735
1.57843
0.588576
0.851604
0.377739
1.02681
0.313411
0.33756
0.530184
0.318988
0.804494
0.427368
0.631959
0.313512
0.972392
0.955906
0.322381
0.310526
1.03852
0.329731
0.807608
0.322295
0.363732
0.31949
0.316054
0.320734
0.334868
0.339724
0.6283
0.402795
0.38786
0.343992
0.329431
0.3144
0.35902
1.36818
0.365137
1.84623
0.559656
0.318238
0.375506
0.337478
0.333523
0.332603
0.36325
0.347633
0.362908
0.335004
0.302351
0.353949
0.36116
1.3101
1.48568
0.357111
0.360563
1.25283
0.343278
0.312481
0.313108
0.311533
0.351839
0.37535
0.400068
0.378364
0.338326
0.314388
0.406897
0.30954
0.302436
0.327638
0.743612
0.39028
0.84958
0.772164
0.839934
0.328953
0.316541
0.307729
0.309676
0.312958
0.652547
0.33173
0.310903
0.332834
0.35749
0.314481
0.484102
0.311657
0.37446
0.457817
0.341677
0.312722
0.31835
0.338318
0.340288
0.316977
0.345711
0.326934
0.512073
0.325862
0.350258
0.393772
0.325888
0.329474
0.314663
0.338265
0.316379
0.368663
0.391342
0.312541
0.307061
0.319231
0.324465
0.316753
0.359598
0.311506
0.314555
0.311763
0.329629
0.842125
0.325407
0.433458
0.308073
0.313489
0.744827
0.327852
0.362823
0.309234
0.321083
0.352486
0.370339
0.764215
0.373418
1.87802
0.312184
0.319997
0.359869
0.313994
0.311339
0.381245
0.339307
0.311063
0.312011
0.963304
0.440171
0.68131
0.368407
0.56844
0.368698
0.309782
0.388572
1.00035
0.359866
0.319495
0.319905
0.803268
0.315022
0.325404
0.341222
0.336137
0.328686
0.803067
0.317955
0.334523
0.347652
0.334726
0.374535
0.927436
0.824924
0.318867
0.314698
0.313761
0.370954
0.347704
0.310067
0.814113
0.964199
0.313524
0.353354
0.806343
0.322262
0.645862
0.461102
0.311486
0.315889
0.317415
0.323232
0.63031
0.340609
0.336596
0.33286
0.372766
0.326523
0.361544
0.599406
0.362927
0.499133
0.512916
0.463462
0.595454
0.358282
0.387723
0.402934
0.379196
0.344769
0.333428
0.840724
0.602703
0.377902
0.366618
0.36056
0.356771
0.343302
0.350056
0.314752
0.310235
0.357089
0.350024
0.505367
0.430971
0.893334
0.724541
0.343492
0.377899
0.325043
0.326911
0.365126
0.313121
0.332724
0.311808
0.312852
0.331765
0.303207
0.3133
0.32702
0.647914
1.04775
0.35663
0.309804
0.470532
0.512424
0.851206
0.328311
0.801681
1.94452
0.72784
0.854011
0.40919
0.312637
0.309848
0.360618
0.882257
0.309206
0.372718
0.343456
0.31248
0.702318
0.645381
0.621321
0.33525
1.4395
0.309758
0.318152
0.348922
0.34963
0.761694
0.832427
0.31104
0.446417
0.294072
0.381065
0.319524
0.926276
0.353692
0.888238
0.371927
0.880451
0.35408
0.498313
0.483183
0.556976
0.380213
0.382715
0.590028
0.352648
0.354105
0.408793
0.391126
0.360726
0.341954
1.28053
0.675759
0.337607
0.61728
0.808159
0.605275
0.322122
0.31685
0.835006
0.700847
0.796191
0.318335
1.07658
0.318705
0.869224
0.701459
0.63467
0.697342
0.311109
0.369822
0.31696
0.331733
0.33288
0.523825
0.427046
0.313117
0.311157
0.362614
0.332648
0.311616
0.313926
0.471509
0.312834
0.307388
0.342053
0.342308
0.436761
0.33924
0.373363
0.370155
0.31561
0.448211
0.451763
0.317588
0.3203
0.492149
0.641954
0.33453
1.50283
0.358715
0.436928
0.756657
0.406831
0.336215
0.312602
0.511298
0.331445
0.307223
0.372891
0.327763
0.317661
0.33289
0.317892
0.314353
0.324867
0.34039
0.327134
0.368126
0.703033
0.324482
0.329999
0.327298
0.336032
0.429674
0.882995
0.337385
0.319817
0.338698
0.590319
0.382014
0.338568
0.338003
0.869877
0.355438
0.385073
0.369684
0.413065
0.343923
0.356172
0.337278
0.530123
0.375935
0.362196
0.967715
0.333902
0.396691
0.351143
0.350933
0.353904
0.391141
0.330727
0.337059
0.317583
0.359964
0.329925
0.353433
1.6175
0.319222
0.425662
0.376083
0.344625
0.684618
0.370264
0.464679
0.364936
0.590124
0.660183
0.344335
0.318682
0.395035
0.397133
0.350137
0.318336
0.812526
0.471065
0.383053
1.60458
0.481982
0.324378
0.51918
0.552494
1.26383
0.745828
0.399124
0.562637
0.399569
0.572248
0.486874
0.890937
0.315216
0.435541
0.328113
0.625993
0.370137
0.404904
0.359079
0.361831
0.35151
0.384836
0.625201
0.337331
0.36763
0.409464
0.512394
0.787228
0.425625
0.759917
0.36121
1.06206
0.373343
0.374647
0.843959
0.560779
0.727806
0.662823
0.668613
0.569756
0.338642
0.329853
0.336004
0.390811
0.367258
0.797977
0.361906
0.378728
0.320018
0.488767
0.359878
0.317759
0.883298
0.442834
0.523122
0.252021
0.408891
0.345442
0.358309
0.360749
0.390924
0.32229
0.305966
0.347568
0.403772
0.233552
0.222724
0.523224
0.363236
0.36647
0.427396
0.465027
0.37736
0.361764
0.362998
0.201119
0.374989
0.406575
0.240325
0.37211
0.835794
0.602998
0.34478
1.08429
0.389749
0.487629
1.76715
0.392868
0.37543
0.322291
0.677941
0.315046
0.314206
0.366113
0.371569
0.394103
0.34399
0.563386
0.357793
0.491799
0.322564
0.378445
0.365672
0.309402
1.17836
0.534422
1.06606
0.527307
0.309181
0.920584
0.497564
0.314825
2.64295
0.316192
0.312144
0.477944
0.477396
0.985324
0.734931
0.356533
0.703048
1.54327
0.34037
0.604308
0.99354
0.537014
1.43735
0.387792
0.332859
0.605479
0.681528
0.387526
0.969391
0.368021
0.341773
0.535503
0.367622
0.321717
0.369983
0.791872
0.739432
0.308064
0.52803
0.323199
0.380084
0.34631
0.377187
0.594181
0.4365
0.771331
0.351446
0.360681
0.752884
0.314664
0.32786
0.464414
0.317964
0.354397
1.06877
0.343694
0.917377
0.829615
0.849353
0.802766
0.376378
0.40227
0.310335
0.30862
0.426404
0.316446
0.322638
0.394539
0.324383
0.419644
0.925166
0.316027
0.530396
0.323602
0.479102
0.371362
0.875418
0.362244
0.468442
0.321234
0.333779
0.405884
0.317935
0.339057
0.328071
0.31195
0.541757
0.322909
0.372393
0.366937
0.328141
0.361567
0.348296
0.372152
0.710154
0.342075
0.321343
0.328673
0.39578
0.217149
0.65747
0.48696
0.685865
1.02263
0.398031
0.433141
0.13635
0.29861
0.89859
0.411273
0.545066
0.398205
0.749134
0.717196
1.32061
0.368779
0.340143
0.544575
1.14468
0.353421
0.374554
0.459241
0.414924
0.418479
0.409717
0.876004
1.41455
0.271059
0.382649
0.203372
0.348343
1.15718
0.335986
0.353985
0.325389
0.318358
0.453156
0.326038
0.597468
0.477
0.323459
0.380924
0.320844
0.556249
0.636581
0.335597
0.430856
0.367971
0.895164
0.454455
0.353821
0.539038
0.531502
0.310864
0.318761
0.356139
0.315741
0.663345
0.317866
0.440558
0.611031
0.32914
0.349006
0.322771
0.323308
0.602639
0.388535
0.526759
0.314218
0.315666
0.56152
0.73782
0.319984
0.340208
0.319309
0.318011
0.636228
0.447016
0.803152
0.35017
0.317769
0.453557
0.391643
0.350995
0.321521
0.381886
0.37578
0.55188
0.450627
1.72698
0.412015
0.421934
0.320264
0.372058
0.842741
0.994202
0.399235
0.879496
0.357508
0.975807
0.426286
0.731875
0.4725
0.526141
0.392057
0.333215
0.363876
0.418841
0.563122
0.35568
0.369796
0.980633
0.37453
1.43877
0.373253
0.345413
0.371395
0.584446
0.418157
0.318835
0.861953
0.314279
0.330515
0.314027
0.361903
0.828462
0.487115
0.332065
0.517299
0.346457
0.348434
0.320076
0.332859
0.420984
0.40301
0.410943
0.353321
0.330264
0.402439
0.344462
0.309639
0.406282
0.363773
2.14344
0.371943
0.46128
0.353191
0.405206
0.357834
0.422976
0.3107
0.359908
0.342239
0.342414
0.372437
0.83518
0.310537
0.654653
0.570233
0.391276
0.379799
0.355676
0.382518
0.444575
0.656026
0.321377
0.345176
0.351529
0.501672
0.384401
0.31164
1.23847
1.20147
0.653231
0.313948
0.319563
0.505634
0.353148
0.353675
0.505537
0.364428
0.334944
0.36523
1.1931
0.318433
0.576022
0.315748
0.335429
0.427448
0.333679
0.382553
0.457974
0.319569
0.59111
0.406876
0.401344
0.447179
0.937556
0.324796
0.359955
0.366364
0.394406
0.356316
0.361402
0.308895
0.308305
0.374467
0.585755
0.375042
0.361155
0.943408
0.373279
0.618808
0.358374
0.383029
0.396386
0.34519
0.775543
0.351704
0.510726
0.368013
0.355035
0.345214
0.391559
0.567848
0.451904
0.326139
0.626129
0.376933
0.717415
0.75532
1.1323
0.324891
0.455939
0.377692
0.235606
0.39254
0.254654
0.441371
0.227344
0.396457
0.751682
0.402709
0.625347
0.689109
0.363255
0.239004
0.459984
0.977187
0.527195
0.676454
1.50055
1.75422
0.704715
0.822113
0.324581
0.353544
0.747821
0.391262
0.926292
0.374511
0.778122
0.77273
0.338617
0.36672
0.332542
0.31131
0.35633
0.31067
0.726967
0.389262
0.364083
0.55514
0.328353
0.357351
0.311163
0.339555
0.354937
0.352621
0.39314
0.312264
0.411089
0.908608
0.314127
0.323133
0.349266
0.320406
0.753133
0.962872
0.395192
0.424695
0.545143
0.313892
0.304047
0.343215
0.364395
0.330323
0.337349
0.324797
0.318839
0.431132
0.31808
0.366121
0.334424
0.313317
0.317291
0.873698
0.329405
0.345588
0.316495
0.430508
0.355063
0.349554
0.700899
0.409474
0.341556
0.389033
0.344748
0.372662
0.388347
0.369114
0.325136
0.377952
0.364316
0.331307
0.353481
0.354061
0.434838
0.455714
0.335185
0.339697
0.40263
0.430881
0.479327
0.569652
0.910458
0.926757
0.343255
0.319601
0.943697
0.531526
0.558962
0.325472
0.314404
0.336347
0.309447
0.333302
0.318409
0.322783
0.351274
0.315868
0.321834
0.318458
0.325459
0.318559
0.536775
0.376623
0.348029
0.323239
0.326133
0.623653
0.314145
0.319832
0.39911
1.05312
0.551938
0.374186
0.362242
0.328696
0.363812
0.470911
0.685677
0.404687
0.331515
0.365296
0.330669
0.32911
0.368463
0.433754
0.363595
0.324031
0.398327
0.402626
0.623052
0.394618
0.749735
0.579762
0.386408
0.391434
0.3311
0.341988
0.374141
0.309873
0.329055
0.60574
0.328404
0.347721
0.716362
0.35068
0.368556
0.518827
0.39473
0.321825
0.35317
0.322755
0.355001
0.731425
0.350974
0.428619
2.87436
0.582636
1.11208
0.842391
0.331485
0.341053
0.53206
0.316123
0.556501
0.492834
0.696465
0.369859
0.314226
0.789357
0.313352
0.545585
0.415828
0.323445
0.722788
0.857654
0.312475
0.322719
0.899595
0.311874
0.318313
0.317516
0.314025
0.347239
0.568309
0.581268
0.341217
0.807177
0.332103
0.338327
0.32307
0.870386
0.336378
0.910608
0.315368
0.355226
0.317151
0.432439
0.335371
0.509102
0.315019
0.658335
0.473356
0.474928
0.706713
0.336317
0.333933
0.880063
0.446186
0.346596
0.417788
0.655022
0.339955
0.427001
0.32732
0.593536
0.405638
0.320827
0.311276
0.457569
0.329033
0.384707
0.351659
0.313037
0.339011
0.318156
0.320439
0.336281
0.740083
0.326403
0.319062
0.317302
0.330472
0.320237
0.343689
0.313678
0.367273
0.438589
0.384211
0.380689
0.32246
0.406022
0.330892
0.381495
0.900203
0.464775
0.757816
0.329164
1.68603
0.363743
0.54259
0.377093
0.352124
0.383785
0.323472
0.314498
0.350333
0.35763
0.306043
0.328172
0.314355
0.671869
0.313707
0.330196
0.369618
0.79608
0.200747
0.339543
0.80613
0.919281
0.61221
0.560958
1.03434
0.16357
0.406607
0.304097
0.349488
0.443908
2.28064
0.552515
0.384854
0.314012
0.315828
0.758225
0.347229
0.553145
0.606718
0.377888
0.591401
0.36833
0.602433
0.320699
0.363809
0.34719
0.311211
0.389067
0.307883
0.350139
1.10696
1.07492
1.0957
0.453501
0.824329
0.33258
0.307841
0.315388
0.369973
0.315073
0.372151
0.321476
0.413325
0.379089
0.311772
0.316021
0.365049
0.31257
0.333607
0.361696
0.321746
0.359803
0.51049
0.335923
0.374127
0.822585
0.365444
0.716741
0.820379
0.353857
0.388771
0.314062
0.477232
0.357247
0.371635
0.673482
0.316828
0.382557
0.347709
0.367117
0.322866
0.326185
0.483
0.519939
0.375501
0.355246
0.79284
0.381847
0.639453
0.584698
0.36051
0.983137
0.439935
0.376274
0.352198
0.351578
0.396877
0.354785
0.304984
0.33061
0.226198
0.588991
0.220014
0.328144
0.36075
0.42911
0.198363
0.825545
0.3419
0.368205
0.393382
0.243623
0.39765
0.712458
1.90129
0.367934
0.326308
0.366007
0.587964
0.322726
0.376729
0.375698
0.326844
0.353796
0.333968
0.609173
0.328684
1.52486
0.387904
0.978767
0.336186
1.30091
0.855343
1.10036
0.34557
0.344053
0.461619
0.3686
0.331285
0.375608
0.336128
0.822749
0.312333
0.469796
0.615074
0.31225
0.318748
0.323819
0.325694
0.355758
0.360489
0.39043
0.392479
0.37181
0.34468
0.400209
0.338981
0.445158
0.33003
0.368062
0.318188
2.19067
1.19174
0.374904
0.447141
0.310223
2.46955
0.309461
0.313275
0.358512
0.31085
0.376478
0.358862
0.311372
0.306305
0.341283
1.1003
0.613711
0.370891
0.815484
0.315781
0.361291
0.330388
0.359563
0.805118
0.385586
0.841354
0.309022
0.332543
0.793795
0.886925
0.339205
0.340574
0.633185
0.37704
0.358861
0.485693
0.385143
0.3733
0.412651
0.374428
0.305825
0.383301
0.354826
0.478115
0.314782
0.36224
0.312713
0.33591
0.805389
0.691873
0.330325
0.363126
0.337921
0.357195
0.328394
0.533263
0.329444
0.346701
0.369526
0.35126
0.438333
0.397218
0.482883
0.371388
0.307322
0.326434
0.315419
0.375025
0.307534
0.527725
0.439658
0.32459
0.649929
0.338878
0.314012
0.357969
0.315868
0.37285
0.632739
0.335251
0.430217
0.367241
0.949525
0.391626
0.371577
0.37256
0.722448
0.374092
0.530233
0.367204
0.399821
0.36892
0.408159
0.381933
0.730196
0.450997
0.363189
0.330454
0.32451
0.552741
0.338514
0.993645
1.73641
0.375889
0.419555
0.357439
0.471139
0.448343
0.384285
0.897199
0.477106
0.655197
0.315915
0.391862
1.02518
0.482461
0.352302
0.4665
0.329835
1.12085
0.38605
0.380762
0.326973
0.314314
0.318307
0.342363
0.315975
2.1028
0.318558
0.640907
0.315453
0.421779
0.387549
0.524953
0.341499
0.346569
0.334391
0.592642
0.461771
0.505406
0.317927
0.319322
0.44966
0.36798
0.355316
0.315167
0.313169
0.314239
0.334966
0.312996
0.369647
0.319349
0.5533
0.42816
1.01125
0.761097
0.602945
0.560049
0.385102
0.39288
0.310948
0.587814
0.325988
0.338455
0.32401
0.4566
0.494329
0.326112
0.420001
0.784093
0.484687
0.316446
0.316164
1.42327
0.817826
0.379639
0.862271
0.871838
0.640688
0.753833
0.572392
0.733802
0.400999
0.63473
0.771338
0.312283
0.320914
0.306338
0.468741
0.606637
0.329247
0.313701
0.396552
0.358784
0.38401
0.823082
0.478338
0.961085
0.347914
0.315449
0.334059
0.314528
0.356652
0.818734
0.805302
0.703889
0.777875
0.321287
1.04883
0.731513
0.317225
0.528271
0.469372
0.772168
0.371286
0.471975
0.769592
0.789954
0.470201
0.850649
0.500304
0.773091
0.369273
0.338586
0.382691
1.09927
0.767311
0.389027
0.332773
0.55338
0.439495
0.579036
0.352515
0.37164
1.1176
1.10584
0.233034
0.323575
0.245076
0.3151
0.230631
0.377328
0.458021
0.603315
0.213134
0.432261
0.494216
0.144827
0.457596
1.58083
0.411141
0.378352
0.737855
0.331935
0.494959
0.32457
0.309495
0.328723
0.341242
0.836552
0.700158
1.70126
0.390255
0.385382
0.619514
0.371601
0.467863
0.406379
0.357736
0.332805
0.59493
0.379922
0.414965
0.324222
0.42003
0.403288
0.757848
0.463375
0.809474
0.961509
0.775791
0.373708
0.399669
0.734705
0.309723
0.552563
0.356004
0.384489
0.321674
0.803617
0.61248
0.63822
0.856915
0.611745
0.31366
0.42884
0.873124
0.818666
0.385638
0.357396
0.46006
1.13844
0.35222
0.315775
0.36261
0.337392
0.85832
0.324038
0.616428
1.11673
0.911034
1.72416
0.541698
0.457598
0.799752
1.33439
0.871543
0.586932
0.747843
0.923294
0.529966
0.375866
0.445168
0.356472
0.305101
0.319538
0.419756
0.517555
1.7229
0.360981
0.391104
0.405129
0.377605
0.464296
0.567162
0.477618
0.372862
0.380456
1.03173
1.0972
0.211984
0.394549
0.333914
0.364601
1.53187
0.823095
0.370864
0.680615
0.331769
0.442323
0.543713
0.568141
0.339817
0.336831
0.325433
0.3894
0.907421
0.451359
0.352996
0.785617
0.315631
0.936563
0.707663
0.470433
0.696821
0.363012
0.316403
0.323167
0.321007
0.357577
0.398187
0.327124
0.341268
0.327043
0.320082
0.509337
0.690017
0.7299
0.322584
0.474647
0.362638
0.38926
0.344984
0.665773
0.356453
0.338494
0.336477
0.314708
0.328033
0.330814
0.456023
0.310323
0.354838
0.370187
0.616492
0.324932
0.392448
0.496859
0.800222
0.868277
0.384159
0.970996
0.552531
0.37185
0.346263
0.533722
0.329714
1.78346
0.422679
0.320266
0.424482
0.517141
0.405476
0.458354
0.731175
0.869264
0.452159
0.840356
0.340818
0.311062
0.393761
0.317251
0.316817
0.408714
0.320549
0.318999
0.580253
0.314596
0.286063
1.08443
0.594812
0.314326
0.316608
0.707554
0.333972
0.327154
0.581719
0.325277
0.741153
0.402242
0.774279
0.318648
0.544804
0.445804
0.676426
0.323577
0.439955
0.321794
1.10524
0.364328
0.316868
0.937314
0.425614
0.500825
0.355747
0.369685
0.373678
0.320572
0.502291
0.319832
0.321955
0.30989
0.44649
0.548252
0.322074
0.324783
0.321768
0.319636
0.332556
1.25711
0.316814
0.453744
0.316053
0.577185
0.351822
0.36761
0.359019
0.469334
0.335248
0.424455
0.30676
0.337293
0.336112
0.351399
0.317624
0.435083
0.409259
0.855198
0.936822
0.796822
0.394009
0.345467
0.341506
0.315604
0.316901
1.03779
0.641385
0.399635
0.370423
0.308772
0.33596
0.308667
0.322034
0.528772
0.508723
0.770604
0.923419
0.371967
0.349444
0.411072
0.316854
0.592732
0.353983
0.453506
0.36325
0.361619
1.05966
0.41707
0.309212
0.334361
0.400788
0.317637
0.49325
0.314842
0.699842
0.37298
0.910144
0.489724
0.778242
0.322104
0.338431
0.356144
0.374412
0.361185
0.358246
0.315945
0.315311
0.3205
0.329829
0.354906
0.592049
0.373224
0.866538
0.415441
0.323742
0.516862
0.381689
0.361459
0.296352
1.0602
0.891662
0.302795
0.319622
0.322808
0.848514
0.318377
0.423122
0.378009
0.36552
0.282492
0.363997
0.360255
0.314422
0.418242
0.537881
0.959879
0.534075
0.440168
0.308808
0.401532
0.635527
0.349567
0.318394
0.859748
0.812828
0.406558
0.736781
0.320672
0.313547
0.398891
0.321057
0.877374
0.315714
0.315413
0.319688
0.668686
0.315831
0.357729
0.45839
0.466732
0.315525
0.332822
0.338938
0.334484
0.315096
0.352652
0.369626
0.59003
0.432404
0.369793
0.583474
0.362086
0.639535
0.36201
0.904347
0.445479
0.339849
0.687691
0.266839
0.431986
0.532502
0.587068
0.40068
0.314708
0.317654
0.310788
0.362666
0.84318
0.373922
0.31536
0.354651
0.375355
0.311462
0.485334
0.34285
0.370337
0.462137
0.335952
0.320063
0.350214
0.340647
1.57018
0.909024
0.386002
0.358911
0.426874
0.355926
0.806734
1.11641
1.12787
0.783106
0.348872
0.33498
0.342509