/*--------------------------------*- C++ -*----------------------------------*\
| =========                 |                                                 |
| \\      /  F ield         | OpenFOAM: The Open Source CFD Toolbox           |
|  \\    /   O peration     | Version:  2506                                  |
|   \\  /    A nd           | Website:  www.openfoam.com                      |
|    \\/     M anipulation  |                                                 |
\*---------------------------------------------------------------------------*/
FoamFile
{
    version     2.0;
    format      ascii;
    arch        "LSB;label=32;scalar=64";
    class       volScalarField;
    location    "0.0563527";
    object      nut;
}
// * * * * * * * * * * * * * * * * * * * * * * * * * * * * * * * * * * * * * //

dimensions      [0 2 -1 0 0 0 0];

internalField   nonuniform List<scalar> 
47425
(
0.00529477
0.00508518
0.00441844
0.00198519
0.00333609
0.00454491
0.00460977
0.00324024
0.00742778
0.00206881
0.00245141
0.00737276
0.00520688
0.00400074
0.00327563
0.0037844
0.00458992
0.00256623
0.000265392
0.00288209
0.00382107
0.00693971
0.00311706
0.00504639
0.00678844
0.00698068
0.00393216
0.000504906
0.00433629
0.00558081
0.00733426
0.00711877
0.00745919
0.00457011
0.00564234
0.00485022
0.00702415
0.00537802
0.00483058
0.00432353
0.00506768
0.00469093
0.00504705
0.00260976
0.000873087
0.00337261
0.00347529
0.00451985
0.00397276
0.00649751
0.000660899
0.00270888
0.00616152
0.00103714
0.00328223
0.00296698
0.00696919
0.00532139
0.00241731
0.00516917
0.000903518
0.000738004
0.000988132
0.00315569
0.0073849
0.00697485
0.00555529
0.00428861
0.00108508
0.00530199
0.00400622
0.00587436
0.00638401
0.00351947
0.00136483
0.00746319
0.00102594
0.00389397
0.000242774
0.00204206
0.00134844
0.00492289
0.00733739
0.00742889
0.00664335
0.00392859
0.00571944
0.00599309
0.00451371
0.00146537
0.00713797
0.00447633
0.00720999
0.00323192
0.00259676
0.00188393
0.00643341
0.00585674
0.00357232
0.00456757
0.00557043
0.000986497
0.00610981
0.00100383
0.00628268
0.00699719
0.00647813
0.00345155
0.00662801
0.00702608
0.0031701
0.00522323
0.00605501
0.00227651
0.00737261
0.000352548
0.00738317
0.000758533
0.00434966
0.00541087
0.00407881
0.00747141
0.00590971
0.00273088
0.00362893
0.00691212
0.00384659
0.00741791
0.00336169
0.00726564
0.00710091
0.00346086
0.00104485
0.00292943
0.00509383
0.00494577
0.00671359
0.00668513
0.00458169
0.00323347
0.0049908
0.00281628
0.00473659
0.0053114
0.00641593
0.00742415
0.00401268
0.00542676
0.0024131
0.00499716
0.00537144
0.000550392
0.00738991
0.000427743
0.00312188
0.00389728
0.00298909
0.000306983
0.0038569
0.00461413
0.00751957
0.00707552
0.00618135
0.00683027
0.00122487
0.000485628
0.00743514
0.0013627
0.00319693
0.000805692
0.00138236
0.00412494
0.00479098
0.00351943
0.00489197
0.00130063
0.000400039
0.00432918
0.00586335
0.00703985
0.000326046
0.00644458
0.00506305
0.00677642
0.00662036
0.00695764
0.00558203
0.00113661
0.00237634
0.00552277
0.00746957
0.00430423
0.0052918
0.00474274
0.00668674
0.0074401
0.00582734
0.00453691
0.00754525
0.00361627
0.00512921
0.00297323
0.00652389
0.00739282
0.00249615
0.00237081
0.00569901
0.00735871
0.00402783
0.00747107
0.00489404
0.00472042
0.00745929
0.00337223
0.00496508
0.0049658
0.00408639
0.00172533
0.00351545
0.00381672
0.00195243
0.00243439
0.00485824
0.00320017
0.00238914
0.00164014
0.00667738
0.00252865
0.00729228
0.00422028
0.00430895
0.00444802
0.00336074
0.00748889
0.00223974
0.00351218
0.00179408
0.0030141
0.00202336
0.00203311
0.00405819
0.00511625
0.00721313
0.00310075
0.00703905
0.00733155
0.00459116
0.00590011
0.0071028
0.00405386
0.00728164
0.0023662
0.00474391
0.00742026
0.00351575
0.00717279
0.00677806
0.00304171
0.00330586
0.00739659
0.0030595
0.00746019
0.00405947
0.00269105
0.00538348
0.0039291
0.00700723
0.00485338
0.00493664
0.00402213
0.00404034
0.00225002
0.00184874
0.0064269
0.00235375
0.00209581
0.0023525
0.000552934
0.00189761
0.000624784
0.000918808
0.00536539
0.000927286
0.00297876
0.00402792
0.0036186
0.00341071
0.00357476
0.00404103
0.00747516
0.000788149
0.00516322
0.00737543
0.0054497
0.00464295
0.00336967
0.00298312
0.00671494
0.00490559
0.00500248
0.00385659
0.00700631
0.00386234
0.00513891
0.00108358
0.000839736
0.000573954
0.00722363
0.00635326
0.00719395
0.00325394
0.00084455
0.00376236
0.00286137
0.00172325
0.00470989
0.00332158
0.00304571
0.00347246
0.0015551
0.00183322
0.00705275
0.00518988
0.00649512
0.00418266
0.00702126
0.00406299
0.00497064
0.00590767
0.0043203
0.00370423
0.00101462
0.00418791
0.00418556
0.00297239
0.00718752
0.000869327
0.00636349
0.0067336
0.00594421
0.00695011
0.00690092
0.00691353
0.00599953
0.0061103
0.00612446
0.00521976
0.00672199
0.00379494
0.00409998
0.00680335
0.00695541
0.00519744
0.00663623
0.00664447
0.00267875
0.00407317
0.00734959
0.00648412
0.00385731
0.00197538
0.00579857
0.00422654
0.00345644
0.00648432
0.00668798
0.00282017
0.00743427
0.00490865
0.00716927
0.00279999
0.00108022
0.00398416
0.00735141
0.00192608
0.00731489
0.00459121
0.00385943
0.00502324
0.00697873
0.00563157
0.00719208
0.00714843
0.00481518
0.00407342
0.00439935
0.00391151
0.00602441
0.00717436
0.00392438
0.00667812
0.00643372
0.00411691
0.00551026
0.00480717
0.00661861
0.00520627
0.00364624
0.00332209
0.00633691
0.000893108
0.00678277
0.00213171
0.00478836
0.00348917
0.003474
0.00656948
0.00242234
0.00660504
0.00359415
0.00693954
0.00111728
0.0010478
0.00715012
0.00281929
0.00391856
0.00365208
0.00394462
0.00429713
0.00384905
0.00403391
0.00487513
0.00690947
0.0031102
0.00454567
0.0063
0.00345791
0.00399203
0.00610861
0.000927303
0.000416602
0.0067208
0.000499499
0.000520138
0.00399727
0.000492518
0.000793385
0.0064873
0.00389144
0.00414066
0.0039505
0.000970046
0.0038472
0.00622036
0.00630918
0.00423585
0.00421641
0.00404891
0.0038964
0.000968518
0.000733233
0.00127635
0.00543758
0.00104018
0.00380789
0.00547119
0.00723623
0.00530503
0.00729568
0.00422958
0.00478992
0.00284693
0.00460691
0.00748961
0.00398578
0.00524231
0.00437684
0.00735323
0.00495033
0.00470795
0.00523105
0.00562935
0.00340229
0.00282343
0.00508106
0.00419809
0.00730368
0.0012158
0.00278503
0.00211844
0.007443
0.00261676
0.00336394
0.0030656
0.00716056
0.00407897
0.00740282
0.00487329
0.00302094
0.00331967
0.00361952
0.00336256
0.00566488
0.00231069
0.000895003
0.00656366
0.00164827
0.00560419
0.00166635
0.0064213
0.00601493
0.00704011
0.00456363
0.00544526
0.00300916
0.00513499
0.00657376
0.00718627
0.00672382
0.0044365
0.00268007
0.00384894
0.00719814
0.0057094
0.00534471
0.0053636
0.00532634
0.00485888
0.00440532
0.00265517
0.00472289
0.00372038
0.000694451
0.0052366
0.00457034
0.00632544
0.0074118
0.00178834
0.00205699
0.0044681
0.006335
0.00431168
0.00428312
0.00683587
0.00205948
0.00747831
0.00303987
0.00244162
0.00277654
0.00533639
0.00291382
0.0073358
0.0043584
0.00441501
0.00642255
0.00705526
0.00592359
0.000910864
0.00498007
0.00246993
0.0068077
0.00181326
0.00661537
0.00528878
0.00218052
0.00244621
0.00459477
0.00678849
0.000717901
0.00564216
0.00542718
0.0055679
0.00635466
0.00702901
0.00231806
0.00296471
0.00614276
0.00568532
0.00481424
0.0070673
0.0021181
0.0071673
0.0051834
0.000470532
0.00446485
0.00714922
0.000939491
0.00134618
0.00708519
0.000326115
0.00034014
0.00433095
0.00744587
0.00588932
0.00710668
0.00427244
0.00389517
0.00132139
0.0071137
0.00274024
0.00623269
0.00209904
0.00229286
0.00433176
0.00483897
0.00155537
0.0069247
0.00606533
0.00349296
0.00338633
0.00264109
0.00300907
0.00302173
0.00668673
0.00340448
0.00285125
0.00310691
0.00532867
0.00302295
0.00350454
0.00657725
0.00260017
0.00368866
0.00405468
0.00274281
0.00338871
0.00454483
0.00492993
0.0063924
0.00175833
0.00507814
0.00665989
0.00668267
0.000309882
0.0039627
0.00524858
0.000551175
0.000820242
0.00717111
0.00468286
0.000181513
0.00208381
0.00081086
0.00270381
0.0031541
0.000703793
0.00525092
0.0064036
0.00591028
0.00308644
0.00335455
0.0033283
0.00663304
0.003147
0.00466734
0.00387066
0.00639824
0.00432126
0.00398055
0.00172346
0.000988337
0.00282431
0.00304262
0.00404797
0.00637857
0.00342676
0.00741635
0.00605426
0.00567865
0.00526792
0.00628092
0.00195642
0.00469504
0.00654427
0.00188421
0.00195527
0.00093734
0.00121963
0.00396413
0.00736774
0.00483809
0.00706558
0.00112741
0.00451234
0.00118596
0.00423158
0.00414389
0.00524361
0.0047538
0.0055902
0.00349413
0.00201775
0.00360024
0.00538066
0.00189947
0.00442741
0.00748588
0.00419765
0.00399849
0.00143707
0.00525537
0.00185701
0.00352234
0.00747322
0.00706156
0.00252374
0.00412911
0.00378605
0.00743206
0.00513063
0.00425268
0.00448005
0.00415756
0.00398671
0.00487977
0.000922017
0.000631438
0.00440766
0.000825867
0.00462303
0.00292021
0.00340493
0.0064211
0.00391406
0.00491677
0.00416558
0.00408639
0.00694302
0.000589073
0.00286058
0.00339572
0.00507417
0.00662314
0.00377807
0.00555331
0.00243343
0.00745709
0.00153916
0.00407792
0.00692543
0.00420795
0.0066388
0.00537804
0.00453098
0.00621398
0.00358682
0.00726138
0.0067593
0.0039499
0.00105156
0.00730244
0.000707703
0.00235918
0.00220931
0.000697604
0.00424472
0.00412606
0.00219901
0.00393419
0.000813157
0.000662607
0.000943468
0.0032868
0.00505323
0.0037755
0.00294702
0.000897559
0.00251001
0.00369353
0.00579226
0.0044738
0.0043278
0.00311128
0.00582992
0.00423648
0.00133975
0.00205533
0.00555722
0.00246468
0.00110729
0.000711036
0.00349689
0.000568393
0.00207531
0.000674132
0.000864679
0.00450022
0.00302911
0.00708935
0.00661991
0.00483067
0.000724025
0.00131183
0.00477988
0.00483864
0.00712619
0.000854943
0.000659962
0.00718595
0.0022698
0.00367711
0.00718692
0.00222251
0.00719998
0.00718049
0.00434645
0.00482273
0.00162876
0.00644261
0.00716124
0.00511075
0.00522555
0.00520871
0.0010644
0.00183435
0.0070467
0.00133879
0.00636571
0.00674719
0.00670314
0.00179027
0.00453771
0.00202005
0.00265861
0.00574152
0.00722523
0.00130754
0.000674442
0.00452798
0.00392626
0.00194569
0.00536195
0.00561189
0.00302189
0.00278554
0.00294507
0.00542496
0.0023882
0.0010963
0.0074237
0.00113384
0.00554351
0.00392749
0.00700608
0.00202836
0.00272695
0.00715656
0.00351428
0.00130898
0.0034228
0.00196503
0.00477173
0.00564218
0.00466943
0.00353904
0.00458308
0.00313481
0.000653713
0.00473046
0.00264629
0.00179488
0.00177947
0.00110366
0.00173614
0.00414063
0.000557632
0.0070125
0.00658569
0.00427113
0.00269761
0.00385999
0.00148018
0.00136432
0.00321403
0.00504132
0.00457276
0.00320687
0.00357191
0.00391667
0.00769202
0.00135268
0.0040036
0.00437085
0.00248272
0.00207606
0.00584112
0.000562231
0.00392248
0.00537252
0.00386732
0.00398035
0.00620092
0.00686585
0.00340399
0.00386336
0.000764594
0.00278842
0.00480615
0.00367177
0.00570136
0.00351806
0.000800363
0.00462413
0.00206078
0.00577021
0.00189923
0.00286743
0.00376019
0.00546138
0.00529135
0.0035787
0.00193366
0.00394214
0.00167066
0.000751932
0.00530013
0.0070381
0.00515757
0.00108741
0.00538795
0.00274104
0.00695311
0.00169844
0.00186707
0.00406319
0.00312463
0.00434286
0.00715159
0.0051477
0.00316439
0.00113056
0.00229493
0.00122553
0.00697797
0.00233928
0.00262997
0.00285153
0.00359981
0.00482815
0.00169078
0.00164913
0.00378834
0.000959088
0.00359514
0.00359977
0.00434087
0.00500344
0.00381005
0.00486691
0.00127838
0.00383576
0.00372617
0.00457696
0.006129
0.000819168
0.00231073
0.000723757
0.00160245
0.00111525
0.00209057
0.00390538
0.00131247
0.00353561
0.00130102
0.00201124
0.00205453
0.00135402
0.00310588
0.00534133
0.00433447
0.00746911
0.00150234
0.00369843
0.00346545
0.00437756
0.00139847
0.00594741
0.00431475
0.00602795
0.00746045
0.00294892
0.00189383
0.00300124
0.00325657
0.00554845
0.00234605
0.0066377
0.0031847
0.00310937
0.00721481
0.00242091
0.00224101
0.00430749
0.00214889
0.00392775
0.00315173
0.00206377
0.00293712
0.00312578
0.00022825
0.000669219
0.00165627
0.000649206
0.00333744
0.00336994
0.000617887
0.000922735
0.00531104
0.00106871
0.00334104
0.00417277
0.000545186
0.00263443
0.00706157
0.00319957
0.00155085
0.00626875
0.000711353
0.000347438
0.00227093
0.00084644
0.00225356
0.000974438
0.00085583
0.00554425
0.00452601
0.0027767
0.00201636
0.00370023
0.00736225
0.00216786
0.000712267
0.00490696
0.00172743
0.00432278
0.00203563
0.00636034
0.00599713
0.0021328
0.00211471
0.00421681
0.0018157
0.00519655
0.00145446
0.00718027
0.00601583
0.00355423
0.00199185
0.0049025
0.00727632
0.000792742
0.00171688
0.00164676
0.00372204
0.00267909
0.00211498
0.00118429
0.00407575
0.00118667
0.00252271
0.00520357
0.00321089
0.00223535
0.000838853
0.002122
0.00184458
0.00588643
0.00521663
0.00203886
0.0040605
0.00272049
0.0050195
0.00740451
0.00648112
0.0040571
0.00282545
0.000799453
0.00418234
0.000505021
0.00406246
0.00441073
0.00295819
0.00535777
0.00375956
0.00413526
0.00457657
0.00194996
0.00582064
0.00150179
0.00708875
0.000378691
0.00133794
0.00138275
0.00199026
0.00417622
0.00540299
0.00347173
0.00563645
0.000663485
0.000792119
0.00340259
0.00232624
0.000987661
0.000959322
0.00234089
0.00118037
0.000545821
0.00359923
0.00561031
0.000530262
0.00385474
0.00464773
0.00432015
0.00100773
0.000623571
0.00397844
0.0039347
0.00135631
0.00257669
0.0012218
0.000789745
0.00327272
0.00110362
0.00122351
0.00336774
0.00469474
0.00112213
0.00616588
0.00144677
0.00023815
0.00727578
0.00448534
0.00386961
0.00551895
0.00301899
0.00309501
0.00740589
0.00298354
0.00415317
0.000867178
0.00164203
0.00473422
0.0014122
0.00473349
0.000398724
0.00688067
0.00364537
0.00235342
0.00569533
0.00102519
0.00394056
0.00308419
0.00237759
0.00290975
0.00397619
0.00469463
0.00212048
0.000721393
0.00618652
0.00139019
0.000744728
0.00222424
0.00384567
0.00105501
0.0017844
0.00478126
0.00562257
0.00108298
0.00180294
0.0022762
0.000835462
0.002586
0.000977584
0.00321222
0.00285064
0.00218442
0.00100621
0.00551261
0.00609598
0.00217097
0.00428478
0.00255694
0.00355145
0.00104344
0.00532496
0.00382601
0.00575606
0.00140235
0.00560473
0.000609189
0.00226408
0.00557002
0.00739779
0.00193721
0.00172244
0.000927076
0.00196407
0.00223776
0.00115937
0.000898746
0.00408733
0.000941321
0.00483691
0.00294064
0.000447461
0.0015812
0.00308877
0.00314979
0.00561325
0.00155818
0.000551296
0.00169168
0.00257996
0.00544305
0.00719303
0.00191161
0.00474666
0.00379495
0.00627851
0.00108936
0.00275981
0.00162144
0.0042008
0.00163152
0.0040818
0.00359613
0.00116317
0.00186576
0.00241014
0.00276958
0.00565164
0.000409187
0.00168461
0.00158738
0.00146869
0.00345443
0.00545046
0.00108641
0.000752637
0.00164793
0.00284336
0.00289563
0.00168788
0.00261886
0.00134845
0.00552343
0.00135693
0.00141927
0.00561872
0.00125615
0.00339583
0.00257727
0.0028027
0.00135153
0.00249582
0.00613508
0.000733646
0.00335047
0.000653412
0.00265223
0.0038002
0.0029505
0.00206717
0.00137107
0.00251751
0.00412103
0.00302598
0.00124368
0.00396455
0.00431038
0.000654828
0.00706553
0.00366018
0.000889445
0.00377578
0.0027728
0.00200433
0.00243436
0.00120332
0.00375422
0.000169242
0.00223711
0.0012744
0.00252337
0.00119524
0.00287803
0.000905858
0.00136587
0.00137096
0.00278686
0.00398877
0.00741049
0.0041124
0.00371123
0.00290774
0.000728758
0.00377202
0.00598016
0.00456175
0.00506667
0.00324304
0.00417184
0.007341
0.00745459
0.00300681
0.00100419
0.00688022
0.00282332
0.00248601
0.00533968
0.00658891
0.00286902
0.00237245
0.00747104
0.0056186
0.00338717
0.00357613
0.00637035
0.00388014
0.0011681
0.00388075
0.00360299
0.00576059
0.00706334
0.00219825
0.00472554
0.00590456
0.000826191
0.00164117
0.000990718
0.00675098
0.000984201
0.000439588
0.00641905
0.00037578
0.00080685
0.000602066
0.00395057
0.0048723
0.00426485
0.00148165
0.00692566
0.00443308
0.00451042
0.00394966
0.00277621
0.003554
0.00347884
0.00109728
0.00437243
0.00280772
0.00087429
0.0040088
0.000373168
0.00178532
0.00127584
0.0066445
0.00305754
0.00197802
0.00591927
0.0047696
0.00192878
0.00718202
0.00288446
0.00177918
0.000419241
0.00731369
0.00161034
0.00532051
0.0030482
0.00312502
0.00552014
0.00138615
0.00483195
0.00219753
0.00464043
0.00131553
0.000280012
0.00403118
0.00702237
0.00231623
0.0047275
0.000836743
0.00376988
0.00378279
0.00452163
0.00433227
0.00557735
0.00724867
0.0038436
0.00229939
0.00546159
0.00219071
0.00406587
0.00377849
0.00723106
0.00231119
0.00128868
0.004044
0.00464833
0.00500299
0.00469796
0.00310984
0.00422726
0.00448763
0.00590521
0.002384
0.00263956
0.00747211
0.00390269
0.00363648
0.0051639
0.00384339
0.003206
0.00349883
0.00356034
0.00396751
0.00403533
0.0039042
0.0058892
0.00481903
0.00635662
0.00208889
0.00224939
0.00196176
0.00362111
0.0048218
0.00419793
0.0012644
0.00549494
0.0052351
0.00549876
0.00155849
0.00299377
0.0012753
0.00125675
0.00125465
0.0034083
0.00458387
0.00429704
0.00427589
0.00644438
0.0012069
0.00404304
0.00657281
0.00418335
0.00320783
0.00412645
0.00143108
0.00418621
0.00237745
0.00280592
0.00345514
0.00616259
0.00447173
0.00376073
0.00382501
0.00462423
0.00303435
0.00331731
0.0028903
0.00373661
0.00508242
0.00497092
0.00215273
0.00192638
0.00479686
0.00417456
0.00233746
0.00377564
0.0022971
0.0068324
0.00543921
0.00233279
0.0046929
0.00583641
0.00469811
0.00688958
0.00672087
0.00352911
0.00437018
0.00199169
0.00448229
0.00244819
0.00616348
0.00443409
0.000993148
0.00407811
0.00424907
0.00513274
0.00519023
0.0039961
0.00429287
0.000333187
0.00347758
0.00398438
0.00606997
0.00529299
0.00502166
0.00721848
0.0063279
0.00351385
0.00413519
0.00641931
0.00681041
0.00307919
0.000994689
0.00133786
0.00304737
0.00179812
0.00351827
0.00393053
0.00354746
0.0017399
0.00196972
0.00336705
0.0040259
0.000852916
0.0048473
0.0040245
0.00389817
0.00402642
0.00671236
0.000314254
0.0046944
0.003643
0.00743009
0.00267796
0.00274186
0.000409432
0.0002406
0.00469242
0.00587117
0.00704028
0.00403798
0.00368896
0.00514859
0.000219862
0.00119654
0.00480949
0.00254682
0.00139644
0.00497694
0.00450291
0.00330421
0.00702012
0.0050462
0.00676072
0.00432328
0.00290277
0.00393742
0.00427671
0.00519354
0.00198165
0.00431541
0.00743716
0.00134492
0.00571933
0.00358056
0.00315174
0.00106323
0.00156212
0.00348363
0.00287964
0.00516719
0.00284779
0.00288382
0.00602509
0.000593143
0.00171447
0.00287975
0.00393982
0.00339996
0.0039083
0.00386937
0.00117544
0.00724905
0.00676146
0.00574208
0.00538436
0.00091116
0.00132108
0.00133847
0.00184805
0.00313408
0.00287973
0.00728164
0.00713144
0.00454914
0.00503985
0.00515791
0.00565704
0.007208
0.00110792
0.000694887
0.00713857
0.00665436
0.00302036
0.00208284
0.00309354
0.00715252
0.00529679
0.00170184
0.000917693
0.00347474
0.00205334
0.00509651
0.00150656
0.000566059
0.00302383
0.00631464
0.00712035
0.00617154
0.00091858
0.00547044
0.00435009
0.00427352
0.0072066
0.000961786
0.000347346
0.000513969
0.00167574
0.0035973
0.00615937
0.00697089
0.00237009
0.00412354
0.000963033
0.000822577
0.000781355
0.000475767
0.000768116
0.00174921
0.00651174
0.00083948
0.00739766
0.000356536
0.00390491
0.000747559
0.00445003
0.00177776
0.00586884
0.00298915
0.00224757
0.00225496
0.00478692
0.00559716
0.00398941
0.000916747
0.00112105
0.00500344
0.00516893
0.00048084
0.000415294
0.00370806
0.0017918
0.000688363
0.00127608
0.00470153
0.00682409
0.000865737
0.000626058
0.00158092
0.00708666
0.00133703
0.00634612
0.000750529
0.00110165
0.000532653
0.00245459
0.00573672
0.0015994
0.00673598
0.00463114
0.00388146
0.00225398
0.00628985
0.0036829
0.00489981
0.00381761
0.00421355
0.00689412
0.00645022
0.00351816
0.00673265
0.00590451
0.00433092
0.00382558
0.00163052
0.00384934
0.00241698
0.00405885
0.00574712
0.0039391
0.000958645
0.00349238
0.00338863
0.00200131
0.000592798
0.00422293
0.00376564
0.00330178
0.00100723
0.00166243
0.0013353
0.0046804
0.00665145
0.00480275
0.00343816
0.00560081
0.00342528
0.00320044
0.00375515
0.00708171
0.00467978
0.00525217
0.00455686
0.00320346
0.00445831
0.0037058
0.000676626
0.00355539
0.0040521
0.00426587
0.00297173
0.00113526
0.00255025
0.0040356
0.00463756
0.00315822
0.00124747
0.00132715
0.00383068
0.00327161
0.00038108
0.00151972
0.00205683
0.00406769
0.00149529
0.00312308
0.00402218
0.00292091
0.00117274
0.00476648
0.00410828
0.00232484
0.00647844
0.0023853
0.00272159
0.00314461
0.00333181
0.00194521
0.0041956
0.00584791
0.0071379
0.00190907
0.00328924
0.00435684
0.00338712
0.00505818
0.000851064
0.0029399
0.0033267
0.000450005
0.00184746
0.00544655
0.0034625
0.000919493
0.00170943
0.00233096
0.00708996
0.00290725
0.0010771
0.00541935
0.00731659
0.000680258
0.0018992
0.001407
0.00377569
0.00436443
0.00469239
0.00151978
0.000610354
0.000727347
0.00441769
0.00564615
0.00063347
0.00583457
0.00178717
0.00307551
0.00154333
0.00103882
0.00443777
0.00343731
0.00117783
0.00401864
0.00474545
0.00456024
0.0036032
0.00544327
0.000930237
0.00029814
0.00384341
0.00360422
0.000720689
0.000547459
0.000696032
0.00215569
0.001136
0.00203202
0.00057065
0.00352562
0.00353177
0.000833138
0.00240673
0.00246888
0.000941964
0.000885709
0.000416235
0.00633799
0.0058526
0.000603244
0.00634734
0.00426869
0.000865984
0.00537264
0.00307266
0.00405918
0.00318369
0.00505153
0.00630372
0.000480448
0.000452212
0.00199888
0.000769166
0.00242176
0.00371671
0.00435548
0.00448299
0.00335509
0.00471354
0.00534492
0.00405066
0.00474518
0.000751254
0.000693771
0.0039878
0.00178151
0.00384935
0.00422925
0.0026808
0.00354975
0.00367384
0.00461723
0.000627603
0.00115361
0.00438246
0.000708537
0.00281264
0.00144349
0.00292151
0.00347189
0.000961145
0.00281571
0.00111405
0.00435658
0.00291586
0.00291421
0.00639477
0.00119893
0.00712981
0.00550372
0.00246497
0.00429484
0.00147593
0.00337153
0.00220492
0.00340019
0.000901154
0.00393125
0.00341487
0.0036556
0.00707445
0.00318162
0.0035183
0.00180359
0.000472864
0.00284642
0.00069122
0.00357089
0.00445692
0.00466402
0.00455485
0.00509311
0.00492066
0.00332684
0.00127384
0.00173089
0.00128417
0.000641068
0.004198
0.00404575
0.000159906
0.000979596
0.00428231
0.00384733
0.00130847
0.00375634
0.000743882
0.000459519
0.00265674
0.000983931
0.00134547
0.00282905
0.000781542
0.00175952
0.00621561
0.00348489
0.00107792
0.00122369
0.00658155
0.00100015
0.00699857
0.00263111
0.00479555
0.00262105
0.00189776
0.000877569
0.00105284
0.00589244
0.00568928
0.00024984
0.00699651
0.00454691
0.00118904
0.00594933
0.00282235
0.00392816
0.0034166
0.000530821
0.00150598
0.000759192
0.00174222
0.00315235
0.00114754
0.00578077
0.00496178
0.0010605
0.00665571
0.00371102
0.00263598
0.00512293
0.00133077
0.000603213
0.00686071
0.00232328
0.00713546
0.000773396
0.00419874
0.00059915
0.00281249
0.00273157
0.00607987
0.00252685
0.00267363
0.00651369
0.0049055
0.00327968
0.00718888
0.00136683
0.00330601
0.00352108
0.00615209
0.00420375
0.00351145
0.00257909
0.00289473
0.00182699
0.00313423
0.00369668
0.00396592
0.0014827
0.000581969
0.000821456
0.000725857
0.00121557
0.000844225
0.0010734
0.00272884
0.000259358
0.000743577
0.00128606
0.00185448
0.00268466
0.00111262
0.0010068
0.0023886
0.00144473
0.00212338
0.0061155
0.00272319
0.00139608
0.00387935
0.00081554
0.00320045
0.000525704
0.00190345
0.00119313
0.00142379
0.00147709
0.000791787
0.00188453
0.00068811
0.00265083
0.00217646
0.00413689
0.0017235
0.00502205
0.00560084
0.000969285
0.00336389
0.000956885
0.00178536
0.00505319
0.0023517
0.00399119
0.0014118
0.00114877
0.00723444
0.00582746
0.0015899
0.000975287
0.00366885
0.00268552
0.00113573
0.00111459
0.0043416
0.00713285
0.0038787
0.00411034
0.000811226
0.00724846
0.000917819
0.000360978
0.00502494
0.00264059
0.00412711
0.00369515
0.000869728
0.00279192
0.00076252
0.00324404
0.00426658
0.000540241
0.000999439
0.00529432
0.002343
0.00526955
0.00652326
0.00125039
0.0028917
0.000769205
0.00363325
0.00619418
0.00249013
0.0069299
0.00467576
0.00522967
0.00494198
0.00274246
0.00233586
0.00145867
0.00322261
0.00111945
0.00500179
0.00677584
0.00216691
0.0012919
0.000853961
0.000879947
0.00180081
0.00196798
0.00105523
0.000960094
0.000821229
0.000861577
0.0031818
0.00301244
0.00400158
0.00138658
0.00507864
0.00277945
0.00314168
0.00139967
0.000530415
0.00348142
0.00276873
0.00347548
0.00453756
0.00338502
0.00412116
0.00610801
0.00463603
0.00260377
0.00294105
0.00268608
0.0054485
0.00292813
0.00149251
0.000765457
0.00417076
0.000586878
0.00744456
0.00313789
0.00689253
0.00442099
0.000930223
0.00271041
0.00117519
0.0036961
0.00347961
0.00338881
0.00443807
0.00478464
0.00368629
0.00324099
0.00614642
0.00742287
0.000810183
0.00301781
0.00126455
0.00285829
0.00104052
0.005712
0.00453298
0.00340995
0.00387037
0.00291611
0.000978437
0.00642615
0.00392453
0.00103611
0.00246725
0.00243078
0.00271544
0.00243947
0.00232823
0.00218175
0.00491586
0.00751014
0.0065548
0.00198081
0.0015269
0.0046532
0.000491431
0.00579025
0.0017956
0.00692818
0.00622962
0.00188835
0.00435249
0.00635625
0.000993973
0.00742106
0.00412711
0.00145219
0.00303053
0.00694258
0.00132507
0.00674747
0.00725787
0.00112449
0.00291081
0.0028773
0.000782919
0.00733908
0.00199567
0.00136192
0.00170389
0.00096734
0.0011659
0.0047159
0.00582464
0.00286463
0.00592202
0.00189136
0.00290622
0.00517377
0.00593784
0.00348113
0.00118388
0.00297933
0.00428562
0.00231531
0.00340988
0.00251502
0.0073883
0.00209994
0.0011781
0.00362763
0.00347101
0.00485949
0.00480062
0.00307968
0.00432379
0.00219533
0.00334657
0.000624706
0.00413205
0.00696047
0.00101532
0.00286876
0.000664376
0.000980502
0.00595276
0.00334467
0.0012591
0.00309254
0.000644586
0.0014477
0.000575439
0.00144889
0.000634574
0.00303414
0.00173312
0.0015559
0.000548979
0.00116744
0.00291359
0.000674752
0.00055494
0.00242194
0.00032021
0.00112731
0.00303996
0.00329555
0.00108648
0.000948137
0.0073722
0.00367559
0.000998429
0.000760496
0.00108326
0.00131826
0.00158025
0.00080812
0.002813
0.00364306
0.00433012
0.00696793
0.00310319
0.00644209
0.00104277
0.0029511
0.00433113
0.00068552
0.00384195
0.00230168
0.00427743
0.00618287
0.00315599
0.00439404
0.00178182
0.00656235
0.00177515
0.000602568
0.00477691
0.00673463
0.00330144
0.00502398
0.00102005
0.0033363
0.00546539
0.00635464
0.000580525
0.00622547
0.00357544
0.00685584
0.00169639
0.00311541
0.00435807
0.00573789
0.00504778
0.0014235
0.00356896
0.00255147
0.00748539
0.00704715
0.00682938
0.00442832
0.00452178
0.00356101
0.00579727
0.003331
0.0035945
0.00247116
0.00128914
0.00113502
0.00326805
0.00183168
0.00414319
0.00267365
0.00348042
0.00371498
0.00636807
0.0031551
0.00427871
0.00626417
0.00216196
0.00457751
0.00312017
0.00107765
0.00482864
0.00272679
0.00121231
0.00375706
0.00113352
0.00191278
0.0012029
0.000347134
0.00277278
0.0052205
0.00194436
0.000461954
0.00336634
0.00707697
0.00613512
0.00532061
0.00340099
0.00449276
0.00719198
0.00703802
0.0037296
0.00280171
0.00740499
0.00648454
0.0073699
0.0052712
0.0029646
0.00177624
0.00301502
0.0061175
0.00333964
0.000936578
0.00518975
0.00586772
0.00373877
0.000564727
0.000615748
0.00374873
0.00539691
0.00479158
0.00312445
0.00506679
0.000672432
0.00178524
0.00485114
0.00401695
0.00593076
0.00343954
0.00182854
0.00422832
0.0032243
0.00351623
0.00132523
0.00196137
0.00157331
0.000957196
0.000290662
0.00239114
0.00192141
0.00373983
0.00384779
0.00338426
0.00324031
0.00569437
0.00432575
0.000475757
0.0064922
0.00179211
0.00114127
0.00330319
0.00295822
0.000723658
0.00203742
0.00398463
0.00381866
0.00738001
0.00297653
0.00105449
0.00379798
0.00154573
0.0061151
0.002693
0.000759373
0.000863816
0.00330875
0.00314596
0.0010821
0.00458179
0.000691067
0.000616857
0.00122986
0.0074196
0.00685117
0.000319227
0.00593313
0.000509664
0.00199018
0.00310296
0.00109886
0.00100983
0.00610511
0.00730949
0.000960454
0.0061691
0.00584048
0.00480823
0.00652609
0.00425106
0.00372673
0.00219564
0.00551436
0.000361779
0.00313714
0.00404485
0.00374417
0.000314491
0.00415801
0.000568378
0.00476817
0.00320534
0.00364228
0.00111107
0.00559508
0.00453835
0.00481979
0.000969066
0.00190081
0.00190955
0.00135027
0.00270973
0.00616102
0.000802197
0.00326197
0.00323411
0.00325973
0.00416319
0.00311289
0.00383696
0.00716785
0.000375184
0.00130869
0.00437951
0.00478846
0.00267455
0.00397398
0.00272092
0.00288125
0.00469799
0.00227594
0.00444347
0.00478376
0.00414229
0.00153918
0.00443838
0.00450327
0.0046339
0.00348609
0.00673287
0.00537175
0.00493389
0.00276761
0.00419993
0.00270704
0.00255056
0.0035673
0.000636347
0.00483352
0.00281209
0.00138555
0.00114779
0.00151181
0.0036449
0.00507784
0.0018558
0.000647636
0.00395666
0.0010516
0.00399164
0.00720089
0.00271219
0.00174073
0.00381826
0.00439113
0.00739186
0.00491852
0.000347647
0.0048886
0.00649538
0.00244469
0.000462299
0.000585421
0.00360395
0.000292265
0.00111385
0.00113681
0.00223256
0.00107882
0.000552909
0.00499949
0.000921488
0.0039054
0.00512226
0.00561116
0.000539321
0.00208446
0.00686321
0.00569832
0.00101204
0.00424234
0.00053963
0.00514872
0.00291366
0.00457315
0.00292093
0.000642751
0.00735743
0.00314195
0.00281441
0.00557181
0.00368507
0.00575016
0.00286055
0.000480676
0.000469057
0.000713217
0.00147005
0.00127275
0.0057215
0.00621418
0.00499443
0.00365251
0.00704349
0.00148325
0.00724983
0.000946433
0.00418749
0.00660734
0.00577914
0.00474099
0.00670702
0.00328829
0.00297145
0.00718155
0.00310608
0.00090654
0.00538493
0.00105866
0.000928445
0.00645208
0.00029833
0.000559291
0.00277835
0.00291234
0.00372947
0.00125382
0.00448955
0.00201512
0.00125675
0.0054012
0.00164034
0.00720858
0.00204266
0.00408765
0.00229946
0.00198183
0.000849899
0.003328
0.00388334
0.00069271
0.00131032
0.00202421
0.00168294
0.00566124
0.00161643
0.00415096
0.00187351
0.00319765
0.00612345
0.00131536
0.00272973
0.00233652
0.00647597
0.000617925
0.000836917
0.00058472
0.00573739
0.00415205
0.000883554
0.000599156
0.0017844
0.00375301
0.00250084
0.00108183
0.000755876
0.00177787
0.00450035
0.00401698
0.00430975
0.00498677
0.00399288
0.000583729
0.00504895
0.00174803
0.00311966
0.00676657
0.00257532
0.00261327
0.00494385
0.00387442
0.00531854
0.00227742
0.00176093
0.00469379
0.00476703
0.0021271
0.00335406
0.00280199
0.00195008
0.00215213
0.0035766
0.00597195
0.00587742
0.005294
0.000780778
0.00363594
0.000985769
0.00258757
0.00376591
0.00504123
0.00331121
0.00702581
0.00246423
0.00747128
0.00205293
0.0023644
0.00358961
0.00431447
0.00238758
0.00342051
0.00262249
0.00407131