/*--------------------------------*- C++ -*----------------------------------*\
| =========                 |                                                 |
| \\      /  F ield         | OpenFOAM: The Open Source CFD Toolbox           |
|  \\    /   O peration     | Version:  2506                                  |
|   \\  /    A nd           | Website:  www.openfoam.com                      |
|    \\/     M anipulation  |                                                 |
\*---------------------------------------------------------------------------*/
FoamFile
{
    version     2.0;
    format      ascii;
    arch        "LSB;label=32;scalar=64";
    class       volScalarField;
    location    "0.0563527";
    object      omega;
}
// * * * * * * * * * * * * * * * * * * * * * * * * * * * * * * * * * * * * * //

dimensions      [0 0 -1 0 0 0 0];

internalField   nonuniform List<scalar> 
47425
(
58.5574
67.5115
72.1933
162.698
140.185
71.8345
94.4453
102.419
49.3941
606.383
138.518
44.6361
71.4398
79.9365
96.2015
89.2629
69.0757
48.1456
1296.64
188.453
85.3695
45.788
105.863
63.7345
46.7379
44.5172
78.4782
689.203
70.7197
55.8361
44.2928
45.5806
47.7449
67.9819
55.0072
67.4831
45.1547
67.5608
65.5703
74.9595
72.3194
100.349
176.943
144.995
1663.79
105.386
96.5297
77.6013
78.9899
47.7629
578.635
230.587
50.1187
754.674
113.757
123.755
44.6782
58.2377
81.832
61.6931
1024.79
1159.95
905.005
44.7651
49.3523
45.443
61.5172
86.3518
741.546
44.9088
78.5179
52.0818
48.7798
91.2016
672.787
49.4037
890.805
81.7272
1350.12
264.125
692.437
65.2313
43.6867
46.9416
47.8209
82.6044
53.8884
51.4139
119.234
409.698
44.998
77.0546
43.6934
114.696
147.45
195.218
48.6899
52.7557
88.297
78.8885
60.2975
91.9578
52.5047
97.5367
49.949
53.3557
48.169
93.7293
55.076
45.9853
366.876
62.6064
70.9739
155.567
45.9013
900.504
45.2175
229.528
78.8529
62.4873
79.5959
48.545
58.2047
63.0221
97.4144
57.8395
85.5195
49.1901
105.816
43.3442
45.3981
96.6701
127.092
120.848
91.8152
68.0556
48.1209
60.7454
69.3161
97.8649
70.9563
133.132
71.462
87.5919
52.5065
49.3288
111.145
62.7616
151.582
72.3707
87.0695
499.514
48.7563
701.304
46.7006
84.9098
59.5027
905.738
92.9137
72.6675
45.6568
44.0642
50.1758
47.015
408.079
831.521
45.6369
682.604
106.635
722.305
701.104
86.2846
73.862
45.8195
72.5593
66.0758
723.75
70.6774
52.7994
44.5823
1006.8
47.5989
60.514
46.3711
47.1337
48.5375
56.8411
77.4291
149.66
55.5301
47.9252
72.0481
82.5922
77.0223
47.1635
43.528
61.8693
73.034
44.6389
83.0746
66.0831
123.018
51.7624
44.1865
49.6672
159.178
53.6745
43.7533
87.0693
48.4406
63.4023
66.3695
47.2234
94.0948
63.488
63.7827
75.8004
248.222
47.2789
93.3126
284.733
120.208
120.222
96.7772
167.328
239.469
47.082
130.755
49.6021
60.0468
72.0416
72.9099
104.329
49.3225
165.555
93.5026
323.851
113.549
268.429
181.631
83.8045
59.652
43.1834
103.194
44.7646
49.4543
68.762
60.6092
43.7121
77.9672
43.1401
218.372
67.3752
49.2833
91.7875
43.4509
46.9509
120.538
95.2496
48.3492
125.188
47.2309
78.7143
135.535
71.1427
90.2007
44.7603
71.3452
62.9166
82.4215
80.1002
235.031
313.334
48.5231
220.549
179.76
221.247
113.245
297.429
182.76
1081.75
57.4101
1019.12
124.055
80.0996
86.2588
104.974
91.4583
90.9296
47.0019
622.429
44.9866
50.3438
57.0622
67.9034
99.003
112.178
46.6171
66.0352
56.5144
88.4321
44.1714
86.7279
60.5302
814.286
1043.43
675.282
43.3224
48.6528
43.9226
101.713
691.981
86.9596
117.287
252.388
74.3119
104.713
122.42
93.4219
420.679
222.245
45.6203
61.0462
47.2115
82.2483
44.2159
78.8248
62.407
52.3229
72.2445
83.7421
679.845
54.9238
75.3459
129.129
43.5551
692.354
51.1168
45.8999
52.8726
46.3761
46.7082
44.8028
53.1213
50.2791
51.0367
59.7316
47.5608
83.5051
84.3954
47.6318
45.4571
63.0995
48.3426
48.8331
47.6243
81.112
43.411
49.5587
93.407
55.2903
60.3912
78.8746
94.796
48.0897
49.1206
131.647
48.2167
67.5719
44.8547
130.709
962.019
78.198
44.3693
200.232
44.3145
93.8071
93.7111
72.5505
45.463
63.5031
44.9181
43.427
73.7793
86.6083
82.8565
84.2568
52.8023
48.7544
83.3554
48.5774
47.0604
81.1165
56.7883
65.9524
48.6914
62.3034
89.6326
65.6473
48.8792
489.139
45.8904
411.344
70.645
105.999
103.555
47.5217
146.398
46.7722
94.809
46.7867
557.09
363.921
43.3171
50.1729
80.7598
86.4333
82.3826
75.054
81.4377
89.6307
67.6553
45.1095
102.073
71.2202
49.0717
85.9605
78.5401
52.8383
144.45
1366.26
47.2643
282.236
1130.82
89.9461
1162.35
824.704
48.1239
80.7341
76.2116
79.3536
722.592
88.1088
49.7425
49.6708
75.2919
75.8045
81.0869
80.6199
473.987
795.033
152.133
65.5422
72.0045
131.095
57.5957
44.2938
67.9018
43.7864
83.9814
75.8101
132.705
69.3605
49.3502
80.0538
59.8747
78.479
44.1154
64.9298
67.6622
66.6485
63.537
109.075
121.418
62.2233
84.1901
43.875
515.808
130.243
74.455
46.3681
136.423
247.328
47.8726
43.5732
48.0051
47.3192
67.5123
49.818
106.702
84.4674
48.416
54.5415
143.868
99.3264
46.9613
51.1506
57.5357
54.8215
48.373
51.8449
44.423
69.697
58.7849
112.113
61.9112
47.1369
43.6998
44.1479
74.6987
128.158
45.1904
43.2582
55.9675
56.696
57.2482
59.7793
70.0527
72.5227
51.9458
76.9248
100.902
432.102
61.7894
69.3329
53.431
49.3451
129.689
128.722
76.9112
49.5854
80.8261
102.594
47.4226
138.694
48.4582
262.686
48.6065
51.395
58.5443
123.904
42.9368
72.8008
73.7605
50.289
43.9288
51.5949
1141.42
63.1517
147.944
46.2384
98.1836
46.5868
59.0065
83.3082
72.4106
70.587
45.8429
397.434
54.8138
59.2788
55.4521
48.8835
44.32
58.288
115.663
48.4463
55.2632
67.8199
44.4775
253.675
44.9077
61.7759
502.441
72.1672
43.6792
353.259
569.272
45.5687
665.23
692.055
71.234
46.6196
52.2773
44.6107
85.212
89.4035
646.072
45.0413
127.813
49.7731
111.467
57.067
85.3199
67.2845
523.822
329.86
52.0128
94.8287
99.071
85.1563
122.421
125.844
48.5056
98.115
132.906
96.894
67.4842
133.359
51.6533
48.0361
134.024
93.5749
78.4359
121.254
101.491
68.2198
73.414
59.0144
53.7229
67.7137
47.7285
46.9178
1328.07
62.2401
76.1451
1009.88
987.969
43.8018
76.9286
1648.97
170.326
92.4914
292.746
119.462
770.17
59.4882
48.678
60.049
168.997
113.73
112.841
46.4721
118.705
67.5169
83.8097
48.5908
80.6755
57.8567
446.032
698.057
122.81
49.4143
86.5245
43.6946
109.676
47.4252
58.214
63.4995
65.1127
45.1877
178.925
75.5234
47.6641
67.9696
187.869
796.892
224.418
87.6842
43.6104
74.7648
44.1758
771.863
70.877
631.602
84.35
107.639
66.5129
69.5164
59.1958
87.4019
54.1787
88.4872
56.8488
207.675
90.4061
49.2337
71.3867
89.6651
687.948
66.4517
203.044
68.7241
48.6642
44.095
143.065
80.0094
71.287
45.9769
63.9139
67.24
73.2272
80.9625
80.1653
64.8526
126.113
195.698
71.0994
98.1084
67.9473
114.015
92.1189
48.4215
144.321
61.8789
76.8905
79.0007
44.795
297.61
403.239
95.8901
66.042
47.1974
91.5557
55.1697
137.088
44.9587
251.913
81.7836
45.1907
77.7651
47.319
59.6156
70.2584
49.7433
89.7768
43.1516
45.6883
48.2756
165.693
42.6294
347.833
246.689
259.029
356.862
80.0637
235.571
58.4961
46.8926
145.838
328.231
391.33
104.381
61.5265
122.997
116.37
163.234
129.516
94.9064
53.8206
70.9129
100.265
113.395
56.6168
82.232
356.05
58.109
62.6963
153.542
120.648
116.429
168.472
748.679
473.627
227.053
250.772
80.6854
119.597
44.6498
47.1048
72.0448
426.387
178.354
71.8531
73.1121
44.1698
365.842
396
43.5922
170.1
90.5796
43.5431
166.562
43.5167
44.2862
72.9448
72.5804
84.6683
48.6221
43.685
61.2244
69.1682
67.8521
138.092
106.36
43.9787
246.515
48.2048
46.6739
47.1349
196.587
79.3141
253.243
120.332
54.8413
43.7917
68.5518
1336.6
72.7031
83.8248
71.6084
65.4088
61.1437
115.667
121.213
127.943
282.203
94.5947
794.358
49.4171
66.5459
56.0047
62.4192
45.3623
167.411
126.905
44.6806
297.994
95.6468
71.6041
248.941
77.704
54.4067
71.7131
67.309
69.5856
112.576
333.101
66.7527
73.7393
208.218
221.752
663.614
216.365
89.5249
174.727
45.2027
48.144
105.266
172.605
86.7376
83.1931
93.6784
103.571
47.8866
68.4363
105.063
99.5814
90.3049
346.92
510.824
94.4803
125.867
157.395
697.498
413.679
205.758
92.8552
67.1504
96.5896
93.5616
215.946
46.0408
48.357
96.4907
422.241
121.609
74.0294
98.0182
54.412
109.516
127.192
78.6061
496.681
54.0408
64.8186
131.331
97.257
65.4197
66.131
104.734
102.093
91.4337
58.5339
126.512
45.6401
45.2335
46.2742
80.5265
58.0137
151.934
53.494
218.945
289.966
267.081
99.554
83.7007
46.1032
70.3019
114.567
491.408
240.341
894.22
45.4868
58.5546
54.5417
325.207
88.7908
325.38
238.181
232.329
135.062
221.772
90.8068
86.6584
73.48
46.648
125.101
67.7561
74.3467
244.302
74.7537
67.9874
51.0386
264.568
400.915
151.157
199.449
662.706
192.476
92.1114
69.0437
89.838
106.99
185.491
189.166
557.027
46.591
58.35
72.8718
47.8263
63.4801
101.203
96.9963
54.1171
118.164
53.0773
77.1377
51.8741
47.2979
125.248
66.4632
118.239
45.2419
45.5046
163.578
47.588
99.5789
105.554
45.1911
63.094
109.405
79.8896
68.0447
80.184
563.747
185.086
124.942
108.032
1877.06
1014.5
647.882
448.825
103.068
49.738
1122.49
419.364
54.2775
63.676
107.224
86.2194
395.711
139.255
46.0635
114.015
58.2131
49.3654
205.224
954.403
139.845
1190.46
153.004
248.707
695.119
56.7791
77.4932
134.436
312.729
92.956
47.1886
46.8562
821.404
101.895
361.071
73.8859
162.633
49.0225
53.7007
556.007
573.978
83.0727
54.0517
75.2266
508.307
44.4801
51.2217
439.861
571.833
72.6449
44.7664
1052.07
781.964
573.504
100.019
262.229
515.049
546.09
80.2015
89.3693
107.105
64.6363
108.639
547.898
1377.52
64.1375
60.067
58.8218
52.3849
48.3548
82.0184
135.085
66.1178
49.5561
48.4998
88.8253
356.139
1158.31
51.6837
229.664
101.8
73.3069
180.601
57.3527
90.7412
76.6848
46.9446
199.814
53.4998
513.841
44.8454
792.992
500.938
575.218
203.934
99.6193
63.3693
103.37
57.2552
216.428
1449.15
104.451
390.404
183.68
467.669
159.302
777.7
620.904
92.3818
57.3411
1593.55
87.4137
49.1253
74.1282
588.758
1076.92
80.4222
52.506
474.709
77.9451
830.916
766.534
108.328
115.741
853.247
103.381
45.3677
584.288
52.3241
557.33
1007.55
44.0636
69.9296
84.9216
56.684
123.53
102.533
43.3266
122.08
89.9919
117.374
57.7297
43.7594
190.811
200.608
603.376
52.0927
96.1771
226.111
45.5799
838.278
86.1939
113.673
151.703
519.021
86.9914
408.006
182.192
145.756
57.015
571.863
223.623
295.353
85.629
162.447
62.5136
76.0316
70.897
340.671
249.19
108.888
727.69
150.101
108.659
286.742
125.908
144.455
757.651
350.837
54.2144
157.763
83.8676
148.416
303.685
930.244
58.3841
46.034
62.3946
498.006
63.5099
305.425
59.2692
62.3029
47.6695
148.915
55.6126
207.808
312.183
54.0907
61.202
92.5379
81.0235
987.933
402.251
117.212
748.874
353.8
121.981
242.743
64.244
57.4157
1069.04
57.2172
377.729
342.026
46.5085
59.2416
92.6993
96.2719
56.2644
71.1941
140.999
75.8528
78.6577
66.9114
81.8885
246.912
67.2207
193.83
156.06
203.051
56.3502
735.857
434.341
55.1723
562.112
240.835
57.3894
108.541
650.455
218.748
47.3037
182.099
428.722
195.633
478.931
57.8589
574.278
112.729
55.0649
68.804
109.14
183.477
123.793
65.947
250.422
50.4598
233.608
107.683
1268.03
144.619
80.8069
120.641
261.444
55.2912
270.005
108.968
109.93
633.147
79.5015
78.9573
1061.05
43.9138
103.89
373.804
62.3688
269.427
696.871
152.245
72.7407
83.6852
958.759
293.46
403.73
309.43
77.909
69.9223
101.056
680.241
739.715
298.787
88.7809
48.2512
87.0222
87.8854
130.426
335.595
92.8697
55.7598
62.6159
61.4406
45.4792
85.3823
44.6872
46.8572
120.855
83.6301
46.089
129.416
234.649
61.9961
47.7654
131.508
64.2013
48.1108
55.4334
101.439
95.2717
50.3728
96.9096
577.948
88.106
48.6602
54.9416
44.4607
244.498
67.8443
54.318
692.102
739.653
286.897
48.4926
673.26
149.848
51.786
1025.83
94.0841
1009.15
91.1958
66.6943
81.9455
66.7703
46.0979
82.7137
84.1577
92.8444
115.343
89.8638
104.495
160.631
80.9685
80.353
429.817
86.545
1343.46
70.664
691.51
46.4931
119.31
180.791
52.6981
68.7256
189.959
43.5442
547.218
330.812
1242.13
51.6482
637.635
58.9062
110.741
169.658
57.7862
580.378
88.4463
287.577
67.5611
739.165
700.561
79.9719
44.2195
448.365
69.7475
395.365
85.4923
96.1544
70.6581
72.9535
57.5065
46.1971
88.3869
273.246
73.7504
177.048
84.6047
87.186
43.4791
155.34
636.034
90.2912
386.316
111.864
67.7395
120.748
79.8337
74.3206
56.3237
152.37
131.701
48.5683
85.8392
83.1439
68.5429
93.969
408.639
424.623
82.0901
90.8787
310.464
87.9253
53.0599
64.9733
49.0093
168.434
166.867
203.934
104.488
70.1658
74.8911
65.9266
56.3319
57.7707
59.584
477.137
130.364
666.178
511.771
629.383
58.0997
69.0553
71.6142
72.4237
48.563
321.641
82.0497
47.3013
79.5617
111.443
76.211
338.277
74.4484
157.505
111.254
98.8895
50.7452
71.1919
89.9607
88.9638
68.547
113.932
98.5541
177.17
87.2078
68.9156
79.2151
151.384
171.033
65.5978
81.0301
135.352
97.6426
170.364
45.7439
56.4532
136.845
69.1396
54.2718
76.541
45.2141
46.8027
88.3404
75.4269
406.588
72.5983
89.1103
49.9836
70.6997
651.18
80.3931
85.3888
60.2474
61.8629
88.2075
86.2684
946.942
107.379
471.346
51.431
60.4568
71.6634
43.4986
49.2009
108.498
82.0535
48.4574
45.8138
312.843
107.303
509.252
120.894
255.356
104.795
78.8144
109.535
574.946
182.699
94.8888
79.4619
941.79
64.9892
80.8557
87.5337
83.4827
48.9673
954.413
67.7308
91.8261
46.7897
124.993
55.78
919.295
1017.93
67.9536
53.6005
44.5666
91.8662
94.2555
60.2238
1185.38
805.822
65.1887
138.743
450.774
64.751
143.432
121.072
44.3706
62.5994
46.9498
74.7654
217.14
86.5056
78.7045
45.5776
56.6491
75.6644
48.6132
310.481
63.4561
139.401
162.74
435.902
318.25
102.847
134.643
75.031
133.155
119.553
44.7374
602.555
326.765
131.228
93.0546
106.048
91.2855
88.7232
297.807
43.4197
45.8829
62.188
65.0076
134.568
76.0678
363.943
392.057
46.2409
131.227
44.6387
43.8067
80.2628
62.1289
64.5075
55.1186
43.4034
299.45
373.283
43.8884
49.1437
214.516
503.043
49.1029
43.314
88.8335
174.327
927.55
94.485
390.428
381.539
483.114
390.387
71.8604
49.5098
43.5159
58.4323
960.457
56.5231
85.6805
80.3685
43.3602
730.223
1231.73
1208.87
200.06
400.162
50.2904
45.64
53.502
84.7684
790.932
646.981
398.078
542.385
382.849
55.7983
49.0689
854.072
47.8113
916.699
95.2461
912.684
79.568
144.745
82.3303
186.332
169.166
169.721
123.258
63.0048
88.7613
73.4339
65.6258
72.0956
66.1557
1246.21
833.955
91.0468
344.502
728.151
327.334
68.5143
46.4311
663.77
518.081
503.029
44.9203
805.202
50.2205
977.751
636.733
737.761
284.098
54.2312
61.3923
47.0547
71.631
85.7616
165.274
67.8945
85.0191
63.5039
94.9844
78.947
45.2002
48.6689
118.889
46.4651
52.0599
78.9793
89.4786
93.6174
88.1295
154.475
91.1969
54.9162
113.785
100.036
90.9373
94.5219
139.042
1082.92
59.2356
337.663
69.3029
91.3759
455.15
66.7831
56.1882
46.9976
106.459
96.4018
54.8532
108.864
102.412
84.5933
47.007
67.929
59.8522
71.2917
106.211
73.3764
99.3377
284.088
91.2649
81.4391
76.7248
113.076
79.8898
346.239
45.0851
68.9622
107.244
307.566
287.846
88.3834
103.314
943.339
233.883
187.216
90.8829
72.6606
110.123
88.5522
53.428
132.804
78.8706
88.1625
416.25
51.5405
166.306
129.021
111.598
106.22
201.08
78.8271
57.6376
44.4925
53.5683
100.304
81.1215
477.543
63.1102
91.5684
127.924
103.594
898.855
56.7674
85.3162
105.397
276.281
386.201
147.722
44.9484
135.879
66.2665
46.6082
43.5088
550.053
100.679
59.0048
424.977
110.434
69.1284
153.19
796.179
1105.58
168.828
70.6896
888.183
68.4831
204.166
132.555
577.281
303.436
98.1441
95.4562
531.479
92.105
62.732
78.7413
100.419
54.301
63.5765
352.52
45.3692
102
568.156
152.417
568.431
86.314
437.703
50.2444
1144.24
105.895
106.079
616.11
233.004
294.792
560.788
427.121
272.67
53.4305
56.3601
429.451
55.8829
86.0353
318.912
67.3608
59.1239
78.8381
153.522
71.2414
50.4081
739.594
466.779
173.982
327.655
168.84
92.9428
82.2662
80.4707
116.517
68.3754
57.2443
85.8053
62.2334
310.882
321.034
131.206
54.5899
95.2032
79.2511
121.634
106.306
98.4702
78.6181
320.456
58.9766
65.3068
339.185
132.299
579.01
206.399
99.3063
746.554
138.419
112.674
405.628
134.735
128.827
50.3992
565.456
44.1871
57.0896
51.8521
86.5152
67.8593
102.028
211.474
105.228
124.205
82.0513
110.823
100.03
43.7351
370.365
151.898
591.076
1115.13
108.621
397.572
126.88
70.6373
566.668
69.4187
61.2875
97.1301
114.295
689.211
424.598
53.8951
313.461
367.622
84.1303
1915.01
407.886
125.403
373.596
62.177
88.6126
241.606
342.734
145.865
747.772
54.4777
52.3258
155.014
51.967
48.172
106.168
321.143
580.448
46.8072
139.827
44.2749
144.458
63.8722
143.907
313.097
91.5862
289.759
59.6436
63.3966
792.597
44.9744
54.0571
109.157
53.4453
125.568
272.079
46.8162
953.057
550.882
890.375
460.772
119.396
67.4672
53.684
62.1994
84.7266
47.545
86.9407
149.675
63.3199
72.0444
662.23
46.0634
163.634
45.3512
134.379
71.3343
731.408
128.798
104.394
45.6692
132.093
151.81
48.8103
61.0484
100.031
43.3935
203.099
97.6734
105.761
54.897
45.7461
102.968
47.3783
128.562
388.702
45.5399
76.0143
49.4744
64.1236
373.128
222.47
125.979
445.961
842.076
370.814
81.4059
525.722
401.585
698.713
72.9667
203.029
357.898
333.92
300.259
914.089
55.3803
45.6839
199.977
819.922
53.7597
424.183
114.404
446.361
79.4311
67.9009
615.262
572.168
342.339
57.613
295.551
131.409
420.147
45.3678
205.387
64.7922
56.8411
95.5218
96.923
296.714
110.641
64.0107
161.978
80.3881
262.949
371.524
44.774
71.5492
54.8808
917.846
88.5316
131.751
192.559
138.841
71.6012
44.6891
91.8191
76.8163
453.861
43.8529
104.778
319.516
65.5012
50.3722
78.2075
74.5871
692.906
139.164
210.992
96.8602
73.9857
1039.39
726.607
60.4392
145.201
60.5952
48.7503
410.67
84.2154
531.049
56.6791
51.3012
97.5425
56.5149
47.7147
61.4801
70.8277
137.023
236.264
308.929
397.487
70.5849
74.7385
47.2656
171.7
597.154
935.701
69.0789
488.388
181.663
665.987
78.002
365.934
110.915
165.36
130.146
83.2707
262.427
75.0967
186.915
113.213
59.7518
1036.85
107.58
519.652
107.396
76.1231
109.717
141.816
68.4604
68.7732
331.04
106.859
123.048
57.6355
123.595
555.081
128.205
79.6174
160.303
46.5383
63.2137
46.4382
75.2905
78.6563
148.689
71.3422
95.5928
94.9142
73.9911
77.6152
64.7152
75.0877
60.0491
348.729
50.1077
107.147
49.7335
68.4979
125.192
76.9813
54.3942
79.3977
100.365
88.4706
127.717
355.378
48.3239
166.811
458.908
158.588
156.246
51.8977
156.804
90.7799
300.688
65.3755
45.9613
53.6292
163.674
57.166
66.9733
873.624
207.498
363.795
45.3146
51.2974
184.481
81.1371
55.642
134.257
49.1073
81.157
54.7136
393.693
45.8666
156.449
46.795
46.2159
77.1383
67.4988
132.956
106.048
43.5435
296.195
65.7969
68.1172
90.135
804.15
65.9876
61.7988
127.892
61.552
57.4045
124.355
59.704
51.922
107.571
208.509
125.881
84.2714
407.465
109.47
246.045
48.5056
182.4
64.8514
95.1556
223.434
50.1565
106.388
65.7219
82.1118
157.25
70.2085
583.865
108.936
46.8559
519.892
131.392
1079.83
301.756
190.215
87.4277
94.3325
122.13
364.646
61.395
442.54
91.9238
358.263
65.8598
388.22
64.9477
251.725
220.113
124.676
354.21
546.721
403.472
1150.15
542.86
493.608
454.863
470.196
328.934
44.0277
96.187
322.574
69.6284
633.448
58.7645
492.404
625.18
120.376
100.662
76.7975
44.6775
114.827
48.2251
250.151
131.904
84.062
186.425
85.4652
155.257
72.7454
54.3604
112.464
49.8149
220.64
47.5842
69.2729
707.633
65.7595
43.9083
105.792
63.7752
738.328
288.605
72.308
66.8323
174.26
50.4206
85.0376
50.0424
52.2168
106.029
77.4078
56.6056
63.1641
302.868
89.124
55.7687
44.6769
44.4601
46.4597
197.298
72.8485
97.0478
54.5938
79.6923
98.7796
55.6552
239.819
72.351
48.272
60.0803
83.2084
139.383
111.581
99.3583
51.0572
119.791
85.1462
52.8892
52.2943
77.348
83.3756
101.589
69.416
124.578
66.382
88.4094
116.029
297.814
756.885
1120.15
123.795
61.2203
485.351
170.112
166.044
45.9902
51.2466
44.8295
90.9871
74.1865
44.2728
45.8629
46.6565
112.741
43.4618
49.1103
44.1606
60.4339
181.061
54.0353
115.432
52.8384
97.6553
244.51
60.5319
54.5071
62.0233
1073.28
896.369
99.8168
67.1202
68.5987
59.3173
92.9407
492.105
65.0405
68.3376
90.9385
44.0535
95.6843
52.0771
86.7072
112.767
92.1532
63.2498
205.278
262.885
64.9092
2082.48
242.463
201.107
61.4681
86.0495
101.053
115.464
54.4174
76.0689
303.848
46.1731
194.03
613.09
106.164
124.587
658.942
65.1629
80.7667
92.4854
43.7337
119.267
409.898
92.4106
90.5793
458.567
216.352
1109.45
621.391
100.184
49.3512
142.026
68.9955
185.417
148.588
566.297
49.8489
45.8645
646.086
52.814
194.673
77.6333
104.237
657.76
849.305
51.1826
44.1507
936.635
50.5542
54.5012
66.036
48.1184
81.6829
152.495
264.738
61.8779
576.792
105.862
52.0724
86.2862
714.071
80.8987
607.249
66.1403
61.6019
87.0747
84.9948
59.9404
112.178
65.3594
571.586
113.427
116.12
523.387
124.114
54.201
646.676
110.822
107.169
82.3808
157.337
109.209
78.6228
45.665
262.713
73.278
73.2564
65.0056
120.962
82.7968
59.0625
47.42
66.632
148.954
71.6008
66.9848
81.1824
450.362
73.541
70.8512
68.4741
94.7974
47.5632
63.9808
63.5762
132.704
104.428
141.93
149.257
90.3933
454.517
63.1958
57.2189
456.602
404.93
501.262
90.3081
332.036
53.3273
581.682
95.3059
334.847
96.1473
44.9211
115.957
201.256
93.6631
69.6956
44.3964
63.9124
426.572
64.1712
50.8356
54.4099
1538.76
342.91
45.827
1500.08
584.963
333.551
218.368
958.771
295.836
75.8633
330.007
89.4885
86.6625
406.448
1024.46
63.1797
45.7529
55.4247
495.928
46.6089
1025.05
117.839
129.695
129.32
126.1
337.686
43.5885
115.791
123.362
55.8545
105.579
53.5434
122.403
1996.01
1922.95
819.108
97.597
647.678
44.7877
49.5385
63.1481
101.293
44.7326
55.9562
44.3426
73.8209
90.5288
47.1857
54.683
76.9985
46.6035
101.453
121.724
44.8017
115.838
123.353
45.1604
54.8951
885.982
56.6397
836.077
605.465
127.363
133.491
84.2108
122.832
68.7086
53.7812
535.894
58.6587
59.0255
48.2355
52.1372
78.9857
141.852
122.603
177.402
112.831
48.4155
553.092
61.6097
315.902
347.427
63.6804
608.213
78.9274
55.3062
60.811
57.415
64.3561
48.4149
130.529
51.0518
366.061
218.588
376.272
57.1939
56.9406
83.4363
331.07
462.645
91.1003
147.233
64.8251
322.306
64.5056
158.312
473.312
85.3724
56.5075
91.6649
1007.26
63.9194
59.223
120.429
48.3027
137.379
127.797
123.218
84.8342
286.706
170.326
555.824
71.6237
272.898
402.117
328.067
54.0792
176.43
95.388
103.059
54.0433
63.907
63.4924
483.008
85.9017
99.8949
237.704
82.9149
63.2281
97.795
46.3569
144.369
48.2499
63.9077
165.995
103.579
79.8891
167.621
99.1024
91.4397
81.0622
126.985
45.8529
323.486
268.101
108.144
103.94
45.8473
336.873
60.4375
45.7526
85.8179
47.8829
108.258
89.6274
50.2152
55.0369
99.1678
284.994
238.937
49.6423
818.219
45.3932
97.5243
96.1237
48.1621
779.238
149.071
671.382
49.9532
68.5971
539.297
681.663
89.0112
102.903
187.022
127.983
50.5894
96.7719
63.6366
146.679
81.8671
134.701
49.8573
135.917
101.234
107.801
62.2896
88.6732
44.4264
61.0705
580.332
351.17
107.891
94.1411
102.423
86.8734
86.6448
160.902
44.5518
50.662
59.9315
87.1175
81.7593
66.7352
112.92
53.3567
58.1109
52.2781
72.9395
58.1301
69.8601
189.839
83.2101
68.422
1035.5
78.8556
65.3052
78.9362
44.859
83.4073
208.481
47.2181
76.9462
81.3114
628.879
64.3915
63.0807
94.9431
1496.96
95.5743
157.118
121.298
65.725
57.4808
76.9601
63.0669
843.831
94.4142
68.3207
64.6333
45.0682
279.907
46.7355
447.98
442.04
112.119
73.802
59.3161
115.012
89.3838
58.1248
437.382
118.986
302.195
43.9151
138.757
610.673
118.928
50.0362
100.543
54.8987
648.372
58.0902
53.9757
90.7785
44.1145
61.1046
87.8688
52.5362
352.045
44.6295
372.388
46.6105
74.0941
66.8119
148.228
87.7949
127.433
113.012
553.823
108.666
120.024
75.6197
45.4677
103.507
58.8268
53.6474
81.5624
77.1205
63.6119
124.87
47.0473
65.65
47.3226
288.984
87.259
622.247
541.868
321.965
158.985
67.6057
70.0992
61.3973
195.642
91.1855
45.4431
43.5058
112.391
145.609
47.0258
72.5148
1058.13
120.133
67.2056
75.5832
629.088
848.343
59.6141
547.907
551.588
200.261
359.372
165.13
534.841
72.0124
224.079
739.171
75.4558
43.4028
62.0228
106.979
314.392
44.3484
44.7594
70.3423
145.528
153.826
1008.95
109.301
1032.8
119.557
70.322
85.4286
77.5482
75.3046
564.57
193.631
319.214
460.497
67.163
424.05
1315.31
66.5102
156.318
114.04
411.758
151.257
126.932
706.283
1059.06
106.287
618.765
125.54
413.333
81.9512
45.235
153.465
775.59
676.333
63
103.607
149.58
98.2839
250.231
49.3358
71.5895
952.875
386.835
381.961
53.501
377.759
67.1291
379.985
57.0304
112.917
191.304
318.945
87.2664
119.782
294.652
103.897
939.373
72.364
59.8925
378.54
47.0334
146.747
45.6567
55.1204
44.4418
82.233
439.034
448.884
329.313
59.6474
63.098
299.244
57.2056
552.737
72.011
53.7914
81.5159
218.531
153.844
637.933
51.3607
73.2961
64.5753
278.134
100.749
576.121
907.379
432.845
104.58
62.0115
420.664
363.601
153.15
48.0029
62.0953
43.2844
704.669
267.981
467.227
1340.25
239.504
95.9152
80.3951
780.009
404.591
63.3466
87.6892
102.619
325.561
60.7925
47.8204
88.3257
81.5843
790.15
299.792
225.78
259.268
318.195
333.931
162.601
91.9188
845.095
479.191
715.937
202.475
328.46
646.861
151.294
58.1598
107.425
58.1495
59.0329
77.8107
76.4373
137.932
295.164
85.3009
178.946
182.123
147.033
111.903
190.811
111.381
102.31
128.714
744.124
1129.28
466.574
69.0607
119.444
82.7359
281.033
565.057
156.372
626.392
80.8269
502.333
428.483
177.36
47.8432
44.6756
70.6554
63.647
688.629
93.9612
58.5262
503.385
73.1255
849.516
447.925
106.785
451.888
63.3656
46.0551
47.122
43.6035
98.1137
63.022
92.0571
131.522
73.9793
46.3515
146.209
697.288
533.075
44.5855
106.54
49.9704
62.8574
56.5557
702.116
49.6192
55.0084
53.1312
104.452
46.6703
54.3435
98.469
56.5908
58.5371
53.7872
238.438
44.661
58.6468
131.032
410.506
305.875
63.5591
574.089
742.129
54.8219
53.2161
164.936
79.1598
298.516
75.6962
92.0537
82.4406
297.369
68.5334
92.5505
1043.88
478.665
89.8765
632.089
46.8032
46.3148
62.6226
46.1879
47.6234
71.3089
54.3685
80.6922
210.172
88.7862
370.804
242.759
226.352
81.9009
44.0321
598.009
131.941
84.2197
555.719
102.592
683.086
64.1867
426.204
44.9988
181.336
87.2746
227.338
47.7888
86.1148
78.2943
714.322
49.0446
43.7095
171.488
81.1287
133.458
60.8292
72.0653
91.5378
48.1699
139.562
49.1933
64.0808
148.004
92.9676
276.175
69.077
46.0291
61.633
45.5518
52.5993
281.461
43.6216
94.6404
44.0919
222.906
116.67
51.0309
112.948
112.166
57.4799
74.2707
76.1855
129.869
151.305
51.7134
48.3279
91.0671
68.7626
295.394
605.558
507.932
60.8881
46.4532
58.2159
65.3456
90.8095
914.387
237.735
63.9373
53.5112
78.1639
47.1967
48.649
77.4163
152.03
193.703
506.01
379.04
57.2732
76.7081
76.0208
43.7889
229.559
72.9473
113.012
113.756
50.5947
988.835
77.7045
58.2239
70.836
72.3528
160.374
623.171
45.3294
479.534
55.0864
744.245
121.294
526.213
70.844
45.023
60.5487
104.678
49.8707
48.5102
126.047
45.1237
44.6437
54.7
60.9097
233.713
54.3403
760.567
71.6107
60.5803
154.487
171.477
48.3942
427.882
964.675
748.585
540.227
441.142
55.3668
383.708
297.154
74.5359
57.5169
53.5658
672.235
90.8197
96.2403
48.8085
77.336
311.147
763.402
159.844
86.0773
45.3977
66.113
242.133
46.7216
56.2816
598.939
452.066
262.94
768.39
75.4459
47.0278
69.3158
82.4884
1143.39
50.4951
46.3286
43.9385
277.905
47.0651
50.8493
92.7273
101.112
45.1768
113.955
46.6276
146.177
86.667
142.253
51.8762
234.086
88.6115
112.397
167.185
111.22
254.873
49.7043
623.483
94.2123
325.097
325.295
387.656
85.6931
124.144
204.418
66.8224
45.2381
50.9741
54.2503
86.9709
570.817
116.677
46.5725
83.2204
64.6548
49.0266
120.659
62.3418
134.894
101.519
47.1661
99.2877
49.4072
79.0866
284.673
572.721
71.4445
100.088
80.3715
104.13
527.075
362.477
490.044
855.273
142.334
46.9186
48.5635
44.414
105.352
838.248
80.1038
776.651
123.892
45.5198
117.549
427.812
46.3974
46.6634
55.9509
75.6881
60.1448
313.549
76.601
91.9437
307.94
50.6231
97.32
65.7257
129.236
150.795
51.7523
676.932
82.2918
111.582
56.0158
124.867
46.323
128.438
123.23
93.6715
92.4727
80.4227
67.2436
69.4606
50.7612
227.504
62.0505
50.7841
115.928
201.154
231.435
146.912
98.7238
112.841
189.919
71.7258
302.264
117.878
135.657
102.079
99.2309
149.838
76.9813
124.583
457.173
100.284
53.865
48.9372
321.192
90.5525
102.752
50.4086
103.818
87.022
48.3178
94.7294
410.927
94.6825
72.7097
87.1429
667.475
75.5449
91.65
147.492
59.2936
156.849
48.4905
760.813
85.1612
79.6617
83.7523
55.6416
114.961
55.6164
523.884
43.8961
77.5259
655.423
59.629
111.065
200.65
100.822
49.0133
578.412
59.4364
45.5942
100.402
132.078
60.2732
325.479
45.367
353.737
99.6535
44.3436
71.7823
117.409
735.756
184.476
72.1281
45.1524
131.871
406.297
295.346
117.142
124.057
996.84
213.644
323.074
128.322
82.9632
102.968
59.7946
522.067
1048.86
152.997
164.431
100.199
1009.86
468.131
538.202
411.256
182.954
64.3986
51.6797
152.802
73.7497
557.861
315.217
78.295
845.742
107.779
99.2125
71.8451
50.7424
106.396
88.1065
91.3699
80.3136
147.812
184.327
887.28
57.3925
119.108
646.158
618.996
182.268
179.466
62.6975
637.656
47.5734
65.8881
347.658
148.443
44.7072
336.499
437.192
72.1823
124.402
48.4903
95.4009
56.2655
80.9248
175.219
82.436
618.042
44.1876
51.1881
87.9957
482.158
171.701
123.778
165.196
343.17
122.287
78.8237
427.493
108.908
70.1474
244.268
798.502
278.304
59.8577
373.601
160.407
92.3248
66.0154
129.066
47.3215
116.776
80.3614
74.5665
65.638
60.0846
87.302
44.4824
43.9235
49.4743
100.242
49.6947
160.568
393.626
738.729
96.6755
85.4779
59.5824
49.8919
103.465
657.568
52.3579
143.814
71.7046
224.067
67.254
126.059
222.267
418.488
47.9675
57.3909
271.569
53.1062
71.1998
126.353
91.0627
392.531
85.9651
269.232
456.225
232.388
649.529
195.398
382.379
92.7297
150.89
146.907
54.1134
474.173
130.683
86.1105
168.951
96.6872
88.5329
44.2966
53.1145
50.1222
45.3233
87.2551
337.416
43.725
952.003
112.137
342.243
115.005
366.482
1336.13
54.7825
253.631
872.672
138.851
344.718
77.4281
69.8804
785.128
1010.23
283.074
169.025
53.0898
430.141
103.546
614.967
53.3146
54.6501
238.388
1025.18
60.9188
82.7883
51.4263
232.627
531.144
48.1126
490.941
206.841
541.208
719.9
49.8782
347.27
74.5112
709.544
345.531
201.572
394.127
283.578
512.79
356.238
232.183
82.3993
77.6867
75.451
49.4661
53.9811
1381.61
73.4596
107.992
76.5902
82.8451
129.875
1115.73
143.464
249.152
300.849
149.855
296.449
126.922
44.8639
78.5515
1015.56
634.233
316.534
193.494
244.847
87.5677
477.929
62.0191
258.092
312.248
58.1137
540.491
97.2209
292.902
324.066
156.624
220.332
224.604
146.107
51.1921
139.822
61.8412
546.487
72.8853
197.654
82.6012
260.874
56.409
67.415
337.951
122.132
300.247
45.6194
1346.32
46.1696
59.7647
56.9217
55.698
93.8049
516.735
166.439
92.582
667.21
75.2529
49.1231
58.2628
878.287
72.653
97.9621
852.974
342.891
911.553
535.183
161.179
213.751
159.356
186.876
743.768
65.879
455.907
132.05
66.4126
180.916
65.212
145.875
74.2416
600.239
451.876
558.121
361.738
263.427
326.438