/*--------------------------------*- C++ -*----------------------------------*\
| =========                 |                                                 |
| \\      /  F ield         | OpenFOAM: The Open Source CFD Toolbox           |
|  \\    /   O peration     | Version:  2506                                  |
|   \\  /    A nd           | Website:  www.openfoam.com                      |
|    \\/     M anipulation  |                                                 |
\*---------------------------------------------------------------------------*/
FoamFile
{
    version     2.0;
    format      ascii;
    arch        "LSB;label=32;scalar=64";
    class       volScalarField;
    location    "0.0563527";
    object      p;
}
// * * * * * * * * * * * * * * * * * * * * * * * * * * * * * * * * * * * * * //

dimensions      [0 2 -2 0 0 0 0];

internalField   nonuniform List<scalar> 
47425
(
1.08117
1.24534
-0.00769962
-6.22515
-22.3827
0.0772018
-20.2329
0.0362517
12.6455
-38.4506
0.0144304
13.1433
-15.7164
-0.00273212
-2.34145
11.664
0.0323147
23.7555
-114.72
-37.8221
2.3575
15.3083
-0.0343915
0.997181
14.0576
0.988044
0.093981
-46.4533
0.0133685
0.210801
15.1644
11.9991
13.3193
0.378473
-0.0203348
0.0196802
16.0192
13.0648
6.22909
1.18377
1.40411
-0.542172
3.28865
12.9893
-40.4841
1.15091
0.150304
12.8847
1.12381
0.536443
44.0613
-0.118078
0.211773
-32.7309
0.924283
8.12717
1.14149
0.0643198
-11.3904
0.0798237
-34.3548
-34.3652
-65.9457
20.4029
12.4903
2.54333
13.3996
-2.37492
-48.2872
22.5717
3.06903
0.749339
0.691608
2.17942
-54.8567
12.3179
-65.2309
0.192688
-87.38
-22.4341
-57.2028
9.87464
20.4406
12.2092
1.84989
1.02574
0.566456
1.36384
-4.94648
-28.1806
14.4584
1.60626
0.495542
1.0203
1.04379
1.10729
0.411297
1.104
1.20805
11.137
12.0721
20.2098
8.85864
45.0245
8.81583
0.499986
1.3395
1.12273
1.70225
13.3968
-37.5412
12.9791
0.048
1.03414
-1.18304
33.8533
-0.788341
45.0357
7.52059
-3.60979
1.06552
13.3383
12.8352
-9.63842
10.8484
-1.08447
1.06004
12.3818
0.994719
0.565366
21.3795
0.489334
54.5332
7.6199
0.283071
-12.3135
1.91545
-1.07309
10.8708
-1.07454
13.3745
-5.77727
5.54955
-0.729375
10.8456
12.441
-20.6594
12.6565
5.54523
13.2797
-0.177538
35.9026
12.6874
-10.0023
20.8613
1.12541
0.358936
-127.189
1.0278
0.299477
-2.5646
0.995055
0.678204
10.491
-53.5939
-93.5701
12.7139
-54.9003
0.785152
-49.344
-55.669
0.538927
12.4265
17.9949
1.09423
12.8955
26.2392
0.0546421
0.0577043
0.351703
19.8647
1.19888
0.0674734
0.0949324
0.219347
12.0768
9.89356
49.2858
0.382611
1.20244
13.2394
0.459722
-12.6218
13.4529
0.379336
-2.08399
13.4265
0.901213
-2.82243
1.15324
0.314317
0.705787
1.84736
-1.72344
8.35764
1.52307
0.0216543
-1.29279
11.9774
12.329
1.11462
-2.27399
12.3952
0.984571
0.844755
-3.27649
1.44942
-24.938
20.9307
13.249
-24.7626
-4.26789
3.60352
1.20193
1.86158
-22.57
0.43346
-2.95942
-4.82761
-9.54148
1.84318
0.167508
0.824367
13.0704
0.122963
12.0838
-27.5545
0.635438
-24.9278
0.114289
0.119049
0.403586
0.543834
-7.12965
7.65576
12.328
1.09793
12.224
0.787304
0.0132499
1.04353
-20.469
0.0434703
13.4033
0.247893
0.199074
14.5866
0.304178
7.01373
12.258
0.262651
12.9247
9.41763
9.28783
-11.1884
0.996937
0.0749833
-11.1372
0.272481
9.48542
9.9637
-25.0053
-27.5142
9.94554
-22.5336
9.99053
-23.6362
32.4431
-25.8387
31.8866
-32.2685
1.23207
-37.597
0.679146
0.651164
-3.72453
0.614443
0.0276912
1.47993
-0.966192
54.8219
19.3428
12.5116
0.0509872
0.0962148
11.2286
-5.7877
10.1358
12.763
-9.99064
1.21879
0.894024
0.214693
0.166637
-53.8544
-67.393
34.6449
0.425338
0.888133
10.9879
10.418
46.9342
0.00737824
0.055188
-15.7218
1.14739
0.508224
0.349914
0.151348
-36.1821
-15.3361
11.6122
11.2599
0.0737024
0.928592
0.0794397
11.5254
1.10108
0.658705
0.196355
-6.3799
-60.3215
4.77041
0.103128
13.2697
0.0536857
-59.4491
12.9272
0.716876
0.799275
11.5811
11.3187
1.22255
13.2064
0.597451
0.0130093
0.135277
15.6591
-0.0485122
0.167859
11.8255
7.09894
12.0085
12.8256
12.3185
-2.98563
0.416426
20.0109
12.6343
12.6042
19.0702
-4.40776
1.01768
0.147728
8.18284
0.640789
0.14938
12.7077
12.9581
9.47776
0.191281
-40.9204
0.533175
10.5692
12.453
10.4147
-2.16065
12.0095
12.3221
15.63
12.2432
10.3639
0.917382
12.7982
1.06698
12.8401
0.0706114
9.80484
13.3063
0.093401
5.85583
7.18373
-0.0185903
6.64936
0.521882
6.44152
13.2628
0.0244438
-13.6901
0.324189
-29.6513
0.480061
-36.2441
0.19616
2.30284
0.264794
0.239458
0.0647763
0.123584
0.197802
7.24937
-63.5331
57.1436
0.947387
6.69038
4.23016
2.72161
0.886231
0.0438129
0.519946
0.163278
0.691154
1.33468
2.64498
0.0349435
0.0899342
-6.72298
-5.08874
-1.86852
16.4524
-60.873
0.608756
26.5023
-59.9973
1.55181
-63.1315
-32.8643
0.77282
-0.208424
0.766606
-3.18461
-65.7928
1.02427
0.833142
0.508003
-3.70035
-1.43259
1.01001
1.16566
-24.209
-62.9743
-27.123
13.165
18.9751
-2.27498
0.984201
0.542697
-12.6886
0.790362
13.1322
13.3982
13.4158
6.79325
13.3239
0.816768
10.4646
0.180178
-1.17919
0.580219
0.490398
13.1964
13.3127
12.2235
7.98421
11.2335
0.981677
-0.286675
-24.1001
12.2818
-13.348
13.3564
-1.35066
-3.43626
12.7523
0.848213
11.1603
12.6563
12.2925
9.15872
0.561956
-0.179704
11.3625
1.22592
7.16932
21.0036
0.856011
13.6192
12.2
15.18
1.16769
0.349553
0.960698
0.139919
3.04264
0.0423783
0.131698
0.920048
1.1777
-0.611612
0.117689
0.0514762
23.6855
0.0245151
1.48644
1.29839
0.985094
0.0147411
0.178274
11.3303
7.55084
12.4142
12.4132
44.4361
0.0656308
0.0239561
12.6689
12.877
-20.9464
-24.715
0.345107
1.27939
1.20712
-9.48844
12.0128
-27.3664
13.3111
-31.2419
26.9902
19.907
0.126482
-21.4798
0.239988
1.14068
0.386847
1.84606
0.140992
0.777001
-61.9762
0.270131
-0.0277696
0.331927
-19.5822
0.842632
0.114221
-19.7569
-15.8004
0.164591
0.22865
-28.7567
0.372272
-0.24883
0.134305
0.423035
0.294486
-11.3025
-10.9428
19.5716
1.52206
1.18157
0.0676347
-28.2202
18.5475
1.52654
-28.5575
0.0689535
0.237289
-29.1717
-40.1293
13.9976
-28.4686
-28.3824
0.234298
13.2493
0.111817
17.1089
12.2743
0.0947252
-46.0818
11.6802
0.0544583
0.699694
-17.3491
-10.6183
13.3073
6.61365
-55.0538
-27.8195
2.0468
0.601416
0.789003
2.61495
0.593754
0.534461
12.2881
8.24552
13.3174
-1.37295
12.4646
-27.5899
5.78028
4.11529
-29.3491
10.9334
0.571986
7.38929
10.3853
0.610562
12.7214
-1.82562
29.6541
12.4816
-0.600007
1.36121
-85.7591
9.11666
-10.8756
-41.5872
-42.8802
0.2405
1.37549
-44.3913
0.044633
4.42593
-22.4347
12.7764
-38.9915
0.200466
0.199011
12.5774
-36.0595
13.4064
13.4794
0.377615
0.169604
0.906932
-0.00386735
0.763216
1.00942
0.549162
-32.2946
-31.7333
2.15666
13.8039
0.252815
18.1833
11.7186
13.3822
13.394
13.4541
13.3762
19.6988
2.81099
13.3168
9.78041
-6.73349
0.107251
-66.6585
-28.6252
-0.0232431
18.7787
4.88078
0.181357
-68.867
-0.00686963
-56.0913
0.300533
-12.6271
-13.7537
0.71586
13.731
9.69163
26.3699
0.349962
0.622043
0.87032
-15.8961
13.2469
-16.528
0.943804
-67.8027
-12.0532
0.845007
-14.5221
13.3427
0.972329
6.01698
0.942822
-15.8453
13.2183
11.9919
-15.1919
0.29336
0.864644
0.143932
0.791639
28.7037
27.2351
16.3658
15.5587
0.128999
-0.00650124
2.47969
1.00149
-0.335345
0.145869
1.0713
0.0840983
1.07965
30.7922
-11.8999
0.056455
12.1162
0.997913
0.923627
1.20662
0.0192255
-2.93977
-23.7338
1.11531
0.198801
0.110212
0.972609
15.323
0.0525707
0.687655
0.753757
0.726911
1.08536
18.6726
35.6733
0.901894
-27.6789
-8.10712
-32.7924
-27.4936
0.868501
-0.773877
5.17136
0.0788991
42.645
-28.6924
54.9702
-9.8147
1.46919
-17.6794
0.405353
57.1822
2.08651
0.756666
1.20089
0.206549
-10.3594
1.4198
1.05642
0.936693
-30.3892
25.8027
12.6434
12.912
44.9996
41.2772
-16.2571
-52.9333
-22.9201
46.5215
43.4229
12.7996
0.589146
18.321
0.409169
6.71917
-28.5461
1.32637
5.88761
7.20634
0.282637
-29.5815
-29.6613
0.138488
6.00094
0.697262
0.43092
7.2087
0.306673
16.4645
0.0799578
0.640685
32.1746
0.218507
0.0199543
0.130682
0.433572
0.24389
52.1116
-19.9662
0.0500769
5.21977
0.630724
16.1569
16.571
-15.7224
0.456395
-28.4574
-16.8667
6.41612
2.61152
24.0917
-49.0344
0.0800709
0.105934
-8.39017
1.09754
12.9342
4.1036
-0.0243148
13.4896
-35.2267
-18.0725
-50.055
13.4619
26.6792
0.160923
-10.9388
17.8936
-16.2636
0.0441549
19.4262
-39.4501
-10.3136
-17.7642
-30.0135
-15.8087
0.787351
0.0640683
-12.4861
0.0951701
-17.5572
-27.0652
0.0275441
-20.7763
1.01464
1.01597
-39.4858
1.06627
1.05866
15.5043
16.1271
12.4453
-23.7915
-5.14663
1.05851
-12.5825
48.2694
0.022019
14.5557
1.26072
0.187961
1.06506
1.04832
-30.2363
-64.8822
-10.4022
0.892058
-17.74
-16.8065
-24.8441
4.33323
1.11937
12.9966
13.1884
1.18367
-13.2838
16.9737
24.1886
13.0464
-27.8153
-17.1326
2.86702
1.0586
0.458192
0.955061
33.4556
12.8216
-15.758
0.282729
3.63658
12.9282
12.9124
12.807
12.6138
13.1339
-21.5979
-4.26355
23.6757
26.2451
17.5049
7.39089
-1.67974
35.5966
0.701528
-8.47312
0.260815
-16.0696
-8.57803
-6.63805
-0.100669
13.1392
15.585
12.9452
1.04989
-41.0759
-30.4397
-44.1666
10.7543
-9.3162
6.13458
-25.3536
1.16094
-41.2722
1.08712
1.01983
-7.35317
10.3338
1.13444
10.13
0.366467
4.92399
-8.71949
0.873715
-2.51761
-26.6996
-7.48483
-0.775765
17.5222
50.2572
-58.5709
40.141
-26.9633
-59.868
0.263585
0.950196
23.481
0.490394
52.3338
0.513241
0.361823
-65.0447
15.0038
2.41209
0.319052
12.6864
22.4115
11.1822
0.853439
13.4205
-19.054
10.0058
13.6101
13.8467
13.3514
0.877655
-13.8459
-7.78806
29.31
14.5398
0.965769
10.7891
0.58306
0.60757
8.06727
-10.3897
-3.63607
-10.3261
-10.6347
10.7882
-42.0388
0.712218
0.630864
0.683436
-57.8699
-58.2543
-21.5673
-27.7521
0.687487
-1.13293
-38.9277
-29.3055
-5.67341
10.9799
0.804667
1.27837
-40.678
4.26616
-1.32457
0.868001
9.59206
1.14433
32.1324
-112.655
-16.0037
-30.2714
0.909122
55.3607
-61.9346
1.4368
11.2146
2.68626
-34.628
11.2514
-5.21747
17.8222
-26.6918
1.95997
-28.2365
2.56149
-11.0083
1.04061
7.39589
-27.0827
-26.6547
10.3925
18.6246
-11.3455
-48.7019
9.72281
1.24106
-28.1873
-38.2515
11.9569
8.96586
-59.6953
-60.2107
-41.9034
10.5952
-7.68426
-19.4358
-41.9169
10.0727
26.0899
-22.0653
-8.95522
-6.93048
-24.4097
-39.8185
-6.12817
8.30198
12.5594
12.7996
13.5245
10.4347
-3.76602
13.2857
13.2829
14.093
1.30566
-33.3988
-36.1715
11.0828
41.8891
-19.5682
11.6254
-18.2943
6.05745
10.4994
-9.34799
-3.11924
10.658
9.492
-51.6287
13.6876
-34.7491
-64.9597
-37.9237
10.1596
-11.7119
12.1897
1.46095
1.58823
-18.3674
-39.2805
0.720583
-31.0826
-22.9983
60.8435
-22.6371
-53.0343
-28.5794
0.0416714
1.28803
-43.1387
0.251477
15.0524
0.0990923
-47.5224
-40.1428
0.0368136
0.553016
-34.3006
-15.0823
-44.2326
45.8668
0.416393
-7.1674
-54.8549
-0.17503
22.7671
-29.6256
15.1204
-68.3499
-20.8222
11.1835
0.343087
0.409199
0.785019
0.402861
1.25045
-0.134753
0.414068
7.5914
34.7451
15.0105
25.1729
-22.6673
-13.0466
27.9154
-3.31224
4.16858
-11.3656
13.4243
-72.0166
0.840787
0.937149
0.921221
-38.3279
0.823067
-67.6955
0.955012
7.06965
7.32593
-64.0869
50.9891
-29.7659
-23.8944
34.7679
-4.49846
12.761
-9.19106
-25.7187
-26.9318
-28.7815
44.1983
12.6194
-18.2205
-34.2688
-6.60694
-5.99225
-38.6961
-30.2416
2.33287
-14.7512
12.4816
12.7716
-30.4731
-51.5705
-1.29589
10.0187
12.6495
-62.3885
12.8407
-14.6273
-13.2605
12.8156
13.0653
-21.346
3.08305
50.6991
-19.0456
4.03623
30.0647
26.6495
10.0675
-90.4648
-41.1994
-15.4314
-116.401
62.0819
13.1441
-26.6364
13.1472
23.7029
-71.6137
2.72272
-65.3233
-39.217
-3.19414
21.1149
-6.89272
12.9985
13.0341
15.638
-21.8542
3.80583
0.146357
26.4903
0.314686
-5.00927
13.636
-13.6901
-0.906755
-20.0963
16.1309
-61.9803
-41.4786
5.32529
-37.1289
-31.2314
0.143775
49.2228
-40.1229
-4.16705
29.8852
-10.259
-15.1856
-23.7195
-30.6842
7.63394
-44.8648
-21.6842
6.1535
-2.56218
0.516909
-24.052
-4.94769
25.1955
-16.3302
1.09872
25.4289
0.726438
-58.769
0.234876
0.227835
-7.99126
-23.2467
21.5908
-5.04221
-12.843
-8.49509
-67.4368
0.14138
-13.3932
-64.1233
0.948529
-9.32003
58.2863
-7.00064
-24.8728
-58.8219
0.183867
10.5174
-0.0203424
-128.206
-31.27
-34.7282
-31.1021
19.5259
-6.14751
-2.76095
-42.7739
-56.9924
-14.003
0.488704
12.8706
1.18717
0.526055
2.58599
54.1087
13.2797
12.5558
-8.32654
0.548372
15.7675
13.4254
22.3739
13.0401
0.472047
22.9454
13.8082
10.6624
-15.2619
1.4709
12.1466
10.141
-10.81
12.3443
0.507281
1.13857
10.8928
13.1066
13.1163
-64.6452
12.3612
17.8684
1.02737
0.276412
-27.3028
14.0639
13.4955
-60.7554
-55.9442
59.6675
14.9049
-63.1863
22.4585
1.51532
-56.8849
8.49407
-60.081
0.989101
1.04835
12.8778
19.4301
10.9454
1.0449
0.944057
1.36307
6.63057
9.21005
0.941377
-18.887
0.835451
-12.635
58.3573
12.3679
-46.2957
-13.3569
-73.174
1.0118
11.1633
0.157205
13.792
1.26892
12.4495
1.18537
-43.8716
-24.4717
-39.1212
-3.51707
-9.16525
1.2658
2.53141
-32.9268
1.4844
-53.8906
-1.13025
-48.3678
1.67131
-60.4623
-89.6076
0.56919
0.0891655
-46.0514
0.248326
-46.3208
12.1147
1.55011
0.937342
0.750635
-0.330643
-0.708415
-12.31
-29.8389
-7.31398
12.1526
1.27248
12.1965
0.826253
12.116
-45.8682
9.86792
-39.0145
1.77224
1.25255
9.64383
0.602909
9.82628
9.14236
0.183525
1.16392
12.9409
1.05532
-3.4843
1.02884
1.09966
-26.173
-41.7895
-3.48536
0.744352
-31.5948
0.926607
0.599665
0.471445
0.447454
0.0576908
1.03998
12.2721
11.991
0.96965
0.738021
41.7695
1.11911
0.977953
1.29167
-47.4514
0.77996
-55.6047
-39.8642
-49.6299
9.46239
0.290417
0.868654
0.13912
0.993121
-45.6724
-11.6621
0.852474
0.840599
0.862365
0.894944
-28.3592
0.88487
-0.0142834
-16.2399
0.678355
0.511497
0.317062
0.521584
0.305817
0.371187
0.571073
-11.762
-16.0427
-0.0055654
12.1657
-2.28457
-10.0715
-8.80153
0.643645
0.998231
-11.5304
1.21512
0.132778
1.34889
0.952633
-10.8333
0.0327213
1.27584
0.660982
0.621366
1.48247
-6.17797
0.0288064
-48.8854
0.660879
-16.6388
1.06002
0.00367337
-51.0059
0.0309674
0.470878
0.0578169
0.831744
0.855217
0.466142
50.6348
0.732126
-33.5555
0.868456
0.243042
1.48914
0.795739
0.559191
0.811326
0.476226
0.784162
0.263105
-12.1889
-11.0736
-39.3407
10.6518
-12.8777
0.774544
1.07732
0.700142
-28.2305
0.189518
0.224524
0.149035
-56.7849
0.111937
1.17326
-0.0184206
0.255886
1.5048
-144.935
0.090589
1.36563
12.287
0.00917923
-7.80445
27.9843
25.728
0.0392159
7.2537
0.133444
1.00231
0.554732
0.243237
-55.4344
-55.6763
0.0687432
0.962006
-47.0242
-0.0675987
-5.14591
-22.984
0.0758143
0.894531
5.02199
-0.0586445
-7.60253
0.0390891
1.08208
19.5929
1.49697
0.0370429
12.3055
-24.2851
12.3511
-28.7993
-25.9771
-29.5324
-24.2285
0.503223
12.2781
-18.2574
12.4227
0.271322
16.38
-37.1662
-25.9353
12.7405
-11.7556
12.7157
0.65158
1.24435
-28.9912
0.846389
0.476507
12.549
12.5637
40.7451
44.1774
62.6756
-15.9404
28.1659
12.7577
14.7609
22.8372
12.6195
0.640793
0.176689
0.470117
-0.0469053
-29.0072
-28.4579
0.675123
1.95905
-2.64418
-62.1108
-2.53503
0.996733
0.146446
-25.7886
-56.6779
0.747648
-45.7171
-4.30681
-31.2186
-42.1053
-14.8596
0.274804
0.693579
13.2442
-58.0378
0.23919
13.356
0.53944
0.167556
-55.7721
-54.7685
-59.0085
0.0491561
-43.3297
16.2829
9.66661
1.81129
-16.4293
-63.4329
-62.2619
-27.2666
60.4588
-27.6817
34.0591
12.2574
-42.3935
12.884
-60.7597
12.2669
-56.4871
12.1612
-26.9453
2.8483
-24.7593
12.8053
12.7351
2.37265
12.5874
12.4688
33.2141
2.53643
12.71
12.4813
-69.0283
-47.5552
-15.009
-24.9441
-49.5657
-24.5973
1.12033
14.8678
-41.1138
-30.1832
-37.3325
13.827
-58.579
5.97714
-56.2011
-63.5877
-40.6326
-16.3741
15.1347
3.54949
9.34481
12.5944
1.74441
-31.7612
-1.15721
-0.0193654
1.59825
0.153329
0.132874
1.17096
0.368816
-25.8958
0.307622
0.155678
0.496509
1.31898
-21.0829
1.10661
0.0415683
0.235488
1.62199
-12.0643
-9.7549
0.660043
13.3091
-31.1241
-62.9743
-2.84029
-50.8493
-12.5558
-4.27443
-21.805
37.1559
8.92796
8.40674
-7.80767
-0.0108202
0.14018
-2.55893
-0.0283095
-0.0703355
-1.24718
-0.00550376
1.7247
1.70145
11.8553
-6.27987
1.11797
42.8852
-0.063745
12.5668
0.110869
-0.00962558
43.5332
-49.8098
24.2304
-0.0481602
0.760306
-25.6089
-27.5836
-1.07095
1.16761
12.3306
-12.5764
0.27581
0.144094
-14.8152
12.5114
0.0758726
13.399
54.8028
0.918467
0.422178
-14.6935
-1.55656
0.801747
0.714907
0.369962
12.4317
12.4425
10.8219
12.5783
12.884
4.29586
3.26672
-4.83996
-56.27
5.12538
-7.23614
12.489
12.3801
62.4737
3.16416
0.620556
0.736981
-25.3213
-37.8237
5.13588
16.1766
0.569897
29.0034
-5.56448
14.9842
-34.9222
47.9224
29.7808
-15.861
3.56864
4.54618
-24.0285
-60.7392
-82.9568
1.66754
-11.3365
-62.4431
2.27836
-13.9633
-7.21742
-39.3499
-27.3492
2.03244
15.9057
-64.9221
10.5344
-7.37225
2.59329
10.7936
-1.87597
15.4474
-0.166547
14.3749
9.94097
-39.3883
4.29857
58.1721
-19.8428
55.9105
32.491
-72.9214
13.4625
13.5115
-58.4955
-13.0952
-1.21269
-31.9526
-24.4591
-2.37538
2.21209
1.93998
-32.4841
-2.99386
6.91889
57.8037
-8.3678
13.3613
-6.66448
-18.8178
7.73876
7.76954
-34.7111
-31.0133
-28.8617
-28.9665
0.572051
-17.4144
0.900372
-18.1582
-11.5999
1.61862
0.687652
-16.2894
-4.45377
-28.7123
-28.5776
-1.21312
7.01187
0.428082
-12.0757
-22.4521
9.2584
8.93982
-17.0653
-28.2516
9.24144
-7.88451
-28.3631
1.55141
-38.8889
-0.835325
-4.50938
-50.9428
1.62818
52.7261
-9.38934
0.727141
0.79921
-0.0887798
-63.6314
0.857438
0.879664
-4.53387
0.311572
11.0953
0.718374
-30.111
11.5019
36.6448
11.7926
11.6749
11.4445
0.908657
-14.8885
-5.7479
-9.00485
-61.1594
-1.68577
-43.5006
-10.7684
-0.0305451
-59.9003
0.041088
0.744445
0.330757
-8.23456
-56.3854
-25.0473
11.1707
38.3986
-11.3922
1.55315
-34.7586
-43.8486
-10.7906
-48.2202
33.9095
12.3107
-11.8177
42.347
12.372
-68.745
19.7451
10.8669
49.129
34.4376
12.1902
12.5241
60.915
-43.9109
1.1063
54.4012
7.22078
12.4914
-10.0113
12.375
-30.8502
8.40649
60.2614
12.5755
12.7275
37.4068
10.7084
18.447
-6.38145
-2.71969
15.4999
-35.3109
24.1695
-22.4998
-56.6272
-71.388
-24.4236
12.8135
36.8109
14.2884
4.75313
7.79335
12.0395
12.17
1.06625
1.06658
40.9472
-42.3801
12.7713
-28.2228
1.85025
7.61812
-18.1585
-69.3709
1.1317
-15.838
13.4409
5.76875
0.944218
10.5864
-8.44645
1.19958
1.18462
-28.2472
2.66927
0.868059
-7.48665
10.6509
0.758058
22.2497
0.82056
-17.8777
27.8485
2.26111
16.075
37.2146
-27.2062
57.2103
41.8307
-31.2341
-61.9328
-27.656
-27.0401
-27.1976
-27.3559
-26.9412
-23.4164
-33.795
-27.877
59.4537
-2.06626
-53.6372
11.0919
-0.593921
-37.7462
-56.7036
-5.21782
-28.3649
-16.5964
-27.1605
-14.9664
42.0047
-44.4307
-38.4768
-27.1436
24.2545
-26.8422
1.10084
-59.4295
23.2457
6.06876
1.08045
-1.38596
45.858
9.10138
-23.6876
-9.48622
13.1893
1.01206
-7.36497
-25.6921
-31.2879
-1.83127
-4.55102
18.6074
-27.5809
-7.3681
1.16167
-22.302
46.734
-2.16116
5.58624
1.16514
2.56789
-38.9005
10.4599
8.16182
-1.22967
1.24658
5.18859
-2.37771
-3.0097
62.9298
3.28772
-19.07
-6.48388
2.16863
-63.0476
-61.9274
9.16004
9.44551
8.59897
11.5001
-23.4824
-9.51596
57.2092
-8.64765
11.2746
-18.3663
-3.02808
-5.4469
9.0181
-12.1666
9.01956
-20.1009
-27.8712
-46.455
31.6203
-15.2299
17.8744
9.26809
-57.2613
-68.843
33.2177
-59.0526
9.72915
-61.9768
33.1645
-2.73458
18.9638
-17.0854
0.748397
0.366289
-7.76496
-13.4027
-40.036
0.526492
8.71201
-95.7277
13.3222
-34.6102
13.1848
-1.40833
10.6264
1.85879
-0.384851
0.247345
-5.93943
8.0203
1.74512
15.7677
0.195198
-54.1505
34.6356
11.6147
40.8548
12.5559
-0.543107
11.5292
13.3501
30.8351
0.191124
30.751
1.25587
0.180897
-20.9757
0.883879
0.296819
-16.3098
-9.37928
-34.0349
-3.61864
33.4771
6.58598
27.6924
0.831255
19.5778
15.2142
0.978747
0.878991
0.439936
0.992516
57.3495
0.383055
-9.95014
-28.2974
12.6222
12.9893
15.1716
12.8366
-23.1619
-32.7976
-0.641341
-3.66364
-3.6544
-14.2076
34.2396
0.223466
-59.7155
-8.82527
-34.4073
0.173116
9.0672
-23.3327
12.7215
12.878
-20.127
12.9874
1.00765
6.89955
-46.5026
17.8559
55.114
0.38591
0.0411574
34.3301
6.7548
1.07918
34.5207
8.11433
-13.7498
37.3719
-12.8074
39.2045
-52.2395
2.01427
13.3951
-0.270219
-7.84474
-0.331989
0.95214
-0.910445
0.24118
13.4017
-35.7816
4.92393
1.10745
-37.1065
0.739652
9.76704
12.8662
12.9962
24.6615
4.4334
1.31039
-6.2285
-0.0687095
-12.5834
12.6645
1.19532
-21.2736
59.6661
-20.1504
0.926948
58.2114
12.8997
-60.3749
53.9397
-2.01278
5.23625
35.2951
13.0291
-27.3419
38.8735
-27.4832
-6.24729
-27.2913
-14.8837
-40.4462
33.8586
-6.50501
60.4863
0.830487
-27.6582
-27.1106
-65.3772
-58.6532
-35.9871
-64.2096
-39.0929
-31.8369
57.0583
9.87304
10.7916
49.5989
23.7463
-46.3928
7.3311
-48.823
44.6559
1.03672
11.1607
0.0533875
1.0666
0.850522
0.779607
58.5149
0.853517
0.874374
11.2901
1.01329
0.9752
11.2054
-5.76565
0.932752
-7.25224
0.92141
7.39957
26.4768
-47.2233
0.24636
2.03503
-5.97765
0.285997
-41.7246
-29.6462
-22.61
0.606872
38.6725
14.0433
-2.00873
-5.12527
7.55035
4.40437
0.989171
12.0567
11.5265
-27.2616
0.977832
19.2001
-2.78558
3.0576
12.0496
-0.556953
8.31252
12.1726
11.9169
-13.2155
11.6456
9.11496
51.6721
25.2072
13.0868
22.5493
11.2481
-0.900903
11.7748
1.16176
-3.27556
1.0629
5.59031
-0.0329739
23.6564
11.2693
-16.6813
23.0393
0.190556
10.0549
27.9977
-13.7419
33.6181
-25.3395
-51.3557
-44.0632
0.289863
0.0318392
-23.628
35.0238
-8.57774
-1.88971
9.18556
1.63831
0.180961
0.0674249
9.81834
13.2376
29.4652
8.96174
1.63878
12.0688
11.7109
0.0714088
-36.0328
35.4799
-0.0489505
8.09903
-11.5663
41.7582
13.1077
10.5732
-9.66117
-47.3243
-59.41
12.3002
12.2349
-4.53723
-8.70433
-8.51378
-29.0649
32.1658
1.20359
0.899701
-1.0271
0.47855
18.9014
-17.5178
0.473582
0.406088
30.3525
0.440732
-7.03478
25.7589
-34.3558
-25.0306
0.610349
-10.5908
14.0745
0.00463876
0.743116
12.796
9.52904
-3.97016
20.9592
4.16903
-48.8854
0.829726
0.711876
-35.9942
-4.53057
13.8991
0.698651
8.08679
12.3588
60.2742
0.742042
-10.2322
-40.8539
-39.0285
-89.4484
-59.0641
0.751381
16.6289
46.6183
-0.0199199
8.25224
9.94476
-41.1722
13.5116
6.48743
-39.1573
13.2048
22.805
-16.7064
9.49995
-39.5773
-62.6816
14.956
19.0091
-47.1769
15.2434
11.1498
2.91088
14.5189
12.7661
1.59767
-34.3282
-6.17345
6.7424
14.3594
11.9935
13.1395
2.32503
0.031699
34.6602
0.0486226
-8.04038
0.581152
36.4543
12.8817
-12.0482
4.90927
57.5602
-23.3478
-28.393
-44.8341
3.44307
-5.14701
-52.1941
-18.3009
14.6235
-15.0407
-6.08318
0.0294121
-8.65981
12.1911
5.88357
3.56537
0.124796
0.29863
-18.8073
-4.37609
-11.3312
0.811097
0.445556
0.278361
0.162909
-5.47918
13.4355
-42.3228
13.7826
0.0661512
0.0801568
11.6226
11.5475
12.575
1.35935
0.123349
-8.50226
4.23276
0.19925
-0.185223
-26.0103
3.54892
-7.8927
-43.8938
-27.7574
-33.8472
14.5504
-33.7571
18.1844
-28.9388
1.09849
-27.7357
0.910643
2.78117
0.201904
-4.65351
1.03827
3.66156
-1.76325
12.1237
7.00604
13.574
-4.60567
-6.64995
-58.5236
-27.8539
23.624
34.9134
-37.2424
-28.1566
-30.8469
-60.0021
-27.4822
-8.01069
-27.826
1.45395
1.34975
-53.2083
-64.0244
-6.31475
0.0519047
12.0205
52.2775
-3.36409
-63.6343
1.03834
5.04171
-2.39148
0.0460301
-30.36
0.93168
1.08316
1.00501
2.37204
7.21295
0.648341
1.02155
-51.8388
-53.6374
-40.305
22.0941
-36.6329
12.7668
0.875674
14.6939
6.69901
4.37627
21.4403
12.2125
22.456
1.04168
3.9653
5.49404
0.774549
2.31105
-12.04
9.16884
13.7102
9.11198
42.5679
1.43589
23.2028
-55.8144
-4.33845
-46.6876
39.8212
10.7645
9.61925
6.54748
-17.527
-8.93587
11.7538
-36.7462
7.71073
7.81882
-4.07002
17.6131
9.84137
-4.90145
-15.0181
-17.7317
13.3784
-1.94579
-55.9733
-0.046874
-45.5279
-33.1085
13.258
-65.2315
-5.84123
34.1563
-1.92838
13.2225
14.1739
17.2507
-5.93408
12.5106
-27.5534
-15.0042
-27.2278
-4.50332
-8.15995
16.6217
-27.0075
-21.1792
1.90008
0.960456
15.6742
-27.4392
6.87819
-1.63776
-45.1783
0.673471
0.472063
11.9152
-61.4675
-5.10229
-2.18661
0.936871
-1.43074
11.5541
11.1866
0.245235
11.6084
-20.4542
11.6157
-66.4998
11.9091
-34.4835
-29.8369
-7.49199
11.1058
-7.85626
0.934488
11.2445
-2.51891
0.55188
-7.9183
51.8717
0.148877
34.2265
-7.9752
0.0895519
-3.18272
0.233273
12.7889
11.3971
12.5611
-8.96133
0.167264
12.13
-1.41847
0.0472488
0.701759
-23.7183
1.87757
0.293945
12.9211
-31.6064
-32.9439
0.121578
-3.68913
0.694062
-30.3455
0.450704
0.342005
0.850607
0.292194
0.971438
0.881369
0.0305353
0.687616
11.5446
-29.2775
-20.0079
12.9127
45.1602
16.1337
12.6607
-0.0427083
13.3535
37.4474
0.0585923
33.3856
0.772294
0.161341
-0.731033
25.1699
0.837488
0.0885547
54.5656
13.4253
27.7708
-9.09817
-13.2579
0.171706
-3.4751
-0.0324952
0.962927
2.36924
0.61819
49.781
0.987529
0.575103
0.605103
12.1487
-40.1816
-21.0737
-4.0724
2.70715
0.776002
0.487181
15.353
-29.3776
25.8092
16.8004
2.66329
0.494655
42.4019
-13.695
40.2355
32.1205
11.991
12.7641
0.351727
-5.9373
1.76809
-12.8575
-11.7685
12.7711
-59.4847
1.06516
1.19695
0.954023
11.0796
1.01155
47.7453
-3.99016
45.8663
1.06719
-62.997
-9.75992
-13.5516
0.86545
-43.7934
1.0205
28.1404
12.3822
31.9701
1.24884
-17.1137
4.16961
-45.8332
29.6139
12.2657
11.9534
-0.530862
-23.6645
11.8413
-67.9732
-26.714
12.3275
33.6404
12.1889
-21.9154
43.2981
6.50002
-5.01737
42.9618
36.5142
1.49154
3.04959
-62.0798
42.8074
9.81145
39.6121
-4.69279
-58.3011
29.1959
-1.89606
-0.0559568
0.293754
-0.0456825
0.882745
14.0873
-41.7596
-0.0590453
-34.2252
16.5114
38.3242
-11.2965
36.3022
-0.0674647
-0.0481362
-13.2927
56.7623
-17.9593
47.5437
16.4393
4.36123
24.4749
4.58554
16.9781
0.0420608
-0.0321113
0.0159014
-0.0183788
8.99897
-14.3647
13.4904
-31.958
2.04272
-39.0918
10.0235
-21.1223
44.4981
-2.53951
-1.8555
0.173968
38.1877
0.0568812
22.8491
-1.6202
8.68627
-8.16443
0.44792
31.665
35.882
-13.2445
0.112554
0.481454
-47.4434
-61.2373
-8.07174
51.565
27.3005
54.6484
57.9702
43.9579
-42.5152
-1.362
43.6948
-43.9186
-0.00820782
5.46646
0.0609736
-27.2277
-18.078
-1.38401
1.74243
-8.39581
-0.010564
11.6784
-36.8284
41.4786
-43.8627
11.5997
-1.63218
10.1284
1.56543
-5.50406
-68.0827
2.09601
-34.5828
-14.3848
11.976
-66.56
-56.2981
12.0088
-10.8128
-12.6813
21.3043
12.055
-13.3056
26.0862
-61.0776
-30.8084
-42.3746
39.4321
-40.2039
5.08587
25.6463
4.48466
-55.6334
-47.0634
0.346412
-0.0296074
49.2763
-2.52888
-36.816
-1.73372
-16.166
-62.5134
-22.7709
-28.4992
1.87792
-28.8877
0.314122
-28.6036
14.2411
-21.4431
49.5088
-27.187
20.6871
-30.9964
-26.9055
-20.4409
-44.8342
33.545
31.295
-37.5594
11.0874
24.1737
17.1121
6.26577
13.697
-2.8813
-31.9893
-77.6401
-34.5174
15.9533
19.8976
-39.9398
23.571
-29.516
-15.1114
6.271
5.80166
-35.2362
12.9962
-29.8175
14.3293
30.6013
32.7297
60.5553
29.7832
-28.6087
-57.0453
43.4399
12.9774
37.128
-48.5439
-28.1954
51.0756
30.7388
-3.82478
22.3231
22.6642
-44.0886
-31.3106
-58.093
15.8118
11.1324
36.1223
-55.7524
44.3524
28.898
13.2764
37.3485
-32.8879
2.10945
2.72661
13.2216
-12.1093
-58.4042
-27.523
45.6408
-2.84388
-25.3805
-51.5753
42.2915
46.8372
38.8586
-40.7926
-95.1925
45.3213
-29.5271
-57.1772
46.6616
-1.36615
-9.43259
12.8236
0.978387
1.014
-7.63198
44.2324
-26.7221
1.22079
1.29505
1.005
1.5349
0.223431
5.05464
-33.4348
-4.43809
0.852954
-54.907
-74.005
-27.3614
-19.0794
-0.540711
-17.4447
-30.8379
-42.1653
0.9006
-36.428
-1.68575
-35.1046
-27.6209
43.5005
19.3326
26.7398
-0.000312543
4.82443
-69.9398
-25.1317
-9.09582
-51.7123
0.0115878
-59.3834
-42.0263
-25.3901
-41.9316
-4.4375
16.3872
12.1929
15.5397
11.4653
43.2273
0.086413
-0.0302057
0.126397
15.0965
-12.0799
-56.3257
-53.439
16.5396
37.5274
24.6504
29.5618
0.267965
-57.0879
-5.17004
12.8708
4.41085
-0.454089
19.3519
7.8351
-13.9995
15.1273
-10.4822
-9.04407
-6.4546
17.7622
36.5071
-31.1652
52.9709
-29.2203
19.5174
-68.7454
-51.812
-9.71671
15.48
33.9414
-8.66408
-40.9637
7.47687
14.8653
-18.6584
-28.3059
16.1362
47.1093
59.4112
-54.8462
-0.818534
-58.6116
14.9565
1.44436
-9.75564
11.2654
7.62289
-16.2569
3.84497
8.46282
-41.5356
-8.48355
-27.0632
-15.9739
-29.3438
0.111392
12.5488
-68.4409
-17.0215
0.0151554
60.5808
13.0929
45.9529
11.8423
-19.8683
17.3651
0.918265
33.8409
55.3507
15.8521
33.8982
-0.0712128
-47.1213
13.0301
12.8719
-2.76772
6.27071
-36.3419
-4.27502
-7.92176
13.1811
4.14325
-22.4264
5.45115
10.0537
-6.67403
-12.7968
-27.1554
-0.0482242
14.2971
-0.0106378
14.806
-0.0210335
-19.9137
12.8803
-23.1202
12.2571
-31.7532
-0.0428084
34.088
-9.14445
35.3711
0.0087708
8.80729
-0.0187142
-0.0163684
-4.66852
7.51991
17.4098
33.7925
30.8265
-32.0341
-53.7998
41.669
24.2262
21.7687
5.30459
-0.00280698
0.188293
-74.0818
43.2268
18.6396
14.5365
0.0693161
18.8772
0.15839
0.0848138
-21.5522
-23.6359
-37.8102
-35.754
7.17798
2.08691
-5.89245
12.8044
43.0422
11.2629
-14.5409
11.2278
-6.49298
-77.2146
-15.9186
0.302284
3.9615
-9.03998
-6.21361
-37.12
13.1381
-36.0658
23.2818
-74.6601
-31.7174
-27.9173
0.279913
22.0789
2.4856
13.1213
35.0668
13.1774
-10.7486
11.1882
11.986
8.76636
13.0759
-39.9652
18.8427
3.83381
42.9476
12.4637
-22.8264
13.2687
13.182
-28.9419
-76.434
-29.975
-28.387
-28.7751
9.75755
58.5427
-27.1675
-4.17586
11.5777
19.3528
-28.8785
0.573932
0.556066
11.1288
-23.4865
-28.8128
-47.3804
30.9565
-2.09086
1.10733
2.92565
-29.3518
28.0302
10.0275
-56.2548
-26.8393
-27.5197
59.8
14.3172
10.8138
1.91779
14.4062
-57.8569
16.8999
11.3831
19.1616
-1.14945
17.56
22.6146
44.2191
35.8022
10.8073
-16.8892
22.2361
-9.84389
0.64272
0.582797
31.1493
-31.4081
-14.106
0.556737
55.2649
0.581673
-29.5291
30.746
20.2546
38.7207
-27.4889
-21.9373
-28.3291
31.1952
-11.9273
-31.5712
-7.56561
11.5826
1.75859
14.2813
0.700426
14.4799
0.497025
11.6201
0.622225
-12.404
0.313479
34.3621
2.31851
4.4714
-26.6719
8.72635
1.16037
10.0143
-6.53064
-36.8473
-49.2094
-21.1369
4.76794
36.481
1.21109
58.0587
-40.2034
58.4982
51.8543
1.10381
4.28599
5.99901
0.965813
1.11604
-90.2461
10.1656
-29.8596
-11.805
4.88722
0.945566
-26.817
6.55753
6.50397
9.55788
6.89743
0.994718
-36.4752
-4.16674
1.07471
-13.6548
1.4874
0.7758
1.31166
1.04884
-7.72851
7.15889
-56.7059
0.816404
1.08332
-11.449
-7.84538
23.2005
-18.5839
12.4186
12.3044
-0.0554408
0.257048
-10.04
-17.2514
8.93431
0.182631
-2.64056
9.99648
0.120077
56.7255
0.111182
2.24872
0.168079
-0.000393715
-29.47
0.0101419
-27.5366
-6.94788
52.2095
4.55358
-0.646206
-3.26466
0.099914
-5.57205
-41.9537
1.77656
0.117866
7.26016
-27.6171
0.0977733
7.96669
28.019
42.1738
-11.2056
9.50433
9.11606
-44.6286
-24.6377
0.0396536
47.6582
-60.2276
-22.282
-8.18245
49.0522
-9.8318
-10.6555
31.8584
-66.7905
-3.08138
0.118748
0.0448161
0.0027109
0.00127462
0.00574498
-30.9371
17.4754
-0.00537364
-55.194
-0.384156
0.0986331
-10.0402
3.05537
15.2228
-48.1527
5.86158
15.8141
-26.9303
1.5607
15.5521
58.7269
15.0237
-45.4421
40.7361
17.512
32.7582
0.345155
43.0561
0.549326
5.28756
23.9248
0.203632
-45.0485
-23.8512
0.683368