/*--------------------------------*- C++ -*----------------------------------*\
| =========                 |                                                 |
| \\      /  F ield         | OpenFOAM: The Open Source CFD Toolbox           |
|  \\    /   O peration     | Version:  2506                                  |
|   \\  /    A nd           | Website:  www.openfoam.com                      |
|    \\/     M anipulation  |                                                 |
\*---------------------------------------------------------------------------*/
FoamFile
{
    version     2.0;
    format      ascii;
    arch        "LSB;label=32;scalar=64";
    class       surfaceScalarField;
    location    "0.0563527";
    object      phi;
}
// * * * * * * * * * * * * * * * * * * * * * * * * * * * * * * * * * * * * * //

dimensions      [0 3 -1 0 0 0 0];

oriented        oriented;

internalField   nonuniform List<scalar> 
92401
(
0.147688
-0.0964501
-0.0070625
-0.0441758
-0.0626657
0.0601553
0.0380889
-0.0355785
0.0223382
-0.0398494
0.0430937
-0.0255825
0.00654491
-0.0129786
0.0128091
-0.00637545
0.00135695
-0.000504204
-0.00587599
0.00502325
0.0194945
0.0097585
-0.0254049
-0.00384817
0.0057531
-0.00474427
0.00034812
0.0323876
-0.0256421
0.012749
0.0480831
-0.0386427
0.0324542
-0.0418946
0.000370157
-0.00087255
-2.24955e-07
0.000502619
0.00469727
-0.0417307
0.038495
0.0241455
0.0244139
-0.0870544
-0.0171872
0.0109487
-0.000168204
0.00640667
-0.0345117
-0.0402341
-0.0170945
-0.0182828
0.0590912
-0.0237139
0.0021827
-0.0665363
0.0643536
-0.00241494
-0.00772856
0.0020268
0.00345931
0.00224245
-0.000957794
0.00152158
0.000242563
-0.000806348
-0.00487118
0.0106821
3.0778e-05
-0.00584173
0.0163584
-0.00578089
-0.00492964
-0.00564791
-0.0408456
0.00836924
0.0370332
-0.00455688
-0.0393305
0.0109036
-0.0548062
-0.054313
-0.00272419
0.0551809
0.00185627
0.0907618
-0.0894767
0.022068
-0.0233531
0.0500872
0.0601469
-0.0712953
-0.0389388
-0.0325633
0.0511831
-0.0579503
-0.00270414
-0.00103425
0.00398597
-0.000247587
0.0315486
-0.06362
-0.000491921
0.0611835
-0.0604735
-0.0323444
0.0316344
0.0126101
-0.0173624
0.0012767
0.00347559
-0.0358407
0.106391
0.0616616
-0.132212
-0.08469
0.107519
0.00898062
-0.0318094
-0.131171
0.0322856
0.0296241
0.069261
0.0148348
-0.0618953
0.0371823
0.0098782
0.0600228
0.00928627
-0.0544742
-0.0443383
0.0102509
0.00241659
0.0316708
-0.0504105
-0.0411829
0.065484
0.0261094
-0.0332493
0.0405007
-0.013948
0.00669663
-0.019944
-0.101944
0.0650934
0.056795
-0.0861442
0.0862431
-9.89059e-05
0.0349607
-0.00748796
-0.0771059
0.0496331
0.0046158
0.0239819
-0.0222336
-0.00636409
0.0268862
-0.050399
0.0235128
0.000148085
-4.63491e-05
-7.52541e-05
-2.64815e-05
0.000706181
-0.0585056
0.0577994
-0.0685778
0.0428751
0.0624344
-0.0367317
0.0901286
-0.0254317
-0.0127931
-0.0519038
-0.000172022
0.070383
0.000282265
-0.0704932
-0.0476752
0.0730938
0.0398096
-0.0652282
0.000543702
0.00109623
-0.000374676
-0.00126525
-0.00226151
-0.00347142
0.000298127
0.0054348
-0.0382026
0.0839169
-0.0462002
0.000486011
0.000325674
-0.00080283
-0.00062888
0.00110604
-0.0546435
0.0543411
0.000302463
0.0754369
-0.00791533
-0.0184407
-0.0490809
-0.0982593
0.0910002
0.00492181
0.00233732
-0.0551416
0.027533
0.0110837
0.0165248
-0.00292941
-0.015277
0.00759874
0.0106077
-0.0125151
0.0258716
0.0374415
-0.050798
0.000935568
-0.000338809
-0.000271085
9.84828e-05
-3.36992e-05
0.000732718
-0.000797502
0.000781597
0.000213539
-0.000624624
-0.000370512
0.00418256
-0.00924105
0.00511813
-5.96463e-05
0.0679099
0.00505881
-0.017199
-0.0557697
-0.015089
-0.00470734
0.0105393
0.00925705
-0.0409996
-0.0529066
-0.0547598
0.148666
0.00336922
-0.0340021
-0.00392666
0.0345595
-0.000387706
0.000561908
0.000577871
-0.000752073
0.00452297
0.00445444
-0.0282167
0.0192393
0.0187855
-0.0066311
-0.00955671
-0.00259769
0.0417072
-0.0764232
-0.0273693
0.0620853
-0.0289483
-0.00321225
0.0103346
0.021826
0.0122773
0.0081138
0.0130371
-0.0334283
-0.00056694
-0.000359094
-1.37332e-05
0.000939767
0.025231
-0.00973216
0.0365637
-0.000889038
0.000553974
-0.00100534
0.0013404
0.0442917
-0.0330614
-0.0682997
0.0570694
0.000554689
-0.000311132
-0.000243556
-0.00110591
-1.69118e-05
0.000566468
0.000556357
0.00076058
-0.000228992
0.000516785
-0.00104837
0.0226464
-0.0227119
-0.0625319
0.0625974
0.0011569
-0.0127075
0.00278155
0.00876908
0.0430152
0.0585472
0.0185314
-0.120094
-0.115183
0.0268006
0.127248
-0.0388663
-0.00545828
-0.0442814
0.00375352
0.0459862
0.054164
-0.0294552
0.0257638
-0.0504726
0.0251937
-0.00338207
-0.152182
0.13037
0.00762646
0.0172545
-0.0281448
0.00326383
0.000694151
-0.000223619
-0.000726088
0.000255556
0.0379806
0.012653
-0.00141621
-0.0492173
-0.0025112
0.0840734
-0.0854694
0.00390721
-0.0180898
0.0497648
-0.11611
0.0844353
0.0422313
0.00531214
-0.0530017
0.0423218
-9.05377e-05
-0.00233534
-0.0291128
0.0415166
-0.0100684
0.0708821
0.0171183
-0.0314628
-0.0565376
0.129812
-0.143128
-0.0287311
0.0420479
-0.0151655
-0.0453332
0.0581634
-0.0823635
-0.000606767
0.0829702
0.00110886
-0.09789
0.163259
-0.0664779
-0.00252014
0.00339731
-0.00060906
-0.000268104
0.0892696
-0.148481
0.0307303
0.0284815
0.00153315
-0.000386875
0.000877763
-0.00202404
-0.0869637
0.142896
-0.103966
0.0480331
0.0305417
0.00303751
-0.0407538
0.00717457
0.0865402
-0.0155622
-0.0813243
0.0103463
0.00572251
0.0314174
-0.0523054
0.0284752
0.0266942
-0.126017
0.0708474
0.0868529
0.113023
-0.0799503
-0.119926
0.00118373
0.000158363
-0.0020343
0.000692205
-0.0937827
-0.0291373
0.111357
0.0115629
0.00112272
-0.00605606
0.0159746
-0.0110413
-0.0139551
-0.0337252
0.0577717
-0.0100914
-0.00553289
0.0170852
-0.0144181
0.00286582
0.000384989
-0.000686212
-0.000585111
0.000886334
0.0217689
-0.0260497
-0.00125211
-0.00187237
-0.000703482
0.00153227
0.00104358
-0.0576051
0.0603576
-0.00275247
-0.00256258
-0.00627084
-0.00205426
0.0108877
-0.0365041
0.0280862
-0.00553718
0.018333
-0.0472304
-0.0557926
-0.051328
0.0415943
0.0983355
-0.0886018
-0.00760769
-0.00174666
0.00504612
0.00430823
0.0469308
0.0110183
0.00237001
-0.0603191
0.000422308
-0.00941213
0.00688229
0.00210754
-0.0397652
-0.0537101
0.0116408
0.0818345
0.0647074
-0.0388765
0.0266306
-0.0524615
-0.00972839
0.0599584
-0.0588478
0.00861783
-0.0588396
-0.0338741
0.00776071
0.084953
0.0162798
0.00503459
-0.0330895
0.0117751
0.0610574
-0.0618268
0.000769428
0.00184882
0.0017916
-0.00150714
-0.00213327
0.040632
-0.0434818
0.00284973
-0.0577729
-0.0343528
0.105763
-0.0136375
0.000850496
-0.00987264
0.00972964
-0.000707488
0.00288676
0.00595314
0.0026793
-0.0115192
0.00182815
0.00641195
-0.00781779
-0.0248013
-0.0578492
-0.00889769
0.0915481
0.0259288
-0.00776274
0.0179541
-0.0361202
-0.0840009
0.0925367
-0.101265
0.092729
0.0794206
-0.0518514
-0.0275692
0.00154535
-0.0346128
-0.0101546
0.0432221
0.00829738
-0.00561394
-0.0094152
0.00673175
0.0466952
-0.0703942
-0.0620978
0.0857968
0.0740279
-0.064709
0.0293622
-0.0386812
-0.0135072
-0.00824117
0.0321678
-0.0104194
-0.0581757
-0.0868041
0.0571609
0.087819
-0.0416412
0.0543589
-0.0111724
0.0976943
-0.048278
-0.0494162
-0.00449577
0.015263
-0.00246982
0.00100527
0.000682409
-0.000714288
-0.000973387
0.0473444
-0.0157999
-0.00524462
-0.0262999
0.00366336
-0.00189267
-0.000479791
-0.0012909
0.00543767
-0.0102076
0.00875594
-0.003986
0.0724843
-0.042275
0.0257117
-0.0559209
0.00879152
-0.000371812
-0.00685823
-0.00156148
0.00167513
-0.000603058
-0.00107207
-0.0651528
0.0647296
0.000423218
0.0122556
0.0054113
-0.0968408
0.0791739
-0.0115862
0.0142849
-0.0103075
0.00760877
-0.072665
0.0161446
0.0833619
-0.0268415
0.018205
-0.09726
0.0756576
0.00339734
-0.0527084
0.0431066
-0.00833933
0.0179411
0.008859
-0.00181374
-0.00300875
-0.00403651
8.26996e-05
-0.000881364
0.000798664
0.0285002
0.17059
-0.245435
0.0463456
0.000319895
-0.000126255
-0.024734
0.0602793
-0.0527591
0.0172138
-2.31153e-05
0.00524317
-0.0044456
-0.00077445
0.000273509
0.00160228
-0.00210478
-0.070884
0.000654892
0.0702291
-0.0323741
0.113775
-0.0477471
-0.0336538
0.000491051
0.000554343
0.00950989
-0.0105553
0.000605232
0.0908092
-0.0914145
0.00239153
-0.0016393
-0.00120876
0.000456523
0.00136903
0.000686787
-0.0007029
-0.00135292
-0.0366251
-0.00162037
0.0323977
0.0189113
-0.0638241
-0.072475
-0.0163744
0.0066547
0.0821947
-0.000616358
0.00198539
-0.100048
-0.0420457
0.112786
0.0293072
0.0273212
0.170085
-0.0848837
-0.0576501
-0.0275509
-0.0181482
0.11912
-0.0434648
-0.0575071
0.0397498
0.0299659
0.0385438
-0.108259
0.104757
-0.248861
0.109421
0.0346829
0.00162853
-0.00145335
-0.00139273
0.00121755
-0.0122812
-0.0354827
0.0556504
-0.00788643
0.0257491
0.0403511
-0.0260701
-0.0400301
-0.0353508
-0.0258042
-0.0197707
0.0809257
-0.0533669
-0.0139279
0.0550135
0.00103957
-0.0121347
0.00899203
0.00210308
0.0553722
-0.0284455
-0.0508463
0.0239196
-0.0892982
0.105274
-0.0501092
0.0341338
0.0164795
-0.0232482
0.00696012
-0.000191391
0.0517851
-0.0600583
0.0636454
-0.0570756
-0.00348756
-0.0137708
0.074334
-0.00538288
-0.013012
0.00240623
0.0159887
0.000298829
0.0582992
-0.0578097
-0.000788248
0.13532
-0.0537227
-0.00268511
-0.0789119
0.0594476
-0.00752085
-0.0483864
-0.0035404
0.0516144
-0.0212811
-0.0732037
0.0428705
-0.00987703
-0.00187989
0.0149836
-0.00322672
0.00537037
-0.00163973
-0.00478262
0.00105197
0.00254493
-0.0438256
0.0404202
0.000860493
-0.000821985
-0.0862327
0.00343801
0.0195653
-0.0129629
-0.0632192
0.0466585
0.0165607
-0.0595442
-0.0170409
0.0109775
0.0656076
-0.0996311
-0.000862235
0.103489
-0.00299613
0.00369661
0.0235553
-0.012729
-0.0145229
-0.0712843
0.149787
-0.0659983
-0.0125041
-0.0048354
0.0134222
0.0226003
-0.0311871
-0.0516905
0.0993493
0.0388427
-0.0865015
0.0288395
0.00178654
-0.0146465
-0.0159795
-0.0361036
0.0377504
0.000898212
-0.00476448
0.00734455
-0.00987306
0.00729299
-0.000315872
-0.00452045
0.010274
0.035901
0.0379902
-0.0738913
0.00110481
-0.0018949
4.8043e-05
0.00074204
0.0196106
0.00832746
-0.0189376
-0.00900042
0.0222154
0.0114052
-0.00216315
-0.0314575
-0.0521883
-0.00156287
0.00688206
0.0468692
-0.000146187
-0.0436794
-0.000965977
0.000563929
0.00150686
-0.0517608
0.0368915
0.0520173
-0.037148
-0.0448781
0.0302331
0.0182049
-0.00355992
0.00133437
-0.00344447
-0.00989268
0.0120028
-0.0094158
-0.00507136
-0.0032446
0.0177318
-0.0434557
-0.00481943
0.0121715
0.0724475
0.0396962
-0.072047
-0.0400967
-0.0447553
-0.000412003
0.0451673
0.0861985
-0.0486749
0.0595767
0.00363259
-0.00770916
-0.0372938
0.0413704
0.0359567
0.0114026
-0.00546747
-0.0418919
-0.000481283
0.000319742
0.0010128
-0.000851257
-0.016835
-0.0449631
0.0617981
-0.000252025
-0.00133517
-0.00423552
0.0308769
-0.0230088
0.00615672
0.0278779
-0.0417437
0.0978971
-0.0906949
-0.00202282
-0.00517939
-0.0213987
0.101263
-0.0186539
-0.0612102
-0.0323163
0.00681227
0.0145666
0.0109374
-0.0393182
0.0360577
0.014143
-0.0108825
0.0325692
-0.0251261
0.00134304
-0.00878614
0.0188967
0.0720737
-0.121652
0.0306821
0.0762938
-0.0752635
-0.0243119
0.0232816
-0.143325
0.00211068
0.00366755
0.137547
0.0305672
0.0123277
-0.041244
-0.00165081
0.0398343
-0.0578636
0.0204034
-0.00237408
0.00212818
-0.00123493
0.000243156
-0.00113641
-0.0145773
-0.00116503
0.073398
-0.0416437
0.0188068
-0.0505611
-0.0118277
0.0477593
0.000399463
-0.036331
0.00522679
0.0955729
-0.0929491
-0.00785057
0.0494245
-0.0989753
0.0581633
-0.00861252
-0.0483539
-0.0003656
0.0368917
0.0151434
-0.00364714
0.0086417
-0.0201379
-0.0234215
0.0477946
-0.0133139
-0.0110592
-0.0483543
4.15339e-07
-0.00549027
-0.12287
0.175864
-0.0475038
0.0101663
0.00972856
-0.0635505
0.0436556
0.0495118
0.00550416
-0.0448496
-0.0128197
0.00673574
-0.00361194
0.00969589
-0.0563076
-0.00078225
0.0570898
0.110409
0.0444711
-0.136673
-0.0182076
-0.0092216
0.000346864
-0.00394496
0.018521
-0.116137
-0.0224471
0.120063
0.0126195
0.0666084
-0.0694993
0.00286029
-0.0557834
-0.0106274
0.000503532
0.0019012
-0.00265675
0.0020186
-0.00180572
0.000290653
-0.0506476
0.0259196
0.0739052
-0.0491772
-0.00194265
0.000977848
0.000947886
-0.0342449
-0.00771461
0.0448198
0.000265057
-0.000306507
0.000349158
-0.000904745
0.000119987
0.0004356
0.000171796
0.00211186
-0.00178278
0.0014279
0.000123904
0.000230967
0.000422167
-0.000246208
0.000759609
0.105733
0.121434
-0.079478
0.000121551
-0.000816636
0.00111725
-0.0529091
0.052843
6.61841e-05
-0.0106016
0.0760831
-0.0714042
0.0059227
0.0017837
-0.0196047
0.00523148
0.0125896
-0.0603428
-0.00316795
-0.0172132
0.00398737
0.0475871
-0.0343612
-0.063625
-0.00261852
0.0662435
-0.00664457
-0.0167223
-0.0128094
0.0361763
0.000315002
-0.000376562
-0.000519231
0.000580791
-0.00397569
-0.00739978
0.00905508
0.00232039
0.0549845
0.0439065
-0.017508
0.0481532
0.0894824
-0.0380951
-0.0995404
-0.0126894
-0.0443732
-0.0195157
0.0189579
-0.0545618
0.0551195
-0.0109071
0.0291753
-0.00641078
-0.0118574
-0.0150805
-0.0135522
0.0135683
0.0150645
0.0970834
-0.095119
0.0189721
-0.0209366
0.00113811
-0.00436817
-0.000388366
0.00361843
0.00111792
-0.0663119
0.065194
-0.072491
0.0034022
0.066631
0.00245783
0.0390031
0.0383511
-0.0773543
0.0190556
-0.0600978
0.0283528
0.00206362
-0.00118384
0.000541687
-0.00142146
0.000209986
-0.000286357
0.0012815
-0.00120513
-8.05742e-05
0.000431055
-0.000995594
0.000645113
0.0636387
0.0564817
-0.039003
-0.0811174
0.00576543
-0.0869322
0.0824033
-0.00123654
-0.013644
0.000459124
0.0265869
-0.0134021
0.0535727
-0.0527351
0.0190071
-0.0198448
-0.000523269
0.00137804
-0.000689413
-0.000165358
0.0203379
0.0478577
-0.04914
-0.0469988
-0.00173609
0.000938695
0.00153926
-0.00074187
0.00119482
0.0801806
-0.0813754
-0.0499456
-0.0152339
-0.0221763
0.0873558
-0.0499944
4.88133e-05
0.0116661
0.016766
0.0167505
-0.0451827
0.000531363
-0.0027794
0.000375671
0.00187237
-0.00173574
-0.000612981
0.000612639
-0.1061
-0.0090074
-0.0429438
0.158051
-0.00974971
0.00708751
0.137235
-0.134573
-0.0384937
0.0419542
-0.0647615
0.0613011
-0.0791051
0.0789074
0.000197739
0.00131315
-0.0500338
-0.0305063
0.0670606
0.019398
-0.00596999
-0.0804886
0.0504564
0.0946317
-0.156761
0.0116732
0.0415084
0.0159687
0.0331975
-0.0906746
0.104137
-0.108492
0.0433583
-0.00355147
0.0131607
-0.0119198
0.00231055
-0.00168703
-5.85118e-05
-0.000639418
0.00238496
-0.0028668
-0.00562175
0.00169713
0.00679143
0.0607144
-0.00609263
-0.018278
-0.0363438
-0.056747
0.0282187
0.0285283
-0.0926864
-0.00779936
0.0121633
0.000579436
-0.000530827
-0.00173564
-0.117893
0.0265737
0.0050305
0.086289
0.00133808
-0.0536483
-0.0101358
0.062446
0.0454635
0.0292256
-0.101375
0.0266856
0.0382522
-0.0436202
-0.0189361
0.0243041
0.048184
-0.0601836
0.0502517
0.0312425
-0.0560219
0.0496091
-0.0248296
0.034658
-0.0360113
0.000200156
0.00115319
0.0161597
-0.142007
0.0911284
0.0347192
0.00141144
-0.0616227
-0.00380809
0.0523089
0.000342952
-0.107793
-0.0338559
-0.00878068
0.00674164
0.035895
-0.0487064
0.0444173
0.050113
-0.0458239
-0.0425295
0.0823227
-0.0397932
0.0104827
-0.102095
0.0479921
-0.0169584
0.00754705
0.0245077
-0.0150964
-0.0884661
0.093784
0.0364113
-0.0417292
0.0585368
0.032807
-0.0828695
-0.00847427
-0.0464724
0.141602
0.00414923
-0.0992788
-0.000545044
0.00296848
0.00360649
-0.00602993
0.0536846
-0.0720068
0.0829424
-0.0646202
0.00808993
-0.0393185
-0.00827291
0.0395015
-0.0434529
0.0314954
0.103085
-0.0911277
-0.0499909
-0.0264467
0.0528716
0.023566
-0.00972552
-0.000374103
0.00622987
0.00386976
-0.0106852
0.022841
-0.0182899
0.0061342
0.000151904
0.0738309
-0.0739828
0.0149057
-0.0441294
-0.0194827
0.048273
-0.0341289
-0.000845023
-0.0132991
0.00145047
-0.026079
-0.020563
0.0451915
0.0346618
-0.0345939
-6.79e-05
0.0611975
-0.0417127
0.0642843
-0.0837691
-0.099483
0.0976772
0.0988893
6.36443e-05
-0.0108598
-0.00177876
0.012575
0.0495675
-0.000222092
3.27148e-05
0.00014736
4.20173e-05
-0.000389857
0.0479627
-0.11088
0.0633076
-0.008593
-0.00060943
0.0049788
0.00422363
0.0268864
0.0099606
-0.036847
0.00120042
-0.000950729
-0.00884269
-0.0334465
-0.0348658
0.0105395
0.0572391
0.00100026
-0.0582394
0.0728437
-0.0441352
-0.0511883
0.0224798
0.00160593
-0.0251481
-0.0207962
0.0693865
0.0430297
-0.0395725
-0.00803894
0.00930301
0.133656
-0.119539
0.0362809
-0.0503978
-0.045018
0.0364934
0.0218921
-0.0133675
-0.0524834
0.0525485
-6.51356e-05
-0.0477797
0.0296479
0.0107661
-0.0469392
-0.0108627
0.0470358
-0.00236412
0.16093
-0.160695
0.00212898
0.107641
0.0159411
-0.0160635
0.0508076
0.00861077
-0.051248
-0.00817038
-0.0144826
0.00468601
0.0106673
-0.000870699
-0.00955856
-0.00536132
0.00470724
0.0102126
0.065924
-0.0375582
-0.0526133
0.0242475
0.0296444
-0.0155398
0.0240016
-0.0381061
0.0266982
-0.093413
0.0894724
-0.0227576
-0.00586609
0.000434816
-0.00905131
-0.0943661
0.107055
-0.0231329
0.0104444
-0.0114108
0.0480139
0.0139271
-0.0505301
-0.00423046
-0.000467486
0.00324484
0.0014531
0.0838768
-0.00476393
0.0507167
-0.12983
4.51641e-05
-0.000700859
-1.31943e-05
0.000668889
-0.0667971
0.0587366
0.0740642
-0.0660037
0.0034171
0.000926976
-0.00228777
-0.00205631
-0.0780182
0.0757327
0.00228553
0.0628853
-0.0596523
-0.00323303
0.0605631
-0.000716882
-0.0598462
-0.0107708
0.123543
-0.000614362
-0.112158
0.00992349
-0.031149
0.0328917
-0.0238617
2.58869e-06
-0.0561945
-0.0676062
0.0116084
0.0664726
-0.0104748
-0.013265
-0.00215963
0.000225255
-0.000538093
-7.61346e-05
0.000388972
0.00120576
-0.000111243
-0.000258789
-0.000835724
-0.0634434
0.00767406
-0.00140938
0.0571787
0.000394936
-0.00545866
0.00190739
0.00315634
0.0121676
-0.0146664
-2.21331e-05
0.00252096
0.00819763
-0.00675124
0.0107212
0.0556524
-0.00934983
-0.0227776
-0.023525
0.03609
-0.00530259
-0.036327
0.00553955
0.000101135
0.0669774
-0.000304552
-0.066774
0.00767401
-0.0717111
0.0192277
0.0448095
-0.0430767
-0.0318018
0.0417265
0.033152
-0.0353309
0.0212471
-0.0907743
0.104858
-0.000924549
0.0152157
-0.00782654
-0.00646461
0.0491087
-0.0589694
0.0474062
-0.0375455
-0.062525
-0.00680847
-0.00812634
0.000852936
-0.000240102
0.00434493
-0.00495777
-0.012037
-0.00277198
0.00175182
0.0130572
-0.00812929
-0.00927233
0.0108103
0.00659132
-0.000138482
-0.00222453
0.00142901
0.000934005
-0.000356765
0.000446761
-8.99958e-05
0.00173785
-0.0732379
-0.027157
0.0986571
-0.000150087
-5.18626e-05
-0.00143365
0.0016356
0.00011802
-0.00036276
-0.000112025
0.00226259
-0.0658876
-8.2605e-05
-9.51207e-05
0.000624486
0.000619099
0.000138676
-0.000395515
-0.00036226
-0.0281843
0.063521
0.0781978
-0.113535
-0.00914304
-0.00223073
0.0072504
0.00412337
-0.0145752
-0.000282491
0.00571469
-0.00528114
0.00549322
0.0131324
-0.0133445
-0.000484099
0.000701819
-0.000300325
-0.066038
0.0667405
-0.000702453
0.0303895
0.0471092
-0.0600269
-0.0174718
0.0114434
-0.0754766
-0.0212004
0.0852336
-0.013523
0.00276893
0.00547291
-0.00456542
-0.00640671
-0.00255086
-0.0165487
0.0583447
0.012897
-0.0546929
0.0690765
0.00476483
-0.0537144
-0.0201269
0.000190696
0.000423319
-0.000760724
0.000146708
-0.000111084
-0.000254995
-0.00266487
-0.00117669
-0.0013302
0.00517176
0.065097
-0.04593
0.0120445
-0.0312115
-0.000830908
-0.00268306
0.00139467
0.00211929
-0.0164971
0.00996966
-0.00334864
0.00987608
0.00163397
-0.101489
0.101138
-0.00128316
0.00311772
0.000780378
-0.0105594
0.00666129
0.0101819
-0.0107296
0.00159798
-0.00105023
0.0098965
0.00397247
-0.0107512
0.0367871
0.0562648
-0.0279548
-0.0272778
0.0548031
0.0281946
-0.0557199
0.0277528
-0.0550306
-0.000585537
0.000446808
-0.0331105
0.0124775
-0.0100473
0.0792127
0.0232773
0.00764117
0.0694715
-0.0542546
0.0980654
-0.113282
0.00481772
0.0926918
-0.0975096
-0.00694413
-0.00711879
0.0134867
0.000576243
-0.0343033
-0.0868677
0.0274976
0.0936734
0.0219264
0.0616076
-0.0242509
-0.0592831
-0.0235297
0.113261
-0.0529444
-0.0418502
0.0448957
0.0517576
-0.0557739
0.0557877
-1.37645e-05
-0.0390526
0.0367159
0.00233666
0.0396984
-0.0781983
0.0728798
-0.03438
0.0674285
-0.0839773
-0.00983682
-0.00811031
0.011003
0.000838288
0.00064004
-0.00056308
-0.000915248
-0.00574066
-0.0426149
-0.00741836
0.00125444
0.00146083
-0.00258819
-0.000127083
-0.0574106
0.0518742
0.0855318
-0.0799953
0.0356163
-0.0334191
-0.00219716
0.0117936
0.0172194
-0.0118303
-0.0171827
0.00420385
-0.000434316
0.0021992
-0.00596874
-0.0643762
-0.000570362
0.0200498
0.0448967
-0.00293035
0.00668442
0.000449783
0.0390408
-0.1094
0.104668
-0.0343091
0.046007
0.0135477
-0.0593726
-0.000182193
-0.00364372
0.00696839
0.00166201
-0.00498668
0.000155212
0.0606058
-0.060761
0.0379104
0.00640068
0.0151776
-0.0594886
0.00427309
-0.00732356
0.00261616
-0.18318
0.0278965
0.162763
-0.00747905
0.0396483
-0.0110299
-0.0286184
-0.00124214
-0.00152483
-0.00116026
0.00392723
-0.0419778
0.0457245
0.124737
-0.128484
-0.0018913
0.000682782
-0.00195847
0.00316698
0.0916522
-0.00244043
-0.0432048
0.000495084
-0.00123766
0.00204963
-0.00130705
-0.0187288
-0.116386
0.0163218
0.118793
0.00380788
0.0523623
-0.00409026
-0.05208
0.0487334
-0.0703434
0.0605197
-0.0389097
0.0319802
-0.0365159
0.0485963
-0.0440606
0.0084229
-0.00167838
0.00579242
-0.0125369
0.00131832
-0.0443772
0.0532778
-0.0537139
-0.0360797
0.09734
0.0176692
-0.0244403
-0.0905689
0.0471472
0.0182416
-0.134296
0.0689071
-0.00181239
-0.00865146
0.00634105
0.0041228
0.027879
-0.0500419
-0.00324197
0.0289489
-0.026712
0.0073644
-0.00586201
8.43631e-05
-0.00158676
-0.086292
0.00274377
-0.000332613
0.0719867
-0.150013
0.0783587
-0.02714
-0.08754
0.0411979
0.073482
-0.0726592
0.0205666
0.00301616
0.0490765
-0.0433541
0.0290784
0.0104275
-0.0828188
0.0957529
-0.0129341
-0.0210925
-0.00950556
0.117959
-0.0873606
-0.00359815
-0.00387119
0.00610266
0.00136667
-0.0258039
0.0591827
0.0406491
-0.0721694
0.0280341
-0.000795697
-0.000414232
-0.00102743
0.00223736
0.0467675
-0.0492696
0.054811
-0.0377161
-0.00714722
-0.0450246
-0.123937
0.0478568
0.0760801
-0.0429213
-0.0325209
0.0276625
0.00306959
-0.00219102
0.000794339
-0.00167292
0.00281368
-0.000390351
0.000646263
-0.0863532
0.00357919
0.082774
0.0614497
0.0130269
-0.122998
0.048521
-0.0710603
0.000371592
0.0706887
0.00138674
-0.00173938
0.00834643
-0.0079938
0.0483783
0.156265
-0.226351
0.0217082
0.00184376
-0.00231985
0.00142733
-0.000951233
-0.0916493
0.0649367
0.0265412
0.000171335
-0.00133287
-0.000588595
0.00261076
-0.000689299
-0.000638258
0.00837156
-0.00847195
0.000738648
0.00781809
0.00788994
-0.0149351
-0.000772903
0.0408969
0.0125077
0.00303993
-0.00276197
0.0015658
-0.0985422
0.105254
0.00746531
-0.0141771
0.0121183
-0.0668137
-0.0231986
0.077894
0.00215692
-0.00484984
0.0879275
-0.0852346
-0.0411514
-0.0369214
0.0870112
-0.00893831
-0.0407057
0.0246104
0.0405459
-0.0244506
0.0536506
0.0206131
-0.0721376
-0.00212607
-0.00140883
0.000164073
0.00156925
-0.000324493
-0.123705
-0.0431164
0.0395574
0.127264
0.0484722
-0.0377061
-0.0318109
-0.0376195
-0.0309451
0.100376
-0.00187444
0.00428251
0.000412867
-0.00282094
-0.031078
-0.0803372
0.0285112
0.0829039
-0.0296754
-0.0286495
0.0206087
-0.000772913
-0.00329255
-0.00165887
0.00320714
-0.00377856
0.00223029
-0.00578769
0.00561602
0.0253708
-0.0772405
-0.0852797
0.137149
-0.000495375
-0.000201019
0.000366693
0.000329702
0.0572669
-0.0602989
0.0479712
-0.0449392
-0.0150549
0.0441598
-0.00763278
-0.0214721
0.086665
-0.0861858
-0.0186767
0.0181974
0.0265249
0.0224072
-0.0635907
0.0146586
-0.12726
0.0739108
0.0182952
0.035054
-0.00530064
0.00313208
9.70432e-05
0.00207152
-0.00802147
0.00960155
-0.000193341
-0.0134633
-0.00372872
0.0180805
-0.000888531
-0.0622485
-0.0048634
0.0144279
0.052684
-0.00857437
0.103036
-0.00513106
-0.0893309
0.00907173
-0.0472525
0.0806176
-0.0424368
-0.00153894
0.00418589
-0.00158583
-0.00106112
-0.0150774
0.000305087
-0.00216169
0.016934
-0.106612
0.00408521
0.0133243
0.0892022
-1.70862e-05
-0.000312198
0.000595227
-0.000265943
0.0373412
0.00800498
0.0271013
-0.00489855
0.046176
0.0527257
-0.0940032
-0.000160971
0.000517161
-0.000373276
-0.000544823
0.00217722
-0.00147454
-0.000157857
0.0174485
0.110963
-0.0477477
-0.0806639
-0.000241478
-7.07197e-05
0.000167658
-0.000409136
0.0618692
0.0169679
-0.092165
0.013328
-0.15717
0.0860717
0.0771506
-0.00605185
-0.0181103
0.000201026
-0.0516756
0.0695849
0.0249524
-0.0147065
0.0168382
-0.0270841
-0.0664568
-0.0231464
0.0896032
-0.0780575
0.0385972
0.0394603
-0.00197199
-0.000341303
0.000573293
0.00174
-0.0380349
0.0410932
0.0077155
-0.0107738
0.0465975
-0.0545318
0.00793431
-0.0607029
0.0337301
0.045073
-0.0181002
0.00452828
-0.00268077
-0.00167401
-0.000173499
-0.00324483
-0.00251017
0.000454358
-0.0422019
-0.0417991
0.0466534
0.0141328
0.00258247
-0.0633687
0.00229653
-9.7313e-05
-0.00189554
-0.000303678
0.00420619
0.00386078
0.000133661
-0.00820064
0.00710309
0.0224837
-0.0405351
0.0109483
-0.0191095
-0.0154524
-0.00923628
0.0437982
-0.0755127
-0.0100193
0.029594
0.055938
-0.00179074
0.0150925
-0.00831664
-0.00498515
-0.0529922
0.000534578
0.0333481
-0.00014922
0.0252678
-0.135816
0.126272
-0.0157231
0.0286026
-0.0344968
-0.0517109
-0.0271139
0.0548668
-3.10799e-05
0.0402506
0.00333719
-0.0435567
-0.0551824
-0.0599585
0.115141
-0.00317994
-0.00102968
-0.00177312
0.00598275
0.00318025
-0.00476132
0.00170382
-0.000122745
0.0366474
-0.00620388
-0.0281005
-0.00234309
-0.00325451
-0.00229428
0.00236885
0.00377308
-0.0110786
0.066016
-0.0587105
0.0761585
-0.000224633
0.0276041
0.00958312
-0.00668632
-0.0305009
0.0585945
-0.000815391
-0.0577791
-0.0530368
0.113743
-0.0284231
0.0596915
0.0200947
-0.0513632
-0.0162524
-0.025748
0.0174506
0.0245499
0.0031266
0.00375752
0.000846882
-0.007731
-0.0342052
-0.0379879
0.0993346
-0.0271416
0.0445713
-0.0362474
-0.000357426
-0.00796645
-0.0503782
0.115633
-0.0507066
-0.0145479
-0.0013929
0.00167395
-0.000118152
-0.000162908
-0.000687001
0.0216127
-0.00475946
-0.0161662
0.00300999
0.00375899
0.000187388
-0.00695637
-0.000275565
-3.94017e-05
6.31585e-08
0.000314904
3.79615e-05
2.20571e-05
-0.000335584
-0.00907586
0.023036
0.0702543
-0.0842144
0.0801695
-0.0803955
0.000225932
0.000305275
-0.000324798
1.95231e-05
-0.0127818
0.000969627
0.00229594
-0.00134505
-0.00192052
-0.00850098
-0.00549463
0.00647152
0.0075241
-0.0557594
0.0273363
0.000266036
0.00025665
-0.000799289
0.000276602
0.0336892
0.0548955
-0.034978
-0.0536066
0.0119757
0.159119
-0.179742
0.00864684
0.0583038
0.0633146
-0.061927
0.00198528
-0.0134862
-0.00179023
0.0132912
-0.0334088
-0.0301094
0.0635182
0.0311143
-0.0645231
-0.0542934
-0.0447663
-0.0654899
0.16455
0.0499399
-0.055814
0.00587408
-0.0725648
0.134499
-0.0712842
0.0330011
-0.0301415
0.0858218
-0.00362333
-0.0689266
-0.0132719
0.070012
-0.0704491
0.0113522
-0.0109151
6.19142e-05
-0.00621959
0.00728923
-0.00113156
0.00125878
-0.00498624
0.00672485
-0.00299739
-0.000226743
0.000191203
0.000690547
-0.000655007
0.0223147
0.0232112
-0.0339231
-0.0116027
-0.00534458
-0.00503527
0.00623231
0.00414754
-0.0107584
0.0320902
-0.0429992
0.0216675
0.00110037
-0.00860594
0.0108259
-0.00332034
0.0486146
-0.00416089
-0.0444537
0.0380601
0.0357188
-0.126564
0.0527854
-0.0978959
0.0599812
0.0759748
0.032977
-0.0997587
-0.0469022
0.107897
-0.0370925
-0.0239027
0.00166369
0.00908671
-0.0124045
0.00165407
0.027684
-0.00266076
-0.0250232
-0.0305182
0.0435972
-0.00374556
0.0201838
-0.0315188
0.00100565
-0.000165977
0.00106925
-0.00190893
0.0117236
-0.0384357
-0.000820076
0.000197752
0.00041234
0.000209983
0.00276109
-0.000366971
0.00104268
-0.0034368
-0.000855098
-0.00236342
-0.0782533
-0.0128039
0.00143078
-0.011899
0.0232722
0.0201995
-0.0903636
0.020575
0.049589
-0.00330921
0.0580099
-0.0819138
0.0272132
0.000892392
-0.000573663
0.000565799
-0.000884528
0.0792224
0.0125813
0.00228756
-0.0940912
-0.000589496
-0.000797727
0.00161711
-0.00022989
0.00489739
-0.000976453
-0.069192
0.0652711
0.0065755
-0.00104538
-0.00493332
-0.0005968
0.00643119
0.0045717
-0.00361695
-0.00738594
-0.110415
0.0964526
-0.0875671
0.10153
-0.0543715
0.109651
-0.0552792
0.00223454
-0.0438042
0.00885175
0.0327179
0.00368607
-0.00353216
0.000720967
-0.000874878
0.0493703
-0.0029043
0.00129327
-0.129648
0.00264562
0.0739659
-0.0337855
6.02435e-05
0.00106375
0.0315628
-0.0253204
-0.00730613
0.0781773
-0.0307754
0.0342151
0.00409179
-0.00505587
0.000142131
0.000821946
0.0340056
0.0235308
-0.0752105
0.0176741
-9.63831e-06
-0.000105083
5.12086e-05
6.35128e-05
-0.000444053
0.00149608
0.00537916
0.00022008
-0.00798915
0.0064382
0.00564275
0.0746271
0.0407501
-0.037056
-0.0783211
-0.131306
0.1413
-0.0088204
-0.00117337
0.0315519
-0.0325551
0.00100322
-0.0364315
-1.22888e-05
0.000331986
-0.00316219
-0.00222566
0.0147033
0.206711
-0.158933
-0.0624813
0.0292733
-0.0609949
-0.0178823
0.0496039
-0.00308547
0.039132
-0.000918205
-0.0855251
0.0473113
-0.0230055
0.0101048
-0.0380496
0.0476024
0.0463656
-0.0559183
-0.0667531
0.0889811
-0.15148
0.129252
-0.000194417
5.58689e-05
-0.00145268
0.00159123
0.000193133
0.00229418
-0.000629741
-0.00185757
0.0436242
-0.014866
0.0384191
-0.0671773
-0.00354923
0.000333153
0.00341512
-0.000199046
-0.0119135
0.0106989
-0.0368351
0.012093
-0.0463343
0.00593454
-0.00322588
0.0184386
-0.0211472
-0.135912
0.0183466
0.128166
-0.0106009
0.0339919
-0.0231575
-0.0162185
0.00538406
0.0344551
-0.0530459
0.00667728
0.00459983
0.00754305
0.051896
-0.0640389
0.0246892
-0.00707173
-0.0250864
0.00746899
-0.0792214
-0.00861124
0.0151677
0.00124486
-0.00110583
5.41021e-05
8.77243e-05
0.00235743
0.00149588
-0.00394104
0.0183806
-0.0320295
0.038338
0.0179814
-0.143363
-0.0229336
0.148315
-0.112857
-0.0150154
0.0258016
0.10207
0.0571546
-0.0354227
0.0290302
-0.0507621
0.110984
-0.00609388
0.0034189
-0.108309
-0.016952
-0.036977
-0.00415316
-0.0162056
0.00805185
0.0123069
-0.00134756
0.000488089
5.58371e-05
0.000803633
0.0152921
-0.0774754
0.0621833
0.108772
-0.0071809
-0.112362
-0.0263547
0.0557265
-0.0463239
0.0398643
-0.122202
0.0149058
0.067432
-0.00398739
-0.0123107
-0.0269819
0.04328
0.00391481
0.0496633
0.0850671
-0.132733
-0.00199785
0.0491854
-0.0829718
0.0891722
-0.0553858
-0.0961043
0.0957811
-0.00713824
0.0074615
0.00212341
0.00450021
-0.0945257
0.0879021
-0.00173231
0.00361926
0.00608243
-0.00796938
0.000241774
-0.000955811
-0.00028891
0.00100295
0.0888197
0.000814181
-0.0175476
-0.0720863
-0.000787646
0.00074967
-5.99083e-05
9.78851e-05
0.000848352
0.00332006
-0.00233787
-0.00183054
-0.00183114