/*--------------------------------*- C++ -*----------------------------------*\
| =========                 |                                                 |
| \\      /  F ield         | OpenFOAM: The Open Source CFD Toolbox           |
|  \\    /   O peration     | Version:  2506                                  |
|   \\  /    A nd           | Website:  www.openfoam.com                      |
|    \\/     M anipulation  |                                                 |
\*---------------------------------------------------------------------------*/
FoamFile
{
    version     2.0;
    format      ascii;
    arch        "LSB;label=32;scalar=64";
    class       volVectorField;
    location    "0.0563527";
    object      U;
}
// * * * * * * * * * * * * * * * * * * * * * * * * * * * * * * * * * * * * * //

dimensions      [0 1 -1 0 0 0 0];

internalField   nonuniform List<vector> 
47425
(
(10.1754 0.156139 -0.00405125)
(10.0371 -0.142521 0.00333767)
(10.0352 -0.0182316 -0.00884613)
(11.4737 -0.519733 -0.214228)
(12.4399 0.457291 0.731521)
(10.0785 0.0155181 0.00705192)
(12.3364 0.301864 0.71036)
(10.0668 0.0155398 0.00310187)
(10.0051 0.00867865 0.00557068)
(2.6377 5.08925 -1.00684)
(10.0455 0.0134193 0.000311685)
(9.96636 0.0573432 0.00102876)
(12.1293 0.385944 0.257953)
(10.0486 -0.00853279 -0.00315306)
(11.0285 0.311039 -0.132236)
(10.1085 -0.205868 -0.032039)
(10.0587 -0.00777604 -0.00295921)
(8.75037 -0.520594 -1.47358)
(8.67038 1.27784 -4.99628)
(13.4617 -0.473142 -1.00872)
(10.871 -0.714286 -0.587169)
(9.81296 -0.0448962 -0.0248301)
(9.96542 0.0309507 0.00269395)
(9.99936 0.0171143 0.00987183)
(9.91069 -0.0900711 -0.0151882)
(9.99465 0.0359058 -0.0189635)
(9.9932 0.0258171 0.00566214)
(11.4651 -0.336989 -8.77393)
(10.0057 0.0281599 0.00562407)
(10.0375 0.0120826 -0.00141079)
(9.73432 0.723541 0.0637591)
(10.0236 0.104201 -0.00011509)
(10.0021 0.0072318 0.00611617)
(10.0017 -0.0017265 0.00223801)
(9.97113 0.0103874 -0.00263344)
(9.93296 -0.00435272 0.00752447)
(9.75423 -0.0290514 -0.0627568)
(10.0027 0.0167838 0.00723622)
(10.5483 0.377404 0.0144302)
(10.0292 0.0400784 -0.00144272)
(9.8676 0.0919155 0.00595818)
(9.42543 0.278287 -1.12658)
(6.26267 -2.27213 -1.46109)
(9.9833 0.0136712 0.00521257)
(-0.165784 -1.00889 1.04097)
(9.99204 0.0686285 0.0179226)
(9.97056 -0.0106895 -0.0235325)
(9.99577 0.0302915 0.00490602)
(10.0636 -0.0286301 -0.01057)
(10.0562 0.0200675 -0.0067044)
(2.13622 -0.573392 -5.81216)
(9.02725 1.03667 1.49637)
(10.0351 -0.00189337 0.00291018)
(6.91253 -5.63752 2.53954)
(10.0004 0.015494 -0.00937682)
(10.1907 0.0126664 0.0501953)
(10.1866 -0.123921 0.0349517)
(10.056 -0.00616672 0.0254051)
(12.2409 1.30568 1.60258)
(9.99401 0.0137889 0.0183911)
(5.39122 -5.58486 1.9674)
(5.07056 -0.316178 2.43312)
(5.14982 -4.17925 0.968358)
(9.13172 -1.15748 -0.0499088)
(10.0075 0.0106202 -0.00666784)
(10.8063 -0.305786 0.0249519)
(9.99084 -0.0145716 -0.0062548)
(10.6617 0.0459826 0.478312)
(8.53585 -5.24612 2.68736)
(9.04759 0.539719 0.348282)
(10.8234 -0.549209 0.163451)
(10.0402 0.00271371 0.0118965)
(10.9125 -0.0993253 -0.0208785)
(10.8098 0.241484 -0.624948)
(4.85657 2.60276 0.840796)
(9.9989 -0.00375749 0.000598852)
(5.44611 -3.85814 1.73462)
(9.99115 -0.0118575 0.00782453)
(7.86688 -4.0057 1.98195)
(11.8295 0.139925 1.63202)
(5.1358 1.90703 0.915459)
(10.2177 0.308067 0.000316631)
(9.18784 0.101604 -0.271995)
(10.0122 0.0153117 -0.00702745)
(9.83058 -0.00473208 0.100455)
(10.2271 -0.071346 0.0186155)
(10.702 -0.171659 -0.0242311)
(10.1414 0.0772878 -0.0217181)
(11.0033 0.544486 -1.74235)
(10.9386 -0.383462 2.32013)
(9.79498 0.404601 -0.030666)
(10.6416 -0.000677324 -0.0203295)
(10.0503 0.0252941 0.00596138)
(10.1196 -0.0638076 0.0094612)
(10.06 -0.054378 0.0140104)
(10.0254 -0.0064023 0.00832267)
(10.043 -0.0282266 -0.0283961)
(10.2516 -0.263911 -0.00644997)
(10.1583 -0.0220353 0.0101503)
(10.0216 0.0167838 0.0295913)
(10.0344 0.0337285 -0.00670927)
(8.76898 0.115405 -4.05161)
(10.2743 0.188346 0.0309825)
(5.31173 1.97442 -0.659118)
(10.2923 0.12671 -0.0304195)
(10.5535 -0.770444 0.147258)
(10.0965 0.180771 0.0425251)
(10.1128 -0.0514215 0.00463086)
(9.30245 -0.0747431 -0.0426979)
(9.92989 0.0730886 0.0192927)
(-1.75289 -2.17252 -0.349925)
(10.0435 -0.0936018 0.027129)
(10.5015 -0.962568 0.244236)
(10.2324 -0.0196153 0.00280428)
(10.8522 -0.467264 0.109653)
(1.79367 -4.25721 -5.80255)
(10.8506 -0.433695 0.0849582)
(4.09331 0.0232265 -4.35471)
(10.3549 0.176404 -0.00656222)
(11.0521 0.351268 0.47262)
(10.3106 -0.0488684 0.00181282)
(10.0002 0.00375477 0.0055848)
(10.0033 0.0514863 -0.000665468)
(11.7473 0.786267 -0.649464)
(10.0948 -0.0544303 0.00571647)
(10.7805 -0.863161 0.215236)
(10.1566 -0.083995 0.00163749)
(10.0073 0.00387044 -0.0067844)
(9.96885 -0.0054505 0.00487447)
(9.98827 0.0220096 -0.0188816)
(9.24133 -0.311117 0.343575)
(10.3828 0.471734 -0.0359607)
(4.29395 0.042373 0.566991)
(10.3343 -0.439359 0.0400512)
(9.82184 -0.333068 -1.12093)
(12.0013 -0.514568 -0.868003)
(10.9746 0.776225 0.260007)
(10.8026 -0.864966 0.351969)
(10.1468 -0.0958696 0.0180346)
(11.0797 0.0788506 -0.0385187)
(9.98398 0.00432955 0.00330048)
(12.371 0.151476 0.236756)
(10.5142 0.0427651 -0.0527962)
(10.5661 -1.22766 0.347991)
(10.2051 0.224351 0.0179171)
(10.0051 0.00506828 0.00586296)
(12.0102 0.117793 1.00684)
(10.0213 -0.0252677 -0.00241325)
(10.4842 0.0231717 -0.0294217)
(9.97535 -0.0156721 0.00681232)
(10.4875 -1.27602 0.208469)
(2.94856 -0.378548 -6.86389)
(10.0075 0.0147804 -0.00943155)
(5.68824 0.078799 -11.4554)
(9.02022 -1.16351 -0.719182)
(9.97042 0.0500302 0.00205388)
(10.9155 0.418706 -1.65425)
(7.52432 -3.85589 -2.6168)
(10.0486 -0.0398997 0.0253245)
(10.0041 -0.0365412 -0.00789412)
(11.1276 -0.341094 0.0723395)
(9.99787 0.0331219 -0.0128046)
(10.0055 0.0044435 0.0446435)
(10.1656 0.288226 0.0341891)
(12.2208 0.149669 -0.348879)
(0.355968 -1.80481 -2.06879)
(10.0052 -0.0263819 0.00428239)
(5.25173 2.40171 0.794819)
(9.94093 -0.0110136 0.0173784)
(12.209 0.687426 -4.22573)
(6.23312 1.84263 0.431682)
(9.97819 0.00361976 0.00105913)
(10.0021 0.0229498 -0.0030258)
(9.4826 -0.972142 -0.635081)
(10.2001 -0.0315376 0.0408828)
(9.31037 -3.05067 -1.2871)
(2.77162 0.986461 -7.5878)
(10.0058 0.0247219 0.0100309)
(10.0223 0.0190744 0.0140273)
(10.0545 0.0115216 0.00772146)
(2.60124 0.442328 -10.9189)
(10.0435 -0.0966543 0.0100185)
(10.0116 0.020545 0.00726234)
(10.0014 0.0162622 0.0150217)
(10.043 -0.0209478 0.00170457)
(10.0284 0.0156013 0.00211852)
(10.2131 0.0807415 -0.0205811)
(5.66846 -0.468566 -0.603308)
(9.8591 0.00314012 -0.0199071)
(10.0956 0.129705 0.0397695)
(10.0008 -0.00931528 -0.00295963)
(9.97825 0.00193747 0.00951996)
(12.2228 -0.382965 -0.848896)
(9.99766 0.00164528 0.00392659)
(10.0003 0.0136136 0.0329586)
(11.0786 -0.0828076 -0.011132)
(10.0027 0.000881363 0.00755644)
(9.98888 -0.00387754 0.00461805)
(11.2545 -0.0303343 0.00238962)
(10.2554 -0.249774 0.0613992)
(9.97442 -0.00219462 0.0139817)
(10.3228 -0.0280423 0.0045046)
(9.67078 0.150281 0.0964514)
(11.0241 -0.230107 0.000823541)
(10.2456 -1.49777 -0.88547)
(10.5805 -0.0111466 -0.034215)
(10.0072 -0.00113869 0.0118857)
(11.01 -0.130535 -0.00981058)
(10.0138 0.102687 -0.0104609)
(10.0025 0.0133832 -0.00358608)
(10.2247 -0.14287 0.018536)
(11.0218 0.0984773 -0.0148532)
(10.0066 0.0295167 -0.0016676)
(10.0082 -0.0179916 0.0337316)
(10.6408 -0.0610996 0.0334352)
(11.2879 -0.0461834 -0.170977)
(10.7403 0.0173431 -0.0644015)
(10.837 0.29702 1.70286)
(8.76408 -1.27569 -0.633429)
(9.95517 -0.0209462 0.0107205)
(11.7445 -0.298599 1.8075)
(11.0501 0.139233 0.1774)
(9.96754 -1.56279 -0.905184)
(10.8023 0.102001 -0.00953954)
(10.5792 -0.00854472 -0.0277708)
(11.8171 -0.559407 1.74046)
(10.0341 0.0186112 -0.000440481)
(11.2028 -0.0310825 -0.0749617)
(11.3874 0.318785 0.202068)
(11.9007 0.267131 -0.275961)
(10.7476 0.0128241 -0.0713398)
(10.0212 -0.0328783 -0.0150047)
(10.3919 -0.105671 -0.00828797)
(10.0007 -0.00404745 -0.00049987)
(9.80218 -0.00454618 0.00456475)
(10.0147 0.226521 -0.0107175)
(11.6448 0.239014 1.69766)
(9.97492 0.0392173 -0.00513238)
(11.9682 0.254185 1.51227)
(9.76633 -0.00272508 -0.0156196)
(9.86354 -0.0166356 0.015391)
(10.0079 0.00870747 0.00871328)
(10.0425 -0.0176909 0.0150523)
(11.8405 0.581251 0.0286125)
(10.4492 0.389883 0.0538913)
(10.0076 -0.00270259 0.0120601)
(10.2697 -0.0552131 0.00796661)
(10.0103 -0.000778787 0.00391342)
(10.0226 -0.015584 0.00206531)
(9.97192 -0.00245116 -0.00584989)
(10.0056 0.0331496 -0.00539962)
(11.8053 -0.185968 1.6841)
(9.92905 -0.00611266 0.000278752)
(10.0034 0.00413787 0.00592324)
(9.93396 -0.0155739 0.00485136)
(9.94195 -0.00600234 0.00636277)
(9.85126 0.1022 -0.0116109)
(9.75771 -0.00494657 0.00578827)
(10.4339 -0.606423 0.14302)
(10.01 0.00160161 -0.00685596)
(9.74959 0.000730202 0.000416655)
(9.99807 0.0215409 -0.000920479)
(10.2283 0.0695136 -0.016991)
(10.1392 0.0209105 0.017737)
(11.6926 0.159303 0.774586)
(10.1055 -0.482922 -0.087397)
(10.0107 0.0104963 -0.0304296)
(11.7741 0.167917 0.613833)
(10.0047 -0.00382073 -0.015382)
(10.255 0.0686967 -0.0251611)
(10.2001 0.0647 -0.0057489)
(12.0369 0.366197 1.23043)
(11.5016 0.365242 1.45264)
(10.1657 -0.151021 -0.00868151)
(11.8869 0.0714801 1.59256)
(10.0699 0.00772897 0.0179171)
(11.9583 0.226326 1.42207)
(6.7244 3.36504 2.31906)
(11.464 0.25315 1.53597)
(5.88102 1.26521 -5.12205)
(4.47901 -5.56429 1.80849)
(10.1779 0.13995 -0.0112846)
(3.9662 -5.67973 1.13157)
(9.88965 -0.00535128 0.00871285)
(9.99458 0.00417399 0.00584054)
(11.2572 -0.138364 0.0666669)
(9.90138 -0.00215207 0.0208827)
(9.9848 -0.0221853 -0.00979427)
(9.87172 -0.165359 0.0110292)
(10.8746 -0.599042 -0.00546272)
(1.40795 1.74694 -3.49353)
(9.23455 0.798274 0.0603712)
(10.003 -0.00157108 -0.00210442)
(9.99273 0.00690562 -0.00231969)
(10.0254 -0.0257017 -0.0147813)
(10.3681 0.339659 0.450994)
(11.8309 0.692619 0.207164)
(10.2177 -0.659384 0.15907)
(10.0599 -0.147462 0.0223093)
(11.8072 -0.111056 0.273206)
(10.0429 0.148865 0.0175016)
(10.0683 0.0184117 0.0348121)
(9.97513 -0.0100132 -0.00456833)
(10.0328 -0.0285298 -0.00960779)
(10.8726 4.0385 -0.357878)
(6.35274 1.8152 0.040106)
(1.49127 1.17332 -6.19542)
(9.98451 0.00508054 -0.0182392)
(10.0724 -0.0583603 0.0171414)
(10.0672 -0.621675 0.00569398)
(10.1682 -0.530561 -0.160627)
(1.23329 -0.715622 -5.80327)
(9.98762 -0.0122975 -0.0300262)
(9.96398 -0.0150145 -0.0353128)
(10.8516 2.49466 1.25234)
(10.1574 -0.129937 0.0190227)
(9.86979 0.00872829 0.00396721)
(9.81468 -0.00119755 0.0165699)
(9.92313 -0.0034832 0.0183559)
(12.9248 2.12404 -0.772719)
(11.1774 2.19304 1.14142)
(9.98794 0.170239 0.0157607)
(10.1203 0.144507 -0.026797)
(10.0131 -0.00749306 -0.0239176)
(10.2079 -0.0253132 0.0119999)
(10.0461 0.0075621 -0.00496851)
(10.0787 0.247386 -0.0177272)
(10.0931 0.0591156 0.00437338)
(10.0462 -0.00181477 -0.00846483)
(10.0032 -0.00934929 0.00110066)
(11.3381 -0.00315575 0.272024)
(10.4267 -0.34162 0.198767)
(10.5382 -0.735727 -1.33392)
(9.98823 0.0268653 -0.00775166)
(9.96632 -0.0069369 0.0077021)
(9.99675 0.0198753 0.0365167)
(10.3673 0.152894 0.195959)
(9.95041 0.125073 0.00415024)
(10.0538 -0.00295786 0.0208198)
(10.0095 -0.0070093 -0.0145777)
(10.0089 0.251965 -0.00774338)
(10.0226 0.283347 -0.00208052)
(10.0949 0.0581094 0.000711457)
(9.92702 0.282441 -0.0163382)
(10.0271 -0.0195022 0.00646382)
(10.0044 0.00936682 -0.0101486)
(10.0445 0.00160534 0.0206724)
(9.65379 0.414798 -0.173915)
(9.969 -0.00266235 -0.0115015)
(9.9905 -0.0191222 -0.00702989)
(9.99431 0.237391 -0.0100665)
(10.4132 -0.442661 -0.0407976)
(10.1054 0.243502 0.00856631)
(9.9372 0.22877 -0.00326424)
(9.99463 0.185997 -0.010912)
(11.1969 -1.28735 -0.110827)
(9.94574 0.0082592 0.00449091)
(9.22895 0.226025 0.108937)
(9.96083 0.161268 -0.00846871)
(9.99721 0.0220502 -0.00714088)
(9.62176 0.289073 2.03003)
(11.398 -0.298967 -0.51881)
(10.0644 -0.00683641 -0.00736823)
(9.96762 -0.00936948 -0.0159925)
(10.3577 -0.398972 0.0476133)
(10.5525 0.491488 -0.0325364)
(9.82835 -0.00367832 -0.0111751)
(10.0116 -0.00615753 -0.00653499)
(10.05 -0.144526 0.0183733)
(10.2441 0.712856 -0.105482)
(9.86137 -0.0121177 -0.012869)
(-0.494765 -0.777352 -0.0425044)
(10.6311 -0.0785572 0.0341449)
(10.082 0.949511 -0.0743498)
(9.97931 -0.00156497 0.0074485)
(10.0773 0.836474 -0.0474367)
(10.5302 -0.226366 -1.0444)
(10.009 -0.0102374 0.000291445)
(10.0034 0.00571308 0.0041104)
(9.79004 -0.0173079 -0.0491)
(10.0114 0.00295042 0.0046478)
(10.0755 0.844583 -0.10576)
(10.1153 -0.0621205 -0.0266571)
(10.0068 0.0236362 0.00530351)
(9.94201 -0.00908691 0.00904846)
(10.0029 0.0182002 0.00591575)
(10.0264 -0.0101833 0.0117783)
(10.2089 0.184023 0.0253446)
(10.0017 0.00591261 0.00837445)
(9.98388 0.0120447 0.00840484)
(10.5065 0.885386 -0.329781)
(10.3326 1.09012 -0.376953)
(9.95985 0.00877971 0.00995406)
(10.509 -0.468809 0.0623273)
(9.95899 -0.028784 0.0226131)
(10.4344 0.82823 -0.292158)
(9.97393 -0.065083 0.0222815)
(9.94807 0.0169335 0.00743913)
(12.209 0.196128 -0.588193)
(10.0125 0.0116927 -0.0182667)
(10.4898 -0.529416 1.49992)
(10.0342 -0.00931791 -0.0126266)
(10.5426 0.818971 -2.82999)
(9.98316 -0.00415364 -0.017219)
(10.62 0.116918 0.0129602)
(9.97311 -0.00640306 -0.0215643)
(10.019 0.0190339 -0.0178124)
(9.84077 0.0127726 0.00651326)
(10.0388 0.00370996 0.0195613)
(9.98895 0.00492926 -0.0145415)
(10.3283 0.970136 -0.290759)
(1.57452 -2.01379 1.47066)
(2.0545 -0.633456 -2.55354)
(10.0602 0.052921 0.0198116)
(10.3501 1.49131 -0.885946)
(10.696 0.730539 -0.308729)
(10.7916 0.688036 -0.300979)
(9.99379 -0.0333605 0.0158324)
(9.97246 0.013246 -0.0019914)
(9.98693 0.0200858 0.0133432)
(9.93297 -0.00811291 -0.00963333)
(9.95448 -0.0138082 0.0057283)
(10.1342 -0.209388 -0.0134936)
(10.7944 0.621035 -0.208881)
(9.97666 -0.020363 0.010372)
(10.0381 -0.00133413 0.0121491)
(11.3601 -1.25194 0.342756)
(11.4699 0.52046 -0.191646)
(11.0957 0.557944 -0.151853)
(8.12472 -1.31289 -5.07817)
(-0.0439497 4.60271 0.72845)
(10.5389 -0.293921 0.0600318)
(7.47212 -0.966275 -5.61215)
(-0.0967866 4.35783 1.0628)
(9.86128 -0.175798 0.009215)
(-0.162993 4.53531 0.918044)
(8.97231 -1.32266 1.33233)
(10.023 -0.0251108 0.00531586)
(11.0267 0.640941 -0.316602)
(10.9767 0.695044 -0.343195)
(11.256 0.610128 -0.307584)
(-1.25825 3.61351 1.25863)
(10.1151 0.116216 0.00537873)
(10.0075 0.0181405 -0.00930925)
(10.0052 -0.000342905 -0.0204092)
(11.3289 0.651848 -0.407131)
(11.2054 0.688644 -0.469859)
(10.0607 0.00632643 0.0230308)
(10.0784 0.104066 0.011501)
(9.84204 3.57273 2.79685)
(-1.1519 3.58098 1.25154)
(12.9337 -0.42781 -3.03015)
(10.0066 -0.0135744 0.00810111)
(8.78894 -0.722841 -3.29232)
(10.0656 0.128699 1.17616)
(9.98655 -0.0349709 -0.00866893)
(10.9409 0.430707 -0.0483061)
(11.9483 0.30541 0.273546)
(10.9291 0.342588 -0.0390158)
(9.99531 -0.0161823 0.00482259)
(9.99886 -0.00480522 0.00723976)
(9.9827 -0.00662897 0.000806796)
(10.4603 0.364524 0.0128898)
(9.99954 0.00181545 -0.000338334)
(9.99463 -0.0287287 0.02164)
(10.1547 0.0859273 -0.0330599)
(9.96944 -0.00301841 0.00170381)
(11.0838 0.188661 -0.048581)
(10.0257 0.00577542 -0.0086665)
(9.98974 0.0453502 0.0232822)
(9.99712 -0.0176323 0.00134323)
(10.006 -0.00723809 0.00896166)
(9.95199 0.00585083 0.00890503)
(10.3914 0.319668 0.000596651)
(10.1418 0.0563486 0.00672337)
(10.0639 0.00163461 0.0402186)
(11.0098 0.205473 -0.0506219)
(9.14951 4.20486 2.30903)
(9.96773 0.00610156 0.00322015)
(11.9708 1.56805 -1.37587)
(9.99763 -0.0087248 -0.00173938)
(10.857 -0.164468 -0.0461334)
(6.58452 -0.96508 1.93508)
(9.7584 1.41439 -0.597458)
(9.98657 0.0488985 -0.0204725)
(9.83385 1.49613 -0.668326)
(10.0081 0.0259834 0.00111671)
(10.05 0.00373744 0.0119891)
(10.0646 1.27864 -0.889407)
(9.98203 0.001103 0.0120556)
(10.6909 -0.186946 0.0526507)
(9.93895 1.17121 -0.622411)
(10.2546 -0.0588854 0.039938)
(10.5854 0.0390494 -0.266358)
(8.20946 0.276817 -4.16166)
(10.05 -0.0304033 -0.00374276)
(9.63907 1.89057 -0.613063)
(10.0527 0.00599254 0.0276663)
(9.04458 2.02864 -1.02297)
(10.0781 -0.088102 0.0199957)
(10.0133 -0.0245055 -9.71756e-05)
(10.0005 0.0195708 0.00553042)
(9.98544 0.0158746 0.00677606)
(10.8433 0.99973 0.864716)
(9.96315 0.00829911 0.00424479)
(9.99073 0.0200101 0.00329591)
(10.0406 -0.0296791 0.00211978)
(9.9781 0.0477424 0.0109757)
(11.148 0.58912 -0.00140629)
(10.0591 0.0183875 -0.00133583)
(10.0419 0.023373 -0.000210761)
(8.63904 0.258311 -0.599564)
(9.95926 -0.0105747 0.0324784)
(9.87588 0.091823 0.00533464)
(10.0692 -0.130307 0.031739)
(10.0586 6.35234e-05 -0.00938995)
(10.098 0.0205918 0.0215512)
(9.97049 0.0256436 0.00920689)
(10.118 0.0368716 0.00436533)
(10.3422 1.3218 -1.0321)
(10.0043 0.00964121 0.00703395)
(9.98891 0.00471317 0.00269394)
(3.00076 -0.484933 -5.80913)
(10.0361 -0.00842661 0.0148263)
(10.0359 -0.00188038 0.00576161)
(10.0239 0.127974 -0.0337985)
(10.0048 0.0110009 0.00687957)
(12.6504 1.30057 -0.55647)
(12.7609 0.967886 -0.287525)
(9.95784 -0.0161215 -0.00684302)
(9.96147 -0.0937923 0.0162315)
(9.9047 -0.00481063 0.0173509)
(11.325 -0.0448411 1.25661)
(10.0479 0.0615965 -0.0282751)
(12.7344 1.31372 -0.4765)
(9.9996 0.00647663 -0.00371721)
(-1.11029 -0.995228 2.36664)
(8.17166 -0.536436 -0.694056)
(9.20684 -0.89319 1.87677)
(10.0338 -0.00320119 0.0119536)
(12.6781 1.23507 -0.410152)
(10.0661 0.0371115 -0.0234312)
(10.0928 0.114654 0.0138566)
(10.0186 0.0117381 -0.0625347)
(9.79156 0.0767508 0.153179)
(10.0251 -0.00490285 0.00145494)
(10.0291 0.0389301 -0.0145762)
(6.83346 -1.13181 -0.300158)
(10.0047 0.00484519 -0.0220134)
(9.96034 0.00198347 0.00470266)
(9.9954 -0.00193917 0.0181)
(12.545 1.37359 -0.496762)
(10.0545 0.0156543 0.0222102)
(10.031 -0.00493964 0.00203966)
(12.374 1.35462 -0.554835)
(12.2826 0.768684 -0.151158)
(10.036 -0.00955732 0.0170249)
(10.0161 -0.0072955 -0.001528)
(-0.249469 2.01783 0.746367)
(10.0451 0.000692862 -0.00247982)
(10.6218 -0.34729 0.173317)
(9.98446 0.00229383 0.00763971)
(10.0648 0.0158489 0.039052)
(10.0397 -0.0113608 0.00735826)
(11.9324 0.897672 -0.298478)
(11.1735 0.0601704 1.42353)
(9.27414 0.698852 0.828338)
(9.93248 0.0733114 0.122578)
(10.0221 -0.0455189 0.0195232)
(10.0121 0.00844236 -0.019014)
(12.6317 -0.464268 0.316358)
(9.30279 0.183971 -0.412158)
(9.8152 0.0622299 -0.0233777)
(-0.132877 1.82729 0.495939)
(10.0193 -0.0299469 -0.0184381)
(10.0229 0.0132038 -0.00279958)
(-0.716743 1.72311 0.761973)
(12.0906 1.85388 -1.15989)
(9.87054 0.09143 0.0197665)
(0.0357288 1.92897 0.478186)
(0.0129579 1.96139 0.717574)
(10.004 0.0266937 -0.00695508)
(9.99898 0.0107622 0.00217431)
(10.039 0.00280748 -0.0107834)
(9.6345 -0.37856 0.0312322)
(9.99767 0.00874336 -0.00368006)
(9.97632 -0.00283831 -0.00459435)
(11.1355 0.742345 0.0414447)
(10.0087 0.255263 0.0371619)
(9.94696 0.0360433 -0.00137049)
(10.0576 0.00681139 0.0256485)
(12.614 0.971598 -0.166875)
(11.8483 1.2008 -0.302199)
(9.97032 0.00855151 8.92036e-05)
(10.4064 0.37545 -0.037492)
(-4.3685 -2.67156 -0.324251)
(-0.935378 -2.51229 0.418871)
(10.7602 0.386644 -0.145093)
(9.95565 -0.00208482 0.00771558)
(10.3229 -0.120835 0.126393)
(10.9447 -0.124292 -0.735243)
(9.88117 -0.00181522 -0.00852709)
(9.87919 -2.29831e-05 -0.00491322)
(10.0463 -0.0130955 0.023658)
(10.325 0.148532 -0.00564574)
(9.97955 -0.0129202 0.00698297)
(10.7582 0.201554 0.278013)
(10.0032 -6.68337e-06 0.00489683)
(12.973 0.851496 -0.603688)
(10.325 1.50878 -1.12446)
(10.687 0.371105 -0.0781115)
(13.0047 1.03841 -0.9307)
(10.0895 0.0559794 -0.0113978)
(9.99794 0.00237956 0.00148869)
(10.4885 0.7247 0.149183)
(10.1685 -0.106449 0.0263279)
(10.0173 0.00544501 0.00109492)
(10.0053 0.00668701 -0.00308903)
(11.0315 0.719751 -0.507545)
(7.97266 -0.768795 -1.46132)
(10.0196 -0.0068183 -0.00259545)
(10.8519 0.16678 0.0368997)
(9.98416 0.140216 0.0319103)
(11.8062 -5.39033 -2.14604)
(10.5216 -0.854209 0.914547)
(11.559 -0.0929796 0.915532)
(6.42812 0.816711 0.316788)
(6.2111 0.781021 0.158588)
(10.0622 0.00220666 0.0131754)
(9.89176 0.171987 -0.0152167)
(4.8849 0.660554 -0.179647)
(10.017 0.0132528 -0.00162069)
(9.9979 -1.74803 -3.48288)
(7.22067 0.54753 2.11259)
(9.98459 0.00102268 -0.0023301)
(9.97879 1.07624 0.599282)
(10.0144 -0.0224586 0.00155707)
(10.0254 0.00139885 0.0184537)
(10.0191 -0.000328936 -1.59257e-05)
(13.1832 0.43687 -0.090845)
(9.97683 0.0108644 -0.00380203)
(9.98485 0.00493941 -0.000756364)
(10.0357 -0.0248094 0.00368918)
(9.86694 -0.000588017 -0.03588)
(10.0287 -0.0167045 0.0166788)
(10.0319 -0.00919626 -0.00391571)
(10.0427 0.00777401 0.0301221)
(9.94864 -0.0114437 -0.00297203)
(11.1313 1.03643 0.670699)
(9.7969 -0.030022 -2.94862)
(12.8868 3.46788 1.54104)
(10.7938 0.45991 0.0261762)
(9.73399 1.4304 1.36717)
(10.0322 0.0275164 0.00228046)
(9.36755 -0.978839 0.0839945)
(9.9938 0.0160753 0.00660383)
(10.0005 0.000357576 -0.00919174)
(10.0029 0.00286518 -0.00755929)
(9.99953 0.00107369 -0.0068251)
(9.98566 0.0179063 -0.00197425)
(9.15852 0.363621 -0.885385)
(11.3118 0.646074 0.229223)
(9.98602 0.0137148 -0.00487)
(10.2209 -0.535435 0.116323)
(11.4407 1.5157 1.95946)
(10.0085 0.0273265 0.000593139)
(3.64021 0.194229 1.70394)
(13.1613 -0.994453 -2.91332)
(9.96048 0.0125419 -0.00719772)
(9.36746 -0.583532 0.0350018)
(10.4279 0.0315263 0.0134747)
(10.024 -0.000466923 -0.0239151)
(4.12588 1.12566 1.30486)
(10.0065 -0.00484859 -0.00307182)
(7.56034 -3.06549 0.643806)
(10.0126 -0.0025368 -0.00643236)
(11.5393 -0.156417 1.12653)
(11.9991 0.446592 0.00479213)
(9.97191 -0.0278689 -0.00181158)
(9.95825 0.00114335 -0.00926564)
(10.2048 0.562797 0.0577308)
(8.60238 -0.603598 -2.29755)
(9.94288 -0.016812 0.0101756)
(10.0309 0.0126611 0.019992)
(10.2354 0.000201252 0.00958516)
(11.9541 -0.0829137 0.764829)
(10.0022 0.00445999 0.00254205)
(12.2339 0.417573 0.297711)
(10.3814 -0.0201099 0.0148433)
(0.928 -0.753581 0.221459)
(11.9429 0.376729 0.108772)
(10.3129 -0.0111044 0.0116683)
(12.0565 0.396301 0.22393)
(10.0011 -0.00446056 -0.00304636)
(10.1155 -0.0952167 -0.0132327)
(10.5318 0.383951 0.0246888)
(10.3465 -0.044258 0.000866778)
(12.2522 0.485275 0.124895)
(9.99783 -0.0197318 0.0010622)
(10.0559 -0.21709 0.00687897)
(12.0921 0.447154 0.0641276)
(9.98758 -0.0148908 -0.000629136)
(10.3872 -0.0524661 0.00711605)
(10.0006 0.00678391 -0.0049901)
(10.0192 2.13854e-05 -0.000494505)
(6.89286 0.356529 -5.18448)
(6.71328 -0.14282 -5.77457)
(9.75134 0.0818198 0.384711)
(8.82393 0.330666 -4.22211)
(10.0062 0.00500663 -0.00660221)
(9.98175 0.00474089 -0.00151837)
(10.7933 0.650193 -0.239685)
(10.3717 -0.153741 0.0287656)
(8.41421 0.14656 0.278633)
(10.0245 -0.0163045 -0.0107701)
(10.0525 0.0229121 -0.00950879)
(9.96664 -0.0197028 1.81166e-06)
(9.99681 0.0312313 -0.0112112)
(5.28657 0.232739 -6.43457)
(3.02801 -0.507852 1.32844)
(9.95728 -0.0161332 0.00121322)
(10.0175 0.0471245 -0.00193373)
(9.97558 -0.060049 -0.0186864)
(9.93793 0.00396409 0.00029499)
(10.1316 -0.129284 0.0361361)
(9.94688 -0.022065 0.00038571)
(11.1863 -0.0931694 0.0144217)
(11.7472 -1.38342 1.71001)
(10.0941 0.00139102 0.0132729)
(10.049 0.0262843 -0.0236847)
(9.98296 -0.0302929 -0.0120207)
(10.0113 0.0270116 0.00296118)
(9.73994 0.216775 0.0349587)
(10.0051 -0.0280018 -0.0191594)
(10.6099 -0.19449 0.00482171)
(9.96136 -0.016335 -0.0227535)
(10.0157 0.00252563 -0.0188577)
(10.0584 0.0242235 -0.00109842)
(9.2623 -0.871672 -1.26575)
(5.16859 0.713923 -4.85165)
(10.0378 -0.0652546 -0.0074814)
(-0.158751 -1.91703 0.535566)
(10.1217 -2.63784 1.14753)
(13.0877 -1.28629 -1.07834)
(-0.118564 -2.05145 0.423071)
(10.2697 0.0481376 0.0233062)
(5.44093 -0.250524 1.1175)
(10.4894 -0.481232 -2.59579)
(10.9772 -1.50515 0.414315)
(5.70506 0.308462 -3.81498)
(-0.369062 1.84112 1.26838)
(1.51426 0.619072 -3.62061)
(11.3017 -0.0405072 0.548984)
(10.7152 -0.0262864 -0.0456464)
(10.9531 -0.0160789 1.23421)
(9.92079 0.00659405 0.00154006)
(3.74991 -0.21207 -0.324415)
(10.79 0.00841217 -0.332889)
(10.6442 -0.0244108 0.0206234)
(9.99727 -0.024979 0.0187113)
(10.0139 0.020016 -0.0350427)
(11.3373 -0.0663959 1.15815)
(9.93774 0.114196 0.0486743)
(10.1544 -0.0380956 0.0162862)
(9.96176 0.0529367 -0.00970008)
(-1.13876 1.12008 0.346127)
(8.11556 0.251272 -2.51947)
(10.0168 -0.00545167 0.00495215)
(9.98449 -0.00481334 0.00429156)
(5.05322 0.287737 -2.4349)
(5.95285 0.147138 -3.09542)
(10.9405 -0.662248 -1.62072)
(-3.00387 -3.26086 -1.08218)
(4.01778 0.415607 1.82762)
(4.07771 -0.00697041 -3.92983)
(3.80867 -0.0735092 -4.79488)
(10.0058 -0.00398415 0.00959016)
(9.77756 0.00351495 0.00723301)
(9.46211 -0.0339164 0.0756635)
(10.0073 -0.0260562 0.00648447)
(10.4173 0.0415551 -0.0365795)
(-0.418422 2.0111 0.69329)
(10.9196 -0.087216 -0.255684)
(10.4723 0.0363685 -0.0400258)
(10.3515 0.0405954 -0.0274831)
(10.0568 0.0276557 9.9623e-05)
(-0.340511 1.95178 1.48973)
(-0.481474 2.1785 1.45854)
(10.0449 0.0105417 -0.0234822)
(10.4384 0.00356962 -0.0501134)
(9.93021 0.0378164 0.00830675)
(10.0086 0.0100595 -0.0146309)
(10.384 0.0190867 -0.0300288)
(10.0263 0.0158501 -0.0291833)
(9.70056 -0.0153524 -0.0405731)
(10.0319 0.00890473 -0.032898)
(10.0055 0.00410786 -0.015632)
(6.96837 -0.700609 -3.16475)
(10.036 0.00863986 0.00437026)
(10.0032 0.0195381 0.0300042)
(10.0263 -0.0197445 -0.0145358)
(9.87492 0.0212617 -0.00363296)
(9.89472 0.0233037 -0.00412014)
(4.26127 -0.511663 -2.45141)
(12.5745 -1.3296 -0.490378)
(10.0148 -0.00352624 0.0026696)
(10.8022 0.403163 -0.211035)
(10.0283 0.033302 -0.0115158)
(9.73178 -0.34799 0.116387)
(9.71228 -0.428504 0.171867)
(12.1026 -0.0636446 -0.0530367)
(9.89652 0.00321815 -0.00576322)
(-0.253055 -1.07081 1.85182)
(12.1985 -0.138815 -0.0633208)
(10.4622 0.0843454 0.0124359)
(10.7927 0.361918 -0.0378516)
(8.12867 0.291167 -3.45686)
(11.7205 2.85335 1.21399)
(9.98613 -0.0280594 -0.00360498)
(9.98922 -0.0273796 -0.000831705)
(11.7408 1.65041 2.08734)
(10.0257 -0.012438 -0.0216768)
(10.0009 0.0311104 0.00326076)
(11.0072 0.648946 0.357267)
(9.97903 -0.0295018 -0.00373947)
(9.98339 -0.00305236 0.00167155)
(-2.18048 0.555306 2.33414)
(12.5249 0.362394 0.00500871)
(11.1578 3.33416 -0.229711)
(10.0022 0.000591763 0.00497784)
(7.6806 0.534224 -2.69011)
(9.97664 0.00808292 -0.00198937)
(11.9607 -0.267826 -0.288954)
(9.55624 -0.419285 0.279409)
(12.1494 -0.0796172 -0.0255035)
(9.89911 0.00653337 0.000974819)
(9.36839 -0.456974 0.242511)
(-1.29113 0.164636 2.45794)
(11.7575 1.75717 2.55407)
(12.3893 -0.381409 -0.844261)
(-0.885768 1.69728 1.51869)
(12.1033 0.316397 0.234728)
(10.4473 0.181235 0.0564018)
(9.93443 -0.0142888 0.0108158)
(12.1434 0.141173 -0.22325)
(9.97171 0.0125791 0.00143776)
(12.2876 -0.0909709 0.149086)
(-0.161017 -1.22022 1.13225)
(9.98058 0.0136367 0.000474488)
(12.7794 0.0451917 -1.20211)
(9.9458 0.00282847 0.0215939)
(9.92827 0.000752368 0.0138901)
(11.3455 -1.662 0.451042)
(9.94528 -0.0025458 0.00938948)
(10.1585 0.115838 -0.0197351)
(8.20799 -5.8202 0.125366)
(9.56112 0.419594 0.062001)
(9.99356 -0.246232 -0.00934441)
(12.5867 -0.754046 0.129342)
(10.5127 1.43724 1.37342)
(10.0266 -0.00457497 0.0323948)
(11.8155 -2.56661 -0.851312)
(5.25733 -0.855318 -0.159527)
(10.6909 0.0382298 0.0379847)
(9.62798 -0.730605 -0.882021)
(9.99898 0.0960959 0.0154831)
(10.4587 0.188789 0.0156465)
(9.97171 -0.0104188 0.0102123)
(9.97996 -0.0127951 0.00450267)
(1.12147 1.70605 -0.634203)
(1.05313 -4.28425 1.82359)
(12.3438 -0.55794 0.111124)
(10.1362 -1.64169 -0.390316)
(12.2718 -1.34681 -0.304176)
(1.32523 4.52344 1.14911)
(-1.48462 0.593265 1.24195)
(9.55435 -3.61053 4.32501)
(9.97385 -0.00941017 -1.74791e-05)
(10.0031 0.0119457 -0.00864254)
(9.98956 0.0148358 -0.00331843)
(9.84133 -0.0552274 -0.0427784)
(4.7328 0.846077 -1.30357)
(9.66023 -0.551378 0.166296)
(9.02039 -0.655633 1.0808)
(9.9884 0.020824 -0.00793256)
(-0.626544 -1.59882 0.317129)
(12.2311 -0.0769537 0.0100885)
(10.0561 0.209262 -0.237589)
(10.0864 0.0394213 0.0131224)
(10.0122 -0.0352972 0.0180551)
(10.0852 0.0355528 0.01069)
(6.27904 -1.8427 -3.21457)
(10.0048 -0.00312361 -0.00658755)
(5.42327 5.12476 -0.0270338)
(10.0243 0.00492048 0.000382534)
(10.2257 -0.588213 -3.08832)
(9.98824 -0.00376743 -0.00280286)
(9.9993 -0.00616645 -0.00607513)
(10.0105 -0.0094369 -0.0054361)
(10.0174 -0.00933858 -0.00915688)
(9.98809 -0.0118213 0.00324192)
(12.8064 1.17099 0.288546)
(12.0005 0.259308 0.778934)
(8.99959 1.47906 2.46227)
(7.08569 4.08017 2.47215)
(9.39896 1.19908 0.503662)
(10.4074 0.526846 -0.0594146)
(11.2315 1.11009 0.0378236)
(6.61666 -0.397081 -2.93656)
(10.5583 -0.134618 0.0439511)
(12.3899 -0.204004 0.00286778)
(10.5136 -0.753521 0.135562)
(12.0021 0.0283488 -0.0461021)
(8.12788 -0.143827 4.5368)
(5.44901 -1.55312 1.82602)
(10.5774 -0.244019 0.204319)
(9.99921 -0.00927195 0.00496214)
(9.54483 0.904463 -0.300767)
(10.0048 -0.00543074 0.00966221)
(10.1359 -0.0101194 -0.000567793)
(13.3572 -2.38769 2.81644)
(12.2947 -0.511395 0.798742)
(-1.75998 3.06752 0.279329)
(10.1529 -0.906166 0.254065)
(11.7907 -1.03098 -0.406771)
(10.468 -1.08854 -1.15012)
(10.3989 -0.266654 1.7147)
(10.1827 -0.0140925 0.00955651)
(-3.98871 -3.12294 1.40381)
(10.0166 -0.00223176 0.0065095)
(10.0731 -0.00778651 0.00166207)
(10.4556 -0.0878537 0.895716)
(9.70705 -0.0905733 4.84008)
(10.2015 -0.0241247 0.0137424)
(10.2645 0.542769 -0.408185)
(9.98893 -0.00595817 -0.00093753)
(10.5966 -1.31573 0.619962)
(10.6254 0.0927965 1.18104)
(9.96165 -0.0152908 -0.00125554)
(11.0513 -0.400801 -3.05549)
(10.1833 1.07293 -2.24454)
(12.3673 0.408735 1.50119)
(10.7449 0.507556 -0.132438)
(9.53761 0.124963 0.292474)
(3.14302 0.972267 -3.79524)
(0.466782 3.27245 3.18336)
(5.31017 3.21635 0.767377)
(13.1659 -0.827454 -2.77273)
(5.24285 -0.61126 -0.142191)
(9.80549 -0.00235894 -0.0488679)
(9.88837 -0.0127188 -0.00455657)
(8.37741 1.7388 2.78397)
(9.96135 -0.00998132 -0.00267163)
(4.50402 -0.780418 -0.233674)
(9.84603 -0.00465681 -0.0341133)
(9.83061 -0.0102331 -0.0351807)
(-0.190213 -0.972807 0.746704)
(9.6065 -1.28132 0.858051)
(10.8931 -0.502584 0.136576)
(9.97901 0.00523458 0.00101872)
(9.99614 0.0190738 0.00346736)
(8.29343 0.300347 -2.85531)
(10.0263 0.0162378 0.0218278)
(9.95036 0.000820343 -0.00751846)
(10.0128 0.955566 0.975989)
(12.3614 -0.719562 -2.87165)
(10.2446 0.34506 0.0451132)
(9.89321 0.0666405 0.00484994)