/*--------------------------------*- C++ -*----------------------------------*\
| =========                 |                                                 |
| \\      /  F ield         | OpenFOAM: The Open Source CFD Toolbox           |
|  \\    /   O peration     | Version:  2506                                  |
|   \\  /    A nd           | Website:  www.openfoam.com                      |
|    \\/     M anipulation  |                                                 |
\*---------------------------------------------------------------------------*/
FoamFile
{
    version     2.0;
    format      ascii;
    arch        "LSB;label=32;scalar=64";
    class       volScalarField;
    location    "0.0882685";
    object      nut;
}
// * * * * * * * * * * * * * * * * * * * * * * * * * * * * * * * * * * * * * //

dimensions      [0 2 -1 0 0 0 0];

internalField   nonuniform List<scalar> 
3975
(
0.00474082
0.00501667
0.00430156
0.0071494
0.0071694
0.00232719
0.00624116
0.00598311
0.00723429
0.00708252
0.00723224
0.00293631
0.00706004
0.0023399
0.00698127
0.00438432
0.00447716
0.00445793
0.00384251
0.00298946
0.00235325
0.00234812
0.00409044
0.00482796
0.00408897
0.00726135
0.00136479
0.00348263
0.00517393
0.00370851
0.00546216
0.00336751
0.00238619
0.00347743
0.0029841
0.00370864
0.00380013
0.00569482
0.00370784
0.00392955
0.0037572
0.0040282
0.00384047
0.00678299
0.00486021
0.0068412
0.00694472
0.00686217
0.00182992
0.00248961
0.00338246
0.0054762
0.0022725
0.00161462
0.00214505
0.00202314
0.00269255
0.00187265
0.0018882
0.00225937
0.00203548
0.00120506
0.00187401
0.00214056
0.00562608
0.00281267
0.00299701
0.00606146
0.00238815
0.000485558
0.000749131
0.000139135
0.0007989
0.00476367
0.00465918
0.00403235
0.00463689
0.00321869
0.00334614
0.00389718
0.00711391
0.00548875
0.00453058
0.00353457
0.0066972
0.00247009
0.00388766
0.00450437
0.00492106
0.00321023
0.00658619
0.00551305
0.0027165
0.00414557
0.000740538
0.00485067
0.00390675
0.00109444
0.00333949
0.00122407
0.00698288
0.000975819
0.00187878
0.00146411
0.00680163
0.00233797
0.00407305
0.00326461
0.00389717
0.00204032
0.00367657
0.00384803
0.00380515
0.00379902
0.00329126
0.00345091
0.00348862
0.0035227
0.00158483
0.000975887
0.00586267
0.00204381
0.00337244
0.00309297
0.0014189
0.00176933
0.00338416
0.00288527
0.00277606
0.00277801
0.00288373
0.00288411
0.00381593
0.00389861
0.00394501
0.00303296
0.00272707
0.00408722
0.00259255
0.00703257
0.00447857
0.00720258
0.00612505
0.00636507
0.00168974
0.00628671
0.00710285
0.00284211
0.00396244
0.0027375
0.00166054
0.00336497
0.00351975
0.00264571
0.00111568
0.00117159
0.00394868
0.00442011
0.00575227
0.00320848
0.00711801
0.00644933
0.00322077
0.00254538
0.00594591
0.00289405
0.0033921
0.000305809
0.002666
0.0065779
0.00455412
0.00698553
0.00316546
0.0040087
0.00057308
0.00518064
0.00395543
0.00172833
0.00136238
0.00444009
0.00513459
0.00340391
0.001707
0.00168351
0.00257703
0.00572864
0.00323759
0.00327873
0.00381847
0.0031853
0.00258033
0.00450232
0.00267373
0.00338298
0.00242223
0.0025986
0.00168761
0.006521
0.00607496
0.00634183
0.00282793
0.0068915
0.00515578
0.00637151
0.00597523
0.0060667
0.00313877
0.000897756
0.00597837
0.000316687
0.00669699
0.002222
0.0035712
0.00381092
0.0024725
0.00632317
0.00493452
0.00386828
0.00544295
0.00206567
0.00414172
0.00272556
0.00669446
0.00190802
0.00415047
0.00284209
0.000325854
0.00688796
0.00167088
0.00665845
0.00278183
0.0056131
0.00630948
0.00366876
0.00675119
0.00653141
0.00158934
0.00301651
0.00150694
0.0010809
0.00708492
0.000677835
0.00570694
0.00273225
0.0039042
0.000437243
0.0022086
0.00116204
0.00094154
0.00692592
0.00593832
0.00637416
0.00125233
0.000861826
0.00423618
0.00384736
0.00242376
0.000644337
0.00128188
0.000439356
0.00122278
0.00162758
0.00663212
0.00473067
0.00189541
0.00144313
0.000611975
0.0060837
0.00393671
0.00381205
0.00405486
0.00216491
0.00220932
0.0025364
0.00293141
0.00269199
0.00233495
0.00452081
0.000883646
0.00138134
0.00123389
0.00477092
0.00364159
0.00603984
0.00332932
0.00201475
0.00178254
0.00189583
0.000737228
0.00269677
0.00351336
0.00162575
0.00391518
0.000816691
0.00579968
0.00497045
0.00475045
0.00390458
0.00386545
0.00326606
0.00345796
0.00364934
0.00363615
0.0033155
0.00343027
0.00371712
0.00286378
0.00235858
0.00262153
0.00413609
0.00594707
0.00589531
0.00429447
0.00569319
0.00480242
0.0023948
0.00317999
0.00476541
0.00678625
0.0068179
0.00679191
0.00239873
0.00360831
0.00394653
0.00204074
0.00499624
0.0042591
0.0035695
0.00170413
0.00283822
0.0039368
0.00530932
0.00379964
0.00447004
0.00269492
0.00307613
0.00301446
0.00271137
0.00216426
0.00207834
0.00322988
0.00255846
0.00420766
0.00288444
0.00229895
0.00454884
0.00716322
0.00725555
0.0059389
0.00704393
0.00236732
0.00277303
0.00296281
0.00341821
0.00349377
0.00597095
0.00518303
0.00131334
0.00719604
0.00658836
0.00582599
0.000436591
0.00249782
0.00634961
0.00627546
0.00623347
0.00510812
0.00636603
0.00438444
0.00687542
0.00665834
0.00226433
0.00444306
0.00477475
0.00285004
0.0016106
0.00647643
0.000441619
0.00206707
0.00092444
0.00128024
0.0028775
0.00705745
0.00201868
0.00268652
0.00252695
0.00353122
0.0020402
0.00266869
0.00270702
0.00321529
0.0055625
0.00258022
0.00421692
0.00574413
0.00508266
0.00380105
0.00185334
0.00395425
0.00416748
0.00471598
0.00385789
0.00264282
0.00317633
0.00335936
0.00346437
0.0030329
0.00446773
0.00450294
0.00281026
0.0039102
0.0035754
0.00180397
0.0011588
0.00529311
0.000449538
0.00491961
0.00597506
0.00275068
0.00488574
0.00370858
0.00455577
0.00728695
0.00181596
0.00179576
0.00169617
0.00478308
0.00253949
0.00670613
0.00175628
0.00306655
0.00561957
0.00540498
0.00134049
0.00336078
0.0033989
0.00688744
0.00273206
0.00196281
0.00543535
0.00297893
0.00483962
0.00190269
0.000928378
0.0010611
0.00494755
0.00608378
0.00155601
0.000400363
0.00582329
0.00591559
0.00662488
0.00568405
0.0052831
0.00269523
0.0071776
0.00362851
0.00709126
0.00385402
0.00486059
0.00583789
0.0018673
0.00704226
0.00705911
0.00252922
0.00626091
0.00483507
0.00670857
0.00673535
0.00674815
0.00269736
0.0067034
0.00483456
0.00428759
0.00295523
0.000365038
0.00724664
0.00557098
0.00579582
0.00680336
0.00231775
0.00697486
0.00561235
0.00645808
0.00202915
0.00268842
0.00302463
0.000700963
0.000617804
0.00208888
0.00215053
0.0047235
0.00524182
0.00151316
0.00527307
0.00722367
0.00715731
0.00680174
0.00364231
0.0015655
0.000935136
0.00700393
0.00506759
0.00626749
0.00684716
0.00682017
0.0041422
0.000993594
0.00631402
0.00358832
0.000921086
0.0049045
0.00226316
0.000619808
0.0041544
0.0039718
0.00658447
0.00201596
0.00641219
0.00212263
0.00380822
0.00242622
0.00359945
0.00102355
0.000171956
0.00271554
0.000711962
0.000761042
0.00259896
0.00360718
0.00396601
0.00256192
0.00628517
0.00682564
0.00168587
0.00229327
0.00211151
0.00169769
0.000164314
0.00273926
0.00707232
0.00533952
0.00710707
0.00122384
0.00153912
0.000905818
0.00209308
0.000532889
0.00148863
0.00264681
0.0024754
0.00594006
0.00239845
0.00394881
0.00283489
0.00286037
0.00400865
0.00438107
0.00581111
0.00453745
0.0045259
0.00171375
0.00103749
0.000742487
0.00132424
0.000967864
0.00013009
0.00166309
0.000286017
0.00101876
0.00579383
0.00562197
0.00641732
0.00641487
0.00565054
0.0063972
0.00667116
0.0042491
0.00631248
0.00415012
0.00608417
0.00348989
0.00203455
0.00296705
0.00645843
0.00676545
0.00691057
0.00704133
0.00239575
0.00189404
0.00446518
0.00559463
0.00407965
0.00210748
0.00469958
0.00553608
0.00662385
0.00494856
0.00604335
0.00436239
0.00608649
0.00664229
0.000820852
0.000582225
0.00381354
0.00257178
0.00332266
0.00484498
0.00360241
0.00447823
0.00165628
0.00175955
0.00646967
0.00560084
0.00296628
0.00550833
0.00349012
0.00640951
0.0059047
0.0015955
0.00703139
0.0069236
0.0054624
0.00653035
0.00488834
0.00594655
0.00162329
0.00597671
0.00463632
0.00647839
0.00362046
0.00530346
0.00372617
0.00427469
0.0060581
0.00592476
0.005965
0.00576134
0.00518125
0.00456057
0.00688543
0.00232837
0.00291277
0.00482213
0.00588498
0.00259577
0.00218945
0.00455649
0.00113131
0.00247952
0.00436451
0.00573933
0.00142425
0.000943205
0.00276839
0.000697737
0.00225464
0.000626975
0.000664021
0.00109229
0.000657133
0.000268431
0.00297165
0.000374794
0.000771611
0.000815201
0.000491498
0.000330191
0.00245481
0.00234477
0.00200867
0.00182204
0.00170204
0.00157012
0.00477376
0.0017101
0.00514589
0.00698651
0.00697542
0.00375301
0.00406688
0.0058887
0.00685518
0.00375448
0.00311665
0.0060687
0.00523747
0.00596345
0.00721093
0.00263536
0.00498327
0.00100676
0.00239192
0.0053254
0.00231177
0.00447796
0.00165368
0.00416454
0.00633035
0.00535186
0.000515713
0.00690179
0.00484645
0.000323711
0.00594265
0.00370044
0.00378404
0.00723234
0.00654755
0.00123871
0.00460809
0.00593575
0.00597575
0.00328493
0.00266303
0.00666115
0.0035551
0.00250232
0.00116892
0.00349765
0.00710329
0.00187298
0.00359054
0.00642054
0.00397308
0.00633879
0.00255863
0.00626327
0.00639939
0.00540289
0.00488432
0.00233922
0.00476315
0.0032384
0.00286029
0.00177252
0.00163193
0.00405528
0.000387824
0.00512533
0.00086244
0.00318282
0.00192387
0.00278544
0.000935744
0.00156467
0.00452973
0.00676843
0.00173545
0.00580436
0.00166543
0.00326759
0.00465543
0.00594524
0.00143965
0.00439758
0.00726309
0.00292971
0.00655792
0.00657501
0.0065129
0.00724736
0.00306805
0.00320107
0.0072868
0.0036386
0.00678595
0.00675961
0.00244455
0.00625838
0.0011594
0.00642162
0.00620644
0.0065745
0.00410533
0.00662633
0.00707519
0.00523484
0.00607498
0.0045909
0.00246516
0.000247357
0.00279077
0.00550997
0.00645847
0.00447939
0.00223677
0.00606237
0.00430407
0.00571591
0.00376148
0.00275115
0.000595699
0.00561119
0.00252899
0.00253316
0.00165772
0.00146525
0.00599483
0.00320033
0.00350519
0.00244372
0.00425762
0.00231685
0.000275305
0.00601512
0.00350019
0.00555933
0.000651541
0.00338026
0.00130353
0.00274423
0.00671693
0.00229138
0.00176243
0.00217764
0.000350465
0.00329732
0.00154113
0.00104106
0.00127512
0.00244917
0.00102755
0.0034148
0.000939899
0.00127397
0.00136244
0.00211724
0.00101293
0.00127152
0.00113353
0.00084203
0.000361533
0.00087583
0.000731163
0.00138535
0.000781549
0.00130661
0.000264341
0.00106108
0.00117517
0.000987476
0.000670565
0.000663998
0.00178247
0.00460998
0.00379718
0.00158898
0.00201636
0.0026973
0.00330339
0.00204638
0.0019935
0.00149631
0.00146946
0.00226297
0.004264
0.00136114
0.00137524
0.00188513
0.00197692
0.00362294
0.00110612
0.00122625
0.00241687
0.00187805
0.00302183
0.00293628
0.00448576
0.00705026
0.00469459
0.00470591
0.00282078
0.00596374
0.00322195
0.00325101
0.00569756
0.0062072
0.00240178
0.00169041
0.00251424
0.0039381
0.0032954
0.00331571
0.00383882
0.00691191
0.00677331
0.0035379
0.00424318
0.00344215
0.00336453
0.00334772
0.00326536
0.0036619
0.0028505
0.00249251
0.00520358
0.00514694
0.00441027
0.00325937
0.0022846
0.00131654
0.00143831
0.00141091
0.00120914
0.00130563
0.00457289
0.00395843
0.00295785
0.00278764
0.00166394
0.00339646
0.00431922
0.00371653
0.00227436
0.00253005
0.00288685
0.0034452
0.00255308
0.00177352
0.000751924
0.00336401
0.00160166
0.00382406
0.00395387
0.00684455
0.00689942
0.00245477
0.00284573
0.00110873
0.00267415
0.00311237
0.00131265
0.00195376
0.0015369
0.000716652
0.00270016
0.00314475
0.00264154
0.00145548
0.00138051
0.00144004
0.00251236
0.00255997
0.0024551
0.00268085
0.00255249
0.00212995
0.00269408
0.00255187
0.00250467
0.00435055
0.00383954
0.00442236
0.00476299
0.00514596
0.00513981
0.00512263
0.00660035
0.00569007
0.00488342
0.00620687
0.00665416
0.00627421
0.00676695
0.00607345
0.0071129
0.00728958
0.00538137
0.00624198
0.00706
0.007146
0.00706424
0.00674506
0.0040279
0.00521064
0.0061903
0.0064542
0.00531474
0.00493677
0.00273434
0.00118505
0.00325785
0.00254196
0.00619057
0.0021986
0.00347422
0.00125205
0.00227227
0.00428831
0.00219617
0.00697447
0.00264055
0.00467459
0.00351471
0.00525673
0.00308147
0.000691294
0.00356406
0.00313938
0.0024631
0.00390887
0.00464538
0.00301066
0.00726657
0.0059638
0.00598248
0.00218383
0.00136454
0.00221481
0.000711527
0.00664777
0.00630258
0.00398737
0.00357655
0.00717756
0.00667414
0.00495866
0.0031606
0.00480106
0.0058787
0.00620813
0.00441238
0.00282765
0.00247361
0.00327138
0.00608617
0.00669173
0.00272469
0.00645674
0.000882086
0.00357684
0.00501343
0.0040556
0.00342852
0.00277065
0.00225471
0.00287185
0.00308596
0.00529664
0.00421397
0.0059262
0.00320495
0.00599607
0.00479431
0.00394215
0.0032468
0.00384888
0.00342477
0.00326989
0.00588339
0.00678345
0.0044593
0.00230064
0.00264464
0.00601892
0.0067306
0.00241302
0.00280234
0.00249776
0.00656274
0.00471285
0.00238566
0.00260317
0.00100786
0.00492847
0.00374659
0.00608359
0.00683739
0.00460479
0.00513076
0.00692151
0.00454916
0.00467856
0.00316648
0.00721548
0.00240487
0.00187909
0.0035805
0.00308848
0.00676684
0.00189072
0.00217955
0.00721845
0.001696
0.00103663
0.00389737
0.00381825
0.00616405
0.00438523
0.00396519
0.00427316
0.00460209
0.00684859
0.00467894
0.00604063
0.00706544
0.00717511
0.00263898
0.0049695
0.00380191
0.00695956
0.00058805
0.00209025
0.00163481
0.00155001
0.00324762
0.00416105
0.00615265
0.00601104
0.00367871
0.00349145
0.00456771
0.00336781
0.00520953
0.00606675
0.00571952
0.00121165
0.00596382
0.00376489
0.004571
0.0052057
0.00487614
0.00228667
0.000449066
0.00243006
0.00108143
0.000295686
0.000757348
0.000451082
0.000632856
0.00583006
0.00272049
0.00317248
0.00236743
0.002647
0.000529831
0.00220617
0.0016634
0.000570975
0.00124677
0.00143026
0.00058613
0.00107057
0.00451295
0.00225427
0.00507461
0.00634176
0.00303797
0.00466206
0.00557818
0.00380823
0.00644482
0.00221797
0.000165343
0.00207409
0.00141769
0.00364719
0.00124603
0.0013646
0.00229742
0.00326101
0.00645395
0.00677065
0.00694652
0.00520766
0.0049477
0.0064772
0.0070741
0.00524935
0.00676931
0.00555859
0.00599209
0.00542429
0.00607096
0.00304095
0.00160874
0.00240986
0.00655778
0.00266644
0.00670848
0.00139251
0.00668724
0.00686581
0.00503458
0.000495643
0.000375469
0.00204286
0.0044645
0.00578104
0.00545045
0.00407263
0.0023576
0.00463602
0.00135355
0.0068478
0.00675094
0.0071572
0.00391232
0.00596959
0.00299196
0.0036979
0.00384308
0.00677351
0.00151465
0.00585738
0.00615504
0.0058762
0.00656974
0.00587911
0.00622814
0.00639706
0.00307026
0.0046292
0.00453441
0.00158954
0.00332823
0.00479289
0.00459764
0.00304317
0.00728433
0.00638849
0.00561904
0.00682333
0.00278457
0.0068284
0.003828
0.00131065
0.00013706
0.00577736
0.00679733
0.0049396
0.00377681
0.00580622
0.000481404
0.00332802
0.000262529
0.00162045
0.000818129
0.000891068
0.00292254
0.00112836
0.00216329
0.00689425
0.00633681
0.00127815
0.00686563
0.00230097
0.00042897
0.00069549
0.00270889
0.000557989
0.00148805
0.000554485
0.00340702
0.00724069
0.0034974
0.0047051
0.000546855
0.000614241
0.000991558
0.000948137
0.000818122
0.000328197
0.000552917
0.00368697
0.00515022
0.00312245
0.0051753
0.0019415
0.0041377
0.00489774
0.00384238
0.00179764
0.00713433
0.00285893
0.00520064
0.00576607
0.00214323
0.00454896
0.000597136
0.00248674
0.00677414
0.00289288
0.00508533
0.00388846
0.00381233
0.00374231
0.00499313
0.00391591
0.00359407
0.00290971
0.00592804
0.00635392
0.00559481
0.00667594
0.00173405
0.00691262
0.00523536
0.00178245
0.00460401
0.00311194
0.00672032
0.00223054
0.0059107
0.00246139
0.00360651
0.00108361
0.000990568
0.00314026
0.00335916
0.00212434
0.0017592
0.00208346
0.00162132
0.0023003
0.00394586
0.00312572
0.00650711
0.00655321
0.00529553
0.00343564
0.00354913
0.00463018
0.00533632
0.00465696
0.00130395
0.00416868
0.00175602
0.00233834
0.00140543
0.00212437
0.000842534
0.00243801
0.00565752
0.00610877
0.00231238
0.00582376
0.0061772
0.00559516
0.00663724
0.00536624
0.00726866
0.00344124
0.00637862
0.00641087
0.00618305
0.0027915
0.00266785
0.00650389
0.00545253
0.00625877
0.00602823
0.00335414
0.00680737
0.00591603
0.00355047
0.0016793
0.000565768
0.00222322
0.00541141
0.000175316
0.000927075
0.00230949
0.00151488
0.00247799
0.00311144
0.00466573
0.00585243
0.00350518
0.00476791
0.00140412
0.00123975
0.00450052
0.00647772
0.000736963
0.00367868
0.00147816
0.00435346
0.000895223
0.00148843
0.00181849
0.00122953
0.00428957
0.00282379
0.00194439
0.001485
0.00317833
0.00424326
0.00317138
0.00368866
0.00462044
0.00397516
0.000842493
0.000145149
0.00328285
0.00382851
0.00258574
0.00412593
0.00329996
0.00398419
0.00166932
0.0026786
0.00262766
0.0026322
0.00229654
0.0026904
0.00203907
0.00211008
0.00142986
0.00136757
0.00139655
0.000777364
0.00675535
0.00679803
0.00356315
0.00642035
0.00277091
0.00166141
0.000863149
0.000778491
0.000544153
0.00715406
0.00338921
0.00525513
0.0051878
0.00348273
0.00556512
0.00446835
0.00581585
0.00450784
0.00677491
0.0069073
0.00322606
0.00164214
0.0046467
0.000778624
0.00271199
0.00204519
0.00159168
0.00540703
0.00338899
0.00618683
0.00222935
0.00304371
0.00238921
0.00547634
0.00361779
0.00273598
0.00281113
0.00360075
0.00191363
0.00626751
0.00607981
0.00340617
0.00649293
0.0043657
0.00379286
0.00300476
0.00095689
0.00395434
0.00230052
0.00184782
0.00579938
0.00159134
0.00357828
0.000744644
0.00278633
0.00414423
0.00650879
0.0049157
0.00146875
0.00353067
0.00056624
0.00660081
0.00447168
0.00511922
0.000614023
0.00673646
0.000209032
0.000541305
0.000580904
0.00297686
0.00358817
0.00291824
0.00325942
0.00258958
0.000915157
0.00504309
0.000504949
0.00262995
0.00136477
0.00404895
0.00351825
0.00492447
0.00677883
0.00656686
0.00385247
0.0030087
0.00172994
0.00398209
0.0043144
0.00285409
0.00598255
0.00189071
0.00660606
0.00315515
0.00344136
0.00346021
0.00358031
0.00488431
0.00306856
0.00516544
0.00189263
0.0023712
0.00452468
0.0056811
0.00467956
0.00669565
0.00260453
0.00725247
0.00208566
0.00485967
0.0044633
0.00427781
0.00146115
0.00171438
0.0028851
0.00168352
0.0029045
0.00646064
0.00711112
0.0067693
0.00516005
0.00508173
0.00429784
0.00337048
0.00280251
0.0019535
0.00709891
0.00307705
0.00497788
0.00301358
0.00255352
0.0027329
0.0071847
0.0066817
0.00471956
0.0033288
0.00588588
0.00397587
0.00474365
0.00187544
0.00416112
0.00182555
0.000963622
0.00078216
0.000599523
0.00273739
0.0016996
0.00285028
0.00498284
0.00325375
0.00123475
0.0045351
0.00298854
0.0068455
0.000903271
0.00244173
0.00111748
0.000375657
0.00475482
0.00627492
0.00276862
0.0018882
0.00139616
0.00113745
0.00152274
0.0032444
0.00112416
0.0022731
0.00174214
0.00167371
0.000775785
0.00200148
0.000958998
0.00172571
0.000412391
0.00128115
0.00258292
0.000410086
0.00196286
0.00112214
0.00147511
0.00134607
0.00232043
0.00394519
0.00368092
0.0022422
0.00118041
0.00381389
0.00298697
0.00198829
0.000623559
0.000708002
0.000536068
0.00244647
0.0012986
0.00205096
0.000686811
0.000260838
0.0040081
0.00180409
0.0019528
0.00322359
0.00217279
0.00118877
0.000305861
0.000728721
0.00514463
0.00428222
0.00293476
0.00376606
0.00541551
0.00612066
0.00395803
0.00381153
0.00355516
0.00228948
0.00536777
0.00191347
0.00695288
0.0029827
0.00471294
0.00276289
0.00141074
0.00147617
0.00693494
0.00424718
0.00214323
0.00694128
0.00505557
0.00148692
0.00201489
0.000173496
0.00188379
0.00477944
0.00664719
0.00254484
0.00640687
0.00259183
0.001095
0.00605521
0.00698712
0.00586253
0.00651233
0.00670734
0.00228927
0.00183091
0.00168723
0.00374896
0.0034626
0.0021707
0.00699354
0.00697717
0.00355861
0.00702245
0.00494634
0.00377418
0.00678933
0.00134916
0.000823132
0.00177312
0.00350401
0.00355155
0.00353426
0.00450296
0.00197373
0.00239274
0.00211674
0.00141109
0.00250638
0.00279932
0.00278808
0.002716
0.00284933
0.00320145
0.00421675
0.00308979
0.00425975
0.00396268
0.00420067
0.00405164
0.00078846
0.00361168
0.00372886
0.00587847
0.00281727
0.0030848
0.003872
0.00305421
0.00161984
0.000747308
0.00123653
0.00639256
0.00318928
0.00275742
0.00228467
0.00221305
0.00679617
0.00687223
0.00674426
0.00541109
0.00514182
0.00290001
0.00128652
0.00117461
0.000965266
0.000388125
0.000804822
0.00196403
0.00244087
0.0019443
0.00504032
0.00169439
0.00215632
0.00466012
0.00328271
0.00330182
0.00280979
0.00160253
0.00575554
0.00396847
0.00350741
0.00543164
0.00430052
0.00551338
0.00235089
0.00686682
0.00136956
0.000596062
0.00620659
0.00699902
0.00702037
0.0066068
0.00238213
0.00690291
0.00173885
0.00455799
0.00413714
0.00154966
0.000409087
0.0008734
0.00183645
0.000410855
0.000504992
0.00114452
0.0010566
0.000231123
0.00183701
0.00177723
0.00219224
0.00027891
0.00396792
0.00136209
0.0039145
0.000823957
0.000996508
0.00197647
0.00231262
0.00142085
0.00111873
0.003395
0.0040797
0.000541192
0.001009
0.00026936
0.000247603
0.000142664
0.000980884
0.000888759
0.00167756
0.000271742
0.00195112
0.00187872
0.00429765
0.00307494
0.00642334
0.00624691
0.00687124
0.00406871
0.00394212
0.00227935
0.00463995
0.00188513
0.00638892
0.00293083
0.00386394
0.00415028
0.00539929
0.00515797
0.00154717
0.00517184
0.00139183
0.0028066
0.00574281
0.00616295
0.00668115
0.00475787
0.00451173
0.00519598
0.00697031
0.0033915
0.00422804
0.00394696
0.00120706
0.00200742
0.00522756
0.00693705
0.00452552
0.00244062
0.00174307
0.0021546
0.00650234
0.00498695
0.00327251
0.00674324
0.00303818
0.00203039
0.00358399
0.00484315
0.00122673
0.00494797
0.00478165
0.00323901
0.00497935
0.00310231
0.00443255
0.00364692
0.001601
0.0056048
0.00286609
0.00529474
0.00473456
0.00718023
0.00653791
0.00443987
0.00621196
0.000701611
0.00139103
0.00086127
0.00177182
0.00666571
0.00582628
0.00420834
0.00721261
0.0072102
0.00596949
0.00675165
0.00057974
0.00120997
0.00683068
0.00634989
0.0070504
0.00122792
0.00503551
0.00421732
0.00655715
0.00381273
0.0024349
0.000195891
0.00380334
0.00120034
0.00262613
0.00179248
0.00177377
0.00689407
0.00707554
0.00694964
0.00123555
0.00653012
0.00689491
0.000679837
0.00114388
0.0027269
0.00196921
0.000971021
0.000175138
0.00657433
0.00660477
0.00670632
0.00657702
0.00232913
0.000955406
0.00682576
0.0068027
0.00656199
0.0063563
0.00598073
0.00115956
0.00558073
0.00708939
0.00689923
0.00680631
0.00571461
0.00279881
0.00268786
0.00276533
0.00287636
0.00305035
0.0052048
0.00166749
0.00327414
0.00634987
0.00443075
0.00268862
0.00672938
0.00633494
0.00552097
0.00373481
0.00273513
0.00442925
0.00395212
0.00348054
0.00241701
0.00374339
0.00317722
0.00439378
0.00510641
0.00481521
0.00210334
0.00680584
0.00652679
0.00109885
0.00585355
0.000367994
0.00426023
0.00289809
0.00146641
0.000399265
0.000848143
0.000699721
0.00461354
0.00222066
0.0048128
0.00220965
0.000505527
0.0021645
0.000805011
0.00101286
0.000869064
0.00134646
0.00326915
0.000608386
0.00269127
0.00331642
0.000471973
0.000821162
0.000775824
0.00329556
0.00307568
0.00315462
0.0029991
0.00129497
0.00110707
0.00100201
0.00220155
0.00112946
0.00238421
0.00480053
0.00229949
0.00137692
0.00503798
0.00479805
0.00244393
0.00314204
0.00404301
0.00299685
0.00400324
0.00189453
0.00274984
0.00269478
0.0022793
0.00223579
0.00566297
0.00263119
0.00229565
0.00226689
0.00245091
0.0046902
0.00262872
0.00407286
0.00258896
0.00282783
0.00264612
0.00401332
0.00372804
0.00410081
0.00277978
0.0039325
0.00331688
0.00154683
0.00203557
0.00175608
0.00177002
0.00283027
0.00235549
0.00135178
0.00608569
0.00118889
0.000788321
0.00225514
0.00366991
0.0026022
0.00603562
0.00630888
0.0059657
0.00334941
0.00393319
0.00418954
0.00185195
0.00261783
0.00159546
0.00152575
0.00705903
0.00528525
0.00543601
0.00514652
0.00677393
0.00592605
0.00482245
0.00401318
0.00589921
0.00397262
0.00216784
0.0035763
0.00432381
0.00609973
0.00371047
0.00447843
0.00521503
0.00300628
0.00260204
0.0064077
0.00161185
0.0066035
0.00646991
0.0037139
0.0039466
0.00370595
0.00385893
0.00268759
0.00409222
0.00411928
0.00544801
0.00379624
0.00242779
0.00438247
0.00703004
0.00710385
0.00630152
0.00377426
0.00287002
0.00280457
0.00519148
0.0029824
0.00280717
0.00240388
0.0028292
0.00396827
0.00595574
0.0024819
0.00372955
0.00691454
0.0066533
0.00349317
0.00263331
0.00274718
0.00332493
0.00258807
0.00495654
0.00247448
0.00378869
0.00274401
0.00233755
0.00501591
0.00579216
0.00566795
0.00564626
0.0053096
0.00560332
0.00647795
0.00126128
0.00222315
0.00112843
0.00267786
0.00151711
0.000990436
0.00180087
0.00277821
0.00291201
0.00176796
0.00331339
0.000140354
0.0017099
0.00436377
0.00319785
0.00443183
0.00340376
0.00482652
0.00176658
0.0033839
0.00475366
0.0031458
0.00368231
0.00535909
0.00472713
0.0036027
0.00270272
0.00604127
0.00615298
0.00711068
0.00614269
0.00252206
0.0051452
0.00268964
0.00330162
0.000571052
0.00321039
0.00325223
0.00402337
0.00255194
0.00224651
0.00320009
0.0045279
0.00246898
0.00111572
0.00360342
0.00406614
0.00372545
0.00437339
0.00253984
0.00258442
0.0028528
0.00335059
0.00333455
0.00274754
0.0022099
0.00536569
0.00286035
0.00437545
0.00667465
0.00638378
0.00564332
0.00399033
0.00223868
0.00542803
0.00361285
0.00593909
0.00355512
0.00676523
0.00672641
0.00290083
0.00126347
0.00235796
0.00541535
0.00166518
0.00454826
0.00474994
0.00419003
0.00603786
0.00135545
0.00448885
0.00197159
0.00726273
0.00688339
0.0037804
0.00442213
0.0020486
0.00250019
0.00714405
0.00706862
0.00616514
0.00646787
0.0023261
0.00384255
0.00458504
0.00447236
0.00494083
0.00348697
0.00324378
0.00516421
0.00582985
0.00732296
0.00183931
0.0032335
0.00511337
0.00388675
0.00596199
0.00314595
0.00455246
0.00368453
0.00306488
0.00201374
0.00188815
0.00489597
0.00290009
0.00265171
0.00146887
0.00219955
0.00396583
0.00330651
0.00725705
0.00702122
0.00610812
0.0070516
0.00653308
0.00532911
0.00535113
0.00433835
0.00344505
0.00350147
0.00348718
0.00291146
0.00698916
0.00378134
0.00654262
0.00240623
0.00299788
0.00321886
0.00340205
0.00249102
0.000330857
0.00368914
0.000693561
0.000472702
0.00253228
0.00181151
0.00667589
0.00631108
0.00314911
0.00633484
0.00356493
0.00483099
0.00381131
0.00389451
0.00566347
0.00127372
0.00165123
0.00172121
0.00649287
0.00183447
0.000730952
0.0065706
0.00366372
0.000789745
0.00232446
0.00323146
0.00169641
0.00329644
0.00253362
0.00265115
0.00293038
0.00146127
0.0014111
0.00013603
0.00341483
0.00140589
0.00132917
0.00319291
0.00562695
0.00583931
0.00691433
0.00145147
0.000594289
0.00226047
0.00272974
0.00383495
0.00245522
0.00117088
0.0067413
0.00432198
0.00152524
0.00325285
0.00313823
0.000132178
0.0046347
0.00528927
0.00671683
0.0067561
0.00655343
0.00598505
0.00702702
0.00693975
0.00228086
0.0069194
0.00380921
0.00656006
0.0010137
0.0013783
0.00235993
0.00266998
0.00131846
0.00435825
0.00334404
0.00692145
0.00335271
0.00263352
0.00347875
0.00137672
0.00501431
0.00362272
0.000487836
0.000709989
0.00249004
0.00313606
0.00244677
0.00289974
0.00306097
0.00610083
0.00687378
0.00255809
0.00382799
0.00329452
0.00622506
0.00512787
0.00324381
0.00603994
0.0070336
0.00478507
0.00564094
0.0054203
0.00686124
0.00604469
0.00464703
0.00496264
0.00317832
0.00341033
0.00229535
0.00483877
0.00576172
0.0055029
0.00393157
0.00295598
0.00133007
0.00275936
0.00137612
0.00726712
0.00562222
0.00190082
0.00353266
0.00404363
0.00100171
0.0014356
0.000234481
0.000841411
0.000189438
0.00694137
0.00253936
0.000221816
0.00250484
0.00434596
0.00265336
0.000781486
0.00549146
0.000345719
0.00560818
0.0047753
0.00707621
0.00649173
0.00574669
0.00615677
0.00693627
0.00323654
0.00139558
0.00114784
0.00680158
0.00236075
0.00383828
0.00528527
0.00346595
0.00236099
0.000831209
0.00197672
0.00566218
0.00226556
0.00504025
0.00647612
0.00676619
0.00351179
0.0016798
0.00687943
0.00337852
0.00211136
0.00608322
0.00309076
0.00540677
0.00322831
0.00680683
0.0044499
0.00218801
0.0067555
0.00528741
0.00217175
0.00325116
0.00688923
0.00341909
0.00431687
0.00345078
0.00139878
0.00152872
0.00280844
0.00364968
0.00348842
0.00246836
0.00139113
0.00398524
0.00137936
0.00253114
0.00410884
0.00443063
0.00635914
0.00474768
0.00316128
0.0035916
0.00477755
0.0022523
0.00407764
0.00372862
0.00159611
0.00156982
0.00451337
0.00445894
0.00501426
0.00704576
0.00270089
0.00238259
0.00169429
0.00281708
0.00650538
0.00163275
0.00465396
0.00250866
0.00330096
0.00724588
0.00438436
0.00481788
0.00463447
0.00444683
0.00233952
0.00338563
0.00326863
0.00454538
0.00423956
0.00329763
0.00178076
0.00290515
0.00326003
0.0027991
0.00246506
0.00428163
0.00356565
0.00224986
0.0035469
0.00592791
0.00555127
0.00584685
0.00566991
0.00527744
0.00618276
0.00656322
0.00205814
0.00320346
0.00262382
0.00268101
0.00187736
0.00225792
0.00342149
0.00391292
0.000524049
0.00190076
0.00141823
0.00116924
0.00141417
0.00411975
0.000460057
0.000744952
0.00166829
0.000738787
0.000423509
0.00234274
0.00166556
0.00157122
0.00325723
0.0059842
0.00103601
0.0026304
0.00282668
0.00377077
0.00261406
0.000607327
0.00264193
0.00396503
0.00380948
0.00382842
0.00357319
0.00221334
0.00335047
0.00220525
0.00210724
0.0025278
0.00250023
0.00472883
0.000703013
0.00121219
0.000696337
0.000555544
0.00132419
0.000227658
0.00086873
0.00106633
0.00199483
0.00364089
0.000909558
0.00118682
0.00231588
0.000820749
0.00118228
0.000891232
0.000747177
0.00119636
0.00173826
0.000911881
0.0010425
0.000533273
0.00132197
0.00123916
0.00476987
0.00588328
0.00649686
0.00547229
0.00657333
0.0066214
0.00651945
0.00659384
0.000848842
0.00131367
0.00265258
0.00414088
0.00350484
0.00463813
0.0042569
0.00481583
0.00475806
0.00497608
0.00222681
0.00395201
0.00495973
0.00435108
0.00243937
0.00460221
0.00598313
0.00464184
0.00667116
0.00645573
0.00334411
0.00316067
0.006008
0.00344634
0.00440317
0.00150703
0.00699408
0.00246577
0.00116584
0.00100344
0.00278551
0.00269169
0.00263954
0.00183768
0.00717031
0.00549287
0.00577364
0.0026132
0.00664222
0.00483693
0.0021948
0.00424628
0.00109623
0.00120067
0.00384272
0.00342089
0.00391024
0.00692974
0.00280045
0.000464369
0.000351923
0.00108574
0.0065326
0.00305631
0.00229872
0.00241769
0.00345124
0.000605301
0.00162224
0.0047071
0.00583616
0.00224781
0.000719285
0.0015838
0.000696357
0.00707874
0.000641811
0.00525061
0.006358
0.00662317
0.00491971
0.00628103
0.006258
0.0054142
0.00384063
0.00335429
0.00429237
0.00387992
0.00190486
0.00416801
0.00397256
0.00361151
0.00296804
0.00322669
0.00541018
0.00334348
0.00252072
0.00337164
0.00630347
0.00582141
0.00673331
0.0065715
0.00696798
0.00311617
0.00221412
0.00189253
0.00135653
0.000803973
0.00312726
0.00447752
0.00255479
0.00660177
0.00679143
0.00501668
0.00313559
0.00179456
0.00153369