/*--------------------------------*- C++ -*----------------------------------*\
| =========                 |                                                 |
| \\      /  F ield         | OpenFOAM: The Open Source CFD Toolbox           |
|  \\    /   O peration     | Version:  2506                                  |
|   \\  /    A nd           | Website:  www.openfoam.com                      |
|    \\/     M anipulation  |                                                 |
\*---------------------------------------------------------------------------*/
FoamFile
{
    version     2.0;
    format      ascii;
    arch        "LSB;label=32;scalar=64";
    class       volScalarField;
    location    "0.0882685";
    object      omega;
}
// * * * * * * * * * * * * * * * * * * * * * * * * * * * * * * * * * * * * * //

dimensions      [0 0 -1 0 0 0 0];

internalField   nonuniform List<scalar> 
3975
(
72.2342
54.0352
74.3558
42.5849
41.8517
62.3407
58.9134
62.3935
43.0408
41.3591
42.2907
122.5
41.7426
157.334
41.5866
65.0154
63.4576
62.9069
75.6147
94.8906
164.83
126.662
71.0619
72.6144
72.6962
44.0915
461.64
82.0507
60.0106
76.8565
47.5099
102.312
48.9594
83.7555
98.5315
97.5566
76.3205
51.4839
78.1833
73.986
77.1521
73.2282
73.6072
42.695
68.0525
42.2334
42.3001
42.2573
75.2834
129.798
83.0993
42.0566
50.784
138.186
135.689
147.154
131.344
101.877
86.6758
72.7147
57.0132
598.03
120.594
55.6979
50.9723
141.186
50.3501
47.0597
141.52
1040.25
1019.97
1561.58
761.493
73.6452
65.9698
72.8212
65.9889
69.3896
72.698
67.3931
42.647
49.3615
62.1749
92.2975
42.5483
99.3155
65.7902
43.8505
56.7603
99.1395
44.0526
49.6574
131.644
72.0575
1027.66
63.4915
75.0425
686.825
51.6952
489.182
41.6
354.159
53.281
55.7972
44.2227
151.395
77.6023
61.337
61.6616
63.7117
93.462
73.1425
76.8975
75.9563
87.2464
106.557
107.72
108.771
151.177
64.647
49.3051
173.277
83.7015
124.453
96.9887
147.711
104.744
134.855
130.549
136.569
133.254
127.55
78.2988
74.5426
76.0008
72.501
135.942
72.4074
119.051
48.4377
63.7067
43.5153
51.8713
44.1241
193.701
44.3699
42.7088
131.332
64.0768
122.224
56.7251
108.032
93.1467
65.7077
541.93
57.5189
48.0932
64.9999
42.2858
84.7123
42.5233
43.5696
84.4459
132.702
49.4607
87.9641
92.2276
1109.01
119.032
44.3003
42.478
41.6353
95.7707
66.765
1088.36
42.0153
61.7515
187.142
91.654
65.0485
60.4743
84.4159
116.887
121.635
119.881
52.8831
118.73
86.2391
81.549
130.363
58.8371
65.102
140.188
88.2882
55.9064
112.421
195.126
42.4953
48.9936
43.9099
122.09
41.9062
53.1228
44.0026
46.8856
46.3269
99.0101
858.272
55.4435
845.555
46.9657
140.028
46.0492
86.2915
145.74
46.8525
62.351
79.4646
50.0393
57.4357
68.5575
90.839
45.1757
64.2395
63.184
79.8269
854.339
42.0573
118.661
42.7853
136.687
52.9577
55.4721
86.989
41.9444
44.0899
57.937
65.7642
303.902
70.1259
41.4994
111.323
45.6721
136.467
73.602
826.13
58.8743
71.3358
736.935
41.5429
42.4667
43.9068
70.2224
1057.8
68.469
75.4107
124.74
130.595
637.62
699.756
98.8899
260.081
48.4057
72.2959
118.953
52.602
907.715
46.8552
79.7261
78.3916
79.0107
177.266
180.894
145.303
127.653
115.895
155.898
57.6249
859.974
474.081
545.516
57.684
77.5194
45.936
87.3512
143.82
207.139
156.179
785.484
132.514
98.1611
54.632
74.4408
87.3905
64.4565
72.7021
85.9107
71.0169
112.937
100.862
115.435
103.136
79.628
114.443
121.746
107.592
130.49
173.969
164.439
69.7425
48.7099
48.8074
52.7323
51.5031
59.7152
140.498
66.5795
81.7794
44.2748
43.6475
42.607
116.874
79.0152
72.9404
260.523
66.1219
72.308
80.0418
195.736
125.859
63.6682
62.4628
64.6406
64.6501
171.927
107.587
83.2829
158.946
219.245
225.731
103.088
129.657
72.5731
104.799
91.9192
63.2686
41.3941
44.4694
42.5468
41.4184
136.68
70.7964
102.009
101.901
60.1622
60.2108
53.5751
118.633
46.1397
46.2825
49.5157
838.823
60.4159
45.0017
45.5371
45.7845
75.1174
44.9066
63.25
42.3343
44.0867
178.186
50.6063
72.6382
115.489
77.5364
44.1638
1134.03
245.379
71.8599
507.38
157.721
41.7903
234.995
171.377
176.747
98.6482
249.533
171.868
166.532
91.7721
50.4338
178.296
46.6038
48.0776
54.4911
77.5766
78.7529
75.4363
72.9611
62.1815
81.5762
112.439
91.7989
65.918
89.5199
67.943
70.9431
71.1304
54.4443
76.7324
71.3873
302.618
504.07
51.2994
801.317
66.9936
47.7551
160.545
68.622
83.6878
74.1862
43.1956
269.636
271.033
300.909
65.9323
172.971
43.6619
282.851
139.234
58.6384
61.8981
426.602
73.5294
84.6259
50.1813
107.4
239.356
61.627
95.6742
66.1995
285.898
960.618
981.063
66.2993
48.1116
113.457
987.154
52.8461
49.821
48.5918
51.4964
52.9429
130.132
41.7461
62.7845
43.1152
65.8172
44.6148
47.2024
287.789
43.8623
42.7845
181.214
43.2496
46.4053
42.6704
44.4718
43.1886
165.292
43.1571
43.3475
89.0388
48.4012
493.904
43.3964
44.6743
45.0954
44.047
130.847
41.7737
49.7714
48.4299
144.718
167.567
139.721
744.239
1147.81
142.059
64.2766
48.8993
55.2199
292.456
53.0518
46.0464
43.7907
48.2539
86.6437
344.9
884.222
42.2137
42.9992
51.3907
42.0362
43.7063
63.387
638.241
49.9832
48.0189
72.0789
44.6885
55.0606
1020.05
73.6315
69.2596
43.601
58.7998
43.8603
138.555
83.6006
121.194
96.0222
531.008
545.584
161.489
97.6313
1155.41
47.4128
60.4743
43.0473
53.2779
46.1949
42.0381
71.5446
60.88
53.216
195.11
1004.71
62.6295
42.5184
42.4925
41.3697
114.227
411.828
857.168
60.6735
1044.84
393.939
56.716
185.753
45.8362
78.5807
48.3173
156.245
158.057
73.6439
68.2599
50.2667
67.0302
62.7902
63.3676
204.294
518.981
485.009
831.992
1402.29
301.214
1153.89
825.863
47.7889
43.0337
43.693
43.6573
44.3037
43.8688
42.5424
49.8966
44.3026
71.1697
46.3311
99.2543
79.5108
98.9347
43.6154
42.2134
41.6448
42.6825
49.0519
53.9471
67.1747
43.6147
46.5823
216.944
61.1634
51.1096
42.8402
56.492
46.7954
43.8932
48.4078
48.0681
922.341
119.493
77.4768
100.291
86.0162
66.1549
68.4066
84.8755
70.8148
63.7935
44.0159
50.0562
97.0112
49.747
44.8693
43.4601
46.6761
200.624
41.9716
41.9508
43.9036
43.359
55.9883
46.4663
67.4744
42.679
62.8837
43.3373
79.3468
52.3174
93.8259
44.6106
46.5268
47.2909
44.0336
47.8751
77.8808
63.2111
42.6222
121.846
105.348
43.965
42.522
116.378
141.202
61.7181
144.015
123.245
59.8868
61.2074
433.111
865.021
83.0488
786.195
202.575
194.036
104.641
703.4
466.129
911.535
53.1752
1005.53
780.043
1008.25
904.324
858.052
46.7098
47.6796
55.3533
56.8199
54.8979
50.2819
58.29
235.743
43.1602
42.0849
41.9407
44.2483
71.9926
48.4562
42.6138
79.1318
103.914
49.5858
54.5539
46.4337
43.1012
123.193
57.5552
94.4338
51.739
47.1106
131.157
65.045
302.16
79.1934
50.6491
52.5613
245.224
42.1788
57.3817
941.893
48.7293
108.657
60.1939
42.2931
42.933
496.281
65.1684
49.0425
48.2754
92.8202
45.4122
46.9825
80.9188
113.658
66.0296
55.3778
43.1184
49.9279
78.5528
43.8314
83.8781
43.9985
145.748
44.8904
43.6497
51.012
64.7393
62.5338
49.3714
61.0219
62.8994
53.8823
59.8177
64.2948
676.095
63.4136
559.252
63.3589
255.988
83.6164
979.961
60.1124
48.4882
42.53
99.7684
50.3635
335.367
49.9224
60.6054
50.0974
413.189
65.9616
43.1392
45.7492
45.2141
42.8243
44.0728
43.0161
104.829
43.573
43.1569
77.8557
43.771
42.1409
125.553
42.6488
129.885
43.6355
45.5298
43.6309
73.4263
43.348
47.2067
53.9528
48.1986
63.9948
123.179
778.731
162.722
52.0642
43.2169
67.4653
73.6998
43.0266
65.2031
51.3896
58.5341
61.3386
981.676
43.4088
119.785
176.314
54.7819
67.8025
48.6498
71.7699
71.8812
55.7026
64.6008
67.5916
1057.68
46.1437
50.7031
50.1719
1068.82
89.2628
66.3393
47.853
42.9401
210.251
288.265
105.329
989.213
128.587
121.722
566.415
72.6125
63.2018
74.5985
65.4307
91.0003
484.9
439.494
50.3425
758.91
485.449
559.676
609.284
1068.95
880.532
860.179
463.921
115.507
116.518
847.043
469.356
229.81
872.148
848.481
99.7638
177.029
63.6414
106.828
146.995
177.787
67.849
55.7251
180.886
147.234
398.859
382.635
125.551
79.8624
381.251
379.649
54.4553
153.258
80.8217
76.4842
65.922
68.8148
64.8397
49.1257
49.318
46.1921
43.1599
61.4961
61.2698
51.1026
49.3492
51.862
47.0352
51.2138
47.3619
48.8083
48.04
178.261
74.6058
90.1016
85.8399
66.2248
42.5881
45.1662
108.39
47.3528
81.3635
80.0263
112.189
99.3929
104.072
78.872
127.371
66.0267
61.0414
67.5196
115.368
214.649
443.07
240.235
401.371
396.914
450.786
84.8623
108.395
90.8732
82.1056
57.8147
64.8556
66.2095
74.8806
52.6479
54.0756
53.2571
110.605
87.4202
150.493
650.909
85.9097
196.575
77.0727
75.1477
47.5534
45.1345
57.6897
133.01
84.0041
173.35
142.598
94.3303
119.377
69.2363
735.584
68.7615
55.4958
94.4729
80.3807
102.164
111.819
148.607
132.118
132.608
115.945
78.2389
74.6644
88.6796
123.901
90.2944
62.2101
75.9366
65.5363
59.2547
55.4309
59.0384
58.6543
48.5517
55.6226
60.7613
46.9689
47.9834
46.8027
42.3703
45.9208
41.4118
42.8399
43.3897
44.2976
42.4363
41.7423
41.4301
41.9566
73.0324
53.2424
44.8876
46.914
51.9708
58.1661
169.098
372.2
74.1091
66.9174
59.0356
144.05
89.8991
451.44
178.983
50.9034
133.547
50.0826
109.42
65.392
46.426
53.346
107.359
109.201
53.1417
68.892
71.3834
68.8989
62.2469
104.187
43.2529
48.6922
52.0375
235.122
552.981
52.6311
1162.37
42.6986
44.3517
68.2414
99.9131
46.633
42.6064
55.6842
110.153
58.5959
44.0283
48.759
61.5656
65.8952
74.8199
86.4258
52.5966
42.3222
118.393
43.4931
780.126
92.8216
63.2379
81.0518
126.137
128.119
211.708
158.344
75.4275
64.11
86.0746
58.5276
85.797
57.8415
66.4117
69.4051
81.9269
77.0351
107.137
87.541
51.3216
50.077
74.6267
120.426
125.426
47.3169
42.5025
54.1684
81.249
174.887
43.0277
61.6095
123.509
166.779
78.121
46.3084
53.4875
43.8568
45.5458
57.3403
66.6908
42.3203
62.8221
59.9943
89.328
42.8985
53.1016
52.6837
63.3957
97.2819
43.6076
119.068
112.353
41.8575
331.652
611.894
107.518
73.2045
48.4879
69.5185
109.321
61.1988
62.7899
42.809
87.3001
45.9253
43.8237
45.1549
175.105
51.17
88.2237
49.9307
1227.09
200.579
201.924
394.643
130.937
60.0524
45.2682
46.4293
77.3394
96.6014
66.1037
86.2913
55.2171
46.4028
49.2597
62.0424
47.1594
87.6834
65.4294
53.0207
65.7442
62.2567
170.028
50.5333
603.358
822.716
981.238
917.348
948.3
50.1168
105.336
50.6979
80.7538
52.5991
710.866
118.313
300.099
838.66
448.97
423.328
1223.1
571.731
66.3406
85.4253
55.3229
46.5034
51.9481
66.4371
52.7734
45.4536
42.6495
219.216
924.263
243.336
57.2981
56.8846
288.25
464.976
61.7405
93.1354
47.271
42.0839
41.623
52.9469
56.1189
44.5889
41.8872
52.1105
42.2801
42.7466
46.4115
51.8228
46.6503
44.703
66.5807
49.0856
44.6583
173.333
42.1976
372.821
43.3961
41.9626
55.4384
792.445
809.965
56.1732
46.9049
51.7332
52.9025
71.2989
55.0893
58.5926
469.887
41.8838
42.9235
42.018
43.2832
41.7144
84.6669
55.8064
69.6538
43.7916
70.0858
47.6633
45.3916
47.2237
43.067
47.2322
44.6679
44.7966
101.934
61.2044
62.3647
74.6427
97.5595
58.5251
64.0046
110.125
42.1382
44.0405
51.1388
43.9994
110.56
42.9313
76.0747
111.845
1414.54
48.0973
47.2673
57.9207
77.0978
48.5819
592.176
50.9636
865.679
347.557
178.164
281.567
106.773
560.206
46.9846
42.2078
42.5328
602.737
42.6518
212.841
742.29
960.184
165.026
1292.75
385.019
910.953
109.38
42.7166
82.0749
67.7329
945.505
933.516
789.447
616.742
797.244
772.984
188.293
80.6975
53.7414
92.1924
55.6311
51.4828
74.0372
60.9959
51.873
173.621
41.4771
103.168
55.0539
47.9019
148.953
68.4091
1200.78
106.718
42.5308
47.6421
52.0778
47.8112
50.3606
80.2664
69.8334
51.4117
78.9892
46.0506
47.614
46.0652
51.407
43.4839
193.477
42.0538
52.7702
176.074
61.4489
90.3522
52.2816
216.553
50.975
181.542
62.29
768.941
650.268
60.6457
87.0764
134.54
177.175
137.676
201.902
122.308
73.6725
92.9796
43.7209
42.9327
53.1517
60.6341
53.5461
61.5443
52.32
63.2783
61.6289
61.543
146.572
119.38
59.9268
133.035
102.965
122.367
50.3801
47.8768
94.0968
48.9196
45.3691
51.6628
44.2423
58.3424
42.8714
44.6294
43.9854
44.678
45.4088
124.632
57.7976
44.5547
53.3905
44.8861
46.6904
54.7084
46.5114
47.891
58.325
137.575
623.717
227.269
62.8006
1121.11
758.186
57.1791
216.624
108.908
108.441
60.8609
47.5671
91.552
65.8458
75.5991
63.7659
64.7145
43.8926
814.851
77.6599
363.731
65.9071
890.437
52.6083
80.9243
67.5547
71.3319
107.944
159.862
390.704
87.3543
80.2106
63.0017
60.2934
68.0937
57.4529
1019.18
1024.31
90.0791
80.3821
139.65
69.818
116.803
65.5466
73.0479
114.719
136.897
142.157
210.372
172.494
246.7
195.947
421.438
464.193
438.86
524.643
42.2582
41.966
80.9435
43.6223
113.563
61.9489
178.457
128.694
177.849
45.2299
67.0328
64.8948
68.3636
93.1298
58.2996
96.0864
47.4898
54.6723
45.992
43.2576
131.997
320.303
42.6764
987.275
74.0413
69.198
104.846
62.0405
60.7896
57.8834
217.373
92.8356
125.57
53.118
108.707
96.5671
98.6119
80.8456
56.7581
54.9523
46.0864
81.377
43.308
70.6224
75.8687
65.1014
265.954
70.8123
208.487
265.635
49.6007
107.686
108.505
1041.64
117.394
66.8314
46.7643
68.9305
390.414
55.2105
862.211
43.0312
61.9705
54.5192
871.557
43.6253
942.017
993.047
824.207
91.3493
102.952
64.0455
71.1308
71.6933
827.58
66.3049
1405.1
175.662
418.237
67.2523
72.6494
68.9111
50.0051
53.5886
48.8297
62.7203
188.614
94.9805
92.2992
114.595
50.9547
252.2
45.6937
91.6444
68.5318
90.6688
81.3223
56.8321
92.1683
73.2502
253.537
111.657
58.407
51.5305
63.1236
43.2051
118.767
42.5238
147.22
70.9174
49.2985
43.9995
383.119
183.582
61.7842
314.575
80.0179
43.496
44.9684
44.3977
52.9984
53.9641
68.5671
77.5978
160.127
150.293
43.2562
95.8851
55.9214
119.157
52.4132
115.145
45.5707
42.8495
60.2119
123.901
48.2602
66.1755
72.6267
259.302
71.606
53.7227
827.841
952.789
1080.9
134.507
191.323
114.101
48.4914
51.9349
61.7123
63.5856
97.6845
42.2047
116.414
57.5233
582.285
583.287
42.225
44.5159
55.1385
153.829
57.0202
79.698
56.2606
87.0229
556.476
55.8588
53.9068
54.7679
78.6069
53.0356
734.848
63.4114
814.808
122.983
141.317
1041.67
253.557
696.844
388.235
89.1593
112.644
64.6043
82.9288
59.9539
640.497
70.4699
64.0644
86.3813
777.775
844.109
646.056
98.3354
518.011
121.09
71.876
886.068
69.0727
80.0128
67.3219
63.8544
68.3713
689.882
955.692
844.485
52.1433
69.0195
82.2987
113.146
50.5987
45.3473
49.5878
54.1883
121.509
58.2127
46.6722
65.0964
43.452
109.116
59.0708
48.2533
170.334
61.291
41.6708
42.0906
60.785
41.9816
42.462
61.5873
55.8276
1004.32
60.5014
60.6323
43.4007
130.473
44.6724
132.878
258.784
45.9555
41.4849
48.4863
43.1588
42.6109
80.6256
291.771
300.846
43.9549
44.1853
50.3655
41.5766
41.6579
121.127
41.6778
79.6928
111.191
41.9664
472.902
665.13
307.411
88.7038
115.638
52.1003
74.2648
57.677
48.2792
49.4527
58.0412
51.8505
48.864
129.487
142.401
124.972
102.796
68.0447
99.2136
68.4156
76.3437
69.0975
72.7974
486.888
86.5809
81.2637
47.0106
112.6
100.715
78.6039
104.627
332.901
438.958
115.788
42.1151
42.7905
113.097
131.963
144.932
42.0775
42.1943
42.3566
50.943
53.9426
117.511
64.5176
88.3961
151.75
575.737
197.138
57.3682
60.7652
57.5006
56.7267
198.304
133.77
64.4628
89.8823
88.5129
105.122
206.675
49.567
82.2936
89.4076
53.3718
65.0218
52.2993
138.963
43.9203
254.277
652.889
42.6786
42.2906
42.4128
43.7874
125.29
41.8723
73.3705
64.2927
69.9146
206.616
772.974
900.687
56.5206
1181.63
779.202
547.662
699.973
1015.75
299.726
54.7478
53.5379
488.487
74.9301
72.2972
74.5516
201.934
509.991
272.342
125.434
416.731
593.657
59.4065
54.5801
1223.4
901.687
817.506
887.138
1057.73
906.234
1008.04
56.4769
843.001
57.4018
71.2849
64.4677
64.3588
43.6786
45.0288
43.5878
68.2386
75.0101
53.6372
43.9451
50.5813
45.0732
53.9372
50.9591
45.3547
44.7382
55.9842
52.6305
55.8013
166.633
50.3178
48.5585
42.0304
43.0235
62.0007
60.2656
43.5502
41.5728
54.6783
53.5325
59.1748
86.6014
174.56
61.1424
42.0679
63.3784
123.943
57.2973
240.457
43.5506
43.3609
85.3424
48.9419
102.964
139.853
119.74
58.1184
105.658
59.2581
61.9179
74.0091
57.8897
94.2131
65.7754
79.2878
66.9551
42.5631
112.644
57.2444
61.3755
44.0253
43.1749
65.8436
45.1068
1029.54
408.992
882.75
121.069
42.4371
44.9827
65.1919
42.7651
42.7419
47.733
44.1768
551.399
658.989
42.8093
44.4315
41.8879
58.7928
56.7038
70.0808
43.3182
78.1794
56.6842
948.894
49.0122
83.0051
55.6969
54.8091
87.0605
42.0553
41.5483
41.7407
599.541
42.6577
41.7793
572.269
140.691
64.9891
84.8307
684.712
1041.23
42.9025
43.4663
42.7314
43.6364
76.4803
890.648
42.162
41.9288
42.9218
44.7425
47.0308
444.992
44.9374
42.7676
42.5115
42.3965
53.271
70.4768
77.8557
62.0128
60.7789
98.0322
63.5056
63.4868
87.0257
50.6885
68.573
57.7946
49.542
43.89
49.7662
63.4858
108.187
64.5802
71.3536
80.5815
57.3077
86.3179
52.1286
64.4258
64.3395
66.2746
218.659
44.449
46.7435
96.2382
49.9684
360.44
45.4071
109.933
407.72
1034.39
850.228
1116.6
61.9559
219.762
59.5213
194.268
812.862
107.821
657.735
100.052
433.072
434.642
68.2777
896.184
170.918
64.3759
1337.43
985.706
777.084
75.2216
95.4732
74.6282
64.1495
642.16
123.824
139.387
227.356
97.547
201.974
59.0113
63.8869
88.5695
56.2375
74.7879
89.8485
98.3643
70.1224
132.841
66.2997
73.6051
58.7768
61.6045
204.12
61.1119
50.6886
78.9483
67.3379
112.054
111.125
65.3263
131.531
73.9111
173.802
65.32
83.4601
73.8043
68.174
72.9253
63.5544
75.1738
87.2281
63.1137
67.7554
108.492
65.3577
64.0133
54.2192
121.456
46.8864
86.0257
109.02
53.5408
46.7234
46.4039
46.6749
45.4313
49.4656
88.6059
73.3906
69.2571
71.2662
68.49
341.45
72.3305
41.6091
52.2771
67.5599
49.7122
50.9046
51.1028
53.5241
53.113
52.6867
76.2651
89.9899
84.1272
62.008
51.2219
75.2387
81.8355
61.4825
78.6226
168.657
43.6999
75.3638
42.6458
43.3981
72.0531
69.7107
64.3254
66.777
105.359
72.5376
100.2
58.8084
72.1099
115.643
77.0827
46.2014
41.9286
44.1517
76.2008
56.167
46.6255
43.7693
119.231
160.304
194.287
64.5732
42.6556
53.2916
184.934
110.238
41.7494
49.6414
71.6636
129.473
110.328
123.935
171.385
82.0596
95.0159
74.0568
109.272
138.285
54.1316
48.1387
48.6738
48.5393
52.1564
49.0111
43.1261
139.614
141.933
81.453
54.0918
402.746
790.883
70.7599
162.989
153.565
82.2048
113.536
1530.57
334.887
68.5197
89.6057
67.5791
83.8049
61.5845
129.603
84.0412
72.2116
67.9679
103.889
62.2953
60.2222
73.2178
96.0463
48.2972
46.7614
42.9679
59.0893
67.489
63.2276
159.773
62.5575
819.72
83.8573
127.396
73.5269
48.7876
67.8456
54.5892
66.5025
61.9393
545.264
79.8078
73.8775
77.9294
65.5477
182.885
171.796
71.3366
65.6861
86.3058
105.121
206.695
51.8221
74.4625
67.8028
48.1132
44.1538
50.1049
69.1541
138.013
57.9417
77.309
47.4639
93.9739
43.6096
43.213
63.3629
600.121
63.9486
63.3476
312.714
88.1095
61.0309
74.7524
49.6447
116.807
62.9505
161.645
42.6808
42.0313
65.9443
64.2041
146.675
110.87
45.7379
42.7854
55.9819
47.5648
122.893
58.6063
65.2134
61.633
59.4862
81.6391
93.8765
59.834
48.032
42.7599
166.983
136.36
59.4172
59.393
55.4961
90.1887
64.1627
81.0837
75.0926
238.452
262.414
67.871
145.657
137.438
395.936
139.112
99.4453
47.5183
42.5221
41.2564
49.5897
45.358
42.9466
59.8306
43.8798
80.3366
51.1897
88.8704
62.6018
107.169
41.7771
84.4188
44.8537
55.1993
86.4406
56.0318
59.4728
111.343
725.095
109.333
123.801
1032.21
61.2411
181.302
42.9263
44.6922
52.0283
43.687
45.7736
61.2758
76.3915
76.2062
50.9142
58.0717
58.6024
52.9088
43.9228
62.2731
205.537
43.8908
46.5691
168.507
58.397
55.07
66.6483
56.103
173.287
54.5637
55.9055
80.7005
392.318
1233.02
123.554
64.6446
432.248
85.5477
43.6781
43.5495
41.7304
411.29
1043.32
63.6591
73.4741
54.7804
88.0066
504.208
45.9895
46.5268
382.423
119
70.5491
1075.24
88.1024
52.502
43.1059
42.7027
43.536
43.1584
41.7728
41.8534
62.7327
41.8408
54.9315
44.1309
61.8489
55.982
46.4671
50.8299
53.4118
43.8984
93.4277
41.8159
51.3732
46.4078
124.847
84.3323
56.3673
51.781
1018.63
852.786
158.937
89.0644
156.18
103.568
43.9926
41.8876
41.9651
151.308
71.692
87.0103
45.1179
53.4437
44.4109
60.3687
49.1491
57.9975
49.9397
49.2589
42.216
45.8515
66.8973
55.8761
107.082
96.1401
148.64
58.4257
49.4373
51.9469
70.1979
92.2936
134.108
165.641
109.048
42.7315
52.0013
164.857
73.1739
47.2206
103.159
58.3839
955.84
845.046
926
42.3375
109.342
1871.73
52.7872
50.0288
68.3542
906.964
52.2864
760.42
51.2425
60.0364
47.3443
43.0844
48.2009
45.0375
49.2847
110.983
383.302
527.644
44.3338
126.094
85.9327
51.5513
96.9795
124.413
490.166
151.505
66.2527
223.19
56.1883
44.0534
42.7611
92.8054
303.934
42.1319
96.6963
108.802
46.7329
93.0831
52.007
94.391
43.8745
66.7017
53.9082
48.9634
52.7817
53.3637
90.1786
50.7009
71.6455
65.9814
125.089
233.658
382.584
80.6229
61.7179
83.1368
78.3174
70.7157
74.1665
117.005
55.7359
67.1002
65.014
44.2886
58.3055
56.6651
54.6008
52.5028
70.33
63.9919
86.0423
356.681
136.448
47.7035
62.5736
54.9795
49.2953
51.4305
67.926
183.162
59.8504
44.4142
342.292
64.0296
186.66
123.304
42.0832
63.9936
66.279
67.7698
73.2438
127.344
85.0602
55.1987
66.0336
70.6927
85.8608
170.352
101.266
86.7356
63.7175
191.26
73.9513
48.4857
49.5536
47.0187
47.1119
50.9346
47.2114
49.4953
52.0698
45.0194
43.2007
73.9403
59.5528
52.995
104.262
168.559
66.793
69.6961
50.4356
522.997
71.996
173.826
70.2616
78.2174
52.3125
760.278
95.9862
184.267
395.38
723.277
66.1337
74.2301
67.1576
81.8939
47.4578
755.259
133.527
141.43
112.504
60.4221
925.393
91.9805
75.1282
76.0104
59.6662
52.2594
61.464
67.6618
73.7851
59.1158
171.651
83.1956
77.0082
135.14
233.671
879.653
875.849
396.574
818.822
920.415
582.794
240.273
79.7736
78.5991
84.2691
68.9857
88.4051
91.4849
892.239
758.934
555.468
195.543
910.422
387.306
482.771
87.6098
85.7731
43.3809
44.0746
46.3589
43.7736
44.3882
43.7516
44.7918
43.844
629.278
462.415
68.4196
61.1064
74.8821
65.0384
66.8441
64.6709
64.5272
64.1167
220.597
71.2308
71.9648
75.7454
114.655
61.9199
53.3862
60.8129
42.3624
44.3687
84.2153
132.526
47.7175
96.5898
64.2941
68.2947
41.3599
188.786
93.4784
914.52
158.803
165.217
164.755
277.499
47.1146
50.1917
47.9829
106.023
42.3561
64.2506
135.47
42.4191
90.1016
549.744
108.98
99.4594
83.5744
48.9563
98.4883
214.418
819.73
70.6049
42.7521
116.799
135.883
50.3268
118.997
213.989
51.9139
46.8673
49.9168
48.6539
126.776
93.4853
187.684
41.5199
1176.71
53.7618
44.312
42.812
44.3778
44.6757
44.8083
50.9985
86.4966
47.3387
53.9397
90.8859
167.72
71.2244
73.6578
83.6412
99.78
127.44
45.872
88.361
123.122
51.0173
44.6057
48.2348
42.3739
45.1362
41.9689
60.4343
97.9011
75.4565
116.78
466.622
48.0464
84.5672
116.488
43.8586
42.7604
63.2693
78.6496
82.186
374.707
397.256
42.7803
1385.95
234.431
536.49
561.592
44.8562
43.9963
80.3494
62.3446
45.2239
43.8755
63.0305
42.609
41.5883
42.2101
45.1603
83.3754
232.236
95.1463
113.169
98.8992
102.161
69.5937
50.9612
42.4957
43.9374
61.0471
47.9642
41.9587
85.8082
81.3815
67.6303
81.842
66.9822
66.8967
70.508
62.849
111.703
78.1397
110.568
63.9589
68.3826
43.5321
57.0316
94.2846
65.726
111.474
65.3936
75.7849
44.6274
45.5494
47.9294
41.8154
51.9344
91.1761
76.831
68.1098
72.7106
222.612
217.79
64.2946
54.5353
135.066
71.0381
73.2555
46.8775
94.7819
141.544
164.776
59.1053
43.5853
103.938
44.2909
54.3285
154.993
134.561
63.9171
110.128
69.6123
81.3413
78.9659
144.947
94.103
257.552
63.7648
45.8527
108.289
46.7819
42.52
42.8036
41.5617
49.4417
57.8987
60.0447
46.632
41.3947
42.6746
49.6685
42.0283
58.9017
68.6928
83.5899
74.9407
56.2013
126.634
162.117
83.5557
55.0523
72.1424
217.86
54.898
630.939
44.5648
72.6201
55.3359
60.7655
69.5892
48.4248
48.9151
47.8577
67.8674
89.2631
65.0817
99.6812
53.282
42.0094
52.7962
56.0941
50.5461
41.5695
42.3382
43.95
42.2926
41.9769
110.33
98.8143
70.6811
288.512
54.6882
53.0665
212.765
84.9394
424.227
613.528
866.044
447.739
250.285
48.0136
59.7229
46.7414
42.6942
111.507
72.8615
44.5742
45.6904
42.2709
1263.35
1069.43
52.578
45.0889
322.671
46.6869
46.8777
65.4368
62.4304
257.543
46.3399
51.9934
54.9986
1035.33
816.59
595.866
995.078
51.7188
41.6936
47.5128
47.3308
48.5704
437.01
41.288
45.1684
41.4466
64.5572
43.1286
53.2931
57.8257
54.467
42.1581
51.6832
87.1656
43.4794
388.87
830.216
861.049
42.6635
779.373
1244.51
41.7189
61.2937
1070.11
1047.69
1040.9
116.599
85.5563
66.9785
853.569
1388.16
103.295
45.5979
56
1281.96
796.1
67.2487
65.8346
81.8407
66.2669
41.7591
64.6545
42.963
42.6325
41.6969
42.1959
41.6593
59.5334
49.0528
45.9772
44.6378
50.4866
41.9666
61.0667
105.453
50.5492
51.6978
49.9065
50.227
43.3514
46.3513
75.9507
44.1784
47.1283
45.2903
50.2427
48.2439
44.5428
42.3592
44.5482
59.309
139.613
41.7097
93.1356
51.8589
44.1665
47.3679
416.074
129.812
42.904
50.1511
41.7687
51.0297
46.1191
42.714
50.5207
50.1006
43.354
42.0604
43.6664
43.359
58.8466
1652.37
46.6034
64.7674
49.9718
48.4185
50.7503
54.8527
66.2671
65.3241
75.2833
53.0152
74.8014
72.5469
89.9985
51.4582
526.255
49.9153
43.663
129.426
152.807
78.4114
76.839
107.324
44.8379
41.6501
41.768
52.2157
43.6121
42.5753
43.0346
53.4043
97.0497
87.9697
82.2153
45.4086
43.8314
42.8314
48.6323
41.5607
41.7545
42.195
44.1161
43.2026
167
48.8367
42.9519
53.4236
59.1908
62.6886
67.9902
71.4474
49.9061
90.5336
89.3623
70.8041
61.2793
134.733
69.0046
167.414
72.2153
41.958
60.9207
92.5602
60.2086
59.1581
48.0952
50.7086
963.394
49.6927
48.5303
96.6065
88.0955
120.151
80.2247
66.7688
60.8667
72.8678
43.3867
41.793
47.7961
101.186
42.0707
43.461
42.1395
42.4427
98.4777
45.7467
48.1313
111.735
45.477
110.394
66.566
59.5061
45.1452
49.5346
43.6049
41.6999
41.9346
47.7916
41.5408
47.706
59.176
61.9315
48.6506
49.9208
52.7373
54.7234
51.0136
54.6915
52.9836
44.7723
60.1708
199.244
46.9376
48.9123
84.3388
109.009
53.5345
76.9444
599.615
53.8588
944.711
1565.12
121.997
1648.44
58.0853
70.6487
46.1764
859.828
158.231
180.73
100.229
108.017
49.7561
44.6471
51.8553
48.6055
47.4799
929.964
355.249
95.9182
55.7881
1055.71
196.623
129.04
58.7893
59.0156
53.5192
106.854
733.346
527.104
45.3816
57.2449
187.123
49.5801
89.0124
1048.22
271.306
378.242
71.3015
508.995
598.284
50.1465
1129.85
1041.41
46.6224
51.3
59.754
53.0118
54.9502
57.0428
51.6363
50.9282
55.4051
42.5689
43.5402
49.2569
45.1017
43.315
53.1432
50.514
66.8725
345.956
502.584
726.467
58.9145
60.6869
44.6614
49.2326
50.3835
163.665
44.1558
52.6842
50.3621
56.489
52.5484
50.9111
45.8087
55.0468
138.016
79.0693
52.0008
68.4324
63.7157
58.5706
91.0092
153.681
57.9726
68.4689
336.705
916.151
204.708
79.421
52.2752
50.0375
72.7224
103.563
60.9087
193.588
47.3048
73.4038
50.5622
159.008
73.1684
49.0254
46.6678
67.9694
83.9322
84.1993
45.2032
48.1619
61.6542
62.8992
62.9128
65.9243
158.357
86.9564
49.4591
46.4228
86.916
42.7295
43.9618
102.677
43.8977
43.3135
42.6319
42.5696
42.7972
47.0451
43.4424
45.5346
51.2481
75.8999
60.3126
52.4392
96.9278
1083.04
42.7204
52.242
42.0401
90.7658
973.738
64.4517
123.836
64.5319
50.5675
77.0494
65.2549
55.4987
66.3832
65.4069
63.3042
67.1656
69.4185
74.5645
60.7791
76.082
64.6238
50.1896
43.6192
45.8001
170.651
154.115
91.507
64.4667
70.6256
124.185
109.143
54.861
42.9069
56.5233
57.7513
48.9526
43.9497
61.8355
42.7852
93.9044
69.4429
115.061
98.4603
47.4056
54.6749
91.0354
118.302
52.0594
48.1898
43.5785
52.2101
45.7687
52.1099
52.5973
53.2398
987.906
42.5686
41.7156
44.1885
42.4168
42.2508
45.0104
58.9377
55.3193
42.4044
61.5851
65.3795
130.907
79.3614
993.532
936.85
43.6444
1092.91
43.5719
44.935
42.3431
56.629
48.5707
47.2554
43.6503
42.7462
43.1027
55.1994
42.8815
45.2161
44.4043
49.0589
53.4207
54.0837
59.1496
53.851
42.5222
42.6092
430.775
69.2068
57.3849
43.8892
44.6632
46.1027
51.9789
215.617
72.5673
77.7417
52.7107
59.4714
69.0743
60.7965
111.494
42.8308
164.938
62.0607
118.909
421.48
58.4877
53.5935
77.2473
333.653
54.6198
64.2712
49.6636
63.2194
71.7457
74.6675
72.1083
168.516
777.019
64.8941
53.8094
83.1245
69.5902
78.0157
189.891
477.339
1081.47
62.8083
154.616
90.6684
43.1015
908.741
849.374
43.9512
43.4843
81.6426
122.871
134.437
762.142
47.2281
142.167
62.5534
882.792
62.4709
515.269
83.8075
80.4881
129.849
187.424
121.488
195.112
66.7422
68.9825
72.3093
192.668
69.7739
62.6186
119.474
58.5888
150.002
167.674
92.4108
56.9193
144.843
56.4636
62.5498
199.756
201.976
64.4914
1362.63
45.8134
46.5272
83.8539
47.2309
65.5041
69.5184
54.7573
67.0413
60.1138
63.2845
103.759
64.7296
122.65
74.0589
152.674
186.371
55.3121
51.2349
52.0185
54.7397
58.8159
108.169
62.046
41.4806
415.609
62.0558
134.324
60.9763
124.864
118.205
42.0406
42.1745
58.8225
66.2862
46.153
42.9828
623.802
58.821
1247.52
46.6241
97.3653
50.0428
879.087
99.333
47.6823
425.027
93.2798
484.785
122.306
68.9824
110.234
100.987
64.2802
81.4563
140.029
145.85
123.635
48.3366
856.701
50.4739
53.3171
75.1234
63.2914
101.322
66.4847
61.7673
50.0095
49.222
45.8025
63.5087
111.883
134.444
79.5002
75.6196
81.9905
82.0346
456.573
97.2177
55.1315
129.459
67.7198
561.503
84.4484
109.917
203.59
110.886
80.003
123.543
125.244
43.7594
42.9636
65.0281
64.5766
97.058
143.593
76.171
128.647
47.9749
53.5364
54.5784
55.9636
51.4622
77.7882
59.2794
50.3548
127.005
90.0343
63.0159
72.7695
162.802
225.897
160.098
50.6288
51.1307
119.009
83.6026
160.855
80.6902
107.949
186.036
209.038
59.1752
67.8914
76.733
67.2885
104.682
862.187
119.604
69.6726
66.9168
307.131
170.235
843.324
353.803
435.737
48.5368
49.1243
102.923
84.6883
104.896
48.4916
96.1041
108.545
47.8105
111.609
148.304
42.8242
75.3644
139
65.9176
158.946
56.7123
55.6209
120.422
49.1255
69.253
97.5474
66.1237
52.6127
48.5283
173.697
50.56
44.2676
75.037
65.8866
47.6442
77.4157
86.8913
50.2032
46.7505
60.887
136.054
66.6252
82.8229
95.0682
71.7437
48.7786
50.3035
95.756
42.4434
49.2427
136.147
279.784
135.734
102.865
101.003
47.5786
95.0084
82.2166
620.092
45.8833
78.224
71.2356
47.5452
48.6033
41.6883
123.424
136.496
87.1651
72.5132
47.5136
48.3497
61.4056
148.337
150.015
123.313
54.9673
81.4907
48.7871
159.883
103.702
159.979
396.201
104.295
106.012
96.8535
83.3171
72.4357
48.9427
1226.35
286.13
41.5854
93.3343
48.3796
51.1066
62.38
57.4475
73.0025
42.229
70.8214
103.691
41.9806
42.5122
41.6915
78.0004
41.6052
45.5321
64.8847
47.8751
383.461
50.1423
42.8318
50.8088
80.7116
43.7245
42.1407
43.0339
42.3033
45.7911
47.941
50.7461
54.5639
79.0567
50.1064
63.5468
576.525
46.0128
79.2035
50.0783
57.954
49.7803
42.3068
48.0167
41.9379
794.214
382.348
51.4985
53.5999
72.6431
384.652
62.1084
408.255
463.231
84.6298
75.8438
446.341
54.97
72.6995
158.536
151.513
1395.2
780.71
504.356
276.867
641.701
740.738
768.66
202.936
1130.18
1655.75
459.094
799.163
694.202
90.4892
88.9845
88.9969
73.9055
54.5485
63.7563
79.8433
80.8469
63.652
66.9285
67.2636
696.788
504.914
615.677
400.316
384.065
566.567
469.299
445.106
525.721
1235.02
738.994
63.5768
58.7719
84.2769
253.201
563.516
396.158
204.775
178.859
73.5371
53.4172
68.9977
50.1434
61.5511
61.0788
62.5335
64.1622
67.2285