/*--------------------------------*- C++ -*----------------------------------*\
| =========                 |                                                 |
| \\      /  F ield         | OpenFOAM: The Open Source CFD Toolbox           |
|  \\    /   O peration     | Version:  2506                                  |
|   \\  /    A nd           | Website:  www.openfoam.com                      |
|    \\/     M anipulation  |                                                 |
\*---------------------------------------------------------------------------*/
FoamFile
{
    version     2.0;
    format      ascii;
    arch        "LSB;label=32;scalar=64";
    class       volScalarField;
    location    "0.0207921";
    object      nut;
}
// * * * * * * * * * * * * * * * * * * * * * * * * * * * * * * * * * * * * * //

dimensions      [0 2 -1 0 0 0 0];

internalField   nonuniform List<scalar> 
3923
(
0.00377606
0.00520551
0.00643481
0.00078336
0.000986745
0.000855541
0.000605599
0.00100955
0.00107964
0.00103959
0.000224854
0.00236469
0.00444753
0.00131539
0.00331084
0.00674648
0.00645387
0.00604513
0.00617574
0.00471169
0.00202495
0.00212414
0.00670322
0.00172795
0.00352868
0.00201493
0.00232227
0.00241654
0.00256039
0.00200958
0.00272644
0.00270545
0.00208436
0.000885655
0.000877809
0.000810521
0.00110381
0.00117399
0.000678911
0.00245493
0.000338953
0.00721988
0.000407685
0.00045628
0.0010776
0.000794027
0.00647603
0.00157645
0.00439815
0.000930333
0.000930666
0.000898552
0.00192991
0.00408822
0.00189338
0.00462445
0.00452078
0.00734956
0.00157431
0.00117627
0.00204609
0.000350783
0.00620227
0.00213336
0.00681103
0.00397329
0.0038106
0.0015234
0.00208407
0.000428591
0.0072352
0.0010177
0.00334546
0.0019713
0.0039467
0.00101941
0.00387424
0.000836791
0.000985598
0.00236154
0.00211531
0.000957832
0.00202568
0.00175849
0.000577247
0.00179227
0.00201217
0.00348448
0.0027283
0.000962623
0.00503568
0.00120332
0.00264107
0.00125554
0.00607122
0.00679198
0.00301038
0.00342006
0.00339582
0.00175577
0.00363974
0.00218243
0.00448654
0.00312319
0.00114349
0.0021205
0.000438876
0.000745948
0.000176467
0.000235223
0.00075176
0.000927431
0.00727154
0.00717403
0.000339249
0.000758931
0.000540332
0.00128459
0.000596338
0.000236508
0.00642402
0.000654366
0.00267246
0.00469628
0.00207479
0.00168231
0.00136499
0.000567805
0.000479552
0.00125429
0.00197869
0.00170199
0.00103864
0.00592191
0.00605686
0.00624562
0.00267417
0.00137776
0.00532502
0.002013
0.0017376
0.00204612
0.0015765
0.00549394
0.00475191
0.00727401
0.00172431
0.00158823
0.00422408
0.00597361
0.00661006
0.00212418
0.00245859
0.00292821
0.00398167
0.000589041
0.00410617
0.00357309
0.00140984
0.000281847
0.0015779
0.000413668
0.00353457
0.000233864
0.00100657
0.00506323
0.00418151
0.00598461
0.00538211
0.000846386
0.00617461
0.00706118
0.00331369
0.000478867
0.000468893
0.00714538
0.00611156
0.00135066
0.00275083
0.00658439
0.00319973
0.000650001
0.00700499
0.000730743
0.00262176
0.00192269
0.00657955
0.0039652
0.00586489
0.00466078
0.00117081
0.00312995
0.00375177
0.00349019
0.0017456
0.00111152
0.000442181
0.00139513
0.00133953
0.00144488
0.00151002
0.00169774
0.00202523
0.000935344
0.00317836
0.000483015
0.00590523
0.00132101
0.00573112
0.00139094
0.00171413
0.00212285
0.000309576
0.00343852
0.00122744
0.000214307
0.00672222
0.00568841
0.00114912
0.000581446
0.000450353
0.00153106
0.00157357
0.00147123
0.00128045
0.00612344
0.00518707
0.00353479
0.00328682
0.00403382
0.00293413
0.00464716
0.00323197
0.00680891
0.00275752
0.00536455
0.00442888
0.00331896
0.00340416
0.0022635
0.0032533
0.00463424
0.000664753
0.00300853
0.00107863
0.000437557
0.000420808
0.00365844
0.0038266
0.00310282
0.000839782
0.00178948
0.00360351
0.00327355
0.00189167
0.00227931
0.00126568
0.000368689
0.002894
0.00226786
0.000720065
0.000734814
0.00359668
0.00215108
0.00276618
0.00246746
0.00103805
0.00169277
0.00144953
0.00211138
0.00287869
0.000744444
0.00377922
0.0029847
0.00403322
0.00590605
0.00324136
0.00578905
0.00490802
0.0037699
0.0029171
0.00310303
0.00411351
0.00578927
0.00113575
0.00550535
0.00429098
0.00212732
0.00597557
0.00161494
0.00187922
0.00270853
0.00247257
0.00222602
0.0060156
0.000802059
0.000466131
0.000333409
0.000171291
0.000151823
0.00021891
0.00100698
0.000736542
0.00085222
0.000593496
0.000681732
0.000145911
0.000677053
0.00211509
0.00210832
0.00202648
0.00187393
0.00224243
0.00110784
0.000994519
0.00117401
0.000924011
0.00118192
0.00286019
0.00319548
0.00147363
0.00134518
0.0015314
0.00131575
0.00163574
0.00124929
0.00244166
0.00134777
0.00048441
0.00108089
0.00107647
0.00259644
0.00176154
0.00260069
0.00254963
0.00339735
0.00289326
0.00231991
0.00247895
0.00165461
0.00253221
0.00215429
0.00246507
0.00194674
0.00148275
0.00256945
0.00212824
0.00328791
0.00379283
0.00287602
0.00251555
0.00218029
0.00272182
0.00601781
0.00561858
0.00629805
0.00260884
0.0052669
0.00627088
0.0052045
0.00582221
0.00624106
0.00465116
0.00525676
0.00634329
0.00529006
0.00496716
0.00578533
0.00591992
0.00715759
0.0072123
0.00195327
0.00228989
0.00201242
0.000361517
0.000554651
0.000665225
0.0024619
0.00260822
0.00213325
0.00156486
0.00105857
0.00175223
0.00621662
0.00599708
0.00573654
0.00595315
0.00662062
0.00643526
0.00197476
0.00207285
0.00127877
0.00204804
0.00192415
0.00223735
0.00132653
0.00240163
0.00125341
0.000802293
0.0039815
0.00362912
0.00320709
0.00355161
0.00409886
0.00168333
0.00133675
0.00398033
0.00206313
0.00231099
0.00124269
0.00145956
0.00177747
0.000986012
0.00093463
0.000913866
0.000830941
0.00111339
0.00184696
0.00118501
0.00304266
0.00228504
0.00162722
0.00150521
0.00326866
0.00249278
0.00436031
0.0029729
0.00324163
0.00379409
0.000921468
0.00380971
0.000913617
0.00375436
0.00236917
0.00307155
0.000455208
0.000358071
0.000825002
0.00225619
0.00134374
0.00101305
0.00716207
0.00512168
0.00158265
0.00715141
0.00709632
0.00202526
0.000504926
0.00428242
0.00122957
0.000755868
0.00110665
0.00183332
0.000998373
0.00156676
0.00572616
0.000949476
0.0055765
0.00257852
0.00400318
0.00168996
0.00235925
0.00143182
0.00595221
0.000500683
0.000575028
0.00420466
0.0046331
0.00237363
0.000412756
0.00592668
0.00505056
0.000802073
0.00577233
0.00189046
0.000411704
0.000735081
0.00146301
0.00496297
0.00377993
0.00287926
0.000814984
0.0019497
0.00137514
0.00142335
0.00292555
0.00623108
0.00544224
0.00415836
0.00118902
0.000334888
0.000533868
0.00461734
0.000801742
0.00357955
0.00306573
0.00491662
0.000158015
0.00305455
0.000530386
0.00407664
0.00721101
0.0052519
0.00628737
0.00411144
0.00731064
0.00102638
0.00314957
0.00426603
0.00436176
0.00620759
0.000160162
0.00245525
0.00189692
0.00545066
0.000633953
0.0070613
0.00718063
0.00162066
0.00218534
0.000476422
0.00338229
0.00164998
0.00333694
0.0042901
0.00133833
0.0028677
0.000718681
0.000745519
0.00085869
0.00258128
0.000329914
0.00361279
0.00161504
0.0014901
0.00107889
0.0011703
0.00588675
0.00037364
0.00194837
0.000567463
0.000882431
0.000965921
0.00220747
0.00323842
0.000908706
0.00175218
0.0024234
0.00206565
0.00162778
0.00150981
0.00189429
0.00245501
0.000538811
0.00354274
0.000651107
0.00215562
0.00270869
0.00115378
0.000923971
0.00420276
0.000415228
0.000721392
0.000983046
0.00261136
0.00184814
0.00114697
0.00117944
0.00296224
0.000896562
0.00147212
0.00124883
0.00621615
0.00268337
0.00179971
0.000665434
0.00253229
0.00330826
0.00494609
0.00248915
0.00286349
0.00161063
0.00208891
0.000624592
0.00104778
0.000543543
0.00123611
0.000487285
0.000648609
0.00294418
0.00377581
0.00124773
0.00531748
0.0053123
0.00201166
0.00034501
0.00284847
0.00147099
0.00651831
0.000354345
0.00150689
0.00655008
0.00377201
0.00306998
0.0023586
0.00200426
0.0027578
0.00303097
0.00521291
0.00219546
0.00569776
0.00260155
0.00289769
0.00267433
0.00243972
0.00192
0.00104036
0.00110617
0.00127005
0.00111734
0.00226335
0.000904674
0.000982592
0.00184035
0.00250184
0.00108968
0.00474239
0.00306997
0.00131007
0.000850985
0.00172449
0.00702042
0.00219553
0.00444288
0.00418841
0.0030709
0.000742981
0.00113405
0.00116726
0.00386419
0.00116191
0.00153299
0.00270212
0.000895926
0.00333486
0.000929023
0.0071025
0.00119368
0.000730736
0.00103481
0.00194736
0.000119089
0.000565443
0.000581901
0.00108673
0.000702327
0.00200822
0.00142879
0.000571842
0.00546791
0.00218048
0.00136386
0.0016125
0.00165721
0.00270852
0.00242028
0.00135636
0.000846641
0.00293023
0.00672278
0.00737686
0.00698453
0.00356104
0.00606445
0.00571245
0.00664933
0.00682512
0.00140567
0.00148952
0.00565995
0.00172925
0.00288721
0.00705143
0.00734071
0.00622631
0.00714089
0.00215165
0.00198281
0.00624426
0.00527071
0.0031666
0.00575996
0.00726693
0.00715905
0.00552676
0.00708367
0.000693347
0.00600433
0.00679397
0.00728415
0.00258959
0.00204948
0.00120039
0.00351986
0.000611231
0.00147475
0.00076337
0.000913834
0.000423619
0.000448014
0.000762167
0.000435776
0.00634429
0.00198833
0.00107614
0.000793671
0.00206634
0.000472243
0.00121888
0.0010729
0.000613962
0.000890679
0.00092905
0.00216265
0.00226563
0.000392215
0.00128154
0.0022994
0.00104102
0.000800998
0.000916288
0.00726012
0.00649474
0.0073361
0.00431395
0.00336853
0.00435967
0.00182335
0.00346944
0.00507788
0.00688081
0.00171057
0.00695253
0.00067767
0.00472326
0.00637378
0.0027841
0.00131303
0.00657896
0.00453896
0.0023084
0.0012873
0.00116536
0.00107666
0.00265957
0.00417826
0.00544153
0.00271587
0.00450455
0.00167175
0.00406678
0.00133125
0.000367573
0.00160407
0.00570136
0.00304462
0.000958092
0.00138038
0.00149231
0.00217341
0.003988
0.00302263
0.000593159
0.00078864
0.000795424
0.000974073
0.00133333
0.00108479
0.00323954
0.0012997
0.00510053
0.00147068
0.00170274
0.00171747
0.00463785
0.00390208
0.00130546
0.00183178
0.00164479
0.00243914
0.00271252
0.00360839
0.000712996
0.00598778
0.00671484
0.0012501
0.00295117
0.00220835
0.00226588
0.00287611
0.00136976
0.00527824
0.00499946
0.00100446
0.0054191
0.00691532
0.00245366
0.00533657
0.00596308
0.00553807
0.00454195
0.00628607
0.00302202
0.000390066
0.00116701
0.00308156
0.0058711
0.000299804
0.00208815
0.000809543
0.0048379
0.00538964
0.000644892
0.00161512
0.000226256
0.00284889
0.00587356
0.00561519
0.00311866
0.00453525
0.00509998
0.00603129
0.00247064
0.000592468
0.00103028
0.00288889
0.000577769
0.00156826
0.0016121
0.00155898
0.00204319
0.00335734
0.00139415
0.00098911
0.00473315
0.00146022
0.00657501
0.00426319
0.00227923
0.00599435
0.00319902
0.00396655
0.00679144
0.00582166
0.00471853
0.00350619
0.0046615
0.000655262
0.0033885
0.00248433
0.00169747
0.00196788
0.00678726
0.00346277
0.00176029
0.00152458
0.00252579
0.00421077
0.00357922
0.00516304
0.00425616
0.00447523
0.00333088
0.00688772
0.00553298
0.00153936
0.00148163
0.00118258
0.00107774
0.000587389
0.000709722
0.000831554
0.0012144
0.00107964
0.000611587
0.00225624
0.00246835
0.00284554
0.00373118
0.00141538
0.000676992
0.000993812
0.000148642
0.00113038
0.00138652
0.00134377
0.0013396
0.00117578
0.00118554
0.00133063
0.000763353
0.0012883
0.00059313
0.00157477
0.00224226
0.00260644
0.00219337
0.00403905
0.00084471
0.00271749
0.00225141
0.00134636
0.00694697
0.00631739
0.00664009
0.000458351
0.00114977
0.00173075
0.00630933
0.00436259
0.00510379
0.000621723
0.00201706
0.00217674
0.00249987
0.0013204
0.00464226
0.00115317
0.00155123
0.00205563
0.000898233
0.000788821
0.00168823
0.00106829
0.00152143
0.000558859
0.000907992
0.000357844
0.0010222
0.00157397
0.00038825
0.000441202
0.000212573
0.000914561
0.00598356
0.00722283
0.000697117
0.000865305
0.00447379
0.00279195
0.0026938
0.00192815
0.00152055
0.000583666
0.00105004
0.000292944
0.00237419
0.00259245
0.00134418
0.0021766
0.00288441
0.00165027
0.00137169
0.000354828
0.00145734
0.00171939
0.000439765
0.00120663
0.00133984
0.00157374
0.00128501
0.00310624
0.0034594
0.00132846
0.00553088
0.00694331
0.00581492
0.00145205
0.00247379
0.00392124
0.00121043
0.0020946
0.00276347
0.00146357
0.00500998
0.00268452
0.00452847
0.00554716
0.0052904
0.0026373
0.00732728
0.00596057
0.00714696
0.005893
0.00574289
0.000521372
0.00235761
0.00637217
0.00718142
0.00631024
0.00260318
0.00177406
0.00488595
0.00599859
0.00628851
0.00161495
0.00194228
0.00658428
0.00585436
0.00199783
0.00104327
0.00122964
0.00115458
0.0014849
0.00500783
0.00279482
0.00259588
0.00129903
0.000588765
0.00222297
0.00151735
0.000789582
0.0018577
0.00192369
0.0041612
0.00261728
0.000511243
0.00150861
0.000804245
0.000577819
0.00157075
0.000709381
0.00143181
0.00528223
0.000527784
0.000571433
0.00125861
0.00251711
0.00343281
0.00492464
0.00335446
0.00229182
0.00546833
0.00474167
0.00429897
0.000722661
0.00127629
0.00115383
0.00138757
0.000366881
0.00137689
0.00101133
0.00386019
0.00184209
0.00314468
0.00240118
0.00531446
0.000415076
0.00233923
0.00164034
0.000770018
0.00620471
0.00638321
0.00158714
0.0010082
0.00383806
0.00232588
0.00283124
0.001424
0.000867612
0.000646068
0.00407238
0.000967117
0.000768211
0.00122925
0.0011865
0.00474099
0.00633461
0.00270918
0.000779313
0.000501843
0.00216874
0.000570257
0.00466934
0.0017032
0.000333761
0.00157059
0.00210553
0.000810189
0.000334545
0.000636795
0.00117946
0.0059212
0.00186279
0.00103493
0.00619686
0.00045802
0.00603114
0.00140222
0.00513655
0.00577269
0.00330034
0.00128209
0.00268865
0.00294113
0.00189628
0.00276643
0.00216347
0.00224371
0.00170427
0.00183399
0.00172277
0.00284276
0.00343833
0.0020369
0.00378457
0.000669989
0.00197355
0.000385544
0.00354636
0.00564716
0.000348062
0.000984862
0.000905403
0.000895452
0.00111411
0.00129789
0.00101066
0.00119378
0.00452567
0.00165258
0.00134891
0.000418961
0.00157824
0.00153377
0.00106888
0.000494255
0.00261003
0.00088636
0.00043971
0.00122399
0.00202881
0.00152872
0.00230705
0.00102403
0.00175962
0.000891309
0.0031151
0.00188363
0.00183202
0.00106486
0.00265611
0.00362165
0.00153486
0.00226735
0.00365617
0.00318992
0.00174148
0.00301591
0.00150043
0.00239866
0.00206114
0.00386302
0.00142913
0.0018773
0.00110314
0.00106143
0.00119984
0.00149632
0.00145479
0.00223193
0.00156161
0.00169021
0.00247942
0.00191233
0.00139616
0.00139252
0.00103099
0.000872859
0.00189995
0.00243548
0.000642937
0.00108648
0.00105103
0.00133552
0.000720621
0.00348057
0.00339941
0.00707339
0.00572439
0.00382889
0.00416583
0.00555932
0.00570344
0.00627497
0.00667208
0.00736216
0.00730513
0.0068624
0.00559937
0.00734072
0.00669444
0.00716684
0.00688614
0.00350906
0.00546568
0.0065241
0.00456852
0.00720121
0.00402232
0.00638866
0.00591445
0.000886859
0.000772783
0.00389402
0.00423016
0.0060388
0.00513796
0.00423269
0.00436426
0.00159088
0.00027796
0.00723753
0.00347033
0.00589404
0.00104725
0.00142605
0.000531685
0.00147046
0.0014982
0.00109145
0.00108606
0.000399834
0.000417653
0.000568993
0.000626697
0.000784666
0.00103783
0.000443293
0.000310228
0.00189637
0.000170825
0.00145261
0.000274038
0.000598375
0.00015377
0.000417492
0.000696493
0.000731251
0.00286027
0.00132738
0.00242556
0.000586718
0.000762011
0.0015696
0.00472502
0.000667676
0.00034577
0.000429885
0.00111501
0.00159046
0.00644692
0.00395114
0.00667016
0.00371105
0.000468665
0.00213268
0.000560313
0.000359865
0.000677279
0.000193546
0.00712638
0.00723714
0.00228967
0.00643388
0.000640439
0.00608186
0.00187321
0.00235896
0.00167364
0.00196055
0.00294451
0.00350463
0.00555973
0.00321938
0.00438348
0.00554728
0.0012584
0.00111635
0.000709914
0.00601718
0.00678261
0.00596994
0.00633657
0.00475599
0.00218917
0.00287584
0.00634693
0.00260258
0.00326849
0.002874
0.00102299
0.00301289
0.0014531
0.00454446
0.00103868
0.00725185
0.00656691
0.00737244
0.00140343
0.00538435
0.00181229
0.00518268
0.00533883
0.00558091
0.00674303
0.00615705
0.00337851
0.00264257
0.00190931
0.00150502
0.00310833
0.00469855
0.00192413
0.00212848
0.000837045
0.00166045
0.001648
0.00277534
0.00610067
0.0059957
0.00416826
0.00733638
0.0062571
0.00595589
0.00108321
0.00178109
0.00181594
0.00361131
0.00175727
0.00257114
0.000349079
0.00212922
0.000384039
0.00338584
0.00108682
0.00398518
0.00573168
0.00591115
0.000668445
0.00561886
0.00124086
0.0048866
0.00521381
0.00161241
0.00147666
0.00218339
0.00735437
0.00385582
0.00306372
0.00254564
0.00428013
0.00348899
0.00527261
0.00430586
0.00429303
0.00482139
0.00078779
0.000986238
0.00127242
0.00107825
0.000814771
0.00126864
0.00121754
0.000791171
0.00264345
0.00341537
0.000596105
0.00092344
0.00120318
0.000525081
0.00104353
0.00103512
0.000518105
0.000485554
0.00121585
0.00144978
0.000792358
0.000431625
0.00150387
0.00184491
0.00228234
0.00168918
0.00222575
0.0016958
0.00536736
0.0014521
0.00449143
0.00104998
0.00638353
0.00116631
0.000768191
0.00440599
0.00576683
0.00301417
0.00266394
0.0020738
0.00544413
0.00665162
0.000379061
0.00172936
0.00199364
0.000503568
0.00222609
0.00489257
0.00252488
0.00410268
0.00125923
0.00199701
0.00397896
0.000403421
0.00400392
0.000214186
0.00168518
0.00231275
0.000793984
0.000627807
0.000852618
0.00119212
0.0014222
0.00182023
0.00148685
0.000901576
0.0074034
0.00370989
0.00381706
0.000894048
0.00244691
0.00492359
0.00542482
0.00106316
0.000636095
0.000830455
0.000165864
0.000690814
0.00151746
0.00149188
0.00155559
0.00622537
0.00687272
0.00657866
0.0046167
0.00339141
0.00693786
0.00614696
0.00187318
0.00124093
0.0018646
0.00585744
0.00630448
0.00334292
0.00531564
0.0022929
0.00610201
0.00632635
0.00413833
0.00420555
0.00203003
0.00368161
0.000565198
0.00350849
0.00242236
0.00134769
0.00414443
0.00356428
0.00639553
0.00534854
0.00207301
0.00225965
0.00155256
0.00294889
0.000157331
0.00192667
0.000520103
0.000959244
0.00328684
0.00104127
0.00216096
0.00170365
0.000521407
0.000916978
0.000887528
0.000527104
0.00123157
0.0019407
0.00144286
0.00131249
0.00191338
0.000884462
0.000393891
0.000187605
0.00166254
0.0011997
0.00702471
0.00360745
0.00187941
0.00107871
0.000810551
0.0023743
0.000406945
0.00109959
0.0014712
0.000648876
0.00280821
0.0015965
0.00441598
0.00643485
0.00261931
0.000733041
0.000404383
0.000634939
0.00660197
0.00173743
0.00107684
0.000850387
0.0020068
0.000961156
0.000136498
0.00153348
0.000277444
0.00173284
0.00117339
0.0051049
0.000578684
0.00582813
0.0010177
0.00114323
0.00134916
0.00163232
0.00114164
0.00161058
0.00297735
0.00327549
0.00039127
0.000872061
0.00139085
0.00595282
0.00322077
0.00132888
0.000907227
0.000319055
0.00023685
0.00657075
0.00152056
0.000578725
0.00603798
0.00120733
0.00147827
0.00627124
0.0066109
0.0016653
0.00068222
0.000476344
0.0014946
0.00145091
0.000389672
0.000591406
0.000729364
0.00113187
0.00105564
0.000793496
0.00229095
0.00145047
0.00124541
0.00387821
0.00465609
0.00228729
0.00429347
0.00484105
0.00442839
0.00220353
0.000337601
0.000132453
0.00130678
0.00177311
0.00272222
0.00108086
0.00153305
0.00166246
0.00236197
0.00312006
0.00228201
0.00331647
0.00532356
0.00494902
0.00313165
0.00471146
0.00180862
0.00196382
0.00163583
0.00161273
0.000846924
0.00152377
0.00200862
0.00166897
0.00133529
0.000452795
0.000408415
0.00161422
0.00104413
0.00102003
0.000738379
0.00194834
0.00140099
0.00194774
0.00274441
0.001742
0.000857137
0.00148889
0.00122287
0.00132934
0.00093824
0.00144145
0.000629282
0.0063209
0.00688094
0.00326386
0.00110131
0.00141818
0.00211027
0.00202989
0.00224687
0.000880656
0.000534707
0.000587235
0.000975836
0.000535268
0.000853209
0.000928005
0.000226284
0.00120995
0.00128674
0.00147221
0.00167913
0.00176673
0.000331574
0.00256301
0.00604399
0.0023711
0.00421508
0.0021183
0.00123205
0.00484691
0.00163367
0.00256738
0.00339402
0.000900828
0.0031369
0.00129922
0.000829832
0.00110297
0.000927897
0.00289925
0.00133903
0.00395261
0.00458329
0.00185146
0.00483839
0.00282869
0.00105551
0.0071452
0.00716053
0.00526294
0.00465215
0.00457155
0.00704615
0.0073092
0.00424135
0.00121704
0.00123283
0.00320656
0.00140178
0.00319069
0.00171202
0.00123586
0.00537671
0.00442726
0.00721108
0.00407588
0.00727458
0.007122
0.00253289
0.00373273
0.0031788
0.00644782
0.00095191
0.00472589
0.00492399
0.00674788
0.00693882
0.00385289
0.00402854
0.00483397
0.00448526
0.00693692
0.000339633
0.00144742
0.000850029
0.001246
0.00143222
0.00151098
0.00105924
0.00137441
0.000727583
0.00078512
0.00241078
0.00110206
0.000865623
0.0014766
0.000498651
0.00214281
0.000477266
0.000271135
0.000906584
0.000550816
0.00101817
0.000950362
0.000463608
0.000347682
0.000481483
0.000367278
0.000329547
0.000517372
0.000996493
0.00137389
0.00342438
0.00156528
0.00295388
0.00082518
0.00132904
0.00104966
0.000529805
0.00165736
0.00083913
0.00071176
0.000367101
0.000859413
0.00388922
0.00450503
0.00523733
0.000489008
0.00170664
0.00639389
0.00507397
0.0064308
0.00665041
0.0066888
0.00719465
0.00495723
0.00641194
0.00472108
0.00118295
0.0057902
0.00289427
0.00570092
0.00438292
0.00621975
0.00436384
0.00265574
0.00224394
0.00187104
0.00486663
0.00507652
0.00660968
0.00639051
0.00731024
0.00687478
0.00371178
0.00552169
0.00703954
0.00736679
0.000833546
0.00090809
0.000823685
0.0035477
0.00161784
0.00126049
0.00159642
0.0010553
0.00167848
0.00163963
0.00145211
0.00171781
0.00164454
0.00136196
0.0011487
0.00116164
0.000727957
0.00182186
0.00335498
0.00434524
0.00108376
0.00193937
0.00263709
0.00270627
0.00174814
0.000829894
0.00105329
0.0023493
0.00290105
0.00185841
0.0023934
0.00367161
0.00106649
0.00410401
0.00242392
0.000846441
0.0032669
0.00244191
0.00347836
0.00556778
0.00395945
0.00243154
0.00466271
0.000461231
0.00232799
0.00238351
0.00227173
0.00465924
0.00223868
0.00302985
0.000508135
0.000953069
0.00127271
0.000278825
0.0052745
0.00381641
0.00715627
0.00702141
0.00591356
0.00304316
0.00228921
0.00202542
0.00688464
0.00122169
0.00145519
0.00100212
0.00457546
0.00244351
0.005101
0.0050298
0.000623713
0.00115769
0.0058829
0.00689631
0.00256804
0.000237026
0.00300885
0.0051931
0.00280955
0.000185522
0.00635594
0.000899469
0.000724468
0.00126981
0.00179865
0.00267374
0.00077004
0.000630813
0.000701722
0.000885174
0.000571507
0.00135617
0.00161552
0.00269907
0.00299748
0.00247525
0.00351018
0.00675686
0.00181089
0.000950433
0.00220625
0.00452501
0.000832425
0.00195611
0.00219829
0.0019583
0.00174024
0.00677026
0.00697083
0.00688792
0.00709378
0.00639696
0.00722027
0.00596185
0.00649821
0.00245083
0.00239215
0.00364204
0.00555622
0.00305649
0.000389847
0.000287769
0.000665243
0.000484463
0.00173629
0.00166752
0.000877672
0.000724339
0.00111323
0.00233616
0.00115096
0.000171488
0.00130444
0.00420154
0.00369764
0.00490051
0.00450381
0.00111375
0.00152126
0.00200942
0.00203478
0.000422152
0.000764628
0.000758986
0.00235151
0.000946088
0.000898969
0.000987332
0.00608177
0.00625066
0.00386569
0.00362187
0.00398193
0.00175927
0.00155492
0.0043485
0.00141512
0.00149339
0.00204459
0.00307398
0.00368706
0.00165602
0.00176474
0.00198532
0.00553484
0.00573936
0.00727613
0.00672756
0.00432086
0.00653855
0.00369196
0.00727492
0.00450069
0.0046594
0.00338754
0.00386652
0.00416305
0.00673163
0.000539102
0.000771143
0.00103292
0.000179761
0.000311065
0.000450891
0.00142574
0.00101455
0.00125004
0.00232317
0.00137289
0.00733644
0.0072276
0.00249292
0.00201645
0.00151999
0.000817646
0.000474545
0.00293509
0.00141141
0.00252174
0.00225859
0.00203169
0.00229228
0.00153689
0.00245125
0.00386431
0.0020384
0.00130129
0.00294853
0.00402226
0.00560856
0.00251483
0.00093246
0.00148559
0.000945735
0.0012721
0.00202956
0.00197631
0.00111076
0.00264692
0.00337848
0.0013261
0.00723477
0.00681962
0.00513509
0.00705997
0.00131965
0.00118779
0.00111408
0.00173394
0.00101636
0.00105932
0.00127304
0.000784851
0.00110494
0.00123167
0.00132893
0.00100726
0.00154082
0.00143751
0.00145314
0.0016978
0.00397272
0.000556769
0.000483678
0.00166195
0.000790107
0.00315985
0.00161359
0.00176653
0.00198499
0.00310347
0.0026828
0.00083301
0.00660966
0.0013584
0.00111079
0.0051573
0.00285445
0.00617141
0.00153897
0.0032712
0.000865222
0.0023486
0.000950549
0.00107103
0.00189985
0.00102369
0.00578677
0.00676791
0.00692159
0.00315443
0.00478569
0.00685083
0.0067208
0.00412398
0.00672141
0.00505685
0.00198767
0.00115082
0.00423822
0.00304172
0.00180772
0.00375734
0.00237414
0.00203989
0.00585908
0.000692846
0.00161817
0.000735379
0.00326611
0.000719827
0.0022143
0.000575792
0.00246517
0.00118079
0.00160548
0.00275912
0.00133179
0.000542739
0.00307778
0.0031035
0.00629339
0.00355602
0.0010614
0.00314643
0.00622289
0.00632669
0.0065298
0.00368982
0.00625396
0.00506007
0.00538557
0.00254008
0.00529016
0.00476804
0.00523762
0.00495403
0.00181475
0.00425532
0.00674239
0.00173465
0.00168627
0.00145519
0.00150125
0.00235984
0.00632198
0.00625067
0.00301199
0.000473834
0.00579544
0.00221019
0.00604183
0.00229644
0.00212208
0.00563656
0.00543951
0.00179274
0.00315773
0.00226296
0.00145201
0.00394699
0.000600601
0.000595268
0.000523249
0.00193512
0.00216315
0.00148242
0.00141199
0.00183426
0.000885585
0.00136791
0.00272195
0.0010642
0.00264476
0.00134847
0.00146559
0.000944733
0.000915752
0.000975965
0.00735433
0.00142334
0.000562876
0.00296891
0.00191464
0.000276525
0.00221777
0.00148196
0.00559617
0.00137352
0.00277935
0.00530582
0.00580644
0.00297748
0.00176311
0.000930316
0.00114344
0.00289786
0.0017424
0.00386972
0.00110981
0.00159452
0.00181291
0.00689263
0.00508247
0.00641497
0.00680443
0.00350905
0.00434811
0.00620813
0.005517
0.00636599
0.00100523
0.00250641
0.00201657
0.00174394
0.00287141
0.0016897
0.00169701
0.00184528
0.00206104
0.00254284
0.00120767
0.000844126
0.0012029
0.000369971
0.000643799
0.00614779
0.0022841
0.00487662
0.00382338
0.00487985
0.00338912
0.00232528
0.000982852
0.00187942
0.000846315
0.00130936
0.00113538
0.00321075
0.00185132
0.000609628
0.00118787
0.00153663
0.00140043
0.00248432
0.000955596
0.00184328
0.00251848
0.00217229
0.00224805
0.00265971
0.000732192
0.0023304
0.00197712
0.001542
0.00149319
0.00174975
0.00112997
0.00101442
0.00383477
0.000855331
0.00260051
0.000912109
0.00143513
0.00192846
0.00404614
0.00334296
0.00549771
0.000352764
0.00655048
0.00141793
0.00584844
0.00119069
0.00126036
0.00103935
0.00117206
0.00199724
0.00203954
0.0019056
0.00100598
0.000839508
0.00226823
0.00187614
0.00331679
0.00220452
0.00266792
0.00155346
0.00111419
0.00183508
0.00128823
0.00114078
0.00113596
0.00119436
0.00162611
0.000860021
0.000714364
0.00223806
0.000747481
0.00054004
0.000502756
0.000670603
0.00465041
0.00314768
0.00565745
0.00188503
0.000946438
0.00199507
0.00287768
0.00168399
0.000923744
0.000957781
0.00107584
0.00118171
0.00036175
0.000631919
0.000868209
0.000742405
0.000454577
0.00147114
0.00164333
0.00101901
0.000862785
0.00333879
0.0070139
0.00473722
0.00385523
0.00700056
0.00456436
0.0026119
0.00388165
0.00147108
0.00215338
0.00699871
0.0062517
0.00454674
0.00478192
0.00698964
0.00717536
0.00411272
0.00710233
0.00668585
0.00632644
0.00487358
0.00132152
0.00201258
0.00541346
0.00194381
0.000797973
0.00142035
0.00291787
0.00204907
0.00524342
0.00169723
0.00342945
0.00376978
0.00218998
0.00054748
0.000245745
0.00133852
0.0016201
0.00394949
0.000567738
0.00072821
0.00226194
0.00339569
0.00221908
0.00234908
0.000939164
0.00153146
0.00321795
0.0007315
0.00026166
0.00162453
0.000185278
0.000181926
0.000560863
0.00108669
0.000997075
0.00465541
0.00296885
0.00431887
0.00298231
0.00510294
0.00523552
0.00257308
0.00393251
0.00528345
0.00634608
0.00448133
0.00464923
0.00475323
0.00399013
0.000572563
0.00191094
0.00138954
0.00258075
0.00742224
0.000316114
0.00364718
0.00280984
0.0027211
0.00160766
0.00197654
0.00051547
0.00231723
0.00719919
0.00446454
0.00709322
0.0056486
0.00224441
0.00695651
0.00624661
0.00239383
0.000844647
0.00297823
0.00205152
0.00191068
0.000866438
0.00681705
0.00684422
0.000447727
0.00171473
0.00162074
0.000772758
0.00126247
0.00419161
0.00434502
0.00176108
0.00156638
0.0010709
0.00407611
0.00629642
0.00549182
0.00612507
0.00310655
0.00656305
0.00122118
0.00624305
0.00605267
0.00673308
0.00606764
0.00682744
0.00635908
0.00526071
0.00127296
0.00506165
0.000424229
0.00294882
0.00104835
0.000277794
0.00597797
0.000533893
0.00681456
0.00508128
0.00690934
0.00630849
0.00646592
0.00336215
0.00731272
0.0069381
0.0053844
0.00386713
0.00296456
0.00291378
0.00450598
0.00325523
0.000973562
0.00208488
0.00323579
0.00124197
0.000990806
0.00157643
0.00587277
0.00558356
0.00413249
0.006921
0.00622161
0.00654638
0.00659928
0.00485041
0.00506906
0.006124
0.00672729
0.00554594
0.00601793
0.00133578
0.00353082
0.00437139
0.00183783
0.00310767
0.0021653
0.00323158
0.00582117
0.00346918
0.00244703
0.00138169
0.000336421
0.00132204
0.00637284
0.00550414
0.00661264
0.0035813
0.00343417
0.000874148
0.00355949
0.00104784
0.00407062
0.000671589
0.00294741
0.00254233
0.00603481
0.00438615
0.000684665
0.000643662
0.00313102
0.00698559
0.00689512
0.0071184
0.00681671
0.00206273
0.00719182
0.00643844
0.00156692
0.00631646
0.00141291
0.00143232
0.0065381
0.000595103
0.000943158
0.00168324
0.00306947
0.00413977
0.00457407
0.0032042
0.00308769
0.00285511
0.00487184
0.00325538
0.00453989
0.00697046
0.00674451
0.00716046
0.00335115
0.00271751
0.00627194
0.00419721
0.00568138
0.00222772
0.00186803
0.00122684
0.00262625
0.00217589
0.0032559
0.00400206
0.00374279
0.00583483
0.00599744
0.00210747
0.00300456
0.00182555
0.00203015
0.00171544
0.00118614
0.000749459
0.000830029
0.00678618
0.0031959
0.000330483
0.00512704
0.001798
0.00140361
0.00136967
0.00034463
0.00249591
0.00147805
0.0017675
0.00172897
0.000620809
0.000564802
0.00147248
0.00214925
0.00167434
0.00685394
0.00444549
0.00210446
0.00501586
0.00156872
0.00104494
0.00148054
0.00115825
0.00333686
0.00229415
0.00143824
0.00168388
0.00238519
0.00495496
0.00293923
0.000446917
0.000815512
0.00101994
0.000209851
0.0042608
0.00098667
0.00167536
0.000920184
0.00107795
0.00140119
0.00104395
0.00191633
0.0016001
0.00130532
0.00122985
0.00120158
0.0012537
0.00158094
0.000544648
0.00728889
0.00522251
0.00694174
0.00724928
0.00707774
0.00663333
0.00706228
0.000974084
0.00707234
0.00609953
0.00686253
0.00364977
0.00610136
0.00113548
0.00307449
0.000750055
0.00659789
0.00691863
0.00430985
0.00272676
0.00437726
0.00140566
0.00194379
0.00314519
0.00236721
0.00351271
0.00647297
0.00164497
0.0045179
0.00530094
0.00360202
0.00380649
0.000651018
0.00166209
0.0039077
0.00356872
0.000597752
0.0022268
0.00705225
0.00603056
0.0072159
0.00326136
0.00188985
0.00198896