/*--------------------------------*- C++ -*----------------------------------*\
| =========                 |                                                 |
| \\      /  F ield         | OpenFOAM: The Open Source CFD Toolbox           |
|  \\    /   O peration     | Version:  2506                                  |
|   \\  /    A nd           | Website:  www.openfoam.com                      |
|    \\/     M anipulation  |                                                 |
\*---------------------------------------------------------------------------*/
FoamFile
{
    version     2.0;
    format      ascii;
    arch        "LSB;label=32;scalar=64";
    class       surfaceScalarField;
    location    "0.0817324";
    object      phi;
}
// * * * * * * * * * * * * * * * * * * * * * * * * * * * * * * * * * * * * * //

dimensions      [0 3 -1 0 0 0 0];

oriented        oriented;

internalField   nonuniform List<scalar> 
7426
(
0.00138459
-0.000553952
-0.00598351
0.00515287
0.00591494
0.000299602
-0.00205423
0.0291152
-0.0190547
-0.00800625
0.000167833
2.61083e-05
-0.000146666
-4.72753e-05
0.000330065
-0.000754855
-0.000491442
0.000916231
0.00085331
-0.000356418
-0.000166827
9.12474e-05
-9.98202e-05
0.00080246
-0.000793887
0.000380075
0.000139917
-0.000296543
-0.00022345
-0.000277914
0.000493439
0.000374004
-0.00058953
-0.000419035
0.000263849
-0.000491004
0.00064619
0.000343133
-0.000219757
-0.000123377
-0.00112974
2.94252e-05
0.000557511
0.000542807
-0.0053961
-0.0448113
0.00375155
0.000686022
-0.000186841
-0.000760682
0.000261501
0.00536532
-0.0533308
0.0309954
0.00269706
-0.0416199
0.00792741
0.00138322
-0.00584489
0.0160404
-0.0115787
0.00810938
-0.00561808
-0.0096164
0.0071251
-0.00481072
0.0156304
-0.00271034
0.000189473
0.0592239
-0.0585831
-0.000830319
-0.00484639
0.00755162
-0.0102661
0.00756082
0.00107954
2.66475e-05
0.000798218
0.0227017
0.0100752
-0.00141534
-0.0313615
-0.00099264
0.000520928
0.00155125
-0.0458191
-0.000179048
0.0459982
-0.000469152
0.000344872
0.00102143
-0.000897153
-0.000210353
-0.00138854
0.00215717
-0.00120848
0.000239181
-0.00118786
0.000534689
0.00194671
0.00207079
-0.00177994
0.00024384
-0.00193583
0.000994328
0.000970929
0.000295658
-0.000284781
0.000262415
0.00210404
0.000294558
-9.56707e-05
0.000654423
0.000187023
-0.000650128
0.000757663
-0.000125133
0.0010037
-0.00114107
-0.00130875
-0.000175832
-0.000534725
0.00201931
-0.000569923
-0.000271002
8.58517e-05
0.000281286
-9.61352e-05
0.00312696
0.000673151
-0.00215532
-0.00164479
-0.000265157
0.000326244
-6.10877e-05
0.00146992
-0.0744092
0.100726
8.63105e-05
-0.000275144
-7.63233e-05
-5.51666e-05
-6.90055e-05
0.000450416
-0.000327748
0.000490883
-0.000218302
-6.49627e-05
-0.000176475
-0.0148934
0.0448743
-0.0220221
0.00176836
0.000108604
-0.00154333
-0.000333632
-0.0750724
-0.0105096
0.0299042
0.0556778
-0.000455538
0.000160521
0.000300748
-5.73168e-06
0.000636817
-0.000390363
0.000273911
-0.000520364
-0.00028559
-0.000758735
0.00108942
-4.50903e-05
-0.0343287
0.000153251
0.034434
0.0239712
-0.0760781
0.0176729
0.000105344
-0.0370114
0.000162902
-0.0231362
0.010096
-0.138402
0.0191048
-0.0109743
-0.000384365
0.0030063
0.00234772
-0.00496966
-0.00129987
0.000448928
-1.81064e-05
0.000869044
0.000688398
0.00327968
-0.00227838
-0.00168969
-0.000663946
-0.000259357
0.000923303
0.0113867
-0.0170816
-0.00126975
0.00696461
0.0054854
0.00340465
-0.00751074
0.0015337
-6.64347e-05
0.0295282
0.00187063
0.0785731
-0.0385021
-0.0419417
-0.00836574
-0.00514019
0.00240611
0.0110998
0.000377717
0.00185616
-0.0027862
0.000552331
9.54806e-05
-0.0032504
-0.00226145
0.00541636
0.00445831
0.000427655
0.129813
0.0363741
-0.145747
-0.02044
-4.00838e-05
0.00130315
-0.00154866
-0.000108504
0.000874926
0.00314123
-0.00390765
0.000979139
-0.000572285
0.000230654
-0.000637508
0.0113517
-0.00639805
-0.000210803
-0.00474284
-0.000647637
-9.79566e-05
0.000838077
-9.24837e-05
0.0397144
0.0184681
-0.000231962
0.00232512
-0.00194887
-0.000144287
-0.000102327
0.000421454
-0.000286233
-3.2894e-05
0.000198985
-0.00185919
0.00144222
0.000217986
-0.000373804
-0.00010228
0.000927783
-0.000451699
0.000121358
0.000673995
-0.000607455
-0.000187898
0.00266621
-9.10887e-05
-8.62557e-05
-0.000852229
-0.00158193
0.00252042
9.97033e-06
-8.03193e-05
-4.80152e-07
7.08291e-05
-0.000103791
-0.000893027
0.000312787
0.00253041
0.00400084
-0.00421544
-0.00164856
-0.00434738
0.00630112
-0.000305172
0.00135177
0.00312552
-0.00107154
-0.00340576
-2.80237e-05
0.000822361
-0.000369651
-0.000424686
0.00172446
0.00643561
-0.00739129
-0.000768785
-0.000773852
0.000613681
0.000376776
-0.000216605
0.0017689
0.000519685
-0.0101321
0.00784351
0.000224414
0.00129115
-0.00147167
-4.38902e-05
0.0125394
0.00291802
-0.00916279
-0.00629467
-0.00479423
0.0111163
0.0163796
0.0552308
-4.83655e-05
0.07653
-0.00108861
-0.00237146
-0.00315237
0.00413187
0.00139195
-0.0011054
0.001615
0.00166164
-0.00217124
0.053577
0.0105788
-0.00545595
0.00104631
0.000437032
-0.00139311
-9.02276e-05
-0.0546658
-0.0963396
0.106194
-0.00237551
0.00173181
-0.0117841
0.0124278
0.000106864
-0.000358063
0.0014195
-0.0011683
-0.00435274
0.00194346
-0.00695564
0.00548345
0.000346333
0.000281058
-0.000287223
-0.000340169
0.000440587
-9.42531e-05
0.000165443
-0.000363945
0.000464425
-0.000436649
0.000353763
-0.0332733
0.0135491
-0.05699
-0.00559101
0.0032683
-0.0410055
0.0433282
-0.000358195
-0.000266267
0.000624462
-0.000492974
0.000309401
-0.000174621
0.000318764
0.000112627
0.000295106
-0.000726497
0.000537437
0.00149328
-0.00268474
0.00065403
8.73314e-05
0.000123584
-0.000324889
0.000113974
-0.000244119
0.000562883
-0.0186489
0.0165285
0.0167953
-0.0146749
-0.000299956
8.10628e-05
0.00228708
0.00203202
-0.0035276
-0.000791493
-0.0104717
-0.00917861
0.00894516
0.0107051
-0.00094693
0.001286
0.000130901
-0.000469969
0.00714206
-0.000259191
0.000331093
0.000488929
-0.00510863
0.00504736
4.56362e-05
0.000137674
-0.000405604
0.000176946
-0.00013131
0.00190183
0.000832829
-0.00219722
0.00361916
-0.000435083
0.000327586
-0.00351166
0.00037885
-0.000546373
0.000795188
-0.000627665
0.000371226
0.000228428
0.000127391
-0.000727044
-0.0383753
0.000268932
0.0055906
0.0325158
-0.0182509
-0.0103405
0.0166313
0.0119602
0.0134899
0.0152163
-0.00984832
-0.0188579
-0.00239961
-0.00136228
0.00223462
0.00152727
0.000420091
-0.000335351
0.000286485
-0.00163818
-0.013293
0.0268396
-0.0119084
0.00153013
0.000905361
-0.00129194
0.00176956
0.00334287
0.00426724
-0.00311241
0.00458116
-0.00573599
0.000286
0.000693716
0.00149206
-0.00247178
-0.0131062
0.0219851
0.00270281
-0.0115816
0.00497872
-0.000640802
0.000269975
-0.00460789
-0.056158
-0.0208042
0.0784321
0.000935782
-9.92241e-05
-0.00117529
-0.000628476
-4.92909e-05
1.60299e-05
0.000661736
0.0577366
-0.0542061
-0.000619493
-0.00291094
0.111608
-0.0496216
-0.0330865
0.0371418
-0.00514926
-0.0086977
-0.0232949
0.000353278
0.000484823
0.00298656
-0.00382466
0.0013859
-0.0020388
-0.000301959
0.000954853
0.00174179
-0.00771946
-0.00108071
0.00705838
-0.00420903
0.0174411
-0.00869911
-0.00453292
-0.000674885
-4.3369e-05
8.22331e-05
0.000636021
0.000451872
-0.00238075
0.0250359
-0.0303538
-0.000468578
0.00280411
-0.00210224
-0.0002333
-0.000363647
0.000458113
-9.44657e-05
0.00261676
-0.003144
0.000467348
0.000360864
-0.000227439
-0.000133425
-0.00102868
0.00253686
-0.00112894
-0.000379234
-0.00184871
0.00233764
2.62391e-05
-0.000340415
0.000244357
6.98194e-05
-0.00705552
-0.000697404
0.0103846
-0.00263163
0.00722158
-0.00438116
-0.000619993
-0.00222042
-0.0156646
-0.0157493
0.0238571
0.00755677
-0.00503336
-0.00787899
0.0216374
-0.00872506
-3.20087e-05
0.000221502
0.00109781
-0.0012873
0.00385977
-0.00309634
0.0034395
0.00788808
-0.0622991
0.0313517
0.0230593
0.00340055
0.000364251
-0.000327789
-0.00343701
-0.000346698
-7.30319e-05
0.00041973
-7.49468e-05
-0.000271751
-0.0339231
-0.00669551
0.0216249
0.0189936
-0.00260259
0.00283709
-0.018929
0.0186945
-0.000288825
6.79705e-05
-0.000199264
0.000420119
0.00317799
0.000892634
-0.00178354
-0.00654702
0.0258093
0.000280416
-0.0195427
-0.00138101
0.000845206
0.00161791
-0.0010821
-8.75969e-05
-0.000285089
0.0165835
-0.0322116
-0.018295
0.000358357
-0.000410713
0.000176107
-0.000123751
0.00185457
0.00171696
-0.000444569
-0.00214072
-0.0020531
0.00469839
-0.000504577
0.0225503
-0.0344435
0.0160065
-0.00411341
-0.00448692
-0.000244576
0.00647328
0.0165356
-0.0173567
0.00320305
-0.00238197
0.00197667
-0.0118309
-0.000617399
0.00147456
0.00108624
-0.000658981
-0.000580236
-0.00225837
0.00487062
-0.0581856
-0.0054135
0.0256036
0.0379955
0.000210521
-0.0460296
-0.00136166
-0.000302469
0.0019443
-0.000280172
-0.000528325
0.000524399
5.25561e-05
-4.86303e-05
0.000363935
2.05901e-05
-0.000263167
1.47797e-05
-0.000208677
-0.000380177
0.000574075
-0.00176935
-0.0013171
0.0033954
-0.00030894
-0.000518225
-0.000579308
0.000266671
0.000830862
-0.000139279
-0.000648401
0.000922405
-0.000134725
0.00661749
8.94847e-05
0.00104921
-0.00065281
-0.00133559
0.000939182
-0.000622683
0.000242447
-0.000403174
0.00078341
-0.00132096
-0.00143334
0.00345597
-0.000701668
0.000625768
9.77135e-05
-0.000718316
-5.1657e-06
-0.00646787
-0.00852023
0.00995474
-0.000286759
-0.000366691
0.000813348
-0.000159898
0.0212105
-0.022166
-0.00109875
0.000432303
-0.00182161
-0.000681812
0.00207112
-0.000525253
0.000310592
0.000332179
-0.000117518
0.00484249
-0.00536516
-0.00024324
0.000765911
-0.00101335
-0.000198074
0.000751756
0.0571246
-0.00365777
-0.00024445
0.00122107
-0.000649614
-0.000327007
0.000441297
-0.000324506
-0.000116791
-0.0118474
-0.00230505
0.126263
-0.11211
-0.0126028
0.0104076
0.0024351
-0.000239891
0.00166125
-0.00236328
-0.00135415
0.00205618
0.000107532
0.00026911
0.000151782
-0.000528423
0.000468396
0.000881318
0.000628517
0.000258524
0.000246694
0.00101648
-0.00125331
-9.86012e-06
-0.000813001
0.000772935
-0.000755275
-0.000908962
0.00073641
0.000927827
0.0090872
0.00451815
-0.00682874
0.0143523
-0.00228541
-0.00484529
0.0481462
0.0146908
-0.0574259
-0.00541105
-0.000164898
0.0537419
-0.00845593
-0.0471098
-0.0510891
0.0515403
-0.00457463
-0.0363868
-0.0542548
-0.00041106
0.0358848
-0.0273794
-0.00305562
-0.00544973
0.00302472
0.000663203
-0.00406104
-0.0119799
0.0207184
-0.0106448
0.00190632
0.00375764
-0.00342575
-0.00560806
0.00541157
0.00215666
0.000651192
0.0048545
0.000210544
0.00292637
-0.00248572
-0.0033277
-0.000450663
-0.0018297
0.00742947
-0.00287465
0.00083151
-5.14886e-06
-0.00103986
0.000213504
-1.77085e-05
0.00550181
-0.00172646
0.00153756
-0.00274528
0.00203923
0.000201707
-0.000467975
-0.000170079
-0.000272042
0.000114313
0.000327808
0.00753625
-0.00571089
0.000331305
0.00680847
0.00272985
-0.00200207
0.000433023
-0.00190234
0.00827779
0.000321926
0.000169838
0.0010458
-0.00145592
0.00218469
0.000556405
-0.00128518
-0.00893555
0.00763805
0.00587359
-0.00457609
0.00337446
-0.00367567
-0.00249664
0.00279784
-0.0010705
0.00442726
-0.00153175
0.00640082
0.000632741
-0.00335007
0.000772684
-0.000167892
0.000154915
0.000480086
-0.000313074
-0.00290248
-0.00399412
0.00274239
-0.000280018
-0.000876202
0.000700975
0.000228683
-0.000159143
-0.000945742
-0.000866081
0.000348389
8.31602e-06
-0.00403237
0.00393982
-0.00146412
0.000971321
-0.0022193
-7.54187e-05
-0.00105536
-0.00286533
0.0034146
0.000223416
-0.00206081
-0.000371775
0.00312098
0.000901813
0.000874013
-0.00427246
0.00559379
-0.00603082
-0.00093832
-0.000682933
-0.000598047
0.0109813
-0.000613353
-0.00570034
0.00994252
-0.00783059
0.00358841
-0.010754
0.00829329
-0.00542732
-0.00443529
0.0157362
-0.0102638
-0.00167544
-0.00125058
-0.000438383
0.0116315
-0.00240127
-0.0034041
-0.00167945
0.0031812
0.000353765
-0.00575993
0.002494
-0.00204681
0.0087586
-0.00171589
0.000496941
-0.00161504
0.00128794
-0.10138
0.0986656
0.00313908
-0.0058853
0.00834001
0.00241537
-0.00296948
0.00168747
-0.103068
-0.000715945
0.00263961
-0.000826693
-0.00574062
-0.000841759
0.0020063
0.00779329
-0.00185637
-0.000680627
-0.0141991
0.00950859
-0.00491019
0.00960069
9.03027e-07
-0.000500525
0.000254352
0.00024527
-0.000651856
7.35777e-05
0.000579181
0.000632825
-0.000431117
0.000337239
0.000415095
0.000641765
-0.00105686
-0.0013522
0.00082898
-3.11729e-05
0.000323829
0.000608195
-0.000649363
0.000353975
0.000700968
-0.000457652
-0.00059729
-0.000718797
-0.000396486
-0.000137908
9.45498e-05
-0.000134374
0.000113935
-0.000315403
0.000527997
0.000786698
-0.000999291
-0.000622334
0.000418184
0.000916125
-0.000711974
-0.000439271
-0.000902422
0.000719358
-0.0011872
0.000432524
-0.000992725
0.00193891
-0.00134806
0.00258314
0.000730129
-0.0019652
0.00281135
-0.00345889
-0.000700518
0.0024213
0.00325179
-0.00286175
0.00519804
-0.000193604
-0.00032308
0.00373303
-0.00436266
0.0014661
-0.000836465
-0.000424086
0.0056452
-0.00148808
-0.000641365
-0.0012422
0.0017973
-0.00133623
-0.000759797
0.00145466
-0.000790891
-0.00119343
0.000742127
0.000154238
-0.00228136
-0.00280431
0.00372129
-0.00199667
0.00107969
7.32973e-05
0.00244056
0.000662612
-0.00317647
0.00310021
0.000560328
-0.000194533
8.69156e-06
0.000502908
-0.000317067
-3.35652e-05
5.00384e-05
2.71892e-06
-1.91922e-05
-0.000545692
0.00204309
-0.000377783
-0.000524184
-0.00132137
0.000192009
0.000858729
-0.00251486
0.00166669
-0.00200986
0.0015287
-0.00118553
0.000819461
-0.00172363
-0.000801785
0.00170596
6.46275e-06
0.0035069
-0.00100267
-0.00251069
0.00277532
-0.0019494
-0.000723787
0.00239262
-6.66128e-05
-0.00160222
0.00245284
-0.00319334
2.48668e-05
0.000715636
0.00174704
0.0011347
-0.000428904
-0.00331898
-0.000740169
0.00399502
6.41292e-05
0.00213097
-0.00160012
-0.00039296
-0.000137893
0.000431839
-0.000279822
-0.00218347
0.00203145
-0.00114402
0.00336564
0.00023253
-0.00245415
-0.000545789
-0.00177577
0.00146933
0.00162353
-0.000515013
-0.00118062
7.21002e-05
0.00359996
-0.0011596
0.00277961
0.00128667
-0.000466323
-0.00583192
-0.000340749
-0.00186321
-0.00299107
0.00187051
0.00298378
0.00227993
-0.000389553
-0.00375359
-0.00121
0.000166893
-0.0019882
0.00303131
-0.00181225
-0.00125767
0.00185991
-0.000849187
0.00189239
0.00123673
-0.00714969
0.00333986
0.000333224
0.00347661
-0.00201245
-0.00127748
0.00306447
-0.00694053
0.00818602
-0.00430996
0.0373116
-0.00044322
-0.0130042
0.0190333
-0.0133015
0.0129454
-0.0274419
0.00737069
0.00712573
-0.000937138
-0.0122517
0.0283302
-0.0151414
0.0184127
-0.0221956
0.0205903
-0.0168073
-0.0153372
-0.0187329
-0.0118557
0.0459258
0.0347978
-0.0244826
-0.0520568
0.0417416
-0.0276955
-0.0258312
0.0883244
-0.0289605
0.0155683
-0.0143033
-0.0310833
0.0353282
-0.0195821
0.0394732
-0.0346397
0.012934
-0.0177675
0.0437649
-0.0281318
0.0214765
-0.0371096
-0.00851441
-0.00713949
0.0594188
0.00109219
0.0395715
-0.0636172
0.0229534
0.0389128
-0.0580839
0.0202633
0.00123497
-0.000255051
0.0022411
-0.00322102
0.00322648
-2.85621e-05
-0.00196295
0.000542149
-0.00271058
0.000356184
0.000551312
-0.000725031
0.00017372
0.000693364
-0.000142052
0.000377865
-0.000220018
0.000535517
0.00210855
0.000264223
-0.000986873
-0.000838612
0.000901281
0.000961424
-0.00102409
0.000398074
0.000871866
0.0011173
-0.000541405
0.000636338
-0.00121223
-0.000801531
-0.000509052
0.00149743
-0.000186843
-0.00106484
0.00188341
-0.0016201
-0.0150169
0.00815267
-0.00879522
0.000692807
-0.00691447
0.0156751
0.0029181
-0.0166905
-0.00190269
-0.0102017
-0.00958728
-0.0131559
-0.0113416
0.0340847
0.016163
-0.038358
0.00278812
0.0194068
0.000603798
0.000744872
0.000445261
-0.00179393
-0.00122293
0.00035047
0.00147626
0.000120059
-0.000681504
1.46873e-05
0.000546758
-0.000781059
-0.00156291
0.00256834
-0.000224372
-0.000706032
-0.00201992
0.00163015
0.000786816
-0.00205655
-0.00107378
0.00202323
0.0011071
0.000537873
-3.42141e-05
-0.00210378
-0.000782701
-0.00119729
-7.65599e-05
-0.000495235
-0.00121021
0.000666634
0.00103881
-0.00264864
-0.00777208
0.0113843
-0.000963563
-0.0096316
-0.00202108
0.00900404
0.000872405
-0.00831629
-0.00218772
-0.000128254
-0.00677142
0.00611014
-0.000674494
0.00594864
0.000621387
0.000325135
0.000727921
-0.00167444
-0.00175918
0.000374505
0.00192255
0.0028479
0.00296261
-0.00442065
-0.00138985
-0.00125325
-0.000729828
0.00122326
0.000759818
0.0015253
0.00203908
-0.00145232
0.00160958
0.00123697
-0.00274259
-0.00010397
0.00309061
0.00113573
-0.000181688
-0.000804406
-0.000388844
0.00137494
0.000806078
-0.000707356
-0.00028041
0.000903344
-0.00015345
5.61841e-05
-0.000272867
-0.000462513
0.000921266
-0.000809803
-0.00038433
-0.000830191
0.000947052
-0.000675629
0.00110081
0.000478161
0.00151077
-0.000354824
0.00131082
0.00065524
-0.00112635
-0.000137002
0.000213217
0.00105013
-0.00139055
0.000986721
0.000197185
-0.000134686
0.00140928
-0.00163548
0.00196151
-0.000826952
0.000500929
-0.00474777
0.00706935
-0.00774889
0.00220376
-0.00178254
-4.51407e-05
0.000104052
-0.000178551
-0.00631072
0.00381478
0.00267449
9.28868e-05
-0.000154024
1.29808e-05
4.81561e-05
-0.00240511
0.0109915
-0.00151707
0.00238508
-0.00174728
0.000195027
-0.000900628
0.00134713
0.00453222
0.00403529
-2.29617e-05
0.000400786
0.00111935
0.00108741
-0.00293658
0.000260576
0.000262625
-0.000523201
-2.72826e-05
0.000650773
-0.000245626
-0.000202521
0.000292236
-7.97448e-05
0.000855954
0.00126459
-0.00178114
-0.000339403
0.00166233
-0.00140264
-0.000718057
0.000458373
0.00226274
-0.000151986
-0.00211076
-0.0556109
-0.0461068
0.0108077
0.0243551
-0.0088383
0.00101874
-0.00107694
-0.000133028
-7.78858e-05
0.00128785
-0.00719696
-0.00374809
-0.0428716
0.0421267
-0.00645201
0.000929349
0.000943996
-0.00297874
-0.000271125
0.000396378
-0.00013765
1.23977e-05
0.00423107
0.00869096
-0.00547578
-0.00744625
0.0019877
-0.00349317
0.000839999
0.000665468
-0.000805294
5.60396e-05
0.000385607
-0.00164164
0.000377312
0.00122425
-0.000770526
-0.000191171
0.000333222
-0.000136455
8.65112e-05
0.000127224
-7.72806e-05
0.000416818
0.000793977
-0.000159434
-0.00105136
0.0323609
-0.0255838
0.000181008
-0.000130073
0.000116898
0.00462072
-0.00264361
0.0196603
0.00417389
0.0346508
-0.0388247
-0.00725841
0.0199819
-0.00931057
-0.000556769
-0.000315575
-0.00118085
0.0020532
-0.00137125
0.00440304
-0.00243046
-0.000601329
0.00239882
-0.0021874
0.00102555
0.000783131
-0.000210116
0.00818558
-3.39106e-05
0.000339775
6.43061e-05
-0.000370171
-0.000441103
0.000727588
-0.000313768
-0.0575266
0.000407523
0.0571191
0.00886781
0.000173348
0.000500576
-0.00954173
-0.000242715
0.00235025
-0.000689542
-0.00141799
-0.00032559
-6.3929e-05
0.00958321
0.00247374
-0.00871709
0.00266629
-0.00186886
0.000118778
-0.000615709
0.00049693
0.00138225
0.000173193
-0.00465178
-0.0039153
0.00692662
-0.000274765
0.000281319
0.000413513
-0.00044687
-0.000247962
0.000287779
-0.000466441
0.000273845
-9.51826e-05
0.00159232
-0.00230137
0.000453995
-0.0855821
-0.00802771
0.0704736
-0.055616
-0.0188386
0.000844106
0.0736105
-0.00122139
0.00191682
-0.00213311
0.00143767
0.000671813
-0.00105065
0.000219698
0.00316729
-0.000147623
-0.00241232
-0.00060734
0.000361424
0.000708529
0.000499965
-0.000600774
0.000164423
0.000884279
-0.000447927
-0.00484908
-0.0181938
-0.016145
0.0247516
0.000191992
0.0140444
-0.0102357
-0.00400069
-0.00160327
-0.0061703
0.00733518
-0.000437289
-0.000704568
0.00102276
0.000119094
1.21063e-05
3.20551e-05
-1.84411e-05
-2.57203e-05
0.000384271
-0.000266915
0.00651466
0.000122156
-0.00901233
4.28354e-05
-0.000117725
-7.17761e-05
-0.00982916
-0.00246972
0.00946625
0.00283263
-0.00646893
-0.00533315
0.00197293
-0.00367953
-0.0065041
0.0117758
-0.00159219
6.50137e-05
-0.000263088
0.00240843
-0.000158734
0.000595439
-0.00284513
-7.31344e-05
7.05102e-05
3.48656e-05
-3.22414e-05
-0.00421018
0.00903679
-0.00850614
0.000287296
0.0604739
-0.039022
-0.0217391
0.00139727
0.000562052
0.00852295
-0.0104823
0.0182188
0.00503524
-0.0121672
-0.0110869
-0.00434626
0.00439881
-0.00614038
0.00608783
0.0654177
0.00900025
-0.0355052
-7.66356e-06
-0.00902954
-0.00502195
0.013732
-0.0576171
0.088136
0.0528941
0.00134213
-0.073561
-0.00482696
-0.00131761
0.00433125
0.00181331
-0.000115042
-0.00323522
-0.00166624
0.0050165
-0.000613647
0.00134116
-5.49089e-05
-0.000672604
0.00315363
-0.0101497
-0.000104069
0.000496988
-0.000632997
0.000240077
0.0658078
0.0066003
-0.0765833
0.00417529
0.0216605
0.033895
0.00751535
-0.0630708
0.000273644
-0.000386685
0.000793368
-0.000680327
-0.00338275
0.00507951
-0.0040805
0.00238374
7.23636e-06
0.000640698
-0.000438741
-0.000209193
0.00672602
-0.00634559
-0.00278554
0.00145866
0.00128033
-0.0010723
0.0016472
0.00147478
-0.00465445
0.00153247
-0.00554447
0.0043605
-0.000419296
-0.000346634
0.0010049
0.000934055
0.00177779
0.00112386
0.000347445
-0.0032491
-0.000792061
-0.000229971
0.000501969
0.000520063
0.000269854
0.000295425
-0.000555012
-5.68599e-05
0.0012268
-0.000614932
0.00131754
0.00149888
-0.00191837
-0.000898055
0.000228749
-0.000521735
0.000554885
-0.000261899
-0.00186992
0.00120673
-0.00163843
0.00110052
-0.000588438
-0.00133461
0.00208727
-0.0012564
0.000503738
0.000899786
-0.00176543
0.000519014
0.00221618
0.00152542
-0.0026958
-0.00830483
-0.000991016
0.0153018
-0.00600595
-7.42411e-05
0.000129988
-0.000181498
0.000125751
-0.000333936
-0.00162475
0.00134504
-0.000180905
0.000327337
-0.000453205
0.000306773
-0.000566486
-0.000355646
9.19402e-05
-0.00030679
0.00045134
-0.000585653
-0.00112465
-0.00107427
9.60341e-06
0.00218932
5.86141e-05
0.00199292
0.000987931
0.000595737
-0.000979144
-0.000604524
0.000225553
-0.00212502
0.00212287
-0.0026267
-0.000655665
0.00115949
0.00728951
-0.00235408
0.000506863
-0.00544229
-0.000405918
0.000584409
0.000279947
-0.000458438
0.000502215
0.000261572
-0.000586895
-0.000176891
0.00285538
-0.00247202
0.00142918
-0.00055944
0.000590005
-0.00102329
0.0003174
8.28198e-05
-0.00050004
-0.00297431
-0.00138398
0.00357723
-0.000990717
0.00205066
-0.00105994
0.00290162
0.000251243
-0.00297854
-0.00017432
-0.000147918
-0.000646426
0.00364224
0.000358662
-0.000210273
-0.000422234
0.000273845
0.00136832
-0.000523648
-0.000681751
-0.000162919
-0.000177297
0.00428903
-0.00184934
-0.0022624
0.000169042
-7.29336e-05
-0.00029634
-0.000178493
0.000407272
-0.000202582
-2.61976e-05
0.000677324
-0.000221331
0.000531938
0.00194988
0.0018594
0.000286594
-0.00409588
0.000974329
0.00177718
4.00146e-05
0.000806154
-0.000487811
0.000358634
1.38816e-05
-0.000684756
0.00031224
0.00742262
-0.00481614
-0.00598924
0.000568114
-0.000163888
-0.00092841
-0.00169398
0.00147654
-7.66798e-06
0.000225103
0.00145166
-0.00202433
0.000435672
-0.0152783
0.00570021
0.00758194
0.00199613
-0.00325855
0.00178728
0.00122979
0.000241482
-0.00207329
0.00349723
-0.00118873
-0.000235209
0.000158643
-2.09526e-05
-0.000704069
0.000566378
-0.00130286
0.00345858
-0.00352696
0.0052186
-0.00319643
0.0112482
-0.00274494
-0.00530687
0.00440756
-0.00475678
0.00831541
-0.0079662
0.00155617
-0.00454938
0.000665304
0.00232791
0.000846362
-0.00145593
0.000671888
-6.23221e-05
-0.00041279
0.00116468
-0.000373037
0.000309858
0.000176328
-0.0007641
-0.000296977
0.00111209
-0.000775101
0.000274594
-0.000374521
6.60158e-05
-0.000275874
-9.99593e-05
-0.000132642
9.46549e-05
0.000137946
-0.000147212
0.000199915
-0.000107647
0.000252852
0.00321724
-0.0312591
0.0517989
0.0365848
-0.00299235
-0.000288394
0.00530916
-0.00202842
-0.00590958
0.00588895
0.000837679
0.0147681
0.00285994
-0.0111134
-0.00408879
0.00880416
-0.00560663
0.000891248
-7.59831e-06
-0.000164117
0.000171715
7.15212e-05
-0.000383532
0.00136578
-0.00105377
-0.00142896
0.000660992
0.000742633
2.53395e-05
0.0128763
-0.0451896
0.0300256
0.00228767
-0.000432558
0.000593787
-0.000161229
-0.00355708
0.000826062
-0.0045821
-0.0304544
0.0284895
0.00607412
-0.00696471
-0.00157913
0.0125396
0.0458574
-0.0583969
0.000840315
0.000643659
-0.000701971
-0.000782004
0.00134143
0.00172626
-0.000565404
-0.00250229
0.00090434
0.000307157
3.77741e-05
-0.00124927
-0.00735465
-0.00806192
0.000961787
0.0144548
-0.00784824
-0.00463421
0.00542693
-0.0105011
0.00772381
-0.00022235
0.00299966
0.0145169
-0.00702041
-0.0106929
-0.0017669
0.00296472
-0.000341863
-0.00104833
0.00121736
-0.00465595
0.00373525
0.000493087
-0.00522851
0.00100017
0.0140478
-0.000672971
-0.00322138
0.000113224
-0.000167203
-0.000259199
0.000313178
0.000161267
0.000411545
0.000118263
-0.000691075
0.000582862
-0.000121878
-9.18434e-05
-0.000268297
0.000524248
-0.000678797
-0.000279512
0.000783546
0.000174763
-0.00150103
0.00114928
-0.000377957
0.000729706
0.000569773
0.000281077
0.00153423
-0.000103798
-0.000304522
1.79565e-05
-0.00105112
-0.000991744
0.00190358
0.00192855
0.000303204
-0.000914206
-0.000310559
0.000164372
-5.48299e-05
-0.0794014
-0.0409072
0.083323
0.0369855
0.0539625
-0.0414229
-0.000355816
-2.14233e-05
3.63772e-05
0.000340862
0.000298936
0.000173519
-0.000363226
-0.000109228
0.000194175
-0.000246682
-0.00071802
-0.0163443
-0.048867
0.00960043
-0.000424515
-0.00110304
0.000580621
0.00502724
0.051288
0.00142136
-0.00448809
-0.00145939
-0.00270867
0.00865615
-0.04257
0.0490126
-0.0364884
0.0300458
-0.000122589
0.000356809
-0.000168501
-6.57195e-05
0.000206454
-0.000255786
0.00028167
-0.000232337
-0.000478164
0.000573975
-0.000450335
0.000354525
0.00416505
0.00216431
-0.0105836
0.00425421
-0.0018247
0.00122024
-0.00108542
2.31144e-06
0.000259242
0.000823869
-0.00390131
0.00208099
-0.000289547
-0.000216621
0.000280957
0.00022521
0.00790457
0.000546515
0.00109799
-6.29781e-05
-0.00103501
0.000210128
-0.0170057
-0.0256262
0.0424217
-0.000866423
0.00211379
0.000136034
-0.0013834
-0.000460001
0.000161304
0.000302392
-3.69444e-06
0.00131115
-0.000965083
0.000189459
-0.000326547
-0.000765334
4.76614e-06
0.0005087
-0.000540727
0.000153597
0.000387129
-0.00046535
0.000503109
0.000149034
-0.000186793
-0.000479556
-0.000368722
0.00026818
0.000258638
0.000236341
8.06647e-05
-0.000575645
-0.000760731
0.000590418
0.00114945
9.05937e-05
8.62105e-05
0.000377015
-0.000553819
-0.000135227
5.99487e-05
0.000255344
-0.000180065
-0.00146759
0.0101132
0.00395125
0.00239291
-0.00222953
-0.00411463
-2.01027e-05
-0.00200091
0.00214066
-0.000119653
-0.000639803
0.000615133
-0.000184007
-0.000846105
-0.00190669
0.00176208
0.00146184
-0.00238571
0.00112286
-0.00104683
-0.00386738
0.00156125
0.00335296
0.00320113
-0.00150682
-0.00159883
-0.000101638
-0.000203662
0.00105723
-0.000751926
-0.048292
-0.000297022
0.048589
0.0409367
-0.081808
0.0144735
0.0263979
0.112528
-0.00199266
0.0186398
-0.0370387
-0.000109495
0.0386819
-0.00512829
-0.0085841
-0.0570053
-0.103884
0.0538517
0.0181672
-0.0514794
-0.00506314
0.00133093
0.0299523
-0.0313497
-0.0341499
-0.023932
0.0465444
0.0115374
0.000749936
0.00067433
-0.0010791
0.00051071
0.00131832
-0.00743022
-0.010424
0.0136452
-0.000971804
0.00144492
0.00131566
-0.00178878
0.0483357
-0.0490921
0.0127143
0.0816234
-0.0452456
0.0515309
-0.0499881
-0.10356
0.102017
-0.00859667
-0.0432365
0.0433187
-0.0618316
-0.0389711
0.10109
-0.00365966
0.000399624
0.00700625
-0.000355907
-0.000951776
0.00132504
-1.73591e-05
0.0253819
0.0382971
-0.0508027
-0.0203539
0.0108377
0.00713402
0.00238225
-0.00242077
-0.0101057
-0.0285584
0.0473495
-0.00332371
-0.0154674
-0.0439387
-0.0701678
0.00543836
-0.00415099
0.0516892
-0.0152831
-0.0322551
0.000461978
0.102833
-0.103295
-0.00419423
-0.00897332
-0.000203825
2.94371e-05
-2.4996e-05
-0.0114931
0.0230954
0.0434201
-0.0356255
0.0293473
-0.010238
-0.0379839
-0.000130674
-0.00378616
-0.00183765
0.00575449
0.000289941
-0.00212256
0.00169079
-0.000225644
-0.00115065
0.00166295
-0.0037939
0.00425382
0.000257867
0.000205847
-0.000576323
0.000112609
-0.000184046
7.00469e-05
0.00136263
-0.00124863
0.000268401
-0.00107369
-9.4329e-05
0.000211677
-0.000319868
6.09262e-05
-5.38226e-05
4.06149e-05
-4.77185e-05
0.000143551
0.000184947
3.54369e-05
0.00125016
-0.00068745
-0.000459694
-0.000103017
-3.07288e-05
-0.000181492
-0.000578253
0.000790474
-0.00871101
-0.0049628
0.0218265
0.000161644
-0.00109969
-0.000706149
-0.00251834
0.00196718
0.00125731
0.000494712
-0.000369973
-0.000247328
0.000327732
0.000138867
-0.000353376
-0.000311516
9.08557e-05
0.000220661
0.000423672
-0.000907508
0.000251874
0.000935605
-6.99722e-05
0.000460848
-0.00132648
-0.00017521
5.61232e-07
-9.04982e-05
0.000259038
0.000326172
-0.000616135
0.000135164
0.00142182
-0.000659433
7.79326e-05
-0.00234278
2.33304e-06
5.13872e-05
-0.000430028
0.000376308
-0.000508669
-0.00087373
0.000193009
0.000669368
0.00116701
0.000515875
-0.000741908
-0.000940981
-0.000127602
0.000260175
-0.000281363
0.00014879
0.000479979
-0.00051167
2.27588e-05
8.93174e-06
-0.00511633
0.0480081
-0.0484828
-0.00871039
0.0109044
-0.0155646
0.0133706
-0.0214342
-0.0402537
0.00463268
-0.0238722
-0.00927585
-0.0419243
-0.00616633
0.00394307
-0.00226483
-0.0721281
-0.000184328
-0.0002534
-0.00036047
0.000798198
0.0569987
0.00143511
-0.0584339
0.00409173
-0.00221835
-0.00392452
0.00205114
-0.0661837
-0.044715
0.0505142
0.0603845
-0.00602354
0.0031218
-0.00118705
0.00361477
-0.0197851
0.0283857
-0.0122153
0.000162641
-0.00101156
0.000848917
0.0795165
-0.0773199
0.0315704
0.00374155
-0.0306132
-0.00469876
0.00142707
-0.00297035
0.000321889
-0.00135529
-0.000241512
-0.000413052
-0.0308091
-0.0503675
0.0738892
0.0072874
0.000347021
-0.00751645
0.0101827
-0.0030133
0.000772481
0.00401342
-0.000632998
-0.00131065
-0.000798936
0.000587524
-1.57646e-05
0.000309559
0.00103297
-0.000575914
-8.48385e-05
-0.00037222
-0.00315069
0.00151625
-0.0191618
0.0145849
0.00219614
-0.0124984
-0.00129282
0.0119256
-0.00311128
0.00156838
0.00247225
-0.0672622
0.0205063
0.0154969
0.00198361
0.000261506
0.00143509
-0.00368021
0.00235696
0.00260867
-0.00345168
-0.000405238
0.000907477
-0.000939527
3.01628e-06
-7.70245e-06
4.68618e-06
0.00305095
0.00337276
-0.000940262
0.00797848
-0.0114901
0.0108862
-0.00737462
0.00411262
-0.00224272
0.000266323
-0.00213623
-0.000115059
-0.00028355
0.000135519
0.00026309
-0.000367088
0.000113217
0.000211896
4.19754e-05
-7.85566e-05
-0.00056745
-0.000185436
0.000831443
-0.000179434
0.00183268
-0.000367249
-0.00494265
-0.00283586
0.00238016
0.00539835
-0.00273433
0.00133435
0.00861178
-0.0072118
0.000599592
-8.57565e-05
-0.000544564
-0.00217022
-0.000247328
-2.1374e-05