/*--------------------------------*- C++ -*----------------------------------*\
| =========                 |                                                 |
| \\      /  F ield         | OpenFOAM: The Open Source CFD Toolbox           |
|  \\    /   O peration     | Version:  2506                                  |
|   \\  /    A nd           | Website:  www.openfoam.com                      |
|    \\/     M anipulation  |                                                 |
\*---------------------------------------------------------------------------*/
FoamFile
{
    version     2.0;
    format      ascii;
    arch        "LSB;label=32;scalar=64";
    class       volScalarField;
    location    "0.0411073";
    object      k;
}
// * * * * * * * * * * * * * * * * * * * * * * * * * * * * * * * * * * * * * //

dimensions      [0 2 -2 0 0 0 0];

internalField   nonuniform List<scalar> 
47425
(
0.331972
0.360127
0.333892
0.333224
0.495575
0.342292
0.454196
0.345974
0.366902
1.14654
0.352123
0.348534
0.391886
0.333809
0.332116
0.350185
0.332766
0.369351
1.09239
0.552263
0.338661
0.337314
0.347429
0.336749
0.339654
0.329774
0.326374
0.866901
0.324917
0.332737
0.345434
0.341153
0.356399
0.332661
0.332626
0.345221
0.335192
0.363467
0.334026
0.337537
0.376802
0.431142
0.680239
0.378434
0.984241
0.372282
0.347527
0.351933
0.332609
0.330962
0.826668
0.598818
0.328038
0.919821
0.383539
0.370464
0.330844
0.330746
0.464526
0.338044
1.03791
0.823133
0.864556
0.356549
0.364477
0.337468
0.34612
0.372229
0.857729
0.349112
0.330417
0.33075
0.332382
0.339395
0.886583
0.368722
0.86986
0.335291
0.901559
0.556455
0.914946
0.338714
0.340058
0.350182
0.331547
0.340936
0.329392
0.32916
0.555172
0.658618
0.342331
0.357283
0.336402
0.378223
0.390114
0.37443
0.331574
0.329009
0.328011
0.375162
0.342697
0.465001
0.338917
0.487185
0.3344
0.368921
0.33085
0.334495
0.341078
0.345077
0.959609
0.340461
0.415993
0.360557
0.351394
0.856486
0.348588
0.677058
0.359578
0.3573
0.334666
0.362744
0.35002
0.373296
0.363895
0.404648
0.342658
0.364905
0.363993
0.335126
0.341068
0.351386
0.543066
0.368816
0.423535
0.370796
0.342328
0.410671
0.334297
0.332116
0.355784
0.38767
0.349278
0.461759
0.353286
0.366234
0.453753
0.344907
0.374384
0.36256
0.46008
0.821782
0.360428
0.836919
0.363327
0.345408
0.369082
0.952874
0.37332
0.353332
0.361782
0.332973
0.331547
0.338352
0.759141
0.88134
0.34557
0.89501
0.352153
0.896209
0.899217
0.368315
0.354298
0.350456
0.370913
0.412803
0.875274
0.324975
0.330718
0.333588
0.867561
0.327882
0.326512
0.335922
0.331625
0.343175
0.335553
0.458973
0.363108
0.327733
0.358116
0.328121
0.452734
0.365322
0.3373
0.344874
0.360583
0.347809
0.356396
0.318559
0.352911
0.368283
0.337507
0.34699
0.366999
0.378114
0.325163
0.343262
0.361329
0.362048
0.32681
0.331891
0.353535
0.325877
0.334316
0.339295
0.327543
0.608153
0.370373
0.365901
0.584326
0.308877
0.536711
0.325251
0.400764
0.562304
0.334768
0.34825
0.374865
0.410461
0.326281
0.343413
0.369208
0.369386
0.376477
0.342054
0.596155
0.358261
0.560804
0.372529
0.346176
0.328156
0.333485
0.340632
0.333817
0.362755
0.330832
0.358338
0.329965
0.332718
0.332964
0.542106
0.337987
0.365705
0.340985
0.330764
0.335844
0.378812
0.330147
0.357748
0.394823
0.35411
0.33339
0.371516
0.401954
0.368313
0.334459
0.399559
0.329294
0.344797
0.336847
0.544501
0.590428
0.330942
0.535315
0.382374
0.536309
0.491093
0.575339
0.578996
1.10735
0.330186
1.04539
0.381555
0.339601
0.323028
0.369962
0.3387
0.376431
0.362206
0.7992
0.351114
0.371308
0.32893
0.331442
0.3521
0.356044
0.331494
0.338517
0.386505
0.360839
0.332546
0.352094
0.329909
0.877201
0.884879
0.852819
0.332984
0.329993
0.334806
0.345592
0.827755
0.342381
0.349192
0.605033
0.366592
0.359765
0.382893
0.339847
0.655758
0.581255
0.341027
0.333324
0.326903
0.358498
0.329819
0.332373
0.329732
0.328989
0.330637
0.330094
0.834602
0.353821
0.333525
0.38415
0.334263
0.831296
0.344056
0.33056
0.332717
0.339148
0.338734
0.328716
0.338966
0.331118
0.33245
0.330849
0.340617
0.334505
0.363802
0.34066
0.339274
0.342699
0.341389
0.341166
0.372135
0.345833
0.338227
0.3409
0.360751
0.389728
0.369405
0.352749
0.344238
0.330736
0.340188
0.381011
0.358688
0.345468
0.340642
0.37771
1.26847
0.328518
0.34719
0.385677
0.345561
0.413395
0.373902
0.364495
0.335726
0.357862
0.343965
0.327961
0.355522
0.365967
0.364555
0.347171
0.339022
0.350669
0.345209
0.342511
0.346399
0.350434
0.330628
0.338846
0.34054
0.337897
0.343189
0.420362
0.329622
0.688904
0.332754
0.822913
0.356762
0.380079
0.371607
0.331256
0.365037
0.327673
0.354466
0.343227
0.645217
0.870247
0.330175
0.361618
0.331255
0.330008
0.340335
0.341548
0.327642
0.368756
0.345372
0.331261
0.330806
0.33441
0.327464
0.461242
0.329864
0.34168
0.52909
0.578596
0.33412
0.666498
0.587251
0.368834
0.585873
0.797519
0.331977
0.329402
0.331063
0.329242
0.804821
0.359007
0.332335
0.33371
0.335482
0.335759
0.339645
0.334512
0.747701
0.783049
0.544535
0.356551
0.43306
0.47771
0.334475
0.340718
0.381137
0.339225
0.355691
0.363141
0.377809
0.336671
0.369616
0.334743
0.333401
0.359126
0.345823
0.336676
0.334725
0.349432
0.357743
0.379564
0.361208
0.33079
0.365803
0.341808
0.780174
0.370009
0.425481
0.347138
0.375269
0.767316
0.358229
0.332553
0.360653
0.352031
0.337274
0.357954
0.37233
0.322301
0.352417
0.328679
0.352442
0.473992
0.328058
0.374135
0.33596
0.386569
0.331406
0.331919
0.331669
0.333485
0.348997
0.351111
0.333995
0.328787
0.335054
0.346638
0.347514
0.357381
0.357254
0.331366
0.336911
0.325333
0.32512
0.337259
0.357511
0.333764
0.361141
0.363344
0.375431
0.806162
0.341453
0.336183
0.35343
0.365747
0.47736
0.481695
0.360302
0.333749
0.363232
0.451742
0.339222
0.492665
0.362484
0.579179
0.376572
0.376777
0.333333
0.48324
0.335602
0.337356
0.344237
0.3352
0.328369
0.327286
1.02343
0.334117
0.383259
0.333909
0.460332
0.332659
0.332404
0.440266
0.429008
0.342342
0.331036
0.307419
0.329937
0.335923
0.330086
0.330969
0.333008
0.400593
0.470747
0.352533
0.332084
0.343373
0.33446
0.552664
0.341361
0.336684
0.282538
0.341337
0.330703
0.384225
0.781915
0.342273
0.22946
0.251963
0.326775
0.348932
0.329467
0.335551
0.372362
0.36408
0.7775
0.338154
0.367686
0.330254
0.473161
0.39582
0.370936
0.33852
0.885205
1.63829
0.336739
0.344976
0.334638
0.343593
0.378839
0.391995
0.338976
0.349821
0.379014
0.322661
0.362798
0.502308
0.367568
0.335737
0.508933
0.359762
0.33517
0.351282
0.355911
0.328756
0.362051
0.387552
0.391188
0.347602
0.336787
0.33337
1.04414
0.346754
0.412339
0.829202
0.806351
0.333274
0.37434
0.780437
0.367305
0.447976
0.762651
0.37683
0.847844
0.330803
0.335127
0.355658
0.526532
0.38168
0.375612
0.329921
0.381548
0.333876
0.337324
0.334585
0.359514
0.355047
0.739613
0.743734
0.360619
0.370188
0.361608
0.347438
0.381275
0.352379
0.353059
0.36072
0.34617
0.35064
0.370846
0.356021
0.329908
0.424174
0.380349
0.834135
0.578861
0.362098
0.340818
0.366132
0.33327
0.870783
0.336289
0.86804
0.368245
0.456383
0.36879
0.345993
0.348217
0.323544
0.387253
0.337005
0.3255
0.400579
0.405517
0.368567
0.417369
0.365505
1.33159
0.369343
0.383547
0.396935
0.363712
0.329065
0.377996
0.340945
0.415462
0.344381
0.34256
0.383849
0.344389
0.347489
0.336665
0.333956
0.506858
0.585683
0.331921
0.467985
0.332173
0.349546
0.327547
0.330615
0.427004
0.32332
0.332111
0.340235
0.332099
0.706148
1.12012
0.342476
0.341157
0.332072
0.35615
0.327091
0.350222
0.355893
0.585305
0.348195
0.33189
0.345267
0.332658
0.334114
0.337344
0.330893
0.335715
0.335434
0.329497
0.357429
0.577915
0.33149
0.276381
0.634671
0.582123
0.251707
0.356513
0.796693
0.388476
0.366128
0.543919
0.316413
0.86311
0.350889
0.328207
0.47299
0.359285
0.596051
0.345493
0.362111
0.330689
0.336271
0.443278
0.369303
0.350643
0.367147
0.489397
0.40201
0.349427
0.37844
0.525656
0.501053
0.539907
0.916668
1.00774
0.662097
0.695076
0.363152
0.369037
0.333224
0.331285
0.361896
0.284951
0.358108
0.355596
0.365438
0.334631
0.292642
0.273998
0.331413
0.396029
0.3471
0.332926
0.381231
0.332161
0.33537
0.333778
0.361868
0.466439
0.331881
0.333677
0.330816
0.37321
0.364103
0.568739
0.470943
0.328337
0.363976
0.328564
0.333229
0.333068
0.367725
0.371747
0.569261
0.335426
0.331865
0.33459
0.423697
0.901453
0.346468
0.345636
0.438157
0.361693
0.34513
0.369396
0.353094
0.376822
1.16073
0.458537
0.86369
0.366862
0.423404
0.333022
0.412551
0.33573
0.355062
0.362564
0.338367
1.06799
0.47403
0.389217
0.52106
0.388588
0.329819
0.352477
0.427759
0.337584
0.368545
0.257293
0.333978
0.419455
0.383232
0.405408
0.758048
0.38648
0.383474
0.542392
0.336172
0.336477
0.465167
0.559039
0.348801
0.446314
0.488579
0.342363
0.346699
0.329991
0.354823
0.366163
0.363513
1.46439
0.801345
0.391006
0.531557
0.529336
1.39232
1.80099
0.562211
0.373804
0.360867
0.373618
0.381585
0.934889
0.334336
0.361111
0.373089
0.381117
0.356024
0.348896
0.368338
0.329945
0.392526
0.511151
0.363528
0.964692
0.333897
0.414113
0.376592
0.365737
0.357549
0.35082
0.374856
0.480526
0.37906
0.40443
0.502951
0.356403
0.335483
0.360718
0.458759
0.330983
0.415636
0.365186
0.386943
0.682987
1.0022
0.328602
0.363537
0.347539
0.36194
0.369248
0.713287
0.557668
1.33647
0.337387
0.397139
0.353756
0.785106
0.332313
1.22469
0.409374
0.389881
0.489943
0.636673
0.338955
0.325089
0.335723
0.353368
0.456625
0.346656
0.431488
0.778291
0.430753
0.329109
0.331398
0.717021
0.898837
0.542507
0.565935
0.925486
0.40621
0.373371
0.429532
0.331295
0.515467
0.379044
0.393385
1.31418
0.358536
0.33016
0.332802
0.358358
0.414587
0.383435
0.348067
0.350619
0.485397
0.334815
0.348677
0.334024
0.353376
0.378718
0.404367
0.372131
0.359584
0.344189
0.390097
0.335925
0.326847
0.337504
0.346614
0.406958
0.511638
0.358066
0.393466
0.331214
1.34998
0.387389
0.372781
0.347486
1.00552
0.664619
1.08445
0.310393
0.358568
0.364592
0.730411
0.35319
0.367332
0.412472
0.366384
0.368246
0.838928
0.373335
0.343499
0.372364
0.381725
0.332546
0.62857
1.01212
0.332806
0.999948
0.353764
0.696476
0.663571
0.332928
0.367044
0.375666
0.657818
0.359307
0.361024
0.367017
0.778441
0.451292
0.627496
0.3298
0.345395
0.331199
0.337099
1.10127
1.12663
0.366495
0.391608
0.406612
0.714605
0.339457
0.329056
1.31584
1.06125
0.359533
0.345079
0.92463
1.29155
0.887787
0.379736
0.696953
1.01492
0.787971
0.340095
0.485718
0.472118
0.355692
0.359144
1.1397
1.42641
0.395092
0.399445
0.352114
0.345252
0.369678
0.345796
0.522282
0.34342
0.366941
0.332621
0.346278
0.97662
0.896162
0.344534
0.618364
0.455218
0.337695
0.554569
0.328459
0.351893
0.335564
0.367234
0.396184
0.329722
0.76619
0.33751
0.894391
0.716721
0.72801
0.411645
0.419395
0.356231
0.372593
0.334188
0.579323
1.08482
0.36598
0.868846
0.562542
0.847471
0.502101
0.945154
0.750249
0.347985
0.334017
0.896634
0.344934
0.346393
0.336645
0.731155
0.699472
0.336568
0.360215
0.665063
0.449558
0.981778
0.824168
0.361696
0.497538
1.05357
0.358398
0.357466
0.731208
0.339698
0.791053
0.869792
0.342336
0.334183
0.344425
0.333848
0.383167
0.328745
0.339242
0.372793
0.376821
0.512006
0.378304
0.347166
0.530546
0.782292
0.861469
0.3719
0.372002
0.564652
0.345356
0.998127
0.34674
0.364348
0.364834
1.29808
0.352798
1.73645
0.389197
0.532301
0.380209
0.886855
0.656621
0.563726
0.446319
0.575788
0.396231
0.363558
0.418763
0.615898
0.513507
0.490778
0.80672
0.388196
0.477703
0.795631
0.379481
0.331545
0.783604
1.48488
0.33275
0.354756
0.359683
0.379494
0.826336
0.948629
0.331816
0.350897
0.359256
0.843315
0.356282
0.645538
0.403941
0.348834
0.353626
0.503992
0.389254
0.659874
0.626651
0.37101
0.407806
0.469087
0.344949
0.945709
1.24516
0.355846
0.893658
0.823796
0.376785
0.609568
0.360738
0.392533
1.00212
0.391673
1.00242
0.951165
0.35356
0.398766
0.453043
0.365381
0.353996
0.421519
0.518307
0.447931
0.342425
0.421247
0.347273
0.783152
0.419659
0.377236
0.385015
0.554879
0.333988
0.868865
0.698047
0.396131
0.802954
0.80783
0.330553
0.510602
0.560275
0.373475
0.371842
0.526714
0.735543
0.532738
0.785428
0.336118
0.797653
0.472257
0.331356
0.416532
0.382986
0.525134
0.367775
0.416332
0.646846
0.330864
0.630166
0.372803
1.33703
0.39375
0.326011
0.386032
0.557332
0.390635
0.694584
0.459426
0.349584
0.94265
0.332289
0.359332
1.13125
0.329809
0.386581
0.743481
0.365423
0.806185
1.37972
0.381842
0.436739
0.333675
0.922316
0.640501
0.774509
0.683524
0.43859
0.367917
0.463497
0.865382
1.12597
0.830188
0.360641
0.357857
0.366737
0.343479
0.383409
0.742322
0.359624
0.343361
0.367863
0.329651
0.354721
0.36655
0.347797
0.352103
0.371804
0.473518
0.335778
0.375677
0.589216
0.347617
0.333713
0.387377
0.377807
0.35986
0.331076
0.358095
0.355291
0.344797
0.377015
0.675464
0.353237
0.354704
0.333768
0.333655
0.551909
0.336968
0.337908
0.661255
1.19599
0.743686
0.345016
0.654127
0.513987
0.335573
0.622942
0.465621
0.60302
0.366476
0.342806
0.361226
0.42241
0.338912
0.37399
0.390953
0.378417
0.333786
0.33484
0.372766
0.533645
0.364329
0.4377
0.882873
0.350283
0.68466
0.430046
0.875991
0.330053
0.373915
0.371735
0.333121
0.34677
0.370002
0.332848
1.07676
0.608325
0.888113
0.390077
1.0688
0.331089
0.352606
0.536346
0.33514
0.799708
0.420626
0.637907
0.325706
0.951163
0.944963
0.343748
0.329822
0.684444
0.348669
0.613998
0.333055
0.37226
0.334814
0.332958
0.336522
0.345651
0.354701
0.615356
0.419027
0.395273
0.358747
0.33847
0.338521
0.367342
1.1935
0.372818
1.52478
0.507159
0.334427
0.381705
0.353719
0.349038
0.349997
0.37724
0.353583
0.362945
0.342523
0.320998
0.368351
0.368202
1.74166
1.2086
0.374887
0.376851
0.84974
0.351496
0.331337
0.330799
0.330265
0.368991
0.381583
0.400148
0.381912
0.351172
0.331567
0.424827
0.33091
0.32315
0.344518
0.752218
0.393659
0.862843
0.781938
0.851455
0.34542
0.332572
0.327766
0.327802
0.333646
0.668478
0.347579
0.332896
0.350528
0.365102
0.332995
0.486634
0.330848
0.378365
0.472648
0.356435
0.329336
0.335623
0.351048
0.358208
0.33351
0.359209
0.340956
0.518653
0.334541
0.351054
0.387723
0.34089
0.34401
0.331709
0.356698
0.328558
0.378202
0.396455
0.333136
0.327623
0.331383
0.335972
0.334272
0.371138
0.331458
0.333467
0.33307
0.347739
0.888377
0.34058
0.454393
0.329062
0.333188
0.781614
0.346966
0.371724
0.329001
0.343698
0.364165
0.378889
0.768116
0.375984
2.1667
0.330617
0.338985
0.37106
0.334658
0.33311
0.384168
0.353551
0.333591
0.334824
0.956862
0.464855
0.692671
0.380034
0.59447
0.374003
0.324765
0.392325
0.919562
0.369775
0.336566
0.33532
0.811902
0.331092
0.343513
0.360104
0.350486
0.335625
0.818921
0.333707
0.351753
0.349368
0.350303
0.394209
0.957723
0.848515
0.335693
0.333541
0.334608
0.383821
0.364099
0.332895
0.826027
0.875475
0.330139
0.36435
0.7852
0.336755
0.602865
0.478297
0.332051
0.332639
0.336778
0.339782
0.634442
0.35674
0.349586
0.353204
0.393801
0.34351
0.361581
0.624904
0.362946
0.507263
0.529897
0.407518
0.621584
0.369541
0.38778
0.4184
0.379205
0.358969
0.352814
0.864887
0.629876
0.377917
0.378704
0.360861
0.370854
0.360207
0.424191
0.337974
0.329103
0.357497
0.351383
0.527849
0.456838
0.893693
0.74413
0.364797
0.378011
0.345236
0.348034
0.365163
0.334885
0.348066
0.331244
0.33324
0.396339
0.342712
0.335492
0.335542
0.648092
1.22073
0.377323
0.327225
0.463891
0.531605
0.858576
0.338499
0.775763
1.37998
0.67985
0.811662
0.429699
0.332444
0.331144
0.360735
0.88994
0.329212
0.372763
0.357149
0.331256
0.693217
0.646272
0.620882
0.347983
1.34173
0.329995
0.33791
0.367702
0.367372
0.776795
0.848421
0.256191
0.469565
0.290173
0.403855
0.336737
0.933627
0.354048
0.894565
0.372439
0.886011
0.360205
0.518522
0.397752
0.552433
0.380257
0.383062
0.455218
0.353687
0.355994
0.428591
0.40784
0.360847
0.346845
1.25934
0.670385
0.35371
0.647276
0.802683
0.633149
0.339808
0.337513
0.831958
0.731273
0.780835
0.339658
1.06746
0.337202
0.908397
0.786836
0.599999
0.673353
0.328943
0.387522
0.337664
0.343507
0.349049
0.542354
0.430141
0.331271
0.329706
0.370466
0.345451
0.332102
0.335729
0.489978
0.331638
0.326552
0.359417
0.33661
0.456301
0.353577
0.38686
0.37777
0.332246
0.455758
0.477867
0.326994
0.333138
0.512577
0.743327
0.354036
1.2591
0.377205
0.458635
0.749585
0.436687
0.363224
0.332218
0.519776
0.346995
0.328062
0.36761
0.343613
0.335365
0.350433
0.336393
0.330282
0.34136
0.359332
0.35053
0.379746
0.736045
0.34099
0.345898
0.345228
0.35301
0.454048
0.771065
0.355442
0.339961
0.357396
0.615998
0.446915
0.346022
0.355555
0.879421
0.371815
0.391793
0.376844
0.432387
0.360566
0.362784
0.354143
0.551545
0.38231
0.370448
0.956591
0.350888
0.400033
0.354919
0.37117
0.357101
0.393835
0.351345
0.340863
0.336766
0.381988
0.337546
0.36233
1.2906
0.337079
0.448918
0.377324
0.349096
0.696297
0.392517
0.380101
0.368662
0.619691
0.677459
0.363814
0.340506
0.396689
0.417604
0.367538
0.337056
0.828633
0.494466
0.401845
1.17659
0.396301
0.33996
0.547448
0.561047
1.18007
0.531337
0.414261
0.601257
0.35235
0.579343
0.499493
0.866006
0.388812
0.375546
0.342598
0.649604
0.379394
0.418091
0.344257
0.371188
0.372439
0.410321
0.659707
0.359315
0.374131
0.375495
0.535988
0.796897
0.441436
0.770163
0.384121
1.03635
0.373751
0.374735
0.834328
0.565469
0.732548
0.487953
0.698193
0.603083
0.337197
0.33407
0.320516
0.400392
0.372834
0.837229
0.377862
0.403301
0.334339
0.492003
0.366127
0.3352
0.901271
0.350692
0.538735
0.313538
0.409575
0.361427
0.368183
0.377016
0.395634
0.335873
0.328655
0.363861
0.414862
0.236216
0.238626
0.420091
0.384971
0.354285
0.442639
0.479179
0.385669
0.369287
0.378913
0.231194
0.398017
0.418939
0.287595
0.376337
0.81264
0.55732
0.352546
0.976155
0.394624
0.511301
1.11266
0.395924
0.377856
0.337718
0.842691
0.336049
0.331065
0.387475
0.379266
0.417859
0.357537
0.561718
0.366437
0.522566
0.33552
0.385706
0.374997
0.327466
1.08058
0.47299
1.0635
0.614216
0.329499
0.878675
0.508183
0.334467
1.80687
0.33321
0.330378
0.469992
0.490199
0.961861
0.718307
0.376763
0.725403
1.14628
0.342335
0.5928
0.962171
0.501594
1.29054
0.410819
0.34205
0.634499
0.712669
0.393002
0.964203
0.391205
0.362551
0.55798
0.392303
0.341187
0.371919
0.799292
0.760364
0.327927
0.55494
0.342898
0.383704
0.360686
0.382198
0.603786
0.458167
0.755035
0.352231
0.360768
0.741163
0.334878
0.352634
0.49317
0.34005
0.367747
0.901577
0.364823
0.924953
0.837964
0.837094
0.840026
0.376401
0.425945
0.332095
0.330154
0.449524
0.335655
0.335863
0.40105
0.341041
0.445942
0.902326
0.336229
0.542554
0.343334
0.497
0.390133
0.889486
0.36903
0.479824
0.341898
0.347065
0.411161
0.337749
0.35458
0.343852
0.329972
0.570557
0.331017
0.380599
0.386376
0.350341
0.368803
0.371738
0.378791
0.701374
0.362087
0.336293
0.346857
0.420317
0.278479
0.683893
0.515087
0.687009
1.0071
0.432006
0.45007
0.149275
0.328834
0.920423
0.428587
0.552904
0.406893
0.765434
0.720346
1.27776
0.390176
0.359265
0.552028
0.976091
0.373605
0.307058
0.476268
0.335086
0.436777
0.432959
0.845481
1.20274
0.296287
0.405262
0.213698
0.357198
1.13944
0.352806
0.368094
0.34004
0.339467
0.477987
0.340437
0.628571
0.498781
0.336048
0.38742
0.338222
0.579349
0.665625
0.353756
0.439983
0.39182
0.950016
0.464726
0.361
0.552903
0.555937
0.329772
0.34049
0.365247
0.331067
0.674653
0.337506
0.465274
0.642199
0.343227
0.371099
0.338809
0.339999
0.558057
0.391905
0.551069
0.325264
0.328152
0.595338
0.921551
0.338429
0.353461
0.338232
0.335462
0.653097
0.45767
0.819099
0.369701
0.334224
0.477671
0.402223
0.369853
0.339622
0.397119
0.382903
0.573314
0.469637
1.24771
0.426598
0.445407
0.340237
0.377486
0.830776
0.973976
0.424649
0.938824
0.37088
0.951026
0.453107
0.756579
0.496646
0.523068
0.395276
0.350154
0.381651
0.434035
0.585823
0.362981
0.392784
1.00158
0.374604
2.22092
0.373618
0.351135
0.378026
0.556236
0.414001
0.337627
0.827552
0.332377
0.339437
0.329029
0.372399
0.873201
0.510415
0.343579
0.543262
0.350865
0.368178
0.339911
0.34786
0.439406
0.411873
0.429347
0.368667
0.338348
0.422002
0.362415
0.327361
0.429118
0.390547
1.02569
0.387341
0.481933
0.372997
0.424302
0.375063
0.446985
0.328701
0.375206
0.351585
0.360674
0.386941
0.833499
0.329679
0.618856
0.37307
0.391616
0.379809
0.374683
0.382613
0.458228
0.648277
0.338134
0.364039
0.367222
0.525764
0.402295
0.329064
1.18363
0.892478
0.652322
0.335964
0.337207
0.525381
0.354736
0.354496
0.518375
0.364464
0.349397
0.38854
0.950039
0.336153
0.594808
0.334999
0.346131
0.444081
0.349147
0.386183
0.480333
0.337474
0.592975
0.423857
0.426675
0.464679
0.947082
0.34153
0.360099
0.380409
0.41179
0.375393
0.374405
0.331854
0.331723
0.374524
0.595588
0.380074
0.376155
0.962062
0.37732
0.656121
0.358636
0.383052
0.413603
0.352083
0.701488
0.368687
0.495542
0.388003
0.355428
0.359974
0.406856
0.573598
0.468436
0.337673
0.63356
0.37703
0.850702
0.777312
0.852555
0.34648
0.478775
0.377803
0.26064
0.413957
0.297301
0.460362
0.240114
0.422282
0.716781
0.4239
0.638325
0.701438
0.380942
0.277638
0.374787
0.996277
0.550425
0.714054
1.2544
1.28045
0.535514
0.84356
0.344667
0.364024
0.765431
0.407966
0.912766
0.391446
0.760323
0.771968
0.356118
0.37793
0.34819
0.328413
0.368088
0.329987
0.743084
0.399173
0.375503
0.568114
0.342147
0.364934
0.326401
0.361369
0.363056
0.371548
0.401099
0.332062
0.425393
0.910644
0.330476
0.340321
0.356515
0.335313
0.728093
0.765986
0.410106
0.413488
0.570863
0.331591
0.326588
0.361071
0.383167
0.344763
0.352252
0.340013
0.33392
0.435064
0.330328
0.392714
0.351531
0.331202
0.337957
0.638254
0.347743
0.361125
0.333942
0.44163
0.362741
0.368693
0.734758
0.431791
0.362106
0.403554
0.358183
0.389109
0.395852
0.373724
0.345158
0.382649
0.369525
0.348639
0.377919
0.367314
0.446264
0.470563
0.35074
0.356697
0.416982
0.453149
0.501849
0.573436
0.848976
0.952239
0.357727
0.339831
0.90137
0.556326
0.576349
0.344727
0.334801
0.351568
0.330084
0.352694
0.33846
0.342938
0.372057
0.333476
0.338658
0.336596
0.347353
0.337761
0.544107
0.396615
0.363458
0.338269
0.344808
0.660597
0.330182
0.339956
0.411884
1.03838
0.584669
0.374322
0.362456
0.354355
0.390065
0.480113
0.736984
0.42215
0.347522
0.37269
0.347173
0.343338
0.386076
0.445406
0.373291
0.337621
0.41374
0.409964
0.646899
0.411745
0.736762
0.588617
0.39542
0.40909
0.344838
0.35859
0.381771
0.331402
0.341121
0.633018
0.346047
0.36097
0.724696
0.362377
0.377637
0.492781
0.41861
0.335959
0.363131
0.341124
0.373095
0.731826
0.359637
0.448677
2.06479
0.587048
1.10011
0.855149
0.348515
0.35843
0.549893
0.332802
0.578064
0.51501
0.713922
0.36986
0.333553
0.755302
0.334564
0.570758
0.432589
0.341753
0.736764
0.857236
0.33132
0.342486
0.908015
0.331518
0.33374
0.333034
0.33277
0.360726
0.539553
0.590869
0.359822
0.817842
0.346719
0.357025
0.33617
0.893024
0.352323
0.937427
0.334742
0.37324
0.334922
0.453516
0.339373
0.522356
0.329812
0.651178
0.494858
0.49671
0.717561
0.350053
0.35228
0.847292
0.468622
0.361291
0.438784
0.634051
0.35574
0.445995
0.344584
0.619388
0.425012
0.339034
0.329171
0.478464
0.349467
0.401382
0.366659
0.331748
0.355577
0.33528
0.337386
0.351705
0.724939
0.34262
0.336343
0.3349
0.343306
0.336323
0.346172
0.338303
0.374669
0.4317
0.389585
0.387857
0.338252
0.29183
0.355841
0.394692
0.8338
0.323933
0.796024
0.341968
1.38037
0.387098
0.404205
0.382246
0.389403
0.3886
0.341338
0.327538
0.363792
0.366717
0.328977
0.349043
0.335064
0.704489
0.334517
0.349761
0.386478
0.906217
0.228589
0.356914
0.831889
0.792166
0.636468
0.570584
1.09223
0.182336
0.424848
0.370885
0.365027
0.38656
1.84503
0.568041
0.409761
0.335594
0.332681
0.778025
0.361556
0.569792
0.511821
0.385155
0.583066
0.379784
0.626706
0.339143
0.370336
0.352578
0.33157
0.396967
0.329425
0.363071
1.13474
1.1423
1.07064
0.467017
0.774193
0.352491
0.327156
0.330406
0.377625
0.334039
0.385738
0.341229
0.426385
0.383242
0.32995
0.331329
0.370466
0.332511
0.3517
0.371587
0.342152
0.371588
0.541698
0.351668
0.391202
0.829118
0.380967
0.719572
0.853912
0.36852
0.398669
0.33113
0.499169
0.379902
0.388753
0.659896
0.335541
0.401602
0.364723
0.385596
0.33821
0.342894
0.496295
0.543401
0.37553
0.370157
0.799759
0.405507
0.645498
0.599496
0.360598
1.0968
0.45201
0.398885
0.378741
0.352179
0.421432
0.373008
0.315177
0.339415
0.269562
0.601628
0.224106
0.350705
0.385189
0.442983
0.225425
0.793467
0.34454
0.372315
0.406404
0.324938
0.410009
0.671243
1.6629
0.380473
0.34953
0.36916
0.678654
0.336602
0.393452
0.381508
0.346151
0.362259
0.352294
0.537104
0.338675
1.6673
0.39432
0.956728
0.342926
1.1502
0.803743
1.04361
0.366353
0.352558
0.492889
0.378163
0.353501
0.369336
0.355113
0.816796
0.330357
0.486036
0.631257
0.330439
0.342267
0.339438
0.343197
0.364679
0.360716
0.406898
0.405091
0.373483
0.366931
0.412627
0.351956
0.457882
0.342648
0.378174
0.339219
1.16011
1.02242
0.388108
0.432689
0.331519
1.41236
0.32687
0.335515
0.366357
0.332094
0.38414
0.367786
0.332079
0.329714
0.353576
0.804975
0.619644
0.370892
0.808696
0.334164
0.362102
0.341299
0.359657
0.794259
0.392896
0.855996
0.330082
0.346176
0.811713
0.901261
0.354787
0.351091
0.662406
0.377133
0.383495
0.49657
0.400834
0.381437
0.436073
0.381203
0.328462
0.38736
0.36355
0.499361
0.333515
0.371206
0.331647
0.349118
0.776672
0.684832
0.343334
0.346448
0.357005
0.365493
0.347696
0.543738
0.350962
0.365725
0.396187
0.363442
0.461523
0.415421
0.508297
0.396054
0.32723
0.336602
0.333408
0.392005
0.324493
0.552781
0.451964
0.336574
0.758529
0.352646
0.330168
0.372178
0.33509
0.382019
0.655817
0.355538
0.449305
0.371395
1.03796
0.407415
0.392496
0.375165
0.722815
0.377458
0.554443
0.384906
0.42094
0.343005
0.429536
0.405985
0.718256
0.472184
0.363257
0.345491
0.341967
0.571795
0.360191
1.0482
1.3887
0.375942
0.441167
0.357597
0.493226
0.465215
0.401
0.861717
0.499666
0.691081
0.335705
0.397005
0.948881
0.50469
0.368218
0.490861
0.34743
1.10445
0.402914
0.391982
0.342429
0.332547
0.336621
0.356011
0.333593
1.00438
0.338746
0.655926
0.334544
0.444608
0.413142
0.550244
0.355175
0.359979
0.347902
0.608221
0.481225
0.530001
0.333962
0.337567
0.470284
0.38631
0.374307
0.331358
0.330632
0.33286
0.350892
0.332376
0.389747
0.338626
0.575349
0.444068
0.946056
0.786861
0.639638
0.586978
0.405101
0.41212
0.329966
0.614191
0.343444
0.355854
0.344107
0.475526
0.508873
0.345274
0.437622
0.810054
0.498506
0.334345
0.333218
1.3583
0.846668
0.395785
0.886667
0.902867
0.663099
0.786042
0.602908
0.743039
0.418518
0.666314
0.806372
0.330986
0.336772
0.325934
0.481518
0.628314
0.346241
0.334634
0.416364
0.375134
0.393058
0.860168
0.500777
0.954168
0.359142
0.331464
0.348112
0.329566
0.374444
0.812563
0.554583
0.677969
0.75186
0.335331
1.01863
1.01234
0.332653
0.538812
0.487647
0.804331
0.380276
0.493264
0.796742
0.792247
0.482178
0.844857
0.524551
0.751861
0.374681
0.358343
0.386719
1.05291
0.784905
0.405714
0.352252
0.581102
0.459788
0.602359
0.365469
0.391724
1.0963
1.34329
0.268702
0.332686
0.287677
0.332661
0.247676
0.402382
0.478489
0.633265
0.23187
0.452781
0.502436
0.159563
0.473674
1.56254
0.435216
0.400559
0.723717
0.352854
0.519056
0.344978
0.330993
0.348586
0.36488
0.799714
0.727154
1.10371
0.405362
0.406844
0.614863
0.393938
0.38632
0.420984
0.374798
0.350603
0.591074
0.379938
0.382757
0.34156
0.436421
0.419964
0.786095
0.491617
0.827772
0.954998
0.805153
0.373902
0.417338
0.727858
0.349398
0.581397
0.375417
0.407174
0.340328
0.829109
0.616254
0.479534
1.23992
0.630555
0.331917
0.453135
0.85758
0.841698
0.408445
0.365298
0.48448
0.918665
0.369524
0.336591
0.36836
0.355787
0.723495
0.361417
0.643343
0.821824
0.76969
1.38387
0.561789
0.481727
0.802823
1.13316
0.878515
0.611961
0.762298
0.90944
0.554747
0.398626
0.466464
0.356734
0.325728
0.33749
0.438352
0.544741
1.39754
0.370468
0.391866
0.40574
0.378089
0.444184
0.583174
0.489271
0.364166
0.384068
0.997909
1.11414
0.233696
0.408169
0.346181
0.383765
1.14871
0.818467
0.374365
0.569084
0.346931
0.385209
0.354978
0.594652
0.355519
0.357922
0.341557
0.402529
0.88747
0.46386
0.37239
0.857789
0.331479
0.902363
0.705917
0.481411
0.707983
0.381839
0.332508
0.340674
0.340151
0.368443
0.42278
0.342343
0.356681
0.343272
0.341806
0.540906
0.666764
0.754862
0.343427
0.49406
0.379165
0.409902
0.362645
0.637014
0.371502
0.357323
0.354602
0.331276
0.348243
0.347354
0.472786
0.32826
0.374637
0.386183
0.633559
0.346063
0.410289
0.504436
0.82259
0.908047
0.403551
1.18251
0.552867
0.386644
0.370851
0.546443
0.347292
1.20843
0.451423
0.334504
0.443675
0.533651
0.426982
0.47967
0.720864
0.746731
0.483243
0.818848
0.361682
0.332641
0.414118
0.335373
0.332748
0.428859
0.340437
0.338519
0.587171
0.334959
0.315904
0.867779
0.671148
0.332295
0.33476
0.796485
0.34814
0.344584
0.605447
0.342993
0.748916
0.428381
0.795455
0.340434
0.566431
0.462565
0.706377
0.342056
0.456988
0.339902
1.11046
0.364363
0.335131
0.77791
0.440249
0.515185
0.370519
0.388365
0.373756
0.342368
0.51201
0.342141
0.339484
0.323467
0.457745
0.567709
0.334299
0.345494
0.336325
0.337341
0.350725
0.90461
0.334989
0.464152
0.334779
0.605002
0.365456
0.386586
0.372491
0.486634
0.351896
0.45358
0.32758
0.352494
0.357197
0.372323
0.338807
0.450971
0.431601
0.907597
0.903711
0.813267
0.409858
0.36235
0.361497
0.331166
0.333241
1.01368
0.65993
0.413201
0.383351
0.328328
0.354007
0.330452
0.337361
0.541293
0.528489
0.777986
0.678787
0.388071
0.353958
0.437646
0.335127
0.636262
0.359343
0.45416
0.368159
0.376008
1.0475
0.437118
0.327964
0.350047
0.418089
0.33457
0.340231
0.334309
0.628029
0.390748
0.91384
0.500519
0.787992
0.33873
0.359767
0.37415
0.374609
0.381848
0.358395
0.332129
0.332707
0.341513
0.347692
0.355208
0.597635
0.398374
0.878461
0.435954
0.339504
0.525697
0.381702
0.361566
0.336233
1.04822
0.9135
0.335511
0.336586
0.340756
0.854068
0.379351
0.451818
0.391425
0.379313
0.296658
0.369304
0.368383
0.331121
0.432032
0.553222
0.952993
0.547825
0.452805
0.327736
0.416309
0.661691
0.36839
0.33742
0.844263
0.857358
0.481742
0.702336
0.336651
0.330635
0.423102
0.337961
0.863904
0.338066
0.335374
0.339667
0.698914
0.332543
0.377715
0.47735
0.484674
0.335682
0.349909
0.356343
0.349073
0.326334
0.359387
0.387722
0.595751
0.457827
0.376365
0.61708
0.368297
0.628318
0.382986
0.915476
0.464336
0.392429
0.708921
0.318562
0.446049
0.546169
0.601038
0.425098
0.332037
0.337446
0.332044
0.371121
0.860218
0.382342
0.335104
0.363484
0.389752
0.334597
0.502632
0.36259
0.375346
0.480271
0.35729
0.337702
0.373342
0.366017
1.08621
0.881269
0.408442
0.36388
0.44208
0.361711
0.818675
0.986067
1.20762
0.7975