/*--------------------------------*- C++ -*----------------------------------*\
| =========                 |                                                 |
| \\      /  F ield         | OpenFOAM: The Open Source CFD Toolbox           |
|  \\    /   O peration     | Version:  2506                                  |
|   \\  /    A nd           | Website:  www.openfoam.com                      |
|    \\/     M anipulation  |                                                 |
\*---------------------------------------------------------------------------*/
FoamFile
{
    version     2.0;
    format      ascii;
    arch        "LSB;label=32;scalar=64";
    class       volScalarField;
    location    "0.0411073";
    object      nut;
}
// * * * * * * * * * * * * * * * * * * * * * * * * * * * * * * * * * * * * * //

dimensions      [0 2 -1 0 0 0 0];

internalField   nonuniform List<scalar> 
47425
(
0.00585557
0.00531943
0.00463372
0.00202707
0.00351604
0.00472365
0.00487856
0.00334231
0.00742787
0.00193204
0.00250581
0.00732616
0.00564065
0.00418869
0.00348939
0.00385317
0.00483264
0.00276177
0.000285315
0.00309481
0.00389819
0.0072489
0.00322894
0.00522621
0.007076
0.00724543
0.00415202
0.000519613
0.00457844
0.00590361
0.00749216
0.00710042
0.00745949
0.00503224
0.0061647
0.0050703
0.00728816
0.00537881
0.00512253
0.00447753
0.00513859
0.00552741
0.00517908
0.00260987
0.000747991
0.00345171
0.00355986
0.00452921
0.00421428
0.0067839
0.000681626
0.00269319
0.00651874
0.00100014
0.00332667
0.00298936
0.0072974
0.00578054
0.00230587
0.00542206
0.000864504
0.000737646
0.000990505
0.00350133
0.00738494
0.0072048
0.00555828
0.00468052
0.0011003
0.00542792
0.00420724
0.00643991
0.0068618
0.0037335
0.00128413
0.00746318
0.00101887
0.00409704
0.000259055
0.00218781
0.0012726
0.00523219
0.00749215
0.00742318
0.00710441
0.00408096
0.00613055
0.00658174
0.00508759
0.00142652
0.00735467
0.00455797
0.00734056
0.00326597
0.00262115
0.00190451
0.00665442
0.00636373
0.0037286
0.00466067
0.00558615
0.00107238
0.00644712
0.00104753
0.00667375
0.00679305
0.0069547
0.00357294
0.00723959
0.00709561
0.00278977
0.00535552
0.00612304
0.00230741
0.00721454
0.000362214
0.00721711
0.000789772
0.00445361
0.00591822
0.00420808
0.00747151
0.00593951
0.00310253
0.00368295
0.00686843
0.00399536
0.00741807
0.00340177
0.00740642
0.00735567
0.00354682
0.00108257
0.00299009
0.00604972
0.00558295
0.00701149
0.00671009
0.00484506
0.00335022
0.00500079
0.00286391
0.00481601
0.00553448
0.00660268
0.00742421
0.00417234
0.00545292
0.0024392
0.0050034
0.00559198
0.000563986
0.00739057
0.000439128
0.00340188
0.00403808
0.00328382
0.000309726
0.00393664
0.00473913
0.00743457
0.00730839
0.00656523
0.0070915
0.00127029
0.000548838
0.0074436
0.00128632
0.00328451
0.000868134
0.0012829
0.00419624
0.0047941
0.00402213
0.00500077
0.00136729
0.000408067
0.00462316
0.00625921
0.00725386
0.000335708
0.00691201
0.00540594
0.00710804
0.00693813
0.00693151
0.00593405
0.00118523
0.00242147
0.00604064
0.00746999
0.004615
0.00522326
0.00474241
0.00695768
0.00739967
0.00582713
0.00469141
0.00752313
0.00389638
0.00528329
0.0029884
0.00720692
0.0073188
0.00275879
0.00237486
0.006103
0.00731968
0.00408825
0.00747143
0.00513791
0.00501167
0.00745935
0.00343629
0.00534486
0.00536773
0.00456036
0.00171248
0.00371401
0.00386845
0.00207741
0.00263663
0.00531102
0.00338992
0.00239213
0.0016747
0.00692734
0.0026493
0.00724289
0.0045817
0.00472626
0.00465435
0.00344872
0.00748899
0.00225656
0.00360464
0.00190329
0.00308385
0.00216004
0.00204662
0.00410313
0.0056993
0.00738013
0.00324889
0.00730556
0.00733005
0.00483305
0.00590111
0.00730754
0.00429713
0.00742676
0.00247152
0.00503536
0.0074203
0.00370501
0.0073481
0.00706264
0.00309268
0.00343231
0.00739615
0.00310626
0.00746404
0.00427033
0.00272651
0.00580493
0.00400539
0.0072316
0.00553522
0.00528265
0.00416037
0.00422953
0.00239175
0.00192978
0.0068488
0.0025067
0.00211627
0.00250385
0.0005597
0.00197845
0.000662477
0.000942773
0.00599843
0.000937419
0.00302686
0.00420655
0.00372617
0.00346951
0.00368592
0.00409018
0.00722727
0.000794031
0.00574224
0.00737544
0.00577037
0.00489528
0.00347419
0.00312147
0.00704959
0.00507643
0.00471741
0.0039669
0.00724686
0.00395983
0.00546925
0.00112189
0.000849512
0.000597625
0.00738101
0.00674303
0.0073915
0.0033316
0.000863988
0.00389581
0.00293035
0.00164225
0.00482031
0.00339228
0.00308637
0.00365414
0.00168102
0.00180416
0.00728948
0.00543958
0.00688258
0.00426982
0.00727154
0.00423392
0.00539751
0.0062865
0.0045728
0.00405403
0.00112216
0.00460722
0.00437082
0.00297365
0.00737152
0.000893096
0.00648362
0.00704789
0.0063946
0.00718706
0.00714047
0.00726475
0.0062978
0.00671386
0.0064314
0.00561663
0.00699992
0.00403711
0.00420409
0.00703199
0.00720261
0.00539692
0.00693051
0.00685265
0.00291703
0.0042757
0.0075107
0.00673735
0.00385791
0.0019549
0.00619623
0.00434772
0.00364727
0.00687236
0.00678099
0.00285697
0.00743426
0.00505097
0.00733201
0.00284453
0.000994789
0.004204
0.00743539
0.00192611
0.00741851
0.00543926
0.00392402
0.00502371
0.00725176
0.00563182
0.00733382
0.00729276
0.00481909
0.00414886
0.0043997
0.00409164
0.00639899
0.00717725
0.00406733
0.00692296
0.00698857
0.00424959
0.00584874
0.00514109
0.00686785
0.00533977
0.00376196
0.00301467
0.00674864
0.000830829
0.00707499
0.00216139
0.00491757
0.00353711
0.00353085
0.00685181
0.00247309
0.00691165
0.00368641
0.00716546
0.00106998
0.00106959
0.00734483
0.00311907
0.00406555
0.00378605
0.00417366
0.00447439
0.0040619
0.00407432
0.0050336
0.00728136
0.00319111
0.00469113
0.0066059
0.00336278
0.00422747
0.00633504
0.000989865
0.000420335
0.00688767
0.000518731
0.000515027
0.00404868
0.000498811
0.000716013
0.00672849
0.00405917
0.00432728
0.00415258
0.000934896
0.00395923
0.00659418
0.00653805
0.0044701
0.00443315
0.00413231
0.00411702
0.000911955
0.000738875
0.00139873
0.00543752
0.00114445
0.00370212
0.00593013
0.007376
0.00574037
0.00741801
0.00423282
0.0047897
0.00284696
0.00488093
0.00748961
0.00423527
0.00559483
0.00447547
0.00743828
0.00514983
0.00494157
0.00523213
0.00562919
0.00344078
0.00289823
0.00528449
0.004271
0.00741053
0.00115668
0.00281798
0.00232792
0.00744073
0.00268305
0.00311353
0.00339506
0.00737459
0.00444843
0.00740065
0.00493239
0.00330822
0.00340354
0.00388451
0.00369432
0.00613253
0.0023792
0.000929723
0.00697917
0.00179758
0.00569959
0.00178081
0.0068532
0.00639264
0.0072471
0.00483532
0.00580948
0.00309908
0.00545883
0.00681391
0.00736926
0.00754474
0.00459306
0.00275074
0.00423818
0.00736461
0.00595319
0.00588192
0.00582279
0.00563337
0.00497961
0.0045605
0.00285599
0.00472354
0.00372056
0.000725068
0.00551168
0.00485296
0.0064684
0.00741188
0.00184003
0.00193823
0.00457511
0.00670744
0.00440184
0.00441532
0.00686637
0.00190266
0.00747886
0.00235508
0.00257302
0.00287307
0.00572068
0.00301846
0.00746416
0.00462328
0.00468802
0.00704978
0.00727129
0.00640948
0.000894827
0.00530441
0.00252959
0.00710343
0.00179225
0.00703447
0.00566456
0.0023325
0.00253474
0.00482652
0.00708165
0.000746686
0.00609718
0.00572075
0.0060739
0.0066151
0.0072689
0.00241494
0.00296547
0.00653779
0.00622029
0.0050237
0.00727106
0.00211084
0.0073463
0.00545646
0.000536819
0.00467839
0.00730918
0.000933459
0.00140867
0.00723981
0.000335742
0.000352273
0.00454634
0.00744305
0.00625865
0.00735947
0.00432065
0.00398284
0.00137365
0.00736693
0.0028077
0.00651826
0.00213504
0.00233214
0.00433959
0.00497664
0.00165318
0.00512883
0.00637505
0.0036348
0.00361491
0.0029155
0.00305243
0.00306803
0.00670526
0.00353512
0.00285149
0.00351522
0.00535213
0.00330248
0.00381294
0.0068687
0.00279538
0.00378701
0.004255
0.00281983
0.00344724
0.00487152
0.00493113
0.00656308
0.0019139
0.00508222
0.00683833
0.00698347
0.000317155
0.00406542
0.00557482
0.000591756
0.000793483
0.00736239
0.00477361
0.000233836
0.00211991
0.000874617
0.00259751
0.00315424
0.000645775
0.00562601
0.00677059
0.0059139
0.00329243
0.00335527
0.00332849
0.00704722
0.00318046
0.00504087
0.00402763
0.00671574
0.00438002
0.00421897
0.00181529
0.000947919
0.00290176
0.00320154
0.00413647
0.00659614
0.00345139
0.00741194
0.00605177
0.00567793
0.00527313
0.00660412
0.00201375
0.00469668
0.00688802
0.00183513
0.00198967
0.000995606
0.00133483
0.00405174
0.00753828
0.00486814
0.00729709
0.00104872
0.00472463
0.00113431
0.00429525
0.00425484
0.00566117
0.00489064
0.00573445
0.00373283
0.00217984
0.00379882
0.0058404
0.00191413
0.00461877
0.00748592
0.00448506
0.00403789
0.000890231
0.00567935
0.00187295
0.00389104
0.00747337
0.00721034
0.00258234
0.0042605
0.00421831
0.0074234
0.00526578
0.00454321
0.00461119
0.00427569
0.00419252
0.00516589
0.000998319
0.000669601
0.00464577
0.000876059
0.00492406
0.00302292
0.00349889
0.00680346
0.00392493
0.00532467
0.00433186
0.00423751
0.00721194
0.00061195
0.00259491
0.00350581
0.00510836
0.0069501
0.00384155
0.00608295
0.00250382
0.00746181
0.00127718
0.00416685
0.00715316
0.00437654
0.00683392
0.00560166
0.0047603
0.00662377
0.00369781
0.00738882
0.00704839
0.00452981
0.00105189
0.00744839
0.000678348
0.00227597
0.00236528
0.000701394
0.00435107
0.00372361
0.00237035
0.00388937
0.00081835
0.00043324
0.000956637
0.00344514
0.00543923
0.00375322
0.00301639
0.000958079
0.00260558
0.00378975
0.0062386
0.00475185
0.00443063
0.00318321
0.0060782
0.00434914
0.0013191
0.00221076
0.0055644
0.00246471
0.00116858
0.000754185
0.00368367
0.000476576
0.00200848
0.00070014
0.000897642
0.00450209
0.00305726
0.00732026
0.00689605
0.00492766
0.000550978
0.00143117
0.00486162
0.00491821
0.00730802
0.000810078
0.000505865
0.00735219
0.00229889
0.0037735
0.00735531
0.00225548
0.00735059
0.00740685
0.00457148
0.00492241
0.00168813
0.00668367
0.00734563
0.0053963
0.00531
0.0052876
0.00115664
0.00183376
0.00725121
0.00144569
0.0067891
0.00714718
0.00707296
0.00183004
0.00461183
0.00211729
0.00277441
0.00606463
0.00738948
0.00139758
0.000721141
0.00468281
0.00404777
0.00190716
0.00548742
0.00562174
0.00310661
0.00285678
0.00294515
0.00405564
0.00237183
0.00113493
0.00742371
0.00120673
0.00605126
0.00395451
0.00730864
0.00208452
0.00280427
0.00742283
0.00249996
0.00136653
0.00386989
0.00191039
0.00516703
0.00610831
0.00483122
0.00351963
0.00478911
0.00327811
0.000645576
0.0049581
0.00295905
0.00181759
0.00180371
0.000870844
0.00176104
0.00421153
0.000584457
0.00727879
0.00690335
0.00447235
0.00265879
0.0039733
0.00154088
0.00143414
0.00327675
0.00578588
0.00482352
0.00329104
0.00362425
0.00397658
0.00511363
0.00141725
0.00408988
0.00486637
0.0022325
0.00197334
0.00503842
0.000577661
0.00397372
0.00537414
0.00386771
0.00402918
0.00561861
0.00718945
0.00338485
0.00386495
0.000855771
0.00291278
0.00493568
0.00373717
0.00602031
0.003551
0.000845078
0.00462504
0.00208944
0.00622853
0.00213564
0.00286746
0.00376006
0.00546457
0.00530151
0.0035789
0.00172228
0.00404046
0.00172806
0.000761099
0.00543335
0.00722485
0.00561149
0.00115849
0.00570806
0.00197121
0.00674976
0.00173264
0.00188055
0.00380134
0.00337344
0.00434363
0.00734017
0.00514851
0.00319404
0.00105648
0.00238917
0.000879588
0.00727879
0.00252844
0.00286221
0.00251758
0.00374246
0.00371471
0.00170473
0.00166359
0.00362665
0.000946073
0.00372251
0.00375386
0.0045756
0.0052012
0.00386836
0.00504588
0.00140406
0.00359536
0.00386796
0.00504898
0.00645138
0.000851373
0.00211266
0.000756868
0.00174068
0.0012877
0.00210054
0.00397882
0.00135978
0.00372632
0.00140027
0.00203039
0.00206708
0.00139554
0.00333505
0.00570629
0.00457344
0.00747695
0.00160227
0.00374336
0.00354642
0.00451795
0.00154921
0.0063058
0.00443269
0.00640022
0.00746197
0.00298664
0.00209713
0.00304301
0.00354253
0.0061135
0.00236548
0.00698349
0.003288
0.00317152
0.00738111
0.00262239
0.00206005
0.00463001
0.00239319
0.00411464
0.00271209
0.00207837
0.00296165
0.00317847
0.000231224
0.000635642
0.00166776
0.000471428
0.00340746
0.0034746
0.00062398
0.000633971
0.0057929
0.00114033
0.00338022
0.00422144
0.000549932
0.00265784
0.00712563
0.00323262
0.00169797
0.00673801
0.000749017
0.000353129
0.00235597
0.000825784
0.00228493
0.00101476
0.000895924
0.00581216
0.0046301
0.00278661
0.00229255
0.00378192
0.00731555
0.00231285
0.000712321
0.00550027
0.00177083
0.00453435
0.00208868
0.00669984
0.00620955
0.00202937
0.00203983
0.00431317
0.00186691
0.00554324
0.00147635
0.00733092
0.00657553
0.00306242
0.00188
0.00492572
0.00739066
0.000812836
0.00152329
0.00165551
0.00375989
0.00313648
0.00210322
0.00116105
0.00425353
0.00116365
0.00208949
0.00558932
0.00329477
0.00214205
0.00077429
0.00242197
0.00201142
0.00592528
0.0057122
0.00214827
0.00421737
0.00287234
0.00510461
0.0074045
0.00688692
0.00440297
0.00261942
0.000768053
0.00458217
0.000510522
0.00465278
0.00455064
0.00301384
0.00579586
0.00388733
0.00448176
0.00476552
0.00196634
0.00619228
0.00156614
0.00735166
0.000389778
0.00131839
0.00150008
0.00200438
0.00444951
0.00551116
0.0035375
0.00629906
0.000707021
0.000754685
0.00345282
0.0022362
0.000956665
0.000974342
0.00238725
0.00118945
0.000518442
0.00370769
0.00655387
0.000531514
0.00404715
0.00489476
0.00452874
0.000823639
0.000668586
0.00414962
0.00435921
0.00142047
0.00245294
0.000919465
0.000805485
0.00330708
0.00108901
0.00118942
0.00341684
0.00488797
0.00130558
0.00645471
0.00125547
0.000242069
0.0074313
0.00488506
0.00406464
0.00592764
0.00306006
0.00319589
0.00746192
0.00301835
0.00417021
0.000940208
0.00171731
0.00520776
0.00141558
0.00495597
0.000402627
0.00695859
0.00379556
0.00244928
0.00656678
0.00107209
0.00400947
0.00314415
0.0023936
0.00237866
0.00404036
0.00337752
0.00212832
0.000766183
0.0066727
0.00129693
0.000763497
0.00120451
0.00445408
0.00110245
0.00193769
0.00478201
0.00521304
0.00115088
0.00195005
0.0024748
0.000825822
0.00258612
0.00105223
0.00295248
0.00293125
0.00225642
0.000987885
0.00400225
0.00668169
0.00223037
0.00428864
0.00255695
0.00265043
0.000740328
0.00567457
0.00401367
0.00575778
0.00150647
0.00561039
0.000598263
0.00239244
0.00558666
0.00739478
0.00198834
0.00184899
0.000982624
0.00199475
0.0024005
0.00124003
0.000952859
0.00422273
0.000950959
0.00382851
0.00306747
0.00049517
0.00162925
0.00308882
0.00282979
0.00561409
0.00163391
0.000493426
0.00182079
0.00234557
0.00316384
0.00729047
0.00200672
0.00547685
0.00379638
0.00628028
0.00116151
0.00234697
0.00158004
0.00432709
0.00171123
0.00419703
0.00319743
0.00125167
0.00190565
0.0024385
0.00276408
0.00591352
0.000423216
0.00167024
0.00167134
0.00148986
0.00322232
0.00575316
0.00113266
0.000670352
0.00167733
0.0030314
0.00288718
0.00198792
0.00268882
0.00108898
0.00577604
0.00141698
0.00157583
0.00605509
0.00140505
0.00345202
0.00263079
0.00288563
0.00144354
0.00249285
0.00666163
0.000732578
0.00340581
0.000688606
0.00268731
0.00407177
0.00259892
0.00219691
0.00149941
0.00290822
0.00429044
0.00312103
0.00138439
0.0042079
0.00466658
0.000649447
0.00729027
0.00375372
0.000881456
0.00418675
0.00284701
0.00167632
0.00247396
0.00118388
0.00403593
0.000185949
0.00212267
0.00183189
0.00216217
0.00127461
0.00318464
0.00092757
0.00134515
0.00135696
0.00303902
0.0040258
0.00740895
0.00418312
0.00386077
0.00292369
0.000700109
0.0038217
0.00604994
0.00516356
0.00538667
0.00347236
0.00423179
0.00748883
0.007464
0.00304134
0.00100866
0.00719064
0.00286285
0.0024578
0.00547179
0.00689977
0.00290712
0.00263783
0.00747047
0.00590483
0.00345796
0.0036549
0.0067973
0.0038852
0.00113563
0.00394271
0.00405823
0.00597989
0.0072943
0.00175715
0.00490971
0.00615693
0.00078854
0.00133455
0.000998492
0.00701559
0.000970394
0.000457504
0.0069639
0.000344828
0.000833498
0.000579203
0.00398523
0.00509847
0.0043357
0.00159934
0.00720332
0.004477
0.00457729
0.0040124
0.00285506
0.00370341
0.00352289
0.00118485
0.00443574
0.00294145
0.000914916
0.00402714
0.000420011
0.00195345
0.00131278
0.00699753
0.00309559
0.00201678
0.00632748
0.00499338
0.0019398
0.0073752
0.00224013
0.00185705
0.000408692
0.0072316
0.00165863
0.00572786
0.0031168
0.00308678
0.00582449
0.00143441
0.0051141
0.00232233
0.00515966
0.00132554
0.000277289
0.00426707
0.00727448
0.000385776
0.00486142
0.000305409
0.0038684
0.00382688
0.00465691
0.0045218
0.0057501
0.0071616
0.00415912
0.00232162
0.00577691
0.0022115
0.00415225
0.003847
0.00732242
0.00234829
0.00104015
0.00408792
0.00430234
0.00546129
0.00492268
0.0031355
0.00432775
0.00466249
0.00611668
0.00242953
0.00267018
0.00747215
0.00397051
0.00403013
0.00526805
0.00388108
0.00427065
0.00288835
0.00389924
0.00405623
0.00276282
0.00397189
0.00616429
0.00503723
0.00663985
0.00213925
0.00226803
0.00196195
0.00363793
0.00496719
0.00444639
0.00132968
0.00601087
0.00574716
0.00567964
0.0016422
0.00300671
0.00131846
0.00129892
0.00128018
0.0037097
0.00481504
0.00470104
0.00448779
0.00670423
0.00126166
0.00432271
0.00692147
0.00431823
0.00328008
0.00449832
0.00137294
0.00457436
0.00238961
0.00290112
0.00352911
0.00634121
0.00467105
0.00384984
0.00392444
0.00484597
0.00309307
0.00349372
0.00294073
0.00383169
0.00508576
0.00493283
0.00221954
0.00197315
0.00503369
0.00428675
0.00242201
0.00382424
0.0023121
0.00717084
0.0059324
0.00241248
0.00484385
0.00608048
0.00477293
0.00707945
0.00710649
0.00389136
0.00450961
0.00205428
0.0046807
0.00264883
0.00668425
0.00468425
0.00098296
0.00423246
0.0043009
0.00547851
0.00541351
0.00406173
0.00434218
0.000342854
0.00348951
0.00477373
0.00647019
0.00556758
0.00509925
0.00738552
0.00670433
0.00352728
0.00422117
0.00678994
0.007127
0.00293872
0.000991714
0.00140901
0.00309518
0.0018389
0.00354605
0.00416566
0.0035645
0.00166975
0.00200697
0.00359469
0.00416799
0.000870092
0.00505806
0.00417724
0.0040046
0.0041115
0.00716396
0.00033392
0.00488349
0.00373566
0.00742099
0.00275303
0.00300874
0.00040634
0.000253258
0.00489612
0.00619658
0.00725964
0.00410761
0.00377495
0.00560988
0.000234361
0.00109269
0.0050467
0.00258618
0.00144528
0.00518933
0.00543885
0.00308469
0.00727087
0.00527146
0.00702329
0.00450557
0.00274638
0.00404764
0.00437094
0.00556417
0.00214007
0.004475
0.00743715
0.0012497
0.00571928
0.00376923
0.00325281
0.000999287
0.00139107
0.00353801
0.00287985
0.00579126
0.00284782
0.00294261
0.00651527
0.000616937
0.00148342
0.0028798
0.00399807
0.00340283
0.00398479
0.00396352
0.00119918
0.00739375
0.00700622
0.0057451
0.00539659
0.00097216
0.00138557
0.00129621
0.00183084
0.00327631
0.00288016
0.00742475
0.00757465
0.00455013
0.00539567
0.00527122
0.00597759
0.00738457
0.00116988
0.000428029
0.00729353
0.0072104
0.00337499
0.00172372
0.00340716
0.007321
0.00548433
0.00162764
0.000933138
0.00354908
0.00203487
0.00378713
0.00172521
0.000529464
0.00304987
0.00663337
0.00735624
0.00617194
0.00093535
0.00590115
0.00435035
0.0043916
0.00735944
0.000940259
0.000295485
0.000514094
0.00170731
0.00170728
0.00663852
0.00728387
0.00258357
0.00437929
0.00099492
0.000823637
0.000708209
0.000451961
0.000746819
0.00184782
0.00667386
0.000885742
0.00739777
0.00041198
0.00390757
0.000749145
0.00448816
0.00191822
0.00657594
0.00316967
0.0022477
0.00225597
0.00556738
0.00560347
0.00399263
0.000956848
0.00120112
0.00500671
0.00518343
0.000490889
0.000350643
0.00392721
0.00159309
0.000649189
0.00116488
0.00484945
0.00715471
0.000845085
0.000571867
0.00150046
0.00725829
0.00127495
0.00662414
0.000672454
0.00111442
0.000436646
0.00238676
0.00616137
0.00176536
0.00706734
0.00468846
0.00403836
0.00242657
0.006464
0.00390671
0.00539221
0.00386071
0.00433623
0.00724248
0.00681337
0.00379468
0.00691968
0.00632215
0.00450162
0.00459956
0.00178837
0.00392986
0.00246035
0.00410043
0.00640066
0.00459482
0.000959635
0.00360496
0.00347572
0.00221303
0.000638307
0.00448856
0.00311271
0.00366595
0.00104062
0.0018863
0.00136401
0.0049301
0.00706286
0.00524538
0.00355267
0.0059452
0.00347429
0.00330824
0.00393069
0.00730389
0.00493975
0.00597832
0.00474053
0.00316822
0.00475234
0.0037639
0.000715287
0.00370082
0.00416861
0.00444356
0.00306638
0.00117085
0.00228215
0.00432224
0.0048936
0.00326286
0.00111388
0.00137931
0.00404485
0.00335548
0.000385034
0.00155439
0.00207474
0.00410678
0.00154961
0.00319772
0.00406078
0.00322531
0.00120113
0.00480682
0.00416193
0.00247559
0.00677322
0.00239547
0.00276755
0.00323407
0.00334828
0.00195185
0.0043835
0.0058656
0.00737531
0.00207098
0.00336288
0.00441151
0.00235952
0.00526485
0.000921359
0.00294553
0.00335199
0.000461122
0.00195166
0.00625257
0.00349764
0.00087698
0.00175703
0.002396
0.00731373
0.00291335
0.0011725
0.00595367
0.00748095
0.000705494
0.00204793
0.00148519
0.00286818
0.00497047
0.00480066
0.00142024
0.000544283
0.000754563
0.00389026
0.00598115
0.000636307
0.00682618
0.00191404
0.00309745
0.00156148
0.00118741
0.00540683
0.00353647
0.00119209
0.00406861
0.00455261
0.00472865
0.00365264
0.00553155
0.00100658
0.000306544
0.00413424
0.00363869
0.000690073
0.000588004
0.000707336
0.00232319
0.00119338
0.00211702
0.000625923
0.00352752
0.00353218
0.000832356
0.00241501
0.00254992
0.000679325
0.000853362
0.000396027
0.00716094
0.00666686
0.000417332
0.0062698
0.00430104
0.000857286
0.00577393
0.00302312
0.00435254
0.0032765
0.00509781
0.00653466
0.000498735
0.000392896
0.00184807
0.000808741
0.0024239
0.003935
0.0044163
0.00474534
0.00337644
0.00521443
0.00580345
0.0042871
0.00515796
0.00064849
0.000701382
0.00386339
0.00191107
0.0047467
0.00411466
0.00295023
0.00358862
0.00371446
0.00488211
0.000594495
0.00122154
0.00433436
0.000758299
0.00283199
0.00143102
0.0027341
0.0035683
0.000968404
0.00283328
0.00118122
0.00308169
0.0029272
0.00292597
0.00662202
0.00134102
0.00731437
0.00581998
0.00262964
0.00433913
0.00152064
0.00344951
0.00189881
0.00344413
0.000897439
0.00403253
0.00344735
0.0037019
0.00725871
0.00313835
0.00331761
0.00181452
0.000391144
0.00310532
0.000664335
0.00350267
0.00469737
0.00289902
0.00476817
0.00538948
0.00511574
0.00322219
0.00132148
0.0019756
0.0014078
0.000667081
0.00298864
0.00462982
0.000175875
0.00107347
0.0047825
0.00343742
0.00141333
0.0038195
0.000802661
0.000470075
0.00267536
0.00127923
0.00140437
0.00289717
0.000835385
0.00187005
0.00695871
0.00349592
0.00109568
0.001194
0.00697607
0.00102864
0.00749841
0.00264353
0.00541824
0.0026383
0.00193614
0.000958283
0.00106446
0.00588793
0.00568875
0.000251228
0.00728858
0.00439719
0.00120244
0.00630485
0.00287505
0.00297896
0.00371366
0.000531078
0.00156934
0.000624481
0.00172627
0.00315245
0.00123818
0.00625064
0.00538263
0.00114922
0.0069703
0.00379605
0.00265768
0.0053069
0.00143252
0.000530638
0.00716598
0.00255615
0.00727389
0.000825238
0.00479594
0.000621031
0.00284973
0.00254602
0.00658072
0.00257546
0.00269102
0.00682621
0.00546135
0.00337347
0.00738954
0.00134367
0.00339674
0.00355975
0.00623329
0.00439099
0.00354651
0.0027573
0.00292048
0.00212702
0.00322194
0.00410559
0.00425483
0.00160123
0.000652927
0.000832352
0.000750984
0.00129826
0.000880908
0.000836848
0.00315985
0.000272079
0.000651284
0.00127484
0.00211544
0.00285674
0.000909105
0.00104544
0.00245959
0.0013375
0.0021665
0.0061089
0.00288482
0.00122046
0.00401502
0.000499263
0.00304462
0.000404985
0.00205354
0.00120093
0.00145374
0.0011009
0.000675807
0.00198913
0.000578544
0.00270425
0.00209898
0.00465925
0.00175753
0.0051975
0.00615243
0.0010183
0.0034694
0.000952047
0.00167115
0.00515616
0.00237169
0.00425477
0.00132784
0.00113887
0.00752038
0.00559298
0.00167016
0.00096893
0.00374439
0.00272213
0.0011682
0.00116769
0.00467304
0.00732165
0.00392798
0.00428615
0.000729577
0.00744351
0.000953093
0.0003604
0.00517856
0.00284946
0.00435275
0.00391987
0.000837035
0.00280407
0.000759244
0.00336114
0.00457715
0.00052289
0.000960713
0.00558864
0.00239743
0.00557585
0.00683502
0.00120073
0.00273965
0.000781573
0.00385595
0.00651997
0.00236896
0.00696382
0.00529276
0.00549859
0.00508622
0.00276835
0.00242622
0.00141654
0.0034125
0.00119217
0.00440371
0.00707253
0.00218462
0.00133271
0.000876117
0.000910317
0.00168959
0.00200445
0.00107658
0.00101402
0.000806804
0.00092138
0.00321316
0.0030248
0.0041021
0.00142009
0.00500923
0.00312955
0.00321847
0.00154797
0.000558417
0.00348176
0.00336231
0.00347716
0.00487296
0.00341695
0.00449301
0.00617354
0.00489958
0.00277374
0.00305776
0.00272766
0.0057812
0.00300197
0.00146085
0.00078576
0.00426305
0.000608388
0.00744324
0.0034408
0.00709082
0.00450673
0.000976733
0.00274009
0.00122954
0.00377556
0.00369482
0.00380922
0.00455314
0.00504011
0.00330917
0.00335628
0.00362018
0.00735356
0.000861089
0.00319754
0.00134136
0.00292637
0.00105418
0.00613873
0.00462886
0.00347647
0.00397218
0.00297242
0.00100275
0.00674534
0.00419987
0.000751353
0.00246831
0.00243081
0.00288298
0.00243977
0.00252331
0.00221883
0.00517735
0.00745597
0.00681501
0.00204247
0.00165562
0.00489108
0.000451675
0.00532288
0.00182898
0.00706715
0.00654984
0.00197774
0.00436328
0.00635849
0.00106708
0.00742099
0.00421527
0.00156389
0.00245241
0.00720177
0.00136942
0.006859
0.00707042
0.00121209
0.00333257
0.00289094
0.000848862
0.00745658
0.00207363
0.00146112
0.00172685
0.00102448
0.00118753
0.00510297
0.00582272
0.00291912
0.00613569
0.0020402
0.00295806
0.00576157
0.00641171
0.00348139
0.00124053
0.00299927
0.00437374
0.00234529
0.00342828
0.00246293
0.00738886
0.0021
0.00126365
0.00367734
0.00364435
0.00546366
0.00509837
0.0034429
0.00432952
0.00224177
0.00365587
0.000627459
0.00435996
0.00694635
0.00105517
0.00286912
0.000671307
0.000994622
0.0057536
0.00354521
0.00131369
0.00309299
0.000501101
0.00148948
0.000650092
0.00157908
0.000555732
0.00300495
0.0019247
0.00163462
0.00058606
0.00117611
0.00298373
0.000677616
0.0004117
0.0022325
0.00036957
0.000978776
0.00197658
0.00257319
0.000767013
0.000971659
0.00746507
0.00373138
0.00104904
0.000803509
0.00108896
0.00138603
0.00163821
0.000809785
0.00288479
0.00369835
0.00447087
0.00713325
0.00318308
0.00671629
0.00109932
0.00298842
0.00439857
0.000725768
0.00394409
0.002326
0.00456329
0.00667354
0.00319196
0.00430788
0.00179984
0.00696523
0.00194394
0.000612202
0.00501719
0.00723064
0.00341672
0.00529424
0.00112206
0.00282247
0.00580146
0.00640809
0.00061861
0.00663508
0.00392141
0.00713377
0.00180014
0.00321914
0.0044685
0.0059323
0.00526451
0.00142965
0.00363913
0.00251977
0.00748158
0.00727268
0.00711027
0.00383406
0.00469228
0.00364102
0.00602302
0.00343437
0.00365331
0.0027141
0.00131446
0.00125551
0.00345187
0.00195092
0.00422531
0.00273214
0.00351396
0.00373835
0.00662701
0.00317464
0.00430974
0.00644612
0.0021582
0.00466247
0.00308043
0.00114037
0.00494124
0.00279415
0.00130663
0.00398087
0.00116469
0.00199836
0.00117354
0.000369276
0.00283066
0.00552445
0.00204423
0.000483823
0.00402905
0.00718946
0.00652106
0.00578179
0.00360355
0.00465142
0.00735463
0.00727631
0.00393728
0.0028926
0.00747707
0.00675184
0.00746094
0.00558341
0.00315241
0.00186029
0.00308603
0.00633623
0.0035838
0.000960111
0.00549698
0.00621253
0.00365389
0.000560988
0.000635167
0.0037494
0.0053945
0.00507985
0.0032476
0.0043923
0.000643384
0.00191834
0.00505376
0.00405743
0.0064323
0.00357556
0.00190465
0.00395718
0.00326825
0.00368237
0.00138126
0.00197924
0.00166139
0.00100455
0.000355979
0.0021717
0.00194376
0.00387735
0.00396604
0.00348945
0.0032732
0.00625837
0.00444311
0.000478025
0.00729292
0.00182596
0.00124367
0.00335783
0.0029944
0.000591074
0.00202347
0.00412685
0.00387407
0.00747059
0.00305148
0.000981326
0.00384479
0.00166043
0.00486919
0.00287111
0.000729134
0.00090864
0.00351058
0.00335297
0.00112258
0.00482295
0.000716296
0.000663978
0.00129585
0.0074196
0.00713415
0.000365847
0.00636954
0.00050946
0.00216531
0.00323301
0.0011522
0.00100109
0.00654854
0.00746001
0.000989516
0.00663472
0.00615346
0.00510309
0.00693689
0.00433269
0.00387243
0.00234754
0.00590537
0.000370047
0.003217
0.00448716
0.00385585
0.000327388
0.00426843
0.000586536
0.00504469
0.00351577
0.00379922
0.00116847
0.00560664
0.00495632
0.00507196
0.000965309
0.00206558
0.00209426
0.00144179
0.00278574
0.0064428
0.000820185
0.00317177
0.00330201
0.00323984
0.00459815
0.00320437
0.0038968
0.00715564
0.000398498
0.00141884
0.00456632
0.00503707
0.00231135
0.00441258
0.00283912
0.00317483
0.00507156
0.00233094
0.00474473
0.00506814
0.0042308
0.00152022
0.00459379
0.00481487
0.00500128
0.00356316
0.00677345
0.00538742
0.00539682
0.00279671
0.00416763
0.0027259
0.00257447
0.0037061
0.000548315
0.00519968
0.00303283
0.00132737
0.000836008
0.00152205
0.00375206
0.00392955
0.00194987
0.000371682
0.00398367
0.000958748
0.00401664
0.0073545
0.00278388
0.00177386
0.00387047
0.0047779
0.00747305
0.00531947
0.000349969
0.00527667
0.00676905
0.00257408
0.000428255
0.000524939
0.0039415
0.000294246
0.000716383
0.00113412
0.00170723
0.000835551
0.000506881
0.00538927
0.00101726
0.00399128
0.00581228
0.00456364
0.000547214
0.00211647
0.00697724
0.00598839
0.00102504
0.00476302
0.000548067
0.00595751
0.00294163
0.00510942
0.00296602
0.000654388
0.00742885
0.00317001
0.00284263
0.00594764
0.00372238
0.00622649
0.00291292
0.000533801
0.000522688
0.000673003
0.00155847
0.00136609
0.00634852
0.00662072
0.00532175
0.00369928
0.00724664
0.00161331
0.00743193
0.00101995
0.00421041
0.0069713
0.00612418
0.00477761
0.00701527
0.00350474
0.00301784
0.00718475
0.003167
0.000946619
0.0059383
0.00113023
0.000932363
0.00672589
0.000287925
0.000572765
0.00283536
0.00294921
0.00391595
0.00130523
0.00430434
0.00211113
0.00146716
0.00576763
0.00169441
0.00725009
0.00219231
0.00427362
0.00238601
0.00195855
0.000801373
0.00332813
0.00393795
0.000716126
0.00141683
0.00214289
0.00165737
0.00566096
0.0014695
0.00437619
0.00193378
0.00316312
0.00612053
0.00134254
0.00257727
0.00241875
0.00648594
0.000690816
0.000874583
0.000590414
0.0061994
0.00435313
0.000937898
0.000639264
0.00196339
0.00395217
0.00251666
0.00115742
0.000829312
0.00193487
0.00502949
0.00334237
0.0043826
0.00539151
0.00401011
0.000630049
0.00536582
0.00191634
0.00314366
0.00695272
0.00261372
0.00268403
0.00566647
0.00394927
0.0057935
0.00229612
0.00142058
0.00472782
0.0038625
0.00219287
0.00296999
0.00285938
0.00197405
0.00199809
0.00362272
0.00618233
0.00609774
0.00565593
0.000787475
0.00384627
0.00105545
0.00322906
0.00398606
0.00547577
0.00343923
0.00699115
0.00249702
0.00747268
0.00231927
0.00240214
0.00359761
0.00457498
0.0024244
0.00349638
0.00295347