/*--------------------------------*- C++ -*----------------------------------*\
| =========                 |                                                 |
| \\      /  F ield         | OpenFOAM: The Open Source CFD Toolbox           |
|  \\    /   O peration     | Version:  2506                                  |
|   \\  /    A nd           | Website:  www.openfoam.com                      |
|    \\/     M anipulation  |                                                 |
\*---------------------------------------------------------------------------*/
FoamFile
{
    version     2.0;
    format      ascii;
    arch        "LSB;label=32;scalar=64";
    class       volScalarField;
    location    "0.0411073";
    object      omega;
}
// * * * * * * * * * * * * * * * * * * * * * * * * * * * * * * * * * * * * * //

dimensions      [0 0 -1 0 0 0 0];

internalField   nonuniform List<scalar> 
47425
(
56.6933
67.7003
72.057
164.387
137.473
72.4634
93.1005
103.513
49.3953
593.434
140.523
47.5738
69.4752
79.6928
95.1789
90.8825
68.8581
49.6825
1211.39
178.448
86.8765
46.5331
107.598
64.4347
48.0009
45.5148
78.6061
675.854
70.9667
56.3615
46.1061
48.0468
47.778
66.106
53.9567
68.087
45.9913
67.5739
65.2072
75.3846
73.3279
78.0007
131.344
145.001
1315.85
107.854
97.6239
77.703
78.9243
48.7864
582.504
222.345
50.3223
820.146
115.292
123.927
45.3373
57.2171
84.2373
62.3461
1131.69
1115.89
872.844
46.8863
49.3541
46.8393
62.2711
79.5272
779.539
46.7513
78.5355
51.3593
48.4395
90.9052
690.413
49.4055
853.746
81.8373
1386.82
254.343
718.958
64.7366
45.3885
47.1741
46.6677
83.5431
53.7297
50.011
109.123
411.672
46.5461
78.3866
45.8279
115.807
148.833
196.602
49.8277
51.7006
87.9717
80.4954
61.3476
91.7163
52.5686
99.0865
50.1067
54.3086
47.5722
93.6189
47.1128
48.6325
343.974
63.572
67.9389
156.26
48.7064
915.134
48.3002
230.556
80.7386
60.3728
79.5295
48.5503
58.9309
61.8655
98.8054
58.9142
85.7639
49.1914
107.001
45.248
46.368
99.0708
132.088
123.346
70.009
66.4158
48.8239
61.202
68.9974
99.1324
71.1456
135.364
72.5242
83.4332
53.5065
49.3297
108.753
63.2518
153.486
72.4628
82.275
487.021
48.7686
698.705
48.4618
85.5378
58.4025
907.995
94.8322
74.5564
48.6621
45.5604
50.5003
47.7124
395.859
836.417
46.4251
695.792
107.216
698.136
700.923
87.7727
73.9029
47.1477
74.1711
67.705
719.001
70.2928
52.8371
45.9876
1008.51
47.4365
60.3988
47.2595
47.7975
49.5094
56.5471
81.0376
149.954
54.2546
47.9407
71.0987
79.9599
77.0328
48.4787
46.6067
61.88
74.1374
47.3734
81.7577
66.7976
123.238
46.831
47.4107
51.2523
159.215
53.2793
46.8958
88.3824
48.4577
63.6075
66.2236
47.3948
94.834
62.5491
63.2102
71.8239
251.983
49.3556
94.586
281.277
117.148
101.056
95.9464
167.534
236.61
48.3255
131.45
51.7563
60.2212
69.0358
73.7834
107.057
49.3238
166.837
94.8925
313.223
116.173
259.626
182.022
84.3687
57.5783
45.1869
104.846
45.6936
49.4888
68.452
60.7238
45.154
77.4281
44.833
212.985
67.1226
49.2844
92.0336
45.0135
47.5521
122.487
96.1882
48.3695
127.106
47.4421
78.0713
136.261
69.2436
91.9543
46.2497
69.4484
62.3349
82.8763
79.6417
227.658
305.955
48.3212
213.554
180.683
214.194
117.381
290.803
179.833
1174.56
55.0454
1115.18
126.057
80.7314
86.6915
106.632
91.8903
92.033
50.1166
616.659
46.7061
50.3439
57.0033
67.7065
101.348
114.063
47.0232
66.6841
57.1491
90.9626
45.8883
88.9164
60.3207
781.897
1041.63
679.777
45.1137
48.9384
45.296
103.732
688.873
87.8843
119.164
229.868
76.0514
106.054
124.06
93.0034
390.095
203.228
46.7835
61.2775
47.4971
83.9608
45.3576
78.5023
61.0896
52.3327
72.3053
81.4236
624.16
55.1576
76.3073
129.185
45.3452
652.193
53.0654
46.902
52.0309
47.1887
47.4386
45.2481
53.8229
49.3185
51.6917
58.9052
48.6601
82.8577
86.5353
48.4443
47.1043
63.499
49.2589
49.786
49.8548
80.8833
45.0326
50.5985
93.5095
57.8121
59.6176
81.1341
94.3823
48.1256
50.1679
133.362
48.248
68.3964
46.4595
132.785
987.857
78.1442
46.6942
200.236
46.5809
76.002
95.2855
72.555
46.2958
63.5429
46.9012
44.9708
73.7738
88.2092
82.859
84.8488
52.9805
48.8584
84.8736
49.4746
48.1186
82.463
56.5298
65.9094
49.5847
63.2793
91.2261
64.9103
48.8427
487.197
47.0324
380.733
72.5484
107.455
105.246
48.3458
147.604
47.4087
96.1548
47.9003
603.02
353.175
44.9533
50.5373
81.4785
87.1642
81.5435
76.334
80.6624
90.5073
68.6132
45.4943
103.665
71.2856
49.5714
81.618
78.0287
53.9348
142.223
1376.51
48.5099
280.553
1140.23
91.0997
1174.54
881.96
49.339
81.1502
76.5062
79.2861
732.218
90.6759
50.3983
51.0412
75.0501
75.7382
82.1924
81.251
463.412
794.795
148.913
65.5724
73.5019
129.037
56.4026
46.1928
66.396
45.7299
84.0318
75.8171
132.706
68.9769
49.3504
79.037
59.5908
80.2431
46.4923
65.3762
67.7366
66.7859
63.5514
110.313
124.63
62.5964
85.648
46.1247
493.418
131.303
73.9353
46.6537
139.867
246.446
48.9101
45.0945
49.0608
47.5675
68.3794
50.2578
109.395
82.9707
49.1164
53.596
148.135
99.0618
47.0053
52.2292
58.9447
55.7874
48.3579
51.922
45.7658
68.9687
57.7887
113.295
61.1844
48.2523
45.4664
45.9383
75.6608
129.922
47.1291
44.9944
56.5933
55.3108
55.8358
59.868
71.7949
73.1858
51.9745
76.9219
100.907
430.461
61.9507
69.2739
54.6394
49.346
124.249
124.113
78.7528
49.758
82.5182
102.313
49.4034
135.069
48.4677
245.927
50.5977
52.6529
58.2681
120.013
44.9618
72.969
73.429
47.5477
45.1596
51.0627
1143.71
62.9885
151.51
47.0068
95.3178
47.2899
58.6812
80.8645
71.654
70.9293
46.7456
411.712
54.113
58.7201
54.345
50.0324
45.8127
58.6566
116.599
49.0893
53.3873
68.3505
45.9988
230.663
46.467
61.7037
526.318
72.9603
45.2449
379.491
555.072
47.2765
683.442
715.249
71.8765
46.8802
52.6419
45.5944
86.1821
91.4122
566.009
45.9016
130.956
50.666
105.022
57.4829
85.4771
68.0217
535.455
312.404
52.8213
94.9093
92.5718
85.748
124.11
127.768
50.5537
98.956
132.918
91.7896
67.7856
131.353
51.9248
48.8793
131.765
94.9989
78.7708
124.575
103.245
67.4852
73.4215
59.0503
55.6315
68.3956
49.2499
47.737
1336.81
61.9315
73.9645
1052.14
1016.22
45.2671
78.4186
1668.32
173.265
90.997
293.608
119.468
769.247
58.7988
49.4975
60.1394
159.922
113.755
112.848
46.8158
119.966
66.2338
83.7526
49.821
82.0804
57.6711
407.435
693.867
124.276
50.8896
87.4195
45.6934
110.47
47.5421
58.3399
63.5302
65.6479
46.9499
184.157
75.8027
47.896
70.7941
191.162
837.816
207.84
89.3684
45.2117
75.2098
45.6716
830.327
71.1777
575.894
85.7329
107.262
65.1438
70.7459
60.7237
86.6754
55.6524
88.7131
55.7325
209.274
87.7976
49.2347
70.2217
90.5188
982.667
65.0326
204.782
67.346
48.6677
45.638
146.377
80.0247
70.108
46.3912
65.054
65.7872
74.6855
81.2707
80.3014
64.6464
124.618
192.519
71.4458
96.9389
67.4591
115.632
93.6147
48.5951
108.793
60.7211
76.6671
80.2912
46.0485
295.676
431.661
97.6881
66.7841
47.7794
92.71
53.7719
139.875
47.6953
242.215
83.5633
46.3976
78.8904
48.6774
59.6456
70.8662
49.9554
90.7874
45.3975
46.7478
49.3756
165.194
44.5049
386.351
231.538
246.112
358.867
81.9367
213.957
58.9838
48.9302
148.749
347.059
367.566
101.851
60.3407
122.825
119.111
161.565
132.597
95.55
53.007
70.7662
100.049
116.016
57.6886
84.4183
371.008
59.1739
62.7969
153.544
121.887
116.724
146.568
755.162
501.741
231.073
255.577
80.663
120.708
45.5208
48.0399
73.4417
409.775
183.872
73.1437
74.3031
45.7896
361.252
363.12
45.0768
172.269
91.9837
45.2634
169.024
45.1883
45.2784
73.0131
73.5143
87.5417
49.6554
45.4252
61.3043
70.2842
68.8597
142.691
103.233
45.2803
251.767
48.3958
46.6238
47.0904
200.939
80.6072
268.863
120.9
54.7213
45.2793
68.8111
1250.04
73.9872
85.3893
74.594
65.9131
61.3921
118.907
123.599
127.947
286.2
90.8707
761.009
49.4176
67.7969
55.0335
61.7898
45.9361
170.333
129.29
45.5846
310.688
99.8938
70.117
261.071
75.2054
53.9951
72.9581
66.4001
70.4901
112.426
350.217
67.3602
72.513
210.845
224.763
665.886
219.461
91.0534
180.165
46.1851
48.7411
100.554
164.971
87.7864
84.6842
95.5581
104.483
48.9359
68.4128
107.815
101.031
91.4135
286.37
565.423
95.6033
109.231
136.506
705.568
327.043
213.292
94.069
67.1488
96.5994
94.7053
166.391
46.5037
49.5409
96.5314
445.349
122.228
70.6885
98.5605
54.8053
110.54
128.552
78.6
461.699
53.6077
65.7215
131.333
97.2691
65.4305
66.1736
104.74
101.096
93.8161
60.6062
130.91
47.2818
46.4347
47.7577
83.9785
57.9852
151.775
54.1036
223.325
296.231
263.645
97.4086
83.6944
47.3475
70.3001
115.605
483.373
233.415
921.411
46.3521
59.2416
55.724
311.85
88.7954
299.045
240.14
234.362
135.095
236.375
91.0553
86.6012
73.3723
47.7675
118.041
68.7008
74.1207
216.471
77.7758
65.1833
51.3685
264.026
425.454
150.825
187.603
655.022
193.384
93.8398
71.6114
88.9067
108.799
186.685
190.309
637.941
48.1346
57.859
72.7685
47.9284
64.4488
102.431
98.146
53.8633
112.882
53.0964
78.6604
52.1895
47.3569
126.804
65.3159
122.29
47.1725
46.7084
164.912
48.1027
99.4059
106.417
46.9596
63.3842
119.126
77.3361
66.6357
80.4966
497.765
186.391
125.869
109.325
1859.71
1003.42
650.243
427.534
105.23
50.6644
1070.75
414.636
55.2514
66.0212
108.39
87.2323
386.882
140.465
48.2062
115.189
58.5439
49.3537
207.268
929.418
141.26
1187.88
154.825
246.353
740.656
57.2812
79.2734
134.811
286.937
95.0066
49.3502
49.1268
855.771
82.0491
354.351
72.7337
165.365
49.4339
54.2873
542.667
552.314
84.971
55.8974
73.3528
456.359
46.3049
50.0425
429.674
564.494
72.9911
46.6912
1054.15
847.872
536.262
100.997
222.209
482.557
516.179
79.9561
94.1175
101.684
63.6379
109.004
532.058
1421.98
63.8066
60.8637
59.4257
52.0954
50.211
81.9932
139.06
67.2765
49.5565
48.2975
78.6464
372.839
1103.53
51.6777
231.598
97.8379
74.2083
184.008
56.6713
90.523
74.8733
48.9907
201.483
53.2473
489.223
45.9094
786.868
543.635
485.314
205.373
94.2564
64.6381
105.327
53.0537
208.018
1437.45
105.994
388.537
190.022
446.98
152.273
794.612
623.025
93.8549
50.9649
1525.4
85.229
49.6301
74.3352
549.31
1046.19
81.1081
52.305
468.199
80.0753
876.856
759.252
109.37
120.999
885.787
104.892
47.4398
560.063
52.628
630.086
1021.45
46.0668
68.4092
84.7368
56.3206
125.216
102.865
45.4632
123.509
90.3601
119.014
58.0787
45.5798
174.275
157.849
622.619
53.4447
98.0097
227.065
46.9921
820.246
86.4801
115.881
152.421
545.719
87.3186
514.121
182.865
142.738
56.9798
683.809
219.534
272.135
81.8359
160.304
61.3853
76.0262
68.6963
332.237
263.331
107.001
716.938
150.108
104.7
269.479
129.46
146.934
793.214
300.156
49.8002
159.057
83.8687
148.417
311.775
1002.38
58.4742
47.327
62.3949
540.613
63.504
318.172
60.0927
62.4404
47.821
143.988
57.1038
211.317
306.517
53.9643
62.711
93.516
81.6887
994.479
325.234
116.006
731.566
366.125
121.983
215.411
64.2559
58.4184
1101.07
57.7249
427.368
300.636
48.4962
60.1685
82.7197
96.2446
56.3662
71.7605
129.657
80.4396
79.1352
68.1098
82.7424
244.931
67.3003
197.956
157.89
200.746
56.4788
730.347
417.933
57.8585
538.946
250.698
57.4558
111.402
653.822
222.66
49.4392
182.432
370.007
184.977
442.513
58.1918
562.925
106.356
54.7235
68.7096
110.946
174.673
127.45
66.8722
259.481
49.6671
250.65
109.461
1220.3
146.522
80.0663
122.494
253.688
56.9282
238.835
107.081
112.009
680.914
78.9678
77.0012
1014.24
45.2397
102.986
383.613
61.2994
283.17
823.063
154.344
75.9596
82.6762
962.489
301.743
380.854
316.128
78.1943
69.5431
103.864
643.337
829.78
273.177
89.5824
48.3006
87.6708
88.9665
131.139
337.085
94.1006
56.7545
61.433
61.1976
47.284
86.6181
46.442
47.1735
122.25
88.9933
46.6966
131.225
239.733
63.5288
48.3658
133.251
62.8309
48.171
56.0687
103.557
97.2094
50.7255
97.0388
594.794
89.5924
50.1066
55.815
45.7418
226.851
68.6331
54.8825
684.02
896.177
281.909
49.1785
674.084
153.884
48.1876
1021.12
98.5047
1004.81
91.9586
67.237
83.3143
68.3384
47.0493
83.5359
85.4115
94.3117
116.91
90.4139
105.812
153.589
82.1349
78.3663
432.607
86.9805
1283.4
71.0236
667.277
47.1671
120.79
184.321
52.6467
69.4459
190.743
45.1307
480.668
327.575
1272.7
53.9407
644.388
57.8032
113.131
164.17
57.5398
557.517
82.2484
274.685
63.1256
717.567
696.513
80.5582
45.3396
363.547
71.7217
344.945
86.0962
97.2752
71.8962
73.634
58.5245
48.2645
85.2829
265.055
72.5347
178.736
86.3983
87.9828
46.2308
156.429
666.659
91.1999
354.407
92.8643
67.9359
121.736
81.7326
74.8609
57.2201
155.273
132.419
48.5731
86.267
79.6495
69.9217
94.871
407.82
418.44
82.8274
92.9068
307.563
88.4958
53.7512
65.6708
49.7398
172.486
168.244
203.954
104.981
70.6982
74.5698
67.4848
55.052
56.2278
60.6585
458.056
130.927
654.432
493.695
613.609
58.609
69.0693
69.722
73.043
49.7664
308.984
80.4075
48.0961
81.174
111.309
74.0264
353.992
72.3267
158.337
107.537
100.999
51.9357
71.8519
91.1851
91.276
68.8222
116.133
97.5912
176.369
87.3091
69.0268
78.6005
153.586
174.345
65.8978
83.2093
135.655
98.8961
171.47
46.4571
55.2261
137.362
69.3606
54.9745
77.759
46.8197
46.9242
85.5921
77.1106
432.452
72.7627
88.1672
49.2295
71.1294
666.96
81.9773
86.4293
60.0529
63.4889
89.6576
87.2578
949.255
107.747
453.88
51.0985
60.8855
72.7676
45.3128
49.6859
108.913
83.7566
49.1302
46.9797
325.605
107.694
491.601
122.783
254.441
105.47
77.9625
110.064
550.72
184.245
93.6287
80.4514
933.122
65.4583
82.2344
89.9226
85.2453
46.8491
963.68
68.3337
94.1608
47.0783
127.242
57.2052
935.277
1032.23
68.5631
53.8265
46.0916
93.4415
96.4513
59.3409
1193.89
801.214
65.4168
140.884
432.941
64.8937
110.844
115.657
45.6687
63.1019
47.9516
75.4138
231.01
88.1355
79.9795
47.0958
58.1257
76.7621
48.6182
298.385
63.46
134.58
150.899
407.808
308.656
104.449
134.653
72.2468
133.156
121.99
46.6177
593.482
319.152
131.23
94.7218
106.048
93.0674
90.8806
336.255
45.7108
46.9729
62.2264
65.112
133.649
79.1647
371.952
406.443
48.1198
131.247
46.4979
45.9473
80.2532
62.0654
66.0314
55.4144
45.1265
338.785
396.726
45.9985
46.5359
192.028
708.195
51.218
44.6968
84.5849
166.137
920.095
95.3764
381.235
364.386
394.068
380.544
72.0949
50.1169
45.0154
58.4475
951.451
55.7879
85.6858
81.3255
45.0111
737.262
1231.84
1207.72
203.82
452.012
49.7091
46.3915
54.7218
83.8885
780.761
666.809
361.744
556.174
373.202
58.1929
50.4562
841.311
47.8588
919.893
95.3122
915.499
80.2567
140.76
60.486
174.287
169.176
169.799
81.7652
63.1193
89.1627
75.5687
65.9132
72.0727
66.914
1199.69
830.103
90.0667
342.216
742.053
320.645
70.0714
47.1735
658.575
530.731
489.292
46.7958
837.256
50.905
977.315
706.05
716.9
282.12
53.388
61.1955
47.7781
73.2665
86.4334
160.4
66.544
84.7955
61.1449
95.958
79.6662
45.8547
49.275
115.068
47.9268
51.652
79.8418
73.1831
90.6896
89.9719
157.238
92.1294
51.9081
99.1896
104.385
90.7069
95.847
135.512
1164.53
58.9435
329.846
68.1233
93.8195
397.383
71.4958
55.1707
47.0373
99.0922
97.6716
55.1809
105.809
103.866
85.3195
47.979
68.0991
55.2466
72.0088
109.126
73.7596
100.892
291.9
92.1392
82.9768
77.6917
115.123
83.4748
337.868
47.0302
69.4706
109.534
302.421
308.24
85.5462
105.962
940.42
239.203
188.839
91.7612
73.1651
112.757
89.3385
53.8076
135.129
79.535
89.0087
386.409
51.8052
166.996
128.243
114.768
106.652
201.775
80.0572
58.1122
45.6612
55.172
100.374
82.1328
546.977
64.0245
91.7526
128.101
104.146
906.337
58.3977
60.7912
105.403
280.081
385.571
151.843
46.557
136.162
67.4935
48.9725
45.0552
543.704
101.859
60.3544
410.221
79.7311
70.8152
159.394
801.808
1033.82
136.581
69.2612
944.916
51.6175
176.997
129.571
554.605
327.446
69.4578
96.8757
544.928
93.2492
62.216
72.8025
101.622
54.7987
66.0977
360.921
47.4632
102.82
544.138
149.605
562.929
83.9922
422.775
52.5269
1107.17
105.953
106.092
581.901
234.148
287.283
511.854
430.532
283.332
47.0883
50.109
419.403
57.4615
86.6847
345.888
65.4428
61.1697
76.8146
150.161
71.8205
51.2958
733.912
415.559
158.839
367.469
168.974
91.8493
83.3689
79.4498
117.175
64.4122
56.6311
84.8735
62.9592
312.518
332.115
108.736
56.2373
74.6382
77.298
115.605
107.47
99.4188
77.6126
343.26
60.8151
65.2124
379.263
132.888
567.875
203.84
98.7995
719.938
139.282
113.583
361.054
135.257
129.139
50.9993
628.395
45.9436
56.8842
53.9199
87.4059
69.6307
103.649
207.186
106.395
133.042
83.2034
111.885
101.299
45.1135
344.316
142.569
586.103
1202.24
106.108
388.359
115.184
71.2031
623.27
69.8822
61.3005
91.8719
108.224
671.646
363.589
55.1365
312.462
383.546
73.9414
1897.31
401.339
104.881
375.438
63.8754
89.5537
240.744
348.224
146.897
745.716
56.6259
52.8419
154.074
54.5071
49.0302
106.387
315.208
580.44
47.0074
143.472
45.7294
145.148
63.9566
144.865
311.851
90.9113
271.316
59.8225
63.4177
786.342
45.9456
54.5106
115.052
53.9346
127.91
302.649
48.6595
946.194
533.958
883.848
486.613
119.4
69.4487
53.1298
61.3369
85.0675
48.155
88.477
150.902
64.2636
74.8044
653.962
46.9202
155.23
47.2009
131.877
69.4284
724.417
129.497
95.8864
46.7521
134.758
152.79
49.4783
61.4538
101.928
44.6539
207.563
97.4515
106.917
55.427
47.4035
103.99
49.7708
129.702
329.745
47.698
75.3887
49.7162
65.9678
426.508
226.028
130.441
426.144
816.18
401.118
79.0505
548.644
451.384
721.989
71.2549
193.543
385.495
317.101
292.872
955.334
56.9499
47.6934
191.356
799.775
54.0923
384.229
109.393
401.26
77.8133
71.1114
581.59
561.12
375.348
59.6939
302.876
132.088
471.278
47.0545
209.438
65.4236
55.1761
97.1406
98.1258
302.592
114.991
65.1741
163.352
79.4926
253.523
361.678
47.0396
69.3641
57.2492
944.856
84.8018
132.617
174.102
140.515
70.569
46.5045
92.9861
77.2412
423.148
45.3423
106.346
325.572
66.2785
52.0121
77.8379
74.2964
666.707
139.763
208.177
96.7719
71.6934
1069.66
924.953
60.5566
147.434
60.6602
49.0799
410.908
79.5199
519.32
56.4913
51.2616
99.5126
57.7591
49.7318
61.7652
69.0048
138.315
222.254
331.537
326.482
70.8719
77.6398
47.852
172.793
571.308
912.361
72.2121
555.65
185.028
643.178
81.4902
380.391
111.579
162.79
130.678
85.3596
268.75
72.8984
182.715
112.781
60.6815
1033.69
107.59
560.717
107.449
72.0578
110.633
123.8
67.0606
68.9094
298.352
108.699
124.443
56.9137
124.052
597.735
130.675
80.5946
163.458
47.1387
62.4024
47.9368
77.1868
79.6397
150.314
72.654
97.6456
91.5738
72.7012
79.5967
64.9511
76.1381
60.4981
283.327
52.674
106.779
51.3415
69.6188
128.167
80.2255
53.5454
81.058
101.133
90.8
130.177
341.49
48.875
147.351
371.151
158.657
156.248
52.8608
156.823
87.6361
292.171
65.3102
48.8251
53.8843
160.017
58.7912
67.2784
853.992
167.668
356.658
47.5389
51.4833
180.541
81.3002
55.7516
129.471
49.1126
82.8884
56.7347
387.39
46.6764
155.553
48.8407
48.9548
77.3574
66.9428
133.584
105.524
45.2586
283.825
66.731
70.6574
90.1056
797.525
65.7707
61.8437
130.316
61.2977
56.7119
126.571
57.5978
51.7371
107.579
198.704
126.722
86.0031
410.21
110.061
266.399
48.5374
182.406
65.8278
95.7437
192.486
50.7885
97.196
64.1983
82.0942
160.576
67.9978
586.738
107.44
48.6116
506.921
131.409
1267.23
302.844
148.178
88.1522
96.6042
122.148
383.335
63.7012
457.322
91.1467
367.989
67.4532
372.412
66.7502
243.884
217.973
127.673
380.826
493.534
446.26
1175.04
551.293
634.633
357.444
438.705
338.543
46.1707
97.5575
313.768
69.9874
618.446
59.0338
464.119
615.58
123.447
102.189
77.8798
46.0398
115.639
49.1323
250.212
133.573
85.3692
182.373
86.7493
156.893
71.5275
54.1496
113.741
51.2514
222.853
47.6742
69.5494
699.212
65.8688
45.6609
104.344
63.3354
648.887
271.388
70.6902
64.5259
174.106
49.9754
83.2833
50.6144
53.8859
107.098
78.8301
57.3156
63.4285
304.315
90.7709
58.4497
46.9861
45.5406
47.5309
166.469
74.1097
99.1824
55.4443
76.6632
99.2911
55.1299
252.669
73.7234
49.4728
60.7715
84.7708
142.419
112.651
99.9703
52.0836
120.533
85.7419
54.0851
54.3054
78.7811
80.2366
99.7305
70.9822
127.659
66.737
87.7503
117.206
286.953
723.429
1121.48
126.376
61.5139
440.933
171.975
143.048
47.9489
51.3415
46.537
91.5997
75.825
46.0199
47.1308
49.2018
115.286
45.2929
49.8525
46.5562
60.4937
172.6
56.427
117.775
53.3865
96.213
253.697
60.066
54.721
61.7029
1049.72
920.497
99.8351
67.1899
68.1823
59.9947
85.754
521.304
66.2539
68.765
91.8538
46.0544
96.0236
53.8366
83.6031
114.217
91.6858
64.2804
207.132
262.293
66.041
2064.71
218.726
203.431
61.5042
86.9477
102.764
116.636
52.9534
76.7753
311.751
47.4498
197.689
582.706
107.92
126.114
641.907
67.4797
81.4082
93.7337
45.6623
122.267
395.785
93.539
89.3851
424.052
204.467
1114.84
607.267
99.2755
50.0538
141.232
69.0037
182.824
147.28
550.929
49.849
46.7544
631.909
52.5255
198.534
75.7447
105.707
639.442
856.302
50.5945
45.9096
917.636
49.9672
54.2362
65.2614
47.9711
83.2567
139.332
251.697
60.9314
563.149
107.777
51.8297
87.1843
700.283
82.5416
610.594
66.3553
60.3493
88.1555
86.1865
60.5306
105.392
65.0265
575.433
110.767
113.817
497.687
125.659
54.678
593.108
108.768
109.415
81.3084
137.893
111.017
78.1574
48.1555
259.433
72.9672
74.2467
65.3497
117.679
79.1978
59.1622
48.8613
65.4134
152.547
70.6636
66.57
83.1296
424.733
74.5833
69.8551
66.963
96.3488
49.6532
64.2556
62.6857
133.968
103.584
142.919
150.655
91.2691
385.82
62.2094
57.4716
440.817
347.83
522.994
91.1414
351.281
55.6244
501.851
95.9534
363.156
96.7475
46.4121
117.655
205.085
94.7476
68.854
46.707
62.9882
438.516
63.3956
51.6706
55.0266
1724.53
365.59
47.591
1523.47
542.74
333.145
198.458
1307.2
312.156
74.1386
364.59
91.4561
66.5074
404.289
1038.06
64.8987
48.0983
55.5543
514.505
47.9191
1039.64
85.912
130.932
114.116
128.045
338.292
45.6521
116.825
124.032
55.7482
106.643
52.9071
124.642
1974.23
1987.24
817.15
96.1327
566.72
46.989
49.414
62.086
102.081
46.0956
56.2879
45.914
73.1215
91.0223
47.3298
54.1018
77.5421
47.3981
100.35
123.13
47.6219
117.331
127.853
46.7821
56.3471
889.266
56.6418
837.72
609.439
129.973
135.178
84.5594
124.412
68.1365
55.2996
449.777
58.1765
60.7134
50.306
53.8868
79.1392
143.71
113.922
181.17
112.835
49.8102
534.334
63.4792
301.228
308.806
63.699
746.379
76.563
57.8327
60.6174
57.5406
67.2173
50.3911
130.305
52.3309
390.208
211.487
379.574
56.5708
57.4698
82.5425
352.631
404.131
87.1774
147.94
64.567
364.011
64.0186
133.461
497.523
86.8144
56.311
92.0573
1077.14
62.7308
58.8896
121.358
49.7864
138.599
131.255
94.7863
85.7564
287.788
171.733
673.479
72.5337
297.786
366.525
351.385
54.6823
178.597
102.402
104.387
53.919
60.5693
62.7859
470.682
85.8901
99.2963
195.492
82.8986
62.5057
98.6961
49.0902
146.045
48.2713
63.1069
168.638
103.814
80.204
170.197
100.663
87.6222
81.6491
128.685
46.9695
295.095
279.981
110.03
100.381
47.0441
293.148
60.463
47.4857
86.7213
49.0987
109.353
90.6996
49.6819
53.5409
100.941
270.93
235.505
49.6424
798.879
46.0235
97.5793
96.2877
48.1727
773.899
150.474
668.093
50.1782
69.2381
531.249
673.807
91.0307
103.599
192.549
127.999
53.2256
90.9488
62.9981
148.266
82.7089
135.891
49.7263
136.634
102.323
109.763
61.9158
89.7638
45.9373
61.9988
572.194
292.745
107.153
72.4494
105.274
87.8422
87.9784
153.552
46.4952
51.4382
60.7635
88.5906
83.8745
66.2198
114.721
56.0643
57.4679
53.5189
73.052
58.2207
68.5794
186.772
79.7328
69.5209
1194.58
80.0557
65.4619
80.3382
45.7814
84.4289
209.843
49.0442
79.0441
81.6469
843.5
64.1963
62.6261
95.2707
1516.81
96.0017
156.346
124.185
67.2997
48.6852
76.0353
65.1592
836.928
95.9039
68.3495
65.8666
47.9533
271.541
48.5701
533.217
377.007
112.127
75.3171
59.3571
112.895
89.3642
59.4448
428.132
119.38
310.879
45.6046
139.664
670.566
118.921
50.9942
102.358
54.6909
714.589
59.2758
55.7682
91.3045
45.5166
60.7598
87.7735
52.1844
289.228
47.6389
371.272
46.8856
76.5014
67.1482
150.014
89.2255
129.637
112.403
561.127
105.784
122.146
75.895
46.9481
103.47
58.5352
54.0705
82.2506
77.7724
63.9003
127.144
47.095
64.1234
47.9587
284.817
87.2009
593.045
534.175
328.186
161.337
66.3534
69.583
61.3573
196.271
92.6228
47.1185
46.163
112.447
142.127
48.5509
73.9876
1075.31
112.322
67.8793
75.1974
712.703
853.262
59.7828
539.59
553.477
203.599
325.925
169.141
512.287
72.0506
229.872
741.204
75.4319
45.0954
61.085
102.223
315.551
46.1963
46.2488
69.2766
148.805
155.626
1101.6
110.075
993.378
120.37
71.0336
86.9157
78.6703
72.1083
582.577
156.942
308.323
455.663
68.0927
522.498
1750.37
66.9438
143.181
110.19
419.93
153.077
124.601
714.08
1059.72
101.338
607.026
126.975
399.136
82.5342
46.9917
154.266
742.593
662.315
62.5329
106.598
152.916
97.5788
246.234
51.6924
69.7352
933.252
407.948
409.784
47.6813
410.83
67.1504
393.483
59.2096
110.233
197.287
332.489
87.438
112.831
309.089
101.125
920.007
74.5423
61.4356
370.651
48.5324
150.029
46.7523
55.0545
46.4721
83.017
432.653
457.428
333.746
60.7271
64.1867
281.232
58.3555
502.042
69.8871
53.9923
82.9386
209.768
153.847
612.821
51.706
74.3508
65.95
290.417
103.785
567.309
896.846
435.709
104.607
63.6023
398.763
385.96
155.371
50.038
63.6483
45.0491
723.527
252.959
420.91
1823.31
236.84
97.5122
81.9577
772.957
397.875
64.8207
88.6578
102.976
318.241
59.5546
48.7612
89.0274
79.8701
725.595
323.857
228.215
244.386
303.966
343.882
162.99
95.2588
846.575
521.833
706.506
204.265
335.812
621.193
153.26
59.8798
105.997
58.1799
57.6309
75.0998
75.9451
141.763
278.024
86.2321
179.12
182.261
147.176
102.611
187.198
106.477
96.0502
129.323
717.199
1114.85
489.332
67.4332
121.14
82.3571
287.938
549.765
156.117
575.687
79.5298
468.66
351.227
180.043
48.6846
46.9975
71.3342
62.9367
651.46
90.4205
58.4981
514.767
73.6495
806.032
430.348
102.078
442.644
61.8701
46.3626
49.0595
45.3056
99.5928
66.4605
93.6887
133.719
74.8829
47.7306
153.329
697.156
527.689
46.0342
106.138
51.4885
64.2267
55.3984
686.428
51.1464
54.6338
54.3881
103.78
47.8559
54.817
95.8632
55.7675
58.5078
54.838
233.713
46.1886
60.5414
124.752
412.062
339.131
64.2829
634.184
741.973
55.6507
54.4941
163.397
77.9922
312.72
80.6365
93.3774
81.7398
307.213
69.7492
93.6175
1036.39
443.774
97.1019
623.011
48.6425
46.984
63.9896
46.7764
47.6292
71.9861
55.8215
80.0614
199.38
86.3581
389.539
207.327
237.951
82.362
45.1353
617.391
132.588
85.6535
566.868
103.994
671.642
67.9527
435.928
46.4154
177.854
87.1611
235.916
48.669
86.8512
79.5581
788.605
49.0492
45.0505
135.115
80.2695
128.889
59.5786
69.5435
91.5475
49.7743
133.278
50.7303
64.6003
148.242
89.8985
231.891
69.1087
47.2385
61.8758
46.2763
53.7387
245.615
44.9419
90.6991
45.3732
228.997
118.917
52.9058
115.276
112.275
58.7583
79.0969
74.4512
131.225
155.722
52.6809
48.4837
90.3752
71.1913
340.532
580.138
496.607
61.9602
48.0421
58.1472
64.3687
91.5205
875.259
236.81
64.1423
53.9466
77.1448
48.2753
49.3419
77.0767
146.735
188.075
484.998
330.37
57.3211
76.7448
79.6799
45.0201
244.72
73.492
110.585
114.521
52.0302
979.399
77.2031
58.146
70.3229
70.2303
162.208
517.589
46.378
460.943
56.3469
745.688
115.806
509.463
71.9212
47.3791
59.8365
104.706
52.1297
48.5377
127.063
46.1289
46.342
54.0016
60.9644
221.251
57.5385
755.73
73.5759
61.3916
146.621
171.481
48.4125
461.317
951.439
742.413
568.076
444.724
54.7078
396.838
324.345
77.8215
57.5315
54.0067
688.542
91.4812
97.2901
49.1781
74.6428
310.98
749.208
156.599
84.4684
45.673
66.2336
255.256
48.8218
56.7728
572.19
463.105
280.553
750.249
76.7535
47.602
69.6898
83.0388
1134.58
50.8469
47.1115
45.5969
292.783
47.4078
52.6211
94.61
101.319
46.1967
113.801
48.0858
148.142
85.2687
141.958
53.8015
221.514
90.8103
113.392
175.429
112.17
259.77
51.9043
617.503
93.3277
349.029
335.311
424.892
84.4441
117.033
197.466
69.3392
46.2401
50.8668
53.9202
87.9779
566.856
117.984
47.2954
84.1333
62.9258
49.4946
120.455
61.7197
135.803
99.5174
48.4483
101.073
51.4658
78.1707
285.151
551.39
70.1716
100.67
80.1073
104.972
532.834
359.083
556.812
863.005
143.156
48.0759
49.8578
45.9356
106.208
843.183
80.7219
795.06
132.556
47.2653
118.559
374.104
47.5821
47.6568
56.1635
76.9736
59.5121
324.889
76.4196
92.8555
280.256
49.1799
98.4704
64.0323
130.24
114.873
53.7165
657.086
82.3926
114.528
56.7934
120.196
47.2494
119.445
123.233
93.7323
94.0052
78.9966
67.0974
68.2061
52.7243
230.002
60.305
52.6646
117.166
214.135
234.011
114.052
97.4558
114.784
180.005
71.6191
333.928
99.0631
139.073
103.847
83.7663
162.363
81.6833
101.804
425.035
102.078
53.6779
49.0903
346.489
91.4349
104.64
52.2775
111.674
86.5736
48.6312
95.6817
402.357
92.8915
73.2386
88.3733
658.484
74.6188
92.815
146.134
60.2253
158.836
50.4329
742.333
83.4299
80.6854
85.5013
56.555
117.325
56.5028
499.07
44.9189
78.4677
642.197
58.6677
113.519
204.909
102.65
49.8392
557.855
58.79
46.6307
96.1983
134.777
58.3417
304.89
46.1938
364.672
99.7447
45.9918
74.5107
118.64
729.627
184.719
71.3243
47.5167
131.862
396.718
335.967
118.058
125.001
1007.2
210.954
344.931
129.791
84.9315
103.998
59.8033
525.464
1026.71
153.018
171.812
100.217
962.178
475.655
465.078
420.527
175.427
64.5642
53.1332
152.804
73.7458
555.751
323.188
81.2145
799.642
109.088
80.1906
70.8411
50.9969
107.833
88.7999
91.9749
78.824
143.866
184.345
880.424
57.3897
119.107
642.966
610.682
182.269
183.116
64.6563
662.185
47.4581
65.8656
357.213
148.444
46.4667
334.136
437.913
70.7246
125.429
49.3252
97.2705
57.1777
80.9265
177.698
84.4571
611.311
45.5294
53.3498
90.0029
480.09
169.597
124.249
168.174
266.676
123.025
79.1279
406.934
109.707
71.7616
244.594
785.811
284.328
59.842
389.366
160.411
89.9265
65.7894
128.449
48.4362
112.04
81.0518
76.4407
68.1632
60.1387
88.7057
46.613
45.0478
49.4744
100.266
50.2085
160.598
404.45
730.946
98.0899
81.6535
59.6347
51.8786
104.66
665.346
53.0921
145.577
72.7105
216.84
64.4793
115.239
182.414
403.221
48.6484
57.0615
258.754
53.0893
72.7034
115.528
80.1179
373.366
82.9001
295.164
424.443
242.959
641.569
190.334
385.484
89.6497
138.586
145.771
55.0249
439.361
123.406
87.7666
160.542
93.2461
86.0721
45.6194
55.2454
51.3453
45.8231
86.6755
320.612
45.3903
918.579
113.559
327.785
115.556
349.885
1691.58
55.3967
259.131
960.598
126.852
341.19
78.2858
70.1906
785.584
1005.26
271.325
164.489
55.1991
383.412
103.096
585.755
53.7126
56.3124
230.614
1013.91
61.6341
80.8561
53.2406
229.932
508.786
49.3962
504.735
223.582
535.253
707.627
51.339
366.361
72.8819
718.102
368.226
208.943
379.698
255.887
470.543
345.889
235.081
80.6685
75.3857
75.3821
51.2477
54.5051
1321.5
71.6126
104.142
72.6487
81.5814
122.588
1026.49
136.924
266.02
306.252
143.599
332.721
130.219
45.5729
76.0452
956.454
588.782
275.996
191.945
241.919
85.7681
461.868
60.4809
256.574
280.801
58.7902
514.441
105.464
288.114
341.11
142.094
192.056
197.865
133.974
52.1332
144.209
63.8276
527.683
72.5751
194.042
81.1117
253.35
59.512
68.4637
352.228
124.754
306.548
47.519
1139.8
46.5511
61.0491
55.5736
57.1655
90.2202
499.074
153.187
79.3075
655.848
76.8108
49.3963
60.3422
862.298
54.953
94.1741
847.359
291.945
893.744
468.858
147.809
185.938
166.856
192.126
735.998
67.7489
401.757
125.881
66.1428
181.262
66.1219
136.921
72.4612
640.825
430.855