/*--------------------------------*- C++ -*----------------------------------*\
| =========                 |                                                 |
| \\      /  F ield         | OpenFOAM: The Open Source CFD Toolbox           |
|  \\    /   O peration     | Version:  2506                                  |
|   \\  /    A nd           | Website:  www.openfoam.com                      |
|    \\/     M anipulation  |                                                 |
\*---------------------------------------------------------------------------*/
FoamFile
{
    version     2.0;
    format      ascii;
    arch        "LSB;label=32;scalar=64";
    class       volScalarField;
    location    "0.0411073";
    object      p;
}
// * * * * * * * * * * * * * * * * * * * * * * * * * * * * * * * * * * * * * //

dimensions      [0 2 -2 0 0 0 0];

internalField   nonuniform List<scalar> 
47425
(
1.34208
1.29155
0.00355123
-3.73309
-18.9501
0.116548
-16.865
0.017341
13.4304
-35.3184
-0.0219339
14.0391
-12.6296
-0.0246423
-1.298
12.424
0.0219442
25.3704
-104.893
-31.8594
4.13318
16.1318
-0.0603993
1.04141
14.88
1.08413
0.074747
-39.9461
-0.0280851
0.304318
15.9246
12.9182
14.0841
0.318965
0.00746332
-0.000849526
16.9456
13.8543
6.78111
1.31112
1.51388
1.22144
4.41204
13.7743
-39.4159
1.22887
0.136065
13.6446
1.29415
0.521891
46.4508
0.987426
0.151929
-28.6306
1.18495
8.9572
1.31197
0.173181
-12.8307
0.068125
-30.3379
-31.4863
-69.6163
20.9759
13.2787
3.30298
14.1594
-0.991762
-47.5852
23.2905
3.53898
0.782513
1.61265
4.38172
-55.9988
13.096
-69.738
0.184365
-105.19
-19.4801
-58.8918
10.3325
21.5672
13.04
1.83546
1.39846
1.39378
1.4689
-2.8009
-25.1612
15.2488
2.51818
0.48285
1.3709
1.43777
1.35041
0.385492
1.43757
1.5331
11.9248
12.7204
22.5735
9.693
46.0028
9.54332
1.43961
1.45358
1.41872
1.81453
14.2406
-42.652
13.6001
1.05162
1.46522
-0.0499352
35.2249
0.277602
47.7083
8.22702
-2.12845
1.51256
14.1123
13.5415
-7.32184
11.6777
0.266092
1.44652
13.1774
1.17213
0.511063
22.0284
1.14933
56.2437
8.1455
1.53781
-9.09733
2.24853
0.223119
11.6275
-0.147432
14.1458
-6.83355
6.3209
0.608791
11.6825
13.2211
-16.93
13.4054
6.36164
14.0569
1.10165
39.1274
13.4452
-5.39558
21.6226
1.14241
2.81636
-118.722
1.28702
0.344219
-1.24518
1.03934
0.692634
11.3402
-48.7375
-85.4017
13.4181
-55.4926
0.734796
-43.6979
-56.6711
0.647429
13.1811
18.7922
1.34467
13.3384
29.7761
0.0441213
0.0211876
0.368348
23.7732
1.2978
0.0490591
0.0741659
0.172192
12.8675
10.7757
50.7412
0.379428
1.34677
14.0037
0.409295
-11.2058
14.2216
0.454783
-0.961488
14.2018
0.947524
-1.64694
1.44715
0.291096
1.41107
1.88774
-0.548178
9.38262
2.2605
-0.00173868
-0.182388
12.8772
13.1207
1.38709
-0.9985
13.1436
1.08516
1.71318
-2.28778
2.20427
-19.1874
21.5877
14.0682
-21.7181
-2.65632
4.34157
2.02714
2.69714
-19.5417
0.414433
-1.84105
-3.2304
-8.04978
2.75652
0.229707
1.43336
13.881
0.112653
12.8155
-24.3821
0.727295
-21.972
0.0292525
0.155751
0.461533
0.481949
-6.58115
8.29744
13.105
1.38957
13.0007
0.777778
-0.0504698
1.1412
-17.4911
0.0166115
14.1899
0.218155
0.230305
15.4839
0.307871
7.38489
13.0508
0.274835
13.6852
10.1865
10.0185
-8.65809
1.42198
0.104846
-8.54461
0.279666
10.3343
10.7913
-21.9043
-24.2681
10.7091
-19.4972
10.6954
-20.5107
32.3019
-22.5514
33.9162
-29.5135
1.44725
-34.4881
0.711242
0.713803
-2.23334
0.668508
0.0778274
1.58258
0.102933
56.7576
20.0548
13.3013
0.044777
0.0991528
10.8014
-5.61518
10.6396
13.5452
-8.24484
1.4377
0.963464
0.236726
0.125329
-59.999
-72.2305
37.2597
0.417386
1.06581
11.68
11.7931
49.1271
-0.0772887
0.0927419
-12.4927
1.42837
0.474775
0.447331
0.103804
-37.4115
-12.3869
12.4009
12.0177
0.0426317
1.20611
0.0690261
12.2176
1.26734
0.693717
0.2446
-4.52895
-64.5326
6.79054
0.126111
14.0407
0.0194476
-63.5806
13.6394
0.727907
0.789853
12.4129
12.1919
1.34075
14.0387
0.603127
0.0575192
0.205478
16.6499
-0.0692408
0.179347
12.6681
7.90744
12.9013
13.6396
13.1043
-2.56817
0.39055
20.8118
13.4546
13.368
18.7313
-3.04311
0.954767
0.105691
8.76896
1.31042
0.146638
13.4556
13.7779
10.2648
0.214919
-40.1189
1.45239
11.2692
13.2317
11.1565
-0.187289
12.7841
13.0983
16.5436
13.0107
11.096
1.0088
13.6107
1.20186
13.6238
0.0298379
10.6525
14.1027
0.103093
6.80413
8.0669
-0.0284383
7.19488
0.587301
7.38292
13.8846
-0.00794426
-12.8439
0.312499
-26.2464
0.429777
-34.8521
0.219876
3.23107
0.22525
0.278117
-0.0184344
0.167224
0.229226
8.16509
-72.1062
58.7912
0.99595
7.66224
5.61169
4.17841
0.874303
0.0765168
0.523506
0.170765
0.674498
1.53993
4.03115
0.0224784
0.0649384
-4.62809
-3.26992
-0.633994
18.6479
-67.9401
1.32341
28.5302
-66.6497
1.64929
-70.4963
-29.822
0.853901
1.36893
2.30932
-1.36575
-73.8357
1.25875
0.944363
0.479515
-1.79363
0.341743
1.09119
1.24778
-20.7513
-70.3832
-22.8419
13.9173
21.1455
-0.981035
1.12211
1.44677
-10.0892
1.73252
13.8993
14.1617
14.183
7.3839
14.092
0.799599
11.2514
0.217713
-0.114711
0.537918
0.525185
13.9413
14.0835
13.0373
8.7426
12.0331
1.10813
0.740705
-20.5658
12.9149
-11.3488
14.1162
-0.377959
0.597266
13.6779
0.953099
12.0249
13.4662
12.9941
10.2923
0.575071
0.769126
12.3534
1.52066
8.9978
23.4871
0.868404
14.3201
12.9593
16.0299
1.36225
0.384516
0.964814
0.151622
2.80896
0.0369151
0.0953918
0.977919
1.23614
0.110295
0.146622
-0.0425125
24.914
0.00187856
1.60932
1.41686
1.07026
0.0249007
0.117843
12.1596
8.80614
13.1816
13.1873
46.6855
0.065235
0.0401602
13.4316
13.6665
-19.6758
-23.414
0.15525
1.31684
1.32952
-7.25545
12.8208
-25.3242
14.0858
-36.6511
28.215
19.7991
0.193224
-19.6538
0.211532
1.25252
0.281343
1.74699
0.118227
0.853322
-66.7815
0.259223
-0.0181662
0.315731
-18.7252
0.867235
0.0996865
-18.6898
-14.6717
0.113147
0.194507
-30.3329
0.487145
0.588007
0.0980907
0.413176
0.316714
-10.3824
-8.60523
20.0376
1.59709
1.43613
0.0587779
-26.6621
19.6903
1.59239
-30.3044
0.110921
0.233586
-31.7352
-36.7816
14.8127
-29.9255
-29.9741
0.235246
13.9868
0.117033
17.7964
13.0692
0.105267
-45.003
12.45
0.0751697
0.703512
-16.5121
-9.79497
14.0836
7.54442
-57.7625
-26.8186
3.08391
0.48985
1.25076
4.8515
0.54045
0.556369
13.1097
9.02884
14.0819
-0.263122
13.1634
-23.9116
6.93146
5.07791
-25.7406
11.6588
0.563786
7.48554
11.1585
0.57555
13.4461
-0.447674
30.9239
13.1766
0.413151
1.46267
-93.2943
8.88768
-8.13501
-38.2685
-39.9931
0.284352
1.57053
-40.9485
-0.0537146
6.63987
-15.066
13.512
-36.3873
0.241736
0.230876
13.2692
-31.0127
14.1573
14.2344
0.445659
0.114134
0.898106
0.0174052
0.854221
1.0695
0.432748
-29.8465
-36.3041
2.80287
13.6299
0.230378
18.735
12.5122
14.148
14.1535
14.2044
14.1463
21.0512
2.41951
14.0851
10.3003
-8.29094
0.109096
-75.1986
-23.8933
-0.0675939
19.4857
5.85718
0.181944
-78.5307
0.0221934
-56.5717
0.289886
-9.53744
-11.1211
0.712957
14.3918
10.141
28.0184
0.404155
0.639838
1.32656
-12.4692
14.0115
-13.7521
1.4937
-78.7853
-9.55439
1.34723
-11.8162
14.1029
1.13558
6.63734
1.38915
-13.0716
13.9798
12.8707
-12.4807
0.324337
1.38902
0.160802
0.791403
31.313
30.0365
16.5525
18.2022
0.141505
-0.0246544
4.19103
1.42002
0.631818
0.192287
1.21536
0.170254
1.15957
33.6547
-11.8824
0.123143
12.919
1.04983
1.02093
1.29695
0.0543706
-1.66659
-20.7428
1.28201
0.232921
0.0521309
0.961437
16.022
0.0428302
1.35864
0.833883
0.746588
1.17074
19.9861
38.3344
0.967251
-30.1555
-5.03766
-28.1958
-29.4626
1.30995
2.08092
7.65154
0.0208151
45.0608
-31.2107
57.3048
-7.2806
2.28956
-13.4908
0.45548
58.7254
4.28864
1.60006
1.2934
0.278511
-7.6513
1.62122
1.21201
0.952424
-34.2188
27.7474
13.3836
13.6656
47.1841
43.4514
-11.8791
-55.7998
-16.3275
49.1724
46.2486
13.5435
0.588632
19.035
0.473916
7.49497
-30.2
3.52672
6.62295
7.95328
0.299944
-32.0386
-32.5103
0.16179
6.7613
0.663536
0.469723
7.90777
0.300347
17.3159
0.076095
0.574645
34.321
0.256703
-0.0849105
0.0481168
0.550199
0.183089
53.9571
-17.8625
0.0383278
7.17017
0.636359
16.9316
17.1298
-12.6475
0.545865
-35.0931
-13.632
7.1079
3.50449
26.3717
-54.379
0.0345507
0.106861
-9.90197
1.26311
13.6912
3.63603
-0.0299723
14.2589
-45.5701
-16.6313
-54.0293
14.2272
28.606
0.22153
-9.30538
18.4523
-13.1586
0.0633606
20.0789
-48.1913
-12.2787
-14.1495
-34.7194
-12.6112
1.32196
0.0397535
-10.7758
0.122073
-14.4213
-30.6042
0.0295484
-17.4498
1.08402
0.997224
-37.7438
1.14336
1.4521
14.5332
16.8556
13.2604
-20.5914
-3.00709
1.03677
-12.1837
49.3405
0.915617
15.8303
1.34595
0.895857
1.12671
1.21285
-27.628
-74.244
-9.18452
2.06225
-15.1521
-15.2778
-20.1369
1.36356
1.24132
13.7572
13.9497
1.34099
-8.36002
17.5223
24.564
13.8182
-30.5662
-13.989
2.48326
1.21331
0.474724
1.18479
34.6682
13.5575
-11.3387
0.283261
6.52514
13.6674
13.6483
13.5209
13.3109
13.8895
-21.8944
-5.53056
23.7471
25.834
17.9495
8.24568
-1.14026
37.5929
1.32216
-6.53573
1.2459
-12.951
-11.5914
-2.43435
0.720554
13.9035
16.4696
13.6892
1.37855
-45.9989
-26.042
-40.798
11.1378
-7.60611
7.72318
-36.1259
1.43394
-45.2803
1.43076
1.42833
-4.34443
8.66008
1.42327
11.67
0.277119
4.86507
-6.15871
0.960785
0.611453
-24.6101
-9.76494
0.275982
18.1543
52.4067
-65.2477
40.6557
-22.307
-54.4317
0.280606
1.03702
23.2276
0.501926
53.4582
0.441212
0.234057
-71.6249
14.9901
2.90321
0.296052
13.5089
24.4494
11.9975
0.741209
13.5133
-15.017
10.6523
14.432
14.6491
14.1139
0.783451
-10.4045
-7.30059
30.3882
14.7621
1.08577
11.6216
0.627153
0.677027
8.30439
-8.52033
-7.1489
-7.87933
-7.49499
12.4835
-40.2507
0.717339
0.647048
0.731343
-69.8754
-64.0326
-17.8326
-29.0001
1.28666
-1.31271
-36.08
-31.0546
-4.06904
10.354
0.839965
1.75864
-33.9413
5.12887
-0.282336
0.901559
11.5515
2.0185
34.9482
-103.833
-12.7896
-27.4343
0.998157
56.647
-70.4698
1.47888
11.9592
3.42463
-34.6874
12.0125
-3.85198
18.1426
-24.0349
2.78028
-24.7477
3.3052
-8.1425
1.5076
8.25366
-22.9124
-22.4152
11.019
18.8471
-8.86067
-48.1347
10.2799
1.50913
-23.4163
-34.3634
12.7411
9.39484
-55.8675
-66.186
-38.7945
11.2577
-4.519
-15.0822
-39.4419
10.8532
25.7415
-20.686
-6.87251
-4.83705
-20.1941
-37.275
-3.5409
10.7573
13.2773
14.371
13.5857
11.0954
-6.3433
13.9692
14.0491
14.7413
1.8711
-45.3575
-33.2809
12.2045
41.1135
-16.148
12.4516
-24.725
6.78059
11.2598
-7.19801
-2.71055
11.5273
10.0291
-44.1557
14.4463
-29.5274
-73.0329
-37.0837
10.967
-8.27575
12.894
1.58587
1.60783
-14.2978
-36.5807
0.999138
-40.3953
-25.874
61.9993
-19.8289
-59.0152
-25.7593
0.0841633
1.59057
-41.0974
1.03108
16.5723
0.101446
-47.8992
-37.1427
0.00240493
1.99059
-31.8964
-16.9155
-42.4361
48.1587
0.490784
-9.27013
-64.4273
0.294317
23.3865
-25.7094
16.2485
-78.5389
-21.0759
11.9131
0.303294
0.45963
1.43111
0.41396
2.24214
0.798668
0.490781
8.45429
37.1422
14.8378
26.1321
-23.9955
-7.40762
25.828
-1.78096
3.13677
-8.82944
14.312
-66.0644
0.95189
1.29903
0.950994
-34.543
0.978376
-76.3175
1.13645
10.1928
6.70345
-75.4006
52.7598
-32.795
-19.6475
37.2283
-1.61756
13.5319
-7.38339
-23.4219
-33.1693
-25.2739
47.2905
13.4017
-14.327
-40.6875
-6.22711
-3.31492
-35.5849
-27.6873
2.05117
-11.8105
13.2594
13.5478
-42.3748
-52.1718
-0.318552
10.1147
13.4006
-71.3141
13.5623
-18.874
-11.983
13.4867
13.8219
-18.3953
2.46517
52.4277
-15.8893
5.42811
31.987
29.067
10.9026
-83.2684
-36.2891
-12.3661
-107.958
64.1422
13.8946
-33.9778
13.8827
25.0811
-86.7137
3.72441
-76.1256
-42.329
-1.83252
22.495
-4.85123
13.7507
13.7508
17.478
-20.0212
2.04104
0.120251
27.9553
0.335489
-1.20138
16.0614
-10.6498
0.246567
-14.0811
16.7614
-55.9678
-31.8489
5.17999
-30.6547
-42.2574
0.0957858
49.857
-41.0514
-2.59711
30.964
-8.20671
-11.3992
-20.5724
-26.3523
8.43187
-39.7287
-17.5289
6.86591
0.11611
0.486051
-20.8127
-4.88196
26.7213
-23.3716
1.35788
24.9789
0.754293
-51.2557
0.236759
0.292493
-6.84749
-20.1182
23.3901
-1.49256
-10.0703
-7.39937
-78.2005
0.159975
-10.4031
-56.8068
1.01779
-6.85958
59.9581
-4.81783
-17.9098
-61.6003
0.127085
9.45258
0.00333951
-120.493
-37.7041
-38.3503
-37.1512
21.9352
-3.32998
-4.83858
-43.2916
-61.141
-10.0866
0.5937
13.6053
1.11691
0.554266
3.34739
55.3733
14.1778
13.2704
-6.00173
0.54124
15.9157
14.2606
23.5752
13.8259
0.531543
22.6171
14.5199
11.4516
-11.6041
1.53036
12.7769
10.8675
-8.27064
13.114
0.523792
1.14981
11.7383
14.2653
13.8662
-72.6503
13.0921
19.4843
1.08916
0.24649
-25.8976
14.9078
14.2173
-67.1829
-56.0668
60.0049
15.9857
-70.9125
20.9005
1.66202
-62.6401
6.76212
-66.8394
1.10894
1.23055
13.7173
21.6781
11.6476
1.34514
1.17032
1.63203
8.27911
9.89238
1.17288
-14.7991
0.899303
-10.268
60.1738
13.0824
-44.0137
-13.2667
-66.4058
1.11336
12.0775
0.178668
14.6044
1.4439
13.1887
1.20088
-38.3106
-21.547
-37.1797
-1.90351
-6.74205
1.31926
3.41757
-28.8611
1.58595
-48.0791
-0.0369176
-42.8545
1.78133
-54.6881
-82.6879
1.23096
0.0563874
-51.6597
0.296362
-55.4177
12.7808
2.27394
1.0077
1.31181
0.871463
0.298997
-9.41201
-24.1157
-5.28653
12.8669
1.28198
12.8186
0.888711
12.7645
-48.0104
10.637
-33.4082
2.63744
1.18746
10.5788
0.584043
10.4933
10.1455
0.18987
1.17097
13.7146
1.14531
-1.99861
1.29783
1.27753
-19.8856
-44.3938
-4.85916
1.17768
-43.0387
0.957328
0.615834
0.483314
0.456815
-0.0178553
1.35885
13.0471
12.7636
0.950727
0.725412
43.2294
1.34342
1.08737
1.47218
-41.6506
1.51184
-50.3029
-35.1896
-44.5026
11.1419
0.318409
1.53108
0.137182
1.04267
-40.6181
-8.57512
0.946737
0.941673
1.53463
1.62581
-32.3056
1.61147
-0.0105112
-13.4891
0.655913
0.505761
0.307038
0.517822
0.331838
0.319484
0.509614
-8.73681
-12.9769
-0.03377
12.9316
-0.32444
-7.17511
-6.00679
0.639658
1.09895
-8.6483
1.47806
0.177236
1.42503
1.05287
-7.96683
0.0112555
1.20973
0.600172
0.688422
1.63225
-4.35211
0.0632747
-51.393
0.694233
-14.741
1.49611
-0.00947179
-53.4046
0.0275808
1.13747
0.0653275
0.845244
0.847375
1.04786
52.6212
1.39062
-21.5703
0.995498
0.239702
1.59927
0.878407
0.577309
1.31112
0.512719
0.806615
0.314963
-5.93123
-9.99878
-34.8041
11.3801
-10.037
1.25961
1.31608
1.22726
-23.1653
0.114338
0.165231
0.157349
-51.401
0.128817
1.58377
-0.0647941
0.196652
1.76511
-134.932
0.0788609
1.33504
13.0364
0.0148343
-6.85886
26.7279
28.0411
0.0455798
8.03706
0.176139
1.16318
0.53903
0.328385
-49.9651
-55.8213
0.11973
1.06219
-43.6888
-0.0451099
0.248997
-20.2533
0.0540736
0.980615
5.56046
-0.163885
-4.66653
0.0263396
1.52983
20.2243
0.766154
-0.0162933
13.0972
-20.9394
13.1478
-24.4176
-24.4736
-31.2578
-21.3498
0.504227
13.0691
-14.5032
13.2162
1.15076
16.9889
-32.1854
-23.08
13.5131
-10.5383
13.4997
0.713723
1.40894
-32.2467
0.885447
0.453431
13.2813
13.2959
42.1069
45.5324
63.8487
-20.0787
29.0236
13.5376
15.4718
23.7242
13.3747
0.748197
0.196798
0.448563
-0.104701
-32.2853
-31.3624
0.746493
1.81284
-0.417244
-68.8799
-2.04003
1.16856
1.34339
-26.1262
-51.0516
0.802733
-44.3769
-0.449187
-28.7936
-34.4962
-14.9388
0.278675
0.791622
14.0294
-51.9906
0.239225
14.1287
0.586654
0.120736
-60.7591
-58.9738
-64.8297
0.250526
-44.2147
17.3771
9.99886
3.61435
-13.3294
-70.1444
-68.6592
-28.9012
62.3404
-29.7223
35.4953
13.0274
-37.016
13.6681
-54.5846
13.0769
-50.5001
12.9749
-22.9851
2.48936
-25.3793
13.551
13.4677
2.47647
13.3087
13.1762
33.7686
3.56082
13.456
13.1893
-62.0804
-49.3403
-11.8207
-22.1557
-52.3389
-21.6414
1.20531
15.7697
-42.881
-26.9548
-32.4022
14.5556
-67.6362
7.04421
-55.3289
-74.3725
-41.8147
-10.502
16.145
5.95568
10.1606
13.395
1.69177
-27.4704
0.4023
0.782694
1.63072
0.194998
0.120812
1.23204
0.452326
-21.9061
0.290285
0.155966
0.423965
1.61073
-17.4418
1.09349
0.0229594
0.278276
1.66862
-6.85865
-11.5996
0.736661
14.5132
-26.9959
-74.0921
-2.97879
-57.6905
-9.53856
-6.03476
-18.4445
37.8723
8.52125
9.1562
-5.57244
0.00300889
0.13112
-0.0141037
-0.0106469
-0.124783
-0.808166
0.07832
1.74933
1.80654
11.8493
-6.07574
1.45634
45.6263
-0.0573199
13.4579
0.0473946
0.0107521
44.7111
-52.5933
25.4904
0.0548682
1.29962
-22.3485
-31.763
-0.16915
1.46619
15.1473
-9.5242
0.62321
0.0871947
-14.3325
13.3084
-0.138182
15.0749
56.2352
1.42235
0.93922
-10.746
-0.396198
0.960083
0.889414
1.01016
13.0711
13.1598
10.444
13.2864
13.6744
5.49982
4.19454
-3.22487
-54.876
6.28582
-6.32106
13.1823
13.0646
63.9101
4.3269
1.68775
1.40946
-29.151
-31.9244
5.08191
17.0825
1.34156
30.9958
-4.54693
15.6648
-29.8279
49.1515
31.0982
-7.7519
3.08738
6.06917
-27.0083
-67.3879
-75.2692
2.32071
-8.94003
-69.5805
2.32176
-10.7849
-5.14624
-33.0162
-33.0139
2.1753
16.2332
-72.9282
11.4732
-5.46876
2.5099
11.5979
-2.34849
14.5455
-4.03547
14.8343
10.7927
-40.4094
7.71794
59.7916
-16.4743
56.6334
33.2319
-64.7835
14.2239
14.2576
-50.5792
-10.3425
0.484366
-32.1686
-21.4167
-5.43554
2.07597
1.87599
-31.9738
-1.49352
7.66017
59.0895
-6.2721
12.4924
-4.74482
-14.9957
8.39039
8.67968
-28.6981
-31.6593
-27.1427
-31.5318
0.599393
-14.149
1.3425
-14.7814
-9.91108
1.75315
1.25819
-13.0181
-2.66067
-30.922
-31.0684
-0.0878705
8.16826
1.12812
-9.78831
-19.1905
9.9416
9.54312
-13.6911
-30.3811
10.0913
-5.94912
-31.0831
2.47828
-33.4274
-0.176878
-3.04795
-50.7473
2.47568
54.0429
-7.26205
1.65054
1.59574
0.839033
-73.121
0.91584
0.948135
-4.16647
0.248902
11.533
0.749287
-24.5265
12.3304
36.5736
12.9398
12.4357
12.2653
1.04191
-9.58332
-2.89868
-7.12285
-71.741
-0.568076
-39.7364
-8.15466
-0.0240136
-61.0993
0.0317933
0.8263
1.3623
-6.02617
-50.8748
-20.8746
12.3441
40.593
-4.82407
2.033
-31.5987
-39.5668
-6.1789
-50.1797
35.1055
12.9317
-7.5771
41.305
13.1489
-61.0486
19.3663
10.665
50.0955
35.3886
13.2546
13.2276
62.3718
-45.698
1.24343
55.395
7.60625
13.2569
-7.71322
13.1932
-25.8861
11.1378
61.0984
13.3112
13.4573
40.4107
11.469
18.4318
-8.55661
-1.89282
16.0935
-48.2231
25.1292
-18.4219
-50.8078
-63.9936
-21.2045
13.5468
37.9479
15.2121
5.73068
10.6544
12.8194
13.5297
1.38925
1.37806
42.3718
-36.9468
13.132
-23.3598
2.77108
9.79777
-14.5672
-62.0229
1.39193
-13.566
13.6978
5.61507
1.26672
11.7455
-6.49363
1.51591
1.33074
-31.7756
3.58129
0.950168
-6.17518
11.4489
0.777472
22.531
0.840245
-13.6508
28.6698
4.37834
17.6705
37.9111
-30.1332
58.4497
42.8607
-27.4197
-53.8705
-31.1549
-22.4336
-29.8134
-29.9897
-23.2947
-19.1543
-28.3909
-31.2346
60.9826
-0.259447
-55.6906
10.3178
-0.260516
-31.6017
-60.6184
-5.41703
-30.2124
-14.0108
-28.9758
-12.5571
42.7825
-37.3958
-29.4494
-30.6428
25.7348
-29.9752
1.20782
-64.2098
24.5277
7.51088
1.25543
-0.240302
46.9793
8.93513
-27.7847
-11.7576
13.9554
1.27679
-5.06959
-22.7324
-28.7424
-1.10536
-2.80785
18.8094
-24.9744
-5.2482
1.40902
-19.2345
46.66
-0.972
6.34977
1.28369
4.01216
-36.753
11.1435
8.67157
-4.74836
1.49483
6.36752
-0.232695
-0.868284
64.1815
4.03211
-21.2632
-4.61482
2.9893
-72.5252
-72.3895
9.87965
10.1887
9.32618
12.3138
-20.5713
-7.41885
59.0454
-8.13674
12.0834
-19.0327
-1.4154
-4.58227
9.80521
-9.64664
9.80092
-17.2105
-31.977
-41.0734
33.61
-16.8454
18.2776
10.0513
-51.2896
-61.4166
33.2213
-63.9046
10.4341
-55.4792
35.1475
-5.50089
21.6494
-12.3144
1.76594
0.310306
-5.06837
-11.1164
-35.1901
1.57956
10.9644
-88.2658
14.0653
-25.1528
13.9315
-0.261415
11.3574
2.9507
0.661417
0.24154
-2.84599
8.1539
2.52981
16.3642
0.777845
-57.4451
35.5727
12.4287
41.7786
13.2996
1.85052
12.2245
14.1046
31.6722
0.933912
31.587
1.50572
0.807761
-17.7273
0.937182
0.353119
-16.0709
-9.44135
-32.0031
-1.99188
35.1248
6.35282
29.2343
0.875367
19.0023
16.1926
1.06456
0.768621
0.423376
1.35631
59.5487
0.334917
-6.68133
-29.7521
13.4071
13.7564
16.856
13.6085
-19.4731
-27.0599
0.976932
-2.18105
-2.09532
-11.4128
35.4385
0.283467
-52.1795
-4.47803
-29.1975
1.12132
9.88244
-21.0175
13.4697
13.6063
-15.9678
13.7639
1.37244
7.76124
-46.9793
18.5803
56.2726
1.13717
0.925612
35.9076
8.67828
2.03819
34.6811
8.7741
-11.0868
38.5498
-14.1048
40.4421
-59.4084
3.69412
14.1321
0.592247
-6.46931
1.43369
1.02166
0.114903
0.265249
14.1428
-30.9956
5.40596
1.347
-26.4501
1.36259
8.33341
13.6052
13.7464
25.2581
5.41243
3.40951
-5.70336
1.06222
-9.92259
13.4077
1.5071
-17.6947
61.3158
-16.9792
1.55461
59.8961
13.6351
-69.8411
55.0252
1.36237
4.93815
35.4236
13.785
-29.6797
39.7215
-29.7397
-3.02828
-29.3132
-14.6824
-38.3892
35.7334
-2.69042
61.7175
0.8266
-30.2793
-29.017
-76.0761
-70.143
-33.7778
-67.9055
-30.067
-33.1864
58.6104
10.4531
11.5827
50.1958
24.6922
-39.6475
8.58516
-42.0094
47.1004
1.02978
11.8706
0.0291575
1.196
0.649686
0.816437
59.9513
0.912091
0.839484
14.6455
0.999236
0.965435
11.9216
-4.90606
1.00697
-5.71975
1.06384
8.13935
28.5187
-41.1197
1.25709
2.64647
-4.00851
1.04297
-42.3481
-39.2647
-18.7894
1.81753
40.7981
14.8051
-1.02583
-4.30234
7.17996
5.14648
1.04117
12.8696
12.5062
-32.2264
1.08834
18.9791
-1.7102
3.89503
12.6277
0.243077
9.07647
13.0181
12.6685
-11.3469
12.35
10.8771
52.3436
27.4118
12.9805
24.5557
12.0268
0.0716545
12.5605
1.2667
-1.85166
1.37158
6.26888
-9.46427e-06
23.7237
12.0887
-14.6645
25.5552
0.195437
10.756
29.8668
-11.3425
34.6906
-22.0787
-44.9335
-48.1497
1.26104
-0.0965941
-19.183
35.5417
-6.14788
-0.841524
9.77438
2.10459
0.215583
-0.087864
10.447
14.0455
30.5443
9.16405
2.44543
12.751
12.267
0.077736
-31.7901
36.65
-0.0292978
8.99898
-8.90706
41.9507
13.7743
11.5452
-8.21615
-43.6131
-70.2762
13.081
13.0094
-4.60851
-8.90687
-6.56872
-26.6669
33.6118
1.40134
1.54309
-0.226425
0.238948
19.0982
-15.4306
0.344765
0.385465
32.2164
0.476732
-4.25188
25.8007
-30.9644
-22.3281
0.658247
-8.5082
14.9121
0.0117998
0.781305
13.6049
10.4651
-4.98261
22.2792
5.38864
-49.0653
0.841151
0.771128
-36.4408
-5.96109
14.7353
0.654063
8.73794
13.1073
62.447
0.739552
-7.88973
-41.2525
-33.4841
-77.1864
-53.193
0.755365
17.7345
48.478
-0.0448678
11.1322
11.9079
-39.1344
14.2827
7.1658
-33.4598
13.6572
22.1521
-14.0931
10.0076
-36.6759
-64.7258
15.9687
20.1389
-48.4495
16.1889
11.9993
3.74084
15.1601
13.6072
2.62463
-29.5476
-4.45323
11.0736
15.2738
13.8021
13.9457
6.03255
0.0372676
38.0882
0.00858888
-5.26986
1.37233
37.842
13.6486
-10.3508
5.73877
58.9829
-19.8908
-24.7692
-44.878
4.17852
-3.62919
-43.921
-15.6387
15.6235
-12.7649
-3.05466
0.0422716
-6.44337
13.0397
8.73758
6.09929
0.146865
0.306867
-16.4222
-2.67036
-9.67139
1.0515
1.25126
0.242698
0.959887
-3.79932
14.1703
-36.0895
14.5013
0.918039
0.949618
12.7699
12.4308
13.3232
1.41215
1.0224
-5.88842
5.13017
0.971756
1.00168
-28.18
3.31255
-7.11915
-46.7837
-29.6494
-39.0311
15.5626
-52.3638
18.4869
-29.0202
1.31196
-31.0626
1.04204
3.31002
1.56506
-3.02021
1.27804
3.80644
-0.696143
13.7478
4.98809
15.0997
-3.24228
-6.80605
-70.152
-30.1302
24.8563
34.1263
-39.9996
-28.4381
-30.1783
-66.4789
-29.9077
-5.92115
-30.5594
1.75356
1.74943
-58.287
-70.8454
-7.12103
1.03052
13.2297
52.9117
-2.87786
-71.0174
2.87979
5.79686
-0.4583
0.88771
-30.3948
1.74129
1.49608
1.41484
3.03255
8.06034
1.48148
1.03733
-59.6738
-61.9856
-34.8531
24.5369
-36.0552
13.3901
0.91717
15.3489
7.66113
5.03983
23.3148
12.8849
24.7288
1.18835
4.83539
6.35507
1.28243
3.27144
-9.21264
9.90236
14.5025
9.78922
43.1777
1.77465
23.2738
-51.5554
-2.71785
-42.6513
39.5596
11.5357
10.4076
7.08595
-19.5376
-7.95499
11.9034
-36.68
8.54594
7.12042
-2.65786
17.5356
10.61
-3.58376
-12.3066
-20.4747
14.1343
-1.48955
-46.8519
0.891625
-40.3304
-34.838
14.0151
-73.1331
-3.63873
34.9485
-2.57776
13.9857
13.6713
17.5966
-4.05863
13.2716
-30.5633
-10.924
-29.8983
-3.84675
-7.97448
19.1418
-30.2479
-16.8649
2.13285
1.71377
17.9972
-30.8671
9.49653
1.49208
-42.7189
0.717853
0.611589
12.733
-72.9613
-3.48348
0.586725
1.25947
-0.326368
12.3291
11.4971
2.23459
12.3995
-13.5309
12.4434
-78.4398
12.717
-42.8377
-26.8948
-7.16632
10.8604
-5.58703
-1.07396
12.0445
-2.204
1.26763
-5.96118
53.94
0.232064
36.1135
-5.29485
0.10659
-2.45495
0.161452
13.6064
12.119
13.3614
-5.95774
0.290612
12.8809
-2.69131
0.0152264
0.628433
-19.5309
2.75361
0.260921
13.6814
-38.3453
-42.6444
0.0503874
-1.90744
0.718729
-31.9873
0.437846
0.385576
1.21959
0.328545
1.27658
1.23921
0.045715
0.72691
12.4867
-35.4389
-26.3051
13.6823
47.8331
17.0519
13.4003
-0.0506283
14.1021
40.7079
-0.00125137
36.6784
1.57619
-0.0276703
3.33217
28.8328
0.927879
0.0317872
55.4887
14.1933
27.9751
-6.79344
-10.9169
0.123635
-2.48103
-0.0584265
1.08492
3.30154
0.690897
51.7783
1.06078
0.597481
0.699206
13.0201
-34.281
-17.2012
-2.52742
2.51301
1.37516
0.560664
15.5382
-24.7912
26.5816
18.3979
1.91752
0.557062
44.361
-11.472
42.5007
32.7222
12.4216
13.5047
0.337719
-4.90183
2.6374
-10.0325
-9.47954
13.5891
-70.3266
1.42336
1.46832
1.16
11.8395
1.12714
50.146
-2.56362
47.4029
1.3014
-67.0901
-8.81619
-11.2276
1.04058
-40.5086
1.4355
30.9641
13.2642
33.8388
1.42872
-14.4243
4.73685
-41.637
29.5635
13.0505
12.8322
0.503716
-20.3581
12.5891
-79.1785
-20.9066
13.1203
35.4892
12.9838
-18.6453
44.8888
6.22039
-3.29706
44.4407
36.3137
2.47173
3.95416
-66.1296
44.0853
10.4815
41.7614
-3.15168
-59.4351
29.7318
-0.543316
-0.0775739
0.230683
-0.0483279
1.58668
15.0118
-42.8419
0.898422
-28.5614
17.4666
40.1329
-10.8743
37.7225
-0.0859525
-0.0310086
-10.3542
58.0159
-14.4095
49.631
16.976
5.25776
26.0185
6.09051
18.4896
0.00231183
-0.128997
-0.0284857
-0.0233085
9.72422
-11.63
14.4143
-29.8701
1.33116
-35.4616
12.3117
-17.7898
46.952
0.0291245
-0.102222
0.138324
40.8028
0.122741
23.6769
-0.569015
9.6058
-5.94938
1.42293
33.5061
37.8143
-10.6171
0.133859
1.24506
-46.2307
-58.1895
-7.14067
53.5413
29.5207
56.1479
59.16
46.3712
-45.3638
-0.124437
46.2333
-42.357
-0.0168594
6.10371
0.0620254
-22.7546
-21.2883
-0.652413
2.55416
-5.91294
-0.0448893
12.4526
-35.8733
42.6045
-40.0326
12.3466
-0.25288
11.1463
2.82864
-3.73585
-77.3527
2.89708
-28.7633
-12.4315
12.7302
-72.7737
-69.2749
12.7555
-8.0198
-10.1391
20.9988
12.7838
-10.6329
27.1237
-63.9841
-26.0993
-36.7165
40.43
-38.0813
5.92837
26.7182
5.51305
-48.3942
-44.3991
2.99569
0.762222
51.5481
-0.520728
-32.7598
-0.508038
-13.095
-55.9284
-14.4262
-30.5189
1.80463
-31.1801
0.305802
-30.6254
13.9506
-18.4958
51.9083
-30.1035
22.6187
-26.2588
-29.9372
-16.7323
-39.4258
35.0808
32.8375
-34.2112
12.0618
23.3519
17.6088
7.02726
14.4189
-3.48019
-35.6557
-87.2515
-48.3512
18.1913
22.143
-34.3876
25.4413
-29.67
-11.5968
7.44849
5.29006
-38.3565
13.7462
-32.4432
15.4455
32.5591
34.3912
62.5613
32.0584
-23.3485
-51.3553
46.4293
13.7313
38.4732
-42.4993
-30.7911
52.2032
31.5614
-2.65408
23.2006
21.8967
-39.1536
-32.9733
-70.3161
19.0957
11.2905
38.0066
-49.3751
46.4692
30.6705
14.0125
39.2302
-42.0079
4.41035
3.73356
14.0154
-9.16714
-54.4454
-32.8432
46.7431
0.551643
-32.6964
-60.3747
44.5203
47.8079
41.6224
-46.6221
-87.5507
46.5794
-22.7768
-51.4449
47.6845
-0.103184
-7.37282
13.5359
1.33532
1.84676
-5.63866
45.1652
-28.4086
1.13238
2.04824
1.80232
2.31311
1.23182
7.93445
-29.0989
-2.96025
1.55721
-49.1569
-67.6589
-30.7947
-15.3851
0.817934
-14.335
-34.2263
-33.8449
1.62181
-37.2421
0.69221
-35.3839
-29.3775
44.6035
20.9451
27.8009
0.0310962
7.41465
-62.7424
-21.2564
-7.35282
-54.4119
0.00150766
-52.7402
-36.2149
-21.0883
-36.6033
-1.88424
17.2092
13.1086
16.2537
12.2241
44.1973
0.0574333
-0.0371163
0.128865
15.9691
-14.8299
-61.23
-48.2431
16.9036
39.1743
25.3146
31.4004
2.5818
-62.49
-3.90817
14.5333
6.08001
0.4854
20.3816
9.56358
-10.4785
16.1285
-8.54761
-7.49842
-3.00135
18.0846
37.6221
-26.7289
55.3837
-41.9073
20.5799
-78.2895
-56.022
-8.01473
15.1004
36.6509
-6.0653
-42.0803
6.09411
15.9238
-18.1824
-32.9345
18.2566
48.3716
62.1
-64.582
-3.69367
-53.1823
15.7439
2.28781
-8.99919
11.9053
8.44641
-15.6285
4.75762
10.2441
-35.7758
-6.3877
-31.2235
-9.99066
-38.0983
0.127111
13.3067
-77.4675
-13.9025
-0.00236344
62.6341
12.8721
48.3446
10.6962
-24.1125
18.4947
3.96836
35.5378
57.0085
16.8694
35.7615
-0.133159
-46.1734
13.8031
13.6154
1.04402
9.0173
-31.2061
-1.60311
-5.80801
13.9577
5.01481
-18.3778
6.31186
10.9304
-4.75356
-9.1712
-26.1245
-0.0528498
14.7314
0.000497723
15.5947
0.100119
-14.2895
13.584
-19.0263
12.9731
-35.9797
-0.0657735
35.0148
-8.328
37.5161
0.0782504
7.5103
-0.0802121
4.45064e-05
-4.67821
6.94236
18.0385
35.9801
30.7216
-44.6269
-48.8082
44.7023
26.2635
22.5165
7.62113
-0.00156414
0.206959
-66.3454
45.989
20.7848
16.5767
0.0948229
19.879
0.152059
0.108223
-17.3436
-21.0202
-32.4102
-38.6179
9.53071
2.08123
-8.73158
13.5886
43.3021
12.0618
-10.6218
12.1241
-5.19738
-70.0073
-14.2572
0.275191
5.96483
-5.93603
-4.3902
-37.292
13.6333
-37.4222
25.2276
-67.1847
-27.5009
-23.5489
0.30688
23.1509
4.83676
13.888
36.2047
13.9362
-7.76909
11.8421
12.7701
10.6196
13.8346
-34.7342
18.4422
8.16773
44.5096
13.3736
-18.6803
14.0331
13.9491
-31.1044
-68.689
-24.825
-31.811
-30.2378
11.392
59.7058
-32.3492
-5.53331
13.8958
21.3118
-30.5143
0.66995
0.632253
11.7481
-19.7516
-33.5101
-42.1507
33.6488
0.975178
1.22819
5.67867
-35.7501
29.2942
10.8863
-50.3687
-36.4024
-32.9956
62.2726
15.2042
11.4446
4.72889
15.3052
-60.3274
18.1812
12.1753
20.2941
-3.888
18.2903
24.344
46.1939
37.5413
11.6433
-13.8206
23.6638
-7.02022
0.682499
0.575885
31.9258
-26.6484
-14.3282
0.544097
57.2664
0.583314
-35.8497
31.5357
23.5244
40.8352
-31.5899
-25.5723
-30.8934
33.4033
-9.39048
-26.7843
-9.21575
12.2272
2.13494
15.2415
1.16653
18.0668
1.03559
12.3834
1.19882
-9.24231
0.338942
36.6466
4.588
5.49563
-22.7438
8.59249
1.40755
9.66909
-3.95988
-38.4627
-45.7047
-17.9253
5.81144
38.0388
1.25602
60.1498
-47.8695
60.282
54.4407
1.11876
4.31427
5.71437
1.06082
1.15634
-82.406
12.7967
-34.4491
-16.8369
5.74675
1.44155
-28.9741
6.60397
6.48839
11.1277
7.88011
1.1625
-44.0469
-2.37608
1.45545
-5.533
1.70001
1.17721
1.64749
1.40816
-2.84214
6.73748
-50.6402
1.21115
1.59735
-9.58365
-4.59574
23.8401
-17.115
13.1907
13.0824
-0.0776269
0.288558
-7.61235
-13.9733
8.3963
0.108909
-0.0823443
9.58834
0.0841189
58.1875
0.0870418
3.11643
0.0818423
-0.00778858
-24.8032
-0.00987173
-31.6744
-2.26489
52.9394
4.71512
-0.143035
-5.99629
-2.14798
-0.837157
-38.591
1.93049
0.0787534
7.51544
-31.337
0.0538405
7.18778
28.6011
42.964
-7.89309
9.68189
10.1281
-41.4777
-21.1295
0.0567703
49.2336
-54.7047
-18.8506
-6.82863
51.075
-8.2887
-7.74184
32.7403
-60.8478
0.142296
0.101616
0.0829746
0.0907875
-0.00658608
0.0060856
-36.7908
18.2861
-0.0370112
-50.8063
2.20817
0.219406
-7.24645
3.13719
17.0038
-44.2764
6.74381
16.7214
-22.9404
1.73773
15.8371
60.6807
15.9047
-51.2293
42.1636
18.5501
33.0316
0.251195
46.1097
0.597379
8.07743
24.7125
0.0524235
-41.6637
-28.7162
0.746566
0.712912
-130.906
20.8571
-32.2657
1.27506
-2.98295
1.21282
14.1696
23.7349
50.4022
14.1758
55.7309
14.1506
-77.568
-31.2105
-33.4327
-28.9043
-9.93345