/*--------------------------------*- C++ -*----------------------------------*\
| =========                 |                                                 |
| \\      /  F ield         | OpenFOAM: The Open Source CFD Toolbox           |
|  \\    /   O peration     | Version:  2506                                  |
|   \\  /    A nd           | Website:  www.openfoam.com                      |
|    \\/     M anipulation  |                                                 |
\*---------------------------------------------------------------------------*/
FoamFile
{
    version     2.0;
    format      ascii;
    arch        "LSB;label=32;scalar=64";
    class       surfaceScalarField;
    location    "0.0411073";
    object      phi;
}
// * * * * * * * * * * * * * * * * * * * * * * * * * * * * * * * * * * * * * //

dimensions      [0 3 -1 0 0 0 0];

oriented        oriented;

internalField   nonuniform List<scalar> 
92401
(
0.147437
-0.0957596
-0.00696751
-0.0447104
-0.0621418
0.0600195
0.0372381
-0.0351158
0.0225395
-0.0399821
0.0431535
-0.0257109
0.00646074
-0.0127224
0.0125552
-0.00629355
0.00141854
-0.000470301
-0.00582881
0.00488056
0.0195984
0.00973166
-0.0255832
-0.00374677
0.00556036
-0.00456826
0.00042645
0.0324421
-0.0257478
0.0129041
0.0481187
-0.0386515
0.0324234
-0.0418906
0.000453945
-0.00104399
-0.000117728
0.000707772
0.00464902
-0.0418427
0.0378685
0.0243586
0.0243149
-0.086542
-0.0169313
0.0108483
-8.60568e-05
0.00616902
-0.034497
-0.040392
-0.0172064
-0.0168931
0.0578236
-0.0237241
0.00194797
-0.0657085
0.0637605
-0.00222582
-0.00768736
0.00194962
0.00343056
0.00230718
-0.000935085
0.00146694
0.000275527
-0.000807387
-0.00476568
0.0104051
4.50452e-05
-0.00568451
0.0161526
-0.00574697
-0.004737
-0.00566865
-0.04056
0.0081382
0.0369803
-0.00455848
-0.0392238
0.0108032
-0.0549292
-0.0544851
-0.00290535
0.0554893
0.00190112
0.090528
-0.0894866
0.0225792
-0.0236206
0.0498713
0.0600599
-0.0713081
-0.0386232
-0.0324631
0.0512687
-0.0580294
-0.00261441
-0.00104012
0.00390935
-0.000254815
0.0316686
-0.0637428
-0.0003889
0.0609996
-0.0609688
-0.0320977
0.0320668
0.0126534
-0.0173127
0.00126952
0.00338975
-0.0359165
0.106256
0.0611576
-0.131497
-0.0846926
0.107606
0.00889472
-0.0318085
-0.131114
0.0320444
0.0296663
0.0694029
0.0149273
-0.0616298
0.036845
0.00985751
0.0598505
0.00939797
-0.0543212
-0.0440895
0.0103985
0.00209858
0.0315924
-0.0504165
-0.0411731
0.0654744
0.0261152
-0.0333772
0.0404296
-0.0140072
0.00695481
-0.0194982
-0.101897
0.0645017
0.0568933
-0.0864814
0.0863673
0.000114018
0.0329892
-0.00458659
-0.07508
0.0466774
0.00305907
0.0238853
-0.0248667
-0.0020777
0.0268905
-0.0504017
0.0235112
0.000105344
-9.17727e-05
-2.31075e-05
9.53606e-06
0.00048773
-0.0588046
0.0583169
-0.0685807
0.0426957
0.0626336
-0.0367486
0.0900898
-0.0254766
-0.0126977
-0.0519155
-6.30603e-06
0.0701149
-4.62242e-06
-0.0701039
-0.0475794
0.0730817
0.0394941
-0.0649964
0.000530312
0.00104876
-0.000368835
-0.00121024
-0.00229343
-0.00350866
0.000352719
0.00544936
-0.0382211
0.0839454
-0.0461354
0.000411075
0.000314785
-0.000769177
-0.000671868
0.00112626
-0.0548293
0.0544807
0.000348636
0.074981
-0.00785604
-0.0185441
-0.0485808
-0.0976318
0.090416
0.00522549
0.00199023
-0.0554105
0.0276786
0.0111427
0.0165892
-0.00266127
-0.0156558
0.00726539
0.0110517
-0.0123678
0.0258374
0.037441
-0.0509105
0.000891319
-0.000266866
-0.000309669
0.00010861
-7.51978e-07
0.000697361
-0.000805219
0.0010693
0.000220105
-0.000772815
-0.000516593
0.00416404
-0.00922015
0.005179
-0.000122886
0.0679073
0.00506359
-0.0172033
-0.0557676
-0.0150313
-0.00464276
0.0103363
0.00933776
-0.0410627
-0.0530109
-0.0547854
0.148859
0.0035096
-0.0338386
-0.00415487
0.0344839
-0.000425246
0.000550469
0.000677435
-0.000802658
0.00465895
0.00435923
-0.0283261
0.019308
0.0187523
-0.00676974
-0.00955612
-0.00242642
0.0418863
-0.0762931
-0.027496
0.0619028
-0.0285061
-0.00334164
0.0103098
0.0215379
0.0120812
0.00804648
0.0129443
-0.033072
-0.000779851
-0.000389738
-5.0179e-05
0.00121977
0.0252208
-0.00972829
0.0365701
-0.00114768
0.000768675
-0.0013529
0.00173191
0.0444374
-0.0330007
-0.0684343
0.0569976
0.000623863
-0.000305241
-0.000318622
-0.00108597
-4.83355e-05
0.000563122
0.000571182
0.000871279
-0.000325293
0.000794599
-0.00134059
0.0223876
-0.0221199
-0.0627177
0.0624499
0.0012087
-0.0127396
0.00268387
0.008847
0.0430614
0.0582666
0.0186839
-0.120012
-0.116189
0.0262777
0.12875
-0.0388379
-0.00522376
-0.0440886
0.00383198
0.0454803
0.0534173
-0.0287429
0.025425
-0.0500993
0.0246251
-0.00375048
-0.151149
0.130274
0.00674037
0.0176315
-0.0271987
0.00282677
0.000697143
-0.000239104
-0.000700135
0.000242096
0.0378579
0.0128808
-0.00167156
-0.0490672
-0.00213039
0.0839585
-0.0855855
0.00375747
-0.0179831
0.0499204
-0.116281
0.0843432
0.0419725
0.00539358
-0.0525898
0.042014
-4.15361e-05
-0.00233942
-0.0290442
0.0413632
-0.00997952
0.0709294
0.0168803
-0.0313628
-0.0564469
0.128734
-0.142079
-0.0279996
0.0413453
-0.0150651
-0.0451983
0.057924
-0.0817329
-0.000814705
0.0825476
0.00118255
-0.0980312
0.163866
-0.0670175
-0.00244374
0.0033464
-0.000575167
-0.000327494
0.0886325
-0.147745
0.0309165
0.0281959
0.00154481
-0.00033676
0.000834353
-0.0020424
-0.0862451
0.142938
-0.103845
0.0471527
0.0298064
0.00311682
-0.0400487
0.00712552
0.086889
-0.0160766
-0.080232
0.00941956
0.00574215
0.0311958
-0.052003
0.030767
0.0274743
-0.131343
0.0731016
0.0857901
0.112924
-0.0793814
-0.119333
0.000580578
0.00058298
-0.00270806
0.00154451
-0.0942233
-0.0295462
0.111969
0.011801
0.00119087
-0.00598071
0.0155856
-0.0107957
-0.0139189
-0.0334604
0.0574684
-0.0100891
-0.0053776
0.0167715
-0.0142539
0.00286
0.00034521
-0.000679697
-0.000537899
0.000872386
0.0214184
-0.0256828
-0.00111321
-0.00180802
-0.000714432
0.00148044
0.001042
-0.0573344
0.0601689
-0.00283451
-0.00246103
-0.00621614
-0.00201796
0.0106951
-0.0361913
0.0278522
-0.00557981
0.0183497
-0.0472478
-0.0557945
-0.0512258
0.0415264
0.0982939
-0.0885945
-0.00751392
-0.00170225
0.00501177
0.0042044
0.0469349
0.011376
0.00213071
-0.0604417
0.000355802
-0.00921349
0.0067339
0.00212379
-0.0394507
-0.0533664
0.0117018
0.0811154
0.064701
-0.0388749
0.0266261
-0.0524522
-0.00965815
0.0598611
-0.0590336
0.00883069
-0.0589945
-0.033873
0.00790455
0.0849629
0.0164601
0.00507364
-0.0332655
0.0117318
0.0599435
-0.0601874
0.000243889
0.00185064
0.00182005
-0.00133903
-0.00233166
0.0409419
-0.043455
0.00251315
-0.0542651
-0.0358372
0.104798
-0.0146959
0.000841373
-0.00974963
0.00954855
-0.000640296
0.00298907
0.00594498
0.00260051
-0.0115346
0.00183993
0.00621475
-0.00769888
-0.0251583
-0.0574657
-0.00910837
0.0917324
0.0257789
-0.0074905
0.0173934
-0.0356818
-0.0840755
0.0924396
-0.1013
0.0929361
0.0789923
-0.0521659
-0.0268264
0.00148908
-0.0345439
-0.0100983
0.0431531
0.00820837
-0.00554598
-0.00920637
0.00654398
0.046455
-0.0700797
-0.0617197
0.0853443
0.0740619
-0.0647108
0.0293289
-0.03868
-0.0132552
-0.00824516
0.0315722
-0.0100718
-0.058258
-0.0869958
0.0568057
0.0884481
-0.0416735
0.0542263
-0.0110637
0.0977249
-0.0483545
-0.0493704
-0.00432355
0.0149236
-0.00239171
0.000970962
0.000663611
-0.000706142
-0.000928431
0.047397
-0.015852
-0.00525725
-0.0262878
0.00359007
-0.0018315
-0.000496651
-0.00126192
0.00549448
-0.0101052
0.00867155
-0.00406084
0.0727871
-0.0421922
0.0255782
-0.056173
0.00862726
-0.000345477
-0.00681853
-0.00146325
0.00165883
-0.000592933
-0.0010659
-0.0643789
0.0644112
-3.23071e-05
0.0123266
0.00560814
-0.0967725
0.0788377
-0.0112842
0.0141903
-0.0102668
0.00736071
-0.0724575
0.0164787
0.0829473
-0.0269685
0.0180736
-0.0972244
0.0757051
0.00344571
-0.0526668
0.0429614
-0.00824889
0.0179543
0.00868902
-0.00179021
-0.0029254
-0.0039734
8.06643e-05
-0.000931449
0.000850785
0.0283561
0.170316
-0.244688
0.0460156
0.000314648
-0.000223219
-0.0248977
0.0603345
-0.0525934
0.0171566
-5.27009e-05
0.00517915
-0.00432532
-0.000801132
0.000547596
0.0017466
-0.00261949
-0.0712158
0.00046398
0.0707518
-0.0324317
0.1139
-0.047789
-0.033679
0.00039946
0.000667332
0.00948117
-0.010548
0.000372076
0.0901642
-0.0905363
0.00235725
-0.00164041
-0.0011753
0.000458461
0.00131976
0.000646553
-0.000660416
-0.0013059
-0.0365387
-0.00158806
0.0323625
0.019185
-0.0639153
-0.0722669
-0.0165853
0.00646592
0.0823863
-0.000599106
0.00191887
-0.0995197
-0.0420444
0.112565
0.0289994
0.0274924
0.169511
-0.0846538
-0.0573347
-0.0275223
-0.0178114
0.118807
-0.0434447
-0.0575511
0.0399298
0.0301444
0.0382069
-0.108281
0.104886
-0.248481
0.109076
0.0345184
0.00157976
-0.00138997
-0.00141817
0.00122838
-0.0122061
-0.0356598
0.0558697
-0.00800382
0.0254263
0.0403878
-0.0258938
-0.0399203
-0.0353394
-0.0258557
-0.0197507
0.0809458
-0.0536306
-0.0137199
0.0551444
0.000805684
-0.0120778
0.00860054
0.0026716
0.0553823
-0.0284539
-0.0508495
0.0239211
-0.0889295
0.104879
-0.0500524
0.0341026
0.0161355
-0.0230697
0.00710715
-0.000172952
0.0517919
-0.0600686
0.063659
-0.0568264
-0.00364802
-0.013966
0.0744404
-0.00538855
-0.0127257
0.00221257
0.0159017
8.9949e-05
0.0577572
-0.0573566
-0.000490577
0.136057
-0.0535129
-0.0032803
-0.0792642
0.0595265
-0.00766609
-0.0483885
-0.0034719
0.0522862
-0.0208302
-0.0746668
0.0432108
-0.00968285
-0.00201874
0.0148686
-0.003167
0.00530438
-0.00159196
-0.00478531
0.00107289
0.00229322
-0.0434051
0.040014
0.00109787
-0.000889956
-0.0863227
0.00348987
0.019472
-0.0130193
-0.0633472
0.047015
0.0163322
-0.0595644
-0.0170182
0.0109415
0.0656412
-0.0986505
-0.00131333
0.10306
-0.00309628
0.00372334
0.0233711
-0.0126273
-0.0144671
-0.0710344
0.149894
-0.0660815
-0.0127778
-0.00506233
0.013917
0.0225076
-0.0313622
-0.0512016
0.0981803
0.038469
-0.0854477
0.0282531
0.00209287
-0.0147862
-0.0155597
-0.0360265
0.0373438
0.000975934
-0.00417094
0.00702538
-0.00936801
0.00651358
-0.000367974
-0.00437206
0.0102345
0.0359343
0.0382688
-0.0742031
0.00111374
-0.00186797
5.41598e-05
0.000700075
0.0191636
0.00839735
-0.0185699
-0.00899101
0.0218097
0.0108348
-0.0023495
-0.030295
-0.0514318
-0.00105175
0.00636456
0.046119
4.58144e-05
-0.0434509
-0.000934114
0.000579085
0.00146877
-0.051907
0.0371121
0.0519942
-0.0371993
-0.0445931
0.0299921
0.0185675
-0.00396651
0.00132273
-0.00326585
-0.00978231
0.0117254
-0.00898478
-0.00502004
-0.00349157
0.0174964
-0.0431818
-0.00475995
0.0119152
0.0720488
0.0394783
-0.0717217
-0.0398054
-0.0442608
-0.000446151
0.0447069
0.0862567
-0.0486588
0.0595024
0.00358058
-0.00775564
-0.0376833
0.0418584
0.0357196
0.0113875
-0.00570645
-0.0414006
-0.000480259
0.000294081
0.000999305
-0.000813128
-0.0169101
-0.0447472
0.0616573
-0.00028047
-0.00128576
-0.00445737
0.0312675
-0.0232296
0.00610323
0.0280382
-0.041897
0.0979654
-0.0908945
-0.00205748
-0.00501345
-0.021111
0.100981
-0.0187445
-0.0611251
-0.0321923
0.006806
0.0150234
0.0103629
-0.0393466
0.0359645
0.0143117
-0.0109295
0.0325329
-0.0251264
0.00135607
-0.00876262
0.0184954
0.0720274
-0.120875
0.0303522
0.076207
-0.0751243
-0.0242723
0.0231896
-0.143006
0.00233158
0.00335741
0.137317
0.0303561
0.0123919
-0.0410636
-0.00168447
0.039972
-0.0578735
0.020327
-0.00242544
0.00209828
-0.00124003
0.000233385
-0.00109163
-0.0147558
-0.00134457
0.0733886
-0.0416401
0.0188172
-0.0505657
-0.0117006
0.0476531
0.000535706
-0.0364882
0.00554043
0.0954602
-0.0929467
-0.00805396
0.0496557
-0.0990081
0.058329
-0.00897658
-0.0485956
-0.000397483
0.0372925
0.0152914
-0.00382433
0.00868941
-0.0201564
-0.0234298
0.0478077
-0.0133232
-0.0110547
-0.0485503
-4.5314e-05
-0.0053012
-0.122805
0.175822
-0.0477161
0.0101895
0.00958996
-0.0633151
0.0435356
0.0497987
0.00544787
-0.0450571
-0.0125976
0.00673017
-0.00359611
0.00946358
-0.0557819
-0.000180763
0.0559627
0.110109
0.0442305
-0.136118
-0.0182208
-0.00909767
0.000422829
-0.0039228
0.0185628
-0.115888
-0.0224108
0.119736
0.012622
0.0661986
-0.0692306
0.0029599
-0.0556594
-0.0106156
0.000463445
0.00186411
-0.00260802
0.00197117
-0.00183225
0.000324526
-0.0507402
0.0254975
0.0743192
-0.0490765
-0.00194344
0.000982016
0.000913089
-0.0343883
-0.00768052
0.0450287
0.00022123
-0.000300564
0.000335425
-0.000896843
0.000102441
0.000458976
7.87284e-05
0.00211367
-0.00173436
0.0013843
9.57701e-05
0.000254291
0.000483674
-0.000311357
0.000719002
0.105661
0.120839
-0.0790621
0.000108796
-0.000817464
0.00119234
-0.0529429
0.0530568
-0.000113904
-0.010886
0.0759956
-0.0712617
0.00615219
0.00183011
-0.0193962
0.00512194
0.0124441
-0.0604887
-0.00334019
-0.0171202
0.0039859
0.0476543
-0.0345199
-0.0643126
-0.00211818
0.0664308
-0.00630346
-0.0166198
-0.0127047
0.035628
0.000283714
-0.000360325
-0.000486454
0.000563064
-0.00407152
-0.00729914
0.0089456
0.00242507
0.0549831
0.0439084
-0.0175084
0.0477756
0.0891697
-0.0380849
-0.0988603
-0.0125893
-0.044513
-0.020331
0.0197323
-0.0555628
0.0561614
-0.0105619
0.0292666
-0.00691922
-0.0117855
-0.0151604
-0.0135159
0.0137628
0.0149135
0.0972457
-0.0957584
0.0187953
-0.0202826
0.00107881
-0.00434502
-0.000308382
0.0035746
0.000938092
-0.0657361
0.064798
-0.0728159
0.00355741
0.0668446
0.00241385
0.0392955
0.0381947
-0.0774902
0.0189468
-0.060306
0.0287698
0.00216384
-0.00126567
0.000656035
-0.0015542
0.000160427
-0.00040264
0.00148396
-0.00124174
-6.55851e-05
0.000406197
-0.000964216
0.000623604
0.0633214
0.0561542
-0.0388936
-0.080582
0.00548233
-0.0867509
0.0824463
-0.00117772
-0.0135403
0.000266959
0.0265809
-0.0133075
0.0531837
-0.052584
0.0192058
-0.0198055
-0.000503997
0.00132207
-0.000660632
-0.000157441
0.0203641
0.0478542
-0.0492715
-0.0471567
-0.0017543
0.00088531
0.00156218
-0.000693188
0.000914015
0.0797142
-0.0806283
-0.0499282
-0.015426
-0.0222182
0.0875725
-0.0500893
0.000161008
0.0116514
0.0168801
0.0167307
-0.0452623
0.000507778
-0.00279976
0.000285334
0.00200665
-0.00168815
-0.000683036
0.000616884
-0.106539
-0.00872158
-0.0433181
0.158579
-0.0102695
0.00706407
0.137562
-0.134357
-0.0381583
0.0421376
-0.0649554
0.060976
-0.0787061
0.0784656
0.000240545
0.00148729
-0.0502476
-0.0304116
0.0661333
0.0193789
-0.0056176
-0.0798946
0.0501514
0.094166
-0.156221
0.0119033
0.0416416
0.0159008
0.0331279
-0.0906703
0.104309
-0.108317
0.043304
-0.00345479
0.0129841
-0.011724
0.00219467
-0.00195663
7.28507e-05
-0.00071326
0.00259704
-0.0028049
-0.00553629
0.00160423
0.00673696
0.0607343
-0.00602714
-0.0183625
-0.0363446
-0.0567427
0.0282413
0.0285014
-0.0925124
-0.00791607
0.0123543
0.000440488
-0.000474907
-0.00192221
-0.117391
0.0261196
0.00483067
0.0864408
0.00112063
-0.0537431
-0.00993459
0.0625571
0.0453983
0.0288921
-0.1014
0.0271098
0.0380784
-0.0440494
-0.0187785
0.0247496
0.0479902
-0.0603579
0.0504461
0.0308469
-0.0558785
0.0496823
-0.0246507
0.0344806
-0.0359157
0.000379263
0.00105586
0.016451
-0.141929
0.0908722
0.0346058
0.00129719
-0.0613263
-0.00361442
0.0523448
0.000555298
-0.108311
-0.0337595
-0.00899627
0.00668789
0.0360679
-0.048674
0.0444729
0.0503406
-0.0461395
-0.0425689
0.0824097
-0.0398408
0.0107417
-0.102678
0.0478868
-0.0168459
0.0076068
0.0243857
-0.0151466
-0.0885564
0.0935046
0.0367044
-0.0416525
0.0584343
0.032879
-0.0828907
-0.00842258
-0.0473019
0.142145
0.00429133
-0.0991341
-0.000520052
0.0030427
0.00354873
-0.00607137
0.0539835
-0.0723571
0.0829804
-0.0646068
0.00849534
-0.039856
-0.00835658
0.0397173
-0.0437201
0.0319241
0.102755
-0.0909587
-0.0500175
-0.0264876
0.0530551
0.0234499
-0.00999959
-0.000375759
0.00634379
0.00403156
-0.0100879
0.0217271
-0.0180701
0.00643084
0.000178533
0.0737199
-0.0738984
0.0149308
-0.044247
-0.0193578
0.0484942
-0.0340337
-0.00113951
-0.013321
0.00146142
-0.0254912
-0.0203181
0.0443479
0.0347247
-0.034703
-2.16865e-05
0.0613549
-0.0416884
0.0640927
-0.0837592
-0.0997384
0.0975995
0.0993845
9.24498e-05
-0.0107622
-0.00180409
0.0124739
0.0496554
-0.000142078
1.96428e-05
1.64774e-05
0.000105958
-0.000243616
0.047245
-0.109642
0.0626408
-0.00858057
-0.000561655
0.00497095
0.00417128
0.026878
0.00996896
-0.036847
0.00121153
-0.000998168
-0.00879393
-0.0326646
-0.032665
0.0110645
0.0571896
0.000871327
-0.0580609
0.0728496
-0.0441317
-0.0511902
0.0224722
0.00175157
-0.0248217
-0.0210194
0.0694169
0.0430111
-0.0395783
-0.00796652
0.00927049
0.133986
-0.119586
0.036008
-0.0504077
-0.0450211
0.0365663
0.021896
-0.0134412
-0.0527023
0.0524632
0.000239029
-0.0477978
0.0296673
0.0106733
-0.0468504
-0.0107113
0.0468885
-0.00253112
0.160166
-0.159624
0.00198968
0.107651
0.0159705
-0.0160155
0.0509236
0.00863205
-0.0513388
-0.00821689
-0.0143923
0.00458872
0.0106102
-0.000806606
-0.00952462
-0.00531909
0.00473425
0.0101095
0.0661137
-0.0376229
-0.052831
0.0243401
0.0297674
-0.0156988
0.0238723
-0.0379409
0.0267424
-0.0934612
0.0895056
-0.0227868
-0.0057805
0.000428889
-0.00904074
-0.0941519
0.1073
-0.0235081
0.0103604
-0.0113889
0.0479107
0.0138721
-0.050394
-0.00432632
-0.000239498
0.00321144
0.00135438
0.0833046
-0.0048203
0.0510658
-0.12955
4.85292e-05
-0.000720595
1.29412e-05
0.000659125
-0.0665001
0.0584448
0.0739746
-0.0659193
0.00356142
0.00113471
-0.00229127
-0.00240487
-0.078126
0.0758739
0.00225207
0.0624338
-0.0590863
-0.00334751
0.0603959
-0.000648873
-0.059747
-0.0111932
0.123571
-0.000699535
-0.111678
0.00990668
-0.0311396
0.0328843
-0.0239312
-7.22656e-05
-0.0563153
-0.0676378
0.011968
0.0664665
-0.0107967
-0.0131823
-0.00212287
0.000375584
-0.000652139
-0.000170553
0.000447108
0.00115354
-0.000162128
-0.000234425
-0.000756985
-0.0634613
0.00748238
-0.0012449
0.0572238
0.000447205
-0.00543491
0.00187289
0.00311482
0.012047
-0.0145759
5.35672e-06
0.00252353
0.00814103
-0.00673807
0.0106441
0.0556401
-0.00922761
-0.0226439
-0.0237686
0.0361609
-0.00541368
-0.036397
0.00564979
0.000324107
0.0669057
-0.000359665
-0.0668701
0.00767535
-0.0718833
0.0193464
0.0448615
-0.0427096
-0.0322463
0.0420089
0.032947
-0.0352721
0.0209666
-0.0907626
0.105068
-0.000882562
0.0150944
-0.00779025
-0.00642158
0.0491163
-0.0590979
0.0475181
-0.0375365
-0.0625958
-0.00675351
-0.00816793
0.000733979
-0.000164538
0.00428715
-0.00485659
-0.0119251
-0.00276415
0.00177514
0.0129141
-0.00802099
-0.00919998
0.0107548
0.00646613
-0.00013956
-0.00217525
0.00136023
0.00095458
-0.000439365
0.000538395
-9.90298e-05
0.00147943
-0.0722015
-0.026592
0.0973141
-0.000161747
-0.000111937
-0.00134984
0.00162353
0.000138903
-0.000460208
-0.00011806
0.00210508
-0.0664177
-0.000113366
-9.7117e-05
0.000748878
0.000646862
0.000100015
-0.000413609
-0.000333268
-0.0280426
0.0641414
0.0773783
-0.113477
-0.00906041
-0.00222524
0.00720685
0.00407879
-0.0144657
-0.000252887
0.00565815
-0.00525121
0.00545821
0.0130143
-0.0132213
-0.000639103
0.000845211
-0.000319474
-0.0657115
0.0664769
-0.000765404
0.0302872
0.0469024
-0.0598922
-0.0172973
0.0120374
-0.0755891
-0.0214775
0.0850292
-0.0133865
0.00273511
0.00540021
-0.00452223
-0.00634789
-0.00251641
-0.016513
0.0580951
0.0129259
-0.0545079
0.0691834
0.00466414
-0.0535688
-0.0202787
0.000157764
0.0004292
-0.000787238
0.000200275
-0.000227595
-0.000272605
-0.00262053
-0.00115751
-0.00126911
0.00504715
0.0651561
-0.0459537
0.0120108
-0.0312132
-0.000802289
-0.00265532
0.00141779
0.00203982
-0.0160815
0.0102381
-0.00392437
0.0097678
0.00185005
-0.101451
0.10114
-0.00153922
0.00303207
0.000740791
-0.0104365
0.00666363
0.00992033
-0.0105748
0.00164701
-0.00099254
0.00988412
0.00382741
-0.0106795
0.0369385
0.0561437
-0.0279261
-0.0272839
0.0548078
0.0282
-0.0557239
0.027747
-0.0550309
-0.000329398
0.000183359
-0.0332312
0.0124701
-0.0100423
0.0792151
0.0231376
0.00760488
0.0690705
-0.0542382
0.0980469
-0.112879
0.00477044
0.0924803
-0.0972507
-0.00688395
-0.00693625
0.0133155
0.000504742
-0.0340758
-0.0872092
0.0276152
0.0936697
0.0223261
0.061536
-0.0247347
-0.0591275
-0.0234861
0.113421
-0.0529967
-0.0418603
0.0448969
0.0517712
-0.0558126
0.0556371
0.000175496
-0.0388963
0.0367492
0.00214714
0.0400942
-0.0788409
0.0729827
-0.034236
0.0670932
-0.0836062
-0.00957031
-0.00813679
0.0108231
0.000889774
0.000644716
-0.000601143
-0.000933347
-0.00584798
-0.0425482
-0.00741642
0.00127118
0.00141917
-0.00254126
-0.000149093
-0.0574145
0.0518033
0.085617
-0.0800058
0.0347945
-0.0330781
-0.00171642
0.00913229
0.0188471
-0.0109935
-0.0169859
0.00422428
-0.000490709
0.00220251
-0.00593608
-0.0643436
-0.000516832
0.0201366
0.0447238
-0.00286709
0.00671111
0.000380262
0.0394375
-0.109564
0.104324
-0.0341977
0.0458315
0.0139859
-0.0593944
-0.000422902
-0.00360107
0.00695998
0.00158961
-0.00494852
4.56154e-05
0.0607176
-0.0607632
0.0373581
0.00636556
0.0149546
-0.0586782
0.00424051
-0.00732272
0.0025915
-0.182516
0.02794
0.161968
-0.00739216
0.0391718
-0.0110172
-0.0281545
-0.00115823
-0.00153554
-0.0011853
0.00387907
-0.041686
0.0451277
0.12442
-0.127861
-0.00183829
0.000661849
-0.00201755
0.00319399
0.0914975
-0.00268658
-0.0429794
0.0004833
-0.00120065
0.00205112
-0.00133377
-0.0186334
-0.116136
0.0162551
0.118514
0.00402202
0.0521036
-0.00403812
-0.0520875
0.0487488
-0.0702461
0.0603331
-0.0388357
0.0318402
-0.0364462
0.0486131
-0.0440071
0.00853997
-0.0019482
0.00598055
-0.0125723
0.00116739
-0.0444253
0.0532407
-0.0536235
-0.0360634
0.09723
0.0177816
-0.0246797
-0.0903319
0.0476677
0.0179527
-0.134859
0.069239
-0.00170504
-0.00862935
0.00634291
0.00399148
0.0280417
-0.0503237
-0.00330127
0.0289928
-0.0266989
0.00739573
-0.00581613
0.000107373
-0.00168698
-0.0865819
0.00292866
-0.000900743
0.0721681
-0.149923
0.0786557
-0.0269397
-0.0874264
0.0413378
0.0730283
-0.0723489
0.020996
0.0025387
0.0488142
-0.0435156
0.0292817
0.0104871
-0.082855
0.0960435
-0.0131885
-0.0209245
-0.00951134
0.118119
-0.087683
-0.00352657
-0.00392908
0.00610422
0.00135142
-0.0258091
0.0591916
0.0406794
-0.0721715
0.0280398
-0.000751726
-0.00040273
-0.00099618
0.00215064
0.0467347
-0.0492265
0.0548365
-0.0376485
-0.00701827
-0.0451311
-0.124433
0.0479997
0.0764332
-0.0429268
-0.0325175
0.0276464
0.00308099
-0.00214928
0.000722046
-0.00165376
0.0027027
-0.000318103
0.000696395
-0.0862147
0.00345278
0.0827619
0.0610743
0.0136023
-0.123092
0.0484154
-0.0711792
0.000410065
0.0707692
0.00140054
-0.00187211
0.00837683
-0.00790526
0.0484309
0.155545
-0.225763
0.0217867
0.00179884
-0.00228949
0.00146651
-0.000975857
-0.0916404
0.0649613
0.0265005
0.000178559
-0.0024321
-0.00089467
0.00298516
0.000341608
-0.000732472
0.0083849
-0.00827708
0.000624645
0.00805522
0.00786224
-0.0151848
-0.000732621
0.0410261
0.0124898
0.00301793
-0.0027168
0.00149771
-0.0985605
0.105452
0.00729973
-0.0141909
0.0119129
-0.0666778
-0.023085
0.0778499
0.00209672
-0.00458114
0.0879873
-0.0855029
-0.0419646
-0.0365603
0.0873997
-0.00887472
-0.0407458
0.0247208
0.0404769
-0.0244519
0.0537639
0.0208495
-0.0725051
-0.00210825
-0.00166659
0.000180709
0.00176685
-0.000280965
-0.123882
-0.0429371
0.039817
0.127002
0.0484457
-0.0377724
-0.0315622
-0.0377365
-0.0309311
0.10023
-0.00191921
0.00428896
0.000363646
-0.00273339
-0.0310509
-0.0801807
0.0282959
0.0829357
-0.0296152
-0.0287843
0.020751
-0.00082348
-0.00324501
-0.00168291
0.00331677
-0.0037275
0.00209364
-0.00574412
0.00562842
0.0253723
-0.0772318
-0.0853467
0.137206
-0.000381391
-0.000340161
0.000402698
0.000318854
0.0572474
-0.0603797
0.0476606
-0.0445283
-0.0148052
0.0435357
-0.00748095
-0.0212495
0.0862573
-0.0859932
-0.0185703
0.0183062
0.0264295
0.0224128
-0.0636186
0.0147763
-0.12741
0.0741036
0.0182093
0.0350968
-0.00526958
0.0029975
0.000125314
0.00214676
-0.00793787
0.00966039
-0.000321981
-0.0134567
-0.00370983
0.018207
-0.00104047
-0.0625189
-0.00470571
0.0146482
0.0525764
-0.00914359
0.103225
-0.00504471
-0.089037
0.00919432
-0.0472375
0.0802999
-0.0422567
-0.0016201
0.00417785
-0.00166963
-0.000888118
-0.0149135
0.00026679
-0.00223942
0.0168862
-0.107473
0.00475221
0.0128543
0.0898665
3.44112e-05
-0.000324861
0.000674652
-0.000384202
0.0370211
0.00803879
0.0269889
-0.00469617
0.0457025
0.0529358
-0.0939421
-7.29057e-05
0.000665797
-0.00055848
-0.000575592
0.00213928
-0.00144611
-0.000117581
0.0174002
0.110451
-0.0472652
-0.0805863
-0.000224828
-0.000100033
0.000208721
-0.000433549
0.0618705
0.0171254
-0.0922913
0.0132954
-0.157132
0.0863289
0.0768357
-0.00603243
-0.0182696
0.000356965
-0.0517482
0.0696608
0.0251078
-0.0149233
0.0170545
-0.0272391
-0.0663638
-0.0232828
0.0896466
-0.07785
0.0383344
0.0395156
-0.0021155
-0.000270687
0.000359856
0.00202633
-0.0384979
0.0415184
0.0076209
-0.0106414
0.0468172
-0.0546522
0.00783505
-0.0606997
0.0337641
0.0452204
-0.0182849
0.00450813
-0.00253202
-0.00177712
-0.000198988
-0.00320674
-0.00257014
0.000507313
-0.0421344
-0.0419411
0.046307
0.0141826
0.00237304
-0.0628627
0.0023369
-0.000287658
-0.00193112
-0.000118116
0.00326644
0.00402994
-0.00555786
-0.00173852
0.00716943
0.021977
-0.0401137
0.0109672
-0.019155
-0.0154089
-0.00919656
0.0437604
-0.07567
-0.0106649
0.0305407
0.0557942
-0.00173645
0.0149312
-0.00828057
-0.00491416
-0.0529359
0.000422899
0.033358
0.000120858
0.0251101
-0.135575
0.126195
-0.0157299
0.0287479
-0.0343767
-0.0517056
-0.0271227
0.0548697
0.000165824
0.0400343
0.00315273
-0.0433529
-0.0555175
-0.0599111
0.115429
-0.00311194
-0.00106786
-0.00173166
0.00591146
0.00319197
-0.00472966
0.00171945
-0.000181764
0.0363304
-0.00578016
-0.028187
-0.00236318
-0.00319122
-0.00229537
0.00237465
0.00398712
-0.0115758
0.0662392
-0.0586505
0.0761475
-3.1031e-05
0.0279466
0.0092611
-0.00629522
-0.0309125
0.0586307
-0.000626154
-0.0580046
-0.0528623
0.113601
-0.0284281
0.0597287
0.020107
-0.0514076
-0.0156338
-0.0253984
0.016876
0.0241562
0.00320362
0.00369608
0.00080345
-0.00770314
-0.0339993
-0.0381502
0.0993109
-0.0271614
0.0439736
-0.0357148
-0.000143341
-0.00811538
-0.051076
0.115253
-0.0500102
-0.014167
-0.00146221
0.0017533
-0.000172521
-0.000118567
-0.000913216
0.0217442
-0.00448541
-0.0163456
0.00289908
0.00390012
4.09943e-05
-0.0068402
-0.000255488
-3.69613e-05
-2.76553e-05
0.000320105
3.60727e-05
5.33186e-05
-0.00034488
-0.00878282
0.0225337
0.0703099
-0.0840608
0.0805142
-0.0799588
-0.000555443
0.000310492
-0.000356792
4.63008e-05
-0.0128499
0.00095029
0.00225379
-0.00137316
-0.00183092
-0.0079455
-0.00529249
0.00537652
0.00786148
-0.0557688
0.0273407
0.00023221
0.000287125
-0.000804771
0.000285435
0.0340641
0.0543761
-0.0345058
-0.0539344
0.0124433
0.158385
-0.179528
0.0087004
0.0583312
0.0634233
-0.0620258
0.00196754
-0.0131911
-0.00176422
0.0129878
-0.0333944
-0.030111
0.0635054
0.031129
-0.0645234
-0.0543589
-0.044566
-0.0654129
0.164338
0.0501821
-0.0562268
0.00604478
-0.0727522
0.134546
-0.0710211
0.0329947
-0.0302333
0.0853804
-0.00387552
-0.0686062
-0.0128987
0.0702768
-0.0709183
0.011062
-0.0104205
-7.02035e-05
-0.00612491
0.0073867
-0.00119159
0.00197643
-0.00549344
0.00653674
-0.00301973
-0.000213186
0.000150006
0.000734166
-0.000670986
0.0222888
0.0229354
-0.0338978
-0.0113263
-0.00519803
-0.00520151
0.0061616
0.00423794
-0.0108217
0.0320219
-0.0428201
0.0216199
0.00101828
-0.00856573
0.0109762
-0.00342879
0.0490919
-0.00422716
-0.0448648
0.0380814
0.0355933
-0.126564
0.0528896
-0.0979011
0.0599414
0.0760412
0.0330055
-0.0997776
-0.0468215
0.107994
-0.0372329
-0.0239392
0.00170596
0.00891053
-0.0123097
0.00169316
0.0280616
-0.00306478
-0.0249968
-0.0305232
0.0436431
-0.00360944
0.0200374
-0.0315883
0.00109607
-0.000101418
0.000997259
-0.00199191
0.0117865
-0.0384854
-0.00102531
0.000199774
0.000367144
0.000458395
0.00269047
-0.000300633
0.000992859
-0.0033827
-0.000984206
-0.00219616
-0.0780068
-0.0131546
0.00145761
-0.0118233
0.0235204
0.0204654
-0.0907356
0.0204297
0.0498405
-0.00320175
0.0581126
-0.082114
0.0272032
0.00104285
-0.000711391
0.000834229
-0.00116568
0.0789603
0.0126098
0.00215756
-0.0937276
-0.000800161
-0.000779377
0.00187236
-0.000292821
0.00499036
-0.000726607
-0.0698201
0.0655564
0.00647999
-0.000926264
-0.00482246
-0.00073126
0.00637798
0.00444694
-0.0035399
-0.00728503
-0.110758
0.0967478
-0.0877183
0.101729
-0.0549228
0.109796
-0.0548727
0.00233033
-0.0442334
0.00916976
0.0327333
0.00358717
-0.00358095
0.000801331
-0.000807553
0.0493311
-0.00311641
0.00143844
-0.129655
0.00286256
0.0739302
-0.0334733
1.29127e-05
0.00140768
0.0307518
-0.0250083
-0.00715111
0.0781783
-0.0307651
0.0342037
0.00403307
-0.00498172
0.000189758
0.000758893
0.0336465
0.0233044
-0.0743712
0.0174203
-8.82909e-05
-0.000143196
0.000240569
-9.08231e-06
-0.000408024
0.00151129
0.00527472
0.000173207
-0.00787232
0.00626762
0.00563777
0.0746166
0.0407733
-0.0370664
-0.0783235
-0.131653
0.140826
-0.0083099
-0.000863125
0.031554
-0.0323244
0.000770424
-0.0361277
-5.06788e-05
0.000330085
-0.00307482
-0.00223699
0.0148001
0.206639
-0.158929
-0.0625105
0.02904
-0.0607286
-0.0175784
0.0492669
-0.00309529
0.0392337
-0.000698058
-0.0858412
0.0473055
-0.0227626
0.00993935
-0.0380049
0.0476419
0.0463332
-0.0559703
-0.0667097
0.088934
-0.151688
0.129464
-0.000173058
0.00010544
-0.00145389
0.00152151
0.000228253
0.00222301
-0.000652471
-0.00179879
0.0442155
-0.0154819
0.0392383
-0.0679719
-0.00351095
0.000369855
0.00330543
-0.000164337
-0.011895
0.0108809
-0.0369908
0.0121461
-0.0463372
0.00587905
-0.00315022
0.0182257
-0.0209546
-0.134557
0.0177254
0.127244
-0.0104131
0.0377161
-0.0252239
-0.0175553
0.00506305
0.0343916
-0.0532392
0.00695257
0.00462987
0.00760251
0.051835
-0.0640674
0.0247807
-0.00707509
-0.0248989
0.00719331
-0.0791423
-0.0083665
0.0150513
0.0012252
-0.00103968
4.27355e-05
-0.00131652
0.00216351
0.00166272
-0.00250971
0.0184313
-0.0319511
0.0383004
0.0179098
-0.143533
-0.0225984
0.148222
-0.112251
-0.0151729
0.0257902
0.101633
0.057076
-0.0355844
0.0292927
-0.0507842
0.110583
-0.00629116
0.00399492
-0.108287
-0.0170213
-0.036969
-0.00414537
-0.0159711
0.00781577
0.0123007
-0.00135903
0.000507082
9.93947e-05
0.00075255
0.0152509
-0.0772957
0.0620447
0.108635
-0.0072928
-0.112535
-0.0263524
0.0553326
-0.0460014
0.0398444
-0.122173
0.0146983
0.0676301
-0.00412828
-0.012339
-0.0271322
0.0435995
0.00359356
0.0493079
0.0837609
-0.131252
-0.00181664
0.0491828
-0.0829437
0.0893539
-0.0555929
-0.0965291
0.0955204
-0.00657417
0.00758282
0.00180863
0.0042224
-0.0942147
0.0881837
-0.0016186
0.00358644
0.00598751
-0.00795535
0.000198689
-0.000909507
-0.000277013
0.000987831
0.0883573
0.000718098
-0.0174906
-0.0715848
-0.000710661
0.0007995
-0.000292602
0.000203763
0.000910542
0.0032937