/*--------------------------------*- C++ -*----------------------------------*\
| =========                 |                                                 |
| \\      /  F ield         | OpenFOAM: The Open Source CFD Toolbox           |
|  \\    /   O peration     | Version:  2506                                  |
|   \\  /    A nd           | Website:  www.openfoam.com                      |
|    \\/     M anipulation  |                                                 |
\*---------------------------------------------------------------------------*/
FoamFile
{
    version     2.0;
    format      ascii;
    arch        "LSB;label=32;scalar=64";
    class       volVectorField;
    location    "0.0411073";
    object      U;
}
// * * * * * * * * * * * * * * * * * * * * * * * * * * * * * * * * * * * * * //

dimensions      [0 1 -1 0 0 0 0];

internalField   nonuniform List<vector> 
47425
(
(10.1379 0.106973 -0.0366172)
(10.023 -0.0927739 0.0227853)
(10.0624 -0.0435884 0.000723371)
(11.2647 -0.500571 -0.185738)
(12.1898 0.680138 0.662629)
(10.1312 -0.0164803 0.0110697)
(12.1013 0.497587 0.621902)
(10.1092 -0.0155043 -0.00216564)
(10.0075 0.00885969 0.00333036)
(3.71116 6.12141 -0.637481)
(10.0763 -0.0100114 -0.00834041)
(9.91203 0.114999 0.0239347)
(11.9314 0.472873 0.181292)
(10.0622 -0.0301309 0.0064762)
(10.7645 0.431705 -0.121359)
(9.9909 -0.170039 -0.0271441)
(10.0764 -0.0379328 0.0122384)
(8.68091 -0.449022 -1.35949)
(8.54272 1.15353 -4.75951)
(13.105 -0.498874 -0.950073)
(10.751 -0.670784 -0.499607)
(9.79218 -0.0718727 0.0180705)
(9.98137 0.063997 0.00685354)
(10.0566 -0.000324277 0.0336031)
(9.91951 -0.127315 0.0155409)
(9.97814 0.0630874 -0.0128963)
(9.98945 0.0342403 0.0212348)
(11.2829 -0.304471 -8.39771)
(10.0112 0.0261469 0.0242056)
(10.0482 0.00220655 -0.0424885)
(9.71197 0.758762 0.118)
(9.9715 0.0741877 0.00271407)
(10.0037 -0.000520028 0.00312401)
(9.99837 -0.00737413 -0.0182129)
(9.95136 -0.00949364 -0.0311005)
(9.93389 0.00784676 -0.0202087)
(9.71995 -0.0810518 -0.0219888)
(10.0003 0.0170076 0.0077335)
(10.5471 0.319251 0.00922034)
(10.0013 -0.00884199 -0.0145394)
(9.88671 0.0812685 0.0297634)
(9.23456 0.292627 -0.810987)
(7.19748 -1.36313 -1.01208)
(9.98487 0.0134102 0.00523746)
(-0.0752641 0.0655243 1.72213)
(10.0568 0.0439882 0.0222548)
(9.97268 -0.0296234 -0.0496097)
(9.99718 0.041223 0.00051045)
(10.0326 -0.00246139 -0.0127976)
(10.041 -0.00085937 -0.0326028)
(2.05512 -0.613749 -5.54772)
(9.09498 0.997026 1.47415)
(10.0317 0.00624066 0.013774)
(6.80862 -5.99159 2.96287)
(10.0236 0.0261188 -0.0259499)
(10.1531 0.0384512 0.00400696)
(10.1312 -0.0808892 0.0254858)
(10.0934 -0.0202972 0.0241917)
(12.5356 1.06951 1.45607)
(10.0048 -0.00943787 0.0282347)
(4.86218 -5.88447 2.39637)
(4.89147 -0.0349492 2.5882)
(6.09945 -6.17854 1.40232)
(9.16821 -1.10834 0.0309597)
(10.0071 0.00989097 -0.00693518)
(10.7137 -0.246648 0.0586654)
(10.0066 -0.0240638 -0.00787081)
(10.6442 0.0475992 0.431367)
(8.59234 -6.321 3.07785)
(9.07683 0.54522 0.385279)
(10.8487 -0.440961 0.176099)
(10.0008 0.0154505 0.0563892)
(10.7631 -0.0189797 0.00126518)
(10.6875 0.249745 -0.590978)
(6.08833 3.9204 1.3546)
(9.99873 -0.00437435 0.00247538)
(6.64594 -5.87649 2.27595)
(9.99846 -0.00110453 0.0130519)
(8.43693 -5.42726 2.65627)
(11.6311 0.381308 1.69414)
(6.41787 3.11308 1.42732)
(10.1946 0.273284 0.0621723)
(9.22346 0.0830039 -0.192319)
(10.009 0.038287 -0.00575956)
(9.90353 -0.00116697 0.0109578)
(10.1416 -0.049936 0.0253408)
(10.5726 -0.207404 -0.00824333)
(10.1252 0.043059 -0.0100542)
(10.6851 0.898453 -1.73025)
(10.7488 -0.0851405 2.48565)
(9.80336 0.383633 0.0382621)
(10.614 -0.0290873 0.0167028)
(10.0534 0.047119 -0.00715134)
(10.0276 -0.0265167 -0.00101336)
(9.98041 -0.0241791 0.000893209)
(9.99361 -0.00393335 0.00755602)
(10.0361 -0.0119413 -0.0467498)
(10.1741 -0.22537 -0.0279344)
(10.1218 -0.0276373 0.017734)
(9.96604 0.00771575 -0.00572857)
(10.085 0.0202533 -0.0377802)
(8.6673 0.0944761 -3.84797)
(10.2373 0.177997 0.0670518)
(5.35081 1.9192 -0.514274)
(10.2572 0.0632083 -0.0082777)
(10.3427 -0.712488 0.15323)
(10.0617 0.108151 0.0328627)
(10.0446 -0.0423122 0.0223157)
(9.65011 -0.034368 0.0456406)
(9.89221 0.11865 0.0614566)
(-3.65072 -1.80596 -0.0070918)
(10.0991 -0.0986157 0.0399798)
(10.2824 -0.907978 0.26883)
(10.1573 -0.0105624 0.0109244)
(10.692 -0.454821 0.161938)
(1.75003 -4.29279 -5.51577)
(10.6899 -0.427215 0.123013)
(4.09232 0.035712 -4.07683)
(10.3101 0.193441 -0.0166499)
(10.8816 0.278822 0.470129)
(10.2276 -0.0287796 0.00552373)
(10.0009 0.00150348 0.00574166)
(10.0049 0.0536754 0.0164205)
(11.5929 0.841369 -0.646321)
(10.0774 -0.00606702 0.0134297)
(10.5523 -0.859058 0.279393)
(10.0676 -0.0754791 -0.0115141)
(10.0065 0.00372279 -0.00716958)
(9.98464 0.00239443 0.0334661)
(10.0026 0.00574634 -0.0171265)
(9.28893 -0.266743 0.375334)
(10.1406 0.40325 -0.034736)
(4.32201 0.0252036 0.815267)
(10.3844 -0.373365 0.0538963)
(9.57323 -0.304762 -0.748616)
(11.7853 -0.518532 -0.789506)
(10.969 0.656084 0.244298)
(10.5869 -0.845255 0.41732)
(10.1486 -0.0670964 0.0249952)
(10.9314 0.157561 -0.0423231)
(9.99983 -0.0181264 -0.00258261)
(12.4345 0.0176413 0.0843277)
(10.4907 0.0374077 -0.0640053)
(10.3635 -1.19587 0.416449)
(10.15 0.21964 0.0142388)
(10.0062 0.00552144 0.0049902)
(11.778 0.0927941 0.878372)
(10.0598 -0.0105788 -0.0375724)
(10.4679 0.00489004 -0.0278328)
(9.97916 -0.00861779 0.00173244)
(10.2743 -1.24348 0.272971)
(2.97479 -0.386208 -6.55741)
(10.0138 0.0189664 -0.00131741)
(5.67455 0.0946798 -11.1224)
(8.98936 -1.1339 -0.623237)
(9.99097 0.00409653 -0.00878903)
(10.7682 0.403114 -1.57055)
(7.53704 -3.71081 -2.51482)
(9.96331 0.011184 0.0114834)
(9.97614 -0.0217105 -0.0160594)
(10.9542 -0.385276 0.169322)
(9.96322 0.0698434 -0.0387792)
(10.0254 -0.0102606 0.0590416)
(10.1497 0.270563 0.0264595)
(11.9895 0.108491 -0.342059)
(0.854189 -1.80332 -1.99625)
(9.96575 -0.0277503 -0.0150924)
(6.50866 3.65502 1.29624)
(9.9349 0.00338124 0.0313721)
(12.0407 0.610803 -3.99817)
(7.52156 2.96049 0.912716)
(10.0135 0.00340596 -0.0258739)
(10.0129 0.0279474 -0.000324785)
(9.44651 -0.95138 -0.562789)
(10.1256 -0.0155148 0.0115538)
(9.25924 -3.02193 -1.13826)
(2.74218 0.910846 -7.2563)
(10.0024 0.0333818 0.0232972)
(10.024 0.0129616 0.0387984)
(10.0557 -0.0218641 0.0277882)
(2.55636 0.376079 -10.559)
(10.0125 -0.0699564 0.00237516)
(10.0169 0.0212326 0.0250087)
(9.97268 0.0168998 0.0173057)
(10.0208 -0.0577859 -0.00537603)
(10.0438 -0.0184234 -0.0114946)
(10.194 0.0594423 -0.0304648)
(5.64993 -0.424859 -0.372518)
(9.92013 -0.0110168 -0.0529682)
(10.0672 0.0869555 0.0306989)
(10.0013 -0.00607714 0.00289685)
(10.005 -0.0138122 0.0310772)
(12.0168 0.0664056 -1.0896)
(9.99785 0.0027632 0.00435826)
(9.96718 0.00576233 0.0265933)
(10.9404 -0.163456 0.0553325)
(10.0032 0.000818678 0.00684678)
(9.97612 -0.0106219 -0.0278212)
(11.1199 -0.146023 0.0985835)
(10.1541 -0.2035 0.0480056)
(10.0074 -0.0463214 0.027564)
(10.3163 -0.0519086 0.00714824)
(9.84679 0.0651493 0.107982)
(10.8709 -0.281255 0.0600617)
(10.1581 -1.48611 -0.789604)
(10.5054 -0.010741 0.0359993)
(10.0212 0.0109932 0.0214589)
(10.8695 -0.198727 0.0485481)
(10.037 0.134983 -0.0184692)
(9.99947 0.0163026 -0.00493158)
(10.1469 -0.116684 0.00199692)
(10.9446 0.112734 0.0193556)
(10.0082 0.0557904 -0.00461502)
(10.0636 -0.0695514 0.034175)
(10.5208 -0.0436789 0.0188926)
(11.1325 -0.215728 -0.145467)
(10.6791 0.0154036 -0.0256354)
(10.3547 0.514909 1.35628)
(8.74675 -1.24066 -0.531081)
(10.0047 -0.00203528 0.0109455)
(11.5667 -0.114256 2.0201)
(10.9279 0.0680341 0.131045)
(9.71202 -1.44199 -0.706568)
(10.6657 0.0357745 0.0386441)
(10.4987 -0.0013161 0.0325368)
(11.6245 -0.390789 1.96944)
(10.0528 0.00215624 0.00345728)
(11.0482 -0.184764 -0.081063)
(11.1761 0.425549 0.293686)
(11.7412 0.555392 -0.227178)
(10.6821 0.00259893 -0.0496946)
(9.97059 -0.0256496 -0.0103847)
(10.2864 -0.103746 -0.00744162)
(10.002 -0.00213018 0.00101054)
(9.92196 0.0163885 0.00421037)
(9.92556 0.173978 -0.0251273)
(11.4565 0.512304 1.7808)
(9.94291 0.0155137 -0.00995871)
(11.7736 0.495841 1.58332)
(9.86339 -0.00399532 0.0283355)
(9.91653 0.00191042 0.0364752)
(10.0142 0.00392829 -0.0186135)
(10.0175 -0.0209467 0.0186954)
(11.7574 0.389677 -0.0252788)
(10.4438 0.344572 0.0688649)
(10.0045 -0.00679868 0.0136339)
(10.2071 -0.0275987 0.0146027)
(10.0009 -0.00992961 0.0135034)
(10.0073 0.000517998 -0.0199847)
(9.92167 0.00807573 -0.0131472)
(10.0044 0.0351422 0.0130064)
(11.6041 0.0336665 1.76926)
(9.95485 0.00269945 -0.0310598)
(10.0026 0.0030613 0.00665911)
(9.96202 -0.0413893 0.00586667)
(9.93873 -0.0160526 0.0364989)
(9.86339 0.112184 0.0331602)
(9.84423 -0.0232112 -0.0153141)
(10.5013 -0.562245 0.155449)
(10.0121 0.00237419 -0.00554284)
(9.80434 -0.00548456 -0.0159011)
(9.99215 0.00155585 -0.00626187)
(10.1821 0.0820777 -0.0218184)
(10.1843 0.0303234 0.0140099)
(11.5217 0.286501 0.684005)
(9.94323 -0.38572 -0.0548709)
(9.96586 0.0255547 -0.0254187)
(11.5982 0.288423 0.529802)
(9.97178 -0.0097895 -0.0134076)
(10.2087 0.086124 -0.0334137)
(10.1689 0.0762628 -0.00264482)
(11.8246 0.612754 1.2566)
(11.2867 0.63985 1.47804)
(10.2095 -0.110876 0.00653098)
(11.6744 0.324641 1.60769)
(10.1024 0.0170667 0.0396978)
(11.7428 0.473109 1.43661)
(6.82809 3.25742 2.48268)
(11.2486 0.534437 1.5627)
(5.84712 1.21614 -4.92191)
(3.8626 -5.66357 2.23081)
(10.1602 0.101145 -0.0418916)
(3.65636 -6.11113 1.53459)
(9.91607 0.00388999 -0.0322346)
(10.001 -0.0174767 -0.0325184)
(11.1239 -0.143117 0.098611)
(9.93666 -0.0118173 -0.0127698)
(10.003 -0.0536725 0.0048934)
(9.94295 -0.111308 0.0120578)
(10.6657 -0.636216 0.0541615)
(1.41004 1.75349 -3.26335)
(9.19281 0.812456 0.150626)
(10.0029 -0.00148531 -0.00216585)
(9.94751 0.0324855 0.0241973)
(10.0399 -0.0663035 -0.00346461)
(10.6046 0.254954 0.454592)
(11.8356 0.489679 0.137876)
(10.2258 -0.587216 0.193887)
(10.0859 -0.130158 -0.0151421)
(11.6702 -0.0272207 0.390752)
(9.96636 0.12916 0.0146411)
(10.0987 0.0153785 0.0774233)
(9.99751 -0.0429768 -0.0102096)
(10.0419 -0.0767566 0.000984117)
(11.6954 3.87816 -0.0472692)
(6.8218 1.78839 0.494023)
(1.46388 1.21268 -6.01834)
(9.92724 -0.00261069 -0.01589)
(10.0651 -0.080822 -0.00617156)
(10.0501 -0.591524 0.0514961)
(10.1382 -0.503433 -0.136716)
(1.17332 -0.693092 -5.55431)
(10.0022 -0.0291885 -0.0446787)
(9.98949 -0.0281299 -0.0410297)
(10.7973 2.61275 1.54246)
(10.0765 -0.0950665 0.00812952)
(9.90372 0.0407268 -0.0154272)
(9.828 0.0411888 -0.005564)
(9.94258 0.002566 0.00806828)
(13.3373 1.69731 -0.433582)
(11.0688 2.3175 1.4377)
(10.002 0.1558 0.0525051)
(10.1499 0.115908 -0.0610956)
(10.0081 -0.00803041 -0.0770589)
(10.1631 -0.0332994 0.000437036)
(10.0402 0.0270739 -0.0208455)
(9.99067 0.192513 -0.015599)
(10.0512 0.0786756 0.00370495)
(10.0428 -0.0160352 -0.0134321)
(10.017 -0.0232534 -0.0308616)
(11.1892 0.0687879 0.284503)
(11.339 -1.03666 0.72903)
(10.4003 -0.726461 -1.20428)
(9.98603 0.0222911 0.0115264)
(9.96449 -0.00179017 0.00789412)
(9.96769 0.024399 0.0505255)
(11.2429 -0.434465 0.758914)
(9.91311 0.145247 -0.0411254)
(10.0687 -0.0211683 -0.00217707)
(9.99551 -0.0344906 -0.00897811)
(10.0535 0.247254 0.0473488)
(10.0566 0.267134 0.0438595)
(10.0786 0.0263875 0.0109988)
(9.88295 0.244246 -0.0269805)
(10.0245 0.000282673 0.00671362)
(9.9438 0.00884226 -0.0383769)
(10.0894 -0.0319838 0.0242402)
(9.65184 0.384054 -0.11918)
(9.9912 0.0271043 -0.0260804)
(10.0017 -0.0207855 -0.0129542)
(10.0343 0.234681 0.0366781)
(10.3951 -0.41042 -0.0240601)
(10.0842 0.222725 0.0306576)
(9.92745 0.23396 0.011254)
(10.0319 0.194515 0.0484497)
(11.2392 -1.16241 -0.0177493)
(9.97118 0.00107075 -0.0264231)
(9.3037 0.20886 0.17105)
(9.95068 0.195435 0.0256879)
(10.0089 0.0302874 -0.00317762)
(9.8862 0.227748 2.09316)
(11.1678 -0.532989 -0.503179)
(10.0523 -0.0156888 -0.00310671)
(9.98042 0.00811552 -0.0280706)
(10.3717 -0.34539 0.0797488)
(10.3622 0.436953 -0.0258592)
(9.85749 -0.00164665 0.00197355)
(10.016 -0.00304935 0.00740992)
(10.0697 -0.121115 -0.00524862)
(10.1692 0.68458 -0.109482)
(9.88883 -0.00439825 -0.00910291)
(-0.529994 0.839246 0.405684)
(10.5172 -0.0577607 0.0447309)
(10.0655 0.899862 -0.078004)
(9.97958 -0.00328643 0.00738186)
(10.0568 0.791967 -0.0617382)
(10.02 -0.289502 -0.88635)
(9.98268 -0.0299227 0.0148646)
(10.0038 0.00543063 0.00386439)
(9.763 -0.0715192 -0.010785)
(10.0124 0.000767769 0.00488738)
(10.0318 0.807678 -0.111847)
(10.1233 -0.0504447 -0.0206595)
(10.0119 0.0226572 -0.00511416)
(9.9777 -0.0502423 0.0091934)
(10.0033 0.0191412 0.00319591)
(9.99899 0.0191056 0.0103507)
(10.1498 0.188704 0.0568625)
(10.0098 -0.00865769 0.00156159)
(9.99937 -0.00537253 0.0145024)
(10.4486 0.871359 -0.275644)
(10.2914 1.07789 -0.317917)
(10.0055 0.0219682 0.024103)
(10.5236 -0.395586 0.0808725)
(9.95796 -0.0412299 0.00462242)
(10.3737 0.81279 -0.24849)
(9.98029 -0.0393872 0.0438274)
(9.92532 0.0226817 0.0106013)
(12.0526 -0.133856 -0.640717)
(9.98896 0.010131 0.00630983)
(10.3968 -0.875593 1.65159)
(10.0011 -0.0213928 -0.0155933)
(11.0898 -0.0178516 -3.30728)
(10.0031 -0.0148641 0.00662476)
(10.532 0.138085 -0.0033033)
(9.95198 -0.00021076 -0.0301734)
(10.0177 -0.0176093 -0.030888)
(9.83114 -0.0012326 0.00971082)
(10.0701 0.00296932 0.0160869)
(9.9982 0.00625062 -0.059161)
(10.279 0.954471 -0.248447)
(1.90734 -2.03921 2.14512)
(2.11362 -0.582031 -2.36195)
(10.0436 0.0310065 0.0185334)
(10.3164 1.49916 -0.777479)
(10.6245 0.705663 -0.286659)
(10.712 0.661281 -0.282166)
(9.98244 -0.00658957 0.00606459)
(9.99119 -0.0165683 -0.00971976)
(9.992 -0.00617853 0.00568118)
(9.96185 0.00667468 -0.00244972)
(9.96088 -0.0605988 0.0202896)
(10.1502 -0.181511 -0.0218887)
(10.7171 0.593879 -0.189993)
(9.98649 0.000433974 0.0288169)
(10.0473 0.0017284 0.0111286)
(11.1134 -1.31331 0.52803)
(11.3528 0.544976 -0.188847)
(11.0006 0.53447 -0.0845965)
(8.05493 -1.31616 -4.7988)
(-0.035103 5.59339 0.768178)
(10.3938 -0.263821 0.0521885)
(7.40668 -0.987101 -5.30496)
(-0.0366994 5.33035 1.11415)
(9.94683 -0.149615 0.0100222)
(-0.15437 5.58109 0.952919)
(8.81029 -1.8528 1.50439)
(10.031 0.0477518 -0.000716723)
(10.9372 0.639828 -0.297832)
(10.888 0.685676 -0.322599)
(11.1496 0.61735 -0.305866)
(-1.28327 4.88011 1.32488)
(10.0799 0.127344 -0.00415947)
(9.9871 0.0367459 -0.0222937)
(10.0169 -0.0522725 -0.00990497)
(11.2101 0.659787 -0.413648)
(11.0942 0.69027 -0.466235)
(10.0333 0.00132729 0.0153111)
(10.0759 0.0732394 -0.00305812)
(9.87926 3.74219 3.22559)
(-1.20373 4.7428 1.28457)
(12.6517 -0.366459 -2.89254)
(10.0092 -0.00793274 0.00644045)
(8.67962 -0.699254 -3.08835)
(10.0572 0.0169338 0.981312)
(9.97277 -0.00386788 -0.00905931)
(10.8357 0.34953 -0.030127)
(11.7627 0.402198 0.218276)
(10.8203 0.251611 -0.0203706)
(10.0015 -0.00445426 0.00355787)
(9.99916 -0.00378584 0.00693706)
(9.98305 -0.00561668 0.000861857)
(10.4603 0.310098 0.0108712)
(9.99885 0.00247811 -6.62527e-05)
(9.98632 0.00235754 0.0248514)
(10.1196 0.0953515 -0.0387666)
(9.9458 -0.0088468 0.0148984)
(10.9673 0.0954654 0.00799086)
(10.0358 -0.0192339 -0.014567)
(10.0214 -0.00313304 0.0192404)
(10.0068 -0.00616675 -0.00108606)
(10.0068 -0.00565871 0.00777797)
(9.93569 -0.0431115 0.0228998)
(10.3896 0.272354 0.00381489)
(10.1868 0.0321869 -0.0302811)
(10.0126 -0.00103215 0.0478666)
(10.8951 0.106886 -0.00846943)
(9.30866 4.5007 2.70218)
(9.95216 -0.0219809 0.0272481)
(11.8473 1.64358 -1.26541)
(10.0005 -0.0127877 -0.00384038)
(10.692 -0.244193 -0.0365346)
(6.86763 -0.663405 1.23101)
(9.76219 1.41053 -0.514925)
(9.97439 0.0481148 -0.0359883)
(9.83612 1.49172 -0.5734)
(10.0103 0.020438 -0.0388721)
(10.0802 0.0339352 0.0656244)
(10.0441 1.29389 -0.802916)
(9.97799 -0.0118355 0.00637986)
(10.5403 -0.18939 0.0494004)
(9.92608 1.17314 -0.548135)
(10.2153 -0.0583418 0.0484798)
(10.4622 -0.00284263 -0.251634)
(8.1312 0.290043 -3.93539)
(10.0252 0.00652482 -0.0271936)
(9.66136 1.86331 -0.50213)
(10.0378 0.0181692 0.043723)
(9.06484 2.01345 -0.898653)
(10.0473 -0.076663 0.0197474)
(9.99503 -0.049619 -0.0212254)
(9.98371 0.0246394 -0.0045177)
(9.97401 0.0149017 -0.0150694)
(10.9503 0.802282 0.83479)
(9.97334 0.00658566 -0.032113)
(9.97428 0.0199812 -0.00553219)
(10.0533 -0.0134368 0.00848502)
(10.0042 0.0207716 -0.017735)
(11.087 0.449892 0.0210787)
(10.1251 -0.00569663 0.006168)
(10.085 -0.00424962 -0.00345223)
(8.65191 0.246642 -0.518143)
(9.96465 -0.0202616 0.0625206)
(9.88528 0.0498758 -0.00889178)
(10.0388 -0.109156 0.0316141)
(10.0259 -0.067699 -0.0435946)
(10.1293 -0.0147783 0.0258484)
(9.99817 -0.00338986 0.00432439)
(10.1336 0.0333628 -0.0253938)
(10.302 1.34563 -0.943716)
(10.0087 0.0105247 0.00558486)
(9.98873 0.00495435 0.00171276)
(2.90451 -0.427584 -5.55519)
(10.0437 -0.0100248 0.0204028)
(10.024 0.0372699 0.00734785)
(10.0609 0.121441 -0.0152133)
(10.0047 0.0115107 0.00448819)
(12.5979 1.22175 -0.235514)
(12.6985 0.86342 0.0636837)
(9.95157 -0.0471084 -0.0290138)
(9.95614 -0.0603642 0.0290902)
(9.91782 0.0078256 0.0189196)
(11.2461 -0.265292 1.1147)
(10.0105 0.0565866 -0.0196996)
(12.6343 1.39918 -0.24995)
(9.99763 0.00343219 -0.00256443)
(-0.408871 -1.86761 3.1641)
(8.13967 -0.447298 -0.572448)
(9.31951 -0.810704 2.02525)
(10.0543 -0.00809998 0.00463159)
(12.5809 1.2946 -0.172568)
(10.0677 0.0161864 -0.0355645)
(10.0801 0.0980404 -0.00575603)
(10.0365 0.0153753 -0.0500794)
(9.8735 0.0289674 0.0908843)
(10.0297 -0.012882 -0.0194692)
(10.0764 0.0188493 -0.0177671)
(7.69034 -0.824024 0.26724)
(10.0026 0.0117743 0.00168485)
(9.95909 0.023651 0.00772109)
(9.97698 -0.0360766 0.0105744)
(12.5209 1.22104 -0.184013)
(10.0488 -0.0078798 0.0392833)
(10.0332 0.018876 0.0122586)
(12.3387 1.26077 -0.269693)
(12.2357 0.578073 0.0914238)
(10.0288 0.00154037 0.0191503)
(10.0196 -0.0073147 -0.00232458)
(-0.378575 1.90767 1.07861)
(10.0245 0.0284091 -0.0250021)
(10.4828 -0.327976 0.149725)
(9.9501 0.0220705 0.0383702)
(10.063 0.0340116 0.0315677)
(10.0495 -0.00881157 0.0145206)
(11.9143 0.712874 -0.115859)
(11.0968 -0.164355 1.297)
(9.33756 0.638096 0.892612)
(9.94295 0.0369496 0.0774312)
(10.0062 -0.00564813 0.0269874)
(9.99306 0.0276279 -0.0132986)
(12.5979 -0.380266 0.78459)
(9.28801 0.119739 -0.370084)
(9.88514 0.0282233 -0.0694015)
(-0.239944 1.87822 0.769098)
(9.9645 -0.0200686 -0.00379864)
(10.0056 0.00775283 0.0300353)
(-1.20506 1.72482 1.15546)
(11.9254 2.01998 -1.10438)
(9.83105 0.127137 0.0294525)
(0.0427593 1.96162 0.609177)
(-0.0282748 1.99631 1.01482)
(10.0186 0.0197534 0.00890324)
(9.99484 -0.0100136 0.00266216)
(10.0532 -0.0213599 -0.0277392)
(9.70417 -0.392714 0.075081)
(9.98699 0.0170918 0.00806833)
(9.94447 0.0190756 0.00556144)
(11.7348 1.62471 0.517083)
(10.0762 0.244664 0.0937077)
(9.96935 0.0716612 -0.00944093)
(10.0756 0.00652514 0.00459238)
(12.5877 0.59638 0.0906162)
(11.8371 1.03698 -0.123098)
(9.97792 -0.0142743 -0.00645319)
(10.308 0.35259 -0.072468)
(-4.69692 -2.50277 -0.606916)
(1.79782 -1.6856 -1.44679)
(10.632 0.322392 -0.200161)
(9.95679 0.00148513 0.00556318)
(10.3311 -0.188528 0.182432)
(10.819 -0.142401 -0.691421)
(9.90512 0.0139728 -0.0426532)
(9.90342 0.0202536 -0.043225)
(10.0272 0.00471265 0.00187716)
(10.2843 0.185057 -0.0186236)
(9.98015 -0.0102069 0.00687181)
(10.6949 0.157273 0.238772)
(10.0236 -0.00756979 0.0297019)
(12.7422 0.988928 -0.621734)
(10.2915 1.53389 -1.01892)
(10.5874 0.298583 -0.127397)
(12.7841 1.16876 -0.928123)
(10.1302 0.0676052 -0.0531424)
(10.0028 -0.0201389 -0.0593068)
(10.5825 0.612598 0.150828)
(10.1898 -0.0580441 0.0332941)
(10.0029 -0.00621962 -0.0191279)
(10.0124 0.0051901 -0.0015242)
(10.7568 0.799788 -0.442572)
(7.95905 -0.707294 -1.2836)
(10.023 0.00176096 0.0193501)
(10.7014 0.236183 0.0789557)
(9.98948 0.0824024 0.0336037)
(12.4152 -5.4856 -1.68216)
(10.6318 -0.735537 0.970463)
(11.43 -0.245294 0.732735)
(6.1798 1.28822 0.361462)
(6.04983 1.27324 0.218284)
(10.0493 -0.0388529 0.00850229)
(9.88894 0.0919831 0.0130446)
(5.13684 1.11283 -0.164382)
(10.0532 -0.00484558 -0.00967972)
(9.8461 -1.73312 -3.24144)
(7.09573 0.469809 1.643)
(9.98577 -2.07115e-06 -0.00338367)
(9.87941 1.47165 0.798601)
(10.0328 -0.0789516 0.00383003)
(10.0093 0.0203653 0.0156524)
(10.0271 -0.00701129 0.00924162)
(12.8968 0.396674 -0.0934687)
(9.97668 0.00943933 -0.0058796)
(9.985 0.00337525 -0.00161754)
(10.0164 -0.017743 0.00526736)
(9.92625 -0.00947735 -0.0636539)
(10.018 0.0150594 0.0037664)
(10.0567 -0.0214559 -0.00133526)
(10.0154 -0.0253481 0.0557477)
(10.0172 0.0298688 -0.019495)
(11.2016 0.812597 0.588354)
(10.2234 0.980528 -3.34265)
(13.4204 3.06007 1.20534)
(10.7579 0.36229 0.0253288)
(9.84278 1.24641 1.41055)
(9.9975 0.0185477 -0.0139715)
(9.44614 -0.902903 0.148831)
(10.0868 0.0224701 0.0150142)
(10.0001 -0.00762777 -0.00545975)
(10.0036 -0.00199368 -0.00665213)
(10.0001 -0.000281991 -0.00710533)
(9.98831 0.0101724 0.0102384)
(9.08702 0.289555 -0.847171)
(11.4594 0.462069 0.239813)
(9.98358 0.00889892 -0.0035208)
(10.2323 -0.471682 0.157117)
(11.6683 1.2646 1.88032)
(10.0206 -0.000725913 -0.00859119)
(4.87001 -0.71295 2.48941)
(12.847 -1.00553 -2.67035)
(9.92836 0.0385509 -0.000325338)
(9.46395 -0.548411 0.0769889)
(10.4582 0.0333336 -0.0265367)
(10.0384 -0.0126671 -0.0341429)
(5.32624 0.800895 1.99729)
(9.97871 -0.00348371 0.0118133)
(8.67631 -4.2352 1.04177)
(10.0943 0.00162976 0.0101073)
(11.4086 -0.364069 0.951328)
(11.8218 0.517349 -0.0403793)
(9.99858 -0.0258187 -0.0226137)
(9.97663 0.0599488 0.00259566)
(10.285 0.484459 0.0514456)
(8.5246 -0.536586 -2.144)
(9.96111 -0.0453547 0.0209596)
(10.0189 -0.000206801 0.0407463)
(10.1476 0.001961 0.0137586)
(11.7558 -0.0612467 0.637762)
(10.001 0.00335537 0.00173129)
(12.0297 0.5468 0.259543)
(10.2727 -0.0172952 0.00323585)
(1.6432 -0.245549 0.752328)
(11.7676 0.45231 0.0558645)
(10.2096 -0.00846471 0.00719748)
(11.8633 0.499485 0.173954)
(10.0022 -0.00407911 -0.00182557)
(10.1057 -0.0388137 -0.031813)
(10.5231 0.327626 0.0138418)
(10.2542 -0.0272733 0.00767292)
(12.0503 0.604852 0.0921677)
(9.99661 -0.0184305 0.0111729)
(10.007 -0.215936 0.0506755)
(11.9069 0.533088 0.0117953)
(10.0085 0.00718653 0.000144391)
(10.2836 -0.0378214 0.00252372)
(10.004 0.000222394 0.00172842)
(10.0281 0.013987 0.00276441)
(6.83413 0.374225 -4.92514)
(6.65068 -0.122126 -5.48226)
(9.90495 0.0537547 0.419139)
(8.73804 0.343126 -4.00328)
(10.0142 0.00685604 0.00779451)
(9.97982 -0.00608605 0.000819707)
(10.6922 0.617452 -0.222885)
(10.28 -0.123832 0.0381628)
(9.38325 0.106542 0.56463)
(10.0243 0.0083449 0.00427633)
(10.0361 0.0299512 -0.0245065)
(9.9539 -0.0238607 0.0402804)
(9.96289 0.0623443 -0.0349805)
(5.24738 0.201627 -6.11395)
(2.34257 -1.60479 -0.0969638)
(9.96306 -0.0146977 0.0292668)
(10.0228 0.0721423 0.0144148)
(9.9306 -0.0488958 -0.0170247)
(9.93704 0.0204576 -0.0180696)
(10.1089 -0.0965699 0.0228738)
(9.96489 -0.0154082 0.015379)
(11.0398 -0.157975 0.109806)
(11.5696 -1.44659 2.10757)
(10.0613 -0.0178026 0.00681255)
(10.0584 0.00773428 -0.0248764)
(9.95553 -0.0195767 0.0257655)
(10.0065 0.0105978 0.0239206)
(9.80496 0.198059 0.031866)
(9.96007 -0.0256564 0.0157341)
(10.4805 -0.178441 0.0214915)
(9.97064 -0.00705458 -0.0511279)
(10.0266 -0.0485533 -0.0306411)
(10.0597 -0.00855233 0.0173947)
(9.22186 -0.81718 -1.14859)
(5.12356 0.708661 -4.57153)
(9.9877 -0.0515515 0.0059269)
(-0.42403 -1.70865 0.844589)
(10.0779 -2.65752 1.37895)
(12.8092 -1.37533 -0.954798)
(-0.238558 -1.8051 0.596443)
(10.1452 0.040119 0.015383)
(6.68556 -0.234275 0.291125)
(10.3576 -0.469451 -2.44141)
(11.0248 -1.33539 0.437895)
(5.65321 0.286151 -3.57846)
(-0.488931 1.84881 1.84326)
(1.43405 0.532248 -3.2799)
(11.2826 -0.021017 0.432985)
(10.6181 -0.05321 -0.00750154)
(10.8162 -0.0178715 0.976212)
(9.95961 0.00131887 -0.0344779)
(3.79694 -0.253516 -0.0917293)
(10.6555 -0.0222095 -0.322323)
(10.5335 -0.0229648 0.0204328)
(10.0089 0.00462389 0.00450615)
(10.0295 -0.00689281 -0.00423332)
(11.2449 -0.289025 0.943928)
(9.89506 0.121195 0.0254823)
(10.098 -0.0123491 0.0292451)
(9.98653 0.0544814 -0.0145545)
(-2.06822 1.08026 0.531771)
(8.09567 0.282349 -2.34507)
(10.0362 0.00219416 -0.012409)
(9.98609 -0.00562573 0.00320308)
(5.0644 0.274802 -2.19122)
(5.93619 0.138157 -2.86383)
(10.9031 -0.0187993 -2.03105)
(-3.39335 -3.87842 -1.22558)
(3.36333 1.03285 0.943931)
(4.13017 0.0136083 -3.66025)
(3.84592 -0.0631815 -4.53326)
(10.0097 -0.00251764 0.00508778)
(9.7567 -0.00946476 -0.00185652)
(9.47516 -0.0260036 0.133758)
(9.98754 -0.0558486 0.0335429)
(10.4253 0.0439238 -0.0544633)
(-0.540125 1.90588 1.05706)
(10.7776 -0.106036 -0.252856)
(10.4653 0.0362972 -0.05133)
(10.3921 0.0372878 -0.0466495)
(10.0724 0.00821771 0.0360547)
(-0.377894 1.86138 1.99179)
(-0.326428 2.14602 1.99457)
(10.0151 -0.0123501 -0.0264205)
(10.4444 -0.00587792 -0.0473324)
(9.93598 0.0600537 0.0392689)
(9.96611 0.00677759 -0.0162684)
(10.4152 0.0138054 -0.0356776)
(10.0003 0.0197038 -0.0153337)
(9.67208 -0.048887 0.00777118)
(10.0463 0.0227275 -0.0517287)
(9.95929 -0.00580606 0.00101586)
(6.84509 -0.664854 -2.95055)
(9.9929 0.00475909 -0.0110714)
(9.97719 0.0338436 0.0461318)
(10.0401 -0.0679694 -0.0103139)
(9.91427 0.0456457 -0.0201798)
(9.94025 0.0188765 -0.0252673)
(4.18555 -0.504005 -2.19447)
(12.4505 -1.31818 -0.242407)
(10.0201 -0.0264697 -0.024962)
(10.625 0.40472 -0.200124)
(10.0604 0.00632756 -0.015407)
(9.80192 -0.354478 0.153423)
(9.77067 -0.426296 0.231309)
(11.9269 -0.0709905 -0.0481161)
(9.97247 -0.00562984 -0.00260018)
(-0.59229 -1.15814 2.69737)
(12.0231 -0.132938 -0.0581659)
(10.414 0.0764138 0.017536)
(10.7057 0.289205 -0.0401138)
(8.08707 0.321008 -3.25581)
(12.7288 2.39609 0.933104)
(10.0253 -0.0368415 -0.000824515)
(10.0316 -0.0316107 -0.0033948)
(12.0205 1.45028 2.00127)
(10.0667 0.0100364 -0.024218)
(10.0096 0.0276206 -0.0076103)
(11.1715 0.460537 0.365808)
(10.0178 -0.036313 -0.00656654)
(9.98373 -0.00159673 0.00211839)
(-0.77647 0.130276 2.94083)
(12.4453 0.0258484 0.255938)
(11.9513 3.06064 0.110907)
(10.0023 0.000799541 0.00505008)
(7.62944 0.529025 -2.50282)
(9.93794 0.00308065 -0.0223656)
(11.7444 -0.567607 -0.209043)
(9.62092 -0.415431 0.333676)
(11.9714 -0.0840899 -0.0197589)
(9.98406 -0.00424804 -0.0116588)
(9.43031 -0.444767 0.297443)
(-0.285793 0.703315 3.21148)
(12.0685 1.55227 2.46302)
(12.1826 -0.382188 -0.802308)
(-1.16357 1.86498 2.18938)
(11.9074 0.356561 0.143807)
(10.3502 0.147399 0.0611787)
(9.90278 0.0156442 -0.00793636)
(11.9937 0.486831 -0.178739)
(9.99893 -0.0271154 -0.00461658)
(12.0892 -0.0903167 0.144354)
(-0.219 -1.0479 1.76398)
(10.009 -0.0308941 -0.000194868)
(12.5063 0.0384988 -1.17822)
(10.0359 0.00227819 0.0228321)
(10.0307 0.00652306 0.0287639)
(11.3148 -1.94517 1.14138)
(10.0475 0.00251001 0.0374725)
(10.0841 0.0643919 -0.067556)
(8.26772 -5.83065 0.315037)
(9.60781 0.398213 0.0786649)
(10.0276 -0.233328 0.0373796)
(12.3863 -0.827745 0.247876)
(10.455 1.35685 1.48314)
(10.0855 -0.0176325 0.0596686)
(11.8458 -2.39226 -0.607256)
(5.266 -0.814203 0.0635798)
(10.5612 0.0403472 0.0746507)
(9.57699 -0.707172 -0.786506)
(9.992 0.0601173 -0.00795951)
(10.3335 0.14854 0.0159381)
(10.053 -0.0149007 0.048368)
(10.0173 -0.0163247 0.015385)
(2.91401 2.09616 -1.60599)
(1.01209 -3.19919 1.6981)
(12.2145 -0.202239 -0.220002)
(9.93171 -1.62284 -0.25869)
(11.9859 -1.72465 -0.109432)
(2.12536 5.09294 0.889904)
(-2.07405 0.416499 0.00309017)
(9.88034 -3.54624 4.37919)
(9.99278 -0.0113788 0.00070125)
(10.0062 0.0121609 -0.00689512)
(9.98823 0.00793162 -0.00300419)
(9.91069 -0.0824172 -0.093193)
(6.22737 0.639175 -2.47239)
(9.7157 -0.541198 0.21878)
(9.08292 -0.579807 1.20341)
(9.98767 0.0158333 -0.00658727)
(-1.29438 -1.34845 0.595731)
(12.0413 -0.0843073 0.013448)
(9.85707 0.205679 -0.100935)
(10.0248 0.0359366 0.00457853)
(10.0066 -0.0433066 0.0297166)
(10.0332 0.0517619 0.00462391)
(6.22596 -1.83708 -2.99103)
(10.0053 -0.00116916 -0.00426665)
(6.30217 5.6927 0.142166)
(10.0178 -0.0480437 -0.000109376)
(10.0683 -0.559132 -2.94228)
(9.9893 -0.00371467 -0.00181568)
(10.003 -0.0076308 -0.00484047)
(10.0201 -0.00838982 0.00928808)
(10.0408 0.00054109 0.00037445)
(9.98749 -0.0124791 0.00183268)
(12.8579 0.768295 0.0913213)
(12.2695 0.160871 0.604002)
(9.14227 1.35956 2.5565)
(7.21983 4.00432 2.63017)
(9.43518 1.08784 0.5561)
(10.3078 0.511742 -0.0670574)
(11.2199 0.923883 0.0786835)
(6.49821 -0.337112 -2.74037)
(10.448 -0.121933 0.0488593)
(11.7106 -0.00488778 -0.0887239)
(10.3092 -0.683114 0.135123)
(11.8527 0.0267249 -0.0444566)
(8.39688 -0.0403189 4.79708)
(5.6025 -0.969481 0.678072)
(10.4631 -0.254772 0.194149)
(9.99917 -0.007679 0.00499199)
(9.55227 0.88647 -0.245751)
(10.0106 -0.00556823 0.00834516)
(10.1056 0.00486381 0.00926704)
(13.8507 -2.237 2.40795)
(12.061 -0.690444 0.735142)
(-1.46503 3.00969 0.70295)
(10.1632 -0.827859 0.288813)
(11.7107 -0.95856 -0.264462)
(10.3333 -1.07935 -1.02874)
(11.6995 0.0445482 0.997194)
(10.159 -0.0138043 0.00011727)
(-3.35283 -2.49938 1.17186)
(10.0025 0.0026974 -0.00507221)
(10.047 0.00538197 0.00334889)
(10.4371 -0.0338444 0.55732)
(10.0439 -0.00849885 5.12011)
(10.1702 -0.00727137 0.006484)
(10.1571 0.549633 -0.351644)
(9.98323 0.0134006 0.0253059)
(10.6436 -1.17769 0.635591)
(10.7084 0.0631813 0.8971)
(9.96179 -0.0276176 0.00962409)
(10.8705 -0.40884 -2.88467)
(10.419 0.168117 -2.73069)
(12.7809 0.346353 1.2124)
(10.4843 0.509048 -0.116816)
(9.6353 0.081255 0.328571)
(3.11536 0.884492 -3.50167)
(0.577892 2.14396 3.53799)
(5.38897 3.15197 0.904168)
(12.8511 -0.847654 -2.54006)
(5.47773 -0.45018 -0.0809897)
(9.86624 -0.00739978 -0.111197)
(9.90812 -0.0472738 0.00522391)
(8.52281 1.59684 2.89156)
(9.95066 -0.013279 0.0272695)
(4.49513 -0.754123 0.00700895)
(9.88986 -0.0165655 -0.0712898)
(9.88422 -0.0109082 -0.0881808)
(-0.913566 0.5705 -0.279375)
(9.67883 -1.20546 0.946365)
(10.8768 -0.368106 0.14987)
(9.98744 0.0177877 0.0284769)
(9.97037 0.0264515 0.025414)
(8.23322 0.308827 -2.68932)
(10.0185 0.0356203 0.0329714)
(9.964 -0.00884924 -0.022885)
(10.1309 0.79353 1.01456)
(12.0986 -0.73877 -2.66235)
(10.274 0.296549 0.113704)
(9.88985 0.11799 0.0123057)
(9.90645 -0.0986144 0.00939932)
(9.99444 -0.00324301 -0.000723237)
(9.91292 -0.0103839 -0.0237384)
(11.7578 -0.758908 -1.72141)