/*--------------------------------*- C++ -*----------------------------------*\
| =========                 |                                                 |
| \\      /  F ield         | OpenFOAM: The Open Source CFD Toolbox           |
|  \\    /   O peration     | Version:  2506                                  |
|   \\  /    A nd           | Website:  www.openfoam.com                      |
|    \\/     M anipulation  |                                                 |
\*---------------------------------------------------------------------------*/
FoamFile
{
    version     2.0;
    format      ascii;
    arch        "LSB;label=32;scalar=64";
    class       volScalarField;
    location    "0.0207921";
    object      nut;
}
// * * * * * * * * * * * * * * * * * * * * * * * * * * * * * * * * * * * * * //

dimensions      [0 2 -1 0 0 0 0];

internalField   nonuniform List<scalar> 
3948
(
0.00171884
0.0026238
0.00603851
0.0012123
0.00116835
0.00648936
0.00121575
0.00122463
0.00355218
0.00700959
0.00450314
0.00456142
0.00156115
0.00176553
0.000799153
0.000634164
0.000885769
0.00505514
0.00105512
0.00529769
0.00357308
0.0016442
0.00495905
0.00602659
0.00499363
0.000777568
0.00541553
0.00143095
0.00317404
0.00393755
0.00229854
0.00171196
0.00224963
0.00252475
0.000673175
0.00558609
0.000361229
0.00172
0.000513325
0.000757266
0.000614928
0.00179421
0.00224666
0.00229235
0.00600644
0.00201262
0.00235896
0.00237658
0.000784118
0.000716874
0.00462393
0.000679091
0.000493439
0.000434415
0.000494775
0.00109792
0.00682099
0.00204826
0.000585451
0.00526047
0.0014783
0.0013607
0.00173486
0.00242117
0.00260914
0.00234899
0.00389986
0.00393312
0.00295887
0.000353909
0.00178637
0.00185678
0.000372509
0.00678384
0.00482321
0.00607372
0.00538518
0.00281483
0.00102021
0.00256494
0.00126052
0.00134798
0.00356506
0.0060849
0.00140133
0.00110318
0.000526214
0.000990473
0.00306481
0.00672766
0.00180049
0.00601949
0.00201332
0.00311165
0.0045545
0.00287657
0.00244303
0.000800158
0.00658498
0.00625802
0.00538789
0.00372892
0.00169712
0.00573444
0.00387874
0.00298638
0.00441759
0.00302921
0.000890268
0.00178988
0.00383205
0.0016432
0.00368302
0.00344162
0.00195014
0.00596057
0.00321445
0.00194505
0.00183069
0.000163044
0.0027644
0.00639387
0.00137583
0.000548298
0.00240551
0.00617518
0.00257855
0.00123613
0.00131147
0.00236079
0.00285955
0.00662587
0.00127753
0.000997266
0.00574077
0.000861518
0.00381842
0.00117205
0.000795812
0.0041345
0.00109902
0.00270442
0.00656259
0.00553915
0.0021717
0.00468934
0.00620729
0.00228998
0.000597925
0.00290634
0.00657506
0.00204023
0.00368021
0.00203111
0.00425203
0.0054953
0.00629189
0.00340361
0.00181156
0.00281626
0.00444407
0.00229394
0.00656615
0.00646078
0.00682052
0.00624188
0.00196857
0.00079215
0.00357133
0.00172524
0.00255099
0.00485934
0.00401778
0.0010901
0.000679721
0.00650749
0.00359364
0.00106758
0.00540218
0.00531876
0.00212446
0.000505553
0.00110867
0.0024367
0.00651291
0.00154642
0.00130379
0.00572542
0.0030906
0.00428414
0.00337674
0.00258454
0.00646455
0.00436264
0.00564726
0.00543801
0.00535504
0.00179106
0.00350223
0.00286395
0.00322637
0.00617609
0.00041217
0.00405163
0.00206205
0.0049625
0.0017986
0.00109981
0.00170775
0.00192182
0.00541677
0.00056652
0.00430849
0.00351978
0.0057478
0.000632505
0.00533987
0.0013547
0.000820622
0.00538568
0.000803352
0.00176466
0.00212176
0.00611596
0.00336259
0.00607662
0.00266225
0.0051963
0.00663523
0.00219828
0.000864783
0.000654964
0.00299568
0.00236361
0.00211452
0.00133601
0.00409584
0.00197539
0.00604504
0.000168993
0.00275773
0.00345265
0.00549952
0.00236617
0.00239296
0.00543253
0.00278724
0.00216249
0.00590692
0.00695283
0.00610399
0.00519158
0.00669878
0.0039242
0.000899831
0.00169624
0.00208912
0.000736524
0.0030087
0.00552833
0.00412935
0.00118255
0.00178902
0.000288189
0.000561972
0.00150341
0.00174585
0.00358117
0.000803786
0.00096881
0.00355916
0.00355391
0.00488688
0.00138033
0.0015549
0.00348369
0.00170665
0.00294545
0.0019851
0.00142536
0.00204711
0.00296646
0.000860235
0.00104383
0.00284787
0.00453447
0.00337759
0.00252646
0.00214481
0.00350661
0.00120201
0.00259703
0.00292753
0.00200866
0.00127737
0.00269979
0.00163753
0.000824969
0.00118199
0.00114438
0.000912669
0.000365975
0.00615448
0.00179962
0.00426994
0.0060578
0.00638305
0.00233308
0.000552531
0.00402003
0.00668842
0.00352257
0.00191956
0.00124166
0.00601879
0.00623167
0.000802632
0.00049594
0.00205401
0.00114632
0.000791512
0.00185661
0.00176906
0.00122812
0.00597306
0.00514874
0.00621505
0.00604509
0.00463575
0.00484478
0.00127321
0.000542955
0.000541493
0.00215097
0.000693618
0.00659443
0.000161152
0.00317419
0.00159332
0.000824934
0.00106172
0.00215372
0.00121397
0.00136259
0.00229991
0.00203742
0.0012132
0.00106826
0.00177756
0.00137108
0.00407723
0.00129014
0.00141322
0.00079197
0.00217727
0.00594166
0.00598938
0.00187741
0.00639403
0.00357427
0.000830986
0.00384434
0.000431799
0.00158897
0.00372302
0.00186798
0.0049959
0.00626393
0.00514859
0.00506756
0.00440118
0.00345744
0.00281428
0.00187586
0.00180338
0.000794879
0.000840343
0.000808973
0.004791
0.00379484
0.00264406
0.00212144
0.00438263
0.0030137
0.00120865
0.00106431
0.00163803
0.000544294
0.00184975
0.00187343
0.00213906
0.00336992
0.00301046
0.00303444
0.00641289
0.00632245
0.00587578
0.00665233
0.00607949
0.000734696
0.00373716
0.00570484
0.00630242
0.00366739
0.0049072
0.0045148
0.00086534
0.0025969
0.000621162
0.00291107
0.00666339
0.00675827
0.00394293
0.00306085
0.00356631
0.00404797
0.0047197
0.00614419
0.00283756
0.00650748
0.00656941
0.00648036
0.00114022
0.000950432
0.00112407
0.00135186
0.00613129
0.000719239
0.00686403
0.00252522
0.0018627
0.00228081
0.00170829
0.00194316
0.000566323
0.00104226
0.000739021
0.00114744
0.000972923
0.00206684
0.00361079
0.00403796
0.000294646
0.00195468
0.00406855
0.0025496
0.000404243
0.00584738
0.00166989
0.00582001
0.00116287
0.00385752
0.00572332
0.00686191
0.000567838
0.00406755
0.00264546
0.00267479
0.00306728
0.00469816
0.00287259
0.00332932
0.00609089
0.00153507
0.00340404
0.00325205
0.00326921
0.00365679
0.00253046
0.000490771
0.000639789
0.00167547
0.000426089
0.00156699
0.0034258
0.00332435
0.00300787
0.00420973
0.0036458
0.00193744
0.00235914
0.00195042
0.00296392
0.00690686
0.00696766
0.00702169
0.004347
0.00166975
0.00219456
0.00248203
0.00102148
0.00141278
0.00183743
0.00183459
0.00520495
0.000404409
0.000475068
0.00112667
0.00232319
0.00215086
0.00145754
0.0023084
0.00317855
0.00210303
0.00157846
0.00434037
0.0032193
0.000598765
0.00365131
0.00326803
0.00637138
0.00338673
0.0024491
0.0017353
0.00171752
0.00160039
0.00129062
0.00676349
0.000853104
0.000756063
0.000794001
0.000810334
0.00102733
0.00251912
0.00116706
0.00137015
0.00220604
0.00264049
0.00329676
0.00219464
0.00260993
0.000549666
0.00550694
0.00610147
0.00612653
0.0047653
0.00338954
0.00194932
0.0029791
0.00692047
0.00597863
0.00663656
0.00200719
0.00154728
0.00165289
0.00152124
0.00242688
0.00521919
0.00611505
0.00625772
0.00630611
0.00386054
0.00662012
0.00683158
0.00497459
0.00305129
0.00441834
0.00286755
0.00335561
0.00586377
0.00463577
0.00220128
0.00237697
0.00337085
0.00265912
0.00683949
0.00256504
0.00105338
0.00313959
0.0030767
0.00270741
0.00679791
0.00688653
0.00617269
0.00483175
0.00382667
0.00677198
0.00529441
0.00671884
0.00429106
0.00388314
0.00488251
0.00410802
0.00313592
0.00345976
0.00317967
0.00182131
0.00219043
0.0067147
0.00699884
0.00675036
0.00540828
0.00319077
0.00334855
0.00243406
0.00461635
0.00399447
0.00470647
0.00165656
0.00141712
0.000672395
0.0014942
0.00264187
0.00182684
0.00358773
0.00687735
0.00667875
0.00692472
0.00239508
0.000881263
0.000806005
0.000646371
0.000745993
0.00571978
0.00582138
0.00325999
0.00640091
0.00544347
0.00211605
0.00530181
0.00390375
0.00321406
0.00297665
0.00501345
0.00215407
0.00166281
0.00257781
0.00181655
0.00166615
0.00606684
0.00312241
0.00424128
0.00449757
0.00182379
0.00516466
0.00688388
0.00459167
0.00276842
0.0062387
0.00450637
0.00166165
0.00288645
0.00663778
0.00144307
0.00149626
0.00628258
0.0034899
0.00328077
0.00216866
0.00540128
0.00459778
0.00268013
0.00234817
0.00377408
0.00534665
0.00663397
0.00294027
0.00274916
0.0053903
0.00155142
0.00112332
0.00301267
0.00172811
0.00263076
0.00144783
0.000294378
0.00301922
0.0068162
0.00249346
0.00635411
0.00388594
0.00667504
0.00620875
0.00350781
0.00266492
0.00487439
0.00166743
0.00123018
0.00293299
0.00234378
0.00267693
0.00281363
0.00699462
0.00155162
0.000523045
0.0026007
0.00328192
0.00190082
0.00388523
0.000516731
0.00446209
0.00114736
0.00225439
0.0011533
0.00336468
0.0020004
0.00216319
0.00188957
0.00132961
0.00127332
0.00628707
0.00502489
0.00159185
0.00223959
0.002273
0.00595519
0.00216643
0.00484682
0.00559683
0.0026162
0.00314099
0.00526308
0.00347436
0.00297542
0.000419316
0.00218832
0.00379164
0.00325943
0.00195073
0.00131531
0.00310684
0.00176022
0.00645364
0.00185582
0.00697423
0.000179629
0.00354358
0.00414661
0.000279591
0.000544975
0.000806789
0.0044019
0.000745172
0.000863289
0.000642593
0.00358964
0.00140506
0.000723384
0.00236906
0.00223132
0.000710866
0.000831628
0.00247164
0.00175558
0.000615453
0.000646492
0.000661754
0.00083615
0.00602274
0.00289269
0.00099691
0.00319821
0.00271991
0.000789362
0.00188012
0.000588264
0.00193626
0.00390544
0.00185735
0.00429963
0.00671799
0.00198068
0.00517963
0.00607373
0.00354651
0.000846686
0.00237409
0.00640889
0.00601428
0.00677306
0.00698041
0.00689718
0.000523403
0.00574049
0.00101569
0.00240498
0.00158676
0.00642017
0.00234265
0.00623635
0.00303525
0.00648573
0.0053766
0.0059264
0.00209004
0.00210515
0.00529387
0.00121211
0.00621664
0.00644356
0.00339747
0.00111679
0.000859299
0.00355771
0.000902827
0.00124609
0.00496932
0.00249972
0.00204076
0.00228796
0.00515158
0.00303943
0.00694166
0.00593228
0.000358195
0.00104191
0.00571732
0.0039144
0.000972188
0.00164324
0.00381414
0.00574091
0.00312146
0.00423666
0.00102448
0.00652362
0.00270284
0.000574531
0.000723938
0.000829609
0.00169856
0.00108818
0.000607428
0.00204741
0.000739267
0.00106733
0.00162804
0.00060126
0.00306284
0.00338586
0.000701223
0.000673737
0.00630465
0.000466767
0.00369884
0.00134292
0.000898302
0.0048428
0.00109325
0.00526465
0.00423776
0.00189675
0.000613877
0.00101233
0.000486361
0.00094831
0.00363315
0.00276346
0.00080962
0.00504044
0.00494901
0.0041112
0.00464497
0.00339439
0.0045533
0.00351502
0.00123377
0.00207442
0.00344543
0.00606573
0.00318901
0.00477942
0.00473233
0.00033229
0.00219582
0.00183607
0.000926009
0.00142411
0.00108066
0.00135124
0.00634646
0.00311758
0.00139084
0.00244536
0.000430875
0.00598737
0.00277419
0.00174064
0.00175853
0.0012948
0.00116602
0.00124527
0.00377466
0.00177513
0.00103457
0.00638818
0.00252121
0.000928366
0.00123192
0.000759037
0.00634615
0.00160626
0.00309579
0.00110139
0.000966044
0.000957069
0.000539822
0.0057639
0.00291871
0.00488169
0.000560402
0.000562496
0.0014484
0.00161303
0.00264925
0.000483503
0.00189079
0.00116879
0.00661138
0.00280597
0.00646603
0.00176058
0.00675968
0.00322809
0.0057138
0.00680739
0.000452616
0.00342324
0.00171965
0.000497985
0.000914159
0.00135721
0.00613232
0.00359503
0.00134947
0.00645872
0.00307124
0.000827176
0.00122001
0.00332731
0.00492252
0.00426313
0.000991117
0.000915702
0.000501256
0.00364741
0.00109112
0.00664123
0.0064184
0.00337533
0.00151303
0.00107884
0.00227034
0.00593189
0.00636156
0.00067549
0.000795712
0.00193282
0.00365308
0.00172558
0.00292177
0.00634087
0.000966408
0.00120111
0.00162288
0.0017743
0.00137503
0.00178728
0.00106312
0.0015379
0.000617653
0.00147831
0.00597724
0.00423723
0.00418639
0.00213238
0.00194057
0.000611812
0.00128768
0.00667177
0.0030758
0.00579901
0.006128
0.00581325
0.00209848
0.00637417
0.00296831
0.00275809
0.00511291
0.00237806
0.0059593
0.00604394
0.00576697
0.00273253
0.0063803
0.00330128
0.00639829
0.000953368
0.00104274
0.00115313
0.00165096
0.00107908
0.000828936
0.0016599
0.00179406
0.00499071
0.000884251
0.00270241
0.00195501
0.000656883
0.000569409
0.00615635
0.00451427
0.00663992
0.00174653
0.0056864
0.00409903
0.00588841
0.00698193
0.00367398
0.00230113
0.000821536
0.00207573
0.00509489
0.00141947
0.000979822
0.00595588
0.00552598
0.00270434
0.00431367
0.00197546
0.0027935
0.00209478
0.000654703
0.00273794
0.00493241
0.00348334
0.00247996
0.00615498
0.00529959
0.00202828
0.00102295
0.00429106
0.00289427
0.0010812
0.0061705
0.00128913
0.00341757
0.00291391
0.003152
0.00191333
0.0049408
0.00434525
0.00273759
0.00228044
0.00123556
0.00120136
0.00059354
0.000241943
0.00170823
0.00183655
0.00191425
0.000355354
0.00049136
0.0005878
0.000340777
0.00110071
0.00445134
0.00234094
0.000589618
0.00134436
0.00349906
0.00502166
0.0012499
0.00128539
0.00244804
0.000853243
0.000458992
0.000417569
0.00144538
0.00590928
0.00282291
0.00566198
0.00206543
0.00187346
0.00168441
0.00139991
0.00147992
0.00088773
0.000859084
0.00545752
0.00541965
0.0064294
0.00209336
0.00275511
0.00128435
0.00049514
0.00530309
0.000860675
0.00119161
0.00193652
0.00548461
0.00479876
0.00354708
0.00247418
0.00149897
0.00128597
0.00118487
0.00127272
0.000702897
0.00193347
0.000865705
0.00159933
0.00597234
0.000184567
0.00262193
0.00662543
0.00342734
0.00497467
0.00689121
0.00608593
0.00700878
0.00118538
0.00213124
0.000940169
0.00163246
0.000528913
0.00164168
0.000946044
0.00530858
0.00329197
0.00311784
0.00634453
0.00183781
0.00240914
0.000732343
0.00484854
0.00136433
0.00136248
0.00128166
0.000738184
0.00515428
0.00437664
0.00339528
0.0012962
0.00131175
0.00187736
0.000785138
0.00214682
0.00105422
0.000345151
0.00053138
0.000193419
0.00269904
0.00133387
0.00521256
0.0060633
0.00544625
0.00155557
0.000738206
0.00110374
0.000684501
0.00070202
0.00190712
0.00183497
0.00215102
0.00141887
0.00128504
0.0020468
0.00124843
0.00238449
0.00138146
0.00114363
0.00454166
0.00234474
0.0051707
0.00602222
0.00191134
0.000461442
0.000302333
0.00114227
0.0010586
0.000337358
0.00274494
0.000772688
0.00219128
0.000947954
0.00121322
0.00178661
0.000697333
0.00081468
0.000987215
0.00107083
0.0059566
0.000901091
0.00527033
0.00500699
0.000991922
0.00257054
0.00439335
0.00339544
0.00470242
0.00495372
0.00394786
0.0012686
0.00124605
0.00111391
0.00184804
0.00120061
0.00114937
0.00110679
0.00219121
0.00172014
0.00207588
0.00256826
0.00251487
0.0017135
0.00210707
0.00177191
0.00280069
0.00219467
0.0063362
0.00200222
0.0020529
0.00237957
0.00409074
0.0014598
0.000929309
0.00250891
0.00339966
0.000766537
0.00242082
0.00290346
0.00625745
0.00245982
0.00341594
0.00149856
0.0053059
0.00193141
0.00304152
0.00166442
0.00136309
0.00135093
0.00390861
0.000676001
0.00115777
0.00164518
0.000905184
0.00237828
0.00662861
0.00676299
0.00213812
0.00217781
0.00223181
0.00218865
0.002512
0.00259233
0.0011729
0.00217832
0.00676513
0.000912621
0.00113243
0.000991914
0.00245023
0.00265204
0.0018524
0.0010727
0.00197294
0.00226813
0.00112502
0.00222711
0.000865071
0.00157284
0.00288549
0.000173164
0.000231618
0.000624094
0.000873511
0.00153733
0.00105102
0.0011634
0.00184366
0.000516291
0.00256574
0.00157345
0.000910943
0.00465393
0.00257691
0.00241155
0.00212464
0.00178433
0.00564409
0.00224992
0.00113293
0.00196378
0.00132236
0.00545638
0.000136663
0.000819283
0.00143392
0.00040121
0.000728677
0.00505272
0.00637885
0.00157814
0.00664784
0.00439466
0.0035189
0.00502138
0.00428496
0.00646987
0.00675756
0.00141385
0.00571727
0.00171353
0.0070241
0.0066422
0.000292179
0.00547339
0.00431174
0.000626521
0.00318828
0.00188184
0.000575059
0.00330201
0.00119882
0.00144849
0.000380021
0.00183089
0.00104771
0.000242875
0.00219101
0.000966179
0.000511062
0.00239374
0.000557571
0.000767655
0.00074862
0.00131853
0.00105581
0.00563999
0.00172475
0.00390104
0.00229618
0.00100057
0.000958347
0.0025912
0.000638195
0.00163613
0.00187694
0.000340402
0.00175672
0.000693287
0.00588571
0.0070291
0.00106574
0.00170608
0.0019774
0.000531645
0.000323403
0.00205598
0.00617014
0.00110518
0.000473853
0.000953915
0.00589059
0.00190042
0.00628942
0.00336576
0.00701759
0.0019142
0.00367068
0.00407699
0.00215665
0.00592626
0.00674631
0.00496869
0.00330079
0.00405561
0.00644618
0.00049702
0.00702242
0.000640713
0.00178721
0.00649041
0.00124142
0.00123631
0.00466444
0.00106799
0.00248777
0.00537574
0.000795198
0.00155787
0.00235892
0.00593225
0.00108219
0.00623663
0.00110858
0.00413932
0.00061977
0.00147924
0.00136993
0.00467863
0.00290104
0.0031414
0.00340486
0.00113595
0.00179398
0.00479716
0.00159186
0.00118411
0.000500223
0.00125527
0.000828272
0.0058282
0.00663391
0.00425691
0.0015248
0.00284262
0.00163433
0.00516385
0.00336019
0.00192037
0.0014172
0.00120895
0.00352758
0.00103171
0.0024951
0.00181628
0.00275154
0.00139749
0.000991201
0.00104405
0.00103015
0.00603715
0.00565598
0.00233509
0.00465398
0.00254506
0.00074643
0.00228514
0.00522621
0.00576753
0.00171052
0.000524803
0.00471765
0.00376224
0.00691759
0.00113155
0.00413479
0.00520119
0.00225964
0.00380392
0.00515447
0.00168761
0.00265576
0.0030699
0.00181965
0.00192809
0.000600948
0.00685204
0.00283058
0.00688378
0.00108086
0.00669231
0.00656056
0.00688298
0.0016644
0.00212207
0.00434698
0.00493146
0.000723165
0.0020931
0.00483749
0.00184094
0.00332321
0.000421868
0.000645045
0.00585468
0.00397987
0.00257687
0.00429521
0.000928524
0.00545774
0.00350078
0.00187984
0.00641183
0.00166603
0.00168832
0.000222747
0.00604126
0.000941004
0.00249397
0.00648967
0.00683487
0.00196206
0.00478938
0.00349224
0.00122081
0.00650565
0.00645309
0.00423558
0.00208427
0.00332315
0.00136586
0.00111299
0.00629072
0.00148497
0.00513154
0.000835614
0.00499471
0.00295454
0.00291455
0.00495263
0.0043049
0.00242356
0.00602002
0.00403477
0.00356056
0.00198823
0.0037587
0.00613164
0.0029882
0.00297598
0.00599881
0.00506237
0.00300739
0.00563553
0.00625421
0.00641752
0.00351742
0.00264355
0.000739108
0.000793203
0.0004063
0.000500512
0.00134503
0.00127262
0.00136103
0.00182542
0.000429901
0.00281408
0.00165902
0.0044447
0.00678418
0.000852725
0.00368704
0.00622204
0.00604612
0.00582694
0.00506605
0.00578697
0.00493726
0.00237638
0.00241213
0.00111235
0.000792609
0.00237909
0.00296664
0.00641427
0.005646
0.000940981
0.000677497
0.00330096
0.00224246
0.000396391
0.000676593
0.00128242
0.00143314
0.00116648
0.00138235
0.00697174
0.00383353
0.00626597
0.00684748
0.00213089
0.000953412
0.000954395
0.000431606
0.000641788
0.00103987
0.0020122
0.00380058
0.000568182
0.00200142
0.00187869
0.00190197
0.000839343
0.000981541
0.00092811
0.00132234
0.000999006
0.000590287
0.00241164
0.000949972
0.00421388
0.00466091
0.00411315
0.00176973
0.0018464
0.00459801
0.00403582
0.00661796
0.00595364
0.000319421
0.0030816
0.000450665
0.00184483
0.000315711
0.00129159
0.00362163
0.00475347
0.00121875
0.00349143
0.00166855
0.00693011
0.000466532
0.00039249
0.000966122
0.00105808
0.000981322
0.0019156
0.00325317
0.0068768
0.0038227
0.000618934
0.000612848
0.00107467
0.00418361
0.000338315
0.00669938
0.00304647
0.000822467
0.000529711
0.00186777
0.00365229
0.00105119
0.00232545
0.000425692
0.00138414
0.00273674
0.000328919
0.00075256
0.00083558
0.00080151
0.000608361
0.00157946
0.00152883
0.00140442
0.00098943
0.00109649
0.00141257
0.00180997
0.000666905
0.000899754
0.000829589
0.00368574
0.000998599
0.000985008
0.00116167
0.00626265
0.00692827
0.00684861
0.00648223
0.00626248
0.00142598
0.00297237
0.00448475
0.00104345
0.00212049
0.000826576
0.00235397
0.00062887
0.00492748
0.00117443
0.00103837
0.000996805
0.00662269
0.00244465
0.00127418
0.00672926
0.0050669
0.000533772
0.00163557
0.00160718
0.00245386
0.00363856
0.0010114
0.00330277
0.00148429
0.00472719
0.00596943
0.00124753
0.00677678
0.0064038
0.0050023
0.00635979
0.00645298
0.00405962
0.00182085
0.00214597
0.00234737
0.00209869
0.00584137
0.00438206
0.00171949
0.00115863
0.00671956
0.00692138
0.00122212
0.00108079
0.000916497
0.00160816
0.00218654
0.00396341
0.0031686
0.00494702
0.00626474
0.000907459
0.0065445
0.00124202
0.0018167
0.00182113
0.00235013
0.0049591
0.00210354
0.00269603
0.00034868
0.00183728
0.00448418
0.000550687
0.00228918
0.00231876
0.00587016
0.00204738
0.000624809
0.000594874
0.00102655
0.000394368
0.00110081
0.00495733
0.00094409
0.00105644
0.000663818
0.0022289
0.000779325
0.00141402
0.00278888
0.00403889
0.00145238
0.00254394
0.00575392
0.00472762
0.00423592
0.00275952
0.00167547
0.000673933
0.00223612
0.00369959
0.00300729
0.00228009
0.00044063
0.00149364
0.000819644
0.00232935
0.00143654
0.00428481
0.00403612
0.000293473
0.00082733
0.00076449
0.00108974
0.00549187
0.00111274
0.0011869
0.00121193
0.000552127
0.00196251
0.000870554
0.00162878
0.00112763
0.00115886
0.00152
0.00157089
0.000741355
0.00394536
0.00619296
0.00303831
0.000742273
0.00484631
0.00396832
0.000793472
0.00279553
0.000796127
0.00098674
0.00160043
0.00214077
0.00160825
0.00158659
0.0055415
0.00130148
0.00179227
0.000688525
0.000893353
0.00130265
0.00138854
0.00418839
0.00558805
0.00383623
0.00295963
0.00208392
0.00250001
0.00263813
0.00623757
0.00638487
0.00148463
0.00312995
0.00366709
0.000703798
0.00100588
0.0019459
0.00346541
0.00298653
0.00209389
0.00231799
0.00328358
0.0045947
0.00415876
0.000651487
0.00120123
0.00359686
0.00094792
0.000640167
0.00130571
0.000700466
0.000619598
0.00067325
0.000383748
0.001217
0.00479297
0.00133272
0.00460734
0.00065064
0.00228992
0.000501587
0.00078268
0.00137648
0.0020525
0.00132443
0.0027517
0.0031424
0.00282443
0.000357526
0.00348484
0.00704047
0.00511104
0.000481549
0.00404944
0.00293501
0.00416451
0.00112701
0.00287756
0.00627312
0.000514308
0.000918887
0.000914215
0.000913581
0.00109895
0.000953608
0.000852134
0.00239327
0.00353625
0.00142201
0.00620079
0.000778336
0.00173883
0.00272609
0.000757016
0.00330744
0.00386381
0.00324972
0.00286694
0.00340808
0.00282405
0.00277307
0.002266
0.00300119
0.00455689
0.000828595
0.000415934
0.00240217
0.00182311
0.00323293
0.00341001
0.00461097
0.00603005
0.00584967
0.000919661
0.00468952
0.00325188
0.00232066
0.00203048
0.00522355
0.00326547
0.00253313
0.00357156
0.00225016
0.00259796
0.00601893
0.00670355
0.0020537
0.00305609
0.00612379
0.00189551
0.0065044
0.00108154
0.00254094
0.00154617
0.000911254
0.000781902
0.000471003
0.000597508
0.000433963
0.00060338
0.000332297
0.000834686
0.00100846
0.000109048
0.00146119
0.00460734
0.000532873
0.000611061
0.00103494
0.00357049
0.000940322
0.000584772
0.000425766
0.000561258
7.46488e-05
0.00205582
0.00152918
0.00375803
0.00317571
0.00299368
0.00305064
0.00180116
0.00037554
0.000716774
0.00101173
0.0026135
0.00135589
0.00652983
0.00430212
0.00375039
0.00375894
0.00363453
0.00480703
0.00637771
0.00642719
0.00162578
0.00126575
0.00299179
0.00286865
0.00449299
0.00302918
0.00234644
0.00202329
0.00203405
0.000672597
0.00299804
0.00134076
0.00189717
0.00424169
0.00544302
0.00269764
0.00317138
0.00377175
0.00230791
0.0026967
0.0011865
0.00452522
0.00238021
0.0017027
0.00568716
0.00551163
0.00554121
0.00516282
0.00252447
0.00594325
0.0041138
0.00104496
0.00239097
0.00662056
0.00200951
0.00138603
0.00362657
0.00271729
0.000563802
0.000570752
0.00360504
0.000718084
0.00240844
0.00437061
0.00385354
0.00247369
0.00384302
0.00504424
0.00357286
0.00474936
0.00275072
0.00349143
0.00277439
0.00153445
0.00049382
0.00472642
0.00410837
0.00224843
0.00317655
0.00116231
0.000643518
0.00095512
0.00105942
0.000621076
0.00630153
0.00472211
0.00638295
0.00619159
0.00606062
0.00601134
0.00334042
0.000913722
0.000952458
0.00133149
0.000642066
0.00125474
0.00165711
0.0019577
0.000434046
0.00208009
0.00271353
0.00238107
0.00191631
0.00168264
0.000977243
0.00169685
0.00204551
0.00171216
0.00157603
0.0014972
0.00157302
0.00176035
0.00119886
0.00103469
0.00205417
0.00202256
0.00329049
0.00181722
0.00141341
0.0015184
0.00161507
0.00172974
0.00101651
0.00227425
0.00633559
0.00334012
0.00130485
0.000427722
0.0011491
0.00586854
0.0059403
0.00651136
0.00500825
0.00643471
0.000439892
0.000543278
0.000794612
0.00659966
0.000441664
0.00064075
0.00212728
0.000897904
0.00228945
0.00195266
0.00131049
0.00161641
0.0019789
0.000774157
0.00235807
0.00379363
0.00293809
0.00146115
0.00321712
0.00481371
0.00330615
0.00366599
0.0033981
0.00208392
0.00333177
0.000946064
0.00211704
0.00164271
0.00671921
0.00576369
0.00317088
0.00527357
0.00658096
0.00648982
0.00340135
0.00537233
0.00164245
0.00692434
0.00332747
0.00630514
0.00492034
0.00409817
0.00167127
0.00480957
0.00534689
0.00238006
0.00657113
0.00443613
0.00599977
0.0027061
0.000967906
0.00237957
0.00366484
0.00636259
0.0020338
0.00649428
0.00117989
0.00367951
0.0013432
0.00332669
0.00229544
0.000466862
0.00077055
0.00422035
0.00451424
0.00106091
0.00186464
0.00287247
0.00298311
0.00508728
0.00516727
0.00286115
0.000787972
0.00125932
0.00625491
0.000881624
0.000402062
0.000440464
0.00253534
0.00325053
0.00191854
0.000783003
0.00317274
0.0017426
0.00275017
0.00111233
0.000816042
0.00135767
0.00071578
0.000382971
0.00485442
0.00224062
0.00359451
0.00409844
0.0065876
0.00650859
0.00331641
0.00506059
0.00582456
0.00639321
0.00642482
0.00388371
0.00159472
0.00201807
0.00329819
0.00152935
0.00185415
0.00519206
0.00161029
0.00206204
0.00312604
0.00180642
0.00173482
0.00538951
0.00534218
0.0055006
0.000895713
0.000520246
0.00170604
0.00101337
0.00148127
0.000802852
0.0023327
0.00254624
0.00249346
0.00485898
0.00101971
0.00158582
0.00652458
0.00178083
0.0013111
0.00174273
0.00367857
0.0027437
0.000633424
0.00135526
0.00144778
0.00671338
0.00686026
0.00532683
0.00680694
0.000963575
0.00457735
0.000598715
0.00379507
0.0043151
0.00404896
0.00675258
0.004004
0.000871992
0.00209342
0.00111069
0.000599827
0.00115608
0.00200045
0.00131184
0.00289344
0.0056255
0.00513934
0.00171235
0.00279169
0.0064644
0.00616402
0.000848493
0.00249199
0.000550474
0.00101151
0.00145148
0.00125522
0.000359741
0.00263088
0.000537953
0.00269637
0.000891236
0.00269639
0.00482538
0.00112685
0.00358173
0.00158312
0.00441998
0.00125304
0.000841569
0.000619938
0.00083139
0.000464504
0.00157387
0.00010539
0.000574817
0.000622906
0.000233598
0.00220557
0.0012696
0.00474274
0.00419745
0.000784665
0.00124993
0.00125656
0.00392597
0.00149373
0.0029946
0.00371944
0.00136787
0.00311331
0.00468367
0.00558738
0.00174673
0.00495984
0.00258693
0.00343232
0.00525585
0.0070004
0.00436909
0.00366899
0.00383434
0.00164743
0.00318183
0.0033743
0.00374934
0.00358035
0.00246065
0.00413275
0.00450329
0.00237911
0.00200348
0.00244962
0.00437296
0.00427454
0.00296018
0.00421273
0.00560902
0.00253416
0.00352818
0.00214504
0.00235371
0.00213621
0.00323579
0.00226175
0.000795994
0.00130972
0.00165255
0.000427748
0.00159798
0.00171814
0.00629863
0.00502475
0.00612502
0.00602673
0.00581978
0.00276299
0.00583943
0.00700146
0.00472153
0.004264
0.00439023
0.00348528
0.00516807
0.00662007
0.00691553
0.00568379
0.00701261
0.00694467
0.00701461
0.00494566
0.00464751
0.0061263
0.00143414
0.00608831
0.0013707
0.000906155
0.000293129
0.00103158
0.00155118
0.000641381
0.00133946
0.000567533
0.001226
0.000871069
0.000757559
0.00148318
0.00400686
0.00243389
0.00354833
0.00401627
0.00277619
0.00143771
0.00209911
0.00150272
0.00324532
0.00184939
0.00205333
0.00570296
0.00613757
0.00607077
0.00189442
0.00429572
0.00189763
0.00319911
0.00109498
0.00449
0.007032
0.000653657
0.00539094
0.00386373
0.00121975
0.00546075
0.00529802
0.00217169
0.000131305
0.00397956
0.00377543
0.00563618
0.00658913
0.00653658
0.0065117
0.00652274
0.000899967
0.00647358
0.00618674
0.00232072
0.00170717
0.00190196
0.00259326
0.00232516
0.00225984
0.00162544
0.000174881
0.00221475
0.00286338
0.00382762
0.00667952
0.0070594
0.00295854
0.00603224
0.00648798
0.000959374
0.00463299
0.00130274
0.00432931
0.00362439
0.0041078
0.00250358
0.00256565
0.00449179
0.00097154
0.000662363
0.00128842
0.00596468
0.00644661
0.00127568
0.00211618
0.00158408
0.00133122
0.00156096
0.00578176
0.00642446
0.00513189
0.00130831
0.00171502
0.00139027
0.0016553
0.00624736
0.00635571
0.000949359
0.000915191
0.000518612
0.000463953
0.000683074
0.000703222
0.00450457
0.00466887
0.00606723
0.000851602
0.00067372
0.00141661
0.00105258
0.0011744
0.00102156
0.000613
0.00452614
0.00416284
0.00339594
0.00111183
0.00112317
0.0011372
0.000793971
0.00209923
0.000591327
0.00304659
0.0030301
0.00190083
0.00157832
0.00431258
0.000814668
0.000930681
0.000447896
0.00102347
0.000456182
0.00137547
0.00676256
0.00102536
0.00676534
0.00205438
0.00427978
0.00420951
0.00200455
0.00508641
0.00118366
0.0063456
0.00465497
0.000919732
0.00409506
0.00216484
0.00210268
0.000578826
0.0036204
0.00275228
0.00160665
0.00206686
0.0022034
0.00200727
0.000947479
0.00152616
0.00171088
0.00155506
0.00259216
0.00155445
0.00167331
0.00156567
0.00197251
0.00167052
0.000555038
0.00146588
0.000597312
0.0038396
0.00146752
0.00125993
0.00159647
0.00156316
0.000668971
0.00071861
0.0012192
0.00137423
0.000446856
0.000825319
0.00155264
0.000186052
0.000766462
0.00268853
0.00203128
0.00115171
0.00105054
0.000713583
0.00166436
0.00133947
0.000399925
0.00287141
0.00410494
0.00176522
0.000301523
0.000832377
0.00130802
0.000998328
0.000613436
0.0024644
0.00399883
0.00237672
0.0055727
0.00140797
0.00247219
0.00182047
0.00096586
0.00669292
0.000901916
0.000908591
0.00332648
0.00175391
0.00226571
0.00667133
0.00504851
0.00507273
0.0014817
0.000138
0.00137307
0.00193656
0.00325559
0.00490436
0.00051091
0.00453709
0.00465683
0.00616254
0.00345408
0.00197911
0.00122359
0.00391747
0.00454261
0.00416704
0.00207497
0.00630832
0.00625412
0.00623395
0.00631202
0.00567668
0.00224314
0.00277858
0.000911168
0.00104677
0.000908532
0.00130353
0.00195839
0.00485711
0.000669656
0.00509372
0.00650797
0.00488159
0.00536628
0.00491066
0.00507891
0.00512903
0.00549397
0.00231429
0.00598928
0.00176637
0.000971177
0.00473963
0.0027864
0.00383597
0.00407452
0.000649879
0.00089355
0.00106792
0.00189226
0.00151553
0.00415349
0.000176799
0.00427688
0.000259466
0.00369576
0.000760866
0.00359359
0.00290858
0.00426637
0.00273482
0.00418963
0.00169627
0.00598538
0.00604956
0.0022176
0.00559216
0.00601574
0.00583212
0.00434092
0.000387558
0.00473239
0.00671465
0.000946406
0.000978118
0.000779593
0.00623211
0.00125417
0.00463985
0.00682483
0.00623878
0.000661612