/*--------------------------------*- C++ -*----------------------------------*\
| =========                 |                                                 |
| \\      /  F ield         | OpenFOAM: The Open Source CFD Toolbox           |
|  \\    /   O peration     | Version:  2506                                  |
|   \\  /    A nd           | Website:  www.openfoam.com                      |
|    \\/     M anipulation  |                                                 |
\*---------------------------------------------------------------------------*/
FoamFile
{
    version     2.0;
    format      ascii;
    arch        "LSB;label=32;scalar=64";
    class       volScalarField;
    location    "0.0207921";
    object      p;
}
// * * * * * * * * * * * * * * * * * * * * * * * * * * * * * * * * * * * * * //

dimensions      [0 2 -2 0 0 0 0];

internalField   nonuniform List<scalar> 
3948
(
-24.3971
1.98296
0.34428
-46.0866
-50.6111
-0.0353985
-46.5301
-47.9058
-0.373752
-0.489879
0.59916
-4.62928
-6.84247
-6.92429
-19.0741
-22.5057
-13.6958
0.500605
-13.3173
-3.15433
-3.80897
-37.1828
0.755411
-3.75862
-4.73467
-88.7041
-3.41695
-7.16193
-7.16083
-14.9359
-0.112939
-6.73086
-4.05171
-17.5722
-25.6271
-3.62284
-57.3254
-11.2084
-28.1396
-19.9125
-16.6989
-16.552
-11.9805
-12.252
-4.56269
-22.3195
-6.66888
-10.5277
-27.3272
-25.588
-10.1259
-29.0622
-18.6719
-31.753
-28.2318
-33.5578
0.530671
-4.10705
-42.8884
-1.28844
-20.044
-20.1214
-0.327533
-14.4883
-14.787
-13.6115
2.87055
-2.1765
-5.78984
-36.8813
-22.871
-14.9556
-30.103
0.516503
-4.79186
-2.05365
0.0702835
-8.16309
-45.1197
-14.9387
-14.9322
-16.4848
2.24395
2.12111
-15.6046
-15.1442
-19.7254
-15.7474
-2.57849
1.18624
-1.32511
-4.72872
-5.17931
-1.9017
-1.912
-5.2358
2.81248
-14.8646
0.547905
-2.63845
-1.46159
-8.313
-21.3693
0.0489729
-5.41025
-13.2522
-2.51865
0.943538
-40.1143
-2.17516
0.739557
-3.41166
0.788959
-3.56056
-47.3336
2.03136
-2.36586
-11.7904
-0.491868
-23.5452
-32.1551
-3.5433
-9.52684
-27.4641
-8.57027
-2.76217
-5.804
-20.0078
-16.2504
1.9467
-8.76069
1.27278
-16.3438
-21.7897
-0.0669652
-18.0423
-1.70066
-12.7974
-30.1528
-1.20055
-13.9365
-3.58319
0.709329
-5.21684
-11.3176
-6.59453
1.8117
-9.51257
-24.5539
-0.75233
-0.547184
-1.27226
-6.46994
-13.9511
-5.753
-3.18123
-0.352515
-16.7912
-19.9143
-2.02043
-6.32144
-1.59219
0.281544
1.23083
0.422152
1.62776
-5.58666
-18.236
1.05928
-42.7244
-14.5966
-4.00012
-5.89808
-17.3861
-76.4579
0.627723
-7.83596
-9.83637
-3.64776
-4.1131
-20.7779
-45.086
-15.7355
-6.33377
-2.31944
-7.36581
-14.2148
-6.78477
-12.6421
-4.06138
-11.0506
-6.28619
-1.08882
0.310921
-1.15743
-4.43343
0.843095
-1.21403
-4.7689
-9.74858
-7.08394
-2.47739
-32.6673
-5.49364
-17.699
2.69325
-5.9188
-24.4319
-12.721
-20.4038
-4.20572
-89.197
-7.09403
-12.9064
-1.31993
-37.2747
0.722956
-7.5395
-26.3127
-0.441609
-20.2291
-17.1288
-9.04362
1.83005
-9.83004
-0.188006
-1.59684
1.27532
0.838107
-34.7011
-17.3255
-19.6669
1.51455
-2.20807
-1.9952
-31.5759
-4.13613
-0.957348
-0.437054
-26.1109
-6.21647
-0.736354
-0.470267
2.14209
-9.66684
-0.627139
-0.414629
-5.65071
-0.315106
-0.734253
-3.54828
-3.04151
1.08816
1.06557
-18.2693
-5.47888
0.371875
-73.0123
-2.69234
-4.36009
-8.66628
-4.93044
-14.4539
-23.5979
-23.1852
-19.7083
-24.5764
-0.431483
-12.2557
-19.2093
-6.37867
-9.7786
-8.98011
-21.7782
-17.8231
2.31105
-10.8373
0.485804
-12.6736
-46.5257
-12.1247
-2.52209
-26.8625
-16.187
2.23123
-5.59759
-11.0045
-13.2971
-1.82252
0.629941
-4.55045
-7.67725
-13.1538
-8.86267
-5.97535
-2.8226
-5.75755
-50.0207
-10.9626
-21.3449
-84.2262
-24.656
1.70167
-21.4216
-2.60474
-1.58982
-0.579403
-14.3549
-21.7409
-2.08576
0.798136
-4.21052
-4.44457
-10.5319
-3.85628
0.672696
-14.2258
-31.7038
-27.4
-6.14939
-51.6233
-13.1095
-0.730319
-48.3493
0.586017
-1.59194
-0.212912
-0.00642793
1.22343
-2.62719
-19.0869
-13.242
-32.9261
-21.2479
-31.4234
0.698647
-23.1417
-7.42089
-31.3827
-50.3045
-27.6456
1.69067
-14.0136
-2.66952
1.61446
1.15515
-9.73111
-28.0319
-8.67036
-6.20995
-8.5015
-19.2034
-7.39146
-20.6677
-11.5573
0.739671
-1.81489
-1.75637
0.347623
-5.61673
-16.2376
-4.0155
-22.8734
-12.2502
2.56327
-38.6659
-3.5928
-3.16413
-2.41985
-2.93857
-3.41705
-14.4971
-14.8744
-16.0287
-16.5989
-16.5495
-12.4432
-16.8241
-10.0963
-1.41582
-1.02491
-5.68174
-3.90879
-0.109774
-17.131
-16.3221
-19.4522
-21.1606
-13.6708
-4.09549
-3.76922
-2.20968
-6.72953
-3.59575
-2.56471
-2.67566
-3.51188
-1.97546
-2.10702
-41.012
-4.16715
-2.55157
-2.50882
-4.70304
-4.02196
-5.98714
-48.2759
-13.0377
-88.5243
-16.4234
0.1211
0.0443455
-8.38719
-7.34372
-8.6137
-6.41804
1.53063
1.23162
1.5062
1.61208
1.45781
1.14903
-21.6797
-22.8623
-22.9787
-8.4066
-3.89895
-25.6208
-2.6027
-8.5505
0.898968
-8.12473
1.36496
-8.98915
-29.2351
-9.73152
-89.701
-76.2249
-65.826
-4.9289
-3.68354
-2.25337
-24.7862
-5.54
0.955665
-2.50837
-24.2572
3.0726
-37.3525
2.92783
-43.7623
2.93719
2.61247
0.767804
-25.3731
-8.58313
-10.5378
-8.46837
-11.4416
-9.81254
-19.9997
-12.1073
1.09444
-19.6155
0.784541
-9.23475
-8.84523
-11.7353
-14.1202
-33.3969
-23.8989
-2.83765
-25.7235
-11.0522
-13.8414
-15.3451
-13.8845
-6.43872
-7.47266
-13.9272
-11.5823
-14.6191
-1.59942
-1.06423
-0.236515
-3.32621
-3.99348
-6.55792
-7.77389
-5.81932
-7.67161
-6.60936
-6.01638
-6.47608
-0.949704
-34.0151
-29.2559
-9.19075
-2.68735
-10.6632
-15.654
-13.0566
-13.4854
-18.6401
-13.5118
-7.51475
-10.8771
-26.7391
-12.7084
-15.5526
-6.63332
-9.49676
-8.87289
-30.6524
-15.5145
-38.7444
-23.0429
0.37341
-36.8873
-19.991
-20.0489
-32.3902
-42.4618
-9.58302
-35.1016
-32.3256
-15.8828
-12.1865
-11.7221
-11.6558
-11.4972
-30.961
-3.88372
-5.36542
-3.93409
-3.00288
0.826012
-26.4991
-2.71773
-1.77562
-6.34116
-1.88926
-14.1237
-11.0802
-30.3767
-39.9475
0.776733
-1.87861
-1.23749
-0.411656
-2.14672
1.01015
1.55749
0.826982
-3.47038
0.0664036
-1.71671
-1.8354
-0.37392
0.125916
-0.488089
-5.20799
0.312103
-8.25919
1.0269
1.17787
0.992584
-29.2424
-1.63702
3.27409
0.845336
-0.68727
-0.777425
-1.86058
2.23386
-1.7808
-1.32372
-3.57732
-1.05628
2.60065
2.4401
-3.05122
3.12651
-0.709217
2.58821
3.39773
1.17117
1.64966
0.779219
0.630921
0.569157
-1.48047
1.3169
-4.39367
0.806093
2.46086
2.91064
-0.889716
-4.97108
-10.9273
-24.3592
-14.4403
-7.61666
-6.78289
-3.83455
-0.195817
1.34149
1.49103
-7.65275
-25.4828
-34.837
-29.052
-17.6698
-4.02564
-5.22335
-8.79971
0.906537
-1.83142
-17.3036
-1.73718
-7.68817
-9.97527
-10.2702
1.26446
-15.9383
-22.286
-12.6016
-15.6567
-16.1667
-1.54224
-14.338
-7.00711
1.20212
-7.28213
1.7061
-1.65448
-6.17974
-9.05383
1.10073
-6.8638
-13.4962
-8.49568
1.42939
-22.8039
-1.80074
-2.40692
-18.8328
-16.0348
-18.3276
1.64643
0.792055
1.88331
1.21599
1.01592
0.271092
1.56531
-1.07843
-0.70844
-0.188195
-8.20051
-29.8258
3.06818
-5.47516
-4.13104
-17.1822
-47.2083
0.686246
-0.513805
-7.26112
-2.47021
1.53222
1.12475
-1.99762
-5.96851
-9.73355
-6.15915
-24.8781
-24.5343
-5.25596
-8.14549
-6.44424
-11.5916
-1.27367
-38.5469
-24.5284
-8.35159
-11.8179
-17.341
-6.97259
-42.9457
-7.75338
-7.9757
-6.24404
-17.5804
-5.21622
-8.14809
-13.2747
-18.9964
-42.8373
-12.6531
-0.996335
-4.60318
-47.8838
-42.9904
-4.75018
-6.85245
-8.62869
2.46427
-7.92714
-16.4724
1.61997
1.21034
1.12839
-1.22473
-54.3139
-6.57491
0.955531
-6.14386
-5.7444
-20.7514
-6.36896
-26.4007
-2.77781
-4.20909
1.11916
-27.5676
-14.4724
-4.51464
-31.3739
-28.2936
-20.0852
-8.93723
-27.9658
-23.9424
-26.9644
-11.0054
-29.2906
-27.3334
-12.9974
-13.7171
-20.0826
-21.7828
-10.6915
-30.3369
-22.0569
-66.935
-68.5348
-31.0774
-5.32023
-12.1221
-21.1684
-8.89356
-0.0775362
-21.0196
-8.77716
-22.1249
-19.2755
-0.544517
-2.00858
-2.23973
1.53078
-35.2942
-2.53879
0.142718
2.81356
-38.6773
2.17794
1.30557
0.576916
-1.09949
-0.795113
-1.12019
-32.8363
-1.59666
-9.58729
-16.9383
-31.5898
1.51067
-1.66628
0.772246
-1.49784
0.657164
-0.776839
-6.27106
-21.3094
-18.3775
-1.73415
-8.82989
1.52113
-1.36716
-0.736385
-5.65303
-25.308
-0.641939
-11.0422
-18.6023
-3.64986
-22.9707
-9.14064
-33.2055
-1.30161
-3.47137
0.66282
0.36165
-40.2764
-55.3936
-0.546516
1.39439
-24.7871
-3.77716
-1.10915
0.628837
4.39448
2.02775
-16.6269
1.48106
-5.5647
-23.6808
-27.3204
-50.1603
-13.7019
-6.99313
-51.0378
-14.501
-15.4222
-16.4292
3.19077
-23.2667
1.37583
2.11387
-25.195
-32.7318
-4.82518
-36.7309
-14.2369
-26.1719
-25.6976
-2.46591
-23.1471
-6.86105
-7.2159
-28.2163
-45.941
-34.0243
-54.4471
-17.5913
-7.85267
-10.58
-22.0555
-4.58503
-3.44272
-6.65469
-6.60722
-9.77046
-8.77274
-12.0585
-44.4077
-17.3866
-15.4477
-5.58717
1.24007
-6.53809
-8.75879
-37.2028
-4.13654
-3.22592
-31.2498
-26.2724
-69.1008
-60.6492
1.62739
-10.3394
-56.7712
-16.2774
-21.401
-0.0216873
-2.6137
-26.7511
-17.0797
-7.88645
-13.2377
-70.2472
2.78367
-1.61278
-18.1083
0.390522
-16.4817
-56.0338
-18.2275
-28.4663
-4.45815
-23.9978
-17.0807
-22.3476
-51.9416
-55.5612
-26.6166
-5.2164
-7.3589
-9.77892
-42.4689
-44.9533
-56.3672
-24.6276
0.0628721
-29.6556
-13.6685
-16.7237
1.57754
-0.562055
1.02914
-13.6048
0.789202
-8.61461
-0.380235
0.660515
-39.4688
-15.5427
-30.8871
-23.9685
-22.5247
-14.7217
-5.45448
-15.6723
-14.2946
-1.05336
-0.471987
-29.9719
-21.9421
-11.2484
-1.81987
-5.21506
-57.4293
-69.0691
-86.4618
-9.5132
-84.6746
-3.06358
0.564355
-9.47047
-7.70047
-25.6628
1.46704
1.17528
0.0139157
-21.8514
-24.3797
-12.6557
-4.25161
-18.3675
-11.8834
-2.20826
-20.4999
-19.9086
-13.6626
-1.41116
-6.12644
-18.9814
-19.3758
-18.9742
-35.6976
-5.03304
1.57619
-3.22794
-2.15359
-13.7843
-8.66674
-22.1616
-50.3376
1.3557
-6.09549
2.46889
1.65485
1.85878
3.97427
1.20015
-7.38502
0.911664
-1.3284
-1.25427
-3.03515
-2.61354
2.02739
-9.51306
1.23022
-2.58802
-0.0860563
-22.5402
-8.63555
-13.5388
-29.2379
-40.9101
-21.8993
-9.58687
-6.301
-5.40952
-15.2979
-2.30167
-1.59402
-30.5175
-39.4148
-1.45403
-10.8352
0.849973
-22.6614
-2.66641
-6.66623
-4.52684
0.552799
-2.11365
-2.46989
-22.1823
-0.690501
-2.16202
-8.74249
-32.7154
-2.0699
-2.33179
-7.69498
-6.94275
-2.44807
-11.3842
-24.2771
-71.1112
-6.11232
-0.725409
0.759968
-9.65449
1.57273
-2.60148
-14.0612
-24.2998
-6.51032
-16.6412
-14.1438
-3.06043
-32.0846
0.0638158
-0.917137
-12.1056
-11.7741
-0.704408
1.21408
0.923002
-4.09464
-19.7775
-20.59
-29.483
-56.929
-17.5941
-7.89288
-15.56
-27.1003
-68.1218
-45.8317
-39.4924
-25.0404
-4.14442
-6.96168
-20.8893
-11.3888
-8.36887
-8.64889
-18.011
-22.6769
-7.33333
-20.3384
-44.2707
-26.6382
-21.6812
-2.95127
1.16755
1.64322
-6.23794
0.562547
-19.4198
-15.417
-15.6326
-24.1656
-8.91192
-1.34549
-1.43199
0.714828
-32.525
-7.0122
-35.6331
-21.6595
1.88626
-32.0511
-24.3044
-13.6305
-0.811325
1.80102
-5.85119
-6.28966
-15.6938
-24.5102
-14.5594
-8.52892
-21.892
-4.11916
-20.7411
-21.8525
0.446958
-43.8767
-12.4737
0.794731
-5.02791
2.78785
0.864176
-2.89133
1.28513
-14.8247
-15.792
-13.2624
-8.72944
-38.9594
-4.75594
-26.3622
-3.328
-8.15299
-3.57275
-2.08483
-0.843752
3.30623
-25.366
-5.21997
-5.66426
-6.01815
-31.2201
-24.5567
-3.35758
-6.28673
0.77215
-3.36531
-12.4966
-6.51853
-20.1249
-0.446164
-18.1207
-25.2481
-38.1649
-39.1726
0.948344
-16.7435
-2.5802
-6.3094
-3.75531
-3.93987
-24.8185
-28.4636
-24.1385
-23.3865
-11.5831
-27.5719
-9.08912
-50.9011
-49.9353
-29.3443
-39.8033
-4.85919
-20.5154
-3.8115
-2.53577
-12.435
-4.787
-0.0908461
-12.7381
-34.663
-21.3027
-10.5712
-11.6749
-37.7297
-9.71057
-22.3529
-9.95849
-18.1838
-10.179
-5.11582
-13.1578
-21.0787
-36.1673
-34.1736
-4.57987
-25.4698
-3.33689
-2.5886
-87.8682
-17.2595
1.97563
2.10906
2.0105
2.2711
3.45008
-58.4434
-55.6943
-74.6806
-21.3795
-54.7153
-62.0446
-26.0014
-1.67981
-25.2688
-34.4214
-10.2121
-6.56002
-25.2289
-22.9663
-22.6974
-5.85125
-14.6418
-0.288008
-21.0514
-47.8806
-10.1115
-5.37952
-12.2966
-74.107
-8.28308
-4.54956
-17.2915
-0.748813
-1.78067
-0.875178
-2.70615
-4.96788
-51.5269
2.91287
-2.38832
-7.16104
-9.43494
-19.4271
-18.1299
-7.58852
-25.6441
-27.4532
-4.30278
-25.4002
-6.24612
1.22061
-0.0646665
-7.69602
-8.93589
-9.40626
-9.47187
-5.43622
-8.2274
-11.997
-9.31459
-4.22356
-43.5574
-57.0026
-21.0836
-30.8736
-6.44503
-14.1031
-63.4152
-9.57299
1.41131
-15.2523
-1.19052
-19.4351
-30.4712
-0.740633
-92.3541
-91.2181
-21.0271
-25.8219
-2.71861
-84.8032
-74.9694
-44.2674
-26.0055
-1.40697
-20.0832
-33.6419
0.264538
3.48331
-0.504749
-2.78593
-7.33899
-4.74961
-0.0131425
-20.7614
-2.43284
-0.978194
-2.65943
-31.6906
-23.8052
-18.2688
-23.9865
-23.7554
0.328671
1.5243
-0.550253
-0.787495
-8.0837
-13.0388
-1.18042
-0.517596
0.440371
0.839739
-8.63094
0.524732
-1.14084
0.994906
0.450705
-77.9952
-1.50937
-3.96527
-34.8669
-0.990257
-1.3847
-82.6771
-11.1254
-10.8889
-21.2461
-25.3825
-12.8552
-22.4972
-34.7563
0.292906
-53.5603
-31.6227
-34.2795
-25.2668
-24.7104
-24.2839
-23.6299
-85.498
-3.94561
-0.241886
4.43774
-12.9288
-43.9635
-22.9471
-10.2003
-38.7325
-10.2781
-1.47141
-46.0074
-3.16702
-10.9653
-8.81352
0.368466
-22.3877
-33.3688
-41.4439
-64.7779
-35.8187
-49.1747
-7.47794
-75.8603
-27.8073
-51.916
-0.785952
1.90492
1.51312
3.98576
-0.472097
-5.41215
2.45243
-1.27539
-0.421767
-3.92703
1.20854
-0.702139
-12.209
-4.94238
-4.891
-22.789
-1.21401
-23.356
-7.49906
-0.283366
-5.35913
-29.031
-3.98453
-43.0357
-13.8696
-2.68741
-39.9079
-18.3795
-8.21617
1.7033
-15.1567
-1.06551
-20.5426
-4.18283
-57.5298
-42.3961
-26.2083
-4.94814
-2.27259
-6.65076
-0.439098
-1.613
-1.12726
-9.25219
-12.8473
-53.9375
-28.6497
-45.3588
-51.0139
-0.417915
-1.90716
-8.64301
-2.18093
-11.3885
-21.5681
-4.22229
0.200983
-10.1051
-45.6449
-52.2742
-0.588056
-72.0882
-8.12683
-19.3774
-13.168
-2.30862
-11.6789
-21.1903
-8.71229
1.37622
-1.60411
-1.03111
-4.79381
-2.06507
-25.9825
-16.1336
-0.52015
-7.55801
-36.9245
-9.04381
-1.26209
2.88144
-0.547256
-9.71931
-0.855312
-2.675
-4.9754
-10.3331
1.9876
-4.80908
-2.98072
-17.3716
-3.17474
1.1555
-22.4767
1.25682
0.752998
0.132118
-22.709
-0.868713
1.54511
0.762778
-4.64724
-16.0175
-4.01265
-3.17346
-29.0385
-1.80958
-0.675769
-1.40799
-6.87777
-84.1026
-41.9713
-9.14105
-4.14275
-16.0296
-9.46208
-19.8893
2.06456
0.689437
-11.5927
-5.59526
-22.8011
-18.5539
-34.6394
-1.30795
-28.3457
1.94552
1.43183
-0.130738
0.148029
-5.12192
-2.16578
-14.1861
-2.03758
-1.07827
-1.60919
-10.7344
-11.4084
-25.5858
-62.4928
-3.27387
0.0195843
-4.24743
-76.6039
0.744201
-0.00770321
-12.1851
-0.828432
-4.47569
-7.0404
-6.21633
-2.94964
-14.1249
1.26686
-9.77321
-4.2732
-1.60449
0.0682571
-4.10702
-10.508
-0.544575
0.519035
-0.499175
-0.0799828
-11.3126
-11.3181
-27.5515
-90.0465
-38.2844
-34.4647
-54.2636
-44.405
-33.36
-21.1725
-15.6573
-10.7452
-19.4954
-0.0873866
-1.15259
-46.3549
-10.5924
1.28722
2.06432
1.66882
2.26769
1.81633
-7.49541
-3.89391
-0.950617
-6.09061
-26.0938
-1.45289
-2.63693
-3.45482
-3.89953
-13.9565
-18.1884
-17.1135
-15.2671
-28.9261
-23.3236
-9.78222
-10.3388
-10.1947
-11.6408
0.59446
-10.492
0.587704
0.076157
-6.50513
-22.6503
-45.8522
-25.7971
-14.9038
-17.2124
-17.5289
-6.84786
-23.7721
-18.4525
-19.2502
-8.27447
-23.0476
-22.9961
-18.8343
-13.7004
-38.3872
-24.0596
-18.8497
-43.3367
-10.4905
-8.99726
-8.68647
-3.58181
-20.3198
-1.70261
-6.01846
0.476793
1.89186
-22.7867
-5.7835
-33.9104
-9.55009
-32.8959
-21.1703
-12.0267
0.348312
-7.47622
1.66339
-7.99533
0.891856
-32.6428
-23.5872
-25.3617
-19.3732
-16.3722
-12.5281
-7.07909
-1.84148
-0.368345
-41.7023
-42.876
-15.734
-9.52888
-55.7183
-0.616114
-13.2177
-22.373
-22.7917
-1.39169
0.652223
-16.2534
-1.43658
-57.4883
-29.511
-14.9417
-28.9613
-18.6663
-19.0752
-53.6142
-43.3526
-34.5638
-36.525
-18.28
-41.8141
-30.1048
-18.0813
-19.7501
-30.7359
-18.0058
-21.6041
3.56335
-20.4807
-19.7575
-16.2665
0.230809
0.541212
1.37346
-0.617745
-0.210391
-40.5632
1.58415
1.54969
-30.6208
-7.59416
-31.6518
-8.92547
-40.3856
-4.75296
-43.6529
-26.9643
-17.9269
1.29502
-2.06808
-18.3614
0.970614
1.35553
-19.9774
-13.7651
-13.4659
-3.14158
-12.2784
-15.3923
-1.46049
-10.9241
-3.35931
1.40324
-14.1667
-0.228093
-0.834994
0.777665
-0.789746
-2.02307
-2.61232
-3.14846
0.0218441
-10.536
-12.5425
-2.62924
-5.17764
-13.4427
-6.61643
-1.44275
-0.185754
-13.6842
-9.42353
-11.9265
-12.2327
-8.38432
-11.4331
-12.7918
-8.31973
0.576903
-13.3356
-2.25409
-22.6623
-0.233244
-0.388598
-16.4305
-10.8847
-1.18274
-4.10602
-51.1036
-1.25614
-6.44029
-37.4426
-0.568908
0.443013
-0.488217
-4.18563
-38.725
-37.09
-18.5153
-27.3285
-15.1225
-3.08351
-20.0792
-20.8296
-17.1419
0.803206
-19.4427
-20.2468
-12.5198
-8.91344
-11.7966
-14.2242
-1.48857
-5.73217
-8.85904
-2.89856
-19.5232
-22.77
-5.42475
-3.47296
-4.15724
-6.63935
-57.3573
-20.5167
-73.9795
-9.58529
-35.5213
2.02723
-2.72606
-89.4126
-32.1514
-32.0552
-22.9957
1.92832
-13.8195
-40.1464
-45.307
-57.0048
-17.1595
-31.6656
-29.3409
-44.8016
-42.2627
-33.9672
-35.6503
-36.3261
-6.9774
0.798272
0.462594
-24.6382
2.51112
2.24734
-22.4816
-13.1066
-47.4804
-64.2598
-30.0166
-20.5656
-21.9852
-5.48841
0.732178
-18.6915
-9.63323
-24.5576
-23.9045
-16.7533
-10.9994
3.61575
2.68884
-4.33139
-16.4929
-12.7495
-20.1867
-6.65637
-3.61292
-3.65566
-12.0222
-11.7374
-9.21093
-19.1686
-22.5774
-14.8344
-5.5095
-1.26564
-19.4214
-8.81617
-7.00999
-4.60739
-3.7247
-24.8887
-33.5419
-6.65003
-39.4706
-30.1799
-27.8785
-34.5579
-41.6101
-59.3889
-60.758
-33.1728
-7.12985
-19.1512
-4.82552
-55.4657
-12.1426
-80.484
-14.4115
-17.3664
-3.69139
-10.7186
-1.13612
3.9429
-1.13893
-34.733
-6.66966
1.14593
-0.346039
-35.4191
-5.36938
-6.93629
-4.99794
-88.9091
-6.09829
-3.86707
-72.0143
-71.2845
-42.602
-64.9227
-7.7745
-37.9909
-21.403
-7.49265
-6.91536
-10.3466
-3.11545
-71.3642
-17.3445
-5.04593
-66.0029
1.70815
-1.3843
1.47965
-0.0606752
-1.59163
-8.27968
-3.44692
-16.5536
-13.7036
-11.0399
-17.9728
-47.6376
-9.10334
-9.87827
-8.92492
-6.61939
-5.79415
3.08596
-8.61571
-30.5064
-6.87883
-8.03812
-4.38399
-4.75702
3.52467
-2.81551
-7.62207
0.960724
1.60965
1.94084
-3.21101
-0.403611
-1.84797
-1.70011
-2.64659
-4.5251
-1.26468
-17.3731
-13.9628
-19.3885
-13.5071
-23.2797
-22.7049
-15.7486
-26.22
-21.8628
-22.7787
-26.861
-54.9442
-22.3732
-18.4649
-9.22023
-86.2238
-71.3202
-19.6908
-8.54806
-24.164
-25.2265
-32.4935
-45.2976
-58.1644
-25.87
-27.7619
-7.72296
-4.72247
-15.8761
-14.4456
-19.1502
-29.5011
-74.4573
-28.2311
-10.0706
-36.8007
-0.260599
-8.75001
-15.9417
-7.34017
-12.2756
-7.5151
1.52448
0.101452
-32.4805
-15.0968
1.90509
-2.11781
-7.00141
-5.07535
-2.96792
0.415225
-29.8797
-28.3156
-0.914363
-11.2037
-24.4343
-7.22387
-5.46692
-13.802
-18.9449
-11.6135
-2.56269
-14.1858
-21.2946
-4.91178
-0.356991
-13.4709
-1.59848
-0.376129
4.32044
-4.73485
-1.34632
0.557371
-0.179332
-10.9805
-41.905
-2.48884
-16.7715
-18.7742
-10.2287
-8.02735
-41.5383
-50.5653
1.56812
-51.0984
0.938013
2.20348
1.10449
1.70652
-0.28354
-2.95615
2.36913
2.67237
-1.30934
-3.68524
0.745214
-0.675997
-19.7795
-2.93159
-6.21173
-17.4741
-19.0688
-36.9457
-51.4887
-47.9208
-41.1579
-39.5497
-4.42145
-7.95495
-5.41082
-3.55083
-2.97092
-4.15552
-1.74274
-19.3614
-34.0485
-38.1555
-27.7381
-48.4021
-23.5648
-46.1431
-35.6077
-38.4204
-3.04446
-2.52364
-13.6659
-22.3728
-42.3654
-38.6747
-18.3911
-21.6435
-20.1232
-15.4691
-6.98892
-15.9164
-10.6129
-31.4888
-13.5989
-15.0266
-2.52319
-15.6617
-24.3148
-7.07789
-8.40827
-5.4951
-25.2045
1.42987
1.34041
-0.0391238
-5.16353
-22.8124
-20.4544
-3.91439
-6.29601
1.55746
4.14305
0.675132
-42.9202
-77.9072
-64.5322
1.3398
-74.9898
-51.8908
0.683904
-18.5342
-0.325682
-3.6833
-7.7937
-7.25035
-2.85432
-16.1889
-2.35949
-2.61467
-18.5332
-21.3024
-12.7557
-1.43003
0.440344
-0.127217
2.1749
0.804294
-0.240801
-30.8964
-35.7078
-27.5597
0.0779464
0.456338
-9.68521
0.940401
-0.851891
0.901948
-3.41352
-3.47904
-1.87223
0.547195
-5.06779
-3.58444
-2.48508
-2.47317
-1.74797
-3.26155
-3.68273
1.2565
-5.37945
-8.01423
-0.212385
0.182019
-43.1319
-12.8492
0.807027
-2.80616
-13.377
0.916675
-4.06246
-0.980334
-6.99914
-11.1772
-3.76715
-22.0052
-60.7662
1.63769
1.16052
-19.1609
-2.50206
-13.1283
-8.22172
-10.6607
-9.18409
-16.956
-24.6813
-21.0437
-2.0712
-16.0426
-39.4031
-33.7845
-15.5664
-2.0289
-18.6479
-28.8182
-5.64926
-33.2519
-6.16317
-27.7695
-37.7656
-26.7919
-26.4469
-43.9284
1.18187
-12.0106
1.51028
-1.09972
0.102543
0.900847
-3.03442
-2.08022
1.71486
-0.0701815
0.506826
4.1286
2.78362
2.21533
3.90175
-9.54354
-3.9467
-0.150747
0.189977
0.290484
-5.81505
-6.9913
-24.4959
-2.03124
-1.78247
-3.21079
-67.2612
-47.8683
-9.83968
-38.5376
-29.6338
-13.4704
-14.1536
-0.842457
-0.348359
-1.12196
-12.3146
-17.9355
-0.325533
-4.50652
-17.232
-4.17486
0.642788
-3.80603
-27.9397
-49.1135
-30.6925
1.05942
-3.67471
-3.53803
-0.412047
-11.0981
-0.143535
-30.6037
-12.0739
-7.60113
-3.15398
0.459374
1.95147
-22.6305
-15.9305
-20.1393
-18.9036
-17.0674
-12.4528
-19.827
-3.65842
-2.67227
-5.54214
-2.32364
4.22887
1.22109
1.11862
-25.3362
-7.82073
-24.8504
-50.2431
-19.609
-5.90817
-25.5095
-5.7774
-25.4576
-2.60738
-23.566
-2.77654
-10.431
-23.0021
-10.4285
-30.694
-8.55077
-41.2406
-13.563
-22.0781
-18.6204
-34.4901
-12.5673
-24.0944
-27.7908
-28.8637
-65.3338
-13.7191
-10.3811
-5.05311
-5.13789
-15.3538
-15.3784
-22.9287
-7.0478
-18.6712
-3.37926
-8.12055
-10.8005
-6.05601
-4.59422
1.8342
-5.21614
-1.5425
-9.09491
-3.14556
2.28999
1.42047
0.675241
1.49991
-7.76558
-13.3148
-2.34296
-6.49337
2.81972
-4.58851
-2.89778
-6.19856
-1.37801
-3.57173
-2.56773
2.92064
-4.69338
-3.08077
-3.20784
-3.10873
-3.0469
-3.8634
-2.85074
-9.86729
-3.15843
-5.94394
-2.93027
-7.33927
-18.7054
-5.64883
-11.0924
-35.0776
-20.0927
-19.1746
0.432538
-3.09222
-3.12811
-1.35134
-0.240289
-1.64026
-0.651505
0.956845
-2.46297
-1.93182
-1.18642
-5.00226
-0.00374473
-1.71052
-0.162979
-0.637651
0.472049
-0.432701
-0.885491
-3.14856
-6.24466
0.491193
-10.2511
-3.63512
-9.46254
-12.497
-39.2164
-9.42805
-10.2227
-27.6555
-13.6063
-14.9129
-13.2416
-12.7448
-18.1901
-11.844
-7.72055
-10.5354
-3.65125
-5.7881
0.732429
-5.51882
-16.8421
-10.6441
-18.8313
-19.4326
-2.26248
-3.84994
-4.77243
-4.41973
-5.92144
-3.26045
-10.649
-2.71143
-16.2796
-2.09575
-1.90207
-22.8468
-1.84853
-10.4339
-13.7757
-7.63421
-6.7411
-19.1324
-31.7042
-3.96086
-5.55684
-2.15509
0.827037
0.370385
-0.0857101
0.696196
-10.0872
0.323414
0.769983
-14.8948
-5.22684
-13.1586
-12.078
-11.339
-12.9357
-34.9275
-41.159
-9.92342
-7.15167
-3.71545
-1.2398
-0.621621
-4.27321
2.13176
-0.104866
-28.1564
0.524587
-16.9092
1.78482
-0.0148192
-0.371565
-4.35501
-3.61598
0.0216913
-11.1205
-26.5139
-13.939
0.651391
1.04323
-18.7243
-13.1105
-15.5035
-20.8682
-20.5082
0.309894
0.411811
0.178507
-21.3221
-15.0136
-14.318
-17.799
-0.769753
-6.139
-24.0814
-21.4235
-43.0422
-39.2805
-21.1742
-22.4386
0.61564
0.875691
2.06115
-23.6507
-18.5795
-9.74639
-13.6643
-12.1513
-12.5271
-24.5056
-1.27681
-1.07875
-1.5162
-17.77
-14.7722
-14.3245
-27.4215
-18.8836
-26.3629
-16.5057
-14.5276
-20.9692
-17.1281
-2.0091
-14.1303
-29.4045
-43.7823
-17.8123
-33.8899
-18.4733
0.201714
-22.022
-3.17807
-5.92159
1.43644
1.51214
-0.576442
0.193959
-10.7465
-3.65661
-8.58257
-13.3245
-14.702
-20.1099
-21.4754
-28.9871
-9.95803
-21.7041
-23.2387
-10.3881
-23.1279
0.87807
-7.94839
-5.02778
-7.84826
-30.3271
0.375408
-34.7183
-35.0431
-15.1403
-28.265
-14.8863
-25.3909
-47.1724
-29.984
2.18467
-29.5709
-44.5686
-9.91063
-10.949
-35.7125
-22.1992
-15.1758
-30.6938
-37.7931
-38.4875
-29.2619
-38.6426
-30.2803
-5.55954
-7.30633
-52.4874
-38.7331
-94.7252
-21.4374
-33.8437
-31.6473
-9.3079
-4.76565
-23.4693
-38.3592
-15.6623
-11.185
-24.0552
-15.3477
-8.92659
-0.926344
-9.57064
-4.25428
-23.0391
-15.4353
-19.7842
-17.5528
1.07298
-19.1617
-14.6843
-9.3947
-16.7591
-8.43168
0.332667
-0.128843
-4.62183
-7.05461
-70.3324
-4.86529
-2.43311
-2.9214
-2.52096
-62.2362
-1.66735
-1.67304
-2.57141
-4.38999
-2.255
-5.61277
3.02391
1.44457
-4.30082
-9.61183
-1.63395
-0.643305
-1.76782
0.817578
0.718554
-1.40092
-5.21901
-27.3205
-29.7716
-37.456
-26.3221
-8.66284
-0.906256
-30.0377
-0.694804
-0.425566
-1.31295
-0.862711
-0.313079
-5.75515
-6.27637
-4.36216
-10.4128
-5.73339
-31.5768
-29.7484
-4.58478
-12.3595
-7.78345
-9.69226
-26.2668
-18.2449
-17.6324
-20.494
-12.9566
-8.60448
-87.0567
-5.85565
-40.3078
-6.09467
-28.2139
-14.9462
-1.70562
-6.83636
-10.8833
-5.8535
-7.41986
-4.31821
-0.895927
-12.7183
-1.6377
-1.59522
-4.1598
-3.9359
-39.9968
-10.7389
-0.472155
-50.5525
-25.6739
-41.3446
-0.998054
-7.03898
-5.43621
-2.66383
-1.31912
-24.2876
-6.48535
-1.98592
0.0703729
-1.04788
-5.00428
-5.0175
-4.07274
-4.02375
-4.34411
1.20896
-8.76187
-20.5637
-4.69354
-17.1818
-18.4379
-1.56539
-16.4377
-31.4974
-6.50606
0.552125
-13.3115
2.12823
-3.78293
0.130094
-3.06661
-15.9817
-36.2989
-22.5963
-42.4358
-16.493
-39.7005
-64.2054
-17.1822
-4.79122
-4.83093
-6.01814
-1.0848
-65.3508
-37.6048
-22.705
-31.412
-28.6823
-6.07341
-41.187
-22.7473
-52.3137
-50.6625
-47.2178
-32.2801
-22.0446
-24.5276
-79.6607
-22.7056
-86.1179
-15.1542
-40.4179
-36.8328
-36.603
0.163858
-0.473534
-17.6367
-11.008
-60.0445
-76.4504
-10.1497
-23.5836
-10.5222
-9.37813
-10.8663
-12.6155
-32.9875
-4.48501
-12.3711
-17.3616
-11.5116
-8.78364
-12.9863
-21.4552
-13.7799
-16.7608
-24.7021
-18.9949
-9.25125
-14.0725
-8.15163
-13.565
-21.7198
-12.7094
-8.59411
-28.3896
-20.4095
-16.2754
-20.4803
-19.5308
-82.8042
-60.2841
-67.0788
-91.0264
-3.16742
-3.34975
-9.69274
-19.5171
-4.40602
-4.34076
1.26546
-4.10383
-3.11759
-8.21865
-4.97674
-6.64873
-2.39147
-3.3559
1.0291
-1.99847
-54.6436
-6.96199
-16.6055
-19.0236
-35.5623
-23.0835
-22.7536
-24.0937
-15.8664
-18.8896
-23.5501
-27.5066
-20.9748
-21.799
-25.5449
-49.3596
-12.5918
-51.4903
-20.1745
-16.1638
-26.5718
-6.86999
-5.77818
-8.22333
-9.12435
-21.5208
-11.2649
-8.95486
-9.74802
-7.67707
-6.65849
-14.5693
-1.24664
-1.14968
3.15321
-6.76636
-3.45405
-0.472534
-2.1517
-0.992884
-4.88211
-3.46787
1.62891
-1.708
1.37144
-14.5747
0.628099
1.09395
1.59229
-2.2139
-13.8885
-1.59025
0.570158
-38.5657
-0.539617
-2.48158
-16.6606
-33.9727
-31.5417
-45.3246
-3.28097
-15.5044
-6.48777
-3.35665
-3.53592
-3.16548
0.441269
-4.12389
-6.06082
-68.1155
-11.137
-0.158855
-31.5235
-13.7127
-17.3229
-23.404
-12.0587
-0.848645
1.07209
0.814837
-43.0154
-17.4435
-47.9616
1.404
-1.85051
2.02577
-1.32586
2.00607
0.754416
1.78401
1.05062
-2.18387
-2.23468
-1.74214
-1.30671
-28.0825
1.24409
-0.100037
-0.340883
-8.51669
-4.96944
-9.03835
1.25074
1.57234
2.40499
3.39468
-11.3192
-5.88302
-6.08603
1.15008
-1.42935
-0.999599
-19.0183
-16.1499
-8.3976
-11.1207
-11.0785
1.38151
0.609585
1.07408
-11.9125
0.345808
-1.47272
1.0075
-14.242
-7.00607
-12.3271
-3.70327
-25.8132
-5.60312
-8.09093
0.637783
-4.37059
-3.32279
-58.7922
1.24723
-29.8582
-10.2419
-16.3956
-24.6961
-5.14761
-4.39103
-4.66809
-2.30034
-4.5865
-89.6364
-76.7216
-94.4349
-84.5302
-92.1524
-9.98186
-6.70577
-64.7349
-38.9624
-53.3946
-6.85648
-15.3021
-19.0736
-6.41573
-2.36646
-0.305898
0.863769
-4.99458
-7.57497
2.87232
-64.2407
-37.7828
-25.2959
-44.3041
-1.51205
1.60236
0.704925
1.48143
-3.6914
-3.55648
-0.31751
-1.50573
-7.37563
1.10203
-1.39844
1.59897
0.543192
-0.597729
0.245706
-0.114335
-2.12011
1.21292
-30.5575
-12.696
-2.59276
-5.43975
-3.6517
-12.76
-8.51307
-23.9944
0.492819
-5.42724
-10.9141
-10.0956
-9.69664
-10.1488
-9.14922
-7.47807
-26.1029
-14.2162
-0.393996
-13.3279
-9.66973
-4.44321
-40.1329
-14.0055
-20.1841
-17.6136
-32.1216
-31.3705
-41.6905
-33.1534
-54.9083
-12.4925
-22.1329
-16.538
-12.7938
-10.8028
-6.96784
-3.45678
-31.0378
-12.5249
-13.7092
-1.63594
-22.3384
-25.2109
-24.0692
-22.7311
2.64929
-17.2532
-5.2355
-12.4734
0.639376
-17.4694
-22.6776
-18.4007
-22.7847
-6.80637
-13.1252
-23.8505
-0.449062
-27.1017
-19.6526
-20.427
-13.2941
-16.1602
-18.5103
-15.903
-9.28536
-41.1446
-18.7767
-19.5263
-33.1345
-47.3619
0.928843
-24.1136
-17.5641
-3.34246
2.53354
2.1876
-0.963497
-53.2644
-2.9927
-1.07483
0.421769
-3.65955
-2.43838
-5.88052
-2.10911
-21.2114
-3.66436
-19.6135
-13.4827
-19.3506
-26.2016
-4.46124
-10.3722
-6.03683
-20.4074
-8.1692
-13.0042
-11.5014
-1.57293
-1.49493
-2.44378
-1.73396
0.876068
0.408848
-1.01815
-1.6329
-10.6974
-0.0541413
0.626336
0.94785
-0.53439
0.862641
-7.1705
-3.0286
-9.95742
-16.9805
-3.0372
-19.6445
-13.6679
-17.9531
-7.15805
-1.70772
-2.16515
-1.92001
-0.0911333
-4.01027
0.18838
3.99593
0.996298
-5.63516
-8.55593
0.410025
-5.57831
-2.61512
-4.61701
-3.27997
-21.858
-27.4918
-4.6353
-5.85229
-1.64227
-12.0015
-9.76755
-9.09395
-10.043
-10.9611
-14.4354
-25.308
-19.3545
-3.01115
-6.30303
2.29953
-3.63303
1.67941
-6.6361
0.437521
-8.18846
-5.37577
-4.69823
-9.27488
-23.7905
-35.1954
-24.5471
-9.86583
-15.5786
-23.3318
-28.2775
-44.9432
-17.3264
-33.0188
2.13409
-13.6122
-1.51619
-18.5645
-14.0739
-18.1254
-23.8768
-6.33091
-40.2489
-16.4063
-6.62128
-5.57306
-32.4958
-9.12611
-8.25651
-6.72697
1.56628
1.48392
-10.1621
-2.25633
-6.78118
-4.44627
-6.85175
-11.1855
-1.83292
-29.7933
-4.80069
-4.86145
-39.2557
1.53766
-35.7326
-11.976
-75.9178
-20.7183
-26.0604
-3.0681
-2.10724
-1.62796
-5.21011
1.61328
1.14349
-3.17896
-24.9501
-33.8932
1.12256
-13.5294
-6.65375
-10.1352
-7.46484
-24.7126
0.232603
0.98829
-15.4896
-2.42428
-2.51675
-3.90927
0.104786
-71.7415
-56.9333
-64.5207
-30.7588
-12.3791
1.06937
-5.28684
0.966559
-34.8056
-2.17335
-2.5586
-37.0483
4.37241
-43.3495
-17.2786
-7.35588
-3.62021
-5.51465
-2.0008
-10.6272
-20.8066
-40.2389
-65.912
0.67787
-0.915827
-1.82449
-4.91658
-11.0442
-14.5328
-9.21455
-23.0051
0.45572
-28.4646
0.42153
-15.3645
-1.26197
0.343511
-11.9493
-16.4095
-13.6332
-9.60032
-8.47523
2.68544
0.162095
-12.1534
-9.20848
-16.326
-22.684
-4.14738
-4.98755
-0.298142
-25.3785
-0.899959
-4.6193
-0.608492
-1.71424
0.0488391
-29.1347
1.13986
-4.31736
-47.6074
-21.1109
-15.1559
-7.2079
-1.67015
-1.02627
-6.60387
-1.94462
-7.90366
-0.729978
2.00374
-1.05999
-12.9621
2.05498
-0.701293
-1.45734
-1.61783
1.01903
0.328179
1.17673
1.10119
-9.8344
-5.65445
-23.3423
-25.147
-23.899
-48.251
-24.5424
-23.3432
-22.818
-23.4709
-35.9198
-21.5094
-17.1463
-48.1173
-46.6849
-43.4741
-65.6965
-108.859
-90.9546
0.298962
-35.2863
-25.8424
-20.0069
-24.3626
-57.8292
-54.2692
2.98931
-89.7947
-93.5858
0.174958
-78.3522
-5.21217
-22.4793
-58.1728
3.76655
-55.7673
-10.6326
-12.6468