/*--------------------------------*- C++ -*----------------------------------*\
| =========                 |                                                 |
| \\      /  F ield         | OpenFOAM: The Open Source CFD Toolbox           |
|  \\    /   O peration     | Version:  2506                                  |
|   \\  /    A nd           | Website:  www.openfoam.com                      |
|    \\/     M anipulation  |                                                 |
\*---------------------------------------------------------------------------*/
FoamFile
{
    version     2.0;
    format      ascii;
    arch        "LSB;label=32;scalar=64";
    class       volScalarField;
    location    "0.0689058";
    object      k;
}
// * * * * * * * * * * * * * * * * * * * * * * * * * * * * * * * * * * * * * //

dimensions      [0 2 -2 0 0 0 0];

internalField   nonuniform List<scalar> 
3975
(
0.358579
0.291933
0.334975
0.323749
0.319139
0.341481
0.387176
0.393012
0.329357
0.310625
0.323839
0.36362
0.312428
0.375471
0.308082
0.300141
0.301286
0.300914
0.301723
0.298929
0.396928
0.316533
0.302724
0.367952
0.365511
0.33829
0.64946
0.298968
0.332882
0.299593
0.310988
0.361071
0.329621
0.305828
0.308031
0.440656
0.303449
0.309646
0.304187
0.305375
0.303676
0.309067
0.309825
0.307945
0.346809
0.307264
0.311349
0.307723
0.391054
0.342389
0.295324
0.318982
0.329031
0.449288
0.45178
0.458991
0.45114
0.432007
0.412959
0.40151
0.372592
0.750416
0.452903
0.36783
0.303312
0.466465
0.335622
0.303654
0.472389
0.845898
0.806936
0.726146
0.782251
0.358502
0.336493
0.381934
0.336812
0.362311
0.380434
0.349949
0.321125
0.293014
0.298505
0.340635
0.304291
0.434988
0.392608
0.332543
0.298389
0.332983
0.310175
0.293477
0.368462
0.31197
0.876257
0.323948
0.306221
0.748043
0.327486
0.626676
0.308934
0.580879
0.338807
0.360337
0.319021
0.36717
0.329482
0.334017
0.336095
0.345426
0.357072
0.29498
0.30412
0.300339
0.299922
0.37129
0.379112
0.386373
0.483267
0.376031
0.305995
0.508608
0.299429
0.456801
0.422181
0.47757
0.36149
0.393074
0.368364
0.385758
0.389751
0.372812
0.311344
0.305456
0.313986
0.313567
0.382637
0.3085
0.32193
0.359337
0.310322
0.331469
0.336813
0.299005
0.490727
0.300546
0.322752
0.379057
0.313623
0.353928
0.34249
0.370041
0.339329
0.354919
0.642362
0.359643
0.337939
0.302726
0.310149
0.289905
0.321815
0.300878
0.41936
0.357665
0.310883
0.423211
0.413923
0.900168
0.332539
0.311181
0.322387
0.309854
0.315141
0.388564
1.04245
0.31863
0.377209
0.338019
0.413608
0.306056
0.327779
0.304177
0.45777
0.459794
0.32537
0.320022
0.429281
0.402806
0.410714
0.440622
0.370544
0.30829
0.38083
0.312194
0.367535
0.30533
0.341313
0.315169
0.315293
0.298024
0.359274
0.308019
0.292442
0.300943
0.29929
0.299811
0.323139
0.803059
0.35125
0.730055
0.33471
0.468457
0.340708
0.4282
0.365846
0.313592
0.323906
0.321198
0.292943
0.360454
0.297801
0.427863
0.320294
0.377372
0.357415
0.393094
0.746365
0.309133
0.455645
0.303659
0.387727
0.315197
0.368885
0.332026
0.302686
0.306622
0.353643
0.35645
0.537784
0.378345
0.311555
0.440319
0.31304
0.469405
0.303973
0.791948
0.365162
0.385907
0.741749
0.307983
0.316474
0.299889
0.382067
0.945443
0.304552
0.304452
0.452233
0.456736
0.834782
0.750619
0.423777
0.562266
0.339666
0.358367
0.443653
0.34291
0.948675
0.303329
0.327078
0.310048
0.403489
0.389825
0.404382
0.375761
0.378282
0.324922
0.368798
0.339437
0.937219
0.682436
0.709752
0.341086
0.320545
0.297194
0.303167
0.301278
0.494401
0.307369
0.944874
0.366135
0.354452
0.349554
0.305271
0.406303
0.39378
0.408544
0.42979
0.406128
0.457554
0.344353
0.457941
0.448044
0.303659
0.426887
0.439385
0.423019
0.442163
0.46436
0.455986
0.398701
0.306761
0.304736
0.338324
0.309799
0.302103
0.456872
0.367861
0.412926
0.31838
0.315308
0.306858
0.292476
0.300034
0.303403
0.560305
0.347571
0.323217
0.300353
0.345795
0.432783
0.348698
0.350007
0.333968
0.334709
0.484749
0.429654
0.413879
0.458611
0.49694
0.496099
0.43725
0.456505
0.388853
0.441054
0.427693
0.30576
0.314801
0.341904
0.32776
0.309461
0.451421
0.399348
0.432193
0.433872
0.383832
0.380301
0.297463
0.443159
0.351323
0.324224
0.358225
0.852801
0.368457
0.306777
0.306584
0.305839
0.405924
0.306543
0.297799
0.311515
0.313925
0.499458
0.35212
0.363565
0.345895
0.393939
0.306259
1.04911
0.535669
0.383677
0.67225
0.479431
0.314453
0.498562
0.485508
0.487337
0.360399
0.531574
0.483359
0.473622
0.307005
0.301061
0.48328
0.346853
0.297126
0.29636
0.307194
0.403194
0.310826
0.317132
0.309042
0.327974
0.308388
0.303703
0.336485
0.32321
0.381068
0.331056
0.334705
0.33729
0.312177
0.368705
0.585585
0.613228
0.292839
0.740464
0.345852
0.302688
0.465632
0.351737
0.324397
0.368516
0.333062
0.51476
0.513014
0.534053
0.354206
0.464531
0.313404
0.520917
0.453169
0.375557
0.353855
0.595256
0.399336
0.302252
0.363123
0.304812
0.495066
0.354309
0.298932
0.364334
0.564215
0.935635
1.00767
0.344761
0.310399
0.427206
0.897357
0.32574
0.311507
0.341549
0.309234
0.324287
0.454875
0.318081
0.360043
0.323973
0.320331
0.333429
0.296138
0.554231
0.327193
0.319834
0.481527
0.335459
0.316431
0.305626
0.319417
0.308925
0.469207
0.306815
0.329992
0.423456
0.328698
0.617384
0.333485
0.340636
0.335
0.317243
0.315702
0.318829
0.297285
0.333807
0.305783
0.473348
0.456956
0.75472
0.761356
0.458487
0.332458
0.339791
0.305572
0.522891
0.298168
0.351016
0.339007
0.347857
0.424546
0.560761
0.877709
0.313759
0.323463
0.351762
0.305976
0.335374
0.358138
0.682136
0.365984
0.352041
0.384126
0.328359
0.344168
0.806531
0.319488
0.29194
0.30561
0.355564
0.299601
0.306536
0.423518
0.307392
0.426493
0.630719
0.623823
0.462537
0.416822
0.918911
0.327558
0.327224
0.322519
0.367038
0.307877
0.307534
0.383788
0.355388
0.346762
0.343114
0.86708
0.384184
0.3231
0.325858
0.312081
0.450031
0.64927
0.915005
0.358074
0.895877
0.60952
0.368372
0.482665
0.311369
0.40914
0.354646
0.469279
0.47633
0.308529
0.314125
0.308729
0.323832
0.298974
0.363616
0.496956
0.670116
0.670049
0.855318
0.62999
0.526503
0.933679
0.860171
0.296709
0.326345
0.300909
0.299917
0.318902
0.298995
0.303343
0.360297
0.300331
0.310742
0.302455
0.363014
0.397918
0.306942
0.299683
0.30587
0.307902
0.320241
0.33014
0.348606
0.37292
0.330177
0.326901
0.482767
0.302689
0.300931
0.301804
0.296759
0.303481
0.333527
0.31212
0.339098
0.807527
0.443808
0.396245
0.435476
0.298929
0.369903
0.397292
0.402233
0.386714
0.388231
0.305133
0.300889
0.303636
0.293916
0.330827
0.299364
0.296016
0.330957
0.314048
0.309532
0.318422
0.303522
0.294236
0.297956
0.374806
0.318147
0.306693
0.301325
0.301828
0.297628
0.366155
0.338858
0.302447
0.300618
0.312187
0.294917
0.419783
0.301633
0.313805
0.295577
0.31816
0.334499
0.321984
0.453556
0.3223
0.298795
0.476087
0.448151
0.327816
0.371619
0.641706
0.841233
0.403505
0.880775
0.484127
0.51647
0.4298
0.791753
0.627225
0.859535
0.351591
0.800607
0.75129
0.826478
0.714782
0.902547
0.341424
0.345041
0.363026
0.363718
0.357484
0.347366
0.294193
0.547079
0.325352
0.313116
0.312679
0.321569
0.307264
0.302584
0.322897
0.314618
0.342529
0.322405
0.306432
0.297815
0.329514
0.335418
0.307547
0.420698
0.341762
0.35216
0.322893
0.308088
0.529216
0.393859
0.340171
0.344217
0.511688
0.309226
0.37288
0.770216
0.30894
0.426399
0.373314
0.324794
0.300384
0.630559
0.326774
0.307816
0.305806
0.317132
0.335488
0.33345
0.300349
0.29667
0.378819
0.34871
0.324727
0.33317
0.299248
0.30031
0.347397
0.298393
0.37766
0.301628
0.299299
0.294338
0.365357
0.362425
0.356517
0.354524
0.380634
0.355105
0.358006
0.317349
0.718961
0.342509
0.706859
0.358367
0.513323
0.415426
0.956168
0.344678
0.33016
0.307065
0.41903
0.309041
0.575943
0.352829
0.299347
0.315426
0.618151
0.30547
0.332278
0.33812
0.314601
0.301026
0.304969
0.330804
0.340914
0.331009
0.333413
0.301123
0.317511
0.303673
0.319617
0.320493
0.467187
0.299298
0.301736
0.306957
0.384131
0.304917
0.351497
0.299692
0.311649
0.346582
0.324409
0.791653
0.478239
0.303056
0.299169
0.318005
0.383879
0.327138
0.385297
0.310572
0.375356
0.371483
0.870693
0.331881
0.438569
0.471364
0.349728
0.383432
0.308404
0.379034
0.368827
0.370601
0.334916
0.372522
0.836824
0.297451
0.320047
0.296359
0.738693
0.315498
0.384319
0.35
0.30761
0.50773
0.532631
0.432349
0.884712
0.449271
0.456895
0.730714
0.389729
0.356979
0.384484
0.352452
0.412487
0.650417
0.631593
0.33288
0.80474
0.642246
0.681994
0.76522
0.851389
0.758154
0.844802
0.66902
0.436626
0.436335
0.706425
0.67035
0.54484
0.895669
0.925113
0.423539
0.474805
0.309212
0.431316
0.457993
0.477834
0.373688
0.338139
0.478112
0.464158
0.622572
0.590319
0.441042
0.356402
0.592993
0.598007
0.348412
0.313981
0.30679
0.389782
0.359317
0.369644
0.355708
0.338178
0.344499
0.338711
0.322469
0.304021
0.3036
0.352504
0.311219
0.331737
0.318524
0.308334
0.311744
0.338693
0.335896
0.473353
0.306888
0.309009
0.297024
0.353098
0.326256
0.324087
0.455706
0.355361
0.408477
0.408724
0.435064
0.429053
0.440129
0.407367
0.443382
0.363154
0.331952
0.313537
0.382415
0.51838
0.591169
0.357108
0.575592
0.57661
0.591251
0.42722
0.451901
0.431735
0.424423
0.35902
0.328806
0.319754
0.314912
0.327645
0.332109
0.323476
0.386604
0.409723
0.47952
0.847625
0.301523
0.328186
0.307764
0.310041
0.345161
0.330455
0.337654
0.383024
0.404889
0.489379
0.469164
0.421564
0.448136
0.380583
0.848438
0.396381
0.368987
0.429622
0.412198
0.43542
0.450088
0.383062
0.354361
0.340228
0.32495
0.416627
0.412821
0.421159
0.450207
0.422193
0.308423
0.306069
0.305322
0.302735
0.305713
0.325425
0.322383
0.339834
0.335503
0.312923
0.310753
0.339303
0.312244
0.304574
0.297317
0.311915
0.330901
0.330869
0.330226
0.32276
0.316782
0.312141
0.303891
0.308924
0.297558
0.298841
0.32257
0.296068
0.302714
0.489581
0.5642
0.392142
0.362733
0.385
0.47109
0.40833
0.597649
0.473585
0.344302
0.305693
0.365984
0.429611
0.320532
0.341708
0.298279
0.433259
0.436243
0.32111
0.373085
0.376417
0.374822
0.306749
0.32749
0.332517
0.308666
0.33039
0.540767
0.771819
0.360847
1.11397
0.301779
0.300171
0.289425
0.369415
0.353265
0.302472
0.296597
0.362112
0.296617
0.338187
0.361659
0.38755
0.39048
0.401102
0.427038
0.339632
0.302582
0.335899
0.301239
0.79763
0.413243
0.333475
0.418314
0.455992
0.452617
0.499441
0.479088
0.383766
0.360331
0.400332
0.376161
0.289185
0.367358
0.373494
0.359615
0.394505
0.310264
0.373487
0.299766
0.364262
0.358941
0.348666
0.28847
0.343733
0.30393
0.303695
0.361523
0.394609
0.46332
0.302807
0.306839
0.305597
0.46082
0.391264
0.327311
0.374818
0.334165
0.332428
0.362931
0.379189
0.31216
0.299666
0.297778
0.297205
0.32744
0.336374
0.34271
0.36115
0.423515
0.312369
0.457998
0.439354
0.320438
0.582469
0.673585
0.449391
0.297367
0.35834
0.320685
0.458264
0.384084
0.303258
0.311213
0.429934
0.297006
0.328006
0.342626
0.484652
0.361078
0.429364
0.36422
0.770305
0.481476
0.343059
0.630885
0.446666
0.328986
0.297985
0.297652
0.302471
0.352297
0.313604
0.30344
0.30419
0.300791
0.300163
0.362458
0.300863
0.344744
0.31054
0.31848
0.336649
0.377441
0.482917
0.336018
0.68336
0.881142
0.8027
0.797823
1.01227
0.308795
0.434285
0.323716
0.40492
0.327169
0.770219
0.439469
0.525797
0.86379
0.592422
0.631566
0.753762
0.647165
0.31453
0.404859
0.366701
0.314904
0.33132
0.324706
0.343563
0.333252
0.326659
0.508815
0.885264
0.526874
0.351723
0.358555
0.58293
0.669296
0.377315
0.315653
0.324963
0.305334
0.309095
0.295716
0.297156
0.308738
0.315103
0.29313
0.303977
0.32445
0.298575
0.301888
0.303883
0.334021
0.387087
0.341249
0.310129
0.483404
0.303638
0.5936
0.30792
0.30795
0.369948
0.781446
0.818973
0.363442
0.336953
0.316685
0.30467
0.304643
0.353462
0.375565
0.657303
0.306731
0.307455
0.31967
0.328719
0.313451
0.422849
0.372186
0.39422
0.316836
0.395902
0.296709
0.29947
0.297535
0.302701
0.29764
0.298091
0.307078
0.331223
0.299281
0.299625
0.388852
0.338693
0.295812
0.30583
0.349238
0.325341
0.299562
0.304088
0.318718
0.318152
0.310989
0.304069
0.432814
0.662006
0.297723
0.341705
0.302596
0.304024
0.302091
0.759496
0.320677
0.742004
0.593698
0.481981
0.584175
0.326318
0.680459
0.341272
0.311403
0.314609
0.748366
0.313257
0.518637
0.744889
0.796616
0.471266
0.765604
0.59373
0.889745
0.378623
0.327762
0.307422
0.336213
0.94736
0.963902
0.820536
0.681417
0.939196
0.784565
0.509698
0.31165
0.296878
0.300972
0.304178
0.345509
0.401596
0.354194
0.348925
0.323439
0.31411
0.439788
0.303231
0.35889
0.483257
0.327689
0.748951
0.277134
0.30741
0.350554
0.348688
0.349193
0.365225
0.312885
0.408441
0.362914
0.303225
0.323176
0.300923
0.310181
0.303903
0.307909
0.34739
0.310723
0.29607
0.325315
0.301265
0.299784
0.37144
0.506403
0.359235
0.471074
0.346997
0.850761
0.684857
0.372544
0.304626
0.297213
0.32314
0.297927
0.339827
0.292779
0.305477
0.303962
0.304204
0.301656
0.299286
0.335671
0.33066
0.302275
0.297124
0.311906
0.357346
0.343229
0.461697
0.436529
0.358855
0.293799
0.431384
0.310583
0.301907
0.309288
0.426578
0.301907
0.298317
0.306369
0.313796
0.335462
0.32984
0.33519
0.299088
0.306971
0.299125
0.367197
0.379133
0.309705
0.309015
0.299168
0.299492
0.373643
0.337247
0.30069
0.347475
0.47388
0.796159
0.532557
0.359835
0.789414
0.757644
0.353299
0.342269
0.28161
0.351287
0.299883
0.296162
0.33145
0.336738
0.39023
0.370895
0.306964
0.304288
0.812719
0.395236
0.562412
0.389396
0.869547
0.342753
0.401389
0.375928
0.320337
0.317548
0.324889
0.608278
0.291882
0.356168
0.355967
0.312742
0.35616
0.343696
0.897877
0.774764
0.309392
0.392894
0.372426
0.302266
0.391401
0.35531
0.38238
0.320492
0.369929
0.385316
0.50925
0.490113
0.529514
0.508791
0.633606
0.66656
0.642148
0.711654
0.304746
0.303883
0.301167
0.300608
0.325706
0.362661
0.512641
0.456342
0.506187
0.342407
0.383068
0.360606
0.374589
0.33767
0.370463
0.444579
0.296471
0.346934
0.330333
0.328698
0.452332
0.551466
0.322911
0.839736
0.385788
0.38984
0.438869
0.385859
0.370211
0.377834
0.509029
0.295362
0.451089
0.309154
0.426921
0.418262
0.296171
0.309796
0.348645
0.364109
0.299942
0.294602
0.301059
0.323445
0.298617
0.374709
0.512152
0.368408
0.502669
0.514501
0.305463
0.426109
0.434752
0.955992
0.346241
0.297095
0.324044
0.355581
0.593987
0.366753
0.907659
0.302191
0.295975
0.297727
0.853152
0.314415
0.786805
0.857366
0.906781
0.423981
0.433862
0.381201
0.392597
0.385895
0.789573
0.351146
0.756348
0.486939
0.583749
0.290794
0.37353
0.356072
0.358732
0.371229
0.341817
0.377135
0.337817
0.413763
0.421783
0.431284
0.331666
0.502685
0.321538
0.301337
0.361821
0.418812
0.304511
0.293819
0.296162
0.401616
0.506721
0.444978
0.343212
0.309319
0.310691
0.307639
0.441635
0.32662
0.319364
0.361989
0.360584
0.334884
0.583251
0.326284
0.377907
0.549746
0.318619
0.301733
0.338658
0.339114
0.29399
0.294162
0.398275
0.407007
0.474696
0.465768
0.326487
0.312986
0.29849
0.436579
0.368014
0.333606
0.345804
0.304654
0.297036
0.45419
0.340116
0.388663
0.377097
0.512396
0.312751
0.361345
0.84442
0.886214
0.81959
0.376362
0.337878
0.336454
0.311019
0.323658
0.365079
0.303505
0.305621
0.308447
0.443208
0.351039
0.661514
0.667557
0.313592
0.300058
0.372069
0.485779
0.355523
0.394492
0.355112
0.39805
0.639052
0.345293
0.336549
0.343587
0.393912
0.344566
0.747775
0.376391
0.805574
0.443854
0.447607
0.875477
0.518049
0.748716
0.604281
0.41168
0.421636
0.346152
0.391777
0.339206
0.776135
0.390348
0.383578
0.411907
0.86904
0.931857
0.824314
0.426103
0.684675
0.445241
0.379475
0.825822
0.390313
0.400903
0.367607
0.349886
0.375899
0.816727
0.8659
0.806962
0.352116
0.316749
0.414284
0.450145
0.293496
0.298237
0.361233
0.371645
0.458619
0.360059
0.345899
0.389749
0.321774
0.340365
0.297515
0.326051
0.492609
0.37222
0.308681
0.317612
0.374542
0.31149
0.321563
0.374408
0.361162
0.867773
0.361007
0.305534
0.306659
0.346214
0.30443
0.358292
0.55867
0.296715
0.309887
0.301337
0.30103
0.303429
0.414039
0.550891
0.529705
0.334104
0.335987
0.358208
0.309699
0.309864
0.455201
0.311077
0.414262
0.444413
0.305013
0.67351
0.867506
0.576642
0.32347
0.445245
0.370494
0.350657
0.369611
0.34764
0.354187
0.37273
0.355678
0.345573
0.366565
0.392302
0.363067
0.347096
0.304381
0.323813
0.308946
0.318727
0.307589
0.311602
0.665143
0.328363
0.319788
0.296202
0.328601
0.322245
0.317776
0.331882
0.568882
0.62576
0.454333
0.314439
0.319842
0.324453
0.313686
0.333237
0.305858
0.309365
0.305866
0.29501
0.296267
0.357076
0.379058
0.419192
0.481636
0.706284
0.489707
0.334029
0.330454
0.345356
0.306453
0.348566
0.300253
0.318333
0.308329
0.30508
0.307852
0.345123
0.302062
0.340321
0.323194
0.306295
0.295945
0.304924
0.340324
0.31932
0.362147
0.706252
0.318391
0.31545
0.317524
0.332045
0.31013
0.308033
0.388117
0.315794
0.371485
0.332802
0.753431
0.830926
0.345476
0.966355
0.747755
0.652397
0.769326
0.867707
0.580528
0.342788
0.358561
0.662538
0.310499
0.395601
0.30592
0.526408
0.693698
0.564787
0.302264
0.621326
0.672874
0.370044
0.36175
1.03532
0.939587
0.866298
0.779083
0.835902
0.914306
0.923798
0.36324
0.72598
0.365689
0.392349
0.333218
0.315823
0.3015
0.30175
0.319542
0.297888
0.309994
0.360944
0.319718
0.348441
0.313436
0.349363
0.327829
0.317374
0.320897
0.304761
0.344982
0.304481
0.485426
0.321564
0.298317
0.317647
0.306784
0.315155
0.325157
0.316108
0.309233
0.325874
0.335102
0.315748
0.421972
0.495619
0.390097
0.309688
0.302552
0.314124
0.3332
0.544976
0.320895
0.325295
0.298031
0.349797
0.429367
0.294943
0.453064
0.299977
0.433888
0.309929
0.312097
0.393596
0.305717
0.305468
0.309187
0.303011
0.391475
0.31851
0.337355
0.361297
0.303466
0.336705
0.300235
0.308002
0.298441
0.778493
0.621279
0.880076
0.45684
0.303307
0.312518
0.292872
0.327154
0.327103
0.30589
0.31708
0.731372
0.777089
0.311942
0.301401
0.31413
0.358451
0.299897
0.310863
0.303022
0.310432
0.371554
0.772371
0.331715
0.414017
0.356785
0.349476
0.411208
0.307373
0.312359
0.313494
0.72792
0.324273
0.307198
0.761017
0.469674
0.3679
0.397964
0.706842
0.910363
0.301488
0.304941
0.304679
0.305829
0.415498
0.88547
0.308281
0.305402
0.301282
0.304971
0.351008
0.656448
0.328364
0.322812
0.31323
0.323789
0.371885
0.408199
0.40339
0.340471
0.357192
0.418215
0.362258
0.363083
0.298464
0.341333
0.319427
0.327844
0.35334
0.2992
0.294286
0.330222
0.307502
0.30104
0.297029
0.295187
0.35522
0.418292
0.36168
0.332304
0.345884
0.334495
0.485146
0.320391
0.327128
0.427849
0.30911
0.576201
0.334621
0.432633
0.606309
0.979132
0.770097
0.825487
0.300166
0.510225
0.301874
0.50793
0.761453
0.435805
0.778607
0.424071
0.648569
0.610885
0.374746
0.871054
0.484256
0.363666
0.650965
0.859946
0.808393
0.381651
0.308188
0.319801
0.351714
0.849586
0.460048
0.479098
0.527613
0.422983
0.507748
0.298321
0.367354
0.408099
0.299035
0.376872
0.408652
0.321197
0.333336
0.443209
0.370579
0.386238
0.349493
0.357942
0.491439
0.370178
0.306528
0.396721
0.374617
0.436379
0.432546
0.321516
0.464642
0.313918
0.47389
0.369904
0.394084
0.30999
0.373385
0.312782
0.347936
0.310329
0.302565
0.363429
0.366069
0.439929
0.371062
0.367295
0.335328
0.437819
0.305533
0.40769
0.436877
0.343691
0.340277
0.337602
0.302272
0.306855
0.312373
0.311172
0.302985
0.304715
0.383783
0.377695
0.574998
0.384809
0.312309
0.367427
0.400669
0.357658
0.363476
0.338792
0.367455
0.360055
0.369752
0.41009
0.422779
0.420915
0.384725
0.363559
0.406859
0.419196
0.381051
0.411196
0.475767
0.298737
0.391202
0.300804
0.300719
0.386831
0.381989
0.367224
0.373088
0.295722
0.311393
0.436619
0.338861
0.395599
0.292688
0.385587
0.344147
0.317414
0.299243
0.302822
0.340775
0.345511
0.332332
0.428155
0.473537
0.490227
0.344949
0.324261
0.339804
0.482108
0.433469
0.307064
0.35887
0.403994
0.353309
0.43452
0.436355
0.468443
0.426855
0.436156
0.296602
0.312807
0.336641
0.291525
0.296503
0.294843
0.294072
0.295254
0.294179
0.29985
0.468237
0.328122
0.397469
0.370106
0.612439
0.808753
0.373276
0.476952
0.470926
0.404027
0.433705
0.698455
0.600633
0.313907
0.299539
0.314332
0.298359
0.312891
0.46001
0.296894
0.359605
0.372761
0.426432
0.352537
0.356101
0.397811
0.425116
0.308681
0.307245
0.324587
0.38261
0.391682
0.356714
0.454316
0.370963
0.753923
0.404519
0.438813
0.310428
0.335971
0.375382
0.351639
0.316233
0.350425
0.642322
0.301416
0.373883
0.303784
0.335708
0.48752
0.468641
0.37645
0.355443
0.424897
0.44276
0.485304
0.356539
0.408043
0.399929
0.339753
0.301528
0.303594
0.296043
0.32956
0.33623
0.296555
0.302363
0.436435
0.312343
0.308133
0.38292
0.738454
0.379018
0.386153
0.547383
0.419506
0.342247
0.327236
0.319862
0.455041
0.300766
0.331416
0.328789
0.30722
0.368535
0.299228
0.312003
0.289158
0.345544
0.321193
0.365904
0.334734
0.298203
0.345022
0.3153
0.29292
0.310441
0.297872
0.316406
0.379089
0.297358
0.331607
0.319235
0.46643
0.372649
0.371304
0.350662
0.410435
0.37532
0.406384
0.39848
0.506912
0.516783
0.352308
0.471968
0.446152
0.604566
0.318209
0.417948
0.350711
0.327553
0.309923
0.324504
0.345771
0.299828
0.337033
0.319197
0.408681
0.358902
0.420181
0.382607
0.330012
0.31087
0.429586
0.314182
0.368529
0.419955
0.372878
0.361602
0.289675
0.83555
0.427864
0.458927
0.876417
0.375734
0.343463
0.305981
0.302389
0.327971
0.317323
0.337045
0.311988
0.305252
0.311363
0.305364
0.364354
0.36073
0.350171
0.305273
0.364242
0.513293
0.308977
0.333124
0.496832
0.351613
0.33976
0.370499
0.343543
0.463512
0.325894
0.347333
0.398112
0.565773
0.835897
0.458486
0.367365
0.598761
0.421226
0.316427
0.317524
0.308231
0.607792
0.824863
0.381221
0.383301
0.345648
0.399091
0.61752
0.330877
0.347923
0.607576
0.437525
0.374803
0.865805
0.429321
0.296035
0.309068
0.307771
0.305478
0.322622
0.313608
0.307759
0.38289
0.308972
0.372871
0.309808
0.371565
0.363058
0.333031
0.337691
0.352807
0.331737
0.430818
0.308488
0.344598
0.344553
0.459159
0.403633
0.355371
0.36911
0.855338
0.810183
0.400547
0.423632
0.388335
0.319683
0.328692
0.316304
0.308113
0.395833
0.290638
0.303376
0.29905
0.294177
0.337912
0.384458
0.363604
0.29726
0.298714
0.355899
0.309135
0.298394
0.328097
0.296608
0.356117
0.340947
0.354331
0.30314
0.301703
0.306867
0.295841
0.291123
0.447219
0.480385
0.427044
0.329034
0.308867
0.324839
0.316929
0.333598
0.427645
0.360725
0.80373
0.761626
0.886754
0.311386
0.439889
0.758602
0.355439
0.339747
0.376146
0.760252
0.303373
0.805606
0.303718
0.30206
0.352511
0.300224
0.297466
0.298124
0.360505
0.428371
0.564174
0.637003
0.319334
0.308906
0.342236
0.292676
0.350768
0.304912
0.681711
0.310636
0.395801
0.535615
0.300424
0.303418
0.306785
0.343718
0.535967
0.307474
0.340625
0.436921
0.323957
0.30039
0.301785
0.322852
0.318705
0.310955
0.360224
0.350587
0.297285
0.348228
0.30559
0.367331
0.401985
0.392773
0.456088
0.338362
0.605478
0.391544
0.312251
0.304178
0.397507
0.400357
0.30979
0.441436
0.352537
0.294663
0.30498
0.300645
0.294721
0.369906
0.34359
0.34294
0.379146
0.315348
0.334498
0.60036
0.472812
0.353013
0.300218
0.296717
0.365399
0.366596
0.396708
0.322164
0.326253
0.309401
0.589497
0.313853
0.493111
0.429942
0.323731
0.301279
0.334992
0.364203
0.354017
0.310119
0.301239
0.349112
0.31502
0.314774
0.295928
0.316203
0.306163
0.295099
0.338546
0.494503
0.341464
0.327374
0.345089
0.329523
0.29793
0.299665
0.296138
0.29762
0.293994
0.299255
0.302037
0.385831
0.376726
0.334671
0.422769
0.329581
0.361519
0.36925
0.314023
0.689821
0.394444
0.497234
0.379675
0.393449
0.324205
0.825528
0.419709
0.319807
0.630158
0.786431
0.390798
0.398088
0.374949
0.415434
0.301675
0.816074
0.459105
0.46764
0.44853
0.335661
0.932713
0.404673
0.31063
0.302894
0.329593
0.319509
0.337605
0.360214
0.385556
0.335574
0.486162
0.401846
0.382059
0.473493
0.55244
0.85998
0.8622
0.607833
0.871525
0.826963
0.656615
0.504032
0.315254
0.391745
0.402872
0.377911
0.404743
0.410983
0.83754
0.764472
0.696269
0.489025
0.847824
0.585075
0.640991
0.406516
0.402543
0.322527
0.339927
0.318884
0.326461
0.309563
0.307924
0.309762
0.307425
0.749441
0.632624
0.382256
0.320131
0.38679
0.317891
0.369511
0.327535
0.345474
0.335823
0.516011
0.372006
0.375018
0.386426
0.291632
0.302047
0.338777
0.298519
0.303281
0.304291
0.296719
0.450613
0.306473
0.346262
0.299062
0.384051
0.309577
0.489547
0.417798
0.950204
0.465882
0.468641
0.468396
0.530112
0.355836
0.29546
0.296916
0.452865
0.314552
0.326707
0.310244
0.320184
0.412781
0.691387
0.441994
0.441837
0.415119
0.35903
0.426086
0.514565
0.798813
0.38698
0.326061
0.448849
0.325339
0.336395
0.448083
0.520846
0.348688
0.327234
0.307823
0.339847
0.450748
0.417132
0.52073
0.311811
0.927621
0.299505
0.301567
0.30351
0.338087
0.300943
0.301101
0.295856
0.404315
0.319967
0.377652
0.406276
0.33145
0.376116
0.370499
0.406054
0.30766
0.434486
0.311908
0.309455
0.4568
0.35095
0.300355
0.299157
0.304328
0.314752
0.309739
0.372957
0.431891
0.390793
0.437087
0.668506
0.324643
0.398781
0.310472
0.307995
0.309536
0.334019
0.381539
0.404773
0.595051
0.605871
0.307166
0.779856
0.521031
0.636776
0.702583
0.308681
0.299765
0.324419
0.302008
0.298265
0.307016
0.299701
0.330525
0.31211
0.302622
0.297716
0.396928
0.497035
0.408673
0.424242
0.411639
0.419186
0.403382
0.298101
0.303135
0.304533
0.294465
0.304832
0.308025
0.408261
0.394023
0.350185
0.393056
0.364165
0.297442
0.3087
0.299007
0.371807
0.302733
0.322166
0.369234
0.393154
0.334637
0.292821
0.312934
0.30949
0.287468
0.322871
0.355877
0.305889
0.302841
0.349678
0.309479
0.358667
0.425543
0.391952
0.355254
0.373276
0.492289
0.498343
0.376735
0.302344
0.321629
0.30515
0.390686
0.299857
0.333683
0.460345
0.481096
0.377386
0.319057
0.437185
0.328991
0.350798
0.467209
0.452366
0.310631
0.424943
0.372301
0.327687
0.299804
0.451126
0.418689
0.505497
0.388332
0.329032
0.307435
0.295557
0.327628
0.324527
0.308078
0.36099
0.366796
0.384456
0.35305
0.309927
0.301169
0.294554
0.318379
0.297197
0.399531
0.423064
0.407681
0.295686
0.457551
0.474933
0.423796
0.294526
0.378263
0.356898
0.319616
0.732986
0.31312
0.397877
0.3678
0.306087
0.307301
0.328394
0.325515
0.328346
0.384904
0.314103
0.309745
0.306049
0.304247
0.307584
0.362363
0.293263
0.296373
0.310609
0.31264
0.305583
0.304369
0.316209
0.439504
0.423075
0.396878
0.525205
0.366326
0.358814
0.489501
0.402282
0.620905
0.683741
0.785517
0.598006
0.508856
0.295939
0.302937
0.33486
0.303471
0.446047
0.396991
0.31262
0.320018
0.302953
0.905591
0.853944
0.293997
0.298695
0.553648
0.318413
0.303719
0.370794
0.32558
0.535586
0.302687
0.296945
0.298061
0.807928
0.882633
0.670991
0.839445
0.348775
0.30742
0.296368
0.298501
0.296696
0.593351
0.310198
0.296474
0.309874
0.307355
0.300104
0.363772
0.297169
0.296774
0.312932
0.302474
0.429132
0.327156
0.626246
0.825945
0.805086
0.320577
0.813379
0.880454
0.307419
0.370144
0.85653
0.803846
0.911087
0.441063
0.408672
0.393967
0.873051
0.639637
0.437977
0.296914
0.291988
0.753209
0.741436
0.362928
0.350509
0.398035
0.35005
0.310471
0.346442
0.32254
0.302076
0.30748
0.306703
0.309205
0.365511
0.315208
0.34461
0.339681
0.31099
0.324849
0.295542
0.345514
0.295434
0.315989
0.31439
0.316198
0.299692
0.351405
0.299844
0.301017
0.300776
0.299225
0.358372
0.325168
0.302401
0.303194
0.309814
0.296072
0.472978
0.311917
0.34873
0.319666
0.324449
0.347186
0.606405
0.465145
0.312798
0.307714
0.313406
0.3578
0.298271
0.327244
0.317828
0.317397
0.303571
0.307671
0.318839
0.333533
0.382863
0.802301
0.34466
0.393028
0.358952
0.332515
0.301085
0.369247
0.368316
0.387272
0.389001
0.308828
0.396508
0.409218
0.413484
0.325652
0.687559
0.365094
0.310431
0.338941
0.474824
0.333792
0.383459
0.308597
0.337484
0.309564
0.313513
0.367288
0.330711
0.314318
0.313195
0.365503
0.296622
0.299214
0.299992
0.3094
0.313798
0.3109
0.299124
0.318608
0.303317
0.304431
0.298815
0.300551
0.483252
0.295283
0.300557
0.306422
0.307351
0.30649
0.289289
0.30736
0.293931
0.316709
0.312685
0.308383
0.300398
0.339753
0.304975
0.355644
0.302809
0.304192
0.299565
0.357857
0.297596
0.297799
0.298433
0.296803
0.785281
0.296903
0.299623
0.417639
0.406981
0.43293
0.394238
0.317887
0.29943
0.293571
0.329116
0.309575
0.302588
0.35412
0.304839
0.300063
0.309902
0.318759
0.358647
0.301842
0.301164
0.38428
0.301473
0.375014
0.288456
0.308087
0.31457
0.315586
0.32965
0.308885
0.309669
0.299528
0.309277
0.298969
0.313847
0.313425
0.334552
0.337604
0.348797
0.355927
0.351494
0.357435
0.356507
0.309654
0.302276
0.334375
0.326753
0.303173
0.298649
0.366848
0.293029
0.304098
0.721547
0.299291
0.803144
0.763715
0.312676
0.797007
0.289426
0.306911
0.296263
0.783324
0.325746
0.341331
0.440537
0.448761
0.360155
0.340648
0.365388
0.355349
0.351453
0.948195
0.584201
0.311269
0.347733
0.855277
0.482036
0.337238
0.36675
0.364844
0.349602
0.434872
0.778631
0.700618
0.32454
0.365879
0.495328
0.331645
0.414453
0.847893
0.537907
0.616924
0.391393
0.673599
0.663474
0.298086
0.802666
0.9677
0.313316
0.329079
0.312894
0.309528
0.328471
0.314431
0.329097
0.326521
0.335913
0.305667
0.306382
0.305568
0.297941
0.308784
0.352916
0.345811
0.37043
0.615682
0.664227
0.830176
0.308807
0.305558
0.29931
0.293948
0.336229
0.4787
0.305945
0.363453
0.359603
0.314052
0.363435
0.361083
0.311412
0.374213
0.37009
0.421281
0.370346
0.315869
0.299591
0.310131
0.428612
0.486033
0.374426
0.387133
0.59862
0.857855
0.490053
0.406782
0.369484
0.359987
0.409788
0.293318
0.300102
0.338909
0.299767
0.308844
0.302875
0.478922
0.399422
0.301743
0.303978
0.298615
0.406689
0.406265
0.32979
0.341481
0.382876
0.391851
0.34775
0.352476
0.456499
0.406166
0.359337
0.342961
0.407711
0.319191
0.331713
0.439736
0.300658
0.301582
0.302201
0.304289
0.304355
0.300045
0.301696
0.296661
0.310615
0.341336
0.298109
0.344204
0.333221
0.891658
0.326831
0.354936
0.314651
0.428597
0.833819
0.334888
0.443651
0.338638
0.299742
0.311781
0.307513
0.35036
0.31719
0.318894
0.337519
0.364239
0.382654
0.315756
0.330244
0.315856
0.326553
0.305677
0.305511
0.302041
0.487221
0.462895
0.416172
0.334322
0.380245
0.46265
0.429035
0.351978
0.309179
0.350255
0.346701
0.331157
0.325042
0.325705
0.307702
0.300389
0.360953
0.306621
0.302045
0.356741
0.296868
0.437765
0.454756
0.35838
0.339068
0.300715
0.336148
0.339846
0.333709
0.336141
0.321739
0.775198
0.302122
0.307634
0.30035
0.317015
0.310456
0.333541
0.374139
0.367069
0.322522
0.299437
0.393414
0.346959
0.303091
0.775527
0.832705
0.323081
1.02537
0.320085
0.330302
0.311588
0.301503
0.310082
0.33414
0.311062
0.30116
0.301302
0.30199
0.300996
0.322771
0.297926
0.29415
0.298419
0.300695
0.296965
0.299186
0.315099
0.312345
0.61798
0.35618
0.339658