/*--------------------------------*- C++ -*----------------------------------*\
| =========                 |                                                 |
| \\      /  F ield         | OpenFOAM: The Open Source CFD Toolbox           |
|  \\    /   O peration     | Version:  2506                                  |
|   \\  /    A nd           | Website:  www.openfoam.com                      |
|    \\/     M anipulation  |                                                 |
\*---------------------------------------------------------------------------*/
FoamFile
{
    version     2.0;
    format      ascii;
    arch        "LSB;label=32;scalar=64";
    class       volScalarField;
    location    "0.075283";
    object      omega;
}
// * * * * * * * * * * * * * * * * * * * * * * * * * * * * * * * * * * * * * //

dimensions      [0 0 -1 0 0 0 0];

internalField   nonuniform List<scalar> 
3946
(
59.3555
67.0383
95.2643
73.875
70.8161
122.177
102.316
78.1075
111.615
44.3934
56.806
53.5276
128.172
146.306
193.597
52.7589
87.566
51.117
92.9887
73.5394
154.23
79.1142
84.4014
104.603
94.0553
83.2586
90.4258
70.5653
48.4308
56.8629
69.6064
62.7887
92.8564
68.0768
88.7014
58.7332
89.3996
85.8527
72.1149
80.0491
62.9136
45.2956
76.1603
48.1942
84.5377
42.4612
45.8628
88.496
85.4153
79.2365
79.4677
81.9336
55.0612
48.913
42.8969
55.8081
59.0788
50.4146
78.8514
71.8139
63.8805
389.974
64.4918
67.0837
63.6845
473.23
334.333
643.199
674.805
60.8548
48.3049
75.951
302.401
43.2495
152.182
77.0128
55.6286
79.3498
45.3054
77.4531
311.831
104.436
54.2483
111.605
55.4888
307.964
184.823
429.691
371.208
420.449
282.791
234.722
54.6768
205.121
218.452
213.153
87.3632
85.7332
102.37
67.9253
101.842
98.1204
89.09
355.918
91.5784
91.4925
251.987
77.8123
96.8991
108.159
148.866
113.415
87.8924
236.049
230.133
89.6504
126.676
68.6815
449.556
408.511
86.4732
150.66
56.918
114.792
51.6162
96.4502
384.887
102.671
101.868
68.6802
103.552
396.113
73.6455
88.5392
102.643
228.477
111.038
255.472
67.0803
413.074
234.126
257.284
616.265
51.0433
117.355
85.2611
60.1278
65.4057
90.3388
66.5493
81.8799
83.2517
90.3564
46.095
67.6092
42.3619
59.198
58.9425
73.7645
79.0914
72.0836
43.9565
295.35
82.0311
67.6067
130.221
84.7858
66.382
92.6682
379.885
88.3941
328.284
86.7246
164.699
56.8387
58.1696
58.0252
47.6085
78.5886
95.7526
46.7544
53.5022
49.1205
50.1016
84.1432
85.029
70.2261
78.3029
62.553
89.0425
186.54
76.7312
443.499
86.2818
247.451
247.233
344.93
63.5479
86.953
69.2954
45.5671
100.836
66.874
72.529
71.0108
97.0632
104.433
88.6525
100.389
77.6475
86.7378
108.312
110.385
128.717
181.292
91.1294
120.019
83.5321
71.4883
72.8799
485.023
281.975
80.7324
75.4844
57.2037
280.334
290.192
127.921
104.808
280.791
98.5417
49.5971
94.1276
152.613
47.6892
148.414
61.793
127.441
150.504
97.4387
42.5928
433.911
452.241
579.125
130.186
63.7333
160.436
130.698
71.0476
90.5757
64.3703
379.908
122.734
147.042
92.8542
95.4208
78.9209
60.0637
82.222
153.825
221.418
532.467
456.315
113.566
130.427
84.4484
153.026
110.464
217.317
87.9707
98.655
118.999
67.1959
67.5051
72.1918
71.4535
69.4096
131.282
147.64
94.1555
95.0803
92.8403
87.7564
114.519
122.032
89.5049
75.9196
93.7026
119.31
84.6301
106.858
88.5124
107.612
77.245
64.4357
82.5575
80.7295
94.7934
78.053
345.819
72.4168
328.205
343.02
323.716
84.0756
103.578
333.913
309.139
78.3127
615.429
454.681
395.581
432.496
659.476
45.8408
452.209
85.6251
115.419
81.9792
297.307
102.802
273.378
140.624
104.113
52.8972
96.3497
65.7838
103.476
158.629
126.975
101.886
44.0267
68.4473
227.842
353.131
47.7964
95.965
525.812
445.1
513.452
79.7072
212.847
242.38
78.9142
306.044
260.015
102.361
90.2763
365.85
547.231
325.262
148.674
196.39
146.594
287.044
386.701
281.067
66.4567
276.454
400.674
289.453
248.47
47.5386
100.067
332.94
380.868
113.927
357.529
364.247
325.607
459.215
382.176
74.7422
142.276
59.7696
120.146
183.644
56.5633
124.893
272.449
50.1582
98.6785
79.058
67.1814
70.1072
67.6301
218.87
103.509
171.166
94.6212
296.361
47.1095
86.6485
471.684
53.8484
459.825
58.1612
209.767
197.989
62.4268
95.308
71.1541
67.1682
72.7583
60.4542
45.7973
250.853
71.3685
74.4015
52.8358
245.892
66.4655
151.663
54.0338
51.5098
57.4298
49.8524
108.199
315.357
93.6534
52.442
345.867
43.9898
324.687
64.2933
82.8875
115.679
84.7622
51.9004
56.0166
99.4462
141.389
44.9753
53.5234
97.6734
95.8253
138.371
98.4338
65.6819
55.3604
56.0569
55.6169
67.6842
68.3485
73.2859
232.151
309.302
162.351
66.6829
71.8673
71.1543
56.1251
52.2375
75.4708
72.9867
89.3432
67.4066
72.014
61.9183
56.3354
147.797
102.233
285.191
283.222
278.271
271.374
68.4494
140.837
288.393
124.998
172.155
263.871
79.5021
54.0611
45.8031
53.4557
144.292
102.708
47.4098
134.443
407.193
267.916
449.886
82.7088
110.1
48.0344
109.629
67.1949
77.07
87.0326
108.644
81.9154
99.8427
53.4968
66.9574
68.067
57.1381
58.3579
88.5489
90.0897
45.8445
77.98
95.2613
93.1805
93.8596
56.0069
56.5834
305.501
320.381
64.5714
245.007
217.357
48.4851
202.551
91.1214
353.627
122.351
132.553
95.9031
61.3969
69.8789
57.2727
95.0072
56.6477
75.3953
85.1639
77.4634
85.2644
137.109
363.848
510.987
292.135
89.7324
380.471
548.233
509.757
61.7006
73.2485
150.063
57.626
57.702
50.4287
106.797
47.4883
52.6575
62.239
103.78
57.8946
93.1566
69.9082
58.6501
67.7098
79.0005
49.0623
58.0752
76.8215
46.3675
92.7523
81.8323
94.9071
79.8846
80.4024
146.97
48.3849
54.8427
46.1947
194.878
71.321
47.0714
326.15
61.412
52.325
50.3538
49.1551
72.6324
72.8131
41.9155
44.9203
45.7982
66.8301
58.2608
68.7919
70.4203
69.7089
93.8281
49.9203
76.5916
62.071
74.4841
51.6715
51.332
43.8576
72.6321
44.7006
54.7603
95.9431
46.8499
104.956
46.5168
103.197
45.8731
84.2172
78.8405
256.395
67.4043
105.9
81.8337
61.1532
54.7347
49.5464
76.0296
124.443
106.936
80.6234
146.687
79.8343
50.2145
48.6129
111.847
72.3104
108.451
293.334
301.647
268.707
72.359
64.4836
89.6724
65.4119
71.4357
67.686
72.5006
127.38
188.04
218.861
267.023
295.333
61.7801
234.183
60.1663
199.99
82.3325
161.692
47.1687
58.7877
83.9763
50.3314
50.3183
220.522
93.5039
87.0574
60.0085
52.9091
67.4086
110.702
143.907
87.4888
91.6704
70.1824
89.4544
69.1415
89.7869
92.4702
80.1077
43.6514
77.8753
94.4159
86.167
90.9088
79.3656
72.0456
47.6383
75.9959
45.4122
222.333
212.409
238.084
50.2961
119.642
76.5048
52.1822
232.697
252.598
42.3448
232.123
74.7671
99.5909
104.671
107.9
71.1289
53.9842
81.4534
58.7091
68.1477
77.8646
54.8586
67.2502
366.892
315.795
59.7078
400.579
284.884
117.143
82.9575
69.302
43.8986
74.8435
81.1543
66.8317
87.2448
70.6618
128.689
139.86
96.9239
48.6804
92.3797
101.571
64.2042
85.0978
77.9578
86.5642
90.8996
66.0371
78.2536
45.6467
89.2676
55.0044
107.237
70.5532
93.1336
77.5517
44.4693
62.1765
45.4673
97.0635
104.386
100.149
71.7927
70.3001
56.7828
63.6371
76.0794
47.564
49.7927
84.4311
71.3009
43.4995
123.407
55.0362
107.312
176.1
302.892
266.327
66.7808
308.136
551.127
288.087
308.98
99.6796
204.895
290.765
381.586
330.553
63.3379
43.9733
46.2961
63.9342
422.95
100.666
119.071
142.632
132.093
71.186
78.8451
281.964
286.495
273.041
275.192
252.27
422.027
61.0066
112.924
45.0865
135.16
114.109
71.3412
63.323
67.7085
122.775
100.613
89.4139
548.05
92.6277
63.0911
78.3134
84.4236
88.7858
43.4344
67.644
43.5462
103.771
72.4955
75.3229
46.5887
102.217
92.1681
72.0843
53.6357
117.421
148.438
48.6995
64.2266
44.4378
214.409
108.786
57.1006
85.1935
95.5353
252.12
344.966
165.622
267.772
103.932
104.516
57.5822
107.945
114.953
80.5295
116.539
130.603
84.1751
144.722
57.7172
60.8521
73.8133
76.8915
53.1043
241.838
70.998
55.5617
117.748
328.33
69.5581
76.1758
253.336
45.2913
490.662
217.597
405.669
277.515
103.227
347.781
229.405
251.38
125.478
359.093
561.471
202.995
210.951
147.713
50.1427
81.43
83.7299
67.9651
46.9252
88.9868
76.8741
72.2822
92.4863
138.836
45.8431
51.7838
77.0061
181.624
166.492
102.528
109.879
102.812
122.666
63.3906
64.4151
57.8699
44.795
87.6547
50.4449
101.617
108.079
101.008
95.1054
98.2033
91.6081
67.8382
116.076
95.9781
103.059
72.1325
86.759
43.7916
74.6792
189.158
189.006
137.268
103.968
64.5213
81.9143
58.9696
92.6414
78.3807
227.603
254.797
100.813
309.109
439.881
78.3139
240.071
115.541
154.172
121.031
290.108
109.612
229.479
283.511
421.875
235.399
89.754
76.6357
55.1352
486.141
66.4083
64.3279
99.2798
360.479
335.737
384.392
333.162
347.035
350.263
99.3593
414.381
252.711
117.493
377.435
380.066
265.736
357.669
240.258
525.07
103.667
331.998
136.724
334.168
197.568
118.651
333.208
738.618
410.377
42.9579
297.086
450.903
82.9021
46.6143
107.064
388.696
390.492
123.409
81.3151
117.11
77.8826
69.134
65.653
205.698
234.658
64.4693
111.965
82.7521
493.262
392.151
489.894
391.731
335.997
463.121
59.2902
186.992
67.716
255.12
195.899
97.1132
168.596
190.283
321.143
50.3466
72.3153
102.256
128.108
61.0854
166.285
235.842
71.1425
46.0975
46.2719
82.0756
68.1845
81.1926
75.3404
45.0188
89.0089
73.9191
90.9905
68.0282
412.367
363.323
51.175
96.9681
81.7527
79.4247
74.6081
110.549
48.5051
71.4145
87.4681
46.0496
199.426
107.011
104.023
98.519
69.7925
170.417
108.393
107.124
91.0912
128.74
106.37
85.4297
43.9264
45.045
45.3146
118.292
141.302
123.211
89.5364
48.6913
103.122
150.951
58.3965
79.49
55.2394
83.3443
417.039
424.364
78.8628
86.0049
402.368
319.571
405.298
71.9645
400.601
218.639
291.337
108.161
103.138
62.6485
70.7701
52.1112
52.4058
430.787
266.288
99.3603
102.661
77.7442
89.4366
86.9139
78.4838
71.1316
76.9414
108.113
71.199
60.5051
89.2503
50.1422
104.084
100.113
56.7588
278.295
53.4671
54.9451
205.661
43.0104
47.0557
57.7054
44.2287
46.8151
58.5126
71.8804
55.9189
49.9205
54.7349
53.4686
69.7696
69.7998
60.2809
344.123
258.453
354.53
41.8762
166.826
100.791
44.9768
46.5989
44.335
50.0247
47.3051
102.258
79.0632
62.917
47.0481
47.4947
113.488
273.697
440.332
209.995
262.039
335.148
53.6515
132.193
42.5193
42.217
50.6394
47.0435
44.0912
43.8932
101.475
66.6171
80.9582
53.0074
78.8607
61.3837
67.9392
62.0437
88.7712
60.6299
48.0661
50.892
276.552
110.75
199.836
192.024
143.993
117.668
60.4061
89.4966
78.8601
72.9915
44.1264
54.8946
64.8286
57.1123
72.6458
89.1347
104.378
130.74
61.2341
59.5796
48.7667
44.6377
41.7068
69.2825
43.2154
91.9888
58.5672
69.2496
67.4889
61.6178
65.8212
52.8832
69.1629
51.608
51.7063
47.7134
72.2882
45.2917
81.3787
79.029
58.9054
81.8948
70.7275
69.0237
60.0292
48.7139
62.4131
47.0242
66.2802
61.9171
56.9749
42.6549
64.1952
65.6138
43.9158
88.1463
45.304
76.3941
43.5402
43.6793
74.5905
54.2698
78.6468
109.727
58.9811
72.1914
70.6452
60.9157
66.458
44.6021
84.097
82.5921
84.7536
72.3021
45.721
45.3834
100.054
51.392
48.3242
103.003
42.8561
76.521
46.1717
49.3662
90.6053
70.7622
75.3425
71.9366
53.9006
67.1874
78.4852
61.089
44.4073
348.669
43.954
46.6562
44.8439
67.111
66.0626
107.496
42.8431
96.6876
94.5778
78.3968
75.7037
73.0774
85.3463
61.1485
82.2168
73.0649
70.4757
80.7522
66.6264
115.283
46.4187
108.822
47.7639
43.7232
49.7233
49.856
48.6254
48.2986
268.959
67.1563
44.7459
47.0006
121.534
71.6363
79.7232
74.5392
52.5788
49.0585
62.7894
145.232
51.1387
78.1689
93.9111
71.4477
74.5007
123.339
115.802
53.5602
65.174
102.098
53.3362
115.935
43.9862
74.6888
55.276
64.575
82.7498
68.6007
83.6498
53.6932
195.523
177.426
46.0408
55.0801
45.184
80.7986
96.7293
46.567
123.763
97.6473
83.2502
81.262
78.7514
90.509
78.936
55.4295
52.6899
103.339
65.3588
77.2591
48.1515
68.7208
100.09
64.017
141.758
298.936
95.1126
80.6986
99.7949
80.6614
103.896
42.696
45.0232
48.9148
89.5115
52.1919
59.1398
74.0939
74.6609
355.63
97.6436
113.433
94.639
78.9704
51.2933
53.065
48.1442
53.6237
43.394
86.4389
52.5464
95.8744
232.657
89.1184
93.4433
72.3325
47.0827
57.9731
60.5067
91.7498
110.602
90.525
52.7318
70.6401
90.2355
52.8848
65.7081
44.5057
184
94.0195
387.671
60.8922
296.116
55.334
56.338
58.5447
100.198
96.4422
74.0521
73.5598
112.901
77.0717
79.6844
224.758
66.3936
81.2056
46.6794
48.1555
527.747
123.323
46.1856
120.06
68.7562
62.5953
50.2541
61.2535
95.4189
44.7138
88.1829
78.114
109.081
86.5594
136.734
65.2383
89.9744
73.0553
111.844
86.6273
112.298
49.5753
72.4802
46.9549
44.2518
43.9313
48.6431
52.6405
74.6098
81.7546
67.326
66.2448
52.7182
76.676
61.109
72.4919
59.5811
102.246
303.979
92.6908
43.0688
59.384
58.1346
63.3317
74.7807
111.861
48.7303
286.52
47.9486
44.1593
373.338
447.115
98.6949
368.98
365.72
265.671
238.293
520.776
84.738
77.1191
441.319
223.696
62.0964
614.736
260.893
308.308
421.075
95.9655
142.513
218.277
270.793
265.077
86.3882
174.975
46.3774
361.547
340.884
263.023
65.5557
44.5654
43.5935
307.139
52.1439
211.993
44.2095
43.9472
140.312
51.0346
102.708
67.9856
119.376
79.0674
100.203
88.3266
61.1239
60.3983
62.1098
67.976
123.57
91.5881
91.7391
45.8039
139.588
125.288
62.2141
73.3246
59.4592
57.2964
83.5476
103.044
54.8459
60.0713
55.9666
243.933
60.8906
83.4531
132.902
156.721
217.266
281.754
108.075
147.316
47.0239
50.3756
60.0577
96.9377
52.4515
45.4412
78.0248
56.5765
91.0287
51.2246
142.04
99.2805
60.4495
64.2629
121.697
44.8896
62.6977
73.8973
60.4645
63.2582
83.2078
208.561
78.2731
183.511
45.885
63.5342
46.117
46.177
51.3957
60.141
75.2536
46.7051
51.7087
55.1896
58.3641
388.759
41.9606
94.2107
85.402
71.787
94.4421
75.8897
61.6928
335.066
307.382
57.3971
114.13
72.0045
61.6625
81.9409
71.3405
65.2138
46.7534
74.523
99.9914
106.477
45.5874
124.588
405.351
56.7411
76.1614
44.1063
44.6008
259.667
310.611
219.311
133.283
358.647
107.736
42.06
92.5205
199.66
131.811
79.917
69.6692
63.6674
47.259
66.5951
48.7516
75.9508
49.6563
78.8615
85.7148
50.6475
74.6278
78.5501
50.9483
77.3721
56.8502
117.428
81.0649
77.6267
71.4579
42.4532
99.6222
88.4443
85.963
75.1119
46.1568
100.43
54.377
70.4999
48.4208
90.1835
56.0638
51.3025
101.996
56.1011
61.3375
72.1689
86.3437
77.435
68.5529
53.0644
135.399
54.485
80.4018
57.4177
44.6772
61.0429
100.792
136.799
102.66
79.1813
114.348
89.1332
95.4144
96.8375
304.515
52.2699
50.6847
85.9133
42.2819
160.662
163.584
61.4301
67.6152
80.2096
74.564
71.6325
72.8259
81.2245
76.3943
86.8729
84.3048
80.6151
90.4437
108.507
120.377
118.439
108.978
109.202
118.488
119.357
85.628
163.05
115.156
51.6983
47.3721
96.0105
99.0241
95.1631
48.3518
71.2847
93.0718
252.164
323.9
195.735
49.4194
69.1343
224.549
158.125
175.814
104.536
193.97
103.462
188.156
228.915
184.095
281.856
386.867
58.7519
68.7668
91.5815
91.7721
252.059
371.102
237.812
223.595
306.343
145.217
238.187
330.242
211.04
397.696
383.269
341.174
73.0215
70.1079
92.5831
90.955
70.6521
156.233
99.5671
309.568
85.306
93.7702
97.6629
383.27
365.763
432.031
396.883
392.145
611.854
98.8724
90.4159
79.3001
101.722
90.1771
87.5096
157.665
71.4456
52.6093
370.721
430.43
146.657
53.9892
56.5994
105.062
124.896
101.617
56.9195
51.5935
53.2433
91.1979
114.556
60.5456
121.746
432.42
121.576
56.266
74.3818
46.0612
104.183
125.896
96.7029
95.571
90.3795
498.416
347.918
51.7777
103.527
119.227
150.039
51.6904
93.1946
105.559
95.3464
161.209
159.666
152.241
123.876
67.7701
89.9063
209.516
124.779
118.602
131.74
95.1751
91.6848
77.5541
99.0497
93.3324
84.954
57.1359
87.5069
65.3177
44.5702
75.2945
117.371
77.1863
98.2689
91.5962
56.7339
83.8077
85.1241
69.244
74.3206
70.0422
75.2567
103.31
46.6387
189.541
243.812
264.717
43.38
42.9905
43.6514
44.1054
84.8811
94.588
49.2155
54.3031
51.7183
81.5302
66.3742
59.0413
70.3911
52.9563
43.937
114.513
78.2888
67.6712
93.1683
123.348
114.497
52.5663
93.6603
85.7771
92.2021
103.174
108.042
85.5405
100.922
42.5904
42.8044
44.9676
43.8675
100.241
73.8036
53.0095
54.1213
73.4404
123.217
94.8565
54.0753
66.37
63.7626
44.0707
59.2508
63.1206
86.422
80.2246
42.9008
43.7004
90.2935
89.7919
88.3481
54.7841
47.8984
531.393
97.9223
96.9038
46.0626
44.0815
50.8421
47.0263
47.0299
42.4451
75.6041
72.8777
84.9908
273.375
422.673
48.3629
50.7859
41.8666
41.6405
68.6714
69.4648
66.3456
49.0965
301.913
95.1129
96.3941
72.1521
79.7217
46.7187
67.716
80.4193
50.4101
44.1177
43.1025
42.9629
51.6364
42.7489
46.9827
46.6083
50.0862
77.2052
50.6362
64.4087
43.8071
43.2381
188.798
76.1418
44.0696
70.5438
56.666
68.1074
75.4391
454.072
332.874
227.065
332.261
342.469
269.512
437.662
384.685
348.607
466.812
45.8083
48.9848
84.5509
695.711
505.313
92.5844
75.4132
160.452
230.278
73.5896
104.497
51.0427
41.9221
52.9932
65.1974
72.5726
70.3021
74.6671
47.7281
97.3585
51.5258
62.7362
91.5725
43.3633
71.7048
78.7654
79.1407
51.8051
45.5582
60.2185
69.4727
57.9306
64.5543
62.183
48.4973
48.3396
145.858
67.8051
49.2891
66.5375
90.7881
93.1702
56.9968
52.0266
56.6758
123.231
60.8051
42.379
252.935
340.048
62.9079
76.9119
61.7298
62.9253
70.0951
45.0254
47.5006
90.9909
55.2204
45.5519
78.8484
44.7851
75.9478
49.4075
86.125
77.2596
44.8287
77.6684
87.7135
76.2251
106.835
43.7174
115.287
78.0204
102.609
137.44
49.8115
78.294
46.548
128.539
73.4016
67.5674
83.0014
113.136
140.832
96.5578
112.631
45.1866
85.8082
68.9537
69.406
84.4896
67.7012
57.5422
71.7419
73.6263
130.528
314.036
86.403
69.8606
83.6899
46.3608
61.1788
63.3728
54.2399
141.395
107.677
91.4355
64.1273
88.7525
91.8299
91.1241
58.125
78.9305
47.5721
59.2945
66.2715
84.5592
118.357
105.344
51.0243
115.901
45.1593
94.3434
83.1945
59.4591
64.3083
68.0265
117.48
68.1592
97.6723
113.991
63.3499
72.814
109.089
78.0012
83.3416
46.564
64.8939
54.8378
68.6014
53.696
82.1362
73.071
93.2686
84.1287
88.7966
92.81
58.9225
91.6974
92.945
69.7788
221.309
241.032
65.4713
58.168
52.2234
44.8608
45.5557
46.6761
111.285
87.6912
43.4351
68.9127
84.1835
93.8522
79.3455
60.4557
70.0243
111.724
91.6119
74.4498
49.2396
87.2623
60.8687
247.582
82.3421
97.7721
231.024
79.2279
87.0701
59.047
114.833
91.3556
49.1808
65.4463
98.1327
72.1693
69.5528
65.3761
54.6326
47.2614
169.282
44.5334
100.442
92.8834
172.694
409.817
635.423
215.633
250.485
390.031
393.246
242.232
290.967
428.605
475.92
356.667
326.807
270.342
195.582
482.202
291.84
347.552
227.787
233.674
283.494
245.559
217.621
289.938
521.614
322.444
614.813
220.519
55.7223
58.3056
73.6358
82.5963
47.8551
69.0389
78.7041
74.4587
49.3125
48.5147
83.2236
70.1341
49.1593
83.1189
58.7754
54.4577
62.3895
95.8455
113.904
270.191
49.6545
72.8996
87.5351
89.9563
66.7797
64.5771
116.215
64.11
56.3102
109.486
74.8459
72.4843
72.013
70.5773
72.6827
190.804
96.188
74.1789
88.6493
83.7603
74.678
94.1243
95.8287
217.133
119.347
97.6209
48.6278
78.0188
56.9701
74.1786
80.4295
67.1437
316.974
118.722
95.3975
74.7326
147.813
125.428
64.2085
105.719
158.381
212.246
115.783
157.155
69.4562
88.6448
68.5338
87.9877
285.071
68.1043
349.45
68.9197
413.751
518.762
781.188
500.755
459.594
381.915
365.116
362.374
180.045
79.5756
96.9941
145.194
160.894
50.4087
77.2093
71.1299
54.0552
72.8734
78.5457
87.6888
60.6781
55.3079
79.9462
52.4279
47.366
241.191
111.938
119.154
373.734
229.363
485.576
97.6225
107.97
98.9652
420.874
105.109
285.882
42.7982
84.2285
280.184
89.3647
245.636
401.445
253.038
199.355
161.338
114.241
111.186
250.218
106.261
193.475
390.078
261.971
373.763
102.777
84.7085
126.801
193.969
364.674
481.045
310.044
49.2905
365.042
379.642
320.41
447.131
87.743
367.97
294.563
288.58
357.266
376.025
328.283
253.102
93.6895
77.0395
189.007
51.9174
128.944
52.1817
80.6506
105.81
207.146
80.8239
91.9282
137.023
213.031
47.0935
46.7324
45.3693
122.155
153.129
133.005
92.2055
105.834
50.129
54.8591
126.085
216.213
112.879
90.8002
116.32
94.349
150.957
192.665
71.5285
55.0221
65.4919
76.7006
91.7287
82.4758
84.5484
69.4619
88.1141
142.728
87.7017
73.3608
85.5648
48.5013
57.7231
73.0249
63.0943
355.599
62.2957
134.076
77.0802
81.8679
57.682
80.5336
60.3691
249.87
69.3161
51.2781
52.9755
63.9846
44.4927
59.5389
63.9868
46.2926
48.2172
57.6453
66.4897
54.4691
54.4268
93.14
47.9624
55.7257
48.3863
73.9178
61.686
50.753
74.2146
52.5318
83.6368
64.0891
57.4412
250.885
75.768
78.3657
99.7359
470.371
80.1643
115.605
109.971
556.883
498.292
451.244
315.276
350.756
221.799
241.314
149.875
396.019
373.505
81.8366
100.175
70.1269
72.8795
126.982
118.417
54.8882
46.0804
48.3306
47.0225
47.0427
61.1943
46.6903
259.76
446.967
511.447
460.771
496.696
434.963
120.394
409.471
54.5243
70.7547
307.328
61.4972
188.253
220.068
334.815
215.283
271.592
394.614
273.4
285.768
317.488
278.783
116.32
164.853
77.0445
99.6815
55.243
132.379
105.775
52.7583
58.9608
47.6276
94.6421
86.2219
53.3816
68.5203
43.1086
70.5877
61.9682
43.5508
100.538
49.2887
84.4358
101.372
52.356
45.8518
46.4024
48.1286
299.468
59.2232
58.0281
59.1892
80.0089
59.6904
73.2037
47.6969
83.6066
100.048
90.4622
46.5326
73.4289
61.6689
59.2876
44.7768
46.016
67.0122
49.1957
50.4796
45.1909
45.0931
82.6234
46.0196
43.3241
59.477
60.0198
69.5311
75.9017
51.1584
76.3269
59.8297
72.3737
76.1859
49.8739
60.391
42.0014
59.3397
383.964
297.385
65.9553
101.533
402.855
365.997
113.79
499.483
375.89
301.508
331.355
180.186
109.007
82.4582
126.869
102.917
50.2274
46.6493
68.0571
72.3813
62.995
60.3177
52.3291
48.4154
47.9006
51.4557
91.9865
101.801
93.4231
48.5372
44.9257
64.5243
85.9158
94.3477
165.004
72.9598
108.601
78.7104
59.9276
73.3334
51.1488
164.245
81.7776
124.642
123.879
84.7627
57.8778
44.8822
83.1044
56.3837
65.7146
93.2371
75.4605
100.018
75.5242
67.0368
85.6942
93.1948
99.4454
79.5403
82.6703
68.8031
116.028
63.3079
114.597
65.3287
63.945
55.0543
469.289
359.284
222.437
80.2471
47.6351
59.2609
61.4557
60.603
65.5987
90.4276
114.844
88.3804
43.618
57.4889
66.783
56.1131
70.585
49.371
71.5139
70.146
105.106
47.4719
50.6883
64.2847
76.411
52.0679
72.2802
76.2198
69.7098
117.844
72.4836
130.896
107.815
49.4875
91.7502
120.384
136.033
102.512
67.6331
111.315
79.5444
81.0358
72.5765
94.3266
77.7403
55.7531
106.823
98.9927
109.63
106.315
118.183
92.2293
113.286
130.71
81.6441
49.4704
68.4628
99.9456
62.7501
51.3532
47.4151
80.9833
88.4212
53.1508
66.5372
84.7591
43.7859
60.6409
86.233
45.2466
91.8508
108.868
44.9511
250.628
212.397
231.142
253.662
50.8112
195.076
75.2498
99.4772
98.3471
272.834
82.149
66.566
70.4973
69.0381
69.9545
83.826
476.597
248.447
538.305
211.327
74.4644
74.1322
73.9135
140.803
122.595
101.613
74.9266
75.4897
86.8678
80.394
78.3377
69.167
84.564
98.736
138.582
179.548
77.4987
99.3537
71.7559
126.753
106.052
402.911
54.995
50.987
60.3174
372.755
349.959
63.0219
72.7975
270.438
266.563
328.794
74.517
58.0363
453.723
91.8908
107.212
163.229
129.272
42.3187
351.039
91.1992
44.3395
87.3139
84.6247
52.057
50.9033
89.3158
420.702
79.1087
237.46
47.8887
107.545
48.739
238.277
65.3799
50.0978
54.7675
52.0152
43.9019
98.4915
91.1343
116.612
63.2725
109.698
89.1626
67.5893
42.7724
75.5919
84.6253
50.9331
95.0664
58.1268
72.291
57.4401
58.3679
119.476
43.4832
43.946
78.6431
53.5487
51.2021
108.483
247.571
49.9362
133.369
46.1132
66.0554
56.7172
61.8125
142.728
119.012
103.857
86.0416
102.422
62.3418
51.8962
44.8603
43.8558
94.5157
127.351
132.287
288.199
274.741
402.024
92.6286
106.591
54.8848
48.385
46.1522
67.366
121.732
167.814
67.339
79.4474
125.778
316.684
184.799
313.851
346.95
214.909
263.439
97.6363
116.652
482.279
315.075
102.532
56.5018
48.7697
82.8143
159.541
106.062
69.8262
96.5952
226.645
45.5063
84.5473
111.51
83.356
81.0543
69.07
90.803
50.0377
80.3401
70.7483
49.9475
46.8872
64.661
69.1618
62.208
104.712
123.366
232.008
448.359
144.985
91.5197
82.83
68.8091
203.571
227.569
91.6732
84.417
255.998
140.891
353.486
450.22
129.215
196.12
451.624
131.669
273.01
602.018
117.848
96.2596
67.113
88.9029
127.299
140.684
99.3811
173.155
73.7687
111.186
102.29
119.371
121.267
111.682
88.4002
448.075
265.393
384.899
370.817
302.71
448.664
109.119
92.7479
160.14
246.045
284.391
543.723
258.772
247.227
254.036
363.682
347.186
145.48
336.538
329.372
241.819
57.8021
108.088
252.841
197.504
61.3377
66.2326
49.4046
92.9563
58.4097
80.8966
113.749
100.918
90.3072
60.771
85.1136
236.714
109.348
42.9822
100.655
181.377
72.1438
111.999
117.096
103.577
78.3807
101.306
91.9439
82.1865
236.226
86.6615
121.127
52.3607
83.0191
59.4322
61.3493
71.9683
165.968
92.5322
89.2334
96.1782
83.7872
106.614
49.8215
57.6682
63.8558
76.8426
73.3404
44.5207
73.3385
45.6201
47.2228
48.3782
672.216
478.501
247.645
110.847
360.792
488.189
93.5808
125.308
328
336.584
474.001
415.798
209.614
206.626
235.145
335.885
344.523
340.536
418.986
526.353
351.337
67.2971
388.254
287.831
72.4575
84.2902
79.097
50.0856
78.0464
61.2075
56.8867
50.5025
47.6106
51.7925
492.488
444.517
356.704
58.6336
87.4572
152.819
156.741
83.6255
86.577
82.4858
79.0979
122.797
79.9305
107.82
310.861
450.876
384.863
56.5801
85.4308
74.876
288.387
93.7918
125.437
64.2549
75.1367
79.6698
50.2641
44.4235
51.1719
75.2114
91.5224
57.8504
105.325
44.835
44.1826
98.1224
52.5109
44.6428
41.8866
74.4246
50.1256
97.9603
43.189
43.0733
56.5725
54.9426
60.9159
98.8156
53.6485
45.9486
92.3808
45.4135
112.41
55.109
51.6432
42.6852
54.0555
79.4649
96.8752
78.6894
64.3999
154.414
56.4652
53.3615
179.472
115.413
147.995
55.0157
96.4691
43.0502
58.1256
53.5022
107.185
87.3815
71.02
67.865
62.3804
95.3641
87.3864
64.1228
55.9318
103.843
45.3993
110.107
68.6165
91.4988
50.3972
45.1322
57.1594
135.924
80.5035
61.6677
71.3546
97.8228
44.0713
75.9893
77.5827
121.69
105.089
191.756
82.1211
53.365
58.6891
120.773
73.3399
86.1326
93.8507
74.3801
85.1486
86.3355
115.142
83.4328
73.7167
56.1224
75.5692
62.7582
94.1038
64.8256
53.7893
60.8998
116.758
57.5213
52.3296
69.6751
77.209
48.0975
71.3899
78.4728
119.468
79.2397
45.7339
65.2
87.1676
89.6974
88.4828
88.4769
56.1357
52.0234
52.3115
65.5678
144.43
81.941
48.4788
44.8929
60.3578
46.6302
48.6854
56.7544
43.9689
45.6807
94.2607
58.6992
57.8854
43.8457
60.689
52.6966
63.8907
63.1623
73.5729
50.9105
61.0531
72.7608
110.081
63.6353
45.6461
106.015
104.629
56.3971
130.269
84.0984
73.4511
48.2231
84.25
42.3769
89.557
45.5561
71.6649
76.9935
78.7829
167.23
72.3999
211.168
46.3959
92.151
82.7123
106.392
139.356
47.3525
86.3238
97.1806
91.2894
57.7868
89.8796
69.3285
100.792
107.003
110.745
105.868
53.4047
68.9573
552.66
680.382
282.393
56.9164
81.4695
518.31
80.6078
370.866
362.282
97.0432
329.767
61.799
44.8682
143.156
179.402
50.7232
54.9894
118.25
111.127
99.9837
75.9951
59.5843
70.0476
46.725
46.0828
72.077
411.916
70.1642
49.4442
57.9159
295.267
310.362
238.952
244.572
210.28
56.1479
580.324
76.0279
89.0709
279.604
220.687
407.496
228.399
51.2981
73.6237
49.9896
78.8004
71.8004
74.9131
52.6466
53.823
90.5365
44.5246
74.3107
61.3513
44.9982
194.715
99.0838
45.4261
51.935
258.037
81.9002
48.4021
53.8868
100.386
73.9444
96.3144
62.5313
107.994
47.543
74.1827
512.955
51.9782
281.611
133.762
307.579
257.416
368.059
48.7606
496.914
149.275
75.6782
368.822
50.6228
51.9587
56.6364
56.1306
74.527
77.3181
58.9554
93.0684
112.556
316.795
317.463
276.099
635.166
83.2991
123.728
98.2933
49.1132
107.969
354.669
105.105
60.9287
97.7812
227.912
175.95
340.248
350.136
123.361
303.213
75.4236
60.5127
122.469
78.5037
53.6164
97.6892
42.6879
125.533
297.494
294.325
287.024
404.348
505.08
282.314
104.183
102.177
313.701
171.974
247.255
286.676
103.855
236.457
255.104
121.46
370.569
320.847
141.946
114.643
176.885
111.2
100.826
144.54
45.5209
70.1896
65.4795
51.7838
54.5702
53.6104
48.0048
57.9435
45.9603
58.7418
123.29
45.2516
61.7956
399.344
362.959
719.781
89.1449
52.0247
69.4963
52.0454
78.6826
76.767
141.961
89.5342
54.675
69.3375
384.991
43.3364
56.7494
467.02
258.869
151.045
60.338
65.7581
90.3614
57.4525
77.419
90.523
74.0016
72.4294
102.533
93.5094
105.389
168.303
105.356
63.8514
109.832
112.335
116.775
183.831
318.496
308.719
114.857
605.083
320.794
92.5152
43.7522
72.0759
292.148
191.174
282.517
313.537
240.434
103.685
108.045
105.591
96.9243
74.1115
115.273
116.503
215.304
265.317
348.473
319.478
74.0482
88.2144
104.584
193.526
138.652
106.731
136.906
104.036
185.85
159.634
52.3564
57.125
70.5684
68.8185
84.6065
89.4597
97.889
554.651
285.417
383.345
378.876
260.147
687.02
142.736
70.9538
251.77
72.0638
76.1195
75.7073
80.7265
308.992
283.205
179.078
89.3958
359.334
440.968
322.481
142.132
209.477
319.246
262.362
87.0643
98.3296
176.684
118.685
46.1207
104.004
53.3801
47.1367
72.7361
104.186
96.2427
126.63
125.208
141.945
80.4331
198.572
70.8759
64.5529
56.6977
101.315
114.996
174.593
95.7739
90.6403
101.932
214.94
245.641
83.412
88.9415
85.3466
85.0827
63.1984
47.7323
49.3985
58.187
51.2617
45.8814
96.0348
54.9981
54.5319
70.9863
52.6941
53.5589
78.0073
114.837
71.2769
78.3114
92.3165
91.5676
63.8857
56.0863
53.0949
57.1191
49.8786
43.9038
91.5558
44.6568
68.4375
63.9918
71.7679
43.3422
83.6013
65.7723
65.4844
53.6829
85.574
85.4349
131.207
83.2433
51.7942
90.6869
89.9673
53.874
60.1447
117.67
126.132
113.324
260.352
66.4855
286.318
404.118
600.996
706.327
135.365
201.361
243.5
204.802
72.2557
59.3054
50.1797
58.4676
53.65
54.311
88.324
77.0812
170.141
71.9166
58.0149
66.0474
101.427
97.3851
59.4369
84.1408
60.0526
71.0011
44.8876
44.2785
46.1723
47.777
63.6604
61.9022
67.0589
52.9076
65.543
476.236
210.703
216.745
78.5362
95.5977
61.0382
94.7591
83.7924
65.7437
49.9953
54.4172
504.807
46.5371
65.5469
64.6505
59.7046
99.0506
100.694
125.362
81.7225
127.886
76.2365
77.2072
123.034
87.7419
76.8339
62.9418
308.598
318.772
240.709
642.221
232.869
85.7667
67.9417
163.22
416.549
80.82
50.5899
88.9662
87.7274
62.9757
60.0892
46.6054
84.9863
49.7588
51.1366
42.5137
91.9373
59.9884
43.8176
44.9541
67.5426
64.8076
51.6784
121.967
56.0104
53.0084
75.1968
120.634
96.7518
103.388
103.701
56.681
42.5081
62.2074
50.5531
88.5172
191.658
107.54
53.4833
60.0187
69.7156
96.172
47.114
63.6471
44.9852
83.6659
74.8445
64.1203
85.1386
63.0615
116.004
42.4169
54.3583
91.7816
48.4494
69.7915
94.9669
45.2074
43.4264
47.3146
92.5865
48.1359
46.4349
115.828
78.5981
112.03
141.224
124.287
49.0281
55.2288
50.1119
62.614
74.2575
98.0966
74.5
89.2778
75.2293
83.5661
96.5589
284.749
490.447
376.287
466.946
95.8736
105.276
390.184
68.9573
95.8664
94.2699
82.8408
90.2173
115.517
65.3731
122.902
425.271
57.4757
344.653
282.136
84.6982
88.3639
51.5478
49.3805
76.8412
53.8671
72.5026
64.7277
66.8618
80.5205
60.3111
102.937
73.1587
121.35
90.3436
90.2541
70.5877
71.1323
90.6075
71.0344
70.3598
46.4864
85.3463
53.5391
92.66
55.4609
44.3045
93.8045
54.2941
83.2696
95.218
60.7062
65.3254
81.8216
88.5917
157.937
286.919
120.884
294.963
263.822
91.1423
88.0674
55.3777
89.824
73.647
90.2631