/*--------------------------------*- C++ -*----------------------------------*\
| =========                 |                                                 |
| \\      /  F ield         | OpenFOAM: The Open Source CFD Toolbox           |
|  \\    /   O peration     | Version:  2506                                  |
|   \\  /    A nd           | Website:  www.openfoam.com                      |
|    \\/     M anipulation  |                                                 |
\*---------------------------------------------------------------------------*/
FoamFile
{
    version     2.0;
    format      ascii;
    arch        "LSB;label=32;scalar=64";
    class       surfaceScalarField;
    location    "0.0440925";
    object      phi;
}
// * * * * * * * * * * * * * * * * * * * * * * * * * * * * * * * * * * * * * //

dimensions      [0 3 -1 0 0 0 0];

oriented        oriented;

internalField   nonuniform List<scalar> 
7237
(
0.147469
-0.0958528
-0.00700716
-0.0446089
-0.0621888
0.0600121
0.0373135
-0.0351368
-0.017227
-0.0171215
0.0581156
-0.0237671
-0.0195594
-0.101879
0.0645554
0.0568826
-0.0864202
0.0863154
0.000104796
0.0334839
-0.00546113
-0.0754491
0.0474263
0.000576966
-0.0587453
0.0581684
-9.16345e-06
0.0701717
-2.10097e-06
-0.0701604
-0.0547841
0.0544757
0.000308399
-0.0977132
0.0905276
0.00515587
0.00202971
-0.116069
0.0264029
0.128528
-0.0388622
0.0246422
-0.0036327
-0.151335
0.130326
0.00690093
0.0176515
-0.0274206
0.00286822
0.0420324
-3.46795e-05
-0.00233479
-0.0290608
0.0413925
-0.00999698
0.128913
-0.142218
-0.0280518
0.0413572
-0.0151192
-0.045187
0.0579714
0.086836
-0.0159906
-0.0804329
0.00958751
0.00571989
0.0312218
-0.0520609
0.0305408
0.0271964
-0.130512
0.0727751
-0.0139071
0.0574867
-0.0100881
0.0278933
-0.00557061
-0.0395103
-0.0534404
0.0117074
0.0812433
-0.00970414
0.0599285
-0.0590207
0.0087964
0.0601133
-0.0605272
0.000413866
0.0727414
-0.0422071
0.0255921
-0.0561264
-0.064534
0.0644373
9.67292e-05
0.000450961
0.0902658
-0.0907168
-0.0996066
-0.0420653
0.11259
0.0290821
0.0254835
0.0403762
-0.0259307
-0.0399291
0.0521783
-0.0208963
-0.0745
0.043218
-0.0987926
-0.00118891
0.103111
-0.00312948
-0.00502902
0.013816
0.0225441
-0.031331
0.0185752
0.0720027
-0.120989
0.030411
-0.0558463
-0.000301932
0.0561483
0.105695
0.120917
-0.0791438
-0.0641799
-0.002295
0.0664749
0.000988414
-0.0658698
0.0648814
0.000993867
0.0797853
-0.0807792
-0.0787424
0.0785548
0.000187519
0.0501964
0.0942957
-0.156383
0.0118912
0.0309358
-0.055881
0.0496584
-0.0247132
0.00020813
0.0737127
-0.0739209
0.00143739
-0.0256093
-0.0203484
0.0445203
-0.0526371
0.0525218
0.000115263
-0.0634415
0.00752406
-0.00128302
-0.0353671
0.0210445
-0.090724
0.105047
0.00215453
-0.0663345
-0.0657352
0.0664964
-0.000761196
-0.0165269
0.0581217
0.0129415
-0.0545363
0.0691554
0.0046834
-0.0535919
-0.0202469
0.0671962
-0.0837231
-0.182622
0.0278622
0.162156
-0.00739554
-0.0186104
-0.116179
0.0162998
0.11849
0.0476001
0.017983
-0.134758
0.0691751
-0.000783935
0.0721097
-0.149982
0.0786561
-0.0269337
-0.0874887
0.0413083
0.0731141
0.0611919
0.0134744
-0.123146
0.0484797
-0.0711642
0.00039058
0.0707736
0.0119588
-0.0666725
-0.0231276
0.0778414
-0.0418421
-0.0366405
0.0873313
-0.00884873
-0.000406093
-0.000309275
0.000396182
0.000319186
-0.0624756
-0.00471228
0.0146123
0.0525755
-0.00902499
0.103136
-0.00503114
-0.0890798
-0.107345
0.00459172
0.0130155
0.0897375
2.20884e-05
-0.000321207
0.000661782
-0.000362663
-8.93755e-05
0.000636871
-0.000525408
-0.00022631
-9.48971e-05
0.000200193
-0.000426503
-0.0157552
-0.0255158
0.017002
0.0242691
-0.050959
0.115352
-0.0501535
-0.0142392
0.0804769
-0.0800501
-0.000426754
-0.00805571
-0.00526851
0.00564537
0.00767885
-0.131616
-0.00836407
-0.000895976
0.0371186
-0.0248994
-0.0174127
0.0051935
0.00462434
0.00757182
0.0518695
-0.0640657
0.110646
-0.00624204
0.00385466
-0.108258
0.0152729
-0.0773425
0.0620696
0.00186878
0.00428481
-0.0942621
0.0881085
-0.00968425
0.0201993
-0.0800551
0.06954
-0.000671935
0.000814826
-0.000142891
-0.0617406
-0.00450399
0.0665991
-0.0974091
-0.00490947
0.104101
-0.001782
0.0504908
0.00113162
-0.0516225
0.0889031
0.106
-0.0868615
-0.108042
-0.000615609
0.000373152
-0.000849915
0.00109237
-0.0339491
0.00589225
0.0177417
0.0103151
-0.000694764
0.000288671
-0.000749309
-0.000525992
0.000475389
0.000799912
-0.00059399
-0.000155319
-0.000334168
0.0051482
-0.00574119
0.000788368
-0.000946097
-0.000715279
0.000873009
-0.0278957
0.0455612
-0.0522725
0.034607
-0.0309974
-0.00208263
0.0310716
0.00200843
-0.0308841
-0.000113321
-0.0309863
0.000102205
-0.00075224
0.0699699
-0.0692177
-0.0224977
0.0324299
0.00566731
-0.0155996
-0.00466363
0.0413795
-0.00069764
-0.00754257
-0.0147447
-0.0821915
0.104479
-0.0549059
0.0559657
-0.00105976
-0.0652486
0.0117645
-0.0706618
0.0648131
-0.00224658
0.00809533
-0.000614287
0.00461272
0.00198639
-0.00598483
-0.0707428
8.09556e-05
0.0631436
-0.0635421
0.000398517
-0.00707509
-0.0122882
-0.00253299
0.0218963
-0.0928747
-0.00399221
0.0945433
0.00232361
-0.0566812
-0.0182165
0.0116605
0.0632372
-0.0565284
-0.000152808
0.048618
0.00742679
0.0292293
0.0139351
0.0141663
-0.0573307
6.64103e-06
-0.0451323
-6.13312e-05
-0.0290541
0.000175147
-0.0510527
0.0198555
-0.00215494
-0.00845049
0.0404695
-0.0298641
0.0410987
-0.0451624
0.0112203
-0.00715661
-0.00043477
-0.000259994
-0.000315649
-0.000645113
0.0676286
-0.000470351
-0.0671582
0.0576319
-0.0310216
-0.0275254
0.000915121
0.0684812
-0.145134
0.0758692
0.0157523
0.0108669
0.0148805
-0.0414998
0.00237474
0.000844313
0.125694
-0.0718384
-0.00994424
0.10112
-0.0193372
-0.00014802
0.00465536
0.00261342
-0.00712075
0.00299343
0.0082876
0.0435096
-0.0547906
-0.0581015
0.0560581
0.00204334
-0.0246185
0.0359988
0.026233
-0.0376132
-0.089941
0.0445202
0.0454208
-0.00175113
0.0100896
0.000587038
-0.00892555
0.0642864
0.0342883
-0.0865689
-0.0120058
0.0409352
-0.0597893
0.0741228
-0.0552687
-0.0490058
0.0403191
-0.00407455
-0.0280047
-0.0578086
0.0578032
5.44345e-06
-0.00165455
0.00346693
-0.00344067
0.00162829
-0.100221
-0.0232107
0.0357974
0.0876338
-0.000820438
0.00248774
-0.0045274
0.0028601
0.0351769
0.000576962
-0.0245678
0.00193334
-0.000528446
-0.00320866
0.00180377
-0.000530466
0.000282587
0.077637
0.000368711
-0.0962701
0.0182644
0.066186
-0.0129762
-0.0072832
0.0142848
0.0568826
-0.0638842
-0.0907616
0.000744175
0.0900175
-0.0994165
0.115143
-0.0128467
-0.00287997
0.00432874
0.0732021
-0.0644001
-0.0131308
0.0557674
-0.0107864
-0.0406523
0.0730247
0.000177412
-0.0732328
0.000284455
0.000415361
-0.063901
0.0634856
0.00319018
-0.0640622
0.0627408
-0.0738515
-0.0709915
0.0791077
0.0890042
-0.0431963
-0.0542915
0.00848365
0.108199
-0.10799
0.000206944
0.108208
0.0315827
-0.130378
-0.00941262
-0.00051062
-0.0926838
-0.000584835
0.0937793
0.0609706
0.0792026
-0.0708814
-0.0692918
0.107947
0.0178558
-0.0710433
-0.0547592
-0.0187627
0.032953
-0.00527681
-0.00891352
-0.00103687
0.0110529
-0.00449733
-0.0709687
-2.40674e-05
0.0709927
-0.084949
0.00426799
-0.00648745
0.0871685
-0.0223012
-0.0364097
0.05685
0.00186095
-0.0525103
0.0106496
-0.0877146
0.0881313
-0.000416639
0.0311748
0.0363346
-0.00463097
-0.0628785
-0.00493378
0.00105916
0.00353517
0.0731093
-0.0007367
-0.0723726
0.0162653
-0.0130658
-0.00327336
-0.0176601
-0.00367548
-7.50648e-05
0.000535852
-0.000520023
-0.12123
0.121214
-0.029683
0.0321431
-0.0810206
-0.114272
0.0396791
0.03953
0.0350633
-0.0726576
0.0322728
0.0643827
-0.023998
-0.0795454
-0.00591195
0.0854573
-0.0477788
0.0485508
-0.000772026
0.0747886
0.0903613
-0.0618113
-0.103339
-0.0175928
-0.00466839
0.0835848
-0.0613236
0.0466313
-0.0280528
-0.0980651
0.0794865
0.0331808
0.0501299
0.0224533
0.0721688
-0.0720704
-9.83887e-05
0.0715746
0.000594167
-0.0860532
-0.000366954
0.000232413
-0.000349194
-0.0579126
0.0580294
0.0080917
0.0750852
-0.0101652
-0.0730117
-0.0618666
-1.03877e-05
0.061877
-0.0134632
-0.0277758
0.0282215
0.0130175
0.037065
0.039289
-0.059212
-0.017142
0.000604879
-0.000785715
0.00046881
-0.000287975
-0.0647666
0.065755
0.00106615
-0.000443615
-0.000161404
-0.000461131
0.00059701
0.000764699
-0.000295558
0.00123489
-0.000637878
-0.0154308
0.0396377
0.0279714
0.0641425
-0.0513253
0.0802392
-0.0930564
-0.012271
-0.00990894
-0.079179
0.101359
-0.0219444
-0.105912
0.0896452
0.0382117
0.0487849
0.0151035
-0.0193223
-0.044566
-0.0172427
0.0351213
-0.0803541
0.0400027
-0.0714423
-0.021564
0.0530036
-0.013616
0.0148448
0.0730124
-0.0742412
-0.0471203
0.048331
-0.0012107
-0.0512869
0.0474494
0.00976383
-0.00592636
0.0137627
-0.0446082
-0.0216378
0.0524834
-0.0561222
0.0558298
0.000292389
0.0806132
-0.0800162
-0.000596958
0.0807768
-0.0083856
-0.0701621
-0.00222908
0.00100702
-0.0522939
0.110968
-0.0793918
0.0443503
-0.0759263
0.0702593
0.0511264
-0.02135
-0.100036
0.0197033
-0.0181232
-0.0183151
0.016735
-0.093885
0.0274708
0.0500076
0.0164067
0.00390447
0.0807957
-0.0144408
0.011306
0.124645
-0.0146005
-0.12135
0.0142942
-0.0363348
0.0618555
-0.0398149
0.0672189
0.0893003
-0.0608891
-0.0956301
0.000197634
-0.000549061
0.000351427
-0.000533901
0.000612817
-0.000522532
0.00063097
0.0698906
-0.0802059
-0.00182155
0.0818199
0.000782275
-0.0807806
-0.0539799
0.017635
0.00844922
-0.000212508
-0.000321393
-0.000170017
-0.00031726
0.000487276
0.0294243
-0.0426547
0.0191472
-0.00591674
-0.014495
-0.0491716
0.0244728
0.0391938
-0.000189005
-0.000107113
-0.0638031
0.0594607
0.0529028
-0.038425
-0.0175897
0.0517022
0.00431249
0.00716946
-0.0499
0.088253
-0.0455225
-0.0347075
0.0218054
0.0160954
-0.00319332
0.0186664
0.00258365
-0.120857
0.0417669
0.000265479
0.0409312
0.0623676
-0.106167
0.0028682
-0.0418792
-0.0186423
0.0643172
-0.00379568
-0.000112274
0.0648589
-0.04257
0.0987688
-0.00848931
0.00738351
-0.097663
-0.000909639
-0.000556677
-0.000352962
-0.00180904
0.00279345
0.00406059
-0.0413797
0.0705104
-0.00762927
-0.0215014
-0.0829293
0.0214426
0.0332217
0.028265
1.28444e-05
0.0285796
-0.0328567
-0.013022
0.0294845
-0.0336895
0.0285318
-0.0802394
0.00155824
6.1992e-06
0.000842642
-0.00240708
-0.0448946
0.0706757
-0.0125313
-0.0132497
-0.0448452
-4.94369e-05
0.0484262
-0.0479159
-0.000510257
-0.043985
0.0512621
0.0111798
-0.0184569
-1.61459e-05
-0.0787262
-0.00452208
0.0355511
-0.00236235
-0.0784668
0.0781176
-0.000200961
0.0287328
-0.00184171
0.00229603
-0.0203849
0.0199306
-0.000296342
-0.000343718
0.00064006
-0.00132926
0.00089649
0.000630405
-0.0463403
-0.0188284
-0.00544164
-0.000110263
-0.0462301
0.032772
-0.000455348
0.00144676
-0.0292164
0.025687
-0.00013315
4.99748e-05
-0.0373968
0.00484244
0.0515693
-0.0594356
0.0182368
-0.0103705
0.0517877
-0.000218359
0.0784395
0.0963832
-0.0731273
-0.101695
-0.0357985
0.0160635
0.0428528
-0.0231178
-0.0358799
-0.000719755
0.000801195
-0.0425017
0.0128119
-0.00619021
-0.00140169
-0.0444349
0.00333491
0.0431657
0.00275971
-0.0473271
0.0431724
-6.72611e-06
0.0641888
-0.064122
-6.68317e-05
-0.000211256
-0.0656373
0.0605607
-0.00805416
-0.0558496
0.000244537
0.055605
0.00016147
0.0573252
0.039594
-0.0170116
-0.00052209
0.0698959
-0.0693738
0.0111043
0.0701399
0.0281044
-0.0155374
0.059989
-0.072556
0.000415232
-0.0394285
0.0390133
-0.00844115
-0.0697974
0.0214911
0.0567474
-0.056919
0.0003906
0.0502863
-0.0714985
0.0127711
0.0323427
-0.0566885
-0.0106954
0.0350412
-0.0824157
0.0525004
0.0859029
-0.0855544
-0.0991411
0.0641816
-0.0743732
0.0148159
-6.4164e-05
-0.0804514
-0.0828637
0.0878841
0.075431
0.000474079
0.000187703
-0.0682201
0.0438657
0.0550733
-0.0307188
-0.00064627
-0.00043172
0.000874147
0.000203843
-0.000172191
-0.00085693
0.00144805
-0.000591118
0.0852725
0.00270944
-0.0658419
-0.0221401
-0.00813863
-0.0083639
0.0395186
-0.0230161
8.90203e-05
-0.00184761
0.00340492
-0.00164633
0.015533
0.0022684
-0.00730829
-0.0787144
0.0728242
0.0098137
-0.0039235
-0.000243243
-0.000351534
0.000361093
0.000566688
-0.00117102
-0.000561118
0.00034346
-4.86338e-05
-0.000604101
0.000236142
0.000107318
0.0672343
-0.124097
0.0133212
0.0435414
-0.00108149
0.00499481
0.00143322
-0.00534653
-0.0699069
0.0700688
-0.000161878
0.0577817
0.000617784
-0.0583995
0.0164417
-0.014774
-0.000980179
0.00217541
-0.00110621
0.056915
-6.4966e-05
0.000577167
0.00223699
0.000727572
-0.00354172
-0.0321812
-0.0194226
0.0534648
2.00698e-05
0.0568949
-0.0920037
0.0788026
0.0780875
-0.0648865
-0.061557
-0.00465514
0.0662121
0.0162337
-0.102763
0.0894099
-0.00288032
0.0200406
0.0294932
0.0042019
-0.0537357
-0.0147423
-0.0400318
0.0524764
0.00229776
-0.0466558
0.0466659
-1.0119e-05
0.000438766
-0.0567987
-0.115475
0.022087
0.071444
-0.105701
0.0638479
-0.00169008
0.00297843
-0.00134905
6.06965e-05
0.00285195
-0.00138974
0.000854271
-0.00766347
-0.121292
-0.0130704
-0.0343189
-0.0586554
0.000387101
0.0925872
6.37787e-05
0.000938248
-0.00100203
0.000292756
-0.000464947
-0.000729444
0.000732091
-0.000716019
0.000713372
0.0600418
-0.0837101
-0.0692064
0.00187457
-0.00123819
-0.0014528
-0.000542134
0.000584412
0.000655093
-0.00069737
-0.00179459
0.0465542
0.00270175
-0.00120651
-0.00386216
0.00236693
0.012719
0.00619362
-0.00598777
-0.0129248
-0.0243184
-0.0428151
0.0328147
0.0704939
-0.0217
-0.0548833
0.00608934
-0.00322349
0.0019934
0.00508855
-0.00252348
0.00176655
0.00075693
0.000868551
-0.000468595
-0.000754912
0.000354956
-0.0197988
0.0564292
-0.00138215
-0.00127232
0.00364854
-0.000994079
0.00983655
-0.0340813
0.0361355
-0.0118908
0.000834083
-2.85423e-05
-0.00142115
-0.000206257
0.000609354
-0.00907146
0.00645264
0.00200947
0.0893864
-0.0795921
-0.117139
0.00203211
0.000963606
-0.00370814
0.000712418
0.000325826
-0.000146727
-0.000179099
0.0293012
-0.0295724
-0.0260753
0.0263466
0.00294256
-0.00445741
0.000308059
-0.0445127
0.0201574
0.0469067
-0.0225514
0.103077
-0.0236008
0.00335027
0.00061032
-0.00152408
-0.00383045
0.00283105
-0.0461684
0.0375249
0.0116369
0.00106497
-0.000381696
0.0014422
-0.00212547
-0.00238854
0.00225656
-0.00296211
0.0030941
-0.00191642
0.000417716
0.00256367
-0.000657469
-0.000274886
0.000202912
-0.00147613
0.00105725
-0.00196966
-0.0829605
-0.000755783
0.0837163
-0.0502922
0.0224251
0.0428352
-0.0149681
-0.0524322
-0.0190173
0.0771404
-0.0056908
-0.04285
-0.0297576
-0.0141936
0.0868011
-0.0322563
-0.00534811
0.0151699
0.0710683
-0.0808901
-0.00881908
-0.0427985
0.010321
0.0412965
-0.000592743
-0.00246122
-0.00211653
0.0051705
0.0334501
-0.00931035
0.00788627
0.0237843
0.00484583
0.0744467
-0.0759344
0.063585
0.0268957
-0.0145463
-0.00467768
-0.0392804
0.0268803
0.0170778
-0.0192876
0.00203167
0.0408726
0.00120683
-0.000980753
0.00580559
-0.0104274
0.0204347
-0.0158128
-0.0390929
-0.0149904
0.0542321
-0.000148763
-0.0212237
-0.00349815
-0.00358725
0.0283091
0.0180267
-0.0553417
-0.00667005
-0.00299659
0.00188103
-0.0001317
0.00124727
0.0231584
0.00507823
0.027241
-0.0554777
-0.0883199
0.119247
0.0110148
-0.0419421
-0.000604983
0.000819184
2.65024e-05
-0.000240703
0.0077412
-0.0111825
0.00923652
-0.00131089
0.00115557
-0.00725451
-0.0149229
-0.0318025
0.0189176
-0.0101628
-0.0215211
0.0127663
0.00165828
-0.0350264
0.0161433
0.0172249
0.0176464
0.0310553
-0.0533794
0.00151103
-0.0127622
-0.0110152
0.0222664
-0.00846178
0.0732145
-0.0760411
0.0112884
0.025623
-0.0695437
0.0150987
0.028822
0.0470045
0.0663462
-0.0701008
-0.0432499
-0.000322357
0.0859257
-0.0858904
0.000287094
-0.117444
-0.0311619
0.0823268
0.0662787
-0.00963084
0.0344395
-0.0342863
0.00947773
-0.0169538
-0.00121397
0.0297062
-0.0115385
-0.0527818
-0.0109953
0.0659034
-0.00212641
-0.0623643
0.0181949
0.0393506
0.00481881
0.00050658
0.0195778
-0.0219261
0.0369223
-0.0499355
0.00829906
0.00471405
-0.00779692
0.0396138
-0.0121136
-0.0279525
0.0386015
-0.0179035
-0.00116729
0.0588049
-0.0368256
-0.020812
0.0234105
-0.0277936
0.00415646
0.000226665
0.00575846
-0.00605319
0.0699638
-0.0696691
-0.0578226
-0.00434004
0.00279078
0.00163923
-8.99634e-05
-0.000411439
0.0602051
-0.0136948
-0.0460988
0.134578
-0.0627028
-0.0380905
-0.0337844
-0.00496194
0.00233668
0.104015
0.0253877
-0.0226336
-0.106769
-0.0034709
0.00442907
-0.00157245
8.64079e-05
0.106919
-0.123151
0.0161458
0.00320419
0.064428
-0.0137763
-0.0538559
0.0272613
0.0712298
-0.011853
0.0654287
-0.0626007
0.000473431
0.11282
-0.00858703
0.0660407
-0.175396
-0.0732672
0.051872
-0.0344337
-0.057318
0.0398797
-0.0452099
0.0255135
0.00600377
0.0136927
-0.0798243
0.0639661
-0.0818549
-0.0178102
0.162453
-0.00412795
0.0597575
-0.0457064
-0.0144625
-0.0482594
0.00113909
-0.0283915
-0.0179334
0.0386956
-0.00310878
0.032773
-0.0239969
-0.00489253
0.0121038
0.0394902
0.0291591
-0.00189258
0.00507388
0.0406757
0.000288942
0.000454857
0.0379646
0.00225629
-0.0288888
0.0405951
0.00249961
-0.0382526
-0.0127282
-0.0113099
0.0622908
0.0042371
9.48679e-05
-0.00380516
-0.000526803
-0.00160906
0.00362163
-0.00299275
-0.0140907
0.0364784
-0.0065033
-0.0158844
0.00279734
0.0337214
-0.0787771
0.046648
-0.00159229
-0.0780312
0.0814449
0.0303077
-0.0405615
0.054619
0.0166488
-0.0307063
0.00754777
-0.0822419
0.0341327
-0.000711897
-0.0786848
0.000619573
-0.0787431
0.0774254
-0.0194055
0.00209337
0.0450179
0.00609302
-0.00131767
0.0518472
0.015771
-0.0306959
-0.0570956
0.0169391
-0.0286786
0.0525509
-0.0436711
0.0538943
-0.0105938
0.0750414
-0.000399033
0.000356929
-0.030638
-0.00136669
0.0267373
0.0052674
0.00252019
0.00144527
-0.0013314
0.0013419
-0.00120014
0.00118965
-0.0722756
0.0310788
0.0203005
-0.0238934
0.0126896
-0.0361466
0.0473505
-0.00247965
0.00354865
-0.00406559
-0.0244703
-0.0154857
0.0315056
-0.0131438
0.00785422
0.0242071
0.0247341
-0.000911841
-0.0233157
0.0799491
-0.00259014
-0.0773589
0.0055917
0.0591117
-0.00351149
-0.0143194
0.0903698
0.0116089
-0.0876593
-0.00104385
0.0923091
-0.105585
0.0192579
-0.0361182
0.0185186
0.0116245
-0.0472569
0.075525
-0.0398927
-0.00394665
0.0269195
-0.0241172
0.00114429
-0.000931804
-0.0445422
0.045474
-0.000202597
0.000912935
-0.00136781
0.00207161
0.000666878
0.000386163
-0.00312465
-0.000385999
0.00193418
-0.00329932
0.014261
-0.0163142
-0.0149007
-0.0546658
-0.000118348
-0.0986501
-0.131785
0.12701
0.103425
0.0470885
0.00933452
-0.114194
-0.0502955
0.0631203
0.101369
-0.0423072
-0.054936
0.0444615
-0.0053757
-0.02705
-0.00988152
-0.027112
-0.00796645
0.0297027
0.0586994
-0.0624793
0.00602927
-0.00224933
-0.0219769
-0.0518062
0.0300367
0.0437463
0.095294
-0.122226
0.0164336
0.0104984
0.0422882
0.108213
-0.0845618
-0.0659393
-0.0169405
-0.0111876
-0.0218074
0.0908625
-0.100037
-0.0771294
0.0863042
0.0463421
0.0153634
-0.0397878
-0.0219176
0.0597123
-0.00101293
-0.057773
0.0596606
-0.00188763
-0.040529
0.0105285
0.0386919
-0.00869145
-0.0182139
-0.0356851
-0.063448
0.00118324
0.0622648
0.00142495
-0.0638017
0.0623768
-0.0620231
-0.040238
0.00353102
0.0417808
0.0226116
0.00171467
-0.00291743
-0.00242151
0.00362427
0.00176684
-0.000318788
-0.000222126
3.88973e-05
-0.09803
-0.00172466
0.00360085
-1.63184e-06
0.00172976
0.000355344
-0.00125103
-0.0793458
-0.0255917
0.120512
-0.0155747
0.0200811
-0.0458397
0.0122954
-0.0603941
0.0238223
-0.0152107
0.0517825
0.00431425
-0.00674375
-0.0169045
0.0068003
0.0447558
-0.0346516
0.0405849
-0.0210353
-0.012723
-0.00682663
-0.0453325
0.0587121
-0.101866
-0.00888522
0.0597816
0.0501775
0.11321
-0.0911655
-0.0722224
0.00837616
0.04054
-0.00204835
-0.063208
0.0652563
-0.019046
0.0456313
0.0261466
-0.0527319
-0.0539732
0.004232
0.0479467
0.0752751
-0.0112132
0.0076719
-0.0717339
-0.0547844
0.0588688
0.0439005
-0.0479849
0.00993752
0.00412656
-0.0688485
0.0135725
0.0065369
-0.000507652
-0.00141225
0.00222773
2.36835e-05
-0.00225141
0.00471933
9.77702e-05
-0.00020438
-0.0269371
0.0778754
-0.0393137
0.00140485
0.0029527
-0.00450557
0.000522892
0.000404937
-0.000927829
0.00123251
0.00174475
-0.00469633
0.00171908
0.0964621
-0.0863754
0.0311569
-0.0975944
0.0458678
0.0205697
0.0424526
-0.0338356
-0.0144183
0.0737374
-0.0355829
-0.00377838
0.0114088
0.0729159
0.0298087
-0.0571634
0.0717206
-0.0411751
-0.0305455
-0.0573819
0.0376287
-0.062128
0.0818812
0.0858022
0.0246642
-0.00185159
-0.108615
-0.00598545
-0.0615789
0.133605
0.0734673
-0.0221719
0.0896489
-0.030587
-0.0683568
0.00929482
0.000195199
-0.0757213
-0.0999894
0.0130863
0.000442873
-0.115559
0.10203
0.0125632
0.095898
-0.0980838
-0.0103774
-0.0549503
-0.0719808
0.0559624
0.071503
0.00150978
-0.0691959
-0.00381683
-0.00596792
-0.0191005
-0.111204
0.0841567
0.0715672
-0.0641547
-0.0915692
0.00118528
-0.00803574
-0.0810367
-0.000780424
0.0234496
-0.0415497
0.0188805
0.0748204
0.0514834
-0.0526489
-0.0736549
0.00279947
-0.0240138
-0.0589457
-0.000653255
0.0716837
0.0202993
0.0105754
0.00624396
0.121877
-0.0203945
0.00325723
-0.10474
-0.11677
0.00104747
0.0971119
0.0262427
-0.0256883
-0.0899178
-0.0088913
0.0322198
0.014568
-0.0378965
-0.0712218
0.108267
0.0680787
0.0122419
-0.00116143
0.00139044
-0.00526057
-0.0962077
0.108071
-0.0294566
-0.135743
0.0910571
0.0195911
0.0250946
-0.0373495
-0.0832573
0.121288
-0.00068145
-0.0765406
-0.0392601
-0.000378795
-0.111869
0.107653
-0.0667425
0.0709583
0.0844245
0.00905986
-0.036467
-0.0570174
0.0611879
-0.054042
-0.00283961
-0.0378472
0.155511
0.0750125
-0.0960176
-0.134506
0.0723494
-0.0058645
-0.00219855
0.106872
-0.000546742
-0.0604504
-0.0458749
-0.101932
0.102738
-0.000234781
-0.00057127
-0.0585234
-0.0714134
0.0880948
0.0522898
0.0729343
-0.0457682
-0.0794558
0.0603764
0.00100453
-0.0613809
0.0161681
-0.111142
0.0137548
0.0764144
-0.0606798
0.0562085
0.0510456
0.00835054
0.0129533
-0.000486602
0.0153878
-0.0734247
-0.0135697
0.0329491
-0.121114
0.101735
-0.0833833
-0.132099
0.0847894
-0.102795
-0.0219938
0.0399995
-0.000900863
-0.000672143
-0.0900454
0.0514295
0.039288
0.020122
-0.140893
0.125362
0.0190798
-0.0424709
-0.0372491
0.0692638
0.00420354
0.00852872
0.0619877
-0.0509023
-0.0196141
-0.0141829
0.0589986
-0.0452355
0.000419755
-0.0246358
0.0352449
-0.0589093
0.0483002
0.000177673
-0.0520505
0.0518729
0.103955
0.0652589
-0.102313
-0.0669014
-0.00736077
0.0160626
-0.00973872
0.0399066
-0.020473
-0.0806181
0.0611844
-0.0548988
-5.15035e-05
0.0271492
-0.0694664
-0.0218192
0.0641364
-0.113722
0.044251
0.0659532
0.00351783
0.0402073
0.00399214
-0.0365601
-0.00763935
0.0896314
0.1349
-0.0919347
-0.132596
0.0792543
-0.0772789
-0.00197544
-0.0322103
-0.0702107
0.0174178
0.0850032
0.0583866
0.00165525
-0.04269
-0.031417
-0.0124449
0.0865519
-0.0115625
0.0175014
0.0474413
-0.0533802
0.0713478
-0.0782133
0.0648949
-0.0434859
0.149557
-0.0769897
-0.0290809
0.118484
0.0515874
-0.0477534
-0.122318
-0.0574092
0.0488493
0.0685433
-0.0603701
0.00213091
0.000153785
-0.00476435
-0.00319229
0.00165967
0.00366353
-0.000811757
0.00360303
-0.000341201
-0.00245007
0.069198
-0.0795168
0.021423
0.000466244
0.00264706
-0.0356284
0.0325151
0.00266446
0.0639851
-0.0147775
-0.108156
0.107393
0.00504828
-0.00143764
0.087753
-0.00567919
-0.0888466
0.00550417
0.0890216
-0.0625869
0.0975354
0.0906978
-0.125646
0.00363547
-0.0543596
0.0507242
0.00217514
-0.0346985
0.00112045
0.0314029
0.0197635
0.00362166
-0.0156538
-0.00773139
-0.00127662
0.0205513
-0.0289056
0.0216132
0.0195032
-0.0205645
-0.0205519
0.0123507
-0.0619962
0.0572173
0.0324383
0.00417633
0.069253
-0.0563542
-0.000335586
-0.0100223
-0.00491267
-0.0745871
0.000213855
-0.0216472
-0.0052796
-0.0306823
-0.0945416
0.113095
0.0121286
0.170644
-0.0361268
-0.0364599
-0.0980578
0.0165547
-0.0496049
0.0506852
0.0669441
0.0201476
-0.100661
-0.127403
0.00432975
-0.00751915
0.130592
-0.0250799
0.0382106
0.0411714
0.0158092
0.00113501
0.000301356
-0.0776249
0.0773236
-0.000223001
0.000323703
-0.111969
-0.000207362
0.108826
-0.108618
-0.0580279
-0.10627
0.103402
0.0608957
0.0415045
-0.0389069
0.00268547
-0.00528302
0.0467075
-0.046852
0.00014455
-0.0663831
0.000146511
0.0662366
-0.0633823
0.000149253
0.063233
0.087795
-0.100904
0.0131959
-0.0621847
0.0617829
0.000401804
0.0481851
0.0844537
-0.0724625
-0.0601764
-0.00188908
-0.0479878
0.0486879
-0.0107488
-0.0415891
-0.00424576
0.0565836
-0.078737
0.0786757
0.0867084
-0.0125153
-0.0433567
-0.0308364
0.0789428
-0.0793979
0.000455051
0.0522996
-0.0540036
0.00170406
-0.0453325
-0.0188592
0.0534429
-0.0632451
0.076242
-0.0498307
0.00717136
-0.0335827
-0.0811138
0.0231516
-0.00680683
-0.0413766
0.00975845
-0.100051
0.0935735
0.0795864
0.00168978
0.0683963
-0.041032
-0.0290541
0.00214979
-0.000175767
-0.00118566
0.000990357
0.000934929
0.000224506
-0.00100519
0.00321374
-0.00315465
0.0852961
-0.0682355
0.0605764
0.0246214
0.0142641
-0.0398348
0.000949307
0.0768823
-5.21121e-05
-0.0768302
-0.0518496
0.140593
-0.00219128
-0.086552
0.00015341
-0.00253703
-0.014515
0.0168986
0.00451991
-0.00178013
-0.000714117
-0.00202566
0.00511257
-0.117069
0.0221446
0.0898121
0.000419187
0.00309553
-0.0612499
-0.000938887
-0.000435454
0.021771
0.0336076
-0.0134879
-0.0418906
-0.0806721
0.0142851
-0.0817364
0.148123
-0.0281289
0.019775
0.00122415
0.00712977
0.062957
-0.0639077
0.0699391
-0.0689885
-0.0731266
0.0465121
0.0386776
-0.0120632
-0.0939001
0.108866
0.0906901
-0.105656
-0.0693141
-0.000134464
-0.0710297
0.142113
-0.0685991
-0.04043
-0.0330841
-0.0963565
0.0263546
0.0453834
0.00357996
0.00493092
0.00100744
-0.00167623
0.00100724
-0.00360455
0.00427354
0.0359327
-0.00160476
-0.0975294
0.0632015
0.00932786
-0.00497085
-0.0028593
-0.0014977
0.000842868
-0.00147679
-0.00069748
-0.039095
0.0016679
0.0362055
-0.0595733
0.0138099
0.0121542
0.0023628
0.0784686
-0.0929855
0.000349085
-0.000667281
0.0767326
-0.000208937
0.0787638
0.0245205
0.0780152
-0.0141642
-0.0883715
0.053851
-0.0529937
-0.000857288
-0.0234745
-0.0354445
-0.0482328
0.107152
0.000171558
0.0501148
-0.000177542
-0.0156081
0.058003
-0.0581724
0.000169438
0.044975
-0.133948
0.0358473
0.0531259
-0.000871906
0.0697487
-0.0688768
-0.0567599
0.0568561
-9.61488e-05
-0.000276343
-0.000121332
-0.0844019
0.0847996
-0.026521
0.0494878
-0.0406269
-0.0710202
0.0714108
0.000271413
-0.0722352
0.102388
-0.0708901
0.0767103
0.105032
-0.0404504
-0.053046
-0.0115361
0.0956908
0.00480184
-0.0883385
-0.00831212
-0.0613285
0.0472974
0.0223432
-0.0130992
0.115806
-0.0929748
-0.009732
0.00036794
-0.0607381
0.000686075
0.0633411
-0.0630659
-0.000275237
-0.00193807
-0.041169
0.129382
-0.0862752
0.139121
-0.112469
-0.0103528
0.0884554
-0.0218714
0.0335545
-0.10931
-0.0404956
0.116251
-0.0217607
0.111592
-0.0288169
-0.0610149
0.000289981
-0.0597256
0.0561007
-0.0557517
-0.0205035
-0.0558512
-0.0255777
0.00538108
-0.0340638
0.000947629
0.0277351
-0.104666
-0.0554448
0.0849583
0.0223425
-0.00895381
0.0889988
-0.000659351
-0.0733302
0.0739896
0.023038
0.114119
0.105623
-0.0229444
-0.0902209
0.0311073
0.0420987
0.000837874
0.0410409
-0.0415083
-0.000370439
0.0911081
0.00164622
-0.0909271
-0.00182728
-0.000146317
0.0493212
-0.0491749
0.028703
0.00986458
-0.00755542
0.0306653
0.0184914
0.00791227
-0.0203507
0.00386781
-0.0161657
0.0326486
0.000297874
-0.00221451
0.00448064
-0.00301876
0.000752628
-0.0842091
0.0977116
-0.0011519
-0.000589085
-0.00175101
0.00460958
-0.00226948
0.000227533
0.000349634
-0.00109805
0.00365559
-0.000454516
-0.00181519
5.51954e-05
-0.0890913
-0.00272266
0.0199756
0.00105083
-0.00121106
0.00115059
-0.00289571
0.00139123
-0.000723673
0.00222815
-0.000555395
-0.00189626
0.000975525
-0.0029082
0.00786747
-0.000142787
-0.00481648
0.00167733
0.0159216
-0.000683787
-0.0181438
0.0642504
-0.0839538
-0.00563555
0.020925
0.0110179
0.0510378
0.000248277
-0.000259872
-0.000351067
0.0159606
-0.0115803
0.0269996
-0.0412934
-0.00790635
0.0626344
0.0315002
0.00754426
-0.00320794
-0.0358366
0.0287131
-0.00603189
-0.0362482
-0.0128935
0.0322012
-0.0324077
-0.00533284
0.04609
-0.0083494
0.000582436
0.000772258
-0.00053442
0.00332265
0.000368843
0.00143895
-0.000695806
-0.00189952
0.00115638
-0.00168388
0.00155301
0.011654
0.01765
-0.0160921
-0.0132119
0.0608546
-0.0042378
0.011575
0.100895
-0.0854496
-0.0270206
0.00683196
0.0449059
-0.0517379
0.0571075
-0.00663118
-0.0609692
0.0610962
7.68451e-05
-0.000203836
-0.0490637
-0.0780704
0.013412
0.113372
0.000982904
-0.000746537
-0.113609
-0.0503861
0.0540216
0.0597118
0.000403204
-0.060115
0.0127001
0.0106087
0.0434398
-0.0667486
0.0061179
-0.00108713
-0.00240678
0.0416139
-0.0884547
0.0986056
0.0867424
-0.0968932
0.0875015
-0.0761955
0.0121235
0.0473068
-0.0588346
0.0738851
-0.0320568
0.0170064
-0.10125
-0.000110957
-0.0883438
0.00978236
-0.0100676
0.0018263
0.0723971
-0.0123569
-0.116189
0.0885768
-0.00942488
0.0370369
-0.0287074
0.0266291
0.0290083
0.0619011
-0.00093047
-0.00236919
0.0339865
-0.0292165
-0.00240089
0.111175
-0.110537
-0.00151079
-0.0463184
-0.0632093
0.028179
-0.0691072
0.0189513
-0.00696621
0.0324521
-0.00622803
-0.0114225
0.00702596
0.00824574
0.01455
0.00908119
-0.129332
-0.00583101
0.0334706
0.0756191
-0.103259
0.00883967
-0.0044728
0.0197072
-0.00567647
0.052967
0.00283878
-0.0292621
0.0268896
-0.0604034
0.102071
0.0425692
-0.0842366
-0.000730519
-0.0521156
0.0528461
0.0157396
-0.00543634
-0.00449771
-0.000136745
-0.00267601
0.00575699
-0.00294423
-0.0341891
0.0199601
-0.0144892
0.0287183
0.018005
-0.0168356
0.00386685
-0.00503626
-0.0533068
0.0648509
-0.0350158
0.0693367
-0.0370897
0.00276884
-0.0076717
0.0337962
0.000945949
-0.0270705
-0.0522063
0.0566189
0.0423172
0.00325219
0.0115892
0.0352575
0.00891359
0.0116284
-0.0102355
-0.0127028
-0.029102
0.0348386
0.0583217
0.0122586
-0.0996648
-0.0751585
-0.0177662
0.083987
-0.0956932
0.0294723
2.94162e-05
-0.0781365
0.0781071
0.0196206
-0.0183097
-0.0337186
-0.130061
0.0888546
0.035375
0.00333679
-0.00147612
0.00135307
-0.0178079
0.00676131
-0.0798957
-0.00375701
-0.0250901
0.0033313
-0.039267
0.0033067
0.00341929
-0.00788742
0.00679103
-0.00478432
-0.0412871
0.103006
-0.0603561
-0.0260953
-0.0130117
0.000133719
0.00245057
-0.00210401
0.0103761
-0.033606
0.0253339
-0.00341258
-0.00505958
0.00589856
0.0025736
0.00107492
0.00244301
-0.002583
0.00164165
-0.00712219
0.0155702
0.00855999
0.0167132
0.00402798
0.0649532
0.0200164
0.0028403
-0.00426772
-0.00129608
0.0027235
0.00550604
0.0452452
-0.00905146
0.0343922
-0.0188442
-0.0283103
0.000485153
0.000134661
-0.000668448
0.00112103
0.0241337
-0.00164658
-0.0229752
0.000488111
0.00514558
0.0221187
-0.0376512
-0.00280444
-0.0497353
0.112268
-0.045594