/*--------------------------------*- C++ -*----------------------------------*\
| =========                 |                                                 |
| \\      /  F ield         | OpenFOAM: The Open Source CFD Toolbox           |
|  \\    /   O peration     | Version:  2506                                  |
|   \\  /    A nd           | Website:  www.openfoam.com                      |
|    \\/     M anipulation  |                                                 |
\*---------------------------------------------------------------------------*/
FoamFile
{
    version     2.0;
    format      ascii;
    arch        "LSB;label=32;scalar=64";
    class       volVectorField;
    location    "0.0440925";
    object      U;
}
// * * * * * * * * * * * * * * * * * * * * * * * * * * * * * * * * * * * * * //

dimensions      [0 1 -1 0 0 0 0];

internalField   nonuniform List<vector> 
3946
(
(10.1443 0.116317 -0.0295864)
(10.0203 -0.0982174 0.0213783)
(10.822 0.415075 -0.123773)
(10.0028 -0.00137793 -0.0146793)
(9.88176 0.0775855 0.0254195)
(9.25817 0.292581 -0.905714)
(10.0407 0.0565075 0.0241456)
(10.0395 -0.00145116 -0.013703)
(10.0226 0.0204587 -0.0221947)
(10.1392 -0.0871549 0.0306898)
(9.89516 -0.00273664 0.0287019)
(10.128 0.0475849 -0.0137831)
(10.7685 0.846803 -1.75257)
(9.98853 -0.0282694 0.00396378)
(9.99828 -0.00538429 0.00972813)
(10.1856 -0.226589 -0.0221164)
(10.1286 -0.0227217 0.0111)
(10.0686 0.121226 0.0324574)
(10.0583 -0.0435879 0.0120895)
(9.59759 -0.0398696 0.0494854)
(10.1656 -0.0131141 0.00840631)
(10.2387 -0.0334973 0.00418031)
(10.0841 -0.0754974 -0.00954839)
(9.98865 0.00139224 0.0279291)
(10.1854 0.424886 -0.0341223)
(9.98751 0.012673 -0.00649979)
(9.97552 -0.00114587 0.0204177)
(10.1364 -0.0233708 0.0204988)
(10.0187 -0.0753441 0.00598241)
(10.0717 0.0945226 0.0339889)
(9.82738 0.0786497 0.115791)
(10.1579 -0.12076 0.010036)
(10.0558 -0.0570915 0.0360183)
(10.2154 -0.0322312 0.0137067)
(9.96949 -0.40182 -0.058562)
(10.1634 0.109187 -0.0372448)
(9.93461 -0.130868 0.0103997)
(9.9833 0.134623 0.0156182)
(10.0933 -0.106233 0.0159294)
(10.1671 -0.0282519 0.00587787)
(10.0621 0.0770952 0.00501854)
(10.0806 0.0331614 0.0053613)
(10.0537 -0.0102882 -0.00850397)
(10.3984 0.453167 -0.0242751)
(9.96964 -0.0352647 0.0100672)
(10.0445 0.0362473 0.0199493)
(10.1462 -0.192213 -0.0224443)
(9.93286 -0.159791 0.00935013)
(10.0801 0.124094 -0.000570329)
(10.0375 -0.000127818 0.0164019)
(10.076 0.0806065 -0.00134065)
(10.0275 -0.00188547 0.0473955)
(10.2223 -0.0538149 0.0457936)
(10.0502 -0.0735509 0.0175768)
(9.99944 0.0246269 -0.0151075)
(9.88675 0.0577214 -0.0104639)
(10.0466 -0.111475 0.0277538)
(9.96471 -0.0673768 0.0237708)
(9.91683 0.00256455 0.0199874)
(10.0799 0.104972 -0.00167307)
(9.86039 0.0365782 0.102679)
(-0.35068 1.92877 1.01587)
(9.93839 0.04289 0.0820967)
(10.0058 -0.0139116 0.0273603)
(9.8778 0.0392701 -0.058193)
(-0.225099 1.87072 0.715056)
(-1.12642 1.72526 1.07658)
(0.0371281 1.95161 0.584411)
(-0.019969 1.97455 0.958708)
(10.8208 0.793945 -0.453942)
(9.98922 0.0943275 0.0341476)
(9.89109 0.101627 0.00440289)
(7.03886 0.49493 1.774)
(10.1081 -0.0472461 -0.0288183)
(9.21768 0.118147 0.487303)
(10.0446 0.0286386 -0.0188587)
(10.1106 -0.102234 0.0248724)
(10.0689 -0.0154254 0.00957729)
(10.0574 -0.000366151 0.0134785)
(10.1675 0.0415824 0.0166359)
(-0.474003 1.84857 1.73102)
(11.2789 -0.0255427 0.445854)
(10.0091 0.000347 0.00672884)
(9.90037 0.117847 0.0280204)
(10.1086 -0.0213398 0.0239359)
(-1.86187 1.0941 0.49095)
(10.9453 -0.135284 -1.9697)
(-0.513881 1.93608 0.98349)
(-0.368839 1.88552 1.91059)
(-0.3637 2.17326 1.90446)
(-0.642362 0.630404 3.16383)
(-1.13131 1.84717 2.07973)
(10.365 0.151993 0.0591024)
(10.0223 0.0044039 0.0268645)
(10.0104 0.00722596 0.0277101)
(10.0215 0.00289863 0.030928)
(10.0994 0.0826071 -0.0539997)
(10.0699 -0.00805384 0.0551903)
(10.5903 0.0425151 0.0700805)
(9.99152 0.0672279 -0.00304255)
(10.3587 0.159493 0.0157361)
(10.0289 -0.0121671 0.0381259)
(10.0031 -0.012595 0.0153514)
(2.58522 2.05239 -1.38076)
(9.98188 -0.0083905 0.00370899)
(9.89481 -0.0750323 -0.0811246)
(6.03749 0.657249 -2.37717)
(9.87753 0.208212 -0.126445)
(10.0372 0.0411941 0.0110358)
(10.0458 0.0501611 0.0104361)
(11.8838 -0.0404262 -0.0730046)
(10.1071 0.00163729 0.00788181)
(10.1602 -0.00946365 0.00117138)
(10.0035 0.000960312 0.00175474)
(10.0499 0.00157054 0.00539412)
(10.1704 -0.00843663 0.00873667)
(10.6625 0.0737552 0.939567)
(10.5363 0.51396 -0.119294)
(-0.417784 1.76554 0.575188)
(-0.784535 1.90275 0.967135)
(9.83684 -0.201143 -0.0335319)
(10.034 -0.0286777 0.0201653)
(9.92955 0.0478886 -0.0435439)
(9.86003 1.2381 -0.34295)
(10.1514 -0.215344 -0.0330991)
(9.84148 -0.209991 -0.26082)
(4.92196 1.17113 1.90431)
(11.6451 0.0788807 -1.17043)
(9.96323 -0.100777 0.0308615)
(9.92348 -0.105692 0.105422)
(10.2145 -0.0135451 0.0782248)
(9.51489 -0.956892 2.67754)
(9.95033 -0.125464 0.0965355)
(10.3405 -0.0383416 0.23699)
(10.3477 -0.0268977 0.14386)
(6.99236 -0.104317 -2.41262)
(10.1985 -0.00899177 0.000346906)
(-2.30068 0.631464 -0.125051)
(9.88194 -0.255036 -0.0593536)
(-3.4723 3.31231 1.8278)
(11.9795 -0.162829 0.589691)
(0.873692 1.54116 2.72125)
(-1.89906 0.575755 0.204201)
(10.1379 0.100144 0.0181431)
(12.1672 -0.215959 -0.0576141)
(9.94977 0.00110142 -0.0478977)
(9.91261 0.0329546 -0.0180487)
(9.89753 0.221696 0.0198986)
(9.95326 0.0313427 -0.0127322)
(10.0327 -0.020904 -0.0211564)
(9.95019 0.0378336 -0.0026364)
(9.91602 0.0217226 0.0034311)
(9.92395 0.00593168 -0.0428242)
(9.98876 0.0088723 -0.00556483)
(10.1013 0.130838 0.0152824)
(9.99972 0.029371 -0.00198266)
(10.0296 0.00282848 0.021477)
(10.0103 0.0809433 0.022709)
(9.85064 -0.107098 -0.101829)
(10.4134 0.0696204 0.0379969)
(10.2754 0.18122 0.0828281)
(10.6488 0.44436 0.062615)
(9.50301 0.259865 2.04023)
(10.0447 -0.00275203 0.0210148)
(9.9374 0.028799 -0.0143521)
(9.99358 -0.000202394 0.00116758)
(10.006 -0.0165212 -0.00195566)
(9.92692 -0.00166398 0.0752671)
(9.99486 0.0216974 -0.00071322)
(-1.7956 0.0776451 2.58796)
(10.1564 0.00109589 -0.00603442)
(6.0577 1.13823 -0.139288)
(10.0142 0.00263887 -0.00451979)
(9.96541 0.0194134 -0.00958749)
(10.177 -0.0536463 0.0330376)
(10.0186 0.0470177 -0.0339449)
(10.0157 0.0455274 0.0118167)
(9.98846 0.0375806 0.0381697)
(10.4917 0.257314 -0.393638)
(10.0184 -0.118658 -0.0265745)
(9.99761 0.00327721 0.00577295)
(9.91339 0.0443546 0.0121791)
(9.92943 0.0585794 0.0110844)
(10.307 -0.119085 0.0372005)
(10.3367 0.0501467 0.0334195)
(10.2848 0.0477542 0.0241529)
(9.87515 0.077641 0.0237541)
(10.0898 -0.04811 0.0394728)
(9.87735 0.189851 0.0607221)
(9.94106 -0.0601501 0.0258218)
(8.78108 0.418781 -1.89062)
(10.1951 -0.0943933 -0.00646683)
(-1.59851 1.93354 0.533162)
(9.96952 0.14045 0.00981509)
(-0.808542 1.35342 1.28937)
(-0.606493 1.3035 1.48921)
(-0.361354 1.33695 1.78712)
(9.86869 0.0495286 0.097141)
(9.91457 0.0673471 0.0648134)
(9.96632 0.0894515 0.0215877)
(9.94939 0.00586844 -0.040609)
(10.241 0.176078 0.262832)
(9.93057 0.0497014 0.0909723)
(9.9746 0.10833 0.0625979)
(9.90943 0.026377 0.0549549)
(10.1253 -0.23156 -0.00323699)
(10.2512 0.183466 0.0731523)
(10.5892 0.0776741 0.173655)
(10.0536 0.165632 0.0150261)
(10.2761 0.0741312 -0.00263379)
(10.3631 0.0655613 0.0180374)
(10.2919 0.180409 0.0737919)
(9.28876 -0.165169 0.137522)
(9.38277 -0.179199 0.45405)
(7.65857 0.0606987 -0.14461)
(9.68513 0.421401 -0.0956639)
(9.5487 -0.175143 0.442256)
(9.80864 0.088985 -0.249543)
(9.77745 -0.0816167 0.0898457)
(9.85986 -0.0224446 0.123076)
(-0.904341 0.553594 0.565168)
(-0.554879 1.26519 0.681587)
(10.2432 0.0412719 0.0264314)
(9.9643 0.0427536 0.110443)
(10.3677 0.141962 0.048353)
(-0.31131 1.47278 0.574956)
(-0.471232 1.04923 0.435723)
(9.97144 0.145558 0.265045)
(10.2388 0.136128 0.397725)
(-0.238996 0.594799 0.536191)
(10.9575 0.00653087 0.278069)
(10.5836 0.430459 -0.0563057)
(10.0555 0.0084548 0.283428)
(10.7057 -0.000625162 -1.89662)
(10.0536 -0.0928634 0.0173563)
(9.96013 -0.0374968 0.00764114)
(10.1224 -0.0577754 0.0489823)
(9.94773 -0.0302462 0.00639525)
(9.92109 -0.0403981 0.00416578)
(10.0746 -0.0459449 0.0290197)
(10.0511 -0.0158779 0.0354346)
(-0.386186 2.22231 1.04911)
(-0.5133 1.79462 0.674251)
(-2.30058 2.79234 -0.476843)
(9.99961 -0.0117747 0.014167)
(10.0269 -0.0651602 0.00894469)
(9.96794 0.00284999 -0.000712185)
(9.95927 -0.0542265 0.00915805)
(10.9263 0.383754 -0.147308)
(9.98503 -0.0190925 0.0219224)
(10.0392 -0.060043 0.00176736)
(-2.46999 1.6509 1.31727)
(10.4654 0.0454068 0.0100389)
(10.4775 0.0222846 0.00687848)
(10.0814 -0.084988 -0.01423)
(10.5248 0.138859 0.173331)
(10.1856 -0.0278625 0.0105005)
(10.6757 0.248709 0.154724)
(10.0925 -0.022322 -0.0189762)
(9.98623 -0.0619532 0.00824139)
(5.72739 1.12569 -1.55589)
(-0.768487 1.88353 0.517452)
(-1.71541 1.46741 0.780149)
(9.91627 0.0290035 -0.0219637)
(9.87648 0.0200562 -0.0159383)
(10.0815 -0.0223819 0.0579217)
(10.0007 -0.0172157 0.015333)
(10.0064 -0.0318477 0.0172175)
(9.9882 -0.00133783 0.0115524)
(10.0834 -0.0558521 0.0530242)
(9.96814 0.0511598 0.00148922)
(9.94819 0.0379365 0.00940225)
(10.0619 0.0255874 -0.0170041)
(10.5 0.0810139 0.0399425)
(10.5414 0.0779155 0.0198761)
(10.5905 0.0714575 0.0308965)
(10.6196 0.0622726 0.0270396)
(10.5424 0.0473877 0.0207636)
(10.4797 0.0506208 0.0316757)
(9.93137 -0.00840354 0.0082915)
(9.9392 0.0137646 0.000955474)
(9.9315 -0.00993092 0.00876324)
(9.91225 -0.315922 -0.025754)
(10.1363 -0.0107368 0.0083897)
(10.2021 -0.0650013 -0.0136173)
(10.1558 0.132933 -0.0581144)
(10.2528 0.104306 -0.0188113)
(10.0287 -0.416948 -0.164878)
(10.0552 -0.0738195 -0.0196168)
(10.1617 0.0383815 0.00690968)
(10.0892 0.0521518 0.015486)
(10.0848 0.00425889 -0.0129134)
(10.1129 -0.156981 0.36014)
(10.237 -0.0262072 0.00160232)
(10.1896 -0.113247 0.0180607)
(9.94667 0.0262462 0.0022569)
(9.92447 -0.00334363 0.0236603)
(9.90942 0.000679823 0.0301228)
(9.75283 -0.231336 0.0142564)
(-0.230652 1.86671 0.975303)
(9.95533 0.126736 0.0792497)
(-0.356018 1.68058 0.820608)
(-0.112967 1.87709 0.695933)
(-0.425708 1.50408 1.82149)
(9.92377 -0.0218658 0.0139345)
(10.5219 0.43235 -0.0974367)
(0.90421 0.889802 0.315474)
(5.27027 2.18767 -2.60937)
(9.72396 -0.150607 -0.0274258)
(-1.2008 -0.309105 0.535593)
(-1.06178 0.431208 1.64633)
(-0.606952 1.81293 1.25678)
(-0.730161 1.93986 0.271356)
(-0.500476 1.99776 0.0144137)
(10.0572 0.0334818 0.00548627)
(5.19009 0.986395 1.74911)
(10.2209 0.0391806 0.00820615)
(10.1761 0.0286131 0.0449659)
(10.2559 0.0475251 0.0104307)
(-1.17886 0.419366 1.07234)
(9.99983 -0.0174238 0.00676074)
(-2.29404 0.786432 -0.609655)
(10.0004 -0.0104086 -0.0160454)
(10.0122 -0.0101204 0.00819373)
(10.1431 0.288267 0.068513)
(10.1993 0.108576 0.0926151)
(10.1783 -0.25911 -0.0216928)
(10.3938 0.0217467 0.39468)
(9.66012 0.277154 -1.73222)
(9.93616 0.0237453 -0.0117623)
(9.98227 0.0188022 -0.00489806)
(9.99212 0.0249111 -0.0116466)
(10.0528 -0.0071551 0.00408831)
(-1.97594 0.944505 0.527719)
(-3.09659 2.36869 1.27183)
(10.0566 -0.0637998 0.0140594)
(10.3133 0.346415 -0.761126)
(-2.76021 1.51068 1.16838)
(-0.423342 1.69165 0.149453)
(-1.48826 1.99057 0.463094)
(9.93605 0.2493 -0.216432)
(-0.020594 1.07099 2.47324)
(-1.46058 1.5277 1.2526)
(10.6766 0.186708 0.0915416)
(-2.90581 2.41688 2.02341)
(8.04671 0.53907 1.7943)
(10.3289 0.427892 -1.11114)
(9.73067 0.589063 -0.235941)
(0.398573 4.65974 -0.953876)
(-3.4955 2.65381 0.342772)
(-1.83198 1.38538 0.449691)
(9.28122 0.016542 -1.71885)
(0.206064 1.58018 2.44277)
(9.42099 0.701998 0.107948)
(-2.01734 1.13865 0.746077)
(-0.448083 0.621224 0.192771)
(1.94074 1.1296 -1.14697)
(9.8616 0.0735983 -0.0390305)
(-1.34914 1.52767 1.05997)
(-0.410613 1.22794 0.170859)
(10.8201 -0.380935 -0.702449)
(1.59461 0.913292 2.54831)
(10.4163 0.264763 0.0767568)
(11.2545 -0.00257824 0.368544)
(-2.45145 1.10699 1.67688)
(-3.58457 2.86825 0.325021)
(11.1831 0.0812126 -1.52303)
(-2.49683 2.26026 0.926123)
(-3.901 2.88229 0.672975)
(-1.71918 2.03354 2.06285)
(-1.97957 2.14441 0.617254)
(-4.03508 2.71931 0.492186)
(10.2026 0.0330366 0.00369582)
(9.4153 0.533498 0.169869)
(10.1709 0.259048 0.086986)
(9.40653 0.522605 -0.0498784)
(9.95649 -0.0164554 -0.0254954)
(9.9583 0.0606962 0.0481495)
(10.3255 0.170526 0.510289)
(1.00392 -0.0384834 -0.240783)
(10.7303 0.193071 0.0945889)
(11.0541 0.026448 0.292297)
(10.5844 0.131463 0.0399538)
(10.2069 0.569637 -0.220253)
(10.9242 0.871117 -0.534423)
(10.4282 0.507717 -0.123387)
(7.5699 0.0239638 1.24513)
(10.2554 0.774151 -1.11806)
(8.62158 1.56066 -1.14513)
(10.5441 0.0997127 0.186661)
(-0.0354851 0.564171 2.13697)
(10.4945 0.32874 0.000283828)
(10.4686 0.244653 -0.0021892)
(-2.24296 1.60137 1.1915)
(11.0342 0.803948 -0.366716)
(-0.215689 1.81255 2.38841)
(10.3988 0.160658 0.0514893)
(8.34877 0.587026 1.36413)
(8.58604 2.2813 -1.66623)
(10.255 0.470135 -0.0954195)
(10.2921 1.15727 -0.429238)
(10.0502 -0.139528 0.0536463)
(10.5056 0.134451 0.013985)
(10.1687 0.0868996 0.0173775)
(10.005 0.077175 -0.000695711)
(10.0621 0.0175819 0.000998969)
(8.16798 0.469324 -2.28966)
(10.2631 0.915112 0.0294354)
(9.9509 0.541269 -0.068486)
(10.5024 0.247633 0.0964928)
(5.72215 1.97863 -1.52957)
(10.0934 0.465726 0.0804338)
(8.87015 0.0762299 0.252244)
(10.4281 0.18501 0.0642416)
(10.5634 0.239361 0.064507)
(10.6651 0.164971 0.0435523)
(9.99892 0.0558673 0.033128)
(10.0048 -0.0274818 0.029454)
(2.51905 3.38682 -1.0822)
(11.283 0.245579 -0.57515)
(10.0643 -0.0402236 0.0221866)
(2.17688 3.75344 -1.44533)
(10.0119 0.0671549 0.0161586)
(-1.2685 2.32629 -0.41642)
(10.0157 -0.297574 -0.00414976)
(9.94466 -0.18293 0.0384675)
(9.7885 -0.302825 0.199898)
(9.95808 0.00225211 0.0115743)
(10.111 -0.154197 0.0398859)
(10.2426 -0.0535564 0.0458762)
(9.91802 0.0457052 0.328006)
(9.74392 0.304287 0.247993)
(10.1537 -0.0976869 0.0414147)
(10.1047 -0.321909 0.0163812)
(10.9954 0.343073 -1.16228)
(10.1522 -0.237731 0.0018556)
(9.9161 -0.00187936 0.0148037)
(10.0124 -0.0179739 0.0460583)
(10.6815 0.0597585 0.0349388)
(10.5457 0.338183 0.267959)
(10.4689 0.386254 0.280873)
(10.4319 0.38598 0.281332)
(10.4856 0.343788 0.323938)
(10.566 0.321974 0.267443)
(10.4173 0.297096 0.261301)
(0.442891 1.58002 2.82901)
(-2.38932 1.87938 0.18547)
(9.46224 1.48323 0.263233)
(10.4594 0.347417 0.301916)
(9.9924 0.2575 -0.0232484)
(9.98815 0.247819 -0.0213741)
(10.0538 0.352033 -0.0125163)
(10.146 0.370756 -0.012603)
(10.0432 0.340896 -0.0415241)
(10.013 0.308713 -0.037039)
(10.1297 0.3981 -0.036505)
(10.7112 0.0524817 0.014937)
(10.0652 0.349562 -0.0464281)
(10.1043 0.389752 0.127954)
(10.1355 0.323375 0.10441)
(9.78446 0.0549902 -1.78907)
(10.022 -0.0275631 -0.504324)
(-0.409199 1.55239 1.9262)
(11.8875 -0.136827 -1.19462)
(1.08436 1.21701 2.26349)
(0.836361 0.712114 0.706827)
(9.85421 0.106954 0.121123)
(11.2775 -0.0994366 -1.53459)
(-2.2908 1.45222 1.70143)
(10.8741 0.152858 1.02781)
(9.02168 0.352215 0.949876)
(5.59995 1.7654 -1.08408)
(9.89836 -0.0706949 -0.0457939)
(9.94332 -0.0547909 0.0312463)
(9.98354 -0.0711067 0.0382174)
(9.97827 -0.0983492 0.00470155)
(9.75034 1.30937 -1.2351)
(10.378 0.323599 -0.0123877)
(10.8079 0.606222 -0.118341)
(10.6152 0.10841 0.00707046)
(-2.71684 2.29296 0.732015)
(0.546973 2.05677 1.77214)
(3.18474 1.41649 2.21809)
(10.2925 1.1059 -0.0643393)
(10.0414 0.00693359 -0.0169959)
(9.94246 -0.0910634 0.0576961)
(10.3297 -0.147874 -0.231625)
(10.1246 0.284853 -0.0217969)
(9.95031 0.630356 -0.129257)
(9.88162 0.744621 -0.132547)
(9.63067 0.863894 -0.336456)
(9.81347 -0.195151 -0.0290761)
(9.70359 0.720555 -0.526806)
(9.9347 -0.13042 0.0489901)
(9.95645 0.266537 0.0365)
(10.1207 0.533582 0.0996874)
(10.0689 -0.144043 0.0559556)
(10.5178 0.192144 0.0615927)
(9.79246 -0.1827 -0.0198681)
(9.73643 -0.163899 -0.00810889)
(10.6748 0.283871 0.102033)
(10.6071 0.134871 0.042745)
(9.82587 0.0498084 -0.00268217)
(9.89178 0.0116696 -0.0236357)
(9.83293 0.0625437 -0.00518072)
(10.5573 0.288875 0.165416)
(10.6242 0.28588 0.169944)
(-3.92156 0.748406 0.402172)
(-0.301227 1.67977 2.42973)
(9.98729 -0.0925108 -0.00535637)
(0.0848882 1.20678 2.66228)
(-1.86742 1.33222 1.06795)
(10.0503 -0.0673646 -0.00896688)
(8.76379 0.135479 -2.17403)
(11.9882 -0.0590638 -0.544839)
(-3.85591 3.6472 1.14653)
(10.4231 0.441707 -1.60325)
(9.44741 0.983777 -1.25474)
(10.9824 0.485097 -0.31737)
(9.84647 0.00145931 0.00246556)
(10.1554 0.0124567 0.00168636)
(10.6904 0.116967 0.0223261)
(10.5727 0.104348 0.00917049)
(10.5089 0.127538 0.0628027)
(10.6416 0.133959 0.0339084)
(10.3716 0.22806 0.116658)
(10.2754 0.292307 0.271749)
(10.2395 0.313445 0.377097)
(10.5235 1.14976 -1.61158)
(0.327021 1.58457 -1.61401)
(-3.15171 2.23949 0.273273)
(1.54137 2.26375 -0.479936)
(10.2765 0.410239 -0.0451937)
(5.35639 1.04212 1.9439)
(-1.74912 2.22618 0.570986)
(2.62101 1.41088 2.00927)
(9.85344 0.0624312 -0.00572731)
(10.0121 0.0235193 -0.0100753)
(10.4024 0.0631686 0.0251933)
(10.0389 0.0874123 0.0209983)
(10.449 0.166662 0.0664222)
(10.3322 0.177344 0.0570895)
(10.922 0.0241491 0.140637)
(10.038 0.046987 0.0108309)
(10.0822 0.0379972 -0.0131304)
(10.1693 -0.0251603 0.0270612)
(10.3654 -0.0713479 0.117617)
(9.96826 0.0128322 0.0146064)
(9.92844 -0.0226193 0.00869605)
(9.92436 0.042288 -0.0131313)
(10.0164 0.0200755 -0.0274963)
(10.0185 0.0356262 -0.00105214)
(10.0382 0.00586884 0.0288426)
(9.92562 -0.0167749 -0.0115247)
(10.0125 -0.0472544 0.0213298)
(10.0475 0.045266 -0.00107829)
(10.0228 0.0237636 0.00858175)
(10.5753 0.201094 0.195632)
(9.91264 0.0893083 0.00236503)
(10.0606 0.00570949 0.0121352)
(10.099 -0.0396657 0.0221301)
(10.0309 -0.117833 0.0303428)
(9.34048 0.0722874 0.462502)
(10.188 -0.0996785 0.0631369)
(10.0521 -0.0542175 0.0219889)
(10.0619 -0.0370711 0.00605374)
(8.26507 0.513731 0.192367)
(10.0033 -0.00441687 0.0151726)
(10.0476 0.0196606 0.000500525)
(-2.347 0.982001 2.96388)
(9.88145 0.0579989 -0.00787643)
(9.97465 -0.0665393 0.0364642)
(10.1607 -0.148705 0.0201842)
(10.0557 -0.0778952 0.0122791)
(10.1158 -0.00430505 0.00791715)
(9.94122 0.0344723 0.0301166)
(9.99438 0.0354384 -0.0099832)
(9.99024 0.0266679 -0.0205372)
(10.1124 0.110768 -0.00467386)
(9.93751 -0.118982 0.0650308)
(9.84723 0.135514 0.0611718)
(9.88226 -0.0115744 0.0803855)
(9.81206 0.0380788 0.127703)
(9.74651 -0.0968363 0.0567002)
(9.82309 0.0129445 0.0327088)
(9.97611 -0.0184091 -0.00339085)
(10.0739 -0.113702 0.0211998)
(9.95187 -0.112101 0.0444043)
(9.69988 0.0543077 0.116013)
(10.1065 0.170694 0.0354164)
(9.94802 0.0200599 -0.00389412)
(10.0597 0.107953 0.0435809)
(9.88556 0.0614136 -0.0116054)
(9.9963 0.0389032 -0.0107707)
(9.91594 0.0619442 -0.0693713)
(9.66127 0.527554 -0.130391)
(9.94143 -0.00168947 -0.0390872)
(10.2381 -0.0960541 0.0674788)
(10.0171 0.00749891 -0.0124549)
(12.1889 -0.149071 -0.769107)
(9.98377 0.0216874 -0.0106077)
(9.96158 -0.0341315 0.0109836)
(9.76455 -0.180196 -0.0340119)
(10.2767 0.158493 1.69303)
(9.90345 -0.0574043 0.0370215)
(10.0194 0.0124057 0.0196394)
(10.6821 0.144782 -0.017994)
(10.094 0.167865 0.0561518)
(10.6419 0.206624 -0.0204209)
(10.045 0.153467 -0.0169791)
(9.87588 -0.00458822 -0.0550639)
(9.3208 0.597061 -1.19225)
(9.89784 0.216934 -0.131443)
(9.75715 0.280727 -0.0225551)
(8.51188 0.405766 0.0274228)
(10.0573 -0.0239416 0.0311039)
(10.0523 -0.155902 0.0263842)
(10.1977 0.144989 0.038726)
(9.88719 -0.0372293 0.0353199)
(10.0234 0.0230666 0.0173236)
(9.87042 -0.0253521 0.0838676)
(-3.68136 1.18905 1.20596)
(-3.35049 2.00727 1.36001)
(-2.34588 1.71765 1.42553)
(10.2194 0.136067 -0.014627)
(10.3044 0.542801 -0.149309)
(9.8338 0.0208058 0.264237)
(10.033 0.0197154 0.0191058)
(9.885 0.0851512 0.023292)
(9.8204 -0.148184 0.0309598)
(9.94988 0.00147547 0.000586725)
(9.86739 -0.0235467 0.0262213)
(9.27461 0.677939 -2.05586)
(9.72571 0.332662 -2.45788)
(5.5414 0.632291 -2.1725)
(8.74746 -0.15989 -2.17816)
(10.0668 -0.0132428 -0.0308508)
(7.88428 0.865365 -2.08295)
(10.0269 0.0446601 -0.0191319)
(9.48157 0.541994 -2.15413)
(9.92394 -0.00229199 0.0200956)
(10.282 0.549594 -1.90758)
(10.086 -0.0484323 0.0261723)
(10.2984 -0.0768175 0.0408273)
(10.3248 0.0762134 0.0417604)
(10.092 0.214276 0.0284114)
(9.98085 -0.00577934 -0.0118972)
(8.57531 1.89275 0.12306)
(10.6968 0.461722 -0.137995)
(9.98808 0.0125541 -0.00529084)
(10.1436 -0.00955943 0.0142171)
(10.0095 0.0480191 0.00530532)
(10.0019 -0.0621688 0.00235384)
(9.95831 -0.0266264 0.0177602)
(9.94775 -0.0132092 0.00794799)
(9.99253 0.0645943 0.0231027)
(10.003 0.0860956 -0.000526616)
(10.0373 -0.303243 -0.0028717)
(9.94048 -0.060681 -0.00963517)
(10.2305 -0.172334 0.0284469)
(10.144 -0.132197 0.00147832)
(10.532 0.456372 -0.468315)
(10.1617 -0.0180314 -0.00903041)
(10.0579 0.0493369 0.0356415)
(9.90774 0.0737267 0.000975826)
(9.85556 -0.159672 0.0174342)
(10.3394 0.626857 -0.670101)
(12.3488 -0.147592 -0.492673)
(10.5368 0.151969 -0.0131021)
(9.95574 -0.0110746 0.00109364)
(10.6251 0.470643 -0.0565144)
(10.2023 0.0239154 -0.00515115)
(10.0466 0.0444872 0.0241225)
(-0.906609 1.81184 2.19267)
(-0.303691 1.96178 2.41994)
(-1.0159 1.65989 2.41711)
(10.1306 0.07684 0.0101716)
(10.2273 0.0721314 0.546495)
(9.87216 0.0300224 0.0139195)
(9.93585 0.068279 0.0129311)
(3.93084 0.44937 -0.256809)
(-0.936515 1.95612 2.45658)
(9.98592 -0.100879 -0.0153579)
(-0.356951 1.7168 2.63359)
(9.9427 -0.0606534 0.0509796)
(10.0116 -0.0121618 0.0354844)
(10.4082 0.114205 0.359106)
(9.11962 0.338686 -0.467752)
(10.2521 1.00228 -0.0539239)
(10.204 0.437618 -0.0367883)
(10.1051 -0.0104985 0.0304678)
(10.0313 -0.0920896 0.0323553)
(9.88658 0.0252627 0.11656)
(9.92535 0.00244635 0.017738)
(9.8846 -0.0431307 0.0461921)
(9.99408 -0.0877468 0.0724027)
(9.66533 0.18774 2.75206)
(-2.83142 1.00166 1.64759)
(9.9626 0.077634 -0.00226639)
(-1.73358 2.43833 1.88158)
(-1.02795 0.847009 0.792214)
(10.0513 -0.0761435 -0.0256967)
(9.80026 0.55098 -0.298167)
(9.94058 0.027739 0.0460407)
(10.1458 -0.115318 -0.037435)
(10.0643 -0.0922741 0.0181757)
(10.1353 -0.0319382 -0.0140239)
(10.0734 0.00441158 0.0527357)
(10.0249 -0.284754 -0.020811)
(10.4839 0.121882 0.0371555)
(10.0501 0.00449733 -0.01407)
(9.6507 0.269817 0.282886)
(9.93782 0.0203379 0.0806408)
(9.99237 0.0912227 0.0501639)
(10.0821 0.0341766 0.00529705)
(9.97825 0.0155756 -0.00715042)
(9.89903 -0.043938 0.0296916)
(10.0478 -0.0128997 -0.00645777)
(9.93742 -0.031024 -0.00371021)
(10.1913 0.0359601 0.00595611)
(10.0946 0.00646418 -0.00940408)
(10.0082 0.0790515 0.0171633)
(9.99221 -0.0694266 -0.007828)
(10.1114 -0.119949 -0.0211634)
(10.5701 0.0924822 0.138435)
(10.2428 0.141344 0.0285475)
(9.90469 -0.0247993 0.0657414)
(11.0367 0.869625 -0.589769)
(9.97024 -0.0450349 0.0483764)
(10.0203 -0.058434 0.141956)
(10.1065 -0.0703709 -0.0108505)
(9.80244 -0.0646656 0.0504548)
(10.0138 -0.0670521 0.00822228)
(9.90483 0.208883 0.204029)
(9.97897 0.074749 -0.0153942)
(10.0204 -0.0755411 0.0139198)
(9.88624 0.00152337 0.102149)
(10.9214 0.713412 -0.673104)
(9.97998 -0.0359636 0.0158015)
(10.0083 0.0705181 0.0194637)
(9.98055 -0.0450858 -0.00199431)
(10.0506 -0.0849217 0.0234109)
(10.0015 0.0566744 -0.00224367)
(10.2972 -0.0683571 -0.340715)
(10.3804 0.705819 -0.346948)
(10.1134 0.0979969 0.0374216)
(10.0615 0.453859 -0.0417174)
(10.6795 0.196206 0.038454)
(10.182 -0.0826962 0.346752)
(8.27061 0.435119 -0.0166735)
(-1.68512 1.39482 0.808605)
(-2.98438 1.32903 0.392839)
(10.0155 -0.0166057 -0.00849869)
(-2.43905 0.790227 1.20129)
(-1.64208 1.01523 -1.5847)
(-3.11399 1.28462 0.572441)
(-3.15203 1.40866 0.261948)
(9.99346 -0.140775 -0.341379)
(-0.612788 1.92706 2.36635)
(-2.33571 2.0056 1.0332)
(-4.44164 2.6975 0.825898)
(4.68618 1.54674 0.809562)
(10.586 1.01542 -0.031359)
(9.96347 0.0479545 -0.0528128)
(10.9617 0.512322 -0.112394)
(10.1693 -0.0782533 0.0072844)
(-0.739084 1.83113 0.298133)
(10.6928 0.0583525 0.411445)
(10.5969 0.120449 0.744165)
(9.844 0.271521 0.711083)
(9.82256 -0.0104319 0.598936)
(10.1511 0.535116 0.20901)
(10.4731 0.699469 -0.42308)
(-1.60867 0.833074 -0.0133748)
(-1.17138 1.57655 1.30807)
(1.59679 1.21848 3.06862)
(-0.795763 1.61497 1.38272)
(-2.1634 1.64131 0.845788)
(-1.90794 0.822774 1.91059)
(10.2986 0.674388 0.0908012)
(10.7483 0.0146168 0.210095)
(9.96061 0.0728307 0.0225043)
(10.3349 0.118445 0.0871519)
(10.6018 0.0383627 0.098226)
(10.1452 0.153769 0.0365285)
(10.0991 0.186178 0.0557379)
(10.233 0.13749 -0.0163258)
(9.93505 -0.00485888 0.00511649)
(10.0718 0.0510697 -0.0382937)
(10.2352 0.204419 0.0777416)
(5.44074 -0.243018 3.04683)
(10.0315 0.0245466 -0.0224135)
(9.8464 0.0872931 -0.00737922)
(9.81847 0.0759246 -0.167416)
(9.91018 0.0686922 0.0695803)
(9.42358 -0.178516 -0.115857)
(10.0147 0.0314517 0.0176945)
(9.8416 0.134967 -0.004512)
(10.6947 0.434452 0.0986254)
(10.1562 0.0173603 0.0212287)
(10.2858 1.05482 -0.0827391)
(10.3213 0.20802 0.0199545)
(10.5635 0.408661 0.166045)
(10.3463 0.0419388 0.0261065)
(10.03 0.946995 -0.320718)
(10.1689 0.053396 0.0157604)
(10.2114 0.301359 0.115954)
(9.32403 0.786384 -0.75928)
(9.48638 1.46289 -0.83919)
(11.0105 0.670705 -0.145893)
(10.0682 -0.00617112 0.0059656)
(9.97648 -0.0870725 0.0211213)
(7.70375 1.35108 0.0719957)
(10.1271 -0.382884 -0.108305)
(10.3382 0.690182 -0.109758)
(10.0321 0.14209 0.109323)
(9.98628 -0.0408579 0.0389929)
(4.22981 0.411232 0.940031)
(-0.324113 0.247425 1.8101)
(7.3269 0.763532 -0.66434)
(3.88461 0.782702 -1.46222)
(10.6366 -0.0741648 0.16147)
(10.6936 0.0151874 0.17978)
(10.7039 0.199306 0.0945874)
(10.7913 -0.0615783 0.176572)
(10.0097 -0.11741 0.429936)
(11.242 0.379088 -0.861302)
(10.4109 1.38408 -0.731962)
(9.85591 1.49103 -0.547653)
(10.2986 -0.074799 -0.434362)
(10.5154 0.0253063 0.0147504)
(9.97562 -0.0254832 -0.0256327)
(9.92085 -0.0562913 0.0537521)
(10.008 0.122672 0.00781288)
(10.6141 0.711349 -0.529755)
(9.96905 -0.118732 0.0313236)
(-0.457664 1.55257 2.55451)
(9.90591 0.0276025 -0.000385255)
(10.8704 0.711219 -0.316877)
(10.1065 -0.059314 -0.0297033)
(-3.62006 2.26194 2.0146)
(10.244 0.632469 -0.289311)
(10.2886 0.075622 0.0197102)
(6.91528 0.166233 1.30624)
(10.5805 0.563917 0.0324591)
(4.78056 1.29873 1.33813)
(-0.218434 1.90158 2.65818)
(9.40349 -0.680397 2.03845)
(10.4579 -0.182239 -1.19481)
(11.075 -0.0212591 0.349702)
(-3.31675 2.16636 0.573779)
(11.9182 -1.06788 -0.615511)
(9.19033 0.246914 -2.38127)
(10.1589 1.39641 -0.612166)
(-1.41795 1.67219 0.775564)
(-3.54441 2.01012 0.447079)
(8.43297 1.41736 -0.356799)
(6.78797 -0.137453 -2.28868)
(9.43426 0.56697 0.156487)
(10.1867 0.31465 0.0483199)
(10.6151 0.638145 -0.694839)
(9.7956 0.460298 -0.355452)
(10.4175 1.0001 -0.0577749)
(10.6928 0.324928 -0.0177561)
(10.4088 0.0353833 0.0192435)
(10.3128 0.0636617 0.0112861)
(10.2866 0.153118 0.00700342)
(9.54696 0.206928 0.0362591)
(8.93953 0.0507554 -1.45906)
(10.0539 -0.0282882 0.0189988)
(10.6528 0.185959 0.0634213)
(10.7029 0.121307 0.035003)
(6.63262 0.628692 -0.681986)
(7.33712 0.309312 -1.34529)
(9.97632 0.162759 0.0155335)
(10.338 0.0818751 0.451705)
(9.06229 -0.178928 -0.345001)
(10.3834 0.0587263 0.028811)
(10.1535 0.0326609 0.0201581)
(10.0964 0.0775184 0.00507178)
(10.0761 0.0791471 0.0164308)
(10.1134 0.117107 0.00359827)
(10.043 -0.452595 -0.0801367)
(10.0322 0.0788638 0.0129601)
(10.4384 -0.0214847 0.279473)
(10.2409 -0.00822272 0.462847)
(10.4919 -0.0699636 0.183225)
(10.2089 -0.15149 0.219394)
(10.1666 -0.112771 0.103504)
(10.1444 -0.0931988 0.259793)
(9.85646 -0.106701 0.0923668)
(10.1462 -0.0558547 -0.0262595)
(10.2615 0.179983 0.132895)
(10.0746 0.183966 0.0522676)
(10.0816 0.194483 0.0854787)
(9.96322 0.799767 -0.25556)
(10.0146 0.0393174 -0.0105898)
(10.0024 0.166869 0.0792507)
(8.71899 1.18625 -0.199073)
(8.20947 1.8323 -1.44978)
(9.40272 0.944558 -0.213104)
(9.96615 -0.287706 -0.153666)
(10.0095 -0.0558421 0.0181437)
(10.0336 -0.169322 0.0551612)
(9.90325 -0.142647 0.0244924)
(9.81709 -0.0721647 -0.0215817)
(9.99155 0.089582 0.0191283)
(12.1735 0.0202684 -0.438325)
(1.47317 2.06022 1.87237)
(10.0127 -0.116456 0.0462324)
(0.360821 0.504113 0.62024)
(-1.59095 1.13073 0.575979)
(9.96684 0.280753 -0.17724)
(6.58206 1.177 -0.774941)
(9.95549 0.14975 0.481438)
(8.68712 0.430611 -1.40273)
(8.76958 -0.0241202 -0.230739)
(7.5871 0.247461 1.95273)
(10.5147 0.0244351 0.127998)
(-1.20285 0.758225 1.44097)
(-1.85957 0.561871 -1.02609)
(4.30557 -0.474931 2.07398)
(-0.586023 1.10887 1.84189)
(9.9803 -0.0328765 0.018497)
(9.99832 -0.0550145 -0.00623197)
(10.0007 -0.0820784 -0.0126306)
(2.35224 0.56927 1.92102)
(9.99862 -0.0559186 -0.0166797)
(9.98079 -0.0545881 -0.0338872)
(10.1033 0.0358235 0.180306)
(6.38242 1.02704 -1.01128)
(-0.147869 1.31859 2.44911)
(-4.22505 3.33751 1.04782)
(-2.19579 0.565371 1.10215)
(-3.28607 3.05835 -0.209352)
(-0.99627 1.74865 1.20996)
(9.85977 0.741203 -0.668454)
(2.1193 0.236724 3.43215)
(-1.37286 0.798074 0.38954)
(9.75174 0.739118 0.359859)
(2.76919 0.432048 1.43416)
(-2.84348 1.33722 -1.12376)
(8.92505 -0.0752363 2.07859)
(0.497916 2.1659 0.501413)
(-0.860591 1.57701 1.7692)
(-1.26936 2.28541 0.571302)
(10.1266 0.208481 0.283319)
(-3.1263 2.31135 0.520357)
(11.237 0.0634439 -0.133434)
(2.6738 1.38649 2.36453)
(-0.905707 1.26837 1.56524)
(9.94332 0.128482 0.500706)
(2.80127 -0.02057 0.652198)
(-2.84991 2.29384 0.538963)
(-3.51894 2.236 1.35841)
(10.0257 0.0454771 0.0108047)
(5.66807 0.977157 1.86342)
(-2.56609 2.45823 0.346581)
(9.9421 0.0166656 0.0158395)
(10.7061 0.254146 0.0916269)
(10.4122 0.119858 0.00477946)
(-3.49354 3.34491 0.577124)
(7.84367 0.315306 2.36184)
(10.6654 0.024618 0.145717)
(9.99058 0.835516 -0.131738)
(9.78845 1.16646 -0.188135)
(9.90989 0.458755 -0.017417)
(10.0563 0.477309 -0.0860685)
(10.6253 0.901873 -0.301509)
(5.56862 0.791152 -1.05593)
(8.50864 2.56863 -0.870584)
(10.5795 0.806177 -0.365734)
(9.63551 0.962232 -0.448083)
(10.5609 0.139942 0.33712)
(2.75819 1.46683 2.485)
(4.89204 0.664628 2.28301)
(1.72732 1.70804 2.32573)
(3.6455 0.773126 2.21601)
(-2.78959 1.55617 -0.354526)
(-1.45061 1.46107 0.767626)
(10.4832 0.404743 -0.0410694)
(7.3425 0.42227 0.214146)
(10.081 -0.00273457 0.0522845)
(7.76227 0.784639 1.57823)
(8.95917 0.428412 1.39987)
(10.9526 0.296285 -0.50149)
(7.38503 0.430959 -1.16663)
(8.62504 1.34434 0.00257424)
(-1.71061 0.731495 1.49335)