/*--------------------------------*- C++ -*----------------------------------*\
| =========                 |                                                 |
| \\      /  F ield         | OpenFOAM: The Open Source CFD Toolbox           |
|  \\    /   O peration     | Version:  2506                                  |
|   \\  /    A nd           | Website:  www.openfoam.com                      |
|    \\/     M anipulation  |                                                 |
\*---------------------------------------------------------------------------*/
FoamFile
{
    version     2.0;
    format      ascii;
    arch        "LSB;label=32;scalar=64";
    class       volScalarField;
    location    "0.0100321";
    object      nut;
}
// * * * * * * * * * * * * * * * * * * * * * * * * * * * * * * * * * * * * * //

dimensions      [0 2 -1 0 0 0 0];

internalField   nonuniform List<scalar> 
3927
(
0.00244785
0.00314192
0.000348457
0.00281193
0.00524778
0.000398996
0.000485496
0.00392164
0.00659201
0.00555114
0.00595553
0.00636695
0.00752066
0.00114974
0.00370709
0.000560836
0.00665004
0.00693617
0.00400278
0.00075138
0.000922059
0.000438753
0.00131202
0.00120936
0.00240468
0.0030761
0.00650837
0.00711311
0.000541076
0.00329879
0.00325894
0.00751374
0.0044394
0.00746976
0.00552234
0.00496292
0.00195536
0.0056368
0.000942679
0.00125432
0.0058316
0.00118977
0.00738184
0.00269614
0.00521685
0.00235777
0.00266037
0.000840277
0.00572053
0.00249608
0.00445122
0.00171385
0.00107942
0.00751499
0.0073951
0.0073851
0.0045893
0.0012525
0.0070989
0.00381177
0.000785586
0.00459887
0.00238281
0.00227749
0.00380144
0.00536141
0.00562558
0.00155267
0.00116012
0.00056876
0.00524998
0.00418673
0.000535117
0.00150285
0.00161326
0.00114498
0.00145087
0.00227934
0.00267727
0.00205155
0.00341171
0.000778885
0.00472972
0.00391254
0.0022332
0.00647557
0.00566794
0.00138819
0.000295119
0.000629475
0.000653197
0.000930078
0.00268981
0.00567177
0.00603348
0.000840482
0.000444906
0.00158579
0.0038844
0.000923759
0.00151512
0.000580957
0.00168408
0.000172896
0.0042559
0.00579804
0.00697962
0.00716739
0.00295276
0.00407099
0.00422
0.000753573
0.00173439
0.00344258
0.00110638
0.000662799
0.00458334
0.00201035
0.00532441
0.00633728
0.00221958
0.00586867
0.00260061
0.00145904
0.0047213
0.00538547
0.00454403
0.0025117
0.00217031
0.00339823
0.00320807
0.00133664
0.000753189
0.000290381
0.000198269
0.00439288
0.00618905
0.00142183
0.000781397
0.0038072
0.000793242
0.000802294
0.00375001
0.00201008
0.00739461
0.000754161
0.000235023
0.000650436
0.00131004
0.0020833
0.00553068
0.00423151
0.00488955
0.0058311
0.00214742
0.00403564
0.000278238
0.00161422
0.00433292
0.00388465
0.00126375
0.00687904
0.00306406
0.00439897
0.000330691
0.00185295
0.000554664
0.000530413
0.00243752
0.000784726
0.00250589
0.000430335
0.000755969
0.000374067
0.00110394
0.000447179
0.00111048
0.000566582
0.000968236
0.00153601
0.00496111
0.000718606
0.00266992
0.00109322
0.000771306
0.00215926
0.00310927
0.000795794
0.000937507
0.0012388
0.00154646
0.000997374
0.000758406
0.00596566
0.00549044
0.000171086
0.00361849
0.000362774
0.000191211
0.0032072
0.00129852
0.0011938
0.00415775
0.00143194
0.0020345
0.000797552
0.0051419
0.000456924
0.0058612
0.00437304
0.00190772
0.00062161
0.000693223
0.000994164
0.00300394
0.00215735
0.00361522
0.000817489
0.00310139
0.00104789
0.00137274
0.00196777
0.000982854
0.000598153
0.00057735
0.000695202
0.000959269
0.00184986
0.00124119
0.00675239
0.00212224
0.00449759
0.00292462
0.00208746
0.00389016
0.00375977
0.000542418
0.00739212
0.00418031
0.00130019
0.0034828
0.00252247
0.000946333
0.00153417
0.0025234
0.000701799
0.00729659
0.00275267
0.00742523
0.00394255
0.000788657
0.00255124
0.00333333
0.00684922
0.00676103
0.00247482
0.00462235
0.00108709
0.00149224
0.0014103
0.00233546
0.000843067
0.00251779
0.00118531
0.00127132
0.000831191
0.000624536
0.000597077
0.00102567
0.00602401
0.00112176
0.000746159
0.00381269
0.00696413
0.00708139
0.00137711
0.0030792
0.00364331
0.00321867
0.004582
0.000814991
0.00317373
0.00726524
0.000587106
0.00146947
0.000453399
0.00124243
0.00066718
0.00186216
0.00151538
0.000999338
0.0014227
0.00218396
0.00603841
0.00617814
0.00591944
0.000844999
0.00166521
0.000904333
0.00122808
0.00164436
0.00103333
0.000487205
0.00148672
0.00318768
0.00256612
0.00174342
0.000928514
0.0010343
0.0025201
0.00341819
0.000860133
0.00275323
0.00343331
0.00737977
0.00206179
0.000547275
0.00516271
0.00452656
0.00181495
0.000500183
0.000129476
0.00251118
0.00194425
0.00123697
0.00736742
0.00367906
0.00134834
0.000726544
0.00229832
0.000934893
0.00291509
0.0010045
0.00103504
0.000567519
0.00720746
0.000507032
0.000299038
0.00551227
0.00529343
0.000675116
0.00308573
0.000337864
0.00105891
0.00452153
0.00230342
0.00287848
0.00148804
0.000773081
0.000232149
0.00255422
0.00239626
0.000377827
0.0016197
0.00216899
0.00150679
0.00580325
0.00168037
0.000386108
0.00447855
0.00132174
0.00052216
0.0019914
0.00373553
0.00111754
0.00063257
0.00390327
0.000734514
0.00038069
0.00125356
0.000582128
0.00149566
0.0045253
0.0008638
0.00314582
0.00258061
0.00261378
0.00155331
0.000395427
0.00085968
0.00123081
0.00077755
0.000376137
0.00126455
0.00191288
0.00123566
0.00135651
0.000428285
0.00336994
0.000773994
0.0015389
0.000602792
0.00190352
0.00242322
0.00104204
0.00448727
0.000606598
0.00616289
0.00224327
0.000637989
0.000838494
0.000783841
0.00150457
0.00128964
0.00148886
0.00383443
0.00118275
0.00744462
0.00170802
0.000352326
0.00203549
0.00291564
0.00712902
0.000967343
0.00720396
0.00482074
0.000875426
0.000926842
0.00103091
0.00622172
0.000787429
0.00493397
0.000949012
0.00111427
0.00675639
0.000952965
0.00166598
0.000917816
0.00371769
0.0013281
0.000746456
0.00121456
0.000859679
0.00082855
0.000833311
0.00307817
0.0021237
0.00275374
0.00632189
0.000971055
0.0073798
0.00736128
0.000403756
0.000302002
0.00732993
0.000586737
0.00732033
0.00205111
0.00720617
0.00512382
0.00165801
0.00275465
0.000819019
0.000835706
0.000987178
0.00128748
0.00341753
0.000363252
0.00364269
0.00375094
0.00103799
0.00251466
0.00168811
0.00199524
0.00129221
0.00111564
0.00584809
0.000406499
0.000169288
0.000249974
0.000495307
0.00127254
0.000315558
0.00239386
0.000992776
0.00145855
0.00053965
0.00230152
0.00294339
0.00733414
0.00487342
0.00378104
0.00732906
0.00560136
0.00496089
0.00396022
0.000155629
0.00110414
0.000886619
0.00697505
0.000809543
0.00385626
0.00643427
0.00460987
0.00230851
0.00202113
0.000736094
0.000909544
0.00133499
0.000358843
0.000836583
0.00150868
0.00156371
0.000563785
0.00305655
0.000359214
0.00127477
0.00260613
0.00213473
0.00242928
0.00118231
0.00223799
0.00206373
0.00596012
0.00348042
0.00138828
0.000279016
0.00375327
0.00484365
0.000849266
0.000469414
0.000191475
0.000673542
0.000769844
0.00419372
0.00210229
0.00114039
0.00708957
0.000887379
0.002279
0.00198122
0.00227047
0.000875693
0.00181697
0.0020172
0.00199259
0.00634272
0.00627752
0.00209286
0.00142215
0.000831104
0.00322433
0.00172306
0.000813568
0.000777366
0.000981793
0.0021588
0.0005892
0.00100975
0.00685845
0.000872561
0.000572114
0.000747526
0.00710762
0.00244405
0.00107731
0.000964051
0.000777684
0.00209846
0.00191146
0.000346347
0.000646593
0.000328046
0.000675704
0.000864939
0.000350933
0.000282313
0.00132635
0.000500753
0.000681257
0.0014626
0.000738503
0.00721614
0.00730027
0.00520899
0.00436173
0.00499574
0.0035348
0.00580723
0.00556793
0.00618972
0.00445089
0.00586462
0.00549127
0.00527743
0.00556174
0.00578363
0.000572801
0.000919119
0.00155308
0.00573624
0.00581193
0.00292817
0.0042375
0.00274682
0.00616905
0.00227275
0.00200221
0.000935315
0.00163961
0.000663726
0.00134708
0.000737092
0.000491266
0.000947734
0.000727208
0.00118591
0.00255421
0.00253434
0.00199067
0.00128594
0.00161638
0.00543428
0.00359599
0.00524612
0.00601724
0.00729151
0.00639269
0.00250697
0.00262438
0.00192494
0.00183794
0.0021147
0.00177321
0.00203361
0.000733353
0.00116108
0.00739273
0.000781376
0.000574906
0.000590536
0.00058849
0.000559765
0.00111588
0.00124867
0.00150496
0.00208703
0.00188219
0.00281137
0.00203676
0.00365743
0.00710917
0.0050732
0.00446315
0.00738515
0.00628169
0.00363537
0.00733409
0.0073835
0.00368633
0.00452803
0.00612543
0.00175353
0.00736924
0.00415021
0.00405619
0.000697164
0.00112482
0.000611059
0.00033048
0.00661914
0.000342883
0.000907387
0.00116085
0.00081829
0.000955576
0.000423994
0.00449647
0.00435749
0.00356254
0.00559727
0.00708062
0.00688492
0.00530666
0.00625255
0.00744664
0.00571374
0.0072695
0.00646604
0.000687037
0.000407797
0.000551318
0.000712943
0.000525267
0.000786841
0.000704866
0.000961557
0.00071751
0.000779171
0.00123857
0.00114642
0.0062385
0.00444829
0.00466748
0.00178189
0.00175095
0.00157651
0.00184751
0.00259469
0.00504892
0.00453276
0.00340726
0.000793204
0.00300562
0.00148725
0.00331216
0.00207338
0.00262964
0.00232073
0.00743428
0.00491933
0.00242759
0.00331373
0.00534295
0.00255082
0.00263309
0.00387935
0.00289229
0.00408237
0.00344638
0.00381603
0.00325076
0.00567306
0.00742238
0.0073259
0.000205783
0.00130176
0.00110554
0.000229294
0.00167257
0.0025035
0.00140255
0.00155998
0.00283793
0.00106643
0.00162916
0.00120397
0.00110223
0.000990755
0.00734715
0.000523401
0.00607748
0.00123228
0.000751316
0.00172231
0.00160404
0.00179238
0.00269804
0.00111794
0.00390462
0.000591915
0.0025517
0.000269315
0.000727393
0.000370892
0.00197195
0.00345214
0.000941345
0.00277665
0.00243776
0.000205172
0.00316807
0.00262478
0.00139087
0.00173458
0.000973152
0.000295219
0.00145812
0.00156448
0.000494912
0.00131587
0.00069838
0.00212297
0.00114947
0.00112301
0.00127817
0.00404979
0.00163597
0.00458607
0.00254608
0.00387198
0.00242209
0.000355331
0.000831737
0.000658597
0.00142297
0.000816265
0.000222921
0.000602246
0.00133976
0.00196644
0.00268478
0.000617026
0.000625555
0.00388897
0.00129121
0.000371906
0.00134098
0.000706725
0.000748269
0.000222801
0.000712628
0.00413565
0.0015211
0.000423369
0.000543847
0.000506304
0.000953729
0.00734439
0.000624534
0.000953557
0.000657856
0.000157456
0.00444439
0.000250283
0.00154489
0.00102253
0.000787299
0.00267857
0.00306741
0.00623156
0.00731094
0.00518815
0.00493381
0.004879
0.00544686
0.00144346
0.0071242
0.00736873
0.00338116
0.000748592
0.00086391
0.00416117
0.000535939
0.00208941
0.00744633
0.00366286
0.00165872
0.00192372
0.00148554
0.00179396
0.002255
0.000368027
0.00194747
0.0069358
0.00189572
0.00235703
0.00474936
0.00119914
0.00137208
0.000619231
0.00258076
0.000879801
0.000170692
0.000846817
0.00476819
0.000638743
0.00722445
0.00298622
0.000421829
0.000601496
0.00128668
0.00104433
0.00219883
0.00278866
0.00269129
0.00153305
0.00177424
0.00115271
0.00155635
0.00659232
0.0010027
0.000959321
0.00357566
0.000952291
0.00275946
0.000818487
0.00214048
0.00133842
0.000107312
0.000679511
0.00274937
0.00577303
0.00242273
0.00731673
0.00195094
0.00195296
0.000495604
0.000568506
0.0005621
0.000660573
0.000500929
0.000837328
0.00040441
0.0011366
0.000672213
0.00424507
0.000663089
0.00445991
0.00528929
0.000602893
0.00218348
0.00739303
0.00355857
0.00103085
0.000967714
0.00709452
0.00696669
0.00135257
0.00044345
0.00711881
0.00186367
0.00152116
0.00365949
0.00340056
0.00469249
0.000575931
0.00112225
0.00471267
0.00474622
0.00193403
0.000806212
0.00744005
0.00702854
0.000724597
0.00132782
0.00362914
0.00245153
0.00105513
0.00389343
0.00627673
0.00293811
0.00711421
0.00588628
0.00207404
0.00338675
0.00104573
0.000834675
0.00049924
0.00111675
0.00174171
0.00224723
0.000803153
0.00165057
0.00724894
0.00731017
0.000991641
0.000758972
0.00068617
0.00366688
0.000670886
0.00259325
0.00202908
0.00216188
0.00734495
0.00499368
0.00717327
0.00221808
0.000169779
0.00745372
0.00157331
0.00430365
0.00586007
0.00731731
0.00186931
0.00185948
0.0066299
0.000256578
0.00733817
0.0026047
0.00448339
0.00573994
0.00184708
0.00531863
0.00176579
0.00172059
0.00605363
0.00619711
0.000338021
0.00716774
0.000177021
0.000858064
0.00326169
0.00264927
0.00121125
0.00247987
0.000645671
0.00155064
0.00491702
0.0050398
0.00543922
0.00170782
0.0011046
0.000749329
0.00175806
0.000176008
0.00136508
0.00025989
0.000427365
0.00692111
0.000522851
0.000633284
0.000698608
0.000882291
0.00164554
0.000889717
0.00313753
0.000804608
0.000739702
0.00737252
0.00138622
0.000939463
0.00105346
0.00338087
0.000985908
0.00615108
0.00154047
0.00294083
0.000913584
0.00100426
0.00122095
0.00212432
0.00318497
0.00415527
0.00191929
0.00149415
0.00461079
0.00567255
0.000704862
0.000762403
0.0012287
0.000579748
0.00152545
0.00060775
0.00232276
0.00087559
0.00119902
0.000834137
0.00690025
0.00370522
0.00637154
0.000924404
0.00111868
0.00023115
0.000877258
0.00396728
0.000377421
0.0016546
0.000297042
0.000213526
0.00303962
0.003702
0.00269052
0.00461134
0.00213019
0.00110425
0.0025812
0.000573023
0.000930691
0.00171
0.00077985
0.00101886
0.00172757
0.00734996
0.000919573
0.00070991
0.000836693
0.00147483
0.00247287
0.000932613
0.00432253
0.000642369
0.00150378
0.00124292
0.00270341
0.00112848
0.000482026
0.00108036
0.00105596
0.00291351
0.00436943
0.00731883
0.000138863
0.000324231
0.000568015
0.00408197
0.000730848
0.000327688
0.00497298
0.000378118
0.000724326
0.000495504
0.00275642
0.00735097
0.00733666
0.0073228
0.000136412
0.000486306
0.000711915
0.000576141
0.000788538
0.000192354
0.00358257
0.00181418
0.00378911
0.000129233
0.000557879
0.00139485
0.00168166
0.000443382
0.00323814
0.00327257
0.00258613
0.00209958
0.00141875
0.00252062
0.00482648
0.00325604
0.00289534
0.00593485
0.00220531
0.00270977
0.00372949
0.00737373
0.000780872
0.00565888
0.00285009
0.000623016
0.000970715
0.00104475
0.000812768
0.00179316
0.00109199
0.00508544
0.000512619
0.00607223
0.00323103
0.000418754
0.00252955
0.00145195
0.00375552
0.00524198
0.000631666
0.000530302
0.00102044
0.000970592
0.000558951
0.00100171
0.00102362
0.000977314
0.0040349
0.00606857
0.00621068
0.00295962
0.00489242
0.00264437
0.00300649
0.00268233
0.00147407
0.00272095
0.00471379
0.00218794
0.000693788
0.000731188
0.00594266
0.000717357
0.000776351
0.000236
0.00043202
0.000501685
0.000604643
0.0060471
0.00120254
0.00492669
0.00586496
0.00411794
0.000821012
0.00339619
0.0029041
0.00551996
0.00137955
0.000368823
0.000592675
0.00103694
0.00272716
0.000579205
0.00265947
0.00314584
0.00434017
0.000839372
0.00426364
0.00169514
0.00184252
0.000921122
0.00164728
0.00153969
0.000992405
0.00124944
0.00550003
0.000314963
0.00318008
0.00159512
0.00641943
0.00162143
0.001101
0.00346338
0.00200116
0.000703306
0.000325369
0.000745604
0.00344517
0.00256482
0.00384166
0.0036757
0.00324271
0.00449596
0.00466306
0.00227501
0.00110913
0.000904666
0.000767572
0.00293038
0.00106324
0.00141918
0.00327041
0.00112874
0.00255519
0.00272849
0.00165083
0.00221497
0.0021527
0.000262275
0.00169088
0.000528249
0.00209893
0.00123226
0.00139935
0.00118891
0.000852796
0.000790208
0.000920734
0.0072198
0.00153413
0.00750219
0.00748154
0.00744486
0.00731675
0.0074828
0.00223211
0.00363566
0.000208158
0.000823356
0.000566125
0.000649987
0.00110078
0.00219968
0.000712255
0.000758874
0.0042718
0.0073561
0.00206637
0.000752467
0.000649982
0.000253245
0.00311186
0.00736095
0.00752546
0.000717425
0.000988547
0.000470718
0.00269871
0.00304339
0.00289879
0.00120207
0.00140135
0.000759417
0.00194956
0.00025862
0.000457532
0.000774326
0.00748404
0.00364285
0.00103707
0.00388741
0.00736027
0.00524644
0.00530354
0.00745013
0.00183307
0.00474524
0.00431562
0.00732942
0.000971802
0.00283092
0.00180009
0.00710971
0.000584344
0.000602423
0.000202879
0.000811121
0.000210554
0.00759662
0.00146845
0.00196422
0.00181283
0.00269933
0.000915343
0.000830311
0.00262901
0.00144041
0.00125855
0.000785957
0.0057721
0.000895107
0.00179392
0.000195192
0.00194949
0.00590955
0.00530104
0.00718397
0.00316312
0.00614416
0.00543172
0.00656315
0.00755411
0.00748159
0.00757836
0.0075583
0.00418227
0.00384736
0.00167142
0.00550905
0.00570503
0.00577503
0.00501223
0.00742411
0.00477199
0.0073045
0.00485878
0.00345416
0.00562151
0.00611285
0.00606103
0.007443
0.00443151
0.00590057
0.00656907
0.00162406
0.00611996
0.00602504
0.00734793
0.00753331
0.00713263
0.000850159
0.00257688
0.00709883
0.00344137
0.00393205
0.00737724
0.00747258
0.00166649
0.00299846
0.00692822
0.00322952
0.00689989
0.00639135
0.0056133
0.00517494
0.00730143
0.005014
0.000619637
0.00222606
0.00108962
0.00683369
0.00399692
0.00758476
0.00307601
0.000595242
0.00382085
0.000543712
0.000852768
0.00394468
0.007405
0.00331938
0.00129029
0.00722889
0.00161752
0.00487939
0.00431213
0.000225791
0.000781664
0.00297698
0.00184233
0.00139849
0.000868861
0.000525263
0.000718768
0.000696652
0.000283891
0.000825858
0.000452903
0.00113764
0.000476163
0.00547315
0.00047438
0.00596445
0.00080217
0.00018394
0.000488362
0.000532917
0.000489171
0.000846329
0.000514127
0.00104665
0.00160639
0.000747286
0.000276966
0.00295376
0.00182832
0.000722131
0.00193546
0.00523018
0.00334621
0.00143611
0.000955958
0.00112221
0.000706219
0.000646372
0.000420856
0.000681229
0.000609177
0.000700613
0.000782456
0.00105149
0.00107875
0.000492448
0.00014486
0.00448577
0.000488821
0.00537143
0.00711278
0.00703172
0.000763065
0.000336632
0.000180732
0.000302041
0.00116787
0.00558904
0.00600445
0.00480169
0.00545917
0.000248228
0.00249936
0.000932807
0.00030016
0.000686208
0.000417643
0.000693103
0.000605874
0.00515635
0.00709043
0.00568561
0.000800395
0.00017618
0.00735789
0.00644421
0.000863151
0.00465985
0.00187176
0.00381062
0.000888348
0.00419597
0.000906702
0.000386417
0.00076255
0.00513467
0.000268271
0.00185809
0.000684189
0.00741899
0.00738625
0.00589262
0.000400996
0.000155028
0.000130852
0.000485521
0.00382748
0.000663474
0.00142741
0.000831374
0.000515346
0.000143222
0.00085587
0.000661924
0.000535155
0.000963341
0.000887156
0.00177364
0.004883
0.0010427
0.00097107
0.00073001
0.00121049
0.00021979
0.00328779
0.00262427
0.00693573
0.00713792
0.00424571
0.00345203
0.00631103
0.00551316
0.00453435
0.000630366
0.000462579
0.000721957
0.000615832
0.00128684
0.00322224
0.00464139
0.00673613
0.00578065
0.00364562
0.00495979
0.00166299
0.00267751
0.00682804
0.00479741
0.000756205
0.000822967
0.00104098
0.00135485
0.000983506
0.00396445
0.00278119
0.000414558
0.00633483
0.00416141
0.00159854
0.00303564
0.00447447
0.00706675
0.000961111
0.000654262
0.00696247
0.00255707
0.00481211
0.0053549
0.00167883
0.00398917
0.00295943
0.00492705
0.00741958
0.00289497
0.00273117
0.000498306
0.0045704
0.00206354
0.00732723
0.00530385
0.00733445
0.0072647
0.00753234
0.00172399
0.000881705
0.00159953
0.00185191
0.00445093
0.0010707
0.00173936
0.00269791
0.00187289
0.000722143
0.00106739
0.00109154
0.00310363
0.00441461
0.000800572
0.00221028
0.000154352
0.00297582
0.000558203
0.000950012
0.00410447
0.00182127
0.00574316
0.000504599
0.0011312
0.000537806
0.00607327
0.00464893
0.00422085
0.000939403
0.000884377
0.00110502
0.00731307
0.00730114
0.00178699
0.000650262
0.00633016
0.00107526
0.00603774
0.00102936
0.0030587
0.000956028
0.000273835
0.00127544
0.00139361
0.006134
0.000268831
0.000609959
0.00090629
0.00274823
0.00293271
0.00528285
0.00133738
0.00357053
0.00192483
0.00283539
0.00557039
0.00530147
0.00155467
0.00502961
0.00668354
0.00208981
0.000343152
0.00355318
0.000112154
0.000175983
0.00123684
0.000457623
0.00129739
0.000473794
0.00311037
0.00333789
0.0031746
0.00117935
0.0046162
0.00136615
0.00300469
0.0033454
0.000949748
0.000913011
0.0014048
0.000824232
0.000582757
0.000287983
0.00173694
0.00300206
0.000320394
0.00653661
0.00465766
0.000489843
0.00252458
0.000834549
0.000539016
0.00215379
0.00138509
0.000466216
0.00146706
0.000218454
0.00209807
0.000271867
0.00554121
0.00315193
0.00110412
0.000702088
0.00123406
0.000584407
0.000990502
0.00352177
0.00413678
0.00248855
0.000256398
0.00336285
0.00254746
0.00144672
0.000417092
0.000573298
0.000156468
0.000984951
0.000666482
0.00402423
0.00372154
0.00116238
0.000529582
0.00159136
0.0018425
0.00403454
0.00200357
0.00165684
0.00205978
0.00179436
0.00433021
0.000433576
0.00083433
0.00304169
0.000193101
0.00210757
0.000843743
0.00196669
0.00121209
0.00680293
0.00151463
0.002154
0.00206194
0.00465453
0.00509312
0.00219877
0.00221955
0.00253095
0.00505215
0.00180738
0.00157091
0.00159736
0.00153897
0.00142097
0.00391442
0.00624435
0.0015966
0.003354
0.00398132
0.00296455
0.0023481
0.0012574
0.00223988
0.00131297
0.00122853
0.00152203
0.0020239
0.00201888
0.00140535
0.00098791
0.00168637
0.000700148
0.00125613
0.00154439
0.00131269
0.00141201
0.00179586
0.0011848
0.00468561
0.000355011
0.00471307
0.00167959
0.00365747
0.00622406
0.000970458
0.00487642
0.00260956
0.00588465
0.0054802
0.00520309
0.00585666
0.00163233
0.000285145
0.00112753
0.000822544
0.00211051
0.00107644
0.00176278
0.00096189
0.000782853
0.00217175
0.000842131
0.000951643
0.000890142
0.000724138
0.000905507
0.00723614
0.000302849
0.00731025
0.00740234
0.00742422
0.00082901
0.000981954
0.000721592
0.00126288
0.00138122
0.000340559
0.00125936
0.00535584
0.00589767
0.00661197
0.00135255
0.00097268
0.00109196
0.00535629
0.00104194
0.000752461
0.00156177
0.000581078
0.000721367
0.000939659
0.000609165
0.00278532
0.00353041
0.00629644
0.00554758
0.00158336
0.00124493
0.000361818
0.00209528
0.00487008
0.00305093
0.00426556
0.00148042
0.00100868
0.000192836
0.000920052
0.00165558
0.0047253
0.00487188
0.00609682
0.0020126
0.000523694
0.00103217
0.00753615
0.00723406
0.00226823
0.00714581
0.00749245
0.00736792
0.00744599
0.00508225
0.00669581
0.00595983
0.00255531
0.00228896
0.0055246
0.00147541
0.00617904
0.00562386
0.00719695
0.00737144
0.00731114
0.000940718
0.00142168
0.000860715
0.00230408
0.00314489
0.003882
0.000265219
0.00183943
0.00111113
0.000757883
0.00237279
0.00103742
0.000860518
0.000834929
0.000590474
0.000707523
0.000740853
0.000639414
0.000888115
0.00497009
0.00742152
0.00352987
0.00268378
0.00186486
0.00101693
0.00211289
0.00133379
0.00118661
0.001522
0.0072627
0.00103465
0.00118116
0.00205379
0.000924994
0.00212217
0.00201888
0.00249474
0.000836329
0.000194253
0.000563354
0.000526386
0.000517456
0.000224375
0.00734633
0.00743526
0.00708151
0.00344354
0.00745831
0.00728266
0.00725205
0.00310511
0.00537379
0.000893496
0.00132641
0.0016792
0.000623469
0.000902475
0.000742451
0.0010351
0.00139276
0.001124
0.0015294
0.000639077
0.000855838
0.00222336
0.00105426
0.000929363
0.00141837
0.00261294
0.000571386
0.000962907
0.000959447
0.0011875
0.000536763
0.0074989
0.00453517
0.00116953
0.00629485
0.00731442
0.00743556
0.0061041
0.00292733
0.00667695
0.0066982
0.00587909
0.00230005
0.00518723
0.00486829
0.00403968
0.00403735
0.00346541
0.00454575
0.00205538
0.00580471
0.00602179
0.00124608
0.00462346
0.00561283
0.00393192
0.00232489
0.00282918
0.000698266
0.000716232
0.00735138
0.00245844
0.00405487
0.000309292
0.00739437
0.00757088
0.000763999
0.00672529
0.00183478
0.000677529
0.00614992
0.000784205
0.000970703
0.0016183
0.0025381
0.0040017
0.00443757
0.00735228
0.0018085
0.00316574
0.00207041
0.00719121
0.000835809
0.00417937
0.00141942
0.00299712
0.00370007
0.000811737
0.00603644
0.00231198
0.00581301
0.00630171
0.00607851
0.000631798
0.00303289
0.00722366
0.00385859
0.0034174
0.000983023
0.00394869
0.00360397
0.00397604
0.00480862
0.005121
0.000849033
0.000893869
0.000282037
0.000317907
0.000292447
0.000312458
0.00018468
0.000975897
0.000330695
0.000874751
0.000429252
0.000573191
0.000462018
0.00120509
0.000266203
0.000567417
0.00066199
0.000305997
0.00396559
0.000822505
0.000902625
0.00023347
0.000657394
0.00181162
0.00378122
0.000371037
0.000843236
0.000711057
0.000278252
0.000175098
0.000252129
0.000156906
0.00128856
0.000314912
0.000263443
0.000927033
0.000480608
0.000693731
0.000277985
0.000569909
0.0010583
0.00101257
0.000612766
0.000427028
0.00223064
0.00122291
0.000748755
0.000240223
0.00191321
0.00101225
0.00209131
0.00108528
0.00113683
0.000210893
0.00162897
0.000386868
0.000363567
0.000239472
0.000494644
0.000306795
0.000678806
0.000198637
0.00103154
0.000289376
0.00156012
0.00123389
0.00103958
0.000761005
0.000798253
0.000359126
0.000303035
0.00068578
0.00139609
0.00063337
0.00022543
0.000210742
0.000811377
0.000943233
0.000279917
0.00130795
0.000723804
0.000262248
0.00755893
0.0037414
0.0041898
0.00612724
0.00632513
0.00443079
0.00714275
0.00059284
0.00125766
0.000942688
0.0020842
0.0060272
0.000995485
0.00130566
0.00752169
0.00634998
0.00751809
0.000727614
0.00753445
0.00511187
0.0009816
0.000239654
0.000242212
0.000693683
0.000725816
0.00120706
0.000694142
0.000733124
0.000506157
0.000886339
0.000210521
0.000220317
0.000241976
0.00179221
0.000124585
0.00361348
0.00506561
0.00599416
0.00747744
0.00691692
0.0010103
0.00198983
0.00559591
0.000802842
0.00751312
0.00094069
0.000927602
0.00617808
0.0060745
0.00708551
0.00371077
0.00586557
0.000992822
0.00133169
0.0046171
0.00123033
0.00575757
0.00196484
0.00419908
0.00375979
0.00069301
0.00646889
0.00716629
0.00242588
0.00413519
0.00173535
0.0015063
0.00173902
0.00148543
0.00134076
0.00237346
0.00395264
0.00267277
0.00120948
0.00161282
0.00188489
0.00214171
0.00367567
0.00142079
0.00119376
0.000872915
0.00122746
0.000984283
0.000683686
0.000747216
0.00104807
0.000678024
0.000763861
0.00228068
0.000786921
0.00279816
0.00215246
0.000503067
0.00035058
0.000574226
0.000777199
0.000340177
0.000678272
0.000553138
0.00185656
0.00275667
0.00626474
0.00540737
0.000601992
0.00141001
0.00434067
0.000914144
0.00145247
0.000648664
0.00281894
0.00146901
0.00292954
0.00328059
0.00282003
0.000482062
0.00040034
0.00105821
0.00162994
0.000881205
0.00137642
0.00236841
0.00165121
0.00265815
0.000814113
0.000529284
0.000638005
0.00346026
0.000532046
0.00490816
0.00061496
0.00023612
0.0071146
0.00106355
0.00330831
0.000624497
0.000840974
0.000499667
0.000746605
0.000946227
0.00171648
0.00188008
0.00340923
0.00120909
0.00333441
0.00735543
0.00744453
0.00170506
0.00131317
0.00112067
0.00132616
0.00164602
0.00232549
0.00167185
0.000743035
0.00148885
0.00100378
0.00714906
0.00556423
0.00144945
0.00237921
0.00281662
0.00309061
0.000252796
0.00165292
0.00606502
0.00630893
0.000172489
0.00362448
0.000314942
0.000440387
0.00014855
0.00263895
0.00284328
0.00539253
0.005653
0.000869913
0.000294361
0.00179695
0.000658501
0.00141403
0.00735091
0.00728814
0.00295856
0.00068397
0.000902268
0.000806273
0.00750625
0.00602676
0.00336552
0.00389653
0.000643182
0.000696948
0.000772143
0.000287202
0.000951196
0.0016158
0.000960241
0.00501671
0.0035584
0.0037242
0.00487942
0.00042872
0.00440509
0.00109995
0.000188725
0.000210474
0.00111155
0.000197428
0.000863693
0.00222156
0.00118858
0.00438366
0.00517281
0.000360228
0.00251954
0.00107089
0.00596938
0.00154478
0.00438911
0.000427541
0.00689062
0.00691307
0.00736762
0.000507738
0.0046389
0.00112357
0.00084163
0.00081665
0.000828089
0.00133996
0.00150312
0.00179712
0.000429851
0.00416909
0.0064059
0.00665106
0.00412814
0.0032272
0.00213099
0.00187921
0.00293531
0.000313827
0.00385931
0.00102327
0.00132825
0.000209802
0.00110014
0.00159022
0.00142025
0.00122149
0.00105673
0.0026247
0.000848146
0.000487723
0.00100213
0.00206335
0.00167152
0.00346367
0.00716953
0.00572352
0.00190936
0.00655978
0.00583234
0.00731914
0.00737018
0.00176885
0.00499219
0.00352867
0.00508384
0.00545792
0.0028635
0.000593591
0.00659353
0.000470054
0.00262241
0.00200598
0.00144885
0.00307753
0.00237586
0.00328287
0.00275232
0.00147273
0.0013569
0.000674979
0.00114303
0.000194928
0.00162674
0.000280103
0.00319379
0.00174085
0.00109611
0.000236471
0.00100696
0.00133973
0.00561417
0.000205758
0.00167803
0.00556698
0.00152074
0.00636718
0.00172209
0.00183089
0.00235222
0.00506266
0.00629439
0.00136481
0.00148307
0.000436737
0.00028698
0.0074247
0.00124777
0.00731921
0.000542943
0.00138458
0.000555519
0.000664222
0.00169954
0.000193677
0.00452146
0.00736865
0.000491525
0.00286741
0.00150951
0.00356455
0.00601084
0.00103399
0.000495366
0.00407505
0.00753785
0.00156346
0.000866719
0.00166621
0.00628892
0.0014481
0.00212963
0.00446612
0.00299118
0.00260025
0.00283742
0.00168985
0.00736614
0.00269738
0.00178055
0.000823368
0.00702837
0.00633747
0.00137061
0.00247192
0.002025
0.000263772
0.0063678
0.00203808
0.0032595
0.00528488
0.000598933
0.000838911
0.00481272
0.000726282
0.000823636
0.00254829
0.000826762
0.00100238
0.00065676
0.00230273
0.00308736
0.00512056
0.000917143
0.0029138
0.00624996
0.0019191
0.00133125
0.00184418
0.00345189
0.000346843
0.000905272
0.000411879
0.00721669
0.00213147
0.00455963
0.00388072
0.00429506
0.000918526
0.000963918
0.00247336
0.000807991
0.00104534
0.0013367
0.00365741
0.00122671
0.00317525
0.00497296
0.00483447
0.00233483
0.00212859
0.00260767
0.000893446
0.00477894
0.00221674
0.000872483
0.000763647
0.0021607
0.00316651
0.00133912
0.00286586
0.000679969
0.00160355
0.000937235
0.000613918
0.00116991
0.000542864
0.00210369
0.000366193
0.00201284
0.00627371
0.00712638
0.000811464
0.000465502
0.00732839
0.00211172
0.00531351
0.00148923
0.000534005
0.000545574
0.00211095
0.00721839
0.000620578
0.00592743
0.00132956
0.00318134
0.00361979
0.00373716
0.00190315
0.0014593
0.000861974
0.00281724
0.000750792
0.00102839
0.00275012
0.000380839
0.00150192
0.00179575
0.00130228
0.00132217
0.00143983
0.00162861
0.00335176
0.000322983
0.000809019
0.000465659
0.000702773
0.00151947
0.000142911
0.00234584
0.00619965
0.00035088
0.00123608
0.00154823
0.00251262
0.000915073
0.00198866
0.000779334
0.000810677
0.000881288
0.00504711
0.00093993
0.000994364
0.00101545
0.000319538
0.000360446
0.000471834
0.000395737
0.00412502
0.00101626
0.000662967
0.000604145
0.000121425
0.00739181
0.0011796
0.00118809
0.00231756
0.00114462
0.00115906
0.000482388
0.000824366
0.00333627
0.00264486
0.0023595
0.00529525
0.00245111
0.00207338
0.00317022
0.00587367
0.00249727
0.00202678
0.00419829
0.000969012
0.00102041
0.000756945
0.00384065
0.00234367
0.00485601
0.00551385
0.000739227
0.00709741
0.00750866
0.00737141
0.00717163
0.0053058
0.00748331
0.00581617
0.0075208
0.00196611
0.00114527
0.0027693
0.00129117
0.00304515
0.00381806
0.00101682
0.000517061
0.000921949
0.000814319
0.00103259
0.00053994
0.00144705
0.000391262
0.000587727
0.00508658
0.00543191