/*--------------------------------*- C++ -*----------------------------------*\
| =========                 |                                                 |
| \\      /  F ield         | OpenFOAM: The Open Source CFD Toolbox           |
|  \\    /   O peration     | Version:  2506                                  |
|   \\  /    A nd           | Website:  www.openfoam.com                      |
|    \\/     M anipulation  |                                                 |
\*---------------------------------------------------------------------------*/
FoamFile
{
    version     2.0;
    format      ascii;
    arch        "LSB;label=32;scalar=64";
    class       surfaceScalarField;
    location    "0.0100321";
    object      phi;
}
// * * * * * * * * * * * * * * * * * * * * * * * * * * * * * * * * * * * * * //

dimensions      [0 3 -1 0 0 0 0];

oriented        oriented;

internalField   nonuniform List<scalar> 
7371
(
0.00622231
-0.0119699
0.012076
-0.00632837
-0.00778955
0.00186764
0.00335659
0.00256531
-0.000927868
0.00135266
0.000452704
-0.000877501
-0.00456787
0.00983858
0.000582976
-0.00585369
0.0159216
-0.00551276
-0.00461606
-0.00579275
-0.00253276
-0.00115232
0.00398159
-0.000296516
0.000465771
0.000968682
-0.00029345
-0.001141
0.0470588
0.0135019
0.000546543
-0.0611072
0.005009
-0.0343342
0.0117901
0.000952091
-0.0095799
0.00918752
-0.00055971
-0.0311045
-0.0547107
-0.0096086
-0.0614509
-0.087824
0.0584876
0.0907873
0.0210183
0.178427
-0.242982
0.0435373
0.00150924
-0.00131515
-0.00150082
0.00130672
0.0506648
-0.0504558
0.0199876
-0.000432637
0.00121216
-0.000585824
-0.000193697
-0.00252298
-0.00555166
0.00144536
0.00662927
0.0625383
-0.0417272
0.0635517
-0.0843629
0.0577943
9.92471e-05
-0.0578935
0.00110441
-0.000367331
-0.000194237
-0.000542843
-4.95769e-05
-0.00215757
0.00123796
0.00096919
-0.000126542
-0.000297868
-0.00125957
0.00168398
-0.00273165
-0.00110879
-0.00109189
0.00493233
-0.000695166
-0.00273837
0.00151061
0.00192293
-0.0556197
0.0561405
-0.00052085
-0.00698472
-0.0417642
-0.0068708
0.0427313
0.0151699
-0.0580748
0.000173569
0.0898155
-0.00293557
-0.0441486
-0.000602617
-0.000387767
-0.00103129
0.00202167
-0.00105907
0.00849926
-0.00776129
0.000321092
0.0082392
-0.016258
-0.000251743
0.0249676
-0.0149004
0.01788
-0.0279472
-0.0660833
-0.0238095
0.0898928
0.0279007
-0.136079
0.126078
-0.0179001
-0.0597202
-0.0608148
0.120535
-0.0293994
0.0600478
0.0218397
-0.0524881
0.00342583
0.00347254
0.000820894
-0.00771926
-0.0357996
-0.0379294
0.0995831
-0.0258542
0.00105613
0.00216462
-0.00144747
-0.00177328
-0.0559182
0.0265188
0.0583282
0.0651462
-0.0634266
0.00267142
-0.000153949
0.000811835
-0.0033293
-0.0149623
0.00192766
-0.0105717
0.0236064
0.0034538
-0.00399159
0.00110899
-0.000571194
-0.00136735
0.00360632
0.0058883
-0.00812728
-0.0017895
-0.000766444
-0.000855041
0.00341098
-0.00282963
0.0105491
-0.007403
-0.00031643
0.000593405
-0.000778443
0.000834727
-0.000649689
0.0119017
-0.064893
0.137217
-0.0842254
0.0310111
0.0175871
-0.0485982
0.0349701
-0.0684509
0.0644919
-0.00186026
0.00315546
-0.00101834
-0.000276864
0.00107209
-0.00166583
0.000177461
0.000416279
0.0197301
-0.00263948
0.0139615
0.0166047
-0.0222898
-0.0221898
0.00448712
0.0316642
-0.0107626
-0.00050659
0.00831989
0.00294927
0.000916799
0.000442663
-0.000885965
-0.000473496
0.00324106
0.0043805
-0.00200213
-0.00561944
0.0118351
0.00638312
-0.00366189
-0.0145564
-0.00171764
0.00105471
0.000489612
0.000173317
-0.03511
0.0534079
0.0433948
-0.0616927
0.00570448
-0.00891691
0.000912473
0.00229996
0.0216022
-0.0567122
0.0272464
-0.0214021
0.0300816
-0.0359258
0.00966021
-0.0502687
0.0678549
-0.0512632
0.13147
-0.0176686
0.0339026
-0.0688759
0.0014381
0.00011211
-0.00253047
0.000980257
0.0106786
-0.0138235
-0.00467171
-0.024143
0.0357683
0.0805565
-0.0921817
0.00299236
-0.00944096
0.00250353
0.00394506
-0.00793379
0.0208689
-0.00543611
-0.00749899
-0.00142084
-0.0043527
0.00185305
0.00392049
0.000922431
-0.00241253
0.00387485
-0.00238476
-0.00073401
0.00013632
0.00151449
-0.00156174
-0.000307498
0.00458392
-0.00271468
0.00620849
0.00714246
-0.00915278
-0.00419817
0.000707453
-0.00497967
0.0104807
0.00771203
-0.00738692
0.00163484
-0.00195995
0.0173644
-0.0349321
0.00906619
-0.000472054
0.000371822
-0.000381339
0.000481571
-0.0874079
0.00550128
-0.0656548
0.0669979
-0.00134309
-0.00137524
-0.00170797
0.00758844
-0.00450523
0.0971582
-0.050404
-0.106294
0.0595402
-0.0290988
-0.0632598
-0.0395778
0.000364212
0.00272307
-6.28849e-05
-0.0030244
-0.000282413
0.00352816
-0.00117521
-0.00207054
-0.00317666
0.00405688
0.0010215
-0.00190171
0.000388445
-0.000362534
1.41016e-05
-4.00123e-05
0.000381517
0.000519093
-0.00169254
0.000791926
0.00243601
-0.0133446
-0.00559378
0.0165024
-0.0260773
-0.0560577
0.0917951
-0.0610046
-0.0726364
-0.0165527
0.150194
-0.000240693
0.00114664
-0.00160276
0.000696812
0.00103947
-0.00220722
0.000239885
0.031062
-0.0603993
-0.0203299
0.0309293
-0.0366766
0.00147722
-0.00413343
0.00121343
0.00144277
0.00477323
-0.00216214
-0.00168866
-0.00218991
0.000719559
0.00116871
0.000301639
0.00219603
-0.00468356
-0.000499973
0.0029875
0.000754767
0.000284701
-0.0158836
0.00375057
0.0118858
0.000247229
0.0922397
-0.0302005
-0.0304689
-0.0315703
-0.0113507
-0.0441988
0.152708
-0.00813655
-0.00733517
0.00864837
0.000671473
0.0456792
-0.0632818
0.0162021
0.0652391
-0.0194258
-0.0620154
-0.000727376
0.000642874
-0.000247076
0.000331578
0.0010645
0.0015211
-0.00328076
-0.00856078
-0.0154895
0.016505
0.00754524
-0.00141254
-0.00289339
0.00274419
0.00027963
2.0708e-05
-0.000638912
0.000338574
0.00295961
0.000820973
0.0386908
-0.0424713
0.0308487
0.000102847
-0.0279919
-0.00702015
0.00166206
-0.0494174
0.00657964
0.0366409
0.00619683
0.0348349
-0.0346506
-0.000184294
-0.0183732
-0.0443211
0.0132769
0.0403113
0.00110327
0.00350245
-0.00157659
0.000775089
-0.00270094
-0.00279065
0.0109916
-0.00171219
-0.00648874
0.0066761
-0.0109288
-0.00125584
0.00550859
0.00710817
-0.0106149
0.0101829
-0.0173384
0.011661
-0.00480215
0.0104796
0.0151624
-0.013211
-0.0192898
-0.023477
0.0124395
0.0109149
0.000122533
-0.0135783
-0.00279047
-0.00248685
0.000366562
0.00147351
0.000646779
-0.00102575
-0.000114034
-0.000534886
0.00167467
0.00109729
0.00157089
-5.58543e-05
-0.000620583
0.000676437
0.0076427
-0.00813218
-0.0171851
0.0176745
-0.00477493
0.0174699
-0.000307757
-0.0123872
-0.00300132
0.000862247
0.00213134
7.73199e-06
-0.00104547
0.000821681
0.000123938
9.98501e-05
-0.00557386
0.00675146
0.00323702
-0.00441462
-0.00101197
-6.96354e-05
-0.00126165
0.00095125
-0.000701572
-0.00356804
0.00221927
0.0047506
0.00361763
-0.00234354
0.0035041
-0.00477819
-0.0378438
0.065263
0.0362162
-0.0636355
-0.000187003
-0.00174876
0.000674116
0.00133362
-0.000382369
0.00126398
0.0225645
0.0168154
-0.0393799
0.0444042
-0.0555485
0.0410683
0.0435794
-0.0290992
0.0229141
-0.0243061
-0.0653658
0.0266327
-0.021197
0.103848
-0.059737
-0.000225028
0.000958698
0.0110298
-0.0117635
-0.0329028
-0.0520126
0.023916
0.0609994
-0.00104909
-0.000480897
0.00202964
-0.000499655
0.00874819
0.0138293
-0.0225774
-0.00340161
-0.00696578
0.00851213
0.00185525
-0.0186518
0.0392354
-0.00831128
-0.0122724
-0.0270156
0.0260693
0.000946303
0.0654271
0.0376306
-0.153462
-0.0385841
-0.00708326
0.0371495
0.00290693
0.000280409
0.000108036
0.00189036
-0.000701927
-0.00115248
-3.5956e-05
0.00174569
-0.00248682
-0.00103324
0.00177437
0.00035115
0.000574793
-0.000297224
-0.000628718
-0.00289868
0.00252858
-0.00113125
0.00150135
0.000622903
-0.000220784
-0.000516644
0.000114525
-0.00265107
0.00174279
0.00749272
-0.00658444
-0.00118339
-0.000123776
0.000401791
0.000905371
-0.00413019
0.00216795
-0.000305896
0.00226813
-0.00125265
-0.00348899
0.00359899
0.00114265
0.00185379
-0.00157126
0.00160784
-0.00951082
0.0051451
0.00566191
-0.00544943
-0.00223731
0.00202483
0.00155258
-0.000338284
-0.000688659
-0.000525641
0.00876835
-0.00310645
0.00277921
0.000953541
-0.000306927
-0.0502085
0.0583937
-0.00206407
0.000595616
0.00234095
-0.000872497
-0.0346461
-0.00711803
0.00137918
-0.00180354
0.000424357
0.00108863
-0.00146887
-0.00065554
0.00103579
-0.00810036
0.00462911
0.0016739
0.00179735
0.0362419
0.0117732
-0.0463979
-0.00161715
0.000555168
-0.000774038
-0.000183914
0.000402783
0.00108567
-0.000258002
0.00107445
-0.00190211
0.00159573
0.045941
-0.053059
0.00176672
0.00262263
-0.00107734
-0.00331202
-0.000252682
-0.000873271
0.000763419
-0.0710961
0.051994
-0.0173957
0.0364978
-0.0222476
-0.0793977
0.0305492
-0.00136487
0.000742006
0.000622864
-0.00743734
0.00644505
0.00327453
-0.00228225
-9.33061e-05
0.00290051
-0.00244707
-0.00036013
0.00120855
-9.76899e-05
-0.00111086
-0.055579
0.0333314
-0.0051009
-0.000883033
0.00324942
0.00273451
-0.00070774
-0.00101382
-0.00294624
0.0046678
-0.00559384
0.0188552
-0.0574121
0.0441507
0.000930699
0.000611612
0.00105145
-0.00259376
-0.000326289
-0.00256701
-0.00365352
0.00654682
0.00330945
-0.00183982
-0.000733639
-0.00073599
-0.00179337
-0.0109506
0.00645684
0.00628714
-0.000230337
0.00244984
-0.00347216
0.00245004
-0.0020006
-0.0125772
0.0121278
0.00656757
-0.00380615
-0.010609
0.00784757
-0.00134862
0.00478134
-0.00264168
-0.000791042
0.000141115
0.00102925
-0.000114201
-0.00105616
0.00100563
-0.00166533
0.00012065
0.000539049
-0.00187284
-0.00114293
0.000199846
0.00281592
0.002269
-0.00941135
0.00432872
0.00281363
0.0015918
0.00250814
-0.00649951
0.00239957
0.00657576
-0.0038167
-0.00513712
0.00237807
0.000521231
-0.000530405
-0.000161861
0.000171035
0.0134692
7.27308e-05
-0.00696621
0.0018855
-0.00788826
-0.00348573
0.0094885
-0.00631396
-0.000663259
0.0051114
0.00186582
0.00493801
-8.06464e-05
-0.00453571
-0.000321648
-0.000687412
0.00325504
-0.00326956
-0.00016236
2.45254e-05
0.000137835
0.000397144
-0.000103057
0.000227144
-0.000366129
0.000722727
0.00252559
-0.00288219
-0.00228924
-0.00018487
0.00061385
0.000225514
-0.00450146
0.00523692
-0.000960977
-0.00876311
0.00325012
-0.00647558
-0.00858548
-0.0237305
-0.0237417
-0.0417321
-0.00598353
0.00812823
0.0516838
0.0619913
-0.0643565
0.0129412
0.0519619
-0.000825079
-0.0602822
-0.0012235
0.000298091
0.00127283
-0.000347424
-0.11392
0.0193186
0.0310979
0.0635036
-0.056255
0.0826128
-0.0233015
-0.00305634
0.00218896
-0.00157396
0.00431608
-0.00493108
-0.000323481
-0.0559315
-0.00205609
0.00159028
-0.00132369
0.00174873
0.00156748
0.000546655
-0.00386287
-0.00188914
0.000896645
-0.0027336
-0.000759341
-0.00366388
0.000243213
0.00418001
-0.0504268
0.104503
-0.000435122
0.00292819
0.00349203
-0.0059851
0.0224573
0.0182666
0.0258542
-0.0401485
0.0887259
-0.0366756
-0.00153077
0.000561709
0.000359495
0.0406068
-0.0395867
-0.0010201
0.0607388
-0.0206613
0.000529293
0.0709705
-0.111874
0.0775441
-0.000724576
0.0720746
-0.000379598
0.0051645
-0.0119634
0.00865868
-0.00185975
-0.000728223
-0.00203678
0.0029666
-0.000201592
0.00320067
-0.00112273
-0.00280617
-0.00213337
-0.00422052
0.00266152
0.00369237
0.0245342
-0.0486772
-5.63976e-05
0.00107881
0.00213305
0.0696709
0.00204487
-0.000708097
-0.00235512
0.0024114
0.00297388
-0.00218461
0.00207958
-0.000154758
0.00012005
-0.000620282
-0.000963159
0.00121164
0.000371798
-0.00119419
-6.20677e-05
0.000635978
-0.000129935
-5.86269e-05
0.132648
0.00123989
-0.00120499
-0.000164841
0.000522621
-0.000245889
0.0651816
-0.0617391
-0.00344245
0.00620013
0.00349728
-0.00670505
-0.00759282
-0.00535886
0.0139333
-0.000981588
-0.00675598
-0.00576492
0.00576465
0.00675626
0.00425896
0.00459759
-0.00523611
-0.00362044
-0.0077657
0.0214704
-0.0182892
0.00458449
0.000122998
0.00233691
-0.0096505
0.00719059
-0.00121073
0.010919
0.000824761
-0.0105331
0.0125774
-0.0173878
-0.000737399
0.00152526
-0.00759379
0.00933089
-0.00326237
0.00209019
0.0153861
-0.0188488
0.00137252
0.00249243
-0.00159022
0.00105265
-0.00195486
-0.00188964
-0.00265874
0.00146919
0.0030792
-0.00045041
-0.000931708
0.00138212
0.00567864
0.000739381
-0.00335464
-0.00306338
-0.000584797
-0.00064341
0.000282324
0.000945883
-0.00317355
0.000230387
-0.00118654
0.00412971
0.0163041
-0.0222762
0.000369021
-0.000252717
0.000222673
-0.000338976
-0.0042308
0.00181718
-0.000759924
-0.0039009
-0.00485473
0.00474187
0.00401376
0.00864168
-0.010106
0.000277555
0.00118677
0.000898096
0.00474631
0.0102028
-0.0158472
-0.0159063
-0.00199772
0.0117445
0.00615955
-0.000188716
0.000804296
-0.00166435
0.00104877
0.000730235
0.00296112
-0.00298981
-0.000701547
-0.00145409
0.000871863
0.000172406
0.000409822
-0.0018579
-0.00162073
0.000991785
-0.00191524
-0.00536029
0.00818775
-0.00091222
7.37053e-05
0.000720187
0.000109908
-0.0009038
-0.000541597
0.000132829
0.000408768
-0.00167863
-0.000835711
-0.000224028
-0.00204824
-0.00992846
-0.00176502
0.0137417
-0.000898015
0.00105688
0.00473081
-0.00488967
-0.000631088
0.000765881
0.00246576
-0.00260056
-0.000478638
0.00168424
-0.00472758
0.00352199
-0.000972328
0.000388631
0.000578841
4.85554e-06
0.00299719
0.00218363
-0.00582948
0.000648666
-0.0106633
0.000489637
0.00207327
0.000488148
-0.000803754
0.0013877
0.00678055
0.000807934
-0.000446028
-0.00966346
0.00493335
0.00948018
-0.00475007
0.0252024
0.0617644
-0.124811
-0.00469215
-0.00159881
0.00346132
-0.00308754
-0.0182957
0.00985713
0.00375756
0.00235061
-0.00813842
0.00203024
-0.00503168
0.00918843
-0.0137321
-0.00937877
0.0196151
-0.00535171
-0.00488462
0.00136275
-0.00310985
0.00303199
-0.00128488
1.93808e-05
0.000855839
-0.00087522
0.00486662
-0.00542422
0.000324763
0.000232838
0.00345148
-0.00644874
0.00108174
0.00191552
0.000318214
0.00276855
-0.000392538
-0.00269423
-0.000324488
-0.00980045
1.27362e-05
0.0101122
0.00438418
-0.00457497
-0.000630861
-0.000507509
-0.00396253
-0.00135009
0.000913446
0.000195953
0.00132938
0.00281368
-0.0117065
0.00756341
0.00103066
-0.00142467
-0.000751183
0.00114519
0.0542812
-0.0801036
0.0258224
0.00144957
0.00208973
-0.00218872
-0.00135057
-0.0032092
-0.00193513
0.00514433
-0.00263943
0.00107874
0.0015607
-0.0567923
0.0873221
0.00154789
-0.0320777
0.00234312
-0.000711819
-0.000856469
-0.000774834
-0.000274233
0.00261735
0.036718
0.00425165
0.0137492
-0.00456359
-0.0116114
0.00367809
0.0124969
0.00290822
-0.00366856
0.00048611
0.00089919
0.0100478
-0.00668798
0.00749259
-0.00458437
0.0036282
-0.0060805
0.00359068
-0.00113839
-0.00746488
0.00410117
-0.00467083
0.00803454
0.000856244
-0.00699239
0.00523813
-0.00446098
-0.00370323
-0.00164909
0.0098133
-0.00413128
0.00327478
0.000225412
-0.00245039
-0.000381718
0.00206218
0.000769921
0.00113545
-0.000415315
-0.00072013
0.0078751
-0.00874024
0.00172138
-0.00764575
0.00184602
0.0051598
0.000639932
0.000675199
0.000102002
-0.000612235
-0.000164966
-0.00156049
0.000283289
0.00295248
-0.00167528
-0.00531768
-0.000271989
0.00664655
-0.00111321
-0.000137409
0.00597725
-0.00472663
-0.020401
-0.000131182
0.00337629
0.0171559
-0.000860036
0.00467342
-0.00145212
-0.00236126
0.000973959
0.000736021
-0.00100985
-0.000700132
-0.000979231
0.00872775
-0.00831273
0.000564214
0.0018876
0.00102808
0.00320343
-0.0061191
0.00479023
-0.00223906
-0.000107905
-0.00244326
4.39545e-05
0.00258202
0.010561
-0.013187
0.00814809
-0.00486616
0.0128899
-0.0161719
0.00182401
0.00128326
1.53082e-07
-0.00310743
0.000179987
0.00147848
-0.000627805
-0.000588876
0.00196227
0.00349322
-0.000638432
0.000573593
-0.000685838
0.000750678
0.00112545
0.00067258
-0.00195997
0.000161943
-0.000532021
-0.00232678
0.00193962
0.000919183
0.00162412
0.00134268
-0.00289588
-7.09222e-05
0.00330691
-0.00085581
-3.96999e-05
-0.0090829
-0.00538144
0.0159589
-0.000256277
-0.000961665
-0.000499694
-0.0210156
-0.00916729
0.0125616
0.0176213
-0.00679723
0.00312935
-0.00548491
-0.000601158
0.00114611
-0.00344364
0.00323462
-0.00379256
0.00116674
-0.000608802
0.000607318
-0.000537247
-7.00713e-05
0.000396881
-0.000474317
0.00067585
-0.000598415
-0.00733512
0.00432764
-0.00132043
0.00432791
0.000607314
-0.000474805
-0.000173515
4.1006e-05
-6.7038e-06
0.00027531
0.000705353
0.00831445
0.00309077
-0.00869754
-0.00270769
0.0334837
-0.0206897
0.00234137
0.000932255
0.00096825
0.000967851
0.000953222
-0.00288932
0.000374904
-0.000241843
-0.00013306
0.0074226
0.0063474
-0.0212355
0.00746552
0.000378927
-0.0010991
-0.00201635
-0.0014149
0.00142606
-0.00318372
0.00317255
8.58068e-05
0.00184871
0.000827729
-0.00276225
0.00337333
-0.00207264
-0.00312608
0.00182539
-0.00012147
-0.00383494
0.00190031
0.000698824
-0.00065509
0.000579169
-0.00511694
0.00316663
0.00136143
7.36231e-06
-0.000364402
-0.000690774
0.00104781
-0.00227508
0.00106233
-0.00203552
-5.9081e-05
-0.00395874
0.000682707
0.00333511
0.00119203
-0.000658133
-0.0014498
0.000915895
0.000647354
-0.000418439
-0.00432682
0.00409791
-0.0011159
0.00184724
7.54933e-05
-0.000806836
-0.00344816
0.00373649
-0.00179075
0.00150242
9.55547e-05
0.00206662
0.000937273
-0.00263733
0.00277625
-0.00302834
0.00780709
-0.007555
0.00262912
0.00213854
0.00277355
-0.00754121
0.0229711
-0.00620976
0.0162134
-0.0329748
0.00139207
-0.00770168
0.00269516
0.00361445
0.00323018
-0.00269094
0.000558046
0.00158983
-0.00117765
0.00296116
0.00083736
0.00543198
-0.00409865
-0.00217069
-0.0164819
-0.00134606
0.0232595
-0.00223622
0.00146745
0.000864326
-0.0175522
-0.0129552
0.0260065
0.00450091
0.0696652
0.0438863
-0.0553748
0.00275332
-0.00274534
0.00058888
-0.000596855
0.00117632
-0.000965875
-0.000551467
0.000341017
4.86383e-05
-0.00223484
-0.00194398
-0.00064611
-0.00234619
-0.0054549
0.0084472
-0.0020266
0.000689249
0.00195176
-0.000614408
-0.0486564
0.0465108
-0.00598064
0.00812631
0.00200996
-0.00265423
0.000202065
0.000442199
-0.000215138
-0.00231315
0.0028465
-0.00248231
0.0759767
-0.130287
9.6213e-05
8.75844e-05
0.00291522
0.0146572
-0.00716118
-0.00742324
-4.68265e-05
0.0013094
0.000993998
-0.00225657
-0.00732792
0.00363667
-0.00362915
0.0073204
0.00104318
0.00268062
-0.00152446
-0.00219935
0.00208938
-0.00193764
0.00131843
-0.00147017
-0.000990961
0.00112566
-0.00256781
0.00243311
-3.92492e-05
0.00137973
-0.00124363
-9.68446e-05
0.000639731
0.00203494
-0.000664704
0.00254622
-0.00172651
-0.002759
-0.00280965
0.00128245
-0.00450649
0.00546224
-0.00136769
-0.00527509
-0.00968051
0.000156029
-0.0018275
-0.00203049
0.00367956
0.00166038
-0.0416929
0.00955902
0.0214738
-0.00343181
0.0142949
0.0131599
-0.024023
0.00210071
-9.51039e-05
-0.00153515
-0.000470457
0.00181315
-0.00113264
0.00142019
-0.00799268
-0.0246356
0.00858292
0.0240454
-0.00105656
-0.00176775
0.000394471
0.00242984
0.018191
-0.00649832
-0.0021337
-0.00955902
-0.00146441
0.000568685
-0.000669645
0.00318924
-0.00270489
-0.00572208
0.00523773
-0.00466547
-0.00292922
-0.000194856
-0.0041822
0.00378707
0.00356498
0.00400907
-0.00679431
-0.000779732
-0.00185262
-0.00189582
0.00149473
4.3687e-06
-9.94178e-06
-0.000536024
-0.000687827
-0.00319255
0.00183429
0.00204609
-0.029371
-0.0031179
9.8809e-05
-0.013622
0.00285996
0.013858
-0.0076658
0.00212227
-0.00588484
0.00595876
0.00337988
-0.00599758
-0.00536599
0.00439737
0.0042897
0.00482921
-0.00611188
-0.00300704
-0.00177874
0.000829407
0.00658769
-0.00563836
-0.00124738
0.000484752
0.00398965
-0.00322703
-0.031544
0.010703
-0.00304295
-0.00232358
-0.000421106
-0.00232311
0.00331895
-0.000574739
-0.00651886
-0.00044265
-0.00140817
-0.000499
-0.00117143
0.0014492
-0.000504593
-0.000678793
0.000584086
-0.00079363
0.000209544
0.000382742
-0.00129323
0.000598965
0.000311527
-0.00242064
-0.0114084
0.0169198
0.00125775
-0.00131487
-0.000730406
0.000787533
0.00180029
0.00399419
0.00197146
-0.00484198
-0.00112367
0.00034546
0.000627356
0.00252963
-0.0033144
0.013993
0.00360646
-0.00513126
-0.00246679
0.0457002
0.021202
-0.0255003
0.00299193
0.00130631
0.0142066
-0.00253748
-0.00864497
-0.00302418
0.00471921
-0.0110853
0.00840435
-0.00203827
-0.0210308
0.0121314
-0.00865288
-0.00748573
0.00648059
0.00895132
-0.00794617
0.0859309
0.0127432
-0.0986742
-0.00428114
0.00915566
-0.00163345
-0.00115207
0.00114537
-0.000603472
0.00286462
0.00157461
0.000167744
-0.00155339
-0.000188963
-0.00134065
0.0101289
0.000260718
-0.00904894
-0.000478929
0.000154974
0.000720836
-0.0641923
0.0618165
0.0023758
0.00911178
-0.00543887
-0.0124787
0.00880574
0.0165494
-0.0190228
-0.000672135
0.00104318
-0.00281107
0.00156309
-0.000997448
-5.01054e-06
0.00280268
-0.000987738
-0.00075881
0.00316209
-0.00473729
0.00104318
0.000306136
0.000995825
-0.000717875
-0.00200224
0.00137989
-0.000468507
0.00276551
0.00104429
-0.00154815
-0.00159377
-0.000560778
-0.00121876
0.000948674
0.00810377
-0.00927748
-0.000180203
0.000546193
-0.000552999
-0.000991761
-0.00361155
0.00279815
0.00253708
-0.00235997
-0.00297526
0.00128749
-1.66082e-05
0.00152727
-0.000871262
0.00113628
0.00227206
0.000550027
-0.00371256
0.000617924
0.000926185
0.00216845
0.00257754
4.07012e-05
-0.00360921
0.0067372
-0.00593978
0.00716627
-0.00796369
0.00804859
-0.0105767
0.00399387
0.00164424
-0.000898579
-0.00473952
0.000579658
-0.000182515
-0.00678148
-0.0134876
0.00377052
0.00430128
0.00541575
-0.00283741
-0.00154297
-0.00268396
-0.000259951
0.000909124
0.00203479
-0.000757556
0.00168084
-0.00333996
0.00101081
-0.00038414
-0.000138525
0.000848189
0.00544856
-0.00433448
-0.000197345
-0.000807383
-0.0018228
0.00282753
0.000918944
0.00299774
0.139011
0.0029647
-0.0941417
0.00161214
0.00110064
-0.00113817
0.000972133
-0.00567452
0.00148101
0.00322138
-0.00232203
-0.00595564
0.004808
0.00346967
-0.000434446
0.00354214
-0.00310493
0.00314525
-0.00317364
0.00313331
-0.00187066
-0.00122178
-0.00020429
0.00329673
-0.00361872
0.00211859
0.000448108
0.00422761
-0.0069312
-0.00726929
0.00208317
-0.00311815
-0.000632949
0.00337472
0.000349186
0.00234816
-0.00157168
-0.00411746
0.00171493
-0.000702405
-0.000248648
-0.00176213
-0.00322003
0.00191215
-0.000861639
0.000144381
-0.00250277
-0.00187468
0.00502764
-7.70876e-06
0.00195448
-0.00329358
-0.00069139
-0.00164738
-0.000720091
0.00156009
-0.000388881
6.9151e-05
0.0019608
-0.00164107
-0.00289434
0.00328628
-0.00078083
-0.0342451
-0.0246091
-0.000134091
-0.0020547
-0.000705549
0.00132628
-0.000230673
-6.98093e-06
0.000717668
0.000357727
0.000250887
0.126288
-0.0504059
-0.111681
0.0388611
-0.0318268
-0.00593105
0.000176189
-0.00187875
0.000233682
-0.00169332
0.000630551
0.000407227
0.00014
-0.00239727
-0.00150839
-0.00471633
0.00390162
-0.00220378
0.00404601
-0.0027553
0.000913068
0.00443087
-0.00232635
-0.00238694
-0.000355715
0.000930983
0.00326955
0.00128193
-0.00352761
-0.00209746
-0.00113792
0.00344561
-0.000210238
-0.00263639
0.00212994
0.000592259
-0.000897761
-0.00183194
-0.00304592
-0.00151483
0.00332863
0.00123213
-0.00096226
0.00172791
0.000712833
-0.00180554
0.0421213
-0.000292456
0.000356951
0.0162432
0.0161026
-0.0327027
0.0135353
-0.0272685
0.0140902
0.00817189
-0.0182833
0.00985348
0.000257921
0.00898753
0.00975706
-0.0105727
-0.00752564
-0.0118002
0.00104253
-0.024125
0.0279915
-0.0110375
0.0138989
-0.000411378
-0.00145385
0.000269858
0.00573547
-0.00104597
-0.0147466
0.0100571
0.00588234
-0.00652599
0.00536285
-0.0158429
0.0194625
0.00226272
-0.0158289
-0.000948044
0.0149271
0.00184982
-0.00737216
0.0114851
-0.00411218
0.00315121
-0.007509
-0.00031355
0.000340852
-0.00138024
0.00135294
0.00230815
-0.00115638
-0.00110313
-0.000598899
0.000913328
-0.00251821
0.00552017
-0.00870876
-0.010187
-0.00975495
0.00185348
0.000415742
0.00528734
-0.00717588
-0.0116898
0.00134669
-0.00763422
0.0092253
-0.0198614
0.00203736
-0.00774936
0.0056626
-0.00642059
0.00850735
0.00415861
-0.00101946
-0.00426188
0.00342765
-0.00296397
0.00258369
-0.00304736
-0.00278686
-0.00191806
0.00345754
-0.0020377
-0.00303019
0.00184231
0.00322557
-0.000379461
-0.000771741
0.000153753
0.00293834
-0.00198753
0.0023561
-0.00255554
0.00247036
-0.00122337
0.00130856
0.00340762
0.00102025
-0.00268218
-0.00539441
-0.000872036
0.00199889
0.00426756
-0.00120194
-0.000127502
0.00010594
0.00256204
-0.00440568
0.00264575
-0.00080211
0.00272639
-0.00390445
-0.00531525
0.00649331
0.00406498
-0.00289385
0.0013909
0.0080203
-0.00122893
0.00231279
-0.0049829
0.00312537
-0.000455263
0.00153205
0.00320804
-0.00242729
-0.00955849
0.00394082
-0.00437939
0.00999706
0.0135772
0.00325862
-0.0106136
-0.00685576
0.00588464
0.00629243
-0.00532131
-0.00118483
0.0111388
-0.00585285
0.142128
-0.0662672
-0.00538046
0.0190726
-0.00957847
-0.00634296
-0.00558162
0.00940527
-0.00389273
6.9075e-05
-0.00110667
0.00121299
-0.00175369
0.00143281
0.00194591
0.00232576
0.00389664
-0.00664743
0.0041836
-0.00246079
0.000775812
0.00538307
-0.000915458
0.00493765
0.00213855
-0.00107537
-0.00266908
0.0016059
-0.00118797
0.00438868
-0.00106216
-0.00702215
0.0234382
0.00264354
-0.000388732
-0.00195672
0.000113457
0.00132151
0.00120858
0.00130943
-0.000385095
-0.00131306
0.00241602
-0.000619341
-0.000487249
-0.00174021
0.000608787
0.00124488
0.000705331
-0.00097657
0.000792344
-0.00312694
0.000201227
-0.00125787
0.00490815
-0.00435802
0.00667065
0.00265461
-0.00883563
-0.00234169
0.0043006
0.0026702
0.000382511
0.00394645
0.00317056
-0.0066868
0.00389875
-0.00755725
-0.000861374
0.0074394
-0.107946
-0.0271474
-0.0406138
0.175707
-0.00910418
-0.00185468
-0.00858146
-0.00328257
0.00489826
0.147025
-0.0641788
0.0907437
-0.17359
-0.0485943
-0.0766352
0.118777
0.00645261
-0.000780953
0.00837208
-0.00865019
0.00316975
-0.000391877
0.0131174
-0.0158953
9.09841e-05
-0.019354
0.0093476
0.00991542
0.00598393
-0.0369477
-0.00372989
0.0346936
0.00292492
-0.0144196
0.0115387
-0.00490085
-0.00896084
0.00673689
-0.00517155
0.0155165
0.0373381
0.0297215
-0.00233065
0.0603038
-0.0754453
0.00714209
0.00189963
-0.00230451
0.00375943
-0.00165916
-0.00347236
0.00137209
-0.000745992
0.00544494
-0.000939521
-9.14927e-05
0.00264968
-0.00190715
-0.000651036
0.00291612
-0.00125939
-0.00174822
0.00261612
-0.00206964
-0.00916275
0.00861627
-0.000757343
0.00123666
-0.00150737
0.00102806
-0.000952639
-0.00138329
0.00205907
0.00061676
0.000979705
-8.72211e-05
0.00163791
-0.00112978
-0.00144312
0.000934993
0.00236319
4.06034e-05
-0.000416251
-0.00253319
-0.000407901
0.00335734
-0.0134015
0.0274877
-0.0299901
0.0159039
-0.00765424
-0.00780037
0.00336457
0.00970584
-0.00781024
-0.00526018
0.0242593
-0.0179269
-0.000348434
-0.0291389
0.00821289
0.0248312
-0.00390518
-0.0108774
-0.0312167
0.00428123
-0.00811025
0.00832404
-0.00449502
-0.0110013
9.34181e-05
0.0128445
-0.0177378
0.00921662
0.00861212
-0.00620801
-0.000711978
0.0137983
0.00836878
0.00383945
-0.00981809
0.0174084
-0.00288896
0.00211732
0.00076947
2.16893e-06
-0.00323808
0.00114981
-0.000530171
0.00261843
0.00033103
0.000450073
-0.00401918
-0.000432669
-0.000176178
-0.00228011
0.000739082
-0.000591063
0.000674632
-0.000822652
0.000147284
-0.00111642
-0.000662129
0.000332309
0.000923225
0.00100871
0.000735786
-0.00120696
-0.000537533
-0.000313045
0.000329379
0.000353462
-0.000369796
0.000352327
0.000343337
0.00257124
-0.00225569
0.00367833
0.000876551
-0.00143251
0.0031272
-0.00991191
0.0071672
-0.0082566
-0.00246824
0.0118429
-0.00618545
-0.00876679
0.0110653
-0.003524
0.00757271
-0.004375
-0.00487966
-0.000385216
-0.00572132
0.00496576
0.00409002
-0.00339275
-0.00566303
-0.000577272
0.00534943
0.000193606
-0.00271666
-0.00733402
0.00800243
0.00863488
-0.00760097
-0.00746192
0.000249229
0.0108422
-0.00362955
-0.00168405
0.000756218
0.00170047
-0.000772645
0.00457657
-0.00332119
-0.0087173
-0.000427466
0.00339022
-0.00217041
-0.00170671
0.0559879
-0.000713046
-0.0315084
0.0190147
-0.00177917
0.00870872
0.00786724
-0.00735049
-0.00440948
0.0480629
-0.0296255
0.060416
0.00501764
-0.000811049
-0.00483383
0.000627243
-0.00196623
0.069135
-0.0671687
-0.0637317
-0.0809469
0.0809718
0.00604668
0.00283409
-0.00386314
-0.00237991
0.000220791
-0.00757899
0.00654715
0.00289575
-0.00611187
0.00505505
-0.00183893
0.000617371
-0.0093755
0.00278315
0.00099654
0.00127536
-0.00673274
0.0063861
-0.0106446
0.0171522
-0.00945862
-0.160471
-0.0531333
0.0349017
-0.0279584
0.020837
-0.00124382
-0.000260132
0.00150395
0.000771653
0.00414502
-0.00458564
0.00028877
-0.0032204
0.00370329
0.000245372
-0.00148919
-0.00352079
0.00397851
0.00348926
-0.00394699
0.00249121
-0.00480705
-0.00469141
0.00700725
-6.77608e-05
0.00436984
0.00147373
-0.0057758
0.0211656
-0.0219359
-0.00118046
0.00195076
-0.00701088
-0.000532611
0.00442076
0.00312273
-0.00276559
0.00164734
0.00212627
-0.00100802
0.00314335
-0.00729509
0.0022621
0.00223586
-0.0018581
-0.000508985
0.00284692
-0.000690597
0.00272681
-0.0017368
0.00124585
-0.00970151
0.0094619
-0.000640445
0.000419661
0.00832377
-7.25877e-05
-0.0151069
0.00247029
-0.0026148
0.00289783
-0.00152957
0.00185518
0.00020344
-0.00121015
0.00297273
0.000886758
-0.00264934
-0.0047987
-0.00370547
-0.000960821
-0.00234459
0.000790232
-0.000912888
0.00311419
-0.0250371
0.0171677
-0.000608697
-1.00335e-05
0.00125762
-0.000638889
-0.00472273
0.0020982
0.00359666
-0.000916373
-0.00168392
0.0020957
-4.00109e-05
-0.00134425
8.75966e-05
0.00129666
0.00048455
-0.000351721
0.00231995
0.000194269
-0.0067627
4.64107e-05
-0.00535064
0.00875816
-0.00345394
-0.0021115
0.00332324
-0.0018427
0.000630953
0.00184912
-0.0015183
0.00768949
-0.00281496
0.007141
-0.00427963
0.000844645
-0.000169446
-0.00402968
0.0104233
-0.00390239
-0.00708477
0.00273546
-0.00369498
0.00574336
0.00137927
0.00212291
0.00186716
-0.00222466
-0.00377378
-0.00149013
0.00279096
5.24428e-05
-0.00135327
0.00491252
-0.000553071
-0.00340157
-0.000957886
-0.00318009
0.00509938
-0.00421141
0.00229212
-8.13888e-05
0.00103801
-0.00165898
0.00411248
-0.00349151
-0.000594779
0.00166165
0.000141674
-0.000398926
-0.00536415
0.00399281
0.00177027
-0.000167362
0.00261817
-0.000133815
-0.002317
-0.000644282
0.00220582
-0.00204303
0.000481497
0.00108815
0.000843732
0.00925482
-0.00454635
-0.00555221
-0.000171511
0.00560126
-0.000656514
0.00570906
0.00757967
-0.0102906
-0.00228
0.00351694
0.000946682
0.0055054
0.00712149
-0.00746239
0.00212088
0.00228624
0.00364146
0.000100164
-0.000506059
0.000405895
0.0010752
-0.00162631
0.000201814
0.000349298
-0.000559773
0.000529445
0.00265131
-0.00262099
-0.0017134
0.002375
-0.00366292
0.000944378
0.000500472
0.00128898
-0.00273383
-0.000893874
-0.000864826
0.0017587
0.00267331
-0.000733653