/*--------------------------------*- C++ -*----------------------------------*\
| =========                 |                                                 |
| \\      /  F ield         | OpenFOAM: The Open Source CFD Toolbox           |
|  \\    /   O peration     | Version:  2506                                  |
|   \\  /    A nd           | Website:  www.openfoam.com                      |
|    \\/     M anipulation  |                                                 |
\*---------------------------------------------------------------------------*/
FoamFile
{
    version     2.0;
    format      ascii;
    arch        "LSB;label=32;scalar=64";
    class       volScalarField;
    location    "0.0563527";
    object      omega;
}
// * * * * * * * * * * * * * * * * * * * * * * * * * * * * * * * * * * * * * //

dimensions      [0 0 -1 0 0 0 0];

internalField   nonuniform List<scalar> 
3972
(
89.2629
44.7651
45.443
48.7798
900.504
120.848
97.8649
46.7006
45.8195
66.0758
49.6672
47.2789
60.0468
48.5231
46.6171
43.9226
45.4571
47.6243
48.0897
56.7883
1141.42
253.675
101.491
47.7285
1328.07
43.6946
47.6641
63.9139
106.36
47.1349
663.614
174.727
48.144
83.1931
46.0408
45.4868
58.5546
58.35
45.5046
63.094
54.2775
47.1886
46.8562
107.105
57.3527
53.4998
63.3693
159.302
102.533
45.5799
58.3841
46.034
59.2692
81.0235
55.1723
55.0649
130.426
45.4792
131.508
244.498
89.8638
119.31
52.6981
110.741
57.5065
89.1103
107.303
120.894
55.78
162.74
119.553
49.1029
174.327
45.64
72.6606
44.4925
53.5683
100.304
63.1102
91.5684
56.7674
46.6082
43.5088
69.1284
45.3692
86.0353
71.2414
54.5899
106.306
98.4702
58.9766
51.8521
67.8593
53.8951
48.172
44.2749
44.9744
53.4453
62.1994
47.545
46.0634
45.3512
45.6692
48.8103
97.6734
45.7461
47.3783
45.6839
79.4311
44.774
54.8808
44.6891
43.8529
104.778
50.3722
47.7147
47.2656
130.146
113.213
54.7136
106.048
125.881
97.0478
85.1462
54.4174
613.09
119.267
566.297
657.76
936.635
523.387
53.3273
333.551
337.686
105.579
101.293
121.724
115.838
133.491
78.9857
61.6097
45.8529
50.5894
81.8671
135.917
61.0705
66.7352
44.859
121.298
63.0669
64.6333
46.7355
47.3226
81.9512
153.465
47.0334
55.1204
62.0953
58.1598
107.425
43.6035
44.5855
49.6192
53.7872
44.661
63.5591
54.8219
82.4406
46.8032
62.6226
71.3089
54.3685
44.0321
43.7095
48.1699
49.1933
64.0808
43.6216
44.0919
43.7889
72.9473
113.756
50.5947
77.7045
45.3294
45.1237
48.8085
56.2816
47.0278
1143.39
46.3286
45.1768
88.6115
45.2381
50.9741
46.5725
45.5198
75.6881
128.438
48.9372
48.3178
94.7294
59.2936
59.4364
45.367
71.8451
47.5734
51.1881
85.4779
103.465
143.814
71.1998
456.225
474.173
50.1222
75.2529
97.9621
66.4126
55.3604
69.75
48.5979
64.7455
50.3993
50.1894
186.878
50.5966
986.568
146.65
1210.17
117.993
1446.38
779.834
139.723
770.609
48.7353
52.3346
53.6332
43.7753
56.4013
51.1431
47.5729
557.673
108.397
48.9131
52.4038
45.8829
44.7903
46.2179
47.4669
141.697
46.6747
716.901
72.0905
159.402
44.6591
54.2095
166.028
103.79
47.294
121.001
188.553
121.619
93.7874
45.4096
113.818
53.9349
44.5474
63.672
48.8305
47.277
47.4163
83.4712
381.221
154.111
73.9297
112.168
52.863
134.507
44.3536
44.2103
94.4659
155.197
44.6579
254.37
1155.82
575.623
49.844
73.5498
46.3339
62.7201
44.9556
45.8435
52.2554
50.1802
163.152
74.3602
62.4289
201.09
44.9433
499.848
46.1131
60.318
57.0364
62.0296
93.8139
100.697
50.4928
51.3725
69.4155
50.8089
49.08
53.4009
106.096
94.2793
1384.4
46.7279
49.9827
46.0596
74.611
45.3527
461.358
749.254
56.2289
44.7898
43.8481
111.865
50.2974
44.6112
44.6426
140.047
55.1546
192.976
56.5469
44.1508
44.5163
131.722
49.3648
63.3686
45.374
88.6224
70.5428
44.512
107.719
46.7997
49.8184
44.9123
46.7499
46.576
57.3179
56.5206
55.0919
120.101
72.8653
60.3081
1326.05
103.045
496.91
72.8526
44.5594
44.1132
44.2968
44.1846
46.0063
102.996
52.8313
49.1319
77.5591
44.3865
67.5741
51.6011
44.1244
43.9366
47.8653
44.0654
91.3105
56.5694
52.5879
107.036
75.1452
102.242
47.6234
93.9725
45.8364
82.4092
57.004
82.7113
44.3663
65.0855
71.9426
51.1913
445.643
46.8174
329.931
45.9198
240.688
47.4529
875.218
1316.15
47.4697
47.3526
58.7461
45.7188
43.3164
53.442
54.3703
44.0624
85.7595
260.86
50.543
47.1747
44.1075
71.2842
52.504
48.3467
92.7966
1008.04
55.8948
46.8229
45.9005
48.1711
46.4161
129.495
43.8858
46.1374
69.7992
49.9719
46.4077
44.1787
60.3592
86.7305
47.2704
81.0233
91.102
52.0362
49.901
46.5952
46.0369
85.6956
51.7695
84.0388
50.0618
99.4093
51.107
57.527
47.7247
45.7716
46.0881
49.0751
66.972
50.9022
47.1408
55.103
49.6677
52.8164
44.9189
101.154
280.534
273.213
144.176
55.5215
92.0722
55.6618
54.3312
46.2107
52.8495
78.6229
44.3469
43.868
44.8899
44.6269
106.304
45.2958
48.3823
50.2294
44.096
84.694
101.555
700.266
51.7716
51.5568
82.3702
79.1803
138.708
116.31
173.981
49.3668
60.8826
108.209
62.7423
63.6665
90.0015
83.3023
481.696
64.4294
519.689
769.742
92.0846
68.6315
99.5544
62.1293
63.1988
102.366
49.6761
57.2331
54.6738
54.622
44.7508
44.9004
46.2134
47.5691
114.091
83.3346
133.937
360.534
45.6664
45.8681
48.6437
45.7482
116.956
115.914
83.9912
56.0397
85.1465
55.4351
262.432
46.7636
45.5506
63.5586
100.929
45.517
88.5369
143.854
45.9174
63.1772
74.4269
46.1913
63.5172
66.0948
62.5407
70.8248
66.6217
46.6523
47.7547
135.571
50.72
48.097
79.001
45.067
70.6736
46.3016
46.9142
46.8698
46.4651
48.4458
46.968
45.1152
45.3952
57.9752
48.3283
44.1432
47.4285
46.2598
44.9898
162.697
44.3234
204.37
205.298
193.366
76.4072
402.556
43.66
44.2793
271.918
55.466
49.6849
46.095
72.4903
74.9548
67.2676
43.7676
44.943
44.9957
45.0166
77.7271
52.4607
57.0581
44.0502
44.0999
45.4193
44.587
56.558
114.261
667.956
478.079
72.1893
120.076
54.5681
57.6237
44.2579
45.4229
54.5399
105.268
71.1728
65.8072
291.471
114.704
190.274
48.7578
869.489
54.5207
44.8302
43.8377
58.5644
48.6161
124.86
90.1135
76.5009
46.8793
48.931
46.4634
50.1073
247.883
134.629
65.3006
96.948
55.8047
105.246
44.3975
44.7117
47.5502
44.7993
44.7898
56.0399
56.8635
76.3466
56.1538
53.2273
43.9122
43.7989
44.0559
43.9776
59.013
54.1502
45.5741
46.1908
102.556
76.2031
523.255
120.583
149.288
61.9522
51.7177
579.886
696.999
50.4829
48.4729
44.3393
46.5114
48.9801
88.9206
134.482
79.8169
44.5374
113.184
58.7046
48.6322
48.1064
45.6755
52.1073
49.8991
48.3504
44.2661
44.5238
44.7592
44.58
44.7286
44.8566
47.2961
91.255
47.9649
51.0066
54.0668
52.0129
53.4143
50.1201
65.7912
52.6845
66.5883
43.709
114.23
112.491
149.222
89.6039
47.6038
46.3201
56.5777
46.0775
77.3851
46.6374
63.2117
49.234
162.401
45.7868
73.4675
63.8767
75.9976
125.356
46.0806
51.677
63.1539
46.3538
45.1109
85.9387
85.0341
841.761
60.6661
68.2015
73.8267
90.2146
62.0193
121.052
47.9868
108.97
45.5167
57.9451
43.9693
51.4019
144.864
67.6207
67.6384
47.2321
46.1206
52.6831
56.2684
70.3343
71.6454
46.9466
54.3682
49.1242
51.5002
67.8243
47.513
47.2906
45.4149
118.206
65.8966
50.0007
44.6749
47.3773
49.636
47.6839
59.716
51.5402
48.9899
66.5684
62.4389
47.1446
69.0567
772.702
146.614
261.766
657.163
45.0995
46.6853
44.5198
47.6768
127.247
45.5334
44.1232
52.9314
53.4335
45.1274
45.7678
84.0347
65.8114
91.3067
90.9935
95.6666
95.0775
112.03
57.2529
106.461
45.6976
48.6958
77.2427
74.8077
90.6512
69.1779
48.3872
49.3778
50.0331
227.187
89.2958
51.9215
48.0412
45.6666
48.9313
125.73
68.0235
56.8098
51.6826
74.3724
103.939
53.7871
57.0097
57.2174
345.292
54.5259
535.339
43.7828
45.7996
149.761
54.3035
53.949
44.6201
48.4343
44.6239
44.3767
49.933
48.5622
44.6754
47.7375
45.8567
48.3665
82.8667
45.5385
46.1253
97.4168
61.5801
48.4288
44.5995
92.593
46.5164
44.9802
50.4039
109.358
60.568
47.9539
171.103
171.442
932.225
1357.78
46.5465
46.2188
47.6971
48.8554
69.1261
1437.13
48.2469
202.643
143.178
128.266
54.2205
58.1565
45.4893
80.3272
46.4279
194.184
69.1589
1077.82
43.5458
44.2392
47.2223
44.8087
50.7738
74.6366
45.7689
46.6117
48.5263
425.945
46.4771
53.7003
44.7872
89.0472
94.8348
57.6412
356.529
53.3144
73.6291
46.7234
66.857
57.1902
116.751
75.1526
118.479
118.284
594.666
46.4483
58.6364
64.3422
103.597
71.5892
110.937
70.8211
76.1637
145.735
176.984
686.986
872.578
140.659
89.6993
63.0065
63.0569
58.8089
60.318
54.4799
59.6052
47.5769
65.3984
105.217
44.3143
48.5823
80.8801
57.107
45.55
48.6324
45.8999
71.4872
45.9255
44.1225
102.611
47.5856
52.168
46.1212
45.2929
47.0364
57.6907
44.8949
48.4976
152.782
65.2556
44.2398
43.2613
85.4602
83.015
44.2022
45.8461
46.7343
108.987
63.6299
46.0039
50.9752
43.3646
127.16
115.422
159.946
860.242
45.0819
63.6659
114.258
47.5213
47.4674
45.8313
66.4823
49.6101
49.1556
109.71
55.1875
55.1235
112.071
73.5597
88.4541
45.8054
82.7
104.208
44.2869
58.2691
108.576
46.605
219.516
54.3349
571.289
64.8333
49.5059
931.988
49.7165
50.5712
46.1822
880.685
62.2521
45.9295
249.078
65.5292
49.1253
52.655
66.4502
53.6642
65.1038
75.5278
44.2861
71.807
911.173
54.4175
1302.51
716.945
869.138
60.3271
1361.14
102.711
432.756
1228.48
65.969
48.2215
56.1735
47.9114
52.424
84.4995
87.117
516.422
1049.48
92.0381
46.0446
70.5009
488.836
53.6648
45.7134
43.8311
80.0484
77.7844
46.3354
1400.79
356.741
1232.34
1388.9
57.9361
73.8386
62.4644
82.9177
85.4696
88.3527
122.679
98.2348
54.0189
44.9882
48.2045
49.9098
94.9986
47.4688
54.5549
91.3458
51.6384
45.6411
45.2767
47.0036
45.3509
53.5972
44.7456
46.5154
53.6903
95.5877
53.5761
60.7828
46.214
74.4153
50.6752
45.7828
50.4846
44.0149
46.0587
46.0624
95.9112
46.2657
46.3414
45.0005
60.3271
75.176
60.638
44.7419
82.2468
109.858
138.059
146.13
53.6548
54.4833
56.405
44.5141
46.4323
45.0681
44.6398
46.126
70.3193
381.749
55.6041
46.9344
49.0413
46.7908
46.7744
46.368
56.3226
45.4436
48.1217
111.737
46.7944
48.3691
53.6959
50.8967
53.1212
53.9314
65.2724
54.1287
51.339
49.2001
60.048
112.824
1389.03
702.487
46.8193
98.2706
95.3453
49.3729
46.4118
67.902
268.846
45.5961
142.878
50.8733
49.0438
50.8167
47.2906
52.3534
47.4677
47.2152
44.5145
53.5088
44.5268
43.5741
43.6751
44.2807
43.5217
43.3258
43.8662
43.6951
48.939
159.768
44.4857
384.16
314.254
72.1918
44.2962
44.7232
1061.71
52.7466
88.3387
53.7974
43.7222
47.7837
49.7085
50.5999
47.8946
329.449
47.7511
60.5579
45.721
58.246
45.2402
59.5047
46.1779
60.8889
45.8068
43.8452
60.0665
44.2581
58.7021
44.0558
53.4425
90.1206
691.251
65.5619
46.7631
116.796
43.9031
61.0281
43.9223
53.6333
108.629
44.1985
50.1129
233.052
1052.82
52.5315
53.3116
59.2979
54.3698
59.8699
82.8577
51.2009
53.8894
45.5341
44.4701
54.9716
46.0159
44.0783
44.7131
61.4389
48.9118
1395.11
76.1352
807.13
44.8234
264.445
84.1066
274.365
48.1221
44.6005
86.3039
442.13
47.4717
45.8893
719.998
53.7027
835.824
634.024
47.1939
44.6771
47.5372
44.561
64.0755
84.7689
47.5794
46.3803
51.2278
59.8795
47.7863
48.5948
86.0533
44.7019
44.4097
43.9096
45.1818
46.1331
47.6209
50.0117
50.1122
50.9537
49.4166
46.1421
50.7065
50.1834
50.816
59.4851
48.1325
43.8767
55.8721
55.3842
73.6247
47.6698
49.5846
45.3532
44.1769
107.54
54.4934
46.7471
43.7053
44.2546
45.8471
43.914
43.7457
43.7706
43.7128
45.953
45.4368
43.9222
43.7448
44.155
43.9207
45.515
43.9324
45.3503
44.9547
44.4434
44.6718
44.7861
45.173
45.558
97.7269
114.004
125.7
44.8658
291.447
130.045
44.7147
75.6002
56.7108
46.7749
80.3411
162.232
1277.23
48.8021
46.5823
86.1802
128.49
49.0323
47.9002
53.7306
68.0032
59.2383
55.7865
54.9814
52.5923
51.951
96.7744
90.3874
102.653
57.9324
56.1645
59.2313
44.2811
66.0944
46.5361
44.7868
76.4532
63.7841
45.4904
85.4529
44.9285
47.104
75.87
101.664
46.2537
71.6728
89.6673
134.933
44.1398
105.131
61.2884
72.2365
44.6222
53.6241
119.804
47.7185
68.1636
79.0051
51.0419
45.2988
44.4008
46.9476
44.3858
44.9183
50.6293
128.994
111.699
56.5957
77.5129
100.282
108.965
95.8075
46.9183
95.5779
60.2768
137.213
162.008
78.603
56.8119
106.565
87.3272
53.1656
53.7569
51.2502
44.0388
48.3589
49.2495
84.9929
53.8519
44.8329
128.429
44.9387
45.5234
70.8035
49.2215
45.2406
155.357
93.183
46.7216
46.446
49.708
45.2693
98.0687
44.4504
45.9332
45.8539
265.551
74.2114
44.0403
44.3791
44.2475
44.0702
44.2754
235.894
44.17
239.53
44.3396
619.115
372.01
45.5525
1562.59
1487.59
49.2962
584.577
62.8877
45.1276
700.587
93.6677
949.927
945.536
1318.01
146.885
543.82
694.892
1361.47
64.766
489.369
70.7363
94.1951
117.731
55.0533
82.8893
89.4899
45.2521
49.6231
229.169
153.426
87.5636
66.3328
139.523
982.321
316.188
79.9508
53.5491
54.1122
49.7284
51.2384
104.05
44.3792
46.0655
45.7378
44.1321
43.6372
46.0577
47.6381
1147.98
88.7518
61.231
104.257
84.7995
46.3684
49.216
55.937
43.9965
45.2273
43.8367
78.7583
44.6202
48.1854
104.325
58.0507
43.3439
43.9433
60.2511
47.0721
73.0258
45.0913
105.484
46.4371
45.5982
46.0025
46.1209
52.343
45.485
53.1905
170.297
77.9874
47.8113
50.1371
127.649
54.1543
46.3469
55.3418
45.1001
85.7725
45.1468
45.2612
44.8265
71.1072
72.5624
54.9284
68.9489
84.745
44.6328
50.4833
44.3141
1057.52
47.2991
44.7354
47.8928
45.9899
77.4796
53.2412
46.2748
44.3941
50.8998
185.308
45.7342
62.8567
43.7573
79.5938
47.7017
46.9016
1161.57
77.6329
54.1336
105.307
49.1386
62.4511
60.5058
77.9015
45.4973
134.318
45.4176
47.4045
1267.05
48.0157
118.45
124.72
113.799
126.629
82.1485
82.6236
83.4801
120.594
95.4957
87.9022
64.8848
69.3212
112.335
50.1312
45.3156
46.1734
46.6245
109.409
46.4611
43.9006
43.8526
44.5083
43.9545
44.9775
44.792
44.4686
52.2279
50.7931
54.8667
55.8882
50.0492
92.3587
83.9006
67.996
71.549
45.7452
74.0997
50.4184
50.5455
79.2513
47.0588
52.165
1257.74
69.1955
996.92
736.815
50.1919
60.5401
49.5393
54.676
76.7739
46.2687
54.9226
104.949
1195.15
113.38
167.85
72.2168
46.2386
96.4171
122.758
77.9664
374.242
48.3938
1244.24
131.197
481.417
1198.39
81.6227
44.3655
75.9642
44.3952
82.6968
44.5965
47.5243
49.2604
60.1376
109.303
102.281
66.2969
56.4908
50.7053
227.135
47.7935
57.552
49.7437
87.823
99.975
52.687
78.7963
53.5391
62.8424
121.436
68.0514
96.6972
44.6638
48.4923
119.228
50.7328
53.1042
93.6082
52.4203
46.0092
46.4459
83.4805
107.332
43.9543
766.473
230.862
46.28
51.1212
927.446
165.199
1015.61
44.981
115.552
102.593
46.904
87.5551
120.261
58.5648
45.5795
73.9457
47.0791
69.1702
114.288
241.062
72.5323
94.9381
46.9167
44.2591
50.637
47.4386
51.7841
53.6702
58.9405
101.049
46.5417
46.0081
72.177
78.2906
57.4982
202.43
89.9931
85.2292
171.017
74.5147
54.3523
46.2348
53.6209
48.2055
44.3455
43.9213
62.9367
44.9639
54.9908
51.9395
600.233
47.5028
44.461
263.135
54.0608
59.2664
147.841
136.135
101.836
95.4758
410.552
109.436
56.4669
116.495
122.71
112.92
88.2089
53.9788
125.361
44.8538
66.2989
50.9531
48.4043
45.8457
46.7515
54.0252
48.1331
71.4545
46.6918
53.978
52.6667
44.5992
58.3075
46.563
134.533
47.2171
44.6089
46.8443
61.5379
55.1176
46.7118
67.9586
51.7644
99.8538
85.6752
124.354
74.5083
59.0416
71.0282
52.5172
50.7903
45.3921
46.5116
64.9288
67.4756
146.851
80.1401
109.49
44.4658
44.7014
49.2687
52.3126
48.3165
48.1821
47.8659
44.2363
45.6263
44.5015
91.2223
94.0831
65.8378
64.1482
57.2927
64.0754
44.5309
43.9167
47.3433
53.2376
68.8243
53.8162
124.922
49.4462
48.5834
52.6353
45.6862
44.0595
44.1872
53.2956
46.5677
70.4116
45.9263
49.9745
44.1064
43.6107
44.4848
48.301
46.2485
47.2368
61.5527
76.8669
47.7971
45.3607
46.7961
56.5581
57.7433
45.7657
46.5917
45.7985
46.5402
65.7832
44.6402
45.9365
61.6485
103.513
44.1976
45.8679
71.7086
44.2241
106.685
46.1176
45.4212
48.5274
69.6492
45.0027
48.9353
45.6456
44.9446
47.5446
45.9079
50.7139
54.0676
1432.87
43.9822
56.4101
693.729
83.8751
90.4222
315.232
223.642
73.7838
87.3926
81.8799
48.5147
47.0217
46.1747
44.1028
55.3745
100.435
43.7086
49.6172
44.4459
57.4002
48.6097
78.119
48.1889
68.666
56.5502
49.2279
43.5367
46.2738
45.2811
417.749
189.529
212.924
140.739
225.033
48.067
43.6314
1452.76
64.725
63.0196
63.5564
46.2314
71.3476
111.661
66.9914
51.967
44.6676
44.2334
103.996
46.6091
55.0437
62.9019
54.3836
95.5185
46.2835
182.534
267.059
45.5653
62.7152
56.9891
223.792
44.3034
46.1413
51.0838
89.0101
47.7534
46.5218
52.0171
71.6817
44.164
43.9518
44.7861
44.1752
50.3023
45.9231
43.7926
45.2025
45.9276
88.0077
59.1809
58.7151
111.318
44.161
43.8695
88.871
71.9622
131.885
99.916
68.2556
151.591
56.5228
82.0977
48.5131
58.2022
52.4534
56.8797
57.7246
44.4761
48.3536
44.482
67.086
88.5263
120.174
76.1138
111.923
55.1977
50.3448
118.991
64.0939
162.078
77.339
89.4488
48.2517
49.5327
57.6777
88.1995
810.539
48.4016
1050.74
1112.11
675.616
44.4831
45.7251
45.741
1256.18
44.4046
46.4022
61.6278
50.6159
46.3043
53.709
50.8933
47.877
46.7423
48.8119
48.2989
46.128
55.0884
243.636
204.722
46.0172
153.758
54.7236
71.0519
66.6922
70.5146
49.2463
1020.43
1059.39
983.233
304.391
185.068
1059.26
67.2445
58.044
67.7818
1525.88
70.6752
1057.16
59.513
63.6315
44.6174
44.6252
44.7811
44.7009
44.637
44.604
45.2308
50.3077
59.3958
46.0693
44.3576
45.8102
50.2884
49.5808
43.9902
44.3328
44.5295
44.1767
57.8744
43.8097
44.2227
126.11
44.1357
44.1539
45.325
43.7371
47.558
79.7542
89.7255
77.7342
46.95
60.009
45.1967
123.447
76.3851
54.2241
51.0877
95.8901
44.997
61.8399
45.7195
51.0061
44.4979
58.6663
45.5308
57.1938
63.1021
52.3685
96.5471
45.3114
49.9682
45.7416
85.5784
69.105
50.8763
44.4854
46.1189
51.1764
52.4861
53.2127
58.1528
51.8393
50.9317
62.4705
66.1114
328.844
50.1104
48.82
43.9681
53.4248
47.8931
45.2984
44.7491
51.4261
46.378
44.1026
43.8412
55.0658
46.1857
142.349
51.4064
57.4374
46.068
44.6836
46.4732
53.046
44.2997
68.8897
44.3233
104.005
81.5203
49.7182
44.9259
73.9228
68.9152
50.0963
43.8852
53.0235
54.1068
43.8047
44.695
70.5128
69.346
79.7907
111.832
78.1296
44.5524
124.348
45.2992
46.5123
84.4842
47.1258
128.509
44.2219
44.0737
44.5952
46.2282
43.8242
50.1011
59.7653
56.814
55.8988
44.2372
54.9637
82.5987
44.7609
45.8929
59.3708
44.7697
49.2281
91.5763
44.6639
43.7219
44.2934
43.6993
45.9278
45.6222
50.134
89.5085
52.8311
59.6981
57.961
60.0758
50.3824
44.1409
49.8988
44.1645
44.0707
97.5544
47.6726
45.7558
51.3306
44.65
45.4641
48.5483
75.8199
154.392
61.9037
155.175
669.922
1243.98
48.2106
43.7481
44.6143
43.8535
50.4955
84.9197
67.4639
51.9069
71.3092
131.504
96.9353
43.9593
58.7018
933.12
508.728
45.2855
414.398
60.6481
58.5689
48.872
1099.84
1201.84
1010.76
43.7065
51.226
1260.77
1208.03
43.5973
43.7584
47.9563
68.503
56.4508
47.0989
46.4964
66.6305
56.6188
43.9877
66.9805
574.479
44.6847
57.584
45.5512
49.1985
44.9156
45.7955
46.5081
44.7596
48.891
99.8962
47.3655
118.165
65.2505
54.8068
53.1905
45.7243
47.6519
44.5343
47.2288
47.5979
86.1261
78.139
45.2661
57.9305
62.5042
144.335
50.0219
56.9166
53.119
1137.85
45.747
77.3721
61.7797
56.575
81.7204
74.6168
44.4669
51.6227
65.2107
47.475
60.1855
46.2692
83.0491
63.1685
67.8244
240.437
49.5442
78.973
90.1673
44.6449
47.5019
45.3538
53.2448
255.46
90.221
46.7836
47.3713
74.8192
140.991
77.1292
45.9559
45.5496
49.1524
44.2462
61.9548
51.2127
61.2505
76.4278
50.1605
61.9273
55.9386
61.7205
51.673
64.5437
112.133
466.927
54.2119
62.2306
58.1051
44.9071
45.7695
57.5091
143.255
75.9822
48.5261
47.1996
58.2516
49.2541
50.8008
59.0108
44.9334
45.4837
48.731
50.2239
60.0776
173.83
57.2374
53.836
49.8529
52.2459
46.9435
49.3561
44.9368
45.8801
45.5793
44.6481
44.6477
44.9684
50.5122
45.4037
45.1639
49.9422
45.9923
45.4192
80.6415
933.089
47.6662
45.8762
57.5455
47.2984
45.4833
928.176
55.6506
917.164
45.2263
46.1823
67.7101
70.5183
56.3088
82.8261
76.5914
69.8012
53.0875
65.5661
45.4796
46.6972
102.948
66.7183
49.2661
48.6416
70.9984
44.8914
45.7425
105.305
47.361
44.3612
46.1793
46.7553
46.4892
45.4135
45.5441
44.6961
54.5482
45.732
44.6206
45.094
44.5168
45.2257
43.5533
45.3852
44.7169
48.1788
54.1539
81.0605
56.4222
55.6526
73.5725
46.7692
43.7314
71.7572
44.7665
44.6407
56.783
48.4187
386.643
54.959
55.2973
55.3431
49.2068
183.212
206.035
142.744
96.71
53.1696
116.763
50.5746
45.1019
92.8319
47.9204
244.684
46.0552
46.337
103.768
54.6375
46.0315
70.6581
44.0687
49.773
99.7793
52.7305
51.12
48.5254
44.1946
44.8094
389.332
51.561
50.7273
43.9166
50.5315
44.0812
109.497
49.3609
44.1915
50.8094
45.2539
185.332
65.9737
55.9096
56.9863
1389.41
243.891
46.2083
50.603
55.7873
44.4841
60.2151
63.3949
52.4683
44.5328
45.9246
54.1842
56.5349
57.5495
71.4633
50.1604
47.3141
53.156
52.7279
44.9128
64.8151
71.6254
82.1195
45.7407
44.4655
88.3544
44.5656
45.7888
46.5963
178.275
1439.09
45.6907
56.3024
43.4437
57.0514
48.8156
50.642
45.1266
172.986
58.6584
98.3889
1341.26
60.1561
80.2826
647.463
1296.12
255.215
196.649
77.3308
401.803
44.9018
48.7177
43.8007
45.4766
44.6645
204.073
44.229
49.0854
50.1018
48.0427
47.1754
45.8249
44.8069
58.6583
44.4773
44.5643
63.806
47.08
540.16
72.8397
550.324
71.2487
154.41
55.0497
83.1661
60.8577
1141.4
58.1419
81.1689
213.763
808.707
251.622
414.236
312.991
57.6072
261.126
53.1748
883.824
158.019
64.6411
63.6381
56.3629
65.5714
114.417
53.4492
411.581
50.387
64.8085
58.7483
141.03
80.4381
225.662
83.7389
883.476
589.087
177.543
83.4099
53.1415
53.5535
96.226
53.2394
49.0383
45.9459
50.7383
57.3478
45.5036
86.8749
146.797
91.6241
48.9631
76.8199
46.3213
52.0584
45.2903
52.8568
47.4139
53.0004
132.931
526.141
237.298
78.0722
99.9567
273.888
84.4528
193.118
46.3534
57.4076
45.8435
99.7532
92.1663
45.9157
44.4659
47.5174
44.8554
51.5221
73.0702
50.3717
52.5865
56.3459
43.8653
62.9529
45.0263
52.2837
49.7149
67.402
136.776
74.4538
120.456
45.3681
119.914
101.72
76.9065
58.5367
45.366
44.9307
82.4273
60.6478
53.6272
49.1284
50.5983
137.511
114.705
92.8795
122.513
157.64
126.327
82.1381
69.9935
46.0122
45.556
54.0183
55.8899
76.5636
48.1125
45.3362
76.5736
64.3981
120.162
55.6846
104.13
71.8333
79.8744
123.279
117.044
51.389
49.8266
76.9176
97.8878
75.105
73.0445
62.3625
60.2425
78.0114
71.2542
45.4242
53.5773
50.0512
48.6812
46.534
62.5903
86.818
65.6825
94.62
45.0636
53.622
67.1508
64.5056
58.3719
56.8458
90.5826
57.7333
56.5152
51.2139
58.8022
49.6742
48.2542
46.34
1022.56
372.5
924.119
931.695
44.8648
99.303
95.6981
55.5195
99.2615
94.4891
97.461
72.1422
52.1862
50.0952
52.0931
85.8257
49.3923
102.411
56.2969
48.3571
57.964
61.4714
99.5819
58.8704
49.1161
87.01
53.5417
52.2681
56.2791
62.9037
46.2142
46.4602
138.239
46.5214
44.9368
68.1493
177.978
85.3711
106.103
626.798
48.057
73.318
230.643
810.18
214.185
206.369
198.854
1388
334.676
481.371
89.2719
58.5599
45.9203
46.9845
47.4477
1068.19
44.6278
45.8761
1166.44
44.6755
1241.64
81.888
48.3867
44.346
44.6448
47.2524
46.9369
44.9435
44.008
44.4287
44.2095
46.5116
44.3683
44.0681
53.6364
49.5253
50.2484
57.4456
58.0351
58.2928
43.9484
47.9456
45.5711
86.6248
98.4909
46.2719
44.414
45.6951
45.2505
49.7746
45.6124
133.659
44.7035
43.9169
43.6253
55.2782
91.3618
46.4619
78.4457
115.016
76.7287
51.2858
50.0176
43.909
43.8959
44.3276
46.6795
47.2735
45.0629
47.9241
47.9901
44.7586
44.0119
45.1556
44.8947
45.3371
46.2227
45.8262
51.7556
47.7971
48.6536
44.1506
51.6716
46.1274
47.2699
44.1502
52.2146
125.862
43.4778
46.9765
56.7591
642.619
99.855
57.8306
123.365
51.2978
73.5893
44.025
56.944
45.5058
46.8766
45.2841
44.3273
56.7623
46.0406
45.2969
127.633
48.8028
56.1529
46.1095
45.87
45.8794
47.5722
46.8661
96.2268
102.093
88.2076
125.803
50.0272
44.5055
55.7347
635.479
124.986
47.0709
45.9407
47.8195
103.037
90.8536
44.7145
1091.49
70.3534
46.1029
46.3976
45.0514
45.394
45.2744
48.3007
49.1748
98.8018
1176.47
44.7124
877.297
55.1914
44.8646
55.3393
70.6309
45.2142
53.6729
80.3657
51.6997
44.4732
1312.24
45.9683
46.3337
45.3652
70.9942
49.9247
81.6509
1252.92
569.718
898.836
214.656
259.459
1076.2
150.211
46.4177
44.2907
609.045
44.4129
90.0096
71.3588
62.1996
98.7474
97.2768
62.4373
46.1488
45.1884
44.9696
52.2686
76.5705
90.2006
52.0716
53.1407
45.6064
47.837
94.5912
47.1136
44.9607
133.374
60.3762
74.2848
44.2236
48.5937
45.9273
51.938
45.7497
45.6175
49.1514
85.9063
56.0679
45.7467
46.1702
58.0715
113.292
95.1504
97.5189
48.7164
44.4266
46.1153
58.0943
43.8363
44.3027
54.7883
48.476
44.206
924.902
55.709
45.051
57.5628
70.9679
76.3737
57.9619
50.0619
45.9554
48.5581
47.6861
46.4199
59.465
53.8364
45.7554
54.4013
75.2356
120.319
454.502
56.0851
51.8995
50.7279
63.1877
45.9104
49.9435
45.973
79.0695
45.8307
164.206
50.4093
48.4861
123.64
106.315
1259.76
1233.86
450.276
45.1919
83.0744
60.7362
51.7614
48.534
49.1289
46.2957
58.4018
61.7263
91.135
56.5868
52.087
97.2232
71.8316
50.3662
72.6167
61.0359
117.857
1466.38
58.4024
47.5316
48.4018
63.4132
273.638
52.7076
55.2804
85.172
59.1919
55.9701
49.7279
351.731
46.595
46.2553
46.2047
44.8208
45.4471
47.5297
44.6786
95.2646
48.6928
101.746
62.1744
82.4807
376.494
77.3802
47.4858
50.5001
48.7131
54.3802
44.6875
47.2328
50.4547
46.7338
45.4381
57.8632
44.991
95.6191
45.4929
44.5431
45.4741
47.2791
44.6665
46.4274
49.9736
60.2762
49.3812
46.8407
45.1264
44.2927
44.7813
44.7532
44.8383
46.0617
45.0709
44.5185
48.9588
50.1294
44.3321
45.154
79.0892
44.6936
48.9148
47.8854
117.528
47.414
47.5353
46.0896
43.7534
69.6582
69.6598
45.3144
64.7978
53.7726
45.3502
44.6425
48.2713
47.6409
45.7885
46.8596
104.009
46.154
58.2372
45.6458
47.7056
46.309
48.2376
61.2849
303.184
46.7338
56.1247
44.6499
52.9739
56.0657
62.3735
44.1488
44.6209
50.6044
46.0554
46.2278
43.7396
45.8528
73.0878
1201.57
44.2731
52.0931
43.6238
43.9385
43.7674
44.814
43.6982
44.01
43.7746
100.427
53.2136
46.5132
46.3139
45.2319
45.5716
46.5556
47.3957
98.5855
57.6498
52.5985
54.6089
49.0081
60.9782
45.5017
45.6357
52.3052
44.2112
45.702
60.6012
51.434
46.4205
43.5624
1294.34
46.543
45.7116
1454.44
46.3785
54.1213
48.5279
289.739
48.2671
44.6664
98.5517
103.599
161.39
50.5875
743.425
1032.95
43.8322
49.6087
56.999
43.9253
46.337
186.765
50.954
48.6793
62.9975
57.937
1019
60.3119
76.3243
49.8092
49.5671
257.121
178.658
151.857
46.821
1148.55
309.304
281.764
346.444
204.62
162.808
46.4744
45.7794
46.3634
48.5581
44.7719
44.5058
44.3716
44.273
380.288
44.4925
54.8716
45.0103
44.5246
45.823
47.5646
45.8182
45.1316
45.0073
46.6558
43.8882
51.5474
44.9552
45.0423
45.4814
44.266
44.1717
44.3597
43.4586
45.804
50.0199
84.8314
43.5969
52.8066
68.9331
99.1961
46.8093
107.876
89.2845
80.0682
92.1432
46.4527
46.8231
45.6271
55.9881
63.5915
151.116
86.2774
46.5179
61.5321
197.14
615.949
621.092
452.642
55.8796
46.6956
49.6642
47.4412
45.4517
45.8106
1223.42
236.441
45.7808
46.0174
922.194
45.6094
72.0058
45.7247
44.6899
44.6077
44.967
46.0243
62.0534
54.234
56.7078
64.6988
58.8419
47.115
46.9418
59.4622
47.0624
47.004
49.024
54.0182
303.863
69.2697
260.005
47.459
50.8166
46.4894
46.7982
46.7488
46.274
45.6834
45.0088
45.4884
46.1538
46.2297
44.944
43.6074
43.8138
47.219
45.8969
45.8891
47.6734
44.5388
44.5334
56.9489
86.6879
96.1581
50.9698
77.1318
132.635
160.82
163.492
98.0378
88.8353
123.528
117.537
78.8813
46.2131
54.9023
97.5737
91.075
64.4245
57.8288
55.0512
54.9771
59.1155
61.4471
62.2827
61.1424
101.981
59.111
54.3914
56.9422
44.6099
119.562
48.2557
68.3354
133.245
58.7797
65.1957
59.3556
106.2
56.235
55.7706
86.1341
57.7734
52.8808
56.3982
55.455
55.83
125.689
119.919
49.3965
48.743
60.1714
56.829
55.0306
984.616
723.268
379.701
761.669
770.556
56.1645
58.0417
58.0299
635.32
51.6007
56.9054
45.5756
49.2706
45.3877
44.6402
64.3034
52.3173
45.2972
60.7816
48.9758
52.5957
49.6925
79.0965
44.8141
67.2873
105.053
94.7574
63.336
45.6992
50.5126
91.2659
85.85
60.2608
60.1505
46.7787
44.6559
47.9981
56.3945
43.9362
65.8629
68.0904
44.1921
53.4351
52.1571
113.898
76.7798
109.091
57.3005
45.9637
44.542
43.9342
49.2855
48.444
46.079
47.391
60.295
52.9362
49.7502
101.526
50.4611
71.9751
54.8449
1059.33
70.6487
65.7876
45.0689
57.4402
44.3482
43.9057
44.2148
63.1184
44.6094
1320.61
49.4059
51.954
45.1483
49.8951
97.6614
44.1778
50.7583
50.4742
45.1114
49.8208
91.8723
106.426
126.315
90.9024
54.0275
45.2876
47.3619
45.0582
53.2823
50.1215
49.85
73.044
70.7011
53.7938
51.5056
45.5865
49.9158
45.1128
44.2964
54.2296
46.1912
44.6204
48.0107
45.5109
44.391
44.2566
44.9038
44.4344
44.5082
46.0066
45.958
46.2962
48.3734
47.6232
43.4268
45.4268
54.742
84.7729
171.918
48.9257
50.7704
44.8722
46.3604
45.9142
44.4484
49.7385
49.3947
46.3967
45.2009
49.0689
116.29
57.3246
50.2159
49.4349
50.554
49.0894
43.6187
44.1048
51.7425
46.0438
44.1886
45.4058
56.991
98.3708
584.083
51.9442
1358.84
79.8997
45.2707
54.7656
45.3151
46.0112
44.5918
45.8117
46.3113
51.2777
56.572
67.9702
69.4895
55.094
52.9388
44.0981
46.1542
44.6329
121.776
103.122
44.204
49.0795
46.1309
44.4633
44.6212
46.104
49.1285
80.7617
54.8619
59.8911
55.6733
1406.36
49.6371
90.2052
83.1483
859.032
65.2506
689.324
46.5837
44.4857
43.8337
46.8866
62.3608
53.5453
46.6245
46.21
46.407
54.0919
46.2657
165.998
100.298
53.5795
47.6109
890.611
50.6888
765.021
66.2686
56.8831
110.263
89.4459
49.5257
45.4173
45.9104
44.8959
63.0705
70.3173
607.13
87.1072
72.0143
58.755
48.3417
86.188
64.9178
58.7821
99.3178
60.2796
49.7465
51.3478
46.0024
52.3589
48.1613
49.1009
122.923
63.487
45.5443
48.4609
48.2511
54.9679
45.0457
92.8434
49.9544
44.9464
58.5608
55.5869
47.4425
62.2455
66.3061
44.4119
55.6402
54.9818
52.4267
52.5692
44.6778
44.9312
72.4051
47.2675
68.5364
71.5183
44.1671
44.59
44.555
45.4969
45.6512
45.3433
46.1855
47.2558
99.8013
56.2693
53.3062
50.625
45.8767
96.6108
92.7477
52.0123
129.964
105.145
111.776
45.7054
110.567
62.5288
165.598
66.9713
50.5737
79.8875
102.107
77.4224
67.0212
128.591
118.736
117.206
45.631
46.5975
61.8397
44.1114
58.2322
60.0896
50.9716
60.4222
44.9949
45.6202
49.7367
46.0496
49.7713
45.7283
45.7931
45.704
44.2361
43.857
49.6194
49.8263
43.456
45.1984
47.2352
941.81
44.2106
47.2864
43.8682
43.8932
44.6825
46.1603
44.0786
48.4917
52.1784
45.0301
49.0637
45.6837
55.7154
183.297
54.7693
49.1892
92.0249
45.4612
44.2659
44.6981
51.7568
44.9142
45.5303
45.3793
44.5988
43.9353
44.0596
53.8824
46.4294
63.4894
49.0111
48.2498
45.73
47.3826
45.3453
47.2513
49.7683
48.8434
53.5079
48.8338
50.3559
59.0279
109.418
64.1718
61.1213
50.5564
122.903
43.8094
43.2964
73.0432
44.0035
44.9825
76.955
51.9733
48.2296
52.8784
55.9061
175.302
219.349
52.1605
95.0729
55.7174
58.6573
45.5281
45.5169
44.8179
61.9441
47.0625
238.621
982.32
935.088
46.897
163.063
46.3786
47.4745
48.9814
47.5185
56.2239
59.0622
52.6689
50.8628
49.1612
59.4018
50.058
46.3248
45.777
43.8302
46.2594
50.1607
45.777
45.6047
45.1895
44.2168
43.8973
44.0324
48.2605
43.8545
43.4241
43.5855
51.112
86.0278
48.3778
149.211
81.2713
53.4297
46.2522
1193.51
883.045
197.374
1107.03
81.7744
1287.53
139.406
43.9737