/*--------------------------------*- C++ -*----------------------------------*\
| =========                 |                                                 |
| \\      /  F ield         | OpenFOAM: The Open Source CFD Toolbox           |
|  \\    /   O peration     | Version:  2506                                  |
|   \\  /    A nd           | Website:  www.openfoam.com                      |
|    \\/     M anipulation  |                                                 |
\*---------------------------------------------------------------------------*/
FoamFile
{
    version     2.0;
    format      ascii;
    arch        "LSB;label=32;scalar=64";
    class       surfaceScalarField;
    location    "0.0563527";
    object      phi;
}
// * * * * * * * * * * * * * * * * * * * * * * * * * * * * * * * * * * * * * //

dimensions      [0 3 -1 0 0 0 0];

oriented        oriented;

internalField   nonuniform List<scalar> 
7516
(
0.0021827
-0.0665363
0.0643536
0.00418256
-0.00924105
0.00511813
-5.96463e-05
-0.015089
-0.00470734
0.0105393
0.00925705
-0.0289483
-0.00321225
0.0103346
0.021826
0.000384989
-0.000686212
-0.000585111
0.000886334
0.040632
-0.0434818
0.00284973
0.0259288
-0.00776274
0.0179541
-0.0361202
0.00543767
-0.0102076
0.00875594
-0.003986
0.000491051
0.000554343
0.00950989
-0.0105553
0.00239153
-0.0016393
-0.00120876
0.000456523
0.00537037
-0.00163973
-0.00478262
0.00105197
-0.000315872
-0.00452045
0.010274
-0.00507136
-0.0032446
0.0177318
-0.0506476
0.0259196
0.0739052
-0.0491772
-0.0150805
-0.0135522
0.0135683
0.0150645
-0.013644
0.000459124
0.0265869
-0.0134021
-0.0169584
0.00754705
0.0245077
-0.0150964
-0.000545044
0.00296848
0.00360649
-0.00602993
0.048273
-0.0341289
-0.000845023
-0.0132991
0.0296444
-0.0155398
0.0240016
-0.0381061
-0.00140883
0.000164073
0.00156925
-0.000324493
-0.00153894
-0.00158583
-0.00106112
0.0585945
-0.000815391
-0.0577791
-0.0362474
-0.000357426
-0.00796645
-0.0013929
0.00167395
-0.000118152
-0.000162908
0.00110037
-0.00860594
0.0108259
-0.00332034
-0.00374556
0.0201838
-0.0315188
0.0292733
-0.0609949
-0.0178823
0.0496039
-0.00143537
-0.000595192
0.0004528
0.00157776
0.00889537
-0.030919
0.0139017
-0.000341816
0.000783941
0.0010154
-0.00145752
-4.95919e-05
0.0001109
0.00127692
-0.00133822
-0.0342535
-0.00495748
0.0383389
0.000872028
-0.000507887
0.001769
-0.00317071
0.0019096
0.0220353
-0.0218932
-0.0107337
-0.0032395
0.00488664
0.00908659
0.000147331
-0.00363824
0.0028515
0.00063941
-0.00879928
0.0173033
-0.0125465
0.00404247
0.00295888
-0.0035082
0.0068531
-0.00630378
-0.00346085
0.00276177
0.000846415
0.000341865
-0.00743624
0.000723605
0.00637077
-0.000562638
0.00726763
-0.00692039
0.000215391
-0.000988647
0.000160244
0.00681461
-0.00598621
-0.0019019
0.00214364
-0.00178068
-0.0432337
0.00334113
-0.00684439
0.0467369
-0.0384181
0.0220722
0.0126004
-0.0918821
-0.00659631
0.0984784
0.00274755
-0.00181226
-0.00109423
-0.00174613
0.036395
-0.0452482
0.0105993
0.0022164
0.00211835
-0.00817826
0.00384351
0.0361368
-0.00434204
-0.0135676
-0.0182271
-0.000556615
-0.00488388
-0.00233499
0.00483278
-0.00540641
0.00255307
-0.00197944
0.0767453
0.0940716
-0.0671274
-0.004097
-0.00079844
0.00470858
0.00018686
-0.019381
-0.0113359
0.0333077
-0.00259082
0.0514946
-0.0516927
0.000198114
0.00340085
-0.000604581
-0.0050496
0.00225334
0.0473331
0.000229593
0.0023222
0.00027551
0.000597908
-0.00319562
0.0103081
-0.0445847
0.00667372
0.0276029
-0.00017834
0.0566548
-0.0564765
0.0343521
0.0146976
-0.00800971
-0.04104
0.0364037
-0.038554
0.00107746
0.0010729
0.00971962
-0.0216982
0.0108571
0.00112153
0.000112553
-0.00285068
0.00130275
-0.00229756
0.00137426
0.00144026
-0.000516946
0.000153628
0.0495281
-0.0496817
0.00136221
0.00378367
0.000120647
-0.00526653
0.00062352
0.000146007
-0.00489629
0.0580921
-0.00780194
-0.0502901
0.00264585
-0.00649191
0.00330101
0.00186582
0.00275261
-0.00295764
0.000203344
0.00934308
-0.0120594
0.00251301
-0.00574245
0.00302803
0.00290771
-0.000193291
0.00798179
-0.0214521
0.0164028
-0.0029325
0.00313342
-0.00338712
-0.00393608
0.00418978
0.0355523
-0.00504795
0.00574391
-0.0362482
-0.00331711
0.00322656
-0.0151462
0.0152367
-0.00362115
0.00173222
-0.000408641
7.82887e-05
-0.00110875
0.00416388
-0.00888114
-0.000759291
0.0099992
-0.00035877
0.00608092
0.00610399
-0.0268763
0.0146914
0.00521219
-0.0128466
0.00361009
-0.00636299
0.00138239
0.0020635
0.0029171
-0.0728666
0.0724987
0.00036792
-0.00317067
-0.0869736
0.0172777
-0.000245751
0.000743293
-0.00388466
0.0582051
-0.0583844
0.000179303
0.000434637
-0.0280238
0.0857943
0.000910252
-0.00363009
-0.000375344
0.00309519
-0.00313261
0.00307842
0.00270004
-0.000518394
0.00122358
0.00168634
-0.0021392
0.0040771
0.000474459
-0.00241236
-0.00935116
-0.00385423
0.0086277
-0.00358031
0.0111016
0.00337828
-0.0108996
-0.0340071
0.066751
-0.049477
0.0167331
-0.0146112
-0.000977328
0.00838058
-0.057481
0.0171252
0.0455827
-0.00522693
0.0210001
-0.089616
0.0453769
0.023239
-0.00107862
0.00901906
-0.00750857
-0.000431865
-0.00419426
0.0111934
0.0136294
-0.0206285
-0.00622183
0.00126549
0.00744597
-0.00248963
-0.0212658
-0.000157468
0.0120721
-0.00227509
0.0402884
-0.00246098
-0.00502443
0.0095246
-0.000440629
-0.00405954
-0.00541157
0.00534818
-0.000925255
0.00657155
-0.00454422
-0.000325286
-0.00170205
0.000101114
0.00174327
-0.00161758
-0.00259049
0.0113661
-0.00809972
-0.000675851
-0.00194086
-0.00123844
0.00247202
0.00070728
-0.0133807
-0.00883158
0.0104642
0.0117481
0.0012388
-0.0183546
0.00314767
0.0139682
0.00266345
-0.000320852
-0.000707548
-0.00163505
0.00201934
-0.000585045
0.0128389
-0.00386457
-0.00734423
0.0170917
-0.00963719
-0.021659
0.0543144
-0.0543656
5.11782e-05
-0.0259432
0.0959318
-0.0156742
-0.00219943
0.00272518
0.000384505
-0.000339245
0.00213958
-0.00192626
0.000125924
-0.0518479
0.0514979
0.000349959
-0.046201
0.0602653
0.0152091
-0.0746721
0.0107145
0.0121097
0.0637813
-0.0287923
0.0137819
-0.0487709
-0.00157
-0.000204755
-0.000107729
0.00188248
0.0509892
-0.00168139
-0.0493078
-0.000163429
0.0007355
-0.00214207
0.00156625
0.000579694
-0.00230937
0.00167665
-0.00168253
-0.000628114
0.000633997
-0.00254637
0.00249452
0.00162978
-0.00157792
0.00198149
-0.00348305
-0.000439294
0.00136669
-0.00210784
-0.00180523
-0.00280717
0.0016092
-0.00132139
0.00251936
0.0619785
-0.0620963
0.000117823
-0.00647083
-0.00958625
0.0780356
-0.00887606
-0.0479663
-0.00422955
0.0610719
-0.0554145
0.0568466
-0.00063318
0.0866372
0.0185724
-0.0714296
-0.03378
0.00149637
-0.00122693
-0.00169752
0.00142807
0.0483082
-0.0677215
-0.00850168
0.027915
4.78413e-05
-0.00732983
-0.00335202
0.00119616
-0.00146529
-0.0520754
0.000190011
0.0518854
0.0511754
-0.0496597
0.00222096
-0.0018785
0.0422011
-0.0094521
0.0960032
-0.128752
0.00478814
0.000901948
0.000189517
0.00185178
-0.00294325
0.0316758
-0.066179
-0.0264917
0.00207076
0.00424755
-0.00402382
-0.00229449
-0.0139381
0.00211105
0.0103444
0.0014826
0.0439873
0.0129219
-0.0806041
0.0236949
0.000149044
0.0438383
-0.00186195
0.00590899
0.00337427
-0.00742131
0.0166736
-0.0208655
-0.0151891
-0.00172737
0.000361165
0.00290037
-0.00153417
-0.00133587
0.00187619
-0.00226769
0.00260391
0.000625707
-0.00158546
-0.00164416
-0.0124051
0.00926369
0.0101372
-0.00699584
0.0146828
-0.00164638
-0.0118367
-0.00119972
0.00767065
0.00105159
-0.00859015
-0.00013209
0.00414649
-0.00476071
0.00413473
-0.00352051
0.0079009
6.80259e-05
0.00671389
-0.000749779
0.00303427
-0.00175812
-0.000382588
-0.000903077
-0.00382619
-0.00149544
-6.43655e-05
0.00538599
0.00464104
0.00040711
-0.00109047
-0.00395769
0.00156654
0.000903405
0.00243404
-0.00490398
-0.00423385
0.00197421
-0.0157965
0.00597565
-0.024244
0.0340648
0.0329308
-0.0390006
-0.0178829
0.0239528
-0.0195057
0.0133191
-0.00677324
0.0129598
-0.0184261
0.00993453
-0.00730487
-0.00801845
-0.000690862
-0.00971682
-0.0391488
0.0575917
-0.00737038
-0.0110725
-0.038339
0.019232
-0.000398736
-0.0245605
-0.00895073
0.0124042
0.021107
0.0134668
-0.018875
0.0526828
0.0267472
0.000995883
0.0525045
0.004902
0.00695414
-0.00418548
0.00176497
0.00158588
-0.0032383
0.0125344
-0.00587173
-0.000668211
-0.00599445
0.0302174
0.00701289
0.0104613
-0.0476916
0.0412708
-0.0247489
0.019919
-0.0364409
0.0300747
-0.0495102
-0.0197133
-0.0109926
-0.0289354
-0.003214
0.0431421
0.000862273
-4.89109e-05
-0.000813363
-0.0305799
0.00123899
0.0071423
0.0221986
0.0178837
0.0216319
-0.0178539
-0.0216617
0.00131439
0.00162842
-0.0034507
-0.010483
0.0297078
-0.00811662
-0.00594014
0.00513959
0.000580799
-0.00963922
-0.0215214
-0.00279032
-0.00256348
0.0147318
-0.00937802
-0.06776
0.0781134
-0.0168242
0.000338961
0.0045617
-0.00427715
-0.00254883
0.0184179
-0.00242817
-0.0134409
-0.00841354
0.00518437
0.00149522
0.00173395
-0.049968
0.0561019
0.0241315
-0.0302655
0.00240356
0.00398207
-0.00287024
-0.0035154
-0.0188151
-0.0500017
-0.0207528
-0.00498318
0.0292614
-0.0499061
0.0418059
0.00305226
-0.0299867
0.00503228
0.00139605
0.000195104
-0.00366961
0.00207846
0.00543225
-0.00443356
-0.000659727
0.0460375
-0.0625076
0.0083723
0.00809776
-6.55802e-05
-0.000157776
-0.0135732
-0.0114738
0.0252048
-0.0037711
0.00339317
0.00166628
-0.00128834
0.0014343
-0.00120474
-0.00400067
-0.00500946
-0.00180006
-0.00759299
0.0144025
-0.0720692
0.0569269
-0.0767274
0.0918698
0.000661082
-0.00107516
0.00255614
-0.00214206
-0.0023652
0.0232496
-0.0101362
-0.000788127
-0.00267458
0.00484153
-0.00137882
0.00469338
0.0132498
-0.0170095
0.0347038
-0.0453427
0.00932175
0.00131715
-0.00169626
0.00242399
-0.000838112
0.000110385
0.00298094
0.00295005
0.00224355
-0.00817453
-0.00301632
-0.00879435
0.000483892
0.0113268
-0.000123966
-0.00215789
0.00181026
0.000471597
-0.0113611
-0.00336184
0.00684484
0.00787813
9.23726e-05
6.00894e-05
-0.00137239
0.00121993
0.00010595
-0.00227583
0.000745029
0.00142485
-0.00033755
0.00167971
-0.00020515
-0.00113701
0.00317889
-0.00102675
0.000451774
0.00149591
-0.00174108
0.000846177
-0.00170067
0.000512679
-0.000780893
0.00111051
-0.00139845
0.00106884
0.000699331
-0.00117777
0.000478435
0.0020261
-0.00909251
-0.0018937
0.00896012
0.00699275
0.0132469
-0.0169388
-0.00330081
0.00137867
-0.00900991
0.00797311
0.00776479
0.000106614
0.000773511
-0.00864491
0.000601303
0.00117302
0.00197085
-0.00374518
0.00461753
5.24521e-05
-0.00680918
0.00094378
0.000409342
-0.00323153
0.00187841
-0.00170382
0.000642906
-0.000273916
0.00178377
-0.00213451
1.14923e-05
-0.00826314
0.0061902
-0.00178673
0.00478929
-0.0018319
-0.00220123
-0.0263119
0.00685708
-0.0152031
0.034658
-0.00545852
-0.00547437
0.00378692
0.00714598
-0.0243448
0.024463
-0.00516225
0.00504405
-0.00188787
0.0151051
-0.000378348
-0.0108658
0.0190286
-0.00539471
0.0056174
-0.0126277
0.00769442
-0.000684149
-0.00156482
0.00231875
-0.000488417
-0.000667655
0.00409875
-0.00294268
-0.04425
0.044399
-0.00274045
-0.0158315
0.0190039
-0.000431936
-0.00585854
-5.62981e-05
-0.00152141
-0.00202551
0.00149424
0.000937189
0.000725602
-0.00197903
0.00200419
-0.0106486
0.00723602
-0.0444287
-0.00216735
-0.055009
-0.0018399
0.000830132
0.00249415
-0.00148438
0.00253197
0.00188522
-0.0719729
0.0700877
0.00617321
-0.0232707
0.00350254
0.013595
-0.00151417
0.00468672
-0.00212544
-0.00229478
0.00474147
-0.00165611
-0.000790573
0.0121114
0.0070793
-0.0326862
0.0134955
-0.000898971
0.00172511
-0.00157592
-0.00311256
-0.000921432
0.00218962
0.00184437
-0.00290895
-0.0358737
0.0122965
-0.00635201
-0.00528258
0.00428406
0.00735053
0.00228599
0.00199777
-0.00291367
-0.00137009
-0.000674368
0.00128711
0.00081056
-0.0014233
0.00224625
-0.00277176
-0.00158574
0.00378652
-0.000151098
-0.00204968
-0.00171455
0.0001929
0.00147206
-0.00474503
-0.000175635
-0.0472256
0.00666977
0.0407314
-0.00277074
0.00846838
-0.0042947
-0.00140294
0.00453793
-0.0157794
0.0695217
0.0103343
-0.0497813
8.05248e-05
0.000101575
0.00213036
-0.00231246
-0.0022083
0.00494653
0.0053406
-0.00807883
-0.000103016
-0.000233234
0.0012861
0.000304599
-0.000237649
0.000195136
-0.000262086
0.00110078
-0.000687574
-0.00164489
0.00123168
-0.0131373
0.00980067
0.00325963
7.69865e-05
-0.0514362
0.0600039
-0.0036183
-0.00494946
-0.00484504
0.0101962
-0.00901841
0.00366725
0.0180073
-0.00421381
0.0106771
0.00201023
-0.0144142
0.00172691
-0.0145956
-0.0020151
0.00247564
7.99231e-06
0.041148
0.00757153
0.000903262
-0.0496228
0.00158188
-0.00219509
0.000917084
-0.000303883
0.00114132
0.00113057
0.000397208
-0.0026691
-0.00881541
-0.0011973
0.00286737
-0.000150564
-0.00207661
0.00203084
0.000196327
0.000461715
-0.0056096
0.00274783
0.00240005
-0.000498534
0.000993999
-0.000356661
-0.000138804
0.00782423
-0.0114664
-0.0445764
0.0482186
0.00861184
-0.000353043
-0.00945138
0.00119259
-0.00350979
0.000902254
-0.00148755
0.00409509
-0.0044251
-0.00208053
-0.0017486
0.0487426
-0.0355
0.000974784
-0.0142173
0.0117848
0.0167034
0.00853321
-0.0370214
0.00131778
-0.00116508
0.00220195
-0.00235465
0.000237081
0.000725568
0.00251815
-0.0034808
0.067115
-0.0332645
-0.0597937
-0.00495489
0.00387682
0.00131515
0.00378081
0.00131795
-0.00437319
-0.000304425
-0.0394118
0.0396872
2.90309e-05
0.00225821
0.00157601
-0.00122499
-0.00260923
-0.0163679
0.00810446
-0.00082532
0.000137943
0.000844312
-0.000156935
-0.0115006
0.00196903
0.00567735
-0.0161796
0.00699294
-0.00395066
-0.0210783
-0.0131108
-0.00462276
-0.00482733
0.00145444
-0.00913214
-0.0010732
-0.00715963
0.00270563
0.00552719
-0.00239876
0.00286064
0.000234401
-0.000696287
-0.000768162
0.000111621
0.000247316
0.000409225
-0.00246198
-0.00101922
0.00588477
0.000362454
-0.00837097
0.00612153
0.00188699
0.00863261
0.00256524
-0.0108354
0.024666
0.034538
-0.0339397
-0.0252642
-0.00165011
0.00725876
-0.0197885
0.0141799
-0.0105373
-0.00188163
0.0107726
0.0120559
0.00412421
-0.0170738
0.000893675
-0.0464993
0.0466721
-0.000172827
0.00590273
-0.0362352
-0.00301248
0.0333449
-0.00110011
0.00182055
-0.00192724
0.00120679
0.00329166
0.000539691
0.00125191
0.0165879
-0.00148257
-0.0163573
0.00746068
-0.00161774
-0.0112499
0.00540696
-0.0480517
0.0474185
-0.00874036
-0.00521707
-0.00828404
0.0222415
-0.000811001
0.00334271
0.00096306
-0.00349476
0.00738928
0.00726216
-0.024706
-0.000806109
0.00422102
-0.00102689
-0.00238802
0.00310549
-0.000581092
0.000637248
-0.00316165
-0.00296743
0.00642109
0.00400702
-0.00473462
-0.0018471
0.00327499
0.00330674
-0.00619916
0.0155928
-0.0304719
-0.013088
0.000431161
0.0137084
-0.0105869
-0.00910346
0.0113193
-0.00848828
0.00268446
0.00696395
-0.0041486
0.00697515
-0.00314242
0.00931094
-0.0134771
0.00641447
-0.00224827
0.00222215
0.00217043
-0.00348918
0.0135079
0.00279583
-0.00634085
0.0427445
-0.0133944
-0.0299387
-0.00657298
-0.0397308
0.0434616
-0.000363279
-0.000156782
0.000143768
0.000376293
-0.000583242
0.00144508
0.000977882
-0.00183972
0.000261058
-0.00120115
0.000171925
-0.0620844
0.060364
-0.00839122
0.0101116
-0.00888886
-0.00147522
0.00490555
0.00485901
-0.00732398
-0.00642389
0.00516755
-0.00113703
0.00412576
-0.00815628
0.00169113
-0.00111791
-0.00863591
0.00806269
-0.00602578
0.0136431
-0.00580877
-0.00180858
-0.00260354
0.000921538
0.00344698
0.00698631
0.00129842
-0.0157672
0.00748248
0.0133829
-0.0122602
0.00586362
-0.00566826
-0.0461203
-0.0102074
-0.00105149
0.00767859
0.0161543
0.0125634
0.0219508
-0.0506685
0.0249513
-0.0520971
0.00297008
0.0241757
0.0034122
0.00963917
0.00226549
-0.0153169
0.00193453
-0.00376604
0.0113319
-0.00950035
0.0193482
-0.0150613
0.0135041
0.00244565
-0.000888509
-0.0328479
-0.00479884
0.00978643
0.0242282
-0.00503375
-0.0289809
0.0430987
-0.00184014
-0.0428647
0.00160607
-0.00292152
-0.0595471
0.0624687
-0.0123859
0.00398558
0.0525168
-0.0441165
-0.0457744
-0.00267149
0.0455244
-0.00237783
0.0212779
-0.00233497
-0.0165651
0.00340185
-0.0195204
-0.0167293
-0.00360711
0.0217987
-0.0205694
0.00360868
-0.00210752
-0.000875459
0.00584331
-0.00522715
0.0108105
-0.0114267
-0.0029854
0.00313188
-0.00167589
0.00888783
-3.47536e-05
-0.00717718
-0.00104241
0.00186532
0.000217599
-0.0010405
-0.0382165
0.00658549
0.098746
-0.0119051
0.0064474
0.00507517
0.00038255
-0.000846295
-0.00321662
0.00303356
0.00102935
-0.0133897
0.00115026
0.00115904
0.0110804
-0.0013724
-0.00223775
0.0091479
0.00638359
-0.00519439
-0.0103371
0.000918519
0.00150963
0.00574846
-0.00514065
0.00379143
-0.00439924
8.9915e-05
4.3995e-05
-0.00013391
-0.00209313
-0.000624517
0.000928655
0.00178899
-0.00724015
0.00206875
-0.00876668
-0.000849296
0.00356396
0.0174692
-0.000415542
0.000797326
-0.00202108
0.0110439
-0.000580352
-0.00626672
-0.00419679
0.0129459
-0.0160424
0.00917746
0.00529966
-0.00788375
-0.00327445
0.00264041
0.00277278
-0.00455523
-0.000857965
0.0342034
-0.0479279
-0.0259744
0.0396989
-0.00530626
-0.0217049
0.00739363
0.0196175
-0.00128841
-6.33484e-05
-0.00114267
0.00249443
-0.0131429
0.0115214
-0.00121474
0.00476079
-0.00691054
-0.000954548
0.0031043
-0.00984585
-0.000776784
-0.00346538
0.014088
-0.00298463
0.00308719
7.41387e-05
0.0112426
-0.0116116
-0.00419059
0.00106149
-0.0107514
0.00443482
0.00525512
-0.0537448
0.0957974
-0.000108858
0.000314932
0.000526081
-0.000732154
-0.0164289
-0.00295475
0.0163673
-0.00944248
0.00066548
-0.00461267
0.0118477
-0.00852301
-0.00350789
0.000183195
-0.017587
0.00337471
-0.000487411
0.0146997
-0.0014946
0.00722902
-0.0105795
-0.00083941
0.00399958
0.00118756
0.00338611
-0.00857324
0.0328487
-0.0140155
-0.0336047
0.0147715
-0.010802
-0.0152457
-0.00563189
-0.00458693
0.0030707
0.0113169
0.000783295
-0.00095136
-0.00235735
0.00252542
-0.00258628
0.000351488
-0.0136147
0.0158495
0.00277928
-0.00125452
-0.0010503
-0.00217338
0.00360355
-0.011272
-0.00177401
-0.0217431
-0.0315365
-0.0577166
0.00159226
0.0561244
0.0110988
-0.0110794
-0.00502891
0.0330284
0.00258665
0.00674586
-0.0423609
-0.00532401
0.00303314
-0.00312069
-0.000411509
0.0016773
0.00399381
-0.0052596
0.0426656
0.0103585
-0.00453357
-0.0484905
0.0582118
-0.0985127
0.015552
0.0292811
-0.0231667
-0.0648583
0.0587439
0.0020145
-0.00517839
0.00969732
-0.00653343
0.0379359
0.044275
-0.0564072
-0.0258037
-0.0294286
0.0282482
0.0261317
-0.00543819
-0.00219563
0.00709843
0.00900308
-0.0120155
-0.004086
0.00670405
0.00441608
-0.0100586
-0.00191595
-0.00496255
0.00160947
-0.0229179
0.00696375
0.00203015
0.013924
0.0218627
-0.0521895
0.00858362
-0.00387729
0.0110293
-0.0201697
-0.00877833
-0.00241059
0.00236002
0.000996077
-0.00444243
-0.00266777
0.00516411
-0.00492749
-0.00456362
0.000785409
0.000645597
-0.00815541
0.00672396
-0.00115904
0.00633975
-0.0628702
0.00145924
1.08713e-05
-0.00035073
0.000321754
1.81043e-05
-0.00155842
0.00142119
-1.33333e-05
0.0030664
-0.000521657
-0.000298495
-0.00603104
0.0026138
0.00585128
-0.00194866
0.00118883
0.000421976
0.00033785
-0.00124038
-0.000944921
-0.000762762
0.00294806
0.0121029
-0.0197213
0.00711417
0.000504287
-0.000422792
0.000276353
-0.00553093
0.00580982
-0.00319121
0.00140692
-0.00402553
0.000798718
0.00171763
-0.0016082
-0.000908149
-0.00564647
0.0114402
-0.00775641
0.00196271
0.0123583
-0.00822055
-0.00303735
-0.0224607
0.0218371
-0.0132338
0.0138574
0.00383943
-0.00572052
0.00331045
-0.00142936
-1.24212e-06
-0.0595459
0.00671604
0.00325564
-0.0051693
-0.00480237
0.00177075
-0.00241809
-0.000466848
0.00111418
0.00285667
-0.00479582
-0.00301574
-0.0115097
-0.00161703
-0.000378556
-0.00149438
0.00107636
0.000796575
-0.00387041
0.00302001
0.00262541
-0.00177501
0.000856781
-0.00043142
-0.000581886
0.000156525
-0.0142912
0.00781623
0.0060566
0.000418407
-0.00163133
-0.0094374
-0.00322251
0.00365934
-0.000797773
-0.00153017
-0.00239832
-0.000505066
-0.00225544
-0.00145667
-0.00230511
0.000889936
-0.000840271
-0.00312867
0.000299599
-0.0360327
0.0086917
-0.0262699
0.0536109
-0.0854918
0.0445985
-0.0385861
0.0794793
-0.00293031
-0.000459654
-0.000480449
-0.0858092
0.0025001
-0.00644008
0.00361427
-0.0178932
0.020719
0.0043608
-0.0506553
0.0398544
-0.0557652
0.0515542
0.0085718
-0.002803
0.00172151
-0.00131727
-0.00381598
0.000484501
0.00106335
0.00226813
-6.55699e-06
-0.000698158
0.00148866
-0.00158954
0.00173841
0.000580943
-0.000729819
-0.00198783
0.00194219
0.00178892
0.041152
-0.0133867
-0.112974
0.0852086
-0.0818306
-0.058544
0.0662389
0.0741357
-0.0839015
0.00607068
0.00730484
0.070526
0.0118075
-0.054557
-0.000548072
5.22698e-05
-0.00149203
0.015418
-0.00244335
0.0281733
-0.000702762
-0.00299178
-0.00619635
-0.00123507
-0.000231681
-0.00266702
-0.000215098
0.00160753
0.00127459
-0.00415439
0.00706486
-0.0100945
0.00718401
0.00355621
-0.00991889
0.00503135
0.00936119
-0.00590669
-0.00848585
-0.00200092
-0.00032981
0.00736208
-0.0027947
0.00215081
0.00378714
-0.00314326
0.0128051
-0.088565
-0.00537505
0.00369583
-0.00258119
0.0042604
-0.00305492
0.00306542
-0.00205405
0.00104986
-0.00206124
-0.00750577
0.000171102
0.00908705
-0.0113759
0.00917978
-0.00689089
-0.00346955
-0.0193106
0.0183173
0.00446291
0.00150223
-0.00334651
0.00143565
0.00107792
0.00165853
-0.00123422
0.00251685
0.00059413
-0.00220903
0.00240315
0.00336415
0.00942391
0.0315451
0.00345797
-0.044427
0.00204773
-0.00640987
0.00085236
0.000547398
-0.00192685
0.00165548
0.000654658
0.0119042
-0.0160284
-0.000805711
0.00765196
-0.006686
0.000573762
0.00274521
0.000699053
-0.000662369
0.00182936
-0.00186605
-0.000183133
-0.00885947
0.000134365
-0.000385218
-0.00248581
-0.00139574
0.0110118
0.00142782
0.00110169
-0.00491739
0.00315776
0.000657932
-0.00332879
0.00294449
0.003043
0.00966033
0.0089715
0.00942065
-0.0139888
-0.00440336
0.00615478
0.00733142
-0.0045147
0.00685074
-0.00597832
0.00854824
0.0133754
-0.000369856
-0.00228479
0.00424966
0.00568709
0.00141726
0.0513713
-0.000586087
-0.0507852
-0.0139048
-0.00851028
-0.00492807
0.0273431
-0.0117205
0.0140579
-0.0162421
0.00189059
0.000151663
-0.0017816
-0.00026065
-0.007871
-0.000869049
0.0573142
-0.062036
-0.0148775
0.0195993
-0.0171134
0.0181859
-0.0106846
0.00961218
-0.0140384
0.000922102
-0.00900134
-0.00678606
0.000128381
0.000305663
0.00463257
-0.00781512
0.000514774
-0.00645027
0.0126867
-0.0152378
-0.010309
0.00516427
-0.00372159
0.00886636
-0.0118888
0.0167721
-0.00719433
0.00231105
-0.00485226
9.77335e-05
0.00243327
0.00232126
0.0119423
0.0260445
-0.0274008
-0.0105861
0.00660835
-0.00362587
0.000353994
-0.00333648
0.00404868
-0.00348664
0.00419875
0.00574203
-0.00768864
0.00767769
0.00362855
-0.0123794
-0.000208399
0.00240788
-0.0043115
0.00955161
0.00277495
-0.00801507
-0.00280032
0.00220671
-0.00180077
-0.00281182
0.000819836
0.0021319
-0.0115569
-0.0106441
0.0108829
4.08876e-05
0.000892639
-0.000897259
-3.62676e-05
0.00527711
0.00653804
-0.00559317
-0.00622198
0.00497195
0.000937329
0.00519232
-0.000511068
0.000833922
6.04354e-06
-0.000328897
-0.0153655
0.0161194
0.0113489
-0.00270878
-0.00977988
0.00919656
0.0032921
-0.00859996
-0.00300894
0.00413776
0.00747114
-0.0551613
0.0298231
-0.053023
0.0783612
0.005111
-0.00289162
-0.0110499
0.0088305
0.00927682
-0.013489
-0.0050848
0.00929694
-0.00184867
-0.0106188
0.00870142
0.0135853
-0.0129632
0.010055
0.0017403
0.0119698
-0.000124795
0.00246461
-0.00777339
-0.00395894
0.00926772
0.0119681
-0.00345524
0.00458886
-0.000201159
-0.0132835
0.00572392
-0.0138615
-0.00914837
-0.00375102
0.0101223
0.00277711
-0.00505215
0.00935814
-0.0134544
-0.00869083
-0.00464622
0.00144821
-0.0157892
0.0083761
0.00359863
0.00381445
0.00157476
-0.00274734
0.000130163
-0.00196625
0.00272106
-0.00156091
-0.00263029
0.00154882
-0.000489597
0.00157107
0.00242391
0.00117223
-0.000207325
0.00110754
-0.00135973
0.000459518
0.00210177
0.000414744
-0.00292375
0.0373114
-0.00330316
-0.0310845
0.0412974
-0.0383184
0.0087548
-0.00949136
0.00325506
-0.0025185
-0.0141548
0.0130997
-0.0143261
0.0153811
0.00723457
-0.0071707
0.00162067
-0.0310919
-0.00683208
0.0034815
0.0924503
-0.0382288
0.000824461
1.08533e-05
0.00034379
-0.0011791
-0.0014011
4.83165e-05
0.000571893
-0.000341822
0.00010345
0.00134888
0.00943786
-0.00732592
-0.00730102
0.00518908
-0.000685841
0.00493925
-0.0214009
0.00239158
-0.0021131
0.0110876
-0.000157215
0.00601729
-0.00770874
-0.00299391
0.00342487
0.00192905
0.0169439
0.0305048
-0.035444
-0.0120047
-0.0520415
0.0018791
0.0501624
0.0241594
-0.0686472
-0.00755375
-0.0364897
-0.00143535
-0.0636073
0.0773731
0.0284354
0.0148714
-0.065897
-0.0125818
0.0452754
-0.00190945
0.0733976
-0.0687767
0.0102506
-0.00042538
-0.00175339
0.00272617
0.00212117
0.00304003
0.000222193
-0.00268846
0.00412762
0.0290885
-0.0278792
0.00734744
0.0194877
-0.038332
0.0119376
-0.0238856
0.0143795
-0.00243148
-0.0189506
-0.00150997
0.0101516
0.0132825
-0.0106749
-0.00305348
0.000445814
-0.00888431
0.0152925
-0.0041183
-0.00228985
-0.0100181
-0.0225591
-0.00390972
0.0420123
-0.0155435
0.00299406
-0.00461424
-0.00323207
0.000570543
-0.00244271
-0.000873975
0.00300556
-0.00464567
0.000864709
0.00657427
-0.00741286
0.0199136
-0.019075
-0.00553228
0.0057825
-0.0114792
0.011229
0.0161765
-0.00162042
0.00902646
-0.000886769
0.000536872
0.00192466
4.5611e-05
-0.00292334
0.00199096
0.00323507
0.00774448
-0.00876315
0.00066939
0.00897883
-0.0110294
0.00138117
-0.00132577
-0.00279465
0.00179278
0.000681778
-0.00311837
0.00182592
0.000610672
0.00133473
-0.00145078
-0.000822026
0.00093808
-0.00305572
-0.000250365
0.00182938
0.00064314
-0.00092814
-0.00154438
-0.00274391
0.00306143
-0.00114732
0.000829794
0.00293296
-0.005544
-0.00258209
-0.00115034
0.00191938
-0.00339358
0.00121703
-0.00464469
0.00202811
0.00401262
-0.00168113
0.0026261
0.00698715
-0.00793213
-0.00161048
0.00178625
0.00643258
-0.00167737
-0.00617006
0.00259338
0.00525405
0.000988857
0.000487108
-0.00612066
-0.000184008
-0.00197168
0.000207023
-0.00146931
0.00149934
-0.000214039
0.00072578
-0.00214836
-0.0005491
-0.00297476
0.0251686
-0.0446545
-1.79232e-05
0.0061868
0.0459053
-0.0496648
-0.00242729
-0.00306197
0.00582996
-0.00698283
0.00421484
-0.00013491
-9.89316e-05
0.0059823
-0.000403339
-0.00505238
-0.00326197
0.00871769
0.00541773
-0.000994562
-0.0014547
0.00421179
-1.94062e-05
-0.0043273
0.0383925
-0.0506186
0.0124708
-0.000244832
0.00737762
-0.0244552
0.0079284
0.00914915
0.00949205
-0.00788052
0.00576609
-0.00173192
0.00168403
-0.00784799
0.00789588
-0.000209997
-0.00758658
0.00606465
0.00343542
-0.0129676
-0.00941845
0.016548
-0.0036205
0.00208673
0.000870153
-0.000886126
-0.0594664
0.0673655
-0.0462495
0.0383505
0.00390574
-0.00216585
0.000346836
-0.000348296
0.00146066
-0.00211032
0.000997951
-0.00106501
0.00228873
0.000757769
-0.00493019
0.00311094
-0.00169135
-0.00279077
-0.000448076
-0.0118552
-0.00154002
-0.000593567
0.00394172
0.0454447
-0.00714295
0.00268733
-0.0073996
-0.00794235
0.00718378
0.00311986
-0.0023613
0.00228423
-0.0499484
0.0476642
-0.0383685
0.0406527
0.00194744
0.00128128
-0.0011792
-0.00204953
-0.0565211
0.0650311
-0.0468784
-0.0390483
0.0454858
0.0102463
0.0274386
-0.0399689
-0.0082225
0.00378655
-0.00161405
0.00256897
-0.0161586
0.0108091
0.0273848
0.0151779
-0.0516109
0.00880554
0.0276274
0.00566633
-0.0477042
0.0258793
-0.0053118
-0.0224132
0.000722147
-0.0781953
0.0775421
0.070604
0.00379955
0.00181223
-0.0347499
0.00323788
-0.00595639
-0.0134466
0.0161651
-0.0737545
-0.0622442
0.0697981
0.0662007
-0.0500702
0.0388803
0.0140805
-0.00289061
0.000359081
0.00261644
-0.0527742
-0.00576972
0.019516
-0.0313641
-0.0100452
0.0285065
-0.00314043
0.0089861
0.0357354
-0.161445
0.0399004
0.00189896
0.00482538
-0.0102815
0.00355718
0.00682543
-0.0219913
0.00615008
0.00901582
0.0150011
-0.0104718
0.00496505
-0.00949435
0.0286079
0.0734582
-0.0728241
-0.0292419
0.000145183
-4.74014e-05
0.000748396
-0.0482058
0.0114059
-0.00293089
-0.00225661
-0.032409
0.0639467
-0.076051
0.0446833
-0.0237936
0.0329661
-0.0580671
-0.0192507
0.0443517
0.0201118
-0.0204857
-0.047832
0.00119346
0.0554614
0.025382
-0.00925628
0.0217733
-0.037899
0.041204
-0.0275489
-0.0488655
0.0352104
-0.0246293
0.0155212
-0.0370243
-0.0557034
0.049494
-0.00108869
0.016751
-0.0150422
-0.000620093
0.00339645
-0.00447341
0.000641327
0.000435634
-0.0387084
0.0495942
-0.0108858
0.0135534
-0.0128836
-0.0022098
0.0118004
-0.0277606
0.00682292
0.00917687
0.014308
-0.0303078
0.00915915
0.0104034
-0.0127397
-0.0165873
0.0107013
0.0150628
0.034691
-0.0182499
0.0724327
-0.0800156
-0.0289068
0.0104569
0.0937974
-0.0318216
-0.0373615
0.02042
0.00908304
0.00785847
-0.0229015
-0.00357965
0.0369381
0.058365
0.0244445
0.021431
-0.0197054
-0.0261702
0.00291358
-0.0373984
0.0403267
-0.00584188
-0.00985436
0.00905825
0.0123006
-0.0115044
0.00821233
-0.00719524
-0.00344075
-0.00249334
0.0102705
-0.00309527
-0.00468186
0.00619717
-0.0550638
0.0488667
0.00128203
-0.0329795
-0.0253361
0.056307
0.00200862
0.00999917
-0.000813274
-0.0119566
0.104562
-0.154185
0.0401714
-0.00711227
-0.0109038
-0.024176
0.0364719
0.0101828
0.0438797
-0.046491
0.0404834
0.0319916
-0.096651
-0.00201702
0.00199697
-0.00329889
0.00170332
-0.00232619
-0.114342
0.107746
0.00356595
-0.00686999
8.09518e-05
-0.00264622
-0.00317718
-0.000418044
-0.00186107
0.00202758
0.000251537
0.000352227
5.94334e-05
0.00126879
-0.00151511
0.000186888
-0.00303967
5.73168e-05
-0.000411231
0.00288147
-0.00545471
0.00303495
0.00244123
-0.00122396
-0.00607836
0.00978376
0.00425318
-0.014837
0.000800087
-0.00380117
0.000374592
-0.001856
-0.00165789
0.0531558
0.0105233
-0.00889109
-0.00181532
-0.0279609
0.0395131
-0.00372798
0.00101023
0.00230315
0.0498972
-0.0394471
0.000593654
-0.0110438
0.0138913
-0.00108557
-0.00130351
-0.0115022
-0.0302213
0.00372539
0.0281603
-0.00166446
0.0526784
-0.0503439
-0.0580997
-0.003165
0.00423284
0.0565239
-0.0424339
-0.0693591
0.0736314
-0.00427228
-0.00286704
0.0437165
-0.0527219
-0.00326994
-1.78482e-05
0.000805003
0.00248279
0.00265183
-0.0364608
0.00615909
0.0276499
-0.0232393
-0.0573393
-0.00679821
0.00215844
-0.0146709
0.00297183
-0.00661542
-0.0070286
-0.00163611
0.00393201
0.000732126
0.0043873
-0.00236667
-0.00193968
0.0102934
-0.0665788
0.0531147
-0.00361342
0.0011022
0.00141904
0.00109218
-0.00707572
-0.0055903
0.0110946
0.0015714
-0.0124629
0.00562588
0.0104994
-0.029814
-0.00298302
0.0222976
0.00318883
-0.000992007
0.0630829
0.00280292
-0.0658858
0.0257764
-0.0160913
0.000814338
0.0289316
0.00541716
0.00404381
-0.0105944
0.00259997
-0.00273964
-0.0055974