/*--------------------------------*- C++ -*----------------------------------*\
| =========                 |                                                 |
| \\      /  F ield         | OpenFOAM: The Open Source CFD Toolbox           |
|  \\    /   O peration     | Version:  2506                                  |
|   \\  /    A nd           | Website:  www.openfoam.com                      |
|    \\/     M anipulation  |                                                 |
\*---------------------------------------------------------------------------*/
FoamFile
{
    version     2.0;
    format      ascii;
    arch        "LSB;label=32;scalar=64";
    class       volVectorField;
    location    "0.0563527";
    object      U;
}
// * * * * * * * * * * * * * * * * * * * * * * * * * * * * * * * * * * * * * //

dimensions      [0 1 -1 0 0 0 0];

internalField   nonuniform List<vector> 
3972
(
(10.1085 -0.205868 -0.032039)
(9.13172 -1.15748 -0.0499088)
(10.8063 -0.305786 0.0249519)
(10.9125 -0.0993253 -0.0208785)
(1.79367 -4.25721 -5.80255)
(10.3343 -0.439359 0.0400512)
(11.0797 0.0788506 -0.0385187)
(9.02022 -1.16351 -0.719182)
(9.4826 -0.972142 -0.635081)
(9.31037 -3.05067 -1.2871)
(10.2456 -1.49777 -0.88547)
(8.76408 -1.27569 -0.633429)
(11.9007 0.267131 -0.275961)
(10.1657 -0.151021 -0.00868151)
(10.2177 -0.659384 0.15907)
(10.0672 -0.621675 0.00569398)
(10.4132 -0.442661 -0.0407976)
(11.1969 -1.28735 -0.110827)
(10.3577 -0.398972 0.0476133)
(10.509 -0.468809 0.0623273)
(6.83346 -1.13181 -0.300158)
(12.6317 -0.464268 0.316358)
(10.1685 -0.106449 0.0263279)
(10.8519 0.16678 0.0368997)
(11.8062 -5.39033 -2.14604)
(9.36755 -0.978839 0.0839945)
(10.2209 -0.535435 0.116323)
(10.0559 -0.21709 0.00687897)
(12.5745 -1.3296 -0.490378)
(9.71228 -0.428504 0.171867)
(11.3455 -1.662 0.451042)
(8.20799 -5.8202 0.125366)
(9.99356 -0.246232 -0.00934441)
(11.8155 -2.56661 -0.851312)
(9.66023 -0.551378 0.166296)
(10.1529 -0.906166 0.254065)
(11.7907 -1.03098 -0.406771)
(10.8931 -0.502584 0.136576)
(9.79504 -1.02587 0.512132)
(11.8789 -1.18622 -0.568021)
(11.4697 -0.762853 -0.434926)
(11.4239 -0.00326381 0.116539)
(9.25763 -1.73273 0.107863)
(12.5919 -0.834724 -0.035372)
(10.5943 -0.17171 0.0239423)
(10.2301 -0.496756 0.0983101)
(10.0547 -0.0868725 0.0132178)
(12.5887 -1.53737 -0.931597)
(10.7506 -0.0258111 0.0149309)
(9.79869 -0.977188 -0.46355)
(11.1668 -0.0404049 -0.0295299)
(10.2484 -1.25961 0.5446)
(12.0308 -0.926349 -0.180221)
(10.1966 -0.0356473 0.0309191)
(10.6002 -2.46619 0.18479)
(10.549 -0.170959 -0.0092607)
(10.6846 -0.0493084 0.022812)
(9.59709 -1.31194 0.506745)
(10.1232 -0.045962 -0.0250392)
(13.0231 -1.63243 -0.861663)
(10.2488 -0.0522461 0.0143389)
(10.0403 -0.0325478 0.000415215)
(9.92007 -0.201696 -0.00322913)
(10.6674 -0.0235037 -0.0152361)
(11.0828 -0.444875 -0.103745)
(12.3695 -1.49292 -0.744985)
(11.4294 -2.61499 -2.0261)
(10.045 -0.273363 0.00498536)
(11.5983 -1.47791 -0.448131)
(13.088 -0.00473711 0.0584796)
(10.7244 0.0388005 0.0143254)
(11.218 -1.53196 -0.166637)
(13.0316 -2.14751 -0.0428259)
(10.2463 -0.918039 0.287483)
(12.2478 -1.15816 -0.15313)
(9.94126 -0.637522 -0.0929566)
(10.4884 -1.76382 -1.21758)
(10.6045 -0.0498265 0.00963948)
(10.5577 -0.777436 -0.315869)
(11.0488 -2.90428 -2.08942)
(10.5652 -1.98158 -1.39053)
(11.5801 -0.223382 -0.0443106)
(9.76062 -0.657864 -0.073158)
(10.6042 -0.842191 -0.553759)
(9.56596 -1.6244 -0.296623)
(10.438 -0.0728579 0.0209084)
(10.3963 -0.0758796 -0.0120656)
(10.2543 -1.81273 -1.34308)
(10.2034 -0.0640841 -0.0127451)
(10.2794 -0.0403 -0.00731706)
(9.91412 -2.38249 -1.5251)
(11.3205 -1.69443 -0.182439)
(9.38164 -3.14049 -1.34376)
(10.1572 -1.56368 -1.40053)
(9.99143 -0.864988 -0.570017)
(10.3949 -1.00624 0.305231)
(10.1032 -0.26521 -0.0567564)
(11.3223 -0.183468 -0.0190833)
(10.5983 -0.131459 -0.0325074)
(10.02 -0.254447 -0.0298638)
(9.98258 -0.853587 0.279099)
(10.8994 -0.483478 -0.0499222)
(9.92352 -1.00308 0.422377)
(10.0668 -0.757274 -0.476711)
(10.6754 -0.0423545 0.011742)
(10.0732 -1.16079 -0.343117)
(8.79943 -1.71437 0.152595)
(11.2472 -1.01587 0.156823)
(12.3394 -1.18208 -0.516819)
(11.2492 -0.521771 0.0765268)
(9.04747 -2.60889 -0.486308)
(10.538 -0.564762 -0.0222641)
(10.1279 -0.779368 0.00653986)
(9.63118 -3.97292 -2.20122)
(10.4098 -1.56106 -0.958515)
(11.5745 -0.304876 0.00484496)
(9.57379 -0.691954 0.529693)
(10.6517 -0.044838 0.00453602)
(10.7334 -0.0292603 -0.00455403)
(10.1885 -2.17459 -1.1212)
(6.51404 -3.23361 -1.64204)
(10.5689 -0.0875508 0.0371205)
(9.99868 -0.256416 0.006354)
(10.536 -0.10317 0.00131824)
(9.97498 -0.267679 -0.0153772)
(11.9965 -2.27631 -0.800449)
(9.97299 -0.177321 0.0118398)
(12.3171 -2.69101 -1.45097)
(12.5334 -2.64602 -1.40422)
(11.0869 -3.64967 -2.37489)
(12.4366 -3.01368 -1.28144)
(9.07483 -2.40348 -0.41986)
(12.9337 -3.43669 -1.0309)
(12.0305 -4.60244 -2.21592)
(10.2975 -0.0484582 0.00705084)
(10.3632 -0.0416925 0.014501)
(10.1976 -0.067679 -0.00158305)
(10.2072 -0.0286214 -0.0165546)
(10.136 -0.0371571 -0.00629501)
(10.2245 -0.0738351 0.0273666)
(10.8005 -2.29041 -1.22504)
(9.89191 -0.219817 0.00777395)
(8.32002 -1.65029 0.696469)
(10.8188 -2.82707 -1.99564)
(10.5915 -0.0875505 0.0150855)
(10.0551 -0.0665172 -0.00139801)
(12.092 -1.02277 -0.288123)
(10.055 -0.206957 -0.0829165)
(9.94598 -0.207836 0.0117037)
(10.4526 -2.56176 -1.08296)
(10.0458 -0.20622 0.0094327)
(9.85429 -1.54997 -0.613834)
(9.8973 -0.735833 -0.359419)
(10.4597 -0.0670658 0.0181214)
(10.4711 -0.0496688 -0.0188526)
(9.99292 -1.17288 -0.645433)
(10.492 -0.168823 -0.00695956)
(11.111 -2.07953 -1.31748)
(10.9241 -1.90066 -1.25348)
(11.6492 -2.20899 -2.10964)
(9.66957 -0.825798 -0.109083)
(9.5404 -0.884155 0.348929)
(11.5084 -0.714661 -0.0481258)
(11.7669 -0.784633 -0.110559)
(9.47322 -0.940175 0.450445)
(8.95696 -1.99777 -2.08467)
(11.8576 -0.63484 0.0428025)
(12.4024 -1.36955 -0.331356)
(9.55016 -1.53739 -0.693551)
(11.8505 -1.18534 -0.345158)
(12.239 -1.38233 -0.393622)
(10.7544 -0.54247 -0.126344)
(9.96521 -0.34936 -0.0169918)
(9.92932 -0.506487 -0.0367553)
(10.6873 -0.57756 -0.127315)
(10.6042 -0.612568 -0.139249)
(10.1889 -0.317559 -0.0507264)
(9.92113 -0.429075 -0.0112549)
(9.98874 -0.535071 -0.0169809)
(9.93773 -0.401536 -0.0186384)
(10.0236 -0.0477525 0.0147472)
(10.0181 -0.0472789 0.0247901)
(11.6006 -0.584081 0.0459642)
(12.2781 -1.32411 -0.478796)
(9.95372 -0.746258 0.156312)
(10.075 -0.367275 -0.0350892)
(10.1087 -0.328943 -0.0396561)
(10.1939 -0.261464 -0.0312395)
(10.133 -0.40725 0.0180989)
(9.01567 -0.898807 0.534978)
(10.0482 -0.581476 -0.11858)
(10.1183 -0.521099 -0.0286254)
(11.8278 -2.75805 -0.641893)
(10.0637 -0.426572 0.00240321)
(10.9359 -0.715697 0.263371)
(10.0661 -0.539938 -0.0916833)
(10.5832 -0.836428 -0.099333)
(10.4608 -0.151176 -0.0134199)
(12.6981 0.033513 0.0686112)
(10.4736 -0.937947 0.410698)
(10.2341 -0.916814 0.458735)
(10.1498 -0.420715 -0.0495318)
(11.7935 -1.27243 -0.468296)
(10.5401 -0.148327 -0.0198099)
(9.75444 -0.364834 -0.0421127)
(10.7226 -0.16474 -0.00487913)
(9.75964 -0.38722 0.109537)
(10.7121 -1.98126 -0.356006)
(12.3637 -0.194406 0.0409603)
(10.6748 0.0303268 0.00188538)
(10.6185 0.0298833 -0.00224401)
(10.782 -0.533863 -0.0686747)
(12.6058 -0.388315 0.237288)
(12.4624 -0.803787 -0.25924)
(10.5461 -0.789682 -0.234733)
(10.614 -0.198973 0.0114039)
(12.576 -1.41998 -0.517459)
(11.1686 -0.265255 0.0165095)
(11.5065 -1.07019 -0.676195)
(10.4088 -0.807237 -0.460505)
(10.234 -0.409701 0.013965)
(7.69776 -2.26877 -0.100563)
(11.4664 -1.07701 -0.311574)
(10.3363 -0.795937 0.302569)
(9.79044 -5.65628 -1.56551)
(10.0569 -0.789412 0.410882)
(9.35602 -8.96394 -2.91499)
(12.8215 -1.23736 -0.669542)
(12.5239 -8.25764 -1.39528)
(12.1335 -2.11437 -1.95608)
(8.76835 -12.7051 -2.21257)
(10.1273 -1.67886 -0.146284)
(6.48748 -4.131 -1.94038)
(1.22047 -5.71824 -2.51177)
(10.5955 -1.34763 -0.600966)
(11.0549 -0.682496 -0.192774)
(11.4104 -0.770877 -0.258376)
(9.83657 -0.874587 0.0755263)
(9.29236 -2.03766 -2.04825)
(10.2015 -1.40049 -1.48564)
(9.34125 -1.66144 -0.700009)
(11.0797 -1.47252 -0.0394084)
(5.83133 -3.46355 -1.11073)
(8.51126 -1.41961 -0.353693)
(11.4264 -1.61713 0.19675)
(10.638 -0.332603 -0.0518496)
(10.0209 -1.41613 -0.0218926)
(10.7861 -0.34589 -0.0465143)
(11.6063 -0.216998 -0.0306803)
(10.9303 -0.681418 -0.0907623)
(10.9885 -0.840082 -0.151586)
(5.79384 -3.70103 -7.07654)
(10.4081 -2.66206 -1.97104)
(10.4541 -0.0286716 0.00736879)
(10.9546 -0.289442 -0.0209503)
(11.3319 -0.922877 -0.42192)
(6.13257 -3.27696 -3.09417)
(6.53458 -3.26049 -0.596996)
(10.8217 0.208314 0.0226931)
(10.5311 0.0195018 -0.016574)
(12.6886 -3.28591 -0.923179)
(10.6753 0.0381942 0.00804812)
(10.219 -0.0218382 0.0224794)
(11.0133 0.202496 0.0789707)
(10.5166 -2.61872 -3.12545)
(10.9946 -1.86191 -0.577461)
(10.7781 -0.399814 0.0158646)
(8.57412 -2.16538 -1.76056)
(8.89421 -2.06998 0.175639)
(11.1408 0.378209 -0.0883996)
(10.0754 -1.92723 0.230375)
(12.1057 -1.74162 -0.9462)
(3.23995 -4.66008 -3.39461)
(12.4061 -3.30044 -0.821857)
(11.4601 -2.32462 -1.23425)
(8.43711 -4.92701 -0.12052)
(11.7524 0.0194257 -0.229724)
(10.6223 -0.00469934 -0.00456391)
(10.9274 -0.448325 0.0363348)
(9.99324 -0.504779 -0.0146918)
(10.2281 -0.262378 -0.0196483)
(12.7793 -2.73769 -0.360853)
(10.4906 -0.894768 -0.119205)
(4.59183 -5.02169 0.0197283)
(3.14031 -1.54837 0.539924)
(6.51959 -6.76517 -3.98997)
(11.2816 -0.191634 0.00894266)
(10.8031 -0.0950022 -0.0177087)
(11.4317 -0.114225 0.0518909)
(10.0436 -0.2237 0.0105573)
(11.0012 -0.385561 -0.0251667)
(9.01225 -1.09813 -0.566713)
(10.4657 -1.4462 -1.57663)
(10.9676 -0.210296 -0.0352267)
(8.82676 -5.58273 -1.24244)
(10.0983 -3.2324 -0.666674)
(11.2355 -0.860796 -0.655484)
(9.58324 -4.86663 -2.52689)
(9.52779 -1.17958 0.444715)
(5.05082 -6.57762 -1.90562)
(10.2672 -0.382158 0.0120826)
(10.5602 -0.926737 -0.704365)
(11.0819 -1.58638 -1.426)
(11.9674 0.237033 0.0123131)
(11.0735 -0.128576 0.010968)
(11.1328 -0.268684 -0.0100913)
(8.85142 -2.12842 -0.51405)
(10.5915 -1.89412 -0.722496)
(10.8568 -0.055035 -0.0357049)
(10.6299 -1.74653 -0.786698)
(10.6354 -1.71396 -0.457863)
(10.7986 0.0916977 -0.0501565)
(9.03877 -3.02347 -3.16853)
(11.1768 -0.28208 -0.0254679)
(5.95932 -0.404466 -2.40963)
(9.83868 -0.911393 -0.555476)
(11.2826 -0.292826 -0.00448015)
(10.9207 0.296809 -0.0244303)
(11.3587 -0.493403 -0.0906004)
(10.9415 -0.996967 -0.0946859)
(12.7728 -3.26065 -2.29122)
(2.3311 -6.95541 -3.17181)
(11.7889 -1.05492 -0.291394)
(10.0395 -0.86694 -0.0957389)
(10.0035 -0.951347 -0.0956534)
(10.7717 0.00645709 0.0240257)
(10.1888 -0.722458 -0.28164)
(9.67446 -0.907337 0.270324)
(11.185 0.0734537 -0.00609262)
(10.6007 -0.0296187 -0.0418783)
(10.8486 0.0898258 -0.0055112)
(10.521 -5.2954 -0.643709)
(10.4053 -1.69203 -1.60441)
(10.5996 -0.633172 0.0602755)
(9.9274 -0.788232 -0.134246)
(10.1839 -0.0937158 -0.00693161)
(11.038 -0.00995598 -0.0261919)
(11.5474 -1.77161 -0.786775)
(9.6734 -0.63962 -0.303232)
(12.4332 -0.142579 0.140849)
(10.9425 -2.9585 -0.640473)
(9.86651 -0.872826 -0.199853)
(10.6006 -3.06222 -3.12565)
(10.954 0.26237 -0.0560104)
(11.3232 -0.532096 -0.0730894)
(10.0414 -0.799242 -0.118585)
(9.50131 -1.10374 -0.915762)
(9.32272 -1.31554 -0.460695)
(10.9878 -0.752885 -0.297488)
(11.7457 -1.04304 -0.335961)
(11.1151 -0.713629 -0.235295)
(10.6924 -0.030875 -0.000964805)
(10.6634 -0.163008 -0.00230048)
(10.6565 -0.191663 0.00467619)
(3.17828 0.528235 -0.334619)
(8.58978 -3.87886 -2.20293)
(2.64405 -5.65841 -3.58469)
(10.6459 -0.27648 -0.0377929)
(9.95023 -1.30677 -0.0683056)
(9.98207 -1.20569 -0.0606271)
(9.89362 -1.0325 0.253567)
(10.1043 -0.805026 0.112779)
(11.2077 -0.0659708 0.0420203)
(12.5402 -1.34387 -0.505265)
(11.0989 0.0960168 0.100846)
(11.0361 0.112106 0.0760981)
(10.8579 0.14199 0.0390347)
(10.2787 -1.1261 0.285388)
(9.9837 -0.327723 0.012176)
(10.0627 -0.503085 -0.0809686)
(10.6262 -0.764785 0.113606)
(10.269 -1.02713 0.136702)
(10.1267 -0.371495 -0.0213778)
(10.5522 -0.929636 0.0905075)
(11.166 -0.398651 -0.0476168)
(11.0114 0.126566 -0.0231261)
(10.9465 0.19152 -0.0604901)
(10.6444 0.00296529 -0.0101692)
(10.8768 0.0801062 -0.0452987)
(10.8406 0.0288208 -0.0320387)
(10.8195 -0.586545 0.137375)
(11.1193 -0.421801 -0.0612771)
(10.7916 -0.459215 0.0863851)
(11.607 -2.31605 -1.42626)
(10.7316 -0.85639 -0.402261)
(11.3527 -2.57138 -1.673)
(10.2368 -1.05472 -0.108269)
(8.10968 -2.70832 -0.488288)
(10.8717 -0.0355251 -0.0188636)
(10.9318 -1.16854 -0.573497)
(12.494 -1.44004 -0.87386)
(11.2182 0.157612 0.148988)
(12.6587 -0.57122 0.122651)
(11.3391 0.0639018 0.0412236)
(13.0447 -1.34547 -0.504461)
(11.1438 -1.16469 -0.189369)
(1.09866 -1.31664 0.600359)
(8.84343 -3.84075 -2.69673)
(9.90757 -0.66372 -0.263312)
(10.2736 -0.591004 0.134277)
(9.38709 -2.53084 -1.19224)
(11.0902 -0.762271 -0.0831763)
(9.79841 -0.644569 -0.0158347)
(11.1645 -1.02723 -0.569105)
(8.47468 -1.88984 -0.65816)
(9.81 -0.286579 -0.00283165)
(11.1581 -0.0150879 -0.036037)
(11.3087 -5.60462 -1.11933)
(11.2139 -0.370134 0.0506286)
(11.3581 -1.05365 -0.137853)
(9.9592 -0.624995 0.0539401)
(11.9673 -2.15025 -0.0118625)
(11.6653 0.345387 -0.133875)
(11.6123 0.027838 -0.0309637)
(10.236 -0.0488623 0.0119393)
(1.53628 -7.97389 -2.22252)
(10.366 -0.669939 0.227784)
(11.2572 0.0850688 0.122501)
(11.2876 0.165076 0.0680716)
(10.6936 -0.627682 0.174529)
(11.3957 -0.175609 0.0496814)
(10.1733 -0.0883024 -0.0173855)
(9.75638 -1.06556 0.132982)
(10.4659 -0.330508 -0.0266254)
(11.1187 0.0263539 0.0659439)
(11.3462 -0.111312 0.0593781)
(9.28287 -1.68642 0.469972)
(10.9599 -0.440156 0.0342796)
(9.70985 -2.05109 -1.90282)
(10.4843 -0.0799313 0.00902813)
(11.2788 0.0532123 0.122522)
(11.0535 -0.0278652 0.0378663)
(10.0305 -0.233516 0.000474798)
(10.3982 -0.832442 -0.288281)
(10.2137 -0.597809 -0.161527)
(8.94831 -1.59976 0.0947501)
(10.5549 -1.34711 0.0689534)
(10.786 -0.028127 0.0103689)
(10.1403 -0.300743 -0.0532717)
(10.0548 -0.294773 -0.0106491)
(10.6875 -0.751561 0.256478)
(10.7377 -0.255946 0.0176082)
(10.0859 -0.561387 -0.0985422)
(10.8768 -0.745484 -0.291486)
(11.3082 -0.363413 0.0287657)
(11.4103 0.127169 0.032716)
(9.51036 -1.28777 0.777532)
(10.4396 -0.667929 -0.174109)
(11.0364 -0.0715738 0.0359538)
(9.96627 -0.711485 0.422374)
(10.3911 -1.05293 0.502473)
(11.16 -2.16646 -0.0162704)
(10.3662 -2.14341 0.189952)
(11.173 -1.93905 -0.199208)
(11.2699 -0.608301 0.0577844)
(10.0799 -0.522132 0.186832)
(5.95283 -7.07856 -0.396111)
(9.33378 -6.21539 -1.13206)
(12.6097 -2.93059 -0.605796)
(11.7338 -1.16803 -0.162881)
(7.81229 -3.82538 -1.15047)
(10.5058 -2.35406 -0.589962)
(11.2182 -0.0527637 0.043302)
(10.193 -1.57764 0.441707)
(11.073 -1.61784 -0.745561)
(11.9722 -2.02856 -0.271888)
(9.68521 -0.710881 0.11261)
(9.33579 -1.00706 -0.106662)
(10.5972 -0.353272 0.0307383)
(9.33341 -1.24732 0.262163)
(10.6604 -0.000263275 -0.0137945)
(10.419 -1.46881 -0.110709)
(9.25947 -1.90645 -0.189553)
(10.4724 -1.7529 -0.788141)
(10.4817 -0.922016 0.067687)
(8.2163 -3.97109 -0.425292)
(12.68 -0.916851 -0.225533)
(1.10315 -5.51546 -0.526094)
(11.7512 -0.675588 -0.0111927)
(11.6609 -0.785068 -0.0421951)
(12.2644 -0.0276141 0.0801159)
(12.3117 -0.439461 -0.0381476)
(12.7751 -0.881238 -0.0759144)
(12.6702 -1.09952 -0.255577)
(12.8876 -0.949079 -0.200418)
(10.104 -0.249361 -0.0270143)
(10.1754 -0.213609 -0.0498948)
(12.6564 -1.15555 -0.304668)
(10.1537 -0.211027 -0.0478743)
(10.2096 -0.727985 -0.431981)
(10.3306 -0.582778 -0.228514)
(10.3761 -0.5966 -0.153229)
(12.7771 -3.89102 -2.74349)
(11.8912 -1.37577 -0.431721)
(12.4256 -1.3444 0.349418)
(10.5976 -2.04626 -0.359008)
(12.438 -1.16959 -0.508892)
(10.3494 -0.0701627 0.0105489)
(10.4352 -0.0523235 -0.000316748)
(10.4376 -0.123233 0.00134499)
(10.3717 -0.127909 0.00257369)
(12.3868 -1.2351 -0.64451)
(11.003 -0.154955 -0.0227996)
(11.5782 -1.20521 -0.620916)
(11.6158 -0.831498 -0.302826)
(9.41407 -2.22754 -1.66919)
(10.347 -1.154 -0.149499)
(10.4178 -0.95446 -0.188261)
(10.2587 -1.196 -0.403378)
(10.3111 -1.25445 -0.448816)
(12.5503 -2.18275 -0.433833)
(10.4068 -0.0799935 0.00426575)
(12.942 -1.67552 -0.292565)
(12.5631 -0.329804 0.271108)
(9.47019 -1.53018 0.418249)
(9.63612 -1.21939 0.738212)
(10.1398 -0.790391 0.305026)
(11.1886 0.0360042 -0.0170276)
(10.494 -4.06009 -2.21748)
(11.2582 -3.24364 -1.47589)
(10.2976 -3.29407 -1.21789)
(10.64 -1.65471 -1.6998)
(10.9731 -0.100947 -0.0118291)
(10.904 -1.57948 -1.16257)
(8.44921 -3.6638 -4.70558)
(11.2539 0.0705634 -0.0509749)
(9.55107 -1.53547 0.280299)
(10.028 -2.033 -2.01357)
(12.4244 -1.79642 -1.0956)
(10.1339 -0.795204 0.188486)
(12.2435 -1.59426 -0.868588)
(12.6719 -1.54969 -0.887316)
(11.1788 -0.702159 -0.028427)
(11.7696 -1.44992 -0.895625)
(11.9977 -1.60072 -1.2642)
(9.392 -1.6503 0.407567)
(10.6751 -0.923085 -0.634233)
(10.9864 -0.785533 -0.374969)
(11.0597 -0.781547 -0.390097)
(11.0054 -0.692021 -0.285043)
(11.1118 -0.720996 -0.306353)
(9.42705 -1.71815 0.260882)
(9.14767 -1.90296 0.155939)
(9.99871 -0.316461 0.00457842)
(11.2009 -0.424833 -0.0624354)
(11.1212 -0.50062 -0.0650774)
(8.3239 -3.80356 -0.0798832)
(9.57857 -1.44468 0.249499)
(10.0867 -0.267939 -0.0256602)
(10.3636 -0.7057 0.216113)
(11.0838 -0.642913 -0.0969998)
(11.0223 -0.677057 -0.108082)
(10.0381 -1.72031 0.19211)
(10.4478 -1.90458 0.0835228)
(10.9359 -0.616764 -0.102771)
(10.4588 -0.672973 -0.0760705)
(10.8244 -0.6167 -0.0483062)
(12.0501 -0.94072 0.0152238)
(10.1466 -0.4706 0.0610333)
(10.8108 -0.795875 0.0472033)
(11.4031 -1.00741 -0.0511895)
(8.79643 -1.32961 0.595045)
(10.9308 -0.831262 -0.0471612)
(12.6684 -1.50037 -0.750077)
(10.8019 -0.855724 -0.00742638)
(12.8914 -1.73381 -0.923431)
(12.6824 -1.74003 -1.16422)
(13.0473 -1.43281 -0.576369)
(11.0653 -0.746599 -0.36848)
(4.63453 -6.9687 -0.471711)
(9.57105 -0.988849 0.135095)
(10.4491 -1.06685 0.30953)
(7.70282 -7.1258 -0.491277)
(11.1301 -0.011693 0.0427214)
(11.7179 -0.45833 -0.0125388)
(11.2231 -0.22824 0.0219259)
(10.3031 -0.29748 0.0269646)
(11.2152 -0.60725 -0.171356)
(11.1483 -0.573864 -0.158194)
(10.1675 -1.02467 0.0514242)
(11.0963 -0.427178 -0.0290543)
(11.1401 -0.373538 -0.0136154)
(11.1369 -0.964987 0.0719505)
(11.2209 -0.532951 -0.115053)
(11.4348 -0.268825 0.127544)
(11.3568 -0.165115 0.116228)
(10.6953 -0.694893 0.0328845)
(10.6453 -0.618516 0.0104784)
(10.734 -0.65023 -0.0711162)
(10.6307 -1.02278 -0.0260496)
(8.21327 -2.35764 -0.114604)
(12.7354 -0.184745 0.0823596)
(11.728 -0.291248 -0.0606841)
(13.2313 -2.42526 -1.64897)
(8.49088 -2.97958 -1.25039)
(12.4795 -2.18043 -1.6192)
(10.8705 0.0719153 -0.00594069)
(10.8551 0.0417644 -0.0128748)
(10.9371 -0.741507 0.0885014)
(9.67242 -0.724838 0.312563)
(10.8458 0.0821952 -0.00952893)
(10.7107 0.023074 0.0312627)
(10.7313 -0.00793826 -0.00305874)
(10.7991 0.0412406 -0.000868891)
(6.03237 -5.95522 -2.9199)
(7.0091 -4.04368 -1.81129)
(6.39841 -4.6614 -2.11615)
(10.0609 -1.21622 -1.03941)
(1.31633 -3.79405 -5.96873)
(11.2019 -0.132938 0.0260026)
(11.3366 -0.408531 0.0343028)
(10.1656 -1.00155 -0.0434659)
(11.3872 -2.28618 -0.0245725)
(10.4888 -0.321347 -0.063002)
(10.5447 -0.190906 -0.00626588)
(10.4936 -0.206669 0.0190464)
(10.5548 -0.304657 -0.0209483)
(10.0853 -0.212524 -0.058509)
(10.0648 -0.185395 -0.0377972)
(10.1015 -0.238696 -0.0550477)
(10.0748 -0.194827 -0.0378954)
(8.86389 -3.84002 -4.43051)
(9.20463 -3.12067 -3.78025)
(9.76405 -2.36812 -2.05618)
(9.84314 -2.77117 -2.68152)
(11.1281 -0.306048 -0.055162)
(10.9949 -0.336334 0.0371599)
(10.4736 -0.649021 0.0590799)
(10.3966 -0.676389 -0.0501335)
(10.0754 -0.87858 -0.292478)
(9.39398 -0.821289 -0.380034)
(9.50348 -0.733002 -0.32195)
(9.99859 -0.539995 -0.26145)
(11.9167 -1.14683 0.0573193)
(12.2665 -0.965688 -0.251137)
(9.99105 -2.58239 0.128596)
(10.4107 -2.42672 0.180311)
(9.96968 -0.651872 -0.00938192)
(9.90986 -0.819958 -0.0312323)
(9.91125 -0.727262 -0.0543979)
(9.86896 -0.816835 -0.0718593)
(8.34372 -2.6708 -0.0885928)
(8.72187 -2.44738 0.0628051)
(9.87031 -1.01161 -0.41478)
(9.91381 -0.791765 -0.27579)
(11.1636 -3.75963 -0.0291243)
(10.1336 -3.45877 -0.0638443)
(11.9114 -1.16702 -0.327751)
(10.8603 -4.35298 0.0215383)
(11.437 -3.83892 -0.533716)
(10.5989 -2.68153 -0.29832)
(11.8565 -0.52266 -0.0284859)
(12.3254 -1.29755 -0.318151)
(11.8022 -1.9974 -0.389392)
(10.8573 -1.86451 -0.205608)
(10.9743 -1.59081 -0.334461)
(10.9092 -0.789845 0.0451929)
(10.8023 -1.24241 -0.237043)
(10.6688 -1.85506 -0.151918)
(7.86134 -3.57455 -1.09407)
(6.77459 -4.06186 -0.675177)
(7.76982 -3.16359 -0.552628)
(10.5408 -0.405486 0.0301074)
(6.91866 -3.63018 -0.382925)
(10.775 -0.152275 -0.0102603)
(11.0686 -1.55698 0.0883677)
(11.2866 -1.08438 -0.170208)
(11.1551 -0.991885 -0.0264626)
(11.5085 -1.45311 -0.0632036)
(11.4663 -1.1626 -0.133999)
(10.6182 -0.309366 0.045578)
(10.2027 -0.678324 -0.0407976)
(10.1892 -0.737855 -0.0856413)
(10.2573 -0.863004 -0.163417)
(10.1595 -0.924073 -0.133004)
(10.3573 -0.619788 -0.0540044)
(10.2738 -0.736908 -0.114982)
(9.76167 -1.69634 -0.592976)
(10.6403 -0.447356 -0.0416465)
(9.73881 -1.76222 -0.730302)
(9.51568 -2.21449 -0.910566)
(9.20841 -2.40203 -0.513453)
(11.6295 -1.25173 -0.166928)
(11.5165 -1.34547 -0.223767)
(10.8417 -1.66177 -0.369776)
(10.9041 -0.777987 -0.35119)
(9.93794 -0.168931 0.00179206)
(10.7829 -0.729981 -0.324862)
(9.86346 -0.932075 0.0048741)
(9.89492 -0.27024 -0.00411018)
(9.81398 -0.223838 -0.0399194)
(12.8359 -1.9343 -0.702932)
(9.83326 -0.171432 -0.0228673)
(9.84318 -0.260309 -0.039395)
(9.8099 -0.348082 -0.0277833)
(11.1317 -1.9672 -0.703878)
(9.63023 -0.575466 0.20132)
(10.5618 -0.0875563 -0.00221326)
(9.75725 -0.534663 0.0983687)
(9.99988 -0.631821 0.381798)
(10.0669 -0.0895986 -0.0222795)
(11.0304 -0.505323 -0.0213958)
(9.88535 -0.641742 0.123147)
(10.3525 -0.286035 -0.0141865)
(9.87534 -0.412942 0.0873344)
(11.6494 -2.16492 -1.19322)
(10.3644 -0.019773 0.000514511)
(9.72324 -0.486649 0.0732645)
(9.91163 -0.244873 -0.0150885)
(10.1373 -0.174321 -0.0543582)
(11.3435 0.305384 -0.104265)
(11.0605 -0.13061 0.0269522)
(10.834 -0.696962 -0.377013)
(10.2811 -0.050418 0.0353756)
(9.96728 -1.60294 0.140043)
(10.6229 -0.209684 -0.0246762)
(10.1343 -0.314348 -0.00635686)
(10.2507 -0.323553 6.0391e-05)
(10.0858 -0.357656 0.0156841)
(10.5536 -0.181051 -0.0387524)
(10.0822 -0.0318643 0.00672875)
(9.83901 -0.363197 0.0275394)
(10.7018 -0.353603 0.0598241)
(11.0873 0.333452 -0.00791525)
(10.5494 -0.170888 0.0244481)
(10.2217 -0.737228 0.130426)
(9.47241 -2.30062 0.202641)
(10.5844 -0.0557283 0.00504723)
(10.8191 -0.832464 -0.402852)
(11.0163 -0.788529 -0.516364)
(10.298 -0.610973 -0.152755)
(10.248 -0.761019 -0.149629)
(10.2995 -0.617307 -0.162285)
(10.2709 -0.589705 -0.156674)
(10.4808 -0.355584 -0.0540093)
(10.5268 -0.390804 -0.0726677)
(10.3522 -0.51263 -0.08067)
(10.4908 -0.494713 -0.107526)
(10.0902 -0.230818 -0.043437)
(10.0352 -0.268732 -0.0193167)
(10.8158 -0.20469 0.0265117)
(11.0602 -0.0218463 0.0370647)
(11.3432 0.133461 0.158053)
(11.1208 0.0531973 0.0343089)
(10.6761 -0.0376607 0.011093)
(9.0843 -2.06502 -2.20987)
(10.198 -0.237472 -0.0324212)
(10.8621 -0.387551 -0.000630289)
(10.0857 -0.137403 -0.0520204)
(11.2184 -0.635777 -0.133644)
(10.1553 -0.235391 -0.0319776)
(11.0214 -0.208829 -0.0708364)
(10.1846 -0.196292 -0.0162776)
(9.29641 -2.08557 0.548656)
(8.88776 -2.9064 -1.0969)
(9.9941 -0.10006 0.00484389)
(11.2699 -1.14169 -0.152607)
(12.109 -1.40991 -0.152364)
(12.5241 -3.01405 -2.40298)
(12.7473 -2.60021 -0.639107)
(5.15097 -5.0705 -3.07958)
(12.2988 -2.57697 -0.573874)
(9.39163 -1.25623 0.370056)
(9.11172 -1.29171 0.70068)
(11.1881 -0.410264 0.0337039)
(9.99209 -1.93202 0.205039)
(10.6193 -0.0783315 0.0101031)
(9.98004 -0.86882 0.244433)
(10.2361 -0.523331 0.0244766)
(11.5761 -1.53083 0.186748)
(10.8559 0.0287404 -0.0439886)
(11.1297 0.163214 0.0664614)
(9.79102 -0.44097 -0.107877)
(10.314 -0.532761 -0.0768841)
(10.2319 -0.367713 -0.0494284)
(10.0748 -0.515934 0.200953)
(10.3667 -0.0425678 0.031385)
(10.7951 -0.233779 0.0335767)
(10.7 0.0762386 -0.0184259)
(11.8596 -2.75267 -1.11343)
(10.7967 0.107111 -0.033631)
(10.7055 0.00607266 0.0194417)
(11.1941 -0.0316066 -0.00683958)
(11.5394 0.228393 0.0504609)
(12.4051 -0.916617 -0.12151)
(12.3131 -1.35455 -0.0589186)
(10.3786 -0.0148727 0.000413228)
(12.068 -1.3108 -0.738632)
(10.2459 -0.870783 0.342473)
(10.8926 -0.772346 0.272853)
(9.92518 -0.638618 0.235272)
(12.7066 -2.79752 -0.796266)
(10.3769 -0.31445 0.0163558)
(10.02 -0.649319 0.241055)
(10.664 -0.309847 0.0485375)
(10.6519 -0.900596 0.321797)
(10.5665 -0.291666 0.0416792)
(12.2145 -2.20705 -1.48643)
(10.881 0.023086 -0.0481794)
(10.8452 0.111915 -0.0309496)
(10.0495 -0.700362 0.30506)
(10.8699 -0.000531185 -0.0554123)
(10.8271 0.0184559 -0.0228964)
(10.072 -0.594889 0.162139)
(9.90574 -0.570166 0.234092)
(10.049 -0.333486 -0.028434)
(6.86213 -6.90013 0.245355)
(10.7404 -2.0853 -0.778615)
(12.3538 -6.0961 -0.278743)
(10.2096 -0.464824 -0.00112346)
(9.68354 -0.877848 -0.636529)
(10.5398 -0.00132523 -0.0153219)
(10.2217 -0.205009 -0.0313005)
(10.2011 -0.481042 0.0678125)
(9.82237 -0.672495 0.0938701)
(9.62701 -0.722692 0.602094)
(9.96076 -0.589895 -0.0645355)
(9.94618 -0.312948 -0.0137254)
(10.1796 -0.383799 -0.0376873)
(8.59414 -1.85129 0.142687)
(9.66728 -1.02784 0.413149)
(9.85916 -0.902373 0.633612)
(10.3645 -0.468796 -0.0665943)
(10.1277 -0.836629 0.368599)
(12.3333 -1.44371 -1.02469)
(10.4916 -0.907593 -0.203876)
(11.4042 -0.818977 0.0939146)
(12.4894 -2.1385 -0.0790521)
(12.0469 -1.05969 0.0622954)
(9.50383 -1.39583 -1.26223)
(10.2635 -1.32386 0.183737)
(11.0799 -0.0734053 0.028305)
(10.3359 -0.715946 0.18527)
(10.779 -0.348415 0.0120485)
(10.9443 0.142153 0.0703267)
(12.5641 0.0513922 0.157524)
(11.969 -0.60522 -0.0235095)
(10.2592 -0.473516 0.0117062)
(13.1331 -1.36129 -0.323689)
(12.0037 -3.74899 -0.599113)
(11.0192 -2.91218 -2.06717)
(1.59601 -6.90605 -0.0277327)
(11.2574 -0.477303 0.118366)
(11.2076 -0.589575 0.1038)
(10.4112 -0.435666 0.101303)
(10.5865 -0.943555 0.428869)
(10.7767 -0.138116 0.0046999)
(0.287407 -9.34619 -3.45703)
(11.6002 -0.0999932 0.00606883)
(13.0902 -0.300344 -0.166543)
(12.9252 -1.50948 -0.514874)
(12.0392 -2.30411 -2.27698)
(11.2585 -1.34991 -0.755606)
(11.1694 0.0275354 -0.0328746)
(9.02398 -1.39704 0.221914)
(9.91932 -0.330363 -0.0962477)
(10.1747 -0.273566 -0.0260198)
(11.909 -4.48433 -1.71074)
(9.45738 -3.24303 -0.0279493)
(1.40896 -6.04405 -5.26652)
(9.71477 -0.820423 0.106945)
(9.74378 -0.793094 0.141779)
(10.1647 -0.495805 0.0774433)
(9.87346 -1.46989 0.287152)
(9.41673 -2.3305 -0.112329)
(10.726 -0.621515 -0.19691)
(11.3313 -1.0038 0.143061)
(10.8908 -0.853181 -0.168959)
(10.328 -1.48183 -0.644989)
(12.8566 -1.1708 -0.240318)
(11.4337 -0.0435379 0.0595702)
(11.2821 -1.52523 -0.693622)
(10.9432 -1.01073 -0.0141484)
(10.8488 -3.43707 0.0306495)
(10.091 -4.09457 -0.421303)
(10.7167 -0.151478 0.00346908)
(6.33413 -7.32747 -1.41835)
(10.2592 -0.813559 -0.444813)
(10.3202 -0.114977 -0.00151955)
(10.1233 -0.172229 -0.03802)
(10.1683 -0.120726 -0.0274998)
(10.3027 -2.69546 -0.5259)
(10.302 -0.0376628 0.0233539)
(10.3369 -0.0700681 0.000674736)
(10.1107 -0.000937273 0.0303126)
(12.6435 -1.53948 -0.733489)
(11.774 -1.2415 -0.881765)
(9.90847 -0.377582 -0.0473889)
(10.91 0.106732 -0.0679116)
(10.8002 0.133822 -0.0398453)
(10.905 -0.0679374 -0.0234856)
(10.1275 -0.0635966 0.00484572)
(10.6245 -0.030738 -0.0041747)
(10.3045 -0.154016 0.0190011)
(10.1982 -0.105446 -0.0245029)
(13.0099 -0.856505 0.0190777)
(8.70731 -4.84633 -2.35797)
(11.9344 -2.14599 -1.24799)
(1.53646 -4.34525 -4.67636)
(10.5534 -0.0789591 0.0157189)
(12.4737 -0.587241 -0.0421433)
(10.9099 0.0333751 -0.0484145)
(10.9295 0.0510478 -0.0703462)
(10.9136 0.0554848 -0.0484703)
(10.9273 0.0736127 -0.0642122)
(11.0862 -0.148222 0.0125417)
(10.9856 -0.0706796 -0.00954861)
(10.8977 -0.181254 0.00686841)
(9.90103 -0.370772 0.0656952)
(10.9136 -0.263536 0.0321414)
(10.9903 -0.625892 0.0820547)
(10.9805 -0.0410253 -0.0211499)
(12.4458 -1.15159 -0.018879)
(9.95323 -0.159716 -0.00361965)
(10.0958 -0.958932 -0.244572)
(10.901 -0.13661 -0.0155998)
(10.9671 -0.17273 0.0175082)
(12.3164 -0.909001 -0.0494418)
(10.1033 -1.02672 -0.334231)
(10.5995 -1.01087 0.109894)
(9.99909 -0.473097 0.131972)
(9.93726 -0.3145 -0.044947)
(9.92303 -0.316266 -0.0897054)
(8.80914 -1.24807 -0.347927)
(10.7358 -1.20497 -0.142052)
(9.92019 -0.408782 -0.00503439)
(11.0056 -0.527519 -0.127529)
(10.5881 -0.79078 -0.151776)
(10.0871 -0.714151 -0.203666)
(7.14231 -5.05129 -1.7803)
(10.6826 -1.78901 -2.16627)
(9.99622 -1.29094 -0.0215896)
(9.78092 -0.709684 -0.0432326)
(10.1117 -0.401733 0.0412062)
(10.0537 -0.35916 0.00198506)
(9.89115 -1.21428 -0.0273198)
(8.93588 -1.49022 0.224686)
(9.84176 -0.860469 -0.498261)
(10.5331 -0.459857 -0.0152947)
(11.0887 -0.896614 -0.650243)
(9.82499 -0.38715 -0.0420762)
(10.8108 -1.15235 -0.563173)
(9.85882 -0.578354 0.00789431)
(9.98877 -0.44997 0.0539706)
(10.0807 -3.16789 -3.5381)
(6.74251 -4.62143 -0.734705)
(9.73085 -0.84037 1.45794)
(9.97306 -0.408473 -0.00836984)
(10.0941 -0.289377 -0.00872569)
(10.3727 -0.0330599 0.00143924)
(10.7721 -0.352264 0.0577244)
(10.0905 -0.958725 -0.368979)
(9.96334 -1.61673 0.172539)
(11.1926 -0.702324 -0.283957)
(10.0159 -0.565191 -0.199996)
(11.5692 -0.977254 -0.102832)
(10.4756 -0.0277889 0.0182859)
(9.80012 -2.17492 -1.32309)
(9.38348 -2.04582 -1.81694)
(10.0881 -0.364603 -0.00633883)
(11.6417 -2.47069 -0.522868)
(11.1623 -0.213743 0.00841718)
(9.72013 -0.805235 -0.497987)
(10.2019 -0.0275809 0.0264766)
(9.88119 -0.134614 0.00631263)
(10.6157 -0.554586 0.00170643)
(11.0265 -2.16827 -0.832514)
(10.998 -0.257483 -0.0304177)
(11.3386 0.348983 -0.0690145)
(7.59322 -3.98773 -4.00744)
(11.4912 -1.58707 -0.1506)
(11.2561 -1.57716 -0.221712)
(11.1388 -0.392138 -0.0664645)
(10.5943 -2.04165 -0.0206897)
(5.04294 -10 -1.26836)
(9.9956 -1.96669 -0.766205)
(8.96229 -2.13835 0.265657)
(10.0686 -0.431303 -0.0284216)
(9.40879 -8.16338 -4.99742)
(11.3254 -0.445305 -0.0908762)
(9.97505 -0.178004 -0.0501092)
(4.8289 -4.29582 -3.6627)
(9.4258 -2.84916 -1.55797)
(11.4638 -0.870323 -0.122858)
(11.134 -0.620528 -0.178172)
(10.503 -0.775461 -0.279159)
(10.8605 -1.82597 -0.777524)