/*--------------------------------*- C++ -*----------------------------------*\
| =========                 |                                                 |
| \\      /  F ield         | OpenFOAM: The Open Source CFD Toolbox           |
|  \\    /   O peration     | Version:  2506                                  |
|   \\  /    A nd           | Website:  www.openfoam.com                      |
|    \\/     M anipulation  |                                                 |
\*---------------------------------------------------------------------------*/
FoamFile
{
    version     2.0;
    format      ascii;
    arch        "LSB;label=32;scalar=64";
    class       volScalarField;
    location    "0.0207921";
    object      nut;
}
// * * * * * * * * * * * * * * * * * * * * * * * * * * * * * * * * * * * * * //

dimensions      [0 2 -1 0 0 0 0];

internalField   nonuniform List<scalar> 
3946
(
0.00665198
0.00546151
0.00419166
0.00485638
0.00519251
0.00686606
0.00352904
0.0046819
0.003363
0.00752377
0.00743497
0.00716185
0.00504658
0.00263203
0.00193914
0.00719944
0.00440491
0.00743048
0.00408343
0.0075127
0.00239836
0.00477239
0.00445793
0.00351544
0.00365956
0.00433239
0.00403233
0.00512503
0.00743098
0.00682866
0.00749615
0.00578077
0.00425252
0.00569629
0.00364202
0.00684722
0.00299764
0.00411616
0.00491762
0.00440364
0.00626562
0.00747038
0.00452273
0.00711001
0.0042203
0.0074245
0.00745749
0.00411923
0.00409756
0.00441079
0.00449296
0.00435799
0.00681944
0.00720449
0.00750639
0.00635746
0.00684289
0.00699019
0.00454727
0.00511184
0.00742604
0.000640263
0.00693305
0.00537926
0.00590286
0.000513592
0.000646516
0.000222619
0.00027106
0.00668977
0.00735105
0.00485433
0.00217425
0.00742701
0.00679104
0.00499558
0.0070576
0.00427516
0.00734135
0.00446338
0.000449638
0.00440812
0.00680469
0.00325728
0.00634593
0.00130921
0.00523094
0.000427477
0.00087809
0.00046463
0.00194093
0.0016186
0.00691601
0.00182284
0.00181175
0.00178035
0.00426175
0.00413546
0.00344408
0.00552538
0.00337393
0.00368149
0.0040709
0.00305583
0.00405623
0.00406759
0.00416207
0.00529623
0.00389154
0.00356248
0.00231449
0.00323478
0.0042381
0.00171507
0.0016783
0.00408499
0.00530713
0.00624538
0.000403842
0.000517101
0.00430173
0.00247339
0.00629612
0.00695057
0.00732877
0.00522328
0.00207547
0.00561941
0.00360462
0.00699567
0.0035293
0.00199422
0.0072118
0.00447962
0.00349167
0.00563318
0.0032114
0.00118002
0.00729108
0.00140785
0.00333981
0.00198619
0.000423886
0.00732472
0.0030632
0.00422873
0.00563775
0.00726166
0.00407374
0.00534379
0.00462604
0.00471421
0.00404087
0.00738119
0.00540765
0.00755399
0.00657984
0.006438
0.00653652
0.00467924
0.00497933
0.00701358
0.00219315
0.00424935
0.00530111
0.00275573
0.00419446
0.00536084
0.00390775
0.00153048
0.00414417
0.00296947
0.00408506
0.00228142
0.00679004
0.00696089
0.00604457
0.00706239
0.0048841
0.00388753
0.00741743
0.00665032
0.0074576
0.00731104
0.00435543
0.00439191
0.00515965
0.00529878
0.00743141
0.00386512
0.00712194
0.00458765
0.000968412
0.00406752
0.00108725
0.00100492
0.000390897
0.0074972
0.00428944
0.00623999
0.00745762
0.00635391
0.00708585
0.00677128
0.00515085
0.00381026
0.00343529
0.0047149
0.00347838
0.00483533
0.00424322
0.00333773
0.00734261
0.00703143
0.00632263
0.00740317
0.00716594
0.00539989
0.00748332
0.00722091
0.000425548
0.000630981
0.00449194
0.00580332
0.00660483
0.000476297
0.000408834
0.00605259
0.0067571
0.000563239
0.00401012
0.00687643
0.00544694
0.00606239
0.00741187
0.00265783
0.00581227
0.00294729
0.00268068
0.00360312
0.0075354
0.000388687
0.00037444
0.000600918
0.00285981
0.005772
0.00238708
0.00280632
0.00596359
0.00401343
0.0056309
0.00324434
0.00313094
0.0027481
0.00387196
0.00440708
0.00434686
0.00652221
0.00413499
0.0023044
0.00613361
0.000375058
0.00056843
0.00330389
0.00302048
0.00419155
0.00234112
0.00324747
0.00179399
0.0043696
0.0037844
0.00319771
0.0054452
0.00600138
0.00554981
0.00547403
0.00574584
0.00283495
0.00259324
0.00401551
0.00405163
0.00396438
0.00408058
0.00321182
0.00295717
0.00425122
0.00481701
0.00448756
0.00319629
0.00431856
0.0035382
0.00412135
0.00670523
0.00466521
0.00558678
0.0046834
0.00459984
0.00395076
0.00737866
0.000568206
0.00741647
0.000628006
0.00051302
0.000427029
0.00437927
0.00362166
0.00340759
0.00455739
0.00479321
0.000352078
0.000614798
0.00066627
0.000515013
0.000409731
0.00746866
0.00166047
0.00428292
0.00330678
0.00440334
0.00316629
0.00350396
0.00276744
0.00254365
0.00355868
0.00734971
0.00379579
0.00619758
0.00603024
0.00674707
0.00295814
0.00360703
0.0074723
0.00504061
0.00255831
0.00218667
0.0071478
0.00605899
0.000869135
0.000461711
0.000751635
0.00523473
0.00181579
0.0014479
0.00532969
0.00242928
0.00239066
0.00684519
0.00731713
0.00260915
0.00105564
0.000954379
0.00709422
0.00315128
0.00702696
0.00180592
0.000476539
0.00324628
0.00579347
0.00244075
0.000424686
0.00387735
0.00138215
0.00710986
0.00434707
0.00240478
0.00188788
0.00505338
0.00134948
0.000861794
0.00147268
0.00102167
0.00118585
0.00463488
0.00719549
0.0068492
0.00737241
0.00207419
0.00746611
0.00606516
0.00345964
0.0070619
0.00453461
0.00495897
0.00699728
0.00656701
0.00645504
0.00312755
0.00675278
0.0071666
0.00471977
0.00224792
0.00709526
0.00424607
0.00114254
0.00668302
0.000321169
0.00641975
0.00291371
0.0066241
0.00705899
0.00676018
0.00573333
0.00602341
0.00497454
0.00677727
0.00746279
0.00511788
0.00677042
0.00726929
0.0068218
0.00584241
0.00718562
0.00686727
0.00679894
0.00673961
0.00680128
0.00723362
0.00327465
0.00434693
0.00469992
0.00660304
0.00335073
0.00750631
0.00353866
0.00700296
0.0045495
0.00723392
0.00427508
0.00728825
0.00669922
0.00649657
0.00657832
0.00753019
0.00728541
0.00621329
0.00378143
0.0026336
0.00358104
0.00601914
0.00658622
0.00661867
0.00667775
0.00628394
0.00607155
0.00604463
0.00219915
0.00154417
0.00617494
0.0063937
0.00652934
0.00526434
0.00737884
0.00735351
0.00628494
0.00479899
0.00390586
0.00589865
0.00474095
0.00723814
0.00728097
0.00609362
0.00485901
0.00117236
0.00412417
0.00224912
0.00315864
0.00749947
0.0039703
0.00235326
0.00513811
0.00374904
0.00429983
0.00312651
0.00644782
0.00739634
0.00695087
0.00683107
0.0033908
0.006809
0.00265583
0.00123774
0.00248368
0.00202813
0.00672465
0.00332876
0.00748788
0.00345913
0.00597719
0.00720896
0.00721796
0.00727131
0.00434945
0.00718937
0.00750331
0.00743771
0.00709808
0.00699592
0.006327
0.00405016
0.0041045
0.00709546
0.00512847
0.00374478
0.00368629
0.00370121
0.00663383
0.0066097
0.00136973
0.000468472
0.00574498
0.00162999
0.00147737
0.0069898
0.00665884
0.004381
0.00173097
0.00655181
0.00704818
0.00430425
0.00569059
0.00519313
0.00674322
0.00379023
0.00677733
0.00519275
0.00438873
0.00659068
0.0068012
0.00598932
0.00337062
0.0008175
0.00446854
0.00412023
0.00187396
0.000744492
0.00231981
0.00565704
0.0050395
0.00262218
0.00648868
0.00651542
0.00709947
0.00308043
0.00707773
0.00715584
0.00609691
0.00356147
0.00617628
0.00397574
0.00515519
0.00647886
0.00598865
0.00440536
0.00743121
0.0067276
0.00449115
0.00735216
0.00547681
0.00464042
0.00376356
0.00493556
0.00440838
0.00705047
0.00729111
0.00680037
0.00729994
0.00497347
0.00495553
0.00734549
0.00214408
0.00568122
0.00716868
0.00703599
0.00721284
0.00511716
0.00502797
0.00758321
0.0074673
0.00749665
0.00731697
0.00733854
0.00613174
0.00737639
0.00750188
0.00395015
0.00703383
0.00486736
0.00735254
0.00751951
0.00738734
0.00673293
0.00748999
0.00472383
0.0074753
0.00730903
0.00737158
0.00746485
0.00359548
0.00735301
0.00428915
0.00735653
0.00416794
0.00632017
0.00221922
0.00534791
0.00330298
0.00465097
0.00711303
0.00673573
0.00742952
0.00455419
0.00719686
0.00358084
0.00731567
0.00720659
0.00486561
0.00748279
0.00738983
0.00332948
0.0050794
0.00362297
0.00246675
0.00275883
0.00269108
0.0048404
0.0068776
0.00688556
0.00599109
0.00521847
0.00698259
0.00486615
0.0029806
0.00646487
0.00561889
0.00544759
0.00477851
0.00644496
0.0062093
0.00665969
0.0059113
0.00459005
0.00496432
0.0072194
0.00652063
0.00420546
0.00747053
0.00727211
0.00537745
0.00435992
0.00428318
0.00641044
0.00654289
0.00535044
0.00319271
0.00272628
0.00398808
0.00383725
0.00642288
0.00388606
0.00502373
0.00384773
0.00537547
0.00439203
0.00746972
0.00468157
0.00393957
0.00668178
0.00441517
0.0047578
0.00497568
0.00690502
0.00517979
0.00742573
0.00268321
0.00231693
0.00248109
0.00736934
0.00654831
0.00480185
0.00751573
0.00372686
0.00228181
0.00759875
0.00233914
0.00493234
0.00370096
0.00625938
0.00731667
0.00690109
0.00725354
0.00437182
0.00619056
0.00738156
0.00450333
0.00744408
0.00635114
0.00182791
0.00107955
0.00588571
0.00191998
0.00191598
0.003206
0.00717434
0.00522907
0.00747185
0.00496414
0.00444565
0.00514516
0.00408512
0.00557293
0.00290093
0.00625829
0.00270124
0.007493
0.00392091
0.00358059
0.00628886
0.00412884
0.00450086
0.00432745
0.00412188
0.00542035
0.00480075
0.00738368
0.00412608
0.0069549
0.00358739
0.0064846
0.0039649
0.00557561
0.00742738
0.00750914
0.00749727
0.00726227
0.00370325
0.0034889
0.00591808
0.00648069
0.00657981
0.00562291
0.00465007
0.00730433
0.00725132
0.00444828
0.00659998
0.0075331
0.0030817
0.00693478
0.00633848
0.00646625
0.000870001
0.00260528
0.00564364
0.00200424
0.00124411
0.00218279
0.00195537
0.00468767
0.00233758
0.00134864
0.000996353
0.00287757
0.00659867
0.00755571
0.00687157
0.00587513
0.000594711
0.00576812
0.00544333
0.00491592
0.0055889
0.00701052
0.00613107
0.000968387
0.000948017
0.00205644
0.00122715
0.0011246
0.00116197
0.00689346
0.00360445
0.00746938
0.00276027
0.00310922
0.0052298
0.0069975
0.00646005
0.00298965
0.00366753
0.00411518
0.000944988
0.00404042
0.00569162
0.00487898
0.00438684
0.00731888
0.00749364
0.00525019
0.00703399
0.0035214
0.00685144
0.00561173
0.00688658
0.00339355
0.00696945
0.00546991
0.00719278
0.00718192
0.00692015
0.00674258
0.0054039
0.00746348
0.00472392
0.00347081
0.00702664
0.00559802
0.00391476
0.00359141
0.00318948
0.0068436
0.00490903
0.00343517
0.0035568
0.00648228
0.00347038
0.00664367
0.00627224
0.00631822
0.00672317
0.0045276
0.00271909
0.00677939
0.00699459
0.00474253
0.00623887
0.00704956
0.00183289
0.00505348
0.00670889
0.0031579
0.00248918
0.0068396
0.00477977
0.0026299
0.00688521
0.00200875
0.00242951
0.00195499
0.00426031
0.00426996
0.00300666
0.00382567
0.00550029
0.00656415
0.00112879
0.00040017
0.00620207
0.00642918
0.00706152
0.00731626
0.00641374
0.00645161
0.00673795
0.00705294
0.00418035
0.00480766
0.00478464
0.00742172
0.00720841
0.00738471
0.00698425
0.00494814
0.00636738
0.00716805
0.00350369
0.00646999
0.00731676
0.00308976
0.00614247
0.00617357
0.00656247
0.00750934
0.0040616
0.00730412
0.00422864
0.00633055
0.00382476
0.00635475
0.00417888
0.0057954
0.0072837
0.00311213
0.00444263
0.00383493
0.00691953
0.00709336
0.0074185
0.00647743
0.00650479
0.00707366
0.00722262
0.00382478
0.00594527
0.00602235
0.00707966
0.00386159
0.00434765
0.00372615
0.0025091
0.00356821
0.00347789
0.000401424
0.00486493
0.00488138
0.00699886
0.00728232
0.00739215
0.00211345
0.00334295
0.00121582
0.00228609
0.00188167
0.00112298
0.00395582
0.00505061
0.00723739
0.00137777
0.00601734
0.00644152
0.00440884
0.00368486
0.000872555
0.0012466
0.00222288
0.00249526
0.000654009
0.00711639
0.00234682
0.00203517
0.00681009
0.0020971
0.00146285
0.00234685
0.0036328
0.0010895
0.00043915
0.00671881
0.00243435
0.00285311
0.00176565
0.00279787
0.00680311
0.00269468
0.000394989
0.00120503
0.00753951
0.00238906
0.00116191
0.00432542
0.00708976
0.00352042
0.00195357
0.00141368
0.00306865
0.0070945
0.00697781
0.00734687
0.00705889
0.00672376
0.00555382
0.00604567
0.006765
0.00720639
0.0063201
0.00162973
0.00196412
0.0020719
0.00212263
0.00192947
0.00171252
0.00668337
0.00569155
0.00517663
0.00246936
0.00310007
0.00467497
0.00691699
0.00613653
0.00259032
0.00687502
0.00507134
0.0033647
0.00284863
0.00651868
0.00707407
0.00524632
0.00598371
0.00687497
0.00686444
0.00522918
0.00696568
0.0043876
0.00460598
0.00696108
0.00394779
0.00527902
0.00401934
0.00564362
0.000430482
0.000996105
0.0069515
0.00490181
0.00442091
0.00439514
0.00629756
0.00442386
0.00750457
0.00698028
0.00617981
0.00744411
0.00603323
0.00367887
0.00552637
0.00459722
0.00509629
0.00360051
0.00352334
0.00350162
0.00417133
0.00299235
0.00348612
0.00428305
0.00754653
0.0075574
0.00749834
0.00584775
0.00670674
0.00653303
0.00646756
0.00749873
0.00450592
0.00587293
0.00750616
0.00431569
0.00695451
0.00592556
0.00181023
0.00226835
0.00639498
0.0041591
0.000980755
0.002063
0.00155899
0.00492446
0.00249613
0.00428952
0.00280659
0.00654989
0.00362457
0.00712362
0.00514698
0.00672293
0.0068061
0.00188876
0.00357747
0.00433598
0.00371053
0.00657014
0.00666512
0.00623186
0.00743612
0.00639104
0.00606045
0.00728277
0.00491376
0.00561917
0.00412078
0.0070747
0.00701308
0.0071662
0.00741136
0.00248315
0.00746905
0.00731397
0.00566258
0.00752745
0.00746799
0.00643685
0.00700995
0.00697163
0.00645355
0.00522316
0.00743312
0.00746795
0.0069123
0.00734257
0.0054335
0.00738505
0.00630395
0.000941165
0.00240701
0.00276234
0.00753992
0.00573961
0.0034399
0.00716304
0.0074917
0.00752685
0.00749232
0.00743083
0.00743804
0.00730522
0.0067261
0.0074495
0.00710127
0.00336744
0.000964939
0.00198236
0.00337696
0.00163766
0.00267013
0.00669889
0.00731511
0.00756475
0.00753701
0.00746823
0.00744371
0.00748046
0.00752522
0.0072322
0.00617308
0.00431714
0.00746587
0.00508206
0.00746896
0.00547346
0.0073255
0.00730069
0.00578045
0.00715757
0.00685285
0.00527378
0.00331048
0.00663249
0.00683141
0.00262412
0.00518372
0.00651487
0.00360517
0.00452466
0.00494639
0.00751691
0.00709734
0.00740778
0.00623802
0.00506728
0.00443207
0.00347157
0.00725913
0.00652399
0.00648218
0.00695259
0.0074292
0.00752884
0.00525357
0.00738384
0.00392315
0.00665544
0.005009
0.00506477
0.00572072
0.00641479
0.00717702
0.0052585
0.00731136
0.00728395
0.0074197
0.00717683
0.00750175
0.00452383
0.00434134
0.006664
0.00574174
0.0066626
0.00727095
0.00625899
0.00728711
0.00632319
0.00751567
0.00563502
0.00610056
0.00696802
0.00751505
0.00606566
0.00519517
0.00735173
0.00401898
0.0075534
0.00488345
0.00752907
0.00739537
0.00743868
0.0064238
0.0068942
0.00722228
0.00739486
0.00714023
0.00669708
0.00627257
0.00535738
0.00751202
0.0043165
0.00651304
0.00435726
0.00528108
0.00752611
0.00742874
0.00515647
0.0066913
0.00711469
0.00363599
0.00746759
0.00463448
0.00733701
0.00719901
0.00479222
0.00718257
0.00532737
0.00521858
0.00751711
0.0052244
0.00463291
0.00565546
0.00732272
0.00207607
0.00759177
0.00742811
0.00748363
0.00657747
0.00525251
0.00335652
0.00745436
0.00378881
0.0039779
0.00494925
0.00540161
0.00547022
0.00433032
0.00628189
0.00433647
0.00487288
0.0050366
0.00461963
0.00545699
0.0032729
0.00748916
0.00333878
0.00745071
0.00748327
0.00739604
0.00734757
0.00739492
0.00742608
0.00256262
0.00572416
0.00747422
0.00747024
0.00288004
0.00484358
0.00439222
0.00466532
0.00722879
0.00743903
0.00641356
0.00263865
0.00698756
0.00505268
0.00467519
0.00554057
0.00466354
0.00306084
0.00308144
0.0067677
0.00555307
0.00371114
0.00724772
0.00326301
0.0074405
0.0048878
0.00693637
0.00603333
0.00425145
0.00624567
0.00652657
0.00694374
0.00689656
0.00703412
0.00748794
0.00700575
0.00753237
0.00666401
0.0074438
0.00743495
0.00731843
0.00742762
0.00738769
0.00732063
0.00704062
0.00733886
0.00448225
0.00705172
0.00668048
0.00374347
0.00612464
0.00465009
0.00744829
0.005285
0.00350522
0.00630074
0.00652853
0.00314821
0.00392798
0.00624645
0.00737872
0.00722927
0.00350342
0.00751575
0.00746191
0.00726672
0.00721796
0.00716802
0.00729469
0.00490997
0.00490844
0.00354428
0.00705993
0.00314266
0.00501934
0.00707885
0.00745141
0.00749243
0.00749049
0.00699235
0.00758587
0.00408606
0.00708967
0.00379793
0.00386874
0.00512734
0.00618072
0.00613572
0.00756955
0.00618603
0.00730179
0.00380581
0.00350103
0.00397359
0.00699751
0.00481454
0.00487864
0.0068849
0.00548841
0.0074246
0.00210332
0.0037956
0.000472396
0.00635122
0.0004407
0.00744678
0.00722458
0.00727389
0.00738596
0.00722728
0.00472638
0.00637536
0.00323752
0.00644752
0.00650922
0.0039127
0.0063588
0.00443675
0.00731461
0.00750632
0.00026968
0.00294408
0.00732886
0.00294792
0.00499945
0.0073895
0.00753725
0.00738983
0.0074704
0.00714374
0.0039217
0.00730097
0.0054808
0.00733122
0.0027764
0.00512717
0.00421431
0.00486804
0.00324589
0.00422487
0.0032177
0.00753693
0.0048904
0.00733815
0.00743744
0.00748683
0.00724586
0.00744308
0.00661059
0.0048601
0.00545893
0.00596355
0.00730256
0.00453444
0.00608698
0.00488562
0.00599225
0.00353922
0.00470573
0.00704571
0.00750426
0.00746281
0.00676248
0.00732751
0.00471931
0.006437
0.00732507
0.00107934
0.00744796
0.00747237
0.000836841
0.000884971
0.00346744
0.00275008
0.00069221
0.00287894
0.00236237
0.000673537
0.00399182
0.00468509
0.0016931
0.00264833
0.00626306
0.000434472
0.00103148
0.00157434
0.000389002
0.00377658
0.00458606
0.00324279
0.00236872
0.00310041
0.00359395
0.00635042
0.00733333
0.00126021
0.00102368
0.0024844
0.00578401
0.00745624
0.00741737
0.00227493
0.00703506
0.00208926
0.00699154
0.00747154
0.00728295
0.0070053
0.00743848
0.00527233
0.00735674
0.00563323
0.00360351
0.00419134
0.00647781
0.00593972
0.00560734
0.00553065
0.00724151
0.003854
0.00387749
0.00711044
0.00263796
0.00280896
0.00641514
0.00747281
0.0059845
0.00627238
0.00423085
0.00656128
0.0065308
0.00622123
0.00754575
0.00405561
0.00569687
0.00504636
0.00728066
0.00725829
0.00675981
0.0032101
0.00735487
0.0036212
0.00745507
0.00747337
0.00636753
0.00373365
0.00691115
0.00748944
0.00469159
0.00733492
0.00405197
0.00700112
0.00704168
0.00347741
0.00690658
0.00606055
0.00324586
0.00750451
0.00661651
0.00613017
0.00639705
0.00753123
0.00522931
0.00498745
0.00610871
0.00642141
0.00747359
0.00706235
0.0074877
0.00750678
0.00665541
0.00731082
0.00497042
0.0072396
0.0074786
0.00742151
0.00616829
0.00350872
0.00753256
0.00393451
0.0042507
0.00499816
0.0039589
0.0052822
0.00631965
0.00149851
0.000934784
0.00696436
0.00529898
0.00504078
0.00557412
0.00426869
0.00504887
0.00571771
0.00712044
0.00508029
0.00399144
0.00578124
0.00749688
0.00277866
0.00195927
0.00671597
0.00509542
0.00697015
0.00708054
0.00250775
0.0021023
0.00462557
0.00280478
0.00192766
0.00323873
0.00752353
0.00398802
0.00530747
0.0071495
0.00748483
0.00504993
0.00625398
0.00740269
0.00514256
0.00748583
0.00456117
0.0074427
0.00440571
0.00291173
0.00735202
0.00483376
0.0043008
0.00740355
0.0062961
0.00698501
0.00312516
0.00437244
0.00444799
0.00490332
0.0075722
0.00375507
0.00398811
0.00394527
0.00461169
0.00740592
0.00362389
0.00657536
0.00502286
0.00736247
0.0038044
0.00670246
0.00736088
0.0035308
0.00697925
0.00628903
0.00553819
0.005959
0.00503062
0.00580147
0.00690001
0.00284376
0.00665643
0.00444657
0.00604889
0.00751554
0.00577414
0.00352017
0.00734125
0.00430026
0.0044149
0.0032075
0.00399355
0.00383419
0.00385964
0.00254403
0.0070631
0.0071531
0.00407847
0.00753157
0.00231357
0.002349
0.00574297
0.00534337
0.00361894
0.00456524
0.00506403
0.00529331
0.00466935
0.00500354
0.00433284
0.00395961
0.00457887
0.00407355
0.0032905
0.00322435
0.00320621
0.00460353
0.00436266
0.00674421
0.00368001
0.00433327
0.00406127
0.00646468
0.00732291
0.00741545
0.00653292
0.00546036
0.00531907
0.00723943
0.00497979
0.0038944
0.00258953
0.000720371
0.00230005
0.00744121
0.0054617
0.00476856
0.00708035
0.00597978
0.00354775
0.00706088
0.00718235
0.00593803
0.00287946
0.00632681
0.00279411
0.00203445
0.00593998
0.00513239
0.00401592
0.00398099
0.00101575
0.00105572
0.00196502
0.00518709
0.00216415
0.00428413
0.00335404
0.00147622
0.00544956
0.000475339
0.00180572
0.000628072
0.00480471
0.00505205
0.0037704
0.00372032
0.00495545
0.00708616
0.00340087
0.0020221
0.00440947
0.00369773
0.00355061
0.00115182
0.00247686
0.00175371
0.00280488
0.000719577
0.000651757
0.0035648
0.00399042
0.0047127
0.00393394
0.00499904
0.0057335
0.00235512
0.00502099
0.00734364
0.000280345
0.00151192
0.00240497
0.006859
0.00663192
0.00340348
0.00279897
0.00347388
0.00743735
0.00751241
0.00675482
0.00745029
0.00302922
0.00635451
0.002854
0.000638185
0.00287109
0.00703742
0.00523446
0.00747715
0.00339307
0.00710254
0.00397891
0.00395216
0.00428761
0.00179572
0.00330208
0.00685663
0.00378202
0.00552945
0.00612709
0.00692925
0.00590287
0.00351307
0.00518266
0.00706193
0.0069079
0.00721963
0.00548321
0.00745848
0.00403663
0.00404665
0.00315094
0.00358219
0.00693329
0.00702207
0.00620164
0.00671481
0.00359913
0.00392296
0.0041954
0.00688922
0.00400881
0.00692888
0.00715528
0.00650326
0.00675838
0.00629367
0.00458946
0.00385475
0.00659706
0.00415868
0.00419513
0.00498537
0.00490888
0.00492354
0.00599556
0.00367319
0.00741185
0.00489535
0.00543613
0.00362502
0.00753425
0.00751846
0.00753758
0.00752738
0.00447544
0.00384575
0.0074354
0.00744666
0.00741555
0.00444535
0.00733119
0.00699798
0.00512455
0.00745298
0.00750214
0.00727683
0.00489247
0.0055981
0.00463951
0.007361
0.00740414
0.00726959
0.00452164
0.00725756
0.00741382
0.0074591
0.00746195
0.00622283
0.00735858
0.00750517
0.00753059
0.00745812
0.0075026
0.00355276
0.00486986
0.00739996
0.00704737
0.00492978
0.00294441
0.00393996
0.00725137
0.00608698
0.00647271
0.00750632
0.00682238
0.00608758
0.00418206
0.0045626
0.00750743
0.00749599
0.00721879
0.0073656
0.00607256
0.00691318
0.00740439
0.000379596
0.00394576
0.00392116
0.00747511
0.00746463
0.00679976
0.00708919
0.00736521
0.00752074
0.00472871
0.00522455
0.00457424
0.00299658
0.00050172
0.00715911
0.00670582
0.00752152
0.00749218
0.00686405
0.00751193
0.00746766
0.00699399
0.00276645
0.00386249
0.00389148
0.00504846
0.00427036
0.00744028
0.00532492
0.00460647
0.00733635
0.00747033
0.00749891
0.00751261
0.0070994
0.00754599
0.00743781
0.00744992
0.00734996
0.00473855
0.00712358
0.00633368
0.00744237
0.0074127
0.00496368
0.00470804
0.0069616
0.00501758
0.00633529
0.0060369
0.00481614
0.000744499
0.001723
0.00129045
0.00200871
0.0017593
0.00270538
0.00293932
0.00214918
0.00174798
0.000552027
0.00686786
0.00697332
0.00453657
0.000643628
0.000602656
0.00479019
0.00493341
0.00724301
0.00112548
0.00629696
0.00650212
0.0067957
0.0075755
0.00665227
0.00532968
0.00559486
0.00527658
0.00498675
0.00746861
0.00584462
0.00743801
0.00746465
0.00716821
0.00750837
0.00741627
0.00475131
0.00434262
0.00700285
0.00739866
0.00615412
0.00550113
0.00689538
0.00602057
0.00724389
0.00751375
0.00730972
0.00275122
0.00528966
0.00718103
0.00665293
0.00462464
0.00490013
0.00615916
0.0067139
0.00618093
0.00686921
0.00605433
0.00751176
0.000788857
0.000781377
0.00750686
0.00625831
0.00566823
0.00668595
0.00541654
0.0074826
0.00750593
0.00391491
0.00669445
0.00746103
0.00469604
0.00756123
0.00478129
0.00739957
0.0037691
0.00466405
0.00737647
0.00470452
0.00746387
0.00461006
0.00338077
0.00751763
0.00655238
0.00472145
0.00334279
0.00690861
0.00675
0.00484613
0.00739657
0.0069977
0.00487247
0.00597014
0.00424995
0.00312119
0.00266957
0.00455724
0.00312333
0.00730196
0.00411713
0.00500224
0.00505194
0.00408259
0.00676278
0.00624529
0.00540113
0.0050758
0.00293429
0.00103595
0.00397502
0.00571227
0.00421903
0.00749813
0.00639138
0.00595571
0.00691296
0.00468144
0.00328337
0.00410305
0.00575597
0.00397687
0.00369783
0.004875
0.00618943
0.00513278
0.00746359
0.00642848
0.00519242
0.00445274
0.00317444
0.00340454
0.00688374
0.00337032
0.00729775
0.00396897
0.00449741
0.0069524
0.00669234
0.00582028
0.0031428
0.00501437
0.00427437
0.00315107
0.00748197
0.00487786
0.00346345
0.00569703
0.0073878
0.00749181
0.006783
0.00662346
0.00655207
0.00750122
0.00453346
0.00517122
0.00391016
0.00433984
0.00414643
0.00384469
0.00694696
0.00409021
0.00383909
0.00585829
0.0062209
0.0040136
0.00741635
0.00673458
0.00734792
0.0075091
0.00737793
0.00732412
0.0072501
0.00394502
0.00745978
0.00589019
0.00415028
0.00389685
0.00433286
0.00654007
0.00489226
0.00331563
0.00386736
0.00466527
0.00689294
0.0041496
0.00685634
0.002115
0.00441074
0.00412848
0.00356961
0.004275
0.0040974
0.00721689
0.00694924
0.00386855
0.00748554
0.00745309
0.00603183
0.00469153
0.00657001
0.00531485
0.00713142
0.00733721
0.00689507
0.00747744
0.00349739
0.00390302
0.00698129
0.00040674
0.000465829
0.00273164
0.00238201
0.000605196
0.00176848
0.00265477
0.00177594
0.000400664
0.000542586
0.000539796
0.00106319
0.00100822
0.00273218
0.000510162
0.00143398
0.000795929
0.00181125
0.00159004
0.000623424
0.00156307
0.00237486
0.00240912
0.00063191
0.00120923
0.000576186
0.00262708
0.00686845
0.00655735
0.00603375
0.00530581
0.00744048
0.00528761
0.00471279
0.00485686
0.00695696
0.0074158
0.00415941
0.00512759
0.00710224
0.00429969
0.00650884
0.00715485
0.00637022
0.00401371
0.00326613
0.0030337
0.00746651
0.00500393
0.00478658
0.00734903
0.00534334
0.00546271
0.00306308
0.00594793
0.0062188
0.00331839
0.00508246
0.0052412
0.00518489
0.00579838
0.00740962
0.00504877
0.0047211
0.00684705
0.00641802
0.00747138
0.00649728
0.00564102
0.00476273
0.00560519
0.00630766
0.00573518
0.00720635
0.00464614
0.00606603
0.00700532
0.00431903
0.00595671
0.00131329
0.0031643
0.00516218
0.0067163
0.00241441
0.00628002
0.00668237
0.00529209
0.00695322
0.00550379
0.00401704
0.00651425
0.00499415
0.00397406
0.00530458
0.0039229
0.00197982
0.00736019
0.000769206
0.00580756
0.0017338
0.000644184
0.000379265
0.00120091
0.00121708
0.00227687
0.00213342
0.00199136
0.00247962
0.00728982
0.00470064
0.00660892
0.00690673
0.00719069
0.00438852
0.00566175
0.00671466
0.00721096
0.00549535
0.00743427
0.00708179
0.00740615
0.00730298
0.00697613
0.00703584
0.00153015
0.00738731
0.0030788
0.00152904
0.00250877
0.000584279
0.00371234
0.00709119
0.00733004
0.000629755
0.00650137
0.00150074
0.00755526
0.00451573
0.00512715
0.00552044
0.00585531
0.00217464
0.00175592
0.00559967
0.00618341
0.00586662
0.00587118
0.00312289
0.00409825
0.00258882
0.00067134
0.00136853
0.00034858
0.00744806
0.00503717
0.00728016
0.00571385
0.00195503
0.00194866
0.00286192
0.00728126
0.000216342
0.000497728
0.00262558
0.0015265
0.00450477
0.00302036
0.0028731
0.00450432
0.00269864
0.00154859
0.00212925
0.00106124
0.00733582
0.00721081
0.0037773
0.00688443
0.00326066
0.00691703
0.00442148
0.00639727
0.00660932
0.00491994
0.00562995
0.00718544
0.00565983
0.00679129
0.00682284
0.00687411
0.00641564
0.00409585
0.00271853
0.00470405
0.00537421
0.00683904
0.00663614
0.00571682
0.00435197
0.00609294
0.004874
0.00725784
0.00502436
0.00242676
0.00606983
0.0049171
0.00670675
0.00298283
0.00738438
0.00405698
0.00549678
0.00725968
0.00739924
0.00706223
0.00260246
0.00428335
0.00513298
0.0043376
0.00704263
0.00677122
0.00631745
0.00630261
0.00368447
0.00669221
0.0027006
0.00448578
0.00424309
0.00675334
0.00722346
0.00655577
0.00262121
0.006655
0.00700017
0.00697145
0.00622056
0.00713448
0.00689455
0.00681295
0.00708676
0.00690276
0.00684383
0.00657495
0.00679174
0.00675135
0.0043397
0.00705923
0.006764
0.00724606
0.00480608
0.00594545
0.0074286
0.00744708
0.00717758
0.00698774
0.00584065
0.00670079
0.00250872
0.00736931
0.00689633
0.00377294
0.000734666
0.00473961
0.00732684
0.00642848
0.00065165
0.000403649
0.00102484
0.00232936
0.00108922
0.00187278
0.00256157
0.00621888
0.000950467
0.00108134
0.00679732
0.00689184
0.00672243
0.00646969
0.0071104
0.00669107
0.00714741
0.00708032
0.00705659
0.00708279
0.00714943
0.00652254
0.00720523
0.00226173
0.000842411
0.000263264
0.000531083
0.00084909
0.00185502
0.00619103
0.0024007
0.00738259
0.00641456
0.00339137
0.00570474
0.00264846
0.00238534
0.00254788
0.00184323
0.00271805
0.00377868
0.00242588
0.00199037
0.00199073
0.00219297
0.0072303
0.007093
0.00668603
0.0073915
0.00694727
0.00296452
0.00344575
0.00719571
0.00689661
0.00744683
0.00374463
0.00749162
0.0065525
0.00522136
0.00750156
0.0049985
0.00571504
0.00748544
0.00348597
0.00703733
0.00423451
0.00352174
0.00669838
0.00748145
0.00746082
0.00745917
0.00208382
0.00750196
0.00738146
0.00698471
0.00451202
0.00600535
0.00517987
0.00735475
0.00442437
0.00385966
0.00389419
0.00736901
0.00489614
0.00705846
0.00628661
0.00751546
0.00748871
0.00548637
0.00742957
0.0071173
0.00748696
0.00751176
0.00439039
0.00749718
0.00753161
0.00745982
0.00630702
0.00503669
0.00670416
0.00747338
0.00512018
0.00735387
0.00509849
0.00670668
0.00752784
0.00752715
0.00738399
0.0068903
0.00344898
0.00366647
0.00519254
0.00358949
0.00283286
0.00175846
0.00448848
0.00167416
0.00116523
0.00211382
0.0024133
0.00206721
0.0033407
0.00449509
0.00279793
0.0034745
0.00689875
0.00707978
0.00513802
0.00497137
0.00602864
0.00620085
0.00697787
0.00711695
0.0071498
0.00702248
0.00392096
0.00353878
0.00378948
0.00728503
0.00743116
0.00538116
0.00413817
0.00391642
0.00610871
0.00515137
0.00343076
0.00449594
0.00644685
0.0048251
0.00726864
0.00719661
0.00505329
0.00310585
0.0030241
0.00685339
0.00749021
0.00698022
0.00717325
0.00736252
0.00736882
0.004127
0.00622026
0.00384065
0.0073441
0.00675566
0.00702969
0.0073218
0.00739678
0.00737561
0.00745912
0.00745226
0.00324953
0.00669113
0.00317012
0.00545448
0.00585762
0.00673711
0.000889813
0.00110876
0.0023292
0.00462041
0.00705988
0.00623617
0.00609723
0.00596583
0.00698948
0.00400859
0.00315102
0.0049551
0.00752664
0.00609508
0.00544834
0.00629954
0.0050096
0.00733199
0.00488732
0.00505386
0.00349199
0.00752219
0.00742576
0.00652434
0.00730949
0.00735718
0.00625444
0.0048237
0.00516278
0.0061353
0.00733462
0.00718838
0.0072707
0.00739258
0.00406174
0.00322718
0.00259618
0.00356504
0.00559284
0.00313355
0.00455339
0.00445916
0.00512979
0.00390318
0.00458214
0.00691799
0.00735391
0.00706293
0.00347514
0.00703322
0.00310296
0.00397105
0.00725141
0.00728411
0.00461081
0.00699884
0.00596587
0.00352791
0.00559627
0.00720705
0.00745812
0.0074882
0.00700322
0.00714026
0.00530762
0.00424736
0.00746342
0.00585425
0.00512314
0.00743223
0.003867
0.00327385
0.00750051
0.00101554
0.00148476
0.0010866
0.00213976
0.00738405
0.00196771
0.00467784
0.00358961
0.00343696
0.00267279
0.00441539
0.00638127
0.00480426
0.00583023
0.00738264
0.00427136
0.000668995
0.00253336
0.000401854
0.00255556
0.00496758
0.00492703
0.0055905
0.00732298
0.00732945
0.00365319
0.00450919
0.00540593
0.00432851
0.00535548
0.00593069
0.00575087
0.00520995
0.00344248
0.00732062
0.00636745
0.00725943