/*--------------------------------*- C++ -*----------------------------------*\
| =========                 |                                                 |
| \\      /  F ield         | OpenFOAM: The Open Source CFD Toolbox           |
|  \\    /   O peration     | Version:  2506                                  |
|   \\  /    A nd           | Website:  www.openfoam.com                      |
|    \\/     M anipulation  |                                                 |
\*---------------------------------------------------------------------------*/
FoamFile
{
    version     2.0;
    format      ascii;
    arch        "LSB;label=32;scalar=64";
    class       volScalarField;
    location    "0.0207921";
    object      omega;
}
// * * * * * * * * * * * * * * * * * * * * * * * * * * * * * * * * * * * * * //

dimensions      [0 0 -1 0 0 0 0];

internalField   nonuniform List<scalar> 
3946
(
54.0722
70.0938
85.9693
73.0527
74.0939
53.3358
110.26
76.6992
116.546
48.1781
48.4363
49.8492
75.7349
149.438
196.314
49.8011
80.807
48.484
86.7312
47.4868
154.584
74.0797
82.6107
108.211
102.211
84.7449
97.1288
76.0078
48.1387
52.9455
47.9394
62.5388
82.793
62.4108
94.1237
52.2553
93.4308
94.3726
77.5766
86.5917
57.1939
47.8578
84.4004
51.2896
89.7209
50.1089
48.1187
92.6877
93.8292
81.9151
80.0505
87.3928
53.5636
49.7158
48.2414
57.0068
52.834
52.2324
85.2364
70.9218
48.8396
391.735
51.8475
67.6628
61.3169
471.118
350.479
629.902
681.136
56.5073
49.3879
79.7376
215.53
47.8616
55.0191
70.6419
51.334
85.7356
49.645
82.7418
344.235
83.304
53.1914
118.701
58.6913
318.511
95.7165
394.141
341.507
352.802
393.032
208.818
52.6822
210.532
225.729
221.837
92.1316
88.5509
103.456
63.9104
110.517
102.541
92.8614
162.234
96.0186
95.6001
85.8445
69.483
96.3151
110.884
149.675
116.785
84.2356
241.575
236.417
87.7681
75.3802
57.5581
404.664
381.399
88.8831
147.266
56.9091
53.2092
48.8062
69.1015
351.476
71.0056
107.315
51.9743
108.343
327.298
50.3829
80.7577
107.189
81.3983
118.348
274.55
49.2008
214.478
161.707
352.054
476.008
49.046
123.34
87.8338
65.453
50.5353
94.8128
69.5662
86.3309
87.9541
94.9708
49.8152
69.5167
48.0747
55.1937
55.623
54.7032
79.8358
71.8033
52.2809
223.55
88.4157
67.2215
131.55
84.3438
71.1471
95.4935
222.926
94.9166
218.902
88.2377
169.23
53.683
51.9506
60.7412
52.7365
77.8328
100.534
49.3998
54.2805
49.4767
49.0306
87.5219
88.2535
73.6245
69.3013
49.4356
97.4188
57.8106
79.1783
369.58
93.2525
255.331
274.889
396.203
48.0233
86.0578
57.7414
48.4813
57.0651
50.7851
52.5244
69.3059
102.123
110.372
76.5463
109.838
80.0029
88.8957
118.433
49.7279
52.9109
61.5687
48.7832
51.4493
66.3269
48.712
50.1316
369.447
336.18
84.147
64.0962
55.209
309.066
322.812
62.5321
53.8793
348.203
92.4467
53.0848
66.6283
66.4121
48.1004
150.895
62.5375
126.638
152.188
101.21
47.6132
359.35
365.17
348.735
129.957
62.7055
164.4
132.258
60.2516
95.0107
64.8242
191.124
121.24
150.733
100.131
81.2492
85.4786
55.8277
87.9609
165.046
75.118
419.693
363.529
114.459
134.989
85.7978
157.692
115.726
222.109
80.6948
100.454
121.406
68.059
60.4353
65.5919
66.7727
63.6272
135.268
151.738
96.7223
97.5894
96.5948
93.4925
118.363
122.47
91.91
77.7769
80.3283
123.388
87.3964
110.132
91.3748
54.9106
79.3506
64.2584
87.3927
81.1901
96.4684
49.1734
415.595
48.2606
365.772
380.789
388.142
86.1442
98.9138
228.825
137.923
77.5845
453.766
413.795
432.451
420.981
655.819
47.8575
462.303
89.3263
120.388
84.9429
247.69
106.755
220.287
143.116
108.422
49.5676
100.9
58.062
61.3089
60.7577
132.214
105.785
48.6246
73.574
273.025
316.002
49.942
60.6982
385.45
467.331
399.322
70.7545
247.493
233.006
67.1846
237.312
188.336
55.5453
49.4914
159.673
373.75
379.943
55.6864
429.949
52.1071
236.655
497.404
158.948
63.1809
288.918
459.677
154.431
321.152
51.867
85.6934
316.476
235.01
68.2914
225.815
266.991
218.77
353.382
276.944
81.8823
50.7068
52.6916
49.0871
188.082
48.4586
63.549
150.604
51.9856
81.4042
72.5493
52.0064
59.7826
55.5923
134.33
57.7938
53.4839
75.9091
338.52
51.3377
83.1944
340.349
57.6962
362.91
56.9243
139.705
63.8396
50.6248
55.9148
64.0958
60.2643
75.0424
54.0957
48.4962
82.8137
54.8028
49.8972
53.7364
79.6396
51.2905
54.6234
53.8772
54.1123
53.4531
50.1146
116.688
130.088
78.6038
54.9931
138.4
48.2447
202.736
52.3494
82.706
49.9638
87.3833
49.1703
54.4149
55.7879
56.8225
48.1247
50.0134
62.4471
101.353
141.56
100.595
60.603
55.218
54.8994
54.3902
57.909
59.9017
60.1807
368.665
252.578
62.4468
56.9037
55.7134
70.5918
48.9899
49.0475
57.892
79.4905
92.7306
61.6985
78.5311
50.5475
49.9728
56.9803
73.8077
271.195
132.03
331.861
257.106
47.9341
73.7159
301.633
77.1582
105.123
105.932
82.9026
56.6617
48.8243
52.6691
58.1862
105.508
54.0474
145.698
285.846
394.58
420.399
56.1093
115.362
47.7887
110.808
59.5243
50.3774
50.3381
49.9312
86.2605
50.8401
47.6701
48.7259
51.9873
50.9423
57.7856
94.0934
95.3525
51.303
70.2769
102.914
101.313
101.719
54.8648
55.1102
237.351
405.341
63.1169
299.268
216.358
50.9732
62.455
86.5439
228.685
61.551
54.4245
83.2258
65.0575
70.9715
54.2267
101.052
53.979
68.939
81.8353
55.4605
53.7239
73.6464
230.739
360.502
139.306
86.3597
368.136
425.009
349.533
64.7796
71.6763
153.427
55.3169
56.2447
51.5897
112.72
51.1888
49.8371
60.3548
108.074
57.666
95.7641
70.0601
54.5924
59.4608
83.3164
48.878
53.2899
79.6488
49.0785
66.2219
78.4336
99.1265
72.6522
86.8775
52.0198
49.4649
53.1095
48.9239
81.6663
74.0381
48.7198
318.094
64.3526
49.8055
51.8876
49.8542
72.7529
70.5775
48.3642
48.8021
47.3426
49.5854
49.4351
59.2645
49.347
48.7964
99.5502
50.9016
74.738
49.0846
48.2984
48.7722
54.7049
47.6651
78.5889
48.3205
49.0105
48.9925
48.4218
109.1
49.0611
79.1054
48.8103
91.2487
57.2242
196.429
68.7979
114.475
78.9739
50.3114
54.9267
48.7007
81.914
52.4244
107.008
49.9717
51.7751
78.549
47.6505
48.6202
114.125
72.1225
113.71
296.066
274.466
257.32
77.145
52.545
53.0617
59.5499
74.4634
51.5633
76.1111
130.361
68.0544
87.2418
98.1526
120.524
54.9243
72.0765
53.7508
76.7111
83.4569
71.8131
49.3422
55.2801
86.0412
48.4768
49.4735
75.7244
82.2637
89.0854
56.6968
58.0817
69.7734
117.35
145.215
95.3701
100.339
56.9423
98.8072
71.6066
95.9643
68.0461
86.3612
48.7901
82.0179
99.3382
55.9061
86.8558
75.5675
75.0666
53.0072
71.355
48.5647
280.896
344.011
204.119
48.6168
57.6318
82.0792
48.6866
130.415
229.394
47.8922
229.38
79.404
104.262
58.8258
50.5297
53.4699
49.733
81.0949
58.8632
49.1903
84.4198
48.5122
56.9328
308.148
229.76
63.4042
184.566
261.443
123.762
50.8164
71.9511
47.8187
73.2023
87.4105
72.3698
94.2481
65.8997
133.143
60.3594
102.971
49.0413
98.6205
109.086
57.3966
87.2615
84.3686
90.2542
94.3993
66.5264
76.3347
48.6521
89.4667
51.641
112.602
61.0095
99.3726
65.322
47.9796
48.7452
48.2397
49.7657
106.478
111.259
61.8193
58.9639
55.142
63.4727
82.4115
48.9013
49.4058
83.7992
55.5633
46.9869
129.911
52.2215
57.9699
60.0612
308.884
238.151
63.9087
206.686
431.547
228.115
230.487
76.8918
257.358
242.729
283.008
221.432
57.5256
47.8409
53.6584
61.3232
418.415
65.2308
71.2773
79.9799
69.1317
52.2781
60.3259
237.704
279.319
386.348
295.449
266.949
250.201
53.549
99.2717
49.0293
141.149
120.146
67.9573
51.0914
55.4872
130.767
105.462
85.8856
488.029
90.7099
64.8063
77.5209
82.2963
49.8793
48.3525
72.0692
52.0448
106.65
54.2109
63.345
53.0874
112.898
52.7389
65.9829
50.6161
51.3597
55.9506
56.0353
67.9671
47.9425
84.6328
111.17
52.1867
64.345
101.249
149.718
207.833
57.3062
109.147
109.246
102.627
56.1153
106.149
55.9292
62.4898
63.8214
56.76
83.007
149.149
53.2978
51.7155
81.071
59.6636
51.6063
247.357
74.1689
55.8173
121.913
274.181
53.3598
75.151
171.478
53.3328
409.214
267.468
326.159
138.393
86.1283
204.423
143.187
92.1536
59.6802
342.213
401.182
62.2562
71.3412
51.8019
50.2162
58.4499
57.4909
55.6435
51.9555
92.2438
79.5469
79.175
49.2058
52.9459
48.3984
52.3377
73.075
64.7781
55.0273
110.627
57.2195
50.0643
121.066
58.9605
58.6072
54.9224
47.0652
93.2386
49.0222
84.4712
58.2792
95.66
57.5321
89.4244
62.6128
50.1764
120.149
80.5108
96.3305
51.7293
51.428
49.4566
55.2028
58.0253
56.1585
50.3825
97.6434
60.7536
59.8457
50.8307
98.6483
85.062
139.328
368.318
106.234
180.072
501.296
77.2967
87.2857
52.3159
53.0264
49.7768
214.758
109.129
212.341
227.825
382.988
217.519
99.1472
71.5187
49.6818
526.585
59.5416
55.2609
83.0743
183.211
400.265
264.407
394.619
319.061
358.316
51.646
301.872
254.367
54.0302
298.371
275.073
199.509
141.929
222.171
459.52
54.1137
212.479
136.901
394.148
310.906
54.4851
280.145
531.126
261.225
48.1672
245.764
324.494
87.8458
51.3606
105.592
196.305
287.532
117.741
51.5385
52.6014
49.2353
51.5122
56.4161
83.7312
70.9161
55.3921
50.7291
57.9303
424.087
365.405
324.386
328.6
201.873
268.704
53.5017
71.4552
70.6096
173.816
134.112
77.9666
57.6874
62.4718
175.045
52.9559
72.5482
113.187
135.198
55.4819
56.855
81.0207
60.1121
53.3453
53.5299
67.8236
52.7752
84.3242
81.6336
52.4818
92.4839
68.673
93.4396
64.8982
355.934
248.202
52.5414
77.2676
85.3329
86.4551
57.6421
86.3571
47.9477
52.4744
59.2161
48.0222
64.7271
102.364
72.8893
73.1043
73.8583
80.3108
111.87
111.183
87.8415
133.739
110.692
84.1966
47.7497
47.7909
47.6973
64.3092
55.2315
55.8972
56.7357
47.647
80.4172
65.1508
48.7303
85.4884
52.3536
61.5321
390.955
303.37
57.1794
82.7369
396.762
241.378
294.523
75.7792
254.968
103.688
287.833
56.0431
102.83
50.2247
73.9663
54.1523
53.5251
350.403
185.064
83.6694
96.778
55.5463
54.3082
57.5334
48.2006
55.9967
59.3522
50.1996
75.7783
65.2397
91.6595
50.7882
52.1577
50.8301
48.3637
185.104
47.9382
48.6755
69.8824
47.5939
48.3327
56.9127
52.3677
52.7755
56.2432
69.7352
48.1648
47.9463
52.7178
49.4482
67.217
48.3708
57.4532
229.985
265.744
139.599
47.5002
83.3968
109.309
50.9825
47.9352
47.7445
47.8029
48.3751
48.9047
49.8244
53.0171
48.2362
50.3383
110.848
324.982
351.851
497.431
368.326
305.352
54.2733
49.8785
48.0143
47.5454
49.1385
48.8434
48.4487
47.8645
50.2135
58.1268
86.5735
48.6537
71.3806
47.9542
64.7582
49.1694
49.6234
62.2727
49.8746
52.1677
108.053
115.46
63.3642
61.2635
146.799
64.724
55.7256
94.8362
82.0455
78.0284
48.0904
50.1925
48.7439
58.6417
72.805
81.2983
107.685
49.9777
55.1654
56.3666
53.7759
47.9174
47.3064
73.0832
49.9378
95.5698
54.1023
75.8896
70.6878
64.7501
56.3455
49.6264
68.0314
48.7113
48.8619
48.2102
49.989
47.1732
80.992
85.3671
54.2922
62.2648
53.6175
49.3019
57.8905
49.4948
56.9496
47.7695
63.0155
59.3821
52.29
47.8419
60.0307
71.3392
48.3672
94.0411
47.2692
80.2129
47.9856
48.1546
48.4816
56.6511
53.2115
51.1114
49.0699
50.9343
53.8717
57.5347
68.5066
48.0824
88.8564
55.9091
89.69
70.3405
47.6364
48.2653
69.8864
55.3096
51.1294
108.244
47.925
82.1321
49.8531
50.4971
75.6357
51.0959
66.6853
70.8302
48.5737
71.7147
79.6459
64.3935
50.808
183.964
47.5561
48.4379
48.6344
54.3232
69.0035
114.128
49.591
95.9577
90.0711
72.6225
66.2631
65.3943
85.2684
57.516
86.4959
78.4557
73.5267
81.0106
71.0134
115.87
47.5726
114.444
48.4087
48.729
48.3446
48.557
48.2884
48.1732
228.158
63.3594
47.9829
48.1184
132.192
77.054
85.9301
78.2884
49.9505
48.7613
56.7951
149.172
52.3686
71.2609
76.2823
64.5084
79.4731
119.162
125.044
54.0579
67.3926
106.715
51.0627
117.331
48.4732
75.0883
51.7765
59.551
87.1393
57.2378
57.3543
51.812
56.3053
53.6605
48.1544
51.237
47.7946
55.5669
48.378
48.1425
49.6142
48.5909
49.2551
49.6381
50.9791
49.7795
84.9351
50.9841
55.374
107.637
59.4655
84.0156
48.0869
68.7164
108.479
56.9567
58.4547
123.213
100.339
58.156
49.2319
50.2355
109.455
47.4985
49.0028
50.1879
50.1466
50.066
49.6001
79.0485
79.0255
175.938
51.3053
116.557
72.3654
51.9799
47.7253
47.3461
47.5184
51.8273
47.8203
92.9471
51.0725
101.116
142.684
69.6034
59.023
60.1981
48.08
59.7277
50.1732
98.2389
112.141
95.0715
51.6121
73.272
77.3171
52.4314
69.4368
48.4747
188.379
101.914
428.853
56.9986
372.382
48.8167
49.9086
49.6788
49.2368
50.6805
75.9536
56.0495
119.794
55.3621
55.0766
99.8672
55.8167
87.2364
49.7665
47.9156
505.846
131.588
49.6217
128.949
74.5695
48.0143
47.9916
48.6257
48.383
51.1784
98.3009
49.0858
66.6674
49.6305
132.142
71.2655
92.9945
73.9983
118.281
84.9831
117.156
49.0204
77.7976
49.7356
49.2244
48.9545
49.4946
48.9245
54.9926
75.5341
67.1504
58.839
49.8692
82.9736
57.9648
76.494
61.2997
112.854
128.442
51.9291
48.0093
48.9593
54.4972
49.6905
75.7632
57.2481
48.8906
350.691
48.6819
48.9692
378.795
345.08
106.448
233.777
408.96
222.871
316.635
358.346
89.3274
81.9026
417.684
161.17
57.3147
437.065
350.405
243.259
451.185
103.785
90.1148
416.623
199.037
232.873
85.6142
63.2542
48.2728
228.908
346.701
236.774
62.3083
47.7147
49.1312
273.839
50.6165
202.941
52.4578
47.764
51.501
51.7654
49.0719
69.7377
49.1301
64.779
97.4824
87.3057
56.2017
61.8565
65.008
63.4008
51.0307
94.7023
92.0594
51.8618
142.436
135.995
56.1759
48.3119
60.7956
58.7365
86.2438
59.4558
55.6303
58.7304
48.1105
102.599
64.5911
72.8951
50.3972
51.0848
65.4086
136.405
49.5816
99.5067
48.2241
48.2884
57.188
99.6693
53.0266
48.1385
81.2424
48.917
94.136
52.2133
53.5261
107.62
51.855
59.8812
123.221
47.1626
54.2461
58.4277
56.8628
48.5381
68.6298
85.4236
59.4101
65.3375
48.0544
50.6849
49.2427
47.8327
54.9942
49.3379
73.2141
49.5724
48.8566
49.0015
58.5605
172.433
47.3922
100.506
88.394
70.5809
98.905
70.6405
57.6103
285.754
273.804
52.76
61.6698
71.8759
67.1133
88.7942
72.5036
63.6479
51.3322
71.2562
89.5012
62.6815
48.2907
137.614
278.395
54.2445
70.4316
52.8655
51.7806
265.706
236.902
87.5379
138.264
284.783
117.924
47.6842
93.5792
81.3736
52.006
49.205
75.3204
56.6696
48.4571
68.9184
48.4608
78.1029
48.4032
82.4223
93.593
48.7171
74.8489
86.6108
48.787
57.2815
51.2087
126.098
83.397
84.6593
72.283
48.7958
102.322
95.1446
94.1302
80.6235
48.221
107.888
55.2815
74.8748
49.0115
98.4119
54.1899
48.8437
112.586
51.9859
57.236
65.0595
61.0363
71.212
62.9864
52.8377
140.179
54.9218
86.5143
62.5873
48.0811
65.0692
110.503
50.9959
84.972
85.9019
117.682
96.2002
102.942
103.616
189.931
51.4297
50.6773
88.6312
47.4972
165.685
168.218
65.3316
69.2047
83.43
74.531
72.0598
72.4773
81.8796
74.8068
89.5229
89.4923
78.1715
89.9697
114.035
122.41
121.718
78.6557
84.5976
58.2319
102.883
87.8309
72.593
59.7981
48.8638
49.3084
58.4801
68.8544
68.7508
50.2985
74.2712
100.725
186.197
299.651
277.562
48.456
65.5762
72.4817
54.575
65.3798
105.316
59.0216
50.9989
69.3417
187.571
68.9572
258.411
335.161
62.5865
71.4385
96.0303
95.205
226.772
387.999
346.019
94.3634
246.134
98.3343
101.721
249.2
73.6053
341.954
320.123
252.524
77.2528
70.5574
101.069
99.7288
72.2507
55.8553
103.208
371.493
82.0102
101.063
106.646
361.736
210.125
393.788
162.056
383.601
548.381
99.3855
89.1276
80.9829
95.3759
74.6926
63.7842
162.899
73.2042
49.4867
311.013
269.19
158.573
53.0261
55.2602
105.096
135.516
105.198
48.7108
48.3847
54.0999
48.134
119.701
57.4567
131.559
313.683
132.349
50.6382
69.4824
47.5849
112.105
53.0145
100.07
99.4021
92.693
284.282
188.272
53.8217
100.663
68.5105
71.394
52.8644
61.3323
109.354
69.7431
57.9475
56.6244
52.8747
71.8583
48.3219
88.9834
108.845
121.737
104.959
55.6616
52.1895
58.8965
55.1017
101.895
98.009
90.7
52.7943
90.0967
52.9438
51.1969
56.415
57.1646
58.4993
78.4346
99.7082
56.1711
91.0465
91.8415
74.4152
73.5619
75.6481
60.3887
105.615
48.2041
83.0007
92.9813
100.555
47.5822
47.8516
47.8648
47.9211
86.3688
99.4562
48.3793
48.7317
48.8784
87.6016
49.4397
52.1874
74.9139
48.0482
47.8518
50.3576
77.0835
65.6459
79.0473
49.6955
49.2484
49.3691
80.6555
50.2158
48.8144
49.5207
49.5834
57.3418
48.6515
47.6322
47.4897
49.0811
48.6906
106.185
78.4034
48.13
50.5432
74.1688
132.475
91.0117
48.7489
58.6401
54.795
47.9586
53.6418
59.135
89.2349
82.3271
47.8006
47.9024
50.8723
49.5526
59.7907
52.1987
48.7682
441.439
102.027
101.398
48.4268
48.5813
52.5863
51.556
49.1276
47.853
82.9882
74.0183
79.9871
288.238
472.383
49.4645
54.631
50.2276
50.2234
52.4704
47.8326
48.0131
52.1417
213.37
100.99
101.743
74.2831
87.5868
48.2153
66.5767
80.993
48.5357
47.8482
47.9103
47.9067
50.3161
48.3674
47.7011
47.9085
48.4581
83.1587
50.0453
56.6493
49.4531
49.6717
102.348
82.6257
52.8536
75.0151
58.4838
60.0657
79.1117
448.717
316.001
264.588
254.387
242.519
160.949
176.352
201.481
265.816
400.625
53.4657
52.6235
77.4883
506.209
401.69
76.4677
77.1122
54.6399
243.432
57.4659
56.3883
54.5899
49.3378
55.646
68.3525
64.7014
66.9767
71.4352
47.9147
61.4859
49.2595
48.6599
51.0468
48.0336
48.7291
74.4854
87.1036
51.2619
48.9729
57.451
65.12
52.3148
59.5217
49.5225
48.2681
49.6628
146.54
70.4735
50.0862
53.8628
84.5229
73.0926
59.3504
53.8565
59.5936
52.8613
59.4174
47.4551
273.493
355.401
47.4702
56.9008
66.2785
53.6279
67.2045
47.8617
48.1192
99.5336
56.6462
48.5289
81.3153
47.9772
78.5404
49.248
89.1661
82.6529
48.8474
81.9929
48.9287
83.2988
112.646
47.6483
56.5621
82.2877
112.542
53.6144
56.4766
77.23
49.0597
52.777
76.3851
60.9341
87.7649
120.502
145.205
80.2766
121.079
48.9555
93.5619
76.1464
73.4692
92.7804
53.176
60.7525
66.6153
71.4521
134.67
257.726
93.2757
63.8363
83.9641
48.1765
55.3659
61.3483
52.87
91.205
111.371
90.0342
64.0715
91.2218
101.067
75.1233
59.6383
68.8733
47.9268
56.3597
72.5892
87.5769
123.042
109.089
53.6995
104.245
49.4729
93.2218
88.4201
53.3279
53.4354
62.0445
116.464
74.8647
83.6066
122.453
47.9226
75.8073
110.946
63.0712
49.0101
47.3561
53.6773
54.3841
55.7783
48.2896
80.7121
69.1279
98.5982
86.2447
93.2947
99.2407
54.6127
95.0244
99.3025
60.6486
64.5523
123.491
49.0113
54.2557
48.752
47.7154
48.6965
49.2174
50.0611
95.0344
47.4096
61.7394
89.6
99.5478
84.7735
54.7254
74.4218
120.704
98.7969
80.178
53.1332
88.7743
52.1546
235.518
85.1645
89.9435
119.521
86.0888
93.8465
49.7597
52.3037
97.5005
48.0936
49.0576
60.724
76.4005
54.7764
66.6108
50.5206
49.619
53.4421
47.8589
111.532
99.7055
53.2282
482.43
470.058
256.611
292.313
424.549
240.834
237.81
243.519
518.22
493.819
372.637
341.163
237.791
283.464
428.112
262.936
365.295
227.429
193.836
356.339
317.335
255.241
240.034
402.854
263.518
468.23
392.18
52.8949
55.6046
59.322
67.1759
48.2108
66.5269
82.5628
74.2788
52.401
48.3338
86.2878
68.8275
50.9563
89.6815
56.2808
50.4976
57.233
89.8118
118.916
174.807
48.2713
73.3578
75.5029
48.9979
67.9732
66.5592
126.279
59.9257
58.9159
115.331
76.1957
71.7682
70.9992
62.8356
49.5079
84.8778
76.9075
53.7109
57.0753
48.105
55.7007
64.5124
76.3072
89.3411
59.7465
67.3228
49.8252
80.4604
61.4022
51.1989
86.7943
60.3687
262.071
117.838
69.318
54.4126
159.195
64.5679
56.8427
73.8537
52.9767
71.9586
73.738
57.9539
76.0193
96.9199
68.4764
97.2419
246.671
49.377
319.53
61.7376
179.157
554.185
669.3
283.279
277.922
281.529
310.364
346.251
133.424
49.1658
76.5921
57.0845
54.0567
50.6578
83.5364
63.922
54.4442
49.6149
65.0471
49.2098
51.8339
48.9711
49.4989
52.5121
52.2831
257.21
49.0741
125.058
210.999
308.042
355.212
104.087
51.5845
49.5234
257.267
55.7813
232.731
48.0861
82.7928
101.772
66.3258
87.5061
351.603
250.867
75.4235
63.9222
62.673
69.117
168.285
89.8038
298.251
383.547
257.725
448.438
48.6704
70.6925
50.4825
70.6807
273.603
179.045
241.642
50.0735
246.571
403.042
158.33
490.509
84.8054
269.463
118.404
120.803
200.076
241.143
358.79
259.046
49.65
50.5451
138.102
53.4431
84.2966
53.0285
84.8603
62.7595
61.5121
71.5071
64.4651
50.6696
71.7915
55.2064
54.1859
53.5636
63.4759
107.032
139.019
77.0249
68.2544
53.4232
56.1295
68.1115
103.834
61.6793
73.5354
50.3823
71.7725
162.55
63.9109
74.9595
54.3243
71.253
48.9678
92.8785
67.2383
50.1165
49.0065
51.923
147.135
84.6042
70.1109
84.5243
51.6087
53.8298
60.9349
58.1259
204.236
55.9666
143.456
81.314
88.5032
53.9428
49.3678
55.1654
182.692
57.0175
52.243
52.5076
58.8589
51.3205
53.6005
54.4654
51.7528
53.0276
54.3975
55.2763
53.6349
54.0165
81.2234
51.5881
54.2965
50.3422
80.2298
60.9249
48.0468
48.8226
51.7173
51.5474
61.7937
54.3274
195.35
48.8393
52.5271
92.9288
355.555
81.4428
49.9677
56.1631
424.967
410.519
354.467
275.544
300.815
185.984
333.946
66.4428
415.136
259.076
54.0026
53.83
54.3891
56.965
52.0598
57.3997
50.568
51.613
51.5473
52.0327
51.6834
54.9207
51.1914
248.844
449.238
529.582
493.087
366.937
365.238
59.0356
295.154
49.1592
60.3281
229.67
66.273
161.933
246.763
217.493
208.692
268.05
171.862
326.756
294.256
409.422
265.252
50.3441
51.7722
55.7544
49.6233
52.5021
136.051
113.838
49.5837
52.1398
48.4521
99.369
47.8811
54.4398
72.6357
48.6481
75.7244
62.5718
48.5679
108.916
51.9971
88.7681
108.106
52.8975
48.4721
49.3433
49.1518
230.946
47.5395
48.6579
51.4309
85.4968
61.308
72.5932
48.9826
87.021
103.623
97.6097
48.4976
75.28
51.679
57.4101
47.7043
47.7152
71.3918
48.5976
50.8687
48.1296
47.983
86.3541
49.2509
47.6556
48.6487
57.22
74.2641
53.7343
47.9732
71.3304
48.6864
73.7467
54.4217
48.242
47.8014
50.3081
52.6452
149.769
222.233
72.5918
104.611
230.798
241.218
82.5043
213.173
291.388
226.323
257.99
185.15
110.436
83.6445
138.561
107.193
53.1155
51.4525
73.3232
71.3431
60.1724
58.7397
52.4589
51.7807
51.5911
52.2201
93.4639
109.513
98.8213
49.5041
49.7114
69.7647
88.7665
98.5053
74.0525
70.8255
113.344
85.5672
55.289
79.8397
49.6419
52.6496
74.2182
126.991
127.493
53.3415
48.1572
52.3947
51.7415
49.5477
49.5216
89.9667
59.812
97.8133
49.8385
54.3185
50.8554
49.1096
48.3939
48.484
48.2891
48.4203
119.75
53.9523
122.887
67.6561
62.298
53.3729
411.511
395.132
344.248
78.6404
52.2095
58.8885
60.0448
61.9495
52.8797
94.7018
120.59
73.0641
47.3516
60.954
69.291
58.1637
74.3845
48.6744
78.1686
76.5652
109.427
47.1895
48.7576
55.4511
49.746
49.3205
58.3713
79.2369
73.455
67.5296
50.0466
50.7014
50.2372
48.3032
97.8301
115.771
147.425
111.901
64.9183
121.47
79.4126
82.1425
72.0466
100.931
83.5999
52.4487
48.9137
51.4287
114.801
51.5754
127.909
94.1702
49.8631
49.8499
80.9851
52.3609
61.4138
107.487
65.9097
50.276
48.0615
48.5337
52.4636
50.6492
71.2307
90.1255
48.0508
62.5245
71.5368
48.5767
93.5993
114.075
48.139
300.069
202.264
245.787
267.473
48.5079
255.579
79.8142
106.875
109.608
229.283
85.0893
56.2441
76.429
62.4943
49.1119
87.9244
413.868
172.487
686.443
327.199
77.6497
77.0209
65.5272
51.826
50.6573
108.755
82.4083
67.6868
86.5335
68.5086
60.3415
64.1884
70.5568
109.788
50.5917
59.9126
50.7484
63.9429
56.8606
62.9137
62.6214
233.03
47.5638
47.6071
48.7817
321.868
206.475
51.269
53.2251
258.404
233.158
349.598
76.0332
49.5702
377.333
76.1954
81.1577
83.049
82.6413
47.6607
306.227
83.7369
48.3193
73.8978
54.2684
52.0632
51.4665
48.8461
405.107
48.3192
297.702
49.6676
59.3873
52.1829
72.8578
56.6261
48.3064
48.4956
48.4107
49.3736
104.794
90.1633
117.576
63.4209
119.469
91.2057
66.7034
49.3289
81.6192
88.1211
48.9781
79.926
54.5058
55.4588
48.4648
48.3449
50.9956
47.4737
47.8659
78.1538
54.1018
47.798
60.5208
108.018
50.1414
90.9715
47.9177
70.3813
59.3678
51.5076
51.8798
64.2617
51.0414
48.5176
112.604
64.2418
53.4043
48.1065
47.9629
102.657
50.2577
51.3216
158.209
105.993
163.526
97.7264
69.0742
54.5585
50.0641
52.1165
56.6195
55.4215
70.1474
53.3106
57.9738
54.3438
133.491
66.484
216.82
145.127
68.2225
87.0806
61.5665
122.297
371.782
259.77
110.979
54.9149
52.6844
51.096
78.4497
93.3374
57.8566
53.719
101.886
51.0342
93.2926
54.266
85.2176
68.1873
58.569
79.58
47.2219
47.7682
70.1832
48.6324
47.7411
59.3845
61.9834
48.6069
111.47
50.6462
364.615
385.757
52.3483
49.0328
60.7811
48.596
109.316
340.886
68.5549
84.2306
180.51
51.9229
165.786
490.666
80.849
96.4709
320.01
51.8887
357.847
627.289
51.1157
76.0402
60.0543
72.2905
56.0267
55.2707
88.3124
56.4363
48.3633
52.2184
55.0431
50.4271
60.5739
52.265
56.6941
409.471
231.643
198.318
223.173
192.073
375.508
54.6625
49.3441
52.5254
82.374
221.805
396.373
95.7728
187.327
356.565
250.452
179.775
71.7763
290.13
244.348
84.1941
55.1813
62.6172
260.012
72.1328
59.2732
67.5663
49.7061
101.392
56.1412
59.5058
58.0466
109.317
55.5707
50.6799
48.7916
89.0889
96.3637
47.9702
72.8709
227.551
78.3348
52.9233
55.3792
62.5491
57.0759
50.3994
94.6408
52.6044
253.234
63.2476
60.4684
51.2034
76.1798
56.1483
52.1083
49.7234
53.8444
56.387
50.5479
95.8839
54.4131
110.262
52.5991
50.0766
59.8635
66.8241
76.1773
49.5509
77.5942
48.4475
48.7038
48.8977
486.265
331.083
264.715
59.6924
211.991
407.346
71.3972
81.0311
251.928
245.056
418.005
237.54
254.125
217.485
269.863
275.178
303.064
156.636
168.294
368.271
263.583
66.6781
212.709
133.185
68.3746
84.8516
69.1822
51.8983
67.3804
57.0524
54.7484
51.155
52.8382
50.2803
408.2
414.971
346.545
52.7673
69.3301
53.9112
54.4032
55.3942
54.421
56.6741
58.9612
67.1319
60.5373
52.7288
212.353
425.988
216.803
55.0483
56.1325
54.0053
284.11
93.1382
132.99
55.7537
70.7752
51.1633
48.7493
46.9916
50.9026
48.309
58.9546
62.4551
109.826
48.9988
47.9052
104.892
49.6837
48.0755
48.6707
80.0702
48.6125
101.473
47.4514
48.7317
55.4384
54.7453
48.8511
87.9804
48.4801
48.0165
97.7993
47.4308
121.059
53.163
53.9209
47.8256
48.726
54.3437
53.9316
84.4446
49.4687
51.5907
48.6603
49.4209
68.0508
61.3054
59.917
52.4988
55.4168
47.7526
47.8023
47.8092
76.2665
89.0238
59.383
47.295
50.0164
48.9848
50.9014
64.7314
57.3569
111.351
48.6681
113.668
66.164
99.0761
48.3548
48.0953
52.709
138.884
81.8965
52.5103
47.4965
49.568
46.9357
71.1082
85.1491
124.226
112.04
94.9842
63.0972
49.9002
55.2728
129.832
69.0725
91.438
99.4993
48.859
50.2483
49.03
122.305
48.7485
62.5576
56.3188
82.0056
58.8505
78.525
59.1931
58.2452
57.3657
121.752
58.6253
55.4042
66.8541
76.0322
48.7058
76.2342
62.8314
53.4447
78.213
47.9356
56.0413
94.0211
95.5602
94.6241
94.9933
55.7476
56.8102
55.8002
57.1403
61.5317
56.6308
49.2747
49.0612
51.804
49.282
48.5135
53.8576
47.989
50.5833
100.403
54.7667
61.394
48.3747
54.0187
50.2989
63.2326
64.5696
80.2307
49.3684
60.1543
80.4168
114.051
58.9523
51.3337
111.212
115.625
53.4052
136.816
65.0635
67.3155
48.4046
74.6816
50.0668
93.2255
48.363
58.9387
74.9978
84.251
58.8468
77.9739
115.453
48.1742
94.814
82.2516
116.794
54.7596
48.719
87.7809
103.137
95.8107
49.7258
98.2374
73.8168
81.7581
99.3625
58.4889
111.072
50.311
57.6347
406.208
524.624
294.626
53.8831
87.3925
492.539
80.1434
226.296
245.485
88.7807
320.595
54.538
49.2342
86.5752
59.7104
48.7992
48.7604
54.4761
54.2044
53.2731
70.6072
53.9419
65.8158
48.9867
50.7271
69.5188
390.087
66.5259
53.3947
53.572
287.108
241.904
159.649
294.726
289.669
53.5782
442.166
70.808
75.215
348.338
248.667
401.288
215.194
49.2116
81.0907
49.9354
85.8465
61.5924
81.5597
48.5007
48.8966
66.1751
49.0176
77.1094
56.6887
49.6085
61.5134
75.7346
47.5699
49.1765
367.13
86.1518
48.3922
50.8648
49.7448
49.7189
101.488
54.1869
49.1392
49.7724
50.8911
520.561
48.1101
268.215
56.1593
117.076
340.932
364.938
47.7425
431.1
50.8168
81.3176
285.305
54.1005
54.6888
58.155
57.4118
80.9732
48.3211
51.1451
85.0156
52.5022
287.178
263.786
350.692
647.808
57.1153
62.2586
101.063
53.3097
53.8527
391.275
53.0993
56.6153
87.8238
136.37
77.3105
312.415
166.85
50.329
206.346
68.2616
47.1455
50.845
70.1496
50.9851
106.871
47.6484
134.161
120.738
99.8983
109.501
395.529
485.687
247.022
85.9294
72.7315
203.395
57.3324
82.0186
100.224
55.2089
298.493
241.206
50.1022
253.972
254.014
62.2731
63.7644
55.7818
49.7218
60.2235
104.506
49.0307
71.3657
67.0998
50.9209
52.0947
54.7315
49.8863
63.2136
48.6741
55.6374
73.1364
48.4306
63.9826
283.978
240.837
507.63
92.524
49.6929
62.645
48.7509
85.1044
76.2153
63.5468
89.423
53.8332
49.53
273.602
48.3918
52.8215
413.382
118.952
54.0796
53.3207
58.9563
94.9704
50.3196
81.4116
71.642
75.7581
70.9283
106.634
96.8019
112.065
64.0383
63.6394
53.1781
115.694
55.5535
53.2836
60.116
164.285
178.784
58.6215
563.278
223.917
100.062
47.8004
72.0527
288.645
331.531
268.357
289.64
260.063
62.9095
110.087
112.775
90.0217
79.5857
124.934
65.0774
143.996
182.533
276.217
261.9
79.604
80.3734
114.114
91.384
140.418
110.477
68.3215
76.3997
82.7105
70.2137
52.1249
50.9172
73.918
70.1608
93.3427
91.267
92.493
429.916
199.833
238.804
169.259
281.326
782.446
98.8044
71.891
289.623
72.8901
81.317
77.0753
82.4521
147.998
128.209
61.9778
78.8451
274.438
322.141
407.042
59.538
67.5774
336.444
278.023
51.5347
105.775
55.6662
60.4886
51.4677
57.0329
53.1157
51.8348
71.2936
111.651
64.9346
124.103
51.9861
143.842
54.8959
60.1865
56.0071
52.963
53.8293
86.746
55.4834
55.1381
77.1904
59.7051
103.061
128.226
179.041
84.6676
88.3878
86.5187
85.1192
49.1196
47.8226
47.722
54.3025
51.534
51.0907
103.155
52.1542
53.0091
52.6376
57.0981
51.8029
63.7578
59.521
77.4834
54.0894
97.6216
91.5859
61.0588
59.8852
52.6054
54.7491
53.1949
51.2187
97.5959
48.1384
69.8381
56.2654
75.9812
47.7676
84.5999
67.0453
65.8395
51.333
90.2699
92.0235
140.901
89.2324
51.3043
93.6746
93.6084
48.3038
51.0967
119.81
128.201
115.53
159.719
53.3022
338.943
400.051
599.134
716.078
84.069
134.148
151.618
113.818
79.5446
57.6879
56.7154
56.7094
53.8887
54.19
73.0224
83.4653
57.5672
49.3205
47.5548
50.6952
52.6885
101.964
52.873
85.3206
55.7779
52.1645
48.1538
47.9715
48.2819
47.6851
58.4235
56.415
66.9455
48.3243
69.8204
480.711
209.74
248.209
50.8658
50.5567
48.108
49.4589
72.2658
62.7421
50.5921
56.6413
214.973
47.6178
64.8875
62.497
64.7979
107.279
108.497
137.24
87.0093
138.74
74.7671
77.9694
125.505
89.686
75.3445
68.722
236.935
326.755
256.85
423.983
122.969
87.3034
61.1573
55.1992
194.3
60.8865
51.5243
72.3627
78.0608
58.8068
51.3171
47.583
50.0785
49.2822
49.9894
47.9668
99.653
54.1305
47.8521
48.8893
51.2178
55.2029
49.1374
51.4867
48.9654
49.9893
79.6491
51.3077
104.025
109.391
110.475
51.8704
49.8885
49.1332
48.1772
54.71
60.9146
108.249
48.1914
52.5724
75.3764
81.9331
47.4841
61.9456
47.7757
88.6463
75.5635
65.3562
64.8004
48.7841
51.7111
47.1455
52.9353
98.6072
47.6252
47.6948
61.1944
48.0129
48.2446
47.8234
98.6064
48.0055
50.118
49.8517
64.2421
48.6167
50.4623
50.8145
49.0901
49.6196
49.4618
55.7757
73.6116
50.6521
81.0084
92.0093
73.6523
91.7376
92.4858
211.454
334.744
201.801
319.902
101.493
111.672
306.07
69.4673
93.8739
97.3475
86.907
98.5014
124.637
68.2952
135.91
200.765
52.7211
202.584
127.484
88.7688
96.8622
48.9454
49.8008
83.3322
49.2814
48.6172
70.7733
70.6025
55.4314
64.5135
98.7114
50.0658
128.643
73.3761
96.9805
77.4426
78.0077
50.7747
75.604
67.5077
49.8813
89.0241
55.2572
96.7718
54.6972
48.3524
99.9855
54.7371
64.2985
49.3777
48.3493
47.662
48.4033
94.2697
56.1188
309.063
126.459
264.174
333.791
94.4374
92.4893
52.6164
93.9828
75.7128
93.9722