/*--------------------------------*- C++ -*----------------------------------*\
| =========                 |                                                 |
| \\      /  F ield         | OpenFOAM: The Open Source CFD Toolbox           |
|  \\    /   O peration     | Version:  2506                                  |
|   \\  /    A nd           | Website:  www.openfoam.com                      |
|    \\/     M anipulation  |                                                 |
\*---------------------------------------------------------------------------*/
FoamFile
{
    version     2.0;
    format      ascii;
    arch        "LSB;label=32;scalar=64";
    class       volScalarField;
    location    "0.0207921";
    object      p;
}
// * * * * * * * * * * * * * * * * * * * * * * * * * * * * * * * * * * * * * //

dimensions      [0 2 -2 0 0 0 0];

internalField   nonuniform List<scalar> 
3946
(
1.32978
1.75417
0.402126
1.19299
1.67395
0.946424
1.20038
0.661656
1.10724
1.83583
1.27687
0.348368
-0.0472078
1.78183
1.00033
1.49962
1.54935
1.27023
1.20387
0.768635
1.82405
1.75559
0.579304
-0.742632
1.34393
0.826884
1.37605
0.704757
0.648731
1.35688
1.22012
0.648235
0.790154
1.11266
1.52438
1.51784
1.92687
1.40988
1.87509
1.28299
1.25976
0.947938
-0.173925
1.77935
1.11443
0.794038
2.05627
1.64528
0.893301
1.10599
1.25648
1.20699
1.54269
0.968816
0.943478
1.14754
0.939658
1.01225
1.40711
1.39877
1.07281
-46.5775
0.880615
0.395858
0.284107
-47.5501
-49.5749
-46.8171
-46.9746
0.997271
1.41939
1.78238
-4.70594
0.916936
0.690647
1.17766
1.08602
0.834222
0.242786
1.79128
-49.8736
-3.83626
0.24089
1.64247
1.32075
-51.2749
-2.97158
-46.5639
-49.4598
-49.7843
-67.7721
-56.0475
1.49674
1.37809
1.1051
0.756948
1.54227
1.68857
2.4037
0.89714
0.98053
1.7326
1.61533
-9.70412
1.0116
1.47741
-0.216254
1.41004
0.442327
1.0588
-3.03883
0.979177
1.42428
1.62562
2.41214
0.657365
-3.53866
1.20773
-44.9538
-47.1665
1.6456
0.768489
0.993364
2.01058
1.05495
1.11016
-67.4365
-2.72077
0.612416
0.714885
0.812693
-64.3147
1.08197
0.867084
0.221969
0.635217
1.25088
-50.7019
1.35422
-20.955
-31.075
-66.1095
-46.6044
1.47439
-3.97378
0.962289
1.38611
1.17135
-0.115995
-0.909848
2.28958
1.63149
2.29724
0.665112
1.22586
0.653718
0.479271
1.29609
0.627139
2.30157
1.52675
1.4304
-14.8562
1.49152
0.713269
1.45487
1.36674
2.15916
1.84962
-14.7752
1.1886
-36.7178
1.35741
1.65557
1.37261
0.714932
1.56721
0.785711
0.987946
1.57978
1.11286
1.12957
0.979138
1.65613
2.03487
1.31756
1.97771
0.324236
1.38271
0.77411
2.11231
1.92217
-46.3279
0.962667
-51.7938
-52.1763
-51.8572
1.3528
1.0386
0.706822
0.948745
1.0502
1.04
1.12143
1.43756
1.03991
1.18048
0.267025
1.31291
1.23394
1.58223
1.04099
1.64352
1.81266
1.94914
1.56586
1.47661
1.57665
1.11644
1.24646
-45.3246
-50.1444
1.74813
1.00977
1.46963
-48.8345
-49.9329
0.222633
0.813552
-50.0822
-0.898717
1.64186
1.10284
0.0615533
1.10303
1.69508
1.07783
0.630664
0.683852
1.21503
1.0187
-46.4881
-45.4035
-17.398
1.29654
0.722675
1.03112
1.2074
0.791955
1.42029
1.48641
-26.1714
0.593288
1.5038
0.898005
0.806296
1.01944
1.37025
2.22487
1.93986
2.39527
-45.1809
-47.2998
0.372164
1.18805
1.67102
1.13541
0.577028
0.710833
0.608988
0.755164
2.69069
1.19009
1.86768
1.72298
1.74599
2.1916
2.62773
1.94795
1.48231
-0.0432235
0.38711
1.97806
1.72274
1.81358
-0.366746
2.52583
1.33698
1.10681
1.81164
2.04494
1.54133
1.70355
1.38789
0.967869
1.7195
1.18707
0.507169
0.949374
-48.3736
1.33958
-49.3833
-48.1594
-50.4183
-0.901439
1.34017
-25.3899
-2.95827
1.33846
-45.6091
-46.7736
-48.665
-46.2609
-46.6737
0.927134
-72.1832
1.56874
1.46724
1.54045
-24.7198
1.2849
-39.9036
1.43995
1.44915
1.47099
1.03096
1.47288
0.313336
1.16331
3.39593
-0.88218
0.891559
0.552652
-58.7946
-56.9155
0.789331
1.01184
-46.208
-48.4743
-46.3509
0.953689
-62.5301
-51.3393
1.41783
-54.5527
-6.62894
1.15728
1.46421
-2.99738
-46.535
-49.7863
0.734474
-68.2085
1.64069
-52.0609
-50.7063
-9.80544
0.792179
-57.1713
-50.302
-14.0096
-68.4413
1.74774
-4.33242
-56.9165
-45.4924
-2.0179
-49.1474
-50.9206
-51.4373
-46.5738
-47.9929
1.90855
1.10808
1.31834
1.33331
1.78453
0.725779
-0.893185
-6.73126
1.87303
-2.59761
1.95144
1.47569
0.0755246
1.26999
-0.442353
1.15371
2.27771
0.745418
-55.7944
1.6665
1.45434
-46.4098
0.17886
-50.778
1.78123
-3.3247
2.07764
1.57778
0.966879
1.57864
1.89703
1.39067
-0.307988
0.822199
-0.847889
2.16654
1.42399
1.69591
3.74459
1.32385
1.21215
1.77868
1.81573
2.03075
1.09599
0.818988
0.600854
-1.37287
0.716862
-0.22111
1.10014
-13.9515
1.52306
0.249639
1.57211
1.2813
1.13004
0.646304
1.10964
1.34017
1.28292
1.27502
-0.688099
1.13944
1.03446
1.36914
2.09932
1.45866
1.60168
1.61401
1.43602
1.39667
0.882054
-69.034
-32.307
1.23242
1.40151
1.5355
1.63895
1.27556
1.40142
1.30655
1.05594
1.47991
1.68258
1.02041
1.36661
1.61922
0.652048
0.712404
-51.2462
-22.0846
-63.479
-34.7861
1.24498
-3.91519
-55.3215
-3.65272
-1.30815
3.33773
1.76721
1.89429
0.416403
1.03831
1.88468
1.49357
0.903916
1.57766
-48.1379
-67.419
-71.5571
1.80549
0.891909
1.04009
0.514336
1.72586
1.55879
1.5879
1.69232
1.28051
1.39553
1.16544
1.2186
1.57299
0.937889
1.8062
1.64761
1.18925
1.54802
2.15177
1.68683
2.06268
1.71987
1.40204
1.5862
-29.0816
-52.3805
1.25954
-61.0589
-54.3651
1.09072
2.87987
-2.25658
-21.0906
0.450993
1.65716
0.201554
1.28026
1.3174
2.05346
1.98917
1.88511
1.59483
1.19592
1.32314
1.47431
1.15013
-15.9945
-41.358
-3.9884
1.35406
-66.3542
-46.738
-4.9125
1.03055
0.772602
1.69521
1.14851
1.82766
1.43729
-2.59244
1.14975
1.0928
0.154931
0.656558
0.83931
0.936403
1.09347
0.70095
0.639188
1.43216
1.0855
0.843822
1.09513
1.04702
0.793897
1.29087
0.639182
0.756912
1.421
1.21983
1.19014
0.698036
0.996785
-0.517448
0.807284
0.882033
-66.8306
0.837361
1.12572
1.24942
0.976363
0.23435
1.31056
0.729157
1.04214
1.16113
1.88597
0.687886
1.45183
0.797889
1.25359
0.778958
1.21554
1.31978
1.32043
1.22863
1.34809
0.706203
1.07757
1.6516
1.15166
0.173191
1.50456
0.862684
0.678768
0.87386
-3.80598
1.02625
1.02162
1.27338
-16.0785
1.44177
2.04279
1.9834
1.36428
1.81427
1.23259
1.10176
1.07039
0.495046
1.25616
1.07623
0.0195237
1.05484
1.13757
0.877174
1.3913
1.57493
-49.0624
-50.6943
-56.273
2.60422
1.69025
1.40148
0.546029
1.31415
0.587355
0.597667
1.1015
3.67272
-1.23615
1.15072
-3.96989
1.00211
2.18666
0.551761
2.68232
1.29026
-0.550827
1.0142
1.40338
1.40231
1.41
1.40147
2.24972
0.713544
1.72098
1.22153
0.778533
1.53299
0.423545
1.7715
1.32634
3.00976
1.59152
1.88407
1.59239
1.08864
1.06302
1.84028
0.9082
1.21312
1.42874
0.93934
-5.04056
1.71629
1.52928
1.54872
1.18618
1.17457
-60.6889
-62.9294
-55.4976
1.29334
1.54888
1.5119
1.08054
0.901579
-56.0421
0.575761
-58.2232
1.28054
1.34931
0.338452
1.46672
1.91168
1.50148
1.06576
1.26936
1.17585
1.33371
0.674756
0.91196
-27.1706
-28.4702
1.37764
-4.90456
-34.2327
1.05909
1.39602
-1.54043
0.696637
1.07089
0.524757
1.11665
1.9648
1.84502
2.51814
1.16524
0.929065
1.04409
0.632263
0.467072
1.29504
1.25664
1.04245
1.22318
1.12187
1.02386
0.152435
0.869386
0.334197
1.69821
1.70727
-0.356957
0.778264
0.558557
1.8638
1.16251
0.620552
1.27005
1.14033
1.37409
0.559833
0.486784
1.1683
1.03772
1.31299
0.962601
1.05667
0.66235
1.52969
1.45099
1.71841
1.81986
1.26727
2.0109
-50.828
-50.1754
1.13251
-29.4498
-38.1145
-40.7465
-44.1692
1.05417
-58.8668
-51.1775
-47.6782
3.74118
1.78171
1.34184
0.436322
0.683381
-47.5025
-0.727401
-2.68736
-1.41264
-0.137578
1.51307
0.793705
-42.5189
-50.4197
-72.277
-49.9757
-53.5114
-50.3937
1.46322
0.212785
0.615504
0.388453
2.26891
1.32995
1.26228
0.798295
0.828761
1.37783
1.31286
-46.6629
1.10616
0.62928
1.50961
0.408441
1.46829
1.03993
1.217
1.4747
1.44234
1.70274
1.25609
1.51879
1.90368
1.59338
1.00061
1.54027
1.30135
1.94911
0.316636
0.792936
0.473456
2.1393
1.01575
1.5167
0.929184
0.598764
-1.46209
-3.49285
1.71103
1.71047
-0.874046
-0.596145
1.68221
-0.400324
1.71912
-0.605325
2.08176
2.23918
0.622511
2.62956
0.759186
1.23595
2.00413
0.752945
0.990541
-54.3195
1.61538
0.988854
1.8881
-57.8159
1.73877
1.40331
-3.49817
1.69125
-66.1225
-59.7057
-51.4006
-10.4081
-1.5826
-37.157
-22.7263
-2.56612
1.60018
-47.0057
-45.7107
4.18608
1.90605
1.4117
1.57787
0.556328
1.45726
1.81315
1.54879
1.81916
1.43567
1.51688
1.06649
1.94341
0.914482
1.94065
1.6575
2.35063
2.28717
0.865621
0.962277
1.73277
1.97077
1.15016
1.21265
1.14051
1.20097
1.45446
0.982572
0.556956
0.883881
0.76883
1.46124
1.04704
1.27999
1.09017
1.69037
1.06043
1.16329
1.38284
1.66927
0.892798
1.57652
2.39541
3.16641
1.76065
1.45904
1.44317
1.94569
0.986886
1.74389
0.562801
-21.1536
-63.3214
-0.102295
-2.39692
-50.5511
1.02091
1.45608
1.75533
1.95334
1.14383
-9.74645
0.609686
-55.7719
-37.2377
-9.31554
-54.2678
1.49024
0.858059
0.628018
-16.9694
0.923914
0.931968
1.35346
-23.4415
-54.3081
-49.6208
-56.6563
-40.4415
-48.7814
1.50933
-10.4728
-40.4127
1.25506
-8.47243
-39.7227
-9.88731
1.94482
-51.8331
-46.5529
1.2651
-47.7114
-1.47012
-70.4163
-65.2467
1.29194
-45.1872
-46.7052
-47.8731
1.08353
-4.5914
-46.9538
1.87096
1.81645
1.63671
-34.8395
-15.9414
0.506838
1.6631
2.14943
1.66825
1.32528
0.496406
0.780668
3.12601
1.16284
1.67511
0.667364
-13.8932
-5.70623
-6.1593
-4.58445
-38.8939
-33.8158
1.53797
0.688149
0.370615
-2.22577
-5.8687
-0.0932346
2.08857
1.56449
-7.81131
1.82277
1.61425
1.98364
2.0738
0.77828
1.26946
2.89391
1.15816
1.65796
1.2978
0.72217
1.37654
1.6308
0.962749
1.46356
0.937274
1.88553
1.96687
1.22434
-48.4016
-49.3921
1.85628
-0.267475
1.04354
0.989386
1.27733
-1.49865
1.66977
0.860717
1.62021
1.96407
-0.729649
0.984829
-2.48617
-2.11881
1.6986
-11.2423
1.05405
1.71914
1.03964
1.87047
2.65039
1.22801
1.12872
1.17588
0.502526
0.24555
1.44667
0.943629
1.44716
0.94035
-0.0488724
1.2279
0.814761
-0.220663
1.22236
1.33058
-46.6962
-60.2449
1.67769
-9.64059
-50.5726
-6.78557
-45.8046
-1.89728
-47.225
-15.8778
-41.5243
0.66305
-0.550146
0.851343
0.888998
1.11953
1.41957
-7.76002
-22.1666
0.143767
0.135082
1.0763
1.33804
1.12075
1.14069
0.846835
0.885531
1.45067
0.51531
1.42568
0.311445
1.07902
1.59018
1.58814
0.872053
2.25661
0.946901
1.16391
2.01478
0.644998
0.679149
1.69841
1.73489
1.63138
1.61042
0.835306
1.11492
1.15215
1.20166
0.905817
1.04358
1.20059
1.87612
-28.0134
-47.305
-1.15945
0.941429
1.75634
-0.715043
1.83892
0.359927
0.829301
0.90486
1.59123
1.37824
0.746254
0.935424
0.606283
1.0725
-0.876457
-50.1339
-62.6397
-66.9453
-80.1047
-59.3543
0.613718
1.64509
0.84669
0.583589
0.737288
0.803256
0.664787
0.842572
1.32618
1.1626
1.0571
1.3063
1.23472
1.47448
0.449828
1.31598
1.4943
0.9358
0.911807
0.885174
1.04744
-3.61683
2.40721
2.38781
1.95889
-0.918569
1.06455
0.847334
1.19277
2.17466
1.05076
1.06477
1.3424
0.512028
1.22352
0.968979
0.60741
1.55832
0.487441
0.778158
1.17268
1.18596
0.965483
1.3285
1.22213
0.338245
1.3714
1.27337
1.01546
1.70705
1.57183
1.11395
1.28223
0.937165
0.993239
0.82055
1.81614
0.591872
1.43717
1.39257
0.510929
1.02495
1.41767
1.3902
1.55523
1.00131
0.984465
1.1534
1.23953
1.17813
0.691302
0.837875
1.69606
1.50765
0.586958
0.0559374
0.613421
0.447474
0.647403
0.771877
0.88144
0.84617
1.12172
1.29055
1.25422
1.48446
1.02352
1.02703
0.73589
1.00741
0.237523
0.865242
0.757966
0.727363
0.574108
1.13212
0.697099
0.689426
1.5669
0.958441
1.16181
1.5972
0.947018
1.17843
1.19917
1.62243
1.41009
1.13874
1.43387
1.13445
1.10458
0.949417
1.2246
-23.976
1.04372
1.00131
1.0823
1.01878
0.997688
1.38155
0.816493
1.79429
1.57259
1.43273
1.04447
1.3506
0.479382
0.243073
0.475643
1.91551
1.24105
1.2231
0.650182
-0.166786
1.41062
1.09276
1.32636
1.31978
1.17405
0.766961
0.802527
1.1798
-41.6285
1.03402
1.06424
1.21552
0.9672
1.16571
1.11123
1.07777
1.1938
0.845598
1.98368
1.88583
1.95197
1.61124
1.34217
1.27
0.997389
2.06978
2.44048
1.86242
0.279523
1.19072
1.60809
1.11946
1.24123
1.02643
0.937634
1.19194
0.743858
1.27288
1.77779
1.24391
4.14189
2.23387
0.841338
1.62925
1.00559
1.14296
1.19661
1.60162
1.54715
1.43444
1.29988
1.01672
1.51673
1.09022
1.77482
0.682763
0.914469
1.654
1.32611
1.27075
0.969172
1.50693
0.725092
1.58772
0.810476
1.01502
0.84285
1.02429
1.18788
1.57356
1.47169
0.986031
1.44826
0.831153
1.42594
1.31987
0.874293
1.08905
2.02271
-40.9084
1.6444
1.46242
0.729582
1.2004
1.3237
1.28022
1.20163
1.05944
1.23353
2.00834
1.1617
1.95098
-19.6383
1.15909
0.896739
1.37885
0.320669
1.26748
1.35596
0.879434
1.18512
0.174129
1.02795
1.01278
-2.61453
1.36621
0.926519
0.154273
0.922762
1.07464
-50.1355
0.763226
-49.2676
0.934619
1.18795
1.49552
1.53392
1.70505
1.65999
1.11723
1.68029
1.18785
1.11629
-1.14779
1.4383
2.12839
1.80212
0.83163
-47.5516
2.8201
0.28373
1.04177
0.461038
1.19544
1.07392
1.215
0.905618
1.74124
1.52408
1.53883
0.483115
1.03722
0.742273
1.06204
2.35267
1.07797
0.509671
1.96347
1.82564
1.07374
0.919926
1.06586
0.427579
1.13349
0.889646
0.590613
1.37408
0.725659
0.793786
0.723396
1.09915
1.02372
0.980197
1.06891
0.68759
0.784161
-7.72582
1.38878
0.74693
0.85606
0.551702
1.10299
1.37216
1.72476
0.977752
-52.3985
1.1511
1.06931
-50.491
-46.0306
1.00818
-43.7582
-66.5451
-45.2184
-63.8667
-46.7235
1.16332
0.854212
-7.5627
-7.02735
1.02127
-45.827
-63.1495
-49.6546
-49.7996
1.12099
-4.07245
-61.803
-10.8209
-29.1625
-15.6035
2.45825
0.881438
-53.4005
-47.4422
-58.0927
0.470347
1.33838
0.948184
-36.9663
1.2682
-55.4731
1.47166
0.742336
1.44452
0.0126073
1.49164
-0.535487
1.55931
1.54339
2.17717
1.63251
0.7294
1.83438
0.91617
0.890283
1.22492
1.79875
1.33533
1.76367
2.44732
1.61484
1.37043
0.977284
1.28476
0.121304
1.04686
1.96118
0.49437
1.10536
1.12775
1.2252
1.17755
1.53231
1.31539
1.57091
2.8503
-0.131434
1.46907
-20.2339
1.11445
1.23701
0.673395
1.17825
0.714643
1.19462
0.423898
1.91238
1.49098
-0.588189
1.97025
1.16793
1.5365
1.24528
0.757804
0.781907
1.40555
0.93452
0.6918
1.83187
1.25483
5.1038
1.24868
4.41277
0.979924
0.979108
0.640406
0.684812
1.65565
0.750985
0.874223
0.989331
1.01002
0.657309
0.448198
-34.0304
1.01901
0.795282
0.31955
1.23889
2.09573
1.31053
1.72839
-48.6352
-50.57
1.29788
-0.50742
0.294255
1.40946
0.554983
0.959266
1.30204
1.84065
1.58404
1.06375
0.733546
0.925073
1.28587
-46.4051
1.72614
2.0249
1.30064
1.41
-40.0942
-7.59766
0.135815
1.15907
-22.3772
1.90653
0.965887
1.05349
3.46672
1.59649
1.38919
0.677769
0.759715
0.66299
0.583017
0.975117
0.667352
1.45614
1.29129
2.1024
0.946178
0.941639
1.54974
1.51349
1.38163
1.26562
1.30432
1.1397
1.05285
0.990155
1.10159
0.289375
0.845878
1.02356
0.898175
0.444533
1.75449
0.593984
0.381994
1.14983
2.10114
1.08837
1.18096
0.741969
1.66038
1.22137
1.26328
1.20539
1.80178
2.02897
1.81538
1.73995
1.56169
1.84022
0.635622
0.246041
0.459294
0.104003
1.52634
1.05115
1.9358
0.470955
1.46552
0.759884
0.408964
-12.9149
0.807108
1.83304
0.910324
0.859176
1.6326
1.41484
1.13567
1.31294
0.991534
0.491693
1.11675
1.16608
1.17316
0.261725
1.18998
1.38187
0.37631
1.31216
1.65023
1.87024
1.13351
0.533443
1.08534
0.618479
0.100739
1.38736
-3.38802
0.384411
1.31092
0.448441
0.819978
0.757589
0.468111
0.292287
1.25692
0.576137
-12.8948
-41.8397
-64.1496
1.32157
0.671893
1.79409
1.89937
0.92069
-0.144999
1.62274
0.993223
2.91066
-46.2329
-0.356724
-36.4731
-63.6098
1.14793
1.68593
1.6563
1.08861
-52.8326
-52.1652
-68.6296
3.04816
-23.252
-7.33718
1.64554
-9.08682
1.03063
-50.4093
-32.4389
-58.0514
0.824497
1.41138
0.98245
0.88203
1.83081
1.56336
-4.14708
-74.3083
1.47782
1.47043
0.827765
-47.4829
-47.9899
-8.89124
3.53475
-48.9876
-23.9942
1.14876
1.36793
0.83377
0.695286
-1.39741
1.54254
1.07685
1.64964
0.740431
-36.3373
-41.4975
0.916532
1.55004
1.48932
1.20307
1.46434
1.52722
1.06302
1.35302
1.79402
1.13427
1.40827
1.74248
1.24386
-40.1591
0.963865
1.21049
1.10385
0.951453
0.851689
2.34353
1.34841
0.578109
1.79107
-42.3217
0.113407
1.81618
1.85633
-1.35612
2.11051
1.57513
1.24545
2.38038
0.63075
2.11454
2.55686
2.24074
-1.6396
1.2807
1.7579
2.79645
-2.12364
0.989536
1.49236
1.51123
1.29303
2.14788
1.51883
1.81618
1.14843
0.616623
1.01713
1.69757
1.75574
1.47237
1.94527
1.52459
0.163127
1.68496
1.82592
1.25694
1.21247
1.05702
0.727039
0.784931
1.03615
1.64729
1.58891
-2.38308
-2.6842
-0.155299
0.791104
0.78667
1.26663
0.544796
1.38732
1.21471
1.00984
0.815858
1.37086
1.23394
1.18771
1.28983
1.10086
1.07084
1.10695
1.56505
2.06871
0.850027
0.79808
1.81775
1.42941
1.11989
0.457571
1.28644
1.34107
1.35062
1.41215
1.05513
1.16949
1.08883
0.965569
0.670609
1.21328
0.257457
2.3045
1.469
1.23306
0.667192
1.05158
0.228404
1.07568
1.29917
1.16288
0.881609
1.47979
1.27293
0.190251
0.734221
0.826705
0.557443
1.4146
1.88151
1.14239
1.60716
1.19566
-47.1196
0.595836
1.15301
1.76433
1.08711
0.831032
1.65211
0.101109
1.54728
1.99142
-0.908912
1.30653
-49.1268
-52.1797
0.911341
1.67865
0.648811
0.957779
1.07101
1.31201
1.39071
1.84747
-44.3508
1.5473
1.16841
0.125133
1.01076
1.13106
0.995161
0.909828
1.21863
1.15709
1.03161
0.946773
1.07004
0.911736
0.865389
1.00928
0.921863
0.391837
0.883391
1.21818
0.916684
0.875419
-6.62509
-0.288038
1.55433
0.176916
1.57785
1.09752
1.16564
-40.4819
-45.5814
-56.821
-13.3608
-29.8103
0.90606
-26.8688
-8.36265
-46.3458
-46.8713
1.3798
1.26781
1.47405
-47.0434
-46.4734
1.26259
1.10006
0.338358
-55.3942
1.76585
0.14569
1.04785
0.729878
0.849497
0.801661
1.27748
1.06319
1.47968
1.11733
1.2195
0.358485
1.20679
1.36863
0.507353
0.936296
0.811639
1.85565
1.1505
1.78812
0.746696
1.16585
1.28815
1.0427
1.37645
0.940287
0.458732
0.717065
1.58067
0.853548
0.764664
-5.08581
1.47665
0.938069
0.759589
0.499438
1.19806
0.576803
1.07774
-53.0899
-49.8175
1.12453
1.34385
1.02985
1.15372
1.06149
0.538777
1.3749
1.6105
0.301057
1.21726
1.02785
0.749722
0.238758
1.00372
1.39887
1.69257
0.48937
0.477863
1.15821
1.52727
1.54909
0.588968
1.60684
1.79856
1.34806
1.10506
0.318755
-0.23184
1.40177
1.06757
1.56609
1.10669
1.03607
1.37815
2.68401
-1.16434
1.07819
1.15908
1.19529
0.476524
1.09073
1.33387
1.12897
1.27691
0.686834
1.08554
1.8092
-58.5765
0.897863
0.666113
1.3903
1.18457
0.749942
1.8468
1.5079
-4.88198
0.956638
1.71552
-0.420975
1.70865
1.27648
1.49166
-1.88094
1.64604
1.14016
0.993433
1.40355
1.66094
1.41438
1.50927
1.72171
-0.321876
1.02064
1.11981
0.962996
1.13667
1.60345
1.18892
1.19622
1.62869
0.727881
0.626852
0.927016
1.63885
0.44097
0.851359
1.47375
1.04351
1.08475
1.94851
1.14075
1.02776
1.32396
1.3548
2.09549
1.20926
0.730537
0.836286
1.37927
1.08365
2.23496
1.36665
1.99144
0.44021
1.08624
0.780508
1.23633
1.20866
1.34592
1.3869
1.60473
1.42523
0.890138
0.331618
0.522877
2.21263
1.10788
1.28975
1.14649
1.2548
1.70004
0.767347
1.55469
1.43738
1.18152
-50.927
0.531798
0.953959
0.0581043
1.42229
1.85712
1.14863
1.39215
1.26102
1.0404
1.92747
1.2483
0.973287
1.02566
0.956028
0.988909
0.715478
1.81944
0.147679
1.49195
2.2033
2.11689
-51.804
-46.1925
-57.177
-41.6966
-49.23
-51.2109
-54.2456
-48.5456
-51.6158
-48.7619
-48.5938
-48.1193
-53.3989
-62.2693
-46.527
-49.4777
-50.3382
-54.1125
-54.029
-50.9825
-57.5896
-54.1164
-55.3508
-46.4396
-52.0362
-45.8222
-72.1731
1.945
1.69406
1.43712
1.35843
1.04075
0.934783
1.66647
1.35409
1.80108
0.883285
1.10258
0.914521
0.965945
1.22606
1.5624
1.16813
0.599862
1.95951
1.93045
-0.442314
1.10335
1.26767
1.47512
1.6529
0.598847
0.542838
1.50352
0.697362
0.674103
-2.17355
1.12745
0.926847
0.566596
0.670827
1.40327
-0.839629
0.0440315
1.90483
1.81928
0.968293
1.7645
0.904673
1.05037
2.75391
0.869795
-1.27002
1.07437
0.0722552
0.906297
1.20727
1.64554
1.25025
-8.74299
0.68907
0.860271
1.25065
0.843882
1.62091
0.0561529
-5.00813
1.70416
2.94857
-6.3668
1.30871
1.8297
1.31081
0.791353
0.834399
-54.059
1.27993
-54.1349
1.45765
-32.7958
-16.2947
-16.3507
-18.1265
-12.6263
-53.7285
-54.5375
-66.5759
-12.5674
1.45579
1.5029
1.01535
2.54285
1.08133
1.60197
0.972431
0.475914
1.60436
1.28773
1.57882
1.75544
1.31231
1.39021
1.72305
1.5796
-55.8158
1.49024
-0.319806
-18.4966
-63.1439
-38.711
1.05294
1.24736
0.924168
-34.2159
1.28404
-23.5813
1.04292
0.539848
0.0358474
1.10228
-1.53562
-67.6692
-44.8805
-0.980584
2.28382
0.510698
-2.68694
-12.4112
-4.85803
-64.0381
-48.5685
-54.0968
-50.7043
1.13776
1.38154
1.77037
2.80903
2.4363
-9.54507
-38.8494
1.76532
-32.1503
-49.2415
-4.29928
-6.3195
-5.24878
-35.9044
0.0345703
1.54438
-39.8479
-43.7773
-60.5243
-53.9607
1.51215
1.80216
-33.7399
1.52844
-21.0386
1.60147
1.6328
0.183146
2.95218
1.53011
1.23998
1.41095
3.01138
0.194002
0.710463
1.56144
2.08735
-10.4637
-0.398394
0.162631
-0.296365
1.91196
1.31134
-1.19573
0.101193
-0.166185
0.365962
1.31193
0.128111
0.455659
2.0496
-0.204024
1.61115
1.44426
1.52519
0.773618
1.5549
1.35632
1.39625
1.68713
1.91508
1.48691
1.57722
1.79809
1.66657
1.50486
0.217112
2.0702
-18.3423
1.33638
-0.360107
1.58005
1.7267
1.00163
1.21031
1.51593
-0.679566
1.46203
1.86907
1.56788
1.89363
1.60341
1.63883
1.38359
1.77315
1.46664
1.60907
1.1723
1.51638
1.5359
2.13966
1.75953
1.77491
1.47548
1.93843
1.42457
1.76432
1.1702
1.63443
1.4733
1.49276
1.38993
-5.8772
1.31337
1.51704
2.07121
-46.0204
1.13102
1.25719
1.2759
-49.5798
-46.2825
-45.5468
-62.0494
-44.6946
-55.1065
-54.3268
1.70973
-50.0503
-49.8332
1.43557
1.66632
1.74787
1.54452
1.71518
2.0709
1.17345
1.58447
1.78251
1.5034
1.54951
1.28845
1.54438
-59.0221
-48.7617
-49.4434
-48.3753
-46.2495
-56.5921
1.08789
-6.51614
0.77065
0.630135
-22.4347
1.19571
-33.0052
-58.4958
-38.2812
-53.2733
-47.8649
-12.248
-61.7216
-50.9099
-69.2921
-53.3906
1.87082
1.78138
0.572373
1.22061
1.37581
1.09565
0.573332
1.01019
0.863886
0.902963
1.24871
1.14722
1.11651
0.932589
1.34004
1.22817
0.888953
0.91869
1.3014
1.35311
1.1256
0.880868
1.11127
0.958013
1.83573
0.893321
-12.5838
1.31417
1.17147
1.11792
1.79054
1.78063
0.311514
1.04311
1.46016
0.487872
0.430846
0.85087
1.09645
0.714151
0.191526
1.35896
0.527848
1.66781
0.98079
1.21369
1.19228
0.274002
1.13009
1.26893
1.04775
1.22136
0.924794
1.64528
1.4636
0.964683
1.36642
1.47142
1.8046
0.924553
1.15048
1.30341
0.778241
0.92537
1.27173
-22.96
1.93329
1.0121
-4.71743
-38.6914
-0.128914
-4.33084
-18.4182
-14.3188
-4.77796
0.944372
2.06456
1.6549
1.56106
1.71942
1.56395
1.7091
1.35368
1.41397
1.76381
1.21277
1.62385
1.5778
1.60792
1.46803
0.846342
0.988028
1.88837
1.14915
1.1372
0.82015
2.03635
1.48004
1.41228
1.17288
1.22428
1.1753
0.681047
1.46556
1.26228
1.51198
1.40857
1.9567
0.844076
1.53973
1.32884
1.59949
1.13131
1.40316
1.44608
0.761067
0.713044
0.726102
1.35759
1.19551
1.1637
1.21943
1.34235
1.49923
1.08095
1.46319
1.54815
0.633701
0.980679
1.49468
1.95221
1.66248
-60.2992
-64.726
-69.0587
1.62899
1.57366
0.83513
-0.0861339
-1.02647
1.79796
-0.311075
-0.389382
0.876794
1.1135
0.674404
1.04196
0.0302448
0.956512
1.13138
1.23014
1.27389
-0.445005
1.18414
1.14967
1.41564
1.43965
1.36814
1.3979
0.53277
1.95951
0.843506
1.2635
1.2594
1.16416
1.05607
0.278636
0.528534
1.10366
0.357343
-0.122242
0.654419
0.471156
0.679938
0.267995
0.318918
2.01223
1.60318
1.25195
1.115
0.997985
1.43553
1.27062
1.55713
1.29982
1.47756
1.00191
1.77002
1.24241
1.28705
1.2277
1.22068
1.04942
1.32948
1.64548
0.478011
1.27982
-0.210061
0.88914
-0.519944
1.55071
0.816241
1.3823
0.86602
1.02691
-51.0636
-54.151
-53.4819
-50.2262
1.44922
-62.2304
0.457358
0.586272
1.84101
-27.5936
1.37162
1.26107
1.35083
1.42901
1.17948
1.1159
-15.3572
-9.78876
-30.9112
-62.6497
1.34598
1.33703
1.25418
1.97142
1.40389
1.41843
2.33874
0.604919
0.123431
1.06423
0.934045
1.14771
0.775175
2.14909
1.64801
1.89442
1.52546
0.686671
1.44399
1.08003
0.775463
-29.9631
0.795147
0.848906
0.845119
-43.2627
-48.0173
0.648915
0.553932
-51.4896
-52.0326
-52.0249
1.26937
0.489035
-46.7946
-9.52266
-8.86603
-11.6297
-10.6509
1.24031
-13.8598
1.26934
0.688584
1.17781
1.18182
-0.113409
0.577371
1.06559
-49.7688
1.05097
-58.7544
1.36275
2.23352
1.75068
2.93016
1.18381
1.37394
1.07062
0.974254
0.735385
-0.191159
-0.240917
0.139065
0.15475
1.53743
1.56243
0.659949
0.933398
1.73241
1.5323
1.15061
1.28435
0.675299
0.934815
0.874786
1.11798
1.61339
0.903568
1.03977
1.78113
1.07909
1.00109
1.97938
-3.07807
1.02284
-12.2157
0.811659
1.1012
1.51059
0.946434
1.46043
-1.94503
1.31454
1.17697
1.48188
0.843531
0.617937
1.51005
1.40634
1.72789
1.30551
1.52092
-0.480602
-3.64291
2.49577
-3.13908
-4.35733
1.67259
1.54911
1.65595
1.24291
2.14089
3.04579
1.85637
0.763939
1.95058
-5.23431
-0.268738
-31.0298
-16.3352
2.87459
2.0561
1.34907
0.459478
-46.0983
-55.0493
-0.383348
1.67463
1.6821
1.57538
-2.57937
-1.26436
1.18055
1.76927
2.25874
1.84372
1.55978
1.21541
1.91178
1.42585
1.15283
1.22466
1.44632
0.655659
0.781078
1.35273
0.780217
0.925856
1.30897
1.09035
0.80079
1.50959
-64.981
-65.1902
1.79735
1.24186
1.50568
1.0382
-1.86147
-62.1187
1.11876
1.10579
-4.70315
2.80377
-3.7508
-20.5601
-0.0620339
-0.715894
-53.3319
1.64073
-72.1483
-57.3398
1.19888
-0.511621
1.65062
0.777845
1.18406
1.32576
-1.04132
2.15026
1.19914
1.38535
1.71403
1.87236
0.464548
0.89613
1.29501
-12.329
-46.1995
-11.8827
-22.2708
-13.1672
-46.5414
1.52096
1.2617
1.66481
1.73509
-48.9449
-52.4016
1.99276
-37.9281
-59.1819
-6.7454
-7.03554
1.15085
-24.4834
-13.5707
-1.35987
1.85146
1.84604
-39.9776
2.06765
1.62261
1.37456
1.43263
1.22473
1.85901
1.13516
1.0627
0.531635
1.49143
0.779803
1.18281
2.00414
0.994748
0.716254
0.956589
-61.8192
1.31722
1.55177
1.42067
1.15748
0.946559
1.10998
1.791
1.69818
-47.4937
1.01184
2.00019
1.46133
1.53337
1.75682
1.69989
1.6056
2.2136
1.11496
1.42634
1.49584
1.25351
1.41673
1.58592
1.64168
2.03215
1.77434
1.35555
1.0373
1.33314
1.02903
1.10079
1.05695
-46.4158
-50.0005
-59.1338
1.94141
-31.7848
-5.66603
1.489
-3.58729
-53.8814
-47.6209
-49.548
-51.3577
-56.5857
-56.9611
-52.3015
-51.0545
-44.2263
-4.74084
-22.3986
-46.813
-51.7748
1.89721
-42.9761
1.6449
1.72845
2.09863
1.49364
1.65435
1.50509
1.40778
1.94757
1.51639
1.56061
1.40499
-66.7358
-69.5335
-51.709
1.64877
1.66594
0.918896
3.05968
1.52821
1.69078
1.64994
0.701991
-0.254474
-0.133016
1.76712
-43.3029
-58.4273
-39.9998
1.71274
1.5313
2.05277
-45.3414
1.08871
1.69869
1.02918
2.02241
1.26866
1.37492
0.70681
1.26014
1.21347
0.906494
1.0156
0.760439
0.900484
1.00281
2.06108
1.19363
0.856517
0.825074
1.55725
1.13031
1.22825
0.47535
0.629817
1.58203
1.14011
1.06175
1.0707
0.668495
1.09552
2.08447
1.2062
0.404158
0.947793
0.402723
1.26862
0.714416
0.848565
1.19349
0.551408
2.04627
1.33883
1.33149
1.24523
1.67741
0.935843
1.28374
0.963021
1.00841
0.893717
1.18001
0.676604
-6.59804
1.2414
1.57994
0.904406
1.26072
1.36308
1.50237
0.82163
1.39403
1.0868
1.14319
0.705158
0.274972
0.732993
1.1856
0.521302
0.834725
-2.55937
1.65368
0.401844
1.19773
1.46941
1.09591
0.512344
2.14866
1.44321
1.06503
-0.664121
-0.711368
0.852305
1.71118
1.86291
1.23561
0.0117114
0.685721
1.20835
1.23449
1.1169
1.45329
1.17484
0.777992
2.06428
1.30536
1.78845
0.350747
1.68963
1.73853
1.22106
1.18867
1.10566
0.726714
1.20722
0.896834
1.23455
1.56091
1.41359
1.38978
1.35373
1.33672
1.36682
2.36017
0.962503
1.1116
2.26253
1.13345
0.875889
1.19555
1.81409
1.63254
1.22561
1.17285
1.27618
1.01008
1.11917
1.36309
1.19872
0.594013
1.25788
1.13082
1.12098
1.46054
0.439448
1.32247
1.02251
1.65218
1.47552
2.30561
1.14558
1.17011
2.03654
1.11401
2.17235
1.85264
1.94467
1.26884
1.69095
1.86061
1.55481
0.934491
1.30139
0.635478
0.684308
1.35033
0.955564
1.15471
1.54598
1.40723
1.58676
1.2614
0.639272
1.60157
1.569
1.59458
1.00033
0.937884
1.04392
1.18925
1.50842
-0.165243
1.14891
0.857442
0.911887
-0.994154
1.04186
0.672747
-1.23579
1.61995
1.27754
-46.3572
-46.6963
-52.9793
1.13576
1.12921
-49.1109
0.35538
-46.2394
-56.791
-0.665946
-57.8181
0.84391
1.63734
-3.09431
3.15487
0.781518
0.687725
2.11159
1.91872
1.74008
1.40666
0.861124
1.10107
0.696999
1.51399
1.62386
-68.2217
1.43043
1.58885
2.06108
-30.5711
-18.7681
-32.3204
-57.777
-60.7819
2.1336
-47.0464
1.23879
1.21226
-49.2039
-58.7115
-54.9601
-55.4462
0.900106
1.8335
1.36318
1.85466
1.68601
1.12439
0.990046
1.25701
0.951256
0.896519
0.604696
0.48865
0.831988
2.01843
0.439972
0.903072
1.07193
-68.8552
1.67923
1.13911
0.969845
1.75636
0.955007
0.852961
1.0723
1.42395
0.809186
1.15967
-48.8203
1.1156
-51.5577
-0.78204
-5.40618
-57.205
-48.4297
1.30363
-46.3457
1.36266
1.45937
-46.6429
0.975579
1.15135
1.01026
1.1671
2.45701
1.13409
1.59352
0.666559
1.48661
-47.7817
-48.4067
-48.8064
-47.2588
1.62946
-0.73328
-1.72836
1.26617
0.809829
-51.3325
0.800947
1.66473
-1.8779
-10.3384
3.20237
-48.2323
-9.06714
1.82894
-14.0788
1.74043
1.02482
1.15919
1.62298
1.68387
1.20724
0.597206
1.37515
2.15184
2.12503
1.49045
-69.2592
-36.9445
-41.3258
-0.95678
-1.90725
-2.98398
1.55504
2.41127
2.14259
1.3501
-52.6541
-50.9945
1.60699
-36.5839
-3.25919
2.2166
2.17105
1.63409
0.915719
1.09521
-10.7868
1.02015
-0.468373
-1.05431
0.7345
0.523929
1.22288
0.758821
1.7463
0.637643
0.776029
-3.36444
0.9957
-0.179317
-47.2846
-48.6471
-46.264
0.878259
1.45536
1.27584
1.4292
0.788204
1.02892
-0.753238
1.36458
1.41086
1.37361
-45.0985
0.928055
1.13822
-49.3473
0.861862
0.154067
1.82842
1.04676
1.94355
1.15501
0.464
0.929702
0.843068
0.646359
1.17046
-3.67763
-2.91831
1.0566
-0.974796
1.21973
-1.81583
1.1143
0.949374
2.54342
-13.8296
-1.05279
0.397394
-23.8092
-2.28162
1.54875
1.11648
0.649563
-48.3794
-65.8899
-53.3289
-53.9525
-54.0058
0.940392
1.09021
1.15601
1.16821
1.35481
1.42873
-1.06481
-2.58184
-0.39807
-19.8157
-12.5932
1.27267
1.3635
1.17635
1.64424
-0.761406
-0.457233
-0.234545
-5.3395
0.817474
1.46952
2.51122
0.555102
1.06811
0.806309
0.715136
1.31804
1.23225
-33.8571
-33.3625
-33.0017
-26.2269
-56.6656
-25.17
-9.9644
0.540016
-62.2899
1.17403
1.19886
0.895519
1.39759
-11.4731
-9.66557
1.79207
-4.05667
-47.3711
-46.6372
-71.581
1.92083
2.04201
-61.2013
-58.2819
1.57679
0.982729
1.94755
2.65085
1.59984
1.82291
1.72298
1.51939
1.3629
1.17118
0.92439
1.10743
1.91
1.67783
1.5403
2.10983
1.90615
0.945615
2.10875
0.452276
1.52878
2.00312
0.913123
0.965804
-0.0846364
-0.267596
-5.14575
-10.6897
-3.98644
1.22541
0.87773
0.94253
1.0382
0.937815
1.15219
1.50664
1.65656
1.78848
1.45454
1.69033
1.42076
0.833144
1.63168
0.278836
1.75896
1.45399
1.61143
1.78006
0.975384
1.68721
1.45126
1.35731
1.75399
1.86003
1.70319
0.943153
0.827436
1.57183
1.91952
1.77826
1.11976
-0.623625
1.40195
1.71091
-0.458866
1.18567
1.24051
0.0928526
1.00227
1.82088
2.00832
1.8138
1.02024
1.15225
-0.202722
0.187944
1.11123
1.19972
1.29904
-50.242