/*--------------------------------*- C++ -*----------------------------------*\
| =========                 |                                                 |
| \\      /  F ield         | OpenFOAM: The Open Source CFD Toolbox           |
|  \\    /   O peration     | Version:  2506                                  |
|   \\  /    A nd           | Website:  www.openfoam.com                      |
|    \\/     M anipulation  |                                                 |
\*---------------------------------------------------------------------------*/
FoamFile
{
    version     2.0;
    format      ascii;
    arch        "LSB;label=32;scalar=64";
    class       surfaceScalarField;
    location    "0.0948794";
    object      phi;
}
// * * * * * * * * * * * * * * * * * * * * * * * * * * * * * * * * * * * * * //

dimensions      [0 3 -1 0 0 0 0];

oriented        oriented;

internalField   nonuniform List<scalar> 
7240
(
0.0221301
-0.0395647
0.0429023
-0.0254677
0.0193836
0.0096807
-0.0252791
-0.00378529
0.0321831
-0.0255049
0.0127054
0.00467868
-0.0414432
-0.034338
-0.0399113
-0.00252715
-0.0394911
0.0110278
-0.0547821
-0.0540117
-0.00259035
0.0548056
0.00179649
0.0502745
0.0601383
-0.0719781
-0.0384347
-0.0326028
0.0511442
-0.0580325
0.0314199
-0.0636491
-0.000373581
0.0609673
-0.0601946
-0.0322574
0.0314847
-0.131128
0.0325502
0.0294817
0.0690959
0.0148254
-0.0621727
0.0375363
0.00981095
0.0602711
0.00927268
-0.0547184
-0.0683652
0.0428577
0.0621364
-0.0366288
-0.047496
0.0733751
0.0395503
-0.0654295
-0.0383149
0.0840467
-0.0462329
0.000501024
-0.0547913
0.0273748
0.0109624
0.0164542
-0.0124616
0.0257471
0.0374251
-0.0507105
0.0418967
-0.0765802
-0.0278472
0.0625307
0.0443489
-0.0330269
-0.0681335
0.0568115
-0.0180506
0.0494766
-0.116151
0.0847246
0.0708827
0.0169854
-0.0315856
-0.0562824
-0.059163
-0.0340978
0.00787758
0.0853832
0.0117777
0.00586866
-0.0965312
0.0788848
-0.0734466
0.0168087
0.0834448
-0.0268069
0.0187873
-0.097962
0.0759032
0.00327155
-0.024798
0.0600988
-0.0524395
0.0171387
-0.0707587
0.000564895
0.0701938
-0.0367006
-0.00163368
0.0325259
0.0187046
-0.0636921
-0.0723386
-0.0163902
0.00639784
0.0823309
0.0272452
0.170991
-0.0854088
-0.0578705
-0.0277113
-0.0183547
0.119326
-0.0435445
-0.0574263
-0.0123392
-0.0353184
0.0553552
-0.00769754
-0.05337
-0.013903
0.0549338
-0.0897601
0.105634
-0.0503135
0.0344394
-0.0574592
-0.0035239
-0.0136273
0.0746104
0.135403
-0.0538573
-0.00242412
-0.0791212
-0.000741703
-0.0863563
0.00344709
-0.0518321
0.0372942
0.0518069
-0.037269
0.0722332
0.0393865
-0.0719727
-0.039647
0.00368436
-0.00765595
-0.0373229
0.0412945
-0.0168767
-0.0448907
0.0617674
-0.00416087
0.0308868
-0.0230415
0.00618464
0.0279123
-0.0417529
0.0978856
-0.0907258
-0.00215448
-0.00500536
-0.0214162
0.101598
-0.0184829
-0.061699
-0.14321
0.00196513
0.00380156
0.137443
0.0304709
0.0123563
-0.0411109
-0.00171631
0.0400425
-0.0571633
0.0204348
-0.00331402
-0.0146733
-0.00112025
-0.0120846
0.0477327
0.000348671
-0.0359968
0.00511625
0.0964351
-0.0935883
-0.00796312
-0.0483849
-0.000471871
0.0367721
-0.0483019
-8.29065e-05
0.110807
0.0441715
-0.136996
-0.017983
0.0184538
-0.116205
-0.0226697
0.120421
-0.0528753
0.0527435
0.000131737
-0.0104595
0.0762209
-0.0720097
0.00624836
-0.0603003
-0.0030345
-0.0172195
0.00402975
0.0472778
-0.034088
0.0483307
0.0897064
-0.0381518
-0.0998853
-0.0126368
-0.0441474
-0.0727654
0.00342256
0.0671103
0.00223252
0.0390036
0.038276
-0.0772796
0.0190869
-0.0599126
0.0281888
0.0643752
0.0567331
-0.0396798
-0.0814285
0.00583542
-0.087335
0.0826721
-0.00117257
0.0201926
0.0478607
-0.0489663
-0.0468502
-0.0498493
-0.0150026
-0.0222429
0.0870948
-0.0499344
8.50815e-05
0.0116063
0.01674
0.0166777
-0.0450239
-0.0385775
0.0418793
-0.0648753
0.0615735
0.00120131
-0.0499447
-0.0304952
0.0416355
0.0157237
0.033476
-0.0908352
0.103858
-0.10834
0.043486
0.0609073
-0.00622785
-0.0184938
-0.0361857
-0.0930431
-0.00752319
0.0117674
0.00120276
-0.0531658
-0.0102938
0.0622568
0.0457949
0.028598
-0.102045
0.0276517
0.0162222
-0.142329
0.0914526
0.0346541
0.00138409
-0.061763
-0.00392203
0.0520026
0.000433185
-0.107227
-0.0484904
0.0443992
0.0499853
-0.0458941
-0.0423223
0.0818187
-0.0394963
0.05377
-0.0721131
0.0830658
-0.0647226
0.0148655
-0.0438949
-0.0194609
0.0344367
-0.03437
-6.67799e-05
0.0493022
0.133348
-0.119534
0.0378281
-0.0516425
0.0106806
-0.0465914
-0.0108167
0.0467274
0.0507739
0.00859651
-0.0511875
-0.00818296
0.0661385
-0.0377859
-0.0526541
0.0243014
0.0268165
-0.0938096
0.0897055
-0.0227124
-0.0114776
0.0482111
0.0140409
-0.0507743
0.0838859
-0.00456102
0.0510751
-0.1304
-0.067169
0.0589382
0.0742565
-0.0660257
-0.0774499
0.0753272
0.00212272
0.0603234
-0.000764261
-0.0595591
-0.0111273
0.123469
-0.000399069
-0.111942
0.00984038
-0.0310294
0.0327953
-0.0237337
-8.96729e-05
-0.0562307
-0.0675311
0.0114929
0.066317
-0.0102788
0.0554594
-0.0094508
-0.022534
-0.0234746
0.0362441
-0.00535502
-0.0364307
0.00554167
8.40102e-05
0.0667098
-0.000195313
-0.0665985
0.00758085
-0.0709412
0.0190854
0.0442749
-0.0428139
-0.0318375
0.0416555
0.0329959
0.0489704
-0.0587968
0.0473444
-0.037518
-0.0626868
-0.00685378
-0.00794636
-0.0281167
0.0628348
0.0787555
-0.113474
0.0301465
0.0474882
-0.0602112
-0.0174235
0.0119097
-0.0754967
-0.0215724
0.0851594
0.000830711
0.101772
-0.000935293
0.0232466
0.00741491
0.00470708
0.0924126
-0.0971196
-0.0339702
-0.0871294
0.0274536
0.093646
0.0218508
0.0613601
-0.0244279
-0.058783
-0.0644701
-0.000806076
0.0199362
0.0453399
0.000220976
0.0607287
-0.0609497
-0.042659
0.0470263
0.125842
-0.130209
0.00370398
0.0525074
-0.00407465
-0.0521367
0.0483762
-0.0694822
0.060059
-0.0389529
0.0319119
-0.036546
0.0486859
-0.0440518
0.0012389
-0.0443306
0.0533107
-0.053672
-0.0361846
0.0968925
0.01762
-0.02406
-0.0904524
0.0277554
-0.0497944
-0.00324
0.0287624
-0.0265119
-0.0867034
0.00261055
0.020299
0.00332679
0.049514
-0.04304
0.0290071
0.0102476
-0.0825549
0.095598
-0.0130431
0.0464915
-0.0489159
0.0544269
-0.037474
-0.00720122
-0.044716
-0.0864153
0.0036322
0.0827831
0.0407069
0.0124149
-0.0986327
0.105623
0.00669555
-0.0136854
0.00181287
-0.0042005
0.0874002
-0.0850125
-0.0407538
0.0245646
0.0405959
-0.0244067
0.0537237
0.0206535
-0.0721327
-0.0022445
-0.123517
-0.0432034
0.0398524
0.126868
0.0482344
-0.0375538
-0.0319289
-0.0377048
-0.0311159
0.10075
-0.0310643
-0.0808455
0.0289148
0.082995
-0.0296449
-0.028412
0.0205828
-0.00571489
0.00561506
0.0253312
-0.077509
-0.0856722
0.13785
0.0571514
-0.0601487
0.0479794
-0.0449821
0.0870118
-0.0864952
-0.0187427
0.0182261
0.026633
0.0219052
-0.0633957
0.0148576
-0.127438
0.0739476
0.0183944
0.035096
0.00875764
-0.0475976
0.0809986
-0.0421586
0.037182
0.00811298
0.0269382
-0.00513672
0.04637
0.0529457
-0.0941789
0.0618598
0.0170921
-0.0923502
0.0133984
-0.0181713
0.000197573
-0.0515195
0.0694932
-0.0778605
0.0386608
0.0391997
0.0465195
-0.0545466
0.00802708
-0.0602685
0.0335443
0.0450341
-0.01831
-0.0190592
-0.0154484
-0.00913659
0.0436442
-0.0529688
0.000657129
0.0332525
-0.000225299
0.0764092
-0.000413666
-0.052858
0.113819
-0.00909878
0.0229601
0.0702306
-0.0840918
-0.0126808
0.0334804
0.0552276
-0.0352492
-0.0534588
0.0119105
0.159653
-0.180038
0.00847531
-0.0544624
-0.0451901
-0.0656982
0.165351
0.0495735
-0.0553659
0.00579239
-0.0729532
0.135187
-0.0716846
0.0329272
-0.0299362
0.0862043
-0.00340464
-0.0691379
-0.0136618
0.0693693
-0.0695393
0.0117773
-0.0116073
-0.0109
0.0319843
-0.0425644
0.0214801
0.011736
-0.0382479
-0.000728159
-0.00262438
-0.0780153
-0.00340239
0.0582877
-0.0819637
0.0270784
0.0790496
0.0125615
0.00226109
-0.0938722
0.00502419
-0.000908102
-0.0689531
0.0648371
-0.110352
0.0964552
-0.087618
0.101515
0.0492149
-0.0026108
0.00112861
-0.129709
0.00251767
0.0743338
0.0389618
-0.000866149
-0.0852722
0.0471765
-0.0379413
0.0476368
0.0461772
-0.0558727
-0.0669871
0.0899642
-0.152708
0.129731
-0.0118337
0.0106149
-0.0367225
0.0121965
-0.0461464
0.0343482
-0.0529978
0.00681595
0.0247403
-0.00719967
-0.0251493
0.00760871
-0.00807677
0.0144198
0.018368
-0.0321323
0.0385046
-0.114327
-0.0148652
0.0267089
0.102483
0.0570303
-0.0341935
0.0278485
-0.0506854
-0.017035
-0.0370608
0.108536
-0.00700552
-0.112657
-0.0262903
0.0555527
-0.0462973
0.0392642
-0.12218
0.0153422
0.0675734
0.00369202
0.0492695
-0.0830018
0.0891366
-0.0554043
-0.0959472
0.096126
-0.0074968
0.00731805
0.0891698
0.000453434
-0.0170171
-0.0726062
-0.000869607
0.0546396
0.0238678
-0.126958
0.105444
-0.00235407
-0.0709793
-0.000265901
0.0712452
-0.0535269
0.000111815
0.053415
-0.0541812
0.0624589
0.0782198
-0.0864975
-0.0677746
0.0497327
-0.0542967
-0.0748193
0.0700973
0.00774962
-0.00302759
0.0575332
-0.050527
-0.0557756
0.0487695
-0.0313546
-0.0708683
0.110922
-0.00869914
0.0620814
-0.087534
0.0641428
-0.0386902
-0.0835811
0.0189198
0.000430458
0.0499138
-0.06721
-0.016674
0.0252397
0.1026
-0.00305872
-0.124781
-0.056621
-0.0352208
-0.0703763
-0.00945465
0.0199184
0.0875854
-1.06e-05
-0.0875748
0.0570176
-0.00503401
0.0356018
-0.0180847
0.0411691
-0.0638382
0.058572
-0.0710745
0.0662262
0.0793551
-0.0793657
0.0524106
0.00329823
0.00451821
-0.0602271
0.0532872
0.0605394
-0.061416
0.0270793
-0.0712229
0.0583732
-0.0142296
0.0133972
-0.0409125
-0.112958
0.0111297
0.0396559
-0.0123574
-0.0449541
0.00816201
-0.0591662
-0.00371416
0.0417529
-0.0178662
-0.0272888
0.00796475
-0.0491188
-0.00824384
0.0684514
-0.0110887
0.0121645
0.0818921
-0.0701888
-0.0379368
0.0535047
-0.0546997
0.0391318
-0.0577023
0.0630332
-0.0782515
0.0729206
-0.0354383
0.000119885
0.00792261
-0.0656249
0.00317145
-0.0441366
0.00302832
0.0354976
-0.0333736
0.00104745
5.92481e-05
0.00025457
-0.0108034
0.0477365
-0.00137145
-0.0355616
0.0376945
-0.0477132
-0.000784698
0.0376883
6.11168e-06
-0.0363069
-0.00670824
0.0165586
0.0264565
-0.0364584
0.000346408
-0.000194911
-0.0321023
-4.98776e-05
0.0321522
0.0164983
-0.045777
-0.00282351
-0.00036951
-0.0195906
-0.057184
0.0524603
-0.0178102
0.0571307
0.000114154
-0.0279094
0.0158293
-0.0615939
-0.0168915
-0.094599
-0.0119012
0.0475021
-0.0520936
0.00392709
0.000664413
-0.0811623
0.04792
-0.0647911
-0.0656315
0.0492603
-0.0475881
-0.000713812
-8.60584e-05
0.0124185
-0.0450144
0.0349216
-0.00232572
-0.0340234
0.0484307
-0.00198876
-0.0262943
-0.0229955
0.0042754
-0.0339502
-7.32851e-05
0.0444538
-0.0590668
0.0221938
0.0195727
0.0562659
-0.0313848
-0.00612634
0.00982083
-0.0740708
-0.0600793
-0.0602374
0.000158029
-0.0453167
0.0453446
-2.79026e-05
0.00362512
-0.0481442
0.0463209
-0.00180178
0.0403862
0.0264306
-0.0363459
-0.000299028
-0.0904452
-0.0524656
-0.0399482
-0.00174341
-0.0481277
-0.00960835
0.0497667
-0.0663471
0.0148562
0.00172416
-0.0527927
-0.0504411
0.0882312
0.106998
-0.118155
-0.000167721
-0.0339362
0.0356677
-0.0508504
0.000973114
0.0553123
0.118087
0.00191263
-0.118385
-0.00161453
0.0732757
-0.0788571
-0.0573396
0.0629211
-0.0564067
0.0564484
-4.16387e-05
-0.0702029
-0.0117341
0.0255302
0.00612728
-0.0408694
0.0347421
-0.0386276
0.0583103
-0.0696274
0.0122954
-0.0897453
0.0953113
-0.0285365
-0.0696389
0.00286402
-0.0538077
0.0692038
-0.00503029
-0.0103659
0.0805136
-0.0586628
0.0483664
-0.00820518
-0.0401612
-0.0784679
-0.0173043
0.0482762
-0.0471133
-0.00265318
0.0763995
0.0730448
0.0364499
-0.0665475
-0.0429472
-0.0434089
0.0319313
0.0478041
0.053533
-0.0228392
-0.0792715
-0.000875942
0.0785504
0.00159701
-0.0995945
-0.0119439
0.0154625
0.0960758
0.059118
0.000568842
0.0497669
-0.043035
-0.00730078
0.0329994
-0.0290704
0.0668794
-0.0708084
0.00606976
-0.0426748
-0.042839
0.0288898
0.026447
-0.0553368
-0.00528384
0.0686947
0.0267459
-0.0901567
0.0770841
-0.0607477
-0.0541263
0.0377899
-0.0637272
-0.0256251
0.0835006
0.00585162
0.0385847
0.0376418
-0.0762266
0.0569932
-0.0589205
0.0935797
-0.0916524
-0.0320746
0.0490205
-0.0169459
-0.0521406
0.0351668
-0.0774726
0.00836963
0.000464606
-0.00149177
-0.041183
0.120092
0.00418596
0.0138723
-0.0247052
-0.0409499
0.00685828
0.062448
0.00284573
-0.0652937
0.0094349
-0.0267872
-0.0383386
0.0556909
0.0262501
-0.0213491
-0.0880876
-0.0723751
-0.0929669
0.0675727
0.0977692
0.0451147
0.0675657
-0.108226
-0.00445466
-0.0790414
0.038108
-0.05112
0.0175838
0.00389132
0.0168304
-0.121186
0.0803357
0.0240197
0.0797646
-0.0227342
-0.000921
-0.0803014
0.0870579
0.0319925
-0.0859326
0.0499843
0.000166813
0.00502488
-0.055176
0.0121937
0.0162292
-0.103682
0.0752593
0.0895396
-0.0853382
-0.0042014
0.0593693
0.00274265
0.011814
-0.073926
-0.156584
0.0110599
0.157434
-0.00439628
-0.0201333
-0.0315512
-0.0371571
0.0318992
0.0439155
-0.0386576
0.0303621
0.01956
0.00829346
-0.0582156
-0.0382454
-0.0407961
0.0830921
-0.0115852
-0.0715069
0.0376369
-0.0444319
-0.00492222
-0.0417204
0.0239952
0.0343224
-0.0134372
-0.0448805
0.0794156
-0.00430984
0.0357016
-0.0662241
0.0670548
-0.0351835
-0.0355539
0.0707374
-0.104404
0.104005
-0.00615579
0.00655434
0.0370777
0.00647757
-0.000314924
-0.0369632
0.0372781
0.0314271
-0.0180266
-0.0381058
0.0536133
-0.048646
0.0739531
-0.0789205
-0.0160563
-0.0584115
0.0976157
-0.0231479
0.0264001
0.000261045
0.066065
-0.0927262
0.0247036
-0.0760363
0.0323666
-0.0136662
0.0474382
0.0101222
0.0397916
-0.0653799
0.00138959
0.0639903
0.0115191
-0.00587103
0.0735401
-0.0791881
-0.0922454
0.012018
0.125213
-0.0449857
-0.104627
0.0981422
-0.006158
0.0126426
-0.0567356
0.031396
0.0583736
-0.033034
0.0290033
0.047047
-0.0151829
-0.0608674
-0.0501432
-0.101108
0.09463
-0.0348764
0.0611127
0.0606071
-0.0868434
0.0958492
-0.00101951
-0.100997
0.00616728
0.0477761
3.24098e-05
-7.19741e-05
-0.10981
0.0295303
0.126422
-0.0461422
-0.104814
-0.113705
0.0998929
0.118625
-0.0685696
0.0784635
0.0695674
-0.0794613
-0.0652622
0.045547
0.0651133
-0.0453981
0.0987091
-0.112734
0.0168332
-0.00280849
0.0857515
0.000883323
-0.000853484
0.0709433
0.0249688
-0.035691
-0.0602211
-0.000240035
-0.0649531
0.0584171
-0.0398671
0.0395783
-0.0581283
-0.083494
-0.00227455
0.110127
-0.0243584
-0.110415
0.114451
0.0272539
-0.0312904
0.0135975
0.0808819
-0.0673559
-0.0271235
0.0631278
-0.0629961
-0.000131643
0.0467194
0.00164706
2.18238e-06
0.0282892
0.0191354
0.000351442
-0.0619999
-0.0573288
0.0725937
0.046735
0.0574681
-0.0585473
0.0441262
-0.0698236
-0.0547621
-0.0281441
0.0385163
-0.0408441
0.005626
-0.0270776
0.0643402
-0.00939911
0.0160193
-0.0709603
-0.0409438
-0.0499344
-0.000308772
-0.0352052
7.71523e-05
0.0351281
0.0375534
-0.0708489
-0.00190975
0.0121675
-0.0131914
0.0385773
0.0377208
-0.0376835
0.0663013
-0.000328597
3.72585e-05
-0.0918335
0.0645206
0.0650151
-0.0377022
0.00324013
0.0474395
0.00972744
-0.0604071
-0.0704807
7.84433e-05
0.0704023
-0.0121831
-0.053646
0.0615566
0.00427248
-0.0620262
0.0892809
0.0685945
0.0043011
0.00362301
0.0839147
-0.108887
-0.0595807
0.0595362
0.00292419
-0.00287971
0.0560851
0.000363322
0.046054
-0.000341094
0.0103722
0.0460947
-4.07231e-05
0.017637
0.0577638
-0.0754008
-0.119913
0.00869155
0.048379
-0.029463
-0.0763752
0.0960373
-0.083025
0.0620069
-0.0750193
2.81487e-05
0.0483509
0.0476548
-0.00196357
-0.0751543
-0.0104995
0.0472261
-0.038098
-0.0575007
-0.00499075
0.0624914
-3.01999e-05
0.047685
-0.00881496
0.0654695
0.0194594
0.0942149
-0.047526
-0.000379282
0.0479052
0.136329
-0.0048151
-0.129701
-0.000289233
0.0480873
-0.0477981
-0.00027818
-0.0474826
0.0477608
0.0679169
0.00914541
-0.0185433
-0.058519
-0.006124
0.0819704
0.0447674
0.0163228
0.0769767
-0.000721563
-0.0925779
-0.0727627
0.00865675
0.0778426
-0.0137367
-0.0636225
-0.013647
0.0544568
0.0228127
-0.0568067
-0.0081341
0.0632491
-0.0654
0.00666911
-0.0842012
-0.0345806
0.0585547
0.0267256
0.00184113
0.0346823
-0.0204667
-0.0464764
-0.0144051
-0.0148945
0.0373741
-0.0316162
-0.0398271
0.0255898
0.000177006
-0.000669378
-0.0331966
5.59454e-05
-0.06349
0.0152067
-0.0243617
-5.33039e-05
-0.0001386
2.07068e-05
-0.00244076
0.0283796
-0.0489071
0.0229683
-0.0482157
0.0279647
0.0352947
-0.0602804
0.0533251
-0.0283394
-0.0033519
-0.0828537
0.01521
-0.0508184
-0.000313708
-0.0373807
-0.051148
0.0208621
-0.13774
0.0338527
0.0442874
-0.00532557
0.0152201
0.00499644
0.0204915
-0.0407081
-0.00040147
-0.0719151
0.0723165
0.0455203
-0.00690645
0.0106011
0.00201189
-0.00463583
-0.0113337
0.0447931
-0.0331108
0.0379363
-3.55827e-05
-0.0379007
-0.0578584
0.0134589
0.0618128
-0.0174132
0.0350451
-0.0468506
0.05588
0.00274236
-0.0586224
0.0253235
0.0427223
-0.102922
0.0267594
-0.068452
0.0129728
0.0287197
0.0270976
-0.0307506
-0.0525147
0.0561677
0.0299099
-0.00841686
-0.0925042
0.0710111
0.053391
-0.0525287
0.036674
0.00527644
0.106932
-0.0703121
-0.0207834
-0.0487889
0.0487591
2.98194e-05
0.0757258
-0.0513939
0.0645489
-0.0653646
0.000815627
-0.0150587
-0.0275582
-0.0638476
-0.0520383
-0.0280439
-0.0121087
-0.0732796
0.113432
0.0662289
-0.0555962
-0.00315451
-0.00747817
-0.0879285
0.00280995
0.0871594
-0.00204082
0.0666418
-0.000412934
-0.0318773
-0.0144568
0.0868205
-0.0404865
-0.00439452
-0.0666233
0.0691505
0.00186729
-0.0718006
-0.00261665
0.0700227
0.000877676
-0.0570326
0.059859
0.0182017
0.0752191
-0.0200615
-0.0639592
0.00371478
-0.027441
-0.0202454
-0.0819415
-0.0246333
0.0259072
0.0806676
-0.00191678
0.00348296
0.053855
-0.058134
0.00236228
-0.038252
-0.0216113
0.0248471
0.043625
-0.0468607
0.0126936
0.0117508
-0.0460558
-0.037249
0.0226538
-0.0431065
-0.0048494
0.0485559
-0.0948266
-0.0449759
0.0191513
-0.0181932
0.0440177
0.000241328
-0.000274723
-0.0449425
-0.037033
-0.0354925
-0.0212061
0.0185213
0.0485801
-0.0294288
-0.000210379
0.0520496
-0.07658
0.0247407
0.0337943
0.00872637
0.0060268
-0.0485475
0.00562034
-0.0357174
0.00978917
-0.00884441
-0.0396024
-0.0303589
-0.037619
0.0713524
0.0502698
-0.0146012
-0.0919165
0.0562479
0.0460189
-0.0790587
-0.0061281
-0.0337203
-0.00426627
-0.0106965
0.0084033
0.0863562
-0.100514
-0.0494646
0.0573776
-0.0278281
-0.0504447
-0.00666136
-0.0356132
-0.03774
-0.0457511
-0.0160513
0.00403815
-0.0686828
0.043594
0.0216864
-0.0454535
0.00752896
-0.0364745
-0.00639589
0.0364144
0.00645602
0.0171766
-0.053399
0.036012
0.000111908
-0.066459
-0.0639132
0.0157422
0.0630272
0.0197799
0.0151322
-0.0416203
-0.0371289
0.00338193
-0.0520096
-0.0518978
-0.107378
0.116579
0.150452
-0.0280604
0.0135654
-0.14517
0.092279
0.0393253
0.0172828
-0.0649561
-0.0137315
0.0389183
0.0179818
-0.0431687
-0.0261183
0.0261111
7.2016e-06
0.00972373
0.00597779
0.0133449
0.00569098
-0.0352439
-0.0508742
-0.0303084
0.0881916
-0.0292459
-0.0218105
0.0198109
-0.0538731
-0.0472896
0.0260727
-0.043109
0.0766861
-0.0142011
-0.0548762
-0.0489417
0.0089579
0.0279362
-0.095599
0.0539966
0.000147498
0.0186798
-0.0247394
-1.07539e-05
-0.036916
0.0369532
-0.0133079
-0.0322101
0.0378204
-0.0483
-0.00458436
0.0557943
-0.00290992
-0.0482776
-2.23825e-05
-0.0575249
4.61926e-05
0.0574787
-0.00050731
-0.00309809
-0.0198084
-0.0581686
0.081075
0.0761307
-0.0938206
0.0852003
0.0765051
-0.082608
0.023109
-0.0170062
-0.0392226
-0.0631123
0.080092
-0.0957184
0.0411818
-0.0578219
0.0687476
0.0710627
-0.0819884
-0.0462049
-0.0256638
0.0718686
-0.0462351
0.0405202
-0.00481626
0.0701902
-0.0653739
0.0100781
-0.0389506
-0.0985656
-0.0452767
-0.0154209
-0.00561043
0.066308
-0.0935471
0.0760293
0.0372174
-0.0196996
0.0418238
-0.00353235
-0.0639419
0.0256504
0.0375848
-0.0376347
0.061336
-0.0577836
0.0228768
-0.0264292
-0.0759766
-0.000356517
0.0763331
-0.0872576
0.000547171
-0.0838293
-0.000553817
0.0838359
-0.0939667
0.000315774
0.0936509
0.0316894
0.0767689
-0.0503111
-0.0581471
-0.0229473
-0.0514516
0.106088
0.0653901
-0.0625503
-0.00283978
0.09496
0.00929101
-0.0963284
-0.0190064
0.000244881
0.0807117
0.127752
-0.0298274
0.00151921
0.0778359
0.0827582
-0.101523
0.0939491
-0.0751845
5.46372e-05
-0.0600563
0.0730887
-0.0165562
-0.0137892
-0.0444584
-0.0135062
0.0265385
-0.0663063
0.0397678
-0.00760854
0.00675939
-0.0332389
-0.00444873
-0.0630824
0.0642815
-0.0641695
0.000368211
0.000232651
-0.0644022
-0.0650831
0.0653158
-0.0155206
0.000551953
0.0491368
0.0912427
0.0244809
-0.0299721
-0.0804077
-0.0287867
0.049138
-0.0832737
-0.0258185
0.0217151
-0.0619169
0.00503851
0.0705025
-0.0136242
0.0052219
-0.0450202
-0.0231237
0.062922
-0.0340736
-0.0586725
0.0538332
0.0389129
0.0105531
0.096157
-0.121207
0.0144965
-0.0517211
0.0133847
0.0383364
-0.0906107
0.0608366
0.01804
0.00967359
0.070014
-0.0378638
0.0654764
-0.0683583
-0.0521238
0.0550057
-0.0771105
-0.0153781
0.0493796
-0.0285446
-0.047163
0.0479948
0.0277128
-0.047478
-0.00842542
0.059806
0.00719141
0.0455482
-0.0733698
-0.0144987
0.0423203
-0.113058
-0.0411904
0.0542823
0.0999662
0.0973544
-0.0967202
0.00400649
-0.0046407
-0.00903448
0.10225
-0.00884651
-0.0843694
-0.0696131
0.0804787
-0.0191094
-0.0104617
-0.0462523
0.0126696
0.0440445
0.0934902
-0.0458406
-0.0476496
-0.0718824
0.00239191
0.0694905
-0.0362811
-0.0606317
0.0429011
0.0255165
-0.0778299
0.0691439
-0.067005
-0.0424427
0.0737248
0.0357229
-0.0694226
-0.0100834
0.00292578
0.145767
-0.0913723
0.018881
-0.0112739
0.0802356
0.0114282
-0.0803898
0.0409525
-0.0412674
0.0106221
-0.0609569
-0.00347282
-0.00750536
-0.0642585
0.062765
-0.00356547
0.00785533
-0.00340138
-0.107336
-0.00719107
0.117928
-0.000396787
0.125887
-0.125877
0.000387209
-0.0597359
0.00286362
0.000317636
-0.0420005
0.0384766
-0.0762625
-0.0370218
-0.00608476
-0.0356886
0.0560019
0.0346132
-0.0549265
0.100643
-0.0360636
-0.104805
0.0402256
0.0646828
-0.0848506
0.00970599
-0.0589419
0.0561895
0.0104123
-0.00765981
0.0212633
-0.0298749
0.0991253
-0.0905137
-0.026516
0.00317582
0.0582875
-0.00788187
-0.0535814
-0.000616146
0.00063592
-0.0893101
0.0892903
0.0266038
0.0588867
-0.0905246
0.125018
0.00731144
0.0669274
-0.0714166
0.0140376
-0.00954833
0.0726912
0.0462926
-0.0999523
-0.0190315
-0.0608526
-9.70967e-05
-0.0684755
0.0929031
0.0495199
-0.102805
-0.125996
0.112734
0.116067
0.0733353
0.0196612
-0.00241435
-0.127368
0.135696
-0.0395578
0.0312295
-0.0742784
0.0647373
0.0021512
0.00738986
0.0848866
-0.00191359
0.00765882
-0.0906318
-0.0367709
0.0761574
-0.0857149
-0.00279082
0.0885057
0.0325648
-0.0629123
0.0303474
-0.0612891
-0.0554023
0.0847625
0.0650749
0.00709356
-0.00625126
-0.0659172
-0.0131809
0.0669363
-0.0537553
-0.0855605
-0.0275991
0.0551471
0.0580125
0.107985
-0.0359411
-0.0720444
-0.0675569
0.0671601
-0.1
0.0318973
0.0540884
-0.0362448
-0.0497408
-0.0267613
0.0424384
-0.0201547
0.00447764
0.104536
-0.0248804
-0.0166221
0.0932329
0.0711929
-0.120364
-0.044062
0.0397416
-0.0557488
0.0206761
-0.00466882
-0.0191674
0.0289809
-0.117125
0.107311
-0.00172904
-0.0865841
0.00313556
0.0851776
0.116841
0.00118939
-0.000961396
-0.117069
0.113189
0.0024335
-0.111277
-0.00434552
0.0835422
0.00115096
-0.00355551
-0.0811376
0.00823813
-0.0879019
0.0433827
0.0422475
-0.0494841
0.00723658
-0.0189234
0.0194651
0.0645332
-0.0375285
-0.0175606
0.0550891
-0.0100014
-0.0899033
0.0587455
0.0411593
0.0551189
0.0339768
-0.0591858
-0.00703787
0.0853629
-0.0112965
-0.0670286
0.0665808
-0.071397
-0.039676
0.0926954
0.00651679
-0.0201888
0.0376804
0.0412304
-0.0587219
0.0136445
0.0846141
-0.0876365
-0.0605457
-0.000646397
0.0611921
0.0326453
0.0277196
0.0291963
-0.0895612
0.0662958
0.000781773
-0.0667598
-0.000317813
0.0760668
-0.0840398
-0.00719054
0.0151635
0.044444
-0.0398043
-0.00463964
-0.112788
0.00440082
0.111197
0.0602286
-0.046408
-0.00935636
-0.0691128
0.152107
-0.0736375
-0.0548935
0.0976893
-0.0427958
-0.0692085
0.0368891
0.0323194
0.0487779
-0.0481467
-0.000631224
-0.0089749
0.0868879
-0.0300987
-0.0478143
-0.00336404
-0.0303208
-0.0691199
-0.0965969
-0.00490587
0.0825795
0.0353077
0.0335235
-0.0688312
-0.0451943
0.0520595
-0.00686515
0.0558747
0.0540627
0.00376758
-0.0180635
-0.0397668
-0.00840413
-0.0478914
0.0465488
0.00974674
0.000668519
-0.053951
-0.0039074
0.0877347
-0.087259
-0.00047574
0.053126
-0.0927744
0.0904894
-0.00338053
-0.0767063
-0.0104026
0.0842129
-0.122496
-0.0308172
0.0691003
-0.0250787
-0.0529628
0.0770574
0.000984138
0.00751192
-0.00595063
-0.0501466
0.0485853
-0.0655961
0.113833
0.0172393
0.0622355
0.0799648
0.0287903
0.0182061
0.0593402
-0.0738543
-0.0144963
0.0397712
0.122501
0.00445477
-0.166726
0.0489987
0.0670829
-0.0994039
0.0905936
-0.00719933
0.0400743
-0.0279936
-0.0270933
-0.0650268
0.120114
0.0801066
0.00142848
-0.0815351
0.0364766
-0.00956032
-0.103266
0.07635
0.0354839
0.0338854
-0.0517354
-0.0147417
-0.00926584
0.075743
0.00197258
0.0319462
-0.0339188
0.000141079
0.0529136
-0.00710077
0.00763942
0.0585794
-0.052344
0.0155424
0.0368016
0.0274331
-0.0830091
0.0735131
-0.0179371
0.13829
-0.00637139
-0.141304
0.00938537
-0.00740148
-0.00322217
-0.0997912
0.133795
-0.0134249
-0.0943812
-0.0259894
-0.0822089
0.0418612
0.0403477
0.10094
-0.0176698
0.00525204
0.0601381
0.0662377
-0.0578002
-0.00246504
-0.00597241
0.008687
-0.00931075
-0.042445
0.0430688
-0.0392075
-0.0654283
0.0816403
0.0427886
-0.0102512
-0.0844955
0.0519581
0.0021747
-0.0373265
-0.0136617
0.0488135
-0.0341596
0.0291087
-0.0669114
0.0719623
-0.030738
0.0886213
-0.0505863
-0.00256088
0.0531472
0.0571904
-0.0141409
-0.0343931
-0.00865634
-0.000510419
0.0700148
-0.0921742
-0.02266
0.0448193
-0.0384177
-0.0924219
0.112271
-0.00880678
-0.0110422
0.0391662
-0.046853
0.0477293
-0.0263814
0.270803
-0.122708
-0.121713
0.0222268
-0.0755026
-0.00112636
0.0597463
-0.05862
0.0472594
0.0115525
-0.125981
-0.0874875
0.0369555
0.0717227
-0.0211907
-0.0119646
-0.0349651
0.020594
0.0263357
-0.0596469
-0.00044866
-0.0825548
0.0812744
-0.0523577
-0.00170439
0.0540621
-0.0506088
0.088955
-0.00116949
-0.0885498
-0.0442217
0.0901958
-0.0779255
-0.0336865
-0.000510169
-0.0952082
-0.041714
0.00943196
0.0702279
-0.0379458
0.020224
0.0470953
-0.0187605
-0.0485588
-0.000243628
-0.0822658
-0.00461991
0.0309312
-0.125594
0.0203849
-0.10119
0.0872737
0.0448471
0.0553694
-0.103646
0.0336757
-0.0280799
-0.0236413
-0.0575885
0.0469559
0.0220312
-0.0113985
0.0660515
-0.00108912
0.00507228
-0.0700347
0.00989168
-0.0504009
0.053092
-0.127171
0.00438706
0.0146102
0.108174
-0.0956241
0.0825898
0.0152954
0.00586335
-0.0671668
-0.0595261
0.12083
0.0883079
-0.0298023
-0.0375597
-0.000575589
-0.0949887
0.095185
0.000512714
-0.0680015
-0.0342128
0.0284284
0.0737859
-0.0871361
0.0604731
-0.0204173
0.0470803
-0.0175436
-0.0590351
0.0765788
0.0359085
-0.000863425
-0.00583091
-0.0640992
0.0638056
0.0485925
-0.0482988
0.0307156
0.0499763
-0.034897
-0.0167015
0.129902
-0.126828
0.0190854
0.0152419
0.0365554
-0.0500726
-0.0258257
0.0523833
0.00028822
-0.08836
-0.114258
0.000125285
0.0869613
0.0271715
-0.0466149
-0.0273802
0.0704945
0.129105
-0.0725687
-0.12703
-0.00692801
-0.0735603
0.0804883
0.115163
0.0864028
-0.0883766
-0.0694528
-0.0106021
-0.000907463
0.0809624
-0.0058277
0.0895908
-0.0695478
0.06147
-0.0224174
-1.84872e-05
-0.0717821
-0.00514399
0.0938205
0.0122635
0.0249354
0.0483691
-0.0733046
-0.0814016
0.0390792
0.0389946
-0.0469507
0.0101398
-0.00218377
-0.0315926
-0.0202287
0.0606687
-0.00144536
0.0407939
-0.047616
0.0595946
-0.0527725
-0.0202278
-0.0160978
0.0771196
0.063708
-0.0578192
-0.00197813
-0.00391071
0.00504465
0.0525243
-0.0980708
0.0401177
0.0528164
0.0381623
-0.0455177
0.0498776
-0.0425221
0.0887712
-0.1021
0.0238823
0.0110256
-0.0465944
-0.100113
0.135682
0.0297403
-0.0285166
-0.0706463
0.107462
0.0130818
-0.0950278
0.00359575
0.059532
0.00502897
-0.0673115
0.0869467
-0.0246642
-0.0452541
0.0107292
0.107101
-0.0725757
-0.0637528
-0.0752004
0.0602698
0.04034
-0.0254093
-0.020889
0.110071
-0.00570278
-0.0942325
0.072
0.0563431
-0.0341105
0.043181
0.0741788
-0.0703945
-0.0469652
0.00797063
0.0091072
0.0522328
0.0563189
0.036278
-0.0314385
0.0884883
-0.0933277
-0.101305
0.0840136
0.0172912
-0.0212783
-0.0293182
-0.055946
0.012676
-0.0716335
0.0391392
0.0987808
-0.0662865
0.0235759
-0.0207772
-0.0609559
0.0581571
-0.0407074
-0.0366306
0.0362272
0.0541062
-0.103695
-0.0358927
0.0854812
-0.0242274
0.0261662
0.085073
-0.0228659
-0.0351437
-0.0913507
0.14936
0.0469008
-0.0507621
0.0310222
0.0176102
-0.0389086
0.0195573
-0.0747202
-0.0530281
0.0515429
-0.0492253
0.0840262
-0.129455
0.0155538
-0.164561
0.078063
0.0148355
0.0716628
-0.0401217
0.0457367
0.106565
-0.111478
0.0179563
-0.0130428
-0.0920966
0.00981193
0.0671738
0.0151109
-0.125266
0.0752385
-0.0169776
-0.101528
0.0142673
0.0192925
0.0679686
0.00271936
-0.100311
-0.0029224
-0.0722987
0.0697408
0.00255788
-0.0709359
-0.00136281
0.0485648
-0.0494407
0.0335501
-0.0802409
0.0602561
0.0645013
-0.0637863
-0.0021652
0.00145023
0.0025208
0.0133503
0.0486301
-0.0487078
0.000430227
0.00847594
0.0879697
-0.0197649
-0.0766807
0.00873337
0.0493673
-0.0581006
0.0628914
0.00431658
0.00987619
0.0480682
-0.126639
-0.00635472
-0.0779946
-0.0152452
-0.0840836
-0.0378726
-0.0392379
-0.0457137
0.0850525
-0.0393388
-0.0511141
-0.00287626
0.00653551
0.0474549
0.090898
0.00272968
-0.106797
0.0131695
0.00471647
0.0154148
0.0490726
-0.0120631
-0.0581779
0.0599255
0.0103156
0.049846
-0.0651727
0.0200431
-0.07186
0.0214576
0.058373
0.0432348
0.00505876
-0.0603566
-0.0353053
0.0160074
0.00268082
-0.0903123
0.0692719
0.0183596
0.0466585
0.0218132
-0.0647225
0.0553971
-0.0276378
-0.0408957
-0.00839641
0.0521341
-0.002842
0.0874213
0.0124687
-0.09989
0.0734619
0.0744035
-0.0210459
-0.126819
0.0291065
-0.0270827
-0.129562
0.121494
0.0229858
-0.0149184
-0.0313888
-0.0452432
-0.0359031
-0.0332856
0.0788623
-0.0807276
0.0127383
0.00304787
0.0686019
-0.0727389
-0.0861399
0.0054123
0.00318136
0.089272
-0.116681
0.0109948
0.124408
0.133082
-0.104936
-0.000253425
-0.0278933
0.03901
0.0370568
0.0226889
0.0819334
0.0377665
0.0542747
-0.0291498
0.029317
-0.0646606
0.0353435
0.10475
-0.0595942
-0.0841234
0.0389673
0.00632
0.118773
-0.111607
-0.013486
0.00884896
-0.0092392
-0.04099
-0.000873623
0.0418636
-0.00282603
-0.0504101
0.0564119
0.0605961
-0.0881559
0.022276
0.0549186
0.00362265
0.0754408
0.0772507
-0.0154561
-0.137235
0.0419875
-0.0671819
0.0716738
-0.0464794
-0.0203517
0.0210137
0.0345048
0.0972098
-0.105462
-0.00312186
-0.104251
0.0687457
0.0107585
0.10047
-0.0387999
-0.0724289
0.091451
0.00428758
-0.0894279
-0.00631075
0.0465027
-0.00762656
-0.0439064
0.00216441
0.0774581
0.00187128
-0.0728072
-0.00294738
0.064719
-0.0617716
0.0851246
0.0215875
-0.0568661
0.00283936