/*--------------------------------*- C++ -*----------------------------------*\
| =========                 |                                                 |
| \\      /  F ield         | OpenFOAM: The Open Source CFD Toolbox           |
|  \\    /   O peration     | Version:  2506                                  |
|   \\  /    A nd           | Website:  www.openfoam.com                      |
|    \\/     M anipulation  |                                                 |
\*---------------------------------------------------------------------------*/
FoamFile
{
    version     2.0;
    format      ascii;
    arch        "LSB;label=32;scalar=64";
    class       volScalarField;
    location    "0.0563527";
    object      nut;
}
// * * * * * * * * * * * * * * * * * * * * * * * * * * * * * * * * * * * * * //

dimensions      [0 2 -1 0 0 0 0];

internalField   nonuniform List<scalar> 
3991
(
0.00400622
0.0052918
0.00330586
0.00111728
0.0039627
0.00172346
0.00393419
0.00353904
0.00135268
0.0040036
0.000562231
0.00113056
0.00500344
0.00135402
0.00310588
0.00022825
0.00336994
0.00106871
0.00085583
0.00272049
0.000505021
0.00457657
0.00133794
0.00138275
0.000987661
0.00118037
0.0014122
0.000398724
0.00562257
0.00140235
0.000609189
0.00200433
0.00120332
0.000905858
0.00136587
0.00137096
0.0011681
0.000826191
0.00164117
0.000984201
0.000439588
0.00037578
0.00080685
0.000602066
0.00178532
0.00199169
0.000993148
0.00208284
0.00150656
0.00302383
0.00167574
0.00298915
0.00422293
0.00255025
0.0041956
0.000919493
0.00151978
0.000610354
0.00063347
0.00117783
0.00544327
0.000930237
0.00029814
0.000720689
0.000416235
0.00119893
0.000472864
0.000459519
0.00134547
0.00282905
0.00122369
0.00118904
0.00252685
0.00136683
0.00615209
0.00144473
0.00212338
0.00139608
0.00387935
0.00336389
0.000956885
0.00178536
0.00111459
0.000360978
0.00076252
0.000540241
0.000999439
0.00363325
0.00249013
0.00500179
0.000879947
0.000821229
0.000664376
0.00032021
0.000615748
0.00280199
0.000424288
0.000556153
0.0040827
0.0027224
0.000366589
0.000932501
0.000887158
0.000744522
0.00317863
0.00310422
0.00211405
0.00352653
0.00210301
0.00419311
0.00335972
0.00456591
0.00595809
0.00211736
0.00220409
0.00265292
0.00304223
0.00305385
0.00305749
0.00240832
0.00412634
0.000393522
0.00380274
0.000461027
0.000421697
0.00044303
0.00206812
0.00409173
0.0055923
0.00294122
0.00400833
0.00348115
0.00277206
0.000448719
0.000877231
0.00147583
0.00602079
0.0058606
0.00552996
0.00484551
0.00348623
0.00073078
0.000640309
0.00084283
0.00138061
0.00133772
0.00271495
0.00231478
0.00106405
0.00561342
0.00545166
0.005391
0.00604024
0.00220496
0.00133029
0.00178165
0.00315856
0.00149197
0.00103368
0.0010466
0.00436716
0.00552679
0.00502399
0.000697398
0.00226668
0.000134816
0.000934088
0.000970839
0.00105377
0.00141941
0.00369106
0.00123746
0.00138626
0.00146896
0.00430222
0.00217636
0.000486974
0.00268918
0.00313254
0.00429689
0.0012604
0.0011309
0.000622549
0.00542498
0.00192636
0.00405963
0.00253562
0.000543461
0.000964829
0.0037745
0.00169277
0.00121032
0.000492551
0.000899979
0.00156231
0.00163566
0.0018304
0.000378814
0.0062003
0.00180133
0.00152899
0.000862972
0.000606285
0.00103113
0.00101384
0.00132218
0.00138298
0.000939698
0.000351547
0.00345622
0.000381289
0.000485967
0.000734865
0.000736983
0.000874607
0.00104311
0.00145186
0.00116333
0.000750202
0.00332633
0.000373484
0.000648284
0.00539899
0.000872455
0.00136316
0.000418635
0.000878971
0.0025866
0.000778795
0.00354762
0.0006968
0.00363616
0.00116193
0.00308016
0.00123622
0.000862507
0.0016265
0.00122388
0.000779139
0.00361311
0.0031181
0.00390192
0.000895634
0.00458975
0.00167401
0.00158134
0.00661108
0.000826374
0.0039263
0.00180054
0.000534485
0.000629228
0.00124603
0.00159842
0.00139789
0.000366446
0.00227559
0.000671889
0.000665323
0.00163173
0.000519422
0.0012768
0.00177335
0.00221259
0.00170356
0.000695826
0.00265519
0.00116952
0.000213834
0.0009215
0.00156517
0.00147615
0.00148521
0.0013287
0.0010245
0.00117169
0.00201688
0.0019638
0.00254855
0.00282882
0.00294345
0.00147447
0.00245539
0.00168084
0.00165349
0.00209189
0.00219501
0.00306505
0.00300726
0.00245585
0.00262223
0.00359687
0.00144592
0.0012627
0.00230085
0.0013356
0.00121507
0.00381509
0.000962384
0.00658545
0.00240512
0.00185941
0.00359476
0.000182704
0.000355056
0.000739165
0.000170064
0.00388982
0.00573089
0.00121697
0.00416106
0.00511968
0.0005936
0.0034048
0.00228712
0.00526456
0.00253995
0.0014673
0.00452215
0.00135604
0.00134065
0.00409277
0.00074393
0.00035426
0.00303146
0.0016502
0.00111919
0.00281158
0.00163187
0.00284906
0.00179769
0.00154939
0.00196215
0.00307277
0.00202406
0.000975432
0.00262652
0.00207115
0.00333772
0.00147109
0.00278214
0.00284764
0.00582054
0.00340746
0.00212493
0.00228949
0.00507772
0.00187454
0.00241463
0.00142774
0.00110603
0.00250617
0.000417832
0.000981704
0.00543648
0.0013011
0.000986952
0.00153328
0.00305379
0.00368571
0.00509206
0.000884836
0.00140983
0.00223785
0.00118263
0.00191317
0.000560143
0.00130103
0.00126121
0.00216447
0.00114565
0.000973353
0.00102033
0.000354046
0.000583493
0.00472636
0.00149781
0.000689473
0.00198701
0.0016623
0.00453053
0.00352779
0.00156344
0.0034802
0.00235853
0.00354738
0.000970618
0.00515253
0.00432587
0.000843481
0.00175337
0.000268443
0.0037238
0.00220864
0.00187305
0.00232402
0.000265677
0.000264338
0.00128558
0.00140946
0.001899
0.00235469
0.00049417
0.00164552
0.000969239
0.00193832
0.00499721
0.000328853
0.00174488
0.00126462
0.00338324
0.00100695
0.00265706
0.00227442
0.00232366
0.00116621
0.00136628
0.00282046
0.000553252
0.00255697
0.00522633
0.0026633
0.00185208
0.00161487
0.00163743
0.000473692
0.00307682
0.00137086
0.00098622
0.00579455
0.00191708
0.00109003
0.00156567
0.00229414
0.000779444
0.00146367
0.00119337
0.00048251
0.000958558
0.00373709
0.00120006
0.00602521
0.0043903
0.00104771
0.000522268
0.000551506
0.000898786
0.00125153
0.000413768
0.000449959
0.000673547
0.000453658
0.00406949
0.00117136
0.00060382
0.00165955
0.00142938
0.000618822
0.000672501
0.00233586
0.00133244
0.00248149
0.00501207
0.00103625
0.000918181
0.000584485
0.000677181
0.00395832
0.00330501
0.00376749
0.000869999
0.00306752
0.0019264
0.00253669
0.00468751
0.00166698
0.00157741
0.00124515
0.00410395
0.00320961
0.00443279
0.00195521
0.00309382
0.000271511
0.00118239
0.0029641
0.00265087
0.00621534
0.00443379
0.0032859
0.00448583
0.00369712
0.00206772
0.00251911
0.00144501
0.00224771
0.00120887
0.00262762
0.00325161
0.0018736
0.00337486
0.000793459
0.00200335
0.000336108
0.00434136
0.00155341
0.00412629
0.00327803
0.00481554
0.00488749
0.00488671
0.000514912
0.000851243
0.00173512
0.000563095
0.00159896
0.00122662
0.00387449
0.00160078
0.000568779
0.00203356
0.000143898
0.000850627
0.000460993
0.00223852
0.000615888
0.00143549
0.00516353
0.00385714
0.00337584
0.0031588
0.00290462
0.000603479
6.62112e-05
0.000440629
0.0017199
0.000558835
0.0055459
0.00307636
0.00165695
0.00414732
0.000726717
0.00118986
0.00147523
0.00378316
0.0041448
0.000730384
0.00100695
0.0013752
0.000645497
0.00125415
0.000677529
0.000702444
0.000483413
0.000441033
0.00221864
0.00226845
0.00061509
0.000504364
0.000744163
0.000627632
0.00256377
0.00263191
0.000991035
0.000382364
0.00101363
0.000505597
0.000767793
0.0027655
0.000649487
0.000776995
0.00296098
0.00384851
0.00325892
0.00315043
0.0017963
0.000222831
0.000547281
0.000784403
0.000802176
0.000520035
0.000886893
0.000476967
0.00252131
0.00125345
0.00268714
0.00331172
0.00212858
0.00277277
0.00461501
0.00356566
0.00164656
0.00434867
0.00423911
0.00285654
0.00682851
0.0031422
0.00515585
0.00402642
0.0044881
0.0037382
0.00475659
0.000880138
0.000569826
0.0012765
0.0024078
0.00263048
0.00398685
0.000630237
0.00260986
0.00341776
0.00117769
0.00161587
0.000831976
0.0007832
0.000936311
0.00244093
0.00354793
0.00375006
0.00363557
0.00349284
0.00184537
0.00278363
0.0019099
0.00182507
0.000914643
0.000866076
0.00160909
0.000390639
0.000685859
0.00143646
0.00217612
0.000807546
0.000804493
0.001105
0.00339425
0.00236276
0.00259932
0.00318792
0.00261112
0.00206035
0.0038356
0.0039813
0.00385024
0.00408884
0.00295169
0.00109036
0.00397233
0.00163969
0.00112328
0.00284721
0.00394089
0.00151889
0.00466123
0.0045631
0.00413028
0.00222093
0.00146266
0.000318385
0.000187094
0.000270993
0.000188052
0.000312996
0.000443496
0.000671582
0.00140484
0.0019188
0.00227048
0.00265376
0.003877
0.00171843
0.00347095
0.00261263
0.000622691
0.00208177
0.00125646
0.00116866
0.000649225
0.000842687
0.00069961
0.00126068
0.00323896
0.002746
0.00247089
0.0012147
0.00362125
0.00320715
0.00200883
0.00245638
0.000875437
0.00319422
0.00557136
0.00179432
0.00482726
0.00314257
0.00444416
0.000668246
0.0035761
0.00157511
0.0011399
0.00225693
0.00544216
0.00120876
0.00477577
0.003526
0.0011002
0.00114807
0.000506489
0.000521127
0.00142224
0.00410741
0.00199428
0.00082427
0.00354343
0.00525236
0.00251435
0.00271312
0.00243512
0.000805407
0.000386426
0.00132236
0.000852811
0.0024779
0.00261149
0.0024571
0.000319223
0.00252422
0.00159806
0.000993335
0.00104694
0.00309222
0.00185949
0.00402405
0.00169361
0.00120589
0.000460479
0.0027654
0.00252728
0.0023105
0.000499451
0.00401776
0.00177085
0.00231903
0.00208205
0.00098945
0.000423022
0.00162035
0.00147319
0.00102358
0.00125615
0.00342473
0.00362704
0.00265241
0.00371401
0.00235529
0.00212615
0.00205336
0.000690767
0.00147373
0.0015054
0.000662551
0.00473749
0.00134526
0.00360685
0.00083526
0.000426697
0.000418121
0.000249693
0.000859948
0.00087299
0.000581662
0.000454725
0.000505079
0.000860879
0.00422422
0.00210846
0.000855195
0.00268022
0.00213207
0.00225081
0.00347385
0.00336298
0.000972866
0.00134315
0.00151313
0.0035569
0.00238663
0.00307734
0.00171435
0.00159461
0.00182814
0.00206939
0.00162132
0.00378041
0.00479576
0.00319046
0.000808066
0.00262737
0.00284683
0.00194112
0.00365288
0.00151757
0.00245098
0.00191857
0.00419502
0.00202726
0.00169527
0.00161614
0.00102249
0.00109755
0.00271032
0.000570786
0.00381846
0.000809969
0.000573914
0.00212551
0.00545109
0.00159606
0.00538902
0.00113716
0.00284479
0.00118156
0.00100049
0.00102107
0.00291435
0.00653327
0.000635654
0.00189327
0.00389907
0.00262345
0.00272103
0.0016462
0.00201374
0.000665816
0.00704767
0.00406131
0.00126732
0.00182118
0.00147447
0.00224863
0.00638802
0.00489396
0.00142308
0.00267134
0.00615141
0.00547835
0.00133017
0.00589519
0.00427782
0.00394532
0.002744
0.00488136
0.00473177
0.0055928
0.00169737
0.00161419
0.00120596
0.00149218
0.00152858
0.00121003
0.00205801
0.00120391
0.00114564
0.000948483
0.00164816
0.00226091
0.00330585
0.00188766
0.00209369
0.00547919
0.00544686
0.00327629
0.0032927
0.00111322
0.00183563
0.00195503
0.00310565
0.00245435
0.00154351
0.000559738
0.000962951
0.000194433
0.00118406
0.000836528
0.000294023
0.00105841
0.00418153
0.00545546
0.0005269
0.00147527
0.00598861
0.00454116
0.00143317
0.00128213
0.00353601
0.00242434
0.00105916
0.00207975
0.00258831
0.000422115
0.00264073
0.00494579
0.00315846
0.00146593
0.000847758
0.00242306
0.00320996
0.000611172
0.000518984
0.00155354
0.00234364
0.000488894
0.00213951
0.00184285
0.000853192
0.00146608
0.00122478
0.00426551
0.00260855
0.00451065
0.00266188
0.00577632
0.00531063
0.00647584
0.00247854
0.00140394
0.00323862
0.00105296
0.00245083
0.00189756
0.00163863
0.00141342
0.00124878
0.00192216
0.000780166
0.000705903
0.00140176
0.00111701
0.00123469
0.00598343
0.00145766
0.00105104
0.000925886
0.0019772
0.000678752
0.000971629
0.000783525
0.000254335
0.00237283
0.00133912
0.00111345
0.00132598
0.00100339
0.00460189
0.0054122
0.00116472
0.0034206
0.00188167
0.00244998
0.00137022
0.00237721
0.00149786
0.000663505
0.00112002
0.000230409
0.00108273
0.00093281
0.000542832
0.000991731
0.00136402
0.000765775
0.000550494
0.0023425
0.00366379
0.00133169
0.00378833
0.00293278
0.00260617
0.00358998
0.00377329
0.00273381
0.000606601
0.00197228
0.00556512
0.00283003
0.00050042
0.00391603
0.00128499
0.00271927
0.000529863
0.00294223
0.00203872
0.00449519
0.00134463
0.00428352
0.00190497
0.00225482
0.00129307
0.00222393
0.00052645
0.00145173
0.00144572
0.001049
0.00141018
0.00106495
0.000523799
0.00121784
0.00207158
0.0019768
0.000619205
0.00173221
0.0010949
0.000727849
0.00207158
0.00212413
0.00198724
0.00307309
0.0020358
0.00206961
0.00208435
0.00190206
0.000643051
0.00401822
0.000641796
0.000437294
0.00106749
0.000360964
0.00306678
0.00429942
0.00102477
0.00148617
0.00451221
0.000267707
0.000422866
0.000457361
0.00247028
0.000517437
0.000701468
0.00132494
0.000502682
0.0012386
0.000701507
0.00106108
0.00106144
0.000881948
0.000518328
0.00111912
0.000744041
0.00138675
0.00159062
0.00121452
0.000903017
0.00101687
0.00103489
0.000618104
0.000623819
0.000857115
0.00124164
0.00109391
0.00108479
0.00137676
0.00180723
0.00181571
0.00179363
0.00139892
0.0012249
0.00256096
0.00166349
0.00145918
0.00260973
0.000735222
0.00297932
0.00363332
0.00391435
0.0020238
0.00510696
0.000586724
0.0012246
0.00591876
0.00554058
0.000944266
0.00241468
0.00132571
0.00282898
0.00131019
0.00495027
0.00179293
0.00119517
0.00121013
0.00154824
0.000445602
0.00431927
0.00429377
0.000688719
0.00334948
0.00268495
0.00270658
0.00196821
0.00231718
0.00112436
0.00195385
0.00318739
0.00461449
0.000866533
0.00195685
0.000697224
0.00130973
0.00271765
0.00258871
0.0034237
0.0014025
0.00360544
0.00188652
0.000925317
0.000751555
0.00235863
0.00318222
0.00141896
0.00234102
0.00233761
0.00106825
0.00136212
0.000418329
0.000666552
0.000388957
0.00122802
0.000426073
0.000861386
0.00299763
0.0037458
0.00138905
0.00281383
0.00386122
0.00278182
0.00496603
0.00177916
0.00280177
0.00246119
0.0029854
0.00265329
0.00199122
0.00599777
0.00572502
0.00133158
0.00271249
0.00286286
0.00268548
0.00115392
0.00189717
0.00203622
0.001891
0.000697173
0.00151504
0.0022253
0.00134113
0.00194266
0.00197551
0.00276558
0.00202938
0.001768
0.0018223
0.00228064
0.0019591
0.000343688
0.0010288
0.00126059
0.000820629
0.00231991
0.000790824
0.00408826
0.00368542
0.00353145
0.000773444
0.00446764
0.00430922
0.00257738
0.00101547
0.000820554
0.000856747
0.00717156
0.000724713
0.0010818
0.00418115
0.00469497
0.00384857
0.00210298
0.00544089
0.00154815
0.00244318
0.0046531
0.000712243
0.00106586
0.00134269
0.000674069
0.000774117
0.00098084
0.000759514
0.000485028
0.00168115
0.000805742
0.00114855
0.000972974
0.000899631
0.00170201
0.00051943
0.000763714
0.00406772
0.00184854
0.00334714
0.00363899
0.0033227
0.00269956
0.00383046
0.00289375
0.00256095
0.00335808
0.00125268
0.0037962
0.00204766
0.000525556
0.000667159
0.000879821
0.000598123
0.000562141
0.000379199
0.00043662
0.00421281
0.00191656
0.00170344
0.00186615
0.00265627
0.0037583
0.00159111
0.002655
0.000817224
0.00184467
8.93882e-05
0.000692039
0.000453417
0.000292623
0.00207762
0.000481198
0.000481471
0.000466378
0.00109568
0.000871091
0.000304828
0.0014708
0.00031386
0.00102459
0.000127972
0.000543228
0.00125915
0.000726956
0.00138773
0.000319962
0.000529612
0.000715029
0.000683158
0.0023425
0.000914313
0.00112376
0.00114854
0.000791361
0.000453351
0.000397909
0.00135151
0.000775754
0.000827577
0.0011517
0.000462961
0.000894307
0.00366715
0.000861689
0.000531598
0.00146184
0.00117013
0.000639072
0.00192912
0.000299662
0.000266733
0.000651735
0.000967362
0.00157752
0.00104597
0.00124184
0.00122177
0.000883548
0.00117163
0.00111643
0.00457586
0.00498951
0.00394664
0.000739948
0.00470134
0.00273757
0.00121827
0.00210378
0.000596929
0.00519201
0.00546172
0.00307919
0.00111477
0.00128468
0.00172189
0.00552743
0.000585111
0.00321176
0.000481683
0.000463455
0.00208116
0.000293773
0.000444797
0.00262709
0.00172716
0.00579192
0.000721997
0.000202876
0.000693194
0.000181565
0.000507555
0.000691596
0.00595277
0.0029523
0.00564683
0.00361235
0.00599004
0.0033373
0.00387664
0.00198666
0.00295117
0.00182057
0.000337466
0.000769642
0.00115188
0.00237452
0.00571241
0.00155457
0.00223263
0.00371198
0.00482615
0.00172894
0.00415842
0.00124834
0.0013178
0.00133362
0.000614716
0.0016766
0.0014002
0.000790466
0.000960236
0.00319972
0.00165545
0.000830969
0.00250248
0.00195923
0.00180416
0.00195171
0.00227394
0.000442917
0.00124378
0.00173463
0.003528
0.0016354
0.00324168
0.00159863
0.00602823
0.00365006
0.00151658
0.00256717
0.000578895
0.000804333
0.00205987
0.00159435
0.00410425
0.00306445
0.00158107
0.00188133
0.00165222
0.000773309
0.000682629
0.00071875
0.000812805
0.00131
0.000940158
0.00109775
0.000393457
0.00184733
0.00535604
0.000763595
0.00147137
0.00169502
0.000715456
0.000285308
0.0014594
0.00196878
0.00223306
0.000922617
0.00448688
0.00521718
0.00470835
0.00641963
0.00353009
0.00319402
0.00204533
0.000509186
0.00123483
0.00187837
0.00158915
0.00130134
0.00171552
0.00122632
0.0012639
0.00232865
0.00113665
0.00290667
0.00195167
0.00234071
0.00309817
0.000688076
0.000820299
0.00234531
0.00243169
0.00427735
0.000713998
0.00172345
0.000613361
0.000771631
0.00134396
0.000607524
0.000615383
0.00051599
0.000423041
0.00112035
0.00144786
0.00169271
0.00139624
0.00138514
0.00216213
0.00175766
0.00180801
0.00166367
0.00198411
0.00126441
0.00126777
0.000794028
0.000698504
0.00186156
0.00270745
0.000624557
0.00114222
0.00224955
0.0017215
0.000996021
0.00138577
0.00138336
0.00141796
0.00353841
0.00268045
0.00348207
0.00162748
0.00322223
0.00336328
0.00288581
0.000444475
0.000874523
0.00545961
0.00468138
0.0046636
0.00517948
0.00139408
0.0012418
0.00131799
0.0031212
0.00320057
0.00290662
0.00250107
0.00279383
0.00222556
0.0031049
0.00413742
0.00310558
0.00261979
0.00322221
0.000837692
0.00405431
0.00126933
0.00361157
0.00179542
0.00545551
0.00251345
0.0023691
0.000910945
0.00261863
0.00188093
0.00158345
0.00422039
0.0020098
0.000266754
0.00140974
0.000987291
0.00383521
0.00138807
0.0037407
0.00184604
0.000896719
0.000756299
0.00123998
0.000998089
0.000989787
0.00275132
0.00109771
0.00127365
0.00219346
0.00441469
0.00318996
0.00254039
0.00360706
0.00157649
0.00118058
0.00544821
0.000940407
0.000354363
0.0021147
0.00245734
0.00314263
0.00354314
0.00317675
0.00509285
0.00304912
0.00178942
0.00312946
0.00216467
0.00549021
0.00163457
0.0021609
0.0021285
0.00175984
0.00280578
0.00147774
0.00108561
0.000690311
0.000628912
0.00281898
0.000403277
0.00207059
0.00261644
0.00164823
0.00147569
0.00085875
0.00104967
0.00214641
0.00293695
0.00151667
0.00181063
0.00146623
0.00124437
0.00353155
0.00302007
0.00277913
0.00329728
0.00110592
0.000837686
0.00469994
0.00278603
0.00125024
0.00593113
0.00215226
0.00452048
0.00368196
0.00296931
0.00607833
0.00236873
0.00429907
0.00118797
0.00079712
0.000863397
0.0010256
0.00406725
0.00206982
0.0050657
0.00330614
0.00415422
0.00146249
0.00629074
0.00278895
0.00254449
0.00288793
0.00447521
0.000981033
0.00181448
0.000972428
0.00280989
0.00359427
0.00356455
0.00389682
0.00226697
0.00083041
0.00397389
0.00191698
0.00373716
0.00303062
0.00466752
0.00126784
0.000687592
0.00234672
0.00133112
0.00448158
0.000151656
0.000939962
0.000820945
0.00141128
0.000924932
0.000290406
0.00259848
0.00161108
0.000885615
0.000946527
0.0048152
0.000779976
0.000237592
0.00111781
0.000450435
0.00311811
0.00184618
0.00444529
0.00184461
0.00077446
0.00169436
0.00113502
0.00508073
0.00348225
0.00272146
0.00324119
0.00164062
0.000704717
0.000973923
0.00629017
0.00120894
0.00153137
0.00251549
0.00509599
0.00212776
0.0037236
0.00506191
0.000976165
0.00437256
0.0044143
0.00134221
0.002082
0.00516527
0.00314286
0.00596908
0.00218922
0.00181779
0.00617309
0.00407454
0.00257164
0.00148245
0.00205163
0.00471052
0.00147875
0.000841228
0.00107077
0.000476303
0.00261117
0.000496882
0.00662947
0.00114963
0.00226338
0.00459945
0.00142812
0.00371466
0.00123823
0.00445226
0.00138577
0.00178038
0.000907783
0.000399684
0.000102138
0.000222116
0.00110404
0.000534861
0.000174466
0.00103746
0.00303878
0.000474014
0.0033109
0.00444478
0.000360235
0.000480989
0.000354288
0.000954804
0.00349037
0.00170062
0.00219239
0.00148606
0.000819644
0.000759212
0.000904508
0.000480253
0.00105413
0.000724285
0.000725704
0.000157011
0.00117356
0.00118405
0.00548493
0.000251241
0.00211629
0.00631647
0.00432097
0.00355201
0.00267834
0.00632738
0.00631269
0.00175049
0.00111105
0.000381293
0.00143653
0.000837563
0.00171911
0.00102896
0.00136278
0.00129647
0.00118276
0.00161717
0.000424731
0.000806737
0.00269055
0.00166118
0.000546922
0.000253095
0.00081467
0.000471125
0.000440551
0.000741844
0.00111094
0.00144042
0.000822339
0.00117087
0.00137809
0.00106021
0.000681797
0.000861693
0.000781734
0.00190338
0.00110334
0.00261713
0.00282777
0.0014945
0.0013764
0.00147566
0.00159671
0.00139757
0.00123393
0.00305916
0.00339354
0.00047468
0.000126584
0.000210151
0.00157254
0.00161626
0.000618861
0.00234996
0.00472106
0.000350187
0.000631507
0.000847859
0.000397884
0.000980495
0.00277786
0.00217816
0.00143203
0.00133651
0.000848239
0.0063542
0.0027543
0.00130531
0.00249565
0.00196873
0.00449604
0.0049145
0.00260663
0.00118603
0.00239051
0.0018337
0.00252842
0.00127997
0.0015739
0.00138515
0.00366666
0.000323219
0.000879684
0.000619789
0.000730792
0.00119598
0.00103223
0.000720159
0.000634411
0.000965735
0.000729776
0.000630231
0.000506866
0.0006253
0.000807131
0.00575611
0.00260841
0.00323397
0.00489188
0.0049986
0.00233612
0.00234486
0.0050025
0.00381408
0.00423791
0.00200506
0.00422474
0.000734636
0.00091061
0.000824005
0.000964209
0.00250755
0.00271038
0.00271192
0.00199931
0.00388569
0.00373948
0.0016578
0.00355936
0.00309023
0.00579114
0.000622216
0.00529181
0.00424388
0.005571
0.00596873
0.00251967
0.00233627
0.00439529
0.00121001
0.00170164
0.000932405
0.00124831
0.00123929
0.00131719
0.00177463
0.00104695
0.000907672
0.000979182
0.00206773
0.000777607
0.000645373
0.00177468
0.00086638
0.00170938
0.000947518
0.000371147
0.000857044
0.000264164
0.00241871
0.000495272
0.000832634
0.00187045
0.000835716
0.00103853
0.000429183
0.00259902
0.000168647
0.0019032
0.00199978
0.0011648
0.00426637
0.00688257
0.00152527
0.00396691
0.00161242
0.00130501
0.00121696
0.0016003
0.00249236
0.00205348
0.00194449
0.00128495
0.00108321
0.00507496
0.00134761
0.00511551
0.00356355
0.00343092
0.00268669
0.000911272
0.000181954
0.00227837
0.000577319
0.00188337
0.00135958
0.00180665
0.00283389
0.00682646
0.000981304
0.00167475
0.00180292
0.00070771
0.00120064
0.000962823
0.00685586
0.00726785
0.00164453
0.00145285
0.000346815
0.000914415
0.0016546
0.000617386
0.00152424
0.000972103
0.00305249
0.00434691
0.00230867
0.00458061
0.00244582
0.00249653
0.000384889
0.000278693
0.000844679
0.000991523
0.00513234
0.00417904
0.00065068
0.000425577
0.000308953
0.000578543
0.00084943
0.00032603
0.000531239
0.000736972
0.00057303
0.000543147
0.000470651
0.000555338
0.000413081
0.000812644
0.00076503
0.000422372
0.000565705
0.00198927
0.000381796
0.00196814
0.000936343
0.0021379
0.00258707
0.0046067
0.00381305
0.000541445
0.000880169
0.00405709
0.00120577
0.00120361
0.00243921
0.00164335
0.0022084
0.00112462
0.0016907
0.00124114
0.00161842
0.00120232
0.000727514
0.000666364
0.0054668
0.00183051
0.00313335
0.000660398
0.00471218
0.000889585
0.00174326
0.00227211
0.00229743
0.000230444
0.000994605
0.000551159
0.000494198
0.00120736
0.000628478
0.000941808
0.000523343
0.00134131
0.000933372
0.00220438
0.00048604
0.00256655
0.000758383
0.000772159
0.000943436
0.000329191
0.000732502
0.000600827
0.000701358
0.000788077
0.0010354
0.000763937
0.00556582
0.000387734
0.000420298
0.00178823
0.00235711
0.00279157
0.00152289
0.000396597
0.000323176
0.000564144
0.00122034
0.00169158
0.0016107
0.00165693
0.00170338
0.00156157
0.00102649
0.00146082
0.0013711
0.00124905
0.000978929
0.00123464
0.000709416
0.00336808
0.000231166
0.000414103
0.000433988
0.000525885
0.000413486
0.000284938
0.000433532
0.000418852
0.00419477
0.0039916
0.000494143
0.00150909
0.00266607
0.0016964
0.00172793
0.00099518
0.00107563
0.000512231
0.000722422
0.00106077
0.00157873
0.000375957
0.001697
0.00569472
0.00629821
0.00649543
0.00311728
0.00332939
0.00194254
0.00249087
0.00525625
0.00191181
0.0018017
0.00169395
0.00118152
0.00296931
0.00319366
0.00200191
0.00122814
0.00417
0.0013106
0.00470891
0.00119761
0.00201008
0.00472496
0.00299402
0.00190408
0.000819853
0.00222628
0.00156777
0.00300742
0.00104802
0.0014823
0.00122541
0.00155042
0.00158946
0.00132321
0.00074468
0.000889275
0.00243082
0.0015449
0.000638782
0.000457906
0.000986536
0.000921385
0.000350703
0.000464031
0.000806126
0.00162289
0.00194742
0.00132786
0.0021802
0.00168085
0.0015361
0.000679018
0.00246915
0.00094024
0.00141036
0.00212475
0.00108558
0.00243385
0.00147249
0.00098005
0.00108906
0.000648255
0.00142764
0.00125975
0.00133843
0.00453919
0.00126427
0.00101836
0.000698032
0.00134795
0.0015111
0.00630391
0.00579223
0.00427413
0.00420135
0.00330717
0.00433968
0.00143098
0.00147301
0.000969377
0.00148142
0.00206064
0.00321703
0.00283757
0.0045636
0.0041815
0.00496071
0.00140671
0.00164961
0.000398502
0.00550429
0.00166689
0.00547686
0.000373556
0.00181098
0.00635022
0.0049758
0.000509403
0.0006546
0.00120783
0.00177779
0.00392565
0.00119122
0.00265308
0.00240292
0.00382733
0.00214488
0.00279088
0.00388064
0.00334814
0.0020219
0.00675826
0.00399661
0.00502275
0.00393536
0.00574409
0.000246284
0.00122298
0.00173251
0.000192899
0.00188228
0.00202025
0.00167797
0.00219119
0.00181769
0.000962871
0.000552131
0.000549524
0.000504789
0.000117842
0.0010826
0.000521606
0.000830607
0.00230874
0.00283024
0.000872101
0.000824019
0.00276481
0.00481641
0.00284916
0.000633568
0.000598306
0.00194168
0.000969755
0.00250762
0.00236417
0.00484501
0.00270996
0.00267095
0.000774947
0.000415871
0.00099725
0.000731589
0.000110512
0.000435368
0.000691862
0.000694058
0.00272691
0.000744189
0.00212747
0.00195295
0.00201644
0.00203933
0.00222372
0.00231815
0.00108953
0.00233257
0.00329217
0.00458491
0.00101599
0.00122625
0.00133693
0.000800283
0.000665711
0.000968232
0.00199982
0.00258074
0.0022189
0.00209464
0.00173524
0.00200435
0.00230302
0.00408397
0.00322403
0.00255566
0.00262899
0.00165446
0.000556423
0.000273296
0.000839959
0.00152291
0.0038955
0.00223935
0.00096787
0.00283745
0.000651844
0.00245673
0.000549835
0.00391046
0.00138993
0.000797025
0.000338578
0.00119409
0.00101819
0.00213399
0.000944812
0.00135894
0.0029044
0.0014096
0.00444144
0.00166864
0.0013423
0.0044703
0.00194454
0.0059068
0.00656911
0.00133692
0.00195817
0.00195965
0.00708776
0.00265387
0.0058359
0.00533743
0.00458319
0.00332767
0.00561325
0.0032945
0.00386775
0.000319257
0.00195385
0.00294952
0.00179283
0.00220146
0.00179224
0.00417278
0.00196065
0.00201559
0.00172064
0.00146102
0.00092029
0.000995565
0.00137796
0.00213533
0.00022427
0.00126133
0.00172787
0.000980679
0.00124154
0.00142578
0.00200545
0.00412368
0.00345438
0.00101703
0.000237475
0.00225735
0.00673409
0.00443458
0.00153558
0.00220355
0.00211095
0.000444426
0.000626887
0.00101154
0.000823853
0.000669616
0.00214203
0.00169959
0.000713204
0.00231289
0.00165518
0.000361647
0.00218373
0.00246147
0.001761
0.00316106
0.00143024
0.0022706
0.00252144
0.00269384
0.00377974
0.00160129
0.00124988
0.00123612
0.00175744
0.00223878
0.00155531
0.000510974
0.00160155
0.00319345
0.000486279
0.000295389
0.0046774
0.00182857
0.000499343
0.000689155
0.000393336
0.000431891
0.000345445
0.00113108
0.00142016
0.00260706
0.00171586
0.00121707
0.000277082
0.000876532
0.000727569
0.00250648
0.000659518
0.000651711
0.000343782
0.000378044
0.00112242
0.000238716
0.000514079
0.00318477
0.00365221
0.000114232
0.00110139
0.00579529
0.00223235
0.00129051
0.00118871
0.00111718
0.00214654
0.0011811
0.0012909
0.00123201
0.000942168
0.00366663
0.00329071
0.0044737
0.00346899
0.00301278
0.00532872
0.00227058
0.00564947
0.00373746
0.00149771
0.00529337
0.00290766
0.0024507
0.00215936
0.00245837
0.00147711
0.000758141
0.00158134
0.000812465
0.00088628
0.00239093
0.000231102
0.00135898
0.000947693
0.00139863
0.00130667
0.000809042
0.000543501
0.000422958
0.00531146
0.00351964
0.00186929
0.000841473
0.000800917
0.0008571
0.0010326
0.00076569
0.000333398
0.0005359
0.00123985
0.00340554
0.000838714
0.00134551
0.000939492
0.000174243
0.00437417
0.000865525
0.00133771
0.000500001
0.002192
0.00136356
0.00235928
0.00108794
0.000187617
0.000613792
0.00203291
0.00096113
0.0004757
0.000697253
0.000504834
0.00121549
0.00124886
0.00067636
0.000626712
0.00340472
0.000791694
0.000300682
0.00268947
0.00039391
0.000367136
0.00112875
0.00034682
0.00072679
0.000476879
0.000913515
0.00314216
0.00159946
0.00294977
0.00167104
0.00149338
0.00118059
0.00169923
0.00322619
0.0022595
0.000471127
0.000827431
0.000791863
0.00191717
0.00271903
0.00155864
0.000498595
0.000876058
0.00075591
0.00085207
0.000432702
0.00044161
0.00189346
0.000868374
0.00058287
0.000330085
0.000671885
0.00375942
0.00213836
0.00290863
0.00372823
0.00384034
0.00122276
0.0008476
0.0018373
0.00268239
0.000983165
0.00102333
0.00533742
0.000199939
0.00041536
0.00355584
0.00195529
0.000571316
0.0008563
0.00532319
0.00427131
0.00203006
0.00378403
0.0011731
0.00180387
0.00013308
0.000820491
0.000377718
0.000949286
0.00113496
0.00102849
0.00161499
0.00145671
0.00127221
0.00063836
0.000976284
0.0033133
0.00171805
0.0046104
0.00248193
0.00147614
0.00131504
0.0010089
0.00131089
0.0019307
0.00122137
0.00179547
0.00153512
0.00052281
0.000253255
0.00106032
0.000358908
0.000978885
0.000798731
0.000653082
0.00408525
0.00108112
0.000182962
0.00277488
0.000996561
0.00144733
0.00171841
0.00334921
0.00158422
0.00418492
0.0014224
0.000278897
0.000498246
0.00051376
0.000458588
0.00394174
0.0018142
0.00237965
0.0017285
0.00183911
0.00599457
0.00110989
0.00176834
0.000712101
0.000599821
0.000485604
0.000740728
0.00283898
0.000667267
0.000981466
0.00272626
0.00511725
0.000422361
0.00187119
0.00204895
0.00240734
0.00188619
0.00429322
0.00466299
0.0041271
0.0047253
0.00423284
0.00249961
0.00572052
0.0026728
0.000533956
0.000929273
0.00311658
0.00105156
0.000772432
0.00415306
0.00400434
0.00288671
0.00449455
0.00121271
0.00456526
0.00429948
0.00201835
0.00189191
0.00424372
0.00429905
0.00391907
0.00461583
0.00288656
0.00300428
0.00622849
0.00337503
0.000556022
0.00432552
0.00498727
0.00230331
0.000450308
0.00217088
0.00106309