/*--------------------------------*- C++ -*----------------------------------*\
| =========                 |                                                 |
| \\      /  F ield         | OpenFOAM: The Open Source CFD Toolbox           |
|  \\    /   O peration     | Version:  2506                                  |
|   \\  /    A nd           | Website:  www.openfoam.com                      |
|    \\/     M anipulation  |                                                 |
\*---------------------------------------------------------------------------*/
FoamFile
{
    version     2.0;
    format      ascii;
    arch        "LSB;label=32;scalar=64";
    class       volVectorField;
    location    "0.075283";
    object      U;
}
// * * * * * * * * * * * * * * * * * * * * * * * * * * * * * * * * * * * * * //

dimensions      [0 1 -1 0 0 0 0];

internalField   nonuniform List<vector> 
3989
(
(10.0046 0.00859262 0.00571524)
(9.98929 0.0668076 -0.00767162)
(9.79973 -0.0418234 -0.0254183)
(9.90393 -0.0828861 -0.00466939)
(9.69012 0.753299 0.00747719)
(10.0441 0.0906408 -0.000917407)
(10.0017 0.00680864 0.0058753)
(9.73961 -0.02232 -0.0920071)
(10.0015 0.0163999 0.00764526)
(10.5521 0.44088 -0.0212053)
(9.98328 0.0133922 0.00522341)
(9.99524 0.0294636 0.00549097)
(10.2112 0.0167506 0.0211463)
(10.0075 0.0106928 -0.00664383)
(9.98706 -0.0109825 -0.0065787)
(8.98164 0.568343 0.296487)
(9.9989 -0.00379633 0.000822745)
(10.2239 0.346895 -0.0123578)
(10.0136 0.0129207 -0.0065421)
(9.75622 0.449426 -0.0505878)
(10.0435 0.0179596 0.0270388)
(10.021 0.037353 0.00242639)
(10.3025 0.18707 -0.00535724)
(10.3092 0.163952 -0.0331323)
(9.96057 0.0782972 -0.00423319)
(10.0043 -0.0801408 0.00119415)
(10.387 0.161447 -0.00167821)
(10.0002 0.00381438 0.00547753)
(9.99852 0.0525451 -0.00458949)
(10.0073 0.00376283 -0.00683993)
(9.98219 0.00694335 0.00288747)
(10.5157 0.0410143 -0.0347221)
(10.1931 0.227336 -0.0120515)
(10.0046 0.00523002 0.00562055)
(10.4679 0.0237039 -0.0160832)
(9.97578 -0.017098 0.00678391)
(10.0069 0.0147825 -0.0101567)
(10.16 0.306228 -0.0107384)
(10.0009 0.0237627 -0.00342032)
(10.0266 0.023694 0.0044118)
(10.2145 0.0866279 0.00184812)
(10.0006 -0.00988307 -0.00350897)
(9.9972 0.00178753 0.00378582)
(10.0021 0.00119416 0.00741614)
(9.99869 0.0896432 -0.0140037)
(10.0027 0.0131847 -0.00291766)
(10.0066 0.0246073 -0.000669137)
(9.94448 -0.0397082 0.0102887)
(10.0008 -0.00444172 -0.000584758)
(10.0144 0.264803 0.0116094)
(10.404 0.452682 0.00830059)
(10.0077 -0.0028609 0.0119646)
(10.0107 -0.000213663 0.00284612)
(10.0034 0.00418069 0.00559684)
(9.85255 0.0664735 -0.0310172)
(10.0098 0.000524544 -0.00679419)
(9.99902 0.0254685 -0.000684002)
(10.2281 0.0544035 -0.01009)
(10.1276 0.0124214 0.00624425)
(10.2413 0.0888501 -0.00725056)
(10.1967 0.0543737 -0.000832754)
(10.0595 0.00371781 0.00245662)
(5.9337 1.27812 -5.27373)
(1.38307 1.73908 -3.69944)
(9.22773 0.819609 -0.0177682)
(10.0028 -0.00167786 -0.00221641)
(10.0105 -0.136865 0.0107905)
(10.0364 0.191172 -0.0100713)
(10.1047 0.138689 -0.00707137)
(10.0823 0.243441 4.77966e-05)
(9.96593 -0.00731165 0.0074249)
(9.97496 0.104023 0.000661839)
(10.0025 0.258082 -0.0482144)
(10.0052 0.286574 -0.0484622)
(9.93917 0.271901 -0.0356615)
(9.6583 0.462835 -0.200144)
(9.99213 0.236009 -0.045204)
(10.0806 0.252212 -0.0219865)
(9.95061 0.203875 -0.0274304)
(10.0003 0.1925 -0.0411086)
(9.97428 0.151312 -0.0214637)
(9.99531 0.0223766 -0.00795933)
(9.9958 -0.138037 0.0103329)
(10.2509 0.750033 -0.126063)
(10.062 0.986255 -0.107096)
(9.97932 -0.00177731 0.00743818)
(10.054 0.87084 -0.0827659)
(10.0034 0.00574387 0.00433679)
(9.769 -0.0199093 -0.0749206)
(10.0112 0.00322046 0.00468355)
(10.0732 0.882574 -0.133314)
(10.0057 0.0236079 0.00661323)
(10.0019 0.0181351 0.00592936)
(10.2315 0.17936 -0.00826465)
(10.0008 0.00673519 0.00834456)
(10.3692 1.13871 -0.399236)
(10.4967 0.872555 -0.305086)
(9.96033 -0.0697585 0.00436481)
(10.3669 1.0191 -0.306276)
(10.7626 0.762374 -0.346589)
(10.0063 -0.0142453 0.00828888)
(9.99469 -0.017843 0.00496458)
(9.99866 -0.00470511 0.00707868)
(9.98283 -0.0065942 0.000759835)
(10.4667 0.41935 -0.0178656)
(9.99929 0.0018892 -0.000434122)
(10.1556 0.0748153 -0.0172832)
(9.99599 -0.0194189 0.00179312)
(10.0056 -0.00722778 0.0088843)
(10.3923 0.342806 -0.0172152)
(10.1005 0.0533156 0.000310431)
(9.99704 -0.00849802 -0.00284319)
(9.77998 1.45387 -0.645369)
(9.84955 1.53604 -0.720218)
(10.0078 0.0255706 0.00694032)
(10.0979 1.31952 -0.949423)
(9.97008 1.21614 -0.668142)
(10.0959 0.0335417 -0.0047305)
(10.0034 0.00988801 0.00683209)
(9.98896 0.00450488 0.00281471)
(9.98096 0.133735 -0.0209943)
(10.0042 0.0110597 0.00684908)
(10.0502 0.0621547 -0.00716548)
(9.9995 0.00616637 -0.00336164)
(9.20754 0.729799 0.758758)
(9.90192 0.078252 -0.00697279)
(9.99787 0.0143692 0.0020208)
(10.0199 0.273598 0.00321967)
(9.96968 0.0103913 -0.000179673)
(10.4991 0.382845 -0.027271)
(10.3482 0.140783 0.00507245)
(9.97956 -0.0130264 0.00690444)
(10.0692 0.0337197 0.00173141)
(9.97651 0.0104892 -0.00386094)
(9.98471 0.00452523 -0.00121644)
(9.97416 0.0125393 -0.000511994)
(10.0006 0.00210663 -0.0105114)
(10.003 0.00376604 -0.00827822)
(9.99962 0.00128029 -0.00756018)
(9.98463 0.0185952 -0.00544125)
(9.98644 0.0139655 -0.00544388)
(9.9142 -0.00897614 -0.00731333)
(10.173 0.611729 0.0377439)
(10.0013 0.0038529 0.00215136)
(10.0008 -0.00367784 -0.00358871)
(10.533 0.424806 0.0193638)
(9.99864 -0.022234 -0.000232228)
(10.8656 0.657054 -0.277039)
(10.017 0.0401421 -0.00669492)
(9.70227 0.207471 0.026137)
(9.47 -0.0259531 0.0170671)
(10.4138 0.0429764 -0.0160394)
(10.4667 0.0349693 -0.0177532)
(10.3359 0.0360801 -0.00750599)
(10.4135 0.00109374 -0.0270562)
(10.3606 0.0158004 -0.00914442)
(9.68951 -0.00236811 -0.0766904)
(10.4947 0.137786 -0.0105374)
(9.99929 0.0335618 0.00542658)
(9.98349 -0.0028296 0.00163315)
(10.002 0.000792293 0.00487394)
(9.5101 0.457671 0.0268532)
(10.0023 0.0121933 -0.00986841)
(9.98893 0.0139026 -0.00392879)
(9.98714 0.0209576 -0.00906508)
(9.35434 1.20971 0.416571)
(10.4347 0.559079 -0.068869)
(9.9993 -0.00936161 0.00500168)
(9.57798 0.952264 -0.345474)
(10.3126 0.556842 -0.441188)
(9.48375 0.122517 0.26226)
(10.0004 0.0182906 -7.66691e-05)
(10.0072 0.0140278 0.00572969)
(10.2182 0.388952 0.00834714)
(9.90428 0.059175 0.00413329)
(9.90743 -0.128456 -0.0172782)
(9.99746 -0.0024121 -0.000227826)
(10.1315 0.0995354 0.00221664)
(10.564 0.0794452 -0.00798392)
(10.4604 0.415147 -0.0618261)
(10.1489 0.125649 0.0237807)
(10.216 0.699338 0.100119)
(10.0054 0.000533527 -0.00861779)
(10.273 1.02779 0.236474)
(10.0359 0.0036464 0.00766442)
(10.1626 0.0515667 0.00448926)
(9.83574 0.679475 -1.07417)
(10.1336 0.0464249 0.00301808)
(9.96682 -0.0527323 0.000334438)
(10.0038 -0.00450269 0.00642988)
(9.78054 0.493891 0.0422201)
(10.0569 0.968522 -0.686029)
(10.1442 0.0712417 -0.0028394)
(10.0216 -0.00283027 0.00760681)
(9.91077 -0.16467 0.0219073)
(10.0142 -0.0114541 9.41092e-05)
(0.6315 1.59916 -5.43599)
(8.87497 0.740094 0.371681)
(9.69845 0.792015 -0.610914)
(10.0265 0.620052 -0.0227081)
(10.2472 0.0123726 0.0221939)
(10.001 0.00940516 -0.00906883)
(9.97343 0.0182607 -0.0056384)
(10.0018 0.0302073 -0.00533229)
(9.98197 0.01026 0.00116824)
(10.01 0.0136561 -0.010086)
(10.0054 -0.0166046 -0.00904915)
(10.0028 -0.00904628 -0.00811702)
(8.66349 1.49553 -1.79331)
(8.73926 1.51871 -2.12419)
(10.0094 -0.0157514 -0.00703573)
(9.05862 1.64761 -2.92407)
(7.96363 1.4004 -2.35901)
(9.68996 -0.118358 0.0517363)
(10.4089 0.120393 -0.0241886)
(13.4932 1.22367 -3.44997)
(8.29754 1.47537 -2.54598)
(9.95425 -0.0451697 -0.00110549)
(9.93632 -0.00358305 0.00525739)
(9.99858 -0.0244461 -0.00358849)
(9.80583 0.520138 0.0149049)
(9.95167 0.533518 0.0446653)
(10.0029 0.0139369 1.10456e-05)
(9.69916 0.973808 -0.798774)
(9.9773 0.0216944 -0.00247782)
(9.91411 0.0132286 -0.0134571)
(9.91806 0.0924859 -0.00667095)
(9.64667 0.898345 -0.579486)
(9.95793 0.07767 -0.00405788)
(10.0832 0.211951 -0.0193225)
(10.1042 0.0584738 -0.00658173)
(10.1268 0.0529657 -0.0306143)
(10.1716 0.0665081 -0.0120282)
(10.2427 0.114433 -0.0213145)
(10.0015 0.0119813 0.00186345)
(9.94995 0.00146141 0.00684663)
(9.98722 -0.00381446 0.0104996)
(10.0145 0.00979435 0.00688587)
(10.016 0.0287929 -0.00896271)
(10.4259 0.171212 -0.0126976)
(9.26557 0.845844 0.274775)
(10.006 0.000963012 -0.0081683)
(10.0025 -0.00638006 -0.00732066)
(9.97762 -0.000486068 0.00120622)
(9.99061 0.00101742 -0.00165896)
(9.48316 0.997947 0.0251898)
(9.98561 0.0108422 0.00485484)
(9.99317 0.0266515 0.00454863)
(10.0075 0.0194471 0.00464357)
(10.007 0.0275834 0.00535875)
(9.97673 0.0192946 0.00304329)
(9.73119 0.835373 -0.118011)
(10.003 0.0154501 0.0058155)
(10.0018 0.0110981 0.00646483)
(9.98985 0.0078452 0.00451436)
(10.0049 0.0223463 0.00670607)
(9.99325 0.0215486 -0.00967909)
(9.98785 0.0547409 -0.00871652)
(9.72657 0.233051 -0.049284)
(9.93016 -0.0601268 -0.0247364)
(9.81267 0.0903135 -0.0531739)
(10.2389 0.199443 -0.0416049)
(9.98813 0.0799586 -0.00673547)
(10.3613 0.291179 -0.0171109)
(9.95641 0.323706 -0.0238425)
(9.98741 0.144909 0.0190742)
(9.70074 -0.191791 -0.0872401)
(7.85847 1.25738 -1.71063)
(10.0451 0.029255 -0.0071316)
(10.023 0.0309227 0.00118596)
(10.0461 0.0109151 -0.00973643)
(9.98132 0.00171562 -0.00675021)
(9.9866 -0.00256194 -0.0037161)
(10.4906 0.639731 -0.150811)
(9.99704 0.00138972 -0.00848436)
(10.0584 0.47778 -0.196972)
(9.97949 -0.00176086 -0.00413673)
(9.99376 0.00988126 0.000881951)
(9.88521 -0.144509 -0.017055)
(10.5857 0.561853 -0.137611)
(9.98566 -0.0579139 0.00268209)
(10.2633 0.106459 -0.0194652)
(10.2451 0.077318 -0.0183987)
(10.3114 0.0883773 -0.0177876)
(10.0618 0.386122 -0.0363893)
(10.087 0.377658 -0.0413346)
(10.2719 0.0457519 -0.0065971)
(10.1479 0.0213959 0.0162902)
(10.1491 0.0338272 -0.00331472)
(10.2026 0.0743899 -0.0212451)
(9.98758 -0.0141278 -0.00619122)
(9.98725 -0.0184349 -0.0112675)
(10.0433 0.0178744 -0.00418484)
(9.67152 0.31936 0.0769449)
(10.0247 0.00874605 0.00822783)
(10.0072 0.0297093 0.00439573)
(10.0593 0.153943 -0.00924856)
(9.95114 0.0653909 -0.00945079)
(6.82727 1.46983 -3.3002)
(7.89437 1.05498 -2.61446)
(9.82478 0.0333023 -0.0802315)
(9.95826 0.0238867 -0.00927627)
(9.97945 0.0120111 0.00097164)
(9.31733 0.7585 -1.80576)
(9.97597 0.0203281 -0.00732904)
(7.52612 1.07181 -1.49925)
(10.3011 0.165757 -0.011112)
(9.99572 0.0387516 -0.00366994)
(10.0072 0.0208888 -0.00900984)
(10.0049 0.00867568 -0.00778312)
(9.50644 -0.140591 0.0355886)
(10.3398 0.642848 0.0312532)
(7.00179 1.02015 -1.48213)
(6.36041 1.21537 -1.91761)
(10.0005 -0.00491738 -0.00706109)
(9.9835 -0.00499149 3.32718e-05)
(10.166 0.835884 0.0372828)
(10.0872 0.331468 0.00452524)
(10.4426 0.286598 -0.0217865)
(9.82322 0.409652 0.00792122)
(10.6804 0.285998 0.0284088)
(10.0446 0.171626 -0.0394466)
(10.1286 0.388542 -0.0555018)
(9.94648 0.710612 0.123672)
(10.3529 0.347277 -0.0221843)
(10.1314 1.06313 -1.75687)
(10.0488 0.00544043 0.00758329)
(10.0649 0.236252 0.0120487)
(10.0861 0.451482 0.0147369)
(10.2703 0.143202 -0.0275428)
(10.1822 0.600409 0.0660106)
(9.87666 0.268288 -0.0281439)
(8.10747 0.589184 -0.316686)
(10.0208 0.168367 0.0139896)
(9.98597 0.935686 0.0555403)
(10.4159 0.404023 -0.069026)
(9.89226 0.346618 0.00226138)
(10.1655 0.126455 -0.0161395)
(9.98841 -0.00043055 0.00267493)
(10.0063 -0.0026415 0.00377033)
(7.50302 0.86406 -2.34317)
(9.854 0.0683715 -0.0135452)
(10.3119 0.4664 -0.0882509)
(9.85762 0.11628 -0.00651856)
(10.3413 0.794434 0.0122123)
(9.41393 1.12917 -0.952054)
(9.15858 0.848171 -5.72654)
(10.001 -0.00197316 0.00267697)
(10.5586 0.429369 0.0310541)
(9.90474 0.799021 0.353425)
(10.1251 0.494634 0.0252726)
(9.79816 0.155867 -0.0480187)
(9.77538 0.174877 -0.0686468)
(10.1132 0.312579 -0.0209401)
(9.74886 0.565805 0.0963969)
(9.96289 0.0892926 -0.00369572)
(9.85743 0.0291134 -0.00906072)
(9.93344 0.173796 -0.00874363)
(7.87599 0.416763 -8.30732)
(9.99931 0.0486662 0.00660462)
(10.5862 0.0812339 0.00927744)
(9.81879 0.0400775 -0.000669369)
(10.0322 0.0774928 -0.0114717)
(9.30802 1.74502 -6.03225)
(10.1081 0.82005 -3.30026)
(9.93207 0.0848902 -0.00276503)
(9.90007 0.068968 -0.000726855)
(10.0132 0.484399 -0.0805875)
(10.0797 0.0684458 0.00188927)
(10.0081 0.0320238 0.00711943)
(9.80295 0.138688 -0.0358102)
(9.90226 0.654412 -0.495924)
(10.5133 0.0111731 -0.00876365)
(9.84003 1.1274 -0.0801991)
(9.78715 0.263506 0.00154389)
(9.88596 0.543838 -0.00540646)
(10.5478 0.163191 0.0371177)
(9.95625 0.014122 -0.000278626)
(10.4428 0.613834 0.0495967)
(10.419 0.265398 -0.0345806)
(9.9858 0.00822617 -0.00609556)
(10.0023 0.0120777 -0.00775843)
(10.0041 0.0150312 -0.00720282)
(9.9837 0.00235033 0.00747743)
(9.97468 0.00525381 0.000119027)
(10.052 0.71723 0.0997335)
(10.0294 0.0155709 0.000671058)
(9.94402 0.00768479 0.00614209)
(10.0241 0.0206532 0.00249768)
(9.98807 0.00837315 -0.00494381)
(9.99835 0.0832855 -0.00758657)
(10.0154 0.355504 -0.0123894)
(10.002 0.0181747 -0.00163663)
(9.99494 -0.000475425 0.00924505)
(10.0276 0.0160446 -0.000485354)
(9.67023 0.141031 -0.127091)
(10.0008 -0.00346366 -0.00394937)
(9.97892 -0.00751645 0.0058082)
(9.30412 0.80867 -1.54547)
(9.95619 0.640066 0.130272)
(10.0093 -0.0548377 0.00311364)
(9.99572 -0.0627286 -0.0075101)
(10.0055 -0.0027912 0.00107048)
(9.98694 -0.000866788 -0.00150433)
(10.0148 0.000261118 -0.00261768)
(9.85284 0.15804 -0.0128073)
(9.68637 -0.0860026 -0.195967)
(12.1744 0.805788 -3.27729)
(9.58184 0.0294367 0.125799)
(9.36203 1.2586 -1.71737)
(10.3196 0.296227 -0.0186151)
(11.1298 1.03182 -2.49846)
(8.87739 0.881528 -0.103333)
(1.60413 1.3735 -4.4294)
(10.1837 0.480213 -0.0614138)
(8.39962 1.49884 -3.52898)
(9.43946 0.843605 0.207058)
(9.71746 0.972819 -0.025382)
(9.70115 0.87905 -0.645935)
(10.0995 0.697623 0.221054)
(3.1695 1.40418 -5.53262)
(9.95399 0.0274422 0.00116611)
(9.96413 0.0310283 0.00915111)
(0.405607 1.74093 -6.42998)
(9.68098 0.034521 -0.00405977)
(10.013 0.119426 0.00830249)
(9.71241 0.443016 -0.0727001)
(6.11407 1.39562 -3.1623)
(9.93928 0.848134 -1.42157)
(9.30289 0.632534 -0.595371)
(9.7991 0.102276 -0.0637439)
(9.82153 0.0785453 -0.071576)
(10.0196 0.318291 0.00770038)
(10.4057 0.255694 -0.00692267)
(10.2369 1.39004 -5.51766)
(9.63034 0.707966 -0.315265)
(10.0029 0.00969702 0.00995095)
(9.98962 0.0128096 0.00283504)
(9.7296 0.91289 0.319019)
(9.76949 0.238628 0.0167873)
(9.50135 0.642488 0.28136)
(8.81742 1.14077 -0.208289)
(9.22583 0.943852 -0.552348)
(9.98471 -0.0107548 0.00418035)
(10.0057 -0.0136389 0.00805834)
(9.96829 0.612325 -0.0578803)
(10.0066 -0.0133807 0.00733563)
(10.0099 0.109464 0.00998167)
(9.97915 -0.00804102 -0.000429688)
(10.0016 -0.0121448 0.00325964)
(10.1145 0.570556 -0.867842)
(9.89324 -0.00123698 -0.00975951)
(9.86835 -0.0483212 -0.0305162)
(9.56616 -0.0434407 0.0373971)
(7.78731 0.916082 0.188505)
(9.89255 -0.122881 -0.0112016)
(9.98644 -0.00403847 -1.34826e-05)
(10.0022 -0.00511943 0.00503465)
(9.4969 0.166949 -0.0393301)
(9.74485 -0.1085 -0.0723434)
(9.74269 0.649495 0.45165)
(10.001 0.00377191 0.00772893)
(9.96877 -0.00088793 0.00206048)
(9.99149 0.00150531 0.00497122)
(9.98211 -0.000807637 0.00238782)
(10.0003 0.00572141 0.00660161)
(10.4016 0.111313 0.00451308)
(10.3308 0.10777 0.0315815)
(9.95946 0.00777705 -0.0032109)
(10.0152 0.00683224 -0.00908974)
(9.99209 0.00233134 -0.00566986)
(9.97904 0.00508058 -0.00279735)
(10.0085 0.00539815 -0.010904)
(9.98145 0.00940199 -0.00642969)
(9.88526 0.4487 -0.111965)
(10.0054 0.0138274 -0.00825473)
(10.2658 0.122384 -0.0168386)
(10.1979 0.0795834 0.00779513)
(10.1727 0.0663084 -0.0223301)
(10.2727 0.0979063 -0.000903762)
(9.98111 0.00594609 0.00390943)
(10.0511 0.161461 0.00501168)
(10.0086 0.0153481 0.00778887)
(9.94256 0.153323 -0.00465547)
(9.41473 0.27262 0.0330947)
(9.99903 0.000648932 0.0033284)
(9.99763 0.0211852 0.00376432)
(9.97182 0.0139195 0.0025804)
(9.87165 -0.0104157 -0.00772673)
(9.60747 0.0615962 0.0131037)
(10.5054 0.186659 -0.036427)
(9.71675 -0.0225705 -0.0352111)
(9.96377 0.0670594 -0.00202199)
(9.98446 -0.0557902 8.53227e-05)
(9.99377 0.00487189 -0.00284107)
(9.94502 0.0316616 -0.00663722)
(9.62569 0.554592 0.23822)
(9.82394 0.333477 -0.0831481)
(9.91632 0.187894 0.00382935)
(9.99127 -0.064509 -0.00268223)
(9.95297 -0.0475644 -0.0114318)
(9.95613 0.00126386 -0.0054658)
(9.92035 -0.0579851 -0.0266323)
(9.74093 0.273146 0.0227529)
(9.79084 0.00226899 0.000356269)
(9.97679 -0.0162511 0.00325043)
(9.99548 0.0370613 0.00271099)
(9.95311 0.0403797 0.00019828)
(9.96433 0.0250231 -0.0012688)
(10.0009 0.0414099 0.00273217)
(9.6779 -0.253671 0.0990198)
(9.97634 -0.00219079 6.92965e-05)
(9.99148 0.00854128 0.00149157)
(9.9368 -0.123925 0.00289336)
(9.8405 0.0733807 -0.0148455)
(9.98537 -0.00489181 0.0106712)
(10.0172 0.00811154 0.00870394)
(10.5481 0.21725 -0.0023127)
(10.5081 0.0227316 -0.00249107)
(10.5159 0.190739 -0.0159054)
(10.49 0.188085 -0.042208)
(10.5445 0.0679853 0.00617758)
(9.97651 0.0253935 0.00899078)
(10.2685 1.20293 -0.185539)
(10.5681 0.0213227 -0.0350751)
(10.6737 0.464352 0.0343149)
(10.2177 0.77668 -0.0422982)
(10.0013 0.0720146 -0.00916052)
(10.0949 0.45638 0.023575)
(10.3263 0.472892 0.020172)
(10.117 1.26842 -0.715068)
(10.2286 0.408216 -0.0487184)
(10.3737 0.0422824 -0.0192533)
(9.74236 0.491728 -0.106808)
(9.88691 0.549072 -0.255784)
(10.5321 0.51143 -0.0559565)
(9.35664 0.770738 -0.997691)
(10.4828 0.0703059 0.00285885)
(10.3999 0.0291295 0.000589962)
(10.0207 0.107112 -0.020513)
(9.99982 -0.0192821 0.00180496)
(10.0382 0.0106098 0.00147475)
(10.0326 0.0209709 0.0191413)
(6.77168 2.35858 -2.15969)
(-0.519399 0.407802 -2.18125)
(9.85003 0.76873 0.162322)
(9.55222 0.966621 0.262984)
(9.61885 0.787649 -0.377819)
(9.98427 0.105441 -0.0116943)
(9.8485 -0.00340141 -0.0488234)
(9.40078 -0.188774 0.0965489)
(9.98966 -0.0205025 0.00627306)
(9.73619 0.272181 0.0130059)
(9.96789 0.576426 0.0676336)
(9.92616 0.701173 0.175122)
(9.96948 0.77174 0.329501)
(9.72143 -0.0994456 -0.00889568)
(9.90991 0.487593 0.0987209)
(9.76601 0.639437 0.0519079)
(9.94716 0.502774 0.0136474)
(10.5523 0.0401905 -0.0106636)
(10.3168 0.548972 0.00776477)
(10.5106 0.0767102 -0.0369529)
(9.48231 1.02777 0.391785)
(9.92489 0.43185 0.0192948)
(10.2361 0.318588 -0.00267035)
(9.2751 0.94925 0.370135)
(10.1019 1.05982 -1.15091)
(10.1152 0.375427 0.00590631)
(10.355 0.221776 -0.0376045)
(10.4355 0.195912 -0.00290905)
(10.3823 0.876138 -0.0405302)
(8.80134 0.88574 -0.229104)
(7.10329 1.25882 -2.95525)
(10.0594 0.425809 0.019593)
(10.6045 0.491513 -0.02335)
(10.6346 0.521575 0.0153439)
(9.91168 0.55423 0.0960534)
(9.8672 0.406347 -0.0370461)
(8.42383 0.676904 0.268048)
(9.73434 0.0312363 0.0215319)
(9.61621 -0.125116 0.0741013)
(10.5152 0.382443 -0.0288457)
(8.49086 1.1174 -1.51779)
(9.13245 1.06948 0.200047)
(9.86131 0.631877 0.0295476)
(10.5718 0.0726542 -0.012813)
(10.5518 0.512377 0.0260113)
(9.45287 0.382177 -0.148622)
(9.89515 0.473296 -0.0697844)
(9.91441 -0.114262 0.00445247)
(10.3055 0.862262 0.190735)
(10.0281 0.301365 -0.0425227)
(0.022983 1.04719 -4.48744)
(3.08532 1.25316 -5.28159)
(10.1907 0.626825 -0.0046202)
(10.0017 -0.00395874 -0.00163601)
(9.97249 -0.114244 0.00246869)
(9.97617 -0.0278395 -0.00298949)
(9.93016 -0.0138091 -0.000907477)
(10.0257 -0.0796331 0.00604804)
(9.96924 0.031077 -0.00509561)
(10.0685 0.19892 -0.0389619)
(10.0246 0.0108847 0.000760794)
(10.3194 0.220899 -0.034346)
(10.0001 -0.0151265 0.00134388)
(9.77165 0.463895 0.00523131)
(9.90257 0.204961 -0.0137706)
(10.063 0.686475 0.146505)
(10.0006 -0.00400959 -0.0018116)
(9.99568 0.07026 0.00597278)
(9.8309 0.245447 -0.00127442)
(9.99921 0.00734367 0.000625439)
(10.4502 0.610472 -0.0112595)
(9.95589 -0.0490514 -0.0106389)
(10.7313 0.487549 0.0227719)
(9.97828 0.0687499 0.00300067)
(10.0053 0.127293 0.00654546)
(10.0064 -0.0622063 -0.00242934)
(9.99024 0.149975 -0.00490343)
(10.0415 0.178077 0.0193001)
(10.4777 0.30668 -0.0305024)
(10.4674 0.0614587 -0.0425027)
(10.0124 0.0349249 -0.00577541)
(9.64892 -0.0128208 -0.128856)
(10.0785 0.420436 0.00440853)
(9.86671 0.710855 0.118709)
(9.97535 -0.0205351 -0.00183962)
(10.0029 0.00122802 -0.00236573)
(9.97774 0.0200892 0.00252471)
(9.99612 0.0614983 0.00155177)
(10.0003 0.0227649 -0.00227153)
(10.004 0.0188423 0.00531867)
(10.0275 0.034005 0.00468032)
(9.99885 0.00494069 0.00444226)
(10.0008 -0.0156621 -0.00621386)
(9.99919 0.00539047 -0.00173958)
(9.99873 0.0472235 -0.00221987)
(10.006 0.016385 0.00610286)
(10.0007 -0.00184738 -0.00125114)
(10.0276 0.0197026 -0.00841675)
(9.99971 0.00158904 0.00227836)
(9.82186 0.101982 -0.0394551)
(9.99599 -0.019836 -0.00472153)
(9.99595 0.0426168 -0.0031294)
(9.98472 -0.0402266 -0.00575715)
(10.0018 0.0117427 -0.00768658)
(9.99949 0.0010698 -0.000588022)
(9.85667 -0.0361794 -0.00441728)
(9.99058 -0.0629832 0.00651402)
(9.95976 0.00375681 -0.000441604)
(9.87688 0.122933 -0.00567693)
(9.98945 -0.032685 0.00552311)
(9.98676 0.090587 -0.0171322)
(9.96654 -0.0527298 -0.00868788)
(10.0019 -0.0067237 -0.00988125)
(10.0032 0.00829281 -0.0054572)
(10.0272 0.249578 -0.00845641)
(10.0306 0.0071166 -0.00373141)
(9.99603 0.0230079 -0.00529391)
(9.98587 0.0314984 -0.00618199)
(10.2253 0.0479079 0.015267)
(9.85794 -0.0733534 -0.0558736)
(9.97726 0.060589 -0.00213477)
(9.95051 0.0735313 -0.00620529)
(9.98991 0.0408744 -0.00539224)
(9.86975 0.0590639 0.00414599)
(9.98203 0.0678319 -0.000542506)
(10.2767 0.506126 0.0422862)
(9.92355 0.37341 0.0126712)
(10.0623 0.166073 -0.0126778)
(10.0288 0.0349746 -0.000129712)
(10.6101 0.369756 0.00227365)
(10.0568 0.137054 0.00624206)
(10.0187 0.354546 0.0048951)
(9.7908 0.705754 0.581773)
(10.3009 0.629212 0.00529256)
(9.95562 0.0925679 -0.00377126)
(10.0104 0.4037 -0.0317921)
(9.95928 -0.0221213 -0.00351149)
(9.92563 -0.104569 0.0126889)
(10.1957 0.865354 0.0989151)
(10.0675 0.941084 0.118129)
(9.88616 0.683077 0.0264377)
(9.82742 0.901993 0.107608)
(9.90549 0.788516 0.0954525)
(10.206 0.926225 -0.383731)
(9.97316 0.0372994 -0.00119064)
(10.0793 1.06167 0.271342)
(10.0654 1.27903 0.193743)
(10.3381 1.06075 0.171766)
(9.84416 -0.110171 -0.00624108)
(10.1257 1.03202 0.181727)
(9.96711 -0.00431605 -0.00201597)
(10.079 0.0887369 0.00937376)
(10.4909 0.414371 0.0159945)
(9.83616 -0.111904 0.00271117)
(10.0075 0.00828328 0.00538888)
(10.1043 0.0580632 -0.00384902)
(10.3628 0.216934 -0.0103587)
(10.6652 0.387899 0.0279007)
(10.3561 0.681519 0.0476784)
(10.0249 0.314481 -0.00564067)
(10.4727 0.496646 0.00965561)
(10.1103 0.0322861 -0.00369242)
(10.3421 0.518631 -0.0942877)
(9.99044 -0.052443 0.00838298)
(9.92223 -0.068158 0.00730986)
(9.86551 0.289212 -0.000645036)
(10.1421 0.475341 -0.0412692)
(9.99964 -0.00207332 -0.000517486)
(9.89815 -0.0608333 0.00372404)
(9.75032 -0.177485 -0.0709003)
(9.77702 -0.177217 -0.0512525)
(10.0099 0.0176647 0.00265337)
(9.96589 -0.00680547 0.00556072)
(9.98603 0.183268 0.00459628)
(9.85602 0.506899 -0.189818)
(10.1029 0.0294207 0.0095131)
(10.1451 0.108262 0.00455929)
(9.92145 -0.07558 0.0130461)
(9.90985 -0.098575 -0.00532563)
(9.94891 -0.00219068 0.00714271)
(10.0325 0.0800539 -0.0044228)
(10.0706 0.230266 -0.019557)
(10.0248 0.0597655 -0.00224715)
(9.66375 0.258911 0.0586051)
(9.23686 0.614795 -0.0418909)
(9.90538 0.227242 -0.0161408)
(9.94111 0.0296714 -0.00153797)
(9.89751 -0.0797939 0.0104982)
(9.85444 -0.0358265 -0.0220665)
(9.82791 -0.0363405 -0.022263)
(9.85399 -0.0698682 -0.0147336)
(9.7367 -0.172712 -0.0415862)
(10.0931 0.776362 0.10724)
(10.9547 0.799845 -0.877113)
(10.5168 0.522726 -0.578899)
(9.76484 -0.142189 -0.0320651)
(9.87199 0.106546 -0.0308198)
(9.85797 -0.0907079 -0.0344256)
(9.80226 0.0283115 -0.0186745)
(9.97881 0.0255563 -0.00363095)
(9.06407 0.939813 -0.239094)
(8.11706 1.30003 -5.46132)
(9.94813 0.346036 -0.0362952)
(10.4636 0.824548 -0.516327)
(5.9625 1.5718 -3.6605)
(10.372 0.0941935 -0.00364749)
(8.35679 0.612209 -0.349084)
(9.82404 0.103582 0.0036696)
(9.83629 0.158166 -0.0256172)
(10.149 0.110128 -0.00189454)
(10.128 0.110347 0.0126985)
(8.48376 1.56709 -5.81589)
(5.58677 1.61821 -7.70507)
(2.95041 1.87236 -10.5575)
(10.097 0.107017 0.00810481)
(9.81027 -0.0666265 -0.0644537)
(9.79718 -0.0621817 -0.067698)
(9.81536 -0.051649 -0.0485356)
(9.86458 0.011142 -0.033524)
(9.79699 -0.0535887 -0.0198239)
(10.0002 -0.00634924 -0.0026673)
(10.0018 0.0172729 -0.000984538)
(10.001 0.00390115 -0.00200433)
(9.86484 0.329189 -0.00328282)
(10.0027 0.0369964 0.00016912)
(10.0015 0.223334 0.00776184)
(10.0032 0.00841862 -0.0068637)
(9.99951 0.0267859 -0.0059899)
(10.0183 0.00444384 0.0107771)
(9.98433 0.04745 -0.00443289)
(10.0065 0.287489 0.00739535)
(10.0793 0.0432699 -0.00692932)
(9.9206 0.125535 -0.00301047)
(9.98745 0.0811706 -0.00113666)
(9.94654 0.0535749 -0.00139705)
(9.98616 0.0152729 -0.00448557)
(10.0038 0.000961421 0.00470275)
(10.2547 0.45714 0.0235217)
(10.0266 0.0200509 0.00286032)
(10.0003 0.011526 0.00163289)
(10.4015 0.159665 -0.0299733)
(10.553 0.0324318 -0.0122112)
(9.84848 0.156387 0.00848754)
(9.84173 0.047252 -0.0440899)
(9.81271 -0.162842 0.0180348)
(9.55721 -0.173934 0.152581)
(9.89583 1.48885 -0.61449)
(10.2402 0.140648 -0.0103245)
(10.4574 0.248982 -0.0208658)
(10.2166 0.201939 -0.0117633)
(8.67842 0.750567 0.27813)
(9.6316 -0.0411222 -0.0541495)
(9.55906 -0.0626551 -0.0285613)
(10.142 0.181352 -0.0114415)
(9.52741 0.419083 0.0374686)
(10.0005 -0.000751192 -0.0062674)
(9.82765 0.184576 -0.00179297)
(10.4079 0.168747 -0.022066)
(10.3251 0.0946152 -0.0230857)
(10.3633 0.0948654 -0.0332934)
(10.466 0.191323 -0.0162243)
(9.76672 -0.198501 0.0104175)
(9.77896 -0.00209987 -0.0447483)
(9.84406 -0.072397 -0.0296311)
(9.82904 -0.00012334 -0.0512505)
(9.79657 -0.0127994 -0.116871)
(9.8095 -0.0110097 -0.0924258)
(9.75053 0.0637813 -0.145052)
(9.76607 0.057797 -0.119986)
(9.53376 -0.181832 -0.0625305)
(10.0055 0.0147957 -0.00251655)
(9.98676 0.0501436 -0.0031781)
(8.97885 0.596407 -2.19408)
(7.76151 0.855682 -2.15779)
(7.76446 0.852885 -1.76185)
(8.421 0.840674 -2.37911)
(9.36739 0.714502 -0.170101)
(9.98718 1.06124 -0.529037)
(10.0534 0.208685 0.0263521)
(10.0217 0.0176866 -0.00718256)
(9.92717 0.0418215 0.00323079)
(9.95849 0.0566409 0.00160728)
(7.98558 0.803978 -1.57273)
(10.0528 0.497442 -0.306012)
(9.94446 0.174274 -0.0121562)
(9.86917 0.501615 -0.517114)
(10.1329 0.39147 0.0018359)
(10.4599 0.586863 0.0943636)
(10.1379 0.592717 0.0392893)
(10.1921 0.28104 0.000747435)
(10.292 0.66971 0.13364)
(10.3442 0.0762903 -0.0142943)
(10.2155 0.630658 0.0700067)
(10.5564 0.0741433 -0.0333949)
(10.2286 0.655805 0.124704)
(9.99566 0.735063 -0.018457)
(9.89143 0.411331 -0.0892713)
(10.0348 0.314882 0.02051)
(9.77617 0.455288 -0.0864111)
(6.14569 1.17825 -1.18554)
(8.30695 0.808357 -2.17503)
(10.0543 0.162808 -0.0223478)
(9.90722 0.386368 0.012242)
(10.4581 0.450781 0.0105337)
(9.88317 0.0754065 0.00143273)
(10.1204 0.0352719 -0.0177476)
(9.47598 -0.0395715 0.114038)
(10.1571 0.85424 -0.24119)
(10.2996 0.994986 -0.275361)
(9.82076 1.36352 -1.58657)
(9.95531 0.822388 -1.00068)
(10.2772 0.63794 -0.316321)
(10.4966 0.158619 0.0405689)
(10.3585 0.872644 0.02942)
(10.1697 1.03049 -0.434569)
(10.6069 0.153946 -0.0154803)
(8.77129 0.946753 -0.187828)
(10.0782 0.764996 0.216553)
(9.90445 0.501914 0.0467237)
(9.50821 0.677826 0.0977088)
(10.2667 0.785632 -0.00553267)
(10.656 0.717555 -0.31066)
(10.0993 0.0244015 0.0129983)
(10.4049 0.71146 -0.0662549)
(6.96242 1.41863 -6.1289)
(10.7427 1.62506 -3.5847)
(10.4767 0.409683 -0.0309295)
(9.97518 0.0276598 0.000976028)
(11.4197 0.886642 -3.04487)
(9.84953 0.26607 0.00211524)
(11.4703 1.10582 -2.34678)
(10.2098 1.01962 -3.74127)
(10.2807 0.664834 -0.055401)
(10.2996 0.13378 -0.02559)
(10.1938 0.248015 -0.0200998)
(10.5926 0.904996 -1.8737)
(8.69904 0.722104 -0.430984)
(9.90738 0.414086 0.00750151)
(13.0831 1.39778 -5.01831)
(10.4373 0.325374 -0.0144425)
(10.0562 0.635161 0.124065)
(10.7736 1.45359 -4.7189)
(10.0498 0.885673 -1.72772)
(10.3967 0.279475 -0.027571)
(10.332 0.109401 -0.0222072)
(10.4064 0.36868 0.00352268)
(10.233 0.587181 -0.986911)
(10.4357 0.568871 -0.990738)
(9.8101 0.620577 -0.591383)
(9.83155 0.61094 -0.369145)
(9.8801 0.666408 -0.44846)
(9.82962 0.287552 -0.06172)
(9.84067 0.313682 -0.153389)
(9.97778 0.100184 -0.0135091)
(7.96848 1.09045 -0.682713)
(9.80098 0.1424 -0.0745662)
(9.83775 -0.0673406 -0.0733073)
(11.2821 1.52187 -3.53594)
(9.64531 -0.0148037 -0.00210618)
(10.876 1.23933 -2.67386)
(9.8383 0.258701 -0.0390392)
(9.82323 -0.0659473 -0.0140044)
(7.11773 1.03182 -0.707348)
(11.9186 1.69784 -6.07225)
(9.79015 0.721443 -5.67003)
(13.8173 1.67334 -4.15626)
(11.14 2.22946 -8.27122)
(12.9929 1.10755 -3.16503)
(9.76194 0.648979 -1.33977)
(9.17091 0.878419 0.588264)
(10.191 1.0551 -0.527922)
(7.01139 0.541301 -2.47396)
(2.42403 1.46764 -4.37393)
(9.88192 0.903336 -0.20361)
(8.40789 0.802975 -1.88688)
(8.89644 0.622811 -1.34003)
(1.43071 2.02392 -6.43077)
(9.77078 1.36693 -2.47547)
(8.77803 1.18441 -3.66674)
(9.61765 0.240324 -0.0512102)
(9.93086 0.0199749 -0.00269883)
(9.28377 1.00641 0.242075)
(9.99642 0.0692342 -0.00176643)
(9.60294 -0.0803827 -0.208365)
(9.53597 0.598781 -0.625234)
(10.0417 0.731731 -1.05097)
(9.40222 0.653009 -0.130554)
(9.96058 1.55563 -3.68577)
(10.2741 1.00223 -0.767384)
(10.3754 1.0646 -0.832135)
(9.86921 0.648594 -0.0761352)
(9.7621 0.361128 -0.106621)
(10.1567 0.686021 0.144828)
(10.1066 1.00951 -0.836071)
(10.6368 1.02348 -1.52489)
(9.94036 0.231848 -0.0308873)
(9.08241 0.588167 -1.50809)
(0.803813 1.22681 -2.9859)
(2.05803 1.49966 -2.03742)
(10.0855 0.258452 -0.0251747)
(9.55939 0.746483 -2.17374)
(9.52385 0.957749 -0.778027)
(6.60747 1.44518 -2.53244)
(10.0088 0.729029 -0.349978)
(9.87679 0.710247 -0.650828)
(8.47343 0.794805 -0.451463)
(9.34352 0.710401 0.661246)
(9.66748 0.293626 0.0788057)
(9.55955 0.442283 0.240473)
(9.66744 1.23329 0.0788889)
(8.31969 0.763978 -0.357438)
(8.2897 1.08653 -2.24737)
(9.7058 1.1157 -0.407293)
(10.8517 0.693629 -0.453146)
(10.6944 0.741612 -0.443222)
(10.9925 0.795562 -0.712114)
(10.2199 0.0967079 -0.00981279)
(9.67998 0.426455 -0.125182)
(9.76895 0.470834 -0.217791)
(10.5849 0.799892 -0.513362)
(10.0213 0.994845 -0.231446)
(10.0214 0.884054 0.0696507)