/*--------------------------------*- C++ -*----------------------------------*\
| =========                 |                                                 |
| \\      /  F ield         | OpenFOAM: The Open Source CFD Toolbox           |
|  \\    /   O peration     | Version:  2506                                  |
|   \\  /    A nd           | Website:  www.openfoam.com                      |
|    \\/     M anipulation  |                                                 |
\*---------------------------------------------------------------------------*/
FoamFile
{
    version     2.0;
    format      ascii;
    arch        "LSB;label=32;scalar=64";
    class       volScalarField;
    location    "0.0948794";
    object      k;
}
// * * * * * * * * * * * * * * * * * * * * * * * * * * * * * * * * * * * * * //

dimensions      [0 2 -2 0 0 0 0];

internalField   nonuniform List<scalar> 
3991
(
0.366588
0.404857
0.280376
0.277352
0.404948
0.289927
0.845607
0.719062
0.360556
0.312616
0.32298
0.279168
0.297544
0.283834
0.645751
0.311081
0.301694
0.308841
0.343912
0.855111
0.354118
0.841625
0.385563
0.407369
0.326759
0.415128
0.456758
0.349673
0.28411
0.284833
0.590312
0.324218
1.54996
0.303286
0.359122
0.406322
0.988214
0.744269
0.27169
0.301759
0.749734
0.313645
0.317834
0.303375
0.289726
0.826895
0.73846
0.275851
0.32223
0.445169
0.351907
1.06931
0.614037
0.389704
0.378274
0.289204
0.290244
0.280123
0.307863
0.280293
0.424215
0.449257
0.366706
0.357018
0.339977
0.311811
0.305235
0.344828
0.88133
0.347966
0.346039
0.307544
0.683501
0.285039
0.396911
0.341628
0.680399
0.342642
0.294102
0.847284
0.300402
0.315155
0.591372
0.295381
0.418954
0.465253
0.271922
0.283255
0.539002
0.281924
0.312209
0.318768
0.342624
0.533111
0.339215
0.435512
0.476206
0.376996
0.622315
0.306366
0.270949
0.285334
0.661408
0.282459
0.266592
0.585807
0.322768
0.657107
0.721959
0.514072
0.7914
0.330613
0.69495
0.304677
0.271196
0.98602
0.891724
0.897124
0.293276
0.324086
0.72452
0.417411
0.307244
0.323153
0.71318
0.330897
0.317399
0.286886
0.453872
0.541397
0.300906
0.340412
0.307041
0.283907
0.311399
0.281874
0.286139
0.275216
0.315251
0.393662
0.334323
0.417383
0.567232
0.422901
0.308129
0.334474
0.331586
0.459588
0.632075
0.395544
0.376831
0.679021
0.699571
0.7675
0.680608
0.53797
0.417487
0.682845
0.684516
0.437007
0.323581
0.430515
0.29403
0.475343
0.72018
0.437403
0.31332
0.550243
0.501856
0.294202
0.359564
0.3443
0.764507
0.664538
0.716528
0.749715
0.506157
0.27706
0.285243
0.49802
0.35291
0.341513
0.390294
0.829609
0.290322
0.298678
0.308906
0.307942
0.311701
0.866368
0.862148
0.318164
0.767622
0.608431
0.382668
1.11061
0.374487
0.276261
1.01315
0.300767
0.270901
0.401223
0.40668
0.310827
0.330235
0.385018
0.365643
0.488896
0.317968
0.398144
0.567274
0.309567
0.355453
0.553143
0.303688
0.347911
0.29495
0.672436
0.726889
0.624925
0.337008
0.667501
0.343013
0.622593
0.35397
0.431004
0.477094
0.276034
0.286734
0.477168
0.334359
0.313706
0.517119
0.594913
0.28235
0.474543
0.303445
0.300604
0.310029
0.718381
0.545868
0.463179
1.23995
0.375499
0.400504
0.29958
0.29913
0.30838
0.343943
0.414099
0.277918
0.288672
0.349414
0.274321
0.270031
0.312952
0.386155
0.488026
0.331564
0.49398
0.744842
0.556941
0.935256
0.60161
0.2696
1.4553
1.00346
0.323879
0.503999
0.430935
0.993939
0.406662
0.329075
0.526799
0.834976
0.36828
0.269635
0.353438
0.28227
0.323012
0.375372
0.502993
0.302079
0.822679
0.306334
0.521764
0.28414
0.667189
1.02303
0.314668
0.646753
0.947821
0.310742
0.517187
0.308124
0.30215
0.32193
0.299419
0.310662
0.296098
0.271766
0.275522
0.366591
0.294209
0.444599
0.478868
0.300699
0.807715
0.345385
0.409671
0.272994
0.285024
0.283835
0.275637
0.473594
0.410383
0.654323
0.270263
0.358352
0.317063
0.334407
0.314689
0.285099
0.315203
0.366552
0.414613
0.309847
0.327883
0.459935
0.728334
1.13582
0.629404
0.321273
0.327862
0.570153
0.282399
0.478081
0.31714
0.420304
0.3182
0.555252
0.303009
0.390015
0.339339
0.284994
0.314335
0.333605
0.450666
0.433294
0.272389
0.384948
0.278516
0.284157
0.700799
0.413142
0.638542
0.349715
0.301114
0.825483
0.585275
0.469806
0.367686
0.328643
0.637246
0.333327
0.337775
0.33825
0.343699
0.277346
0.449109
0.410377
0.32899
0.507723
0.781861
0.28341
0.417805
0.404374
0.351486
0.401006
0.335151
0.511015
0.57697
0.528913
0.293349
0.330256
0.319294
0.478326
0.803612
0.885285
0.449031
0.476514
1.09401
0.466744
0.354608
0.271298
0.679376
0.287763
0.280529
1.1168
1.45688
0.284565
0.529581
1.11795
0.522911
0.652858
0.269801
0.750707
0.736085
0.99248
0.307217
0.330589
0.888799
0.955505
0.736751
0.300295
0.310656
0.297193
0.699328
0.295216
0.284783
0.284965
0.945351
0.30047
0.281384
0.288028
0.434265
0.401798
0.878996
0.856724
0.286079
0.985322
0.492616
0.868017
0.298582
0.285067
0.28435
0.27079
0.299864
0.442777
0.559392
0.469713
0.478689
0.524479
0.526473
0.283161
0.300236
0.288477
0.334425
0.461943
0.334159
0.442367
0.448667
0.582354
0.352154
0.35457
0.373486
0.383357
0.321006
0.347193
0.325287
0.345442
0.324045
0.347806
0.394902
0.388485
0.364123
0.442085
0.333622
0.336719
0.470969
0.495244
0.374152
0.37616
0.353355
0.38303
0.358446
0.313857
0.313655
0.327556
0.321921
0.336438
0.914258
0.961101
0.65282
0.789856
0.751215
0.532611
0.415904
0.635783
0.388304
0.350262
0.295087
0.346187
0.530389
0.64452
0.429654
0.525686
0.556774
0.296946
0.303209
0.294356
0.299019
0.27566
0.302061
0.284841
0.286626
0.284408
0.279772
0.276134
0.278669
0.268919
0.275088
0.26854
0.28109
0.287423
0.280886
0.283554
0.323831
0.326396
0.333387
0.31287
0.342283
0.311162
0.307051
0.311451
0.361307
0.367246
0.329037
0.34712
0.357525
0.377866
0.341043
0.330215
0.333642
0.507585
0.39666
0.546905
0.432353
0.456635
0.486554
0.555854
0.979549
0.726604
0.599785
0.62692
0.450516
0.290519
0.677659
0.519908
0.477733
0.506327
0.268949
0.269051
0.291242
0.296434
0.316435
0.305151
0.293478
0.303121
0.297983
0.313965
0.455354
0.452211
0.45243
0.501951
0.436068
0.512264
0.561803
0.35099
0.651427
0.337183
0.932796
0.574944
0.639758
0.514027
0.948417
0.350233
0.372383
0.303551
0.371102
0.732728
1.14793
0.791556
0.711802
1.11949
0.399485
0.398763
0.761016
0.699051
0.41231
0.319072
0.492541
0.451507
0.528645
0.406895
0.668675
0.295491
0.418894
0.710498
0.319324
0.481645
1.18124
0.332477
0.606357
0.461609
0.293902
0.386855
0.483324
0.384531
0.512432
0.554676
0.312049
0.32382
0.307718
0.463296
0.625701
1.14202
0.933212
0.300638
0.297128
0.32595
0.270297
0.295662
0.293747
0.296192
0.524145
0.293045
0.352956
0.293012
0.307503
0.302682
0.300822
0.335253
0.29928
0.2696
0.420023
0.633662
0.687627
0.524732
0.287486
0.327275
0.294981
0.431367
0.744794
0.670694
0.595379
0.410438
0.316753
0.269087
0.541853
1.41686
0.427688
0.369117
0.501039
0.566366
0.459761
0.285844
0.433878
0.311206
0.3245
0.317268
0.38314
0.365189
0.425211
0.268323
0.844501
0.313504
0.308833
0.433451
0.763174
0.411362
0.419928
0.424246
0.270744
0.410977
0.277186
0.285936
0.315648
0.95187
0.387093
0.93579
1.02413
1.00791
0.354013
0.293879
0.517929
0.586238
1.08767
0.863961
0.657175
0.951932
0.317599
0.761143
0.290948
0.282541
0.528926
0.353274
0.39857
0.297078
0.298124
0.348661
0.28174
0.3043
0.276091
0.848711
0.711072
0.704476
0.713835
0.398627
0.299715
1.10371
0.280911
1.25289
0.279704
0.309044
0.353814
0.285585
0.503845
0.464836
0.416534
0.425145
0.283412
1.14439
0.453351
0.462842
0.514138
0.513614
0.346603
0.715659
0.440214
0.679971
0.82354
1.12557
1.21884
1.1135
0.947633
0.693919
0.744689
0.907861
0.764455
0.72462
0.346726
0.554325
0.484556
0.717329
0.605289
0.33119
0.546394
0.428789
0.532785
0.452219
0.641115
0.362843
0.397191
0.429505
0.365487
0.736343
0.392902
0.447833
0.372185
0.394936
0.348544
0.358311
0.321964
0.325155
0.369982
0.757891
0.644872
0.980412
0.515156
0.931613
0.367491
0.379944
0.411721
1.19154
0.271719
0.274107
0.271799
0.268703
0.342378
0.292678
0.278291
0.285075
0.284991
0.282811
0.292282
0.292254
0.285931
0.279316
0.277359
0.298768
0.295288
0.352053
0.29576
0.295678
0.31185
0.302958
0.308
0.271899
0.552189
0.518107
1.2075
0.597699
0.533081
0.674859
0.433557
0.436609
0.468044
0.531124
0.508273
0.32804
0.312578
0.322797
0.318359
0.299734
0.310654
0.322148
0.301678
0.309401
0.314145
0.603746
0.585864
0.483974
0.548487
0.512982
0.397803
0.301627
0.317551
0.313847
0.328543
0.346806
0.315013
0.302674
0.403983
0.433092
0.320046
0.321906
0.317772
0.330171
0.330667
0.309395
0.400145
0.52701
0.553049
0.508838
0.282431
0.397896
0.294553
0.280713
0.562833
0.406783
0.695192
0.321371
0.375582
0.732296
0.324595
0.627139
0.826034
1.58138
0.280407
0.923811
0.66238
0.771832
0.352561
0.427909
0.348261
0.543703
0.269758
0.286046
0.408379
0.402705
0.333841
0.317894
0.546924
0.340776
0.339869
0.616961
0.396396
0.398173
0.335623
1.2458
1.21677
0.38648
0.423731
0.507
0.516673
0.728544
0.47839
0.337119
0.705982
0.715027
0.310396
0.439912
0.441363
0.54912
0.671321
0.667592
0.668942
1.28881
0.501121
0.325853
0.307383
0.484962
0.287438
0.720914
0.666411
1.26621
0.340232
0.54611
0.30994
0.323423
0.363748
0.274762
0.81028
0.310238
0.291389
0.417711
1.53276
0.273641
0.641476
0.30987
0.385823
0.388445
0.302819
0.414599
0.309379
0.375465
0.327805
0.740355
0.277515
0.267959
0.315963
0.270526
0.295209
0.766859
0.270567
0.575386
0.868799
0.539617
0.567514
0.598203
0.314671
0.426367
0.892028
0.738199
0.286123
0.358735
0.456316
0.401904
0.375988
0.84064
0.457562
0.483281
0.652311
0.473917
0.370258
0.27041
0.908016
0.383166
0.313255
1.03383
0.365441
0.380143
0.317824
0.366546
0.333161
0.268153
0.304111
0.329079
0.40702
1.00618
0.884085
0.294677
0.333163
0.282205
0.419188
0.416452
0.583363
0.624474
0.306226
0.670181
0.443217
0.416223
0.309864
0.301447
0.305266
0.289663
0.26692
0.266647
0.457779
0.28824
0.300046
0.295618
0.273475
0.334824
0.348343
0.400403
0.304226
0.309474
0.304342
0.269273
0.371137
0.363033
0.2947
0.286663
0.411107
0.368409
0.370198
0.311465
0.272309
0.289437
0.269791
0.279719
0.389653
0.358656
0.329531
0.528983
0.708131
0.291548
0.270351
0.267039
0.342798
0.307636
0.309944
0.290024
0.320681
0.286402
0.355644
0.518518
0.620581
0.63915
0.55117
0.326796
0.319388
0.299144
0.360696
0.331152
0.353957
0.4978
0.385074
0.313517
0.672767
0.308672
0.509485
0.365491
0.408064
0.332218
0.532486
0.376308
0.37616
0.638476
0.380187
0.49439
0.347961
0.342275
0.305132
0.556441
0.351673
0.3665
0.399264
0.32947
0.828127
0.699964
0.414503
0.485
0.318433
0.286586
0.284571
0.344476
0.287456
0.286771
0.289462
0.278097
0.280398
0.399013
0.374559
0.344647
0.558415
0.353846
0.602145
0.41645
0.871532
0.88434
0.86449
0.782836
0.804651
0.545236
0.438014
0.65335
0.634033
0.393709
0.335533
0.759292
0.554308
0.421147
0.444199
0.430474
0.434096
0.726238
0.276367
0.277682
0.28694
0.333313
0.881897
0.344881
1.24577
0.539692
0.285926
1.7755
0.32853
0.55892
0.456177
0.372104
0.897679
0.583566
0.306644
0.996396
0.375705
1.0321
0.726955
0.850677
0.688733
1.3363
0.890009
0.889049
1.18057
0.805069
0.268769
0.28549
0.268992
0.279676
0.268818
0.321498
0.301856
0.275251
0.406508
0.292249
0.313984
0.288528
0.318491
0.272367
0.537792
0.326563
0.595203
0.334817
1.12043
1.29537
1.03361
0.500418
0.563809
0.844349
1.06776
1.37758
1.31219
0.740214
0.710727
0.439719
0.455467
0.635637
0.578718
0.588565
0.503556
0.742624
0.562906
0.45437
0.294729
0.277774
0.276861
0.272984
0.270241
0.304425
0.306231
0.288903
0.520314
0.581406
0.978248
0.83372
0.838351
0.471595
0.863606
0.985418
0.697117
0.625641
0.488369
0.485263
0.443228
0.529287
0.480557
0.6009
0.511962
0.359501
0.379246
0.85949
0.517992
0.36114
0.584243
0.558445
0.715756
0.745005
0.418926
0.872634
0.647417
0.302098
0.281667
0.345348
0.357041
0.325609
1.05705
0.467793
0.759386
0.462197
0.640547
0.50271
0.33309
0.359073
0.376035
0.350072
0.338044
0.270812
0.362686
0.344307
0.434236
0.452954
0.442111
0.32584
0.324706
1.1499
0.318519
0.355151
0.375197
0.405712
0.366099
0.786576
0.71739
0.32202
0.661904
0.30042
0.675059
0.617534
0.641698
0.681483
0.757135
0.649414
0.382224
0.293263
0.439959
0.336199
0.316372
0.331306
0.352501
0.330865
0.33008
0.704097
0.539726
0.452334
0.435247
0.554551
0.577196
0.759609
0.720189
0.288533
0.287519
0.282694
0.672283
0.280578
0.280161
0.336032
0.310609
0.305837
0.272048
0.311523
0.271833
0.281102
0.313636
0.297875
0.306091
0.300806
0.320846
0.408875
0.347436
0.275416
0.271754
0.319599
0.507658
0.699582
0.471469
0.434249
0.462537
0.528776
0.271107
0.290897
0.276856
0.39918
0.313823
0.279656
0.306126
0.335114
0.374113
0.444061
0.272225
0.285614
1.16684
0.333223
0.337132
0.845556
0.355247
0.300812
0.40723
0.291065
0.429891
0.410752
0.355732
0.315757
0.303131
0.434695
0.429266
0.288025
0.31279
0.375715
0.290704
0.324154
0.462547
0.351042
0.283472
0.277652
0.298917
0.292997
0.285035
0.39806
0.307368
0.294309
0.281576
0.322412
0.665316
0.407013
0.438143
0.354859
0.703738
0.527627
0.292249
0.655082
0.329187
0.297401
0.341913
0.658999
0.303613
0.638238
0.366618
0.273143
0.271057
0.300009
0.266406
0.269248
0.386273
0.301837
0.276104
0.312304
0.312695
0.32205
0.38418
0.371916
0.557248
0.37363
0.316066
0.767985
0.297744
0.34716
0.582993
0.395659
0.331079
0.730871
0.366589
0.623616
0.789312
0.298878
0.516738
0.656511
0.291265
0.313804
0.313794
0.294623
0.308974
0.333374
0.322601
0.729663
0.842773
0.627787
1.08665
0.293552
0.302257
0.302113
0.272054
0.299269
0.28433
0.344107
0.685568
0.375753
0.284061
0.325452
0.271891
0.293016
0.353971
0.672047
0.616352
0.731925
0.39687
0.385536
0.351115
0.34026
0.381156
0.279923
0.28989
0.338081
0.317755
0.30777
0.298344
0.326453
0.27077
0.506736
0.893731
0.422113
0.296147
0.294903
0.325464
0.455137
0.399765
0.426103
0.3845
0.417815
0.320758
0.322954
0.342781
0.594398
0.508029
0.446863
0.34649
0.487754
0.693905
0.653761
0.541696
0.405006
0.463612
1.02355
0.308176
0.335777
0.45729
0.494663
0.30357
0.366257
0.275376
0.440365
0.29798
0.32709
0.279949
0.31221
0.296071
0.308045
0.311174
0.319885
0.31141
0.279632
0.29751
0.314399
0.277542
0.606108
0.48886
0.614188
0.472277
0.743327
0.706676
0.763381
0.297922
0.476553
1.07314
0.897241
1.01391
0.781875
0.329095
0.470496
0.337528
0.380114
0.306997
0.280544
0.283738
1.24943
0.528145
1.24965
0.391528
0.705144
0.485496
0.962308
0.825661
0.670654
0.676014
0.37852
0.347113
0.365717
0.31231
0.353193
0.534187
0.77066
0.339286
0.418916
1.09438
0.286757
0.388546
0.406363
0.268101
0.464937
0.743921
0.36273
0.687502
0.718967
0.287175
0.27525
0.307592
0.272899
0.383535
0.327428
0.395587
0.410598
0.273066
0.423056
0.386785
0.462643
0.481071
0.595947
0.267441
0.503183
0.788265
0.610144
0.328999
0.337729
0.43593
0.307212
0.322572
0.290382
0.37083
0.429895
0.517457
0.712312
0.278629
0.841904
1.06742
0.911847
0.914605
1.03399
0.335235
0.384945
0.365991
0.326692
0.393404
0.379234
0.345025
0.377043
1.0285
1.23044
1.03125
0.696756
0.623446
1.02872
0.835398
0.727164
0.735424
0.979766
0.687085
0.97596
0.923093
0.836392
1.32604
0.808957
1.15614
0.815897
1.26499
0.898966
0.632471
0.509433
0.665807
0.656722
0.344791
0.800523
1.19156
0.669468
0.370167
1.21004
0.356076
0.45856
0.293369
0.273319
0.284528
0.268482
0.408252
0.373445
0.368425
0.446552
0.291997
0.308728
0.270676
0.500095
0.313708
0.738838
0.994851
0.877959
0.379686
0.695768
0.661833
1.04032
0.332291
0.451846
1.04507
0.416323
1.07237
0.3174
0.709636
0.526398
0.377961
0.397778
0.373472
0.320944
0.308395
0.378978
0.550864
0.427058
0.652061
0.487293
0.366407
0.361113
0.377552
0.415102
0.483629
0.376548
0.310891
0.348183
0.351812
0.364901
0.426754
0.728653
0.45101
0.409935
0.831454
0.725674
0.790953
0.367959
0.742325
0.457762
0.431916
1.01552
0.461444
0.437729
0.388928
0.340277
0.330252
0.277051
0.288719
0.383092
0.284284
0.276481
0.277775
0.292655
0.31247
0.313827
0.66559
0.312765
0.324396
1.01211
0.302512
0.345307
0.293754
0.740708
0.347258
0.328659
0.337522
0.408547
0.317963
0.360714
1.06361
0.348408
0.606211
0.295081
0.28715
0.334257
0.452789
0.798273
0.345419
0.377989
0.282036
0.396391
0.681413
0.335845
0.435026
0.742486
0.760422
0.947697
0.404982
0.385792
0.352098
0.966947
0.39966
0.639045
0.861265
0.285506
0.271651
0.327502
0.271184
0.268796
0.78548
0.823889
0.774848
0.314044
0.300977
0.32035
0.283894
0.3729
0.39536
0.357334
0.438464
0.375897
0.485195
0.342198
0.306775
0.48612
0.347032
0.323613
0.296261
0.374922
0.357916
0.738454
0.745819
0.586151
0.416532
0.94584
0.408009
0.442593
0.557781
0.418943
0.779294
1.03631
1.20739
1.01471
0.617278
0.55714
0.492045
0.397298
0.350187
0.349933
1.06652
0.339639
0.851951
1.10184
0.396268
0.59927
1.3355
0.354966
0.299677
0.38304
0.772952
0.35637
0.59218
1.10194
0.606203
0.315115
0.319051
0.322589
1.07892
0.807286
0.392746
0.99291
0.853037
1.56218
1.09665
1.11361
0.518842
0.539539
0.515411
0.793313
0.504444
0.731356
0.797608
0.732486
0.732107
1.12408
0.373539
0.315694
0.301678
0.301319
0.374699
0.611026
0.31027
0.327445
0.505505
0.764518
0.667055
0.426046
0.502033
1.29255
0.459557
0.388656
0.381425
0.268484
0.551847
0.307505
0.375961
0.319594
0.966062
0.374361
0.423856
0.778736
0.601235
0.930115
0.411863
0.58061
0.847861
0.340174
0.977645
0.483112
0.632627
0.329288
0.427528
0.316402
0.808333
0.628437
0.336345
0.56835
0.43037
0.320699
0.424876
0.759916
0.790194
0.583535
0.291266
0.299934
0.285359
0.289633
0.298026
0.477716
0.499451
0.550829
0.724508
0.703018
0.516832
0.333623
0.40693
0.531516
0.319942
0.332119
0.330207
0.804919
0.522399
0.353163
0.808453
0.404254
0.398724
0.505966
0.637052
0.40194
0.341959
0.596466
0.310003
0.334229
0.303384
0.323679
0.30456
0.397026
0.332664
0.363991
0.407555
0.322417
0.39937
0.308
0.34462
0.446598
0.476284
0.457146
0.464241
0.441906
0.404868
0.366657
0.421873
0.463513
0.501256
0.342983
0.587793
0.759261
0.737832
0.432382
0.432104
0.424149
0.436444
0.398714
0.395489
0.332521
0.339981
0.304031
0.271951
0.318077
0.31131
0.317584
0.359451
0.313245
0.311092
0.32138
0.324336
0.349725
0.396274
0.268214
0.35753
0.730843
0.406489
0.415754
0.404902
0.334818
0.326833
0.352938
0.344999
0.324438
0.296188
0.30002
0.271367
0.279296
0.288107
0.334371
0.323804
0.340017
0.47122
0.547303
0.305959
0.335301
0.359008
0.30415
0.294759
0.310801
0.793913
0.291738
0.301062
0.304572
0.302713
0.352392
0.342225
0.311379
0.309196
0.375265
0.349561
0.376996
0.471162
0.364707
0.341592
0.459446
0.2983
0.301793
0.328269
0.350028
0.439717
0.363687
0.42107
0.292842
0.461251
0.33783
0.339691
0.32397
0.339737
0.326315
0.331492
0.314753
0.336657
0.351031
0.388366
0.346994
0.47486
0.375075
0.441052
0.266812
0.280009
0.281539
0.285701
0.273318
0.277091
0.619447
0.786276
0.72246
0.810016
0.753958
0.456325
0.410373
0.269171
0.279647
0.312998
0.266326
0.466013
0.797797
0.393546
0.297825
0.475006
0.393793
0.674854
0.453348
0.521136
0.708104
0.837259
1.14247
0.581451
0.79748
0.578732
0.463416
0.754871
1.0251
0.648803
0.541161
0.535794
0.414996
0.692339
0.327893
0.536616
1.05458
0.349444
0.481001
0.689249
0.940452
0.528466
0.852606
0.450409
0.691472
0.620023
0.572745
0.646021
0.35501
0.413007
0.484282
0.612608
0.604253
0.37974
0.433923
0.542236
1.21048
0.423916
0.613255
0.816663
1.15712
1.02912
0.592435
0.387988
0.730679
0.694542
0.32577
0.717141
0.859802
0.730797
0.77694
0.785323
0.810369
0.279951
0.463163
0.653117
0.519349
0.585698
0.430828
0.268526
0.285905
0.488775
0.627441
0.412545
0.37498
0.353316
0.385932
0.640325
0.583057
0.869173
0.38635
0.704443
0.675214
0.714871
0.63696
0.305348
0.581617
0.310437
0.377107
0.439608
0.330119
0.393194
0.635391
0.314339
0.35481
0.288861
0.562815
0.284534
0.413279
0.440111
0.707851
0.711715
0.284852
0.280507
0.442602
0.588028
0.807622
0.31576
0.277646
0.400598
0.294002
0.32754
0.267689
0.401105
0.423188
0.659591
0.472625
0.667498
0.307395
0.461303
0.931356
0.720192
0.351704
0.622774
0.3592
0.482448
0.696716
0.332625
0.325438
0.330631
0.386826
0.378073
0.358881
0.333742
0.325434
0.305474
0.381096
0.294301
0.340272
0.323689
0.361907
0.368138
0.528905
0.698556
0.349686
0.26933
0.352609
0.293247
0.334996
0.388408
0.333822
0.366885
0.789549
0.399148
0.317412
0.303367
0.328054
0.350585
0.307463
0.287413
0.273655
0.474012
0.294241
0.364115
0.303848
0.410304
0.76989
0.318927
0.423128
0.896184
0.687241
0.634334
0.548424
0.331581
0.301402
0.334302
0.297807
0.342172
0.713434
0.836584
0.637781
0.336393
0.301464
0.316922
0.440478
0.355433
0.319543
0.365327
0.5192
0.528759
0.608442
0.722852
0.395054
0.739356
0.296943
0.353495
0.641313
0.339418
0.33397
0.661696
0.650265
0.657778
0.614949
0.432526
0.385721
0.26761
0.288602
0.267437
0.323026
0.32697
0.66683
0.319036
0.291758
0.350875
0.375705
0.591796
0.509312
0.29822
0.389732
0.554747
0.525744
0.353223
0.319994
0.418359
0.419177
0.479844
0.425369
0.59351
0.79959
0.444273
0.309168
0.437276
0.434731
0.50459
0.476614
0.504186
0.393252
0.635869
0.452113
0.357169
0.517202
0.391502
0.772259
0.476956
0.329982
0.305119
0.328615
0.313849
0.46364
0.357281
0.299187
0.403182
0.306578
0.329399
0.31187
0.388592
0.267931
0.409346
0.276427
0.32016
0.317499
0.330038
0.477363
0.442643
0.426487
0.352651
0.336247
0.317261
0.30466
0.344941
0.315658
0.278819
0.303068
0.31293
0.339481
0.330636
0.342407
0.338487
0.320732
0.859382
0.89898
0.700815
0.37534
0.314522
0.873694
0.315252
0.696698
1.05064
0.330798
0.878131
0.728784
0.445467
0.559001
0.380748
0.788751
0.814532
0.328436
0.337881
0.3993
0.315259
0.399295
0.371636
0.740866
0.361521
0.326499
0.346989
0.387842
0.285819
0.394787
0.307239
0.405545
0.313544
0.326076
0.319206
0.415154
0.317506
0.31535
0.971895
0.296988
0.315654
0.707737
0.265195
0.460078
0.481265
0.419859
0.309385
0.318222
0.375419
0.345745
0.367838
0.366362
0.599382
0.336972
0.78372
0.393597
0.480302
0.392991
0.331494
0.332026
0.304145
0.273451
0.27825
0.465985
0.606053
0.288988
0.29543
0.315027
0.345074
0.433337
0.820833
0.411109
0.563527
0.392243
0.412859
0.375074
0.286455
0.312161
0.823497
0.540123
0.967866
0.378922
0.309466
0.350173
0.648666
0.756926
0.365096
0.61782
0.381791
0.515029
0.359744
0.324404
0.625394
0.732534
0.300294
0.758009
0.577229
0.722918
0.342369
1.06068
1.02871
0.7613
0.386529
0.820543
0.793826
0.502887
0.842268
0.367118
0.331278
0.52895
0.270337
0.327994
0.314581
0.459381
0.320636
0.398076
0.282964
0.297625
0.314917
0.301785
0.369719
0.316609
0.297978
0.266001
0.413892
0.291921
0.327354
0.292265
0.290063
0.310092
0.875576
0.484643
0.766655
0.609432
0.380768
0.313245
0.362818
0.741772
0.313842
0.283872
0.309868
0.34107
0.300539
0.42446
0.356868
0.62043
0.327185
0.459229
0.362878
0.305254
0.406469
0.393811
0.639361
0.841879
0.775607
0.832484
0.485401
0.836397
0.433394
0.648796
0.393571
0.507066
0.761612
0.3774
0.768601
0.413595
0.338807
0.367505
0.416968
0.414983
0.326519
0.513281
0.350499
0.376576
0.74327
0.644298
0.509618
0.678626
0.794452
0.355372
0.274299
0.314681
0.32717
0.320711
0.300416
0.304222
0.312569
0.273483
0.303494
0.271411
0.349491
0.395241
0.269089
0.471526
0.328416
0.294774
0.303228
0.384836
0.663372
0.35671
0.292149
0.286529
0.286104
0.277432
0.301533
0.292424
0.30398
0.389304
0.346537
0.345453
0.285242
0.296142
0.275785
0.372898
0.816427
1.2001
0.437405
0.373403
0.315777
0.806174
0.392774
0.765819
0.279024
0.274107
0.295553
0.284168
0.335166
0.285698
0.270746
0.266709
0.374782
0.439563
0.388473
0.312371
0.396142
0.305678
0.282252
0.348252
0.55125
0.405205
0.491045
0.35865
0.464494
0.654815
0.737065
0.803506
0.677837
0.743055
0.361848
0.336443
0.344348
0.331469
0.905748
0.467893
0.397759
0.774948
0.665702
0.437197
0.512196
0.305214
0.299724
0.324839
0.329853
0.551563
0.400373
0.504858
1.01317
0.56139
0.762502
0.959389
0.340785
0.368903
0.770347
0.305066
0.972156
0.536773
0.354513
0.733865
0.399868
1.04622
0.47699
0.552904
0.356376
0.38452
0.349642
0.495597
0.33295
0.451139
0.70672
0.888855
0.532345
0.385097
0.309331
1.10561
0.453185
0.363834
0.717772
0.548671
0.296017
0.308854
1.2663
1.06892
0.326687
0.293345
0.334594
0.33658
0.291802
0.547142
0.644097
0.435738
0.345898
0.332811
0.286039
0.278077
0.281957
0.27808
0.289737
0.274747
0.275521
0.30172
0.282607
0.279088
0.440938
0.405809
0.289492
0.314429
0.31205
0.31383
0.312538
0.31108
0.299491
0.29865
0.299254
0.297845
0.32868
0.279721
0.285552
0.285859
0.279999
0.350724
0.361804
0.592067
0.634407
0.278679
0.497749
0.467855
0.520522
0.727606
0.580411
0.971805
0.317966
0.502991
0.824091
0.874187
0.640092
0.905268
0.377017
0.843354
0.766757
0.696122
0.515273
0.397427
0.405845
0.382648
0.744269
0.517832
0.700992
0.896375
0.474606
0.492761
0.754481
0.543655
0.754951
0.589679
0.679054
0.537339
0.312551
0.609937
0.844225
0.893447
0.290463
0.336335
0.292576
0.29407
0.779295
0.502192
0.38625
0.806928
0.827072
0.84033
0.792801
0.917418
0.661593
0.374273
0.355688
0.428624
0.273133
0.322785
0.337567
0.308573
0.267543
0.284156
0.324391
0.794522
0.89542
0.329852
0.302738
0.289785
0.300385
0.388684
0.336988
0.34422
0.635292
0.601494
0.318896
0.614532
0.28722
0.301879
0.837889
0.335737
0.292637
0.527056
0.286085
0.309448
0.302844
0.292623
0.421225
0.733494
0.397451
0.333893
0.333955
0.422201
0.369141
0.350056
0.567236
0.333307
0.271076
0.288492
0.321603
0.353452
0.368395
0.383093
0.387354
0.358451
0.526445
0.302079
0.479228
0.292814
0.268338
0.290677
0.313586
0.31687
0.40372
0.311646
0.357943
0.439972
0.305505
0.357572
0.329502
1.31743
0.516551
0.488308
0.372106
0.388149
0.647302
0.450073
0.496781
0.493391
0.858314
0.320407
0.306559
0.556753
0.755648
0.269199
0.344953
0.288267
0.276972
0.337305
0.324273
0.412664
0.31578
0.320529
0.375148
0.736257
0.309045
0.294176
0.302461
0.303446
0.277224
0.269553
0.298038
0.321382
0.388863
0.50949
0.789193
0.578494
0.84643
0.603482
1.01142
0.395674
0.31475
0.635495
0.407436
0.306179
0.838958
0.288371
0.516052
0.51497
0.284502
0.883948
0.310887
0.344648
0.956422
0.487688
0.400169
0.476079
1.12029
0.606238
0.342711
0.365831
0.612864
0.314147
0.677976
0.345223
0.516167
0.549072
0.48123
0.380162
0.325806
0.660407
0.740435
0.742235
0.315634
0.289852
0.441085
0.299712
0.379742
0.295305
0.327713
0.322256
0.381669
0.370939
0.532184
0.302179
0.333949
0.36453
0.386766
0.339967
0.320517
0.295413
0.392156
0.426126
0.542432
0.423637
0.536181
0.376027
0.301809
1.03538
0.281157
0.285557
0.282082
0.28564
0.290785
0.291161
0.320487
0.323836
0.306694
0.30339
0.349087
0.302882
0.328683
0.401395
0.418977
0.534206
0.422509
0.277308
0.276918
0.27643
0.363926
0.518185
0.426392
0.332064
0.300097
0.302864
0.301956
0.292261
0.290753
0.296511
0.272197
0.270557
0.278278
0.334597
0.29918
0.312056
0.290574
0.301033
0.364815
0.355965
0.346736
0.359741
0.406089
0.413999
0.388287
0.46035
0.461644
0.342674
0.596542
0.596255
0.322649
0.339293
0.468726
0.265454
0.27354
0.579287
0.677617
0.497535
0.295013
0.313185
0.297808
0.314698
0.401158
0.479069
0.767508
0.354094
0.663998
0.391914
0.42605
0.458027
0.678666
0.356569
0.512474
0.34776
0.342519
0.423704
0.379139
0.31617
0.311734
0.322154
0.314987
0.819712
0.579758
0.378233
0.422875
1.05951
0.318639
0.340379
0.317078
0.331414
0.354853
0.323911
0.295297
0.299235
0.309052
0.290328
0.321263
0.269598
0.293048
0.368113
0.411567
0.288795
0.371482
0.35729
0.380832
0.60011
0.313569
0.270075
0.272022
0.670155
0.377691
0.325354
0.407826
0.432095
0.873051
0.594392
0.415883
0.603104
0.406492
0.308796
0.316523
0.335135
0.324685
0.346288
0.433878
0.867874
1.13096
0.586824
0.824541
1.25626
0.697204
0.91917
0.588757
0.309437
0.331015
0.319245
0.307237
0.286957
0.297822
0.323543
0.414948
0.26782
0.34413
0.317777
0.300528
0.273995
0.309835
0.293624
0.302768
0.278836
0.316401
0.486967
0.311905
0.269498
0.422882
0.396892
0.330944
0.467311
0.363829
0.430733
0.305022
0.282541
0.312033
0.391935
0.841332
0.383969
0.307713
0.331951
0.291314
0.314154
0.358604
0.391564
0.272862
0.302154
0.296157
0.269202
0.347539
0.268702
0.39421
0.497496
0.274443
0.517716
0.670961
0.346501
0.724056
1.12334
0.811177
0.691988
0.516865
0.714087
0.889259
0.365373
0.287569
0.277631
0.410944
0.286205
0.356122
0.299323
0.30875
0.388107
0.331048
0.369034
0.27555
0.303872
0.335443
0.351089
0.322546
0.301829
0.292894
0.315378
0.303081
0.290323
0.312019
0.310655
0.319695
0.305307
0.306008
0.328629
0.268017
0.297007
0.292547
0.644853
0.795052
0.464158
0.324704
0.350615
0.626154
0.487619
0.406725
0.696248
0.651488
0.486976
0.380555
0.378296
0.517253
1.35962
0.41543
0.728562
0.399261
0.392913
0.298616
0.351782
0.290011
0.319992
0.424794
0.289899
0.298557
0.313102
0.351222
0.502477
0.384663
0.978709
0.332077
0.418825
0.328113
0.311967
0.390103
0.296027
0.31318
0.318636
0.307561
0.305576
0.319134
0.338873
0.402825
0.30479
0.32834
0.699483
0.633745
0.326058
0.384708
0.492225
0.820174
0.343539
0.336537
0.388038
0.360215
0.298315
0.322083
0.45651
0.546634
0.878485
0.802672
0.830262
0.547021
1.14453
0.371187
0.420936
0.340058
0.282266
0.550851
0.348293
0.385051
0.720771
0.805392
1.00561
0.554093
0.407317
0.707987
0.794708
0.475974
0.818361
0.921419
0.853397
0.797333
0.719976
0.467596
0.696188
0.845876
0.894043
0.777902
0.280757
0.286159
0.292828
0.300014
0.303751
0.297595
0.29934
0.378087
0.431014
0.477017
0.611202
0.295603
0.28342
0.28398
0.28469
0.313412
0.311593
0.305101
0.311592
0.299044
0.274578
0.268153
0.303802
0.319652
0.274849
0.54548
0.500278
0.541948
0.524767
0.336319
0.316382
0.301017
0.306842
0.299275
0.296421
0.303741
0.558472
0.394813
0.372472
0.480428
0.541558
0.585815
0.503892
0.509096
0.372795
0.414445
0.330617
0.291668
0.290669
0.289686
0.313395
0.388045
0.449351
0.412546
0.402527
0.523804
0.55678
0.462671
0.486823
0.467508
0.526274
0.505327
0.295163
0.296736
0.639441
0.295229
0.278588
0.295074
1.00828
0.729674
0.710438
0.574402
0.28718
0.273939
0.30549
0.343965
0.31051
0.449139
0.730877
0.802819
0.427881
0.760055
0.732768
0.773041
0.306281
0.398704
0.522078
0.596074
0.471758
0.640061
0.469046
0.41878
0.773638
0.386169
0.446947
0.442748
0.400327
0.414159
0.298803
0.831855
0.814379
0.72347
0.643292
0.796966
0.744201
0.56876
0.593412
0.333027
0.314626
0.29685
0.361763
0.346361
0.312276
0.357643
0.446372
0.292482
0.295611
0.303169
0.30523
0.447918
1.16981
0.418118
0.791858
0.326041
0.338955
0.323707
0.280276
0.458212
0.616892
0.706399
0.577944
0.527685
0.710405
0.704236
0.660801
0.581713
0.573204
0.589412
0.780188
0.664677
0.522664
0.27166
0.544245
0.407438
0.788033
0.721762
0.700882
0.545026
0.815005
0.435881