/*--------------------------------*- C++ -*----------------------------------*\
| =========                 |                                                 |
| \\      /  F ield         | OpenFOAM: The Open Source CFD Toolbox           |
|  \\    /   O peration     | Version:  2506                                  |
|   \\  /    A nd           | Website:  www.openfoam.com                      |
|    \\/     M anipulation  |                                                 |
\*---------------------------------------------------------------------------*/
FoamFile
{
    version     2.0;
    format      ascii;
    arch        "LSB;label=32;scalar=64";
    class       volScalarField;
    location    "0.0948794";
    object      omega;
}
// * * * * * * * * * * * * * * * * * * * * * * * * * * * * * * * * * * * * * //

dimensions      [0 0 -1 0 0 0 0];

internalField   nonuniform List<scalar> 
3991
(
76.5521
94.5444
47.1394
98.7943
107.5
107.672
845.182
645.252
69.8918
48.5407
52.3811
59.0277
114.778
57.7361
718.11
117.279
48.0158
168.069
65.4087
1429.58
68.3161
826.277
91.5854
107.888
56.1557
119.388
149.762
65.9265
54.0606
42.9892
361.049
50.5541
631.135
45.6141
75.1233
109.756
816.015
963.107
56.4333
57.3628
434.658
117.701
53.7388
115.759
104.55
872.21
963.447
46.0921
54.7682
135.09
67.9339
767.767
540.94
95.4147
87.4937
57.1155
45.4893
71.772
139.682
102.227
122.97
153.715
75.5982
67.7831
71.636
59.5365
47.5313
65.8275
807.657
63.2249
62.522
48.8269
306.587
84.1539
91.0374
64.583
339.449
67.8779
53.4804
852.935
48.8492
49.4502
214.511
47.1433
113.372
166.397
88.0498
107.479
231.645
67.8611
58.668
48.7037
62.0117
292.624
62.863
150.854
186.961
82.8057
548.649
44.5175
63.3701
63.1535
474.114
43.3965
69.5907
407.621
53.0613
1363.16
1420.66
265.081
568.805
61.6988
480.708
44.0826
55.7603
1946.77
1735.41
729.476
42.6145
51.7337
586.979
121.203
67.8324
50.6871
648.854
56.0612
49.178
134.163
172.087
418.315
60.5232
61.3721
45.3517
56.4296
56.257
56.0771
53.3415
61.7819
59.1719
92.1666
55.06
117.464
287.018
117.692
47.7869
54.5669
66.0755
144.996
571.969
103.704
86.0021
548.805
999.89
537.176
554.83
311.17
106.257
400.39
681.058
122.311
54.8613
141.43
79.5749
146.066
666.778
138.328
46.6627
406.684
215.935
142.53
71.0404
64.4231
732.549
336.373
597.292
730.184
233.574
57.4401
49.8016
288.326
68.8662
60.798
95.258
797.484
98.0029
43.0004
44.6694
45.0164
45.8512
1129.48
670.536
161.663
962.043
905.439
92.7217
471.752
80.2836
74.8439
1357.44
60.6497
97.6226
107.237
104.184
46.4228
52.933
84.7285
69.9369
221.217
49.0528
98.641
291.173
48.6403
69.0267
208.908
44.2025
66.7779
68.4535
527.24
636.404
502.582
60.3997
354.257
62.5835
264.874
70.9705
143.166
193.551
66.7076
47.0364
186.493
58.1714
62.203
206.068
239.258
57.0277
257.768
67.6591
157.83
48.9862
826.656
315.696
184.631
686.832
84.9626
775.789
53.6229
45.2626
48.9087
62.9004
139.377
99.3989
68.7475
63.3615
67.7337
65.153
49.0314
89.4989
192.162
57.2546
269.645
687.607
235.687
1109.87
746.466
81.3447
2611.4
1322.36
52.984
219.427
137.4
1532.89
111.657
54.3367
306.446
1390.17
79.1107
63.3474
75.4025
55.5523
50.2067
78.8945
250.896
52.7261
686.223
53.8723
275.112
70.3942
455.895
1356.24
52.3669
567.539
770.194
48.0175
297.168
45.7182
45.6682
53.2558
43.3858
46.0641
44.9469
57.6722
48.4595
78.6424
47.2615
139.598
220.983
44.3555
1473.26
61.1662
101.238
55.8559
50.8475
47.7251
55.2948
188.073
114.063
458.723
72.111
65.4703
126.241
58.6774
47.775
56.3037
53.602
72.4563
119.18
48.9936
59.5136
229.146
583.915
1070.82
578.187
58.6347
52.4244
347.287
106.578
196.656
47.2664
121.004
50.6442
380.811
43.8764
85.1803
64.6552
42.8437
52.4397
57.3135
149.961
142.167
145.946
93.8015
61.2645
53.3024
846.784
118.958
918.035
61.1619
43.5598
1078.43
518.642
231.703
75.3418
56.1024
716.806
54.9277
58.0609
56.1821
62.5233
74.4
142.619
116.605
53.6406
211.861
1054.3
61.5602
120.614
105.846
61.8955
103.917
54.3221
544.719
1297.73
259.3
47.897
54.0805
49.1754
220.347
941.622
1089.42
160.114
252.54
1153.64
172.931
66.6271
62.7313
1034.56
67.2388
48.2478
524.218
473.699
55.8857
347.019
677.501
336.637
526.123
79.7122
1022.35
783.361
1276.65
46.8139
56.9321
594.894
880.795
710.962
161.294
179.343
95.0357
638.3
109.917
121.922
145.966
541.019
152.977
58.1047
41.8994
139.042
101.098
880.296
698.135
67.502
917.609
290.862
640.55
51.8933
55.8712
49.9089
61.6201
49.9168
152.612
400.012
191.142
195.767
266.757
363.671
93.8212
62.9457
75.5944
67.7663
175.076
61.4566
154.767
161.047
234.267
66.7039
67.1769
79.494
85.8826
54.9377
63.6085
58.6654
65.886
59.0647
66.6038
93.0041
91.9918
74.5088
140.802
63.1399
63.7183
163.634
193.219
83.7148
82.1659
64.3246
88.0545
69.5888
53.2697
55.6595
56.8451
52.058
58.981
1894.64
1998.67
704.755
897.575
818.168
256.379
126.396
433.485
94.6562
67.5055
63.6992
66.2559
276.094
673.003
146.153
281.65
360.817
58.8229
57.9773
43.6388
45.0829
115.435
45.5871
44.3003
42.7111
138.349
43.8902
59.1495
85.4675
64.7171
59.0876
65.0443
44.4836
43.5621
44.6782
107.515
51.0473
51.68
55.9186
48.5299
63.353
48.0706
46.908
48.2729
74.5801
80.6115
53.8083
65.5584
69.0614
83.7347
62.3248
54.2929
55.4937
205.241
89.2898
193.616
111.724
139.802
161.976
327.881
1064.62
696.384
458.362
522.023
166.31
53.4994
788.853
335.44
213.651
258.52
72.546
71.8516
49.8649
48.8873
51.4271
50.0259
49.449
50.2948
49.8049
51.2301
181.664
182.716
174.073
255.224
157.101
306.901
331.414
64.5131
506.673
57.6045
1189.6
346.699
433.268
221.523
1079.21
67.1811
78.5903
52.9854
82.3239
550.365
512.4
989.868
591.143
1334.68
96.104
106.136
1139
454.348
632.741
48.2633
185.195
190.975
262.791
101.218
578.178
42.8216
121.6
645.976
48.6161
1056.86
869.197
52.7952
749.385
151.311
42.3841
95.792
158.985
87.7532
184.953
238.118
47.4476
50.8362
46.2438
162.164
682.733
663.243
1821.53
48.0702
47.3149
183.699
84.3937
127.721
97.8388
44.3356
206.471
55.3912
69.698
64.2607
62.2717
157.684
53.0555
60.429
43.7021
77.2111
114.042
275.874
627.789
295.372
54.9412
51.1385
49.0643
127.887
814.119
355.481
466.887
109.791
49.2882
79.0863
253.429
600.385
569.46
72.4712
265.802
406.222
160.635
54.1846
135.188
46.8834
51.2425
47.9746
86.4638
77.3703
129.717
63.5676
747.818
47.3234
45.7663
117.476
677.893
106.456
117.901
134.344
70.284
112.163
90.711
74.4121
189.802
980.605
92.7674
771.391
1182.2
347.331
73.942
98.6468
572.189
428.912
1214.44
1181.54
757.585
1114.74
47.2827
1164.59
46.3837
158.732
270.722
69.2072
110.129
42.8286
121.126
66.6469
42.8699
58.0195
59.4468
702.296
634.77
721.836
739.96
102.25
50.6492
710.573
68.6776
1214.63
71.8051
51.8375
68.6988
52.3719
234.172
156.422
104.303
115.655
54.1319
1298.9
177.578
188.163
278.884
267.352
60.193
394.732
147.718
679.014
360.838
748.404
722.69
654.463
1277.1
664.023
622.794
1395.88
1302.64
704.604
61.687
341.96
178.791
515.881
692.236
55.9658
246.951
112.501
232.751
155.572
277.002
75.1406
106.578
145.459
76.3401
706.225
103.584
166.732
91.5845
109.247
64.6859
65.0859
70.5954
51.602
72.7957
986.114
462.105
417.794
222.456
644.856
82.0478
88.5789
113.221
937.786
74.8644
56.082
96.6027
75.7942
56.3574
48.0903
54.8142
48.9261
55.9579
50.6084
44.4684
45.573
44.7197
42.7993
44.4814
44.1879
42.6968
65.2115
42.5699
42.6637
48.3653
43.9525
45.54
100.562
365.897
500.759
753.252
263.597
189.788
353.926
109.907
113.424
131.868
185.209
163.8
51.7053
46.0701
54.4984
51.2567
45.7124
48.9537
52.8974
49.6235
48.1366
48.139
282.648
249.869
172.175
215.236
168.969
92.6481
43.4813
47.9121
58.4803
57.621
63.9949
59.0002
61.0424
98.5982
110.564
51.5225
54.2951
52.3409
57.2201
55.321
47.6363
113.125
353.731
341.682
272.306
50.4952
89.792
63.8015
62.5223
352.952
113.776
558.718
61.6207
85.9918
622.613
51.6555
356.557
351.669
491.45
65.3845
356.384
538.863
639.956
62.0866
164.029
68.0332
303.529
103.538
65.3182
122.953
104.612
54.4069
49.5983
299.876
55.2086
58.2557
545.773
85.3456
104.577
57.7573
497.309
512.366
90.4647
126.241
234.945
228.938
595.799
188.719
71.6646
529.4
549.939
45.8998
148.078
153.912
302.526
485.65
481.049
487.382
1505.15
561.609
60.5128
54.4391
256.335
58.0079
1419.65
479.581
1457.51
55.1886
283.972
46.8975
60.3163
74.5784
47.5349
1407.1
66.1675
58.5741
109.802
718.43
54.2479
571.925
59.2852
95.3807
86.7675
52.6567
119.56
60.4209
78.5383
54.0315
971.06
53.2889
62.4494
46.6461
64.175
52.6202
732.756
99.7702
543.035
511.071
399.452
370.75
352.721
46.8453
146.209
1118.28
479.099
58.6014
70.6675
183.632
119.269
717.425
907.557
181.621
236.987
610.132
185.735
80.1048
67.7701
2001.21
95.1533
51.4031
1568.65
76.2112
89.5162
47.8685
74.0422
57.2564
65.5839
45.9674
57.7427
103.886
763.586
383.46
43.8111
54.3463
65.3562
121.558
128.746
599.706
391.993
45.5556
494.426
146.713
123.827
45.9711
45.3509
47.9974
43.2528
71.1159
68.8256
189.644
47.1029
44.0768
42.7421
48.531
60.5591
64.9209
100.876
44.9927
46.3055
46.1816
64.8423
79.2143
71.4829
55.3962
55.9326
111.721
77.3886
75.6438
50.3723
53.4157
138.378
93.6611
107.249
90.8275
69.8305
55.1115
364.971
959.358
48.0027
61.9179
69.9041
62.2676
51.5417
54.8853
58.4543
49.0434
42.8626
67.3957
992.976
330.556
607.718
204.468
51.7086
47.6364
45.0124
68.9194
57.5101
67.6398
228.849
88.4062
47.3936
809.639
51.8234
984.435
76.9466
113.625
60.1356
308.449
85.3638
84.2457
337.626
84.9099
226.415
69.0679
58.1529
46.5708
318.318
67.9754
74.5799
95.4738
52.4631
1030.8
1081.56
118.871
200.529
79.1276
105.928
82.7148
64.2721
45.9618
46.3488
46.7625
57.8795
52.8764
107.668
86.1971
57.7894
359.253
61.5114
495.395
122.396
1371.61
2206.05
1336.28
890.798
1680.36
350.315
137.977
1073.19
504.129
976.803
59.4413
807.165
647.551
111.264
139.101
129.494
140.872
635.941
47.2409
46.6522
67.1906
59.3459
707.945
65.8327
437.285
531.201
68.8389
667.987
75.9648
310.79
162.341
77.9768
523.207
429.599
64.3273
2428.59
85.4407
2386.52
547.404
1085.16
1177.6
483.158
588.161
429.799
1391.64
532.006
82.4318
54.8156
76.9566
99.9507
97.2675
49.1713
44.3255
114.936
100.396
158.11
62.6632
146.677
50.4577
85.4499
689.565
51.3629
843.979
56.4308
849.074
1115.98
1135.1
285.844
421.254
826.538
941.73
1009.98
986.176
971.22
871.624
140.76
167.768
280.106
294.43
551.997
233.649
724.638
340.418
165.358
45.0111
54.1072
58.2269
57.7723
60.3472
45.0425
45.5791
53.731
1094.75
1244.16
1858.63
1614.25
1606.22
979.888
875.446
910.572
821.539
695.786
266.452
239.662
165.1
379.794
242.952
341.522
257.475
73.7192
90.5882
1059.23
173.538
76.5059
505.763
210.909
447.981
479.087
118.588
951.625
302.012
50.0832
49.9069
64.9981
70.1907
60.208
1163.46
194.594
787.795
161.677
450.057
271.132
55.2137
73.601
87.4005
63.451
57.6689
81.3297
78.3675
60.5003
157.316
192.937
173.824
53.7893
53.1061
1238.02
50.6934
67.498
81.6557
116.512
75.2692
917.109
949.688
53.0977
412.244
43.5474
542.379
437.961
482.453
590.593
964.682
537.297
88.0894
99.0536
146.084
62.8451
58.5357
61.4519
67.995
60.7805
60.9037
654.991
347.8
170.81
149.826
344.262
448.159
502.519
433.6
43.8594
43.0777
42.9122
294.005
46.5855
47.1924
55.9364
45.4772
44.614
58.9417
147.322
104.349
54.3904
46.8463
184.388
46.3654
45.5975
49.0981
107.488
70.9852
66.9284
54.8183
52.3163
196.293
393.059
160.848
127.395
156.566
219.665
62.4965
61.5504
52.8144
94.6138
50.3718
52.7203
46.9206
56.2353
82.9997
143.11
58.6043
48.339
1115.35
58.8067
54.2892
1440.32
70.1308
43.7565
114.26
42.3543
132.834
121.313
70.0689
47.5955
44.378
142.445
138.292
45.7055
49.6447
84.8238
43.8181
51.0543
140.987
66.3538
42.2728
75.3767
63.0409
75.0349
56.2898
99.1341
45.2104
44.0578
47.8946
49.9399
515.089
115.01
156.761
70.1169
655.856
229.891
55.7507
478.24
59.2588
55.0903
63.0094
342.08
46.1441
339.888
81.8966
59.6269
61.2328
73.1237
116.835
75.2361
94.728
160.139
45.857
129.569
46.7994
62.0442
90.0684
76.355
235.58
72.9312
53.3074
608.198
46.8196
66.0426
331.106
97.9604
54.4141
860.868
74.0704
675.777
943.66
43.2756
254.023
563.729
72.6967
49.7831
51.1858
45.9476
48.0932
56.967
52.7905
495.358
929.955
1270.79
665.394
42.7701
47.2571
44.2268
57.4026
48.1478
46.3097
59.5432
430.815
82.9137
47.675
52.6533
55.3381
42.7204
68.676
417.609
1095.84
601.576
107.069
87.5767
69.1229
64.2129
91.5524
42.7094
46.9911
57.2087
53.7381
65.982
53.4154
59.5038
61.2973
216.336
797.226
124.093
145.264
66.8695
58.7237
175.014
110.769
134.339
94.6978
126.055
52.699
51.6065
62.9999
441.743
177.094
119.786
61.2596
166.089
472.101
563.944
243.207
101.392
194.016
715.296
63.85
71.1625
155.588
211.773
47.0395
81.2404
117.829
137.577
56.8073
60.8433
82.7637
57.3795
46.9045
55.3244
54.8946
53.4823
185.297
104.124
117.048
186.183
59.1473
428.562
210.318
450.969
193.869
698.877
570.873
466.294
45.1755
215.166
585.784
650.402
737.905
829.443
60.8429
165.806
64.2392
88.039
162.755
68.4013
93.612
556.784
241.169
754.344
97.6034
533.382
181.225
821.604
665.97
1122.85
709.472
89.8843
71.4606
79.0461
72.6829
72.1863
255.192
502.614
58.5385
121.766
1150.24
79.6863
93.1696
104.237
72.4671
175.358
734.176
72.9494
567.133
388.791
74.0411
73.3841
54.7215
69.9984
92.007
54.2492
98.8498
117.399
48.6246
126.214
97.5881
180.574
214.649
342.228
70.6934
229.397
720.115
492.861
52.2623
57.0299
137.541
46.8448
50.8036
47.523
74.4973
130.08
837.582
1008.89
57.3388
912.449
1660.63
1719.6
1054.22
1563.11
67.2639
91.7357
80.2242
65.1759
92.4967
83.804
65.6958
84.1206
770.989
1068.81
1401.97
558.776
485.919
690.244
665.985
550.127
754.318
788.04
348.211
902.211
809.454
441.527
1433.79
531.877
1507.77
536.193
1133.72
503.433
279.678
233.265
490.886
454.561
65.4647
572.579
1040.42
546.998
74.8406
1091.78
66.5253
169.314
59.4767
92.8994
104.161
70.0376
108.033
80.4413
77.2003
177.439
56.954
56.1855
109.259
290.397
54.8548
953.63
1356.61
1480.77
87.4455
667.835
553.981
770.082
56.5606
156.47
1165.59
121.147
895.122
54.9813
659.875
360.871
84.5084
93.6129
83.3736
57.6907
46.3788
88.8124
332.072
133.588
520.813
219.39
76.8544
69.1506
82.8856
119.329
225.717
84.4152
54.992
61.872
68.4189
76.5878
121.92
447.204
179.833
111.235
1232.23
580.388
1251.97
80.2001
1086.73
189.211
141.515
1929.26
152.244
161.411
96.4955
57.5427
54.3369
46.6779
52.5834
92.7911
63.0472
52.8699
43.8967
43.274
47.1714
48.1517
654.409
48.9351
57.7655
1198.62
45.6294
62.7341
46.0181
394.581
60.7419
57.1379
55.9447
118.593
48.7446
72.2041
1353.55
65.9682
289.853
42.8627
48.9279
54.8284
187.39
1015.87
62.4935
84.3561
67.9521
98.6056
511.995
57.4797
119.35
488.128
797.672
488.242
110.672
90.8303
65.5557
1133.37
107.488
622.998
1813.33
48.7725
63.0762
196.357
57.6207
83.7653
1130.4
1017.09
792.344
70.9693
132.922
59.0431
53.623
81.0549
102.036
70.2283
133.326
80.9287
276.299
60.7917
45.3985
169.229
62.2352
50.043
43.1554
82.5514
71.8014
444.439
805.007
274.028
111.209
1371.45
116.977
165.983
388.444
1193.43
768.323
857.058
951.763
1249.36
584.901
371.442
264.986
103.414
59.9996
65.3105
1139.56
56.6447
762.405
1826.64
99.4113
412.344
1763.23
70.812
44.0177
84.1754
1128.23
70.6255
440.42
1376.96
582.774
51.4112
47.8678
52.8889
724.929
1144.01
95.7145
1045.92
1506.38
1415.07
2080.77
1330.99
265.579
324.08
265.789
1003.16
253.876
628.225
761.309
813.211
897.41
1179.74
86.8041
47.1801
43.707
44.5882
83.7195
552.682
45.8308
49.9834
279.917
868.128
608.317
123.078
267.887
1084.84
161.295
86.4966
84.1646
61.6299
276.293
56.0824
74.0395
79.9174
477.472
78.0609
141.941
635.817
512.596
1074.84
112.973
478.671
1327.18
63.9435
414.692
214.542
522.21
52.477
152.444
46.6739
715.998
465.9
54.5963
378.904
139.08
47.9369
124.326
700.791
737.803
400.625
143.692
165.629
94.3767
116.996
137.434
173.6
204.956
251.737
423.253
683.377
197.436
56.3023
110.632
252.116
50.1351
54.6104
54.1864
994.012
272.879
65.5805
966.457
113.075
108.405
259.112
657.847
110.725
60.5731
560.026
48.0973
60.2106
50.9357
55.0322
50.039
111.551
57.1103
73.7703
124.681
52.6037
113.484
47.5247
62.9004
166.449
199.103
152.574
162.487
163.134
103.905
79.112
122.807
163.266
197.013
61.4119
367.768
1037.82
598.686
133.962
137.002
134.065
144.042
109.256
107.471
54.7718
60.2022
44.1414
93.1248
48.337
45.9161
48.6026
72.0951
48.8486
47.3014
49.9685
50.5799
62.9857
90.6756
95.223
69.1858
762.392
106.614
100.302
95.8018
58.628
54.2327
67.3531
63.3169
51.5391
45.5686
46.5812
53.6176
46.5769
45.2679
59.5516
53.2086
61.2097
195.197
338.43
56.0061
60.5613
70.6121
56.5045
44.0595
47.6934
749.656
46.1612
47.5354
49.7834
58.8067
64.9352
58.3409
58.0142
55.853
79.201
61.8326
80.1585
248.31
74.4874
61.6116
221.056
44.765
46.236
54.5959
68.3414
167.18
77.0159
126.924
48.4643
181.488
56.1502
59.9755
52.0454
58.845
52.9615
61.0281
52.3195
61.4602
67.078
95.7016
64.0011
207.763
86.903
153.69
81.2407
46.2932
46.1324
48.9035
55.5969
44.7393
529.659
1215.86
1032.36
1127.09
830.867
180.215
105.594
101.055
158.556
56.5074
89.0702
186.109
720.671
96.0705
62.2168
195.276
97.7651
751.65
163.928
707.528
563.27
1481.06
893.325
359.17
685.743
341.861
172.399
647.353
725.17
670.982
1125.8
532.096
115.108
806.484
52.4564
915.592
749.306
61.8685
208.947
668.09
1268.37
249.712
1728.92
1104.94
671.364
1099.06
304.89
344.912
70.323
112.695
147.086
694.723
367.903
1058.47
1213.98
1107.54
849.932
121.191
749.225
640.52
584.373
1539.13
521.87
87.0113
632.72
514.012
52.6483
765.743
746.224
1045.58
1218.36
1226.41
1262.6
72.0146
160.096
305.633
220.291
233.295
123.04
61.8647
90.8589
198.388
511.704
119.753
83.0329
68.1401
92.5839
373.497
835.383
1035.67
94.9228
320.481
533.891
1503.38
425.499
45.0524
381.57
46.0341
956.433
133.857
53.0451
99.2266
486.208
49.586
61.2389
83.4697
260.411
82.8614
113.51
128.778
539.523
842.69
42.5291
43.8774
138.132
642.503
1087.4
47.9331
54.251
107.241
129.396
56.4182
63.4592
100.668
117.348
804.479
138.246
313.19
47.399
162.759
730.962
483.724
64.5189
708.654
71.3587
165.229
950.221
54.9845
50.911
53.7377
87.5599
81.4394
70.0752
55.1044
51.8252
45.7928
84.8865
42.5838
58.7645
56.7662
73.9054
77.2226
226.204
1080.49
67.536
82.2841
69.1661
140.55
60.9202
94.6581
53.9138
77.2128
863.737
103.701
48.1215
44.8935
52.318
63.5636
45.5774
45.512
55.8411
192.537
47.3569
75.2962
45.4827
1411.71
680.63
47.8236
125.483
1256.28
1527.19
618.977
273.991
65.4717
48.2334
71.1275
96.7463
59.5145
371.557
1019.72
792.098
58.4217
44.6177
48.5462
141.536
70.5384
53.0496
75.823
249.604
226.058
987.171
436.876
91.0636
770.322
44.0889
66.9992
1013.24
62.0073
59.7375
958.484
799.766
644.899
1094.61
122.289
88.9007
66.3849
49.898
83.6548
50.4388
54.5347
539.269
49.5221
49.8226
61.7069
81.1944
542.029
523.142
46.0466
91.6433
270.692
258.018
68.3992
49.2359
126.871
131.907
180.824
135.27
438.891
1653.15
167.646
51.2367
147.885
160.648
230.925
221.561
746.254
986.976
464.714
155.66
70.4789
257.628
87.3643
754.531
223.196
53.4879
45.795
68.6738
48.3742
164.436
69.1361
43.3255
1020.06
44.2929
52.2955
46.0584
86.9907
91.2903
106.587
46.7115
49.4693
47.2413
52.7476
225.821
168.572
857.154
67.339
57.2156
50.3772
44.1663
64.6537
50.875
56.2591
49.8658
50.8378
59.5809
62.8267
64.3803
59.5176
49.8805
1207.97
1193.42
665.284
84.2606
48.0553
1018.67
52.871
663.636
966.834
50.6073
591.007
631.213
138.899
280.933
1059.84
889.669
955.388
59.9297
60.2204
98.7709
55.5112
102.509
83.7769
669.144
73.9785
59.145
66.2199
92.6882
58.8608
94.0845
54.302
102.987
49.4095
53.986
59.9844
122.073
53.8432
47.9097
1387.49
43.1295
50.2068
660.174
103.679
175.211
205.687
124.026
47.7308
57.5088
86.6485
61.9193
79.2737
73.742
352.172
60.5601
1010.01
93.4445
198.093
104.526
53.7261
54.7019
51.3886
63.1814
46.5224
175.291
902.562
43.712
46.985
47.529
64.5977
137.366
900.733
120.635
249.169
102.094
131.509
83.4536
65.6474
55.2361
1246.78
354.934
507.052
79.5498
54.5974
64.5124
388.401
666.311
73.321
903.132
84.3466
233.407
70.9177
60.6096
393.918
930.552
60.1224
687.677
420.521
539.819
65.3679
597.608
353.444
654.378
90.83
584.964
574.236
689.731
435.098
74.3034
57.3902
282.901
64.0404
51.7302
48.9959
219.199
52.3629
102.351
51.1197
46.2037
51.577
50.8412
76.2731
51.9392
48.0125
83.829
129.37
42.806
54.8655
46.7975
64.026
51.3457
1013.69
219.056
643.25
581.314
88.3537
49.7507
74.5326
674.469
55.3363
60.1593
54.4501
60.0286
60.8284
115.481
68.8834
448.218
53.4833
176.997
74.2653
45.5202
111.348
96.13
741.452
1654.74
1668.38
2224.49
218.185
1243.32
130.592
272.569
97.6865
224.83
827.023
81.9581
1217.33
110.138
61.675
80.8551
116.61
110.376
58.8833
260.559
67.6763
87.5829
924.28
425.699
244.782
640.407
1177.67
823.056
52.32
46.7602
52.8851
52.4192
43.5205
44.3771
47.1925
59.4958
43.9036
55.9202
64.9647
101.683
62.3053
204.556
54.8463
44.2545
45.6789
90.1467
343.963
67.1277
47.7931
41.8491
48.467
53.6916
44.8549
44.8637
52.992
90.6103
63.0452
63.1771
48.6381
54.7447
55.0618
83.8665
803.88
1178.87
142.114
76.1383
47.0673
1397.52
99.0912
1475.68
43.5043
47.4638
52.5341
165.039
64.5767
49.029
53.6772
71.7008
83.1109
170.796
100.48
47.8066
106.961
54.2922
101.765
66.8868
274.85
110.474
184.96
69.2271
156.31
1109.64
1111.4
891.222
1128.79
750.262
75.1795
58.9545
63.895
55.7037
947.727
178.667
109.722
786.143
774.493
155.923
674.026
44.2548
46.2422
50.8442
51.8238
314.032
99.3017
959.006
921.423
599.85
1006.47
1098.59
59.5952
79.7306
1437.86
48.5203
1367.51
283.469
63.4293
782.031
754.294
999.969
200.417
862.86
65.2233
85.9923
59.328
1354.71
62.8723
161.601
696.219
1339.21
289.62
83.7981
73.8148
722.668
151.48
74.8925
494.469
284.139
61.0204
59.9821
923.754
1096.61
65.4292
62.1062
72.083
60.6998
58.6935
312.485
594.132
149.421
59.5332
53.6453
57.8374
61.2367
55.5468
59.1177
56.5388
73.6432
96.4972
50.8834
49.3427
47.2768
153.318
112.108
42.3004
46.8483
46.1248
46.1075
46.5226
46.3317
43.475
43.3802
136.522
104.939
128.531
115.081
136.46
63.8405
80.7454
63.9653
1329.27
387.12
716.409
52.1772
168.726
134.743
840.032
449.34
533.978
816.49
51.4612
214.382
983.395
2193.62
919.143
1739.45
81.2815
1794.67
716.191
982.918
226.378
107.125
125.296
91.3539
822.452
269.419
848.829
1648.31
199.704
228.751
1099.93
260.099
1322.56
414.312
659.342
259.65
49.3207
440.737
689.678
783.091
62.0984
63.5211
68.0668
57.792
748.192
199.241
85.9548
1169.03
1104.92
761.631
1218.13
1691.79
1021.05
81.5564
66.9792
107.273
88.8912
60.2057
63.8044
163.869
68.4339
44.6686
55.9688
342.41
736.761
76.1649
53.563
54.7133
48.7576
99.0087
62.9447
64.7113
556.388
828.912
64.392
292.7
52.6711
45.683
517.223
70.9029
114.73
769.586
142.492
159.434
133.804
113.857
135.226
648.051
102.862
54.8803
55.957
123.394
77.346
65.3297
335.634
53.5284
62.7398
56.1042
51.5028
67.3258
82.1849
82.1367
94.2477
69.3858
231.402
43.8383
187.931
43.4312
67.3206
43.1478
48.0662
52.249
113.535
49.2254
68.2345
146.055
48.8205
69.7377
53.5692
669.722
218.809
184.044
81.9559
104.093
375.898
151.583
194.902
217.043
2035.03
49.9025
50.0795
465.592
634.627
75.4395
64.928
68.7175
69.6969
56.9723
52.8789
119.527
47.5804
49.5279
80.0892
462.191
45.1799
43.7796
47.3185
47.2563
103.22
75.2556
44.9735
52.8007
95.0094
209.691
1642.54
309.699
1309
375.89
1586.21
103.843
52.9373
650.856
116.851
53.0274
1595.31
68.7951
241.806
224.03
60.1264
678.135
56.9418
62.1101
549.681
205.067
99.7599
170.308
832.814
1076.86
60.2495
75.6364
441.742
49.7372
571.918
65.7996
1381.81
247.526
181.797
94.1767
52.6142
957.56
651.96
734.28
47.9386
60.2194
143.394
63.0144
80.9436
68.3262
55.6504
53.0468
98.284
80.9246
198.446
45.7344
57.5032
75.9869
93.9016
62.0943
50.3865
48.0253
98.0322
129.522
292.586
126.515
251.242
86.1088
44.0979
748.094
73.0917
93.5391
67.9575
63.1779
61.5092
60.4008
61.5371
62.5172
54.5173
61.7694
72.568
60.7283
62.9373
109.517
127.43
324.186
128.522
49.419
47.9969
55.2243
75.9045
229.106
133.542
54.3613
55.6458
53.1407
49.4243
46.637
47.8481
52.5543
52.2128
56.2056
45.7726
58.6112
45.011
51.7844
44.6869
43.4957
74.9256
68.3812
61.1788
69.1325
109.411
120.222
91.1592
167.927
170.01
65.3314
487.242
434.55
48.1217
62.4025
199.492
103.141
67.2694
365.538
675.438
183.254
75.0646
69.9995
77.4798
62.278
107.583
161.7
500.632
63.9624
451.403
84.5724
106.781
145.438
345.809
67.5611
191.604
66.2748
58.7333
113.066
79.6242
48.6373
46.5532
50.2963
48.2227
859.014
344.417
89.8384
134.77
978.886
49.2515
59.0434
48.9919
53.3712
68.6048
53.5137
44.899
43.2831
47.0295
48.4234
49.6071
93.3476
48.2839
75.1686
105.42
42.5043
79.5731
72.6998
91.1155
330.428
48.736
95.8146
51.8219
603.128
87.3177
56.7209
103.83
764.282
1132.68
346.327
109.435
290.381
97.7115
47.1558
50.3278
56.6144
52.9237
63.7391
158.313
574.311
429.108
527.168
474.775
633.643
1035.84
790.391
1310.68
45.9879
52.6886
48.9322
50.9155
49.8802
62.2103
58.8657
117.708
98.6243
63.7746
59.5909
49.3491
98.1586
216.698
50.3584
48.1734
57.4341
47.1263
207.481
57.8492
75.648
132.213
99.7859
56.2133
174.71
72.1802
141.364
46.1776
47.7232
48.3948
95.4959
1191.31
94.9934
48.4065
58.4572
47.0966
56.0253
70.7851
96.1278
56.6416
49.9
44.9431
70.4721
63.89
61.9188
102.391
202.357
57.3516
229.995
635.045
66.8108
887.389
2277.15
1392.82
947.011
269.639
1021.51
2212.04
76.4176
44.8931
54.285
106.13
108.45
74.0436
43.1834
47.7327
101.119
55.6848
80.1504
57.2299
52.1573
56.9911
67.3726
52.4532
44.5119
43.2762
49.061
44.6091
143.679
46.6275
46.187
48.4878
44.9849
45.4589
54.393
76.6804
46.3568
44.5087
266.009
638.241
190.012
53.9263
67.6692
431.845
232.596
120.813
931.104
478.059
248.79
91.225
89.3966
285.683
1674.44
123.92
814.446
107.455
96.9709
49.2415
68.4475
57.1708
54.4875
146.983
55.6819
57.0175
49.6836
66.0796
268.336
89.0577
888.974
55.8344
111.729
60.7933
55.7661
93.2492
59.0533
46.659
49.0491
45.3534
44.6411
49.1826
59.2795
104.288
44.9865
53.4742
845.966
540.296
53.855
81.8291
230.023
1026.53
57.847
57.7375
89.7498
67.5125
43.3911
57.9263
186.127
422.758
2058.34
1261.16
1240.89
360.607
784.647
750.083
113.738
64.6243
118.558
244.357
68.2528
88.1024
598.877
627.982
546.616
289.473
108.444
590.83
1675.99
1135.22
1109.28
1271.62
1180.18
454.576
847.54
162.514
798.272
353.775
884.795
1018.83
57.3632
57.2072
57.7884
43.2768
44.3727
45.0082
43.3293
81.4476
170.994
265.604
283.522
77.2604
97.2319
70.4556
102.773
58.5182
60.4067
58.6172
60.3763
59.1729
144.163
94.8852
196.129
182.873
89.8296
273.017
210.818
298.049
247.852
56.1057
48.4102
45.6334
45.213
43.0715
42.7805
44.186
205.715
94.6447
75.9847
155.184
189.922
225.062
167.848
167.359
83.099
121.417
63.3617
69.7
69.9273
55.3525
59.0919
88.524
153.493
111.641
106.254
201.707
298.991
170.357
214.508
170.462
233.599
201.108
43.595
43.4587
685.334
43.0847
46.6457
44.2512
1052.75
860.167
1355.37
671.889
48.6599
55.5977
51.0199
65.3093
50.2244
144.063
529.828
743.533
133.946
933.23
1376.23
1239.62
47.8196
104.509
250.189
410.21
158.526
452.017
190.275
137.88
589.356
92.597
167.924
156.412
104.541
104.337
44.1932
1428.28
1479.25
912.515
661.337
1073.7
1313.22
544.355
979.599
63.6714
58.7483
63.1705
76.6609
71.2758
66.0568
78.2401
140.577
61.712
62.0389
61.8779
62.3574
817.749
2541.24
794.014
921.264
53.9271
61.5046
53.5209
53.938
164.717
698.806
569.672
232.72
235.738
379.837
1062.14
1107.95
285.902
962.94
313.994
507.696
887.523
237.914
64.6997
280.853
102.388
1168.2
828.734
862.248
331.586
1247.86
126.283
91.4764
45.345
43.0482
44.3937
157.727
70.605
77.4502
43.589
926.254
831.33
147.09
794.865
169.325
1101.25
70.6484
81.7502
63.6261
53.8045
58.4229
58.3656
618.395
854.394
74.0656
829.889
298.97
72.8993
71.4253
63.7242
64.5502
552.084
60.2658
58.5434
64.7332
64.9641
60.1681
59.964
132.943
41.7768
230.691
45.751
47.5718
47.3141
45.5752
47.8937
57.0499
183.413
84.8084
57.5457
336.909
181.785
490.208
62.6123
56.4181
52.6763
48.397
59.6673
76.5679
66.2029
1972.24
54.9279
65.0354
45.9373
90.7396
43.6337
55.2758
46.1578
49.7496
46.0901
50.3101
48.8137
49.2624
44.851
44.7403
73.9122
56.458
64.3119
2423.85
1080.99
890.355
887.362
228.359
233.739
644.664
639.917
148.979
72.5027
105.642
100.102
246.523
111.45
83.9815
55.0433
64.6629
50.4662
63.6198
185.418
867.293
150.136
71.3063
62.2737
239.77
713.691
75.1406
58.1366
49.0317
43.9608
615.982
847.657
51.0738
45.6702
62.6496
1227.6
169.611
357.699
581.922
706.804
853.667
618.794
589.756
89.0131
309.792
193.704
90.6546
85.2534
91.5145
136.063
96.0718
139.479
79.8458
97.2566
85.0948
54.1304
49.6988
208.757
63.3205
117.258
97.0762
55.8659
48.7427
67.1966
87.5921
1074.6
973.826
167.24
741.418
67.7155
607.246
1104.65
198.843
77.4137
682.836
244.165
704.386
1029.05
264.477
1133.22
389.203
217.917
55.7332
56.6175
86.3721
54.7136
368.88
73.4478
54.4843
114.527
126.801
55.1627
295.046
182.504
103.292
53.3655
121.927
108.961
309.844
123.233
374.361
257.264
1598.52
723.627
964.906
894.295
262.15
910.615
308.344
1638.12
1156.06
437.904
423.236
155.694
56.5421
58.3545
54.2525
46.3141
707.95
79.1197
146.043
67.6684
49.5412
93.0618
51.7436
74.453
97.4442
2320.42
1205.18
595.911
1467.96
1215.14
115.504
266.934
803.123
303.193
391.835
208.577
225.27
126.519
187.479
55.0036
90.9475
92.3115
143.661
316.862
124.376
239.353
236.646
94.6219
77.127
1902.87
230.552
1863.05
79.1968
67.5518
43.0061
61.4315
47.6552
52.3809
45.1906
68.3929
44.8841
48.1644
51.1984
45.1954
49.2572
44.6338
55.7388
44.0204
46.9381
43.6284
48.8021
58.2606
60.9312
53.2267
343.534
48.3686
158.12
52.1193
98.3221
207.665
66.8041
43.558
53.0552
58.3663
48.5427
49.9267
58.5291
57.626
75.3844
68.6642
159.772
62.1117
70.7092
127.426
113.601
67.8454
601.115
142.873
82.5557
115.417
50.0244
320.732
50.2002
47.4373
60.7309
55.4414
47.1258
77.5692
828.83
311.323
171.309
86.3516
535.463
502.302
802.668
1142.8
338.041
237.942
239.863
60.9714
51.2561
339.59
79.1595
711.671
1104.07
312.722
46.4725
46.7146
213.914
905.114
50.439
61.4696
47.3361
53.89
265.315
207.784
321.151
681.771
48.1159
136.181
704.235
177.391
69.7173
90.5384
89.5813
70.846
73.0094
52.7049
107.662
58.9274
702.645
66.6428
53.2684
976.556
150.89
60.8305
986.582
2056.55
589.578
174.097
366.183
293.808
119.537
956.068
793.179
838.248
954.178
1141.69
1094.43
1238.3
53.5704
71.446
49.0258
52.0741
66.2459
105.86
60.0855
75.8619
84.88
84.5185
60.2774
384.187
163.811
64.9276
1064.35
259.88
461.856
292.443
559.977
1107.36
44.3213
55.8868
49.3155
888.729
1072.15
1392.4
495.934
221.501
527.981
164.946
503.894
706.344
66.1747
60.7905
64.0824
99.8665
78.8969
100.512
709.456
753.69
371.744
685.851
632.998
66.5627
73.0352
219.746
176.281
176.661
131.206
122.919
106.444
57.0115
105.144
65.3135
107.422