/*--------------------------------*- C++ -*----------------------------------*\
| =========                 |                                                 |
| \\      /  F ield         | OpenFOAM: The Open Source CFD Toolbox           |
|  \\    /   O peration     | Version:  2506                                  |
|   \\  /    A nd           | Website:  www.openfoam.com                      |
|    \\/     M anipulation  |                                                 |
\*---------------------------------------------------------------------------*/
FoamFile
{
    version     2.0;
    format      ascii;
    arch        "LSB;label=32;scalar=64";
    class       volScalarField;
    location    "0.0948794";
    object      p;
}
// * * * * * * * * * * * * * * * * * * * * * * * * * * * * * * * * * * * * * //

dimensions      [0 2 -2 0 0 0 0];

internalField   nonuniform List<scalar> 
3991
(
-11.119
43.9772
0.870005
-8.37201
32.637
-6.82041
-44.1341
32.6288
-15.2974
12.8991
14.3569
2.36482
6.03473
-0.103864
-25.5929
0.63229
13.2778
1.31504
-5.30413
-41.77
-7.17062
-42.3883
-8.30534
-20.8307
22.6227
26.8546
39.6202
23.2815
12.2464
7.13604
-34.332
18.1076
-50.5263
13.0651
-14.2011
-4.76604
-44.3504
-18.5837
-0.693163
13.9212
-50.8988
-7.75651
3.31236
-6.09117
-10.02
29.5953
23.8556
3.789
1.94628
39.5923
32.3416
-48.0872
-50.9666
-7.85376
-2.17742
7.49902
-2.34448
-7.38089
3.8705
6.69216
33.8634
39.9403
29.9735
29.8471
-16.0891
-9.93837
6.35749
-11.5382
-43.2229
-10.5557
24.063
-7.26051
52.993
3.9885
34.9742
-15.5994
49.0976
22.9687
-7.51477
-38.9125
-6.75011
7.62532
50.7812
12.4754
32.6967
34.9121
-0.871159
7.67143
41.6157
-5.31638
-9.00012
18.326
25.4911
-1.54521
-3.4169
8.66217
24.0519
35.259
56.34
0.313674
0.452166
2.60316
-27.5761
1.64305
2.5843
10.3359
-6.67525
-46.1011
36.3021
-30.6967
-49.1109
-5.97554
51.6155
-4.26825
0.8198
-42.9212
-43.6937
-36.2663
0.675251
22.8093
40.4263
-15.0055
-10.7217
11.5756
-35.5707
8.38889
17.2848
-7.22027
-14.2439
-30.1631
-2.17203
14.1463
16.4055
-5.92238
-8.91272
-0.377452
-3.60286
-4.93081
2.05598
29.5836
6.86076
41.7927
36.8958
41.7514
9.1504
28.4341
-12.509
35.204
56.2973
23.3074
3.27801
8.18738
34.1162
25.4355
-36.7261
-13.3858
40.3939
22.2868
25.7569
38.5326
13.3285
25.2561
-3.64896
49.6192
24.1097
-9.37964
23.563
-28.0275
-27.5709
-5.66982
-4.32488
-6.02791
-23.8151
41.1485
41.5319
42.5572
-29.0047
-2.71435
-0.266882
-24.2438
-2.05162
18.7999
22.8209
-39.9852
-0.159267
4.97819
-2.25088
6.34215
-5.44826
-40.5281
-44.3235
-7.92807
-139.343
-52.1748
3.07176
-48.565
-16.0987
-2.21912
-50.3712
-8.19219
0.926142
-12.1842
28.6937
14.2658
-0.400654
39.3095
35.1868
9.87114
16.061
30.0438
32.5495
13.3635
19.0065
49.9716
17.5023
-12.0818
-2.25905
42.2297
-10.7611
-52.2574
14.4454
52.3742
26.6318
54.1403
11.7168
-10.6803
-22.7681
-4.92218
15.7056
34.543
13.1681
-10.3757
41.3285
49.8158
10.3568
-25.0966
-10.1194
-1.48719
-2.02024
39.7303
-23.993
-0.686093
-50.3692
-15.4277
-48.5773
-3.83553
-4.56519
-8.04316
-13.205
-19.9577
6.90694
-6.48961
-13.2043
-5.86444
8.54276
-4.58812
-17.5408
30.6719
18.2384
-17.5481
-15.5916
41.7881
-50.9988
54.0285
1.54673
-46.7829
-36.6548
-4.70853
-27.7735
-21.1108
-42.2485
-8.25746
-9.76417
-13.5902
22.6799
-9.18758
8.41538
-9.88597
-3.18328
11.1561
30.3341
-4.03137
-4.01097
-50.1017
-7.26134
-24.1689
-8.99086
49.6304
-40.8186
16.5869
51.2959
-39.947
-5.43767
0.543291
4.98565
-2.41635
14.1338
14.7366
20.8504
18.425
9.41928
7.62534
-5.03965
16.7087
-24.5073
-19.6116
-2.40759
23.3943
-10.4466
37.8597
1.27895
9.53619
9.27854
9.6281
34.0849
3.63984
-18.4579
0.647231
34.4001
3.1887
18.9825
13.2305
-2.68431
-7.30529
-13.5692
2.11233
1.03224
-10.8152
-24.1814
-30.1871
-50.6499
47.9812
-10.3281
10.0461
-34.9268
-2.08097
20.2889
-3.87772
-13.3366
22.8246
-29.783
14.1146
-17.6116
-13.6774
5.32223
4.96332
-3.35115
28.5507
-3.42932
-4.5019
-3.07246
-1.908
13.4598
35.3872
-2.51638
40.4241
-10.1403
-2.33367
-46.0541
-31.288
-26.2823
-10.5837
14.4953
53.2083
6.86973
11.675
29.9927
26.2272
-3.32331
-22.3825
29.0004
18.8371
27.9096
-33.638
-5.43654
34.9167
-18.9151
-9.91282
-7.0606
-3.97612
-48.5858
-51.6287
23.9005
-0.259154
12.8167
17.4016
-19.5013
-30.9285
-51.4048
-19.1014
-24.8502
-44.1928
-26.932
-11.6166
-1.45153
-51.5338
-9.43268
-0.519018
-50.5796
-51.0893
3.73288
-21.0876
-48.9178
-26.2683
-51.297
-6.72887
28.4386
34.0619
-41.1982
20.5273
11.0477
-43.259
-39.5329
-29.433
3.21637
-2.18242
-1.91017
-33.8535
-8.54143
0.76116
-1.08
-45.8615
1.12424
1.47956
2.88954
-21.1504
-17.4425
-43.7612
-45.1853
-4.1356
-45.8792
-28.655
-36.827
-6.69078
-4.94822
-4.23824
-1.2592
-4.32796
-22.3847
-32.3755
-27.4362
-27.9446
-27.1891
-28.7646
-6.83369
-9.32099
-8.03288
-11.1339
-22.6556
-0.650083
-13.1355
-12.2214
48.492
-10.6087
-12.1885
-13.2795
-15.8782
-8.63758
-13.8216
-9.64625
-7.72939
-10.0253
-11.6557
-17.7388
-12.7066
-15.1783
-23.4538
-7.81799
-10.7353
-13.7005
-17.9638
15.9508
-5.93712
-1.99131
-5.32472
-1.39413
-6.40565
-5.22051
-7.10573
18.5047
21.5899
-30.3835
-36.4909
-22.6894
-29.1623
-30.7215
25.9876
25.4166
15.2442
6.72141
21.7877
-7.21553
13.4457
12.6671
-23.2042
-9.22967
10.4802
5.62149
-4.72528
-5.64224
12.4491
18.687
-1.10536
17.0209
1.85454
6.41147
1.15294
6.44959
3.88259
3.8619
3.73379
4.8951
4.79924
2.21483
3.49106
3.28248
4.19128
7.0314
3.88491
9.86466
11.5625
21.9529
16.9424
12.2523
13.5521
10.7274
2.23184
14.5607
9.27856
6.20442
-6.1834
13.0284
-4.00355
-5.02423
44.582
40.3095
51.4459
46.7488
47.3471
46.105
-2.93416
-49.188
8.36751
-22.2075
-16.8796
-1.9108
-1.48527
-26.4656
-21.631
-10.4505
-10.9693
-0.41756
-1.33013
-3.51019
-2.22034
-1.50998
-1.82097
0.31532
0.464344
0.517464
0.398319
-5.05062
-15.5819
-10.2424
-19.9698
-5.63089
-19.4739
-9.48131
-2.49376
-36.8115
1.47359
-50.8067
-28.4522
28.0495
26.1937
-39.9864
-14.4668
-15.8993
0.48649
-2.92736
-33.4428
-51.5891
-22.5419
-29.0701
-49.1573
-20.0429
-2.61968
-5.91471
41.0795
-49.8255
1.34873
-24.5119
-14.219
28.6493
43.2475
37.9293
-0.227511
-3.22885
42.2852
-4.84677
-47.2318
-44.3749
-4.09644
55.2908
-4.52602
5.51589
2.62525
44.2337
36.0902
43.7045
44.7967
8.26061
10.5669
9.04265
-24.7673
-46.7329
-47.4635
-45.8607
19.2822
20.4718
-4.65531
-0.0535331
1.85515
-9.39612
-0.268299
42.8492
10.6383
6.84744
-8.35527
-10.0539
-7.51307
2.57337
-8.45671
14.7094
0.970214
-18.1478
58.4822
-34.4573
-7.32677
2.74573
-6.89287
3.83493
31.9513
19.8255
35.3394
-49.5804
-13.6733
9.87478
-1.51015
33.2501
-49.1421
57.9899
-12.2812
-23.1113
-1.90885
45.9406
10.8443
5.5611
12.6268
-4.76112
24.8147
29.4665
26.2146
-15.1079
8.67187
-40.7066
10.9851
12.079
48.1574
22.3538
-17.0896
27.8994
7.29434
-3.18903
24.9732
2.9692
-8.29466
-5.18111
-48.1557
-18.2631
-38.4827
-41.0641
-50.9472
-9.14481
5.0551
-48.0102
-28.5181
-45.5502
-57.2134
-19.865
-44.4773
-2.60775
-29.7578
13.5021
-1.57438
-9.08965
16.5141
9.404
7.76808
-6.45154
-14.7043
5.60739
-7.07537
-3.91372
-44.5764
-25.7918
46.9517
-42.8471
-5.14775
-6.33836
-44.147
-3.64111
-45.1072
-5.94261
-1.51015
-13.7997
2.2296
-22.6161
-1.62113
24.1345
-21.9815
10.198
-47.1954
-11.1735
-12.8912
-17.0523
-15.1901
34.9734
-49.8971
-25.0185
-48.1273
-49.8901
-46.1203
-47.7888
-47.8669
-40.0203
-34.4939
22.4169
-47.0203
-46.6894
-20.2473
22.926
-25.2446
39.1514
34.4594
50.6767
22.7898
31.4853
40.5484
35.0042
22.6196
56.7115
15.4844
15.4927
14.4147
11.1521
-28.2558
11.1145
19.1722
21.2017
20.6492
24.5621
36.5066
-11.1991
28.5924
40.4542
-1.95932
45.7185
-51.7517
-29.7952
-43.3888
-15.1795
-15.3021
-22.0445
-46.6627
1.27509
2.01384
0.872411
2.16244
-9.12577
7.46785
8.6541
4.3666
6.91711
9.73657
2.98713
4.86138
4.93077
4.19355
4.96378
4.45717
4.53915
7.76886
10.8333
12.547
26.1153
10.0081
10.0425
-2.61245
-27.9716
-49.5992
-46.2909
47.5711
50.232
50.0685
47.7379
47.482
50.5579
51.5339
53.2693
30.9795
19.9923
25.4023
23.8211
21.214
22.1479
16.4641
14.9009
12.6944
20.0954
43.571
46.0311
42.8895
44.0972
48.2761
36.4852
5.0221
5.91259
4.03516
6.60815
5.67468
-2.76866
-8.10967
43.442
44.007
11.1337
8.56246
11.1155
13.9253
18.8735
11.3389
6.24689
-20.4327
-21.5751
-5.63782
10.7913
-17.6768
-7.52325
-7.41346
-33.8591
-2.95514
-41.7339
-11.0317
-16.7279
-39.0866
-0.563639
50.4969
-50.0241
-50.831
-7.37681
-51.0514
-33.1714
-37.4525
-11.6339
-21.4589
-5.17502
-33.4005
-3.34442
-7.0424
25.4649
33.8784
29.3856
19.0517
-28.1629
-10.82
3.77468
-32.8203
43.0388
9.35466
8.68586
-50.3662
-53.754
-19.5257
-21.9082
-27.3311
-27.794
-30.3712
1.32647
-15.2696
-56.2191
-92.4439
27.1517
-14.403
-10.4694
-16.3756
-19.0022
-26.7974
-34.2191
-51.367
-47.9239
-12.0625
-8.08704
-26.0122
-2.0385
44.8141
-41.1913
-48.6961
-9.58098
-36.3385
11.0601
-10.4462
13.6821
2.09683
-47.6372
-11.4417
-3.25054
-20.274
-46.3032
3.36769
-28.041
-8.98324
22.0827
-14.4198
4.53816
0.71529
-4.98894
-15.4899
-6.29385
-27.2731
-0.753472
7.9976
-7.94094
1.13782
-7.93238
-39.3561
-1.90252
-51.3243
-33.6525
-29.6923
15.8128
20.4288
-2.46731
4.26886
-38.3868
49.4049
2.06323
20.9864
-15.0673
13.2035
-47.4865
-36.2949
-19.5219
-19.1572
-35.2289
-27.7419
14.1432
-1.61487
-32.1322
9.66992
-6.65542
-45.1478
-11.1011
-6.43397
22.4513
30.4012
-4.32623
2.265
14.2577
-4.39555
-15.6692
-48.9473
-49.5249
16.8985
22.8462
4.11504
-15.3666
26.5641
-49.1854
-26.175
6.29372
-34.5131
-22.9481
-16.0114
17.6851
9.22792
-0.204735
7.95266
4.45372
5.57259
-6.3079
3.12667
6.33414
14.6089
2.72957
25.5474
22.8869
38.0317
15.8121
16.1076
12.8397
5.78012
-11.06
27.4397
6.36427
9.26935
38.1789
31.0325
-17.5387
-8.73247
3.31991
3.09979
-1.5731
-6.31117
-17.199
-7.13717
4.62831
-8.52235
34.09
0.63029
7.54924
4.11145
3.9627
0.497351
0.139154
1.08416
1.78086
4.21206
-6.98449
-70.1293
42.8186
47.9619
49.9381
28.9933
-5.84104
-0.429013
-12.5583
11.3489
-4.57473
-29.6892
-16.3912
0.502316
-15.3897
1.94126
-65.9587
18.7936
25.3887
6.19547
-16.6859
23.127
-2.30243
30.3892
25.5503
21.188
17.8758
32.542
6.63585
-30.6197
10.6076
32.6981
36.8434
25.8693
-7.03675
35.588
-13.933
30.7594
-10.7882
0.570965
3.19206
4.74831
14.7772
12.5093
14.4309
11.5469
13.1473
15.1415
13.5816
-5.34091
-23.7071
-12.0729
-31.5519
32.2389
-63.0078
-101.281
-46.2666
-110.062
-75.2341
-18.2755
-21.9106
-51.3974
-30.2362
-48.5959
-11.5738
-35.9638
-51.3332
-21.5881
-22.6271
-20.3871
-24.3559
-36.4913
5.43695
4.45681
-2.26355
-6.37178
-39.1969
-12.9622
-50.501
-50.1775
-8.3081
-47.4714
-10.9826
-26.901
-7.71768
-14.5739
-53.1326
-31.0939
-8.72681
-91.3942
-7.17776
-62.7783
-28.073
-64.4946
-48.1351
-52.219
-43.4521
-50.1377
-44.6563
-48.8292
-0.963436
10.8118
-0.303651
-7.12798
-5.00244
30.4052
1.92404
-4.59497
-20.5281
-0.226947
-12.5967
-6.54314
2.91587
1.03721
-50.4047
24.2244
57.5462
12.9824
-45.0601
-45.251
-40.1098
-26.2447
-32.645
-38.0415
-42.7938
-48.4452
-47.4218
-34.2888
-32.3761
-23.4747
-28.0082
49.6025
23.3032
57.6857
-27.3581
-12.7916
-31.126
-20.1524
-3.10235
-3.32362
-3.99149
-2.90518
-1.92179
-4.36055
-4.2807
-5.2954
-46.3843
-47.3671
-50.5428
-47.9661
-42.9342
-47.6659
-36.5353
-42.9993
-35.6219
-29.3683
-25.5997
-20.1613
-17.5392
-23.5518
-22.0933
30.1652
11.4486
9.91773
16.042
-37.3208
47.0328
13.7366
-18.6393
45.6668
45.074
51.8517
16.8977
-53.1019
43.109
-5.91365
-2.08979
-12.6836
-14.0912
-6.8484
-46.519
-9.04466
22.0167
-2.03703
-17.2244
5.6206
16.2853
14.1386
23.7404
15.7008
18.3288
-5.4262
19.6571
17.5355
9.77543
-4.06398
-9.20956
11.9116
9.33021
-46.3774
11.537
-11.6261
-15.0332
-18.4111
-13.8509
7.16142
30.9395
15.1205
46.5043
18.3219
40.2882
1.58491
-12.0828
-11.0662
-1.74944
3.50926
13.7992
7.17448
2.22371
-4.06277
-0.188888
0.423494
-3.45708
-1.57036
-1.11859
-28.1798
-20.6321
-14.9288
-13.0135
-28.196
-31.9495
36.2877
46.876
8.78827
8.66886
7.1398
51.4921
8.13161
6.72545
28.0375
22.0401
21.5265
1.20817
-3.93622
-1.98143
7.34418
22.3107
-3.86823
7.33524
9.7583
28.8527
-13.1545
-13.4516
-2.99064
1.7152
6.99396
43.6664
46.7092
46.6011
19.5967
32.6163
24.0351
0.567731
1.96311
0.259865
30.4086
0.0153685
-1.40482
21.4852
19.1439
-0.726828
27.7186
0.119354
0.47968
-48.1154
-10.004
-10.8175
-60.4757
-0.912568
-0.703875
1.55415
1.89691
-18.4431
4.56498
5.34834
2.80013
15.3648
16.7672
21.485
3.81756
-5.24014
-7.04257
13.8483
19.2481
43.424
6.96299
5.08216
0.909083
-8.27303
-2.64856
-6.73656
-17.9024
12.3367
10.6287
10.1437
27.0377
-41.6951
18.7457
27.4348
14.6143
-5.86116
27.8186
-5.96087
44.3694
2.5059
3.53229
-0.0745332
52.5524
10.8051
52.3688
7.65988
-0.153771
5.52431
-9.85805
-5.36325
-3.45453
-8.15815
-3.22647
2.80293
6.89603
23.0128
-9.75855
27.8839
32.4741
36.4398
41.219
22.5981
-64.1956
14.1523
7.21147
26.6993
33.5525
18.713
-84.8282
32.3091
54.9982
2.47919
-1.23475
-28.8577
-50.0464
-9.57614
-4.36423
8.19318
-0.292436
-1.96516
15.8703
-5.48552
35.4322
21.5471
-53.9048
-50.1636
9.62263
20.6163
11.0045
2.51211
-6.29391
12.6528
2.33656
38.0588
24.973
5.20551
7.73231
2.3143
1.963
-3.01719
32.6685
39.6063
36.038
1.0991
30.2326
16.6923
-9.02659
-3.42081
2.95849
1.21838
-11.7849
-4.28693
-5.02556
4.14952
-11.3804
7.26568
-26.4808
-54.9691
-22.5477
3.60612
-10.1672
-5.67335
-0.822829
11.7047
3.67532
6.94455
8.12169
14.188
16.5433
15.742
-12.1964
51.8515
48.1239
33.77
40.8296
46.2204
52.3986
43.4026
38.2794
3.13341
-48.2927
-2.87803
-16.2374
31.9984
-3.24196
21.6385
9.04097
-7.39102
-4.22355
4.18783
6.3164
6.99212
-5.85732
18.2053
-0.604027
-1.79285
21.1686
4.66502
3.70666
5.69524
4.65943
2.28372
-20.913
-13.5316
-7.72912
-5.71492
34.7633
44.4135
41.2079
0.0834375
-5.73117
-52.0612
-47.8133
-48.8307
-50.2234
4.0483
-14.2211
-10.6152
-13.8485
-6.78863
-3.03444
3.10388
-44.9848
-35.5264
-48.9
-1.49235
-12.3418
16.0898
-40.4679
-39.0843
22.2304
33.0642
-14.4978
-11.9504
-13.3461
-11.2971
-12.7022
-36.0572
-51.7197
0.391358
-15.7304
-44.2798
-9.87227
-19.2942
-18.2687
6.21185
-24.5099
-37.4545
-14.0206
36.8357
-49.4504
-9.15888
-0.196981
-10.0996
2.41762
14.0814
15.8015
30.9532
6.37996
3.53175
8.47766
11.2013
-1.68897
-8.16978
-37.9751
-3.44282
-25.2064
-37.0062
-52.1859
27.8751
21.6842
30.0538
18.4517
23.1074
18.3773
36.438
28.4561
51.8008
28.1201
12.536
-45.2342
-47.008
-46.517
-43.3032
-43.3483
-9.14213
-11.5724
-12.6727
-5.95118
-15.2404
-18.4705
-12.9859
-17.6234
-47.4296
-46.7881
-44.4631
-49.7242
-49.9091
-53.0949
-35.3688
-27.3027
-49.8515
-44.0145
-36.902
-44.9244
-42.1035
-45.4036
-44.6672
-51.1201
-50.5006
-50.4256
-47.846
-50.0091
47.3796
-22.1104
-31.1783
2.83084
-8.05147
-34.3989
-46.5636
-36.644
-16.859
-46.9752
-12.8392
-21.2597
-6.49318
-2.04055
-8.4377
-3.34478
-8.28611
-13.3878
-13.4581
-13.3737
-3.7371
-4.54504
-5.97003
-23.9875
-9.06445
-28.2035
-42.0524
-45.9756
-10.069
-21.474
-33.6022
-47.445
-7.27112
-23.6802
-43.2427
-10.774
-44.4598
-9.19127
-38.0318
0.62489
-11.2941
-19.1789
21.3545
-6.75326
14.0081
20.5096
-21.4625
12.0444
-31.4295
-17.1749
3.78018
-13.4157
-0.703728
-15.7884
-20.2447
-5.75344
-3.11764
28.9815
-4.79046
5.63933
-17.4534
-40.1432
-12.4635
-10.7856
-39.6525
-1.92116
-49.2439
6.99244
-29.1632
-0.680536
-15.0373
-51.7863
30.365
2.20807
23.4633
31.64
24.3008
4.20088
0.0664797
11.0139
-2.94298
0.607905
2.68115
10.1865
18.0452
4.39668
-31.6232
14.1609
5.98305
-38.1386
15.9633
12.9349
19.6625
47.1224
35.4942
-9.42435
-4.00054
-20.1704
12.5128
-10.0318
-43.2671
21.2823
42.5772
4.12015
3.13121
-1.22656
-20.2302
-33.1885
-12.1284
9.07748
-1.55489
4.83677
21.455
30.4633
43.6378
43.996
4.38246
-39.1069
-12.0924
-13.0032
20.2316
-47.7372
-9.8131
-25.3993
-100.978
-3.52291
4.29359
-0.482441
-0.030716
-0.734518
-38.8012
-56.0729
-59.0762
-11.5085
-2.96144
-1.41838
7.04277
-11.6487
-7.31412
-2.13693
-22.7803
-7.43986
-24.3426
17.8913
15.3496
34.8824
26.3919
25.0039
7.24305
31.5885
-8.69128
-50.2233
-46.1681
33.474
31.0743
-45.215
-9.92489
-10.2446
-23.4163
-46.4968
-39.9435
-41.112
-45.4329
-41.4716
-50.7598
-22.2315
-23.6642
-12.539
-11.5138
-5.45622
-47.8619
-1.57241
-41.6608
-47.059
-2.90248
-32.3165
-50.4948
3.44422
7.04758
-11.8554
-35.9821
-6.27924
-12.3177
-41.45
-27.6918
1.20167
-5.94221
-2.96759
-47.646
-37.1051
-15.6785
-41.4192
-73.7058
-47.1191
-43.5729
-41.0801
-27.3775
-16.5411
-17.5789
-32.641
-21.3313
19.9575
-1.65746
-22.3642
21.2847
-46.6444
5.57106
-2.69923
-1.29392
2.52592
4.84908
-34.0135
-0.474369
-7.75471
-23.8679
-32.1797
-33.0349
-23.3884
-23.871
-45.178
-25.4928
-17.7779
-17.5747
6.16873
-32.0852
-2.62827
-15.9475
-11.0989
-40.8525
-14.5737
-22.562
-31.7717
-33.4141
-37.7244
-18.1481
-30.1658
-67.0835
-5.89796
-52.3556
-29.5568
-34.2069
-4.94923
-20.629
-6.74741
-37.1037
-36.9694
-6.4283
-26.8648
-16.4467
-5.86495
-14.5901
-35.9508
-40.0729
-23.9527
-1.40983
1.01991
4.29153
1.37414
4.76189
36.5775
33.8382
46.3942
45.5637
46.7107
42.4341
3.64623
14.3464
27.4513
20.3933
20.7795
8.00626
-57.0841
-22.9495
2.78258
-44.661
-2.68997
-2.46457
-20.3966
-29.6633
-1.61165
5.97976
-22.4345
17.0426
-8.73277
-4.25617
-3.58417
-3.90991
16.9877
0.7383
-6.38595
-2.98576
3.21195
24.6947
19.0294
8.09313
-12.0054
-13.0709
37.9052
33.7213
-7.36021
35.8031
16.8497
32.3702
40.2302
42.7754
10.5924
19.1366
0.942735
9.16122
40.3932
20.6136
16.838
19.6887
19.0471
22.6691
1.44515
-4.89756
8.11213
1.47609
5.67692
4.65437
8.29194
-4.36342
4.93536
5.47625
-2.6696
-4.24393
30.3714
38.9508
-5.86376
32.0981
-40.8127
38.0537
45.0967
40.8236
17.0563
17.6651
30.6487
18.4502
13.316
12.5611
11.6109
4.31535
3.98443
4.79183
26.0695
19.4739
21.0976
-7.90209
-6.52823
4.60518
4.06434
0.864451
3.50013
15.8335
21.1221
-49.2842
15.6849
13.9218
13.2871
-7.00841
24.7784
32.3522
-6.65981
-5.85364
-16.7965
-14.7789
-17.1874
-25.1726
-9.87086
-8.18351
-22.5278
11.6509
13.5829
19.2037
13.8067
-5.81826
16.3879
18.236
5.2681
8.61751
2.96997
14.4372
13.6666
20.1657
13.2731
11.7891
9.95089
8.22925
18.2122
-3.67682
8.68872
-1.07585
13.3889
12.0797
-3.49177
0.349163
0.143871
1.42012
0.297018
4.27699
-28.6962
-47.7402
-31.2938
-42.944
-35.681
-18.4483
-21.99
-4.20634
-3.1869
-7.44329
-4.20315
-24.1589
-38.2913
-19.2346
-9.54334
-21.2352
-11.5402
37.0251
-16.0537
-49.1852
-51.3691
-46.1792
-42.17
-36.6806
-37.9809
-32.9423
-25.4538
-47.6238
-49.6288
-46.1069
-48.8791
-49.0994
25.3186
30.0402
7.79818
-50.9526
-45.6788
33.2472
20.5888
-32.5743
-41.2561
29.2391
-66.8079
-49.2112
30.3754
45.9771
18.0683
36.2745
24.2237
29.458
47.1201
51.9652
35.8653
-47.1389
-47.7527
-53.686
-47.5623
-12.9754
43.9586
-33.3447
-50.2915
-51.8461
-51.4103
33.203
15.1188
31.9837
10.6132
34.5485
20.8909
9.56213
-13.8203
-64.5872
-51.692
-5.49619
-26.5028
48.5693
47.0114
48.3349
26.6708
7.71278
8.09276
-19.4609
53.1404
18.9689
20.2574
14.3875
9.88512
55.3682
57.3663
-35.2569
10.54
56.5643
-7.29556
-44.3417
54.9085
17.4136
-31.6991
14.0973
-48.1739
30.6681
29.2561
-0.549428
38.6106
20.0034
-10.6875
-2.50829
-23.4346
7.18979
-14.8561
41.1142
-41.3182
51.4691
3.00524
4.06846
-21.7398
-45.7998
-46.7733
26.6966
-2.10742
-18.6653
-2.52128
-6.78342
7.95797
-19.5912
-20.6617
-29.795
50.1853
57.6662
13.1666
35.0038
-42.9757
17.9577
27.0712
51.6156
17.9766
42.1324
48.2843
22.8428
22.9017
17.935
35.438
31.035
34.0503
29.0716
21.1475
22.6104
27.7584
12.8792
22.1632
12.5287
20.3769
16.9691
43.9543
45.6454
-11.4331
-4.60602
-2.02566
-7.44836
-12.5534
-15.0483
-7.43556
-11.0445
-2.10528
-20.2862
11.9348
9.84709
-3.29627
-5.64064
2.09984
6.44965
5.95709
-6.88236
-2.59758
2.42071
11.3361
-49.571
11.7803
-4.36538
-17.0282
-56.17
-44.2611
-17.9754
-26.4555
0.0836379
17.2653
-14.7261
-0.381569
5.29094
46.8302
-24.9306
44.6076
16.5874
9.45965
11.1105
-17.6934
17.1945
21.8397
36.4447
12.7907
34.082
43.6293
32.2127
-17.329
-17.3492
12.5637
-0.332427
36.1357
5.30112
6.17867
38.3094
40.9931
41.3167
45.5853
39.5037
37.7181
6.05372
-0.779139
-1.98224
-2.77041
-2.30551
43.9724
-7.57292
-2.61517
24.5651
-16.5835
-47.6542
-49.509
-5.0902
29.8394
28.7541
22.5461
17.1839
10.4624
-7.45586
15.8053
20.3129
23.3913
-17.6902
16.339
14.424
-9.12542
20.0535
19.9273
25.0875
12.8917
-48.4186
-48.1496
-30.9858
-24.0265
28.2202
10.2278
-17.547
28.4866
20.9777
-5.65529
-4.89899
-13.4849
-6.44845
-25.5015
-14.5175
-1.00399
-46.5077
-0.0115422
0.616377
-1.05697
-16.3176
-1.25162
-20.3797
5.99277
-2.61878
-4.64187
-3.86915
4.13107
9.50387
-48.6272
20.8142
17.9921
18.6877
-3.66758
9.55226
20.4364
8.54727
5.34957
2.83171
-10.9784
-12.0107
-14.6654
-12.7867
0.296236
-48.7556
-38.4464
-29.422
-13.5081
14.4054
-38.7972
14.0223
-34.2859
-41.9978
-9.26224
-48.9584
-47.9499
36.7219
32.2416
-47.3129
-43.9818
-56.4821
2.693
17.2256
-18.0215
6.31513
34.4383
22.5541
8.5284
-5.08008
-3.21564
-13.936
-13.1294
-3.21546
-12.4563
1.81442
-20.8285
-7.91454
1.00652
-11.1314
-16.5964
-8.41097
16.5579
-37.9538
2.78255
15.0349
-33.3066
-6.57931
-26.6057
10.8207
23.5521
14.9014
-10.8071
-16.0119
19.8643
16.4728
-1.62642
33.2995
14.4471
-38.7674
-3.16077
18.8207
24.9152
1.95148
4.16404
5.09909
4.45809
3.28089
-27.7449
-48.58
3.9079
-0.335705
6.58524
11.7233
-5.48772
-68.1595
-15.4627
38.6636
-10.0002
-5.73348
-13.4027
-6.58809
-4.9622
-46.5082
-27.933
-41.4732
-16.2517
-9.52773
25.4502
-36.2217
-35.9063
-15.8189
49.8412
-18.9742
24.4437
-12.8431
-11.6324
-38.6619
22.2431
-9.77752
-35.5979
-30.015
-38.4377
-15.0291
-41.9902
-50.7358
-33.6422
-18.9099
-36.83
-50.7606
-48.3414
-51.8064
-14.3656
-11.0008
-33.9303
-0.230402
-6.98551
-8.07922
-23.7082
-4.34854
-11.0236
0.0996387
-4.93097
-8.37695
-1.74155
-15.8167
-8.39588
-5.89694
-5.46975
-8.07713
7.5819
10.4838
-2.78657
-7.55588
6.35867
-38.2493
-10.8409
-36.1226
-15.1531
-10.7005
0.0826548
20.164
37.7021
1.45957
-0.374749
4.2352
-4.55497
1.69943
-20.7016
-15.7091
-34.0014
11.5124
-15.5507
-11.3455
-3.96676
-9.94062
-8.51801
-30.2014
-43.0409
-45.1834
-73.4678
25.6901
-50.1384
28.7664
56.6961
27.2018
32.2327
23.169
28.0858
27.1116
-17.7084
25.0501
3.14647
-20.1107
-20.5068
-4.07283
-22.346
-1.19588
-0.5086
-40.1237
27.8324
15.5171
-22.3595
-30.9166
-47.9135
11.2138
3.02722
4.65089
4.23648
2.30181
12.5116
17.3629
-1.50025
1.14797
-0.906383
18.1941
29.1521
10.2488
-6.53899
19.0865
0.557822
8.85446
-2.06523
45.8023
-6.62223
-0.476594
3.51488
-3.55554
0.32381
-2.95734
10.8221
-5.31294
29.1803
30.3493
19.6373
7.5746
9.6006
8.13093
1.10662
-46.9143
-45.8777
-18.9053
-15.8638
0.335208
-8.6201
-0.0577768
19.4747
2.22378
4.43346
7.74084
-3.05093
-14.2907
-4.26755
6.88903
5.29219
-2.51123
0.751855
0.855817
11.6816
-0.43121
-0.83234
-2.97997
2.12044
17.2398
15.1742
34.145
28.049
34.236
29.6295
18.9219
-83.5442
32.7786
24.2286
32.3037
24.9843
13.7227
19.4514
-45.1372
7.04119
21.0674
36.8783
-29.091
-1.06105
-49.2131
3.13001
-6.16079
-5.81083
-7.63201
-26.3625
-14.0574
-49.0003
-48.811
-48.3541
-32.0169
-40.1696
-10.8642
-9.22425
-51.1097
-3.65588
-38.4433
-18.6565
-13.243
-26.8392
-47.372
-49.2891
-10.2177
-50.8017
-9.10267
-11.1934
-9.41886
-48.4285
-5.05197
-16.74
30.6407
-50.378
-6.82699
-18.5171
-8.86004
-49.91
-12.8282
18.393
-50.4736
-32.4912
-6.92676
-7.5484
-47.1075
-44.011
-13.5844
-6.3778
-13.8463
-10.7301
-3.61613
-0.797467
43.1665
1.69241
-6.49273
-2.18158
-1.57401
1.57176
4.27731
5.0918
-1.6857
1.86018
2.69809
8.10816
3.3017
3.06735
-11.2444
-9.11183
2.36086
-2.453
-1.62997
-3.32
0.349673
-0.014071
11.3918
5.71712
-1.11332
0.884206
2.06159
-0.291432
1.86169
-3.18176
9.4663
15.6572
-49.1602
-24.1682
-51.3227
-3.38155
46.2308
48.2574
58.6439
57.3495
58.6432
-38.951
19.6508
-8.69803
-58.1373
-49.2497
46.7064
-61.7865
-15.7694
-70.6481
31.7474
24.5256
11.6875
9.27429
-0.563533
10.7953
16.1156
13.4124
-17.6553
-97.011
-15.801
-0.739502
-11.9508
33.5812
23.1774
-28.3653
-22.8586
22.1366
12.0127
-38.7533
-42.8752
-46.1774
-0.733166
1.85762
2.52419
3.73464
-42.0518
21.6731
32.4275
12.4277
-22.5794
-48.8988
-55.9351
-65.3278
-53.1362
26.8576
27.2345
49.2407
1.05459
-2.12172
-11.2292
1.38769
6.57253
6.65062
9.41479
55.9164
-30.2126
-11.5772
7.15617
-0.721213
9.20568
4.71246
8.10775
1.26415
48.0621
49.7193
-8.51332
-5.8223
1.22943
11.1445
-49.7543
-11.3941
-4.53178
-50.0208
-7.48908
-7.55646
-8.11384
-7.94577
-21.5379
-38.3643
-2.34884
6.09282
28.3472
8.50726
13.2033
3.69335
-25.4534
31.7287
2.86588
6.79031
16.5364
28.8174
24.5497
38.3841
36.4729
25.9729
-31.3442
17.5543
6.52655
11.5809
6.99624
13.0346
16.2273
-4.87209
-1.58386
2.65336
-11.1416
-17.6893
10.1531
19.7461
27.7266
-50.8795
34.5911
36.4144
26.1785
28.4978
49.5001
27.0061
31.1866
-21.4669
-51.7819
-8.51153
-4.71842
-26.9888
-40.6048
-0.952248
-13.0787
-9.14939
-2.01227
30.3204
21.0819
21.0583
20.9614
21.1569
29.9951
37.2033
20.0283
14.3425
8.34928
10.3574
2.45799
-1.64653
9.4746
13.8916
21.763
28.8741
28.4823
32.3796
-13.9577
-10.434
-43.5233
-10.0488
-5.722
-25.2409
-12.3101
-0.957476
-63.2164
-10.1035
-28.8621
-29.5337
-8.47596
-43.358
-8.22808
-13.0467
-49.7092
-24.5097
-10.8599
-20.0297
-50.92
-47.1884
8.07324
9.13056
-34.067
10.7497
4.81478
18.6733
-49.8472
30.1919
18.0492
15.0309
26.7217
53.2311
-15.0524
27.9754
19.1443
3.46486
-24.471
-8.04172
29.1826
-0.243216
13.7598
20.3127
28.6704
30.3426
43.9932
16.3446
16.7631
-5.74141
-7.6315
3.05195
0.794879
17.6929
21.2989
16.476
-17.0706
19.9961
23.0473
19.3522
14.725
-47.9721
-3.16403
-2.73365
1.00607
1.85528
-4.84156
-3.75842
-5.17682
-7.43245
6.35861
-1.74411
-6.44846
-3.59397
-2.07408
-5.43991
-10.4525
-6.03876
-14.4544
-0.207638
0.34116
-0.797239
21.4198
20.5344
23.6448
11.0412
2.80331
2.69962
8.22993
9.76132
9.08788
4.90791
5.86313
5.58831
6.20772
10.0808
15.6526
16.2417
12.2497
13.3427
26.5203
27.4364
30.498
30.8369
31.7803
29.317
28.4048
-24.2474
-25.0893
5.62006
-30.8242
-29.8188
-7.80221
5.92833
-10.2811
-5.62793
-6.13533
5.89637
-9.021
-17.0162
-5.71356
-9.50383
-7.39371
-9.81635
-6.6474
39.7191
50.2831
35.4915
55.2939
34.0547
43.2862
37.065
50.0857
31.0817
39.9323
-0.190603
29.4678
43.6163
37.6135
26.9396
26.1137
29.6359
25.8101
-38.4417
-21.8709
6.27721
0.267943
-50.0007
-0.0270628
-7.44965
2.11399
-7.57263
-3.61942
-0.491841
20.1216
16.503
17.6302
-5.34541
-8.81905
-2.95256
-3.24243
-16.4433
-23.0216
4.17537
27.6885
17.1775
17.4343
2.81841
-7.481
-0.516694
5.29053
-27.4283
16.1208
10.9986
29.0342
-49.7212
-35.1933
11.1488
40.8898
39.5568
41.5261
11.3336
13.2247
25.8462
15.427
14.2776
8.02716
-47.5538
-50.0779
-50.3039
-46.6158
-47.7036
-52.4081
-48.1943
-51.6226
-6.34015
-7.63414
-7.90439
-8.36288
-2.06339
-7.7562
-11.7032
-19.2368
-2.83296
-12.7603
-11.2158
-7.51032
1.67945
-0.747114
9.80153
-1.90297
-2.37851
-4.45905
-16.825
-3.97504
0.646855
1.07467
2.14597
16.1247
-25.2196
-1.19204
19.5391
18.5861
6.40671
10.3722
-15.5383
-45.2169
7.86047
19.3431
8.32005
0.713489
-5.61433
-9.52981
38.5568
9.86493
3.69979
9.94809
-2.16762
23.244
9.99554
25.7594
27.9645
11.1988
-20.4341
-16.2475
5.45372
-24.1869
-84.3887
-58.4967
41.0074
22.1337
-11.2387
-72.5237
9.12889
12.0356
-2.44455
41.8544
5.52272
18.5873
9.69262
17.6423
4.07421
23.4691
23.6887
9.39385
10.2218
14.7128
1.62985
19.9209
5.72787
8.74675
8.39462
5.10129
2.18163
8.13094
2.01096
2.0099
3.83421
8.4254
-9.34851
-1.21749
0.0658898
-1.61598
55.6686
-100.673
31.1299
3.02829
15.0274
-0.31267
-20.2652
13.7258
-4.1641
-15.7507
9.61188
-2.04009
14.9702
-13.6279
-47.4907
7.18939
34.0495
23.3342
26.1973
-3.44081
4.49978
-3.48905
-0.133974
-5.17073
-3.4286
-4.7413
6.21122
9.7547
-9.67192
-5.96291
-46.9052
-8.0437
-22.8857
-9.19669
-5.36518
-15.8256
-7.84991
6.5728
12.5535
0.971572
15.9653
24.5834
8.61271
21.3739
6.63567
29.0453
-33.4668
-30.6483
-8.46032
-14.2648
-11.1522
-35.7837
-4.35191
1.8024
-15.7501
-11.5768
0.622353
-8.21818
-4.676
-20.6617
-101.874
-37.8788
-47.41
-25.9188
-48.3893
-47.4869
-21.4381
-11.8122
-2.8344
-5.09193
-0.373533
-1.40177
-6.73212
-39.5003
-49.2749
-31.4405
-19.6564
-53.7854
-40.8569
-50.3619
-77.6661
-43.1839
-47.6343
-48.2859
36.8129
26.9058
-27.3947
-50.6134
-49.9558
-46.0727
9.37618
8.08502
7.60094
20.1859
23.5441
20.5185
4.6935
-15.363
-21.2538
-26.2852
-22.5152
-7.00433
-4.94989
-5.31118
-1.75965
-9.0874
-8.90701
-5.71577
-8.91486
-5.60334
-3.69986
-3.63247
-0.742016
-1.69051
1.41416
-31.0174
-27.6594
-30.404
-31.9669
30.7824
28.6478
24.834
14.0381
6.55383
20.3917
21.5694
49.3436
38.1173
37.5054
45.8867
53.4805
51.249
47.6827
50.0386
-14.715
-21.1696
-11.0238
-1.25083
1.85496
7.00033
6.72609
31.2818
32.2095
34.6374
25.1436
40.1151
-30.4096
-22.6543
-26.4366
31.684
30.7508
30.5861
9.49195
8.44714
-47.3042
8.4818
8.46541
8.4167
-54.7984
-115.111
32.9405
-51.6723
5.63736
4.50847
3.96536
-7.98139
9.22889
8.7429
36.9637
-40.746
28.076
26.6647
23.6494
-70.0265
5.24431
13.7714
9.56698
-9.88735
44.7604
50.0543
7.00727
8.26582
26.196
17.3302
13.0276
20.9467
21.6728
38.6226
-2.33829
-16.8213
7.47319
-21.1832
-20.8895
12.2874
33.9045
-50.9857
48.6113
-11.3337
8.95442
-5.66504
-12.5795
-14.4308
-13.1827
-5.37452
-17.4316
-3.33846
-3.58829
-3.8235
-4.77113
-48.1271
-47.3828
-48.1908
44.9855
13.6151
13.466
11.9062
14.8239
10.1301
50.7932
46.178
47.2838
35.4858
50.5051
53.6806
41.1371
45.0626
49.3899
36.1294
45.7516
45.5072
-31.4356
2.19473
-15.2115
-19.5987
-7.83204
0.253699
-6.01423
9.24409
-32.7348
-25.1842
-19.3783
0.27756
6.1147
10.5092
-21.4088
-15.9469
7.04008
2.06023
-35.4636
-33.8095
43.0381
-33.3
-20.1175
49.785
-4.91647
-7.84918
-3.2158
-5.90081
-4.63588
10.6846
41.0199
49.5745
37.6292
54.4443
37.726
-4.31736
-2.59715
-4.88382
-6.0385
-62.3738
-7.05534
-1.62775
10.4518
7.43174
-3.31557
5.82104
42.5686
4.69045
43.5492
20.6432
27.069
22.059
24.8206
24.1898
9.02683
-1.91959
29.6716
30.3271
48.2792
30.0583
-43.834
4.87368
1.04522
-6.53639
-4.38761
-6.33688
-6.18323
-12.3717
-67.1387
16.9003
-7.06266
7.6413
2.34279
7.75811
-3.05789
4.53826
-3.35599
4.31035
0.355237
9.10065
2.8057
10.8786
6.6388
-5.58202
-2.17565
1.56284
-45.2759
32.5645
-84.4693
-78.6404
-16.0514
-19.6569
-49.2311
-50.6386
-2.17945
-15.0763
-6.77995
-15.5026
-28.5651
-22.1702
39.0691
13.3464
16.8249
15.6703
22.699
30.9632
37.8322
38.7663
-13.3404
-9.87763
43.588
47.8714
11.134
21.1182
25.5457
22.2352
58.9442
-11.6034
28.4255
20.4135
10.8881
-52.9806
16.8626
18.8209
33.0466
29.2594
40.4933
37.7045
-30.3569
24.4156
31.6277
27.1701
28.7552
25.1271
-17.1437
-19.4753
-16.1698
-21.6294
4.37583
4.47962
6.31635
-9.20136
-2.84611
-21.7491
-3.8427
-22.029
-15.7094
12.3689
11.9463
-11.3679
11.5964
-82.9997
-42.7217
-15.2985
-40.5595
21.5837
58.3053
48.4332
46.3408
39.1464
-51.4484
-27.2333
-40.4823
-40.0656