/*--------------------------------*- C++ -*----------------------------------*\
| =========                 |                                                 |
| \\      /  F ield         | OpenFOAM: The Open Source CFD Toolbox           |
|  \\    /   O peration     | Version:  2506                                  |
|   \\  /    A nd           | Website:  www.openfoam.com                      |
|    \\/     M anipulation  |                                                 |
\*---------------------------------------------------------------------------*/
FoamFile
{
    version     2.0;
    format      ascii;
    arch        "LSB;label=32;scalar=64";
    class       volVectorField;
    location    "0.0948794";
    object      U;
}
// * * * * * * * * * * * * * * * * * * * * * * * * * * * * * * * * * * * * * //

dimensions      [0 1 -1 0 0 0 0];

internalField   nonuniform List<vector> 
3991
(
(11.8998 1.30245 1.48093)
(5.30661 1.94629 -0.842013)
(10.8358 0.969981 0.229542)
(11.6567 0.900631 0.069131)
(6.55193 3.33324 2.10142)
(11.5724 0.955785 0.232682)
(9.75955 4.16188 -0.607539)
(1.49908 1.2145 -6.3975)
(12.1991 0.766684 -0.416725)
(9.57568 1.95659 -0.721021)
(9.00623 2.08112 -1.1422)
(10.6409 1.1379 0.831644)
(10.3416 0.8058 0.131915)
(10.9186 1.22886 0.688919)
(12.0306 3.81621 2.09301)
(10.7797 0.623595 0.0156026)
(9.55398 1.50492 1.25719)
(11.0329 0.812172 0.201642)
(11.0926 1.68009 2.01317)
(10.1441 3.13742 1.69446)
(11.3789 1.72353 2.1446)
(10.0652 3.63271 -0.532728)
(11.3429 1.84683 2.63576)
(12.5104 1.68716 0.677743)
(8.86559 1.48289 2.31302)
(6.86028 4.01433 2.27876)
(5.20123 3.19055 0.602104)
(8.20684 1.7264 2.61332)
(9.86553 1.02839 0.876939)
(10.2906 1.14125 0.214229)
(12.5004 1.64382 -0.0611579)
(8.68982 2.33679 0.329398)
(4.3727 3.01814 -0.120007)
(9.65049 1.83478 0.585496)
(12.1586 1.55532 1.51313)
(11.0675 2.3657 3.13025)
(5.925 3.45315 1.23549)
(4.90858 10.6065 -3.13222)
(10.9978 0.652071 0.049746)
(9.9465 1.06909 1.51858)
(0.833277 3.00434 1.32641)
(11.6514 0.919392 0.15084)
(10.5172 1.8134 1.27315)
(11.5227 0.880215 0.222652)
(11.8065 0.88482 -0.104704)
(2.59273 3.85453 6.74365)
(0.91294 3.8286 -8.49285)
(10.6882 0.71737 0.0695624)
(10.5973 1.96525 1.33465)
(5.28681 2.27563 -2.8242)
(7.16008 2.09634 0.65088)
(5.85563 3.46291 1.15027)
(0.426434 3.21906 1.84924)
(11.3819 2.15137 2.34096)
(10.5621 2.85126 2.18702)
(10.2607 0.856667 1.29716)
(11.1804 0.930937 0.195185)
(11.639 0.911134 0.236539)
(10.5011 0.916809 0.141559)
(10.4166 0.867718 0.2017)
(6.18965 3.93225 -1.28113)
(5.20687 3.62288 -0.967236)
(7.42827 2.44958 -1.08436)
(7.46192 2.22809 -0.978936)
(12.2136 1.20491 0.145971)
(11.7474 1.20589 0.52028)
(10.1541 1.78601 0.881152)
(11.7025 1.61445 1.47389)
(10.637 2.86629 1.7741)
(11.8343 0.419066 -0.678161)
(8.12727 2.70394 -0.766973)
(11.5552 1.08212 0.21576)
(1.91948 3.5101 0.0613195)
(10.6717 0.958992 0.578017)
(6.09729 2.75623 2.24575)
(12.184 1.2598 0.405226)
(2.79002 3.49942 1.08056)
(8.44468 2.19688 -1.86439)
(11.6232 0.744055 -0.02442)
(9.82652 1.29878 -0.349812)
(11.5846 0.681531 0.000514122)
(10.0145 2.13825 0.934446)
(3.14986 1.68299 2.6382)
(9.61882 1.30178 1.02227)
(6.2381 3.07166 -2.41374)
(6.12699 4.5996 -1.28179)
(11.0306 0.994454 0.307127)
(10.2081 0.761641 0.129743)
(4.39877 3.39143 2.96061)
(11.3528 1.03566 0.469756)
(11.6393 1.34915 0.666153)
(8.81656 2.11287 0.46522)
(7.89751 2.53575 1.05314)
(9.13744 6.07102 -1.16912)
(10.9498 1.69956 2.30469)
(8.94539 2.41418 -4.77291)
(6.53627 5.39109 0.93712)
(6.77134 1.82218 -2.36485)
(1.0493 2.8786 -0.309777)
(10.8246 1.62866 0.106882)
(10.9386 1.04473 0.433535)
(10.6509 1.12682 0.924286)
(11.7231 2.67116 3.61778)
(10.8527 0.843131 0.089235)
(10.7095 0.919814 0.338556)
(7.08782 6.40416 3.44814)
(11.5314 1.44044 0.577552)
(2.17574 2.61943 -0.0522869)
(0.956026 6.00308 4.47834)
(13.0282 1.71831 -0.18413)
(2.14129 2.29283 0.10819)
(11.4163 1.56983 1.46077)
(1.4041 2.32348 2.98246)
(11.2928 1.11762 0.071352)
(10.9222 0.508423 0.0276471)
(7.80882 2.38972 1.33431)
(5.85381 2.34037 0.657857)
(10.0745 1.61955 -0.641189)
(10.8761 1.1391 0.11393)
(8.39215 2.34488 0.427542)
(2.69609 5.02977 3.26665)
(11.7819 2.54232 2.12733)
(11.8578 0.769873 -0.184655)
(9.64274 2.50835 -0.0165778)
(11.3122 1.68774 -0.170915)
(9.86453 2.44394 1.37126)
(9.0346 2.11148 0.772393)
(11.5042 0.603429 -0.0465866)
(11.4321 3.16437 2.61474)
(12.3952 2.1482 0.872602)
(11.2003 1.25494 1.05169)
(9.29493 1.36351 2.46815)
(9.05468 1.757 0.375833)
(11.469 0.843447 0.0676967)
(11.7382 1.15755 0.418006)
(11.0548 1.14534 0.441696)
(11.2685 1.08778 0.343082)
(11.3888 0.551411 -0.0539845)
(10.7446 1.10712 1.90929)
(6.50167 2.91555 2.1048)
(9.96235 3.00204 0.317392)
(5.8564 1.68039 -2.36367)
(4.3429 4.53776 2.84269)
(5.5725 1.98341 -2.1715)
(10.0065 1.85222 -0.805094)
(7.76154 2.2938 0.0976763)
(12.0686 1.0601 0.0630652)
(5.50666 3.37318 -2.67347)
(0.57987 1.43376 1.9144)
(7.81981 2.54888 -3.23975)
(10.4661 3.63737 0.0481233)
(7.84669 3.7489 -6.64764)
(1.74055 4.79423 -5.43717)
(4.33235 2.9898 -6.11329)
(11.732 4.12257 -0.59352)
(11.4883 5.08974 0.698722)
(5.39732 2.13204 -1.50817)
(5.27504 6.78709 -0.397914)
(3.56563 6.37199 -3.72361)
(5.39555 2.70205 -1.47867)
(9.37848 1.14818 2.09558)
(6.89785 4.19902 2.73458)
(11.3418 0.998559 0.663953)
(4.20664 1.42033 1.42119)
(2.98655 7.67274 0.336406)
(11.3357 2.02341 3.44533)
(8.3511 1.57847 -0.186154)
(12.2024 0.884621 -0.343146)
(12.2809 1.93518 2.89542)
(11.4197 0.93849 0.224997)
(11.1261 1.23576 2.50529)
(11.1302 1.77275 2.18319)
(7.58391 1.79655 5.60153)
(4.14172 2.03567 4.62942)
(1.4345 1.79779 8.10748)
(2.31602 2.19648 9.10804)
(12.9015 1.92872 0.769716)
(11.212 0.871753 0.191535)
(11.0195 1.09566 0.359859)
(12.4888 2.77657 1.26514)
(10.9176 2.07283 1.93239)
(8.56832 2.74092 -1.32467)
(7.69047 4.26007 0.491345)
(9.69673 0.883592 -0.907401)
(10.9257 0.527302 0.0237158)
(10.4178 1.52623 -0.0138404)
(11.0601 1.52795 -0.0314791)
(10.3027 1.89628 0.0407786)
(11.4336 1.2047 0.112751)
(8.69228 8.91646 1.18398)
(10.6931 0.713716 -0.213286)
(11.6102 0.730597 -0.00445662)
(10.879 8.1115 -3.3757)
(-0.000403094 4.34548 2.41462)
(10.0441 2.81218 2.755)
(2.53716 1.6222 -0.845823)
(12.2569 0.760625 -0.159103)
(11.149 1.03235 0.443208)
(3.41484 2.81486 -0.558954)
(11.6624 1.09605 0.39962)
(10.926 0.937236 0.194287)
(11.6544 2.50407 1.77677)
(6.77677 4.07473 -0.55638)
(9.31698 1.98201 -0.552861)
(10.829 2.41698 -0.0423494)
(6.08722 2.53538 -0.491208)
(6.77282 2.20657 1.33075)
(8.78138 5.62492 0.646748)
(9.04743 2.30273 -0.631804)
(6.95143 3.58963 -0.729021)
(5.08887 5.18145 -2.49571)
(9.50765 1.83774 1.20762)
(8.41768 3.36779 -0.791696)
(3.02739 2.55764 -2.19199)
(8.99085 1.6075 0.219779)
(12.0255 1.39857 0.995761)
(11.181 0.944785 0.892814)
(1.84523 3.63967 -4.35792)
(8.79973 3.02295 7.67048)
(0.185769 4.09274 2.30647)
(9.08413 2.44494 -2.00812)
(2.02109 1.89629 3.01492)
(7.63657 1.86626 -1.67384)
(2.20668 2.20365 -2.4528)
(9.31447 2.49877 2.38057)
(11.4181 3.00951 2.23194)
(12.3789 2.4034 2.63112)
(11.3529 0.960709 0.304226)
(9.436 1.02345 0.76567)
(5.29416 4.29261 2.01957)
(9.34329 1.39815 2.44177)
(11.8492 1.19305 0.489018)
(4.43092 3.90762 -1.70297)
(2.63186 3.43371 -1.26721)
(10.0199 0.925302 0.856209)
(12.5602 1.11939 -0.11056)
(11.826 0.7048 -0.218327)
(10.9586 0.882679 0.11586)
(11.1228 1.53434 0.633881)
(1.58009 4.64985 4.18126)
(12.2062 4.79268 0.510867)
(9.48986 4.90391 2.13085)
(4.56436 3.24547 0.404342)
(12.3096 1.00755 -0.152986)
(0.421745 2.73486 0.87261)
(11.2884 1.27499 0.491757)
(11.3799 0.853611 0.108333)
(11.6319 0.978015 0.125459)
(11.9711 1.46531 0.592897)
(12.5224 1.22399 0.109198)
(10.2609 0.83085 0.174365)
(11.5059 1.05492 0.506842)
(12.1122 0.94265 -0.0624248)
(11.4608 0.570817 -0.103614)
(10.1728 0.807612 0.240222)
(11.3128 1.46448 0.468965)
(12.1781 2.12303 0.571801)
(5.91604 5.25863 0.869233)
(8.82218 1.88165 1.81511)
(11.537 3.95975 2.19591)
(9.14687 7.75519 -0.529249)
(4.74678 2.01516 3.79573)
(1.54375 3.34003 1.53717)
(0.698847 3.2351 1.67575)
(10.777 0.894987 0.285274)
(4.55453 1.19379 0.739638)
(6.19048 3.16622 -0.013061)
(11.2719 1.82377 0.68873)
(12.3783 2.01994 2.40332)
(12.542 1.7513 0.877906)
(8.41246 3.01325 3.47498)
(11.117 2.69039 2.63576)
(11.8441 1.14425 0.264128)
(10.7659 5.15297 2.13996)
(2.45807 3.5784 8.96962)
(11.5057 2.066 1.97702)
(10.205 0.837668 0.331955)
(11.7504 1.35199 1.99084)
(11.2043 1.10691 0.368932)
(9.64493 2.57768 0.330727)
(6.86367 2.87472 1.67213)
(9.23618 3.9707 4.56745)
(11.2634 1.41748 0.694701)
(7.58041 1.48231 5.51235)
(11.5109 1.30952 0.527057)
(12.4723 2.44204 2.56487)
(11.7568 0.809485 0.0247816)
(1.54908 4.20573 -1.09844)
(7.3879 2.51747 0.533532)
(9.19319 1.00775 1.81379)
(1.53742 2.29491 4.35779)
(10.0503 1.96992 -0.287625)
(11.3931 1.3493 0.397151)
(9.1691 4.84977 4.22692)
(10.4214 1.89291 -0.308037)
(11.1431 1.33448 0.304349)
(9.46023 2.00649 -1.00661)
(9.41389 1.51215 -0.303972)
(8.79909 1.89399 0.111512)
(9.04277 1.30325 0.717727)
(10.0456 0.840176 0.257403)
(10.2513 0.87592 0.245101)
(11.0533 2.3578 2.12839)
(9.36651 1.23886 0.994919)
(12.9883 1.80929 -0.165438)
(12.1183 2.90204 2.08631)
(11.1406 1.12691 0.234724)
(3.02142 7.03338 5.81533)
(11.8023 1.61367 0.597067)
(5.88944 2.75724 2.47265)
(10.803 0.913465 0.301069)
(9.99439 1.21033 0.78674)
(10.1413 1.17711 0.489763)
(10.1097 0.99967 0.477925)
(5.85289 3.76212 3.24899)
(9.75109 4.44829 -1.17699)
(11.4882 2.18772 4.20487)
(10.8693 0.686637 0.0612668)
(6.88311 1.1514 1.73091)
(10.6081 0.620414 0.0455057)
(8.86819 1.9887 -1.86851)
(9.45574 2.25223 -0.280396)
(11.1865 1.14548 0.424666)
(11.4547 1.42411 0.644258)
(11.9314 2.3034 0.61985)
(9.97981 4.61033 0.432868)
(10.814 1.72331 0.72634)
(11.7547 1.49709 0.761528)
(12.5108 1.74544 0.434482)
(9.78601 1.90791 3.36994)
(6.99086 2.80584 -0.391039)
(1.47572 3.77809 -2.86655)
(11.876 1.15286 0.307014)
(9.69141 2.72837 -0.0331499)
(12.8396 2.12093 1.87925)
(11.0739 0.928122 0.328627)
(7.34265 5.92301 0.0534766)
(11.1897 1.72753 0.193679)
(11.9064 3.26416 0.446012)
(8.54256 1.78042 1.18128)
(12.5922 2.41389 0.702227)
(9.48069 1.80265 0.212086)
(12.3549 1.96228 -0.0342493)
(12.1366 1.32747 0.575056)
(10.4885 1.03731 0.135236)
(10.3793 1.81542 1.2547)
(10.9878 2.20399 1.35304)
(6.17755 3.65719 3.43649)
(10.2261 2.96615 3.92055)
(11.2967 0.61185 -0.0241388)
(10.496 2.6951 2.75492)
(11.1266 1.09422 0.456799)
(9.78198 1.00016 1.07103)
(1.98485 2.89516 -6.97569)
(10.1709 4.70773 0.53552)
(0.739618 4.17545 -5.16474)
(11.7144 2.08918 0.363642)
(11.1561 1.10177 0.121566)
(10.7128 4.57861 2.54162)
(12.0796 2.11498 0.641258)
(12.6405 1.49679 0.217865)
(11.6207 2.57982 0.831932)
(9.13197 2.18419 -1.70385)
(0.788467 4.07869 -0.502227)
(10.0958 2.79302 -0.0405077)
(9.57166 3.02408 -0.194352)
(7.64844 2.41746 0.110428)
(8.17617 2.53371 -1.13489)
(11.3075 1.01218 0.411552)
(12.5429 2.00051 2.09856)
(6.87954 4.4032 0.274656)
(8.79047 2.49794 -0.307607)
(5.96687 5.39231 -1.45755)
(11.3427 3.60697 5.11355)
(11.423 1.04667 0.340222)
(6.14388 4.14584 -0.403258)
(12.3763 1.91502 0.917904)
(11.5787 2.4038 0.392643)
(11.0816 3.94297 0.0106562)
(11.2102 2.24119 0.165138)
(0.777188 2.63168 1.0998)
(-0.0109131 4.16477 2.7465)
(6.12956 5.85966 2.07873)
(10.9223 1.28047 0.502419)
(9.45319 2.8342 0.15869)
(9.01515 2.18509 0.689172)
(11.7357 3.08545 2.52816)
(9.52856 3.64127 7.42271)
(1.46702 3.62698 1.71897)
(12.0026 3.50208 0.717676)
(12.5091 2.09819 0.839657)
(5.37811 2.15931 0.0791531)
(12.9819 2.03567 -0.0132503)
(12.0512 1.00478 0.0769603)
(11.051 1.03769 0.42706)
(-0.0461778 4.55613 1.95977)
(11.7503 0.925854 0.167961)
(11.0231 0.819817 0.152976)
(2.66269 3.78665 0.785598)
(3.65202 3.05434 0.595904)
(10.594 1.29002 0.818896)
(11.7862 3.39235 2.83836)
(4.25587 3.44227 0.455768)
(11.9694 0.390125 -1.37442)
(0.150076 4.01273 2.32086)
(11.5032 0.796627 0.0471495)
(2.02692 5.54258 4.77531)
(2.81822 4.8361 4.53745)
(8.94361 2.72605 2.09098)
(8.82294 1.60554 0.897485)
(9.55645 1.00046 2.28232)
(8.71412 2.25561 1.07116)
(8.73898 1.38013 -0.53995)
(10.4518 7.25133 0.911156)
(10.5547 0.816367 0.0322257)
(11.1167 0.914547 0.150032)
(11.0318 0.852742 0.460962)
(12.114 2.64493 2.4647)
(11.7214 0.927639 0.160489)
(10.7974 0.686976 0.0445265)
(10.9419 0.877444 0.0918594)
(10.2679 2.65574 0.873528)
(10.7177 0.774667 0.0230826)
(10.773 1.19497 0.719998)
(10.6457 1.08053 0.0624412)
(12.548 1.77966 0.635623)
(12.0565 2.13168 2.01687)
(8.089 2.75643 1.75739)
(10.2431 2.85377 1.96052)
(11.2726 1.15889 0.619969)
(8.14425 2.90056 1.74155)
(12.3956 0.736724 -0.826849)
(10.1207 0.105754 -0.48693)
(11.5038 0.94161 0.150135)
(11.408 0.910688 0.169524)
(11.3196 0.719192 0.0843239)
(11.0613 0.660532 0.0629342)
(11.3441 1.17477 0.366775)
(12.5697 1.92045 1.06517)
(12.2608 1.16759 -0.523887)
(12.673 2.06221 1.26585)
(12.8352 1.46935 -0.110183)
(12.4973 1.25106 -0.707178)
(12.442 1.81871 0.266857)
(11.5042 0.984235 0.286258)
(11.7508 0.98453 0.207023)
(11.6161 1.002 0.295968)
(12.0532 1.21678 0.734331)
(12.562 2.27408 1.6385)
(10.9612 1.92374 1.63557)
(11.6227 2.64781 2.78401)
(11.4868 2.94323 2.72638)
(2.90693 3.00036 -2.09731)
(11.7848 1.82034 0.899703)
(11.9487 1.66732 0.876481)
(11.9046 1.9678 1.03229)
(12.1304 1.8287 0.968097)
(11.5965 1.35504 0.499557)
(12.0541 1.32342 0.432375)
(11.6755 1.48888 0.81336)
(11.6306 1.61685 1.46106)
(11.7836 1.34421 0.631525)
(11.7959 1.60539 1.37541)
(12.3746 1.69066 1.13691)
(11.7485 1.84433 2.44366)
(12.1195 1.7148 1.22402)
(12.5221 2.80556 0.280156)
(11.633 1.51825 1.64643)
(11.7926 1.48107 1.50316)
(11.5996 2.206 3.68117)
(11.9176 2.1934 3.48184)
(8.53841 3.21613 2.34832)
(11.0513 3.41016 0.115295)
(10.8696 3.00471 0.168887)
(11.0327 3.48984 0.585925)
(10.8225 3.18671 0.367)
(11.3965 1.44481 0.688793)
(11.306 1.43404 0.931342)
(11.5296 1.623 0.923928)
(8.97671 1.94534 1.65514)
(8.53022 2.38522 1.42588)
(8.19508 2.63457 1.1896)
(7.40932 2.67207 1.38082)
(11.5072 4.91709 2.75116)
(10.8552 4.89977 1.89845)
(11.4252 4.44081 1.94325)
(6.33718 3.31466 4.75573)
(7.6264 2.99158 3.28547)
(7.55479 2.18907 6.32928)
(9.42875 2.39455 3.37921)
(8.30638 2.46918 1.99879)
(11.6141 0.319781 -0.43818)
(9.16478 2.4146 2.2469)
(7.39144 3.86391 5.1023)
(11.4956 4.16814 3.79915)
(10.859 3.4092 2.89994)
(7.6058 4.39359 5.05764)
(8.34694 4.52403 5.15098)
(11.3088 1.22654 0.729456)
(11.4407 1.30038 0.737975)
(9.69708 1.45984 0.428485)
(9.06062 1.45766 0.698865)
(10.9685 0.643208 0.0674365)
(9.05994 1.56296 0.899491)
(10.846 0.938559 0.194787)
(10.3605 1.19663 0.213771)
(10.7471 0.81778 0.0773556)
(10.3447 0.952563 0.190517)
(10.5799 1.13965 0.63191)
(10.565 0.671093 0.0645671)
(10.627 1.01395 0.444649)
(10.4809 1.13675 0.619844)
(10.5461 0.98304 0.432418)
(10.7489 0.898823 0.173158)
(10.6548 1.12406 0.226366)
(10.6731 0.919482 0.185397)
(10.4963 0.870238 0.130331)
(10.1589 2.52227 0.452032)
(10.388 2.4647 0.515758)
(9.71539 2.77149 0.786927)
(9.62923 2.04684 1.09364)
(8.35613 2.3319 1.71916)
(9.09253 1.81772 1.22009)
(9.56525 1.8346 0.984638)
(9.52835 1.98996 1.07471)
(9.28615 3.23661 1.61167)
(10.0997 3.09743 1.95644)
(9.259 2.66495 -0.314868)
(9.70926 3.10832 -0.435744)
(9.97127 3.64625 -0.319779)
(10.945 3.57214 -0.512271)
(9.4864 2.92283 -0.482975)
(11.0341 2.29047 0.817008)
(11.166 2.21782 0.800751)
(4.76843 3.23866 2.11856)
(5.60348 1.99826 -0.198909)
(3.13754 2.21164 0.637782)
(4.73523 2.06421 0.790618)
(4.38297 2.9057 0.0942062)
(4.06433 3.53401 -0.116854)
(9.76172 5.95901 -0.152557)
(5.68318 2.03113 0.502723)
(5.33193 8.20054 2.32204)
(10.8404 5.99595 2.70953)
(10.3951 6.33897 2.99013)
(9.73646 4.94669 1.5319)
(11.0327 1.31607 0.630834)
(11.5966 3.85738 1.77208)
(11.945 3.72645 1.95168)
(10.666 4.91831 1.52435)
(10.9117 4.96571 1.50773)
(10.9421 0.693653 0.061636)
(11.0239 0.622525 0.0234774)
(11.2192 1.10062 0.356948)
(11.0246 1.36301 0.547811)
(11.0777 1.72201 0.706292)
(11.1043 1.48982 0.638127)
(10.842 1.27492 0.713601)
(10.8103 1.56724 0.831531)
(10.9337 1.41993 0.622388)
(10.9226 1.75108 0.750913)
(10.1035 3.95505 3.64939)
(11.2878 3.62123 2.43662)
(10.8688 3.49568 3.23642)
(11.5743 3.26457 3.22452)
(10.5399 3.42791 3.20054)
(11.5703 3.44672 3.01768)
(10.1739 6.17577 -0.211193)
(10.8232 3.10775 -0.357201)
(12.0032 4.5868 -0.534479)
(10.6877 2.56139 -0.21043)
(1.00072 3.13287 0.136095)
(11.9927 5.10735 -0.598973)
(4.73882 6.095 2.9491)
(5.82247 3.89611 -3.90045)
(9.5236 4.50959 -0.252946)
(12.1299 1.41014 0.87075)
(12.0632 1.85179 1.18332)
(10.8342 1.54 1.01113)
(10.8316 2.86085 1.82405)
(11.4369 0.647231 -0.179876)
(2.82766 3.6303 0.49909)
(5.59303 10.4565 2.40944)
(9.29725 1.74385 3.52692)
(6.97424 3.16974 1.12948)
(12.4677 1.75407 1.02484)
(10.7584 2.80984 2.68963)
(8.93071 7.0426 3.69266)
(2.4326 5.75316 0.620679)
(0.842915 2.21727 1.32957)
(10.6468 2.13879 -0.103955)
(12.0747 1.60782 2.7661)
(11.0553 3.76786 2.62792)
(7.0736 3.39503 -5.03949)
(5.71166 2.65143 2.33314)
(3.53917 4.13468 -4.71597)
(10.9648 1.10429 0.0801207)
(10.2749 4.63955 0.390562)
(1.42818 5.97378 -0.938189)
(11.4498 1.50045 0.15999)
(-0.36041 2.43863 0.215232)
(7.69167 0.151793 -0.960254)
(11.3843 1.91151 -0.0264293)
(0.424279 2.58974 2.11137)
(10.5036 2.04846 4.36374)
(10.4081 1.33305 0.0591949)
(9.98018 4 -1.1192)
(4.59353 2.22699 -2.45261)
(6.51657 1.74292 -2.14742)
(4.28884 2.37016 -2.86869)
(4.08597 2.45058 -3.84334)
(10.13 2.08782 -0.488499)
(9.68469 2.45185 -0.598011)
(10.0087 1.90141 -0.37074)
(12.5964 3.11913 -0.136244)
(1.0651 2.64159 1.42744)
(4.48233 2.35772 -0.643023)
(5.95304 3.48087 1.31687)
(8.95404 0.825711 1.34549)
(8.92789 0.805641 1.22311)
(11.307 0.930112 0.0806492)
(10.937 0.706352 0.0765871)
(10.6516 0.940758 0.162226)
(11.809 0.84733 -0.217563)
(10.9896 1.19439 0.227835)
(5.00644 1.97657 3.0834)
(10.107 1.29027 1.36113)
(9.89013 2.61435 2.04143)
(11.6974 0.990839 0.196039)
(11.8084 0.766373 -0.254829)
(11.5969 0.754875 -0.0166974)
(10.7227 1.48633 0.965077)
(11.5129 1.73216 1.14207)
(9.52509 1.59964 0.198814)
(10.8167 0.869549 0.186102)
(12.062 1.39137 1.92717)
(2.26129 1.95418 -0.906159)
(11.398 5.12453 -0.873713)
(10.9423 4.98438 0.774344)
(10.7429 1.38386 0.765206)
(11.4966 1.67609 0.347927)
(10.5133 1.47385 0.746995)
(6.30319 4.00103 -1.2997)
(3.09689 7.43992 -3.72896)
(3.4513 3.49966 -4.38924)
(0.916204 2.76575 1.4157)
(11.5063 2.36972 2.79328)
(9.73594 2.24979 0.77699)
(11.0476 0.996773 0.307605)
(5.0336 4.71164 -2.57349)
(4.27155 2.76032 -0.353431)
(-0.00288136 1.6559 -0.00580482)
(11.8632 2.36218 -0.00929497)
(12.3657 2.78961 0.958655)
(9.30069 6.21545 3.13664)
(5.20049 2.78551 1.75779)
(9.93735 1.04263 0.946446)
(8.94072 5.34562 -0.883789)
(9.46712 2.10868 0.453642)
(11.2413 1.8655 0.499415)
(8.30329 1.87928 0.411389)
(7.06387 3.32341 -0.70717)
(7.75815 3.38114 -0.989683)
(12.0486 2.93785 0.688429)
(10.1161 0.853683 0.277818)
(11.458 3.70833 0.467347)
(9.68626 2.14948 -0.498293)
(9.66914 2.01328 -0.0376844)
(4.81076 1.80088 0.208597)
(5.04969 1.90843 -8.32536)
(12.1042 1.82397 2.2631)
(7.01436 2.04649 -3.66305)
(9.47272 2.76739 4.05775)
(11.244 0.553021 0.000197347)
(7.62141 1.74828 3.5803)
(10.6889 0.647665 0.0408432)
(11.6709 0.965657 0.202746)
(11.2903 0.762577 -0.0188462)
(1.81453 3.48069 0.784583)
(12.3988 1.35314 0.35286)
(9.11984 0.483688 -1.4096)
(9.09516 2.29891 0.541154)
(1.73362 2.26493 0.010121)
(11.8068 1.48268 1.87881)
(10.4139 0.712168 0.0544773)
(0.815442 2.46823 0.233145)
(12.206 3.72662 1.42781)
(8.63564 3.67599 1.31874)
(7.77211 9.95652 1.39401)
(11.2141 4.82502 3.17738)
(10.1737 3.3481 1.47335)
(11.1064 1.84925 -0.151293)
(10.8089 4.9379 5.53649)
(9.56696 1.26569 0.811513)
(11.0677 0.762708 0.0274825)
(10.819 1.89267 4.11674)
(8.68967 2.79249 1.95132)
(9.3208 4.1417 -1.45799)
(10.2152 1.49189 -0.0816673)
(11.513 0.804505 0.232602)
(12.1119 1.45609 0.97133)
(10.4455 0.869647 0.10214)
(11.5363 1.26655 0.669996)
(11.2826 0.82891 0.132517)
(5.73498 2.28927 3.76434)
(11.9763 5.90872 0.306923)
(1.34301 4.83632 0.782764)
(10.4749 5.50996 -1.20523)
(10.6818 4.1585 0.687968)
(11.5948 0.551135 -0.0584192)
(9.11638 2.26626 -0.349034)
(11.2275 1.08767 0.500966)
(8.77938 2.81712 0.975059)
(11.5079 0.998794 0.341535)
(10.9928 1.5919 0.858315)
(12.0964 1.41836 0.629973)
(10.7102 1.26096 0.601804)
(12.3104 2.44883 3.06131)
(9.93345 2.29572 4.40787)
(7.43414 1.98101 3.97606)
(12.6776 1.51785 0.282908)
(9.90951 0.959637 1.10865)
(3.49848 1.47148 0.255101)
(11.1016 4.16978 1.75393)
(11.2812 4.0958 1.64374)
(11.3908 4.80433 1.55898)
(11.3535 4.69309 1.64837)
(6.79937 1.36936 -0.0827119)
(0.775536 2.1135 0.389974)
(12.65 2.07144 0.149441)
(1.36641 2.11639 -0.0672199)
(1.43772 1.88754 0.255809)
(4.44573 2.45595 -0.0984572)
(4.30733 1.58592 -1.12215)
(3.99539 2.91949 0.0888503)
(8.95112 2.80424 2.30932)
(12.1234 2.52191 2.86533)
(4.33431 2.25581 -7.66816)
(2.54803 2.41447 1.22374)
(2.35095 2.39714 0.545588)
(11.6327 2.64518 4.48651)
(8.05502 2.86014 -1.05452)
(12.1468 2.73217 3.49169)
(5.19846 2.80753 3.79122)
(2.4432 3.51093 -5.30134)
(1.42234 3.73739 -2.42181)
(8.47251 1.70835 -1.78894)
(5.28787 5.68394 0.155007)
(5.07257 2.79426 -2.12915)
(4.89694 5.2094 0.208335)
(6.835 5.25064 0.230086)
(2.38703 2.15493 -0.0439012)
(8.8024 3.50417 -0.9116)
(8.42337 4.25551 -1.37604)
(8.37932 2.48864 -4.64581)
(8.94139 2.01958 -3.13607)
(11.504 1.77357 -7.30053)
(8.83818 2.83435 -3.33415)
(7.65178 3.97249 -3.43155)
(8.33471 2.78744 -2.26018)
(7.77451 3.54299 -2.35476)
(8.17394 1.76713 -2.37536)
(6.71624 1.11594 1.54253)
(11.9 0.719326 -0.420682)
(7.83788 1.0849 1.30468)
(6.1978 1.61986 0.501384)
(2.97274 2.85289 -11.7899)
(2.61258 4.34434 -2.38714)
(1.35023 3.8479 1.19559)
(12.0451 1.93952 2.31793)
(3.17805 2.74127 2.77523)
(12.3444 1.06246 -0.117187)
(12.2876 1.02915 -0.355915)
(12.5494 1.49774 -0.0761066)
(5.0021 3.26344 0.556358)
(10.7983 0.704898 0.0691158)
(10.8318 0.86011 0.161269)
(10.8363 0.859991 0.204594)
(10.6813 0.891601 0.230022)
(11.6779 1.87806 0.133128)
(10.2162 1.4764 0.703967)
(10.1775 1.12375 0.5621)
(10.5443 1.22287 0.480455)
(10.2826 1.14043 1.03364)
(9.97018 1.14847 0.728803)
(10.6854 1.31673 0.30605)
(10.4879 1.36807 0.444821)
(10.5261 1.15392 0.282172)
(10.613 0.779356 0.0641749)
(10.5494 0.803326 0.0929846)
(10.5757 1.52821 0.363813)
(10.4636 1.41229 0.108038)
(9.81733 3.55587 -0.325227)
(9.86665 1.52437 0.0687922)
(9.69688 1.45161 0.00442409)
(8.19074 0.8188 1.13454)
(9.87391 1.86387 0.0220049)
(9.96805 1.99098 0.252071)
(11.1693 0.977821 0.185304)
(12.4524 1.81311 0.239186)
(0.731121 2.57295 0.909025)
(4.78623 2.31208 -0.570729)
(3.5891 2.75029 1.18182)
(3.36506 3.20078 0.185877)
(3.08889 2.99683 1.51651)
(4.73176 2.13043 -0.909631)
(4.52538 1.82912 -1.4085)
(4.01791 1.70356 -1.20787)
(3.14704 2.15537 -1.96778)
(3.31079 1.74785 -1.37123)
(7.62811 1.77737 0.445667)
(8.72048 1.96627 0.378092)
(8.34354 1.35293 1.30028)
(8.42701 1.79233 1.15829)
(8.85386 1.30039 0.681457)
(8.61589 1.52906 0.865958)
(9.02313 1.33846 1.80484)
(9.50835 1.38589 1.28767)
(9.71274 1.78544 -1.06626)
(8.79888 1.8116 -0.670498)
(3.51896 4.52762 -1.45784)
(3.29764 4.04858 -0.857838)
(4.71973 3.40803 -1.509)
(3.71948 3.74065 -0.890767)
(3.64001 2.88133 -1.18777)
(5.89029 1.99226 -1.37177)
(10.4932 1.61157 0.0166377)
(10.2626 2.20284 0.248561)
(10.3689 1.16814 1.92586)
(10.0921 1.63319 2.22022)
(10.1452 1.59839 2.64054)
(11.0622 1.41459 1.67895)
(11.6531 1.21883 0.876759)
(5.49018 1.68954 0.0137608)
(4.81207 1.16898 1.5729)
(9.64432 2.212 1.30611)
(9.91728 1.91706 1.53917)
(9.69934 1.89621 1.53587)
(9.37569 2.3032 1.51417)
(8.66257 2.23941 1.27869)
(9.66592 1.92883 1.09937)
(9.55764 3.36392 2.90619)
(11.7809 3.86994 2.09752)
(11.6933 4.61021 1.39422)
(10.2643 5.07864 1.72303)
(9.9149 1.11708 0.693204)
(12.4003 1.64715 -0.123237)
(11.6324 0.427983 -0.375514)
(11.5431 0.518147 -0.246582)
(12.7878 1.46901 -0.224401)
(10.4098 4.25411 -1.18572)
(12.2777 2.89505 -0.36099)
(11.896 1.30693 0.571313)
(12.2087 1.45092 1.65708)
(11.4381 3.02726 3.1025)
(10.8195 2.13468 0.750563)
(1.98107 3.3059 -1.98163)
(1.18096 2.25401 0.527461)
(3.88834 3.0526 -0.00358107)
(11.5768 0.798967 0.0596944)
(1.69104 1.85401 -0.109296)
(10.9553 0.331733 -0.994068)
(11.4832 1.34558 0.0560079)
(11.8316 1.94148 0.343019)
(12.5386 1.06382 -0.184242)
(11.5089 1.18417 1.87356)
(12.8436 2.64732 -0.466013)
(11.2194 0.8865 0.160176)
(11.5214 1.03655 0.396188)
(7.62934 3.38675 -2.72751)
(6.4498 2.20778 -3.00347)
(7.42104 1.64458 -0.24061)
(8.91167 2.05643 -0.700549)
(12.6033 3.73407 -0.736174)
(11.9029 1.42433 0.276239)
(10.2949 2.87185 -0.0390548)
(12.0407 2.20364 0.530674)
(5.40576 1.52291 -0.678769)
(9.02358 2.422 -3.79827)
(9.56339 2.73346 -1.15442)
(1.54134 3.33061 1.79676)
(1.32672 3.58317 1.78226)
(12.4014 1.51491 1.18632)
(12.4778 1.59676 0.834131)
(12.7726 1.9506 1.10913)
(12.5492 2.04459 1.79686)
(8.32731 1.57714 4.963)
(10.5927 1.87582 3.81028)
(12.2461 1.03645 0.0474143)
(10.7818 2.15575 6.50758)
(10.3404 2.00336 5.83229)
(8.11907 1.32584 0.149376)
(11.5094 2.56868 3.27939)
(11.1232 2.51792 3.5153)
(11.8726 2.43852 3.42509)
(11.7678 2.2187 4.14264)
(12.3545 2.33235 3.64856)
(12.3579 2.62331 3.17566)
(3.54102 1.83776 0.627983)
(0.712197 2.51457 0.787303)
(11.9111 1.32275 0.621752)
(11.6176 1.1984 0.373031)
(12.585 1.33458 0.0592717)
(11.0899 1.22483 0.665436)
(1.32995 5.21629 3.77378)
(11.8638 2.58332 4.33497)
(5.27627 2.84913 1.34784)
(11.8108 1.5264 0.265618)
(12.7217 1.78614 -0.0258732)
(9.63288 2.03497 0.596068)
(11.8233 1.40452 0.723469)
(8.9358 3.69504 -0.0642156)
(10.7694 0.731988 0.0950769)
(2.46621 2.28074 0.285498)
(11.9309 1.16814 0.487641)
(11.1927 1.19935 0.743986)
(12.6208 1.45385 0.198056)
(5.58963 1.8441 -1.15385)
(10.6889 1.01687 0.354735)
(11.9935 3.34901 1.23717)
(11.6796 1.26063 0.630802)
(7.92104 2.53299 3.14604)
(12.2031 2.0799 0.0937441)
(10.3894 1.51804 1.2224)
(10.3508 2.34002 3.55473)
(11.4882 1.38084 0.947152)
(12.2894 1.28699 0.243484)
(11.4253 1.74806 0.659848)
(10.698 4.51077 4.40204)
(11.0046 0.895053 0.234647)
(10.1661 0.941011 0.441606)
(11.5943 1.00601 0.0919611)
(10.8518 0.718887 0.103661)
(11.6229 0.842651 0.0736606)
(11.5294 2.82402 2.67847)
(11.0495 0.68913 0.0399025)
(0.249906 3.80644 2.27907)
(8.40198 2.27345 1.14242)
(12.3684 1.465 0.247488)
(6.4798 6.09729 3.36815)
(5.75267 6.894 2.10828)
(11.0912 1.77396 0.241116)
(9.60458 4.37969 2.16732)
(10.2244 3.03104 3.34312)
(1.71167 2.25927 3.47967)
(10.735 1.16848 0.971431)
(7.79099 3.14981 1.47006)
(11.6485 3.3336 2.15395)
(9.14283 3.87862 1.97258)
(0.486201 2.55572 0.636746)
(10.8925 2.67554 2.02193)
(11.9357 2.9785 2.13681)
(12.1827 3.12268 1.42496)
(11.7375 2.20836 0.731674)
(12.8755 2.40332 0.157779)
(9.0015 3.81023 0.506981)
(11.0665 0.982751 0.384774)
(7.24893 2.45349 0.859993)
(9.54316 2.78518 3.00321)
(11.4514 1.40835 0.522295)
(7.34858 2.92213 2.31062)
(11.7398 1.8973 1.60617)
(11.1716 2.45159 2.20824)
(8.37138 1.85387 0.146799)
(7.2177 2.79535 1.55015)
(11.2904 1.91708 1.02058)
(10.7422 1.01036 0.41009)
(9.43539 1.72873 0.740646)
(11.1802 1.89695 1.25381)
(12.1224 2.0434 1.6248)
(1.01825 3.68358 0.897596)
(1.89308 1.56642 -0.286467)
(9.23842 1.31392 0.454597)
(8.24375 2.72123 0.214111)
(10.5301 1.06169 0.744064)
(11.9061 2.53866 1.931)
(7.15616 3.58145 2.50853)
(0.663152 3.03466 1.68933)
(11.8005 2.45037 3.48935)
(10.4298 1.77919 0.298093)
(11.9409 2.72354 3.3236)
(12.3887 3.09591 0.464567)
(11.8609 3.00887 0.999571)
(8.96022 1.83434 0.460721)
(9.89787 1.66883 0.68766)
(10.982 1.49629 0.605922)
(10.1033 1.25745 0.364371)
(10.5037 0.887269 0.290874)
(10.4334 0.884835 0.269077)
(10.6178 4.21792 2.08136)
(10.6643 1.27709 0.476592)
(10.3309 1.64354 0.340698)
(9.50317 1.44021 0.125833)
(10.6893 0.738086 0.099173)
(8.21892 2.03579 1.45404)
(7.95385 2.81031 1.30515)
(6.23334 3.0189 -0.660016)
(9.39267 1.81717 0.29669)
(9.4215 2.03968 0.182706)
(9.57854 1.75185 0.870908)
(10.3983 1.05676 0.489734)
(11.7232 2.06464 1.51742)
(7.52588 3.0477 1.32201)
(10.4187 1.24412 1.15958)
(10.097 1.04579 1.07832)
(5.9781 3.01858 1.37617)
(7.01757 3.33166 0.200223)
(12.3399 1.26357 0.268971)
(11.7072 0.611313 -0.11307)
(10.6005 0.901648 0.255284)
(10.6089 0.795855 0.0577522)
(11.0689 0.957337 0.231012)
(11.4756 0.907335 0.151598)
(12.0682 1.85312 1.92976)
(11.2612 2.88774 0.853874)
(10.2304 2.39537 1.26768)
(10.3531 5.3006 3.07858)
(1.16479 6.52672 2.3045)
(10.7821 1.32712 0.577857)
(10.2625 0.94686 0.434081)
(10.5985 0.913434 0.337777)
(10.2566 2.55982 1.44772)
(10.7902 1.64566 1.00861)
(10.8544 1.52335 1.2402)
(10.9273 1.31487 0.860729)
(10.6453 2.27224 0.198428)
(10.5566 1.07222 0.168762)
(11.3739 2.59676 0.833932)
(-3.13004 0.721804 1.29709)
(3.65791 4.32253 2.94551)
(0.831609 4.81462 -0.661601)
(3.46372 2.07374 1.34492)
(7.92172 2.10278 0.570123)
(11.4786 1.45965 0.154534)
(11.0153 1.29064 0.288618)
(12.0578 1.60478 0.24767)
(9.54343 2.25475 -1.52448)
(11.112 2.85892 0.82648)
(12.9262 1.97825 -0.343933)
(12.1445 2.21527 0.4741)
(10.7417 1.91431 0.510365)
(10.6604 5.33206 3.00726)
(10.6767 1.63817 1.10906)
(0.483666 0.198804 0.658112)
(8.43217 3.56856 -0.280156)
(7.26345 3.02331 2.83178)
(10.1623 1.81791 2.12527)
(11.397 2.97076 3.93785)
(7.74193 3.10907 1.95773)
(10.6596 3.62531 -0.576984)
(4.22412 6.21224 -0.523565)
(7.30082 3.3225 1.34988)
(7.15787 5.72696 1.13766)
(8.85804 2.31198 2.2431)
(7.28765 1.91654 -0.635543)
(10.2779 1.69758 0.615671)
(12.6405 3.49533 -0.436686)
(9.29746 2.98374 1.43526)
(7.0162 2.72069 -0.498525)
(7.06126 1.61251 3.08602)
(8.07329 2.41552 0.126728)
(7.10949 9.29899 1.45342)
(1.30784 7.65233 0.097815)
(11.7292 2.96347 1.34596)
(5.84554 3.88455 3.48277)
(12.0205 0.857039 -0.23697)
(10.8563 0.972774 0.398613)
(10.7677 0.885165 0.571043)
(10.4848 1.17488 2.48295)
(9.48853 1.09867 0.653183)
(9.62909 1.1837 0.691584)
(9.43204 1.07678 0.910732)
(9.89467 0.892922 0.680812)
(9.70041 0.832821 0.677246)
(8.29801 3.90695 -2.35022)
(8.93052 3.01311 2.46037)
(11.3745 2.40634 0.088611)
(12.0626 4.09711 1.43872)
(11.8748 1.91162 0.213269)
(12.241 2.51049 1.32259)
(6.71909 3.99033 2.07726)
(7.88239 4.33618 10.0131)
(10.6406 4.0623 5.81736)
(3.6708 4.06112 1.17452)
(11.4198 6.79495 0.178419)
(3.82523 1.89802 2.04616)
(10.5096 6.03361 2.44715)