/*--------------------------------*- C++ -*----------------------------------*\
| =========                 |                                                 |
| \\      /  F ield         | OpenFOAM: The Open Source CFD Toolbox           |
|  \\    /   O peration     | Version:  2506                                  |
|   \\  /    A nd           | Website:  www.openfoam.com                      |
|    \\/     M anipulation  |                                                 |
\*---------------------------------------------------------------------------*/
FoamFile
{
    version     2.0;
    format      ascii;
    arch        "LSB;label=32;scalar=64";
    class       volScalarField;
    location    "0.0100321";
    object      p;
}
// * * * * * * * * * * * * * * * * * * * * * * * * * * * * * * * * * * * * * //

dimensions      [0 2 -2 0 0 0 0];

internalField   nonuniform List<scalar> 
3991
(
39.4992
29.6338
42.7199
-73.2654
43.5781
26.1365
35.9268
30.0052
-81.0033
30.6095
29.8655
-20.6675
40.5289
-31.3491
50.2797
-74.0896
34.6886
44.5113
-80.0925
16.6558
77.5892
34.1898
-55.4825
16.1905
6.33895
-48.4594
11.7355
57.4342
31.8942
-72.2155
6.10097
-0.0427957
38.2163
26.4079
11.8782
-8.33119
-45.0823
-37.2469
7.07149
-42.0974
53.6104
-38.3722
38.5867
-44.3576
25.4872
-18.392
-12.9436
-18.2791
21.3373
23.8909
36.2074
23.1894
33.5465
4.10456
43.5724
-0.963125
7.90516
-54.2802
-56.3295
-59.3555
33.2765
48.3615
21.5696
-18.1844
22.6882
-68.0423
-84.5259
76.5846
54.4766
45.3804
-15.2307
22.3603
40.657
-1.98105
32.3557
-5.22952
42.8316
-5.68591
31.4503
44.1576
-1.42725
19.2226
83.9215
18.7631
10.8972
-68.6948
-75.3027
30.8248
21.1463
20.1479
69.5297
5.54472
-77.763
-87.167
-84.6737
45.1018
-82.9941
-84.697
39.6255
10.3749
-76.7351
-27.5614
-31.3654
-23.7317
30.9645
40.5441
1.635
43.9864
44.6941
40.0531
41.1561
42.3533
42.2088
41.6456
43.0092
44.5765
40.8678
38.1757
39.0268
38.1404
32.7963
37.0947
36.4113
49.8665
14.7674
34.0226
41.1151
34.9301
34.0767
32.8183
37.8537
35.7632
32.0354
-83.5192
-73.5288
12.7681
50.4329
33.2334
31.5078
30.9717
28.6534
-32.4451
22.2504
-32.8894
1.26056
68.4439
41.8985
40.2666
-12.3026
38.3491
37.6763
35.9727
36.1188
13.7122
-0.736893
7.52323
21.1055
-12.6394
-7.23362
0.298395
31.5712
32.5025
38.1937
-61.2641
11.8628
32.3458
-3.21529
-4.85903
-0.0241946
55.0888
30.2866
5.93883
8.28058
52.1295
41.6547
22.5337
37.4746
7.84414
43.5647
44.7929
65.1553
-6.12574
-62.8004
35.1239
21.457
33.8871
23.7074
70.3355
12.2138
36.9283
18.4318
18.6245
31.9521
17.3668
13.4857
-29.1548
24.217
-47.0763
34.5572
26.5719
25.2394
74.5265
-50.9085
-35.9319
-3.84207
3.89151
-33.4393
-65.9737
77.3613
36.5671
-67.9697
61.4529
-30.3241
34.1477
-30.9428
48.6755
-53.5709
-42.4155
-51.9052
-12.9051
-23.7989
-49.0298
-5.93935
78.7249
-46.3716
63.0082
16.9229
-15.4261
83.7815
35.3109
80.6541
31.1682
15.7004
40.7357
82.2452
92.0331
34.6451
-56.0967
82.4494
27.9841
11.6267
24.2742
-19.0281
33.2429
17.1708
-32.5486
34.6125
85.8368
39.317
12.7725
68.408
78.9599
25.7914
16.613
9.46698
-74.7528
34.9409
48.0107
51.6334
36.9731
51.7621
27.4109
1.83185
14.387
22.0378
41.9294
-2.86222
-17.2892
-146.186
-50.8955
-58.5807
-35.8901
-18.3266
-51.2214
-75.2981
-76.1668
-9.42477
-8.78192
23.2756
25.8363
26.5083
16.9629
22.4398
16.6536
-3.43349
15.5374
12.8154
22.3494
24.636
28.3916
24.5153
46.8894
3.5342
24.0816
25.4893
8.09176
-73.1442
44.476
-55.3115
33.7554
-11.5566
22.8102
33.0744
7.64768
22.5382
15.0396
-0.453963
32.7893
31.4735
-55.9439
30.2638
30.7725
79.4403
29.515
48.9483
48.8441
-15.447
20.2907
38.0776
36.3367
9.3775
33.6774
29.5312
-49.8016
19.3914
18.1123
49.9007
34.5701
34.7335
36.9639
15.6499
21.1678
33.5927
32.1056
-1.04145
-79.2992
19.8425
23.1033
30.4791
-8.17023
32.0152
37.8686
35.7507
30.1792
26.2123
27.3135
46.3697
21.6452
22.7711
7.39306
-8.38838
32.9334
72.5549
26.9743
34.6091
-34.0275
-70.6919
23.0432
-13.5611
42.4272
39.608
69.8695
-27.1927
29.8489
49.8839
36.162
-88.1894
2.37659
-14.2136
17.2532
57.8581
24.9256
-73.675
96.0481
-85.5015
32.1441
32.2956
-14.5001
26.068
47.6896
31.1991
38.4235
-53.6362
31.1358
45.2881
31.8239
-18.2984
40.0799
40.3581
34.3712
34.7282
22.8813
40.827
23.7357
-15.4937
33.42
25.2583
-14.3867
-28.6689
2.12601
45.3334
11.8499
77.7762
-46.0587
36.491
-12.5282
41.4144
56.1489
17.4393
2.72708
27.0862
37.6041
33.906
25.5538
44.3418
52.792
14.1966
42.7304
23.3228
33.4206
33.2214
20.0645
30.6555
25.1546
31.2219
61.6222
29.4665
27.5998
27.009
37.9245
7.43477
-19.5779
5.93537
35.9537
44.0413
35.4618
6.63381
-11.289
65.703
32.7207
22.5142
44.5484
35.5042
62.1876
78.9227
-8.67597
13.2496
5.0763
28.0414
59.5098
-34.8824
28.8883
33.4464
67.9403
74.3663
23.093
52.964
-26.8419
82.9135
28.131
-0.563609
40.2174
33.569
-8.37914
45.0861
-26.4197
-64.6426
44.0082
39.4925
53.9131
90.0971
36.9238
34.1147
-37.3577
48.0545
-6.25052
14.5923
55.6778
31.7038
39.202
32.5543
8.30592
44.3999
37.2971
-10.5844
44.955
24.2691
32.3728
38.473
31.9258
33.0844
46.1076
41.57
43.9153
46.1015
56.6553
-64.9152
28.5179
-9.67653
36.884
39.0505
-7.04926
22.9167
61.4029
29.4051
55.3128
29.3943
-19.9072
32.7484
31.2329
33.055
-64.8364
-51.6591
-45.4522
-6.30441
19.8949
18.8627
32.1483
23.7159
20.5455
22.9915
-90.2624
-28.4128
7.4349
27.0367
8.83218
16.0347
40.1961
33.7565
31.236
33.5313
22.736
23.5657
-190.27
-87.4641
22.8416
20.7132
40.9161
32.152
18.4648
33.9467
-17.9384
13.8786
30.4181
33.0673
34.7597
17.4745
-50.7026
-2.68089
-25.3135
-24.9049
14.9429
-7.72773
6.37944
19.4405
9.699
34.5453
15.1417
61.1807
75.6511
65.8355
-28.925
-22.3702
35.8858
-80.6363
16.196
65.0314
-78.8185
19.8004
34.9636
32.7673
37.6603
35.384
33.7993
37.3224
34.6922
78.9888
46.2103
37.8147
43.9956
56.831
47.76
-24.5728
0.595798
-7.71424
-14.9777
-0.806635
35.668
31.3764
42.312
30.6383
59.492
45.6216
30.6783
25.8242
38.5541
35.7793
38.2306
47.4074
32.186
48.8869
48.9894
-72.7103
83.2752
11.3772
48.2232
19.6077
14.3216
74.913
17.7302
30.1031
64.9089
60.4162
77.1425
87.8784
77.5095
37.3834
39.02
33.2725
37.8706
36.7845
30.9854
43.1305
48.2848
47.0964
61.8366
49.0323
53.2163
60.4701
13.6139
-0.479269
30.5164
63.5045
89.9555
82.726
37.5447
32.0618
32.311
37.8408
31.8239
30.2336
25.7608
25.5778
46.5632
18.187
23.5183
86.9344
44.1838
-8.71707
-71.8612
26.3954
26.327
0.668945
31.438
30.6718
32.804
34.7607
-52.287
33.6571
39.2653
26.6619
32.5962
0.314523
-85.9117
-83.7411
56.3154
47.1478
-1.61742
-24.6679
1.35777
37.4546
37.9931
35.0323
-53.6935
35.3728
35.7787
-42.7687
64.6041
22.6971
18.0657
22.5832
45.4531
55.4454
28.2932
5.01895
34.9187
31.4744
58.9349
47.9211
46.3974
44.7716
37.3235
43.0204
48.3167
32.5346
50.1704
66.7504
34.1484
-55.1083
-30.0861
-1.37076
47.3298
49.8982
44.7865
46.616
30.2386
-35.85
8.90361
52.1575
17.1236
38.0159
23.058
21.8105
29.9544
35.4668
23.2212
30.7369
18.0678
67.0707
-70.6455
-7.23988
-24.6266
49.8982
4.84496
32.1605
70.76
31.9411
18.2499
-25.9429
-4.61838
26.9685
22.7847
38.6599
2.74214
-41.8689
-76.8362
50.7129
32.4462
34.5116
23.6602
44.286
28.3586
34.3906
38.5044
-14.3514
-51.4733
-44.6655
-40.5646
-49.3685
-51.7052
29.302
29.8753
31.4446
32.8097
27.7752
-47.3309
-58.4423
-29.1642
-20.559
-32.1106
-86.9338
17.9876
-43.413
31.5493
-25.8337
-82.3685
-36.0776
-9.0297
-59.6583
-0.611706
-50.9989
11.8034
-51.4742
52.4272
16.0403
36.7333
-19.8136
28.0285
28.6639
26.1733
38.4491
28.8885
9.69828
7.23927
16.2903
28.1847
24.146
20.8895
19.1301
14.5473
28.5975
24.935
28.5339
30.5117
50.2432
45.7117
69.7724
25.2174
44.7573
-5.50721
33.9237
-56.0798
28.6648
34.0334
2.42827
-51.7779
-14.037
-2.91111
55.5708
18.3754
33.3027
55.5467
55.3049
35.8295
73.4748
25.1977
46.0926
11.7196
33.3784
-36.8632
25.2541
-48.6199
-27.2885
-72.775
33.4632
33.2435
-12.9143
24.9999
27.4746
-22.6726
19.8192
21.9695
22.477
44.1052
34.12
33.5122
49.6589
12.5212
20.0959
25.0325
33.0922
32.2807
12.9896
29.7653
34.973
34.2764
29.5333
37.1255
35.0664
33.8336
52.6519
38.742
36.4663
36.1878
-44.1827
-6.50523
-59.7946
-45.2154
-74.5817
-74.6013
-16.7612
-83.7147
-70.9079
-79.7346
-65.7381
24.8849
28.5235
20.6134
22.5967
20.7913
47.452
26.9082
30.4741
-24.4157
14.6924
7.62618
16.0921
13.5148
-5.63115
68.713
0.373238
45.8996
-10.9936
-27.4883
-78.5062
-66.1212
42.8373
43.6517
-55.6398
-11.1613
43.3457
38.0153
58.0079
45.3529
-21.4472
48.0582
70.8415
55.2041
45.2793
-69.4256
37.6969
34.0707
31.9035
38.5792
56.7173
26.0549
32.7685
-58.9168
-27.0619
0.971397
-5.63451
-87.7183
-1.80543
24.1103
-54.9017
29.5223
16.2218
35.2456
26.8812
39.2265
44.3636
33.8426
31.7868
43.6361
41.6073
0.60615
48.0541
61.2634
11.1447
23.2263
26.8518
21.1031
7.68349
26.6617
46.7181
-74.5524
-14.869
33.3949
12.0564
34.5632
21.4566
8.2425
28.7878
43.9547
14.9301
43.8314
50.3765
36.3145
-8.88276
-5.56616
4.26717
29.8618
10.5573
35.6387
38.4643
43.0422
39.0037
23.212
29.0618
21.5496
21.0039
18.201
-51.9019
-43.6203
59.2593
-12.0024
-65.7683
-79.5444
-40.0549
-19.1449
8.64648
41.209
39.9898
24.9536
25.3706
37.2584
46.2017
30.1988
38.0135
29.7974
30.7359
46.8487
39.6671
33.8512
-36.7704
7.47442
42.6204
-13.2909
44.4645
21.6385
45.1094
49.7237
36.2875
76.1619
37.4356
28.6011
30.6703
6.51007
18.8316
-20.9056
6.75271
3.9871
-25.0596
44.307
16.0081
-47.1359
-17.0504
33.8826
35.1824
36.7425
-11.0254
40.5075
13.1807
17.2125
16.1763
23.1708
4.94899
23.3601
31.3199
22.5833
25.2503
35.9635
42.5755
-92.869
4.68487
55.5977
-19.7867
32.7604
43.6791
-53.2287
51.8676
5.43184
-84.4026
53.671
34.0514
28.922
83.7585
4.39711
41.0354
59.7598
8.15737
33.4258
-8.27253
-6.84287
-15.6446
-89.3756
-74.0279
-50.0208
-76.0271
45.0755
-10.1653
89.949
-40.1717
11.5177
-74.8923
55.6237
-32.4814
57.1367
41.0541
-9.00174
-10.7075
-24.482
-46.6528
-23.6028
-23.4422
-61.7802
14.8117
40.3618
-69.7772
27.2368
-59.8684
24.6489
27.8429
27.7292
20.3274
35.6094
-57.0427
-64.5101
32.5081
43.1574
47.2407
-14.6211
33.6161
31.3772
13.0797
27.7362
36.3299
-60.4911
-25.1363
41.4369
-56.6183
32.8005
35.2062
17.0852
31.3886
37.292
9.81897
1.96446
37.2028
36.7472
54.829
30.2452
42.5204
44.5232
20.7702
22.6117
-31.8958
9.14861
-8.78313
32.9071
-5.68663
-2.62601
18.2328
87.419
86.3545
-2.86088
29.2977
-66.976
-50.9937
-15.1864
-13.3434
-2.69341
20.6535
89.9498
-31.4542
-41.9051
57.9154
-17.5423
27.0825
29.645
16.1528
36.9404
23.3282
26.0407
31.8989
33.7838
27.4665
-30.3967
27.4328
9.55042
20.2043
37.0086
38.0961
5.17486
23.1247
32.9843
11.9445
-72.7553
-22.0461
21.849
-40.9947
-55.7905
-1.00444
10.7968
6.12688
-16.4155
25.5388
43.5769
43.9921
25.8836
45.406
25.0983
-22.2129
-94.7948
-50.9425
16.2129
-8.29995
-38.4275
88.336
34.9325
35.4817
24.0241
86.108
30.0717
35.9687
36.7525
87.3294
88.3194
85.8565
33.9122
73.4217
68.3692
35.1176
37.543
35.561
36.1633
38.6824
21.8829
40.1276
24.2231
76.7228
91.8144
-40.0397
76.7708
76.3045
72.7403
-81.1436
-71.6679
56.9019
62.6952
64.5296
-71.471
-59.3951
21.7183
20.6178
25.2347
36.3326
35.439
36.5229
36.12
34.5849
39.9175
41.3528
37.0987
37.5514
38.8836
40.5802
38.5284
48.8031
12.0714
20.6403
27.9076
-21.1783
-19.0352
22.1662
10.5772
38.0801
34.9645
37.4172
33.686
14.4565
24.3184
-51.0176
-25.1916
-20.8054
5.40816
-204.304
55.4634
-19.2819
50.8545
11.1161
-90.7701
-39.671
-94.9782
-65.6636
68.5217
-6.48722
53.6188
-192.073
21.5381
-210.866
66.2594
-21.9286
-68.9051
21.1979
27.9956
-81.0663
59.9952
80.5664
-46.3675
86.2844
52.9178
-35.8925
33.9069
-9.47488
-53.0417
16.7729
21.4349
86.687
74.063
53.5283
77.6108
-10.8119
-89.4478
-88.1559
52.627
33.0119
13.1591
-7.23022
-55.334
19.7502
5.43389
-37.519
19.3185
15.1383
2.01398
-72.2137
-68.5886
-61.826
-81.2188
41.4885
40.7597
41.6805
-60.7054
40.2214
-9.85748
-19.7989
-43.8277
-23.0638
39.7467
44.8801
23.5416
2.55025
8.74048
-29.9632
33.8104
-73.3472
42.1179
-81.0473
-85.1217
-59.7287
-74.2929
-76.4291
28.3284
29.5435
40.2932
5.50371
-2.24244
-38.0709
-134.147
-5.75966
-21.3884
40.7695
35.4961
39.9701
41.3066
41.461
39.5753
41.1649
19.3003
37.2657
20.0438
-48.3725
-47.6542
2.35206
36.6143
51.1206
47.4276
16.1828
51.2418
34.8035
34.444
31.8765
29.7752
29.0488
23.4731
78.7566
39.6539
-18.806
-68.1514
22.8925
30.8186
32.4696
13.9697
33.1176
34.1605
27.5865
53.9464
22.8969
79.5015
-3.75487
35.1573
35.4092
7.12387
29.4869
19.0122
33.1441
39.2371
-58.5041
29.5375
-79.5617
-52.9885
22.2382
15.5132
28.8499
24.0668
28.013
-49.8641
14.0963
83.2592
47.3675
92.0845
77.5139
90.6292
27.9595
-21.0299
-52.1414
45.0913
40.8258
76.3019
-6.57623
18.8091
-47.6537
-94.8115
-63.4403
-56.3567
36.5053
40.1152
33.9532
36.836
29.4952
33.2431
30.0954
31.7299
-57.6233
75.1354
-30.8076
-42.0058
-46.7892
-71.8736
-37.6988
-69.3322
-70.8775
-43.0983
-21.1003
28.8674
-17.026
28.1188
26.6192
20.8308
-39.4918
22.2757
20.4467
32.6316
19.7697
27.182
82.2207
80.0496
34.7781
34.1857
40.8415
40.5987
36.6597
-19.8604
-9.0651
-0.139596
7.88594
26.5489
37.1808
17.9344
-61.6893
-64.6899
11.9525
2.92956
-11.6561
-84.7641
-83.1478
-25.9995
21.5386
-83.8818
0.520081
17.3045
-4.01053
-11.3726
-6.51367
-20.9036
-26.1326
30.4334
32.9856
34.5405
29.3121
31.8024
32.3181
29.8307
44.0058
62.308
42.5789
43.5789
44.6547
47.2979
-76.37
-66.7516
-57.3715
-5.70265
42.9711
42.5853
41.812
44.3739
39.0209
38.9662
40.2261
40.1828
37.0531
41.5697
-73.9547
13.4448
-28.2057
44.2404
28.1514
30.8397
-13.1468
49.2376
98.3775
14.1895
-38.8557
26.5128
38.6853
58.9035
-58.5873
-19.7507
84.1537
37.8048
-59.3518
39.4213
41.9457
-43.3269
-41.2175
-50.9236
-29.1727
-35.6409
15.4928
-40.5369
2.37675
28.3528
33.3559
31.6941
33.4006
31.5057
18.4126
13.2704
33.1957
-41.9554
54.4725
49.7183
0.000358973
-25.9281
52.1908
27.7584
32.5111
25.7305
-6.3201
26.2836
-1.14638
32.0255
23.218
50.1007
18.4046
15.7387
26.9599
11.0883
51.7045
94.7576
-17.8257
18.5331
-19.1561
-30.0096
14.1264
11.7472
11.7737
18.3933
20.0736
50.0204
41.5083
28.8092
42.3139
-29.3199
42.4027
44.4491
45.3368
45.9757
27.1562
70.1772
65.9003
29.7585
24.316
50.3966
31.8818
68.3798
43.6393
38.1176
33.6695
40.8034
34.6775
37.5458
36.9233
55.7007
23.2782
34.5056
31.2182
36.2006
43.4166
34.9126
39.1929
-6.12556
34.708
29.5216
26.4856
28.3799
37.1473
-20.4718
12.3899
20.8216
37.0633
30.4041
30.3543
33.1612
38.385
-58.33
40.8565
1.28055
41.7891
34.9019
38.801
-40.8511
-27.0863
20.2443
11.8394
35.8788
49.9824
-14.0935
43.3109
-6.5558
11.4553
-87.6521
26.1868
21.3127
30.0679
47.4051
31.7881
-45.4285
-76.5386
47.1935
36.9541
49.4451
26.1531
43.2238
49.6919
-36.0502
16.2366
35.1488
32.634
27.2175
29.6858
29.7427
12.5337
0.406874
-56.5425
36.9126
27.9799
11.4322
23.3514
32.6137
41.2061
40.4969
34.4011
48.3295
33.3506
35.8531
46.8797
24.5475
38.4461
31.9745
30.5561
40.9084
37.2206
36.1845
38.4082
37.644
10.2842
41.4825
37.2112
-13.782
-37.2766
13.8077
-82.0058
47.7728
-69.1725
34.1435
56.5398
46.1931
42.1795
-43.7553
33.9987
11.5388
33.8059
18.9838
-26.0925
67.1345
-58.9911
-202.505
-72.709
-72.7187
-141.006
-137.58
-68.124
26.8856
-60.734
47.3616
36.731
-38.4351
-85.4822
32.7074
16.2448
33.3043
6.57924
25.798
3.89586
24.0499
25.2107
35.7138
-73.3966
-54.0822
-82.6152
-55.2612
-129.786
-80.6536
6.10982
45.6358
17.4567
33.8997
36.4928
32.6059
35.6284
32.909
40.0359
34.1462
37.515
34.0449
-118.549
6.52695
-27.2784
26.0072
-13.8028
21.7258
25.5968
40.5683
44.7272
13.1526
72.9296
40.6653
12.7665
6.9268
-5.49517
34.5098
68.4353
-69.1161
-46.077
-53.1625
-77.9836
-30.3616
-11.7072
59.9774
-25.0449
-45.4885
41.8504
-39.2001
-5.29397
-57.3742
13.391
15.7754
19.6322
13.6963
24.3913
27.2636
16.3623
0.933656
32.5458
29.1752
83.0872
-143.434
-82.3909
-21.0303
50.8903
58.0008
48.8755
46.0223
-111.286
21.6314
12.0041
-133.598
53.1235
39.3527
47.3263
36.5818
42.7089
19.3251
41.5846
10.4306
36.576
18.7371
-25.748
34.0396
35.292
28.838
54.0869
26.7468
21.8555
36.6026
54.3591
31.1811
62.2099
33.8483
-96.0474
56.2181
74.9295
-28.3201
60.2357
-12.6799
21.9115
17.0647
-12.2495
26.3322
1.37105
49.984
57.613
47.8301
31.4323
17.7813
23.1927
30.6639
36.8405
23.1777
24.7155
30.3457
29.424
28.8209
32.3926
27.3526
-17.4086
-28.9736
-12.1465
-15.6202
26.1025
37.4979
37.0274
36.7142
49.8613
32.5998
-47.1866
34.9175
32.5541
30.4585
8.39321
32.3743
30.5103
33.3464
28.5228
6.59147
18.6796
35.138
-23.2856
18.1133
16.8081
17.876
15.7466
22.3351
53.7381
28.4117
-68.8509
-74.9126
-9.24264
-82.148
-61.7633
12.905
-80.2401
11.8756
-71.2689
-88.3281
-87.3846
-113.637
25.8067
-80.791
-20.9784
-54.2925
49.7837
17.1587
33.0556
45.7798
-75.7983
6.21902
-47.2465
-70.269
30.3166
32.2032
24.488
33.5963
26.6209
14.4085
5.24493
-7.50663
27.2499
-33.655
25.1413
-3.02784
9.58023
38.2721
19.4695
34.5594
28.6243
38.2408
33.2704
13.4775
-127.937
25.417
61.6938
-30.4414
21.7936
19.0783
21.7726
33.5465
19.0128
12.4969
-7.77539
-83.6902
3.29877
-60.2299
33.5342
34.1215
25.865
24.5578
65.1197
35.4199
8.8566
59.4348
30.2896
25.8149
32.7105
33.8941
35.2326
34.7506
33.9115
35.3682
10.9065
31.8642
20.1335
27.7701
31.146
36.2636
74.0404
71.1224
45.5187
65.921
36.2856
-1.81734
34.5225
49.6363
46.5353
25.0469
17.7398
12.5918
-0.456277
22.1987
19.7895
-3.10835
12.6984
17.3278
19.313
-54.1176
33.9933
41.7286
40.5465
41.784
42.4402
77.9238
85.1892
30.4781
40.1342
48.0395
46.0442
49.8309
47.6601
57.6124
59.4787
62.3093
59.0936
65.4164
93.5472
88.5546
33.593
39.1185
37.268
89.9519
25.4504
-55.2336
36.0859
-11.8762
-20.9773
82.7156
-43.8169
-65.3018
56.0193
-38.1253
57.3295
52.239
41.5426
67.9074
64.3962
-24.1156
41.8621
11.3614
57.4109
72.9164
63.9694
-6.30884
12.1949
15.3807
25.243
28.3807
11.7858
20.4971
35.1857
-15.0091
-13.4964
41.0825
43.7575
41.8527
36.3758
-78.5802
-42.5423
17.3294
-2.30027
30.5662
50.6443
53.0021
-4.66326
-22.1837
-18.0201
-37.0928
53.3064
-63.3065
-39.7073
-22.1282
-28.7999
43.7663
-2.83184
48.6311
39.53
48.9332
61.1589
56.0413
70.134
24.938
33.5009
34.1141
65.7376
44.5611
47.7
0.131414
7.15964
10.7861
4.67065
63.5115
38.3995
31.8767
34.8941
56.2394
36.7889
38.7796
37.7405
37.4514
43.8923
42.0265
29.1225
40.2139
37.7191
27.4621
26.6399
23.7557
25.3758
31.7097
30.9499
29.9826
-1.06562
39.0965
-2.17222
44.9556
4.78895
18.3286
38.8065
32.0451
15.7744
-29.8358
-13.2518
27.1167
30.158
33.2212
37.4758
20.3712
-21.8898
27.705
32.0043
10.9189
25.7775
46.7393
39.9301
20.6252
18.3177
97.8712
88.6647
61.0257
50.0056
101.003
19.2774
23.3006
14.3572
26.0978
21.1626
24.8711
93.1554
35.2555
73.3299
16.1897
16.4327
15.4541
29.8385
-3.03342
-42.8645
-47.1596
-74.5999
-51.08
-6.41493
19.5261
34.916
-46.3836
10.0345
24.7386
27.181
27.7792
30.9484
36.7801
33.792
34.7523
32.7962
32.5016
6.59504
-2.49358
-33.0576
6.759
24.6392
24.3535
25.6928
32.3529
33.9865
34.7912
5.85042
18.4438
25.8602
34.3321
26.1021
38.7559
-189.422
11.3788
33.741
30.2514
-67.2741
43.4882
-27.7653
49.0759
36.1165
11.1944
28.9707
26.5213
50.9727
51.5037
32.5057
40.576
45.4717
-13.9604
46.3333
-17.0018
24.1835
43.0372
40.3227
49.7464
64.4688
63.8921
54.985
25.4634
62.647
46.8185
26.1418
34.3689
6.31664
80.5787
64.8037
67.1874
46.5207
-75.685
65.3858
93.8851
2.70319
-38.437
-21.5976
-51.7013
29.4124
30.1721
27.2818
1.38815
-4.64571
35.4094
-32.1555
27.0081
33.7665
29.8583
26.3629
31.5059
1.61963
-80.0565
20.8822
30.7723
69.458
15.908
33.9742
-49.6263
42.3696
49.9301
48.6734
28.6528
20.7296
-13.1014
-5.73657
6.69238
-51.3828
12.7949
47.7189
49.2488
69.8673
67.5178
64.844
80.8165
87.222
52.5288
-1.80822
-1.9235
53.6249
57.5809
58.7475
53.7246
35.3853
32.1102
34.2722
-4.4353
-40.6506
-52.823
-162.886
-121.734
-48.1328
7.41216
30.6794
-12.5399
-60.6034
15.8701
-30.8594
-50.2117
-25.4796
37.0146
-22.5592
58.9979
49.9525
-55.3726
-52.3608
23.8881
88.2367
-64.0136
29.3659
23.407
31.5958
-6.84397
5.35367
32.7961
17.4148
33.3809
32.2693
17.9847
5.92493
-31.4984
33.4575
28.6815
32.1872
33.5896
31.4805
30.4265
34.219
32.7514
32.3535
94.3035
28.8177
5.65449
-6.50042
-1.6489
31.3316
30.8163
9.66666
9.84075
11.0198
-56.7444
-51.796
-54.3533
-41.6396
-43.9317
-92.4097
6.44307
-13.7542
-22.5049
-4.44287
28.4601
37.1683
36.8958
45.8185
54.1392
-97.9569
35.4812
37.3859
36.353
4.65263
39.3409
35.7741
-32.2307
40.6699
-61.7064
-43.016
-86.2032
5.56121
6.3879
-59.5593
22.9257
25.3948
45.6347
26.4188
27.691
18.9551
30.6882
-3.72881
28.901
28.4334
37.9708
35.8744
18.2335
-2.71777
18.4209
5.73925
25.9533
21.0327
-61.9873
10.4685
28.0188
11.3271
-54.2165
30.8325
22.2333
38.599
27.0937
10.1669
28.9036
30.4716
43.0808
40.8699
28.682
25.3099
13.6967
-71.4718
-29.3124
28.812
48.6272
57.4042
74.1019
67.6917
-137.282
-13.9619
-46.3214
12.5717
19.827
20.8145
-180.186
-69.6934
35.9189
25.4005
1.14573
-8.67191
-20.9441
22.8555
-30.6029
19.9886
-6.66598
18.0269
45.1445
33.2866
36.9272
31.1481
31.3878
33.3392
33.9832
37.0692
41.0829
15.6974
34.213
29.1541
50.8529
57.1079
33.1497
44.3155
62.6338
10.4983
22.595
-3.60047
26.5195
-101.971
1.59373
-23.4707
22.5668
30.4102
17.5184
48.9409
-65.8544
32.2315
32.6828
34.3524
-14.9156
65.5855
6.31741
30.0703
-13.2886
30.386
58.2911
54.5567
34.7073
-19.6795
2.53964
20.5738
-76.3901
36.3173
16.3281
63.0293
79.0271
57.6936
51.1888
55.3978
57.8149
-121.925
-18.4006
16.6224
29.6713
-67.7469
-58.9772
-73.2266
-15.0677
-7.27591
-73.9932
80.1599
47.9893
61.0568
43.3974
42.48
32.386
62.7401
87.8873
50.766
95.5632
12.8217
43.8788
39.5947
29.5504
51.4587
47.8215
13.5251
20.3581
15.7428
31.4132
36.738
-12.7774
83.4923
67.9109
52.4506
29.1801
45.0302
61.5329
-0.655641
-66.347
83.1225
68.4612
-18.2002
27.4394
35.3431
38.0097
-79.7685
75.494
28.5763
-50.049
28.1896
40.031
27.9216
36.3581
83.0577
-22.1594
-1.94118
-6.05314
-58.2689
31.8568
8.94976
47.266
-20.4131
24.0991
68.9576
99.2919
31.3109
32.0787
7.17729
11.0853
-1.24878
-20.3539
-186.369
92.7371
69.9604
-25.2561
-62.5528
-65.1369
27.9973
12.5862
14.3279
-6.10777
-23.5182
28.5948
19.5243
36.821
18.3779
26.3111
12.4564
-21.7581
12.8924
28.6692
26.4719
23.2618
24.6782
-65.3291
-73.8492
-38.3902
-128.073
-26.9137
-45.641
80.8632
32.5132
61.4419
45.0598
28.5734
-9.52642
20.6055
14.5567
30.9856
8.55513
35.3727
-64.8906
-155.613
-65.5506
-72.0688
-65.1929
33.9027
18.5439
22.0409
16.6107
13.9874
35.4557
35.1681
30.8431
-47.4975
-8.81727
-58.4566
-17.812
23.3989
33.0594
7.0082
35.8281
31.3137
-17.9925
39.0958
31.7577
32.2388
43.7189
24.4873
36.0945
39.2609
31.0321
28.1541
32.5145
42.4523
23.6818
-41.284
-24.2781
39.0851
-13.6925
25.9208
28.4128
35.3581
50.5619
49.5767
-41.4861
42.9445
36.0474
54.648
59.8859
36.8993
37.2603
36.4925
48.4683
48.3683
43.9787
48.8591
49.2139
-49.8706
34.2768
32.9319
-18.3447
-89.9637
-12.0428
-17.9737
-17.5203
-8.01284
-22.8745
-19.0079
33.1254
-2.8443
47.0827
78.1782
-64.7273
89.8236
-70.3345
-36.4072
-25.9289
-3.17301
89.3066
86.2793
63.2111
81.5352
12.3294
-39.0652
58.8962
-15.529
17.2028
32.6928
6.37721
-65.0591
21.1622
-81.8855
14.4541
-14.5373
79.382
67.4739
13.2202
47.1239
-33.9612
-13.5338
-11.031
-52.8968
-9.92655
-32.2354
-25.1917
-41.4269
99.7335
93.2039
29.4729
-15.9026
-66.8176
-63.1389
-47.9886
-9.97055
-36.2831
36.6053
-0.0137256
36.2573
32.2087
33.1808
47.9365
21.1669
33.1819
38.1013
37.0649
49.2161
20.1496
49.0243
32.9328
42.4234
42.6913
30.5135
24.8841
33.8882
26.7515
29.4238
1.76123
17.3287
13.9828
23.6973
41.2028
43.8868
40.4549
-60.4223
-66.815
-57.6541
-66.1593
43.0559
10.5016
35.2278
43.5355
63.6837
3.22094
18.7483
27.1174
38.7495
38.1953
44.9117
31.3847
48.391
32.8055
-0.46277
7.99602
-27.7928
8.34286
-33.4389
-5.40136
59.0662
8.87226
79.4601
-159.063
-21.5283
47.9964
40.4355
55.0178
-81.4124
54.8361
34.2205
51.8844
-17.3929
63.638
27.4342
42.701
32.9671
34.0026
25.5698
8.33587
-2.11403
-58.9041
31.1729
36.8449
28.91
11.537
27.8021
-45.0646
39.1476
-64.828
28.1445
2.44355
-103.863
-73.8986
-31.4477
-37.9714
15.6028
8.12556
11.9327
13.7083
0.0439799
24.502
25.2487
-65.0791
-66.0261
-23.0404
-93.3571
16.1511
-78.0404
-52.9675
-92.0343
2.80998
-33.4813
30.8587
32.5565
32.9148
29.8998
5.68885
30.8892
34.2445
68.6581
82.8173
33.5745
55.3416
34.1618
53.5588
34.332
38.0811
47.5732
41.3253
51.7529
36.5586
19.7561
31.841
-1.12487
22.1197
-8.97929
-11.3927
36.6261
-27.0235
-48.8378
-61.6947
-56.8784
-33.9226
-8.24539
-22.3622
-65.4327
17.5195
-60.771
25.6236
9.02147
8.79069
-5.81063
10.6538
31.4418
32.713
31.3694
-92.6944
38.2709
-105.112
-109.927
-38.8191
24.3036
-28.5204
-13.9525
23.3958
15.2645
25.1052
15.9116
19.363
18.011
-33.3112
32.8502
24.4061
22.3273
22.1074
33.6821
-54.066
40.3388
50.2571
40.3157
37.8857
30.9105
33.7824
2.8139
53.3266
70.1508
29.7802
42.0326
36.266
28.7688
-12.1213
47.4379
8.65732
-20.9899
31.1577
26.2497
-1.50476
89.6776
-45.8431
92.9264
82.2987
72.6337
-58.4411
14.1735
19.7013
-99.1863
-22.542
-28.3795
23.1353
-57.8489
7.91491
18.9684
12.7073
-59.5156
31.6817
8.14604
-31.7732
-91.2276
53.7518
35.3254
19.8225
54.8559
71.2363
47.0049
47.7034
30.0538
26.2894
-3.50377
28.4074
7.47043
-28.8405
-82.821
-38.1764
-80.565
10.3324
34.8437
23.3439
2.17503
35.4627
33.4834
30.2884
31.4847
-2.1997
51.3179
21.4873
-28.7122
-61.4646
-2.37035
21.9715
-44.1763
-39.4363
-16.8054
-63.8642
-13.4178
-53.6397
-33.9913
-66.396
-20.8428
-9.78731
-22.7375
-1.69482
1.01319
-67.2129
29.9468
28.0963
21.6546
26.8886
29.0056
23.5613
29.3853
36.3172
40.3693
54.8301
16.6255
34.9512
41.4487
44.8246
44.2894
34.4042
58.4446
-20.6843
-43.3962
3.27392
26.6326
-71.0857
-78.8451
54.6016
-49.6964
-6.69126
-2.19543
10.418
-6.32167
-6.90278
-38.5888
-44.6743
15.65
52.5945
39.9946
40.0248
29.9611
49.0094
30.9958
27.5639
29.7379
34.6247
33.5473
38.4637
23.3655
34.6995
-79.2827
30.0899
-103.989
3.62902
29.2449
42.8993
51.8727
31.0856
87.4554
39.7332
41.0536
32.9556
22.2712
34.7896
22.2233
26.9627
-33.2877
-0.575264
-3.66545
45.3358
63.0431
-87.3344
-15.9502
53.3084
46.6524
51.2525
-19.6856
-118.507
59.878
34.705
42.9502
44.0192
40.2259
30.9197
-107.067
46.3943
5.08025
9.43535
24.6495
61.2796
49.3308
50.2815
42.1922
45.0206
41.0963
64.3174
58.5523
-76.1893
48.6304
65.6637
96.9998
74.7135
66.5624
63.1432
-71.0582
-33.2751
37.2319
-38.9177
-46.2274
-29.0626
-7.21857
-17.999
-30.9528
34.1995
-67.1788
26.0346
24.5892
28.5703
34.952
19.6304
24.2815
35.4678
17.3069
51.1086
50.1996
60.9569
50.5122
52.3439
30.7974
36.0976
37.8155
32.8066
-13.6077
10.3306
22.2445
40.3469
37.0316
17.1864
45.4779
36.5273
4.85284
5.00398
-31.6634
42.5812
25.4027
-51.4699
43.2592
58.877
34.2297
50.1682
67.5553
28.7965
33.0019
20.1924
8.39261
49.574
67.7123
61.8495
68.7425
60.6596
69.9173
67.7512
-17.0299
-70.8974
-55.9653
5.54109
-3.56844
88.5118
92.7034
76.3903
16.1415
34.445
-48.2147
-63.6933
-74.5807
-42.1303
-35.8678
-7.91479
-5.01158
-42.6153
-19.6541
-28.0392
-16.2524
18.7375
29.1673
33.8887
31.1776
32.8551
7.58523
31.5712
-20.0796
38.69
39.971
36.6283
34.5369
33.999
35.3045
35.1243
-89.7652
2.88057
-22.2317
8.88456
32.7504
-2.21786
34.0172
29.3846
29.8449
17.053
20.9176
-49.8684
13.8058
22.4665
-7.48753
27.5277
24.9428
34.1233
23.6304
27.9578
27.7659
4.57426
-55.1076
-94.6492
-87.456
-28.9304
-72.6743
12.095
-47.3023
42.2144
31.1453
36.3246
27.7461
26.1145
20.1483
19.863
22.2875
-22.5299
18.2797
7.54867
-62.565
22.1956
-42.3381
-40.251
-58.2255
-19.4989
-25.6244
-40.2864
-52.2094
-26.4998
-10.3257
-26.6876
-24.2073
-21.042
-30.9027
-27.2567
-20.3343
-20.4187
52.61
47.1971
32.7393
32.5162
28.909
27.6567
30.6465
30.0852
20.2904
18.8735
27.6956
27.8657
32.1418
32.8258
33.3403
31.2609
32.9827
44.4455
21.6875
45.9895
30.984
28.0506
35.0453
40.2321
37.719
43.4848
41.6552
45.6103
40.7881
45.0683
42.7182
22.612
37.4069
40.7851
-44.3572
-36.0178
8.84727
34.1303
-94.1889
-168.865
-35.4716
97.7655
53.6098
60.5646
46.1441
72.3851
80.8083
-132.847
-152.455
84.284
-59.3321
5.13585
-84.3871
-37.7618
-17.4721
-41.409
-19.5896
-18.4986
-6.68779
-8.57095
-10.2531
-36.9981
0.810964
-14.0113
44.2253
23.8565
-19.3066
96.5912
-139.195
-43.8351
-38.097
67.7842
84.4188
83.1478
23.6822
25.8789
23.9133
-86.5163
45.3107
34.2516
40.6777
26.1096
18.9906
21.2715
29.4209
31.9831
39.0586
40.472
46.0677
32.948
41.7086
43.8585
41.0165
39.6469
39.5564
39.0437
41.3367
18.1934
12.8921
5.85799
2.21826
10.9966
45.287
40.216
31.3235
31.2102
27.7013
24.2742
38.0226
36.9425
-134.042
-23.3248
-10.2078
-22.947
-25.724
-68.9075
29.604
39.8055
37.0096
-46.6595
35.3227
30.231
16.6772
-29.7328
27.8578
27.6217
32.0146
10.5453
-12.7311
27.826
33.8344
-11.6486
31.2525
-47.7952
0.219223
12.8747
57.7736
53.1554
-1.9346
44.2712
46.8976
15.8246
29.6327
27.3942
32.206
-6.2832
1.72599
-2.05511
31.2381
4.27032
27.8382
24.5835
-10.9523
27.8571
33.13
26.3729
32.0245
28.2127
21.1219
29.186
-53.7028
-74.1215
14.3838
89.2632
67.9453
73.0253
82.6597
58.7783
22.2217
57.417
43.0967
17.1012
-14.4882
-41.6999
-61.9026
45.2707
73.6121
55.9417
53.6396
24.9749
10.2236
18.7205
-37.2821
-20.4587
-84.0247
-84.017
-58.9122
67.0743
-54.219
-46.7396
23.3926
16.9268
-2.35494
35.3365
33.9021
28.808
31.5284
-13.6985
2.28008
-20.6928
-10.9576
-49.7865
11.2772
-55.4674
-20.6666
78.0572
26.4468
25.6452
29.6702
33.5485
28.2776
-52.8596
-40.379
-71.3403
18.9363
-32.641
32.4355
87.0357
30.3434
28.6489
31.9986
24.6512
32.6492
12.1778
5.47797
13.4728
29.0913
27.8111
22.4241
40.1532
11.6168
32.5859
25.5623
25.6323
32.6866
34.2278
29.2856
41.5621
32.5832
68.9827
67.4134
64.7959
69.9151
70.9498
60.6115
66.4774
30.8472
-17.089
-4.21627
-1.62973
-20.7849
-134.117
-30.7094
-43.4078
-8.52501
54.1765
39.0652
41.254
38.3705
47.0248
75.1301
65.8717
56.7614
90.8365
80.9592
65.0033
-33.2578
4.55076
-25.1895
5.36182
21.9171
-7.96651
12.6127
31.5079
34.9133
33.367
30.2553
36.0443
-26.306
-85.7832
-83.3264
31.2382
25.644
33.2725
26.5277
29.8267
17.7732
30.994
32.2164
37.494
37.6953
37.0459
35.5781
17.5712
-58.1526
-34.9947
28.6645
20.5171
23.2177
15.6785
57.6327
38.773
36.265
36.9767
31.6185
49.6087
61.3524
49.7899
51.9083
47.7794
66.4616
93.4596
75.6221
92.4769
84.7559
68.0351
80.7828
-32.9396
20.6668
47.3643
42.157
-65.7021
8.9298
-48.7783
-9.89803
-6.121
-4.42538
-22.386
-5.32771
-64.1192
29.3945
32.1603
22.0389
22.9396
24.717
27.9136
18.7986
9.51549
22.5298
26.6964
37.3424
29.6956
34.3014
38.1749
32.7393
33.0806
38.6472
39.7081
40.2383
25.3755
31.8922
21.8455
38.4678
28.7935
33.7019
35.3068
35.1463
42.187
-10.6592
3.95782
-17.2216
8.50276
16.7143
38.2404
59.1793
54.8771
63.9711
56.0746
31.4391
22.4386
14.3284
38.2344
15.1236
-92.322
40.3574
37.6832
30.6731
40.0689
29.2891
40.9586
-9.15766
25.68
45.8749
8.86044
30.0559
27.949
35.2887
26.4268
13.5866
13.1786
-19.83