/*--------------------------------*- C++ -*----------------------------------*\
| =========                 |                                                 |
| \\      /  F ield         | OpenFOAM: The Open Source CFD Toolbox           |
|  \\    /   O peration     | Version:  2506                                  |
|   \\  /    A nd           | Website:  www.openfoam.com                      |
|    \\/     M anipulation  |                                                 |
\*---------------------------------------------------------------------------*/
FoamFile
{
    version     2.0;
    format      ascii;
    arch        "LSB;label=32;scalar=64";
    class       surfaceScalarField;
    location    "0.01535";
    object      phi;
}
// * * * * * * * * * * * * * * * * * * * * * * * * * * * * * * * * * * * * * //

dimensions      [0 3 -1 0 0 0 0];

oriented        oriented;

internalField   nonuniform List<scalar> 
7391
(
0.0494273
-0.0393459
0.0316787
-0.0417601
0.039328
0.0265329
0.0238856
-0.0897465
-0.0405794
0.00874274
0.0366833
-0.00484669
0.0913959
-0.0898147
0.0232702
-0.0248514
0.0125538
-0.0170749
0.000686583
0.00383457
-0.0364594
0.106446
0.0603535
-0.13034
-0.0838775
0.10948
0.00700123
-0.0326032
-0.0443259
0.0104491
0.00229392
0.0315828
-0.0498788
-0.0415133
0.0643164
0.0270757
-0.0337126
0.0397415
-0.0135519
0.00752297
0.0279408
-0.0505953
0.0226544
0.0900712
-0.0256564
-0.0133902
-0.0510245
0.0751658
-0.00662629
-0.0201825
-0.048357
0.0685843
0.0050145
-0.0179748
-0.0556239
-0.0402175
-0.0514126
-0.055676
0.147306
0.00572905
-0.0286934
0.0192716
0.0239741
-0.0086306
0.0367191
0.0224168
-0.0214715
-0.0632676
0.0623223
0.0445824
0.0560525
0.0183995
-0.119034
0.0370125
0.0131225
-0.00188129
-0.0482536
-0.0827238
0.00207423
0.0806495
0.00143928
-0.100124
0.165416
-0.0667314
0.0886168
-0.150116
0.030931
0.0305686
-0.0851079
0.143313
-0.106328
0.0481229
0.0851168
0.113564
-0.0770913
-0.121589
-0.0950489
-0.02768
0.110796
0.0119333
-0.0576271
0.0603176
-0.00269044
0.0200038
-0.0485285
-0.0553528
-0.0518616
0.0430763
0.0975902
-0.0888049
0.0646305
-0.0386127
0.0255328
-0.0515505
-0.086048
0.0942952
-0.104565
0.0963181
0.00160209
-0.0343723
-0.0100175
0.0427877
0.0453567
-0.0683815
-0.0617032
0.084728
0.0750947
-0.0650834
0.028599
-0.0386103
-0.04106
0.0538927
-0.0112306
0.0987179
-0.0491803
-0.0495377
0.0486863
-0.0173473
-0.00516349
-0.0261755
-0.0507876
0.0417038
-0.00813835
0.0172221
-0.0335392
0.114353
-0.0480203
-0.0327937
0.042416
0.0286917
0.0376004
-0.108708
0.107161
-0.2471
0.105631
0.0343076
-0.0355971
-0.0266445
-0.019221
0.0814626
0.055831
-0.0288269
-0.0513885
0.0243845
0.052669
-0.0615756
0.0647376
-0.0626573
0.0471258
0.0155316
-0.0604087
-0.0159493
0.00968263
0.0666753
-0.0697872
0.149513
-0.067105
-0.0126208
0.0371818
0.0374174
-0.0745992
0.0874176
-0.0482991
0.0579818
0.0364486
0.0110592
-0.00574055
-0.0417673
-0.0390266
0.0351888
0.0144278
-0.01059
0.0310672
-0.0250802
0.00111438
-0.00710134
0.0735005
-0.0729858
-0.0240394
0.0235247
0.0741396
-0.041343
0.0190225
-0.051819
0.0510508
-0.098164
0.0566567
-0.00954353
-0.0240552
0.0485291
-0.0131879
-0.011286
-0.00731108
-0.12324
0.176594
-0.0460431
0.00986112
0.00948456
-0.0620266
0.042681
0.0503081
0.00580967
-0.0462567
0.0122993
0.065934
-0.0687487
0.00273459
-0.053734
-0.0110272
-0.035587
-0.00780271
0.0461243
-0.00163694
0.00132311
1.7867e-05
0.000295967
0.00023437
-0.000305594
-0.000433569
0.000504792
-0.00401593
-0.00764757
0.00901749
0.002646
0.0550108
0.0437349
-0.0173626
0.0976514
-0.0939677
-0.0206884
-0.109792
-0.00660401
-0.0452629
0.161659
-0.009372
0.00572171
0.140359
-0.136709
0.065541
0.0192559
-0.00568996
-0.0791069
-0.0565182
0.0286235
0.0278947
-0.117959
0.02351
0.00748237
0.0869663
0.0387622
-0.0419788
-0.0198615
0.0230781
0.0469566
-0.0583505
0.050156
0.0338793
-0.0361204
0.00120735
0.00103373
-0.0338499
-0.0095048
0.00646542
0.0368893
0.00996615
-0.100868
0.0489234
-0.0884905
0.0939769
0.0375146
-0.043001
0.056955
0.033524
-0.0797967
-0.0106824
-0.048059
0.140222
0.0059268
-0.09809
-0.0432092
0.0285959
0.104023
-0.0894093
-0.0507268
-0.0276831
0.056169
0.0222409
-0.099859
0.100355
0.000358727
-0.010908
-0.00191445
0.0124637
-0.00865514
-0.000145697
0.00481029
0.00399055
0.0269937
0.00994632
-0.03694
0.00103327
-0.00119619
-0.00849221
0.0722025
-0.043365
-0.0510284
0.0221909
0.00191291
-0.0250892
-0.0211496
0.0685229
0.0432474
-0.0395678
-0.0079656
0.00935759
-0.0462181
0.0376939
0.0224283
-0.0139041
-0.048512
0.0302347
-0.0023437
0.160444
-0.160406
0.00230622
0.109238
0.0160778
-0.0158364
-0.00947743
-0.0051136
0.00473885
-0.00553134
0.000469374
-0.00899615
-0.0959132
0.108962
-0.0232736
0.0102244
-0.0129371
-0.00207164
-0.0143562
0.000180301
0.00237181
0.0663485
-0.0462838
0.0114836
-0.0315484
0.0378997
0.0567835
-0.0283347
-0.0273862
0.0549167
0.028611
-0.0561415
0.0278317
-0.0552178
-0.000208465
-0.00059255
-0.0329116
0.0124502
-0.0099813
0.079174
0.0698183
-0.0536787
0.0968849
-0.113025
-0.0233556
0.11512
-0.0538649
-0.0423632
0.0452008
0.0520791
-0.0379875
0.0365803
0.00140726
0.0409569
-0.0806008
0.0742165
-0.0345727
-0.0553316
0.051222
0.0863557
-0.082246
0.00412215
-0.000539811
0.00226037
-0.00584272
-0.00287076
0.000283795
0.0417628
-0.111971
0.105121
-0.0349129
-0.00357773
0.00155456
-0.00484489
0.00410378
-0.00723672
0.00259313
-0.0213264
-0.00966461
0.117397
-0.086406
-0.0260615
0.0599513
0.0412049
-0.0720678
0.0287028
-0.122924
0.0455488
0.0773747
-0.0433571
-0.032988
0.0278331
0.0481845
0.154486
-0.221209
0.0185384
-0.0920488
0.0669009
0.0239101
0.00123782
-0.0136682
-0.00362893
-0.00144107
0.0177271
0.111696
-0.0487372
-0.0806858
-0.1546
0.0844898
0.0768545
-0.00674386
-0.0391676
0.0419121
0.00807658
-0.0108211
-0.0424982
-0.0435499
0.0458239
0.0143734
0.00226933
-0.0624666
0.0273161
-0.0337016
-0.0512416
-0.0278382
0.0556698
0.00408887
-0.0111003
0.0686991
-0.0616877
-0.0321616
-0.0294641
0.0616257
0.0322298
-0.0643914
0.0497836
-0.0048364
-0.0449472
0.0398951
0.0354572
-0.126529
0.0511771
-0.0994951
0.0614925
0.0778977
0.0331364
-0.100402
-0.0458676
0.108614
-0.0399705
-0.0227759
-0.029714
0.0453389
-0.0556756
0.109708
-0.0540323
0.00353243
-0.0457417
0.0091185
0.0330908
0.077526
-0.0293431
0.0334341
0.076108
0.0408311
-0.0373629
-0.0795762
0.0308404
-0.0310211
0.00018073
0.0144755
0.207376
-0.157357
-0.0644947
0.00575856
-0.00290565
-0.0206758
0.0163094
-0.141681
-0.0240266
0.149398
-0.00461158
-0.0119577
-0.0275645
0.0441338
-0.00843501
0.0331501
-0.0307667
0.0344367
-0.0332344
0.028132
-0.0293343
0.000343098
-0.0002787
0.0405809
0.0160977
-0.089913
-0.0407169
-0.000135991
0.00705492
0.0354464
-0.0320522
0.0333779
-0.0238799
-0.0232687
0.0137706
0.123378
0.0601451
-0.0934522
-0.0567341
0.0279072
-0.0386782
0.0267412
-0.0394515
-0.0374305
-0.0133025
0.043678
0.00705495
0.0312203
-0.0193841
0.0811086
-0.0929448
0.0409344
0.0333988
-0.0743332
0.0721547
-0.00281188
-0.00623694
-0.00112328
0.00620266
-0.0118046
0.0241082
-0.0185063
0.0341335
0.039626
-0.0213454
-0.0524142
8.36135e-05
-0.0103418
0.00872791
0.00153032
-0.0448604
0.00229024
0.0128421
0.029728
-0.0323705
-0.0135437
-0.00640328
-0.0506589
0.00304375
0.103765
-0.05615
-0.067134
0.0662393
0.000894619
-0.0100359
0.066478
-0.0340253
-0.0385719
-0.0405877
0.0463449
0.0328148
0.0726867
-0.0328741
-0.0338814
-0.00593114
0.0877445
0.016986
-0.160062
0.0729926
-0.0284612
0.070706
-0.115237
-0.00215231
0.00132809
-0.0333146
-0.0638113
0.00978647
0.0595896
-0.00556476
-0.0560957
0.00325883
0.0528368
-0.0147834
0.00884121
-0.00490915
0.0108513
0.0455446
-0.100389
-0.0133211
0.0681659
-0.00421166
-0.0030056
-0.00159567
0.0215788
0.0357573
0.00822058
-0.0655567
-0.0536764
4.62346e-05
-0.000103821
0.00525344
0.00642868
-0.0182934
0.00661129
-0.00547465
-0.026623
0.0620885
-0.118726
-0.0392756
0.0206716
-0.0197929
0.0376138
-0.0384925
-0.00127806
0.038798
0.00370528
-0.0412252
0.0102197
-0.000582398
-0.00714562
-0.00249173
-0.0212812
0.0540438
-0.0382372
0.0355408
0.000216571
0.0204546
0.10115
-0.11853
-0.000498365
0.000868847
-0.000567062
0.00019658
0.00366621
-0.00132859
-0.0154929
0.0131553
0.00641373
-0.000840438
0.00802325
-0.0135965
0.0102867
-0.0166069
0.0185134
-0.0121932
0.0770545
-0.00188873
-0.0189681
0.0509479
0.0178219
-0.0498017
-0.0303825
-0.0159427
0.0463252
-0.0489074
0.0323239
-0.0169557
-0.0493506
0.0862674
-0.0374811
-0.0405229
0.103737
0.0322002
-0.106562
0.00585569
0.001627
-0.00358156
-0.00390112
-0.00154228
0.00563814
0.144291
0.00316227
-0.00414774
0.00177053
-0.000785058
-0.000252489
0.0038071
0.0355548
0.0287754
-0.0110076
-0.0533226
-0.000808452
-0.0356871
0.0598339
-0.0233384
-0.00139149
-0.00321625
0.00307856
-0.00200706
0.00406512
-0.00231055
-0.0368081
-0.0359954
0.0728036
0.0394431
0.0411388
-0.0805819
-0.0278749
0.116204
-0.0421123
0.0177049
0.00106379
-0.0200468
-0.0240018
-0.00042101
-0.00184594
0.0262688
-0.086228
0.0746362
-0.0581953
-0.00430214
0.00395828
-0.00310571
0.00344957
0.0338797
-0.0730668
0.0391871
-0.0968486
0.0247886
0.031759
0.040301
-0.0164519
-0.023529
-0.038129
0.0781098
0.00162552
-0.010263
0.00486334
0.00377411
0.0396541
0.0423283
-0.0819824
-0.131222
-0.0205876
0.140701
0.0111087
0.0509378
0.0158864
-0.000159443
-0.0666647
0.0513216
-0.000383796
0.0605165
-0.043497
-0.00113308
0.0396772
-0.132489
0.079716
0.0130959
0.0569656
-0.0845869
0.0655905
-0.0379691
-0.000151479
0.0271452
-0.0518934
0.052409
-0.000515561
0.079272
0.00909679
-0.0198459
-0.126945
0.117349
-0.0659951
0.0755914
-0.027089
0.0193666
-0.0353449
0.0430672
-0.0111983
-0.00536213
0.0101213
0.00643914
-0.00676699
0.0273591
-0.0446474
-0.00801788
0.00536365
0.0392586
-0.0366044
-0.0469929
-0.000666778
0.0476597
-0.00702909
0.00991569
-0.000870112
-0.00201649
0.0254186
0.0303951
-0.0558136
0.0245223
-0.0556533
0.0688249
0.0677704
-0.0540111
0.0540065
-0.0677658
0.134055
-0.00253314
0.0129427
0.00777886
-0.0181884
0.0258113
-0.0421649
-0.112667
0.0397512
0.115081
0.0423834
-0.0845484
-0.0814991
0.084811
-0.0289682
0.0201777
-0.0703887
0.050211
0.0692741
-0.0529647
-0.00843524
0.00333228
0.0322066
-0.0271036
-0.0756327
-0.0295341
0.0145773
0.0905895
0.0370971
-0.0355032
0.0196759
-0.0212699
0.0426753
-0.0380215
-0.135253
0.130599
0.0414313
-0.109098
0.111904
-0.0442381
-0.059343
0.0352839
0.0416113
-0.0175522
-0.0574705
0.040163
-0.0490808
0.0663884
0.0310357
-0.0508892
0.0198535
-0.0260593
-0.000599553
0.00178576
-0.00468446
0.00262202
-0.00231989
0.00438232
-0.0661413
0.0661169
2.44132e-05
-0.0592745
-0.002778
0.0143443
0.048471
-0.0629747
-0.0342045
0.0673409
-0.0676368
0.0334323
-0.0306726
0.000727237
-0.00296371
0.0329091
-0.0591631
0.0658009
-0.00548246
-0.00115539
-0.0176133
0.00031171
-0.0291739
0.0464754
-0.0595298
0.000366702
-0.00133301
-0.0731885
0.0364854
0.00897778
0.0277253
-0.0244644
0.000195532
-0.095878
0.0896663
-0.101325
0.107536
0.0390416
0.0155193
0.0133602
-0.0679211
0.00352086
-0.0250012
0.0337797
-0.0604399
0.0637234
0.0357581
-0.028883
-0.0232762
0.0447542
0.00740506
-0.0278794
-0.0150952
0.0140916
0.00024008
0.00116492
-0.0618449
0.0505482
-0.0251232
0.0344537
-0.000345615
-0.0246556
0.034535
-0.0668275
0.0322925
0.0667352
0.0287448
-0.0418054
-0.0275828
0.0360801
-0.0242811
0.0157838
0.0176913
-0.06371
0.0191405
0.0268782
0.105422
0.0062185
0.0463028
-0.157943
0.117336
-0.0683965
-0.0621513
0.0132116
0.0741411
-0.0765389
0.0372006
-0.0348027
0.00132479
-0.001191
0.000479689
-0.00061348
-0.00222008
0.00346035
-0.000727989
-0.000512281
-0.0218435
-0.0157738
0.0356341
0.00198326
-0.0455341
0.0178511
0.0277122
-0.0470963
-0.00417018
-0.00222331
0.0062339
0.000159598
0.00195594
0.000765705
0.00128289
-0.00400454
-0.0900432
0.149162
-0.0164439
-0.0498549
0.049988
0.017718
-0.108474
0.139728
-0.0888219
0.0360857
-0.0402087
-0.000220317
0.0437585
-0.00754411
-0.035994
0.00552565
-0.0104731
-0.0118108
0.0167582
0.00210801
-0.00167744
9.88828e-05
1.20838e-05
-0.035223
0.0335314
-0.110046
0.111738
-0.0664804
0.0312574
0.00201479
-0.00349093
-0.00657671
0.00805285
0.0537107
-0.0523214
0.00122821
-0.00261758
0.0127601
-0.0222649
-0.0197697
0.0292745
0.0361129
-0.0349774
-0.0315546
0.0304191
-0.00810227
0.00053048
-0.0334912
0.150301
-0.14921
-0.0491504
-0.0811639
0.00493698
0.0161285
0.0600985
0.000866201
-0.00254283
-0.00916592
0.0108425
0.0473797
-0.0610029
-0.0243643
0.0034885
-0.00967903
0.00161048
0.00458005
-0.0299778
0.0820949
-0.0734435
-0.0500506
-0.00586
0.0559106
0.0332827
-0.0339649
0.00068224
-0.104245
0.0346568
0.0272712
-0.0203643
0.00376947
-0.0106764
-0.0120253
-0.0313279
-0.0281981
0.0715513
-0.0089878
0.00271201
0.00450239
-0.00666026
0.0922101
-0.0901405
0.00459067
-0.00500706
0.00674053
-0.00786733
0.00613385
0.00292624
-0.0168945
-0.049843
0.0411199
-0.0120316
-0.0411744
0.012086
0.248272
-0.126398
-0.0520555
0.0371919
0.0289235
-0.0661154
-0.0610694
0.0333198
0.0649415
-0.00123152
-0.00210832
0.00113356
0.0545278
-0.0228723
-0.0369602
0.00530462
0.0534086
-0.0375488
0.00495342
-0.0208132
0.0215729
0.0268009
-0.00105513
-0.0473187
0.00220129
0.00849462
-0.00650975
-0.00418616
-0.00693882
-0.00185095
0.00783034
0.000959434
-0.00257989
0.00029914
0.00173341
0.000547337
-0.0150547
-0.0288976
-0.000285852
-0.000505761
0.0296892
-0.015292
0.000699798
-0.00257623
0.0371574
0.0212531
-0.0251278
0.0283116
-0.0202879
-0.0348622
0.0268384
0.00388717
0.000270724
0.0241537
-0.0362161
0.0176366
-0.00929993
-0.000614803
0.0201725
0.0192403
0.0810853
-0.017283
0.0380425
-0.0325391
0.0117796
-0.0607319
0.0188652
0.0490799
-0.00721328
-0.000398022
-0.0015539
-0.000114764
0.00206668
0.038614
0.0167939
0.0679704
-0.0484207
0.0110431
0.0519645
-0.0145869
0.0240138
-0.0593377
0.0353239
0.126502
0.0672336
-0.145551
-0.00107978
0.00190507
-0.00171912
0.000893823
0.00185657
-0.000921262
-0.00486553
0.0281238
-0.0294129
0.0754301
0.0664255
0.00401323
-0.0556415
-0.0147972
-0.0159727
-0.0685343
0.0668938
-0.0360438
-0.146188
0.114095
0.0681368
0.0434863
0.0527657
0.0378034
-0.0391677
-0.0322216
0.0380313
0.0333579
-0.020076
0.0223853
-0.0244412
0.0221319
0.0536791
0.000213577
-0.0051819
-0.00705403
0.00617129
0.00606464
0.043144
-0.117844
0.0663606
0.00833952
-0.0211502
0.00883503
-0.00706174
0.0193769
-0.0533179
0.00600638
0.0478287
-0.000517182
-0.0964703
0.0488647
-0.00613715
0.0537427
-0.0359755
0.0447584
-0.0148481
0.0060652
0.0237548
0.0482825
-0.0295688
-0.0424685
0.0350203
-0.0644844
0.103403
-0.108051
0.039668
0.113207
-0.0536406
0.0438363
0.0268154
0.0142889
-0.092301
0.0511967
-0.0111539
-0.0327152
0.0527085
-0.00883946
0.0141669
-0.0414054
0.0556169
-0.0490794
0.00132485
-0.03404
0.0209986
-0.066573
0.0723899
0.0588525
-0.0594683
0.000615764
0.0654896
-0.0736865
0.0416202
-0.0334233
0.0306378
0.00570893
-0.0287554
-0.00759137
-0.0467116
-0.0300833
0.0383438
0.0384511
0.0329766
-0.08487
0.00675974
-0.0679025
0.0611427
-0.000593958
0.0262224
-0.000217859
-0.0254106
-0.0596603
0.0293326
0.106436
0.00775286
-0.00648289
-0.00544015
0.00754453
0.0134488
-0.0351
0.0141067
-0.0730165
0.0973409
-0.0157092
-0.051638
0.0718571
-0.0791067
-0.0270833
0.0640862
0.0194799
-0.0564828
-0.0588397
0.0317564
0.0480595
0.0645558
-0.0720659
0.0433165
0.056658
-0.0279085
0.0357515
0.005732
0.00428951
-0.045773
0.00177347
-0.00423233
0.000587168
-0.0739829
-0.0264426
0.0287944
-0.00887224
0.00195994
0.00136595
0.00554636
-0.0355559
0.0092452
-0.0330323
0.000663406
0.00429219
-0.00110753
-0.00384807
0.00234418
0.00505496
-0.00785692
0.000457786
0.000290502
-0.000457002
-0.000331864
-0.0806232
0.0388454
-0.0337044
0.0754822
-0.00202665
-0.000624453
0.00339774
-0.000746637
0.0114769
-0.0162096
0.00284017
0.00189249
-0.00507811
0.0139327
0.00259854
-0.0114531
0.00373711
0.0200219
-0.0382532
-0.000994841
0.00125551
-0.0382458
0.0800131
-0.0417673
-0.0786318
0.040386
0.000746293
0.000122554
0.0411496
0.00515197
-0.0188385
-0.0274631
0.0071213
0.0184676
-0.106613
0.0810244
0.0196848
-0.018187
0.00551134
-0.00700913
-0.00139699
-0.00037639
0.00142673
0.00034665
0.00881261
0.000177693
-0.00417283
-0.00481747
0.009113
0.00259584
-0.0133074
0.00159855
0.0319448
0.00953229
-0.00437999
-0.00485513
-0.033053
-0.00229814
0.0453434
-0.0541413
0.048931
-0.0401331
0.0414886
0.0172071
-0.00679128
-0.0519044
-0.000949017
-0.000823036
-0.00224301
0.00401506
-0.00953966
0.0132691
-0.00432202
0.000592534
0.0328083
0.000404394
-0.0830915
-0.0781338
0.0366205
-0.00227187
0.0129345
-0.00876396
-0.00189868
-0.0693936
-0.0134791
0.0559362
0.0269364
0.0173326
-0.00671731
-0.0140159
0.00340058
0.00233977
-0.000970506
-0.00601355
0.00464429
1.57539e-05
-0.010332
0.00826364
0.00205258
0.0691672
-0.0258446
0.000232519
0.0105673
0.00259901
0.0271859
-0.0403522
0.11949
-0.0683806
0.0220866
0.0373947
-0.125124
0.0656426
-0.0431181
0.0217727
-0.059704
0.0411404
-0.00728103
0.0130882
-0.0175928
0.0371743
-0.00518939
-0.0492679
-0.0108819
0.000445796
0.0543612
-0.0439251
0.0401348
-0.0339494
-0.00640567
0.00178346
-0.00906865
0.0055547
-0.0647544
0.0346535
-0.0430876
0.0540313
-0.0541828
0.0613453
0.0237532
-0.0282226
0.000921963
-0.0217977
0.0105112
-0.0308808
0.0317509
-0.0113813
0.0321049
-0.0412405
0.00508279
0.00950819
-0.0565635
-0.064109
0.111164
0.0484346
-0.0240502
0.110612
0.024215
-0.0482651
0.0417911
-0.0694681
0.0543922
-0.0148462
0.029922
-0.0691104
-0.000357702
0.036783
-0.0314194
0.00792818
-0.0555738
0.0955839
-0.0479383
0.0727824
-0.0280712
0.00914371
-0.0405631
0.0182004
0.0335135
-0.0494562
0.0243312
-0.0347771
-0.00686755
0.0173135
0.0521883
0.0499095
0.0240035
0.0675038
-0.0518301
-0.0506922
0.0512746
-0.000582335
0.000629331
0.0686518
0.0200228
-0.0460843
0.0125566
-0.0664526
0.0538961
0.0126711
0.126827
-0.0795469
-0.0115623
-0.0288504
-0.0203192
-0.0404897
-0.00600161
0.00836704
0.00521284
-0.00597496
-0.0458341
0.112512
-0.021493
0.0373721
0.0212952
-0.00704484
0.0439136
0.00428084
-0.0550057
0.00109723
0.0172322
-0.0207857
-0.0159768
0.0195303
-0.0948339
-0.000209852
0.0301446
0.0648992
0.110444
-0.0425502
-0.0860422
0.0181486
0.0646381
0.0205668
-0.093275
0.00807005
-0.138965
0.0149889
0.0467293
0.0772471
0.0306152
-0.00637521
-0.0269455
0.00270548
-0.0022055
0.0331642
-0.0286508
-0.00230798
0.0452137
0.0369344
-0.0881558
0.00600768
0.0349616
-0.0344245
-0.0955861
0.0320879
-0.0118778
-0.0958427
-0.0937743
0.0737267
-0.0265056
0.0465532
0.0119898
0.00370959
0.0458385
-0.0615379
0.0563334
-0.017801
0.064397
-0.101673
-0.0413313
0.078607
0.0337887
0.101116
-0.0393893
-0.0602872
0.019476
0.0728002
-0.134418
0.0421422
-0.0901622
0.0664707
0.103705
0.081254
0.0198618
-0.0388545
-0.00225698
0.0589043
0.000679789
-0.0595841
-0.000421985
0.121746
-0.00440851
0.0433089
-0.160646
-0.0135252
0.051894
0.0161591
0.0283707
0.0454539
-0.0595357
-0.0143408
-0.0161267
-0.0135549
-0.00921258
0.0388941
-0.000243217
0.0777223
-0.0774791
-0.0110834
0.0341224
-0.0391657
-0.0321042
-0.0209193
0.0340755
0.018948
-0.0488028
0.000138954
-0.0409855
-0.0376463
0.00501822
0.00233059
0.00649221
-0.013841
0.000748406
0.0507784
0.0185353
-0.0116562
-0.0310329
-0.0109133
0.00941141
0.000305674
-0.0136176
0.0202343
0.0648321
-0.0441187
-0.0307493
0.0120368
0.0253397
-0.00199354
-0.035383
0.00412829
-0.00360223
0.00296537
0.0157775
0.0473958
-0.0661386
0.0625285
-0.0618581
-0.000670346
-0.025379
0.00456259
0.0133914
0.00742504
-0.00277854
-0.00285348
0.0275943
-0.0219623
-0.0290582
-0.0139685
-0.0043651
-0.00112563
-0.00991478
0.00875466
0.00228575
-0.0138063
-0.0352533
0.000256763
-0.00696076
-0.0593426
0.0524971
0.158031
-0.0432244
-0.0306561
-0.0841502
-0.0554483
-0.076507
0.0104861
0.121469
-0.052747
0.091604
-0.122563
0.0837062
-0.0841937
0.00146996
0.000615012
-0.00131349
-0.000195286
0.000216449
-0.0139227
-0.00103901
0.00605758
0.00890414
0.00974674
-0.00827745
-0.00374116
-0.00430566
0.00870696
-0.0086471
0.0042458
0.0385312
-0.0803694
0.0292627
-0.0155972
0.0280971
-0.0417626
0.0245359
-0.0107018
-0.0831289
0.11514
-0.0308671
-0.00114431
0.0421876
0.0143384
-0.056526
0.000826278
0.0397243
-0.0405506
0.00982682
0.0252594
-0.0240391
-0.0110471
0.00562859
-0.0385024
0.00425385
-0.0530512
0.0660139
0.0298945
-0.0428572
-0.0366663
0.0231426
-0.0456786
0.0592022
-0.00227689
-0.0107794
0.0179118
-0.00485549
0.00878941
-0.0334725
0.000681199
-0.0106386
-0.0529345
-0.0329895
0.0327811
-0.0538396
0.0507286
0.023944
-0.0208331
-0.000815045
0.00453811
0.00602367
-0.0389172
0.00710146
-0.0117938
0.0436095
-0.0288671
0.0486708
0.0211092
-0.0409129
0.000765488
0.00752294
0.00318847
-5.04364e-05
-0.00896512
0.00938983
-0.000374279
0.0413938
0.00176143
-0.0678788
0.0247236
-0.0221751
0.097542
-0.110923
0.0524343
-0.0326326
-0.0206102
-0.00654129
-0.00195922
0.0107018
0.00305582
-0.00942725
0.00871561
0.000930063
0.000547292
-0.00284239
0.00136504
0.0390666
0.0258435
-0.0268724
-0.0380377
0.0315341
-0.00491956
0.013127
-0.0141731
0.0032257
-0.0141161
-0.0475837
0.0220395
0.0249294
0.00497792
0.0375685
0.0037055
-0.0462519
-0.00791377
0.00328513
-0.00184733
-0.0255352
-0.0326033
-0.0255349
0.0836733
0.0301112
-0.0360916
-0.041645
0.00689935
-0.0388595
-0.0137198
0.0456799
0.00534386
-0.00622856
0.000210988
0.000673718
0.000539444
0.00394709
-0.0118636
0.0202168
-0.00767969
-0.014814
0.0163674
1.57335e-05
-0.0629809
0.0465978
-0.00550746
-0.000290378
-0.0203081
0.0261059
0.0271399
0.0146269
-0.0514791
0.0107569
0.0217077
-0.0229364
-0.00952831
-0.105272
0.0875692
0.139449
-0.00308615
0.00853935
-0.00966486
-0.0100405
0.0141725
0.0428245
1.25271e-06
-0.000568315
-0.000144517
-0.000931694
0.00127279
0.0366807
-0.0369402
0.000259535
0.0504923
-0.0500412
0.0751545
-0.0698631
-0.0299959
0.142989
-0.0626522
-0.0641094
-0.0162271
0.0806785
-0.0412353
-0.111635
-0.0331072
0.0329354
0.0749452
0.029006
-0.019491
-0.0844602
-0.00557466
0.149209
0.00666717
-0.154961
0.0422777
0.0599364
-0.0303699
0.0555757
-0.0476126
0.0224067
-0.0328309
0.0306038
-0.0102949
0.015804
0.000802056
-0.0897061
0.0451963
0.0437078
-0.0191292
0.00908483
0.0175889
0.0485468
-0.00440413
0.0349036
0.0534106
-0.0883141
0.0490324
-0.0248687
-0.0241637
-0.0172398
0.0556237
0.0182341
0.00608229
0.000283025
-0.0245994
-0.107891
0.0422156
0.127763
-0.011546
0.0304496
-0.0323763
0.0405407
0.0459273
-0.0360306
0.0487362
-0.0586328
-0.0795745
-0.0479601
0.0785926
0.0489421
0.0132758
0.0326516
0.0608092
-0.0482527
-0.000453595
-0.00746994
0.0494122
0.00022956
-0.054137
6.78775e-05
-0.0575218
-0.0336702
-0.0504888
0.0153545
-0.0133806
-0.0297926
-0.0316025
0.0390314
-0.00445744
-0.0102748
0.000809513
-0.0890627
-0.020909
0.00287293
0.107099
-0.000761267
0.040117
-0.0763717
0.0362547
-0.0883048
0.0155012
0.068448
0.00435554
-0.0568125
0.0989361
0.0363364
-0.07846
-0.00655557
-0.0440601
-0.0613553
0.147744
-0.101914
-0.080649
0.0348181
0.0017926
-0.00274252
0.082615
-0.131237
-0.0271038
0.12086
0.0168816
-0.0118798
0.155758
-0.03265
-0.170161
0.0470521
0.00827467
0.0337672
-0.0308019
-0.0996496
0.093038
-0.010031
0.0166426
0.0316953
0.00699646
0.0141836
-0.0699746
-0.100849
0.145733
-0.0304084
0.00528164
-0.0306854
0.101238
-0.0758347
0.0162203
0.037981
-0.150203
0.0960014
-0.0178068
0.125724
-0.0541058
-0.053811
0.0159435
-0.034449
0.0769991
-0.0584936
0.0376609
-0.0591539
0.108008
-0.0918634
-0.0883909
0.0722466
0.0531628
-0.105798
0.0044368
-0.0299962
-0.0465066
0.0500371
-0.0649375
-0.0856101
0.10051
0.0678446
-0.0392159
0.0368609
-0.0374765
-0.0344241
0.0719006
-0.0399144
0.109256
-0.0285107
-0.0168885
0.00532111
0.0214228
-0.0804519
0.0789717
0.0759436
-0.0633113
0.04659
0.100497
0.0884929
0.00200151
0.0650269
-0.0670284
0.0292882
0.0117099
-0.00653817
-0.0344599
0.0619945
0.0175459
-0.0625243
-0.0170161
0.102719
-0.100212
-0.0308455
0.0283391
-0.00995348
-0.0162015
0.0706473
-0.0444924
0.0707519
-0.0854546
0.0811282
0.062197
-0.023561
-0.0101016
-0.0285345
-0.000860973
-0.0321286
0.000606641
-0.00235768
-0.0371662
-0.123678
-0.00364869
0.0963456
-0.0613367
-0.0313602
0.028867
0.00993463
-0.00796127
-0.106594
-0.0394946
0.0796365
0.0493502
-0.00340014
-0.0109478
0.00331591
-0.00388392
0.00406843
-0.0268674
-0.0358282
0.0397242
0.0229715
-0.000964702
-0.0610004
-0.0638034
0.124804
-0.0631658
0.1112
-0.0480347
0.00982075
-0.00401246
-0.00379351
-0.00724741
-0.00310001
0.00844059
0.00190682
0.00163083
-0.0155668
0.0112867
0.0026493
-0.0115158
-0.00203443
0.010265
0.00328519
-0.0012836
0.00987309
-0.00772329
0.00499505
-0.00448484
0.00261681
-0.00312701
-0.0707717
0.097555
-0.0367368
-0.006961
-0.00959622
0.00533954
0.00111649
-0.00136747
-0.005764
0.0039302
0.000378371
-0.00846713
-0.0846607
0.0202148
0.0602876
0.00415833
-0.00826979
-0.00169681
-0.0654507
-0.066413
0.0916462
0.0698018
-0.0791738
-0.0282139
-0.00619111
-0.0485999
0.0939733
-0.0453735
0.0447471
-0.113647
0.070311
-0.00141072
-0.113045
0.109736
-0.00779115
-0.000525609
0.0906485
-0.00150606
-0.00117958
0.0300466
-0.0105988
-0.00348635
0.0196108
0.0275272
0.00275792
-0.0302851
-0.00502417
0.030169
-0.0248727
-0.000272048
0.0531446
-0.0830189
0.102866
-0.0729919
0.060786
0.0332596
-0.0406371
-0.0288877
-0.0169532
0.0293546
0.0320984
-0.061453
0.0581925
-0.0385966
-0.0622005
0.0426046
-0.0293533
-0.0512699
-0.0661146
-0.0591275
0.0241099
0.101132
-0.0313182
0.0606728
-0.0212237
0.020171
-0.0250067
0.0195701
-0.0398124
-0.000981304
0.129221
-0.00983729
0.0467788
-0.0875374
0.0833589
-0.0024818
-0.00620828
0.00683375
0.0237057
-0.000852104
0.0489393
-0.0480872
0.130439
0.0491398
-0.106586
0.068617
-0.0365187
-0.0580642
0.00529964
-0.0402182
-0.0403637
-0.0127709
-0.0504571
0.0632281
0.0507168
-0.0639372
-0.07527
0.0534482
-0.0662191
-0.0161189
0.034817
-0.0543195
0.0356213
0.00975495
-0.00539627
-0.0235353
0.0191766
0.035131
0.0345677
-0.0688966
0.0876836
-0.00528955
-0.117858
0.0354639
0.0206094
0.0480076
0.0746316
-0.0180323
0.0144293
-0.0710286
0.0390079
-0.00495564
0.0895244
0.0117876
-0.119344
-0.0267359
0.0229599
0.0233461
-0.0145268
-0.00401386
0.00787233
0.0106683
0.00121307
-0.00763998
-0.00482543
-0.000610966
-0.00392521
0.0213016
-0.0167654
0.0112799
0.00700286
-0.0450187
-0.0250739
0.0475904
0.0198564
-0.0423728
0.00115136
-0.0185228
0.0544041
-0.0370327
0.0391162
-0.0240686
-0.0404959
0.0254483
0.0666629
-0.0464853
-0.000685937
0.00829497
-4.52942e-05
-0.00756374
-0.000758591
-0.00141632
-0.000404972
-0.0486256
0.00112997
0.0187238
0.0287718
-0.00360119
0.0128796
0.00763545
-0.0169138
0.00123726
0.000426449
-0.00193065
-0.0810351
-0.000900918
0.000665136
0.0812709
0.00412278
-0.00791726
0.0527802
-0.0540795
-0.065569
0.00163929
0.0551887
0.008741
-0.000334619
0.0186089
-0.0719693
0.053695
-0.0750617
0.0186314
0.00198576
-0.00208465
0.000862667
-0.00107506
-0.00134151
0.0022233
-0.00135583
-4.81259e-06
-0.00525994
0.018381
-0.0110737
0.0217223
-0.0290295
0.0356663
-0.0153725
0.0130335
0.0133214
-0.0374285
0.0744925
-0.00596761
0.00512654
-0.0736514
-0.0501433
0.063616
-0.0350777
0.0472302
-0.0477496
0.0569688
-0.0183553
-0.0954261
0.0710053
-0.00219295
0.0121226
0.061622
0.0376904
-0.00320955
0.0685961
0.0489666
-0.0461792
0.0337251
0.0124541
-0.0622968
-0.0635605
0.0286198
0.0552307
0.0150857
-0.0547251
0.106915
-0.0665302
-0.11983
0.0679685
-0.0347695
0.025398
0.0458201
-0.00243941
0.138723
-0.0418483
-0.0944357
0.0230644
0.0168881
-0.0399525
-0.0678226
0.0630786
0.0900701
-0.085326
0.0535171
0.0373297
-0.0912898
0.000443002
-0.0153257
0.0207202
-0.0313651
0.0242135
-0.0135686
0.0616812
-0.0858383
-0.10746
-0.0248906
-0.0222503
0.0532354
-0.0935934
0.0132691
0.0141115
0.0799782
0.0509874
0.0382897
-0.0328584
-0.0564187
0.0386876
-0.0374054
-0.00554476
0.00426259
0.00399891
-0.0606463
0.0329193
0.0237281
-0.0118488
0.0126935
-0.00309731
-0.00631127
-0.147477
0.150393
-0.0127402
0.0448668
-0.0912757
0.088932
-0.0134986
0.00456131
0.00120468
0.00773263
0.0287912
0.00524694
0.00963877
-0.0436769
0.00205124
0.00371433
0.0520711
-0.0537578
0.120955
-0.119268
-0.0110981
-0.028282
0.00227171
0.0371085
-0.0164148
0.127022
-0.0625479
0.0321917
-0.0429717
0.0617674
0.00207537
0.0582422
0.0595013
-0.057426
0.0362575
0.0393415
0.0338062
0.0414108
-0.0169748
0.0435832
-0.0540523
0.000331581
0.0101375
-0.00330949
-0.0223386
0.0343909
0.0448433
-0.0292626
-0.00527943
0.0302997
0.00424245
-0.0419992
-0.00348267
0.0143664
-0.0002359
-0.0409031
-0.000860194
-0.0389525
-0.00568013
0.0087905
-0.0397967
0.00185089
-0.00100662
-0.00135517
0.00260327
-0.0363996
-0.0845577
0.00750782
-0.0498951
-0.0777372
0.0247725
0.00022272
0.0018862
-0.00496189
-0.00361338
0.000298461
-0.00429806
0.00157781
-0.00208783
0.00331068
-0.00175891
0.000536069
-0.0165908
-0.00343803
0.0163363
0.00369253
0.00387131
0.00219617
-0.00520258
-0.000864892
0.0107586
-0.00490764
-0.0356142
-0.0591277
0.0726605
0.076135
-0.0611119
0.0553081
-0.0252534
-0.0300547
0.00120158
-0.00123685
-0.0042628
-0.000215715
0.0448687
-0.0381963
-0.00645667
-0.0101593
0.0183493
-0.0963352
0.0881452
-0.0033429
-0.0195012
0.0226284
0.0349951
-0.0547051
0.0265707
-0.00669762
-0.0201635
0.000217197
0.0554965
-0.0651672
-0.0620835
0.0717542
-0.0196784
0.00178284
-0.00218535
-0.036371
-0.0593736
0.0600576
0.0156127
-0.00312487
0.0439476
-0.00300301
0.00978405
0.0122972
-0.0112293
-0.0207462
-0.00265976
0.0159117
-0.00296523
-0.0233759
-0.0241037
0.0127026
0.00177399
-0.00516332
0.0453014
-0.0225872
-0.0118147
0.00902285
0.000119435
-0.00285376
-8.04194e-05
0.00281475
-0.00496839
0.00317901
0.00129898
-0.154074
0.0290969
0.036985
-0.0358459
0.00383875
0.0317922
-0.0545702
-0.0188626
0.0416405
0.059509
-0.0313852
-0.00151335
-0.103059
0.104572
0.0509561
-0.0101411
-0.000680207
-0.00287946
0.00253617
-0.00984271
0.010186
-0.000171381
-0.00168718
-0.0110786
0.00121725
-0.00589135
-0.00157683
-0.00709646
0.00399425
0.00657046
-0.00346825
0.00669759
0.0316165
-0.0389346
0.000620454
-0.0127574
0.013037
-0.0535975
0.00412435
0.00692651
-0.00255624
0.00529992
-0.000637283
0.000332409
-0.038931
0.0289086
0.0100381
0.00373804
-0.00267504
0.00399196
-0.00699778
-0.0130115
0.000188868
-0.0442994
0.016415
-0.0116517
-0.0189874
0.0142241
-0.0131199
0.000494562
0.00611563
-0.00119018
-0.00605029
-0.00711573
-0.120857
0.118983
-0.0009707
0.00284381
-0.00542771
0.0146929