/*--------------------------------*- C++ -*----------------------------------*\
| =========                 |                                                 |
| \\      /  F ield         | OpenFOAM: The Open Source CFD Toolbox           |
|  \\    /   O peration     | Version:  2506                                  |
|   \\  /    A nd           | Website:  www.openfoam.com                      |
|    \\/     M anipulation  |                                                 |
\*---------------------------------------------------------------------------*/
FoamFile
{
    version     2.0;
    format      ascii;
    arch        "LSB;label=32;scalar=64";
    class       volScalarField;
    location    "0.0440925";
    object      omega;
}
// * * * * * * * * * * * * * * * * * * * * * * * * * * * * * * * * * * * * * //

dimensions      [0 0 -1 0 0 0 0];

internalField   nonuniform List<scalar> 
3926
(
91.15
44.9644
91.7527
230.757
131.077
490.205
700.925
908.65
397.675
837.002
703.49
100.888
44.6046
147.224
46.7209
46.1079
85.719
46.5788
125.042
71.3621
97.2089
165.288
149.042
131.996
58.9229
121.929
116.852
230.905
255.213
182.702
200.164
68.7362
169.886
112.652
72.775
122.271
658.538
64.1969
46.7365
80.5027
207.471
935.473
63.8961
49.5554
45.1448
825.359
61.6328
107.414
720.579
62.3837
93.2475
995.499
364.758
733.359
49.0153
68.7211
1025.05
382.17
78.0932
337.495
49.6992
277.331
698.115
67.2817
658.807
499.076
618.591
312.576
436.852
596.401
403.063
45.4494
384.621
49.7793
84.1952
553.409
68.483
290.228
82.7488
46.6201
134.828
67.2416
538.742
1050.29
96.5995
60.8045
54.4152
127.461
538.293
47.2153
46.7128
70.8641
111.563
267.483
60.4355
1036.51
62.7
72.962
345.651
88.1605
200.793
63.2841
91.2401
66.3869
245.769
183.325
69.4701
57.826
60.5681
53.8465
100.167
66.6154
55.9317
64.0526
47.1996
399.235
141.797
45.5057
566.577
610.139
63.3923
63.7488
47.2348
96.4815
56.2281
73.1316
303.917
57.3275
213.133
82.6838
64.5995
64.1293
58.9397
63.2387
804.707
776.521
669.181
533.427
676.257
109.272
87.6862
46.033
83.4415
114.508
55.5142
209.952
78.7202
156.809
66.8687
74.9761
89.4511
102.075
75.9943
121.813
161.14
196.63
73.6866
229.438
152.76
196.528
101.569
58.0073
65.6292
288.235
435.934
63.3875
49.5987
44.604
59.9492
162.672
1120.08
82.5364
48.5502
46.4977
63.0188
91.0502
63.8508
411.166
163.935
69.4481
1040.84
80.3739
564.68
103.743
46.0677
80.4023
90.4922
52.5198
112.283
90.6045
500.326
61.7132
237.367
53.8601
56.057
46.8556
60.0779
51.6946
56.7953
757.575
73.1185
744.215
394.111
57.4971
53.9174
157.425
48.3897
754.232
69.5011
50.7396
45.1941
52.2075
94.2824
113.982
47.7943
173.536
51.4289
93.5834
84.7275
120.524
61.9897
99.822
78.5111
556.616
70.4867
531.942
862.639
80.5947
47.0228
68.4175
60.8136
211.07
104.337
51.8478
86.6233
88.2694
74.7614
146.403
745.636
83.7369
645.485
58.9158
204.104
308.765
45.5941
74.0135
732.315
71.4926
46.9898
1007.23
525.737
1030.66
973.015
177.035
64.4725
558.616
809.824
79.0815
144.813
883.745
644.63
613.501
64.1991
336.496
440.359
71.0971
49.0702
96.9968
84.058
614.347
481.747
788.857
59.9517
90.2749
65.7943
128.813
48.1808
80.8857
46.1355
50.0091
401.717
733.759
97.8693
51.432
218.374
406.589
262.236
377.972
645.151
191.502
146.136
45.2648
54.75
324.738
44.9971
115.491
55.1765
78.0757
70.0811
788.136
1008.53
165.713
54.7137
103.217
55.9468
231.577
1017.01
81.2685
52.775
537.115
711.355
206.858
234.913
50.7892
104.89
86.2649
63.3845
72.7816
196.016
81.4508
255.125
49.2322
849.695
164.993
181.492
65.905
436.622
129.799
750.598
62.136
113.708
49.6627
51.3103
45.1042
53.3318
44.728
92.6057
587.786
447.018
497.191
232.648
647.687
82.8077
47.0337
60.7242
93.116
391.84
241.986
398.215
533.337
515.816
541.564
509.941
604.703
438.206
612.912
439.25
583.39
84.4839
48.6923
56.9911
45.1163
135.847
104.923
529.884
144.839
91.4178
51.0146
181.716
85.1359
137.007
48.8099
454.372
49.8824
216.652
64.6762
94.95
53.8939
347.852
74.7402
48.1148
105.896
93.6484
140.219
61.5957
52.1211
155.157
238.111
97.2614
76.8329
607.671
54.0222
870.78
94.2362
71.4077
83.64
92.1995
45.0041
81.6108
61.266
83.9858
82.4451
54.4013
51.8491
109.495
120.366
85.264
48.7063
108.76
121.75
48.1746
722.714
209.136
132.241
61.2793
58.5822
68.4944
594.009
55.6738
48.0252
47.9521
97.8668
80.9433
116.325
63.177
51.8639
68.6399
47.1721
81.8346
65.1631
83.9637
89.2117
175.845
68.9089
45.7404
47.2348
78.002
55.6316
446.574
48.9876
57.6376
855.541
927.655
89.5629
285.875
772.51
185.426
499.767
51.3072
45.1972
941.171
73.2558
107.28
575.826
98.7337
230.148
203.984
87.1048
79.8742
152.143
116.291
157.445
110.484
54.1273
71.493
48.223
58.1002
831.102
77.9517
75.9739
147.549
66.0797
59.7492
58.3832
128.068
123.339
67.7376
125.84
49.9523
187.692
167.099
96.6823
45.0587
59.1753
47.7036
68.4815
419.017
154.16
106.161
995.225
73.2557
155.45
734.539
778.413
97.2374
179.316
267.873
84.0429
168.857
476.53
109.239
435.884
80.8472
110.812
171.927
568.453
53.5477
116.299
47.4318
364.796
131.109
915.349
802.811
95.7383
162.189
271.979
678.186
143.268
915.715
502.786
682.699
660.409
496.843
271.537
736.349
92.4085
105.621
310.26
370.891
107.995
48.9084
47.9268
61.2376
45.2773
406.854
466.556
728.856
862.493
147.644
93.9539
138.199
414.544
707.502
940.236
1101.66
491.407
387.658
84.481
81.0216
96.4015
93.5806
109.282
252.234
47.1022
48.9346
276.974
110.118
211.616
279.928
82.3628
77.3456
115.667
69.6162
62.0916
62.3906
65.7897
573.985
470.912
339.698
1088.81
58.8
55.2014
52.6484
52.5671
51.8018
278.595
114.608
84.6016
585.686
55.1786
373.627
69.6401
109.43
53.682
114.387
148.421
652.678
51.0415
49.4208
49.9413
275.106
83.8592
539.202
617.255
691.62
45.7075
163.845
630.215
344.46
264.71
145.329
61.0317
69.2602
54.1854
45.3256
45.1743
63.5437
196.167
165.374
371.914
280.917
107.232
218.441
51.6624
46.0444
47.7259
45.9462
97.3493
46.5259
48.8086
49.8103
139.726
97.958
63.4088
555.106
439.236
257.803
57.305
65.3959
57.3792
49.3769
65.6374
51.075
53.6669
205.244
52.4681
48.5804
207.45
150.345
463.887
117.155
96.3085
64.1575
93.2098
446.311
69.0164
74.353
97.2058
90.4289
127.756
49.2826
85.0606
81.7969
75.3257
50.1094
123.307
90.7034
78.5155
82.762
157.89
181.763
73.7758
57.2856
83.805
101.539
89.6367
75.1663
760.64
87.6177
58.17
72.5404
45.2848
45.1358
66.9944
66.4676
71.2447
136.681
76.3798
57.2997
102.017
49.8006
55.0913
104.688
388.377
124.792
55.1747
47.348
46.5963
45.2612
44.4753
111.086
80.0845
250.385
110.71
90.4378
46.4799
45.9736
45.8599
181.133
60.466
58.4999
58.9774
73.0579
50.4301
55.4951
50.3549
58.4066
81.1667
183.116
130.872
50.3772
51.6315
49.0153
52.1646
45.1719
54.0476
49.3244
102.384
134.262
126.364
56.2415
56.7366
48.327
51.8874
47.6297
47.4233
45.3385
45.4233
45.0781
77.938
52.3418
62.2202
79.8376
54.7235
60.9064
85.8651
60.6277
93.3346
49.8052
47.8292
50.5118
53.7935
317.924
53.9629
48.4578
50.7997
53.1436
50.948
50.8926
44.9061
44.538
44.4547
44.9422
44.9039
68.2053
80.2896
536.797
94.5295
469.133
62.4933
762.485
61.8081
78.6522
60.5193
242.635
72.952
302.018
247.161
69.6154
869.321
45.7933
751.547
797.825
126.343
45.5803
230.52
262.21
46.2363
45.8189
82.5138
77.6283
376.532
84.7172
74.7742
45.1355
47.2653
47.609
50.1169
119.612
56.2205
53.1259
48.0785
49.1187
189.545
72.4655
59.8234
74.2832
45.4004
53.2467
86.0575
261.372
77.8387
561.066
58.2122
81.6522
999.032
721.952
79.0928
75.2213
71.0197
50.2014
327.115
57.3111
57.8554
92.0814
49.7568
45.1873
48.3019
58.8797
50.2479
309.671
169.112
780.559
106.452
78.7893
58.9511
87.1501
1067.25
138.158
1040.35
45.2822
45.3192
619.042
583.716
263.735
80.8901
45.2638
69.6675
45.3341
810.924
53.1971
50.0711
478.071
58.102
52.7158
104.362
201.05
97.0899
78.5786
116.368
63.0883
833.08
81.8563
50.0049
808.94
252.994
52.2087
367.376
675.777
50.7777
762.112
46.7669
49.6432
55.6228
170.977
60.1795
62.0468
46.4228
960.95
630.378
834.547
112.576
506.116
103.287
48.7834
80.017
57.8553
56.4879
282.674
144.964
359.011
50.3629
46.6946
123.897
71.2792
107.467
502.435
72.1276
78.0527
100.446
96.8594
48.9529
62.7813
82.6936
399.969
47.3383
301.894
55.1361
47.0944
85.4472
209.615
709.132
145.782
80.4877
211.929
56.0693
71.3357
55.4803
949.657
156.044
72.9125
1218.2
44.7806
85.8661
55.9367
78.0268
860.061
198.692
354.822
111.623
111.609
47.4131
87.3249
184.716
52.6054
50.6861
423.927
186.83
257.009
137.269
115.407
91.963
1031.68
429.876
69.0949
64.4993
118.641
48.6938
850.089
868.891
86.7235
45.2999
56.74
44.948
45.9605
80.9392
59.4186
59.5972
132.971
771.129
353.209
148.605
48.9161
90.0427
648.628
290.194
722.283
321.008
73.3595
47.4958
124.324
207.707
564.777
80.2205
65.8294
105.951
81.6071
405.629
52.1377
619.84
665.925
117.703
108.453
48.1502
84.4459
114.515
419.838
195.468
89.4936
69.2606
63.7647
53.6374
77.904
87.7021
168.2
61.5348
49.3317
48.707
97.7892
566.888
86.5419
583.273
871.49
487.518
279.009
129.14
58.7387
56.0076
123.549
139.8
127.299
57.3488
588.575
446.988
78.5188
68.9052
90.4558
78.0601
787.389
73.0644
60.4852
64.6538
126.825
78.2856
272.128
87.7413
221.112
49.9915
47.9228
68.0264
774.536
140.14
88.723
784.954
854.112
162.858
65.0927
92.0282
78.6224
45.8964
45.4466
44.6587
87.6428
50.9071
58.5286
233.872
59.4549
742.325
129.711
72.7716
51.2685
557.374
50.8722
57.1745
79.6247
764.349
58.8597
86.248
48.0981
889.001
56.1527
103.971
66.7303
563.116
236.729
530.145
58.5447
256.519
418.875
173.131
60.7478
233.583
266.428
920.706
56.5066
50.7407
57.1479
61.2706
55.6438
817.341
61.3238
63.9472
350.362
173.759
889.924
117.927
47.5401
46.7631
304.515
122.446
86.8363
55.8331
46.0666
45.5296
47.1918
45.7603
45.5781
45.5699
47.5278
47.5749
55.2684
126.613
54.4782
53.4854
46.6517
45.4753
44.8674
122.963
47.5275
47.3544
45.1312
44.8585
46.8797
52.7991
921.222
612.473
70.5541
567.4
52.7333
48.6728
47.1314
50.5071
52.0502
49.123
619.059
935.46
997.891
64.8657
53.3868
255.897
357.147
89.1108
68.8359
156.865
100.616
604.925
172.44
60.9019
82.7083
59.247
427.081
227.727
154.799
453.541
84.6326
178.257
86.4119
60.2609
489.464
351.185
59.6629
1030.45
517.223
215.28
209.527
255.194
86.7098
655.668
100.771
50.1385
311.681
141.295
430.747
417.618
307.595
485.812
302.089
351.682
179.37
44.8826
913.106
85.8962
262.72
133.549
56.775
46.834
960.619
942.844
429.366
499.22
625.636
77.6617
333.231
1054.65
132.774
803.441
881.059
234.206
150.753
107.287
48.3771
55.6046
80.7489
56.3927
400.665
914.409
708.352
966.033
734.673
1059.76
403.05
894.835
68.1887
46.7453
49.1397
49.7638
46.0379
73.7367
145.423
384.419
363.777
585.111
98.1683
48.2162
612.373
833.202
766.211
525.877
175.887
63.1238
901.43
1124.05
1071.61
58.7649
301.154
46.0612
409.072
261.37
406.256
328.527
77.6047
139.784
164.233
663.666
782.129
565.22
927.83
667.421
800.545
960.998
942.155
180.571
113.772
139.653
80.3062
67.5003
44.5944
81.6163
54.7585
69.9478
56.008
46.4086
54.6844
47.6531
130.749
50.2668
49.2674
45.2413
49.1647
199.461
47.1427
106.532
70.6209
70.553
57.91
100.782
85.5818
146.114
65.7597
108.157
203.818
420.138
219.163
280.016
49.2199
56.9522
51.6526
63.4797
67.4414
69.2231
51.2796
46.5492
88.5502
441.286
48.4318
178.15
59.9062
76.4561
99.9939
65.7477
744.888
64.7413
71.9771
78.7076
55.1746
56.0263
91.6472
50.6243
306.267
158.639
47.7223
57.0172
78.7333
101.398
927.272
185.822
48.4791
195.734
160.541
169.943
656.322
252.184
131.734
255.655
189.844
803.394
70.1046
56.7217
91.9138
53.6745
138.838
51.1881
70.8065
46.5277
44.8174
44.4554
47.1163
91.2763
90.6373
48.5552
47.4998
50.0713
109.223
71.7779
109.293
46.7438
50.0908
121.859
113.989
1044
170.461
161.615
1044.07
690.136
441.955
274.457
95.6105
68.8764
50.0127
50.926
83.1154
82.2468
511.777
78.3812
273.303
779.084
274.1
381.946
104.15
47.2966
93.39
52.4775
51.6014
68.7235
64.4732
60.1545
59.8358
53.9859
67.6705
58.2723
100.456
358.586
1029.55
69.973
70.8711
84.9753
45.3
47.5465
47.5881
64.7684
77.6281
361.941
57.8952
53.6495
162.79
80.9293
45.6281
61.3387
45.1005
412.689
186.656
69.3088
62.6248
47.308
49.1387
409.087
52.1468
116.131
499.208
60.2304
234.375
245.196
63.3651
261.777
51.322
51.3415
831.232
62.8166
53.0509
54.9765
52.4675
63.719
66.4401
47.4364
58.864
45.0705
215.749
305.577
1040.04
189.838
167.25
81.9915
1023.7
45.611
52.8213
94.2266
83.2132
50.9567
45.1491
47.7742
60.3347
53.2162
60.3894
409.392
90.0849
204.336
99.5624
274.225
198.044
70.5515
188.019
445.677
235.588
90.5885
82.3779
1006.3
1025.12
291.163
101.777
92.7434
444.124
106.027
234.239
157.301
83.3977
82.9045
216.87
52.0688
134.379
47.3109
360.545
134.033
110.678
351.738
686.857
72.1074
65.539
92.9922
352.7
97.98
56.2413
649.866
602.795
150.976
66.6659
48.8935
49.0965
108.68
46.7393
67.0366
108.658
59.9874
385.073
617.345
67.244
89.6869
131.911
98.857
635.209
49.2633
847.905
943.694
46.6656
71.3789
48.1561
68.4912
429.741
59.8622
434.309
57.9233
63.4312
611.012
58.9181
178.998
419.943
72.1316
83.8018
73.3456
110.738
51.2618
45.4267
131.943
57.274
62.5638
130.144
50.5065
70.3749
214.741
251.327
853.812
631.578
134.293
381.889
51.0506
68.3269
76.1964
73.5119
58.4171
54.6219
78.4813
46.9006
63.9979
96.7449
78.5774
100.881
81.1092
115.51
48.5627
48.4048
97.0363
50.7306
372.146
63.8853
55.6219
53.3386
71.7776
57.4732
57.4548
173.07
206.59
184.716
202.393
233.756
352.4
73.3173
63.3795
61.2443
54.9506
602.055
58.6566
56.9543
93.9375
47.3409
688.776
212.183
70.1098
80.5544
89.6748
419.742
56.7573
46.9712
85.4296
68.1672
709.783
64.1752
70.5441
292.726
49.5265
163.574
48.4868
190.547
157.404
152.709
72.696
408.16
77.8943
771.35
55.3304
729.35
362.567
173.831
52.1658
61.3075
104.893
120.202
364.262
714.992
365.239
53.6836
162.148
617.499
127.111
476.205
370.448
277.599
671.058
61.7415
47.0937
47.777
47.9899
530.813
853.408
95.7272
241.703
1102.21
115.272
109.786
120.48
173.471
321.33
59.2045
138.522
84.4107
49.2963
49.8945
48.9797
59.3272
47.5736
45.9122
250.503
183.728
272.827
213.124
216.407
758.848
171.783
215.503
235.127
197.966
219.959
195.776
172.828
44.5583
83.3658
367.109
60.9409
57.13
263.069
667.687
272.927
963.663
61.1541
887.921
491.141
1084.67
761.242
86.0411
1016.25
724.04
346.295
970.387
936.053
612.641
160.48
701.774
79.3984
400.622
49.2285
644.251
432.491
250.874
246.009
517.114
608.41
146.056
200.807
194.996
573.12
572.127
311.08
1008.95
123.099
239.416
361.914
611.326
551.418
65.6538
48.9278
204.13
88.3411
164.729
243.967
107.549
713.64
719.997
442.355
273.146
394.45
355.162
45.8736
994.727
62.7766
1084.77
1151.49
113.798
947.631
97.7795
844.035
366.697
172.073
83.445
51.7154
48.8078
59.9312
78.9398
373.34
648.577
402.954
68.3433
766.717
808.205
1245.43
336.648
47.342
1064.96
1339.77
640.251
1051.32
45.2828
800.195
830.484
828.1
54.4336
46.2891
324.704
57.225
81.879
461.698
354.641
63.3265
58.6609
106.613
77.3083
54.5708
83.2269
59.6073
63.3602
53.8195
59.6189
52.4976
217.37
944.35
90.0671
161.765
201.564
80.9378
62.7958
48.6448
70.0906
67.7201
72.3294
89.0995
92.488
74.0801
62.9914
80.6316
74.7032
46.5198
250.818
52.0327
45.3681
77.7295
1026.6
53.7143
75.8701
54.9352
62.8657
449.29
360.365
177.178
680.26
45.4875
46.3203
177.149
309.852
1074.73
396.712
569.058
951.472
481.921
467.017
735.105
58.0501
373.106
377.101
431.133
70.243
680.401
48.5784
49.9314
105.203
78.8053
73.251
162.528
148.239
73.1011
68.5137
51.1639
127.066
204.857
837.318
293.568
337.916
167.855
234.341
412.661
404.139
185.151
126.034
1138.01
49.6401
187.148
464.853
47.6592
55.5526
92.6494
126.24
91.156
63.9562
398.727
81.8562
59.7499
695.924
85.7488
272.29
169.02
53.8728
62.6127
66.6345
48.3856
156.18
821.851
49.7208
63.7131
48.4722
50.3591
52.5444
48.3851
48.0853
44.5312
90.7802
50.1379
54.9617
73.988
50.1083
68.0005
60.3675
47.9986
1070.31
97.7873
63.9868
265.396
72.2445
56.2273
76.8386
210.952
69.6921
86.3933
57.9685
57.0101
101.991
64.8995
45.86
50.6289
45.0927
46.0825
275.844
283.365
67.4246
54.8207
689.659
59.9581
100.499
109.137
264.947
269.178
257.198
236.901
1039.87
1031
788.385
977.287
766.296
144.706
57.9895
63.1681
67.2876
434.513
94.9031
408.808
52.112
52.4837
75.5745
115.544
66.2208
54.3199
812.663
60.3244
84.5211
489.87
88.8798
80.9195
89.12
69.8619
129.568
144.572
872.65
63.6319
154.35
92.2478
58.0947
50.5806
45.2088
44.6212
105.507
79.689
50.6477
45.1468
65.5973
46.4802
78.0027
55.9923
56.281
155.317
70.7228
111.656
66.034
52.4023
867.672
236.544
197.854
169.971
1237.17
188.872
50.7705
74.0815
63.1266
871.483
74.6339
50.2605
69.2564
53.4116
134.921
544.306
75.303
67.6307
118.329
75.9738
66.917
774.314
50.8413
96.8899
52.2044
55.2756
458.551
77.0221
865.943
222.663
50.0345
47.2103
48.5732
74.4519
120.733
280.157
772.849
580.566
99.7637
90.5083
156.657
727.127
167.944
149.959
508.278
207.133
1171.29
1052.55
92.6947
1284.89
1035.91
992.977
884.944
49.458
126.079
67.7892
44.5566
46.1003
48.9481
161.707
54.4849
449.21
59.7847
819.331
272.402
45.8231
51.6959
54.7022
61.3384
61.8353
85.2109
346.321
800.592
219.123
813.513
985.976
136.829
234.385
65.4217
59.7915
214.553
842.983
407.222
73.4846
46.3385
50.5611
56.8802
47.1605
53.2283
44.8391
58.1953
47.6051
66.3685
95.5109
64.3196
51.7017
54.4443
69.8837
162.461
254.255
866.792
958.676
70.1767
237.832
75.9088
739.075
117.432
425.274
87.6869
107.845
652.356
74.7216
74.9171
78.7925
100.43
82.3101
976.471
1166.79
64.7974
491.493
630.407
828.448
962.51
81.0182
117.802
148.854
49.7113
74.0369
55.7578
60.877
671.745
85.9584
137.234
62.6255
58.5723
222.153
619.177
956.668
168.111
617.467
446.224
589.662
431.428
59.3276
52.3273
340.737
56.5845
554.748
103.65
287.53
60.0151
61.6249
55.5496
113.055
145.84
86.5011
94.9622
47.2771
72.9702
76.3188
62.2994
211.126
282.3
146.084
894.144
182.505
842.173
387.2
543.127
126.242
80.115
47.6748
62.1081
47.1725
44.7294
55.9354
63.7256
98.8621
59.9463
76.2625
58.5797
858.424
125.377
57.6316
728.865
282.734
158.315
261.551
76.9221
572.552
181.973
511.353
55.7176
198.506
475.796
482.78
175.485
1000.76
115.647
305.054
52.1639
62.002
68.0423
55.5109
52.6924
50.6548
152.434
53.3694
449.422
46.496
227.803
156.525
907.97
417.686
77.8282
73.1463
293.865
48.9753
103.878
169.796
135.145
52.5
473.501
64.8579
76.9693
64.1269
155.359
50.7031
93.7528
49.3639
130.064
160.461
102.261
95.5183
46.0503
45.6088
52.4046
49.0497
48.2401
136.878
108.521
797.693
524.198
701.75
931.161
84.1062
93.813
117.888
931.447
91.4545
518.23
898.588
144.298
48.3978
125.807
253.391
478.67
46.4047
135.086
49.9943
57.8681
53.9721
122.318
128.655
82.658
146.035
71.4215
62.5603
68.2855
75.1604
88.634
103.438
582.663
302.525
176.482
360.93
237.949
181.732
211.405
163.938
156.73
52.3894
64.872
51.1667
59.5139
57.4652
141.865
68.5985
58.9695
48.7269
62.1427
61.7371
55.05
45.4289
54.1152
78.3497
55.5624
751.299
77.5466
45.1047
46.1274
427.184
864.672
367.499
414.778
58.4969
85.4657
78.2394
80.1098
84.8797
87.4186
69.7093
940.774
501.635
196.944
84.6802
425.432
53.787
738.084
62.9543
905.864
137.295
290.126
477.985
1026.29
1195.34
660.387
676.208
363.947
92.1
84.7721
798.356
68.6502
71.4661
51.3456
452.542
56.4523
50.5529
46.4455
50.8817
56.9574
222.435
914
118.147
72.2368
52.58
45.245
45.4902
178.212
152.898
82.9118
191.241
45.5214
45.2979
63.1391
81.8143
84.8874
675.787
156.757
456.903
404.475
843.564
370.703
831.786
846.184
821.437
652.807
755.191
866.13
792.586
331.87
765.281
245.191
321.327
58.4907
322.346
55.709
103.152
68.9328
79.3417
81.5341
186.222
45.464
145.778
230.085
148.401
194.582
167.498
841.572
88.6417
558.986
507.31
78.6704
376.45
96.9327
796.214
804.745
48.2001
48.5638
52.5711
51.0069
47.9785
49.5323
46.3159
69.8529
133.211
682.291
1008.13
140.35
349.154
98.4759
65.5174
64.1785
986.646
276.26
70.56
67.4767
59.3345
882.336
80.8117
61.8322
58.3879
571.43
343.556
314.052
68.7511
67.8686
83.9658
99.3657
97.4036
867.599
97.5921
228.048
861.951
252.651
73.0829
89.6403
579.919
78.4899
151.713
45.2587
44.6391
49.8561
93.7703
69.1806
62.9905
61.5415
209.464
217.011
402.558
506.144
325.591
306.844
163.311
100.524
106.247
83.0255
62.8311
76.6486
57.5026
66.7315
66.9472
61.2197
89.2504
176.583
55.9829
56.6459
94.699
47.7806
47.7797
51.9106
50.2143
49.5325
45.2585
45.8115
84.1083
91.5874
159.249
57.7463
73.5274
98.7538
70.2788
77.8817
66.7036
69.8495
45.3773
152.18
80.6033
68.7163
259.474
54.2521
300.491
61.8775
49.2139
50.6681
49.8241
69.6265
751.2
46.0611
635.117
126.465
80.762
84.0622
51.6053
80.7177
136.945
44.5046
58.6537
89.1819
70.0063
69.3359
82.8403
69.2196
66.6573
133.059
536.246
73.2478
66.6696
75.1476
62.3847
151.47
242.103
216.045
109.518
155.575
76.7963
162.149
294.502
50.4871
47.0489
49.3335
55.8178
46.8547
352.558
45.4632
51.6601
57.6143
1127.85
791.263
348.034
774.869
111.737
705.754
819.072
145.095
487.963
61.0297
89.491
111.925
135.14
190.446
97.4801
82.0146
48.4406
64.4178
89.1004
282.917
50.3521
58.3414
84.8474
87.725
491.807
61.8523
58.607
76.717
55.2901
49.3839
101.85
54.4011
49.4689
46.4456
45.3342
44.4566
45.1002
45.0307
49.1545
66.8717
46.1378
46.1217
47.1919
45.4997
89.3636
52.4535
51.5637
64.0686
50.6834
60.5675
77.1071
58.148
224.51
66.2074
72.7988
45.5075
75.5394
56.1151
56.0887
52.8694
47.4578
51.0571
50.8644
161.174
49.3958
120.359
274.699
46.165
107.613
81.107
79.452
49.1945
62.8986
63.5593
127.411
85.8675
104.16
90.8454
53.1085
45.0125
50.1295
45.5949
50.2689
48.7259
44.7852
45.7298
49.0135
47.9973
178.351
46.4133
50.642
157.205
117.786
130.766
302.997
77.2688
63.3815
63.4631
46.3349
47.1203
121.177
49.7058
48.5502
49.0882
56.5036
109.723
48.5234
104.331
46.5508
48.6652
72.2311
187.168
88.614
202.183
58.203
56.6235
68.2303
90.5498
69.7766
48.384
47.3437
47.6192
49.4633
51.7192
155.712
69.7025
76.5136
61.5989
68.7585
112.869
45.3204
53.5557
49.5677
52.9764
55.1762
72.2806
489.411
133.14
890.875
272.258
52.5455
117.666
80.1528
676.291
89.171
45.6253
45.5555
51.7635
51.3777
57.254
46.7457
47.0378
45.5749
53.9521
533.888
281.78
46.1484
46.0647
52.2852
59.7346
407.122
203.104
195.381
62.7934
159.454
91.4783
137.272
125.818
217.565
483.609
61.4759
77.4775
71.514
78.2041
365.053
396.981
76.0748
70.0816
624.637
55.0566
46.4569
99.5922
45.9582
89.0976
66.8852
57.4352
55.7742
128.199
47.0531
97.7071
315.846
72.9237
45.6228
45.5096
57.3134
45.4616
90.7198
44.9571
45.2657
47.0684
224.233
54.568
49.9766
71.0839
126.59
54.2066
53.8276
51.7571
142.11
80.3508
98.3039
71.6533
715.353
245.431
71.2507
423.696
154.39
545.684
46.1393
83.3738
137.274
69.3619
77.2602
136.334
67.262
89.6379
928.441
195.554
44.5156
62.7127
96.2508
48.8418
50.6574
44.901
97.1311
129.918
64.3133
1090.23
76.173
116.655
69.7679
121.931
146.148
79.5939
105.463
70.5387
67.2719
161.507
117.821
72.8092
103.809
63.2567
195.129
67.7349
79.5206
130.152
316.974
54.7778
45.5332
45.2834
51.5726
54.7951
166.113
47.7683
61.2066
463.951
121.479
172.154
326.812
102.454
98.1437
65.0037
57.3726
52.3956
48.1636
59.2623
50.5365
44.7229
92.6828
77.3376
825.201
979.328
74.6121
62.5981
62.5076
139.639
536.856
662.531
120.843
651.445
204.239
82.9658
181.765
179.236
103.814
942.097
104.709
86.3479
439.921
511.54
49.4459
80.3196
50.9072
45.2011
86.9349
45.4163
45.4672
86.7112
66.9808
718.193
450.412
63.5645
318.133
168.617
83.2065
104.422
463.588
544.288
93.0898
132.248
142.894
60.0233
46.3594
46.3759
47.4459
97.2692
57.5142
57.7111
936.74
241.384
125.755
69.9356
78.4548
354.664
59.3394
69.967
66.3488
45.7506
58.7404
263.465
162.266
195.777
63.9014
58.9439
55.4465
65.7578
698.137
87.8389
85.6062
60.2726
85.6709
79.2605
187.898
206.759
82.6139
121.494
55.9121
61.9704
178.583
50.5673
93.5603
57.6863
66.1971
67.4039
425.358
238.443
129.724
85.1141
111.283
762.84
821.097
122.026
71.0549
245.405
540.767
76.7161
751.821
193.777
340.856
54.0993
177.161
102.102
55.7526
98.7402
59.7582
60.5353
208.168
49.5196
54.5437
71.8215
471.363
65.5059
59.6017
56.6549
47.7294
185.869
352.786
722.273
79.5516
60.922
331.677
176.518
76.6725
315.413
52.5366
52.2784
48.0825
206.565
150.961
76.2349
48.717
104.624
500.869
209.537
47.2767
50.2524
76.3283
227.371
54.6308
138.844
720.747
962.876
855.082
80.0171
90.2676
68.1908
124.065
791.326
139.85
126.455
110.771
166.509
50.8333
45.4317
45.3888
60.8504
71.4974
227.526
74.2921
65.238
78.6407
92.3191
168.486
511.401
478.069
80.9683
141.766
700.534
143.146
307.461
216.796
131.206
174.423
63.4967
612.234
175.494
153.165
84.798
471.784
54.5888
78.6047
67.3644
49.8348
606.734
60.2786
611.102
58.584
85.2444
66.4949
111.248
65.2256
340.796
221.445
75.7107
52.7851
48.1419
136.305
310.988
729
624.437
52.617
436.496
49.1908
68.5734
338.791
75.7406
431.712
870.708
45.1617
518.792
63.7733
64.6732
51.4247
57.7788
54.8764
134.886
452.975
61.766
329.694
131.822
424.166
60.0053
119.381
61.0539
61.5249
50.8825
702.522
258.79
48.0335
415.642
44.7302
69.4232
111.513
254.879
692.726
71.9317
127.127
234.141
149.832
176.819
79.1902
82.1356
191.502
935.361
142.732
347.604
932.669
94.7203
113.104
84.1367
71.6287
890.771
48.0108
51.2313
590.3
94.1139
694.248
46.7344
46.3673
47.0456
50.2805
47.7615
57.9691
63.1979
100.378
63.26
64.2517
79.66
48.0734
48.1008
262.012
766.273
47.9339
807.676
135.453
93.876
85.5536
72.1027
246.12
101.261
210.153
232.356
76.7391
615.677
58.257
44.6984
45.993
50.3193
173.803
79.0628
164.142
211.18
74.7165
99.3355
933.213
54.0797
53.5536
833.886
996.14
221.122
464.852
605.115
321.131
589.922
331.609
428.001
148.467
295.606
199.296
159.716
883.601
746.869
776.03
256.613
83.8437
975.042
475.25
342.569
85.6207
340.106
696.213
147.105
266.572
166.056
79.5647
226.908
155.672
891.79
777.246
1049.5
147.632
77.3221
664.318
433.131
604.793
56.9871
50.4215
1010.25
796.615
75.3447
62.9804
61.4148
845.905
1136.47
1089.66
51.1414
53.1219
57.672
70.3653
50.0096
93.6902
51.5806
357.319
341.271
879.216
978.851
682.156
800.387
531.879
119.321
84.1865
58.1362
225.677
216.677
86.6237
49.3714
52.0174
168.213
130.392
580.11
44.4788
72.0447
121.52
95.9771
65.7536
117.396
69.8794
214.416
81.1644
630.897
579.121
68.2726
50.1483
91.6773
1032.27
720.137
916.205
85.1301
789.463
740.596
45.6054
882.06
866.411
990.848
94.9615
47.9794
53.0006
47.6134
58.9022
48.1307
50.876
45.6566
45.3871
759.043
586.159
650.802
498.466
536.179
773.948
45.0668
45.2948
51.0672
45.8439
866.638
47.1517
52.794
58.9906
51.9769
58.0857
69.5729
63.1331
57.5972
52.3608
46.2563
647.995
45.6865
46.1174
53.8119
48.5553
73.3051
91.3712
46.0059
46.1909
672.222
119.475
108.789
58.9099
47.653
52.6429
176.44
118.896
304.929
193.708
45.5395
45.7552
127.002
88.0668
826.884
921.408
600.967
745.273
184.382
93.2847
88.7676
53.0256
47.6539
49.5186
50.588
96.6268
78.1472
229.736
62.515
222.732
58.0662
46.3659
94.9914
45.9889
47.1374
47.0522
128.877
45.4015
55.258
125.005
45.9646
146.377
51.1768
45.3026
46.7393
47.5971
52.2505
61.3119
455.456
59.7
213.963
81.5944
52.8413
118.451
177.635
95.633
175.939
798.235
122.388
96.1761
196.993
380.451
116.517
75.7188
330.608
903.274
88.8038
134.956
705.782
86.0872
108.837
79.9843
159.794
742.087
946.548
425.891
766.888
967.677
150.87
126.803
138.527
61.6525
93.0786
65.6016
89.7007
82.7686
73.4201
92.9126
76.4266
70.041
81.7866
80.4419
171.559
120.173
161.924
275.01
50.2574
47.7334
46.9521
47.2023
55.0508
46.1492
47.9111
52.0982
145.633
79.8004
52.8152
57.3135
73.5263
46.7126
46.0173
48.5577
48.2426
47.3165
156.529
317.978
510.261
328.057
677.122
544.513
69.2102
666.783
324.025
55.0103
44.7705
593.783
458.412
68.1343
278.187
77.8999
67.6588
49.2666
47.3426
105.269
141.186
102.592
118.438
54.2362
50.6581
50.9761
225.891
98.6865
78.123
78.8194
60.6961
1015.21
117.921
242.308
61.4168
90.4506
255.605
163.342
113.017
85.4335
70.8125
85.0153
1079.74
131.831
115.254
69.3182
76.934
813.631
566.707
886.986
555.286
334.88
48.2051
58.5348
48.4495
46.3352
155.764
205.89
46.1506
228.869
117.155
97.4307
531.679
66.3797
57.6871
53.4053
94.5704
104.216
162.969
539.661
136.457
65.3699
367.15
140.185
60.746
769.138
117.521
66.0815
83.7399
133.071
531.043
617.47
294.854
480.911
189.75
197.271
256.925
45.055
44.5521
46.2693
48.3545
53.3585
46.4776
47.4526
128.067
263.004
753.225
129.127
156.921
189.095
677.079
632.681
86.424
70.7709
51.0063
758.808
89.9264
929.604
58.1348
60.2276
49.7121
77.4981
992.201
127.472
89.9045
205.18
63.0959
73.7578
110.624
716.515
385.227
108.007
50.6067
76.3687
51.8284
81.5799
158.215
131.337
68.9
166.331
80.5604
81.2265
152.051
73.6783
70.0656
212.734
82.7458
83.3338
291.911
52.3007
76.9886
58.7473
69.6206
68.5865
65.6994
61.6911
57.9316
70.3417
81.0276
50.8214
47.2681
50.2974
58.9577
76.5704
107.472
130.355
59.9998
161.268
438.019
45.0909
46.0016
300.617
44.7301
93.21
837.618
952.392
245.254
45.1041
62.214
64.5559
47.4214
47.3005
48.4641
54.187
48.1962
57.4098
160.063
49.2241
50.2057
123.166
895.086
69.968
392.237
144.616
107.471
153.15
97.3021
237.787
96.6846
188.857
742.69
132.147
108.535
249.727
485.521
776.366
51.5138
459.441
131.639
141.556
593.995
123.331
314.402
545.77
101.302
561.023
57.9848
48.0891
69.2005
65.6763
70.2277
74.9523
101.936
74.6099
48.1348
60.5219
49.2741
306.959
129.254
277.939
53.9053
509.748
329.094
101.077
108.92
403.011
261.975
81.5618
55.9491
67.5965
103.058
60.3743
120.084
114.5
90.3703
117.353
104.34
47.3014
61.0385
60.1557
59.05
49.9805
119.461
44.924
162.5
46.326
44.4523
184.686
51.74
62.7918
108.264
59.1549
107.118
47.3364
60.3435
53.0353
53.5733
54.1229
59.9306
52.5486
50.0856
83.5661
117.154
99.5228
70.6127
47.9636
47.242
46.1633
64.0364
64.4109
55.596
52.0056
55.1166
60.8633
61.9885
118.156
62.0857
93.5981
66.8114
99.6788
63.3576
84.1455
86.3655
54.9397
134.673
68.5602
62.5886
46.5783
146.41
46.6507
46.5372
81.6955
88.2926
164.889
155.585
53.726
50.9559
52.2548
47.1553
47.9568
175.72
108.681
108.564
263.583
214.241
105.803
198.2
90.2806
92.6445
153.232
71.7423
75.404
113.716
105.048
147.323
147.372
186.066
286.601
331.892
600.136
518.029
519.819
376.081
525.034
564.265
80.7704
83.0487
80.6041
517.383
179.636
140.617
170.351
129.71
166.156
123.346
81.4931
85.5219
86.2589
85.9219
117.021
96.8216
63.5768
61.2602
75.4879
71.2064
78.1691
99.2189
95.2514
116.805
61.4288
44.9639
45.538
44.8457
229.912
123.145
63.3051
129.326
72.9809
112.455
67.1688
62.9753
78.3431
54.4972
312.235
229.063
247.174
114.948
226.462
134.888
279.192
241.109
379.842
310.933
483.775
584.026
81.9724
769.132
442.495
72.0995
754.862
1124.49
817.56
812.431
172.509
222.273
457.95
62.2171
91.6062
73.452
436.266
99.3301
694.761
901.397
282.129
112.092