/*--------------------------------*- C++ -*----------------------------------*\
| =========                 |                                                 |
| \\      /  F ield         | OpenFOAM: The Open Source CFD Toolbox           |
|  \\    /   O peration     | Version:  2506                                  |
|   \\  /    A nd           | Website:  www.openfoam.com                      |
|    \\/     M anipulation  |                                                 |
\*---------------------------------------------------------------------------*/
FoamFile
{
    version     2.0;
    format      ascii;
    arch        "LSB;label=32;scalar=64";
    class       volVectorField;
    location    "0.0440925";
    object      U;
}
// * * * * * * * * * * * * * * * * * * * * * * * * * * * * * * * * * * * * * //

dimensions      [0 1 -1 0 0 0 0];

internalField   nonuniform List<vector> 
3926
(
(10.7123 0.242346 -0.599757)
(9.21253 0.0798737 -0.210435)
(8.70524 0.102535 -3.89456)
(4.09354 0.0273261 -4.151)
(4.31395 0.025055 0.753393)
(2.97173 -0.385084 -6.64356)
(5.68657 0.085765 -11.2195)
(7.55118 -3.74492 -2.53866)
(12.0672 0.108864 -0.333523)
(0.80212 -1.81168 -2.01274)
(12.0935 0.628522 -4.0467)
(10.5541 0.275831 0.456641)
(9.28541 0.206572 0.157396)
(10.4894 0.000814735 -0.253499)
(8.64713 0.241173 -0.54089)
(9.28862 0.126736 -0.380154)
(10.8462 -0.140278 -0.696161)
(9.09883 0.299841 -0.860893)
(6.84992 0.375594 -4.99008)
(9.87164 0.0573882 0.413816)
(8.75935 0.339014 -4.05865)
(5.13369 0.719056 -4.64112)
(5.67375 0.293866 -3.63777)
(10.6844 -0.0210839 -0.322274)
(8.10379 0.277278 -2.39168)
(5.06316 0.276453 -2.25308)
(5.94717 0.142546 -2.92184)
(4.11709 0.00479087 -3.72987)
(3.83898 -0.07014 -4.60022)
(10.806 -0.10633 -0.251634)
(11.9587 -0.0737973 -0.0496618)
(8.10178 0.317828 -3.30609)
(12.0036 -0.0872942 -0.0210384)
(12.1238 -0.0959662 0.148653)
(12.5724 0.0424259 -1.1753)
(12.0753 -0.0869158 0.0138348)
(5.46498 -0.489111 -0.0869733)
(8.24489 0.302207 -2.73164)
(8.31451 0.0592076 0.0450425)
(10.1072 -0.143473 -0.652486)
(5.77357 -0.651578 -5.32567)
(11.3372 3.55843 -5.08728)
(11.5546 -0.124036 -1.59866)
(9.51829 0.320922 -0.84275)
(8.77955 0.0364055 -0.0278576)
(8.46547 -0.00464956 -0.180738)
(11.1251 0.134924 -2.15214)
(13.1236 0.0421279 -0.833666)
(1.44927 -0.15879 -6.21488)
(7.79611 0.167626 -2.29398)
(7.68627 -0.168814 -3.55598)
(6.33451 1.66249 -1.99058)
(1.15699 0.03411 0.0942084)
(9.60379 -0.692302 -11.1873)
(7.97492 0.114004 0.125131)
(11.0851 0.053744 -2.35135)
(7.62861 0.452766 0.361374)
(1.98959 -0.658419 2.81013)
(8.5423 0.171877 -3.68436)
(1.09728 -0.311257 5.74641)
(9.47731 0.0514756 -1.28078)
(13.3486 0.580391 -2.34007)
(7.17139 -0.77927 -0.0979937)
(6.45304 0.25216 -0.894358)
(12.9112 0.334009 -5.07545)
(13.1726 0.33884 -5.75573)
(13.4178 -0.285887 -4.28486)
(13.3574 0.0813351 -4.07411)
(9.79415 -0.011979 0.833594)
(12.9259 -0.621962 -6.59674)
(9.95462 -0.0738786 8.49993)
(8.98066 0.295692 -0.0270269)
(9.62078 -0.0666525 0.960808)
(9.67343 0.0203287 -0.118603)
(12.1643 0.0939873 -0.581848)
(-0.350899 -0.689301 2.33641)
(11.8328 0.129217 -1.10677)
(3.97232 0.165904 -4.94494)
(6.33106 -0.0246058 1.99633)
(8.70564 0.299152 -0.652888)
(4.02725 -0.0689003 0.81158)
(8.0006 0.148827 -2.79911)
(12.7994 -0.0549803 -6.40911)
(2.40116 -0.372589 0.521801)
(9.78828 -0.149593 0.114958)
(10.0104 -0.533392 2.73343)
(9.80279 -0.0129825 1.1307)
(9.75498 -0.118217 0.0192272)
(12.7873 -0.745157 -3.40751)
(8.35275 -0.13609 0.704375)
(8.81907 0.186638 -0.79353)
(7.31406 0.249547 -2.59093)
(7.84784 0.0886834 -4.35171)
(11.4913 -0.0837106 0.00226169)
(10.328 0.00177718 -2.39391)
(10.0902 -0.633366 -3.24999)
(11.0597 0.145047 -1.36433)
(12.6326 0.0634228 -0.94191)
(1.86663 -0.420465 -3.42642)
(12.6748 0.170988 -1.68673)
(13.1819 0.775715 -3.83214)
(7.17482 0.272227 1.79953)
(11.0409 0.120384 -3.82817)
(7.22651 0.066139 -2.56464)
(9.63407 0.67292 -6.17709)
(7.75335 0.475082 -6.44353)
(7.88369 0.30509 -2.8787)
(9.63261 0.0565913 2.30626)
(8.2469 0.259161 -2.60203)
(9.3232 0.241052 1.9602)
(8.03134 0.103087 -4.23241)
(7.88724 0.299911 -2.53828)
(7.37519 0.512428 -0.560552)
(7.57219 0.29995 -2.27362)
(9.14663 0.138872 -0.702492)
(1.2837 -0.0369609 -1.19811)
(4.72956 0.429802 -3.13292)
(9.21235 0.240982 -0.300113)
(6.97917 -0.0151539 -8.58135)
(2.531 0.0082574 -6.68931)
(9.89596 0.221132 -0.642207)
(9.83291 0.211817 -0.596045)
(8.68339 0.366586 -0.834602)
(7.82506 0.233959 -4.01314)
(8.83881 0.367954 -2.15738)
(8.58032 0.235842 -3.18096)
(13.2363 0.466464 -1.9104)
(7.65367 0.586624 1.34335)
(10.8456 0.348748 -5.81716)
(8.57511 0.0131315 -3.8781)
(9.12108 0.333097 -3.03232)
(9.81659 0.261296 -2.93795)
(10.8143 0.140119 -2.38961)
(11.5526 0.162036 -2.05629)
(0.934364 0.328 -5.7743)
(0.900824 -0.0684439 -6.66561)
(1.69659 0.318009 -7.126)
(7.69863 -0.731898 -8.33281)
(5.07687 0.7825 -8.13895)
(5.01498 0.137874 -2.02665)
(10.0112 0.111633 0.511275)
(8.87955 0.233056 0.484059)
(6.01779 -0.0408638 -2.30498)
(5.56555 -0.159985 -3.21963)
(8.11797 0.527044 1.9629)
(3.93879 -0.0841921 -3.66275)
(5.82033 0.252841 -0.483806)
(6.70641 -0.125291 -4.79084)
(7.70595 -0.0389247 -2.47861)
(7.04944 0.0731354 -2.52707)
(5.83494 0.671291 -2.25075)
(5.77376 -0.176428 -2.99797)
(6.3392 -0.0798048 -1.92646)
(4.95124 -0.298604 -2.83911)
(4.32683 -0.233402 -4.0283)
(4.98961 -0.115912 -4.7912)
(6.85452 0.350991 -2.31223)
(3.99706 -0.668277 -4.73681)
(4.15324 -0.401909 -3.04486)
(3.96972 -0.469655 -3.76389)
(12.3414 0.0920252 -2.61761)
(8.74517 -0.251033 -1.92553)
(7.37851 0.305407 -2.31295)
(1.98538 0.342072 -0.920951)
(2.58665 0.00977792 -5.44039)
(6.69233 0.175476 -0.669225)
(7.89499 0.170021 0.764453)
(9.11866 0.0642707 0.0811783)
(10.8496 0.195588 -1.40862)
(4.82722 0.376597 -4.54276)
(10.5024 -2.8735 -3.48817)
(12.258 -0.149633 -0.422016)
(9.13004 0.209496 -1.21501)
(8.53029 0.418463 -0.119308)
(10.1024 0.271821 -2.9526)
(12.7265 0.210953 -1.8108)
(7.85285 -0.0783034 -2.29917)
(2.209 -0.0605821 -3.75849)
(6.23815 0.254748 -4.53699)
(9.14257 0.235624 -2.82724)
(0.469483 -0.349254 -3.38339)
(10.2915 0.176156 -0.531376)
(0.853011 -0.534033 1.17034)
(10.3152 0.156999 0.57022)
(9.40915 0.223708 -0.228368)
(9.84109 0.322528 -3.73593)
(11.5921 0.106111 -3.12538)
(7.63507 -0.178461 0.83715)
(6.60279 0.181407 -2.67534)
(7.26916 0.263182 -2.90766)
(3.27393 0.385528 -6.17929)
(8.13339 0.228165 -2.77227)
(3.95906 0.435659 -5.03509)
(9.31894 0.280285 -2.21753)
(8.58479 0.129747 -2.08483)
(8.71241 0.421548 -0.211322)
(10.7595 0.217345 -1.59476)
(7.58134 0.276847 0.412248)
(9.62325 0.262315 2.38907)
(5.18844 0.250257 -11.6234)
(6.15704 -0.183746 -0.369779)
(9.33097 1.14568 -9.13463)
(2.67338 -0.744809 2.79349)
(9.51314 0.265075 -2.70903)
(9.0161 0.266478 -2.17513)
(6.42898 0.527311 -4.5194)
(8.16058 0.299521 -0.61488)
(1.24486 0.0246498 -3.02581)
(10.5686 -0.282335 -2.93664)
(9.48865 0.167484 -0.496875)
(9.30539 0.129057 -0.260134)
(8.75189 0.338901 -1.73595)
(5.6084 0.183966 -2.22469)
(12.0655 -0.0642232 0.0922406)
(8.90686 0.15628 -1.03491)
(3.62597 0.013626 -1.46035)
(7.95083 0.0500001 1.19954)
(6.85717 -0.022802 -2.99298)
(7.60795 0.239715 -3.31839)
(6.50024 0.118172 -2.92012)
(10.7184 0.119814 -1.34693)
(12.7202 0.0355045 -2.61017)
(11.5659 -0.0977939 -0.983871)
(8.96921 -0.131649 0.834283)
(12.4749 0.0570832 -0.62726)
(1.36767 0.0533371 -2.85186)
(1.47023 0.0400601 -5.55694)
(9.43908 0.103432 -3.70751)
(9.04019 -0.102673 0.470756)
(12.2911 0.205498 -1.39661)
(11.0182 0.343232 -1.15452)
(3.67423 -0.294603 1.78619)
(10.8771 -0.329353 0.523904)
(8.60423 -0.0980475 1.59813)
(11.3571 -0.232743 -3.36307)
(5.7231 0.160015 -0.647169)
(12.6489 -0.109944 -0.760759)
(4.24389 -0.00623752 -2.77452)
(9.8823 -0.117066 -0.47793)
(10.5103 0.33389 -3.48689)
(6.82081 0.139538 0.00150642)
(10.8669 0.258732 -1.95389)
(11.5687 -0.14671 -0.092389)
(2.34225 -0.165752 -1.82655)
(9.43283 0.213996 -0.170555)
(7.20581 0.4889 2.55697)
(1.06441 0.0611804 -6.24658)
(9.86966 0.360525 -3.2127)
(8.47073 0.429388 0.418166)
(8.02834 1.98781 -4.09577)
(4.00502 -0.517134 -8.04651)
(1.51442 0.616428 -5.58853)
(6.67205 0.564602 -0.868478)
(11.6964 0.501741 -4.80394)
(11.5985 -0.224818 -1.58687)
(0.807996 -0.202301 -0.160994)
(7.49452 0.0877289 0.239551)
(11.4833 0.285242 -2.90452)
(10.2422 0.432871 -5.2676)
(6.6869 1.01483 -12.1378)
(7.01352 -0.360701 -8.96726)
(1.63473 -0.208987 -5.86728)
(7.34525 0.154772 -2.08487)
(2.60701 -0.35334 -2.65192)
(2.04024 -0.763216 -4.54083)
(12.5121 0.0520241 -0.516292)
(9.48485 0.163733 0.555391)
(6.09669 0.166753 -1.8199)
(5.81891 -0.173476 -0.72302)
(6.00623 0.0166663 -0.112584)
(2.07788 0.0740137 -5.28652)
(13.141 -0.143441 -7.40523)
(10.3549 0.0763541 -1.26687)
(12.835 0.12665 -1.58057)
(9.75569 0.189968 -2.96778)
(8.12706 0.222232 -4.64935)
(9.27613 0.0967089 -0.826603)
(10.117 0.310393 -3.79012)
(8.57934 0.300203 0.309752)
(9.37741 -0.0384491 -0.968863)
(4.31919 -0.0287826 8.6169)
(5.97701 0.15504 -0.253777)
(10.5402 -0.0903464 -0.36458)
(7.44968 -0.216613 0.363841)
(12.421 -0.158661 0.477097)
(10.0428 -0.29793 1.11385)
(13.0018 -0.165132 -3.79831)
(13.2356 -0.335663 -2.40173)
(5.53408 -0.257258 0.15365)
(10.2876 -0.0669588 -5.86482)
(7.00105 -0.0375064 -4.63159)
(9.16894 -0.120511 -0.265832)
(7.68375 -0.125875 -1.38127)
(13.7988 -0.189853 -2.22669)
(9.36208 -0.156057 0.0467019)
(5.10464 -0.0226031 -2.57446)
(10.0181 -0.0630747 -1.97782)
(9.79537 0.241478 -3.6357)
(10.0306 -0.0969776 -2.9904)
(0.920587 -0.0135269 -2.59642)
(6.29352 1.54759 -0.895411)
(6.21972 -0.287267 -4.44715)
(7.31465 0.0193614 -0.73264)
(7.56339 0.068311 -3.98519)
(8.24497 -0.308828 1.99189)
(13.6142 -0.208645 -2.91466)
(11.6233 1.64388 -4.52387)
(12.8214 -0.0523352 -0.603895)
(8.92908 -0.0409871 -1.70657)
(7.75995 -0.0983821 -8.45951)
(13.2373 -0.683197 -5.49152)
(9.40529 -0.66404 5.30876)
(3.30736 -0.125499 -3.53041)
(9.64893 0.164047 1.46163)
(12.6187 -0.288776 -2.18037)
(12.5441 -0.0452026 -0.0570861)
(7.13315 0.0820365 -1.64863)
(9.97731 -0.0514287 -0.631338)
(5.80381 0.010112 -4.57422)
(12.8054 -0.0428133 -0.511529)
(13.5466 -0.259576 -1.07241)
(9.44139 -0.226798 -1.13308)
(3.06959 -0.506004 -11.6797)
(3.45275 -0.23414 -1.84153)
(4.50449 -0.378416 -4.1103)
(8.53746 0.0598639 -2.81355)
(13.0543 -0.363964 -1.55707)
(4.14873 -0.230385 -1.04238)
(9.27104 -0.771405 -0.453635)
(11.2294 -0.0542844 -1.71633)
(4.84986 -0.185646 -2.24624)
(8.06363 -0.110259 -0.860733)
(9.59212 -0.176917 -0.376308)
(9.12281 0.0209402 -0.342359)
(9.55631 -0.0571892 1.07779)
(9.2886 0.0135579 -0.152907)
(6.99947 0.351108 -3.48514)
(0.631781 0.0962408 -0.438191)
(1.16504 0.343242 -0.191409)
(0.197945 0.640897 -0.223767)
(2.38425 -0.706299 0.956389)
(0.723866 0.43565 -0.21929)
(12.8604 -0.0450298 -0.293148)
(9.19775 -0.173749 -0.588494)
(9.31625 -0.0483189 -2.54527)
(10.1422 0.14804 -0.322636)
(1.5617 0.0304468 -0.0293072)
(2.6826 -0.429832 1.97832)
(1.78067 0.470631 3.83843)
(0.262964 0.223584 0.722302)
(0.101455 -0.249633 5.77969)
(0.218664 1.47648 1.21977)
(0.0471906 1.14895 0.183165)
(-0.251156 0.243862 0.602009)
(6.23553 0.0698308 0.730889)
(6.97146 -0.0134619 0.649714)
(6.77292 0.332859 0.548486)
(4.21956 -0.242292 0.363464)
(12.2417 -0.037298 0.0951612)
(9.04584 -0.228808 0.808796)
(9.1427 -0.312703 -2.5122)
(9.4446 -0.0831904 -0.110071)
(13.3673 -0.366795 -0.538261)
(13.0814 -0.195417 -0.649524)
(12.9941 -0.487808 -1.46568)
(9.17936 0.291533 -5.16048)
(12.4133 0.111608 -2.15591)
(8.69847 -0.0350398 1.74778)
(8.58841 -0.35764 4.58297)
(11.2748 0.119978 -0.652393)
(11.1604 -0.135378 -0.369448)
(9.32397 -0.204592 -0.814136)
(3.90137 0.807281 -6.50784)
(8.15272 0.174592 -0.971252)
(13.6033 0.557786 -2.57531)
(9.44691 -0.0611456 -2.87255)
(5.13232 0.0756701 -0.360593)
(7.77659 0.0784854 1.37861)
(2.34783 0.206279 -3.72543)
(5.95149 -0.0323616 0.923901)
(9.04488 -0.251609 -0.966201)
(13.0105 -0.124611 -1.57662)
(5.87455 0.253143 -2.46129)
(4.43835 0.698826 -2.20294)
(8.97763 0.564121 2.38906)
(9.06853 0.092766 1.93107)
(11.2692 0.10803 -4.74968)
(12.732 0.194518 -0.0229235)
(12.8495 -0.168173 -1.44481)
(12.66 0.0222517 -0.295081)
(5.68342 0.0639421 -0.688561)
(9.16821 0.153235 2.17536)
(8.74965 -0.179326 -0.617785)
(12.41 0.128655 -2.86004)
(9.65136 0.164491 3.36423)
(12.6807 -0.252744 -0.967222)
(7.93824 0.486916 -4.01396)
(9.24834 0.278437 -0.0143709)
(6.60818 -0.020375 2.21017)
(9.70314 -0.0100844 -0.096359)
(10.441 0.226295 -0.645277)
(11.8913 -0.0760384 -0.733786)
(7.8759 0.327946 -1.6646)
(9.65902 0.258768 -1.89662)
(6.44347 0.353727 -3.5832)
(5.90083 0.319787 -2.33736)
(8.28984 0.193298 -3.62723)
(9.32638 -0.0954981 -0.85811)
(12.5789 -0.100472 0.334062)
(9.76276 -0.00356226 -0.0382899)
(8.18497 0.488094 -0.0234847)
(10.3305 0.265581 -10.0519)
(3.97904 -0.0265164 2.55657)
(4.73912 -0.293382 -2.13893)
(7.76691 0.0405362 2.5506)
(6.84775 0.0744536 0.774394)
(8.72449 0.0939166 -2.97962)
(6.6173 -0.283188 0.460751)
(7.42761 0.039742 -1.33924)
(9.51456 -0.0160132 -0.273324)
(8.65017 -0.276635 0.985395)
(10.3584 -0.0792687 0.404093)
(9.98365 0.367708 -3.77099)
(7.82559 0.328804 -4.31132)
(6.51709 0.133929 0.536361)
(9.2542 -0.137242 1.21484)
(6.70306 -0.401476 -1.42501)
(9.16507 -0.221659 0.616702)
(9.91043 -0.236569 0.184553)
(9.87439 -0.194156 0.0498534)
(6.05561 0.352003 -1.96548)
(9.93748 0.275711 0.231017)
(13.3313 0.14991 -1.40593)
(12.066 0.0774612 -2.04569)
(9.0308 0.147736 -0.497956)
(8.70757 0.163938 -0.8506)
(5.88752 0.269846 0.059397)
(9.70005 -0.128864 0.729284)
(6.5045 -0.298682 0.338583)
(8.86568 0.15637 -1.32052)
(8.37636 0.214295 -2.35686)
(10.5534 0.838443 -12.2076)
(1.26367 -0.577587 -4.50356)
(10.4686 0.0898567 -0.558925)
(10.1725 -0.432811 -5.87255)
(11.0385 0.675554 -13.5958)
(4.69654 0.304232 -4.62429)
(10.5602 -0.163458 0.440199)
(9.24057 0.302313 1.60649)
(9.37641 0.105259 -0.183393)
(3.44314 0.2409 -0.035801)
(11.0781 0.268198 -3.01906)
(9.89784 -0.253673 0.0944887)
(3.85478 0.640688 -7.81125)
(10.3072 -0.114155 -0.334719)
(13.3143 -0.202719 -3.3457)
(12.9132 -0.22416 -3.62501)
(12.478 -0.0038236 0.316948)
(12.5114 -0.0745225 0.094394)
(11.9806 -0.0879145 0.073407)
(10.1882 0.161651 0.286617)
(4.78057 -0.106499 -3.26242)
(9.96368 0.213224 0.132915)
(8.69007 -0.248647 -1.68019)
(9.84053 -0.0389844 3.19221)
(8.24863 0.126936 -0.413818)
(10.6795 -0.28991 -2.22652)
(11.4996 -0.0588061 -9.84446)
(11.4849 -0.148503 -2.75291)
(11.2569 -0.169929 -0.980093)
(10.911 -0.235335 -0.365151)
(10.8169 -0.180506 -1.27424)
(9.69892 -0.184156 -0.493938)
(9.73428 -0.179793 -0.604028)
(12.0616 -0.412315 -3.58982)
(10.7707 -0.205143 -4.6733)
(11.458 -0.134872 -2.44798)
(9.87729 -0.180204 -5.10869)
(9.58565 0.39462 -0.9942)
(7.67099 -0.629193 4.8244)
(6.83316 0.248448 4.22798)
(13.0407 0.147215 -0.725264)
(9.10076 0.251054 0.256468)
(7.04345 0.676499 0.710612)
(9.52223 0.213843 -0.220294)
(12.106 0.294638 -0.843434)
(7.24278 -0.900963 6.8092)
(5.10674 0.74435 -3.85727)
(10.2811 0.0614663 -4.15803)
(10.7885 -0.106178 -11.2804)
(6.36057 0.139647 -1.39539)
(6.82918 0.124164 -4.76185)
(12.8182 0.159557 -4.28724)
(12.6907 0.839397 -7.67468)
(12.9765 -0.169032 -0.425481)
(12.8651 -0.057595 0.230314)
(12.8049 -0.0919452 0.202493)
(12.8967 0.077639 -1.20532)
(11.8675 -0.0479126 -4.7689)
(13.0945 -0.55448 -5.02209)
(11.8923 -0.213483 -3.55159)
(13.1181 -0.287626 -3.20389)
(8.75701 0.498004 -3.87251)
(7.99964 -0.0804245 -4.34651)
(8.10032 -0.0408756 -5.19232)
(6.7114 -0.0413918 1.02917)
(8.03309 0.12754 -1.64755)
(12.4083 0.0472281 -3.24255)
(8.96721 -0.227914 -0.861092)
(12.1575 0.102061 -0.082455)
(4.29308 -0.129405 -1.56858)
(8.41984 -0.532234 -1.21448)
(4.90151 -0.908622 0.308208)
(5.65279 -0.0741481 -1.95602)
(4.97849 0.121483 -4.36541)
(3.90088 0.222548 -5.3768)
(5.77776 0.345226 -8.65816)
(4.93851 -0.392234 -4.39002)
(11.0151 0.70416 -8.68834)
(9.36765 0.056113 0.483448)
(6.24001 -0.67673 0.784296)
(2.81019 0.267906 -7.76376)
(-0.0449169 0.173817 0.0579094)
(5.77249 -0.594333 -6.22233)
(1.55351 0.361063 -7.00746)
(5.40654 0.521634 -0.227048)
(6.82675 -0.132553 -3.83462)
(1.75726 -0.333365 -0.703638)
(1.49972 -0.0153188 -2.61875)
(7.24441 -0.0994372 -4.15565)
(9.04963 -0.217813 -1.10919)
(8.694 0.114497 -1.01762)
(9.14822 0.150788 -2.75292)
(9.41727 -0.0343046 -0.185294)
(13.1313 -0.152977 -1.87947)
(13.2049 -0.353316 -1.93263)
(13.2912 -0.58795 -5.59767)
(11.6415 -0.17795 -3.51249)
(11.6844 -0.082254 -0.330464)
(11.6231 -0.11587 -0.66695)
(11.7461 -0.12764 -0.367098)
(12.878 -0.092918 -0.528005)
(7.29759 0.174724 -0.795676)
(9.15491 0.31765 -1.45939)
(7.37839 -0.0603207 -0.201812)
(12.6961 0.0765213 -1.06719)
(12.4448 -0.379061 -0.304691)
(12.2281 -0.0561543 -0.404999)
(12.3317 -0.0822793 -0.237764)
(12.1931 -0.0468754 -0.237552)
(12.2223 -0.0559397 -0.110845)
(12.3509 -0.139078 0.570146)
(12.0665 0.254036 -6.04824)
(9.16132 0.0957215 0.830234)
(8.97705 -0.247115 1.02727)
(1.92236 -0.0748308 2.71402)
(9.06461 0.390048 -4.89455)
(6.8581 0.387472 -5.62993)
(5.3886 0.0367488 -5.47681)
(7.33817 0.194596 -3.24218)
(12.531 0.0760407 -1.86081)
(4.53588 0.150876 -1.50027)
(10.3536 -0.0178548 -0.935251)
(10.1531 0.044823 -1.16862)
(11.1977 -0.0503787 -1.78705)
(11.4364 -0.111263 -2.01061)
(13.6628 0.0806716 -3.97532)
(13.5795 0.0230361 -5.26853)
(13.7272 0.176809 -3.14217)
(8.24963 -0.79643 -1.04476)
(8.12271 0.0619772 -1.80541)
(8.94296 -0.0188896 -1.92005)
(9.6412 0.0840034 -1.63021)
(9.83987 0.0794228 -1.44924)
(9.68874 0.0434744 -1.33421)
(13.5117 -0.0523706 -0.650404)
(11.0938 -0.103811 -4.18368)
(10.8493 -0.103371 -3.56929)
(12.5709 -0.776077 -2.50673)
(10.0982 -0.161506 -1.1514)
(1.95427 -0.413079 -4.01911)
(11.7067 -0.212176 -2.4498)
(8.59777 -0.252659 -4.37766)
(8.5699 -0.224524 -1.77445)
(5.608 0.159342 -2.47719)
(4.06461 -0.0155613 -1.75501)
(4.31713 -0.0310219 -7.83767)
(8.77911 -0.187867 -1.77587)
(8.84426 -0.197961 -1.35036)
(8.79041 -0.148266 -1.6027)
(2.93704 0.258255 -3.20455)
(12.2043 0.0545606 -0.452648)
(13.3112 0.23988 -3.10506)
(7.44368 0.32393 0.114558)
(4.36987 0.843223 -8.09272)
(8.72802 0.0935433 0.185274)
(11.0937 0.442027 -5.16391)
(6.72304 0.540371 -8.58707)
(10.1518 0.357258 -6.75765)
(2.79847 -0.117983 -3.16979)
(7.33019 0.313833 -4.7525)
(7.808 0.106246 2.08115)
(7.62732 -0.193229 2.64037)
(7.92587 0.103993 1.59398)
(9.23366 0.147152 -0.320058)
(9.61447 0.0484211 -0.0401362)
(7.56953 0.110638 2.0006)
(6.50065 0.217225 -5.71013)
(5.42413 -0.0688407 -3.93612)
(3.7923 -0.394179 -6.04256)
(3.36419 -0.391517 -4.9118)
(6.38697 -0.357145 -3.76731)
(3.84076 -0.341312 -3.86351)
(7.59377 0.049909 0.356597)
(8.50331 0.219126 -0.104619)
(8.20487 0.213703 -0.0707877)
(9.1588 -0.181618 0.269776)
(10.048 -0.244082 0.265731)
(9.11766 -0.144733 0.332689)
(9.32074 0.197818 -0.735801)
(9.44919 0.234513 -0.979401)
(9.39922 0.217946 -4.90151)
(10.3246 0.116813 -4.0664)
(11.5312 0.131995 -2.42734)
(12.9291 -0.389762 -1.73976)
(12.9538 -0.0867583 -0.924622)
(13.1843 -0.153044 -0.875768)
(9.28149 -0.0742612 -2.29446)
(9.96456 0.0334532 -2.94521)
(10.0361 0.189237 -1.14993)
(8.58387 -0.194439 -1.4729)
(8.41785 -0.1032 -2.66597)
(9.31357 -0.0300855 -1.28733)
(9.87666 -0.0608083 -1.82274)
(4.38842 -0.120217 -4.04948)
(9.65025 -0.116067 -1.42465)
(8.58843 -0.179826 -1.18953)
(13.1747 -0.00236485 -0.055934)
(13.2633 0.0444012 -0.323732)
(13.4587 -0.126064 -3.14315)
(12.8003 0.0159018 -2.40501)
(9.9648 0.137355 0.241711)
(11.9019 0.104555 -1.47104)
(5.43899 0.404504 -1.84672)
(10.0988 -0.124346 0.795936)
(7.42851 0.10697 -2.55441)
(8.3578 0.221841 -3.22116)
(5.89439 0.314139 -2.63504)
(7.69874 0.412848 -3.81426)
(6.62238 0.0638634 -3.70389)
(8.08708 0.44683 -0.523058)
(8.32645 0.0360648 -3.84049)
(7.48362 0.1671 -3.22785)
(6.03956 0.443292 -0.0550859)
(9.03929 0.411006 -1.52423)
(4.60282 -0.157111 -1.46952)
(11.6686 0.209006 -0.598001)
(11.6111 0.211085 -0.877399)
(11.9068 0.179324 -0.63375)
(3.85644 -0.136894 -2.14114)
(3.35686 0.132061 -2.53446)
(10.6429 -0.16075 1.24508)
(10.3579 -0.0272499 2.0369)
(11.0712 -0.215523 1.165)
(4.9301 -0.159053 -0.864675)
(9.55248 0.280842 -4.00382)
(9.012 0.220747 -3.37196)
(10.6883 1.31049 -8.22741)
(8.00523 0.33744 -3.68474)
(10.7766 -0.00815994 2.06484)
(6.22394 -0.223883 -1.80865)
(9.0678 -0.201236 0.00533713)
(9.20663 0.0161791 0.368366)
(6.45592 -0.200623 -1.24507)
(10.7463 0.242751 -2.66521)
(11.7876 0.136159 -2.62358)
(9.23069 0.316943 -5.06747)
(6.0192 0.178351 0.928145)
(6.84408 0.279874 0.0914759)
(5.90257 -0.00107317 3.03411)
(7.75197 0.0636168 0.432643)
(7.2092 0.0980326 0.552913)
(5.46982 0.179419 0.65297)
(2.23913 0.613476 3.54162)
(4.40129 -0.0380508 0.579533)
(8.34591 0.14564 -2.0108)
(8.30304 0.220194 -0.172537)
(8.68264 0.095517 -0.680043)
(9.43404 -0.211363 -0.00846942)
(9.51733 0.045619 0.10051)
(6.47823 -0.277337 3.34822)
(6.92753 0.284477 -3.13898)
(7.3587 0.92346 -6.17928)
(5.32726 0.417761 -2.20211)
(6.57872 0.11485 -2.98469)
(9.03114 0.225263 -0.735229)
(8.98447 0.228977 -0.552479)
(9.00509 0.193082 -0.53443)
(11.9482 -0.0861449 -0.0614681)
(10.8075 0.359725 -1.2555)
(10.4342 0.286929 -1.38944)
(10.683 0.224879 -1.52768)
(10.5613 0.259833 -0.823603)
(8.68022 0.303849 -1.63233)
(9.92686 0.325438 -1.59981)
(8.95822 -0.0155139 -1.35517)
(10.5786 -0.133875 -1.40656)
(10.6716 0.137354 -3.5625)
(10.3001 -0.539878 -5.18245)
(11.2617 -0.110912 -0.307391)
(9.56565 0.0967874 -0.913862)
(9.68408 0.126729 -1.37319)
(9.35945 0.161427 -1.07799)
(9.54449 0.0786501 -1.67807)
(9.25219 0.0138676 -0.332985)
(7.62634 0.29845 -1.1901)
(7.99219 0.46196 -0.230603)
(4.79941 0.325078 -0.445435)
(4.13027 0.499064 -0.740122)
(4.32339 0.546711 -1.43734)
(7.39472 0.258607 0.310661)
(7.23279 0.466558 -0.76253)
(8.06294 0.292297 -0.329623)
(7.58162 0.555502 0.416757)
(8.28384 0.390773 -0.348906)
(8.41609 0.397343 -0.412697)
(9.27327 0.203706 -0.213214)
(9.1579 0.106677 -0.388693)
(9.47083 0.0579676 -0.0863999)
(6.39876 0.237611 -1.83099)
(9.54472 -0.0903571 -0.507631)
(11.2793 0.115401 -1.46754)
(9.8155 0.0853177 3.5054)
(7.84088 0.433587 1.09296)
(9.86801 0.0646816 -0.810986)
(6.71113 -0.0968648 -3.1316)
(11.0477 0.27355 -1.56092)
(10.3102 0.204099 0.583788)
(9.44808 0.0693855 1.11554)
(9.16666 0.319475 -1.16015)
(9.57065 0.220438 1.07802)
(9.78265 0.0844095 0.963692)
(2.40531 0.372493 -0.0584995)
(9.96082 0.053435 1.23852)
(9.06701 0.0583433 1.27827)
(9.08081 0.117063 1.77212)
(9.76123 0.435308 -0.631078)
(9.60357 0.404193 -0.727757)
(9.66371 0.415241 -0.90103)
(9.54269 -0.0680326 -0.0643846)
(9.22287 -0.00377396 0.0857335)
(9.27108 0.0695391 -0.0454738)
(9.27487 0.0542832 -0.128766)
(9.35343 0.0584247 -0.0934138)
(11.957 0.280843 -1.04128)
(12.023 0.210483 -0.577303)
(5.74246 0.158536 0.301865)
(5.4395 0.242558 1.85337)
(11.68 -0.0714343 -0.0852855)
(11.4381 0.198782 -1.88611)
(8.73324 0.0994826 -0.309033)
(11.4602 0.211596 -1.81601)
(11.2213 0.23426 -0.809255)
(8.04323 0.275311 -2.22291)
(4.23851 0.265057 -4.65797)
(7.9713 0.25989 -3.02225)
(4.69446 0.414005 -6.18277)
(10.7751 0.406617 -5.40079)
(7.32473 0.402258 -2.67222)
(5.248 -0.794301 0.175154)
(9.15089 0.0496617 0.538976)
(8.61311 0.371536 0.0505978)
(5.99537 -0.185204 0.304706)
(11.063 -0.0433315 -0.292729)
(8.64446 0.0837821 -0.131539)
(13.5807 -0.137161 -1.55431)
(2.37857 -0.354565 -0.431489)
(8.85512 0.255226 -0.709287)
(8.68337 0.173489 -0.342605)
(5.8415 0.292448 1.03743)
(9.88489 0.221426 -0.255954)
(12.8987 0.00239727 -5.2642)
(6.61041 -0.238437 -2.93303)
(6.2596 -0.185506 -1.20522)
(9.4075 0.254628 0.218375)
(8.81254 0.405002 -0.482048)
(8.69606 0.298639 0.787004)
(9.13927 0.268553 -1.63168)
(10.8366 0.122914 -0.394012)
(9.75353 0.294845 -0.835665)
(9.96718 0.356137 -1.79502)
(9.3967 0.242013 -0.601881)
(9.32504 0.193546 -0.860632)
(12.3197 -0.171743 -4.32218)
(12.6619 -0.0684719 -0.752783)
(11.0148 0.230884 -1.52245)
(12.4898 0.11651 -0.373273)
(9.16877 -0.0698437 -0.381194)
(7.97849 -0.0413099 -1.58634)
(7.03057 0.157344 -3.05005)
(11.225 -0.0747339 -0.146813)
(11.8897 0.101383 -0.808007)
(8.77396 0.256784 0.637209)
(10.5361 0.200843 -1.59006)
(8.53227 0.339096 -3.69035)
(2.47606 0.18038 -12.7163)
(6.09811 0.0301197 -0.296847)
(12.7059 -0.0750313 -1.65114)
(11.0143 0.0417071 -0.983608)
(6.31083 0.427301 -1.03992)
(9.67171 0.364616 -1.1456)
(12.9618 -0.115864 -0.207749)
(10.1599 0.406164 -2.08492)
(9.70217 -0.0396987 -0.608984)
(9.64069 0.284572 -3.92881)
(9.47664 0.228935 -1.16635)
(9.30338 0.236238 0.307701)
(8.01052 -0.0719506 0.0321673)
(9.93471 0.11476 2.37072)
(7.9423 0.0321651 1.1248)
(3.77405 0.233327 -4.20312)
(3.79307 0.528094 -1.57722)
(12.364 0.96122 -7.88037)
(10.0581 -0.224249 0.179559)
(7.1759 0.166613 3.21516)
(8.33725 0.0242476 -2.10212)
(12.0248 -0.0575188 -0.51698)
(11.514 -3.01242 -5.32216)
(13.2651 0.217618 -2.46241)
(7.39308 -0.523656 -0.105798)
(9.25431 0.101589 -0.304805)
(9.4155 0.0847549 -0.195132)
(7.21885 -0.21567 0.106244)
(0.281421 -0.372964 -0.495414)
(2.5987 0.0957082 -1.70211)
(8.39604 -0.0360351 -3.33789)
(9.34625 0.0660141 -0.239046)
(11.1657 -0.00299021 -1.15249)
(9.30875 0.0614394 -0.28117)
(5.26024 0.669041 -12.5674)
(8.14478 0.336456 -1.61746)
(9.66679 0.0671033 -0.116401)
(12.6216 0.151606 -0.730738)
(8.96239 0.416803 -2.71656)
(9.8963 0.124279 -1.51128)
(9.79476 0.108483 -0.0148469)
(12.8833 -0.209587 -3.5199)
(10.5974 -0.127162 -0.395329)
(12.5381 0.131403 -1.85763)
(13.2558 0.0376148 -1.80485)
(10.7958 0.0603896 -1.39989)
(13.4668 -0.209014 -5.39505)
(12.6998 -0.101133 -0.0792579)
(7.89145 0.371132 0.455889)
(9.21926 -0.711723 -8.92368)
(4.96673 0.51631 -5.53043)
(8.02422 0.336925 -1.37229)
(1.80397 -0.452332 -3.37159)
(1.00334 -0.29337 -4.62374)
(8.78381 0.120043 -1.51538)
(1.73047 0.836722 -7.38695)
(8.7062 0.30793 -0.786732)
(9.37378 0.146084 -1.16889)
(10.1191 0.174208 -2.05369)
(6.27166 0.54179 -4.30322)
(6.78002 -0.0543815 -0.173086)
(7.52719 0.0567849 2.15143)
(8.39415 0.265319 -0.0925851)
(10.661 0.876829 -1.99893)
(2.38448 0.571873 -7.06468)
(0.86935 -0.24657 -3.24019)
(4.7865 0.199311 -2.45124)
(1.06702 0.464364 -3.36389)
(11.1901 0.117535 -3.99112)
(8.2753 0.168348 -0.941779)
(9.37121 0.121208 -3.82497)
(9.22922 0.0927858 -2.61653)
(7.95223 0.227413 -1.95528)
(13.7403 0.0653295 -2.87265)
(6.39692 -0.117858 -4.64031)
(2.35623 -0.0282036 -3.681)
(8.99824 0.0946139 1.62429)
(8.36773 0.0126902 -0.216176)
(12.2608 -0.306165 -3.46706)
(12.4788 0.191087 -1.06197)
(6.7248 -0.0754827 -3.67758)
(11.438 0.0988666 0.162275)
(6.25443 -0.354315 -0.641882)
(9.43181 0.307642 -3.59607)
(10.1757 -0.0967178 -0.258357)
(9.85983 0.113921 -0.0778148)
(9.53241 0.136251 -0.379555)
(11.27 0.126582 -1.48288)
(9.85064 0.185294 -0.163898)
(13.402 0.293229 -1.92401)
(9.27326 -0.0790251 0.348142)
(9.60822 -0.0330218 8.89374)
(7.73348 0.130196 -1.33267)
(9.31102 0.00445766 -0.496848)
(12.595 0.110678 -1.90596)
(6.8477 1.23095 4.03758)
(0.723949 0.225432 -4.9258)
(8.74072 0.0722349 -4.95201)
(5.69174 -0.155562 0.176868)
(12.9722 -0.0816775 0.303994)
(10.1731 -0.193682 -1.26872)
(11.3323 -0.226201 -1.04496)
(9.86798 0.158578 -1.95517)
(9.57389 -1.00737 -2.95035)
(11.8371 -0.149313 -0.114113)
(9.28677 -0.162636 -3.23489)
(4.82501 5.11933 0.338115)
(9.2705 -0.0887897 -0.0267404)
(9.80254 0.0251001 -0.148677)
(9.64149 -0.126788 0.658357)
(8.05159 -0.2485 -3.22432)
(8.58184 -0.124015 -0.0693561)
(3.33851 -0.172358 1.31149)
(9.90491 -0.331648 7.98061)
(10.7437 -0.14337 -4.35473)
(10.6401 -0.338681 0.2934)
(8.76246 -0.0226573 1.24911)
(11.9492 -0.122863 -0.562164)
(3.67998 0.0627394 -2.89525)
(9.64023 -0.14525 -0.84553)
(8.60588 -0.0689736 -1.46493)
(9.78581 -0.047127 -7.16288)
(3.45903 0.0975661 -1.20274)
(4.22804 -0.194113 -5.03064)
(11.6532 -0.423349 -3.97371)
(11.4081 0.105498 -4.18686)
(7.25356 -0.169084 -3.36513)
(0.285073 4.51279 -2.68329)
(13.851 -0.0112963 -3.0302)
(10.94 -0.0784934 -1.11973)
(12.0184 -0.140096 -1.23402)
(11.0424 0.156879 -4.63752)
(9.4394 -0.000998583 -0.976272)
(5.64948 -0.699379 -0.194958)
(11.3352 -1.09915 -7.64223)
(9.84338 -0.167146 0.0581299)
(9.18507 -0.242527 -0.0576479)
(9.6285 -0.0997397 0.494813)
(8.93803 -0.00133074 -0.114322)
(8.40479 0.0047377 0.286273)
(9.96925 -0.252312 0.241445)
(7.28056 0.103664 -1.36627)
(8.64739 -0.0186745 2.38953)
(13.1386 0.428363 -2.38437)
(1.64756 0.434562 -9.26817)
(8.35037 0.408243 6.50357)
(12.1515 -0.010457 -3.87383)
(9.0292 -0.345106 -1.22849)
(7.3538 0.0201685 -3.56008)
(4.3457 -0.822341 -7.90276)
(5.06775 -0.150779 -5.91183)
(2.37792 -1.13847 -7.36804)
(9.61617 -1.06471 4.64482)
(11.2551 -0.151159 2.69589)
(9.02696 0.118495 1.05335)
(13.3365 0.151181 -1.84122)
(13.5044 0.0583315 -3.09451)
(12.8851 -0.0634372 -2.29379)
(10.3495 -0.0961256 -3.59803)
(6.81581 -0.149241 -0.445002)
(5.31978 -0.0212239 -2.54712)
(10.7668 -0.35438 -3.43507)
(13.8388 -0.182628 -2.78593)
(8.04892 -0.106751 1.4211)
(1.37933 -0.14099 -6.10129)
(13.143 -0.173033 -2.79011)
(12.5414 -0.166721 -2.93775)
(6.50484 -0.191946 -3.67815)
(8.82321 -0.136973 -1.00171)
(12.8776 0.0123132 -0.398535)
(11.1633 0.143143 -0.5857)
(10.4276 -0.227074 1.48553)
(13.2044 -0.235987 -0.122448)
(12.7472 -0.016582 -0.186403)
(7.75248 -0.0929655 -2.15518)
(11.8759 -0.143472 -1.49605)
(7.88742 -0.0576365 -1.40885)
(12.0791 -0.255573 -2.44759)
(12.1761 -0.0112185 0.463046)
(10.6179 -0.390656 -5.60564)
(11.3578 -0.110007 -1.61048)
(9.62847 0.0169924 -0.148532)
(8.83222 0.112281 -1.22978)
(10.3607 -0.127673 -0.361338)
(10.6905 -0.726131 -7.33807)
(6.62692 -0.142305 -2.56825)
(12.3678 -0.510049 -2.09088)
(7.83859 0.0190662 -0.0641057)
(3.10189 0.1723 8.58877)
(5.95321 0.0182225 8.10146)
(7.80607 -0.5297 -4.64459)
(10.9438 -0.159129 -1.4404)
(10.3496 -0.193874 -1.68368)
(12.7757 -0.0836162 0.226081)
(10.9012 0.294817 -5.00544)
(10.1842 -0.116772 0.051405)
(9.77112 -0.168199 -0.730538)
(8.21724 -0.220915 -8.92446)
(9.60801 -0.0120993 0.715051)
(10.8024 0.15397 -3.2736)
(12.0889 0.187401 -2.08726)
(10.1604 0.392334 -0.367481)
(11.4276 0.276707 -0.902453)
(11.279 -1.62137 -3.52857)
(12.3255 0.108545 -1.78362)
(11.0342 0.210529 -2.07273)
(11.2136 0.224941 -1.30927)
(12.154 0.130066 -3.77319)
(12.5296 -0.059 -0.417313)
(12.2839 -0.151127 0.689037)
(12.6979 -0.0453621 0.272989)