/*--------------------------------*- C++ -*----------------------------------*\
| =========                 |                                                 |
| \\      /  F ield         | OpenFOAM: The Open Source CFD Toolbox           |
|  \\    /   O peration     | Version:  2506                                  |
|   \\  /    A nd           | Website:  www.openfoam.com                      |
|    \\/     M anipulation  |                                                 |
\*---------------------------------------------------------------------------*/
FoamFile
{
    version     2.0;
    format      ascii;
    arch        "LSB;label=32;scalar=64";
    class       volScalarField;
    location    "0.0440925";
    object      nut;
}
// * * * * * * * * * * * * * * * * * * * * * * * * * * * * * * * * * * * * * //

dimensions      [0 2 -1 0 0 0 0];

internalField   nonuniform List<scalar> 
3991
(
0.00416216
0.00538693
0.00340574
0.00108107
0.00403062
0.00178827
0.00389626
0.00353625
0.00139724
0.00406996
0.000576843
0.00106996
0.00518841
0.00142177
0.00329302
0.000231097
0.00345268
0.00112653
0.00088654
0.00282031
0.000510895
0.00471249
0.00133143
0.00146572
0.00096617
0.00119009
0.00140835
0.000403272
0.00527608
0.00148294
0.000601643
0.00173432
0.00119074
0.000923406
0.00134666
0.00136715
0.00115104
0.000803603
0.0013884
0.000983258
0.000454578
0.000354547
0.000829489
0.000597482
0.00191996
0.00204305
0.000980811
0.00178305
0.00167002
0.00303758
0.0017009
0.00312537
0.00441147
0.00231328
0.00434645
0.000888402
0.00144445
0.00056569
0.000641959
0.0011928
0.00547365
0.000990414
0.000305595
0.000698326
0.000401237
0.00132016
0.000364172
0.000469529
0.00139423
0.00288073
0.00119171
0.0012022
0.00256575
0.0013521
0.00617782
0.0013555
0.00215839
0.00122735
0.00397556
0.00344807
0.000957462
0.00169485
0.00116079
0.00036154
0.000760876
0.000532937
0.000998569
0.00380777
0.00238955
0.00452911
0.000904605
0.000806956
0.000667931
0.000363169
0.00062774
0.00284579
0.000458321
0.000575984
0.00419868
0.00279452
0.000379444
0.000950122
0.000886034
0.000753669
0.00322131
0.00315747
0.00211828
0.00368247
0.00216386
0.0045521
0.00346792
0.00488011
0.00651155
0.00224564
0.00241184
0.00281367
0.003118
0.00312471
0.00312979
0.00244874
0.0043036
0.000397959
0.00402692
0.000481183
0.000427605
0.000463063
0.00210354
0.00424737
0.00568792
0.00314942
0.00412795
0.00373068
0.00300292
0.0004935
0.000824219
0.00163374
0.0062578
0.00567185
0.00606771
0.00492278
0.00331335
0.00088667
0.000655592
0.000885667
0.00141633
0.00137689
0.00277532
0.00238473
0.00111241
0.00605946
0.00578896
0.00568898
0.00637403
0.00238587
0.00139083
0.00189128
0.00341964
0.00147762
0.000925345
0.000977327
0.00453388
0.00579778
0.00510621
0.000747077
0.00178669
0.000135026
0.00103652
0.00092697
0.000984028
0.00148695
0.00380672
0.00143193
0.00159451
0.00151528
0.00446233
0.00211779
0.000488872
0.00272519
0.00320209
0.004498
0.00128719
0.0011227
0.000673192
0.00560254
0.0018928
0.00420895
0.00245562
0.000561092
0.000966147
0.00406556
0.00170542
0.00123219
0.000495328
0.000922371
0.00147039
0.00124135
0.00184706
0.000377674
0.00648858
0.00190856
0.00170161
0.000899884
0.00058219
0.00103015
0.00110706
0.00137306
0.00123905
0.000925168
0.000342907
0.00354453
0.000369544
0.000500543
0.00070738
0.000739799
0.000858483
0.00110044
0.00146784
0.00102492
0.000718481
0.00280002
0.000386797
0.000624956
0.004552
0.000901972
0.00140551
0.000418319
0.000895423
0.00195607
0.000789471
0.00366812
0.000703368
0.0038297
0.0011873
0.00320393
0.00126283
0.000865238
0.00171083
0.00112143
0.000793975
0.00368556
0.00325508
0.0041338
0.000785859
0.00469677
0.00190491
0.00147141
0.00682026
0.000854736
0.00420742
0.00166868
0.000543902
0.000646338
0.00126454
0.0015872
0.00128244
0.00032471
0.00232743
0.000706588
0.000698208
0.00176622
0.000537451
0.00134793
0.0018812
0.00184983
0.00151931
0.000719474
0.00269548
0.00117762
0.000212621
0.000821512
0.00196585
0.00143877
0.00173429
0.00137888
0.00106845
0.00122556
0.00172027
0.00173849
0.00249501
0.003117
0.00247195
0.00164416
0.00292363
0.00158555
0.0017343
0.00239408
0.00237432
0.00294325
0.0029568
0.0025369
0.00259311
0.00368885
0.00130959
0.00125017
0.00231522
0.00141316
0.0013355
0.00398505
0.000951645
0.00681031
0.00226696
0.00172289
0.0038987
0.000182465
0.000364767
0.000793856
0.000170155
0.00405285
0.00561089
0.00124484
0.00404861
0.00519419
0.000593094
0.00343352
0.0023934
0.00551447
0.00268445
0.00143717
0.00471416
0.00135946
0.00131163
0.00421712
0.000695969
0.000404342
0.00284095
0.00160839
0.00117009
0.00298323
0.00165492
0.00295534
0.00146294
0.00149458
0.00198875
0.00313519
0.00183356
0.00103114
0.00272856
0.00198508
0.00347984
0.00155693
0.00274718
0.00294892
0.00612701
0.00350196
0.00218373
0.00238062
0.00523372
0.00188595
0.00246339
0.00164084
0.00111328
0.00262343
0.000421368
0.000995504
0.00571743
0.0013067
0.00086373
0.00173099
0.00227476
0.00383563
0.00527057
0.000918879
0.00124463
0.00242205
0.00123155
0.00199829
0.000522852
0.00114547
0.00121248
0.00223849
0.00119183
0.00100498
0.00103791
0.000346952
0.000602051
0.00523374
0.00156518
0.000684234
0.00202487
0.00175247
0.00464082
0.00360968
0.00138681
0.00369729
0.00249006
0.00378146
0.00100352
0.00521375
0.00456555
0.00084284
0.00176289
0.000266924
0.0039116
0.0023679
0.00162286
0.00236584
0.000271163
0.000264298
0.00127386
0.00157952
0.00196963
0.0022696
0.000498944
0.00161209
0.00100242
0.00201383
0.00518721
0.000327767
0.00211457
0.00110911
0.00340166
0.00103392
0.00277411
0.00233449
0.00238247
0.00121052
0.00136565
0.00286565
0.00056496
0.0026713
0.00551978
0.00254498
0.00197211
0.00144025
0.00170749
0.000488578
0.00322505
0.00144253
0.000986986
0.00613755
0.00164967
0.00106611
0.00158873
0.00240816
0.000800902
0.00153453
0.0011554
0.000483697
0.000983449
0.00378118
0.00121198
0.00636315
0.00473576
0.00109051
0.000543065
0.000558852
0.000896128
0.00139697
0.000413042
0.000460136
0.000638831
0.000464046
0.00424697
0.00122299
0.000620704
0.00168028
0.00149502
0.000605351
0.000675756
0.00233935
0.00139523
0.0027379
0.0051854
0.00111683
0.000954469
0.000558503
0.000693284
0.004063
0.0031427
0.00387544
0.000904627
0.00312902
0.00187573
0.00225936
0.00489382
0.00160211
0.00154759
0.00129616
0.00427535
0.00330292
0.00447429
0.00188661
0.00315865
0.000275365
0.00117931
0.00296228
0.00254975
0.00653159
0.00486684
0.00336941
0.00512416
0.00380128
0.00209585
0.00255537
0.00150306
0.00240078
0.0012802
0.00247772
0.00248729
0.00195177
0.0034516
0.000874157
0.00197056
0.000342817
0.00440874
0.00161782
0.00402826
0.00343899
0.00506067
0.00500782
0.0057161
0.000460964
0.000879825
0.0013767
0.000542243
0.00194006
0.00127276
0.00412828
0.00193491
0.000568817
0.00196405
0.000142717
0.000881243
0.000523052
0.002725
0.000621011
0.00142445
0.0055405
0.00400275
0.00354647
0.00323406
0.00313626
0.000631051
6.65334e-05
0.000444077
0.00165002
0.00057619
0.00587005
0.00315329
0.00194224
0.00425141
0.000782072
0.00114788
0.00149067
0.00396801
0.00438175
0.000690756
0.00101778
0.00119144
0.000571457
0.00121636
0.000663494
0.000688294
0.000469489
0.000459513
0.00207984
0.00231082
0.000622349
0.00051495
0.000780139
0.000650023
0.00260931
0.00238609
0.00104218
0.000373393
0.00106611
0.000501909
0.000709662
0.00320814
0.00067642
0.000792083
0.00307608
0.00405533
0.00374518
0.00328197
0.00188799
0.000221594
0.000569112
0.000835108
0.000842238
0.000548916
0.000857901
0.000463371
0.00218229
0.00129643
0.00240973
0.0027456
0.00216876
0.00279212
0.00483534
0.0037142
0.00170347
0.00456951
0.00430995
0.00275407
0.00711454
0.00325838
0.00542905
0.0041249
0.00475863
0.00382392
0.00491446
0.000873665
0.000589865
0.00114077
0.00244604
0.00248209
0.00312684
0.000654915
0.00286422
0.00354311
0.00120523
0.00165448
0.000869216
0.000805882
0.000967952
0.00243813
0.00364664
0.00425342
0.00361182
0.0036496
0.00184439
0.00275005
0.00199541
0.00189364
0.000950519
0.000890504
0.00167841
0.000395569
0.000722354
0.00125411
0.00215331
0.000842157
0.000817223
0.00115061
0.00352802
0.00244532
0.00269964
0.00333551
0.0026579
0.00202346
0.00387123
0.00384188
0.00384416
0.00379055
0.00283449
0.00114432
0.00405286
0.00162615
0.00126673
0.0028385
0.00418464
0.00165873
0.00484375
0.00472561
0.00426195
0.00226135
0.0014682
0.000316579
0.000185818
0.0002706
0.000186704
0.000306559
0.000481635
0.00072978
0.00146383
0.00199711
0.00227373
0.00242751
0.00305825
0.00176449
0.0035828
0.00267651
0.00062519
0.00221832
0.00128057
0.00120718
0.000665286
0.0008694
0.000714244
0.00127975
0.00329853
0.00285157
0.00294718
0.0013475
0.00373829
0.00313961
0.00207424
0.00251199
0.000910871
0.00329531
0.00587898
0.00182452
0.00499355
0.00329045
0.00464499
0.000688497
0.00359
0.00137456
0.00115486
0.00179009
0.00574697
0.00125278
0.00496838
0.00360761
0.00110924
0.00118998
0.000511337
0.00053389
0.00158241
0.00427885
0.00199555
0.000897533
0.00411116
0.00542264
0.00251029
0.00275585
0.00217124
0.00084858
0.000375436
0.00122625
0.000888401
0.00249154
0.00210793
0.00271052
0.000315709
0.00261964
0.00163099
0.000865319
0.00114728
0.00286004
0.00189677
0.00418562
0.00177132
0.00105638
0.000474104
0.00293584
0.0025489
0.00229182
0.000501427
0.00423403
0.00178563
0.00235739
0.00212097
0.00103123
0.000423933
0.00158919
0.0015987
0.00108473
0.0013445
0.00334417
0.00413912
0.00318563
0.00372016
0.0028198
0.00185866
0.00191831
0.000704547
0.00127442
0.00137737
0.000717134
0.00486244
0.00133116
0.00403981
0.000872678
0.000466908
0.000457043
0.000244226
0.000864534
0.000860214
0.000580136
0.000449169
0.000557421
0.00089384
0.00414216
0.00215582
0.000903234
0.0028956
0.00223074
0.00240048
0.00354325
0.00344035
0.0010189
0.00134469
0.00147417
0.00359523
0.00249583
0.00285172
0.00177137
0.00163177
0.00192423
0.00211356
0.00164791
0.00375049
0.00497206
0.00326463
0.000847383
0.00255647
0.00289196
0.00181897
0.00381402
0.0013153
0.00238004
0.00196692
0.00322414
0.00186408
0.00170283
0.00159512
0.00107359
0.00112758
0.00272828
0.000567335
0.00406267
0.00081937
0.000600975
0.00220248
0.00553768
0.0018317
0.00562576
0.00117786
0.00223575
0.00112937
0.000971603
0.000885354
0.0030027
0.0067395
0.000656539
0.0021922
0.00416652
0.00201243
0.00256691
0.00157021
0.00196324
0.000671555
0.00714164
0.00420311
0.00128654
0.00182699
0.00152064
0.00251218
0.00667986
0.00505325
0.0012079
0.00277685
0.00646391
0.00572063
0.00132789
0.0062043
0.00450874
0.00414144
0.00287198
0.00513143
0.0049868
0.00575862
0.00149085
0.00137874
0.00122568
0.0013434
0.0014289
0.0012635
0.00181213
0.00122114
0.0012158
0.00101656
0.0017369
0.0022527
0.0033507
0.00184407
0.00214225
0.00378906
0.00575833
0.00375136
0.00373559
0.00119059
0.00186222
0.0019836
0.00325536
0.00254257
0.00152426
0.000575958
0.00105462
0.000192478
0.00105818
0.000855694
0.000290059
0.00119865
0.00437186
0.0057774
0.00055231
0.00156203
0.00632848
0.00476735
0.0015122
0.00132754
0.00289205
0.00250019
0.00109922
0.00219276
0.00269159
0.000399928
0.00268264
0.00507647
0.00330964
0.00148764
0.000883535
0.00298798
0.00328878
0.000670718
0.000544875
0.00142876
0.00233934
0.000524181
0.00222967
0.00185122
0.000924398
0.00147371
0.00122842
0.00450598
0.00263031
0.00473395
0.00272081
0.00611042
0.00566947
0.00664645
0.00255256
0.00153471
0.00341351
0.0011027
0.00240194
0.00195972
0.00168801
0.00150263
0.00124688
0.00199128
0.000797586
0.00074891
0.00147053
0.00121844
0.00121191
0.006266
0.00159261
0.00101338
0.000959228
0.00207529
0.000691133
0.0010057
0.000807047
0.000258704
0.00192445
0.00120305
0.0011231
0.00135791
0.000993447
0.00469768
0.00567484
0.00121698
0.00348589
0.00193595
0.00253599
0.00126817
0.00220567
0.00131048
0.000610316
0.00107106
0.00022684
0.00113982
0.000956332
0.000566327
0.00103108
0.00115389
0.000766707
0.000578706
0.00230711
0.00315913
0.00134826
0.00392237
0.00300849
0.00272268
0.00375343
0.00304239
0.00284388
0.00063191
0.00215351
0.00583877
0.00267246
0.000513014
0.00413767
0.00120472
0.00282424
0.000534366
0.00309263
0.00213015
0.0046959
0.00139756
0.00448154
0.00203681
0.00232388
0.00128943
0.00220196
0.000501515
0.00121617
0.00137935
0.00103787
0.00144062
0.00108059
0.00063098
0.00115372
0.00208432
0.00206063
0.000664672
0.00143129
0.00115388
0.000726688
0.00203002
0.00205722
0.00208911
0.00296517
0.00194266
0.00225756
0.00214146
0.00194146
0.00068184
0.00422059
0.000708037
0.000434432
0.0010739
0.00035495
0.00301018
0.00453191
0.000998351
0.00154944
0.0029147
0.000291117
0.000436032
0.000460422
0.00253906
0.000515867
0.000669645
0.00138165
0.000524256
0.00112079
0.000731833
0.00110758
0.00107106
0.000924807
0.000551123
0.0012273
0.00080723
0.00135061
0.00174266
0.00128931
0.000910894
0.00100056
0.00104151
0.000602127
0.000646093
0.000661631
0.00131395
0.00115255
0.000978804
0.00117264
0.00157893
0.00180135
0.00163903
0.0013223
0.00120906
0.00256045
0.001903
0.00147594
0.00269023
0.000734659
0.00309835
0.0028388
0.00313178
0.00199492
0.00533476
0.000539627
0.00123709
0.00613973
0.00585461
0.000982546
0.00204848
0.0014323
0.00292557
0.00129446
0.00481955
0.00185357
0.00119204
0.00117392
0.00155621
0.000449178
0.00450774
0.00439732
0.000691492
0.00339303
0.00269887
0.00258997
0.00187948
0.00239343
0.00117611
0.00203655
0.00306923
0.00477969
0.000899443
0.00193193
0.000694009
0.00124178
0.00279032
0.00224997
0.00391301
0.00127177
0.00287752
0.00171124
0.000962364
0.000787209
0.00198682
0.00338331
0.0013094
0.0023119
0.00225483
0.000974417
0.00133498
0.000422283
0.000674269
0.000389147
0.00125349
0.000426388
0.000887672
0.00288504
0.00407301
0.00142943
0.00289187
0.0040696
0.00263935
0.00469806
0.00180533
0.0029055
0.00199965
0.00276371
0.00249067
0.00216185
0.00633147
0.00593858
0.00143858
0.00264261
0.00294546
0.00248893
0.00130849
0.00186831
0.0022697
0.00199972
0.000703566
0.00164293
0.00254109
0.0014715
0.00159255
0.00239409
0.00290384
0.00212495
0.00176141
0.00192465
0.00220524
0.00197664
0.000270004
0.000879825
0.00136951
0.000807349
0.00196317
0.000810112
0.00395014
0.00376747
0.00343627
0.000789531
0.00470008
0.00453897
0.0026929
0.0010288
0.000848056
0.000891527
0.00723015
0.000762991
0.00111865
0.00434065
0.00491949
0.00398345
0.00213971
0.00586676
0.00157852
0.00242421
0.00484211
0.000742704
0.00109035
0.0013281
0.000702406
0.000805864
0.00101094
0.000838192
0.000548059
0.00170671
0.00083875
0.00121092
0.0010579
0.000756812
0.00170992
0.000532138
0.00080029
0.00418331
0.00195047
0.00360656
0.00372774
0.00343863
0.00283826
0.00392411
0.00299388
0.00264862
0.003527
0.00123741
0.00389691
0.00215667
0.000525575
0.000690518
0.000890945
0.000584552
0.000515295
0.000376676
0.000495542
0.00435363
0.00205005
0.00170802
0.00193035
0.00237746
0.00401466
0.00111605
0.00213155
0.000850259
0.00172286
9.32874e-05
0.000711216
0.000418276
0.000289488
0.0021714
0.000428753
0.000499394
0.000458984
0.00112851
0.000876866
0.000301055
0.00150858
0.000310574
0.00105141
0.000119664
0.000557266
0.00117903
0.00072691
0.00144075
0.000323383
0.00055851
0.000745417
0.000703584
0.00177198
0.000954171
0.00117849
0.00118006
0.000824223
0.000443139
0.000397817
0.00128339
0.000783299
0.000857192
0.00120211
0.000474952
0.000957143
0.00329557
0.000919883
0.000565014
0.00149536
0.00123065
0.000642043
0.0016529
0.000308956
0.000264563
0.00066471
0.0009775
0.00180199
0.000998975
0.00139565
0.00140224
0.000948565
0.00113048
0.001124
0.00481038
0.00525877
0.00410688
0.000598978
0.00493485
0.00205917
0.00110067
0.00215184
0.000491395
0.00547248
0.00578722
0.00296509
0.00106023
0.00137392
0.00147496
0.00579794
0.000605401
0.00327551
0.000511622
0.000468227
0.0019566
0.00033993
0.000321227
0.0031237
0.00175297
0.00612846
0.000728195
0.000198178
0.000696398
0.000178542
0.000495689
0.000650044
0.00629633
0.00309177
0.0059829
0.00375943
0.00615571
0.00342515
0.0040425
0.00197468
0.00298387
0.00191941
0.000320583
0.000766367
0.00113508
0.00242047
0.00575571
0.00158426
0.00215187
0.00386115
0.00486286
0.00175583
0.00429572
0.00132787
0.00138826
0.00142353
0.000613464
0.00173662
0.0015239
0.000823112
0.000978992
0.00330121
0.00174306
0.000848496
0.00258469
0.00208108
0.00191053
0.0020512
0.00252451
0.000447897
0.00133998
0.00175945
0.00369462
0.00161164
0.00316255
0.00142084
0.00623966
0.00373142
0.00169893
0.00312095
0.000509817
0.000847301
0.00230762
0.00151072
0.00426047
0.00306715
0.0016357
0.00151634
0.00158792
0.000806166
0.000703979
0.000707488
0.000856056
0.00132265
0.00095416
0.00110526
0.000379636
0.00192716
0.00569803
0.000801548
0.00156628
0.00163462
0.000814822
0.000278405
0.00128178
0.00176396
0.00227311
0.000944802
0.00472051
0.00549688
0.00500606
0.00676661
0.00318431
0.00326728
0.00173232
0.000506201
0.00125814
0.0017811
0.00177673
0.00120687
0.00145463
0.00123847
0.00131074
0.00211996
0.00110959
0.00292928
0.00165032
0.00276149
0.0030238
0.000718912
0.000776432
0.00239568
0.00248469
0.00435195
0.000734453
0.00179618
0.000630741
0.000777049
0.00147634
0.000634852
0.000619715
0.000530545
0.000440718
0.00114264
0.00138541
0.00152696
0.0012561
0.0014632
0.00230355
0.00158623
0.0018386
0.00171117
0.0018325
0.00116096
0.0013133
0.0008679
0.000745239
0.00160394
0.00298249
0.000555176
0.00121103
0.00245095
0.001656
0.00104193
0.00141454
0.00141221
0.00142505
0.00351153
0.00277414
0.00357492
0.00163238
0.00329622
0.00342526
0.00290142
0.000451169
0.000909161
0.00577956
0.00492618
0.00490612
0.00536911
0.00159228
0.00131879
0.00141684
0.00238862
0.00330244
0.0029871
0.0025496
0.002869
0.00226969
0.00317685
0.00432554
0.00317802
0.00247094
0.00340689
0.000782588
0.00379104
0.00134226
0.00371211
0.00185765
0.00555096
0.00256877
0.00248561
0.000901115
0.00249807
0.00185499
0.00154844
0.00440414
0.0021175
0.000255394
0.00140674
0.0010249
0.00397084
0.00144736
0.00387752
0.00187706
0.000906306
0.000784199
0.00109027
0.00100091
0.000991596
0.00290256
0.00107598
0.00135772
0.00268902
0.00462855
0.00371165
0.00263465
0.00398417
0.00145445
0.00109303
0.00574801
0.00095095
0.000364802
0.00225126
0.0024694
0.00265928
0.00383472
0.0031378
0.00539334
0.00309859
0.00146563
0.00277309
0.0017907
0.00571993
0.00202868
0.00219336
0.00225675
0.00184929
0.00272863
0.00136811
0.00108831
0.000698856
0.000625906
0.00218862
0.000377475
0.00182475
0.00237671
0.00182906
0.00147879
0.000869881
0.00106086
0.00215507
0.00309647
0.00160519
0.00189469
0.00144371
0.00129055
0.0036698
0.0031284
0.0028765
0.00361519
0.00115814
0.000866507
0.00505767
0.0027195
0.00132859
0.00618328
0.00224534
0.00474781
0.00375861
0.00305374
0.00630337
0.00241798
0.00448321
0.00118861
0.000818104
0.000840305
0.00104523
0.00430752
0.00209842
0.00532584
0.00355377
0.00422598
0.0014517
0.00658908
0.00288942
0.00297601
0.00295684
0.00468238
0.0010313
0.00208252
0.00103196
0.00290641
0.00390751
0.00368437
0.00411593
0.00230683
0.000912058
0.00413611
0.00163561
0.0038635
0.00317975
0.00485282
0.00126508
0.00071469
0.00233457
0.00132309
0.00469219
0.00014907
0.00100057
0.000862326
0.00156475
0.000943006
0.00030498
0.00279095
0.00167144
0.000862918
0.000982441
0.00491353
0.000776566
0.000261425
0.00116283
0.000455711
0.00325173
0.00194089
0.00460492
0.00192799
0.000777883
0.0020475
0.00116653
0.0052999
0.00323449
0.00279182
0.00324053
0.00193064
0.000718452
0.00098493
0.00660865
0.00121594
0.00130387
0.00254755
0.00539647
0.00219123
0.00388345
0.00530818
0.0010326
0.00459492
0.00449479
0.00139995
0.00218746
0.00545197
0.00318572
0.00617114
0.00222309
0.0018455
0.00651453
0.00425363
0.00265717
0.00152313
0.00209245
0.00495599
0.00129038
0.000851272
0.00107545
0.000486965
0.00274828
0.000552424
0.00682768
0.00118865
0.00229493
0.00482746
0.00170319
0.00384719
0.00132153
0.00468862
0.00140373
0.00180689
0.000935677
0.000371614
9.91052e-05
0.000351729
0.00100456
0.000280505
0.000204571
0.000908808
0.0025238
0.000474693
0.00346073
0.00466987
0.000333577
0.000500756
0.000372385
0.000959274
0.00355109
0.00192191
0.00222557
0.00133493
0.00082426
0.000807391
0.00094796
0.000475024
0.000993375
0.000763208
0.000728936
0.000150946
0.00120415
0.00136758
0.00579884
0.000249345
0.00228099
0.00663778
0.00459208
0.00365297
0.00271459
0.00676803
0.00661229
0.00180869
0.00117413
0.000467496
0.00157865
0.000886072
0.00182711
0.0010654
0.00137363
0.00129493
0.00122381
0.00170501
0.00043553
0.000833616
0.00269386
0.00164901
0.000541194
0.000246599
0.000844391
0.000487417
0.000454313
0.00074479
0.00102722
0.00138366
0.000855785
0.00121918
0.00142476
0.00104167
0.000664053
0.000890903
0.000753865
0.00161237
0.000963668
0.00269125
0.00294169
0.00162988
0.00142209
0.00150511
0.00168062
0.00130478
0.00116567
0.00311547
0.00376095
0.000479365
0.000129274
0.000205981
0.00154587
0.00168876
0.000638571
0.00241018
0.00493064
0.000319394
0.000629163
0.000856346
0.000402257
0.00102161
0.00289347
0.00225396
0.00147062
0.001402
0.000856399
0.00672034
0.00236507
0.00130141
0.00243061
0.00202567
0.00469329
0.00511255
0.00262857
0.00121974
0.00239532
0.001826
0.00259863
0.00135042
0.00163502
0.00143542
0.00377848
0.00031943
0.000910246
0.00065076
0.000752982
0.00119825
0.00101586
0.000796129
0.000619952
0.00102144
0.000730726
0.000611209
0.000519895
0.000646695
0.000838581
0.00596819
0.00248124
0.00277298
0.00590054
0.00508983
0.00242218
0.00234151
0.00487952
0.00367491
0.00432736
0.00193588
0.00412475
0.000772687
0.000867692
0.00087012
0.000887208
0.00233947
0.00277407
0.00277769
0.00203639
0.00398124
0.00393138
0.00122691
0.00368505
0.0031641
0.00631823
0.000621471
0.00566987
0.00415501
0.00568285
0.00623627
0.00267805
0.00202464
0.00461717
0.00125195
0.00185308
0.000947633
0.00127793
0.00124196
0.00141103
0.00171083
0.00107567
0.000812052
0.00107451
0.00171677
0.000848166
0.000640325
0.0015605
0.000888012
0.00144198
0.00101059
0.000316615
0.000909766
0.000266897
0.00284652
0.000538847
0.000819733
0.00226918
0.000852824
0.00107656
0.000442504
0.00275495
0.000172017
0.00213129
0.0015884
0.0011993
0.00440551
0.00641726
0.0016899
0.00417564
0.00170085
0.00113354
0.00127212
0.00158039
0.00252302
0.00173774
0.00234233
0.00122946
0.00101927
0.00508654
0.00135264
0.00538274
0.00345698
0.003632
0.00279379
0.000916379
0.000189099
0.00235331
0.000595556
0.00185102
0.0013229
0.00183385
0.00245463
0.00697364
0.00102782
0.0019074
0.00153708
0.00075362
0.00115813
0.0010256
0.00730751
0.00733395
0.00184737
0.00157897
0.000354026
0.000934176
0.00159668
0.000643766
0.00156724
0.000991318
0.00311805
0.00434827
0.0023477
0.00472783
0.00248735
0.00253502
0.000384721
0.000282965
0.000842967
0.000989721
0.00572729
0.00438317
0.000675612
0.000427718
0.00030606
0.000602479
0.000860146
0.000326326
0.00054022
0.000778154
0.000586296
0.000554569
0.000458265
0.000539896
0.00041532
0.000821784
0.000809469
0.000423822
0.000580301
0.00199973
0.000389209
0.00191402
0.000955157
0.00216653
0.00264159
0.00484047
0.00398461
0.000552301
0.000908256
0.00421624
0.00122727
0.00126335
0.00246284
0.00168345
0.00226758
0.00116057
0.00175178
0.00128666
0.00163496
0.00126592
0.00074965
0.000683413
0.00575749
0.0018582
0.00321761
0.000648373
0.00482571
0.00089163
0.00183066
0.00207409
0.00202757
0.000228473
0.0010283
0.000513861
0.000512602
0.00121005
0.00064835
0.000992185
0.000520635
0.00139763
0.000980673
0.00172545
0.000498825
0.00239216
0.0007917
0.000788907
0.000991368
0.000320446
0.000730543
0.000584707
0.000715457
0.000814335
0.00103282
0.000768205
0.00588674
0.000404512
0.000400859
0.00186344
0.00242623
0.00294171
0.00160589
0.000364057
0.000314095
0.000583483
0.00120685
0.00178834
0.00163433
0.00174516
0.0014796
0.00154969
0.00104583
0.00160916
0.00144685
0.0012914
0.0010011
0.00114722
0.000637264
0.00351742
0.000225903
0.000427834
0.000446266
0.000537569
0.000410455
0.000287286
0.00044379
0.000425649
0.00424516
0.00412059
0.000511176
0.00155869
0.00278443
0.00161718
0.00168942
0.00100742
0.00108137
0.000526135
0.000752366
0.00105747
0.00159538
0.000376643
0.00179027
0.00603472
0.00662012
0.00681719
0.00335077
0.00357626
0.00198242
0.00260086
0.00567711
0.00206034
0.00188361
0.00178041
0.00124684
0.00317174
0.00324173
0.00211119
0.00116356
0.00435714
0.00140212
0.00495579
0.00114098
0.00210311
0.00496247
0.00308855
0.00206412
0.000852208
0.00206761
0.00160608
0.00312631
0.00108479
0.00152661
0.00124884
0.00151575
0.00170246
0.00133105
0.000785923
0.000820514
0.00247746
0.00151665
0.000763411
0.000475326
0.00094454
0.000952287
0.000347683
0.000465005
0.000716811
0.00162639
0.00195523
0.00132359
0.00218978
0.00165459
0.00157967
0.000688424
0.00254537
0.000979698
0.00140093
0.00251833
0.00109932
0.00252352
0.00142655
0.000998116
0.00109259
0.000643617
0.00174658
0.00118688
0.00123381
0.00463107
0.00121325
0.000988957
0.00073123
0.00137759
0.00156746
0.00658865
0.00609882
0.00443382
0.00441859
0.0033379
0.00449819
0.00144538
0.00146674
0.000868748
0.00131082
0.00195899
0.00322268
0.00283721
0.00433293
0.00439027
0.00493465
0.00154429
0.00177547
0.000393431
0.00613053
0.00190363
0.00594208
0.000373866
0.00145899
0.00655778
0.00473094
0.000495301
0.000694173
0.00114306
0.00185513
0.00411905
0.00106024
0.0027125
0.00239778
0.00393307
0.0022598
0.00295674
0.00402447
0.00346608
0.00184943
0.0070209
0.00313464
0.00356585
0.00408775
0.00607502
0.000243068
0.00127953
0.00179549
0.000190999
0.00192376
0.00209708
0.00176681
0.00227818
0.00189192
0.000945306
0.000557746
0.000563551
0.000507727
0.000114552
0.00120792
0.000533898
0.000841023
0.0018811
0.00240805
0.000808569
0.000787423
0.00281184
0.0048047
0.00291654
0.000624054
0.000612636
0.00197131
0.000987479
0.00279529
0.00243643
0.00438877
0.00273767
0.00274542
0.000788988
0.000388235
0.000975178
0.000758737
0.000108412
0.000442433
0.000690705
0.000698891
0.00273985
0.000770527
0.00216196
0.00190919
0.00189209
0.00203606
0.0022366
0.00231818
0.00116068
0.00234353
0.00339449
0.00470658
0.00104921
0.00125102
0.00138051
0.000781707
0.000676532
0.000983819
0.00185992
0.00204367
0.00232774
0.00218375
0.0018037
0.0020803
0.00236736
0.00437346
0.00319977
0.00245089
0.00250905
0.00154825
0.000538821
0.000269599
0.00107245
0.00155605
0.00313347
0.00196947
0.000955393
0.00287846
0.000556056
0.00233216
0.000512376
0.00402074
0.00129394
0.000825644
0.00034326
0.00117164
0.00105989
0.00198326
0.000982567
0.00154477
0.00279207
0.00147282
0.00415843
0.00154119
0.00140853
0.00471892
0.00208009
0.00622868
0.00670748
0.00133835
0.00166931
0.00169878
0.0071655
0.00319373
0.00560328
0.00561899
0.00485774
0.003545
0.00586428
0.00382731
0.0044464
0.000327589
0.00187411
0.00303296
0.0016289
0.00222089
0.00188471
0.00415701
0.00158042
0.00164594
0.00147862
0.00150929
0.000953381
0.0010411
0.00142574
0.00197972
0.000216532
0.0011828
0.00169749
0.000968621
0.00130902
0.00146046
0.00201765
0.00441077
0.00359937
0.00104219
0.000266955
0.00229793
0.00682438
0.00488365
0.0015419
0.00223395
0.00215392
0.000542955
0.000621099
0.00106654
0.000827774
0.000693706
0.00202982
0.00167475
0.000703466
0.00238423
0.00167441
0.000366812
0.00229098
0.00266364
0.00160556
0.00329604
0.00137316
0.00238969
0.00257694
0.00285189
0.00380793
0.00162541
0.00114281
0.00125372
0.00144397
0.00235029
0.00148481
0.000557016
0.0014266
0.00332124
0.000499568
0.000293163
0.00453482
0.00181032
0.000523607
0.000688827
0.00039495
0.000434492
0.000352871
0.00115513
0.00148032
0.00259827
0.00183034
0.00126364
0.000286386
0.000910142
0.000745463
0.00259915
0.000672042
0.000661937
0.000346536
0.000365723
0.00111294
0.000227108
0.000522533
0.00296332
0.00299795
7.82757e-05
0.000923786
0.00613287
0.00214694
0.00112412
0.00112775
0.00110265
0.00214842
0.00114316
0.00134518
0.00132368
0.000929455
0.00387124
0.00341644
0.00481368
0.00363461
0.0031841
0.00552395
0.00231475
0.00598005
0.0038961
0.00154883
0.00557367
0.00300485
0.00257672
0.00226036
0.00252844
0.00153654
0.000780025
0.00181027
0.00092299
0.000883617
0.00234111
0.000250997
0.00135099
0.000953082
0.00149385
0.00133928
0.000823876
0.000561157
0.000417445
0.0056034
0.0037911
0.00193471
0.00084557
0.000840304
0.000874197
0.00109843
0.000771321
0.000336658
0.000558496
0.00129801
0.00360602
0.000763566
0.00150093
0.000942217
0.000165277
0.00460241
0.000890645
0.0013923
0.000515687
0.00230139
0.00141659
0.00245333
0.00111315
0.000188578
0.000582511
0.00216311
0.000979716
0.000414388
0.000707999
0.000551816
0.00125776
0.00131325
0.00052824
0.00063874
0.00348891
0.000828161
0.000297545
0.00288134
0.000399346
0.000381868
0.00114106
0.00035166
0.000750612
0.000486996
0.000940025
0.00327683
0.00164797
0.00297718
0.00174767
0.00143318
0.00126993
0.00158902
0.00330038
0.00230559
0.00047701
0.000834559
0.00081505
0.00196261
0.00285022
0.00154048
0.000505547
0.000851586
0.000717192
0.00085971
0.000444176
0.000427928
0.00196494
0.000909434
0.000590808
0.000323477
0.000676873
0.00358915
0.00189443
0.00282987
0.00379244
0.00400311
0.00130219
0.000832648
0.00170337
0.00266194
0.00104083
0.00101708
0.00543143
0.000195518
0.000424862
0.00284486
0.00179244
0.000577022
0.000884353
0.00552335
0.00441248
0.00179131
0.00299017
0.00118105
0.00172787
0.000127954
0.000841776
0.000373204
0.000982939
0.00120713
0.00104475
0.00175856
0.00164903
0.00125813
0.000638643
0.00102554
0.00327988
0.00207601
0.00465457
0.00242876
0.00151776
0.00155994
0.000994875
0.00154836
0.00200703
0.00125696
0.00182381
0.00163784
0.000380247
0.000319328
0.000961976
0.000328124
0.000938947
0.00080693
0.000674852
0.00440542
0.00110774
0.000179237
0.00287682
0.00101251
0.00148685
0.00206957
0.00339837
0.00163722
0.00438634
0.00128374
0.000289936
0.000516537
0.000537916
0.000423041
0.00407495
0.00172795
0.00237456
0.00156248
0.00186434
0.00630723
0.00115562
0.00166553
0.000787401
0.000612876
0.000488652
0.000796367
0.00292828
0.000708414
0.000978864
0.00281409
0.0053884
0.000405476
0.00195217
0.00208833
0.00244076
0.00198557
0.00415955
0.00467382
0.00442266
0.00487999
0.00438988
0.00262835
0.00591385
0.00260744
0.0006303
0.000832327
0.00321161
0.000940126
0.000794437
0.00423515
0.00409174
0.00288291
0.00468614
0.00116715
0.00479766
0.00449731
0.00211843
0.00198124
0.00443853
0.00449367
0.00408139
0.00480205
0.00292676
0.00298913
0.00647392
0.00339348
0.000578447
0.00448302
0.00511757
0.00214126
0.000460218