/*--------------------------------*- C++ -*----------------------------------*\
| =========                 |                                                 |
| \\      /  F ield         | OpenFOAM: The Open Source CFD Toolbox           |
|  \\    /   O peration     | Version:  2506                                  |
|   \\  /    A nd           | Website:  www.openfoam.com                      |
|    \\/     M anipulation  |                                                 |
\*---------------------------------------------------------------------------*/
FoamFile
{
    version     2.0;
    format      ascii;
    arch        "LSB;label=32;scalar=64";
    class       volScalarField;
    location    "0.0563953";
    object      k;
}
// * * * * * * * * * * * * * * * * * * * * * * * * * * * * * * * * * * * * * //

dimensions      [0 2 -2 0 0 0 0];

internalField   nonuniform List<scalar> 
47425
(
0.309991
0.343178
0.318947
0.322849
0.479037
0.326441
0.43519
0.331826
0.366888
1.25658
0.33953
0.329065
0.371866
0.31977
0.31492
0.337681
0.317013
0.350261
1.10735
0.542913
0.326053
0.317706
0.329929
0.321533
0.317227
0.310637
0.30854
0.856696
0.306613
0.311563
0.324807
0.324447
0.356138
0.310623
0.310308
0.327252
0.317123
0.363343
0.316684
0.324062
0.366474
0.470902
0.893371
0.378402
1.45612
0.355385
0.33544
0.350744
0.313744
0.310287
0.809818
0.624084
0.308763
0.850245
0.373355
0.367159
0.311224
0.30986
0.436984
0.318852
0.922913
0.855482
0.893649
0.334604
0.364462
0.316907
0.341742
0.370024
0.804168
0.326525
0.314452
0.305808
0.311372
0.320838
0.918514
0.368709
0.913494
0.3182
0.853058
0.539063
0.93371
0.321074
0.320433
0.348723
0.317678
0.324429
0.308088
0.308083
0.53791
0.629156
0.321147
0.344833
0.314967
0.370686
0.382867
0.367768
0.313191
0.308813
0.315345
0.360289
0.335875
0.442705
0.320736
0.46445
0.313758
0.37322
0.312001
0.323461
0.365281
0.323056
1.16303
0.326961
0.429682
0.354128
0.33828
0.8432
0.333735
0.653297
0.342927
0.337987
0.324575
0.3627
0.343966
0.353987
0.353478
0.39968
0.328859
0.364887
0.35572
0.314807
0.322208
0.334424
0.515394
0.353957
0.467731
0.353604
0.322923
0.405914
0.317541
0.316378
0.354128
0.374776
0.338445
0.464994
0.336828
0.366224
0.44579
0.340589
0.365751
0.361647
0.467482
0.810777
0.360304
0.822131
0.342721
0.330878
0.353956
0.947968
0.358254
0.335253
0.343204
0.311643
0.310039
0.321076
0.755701
0.87052
0.339303
0.930853
0.340836
0.89655
0.97124
0.355884
0.353871
0.330737
0.354799
0.389298
0.864584
0.305924
0.30953
0.313802
0.8641
0.306648
0.306334
0.314174
0.311988
0.337702
0.317239
0.432621
0.355633
0.306626
0.357981
0.310075
0.436851
0.365297
0.315303
0.323726
0.360533
0.331258
0.336697
0.300279
0.338925
0.365778
0.337722
0.326529
0.345078
0.377397
0.305845
0.321841
0.350682
0.361903
0.310153
0.313163
0.352252
0.317287
0.315138
0.316487
0.309668
0.596633
0.348528
0.356132
0.555214
0.292493
0.583897
0.309592
0.399775
0.534052
0.314327
0.330465
0.361657
0.395599
0.310355
0.324258
0.350489
0.369371
0.370788
0.328347
0.580818
0.342209
0.542832
0.369267
0.34008
0.305128
0.311431
0.319834
0.315046
0.362577
0.315562
0.3576
0.310361
0.316023
0.314004
0.519639
0.319569
0.365695
0.322648
0.311618
0.318192
0.366601
0.314752
0.357619
0.382977
0.352349
0.319495
0.364695
0.382842
0.35426
0.313599
0.38013
0.31055
0.331467
0.323589
0.528567
0.579017
0.311746
0.518833
0.376713
0.520224
0.466785
0.564133
0.558537
0.99027
0.307974
0.944001
0.369466
0.322565
0.312037
0.357964
0.326913
0.367418
0.351237
0.793012
0.332502
0.371308
0.310924
0.315236
0.333508
0.334503
0.312939
0.323879
0.373159
0.340978
0.309336
0.33493
0.311017
0.88209
0.875006
0.828543
0.312891
0.308984
0.315864
0.330786
0.820562
0.327136
0.335566
0.591874
0.349867
0.3478
0.372865
0.324369
0.654046
0.566601
0.321692
0.316774
0.306596
0.343887
0.310405
0.320222
0.310153
0.309049
0.312074
0.310085
0.886921
0.336972
0.315316
0.38382
0.313001
0.857968
0.325243
0.308989
0.314214
0.322273
0.322284
0.309695
0.318647
0.307154
0.312526
0.311742
0.319638
0.316852
0.345972
0.324008
0.31605
0.327916
0.320758
0.324419
0.351592
0.330311
0.318935
0.321292
0.360299
0.36389
0.349895
0.333278
0.327617
0.311742
0.328473
0.371242
0.358456
0.33163
0.321521
0.365951
1.03734
0.311479
0.32612
0.385664
0.324099
0.430591
0.361647
0.364439
0.317226
0.357622
0.323
0.3103
0.35526
0.352753
0.364515
0.329529
0.318043
0.349781
0.327069
0.324293
0.327947
0.333908
0.312855
0.316981
0.322224
0.324339
0.326774
0.404541
0.309693
0.667572
0.311211
0.877689
0.338218
0.369766
0.359717
0.312146
0.354602
0.308884
0.34072
0.32463
0.620617
0.877471
0.309665
0.344438
0.316419
0.315574
0.324877
0.322463
0.313411
0.361548
0.329771
0.311584
0.31738
0.323712
0.309106
0.451221
0.313431
0.322664
0.509874
0.568153
0.317493
0.643907
0.587287
0.359502
0.571464
0.775849
0.312102
0.314075
0.31547
0.313397
0.795026
0.33891
0.309278
0.313326
0.318859
0.319554
0.328294
0.314076
0.721193
0.778438
0.519967
0.356391
0.409192
0.498531
0.314954
0.320411
0.360141
0.319345
0.355206
0.363124
0.377802
0.319479
0.369613
0.318982
0.313833
0.343442
0.324272
0.321378
0.318499
0.348641
0.357672
0.371089
0.342751
0.316129
0.353401
0.320327
0.768177
0.362721
0.40551
0.345117
0.356806
0.829609
0.341541
0.311882
0.344307
0.350294
0.328995
0.340619
0.354124
0.305633
0.335059
0.308819
0.332306
0.457987
0.308128
0.358031
0.322415
0.370021
0.310503
0.311788
0.312614
0.318027
0.323683
0.337324
0.317867
0.309764
0.313982
0.331084
0.331362
0.343438
0.338837
0.311332
0.319499
0.302895
0.306946
0.31836
0.340336
0.319457
0.343333
0.363307
0.375394
0.786024
0.323523
0.316827
0.337933
0.365736
0.462246
0.465543
0.343607
0.314068
0.348457
0.439205
0.324147
0.473405
0.362385
0.801003
0.355629
0.357223
0.312365
0.465111
0.314926
0.317244
0.325606
0.322976
0.309884
0.305518
1.0405
0.314444
0.36536
0.31472
0.44551
0.308041
0.312025
0.425798
0.415063
0.324289
0.311154
0.285324
0.309215
0.321545
0.308703
0.310584
0.311471
0.386561
0.457357
0.329149
0.31415
0.326404
0.314287
0.537317
0.321737
0.320183
0.23582
0.322169
0.312224
0.331187
0.766255
0.322818
0.216864
0.23537
0.308465
0.347123
0.307824
0.316871
0.364053
0.348201
0.856063
0.320359
0.350189
0.310156
0.463755
0.381801
0.369584
0.325546
0.813571
2.40913
0.315358
0.331178
0.335418
0.324971
0.368324
0.380205
0.324313
0.333978
0.378949
0.300827
0.359599
0.481402
0.350362
0.315828
0.487451
0.345129
0.317969
0.332474
0.343857
0.309987
0.361926
0.377006
0.368541
0.343856
0.317821
0.313488
1.02083
0.3276
0.399426
0.847661
0.810227
0.314056
0.360235
0.760988
0.354896
0.431006
0.790883
0.376794
0.817693
0.312314
0.311655
0.354906
0.521466
0.381513
0.37557
0.308182
0.373547
0.315029
0.324369
0.310762
0.348534
0.329546
0.769178
0.717325
0.34676
0.349249
0.350223
0.326309
0.375826
0.351722
0.352443
0.360592
0.343005
0.332072
0.349887
0.354585
0.311833
0.399729
0.367303
0.868781
0.573562
0.347554
0.321088
0.361688
0.312079
0.870425
0.319776
0.97571
0.35691
0.445826
0.348688
0.330391
0.330871
0.305338
0.366482
0.318529
0.305818
0.39448
0.4
0.368557
0.39647
0.358507
1.14963
0.349138
0.377051
0.376058
0.363678
0.311299
0.360994
0.330315
0.394572
0.341701
0.327796
0.363041
0.328014
0.336553
0.319552
0.316381
0.491184
0.567747
0.313264
0.453291
0.314079
0.332904
0.313621
0.310786
0.565282
0.304199
0.320273
0.322783
0.310876
0.68699
1.15288
0.325572
0.335102
0.312493
0.345865
0.306246
0.333549
0.335131
0.557868
0.333477
0.312917
0.327185
0.314021
0.320574
0.318293
0.309014
0.321924
0.313219
0.308772
0.339033
0.559664
0.311166
0.246054
0.622875
0.572168
0.249133
0.339749
0.973202
0.36892
0.344477
0.517278
0.282278
0.838593
0.342703
0.310795
0.476911
0.342877
0.573378
0.324952
0.350479
0.311704
0.317196
0.433704
0.35278
0.329981
0.348262
0.476158
0.386704
0.348417
0.37843
0.501673
0.478466
0.589495
0.89917
0.980695
0.63347
0.664825
0.363102
0.36224
0.316514
0.311777
0.347976
0.308857
0.336795
0.343404
0.35372
0.314713
0.312749
0.326356
0.313206
0.386057
0.332981
0.312885
0.370146
0.313265
0.317951
0.317007
0.350004
0.439581
0.31321
0.312788
0.312862
0.361422
0.353401
0.536278
0.450656
0.309859
0.348743
0.306749
0.314769
0.315817
0.351838
0.359881
0.511401
0.319692
0.314825
0.316301
0.408445
0.901474
0.329148
0.329069
0.412844
0.350639
0.34313
0.349406
0.337597
0.3768
1.53887
0.447312
0.870599
0.366857
0.406949
0.310402
0.402465
0.317639
0.339463
0.346006
0.319599
1.26081
0.447276
0.370122
0.488013
0.370568
0.306845
0.334803
0.412511
0.318864
0.352763
0.232557
0.315718
0.399528
0.3737
0.394572
0.731955
0.37561
0.370664
0.51169
0.316939
0.316896
0.449361
0.548735
0.33477
0.422375
0.46379
0.332834
0.328569
0.312896
0.336737
0.35566
0.353652
2.67975
0.689678
0.378091
0.549954
0.5269
1.44185
2.41314
0.529405
0.364184
0.360767
0.373543
0.372379
1.34185
0.315954
0.34106
0.372777
0.32249
0.338974
0.355889
0.3599
0.310172
0.385293
0.487634
0.363485
1.02508
0.311769
0.392391
0.376584
0.365705
0.357282
0.349922
0.374811
0.461129
0.360283
0.380544
0.478727
0.337219
0.318311
0.346151
0.432182
0.312499
0.416324
0.37181
0.371707
0.660496
1.0832
0.310846
0.363501
0.329679
0.361893
0.362523
0.687986
0.551397
1.55891
0.317529
0.378015
0.33584
0.927864
0.319543
1.5765
0.402693
0.383129
0.511113
0.605434
0.326371
0.311911
0.318921
0.332354
0.47626
0.329665
0.410743
0.938578
0.406602
0.310991
0.312768
0.699533
0.928063
0.519814
0.556687
0.946737
0.402377
0.359655
0.40604
0.317593
0.49005
0.373039
0.38863
1.25549
0.337125
0.311632
0.315816
0.357219
0.399176
0.374272
0.336072
0.32779
0.47064
0.315617
0.332786
0.312632
0.352864
0.369316
0.387008
0.35464
0.341278
0.323157
0.383749
0.31582
0.317084
0.328157
0.32807
0.387154
0.477548
0.343911
0.376379
0.314777
1.77707
0.381948
0.366943
0.337634
0.970933
0.678784
1.07342
0.342475
0.343944
0.343535
0.739271
0.387037
0.349382
0.386947
0.358185
0.359759
0.878352
0.366832
0.325107
0.364737
0.364817
0.309309
0.599024
1.01936
0.317487
1.00723
0.344785
0.676897
0.594215
0.314751
0.350686
0.373269
0.630421
0.343913
0.347396
0.343933
0.767412
0.499913
0.623241
0.319333
0.330969
0.311664
0.322004
1.18585
1.21375
0.350259
0.373936
0.390691
0.739331
0.319323
0.307989
1.56564
1.13911
0.356139
0.325666
0.901967
1.34347
0.944575
0.372248
0.702288
1.08997
0.785868
0.32684
0.459214
0.453489
0.336218
0.348602
1.2247
1.40666
0.369805
0.378005
0.346242
0.326538
0.350343
0.332997
0.501115
0.331855
0.366939
0.314287
0.36048
1.00458
0.980947
0.326888
0.590259
0.443101
0.323292
0.534008
0.307214
0.341109
0.316992
0.34729
0.389602
0.311316
0.771588
0.317819
0.880396
0.668613
0.797313
0.405852
0.415851
0.342265
0.358828
0.322712
0.562098
1.14498
0.355316
0.927841
0.531869
0.81448
0.484043
0.917847
0.71873
0.332461
0.321641
0.943441
0.336908
0.325831
0.320201
0.731538
0.715856
0.319912
0.341524
0.643659
0.422333
1.01567
0.813953
0.354505
0.470596
1.04722
0.348074
0.33569
0.788467
0.322577
0.806701
0.838513
0.320547
0.313597
0.328567
0.312702
0.372908
0.31731
0.320766
0.364205
0.373734
0.484905
0.352073
0.329552
0.515183
0.95322
0.834375
0.358405
0.35045
0.557344
0.325696
0.998213
0.339615
0.350467
0.360677
1.51227
0.345854
1.92022
0.386333
0.516514
0.352506
0.793287
0.642098
0.674608
0.434086
0.557765
0.38183
0.363527
0.400869
0.596309
0.448628
0.469895
0.812365
0.38816
0.465403
0.919671
0.358763
0.315465
0.761552
1.92848
0.3305
0.342341
0.359353
0.379488
1.07717
0.99563
0.310838
0.329823
0.359147
0.776884
0.355956
0.609555
0.386384
0.347026
0.352647
0.484852
0.367842
0.630224
0.629043
0.353062
0.388099
0.44716
0.331072
0.929165
1.94473
0.344476
0.878528
0.852717
0.376772
0.764955
0.360618
0.373904
1.0321
0.375257
0.975529
1.86918
0.334393
0.379803
0.439736
0.365347
0.353256
0.40169
0.507594
0.418349
0.330397
0.401401
0.33422
0.888225
0.40566
0.361464
0.376057
0.562445
0.318423
0.853322
0.731711
0.370899
0.825406
0.96848
0.312758
0.483857
0.552988
0.360408
0.351489
0.52718
0.723411
0.512065
0.804232
0.319535
0.779385
0.460157
0.309308
0.392538
0.370545
0.505562
0.346809
0.396566
0.624847
0.309521
0.594175
0.360712
1.38462
0.38352
0.30703
0.37425
0.540056
0.369182
0.678775
0.448826
0.332493
0.786148
0.315144
0.340146
1.16328
0.310155
0.380166
0.728939
0.346326
0.747936
1.39318
0.37058
0.414125
0.314126
0.914713
0.654423
0.829463
0.78039
0.421466
0.348408
0.436839
0.931959
1.01295
0.83152
0.354154
0.357565
0.357834
0.32612
0.37924
0.73528
0.350288
0.333434
0.348567
0.311248
0.333011
0.356181
0.327852
0.349292
0.363408
0.443931
0.317055
0.365351
0.583111
0.330998
0.314669
0.377226
0.358116
0.359438
0.311411
0.343486
0.340667
0.327458
0.376021
0.674024
0.341895
0.331818
0.31638
0.31399
0.537542
0.320555
0.320676
0.682315
1.21521
0.732847
0.327347
0.661578
0.483961
0.332438
0.626811
0.437284
0.606301
0.360334
0.324877
0.349464
0.399
0.319203
0.36673
0.379629
0.366659
0.320055
0.319279
0.363453
0.518873
0.353959
0.421792
0.866048
0.346938
0.678713
0.409565
0.881866
0.308868
0.364724
0.357566
0.311779
0.327724
0.366383
0.312684
1.57731
0.588091
0.851041
0.377693
1.02527
0.313369
0.337516
0.52955
0.318942
0.804174
0.427023
0.631794
0.313516
0.972187
0.955671
0.322263
0.310478
1.03387
0.329676
0.801978
0.322273
0.363698
0.31939
0.315906
0.320667
0.334787
0.339527
0.626929
0.402525
0.387848
0.343954
0.329414
0.314247
0.359003
1.36788
0.365113
1.84085
0.559502
0.318193
0.375484
0.33743
0.333483
0.332554
0.363209
0.347649
0.362907
0.335007
0.302234
0.353912
0.361167
1.30216
1.48177
0.356903
0.360514
1.25381
0.34328
0.312434
0.313067
0.311485
0.35179
0.375369
0.400068
0.378361
0.33824
0.314301
0.406711
0.309364
0.302386
0.327601
0.743277
0.390297
0.849217
0.771687
0.839613
0.328753
0.316496
0.307643
0.309629
0.312907
0.652258
0.331559
0.31076
0.33272
0.35746
0.3144
0.483895
0.311573
0.374448
0.457592
0.341597
0.312663
0.318309
0.338281
0.340246
0.316939
0.345678
0.326778
0.511865
0.325836
0.350257
0.393759
0.325769
0.329356
0.314621
0.338161
0.316249
0.368593
0.391329
0.312484
0.306951
0.319099
0.324432
0.316708
0.359567
0.311451
0.314513
0.311636
0.329585
0.842208
0.32534
0.433301
0.307849
0.31344
0.744295
0.327806
0.362789
0.309186
0.320948
0.352439
0.370311
0.763754
0.373438
1.86889
0.312083
0.319953
0.35985
0.313866
0.311263
0.38127
0.33927
0.310925
0.311953
0.963132
0.440078
0.680848
0.368308
0.567748
0.368709
0.309715
0.388597
1.0005
0.359843
0.319458
0.319867
0.803344
0.314982
0.325294
0.341176
0.336102
0.328677
0.802511
0.317915
0.334471
0.347651
0.334684
0.374413
0.927256
0.824718
0.318817
0.314644
0.313714
0.37083
0.34766
0.310008
0.813732
0.966101
0.313479
0.353281
0.804708
0.32222
0.646674
0.46083
0.31144
0.315804
0.317287
0.323185
0.629816
0.340563
0.336455
0.332831
0.372642
0.326479
0.361544
0.598905
0.362927
0.498921
0.512923
0.463709
0.595082
0.358255
0.387722
0.402756
0.379196
0.344764
0.33338
0.840427
0.602276
0.377902
0.366454
0.360559
0.356675
0.343246
0.349191
0.314598
0.310172
0.357089
0.350023
0.505205
0.430799
0.893312
0.724149
0.343334
0.377897
0.324999
0.326761
0.365126
0.313046
0.332681
0.311764
0.312801
0.330834
0.302475
0.313184
0.327021
0.647574
1.0487
0.35654
0.309689
0.470456
0.512159
0.851116
0.328261
0.799851
1.93647
0.728837
0.854747
0.409034
0.312587
0.309761
0.360617
0.882024
0.309158
0.372717
0.34342
0.312432
0.701586
0.64441
0.620341
0.335154
1.43609
0.309625
0.318072
0.348732
0.349532
0.760796
0.831467
0.312468
0.447407
0.294722
0.380915
0.319472
0.926117
0.353691
0.888028
0.371926
0.880268
0.354072
0.49824
0.483406
0.556728
0.380213
0.382716
0.590061
0.352647
0.354104
0.408651
0.390986
0.360726
0.341948
1.28128
0.675179
0.337439
0.616753
0.808114
0.604833
0.322006
0.316794
0.834755
0.700313
0.795943
0.318294
1.07625
0.318593
0.868391
0.700003
0.634131
0.696363
0.311059
0.36961
0.316897
0.331711
0.332844
0.523767
0.426894
0.313
0.311113
0.362596
0.332617
0.311552
0.313862
0.471416
0.312781
0.307341
0.341999
0.342287
0.436656
0.339144
0.373322
0.370139
0.315572
0.448209
0.451636
0.317554
0.320158
0.492124
0.641144
0.334366
1.50435
0.358583
0.436807
0.757107
0.406532
0.336022
0.312547
0.510977
0.331401
0.307173
0.372868
0.327718
0.31761
0.332749
0.317846
0.314309
0.324827
0.340287
0.326986
0.367996
0.70312
0.324435
0.329948
0.32725
0.335985
0.429585
0.883583
0.337263
0.319765
0.338466
0.589878
0.381971
0.338409
0.337914
0.869682
0.355335
0.385059
0.369671
0.412995
0.343879
0.356158
0.337072
0.529958
0.375926
0.362165
0.966832
0.333837
0.396701
0.351157
0.350668
0.3539
0.391137
0.330575
0.337055
0.317457
0.359832
0.329886
0.353296
1.62602
0.319141
0.425555
0.376081
0.344619
0.684538
0.370134
0.465411
0.364938
0.589882
0.659764
0.344233
0.318604
0.395057
0.396995
0.350064
0.318215
0.809547
0.470845
0.383028
1.59778
0.482606
0.324305
0.5189
0.551181
1.26437
0.745671
0.39895
0.56135
0.399665
0.572214
0.486632
0.891658
0.314955
0.43604
0.32802
0.625596
0.370111
0.404659
0.359194
0.361804
0.351322
0.384641
0.624823
0.337222
0.367601
0.408898
0.51213
0.787042
0.425472
0.759625
0.361056
1.06217
0.373342
0.374646
0.843737
0.560526
0.726951
0.662151
0.667943
0.569412
0.338757
0.3299
0.336792
0.390796
0.367218
0.797149
0.361683
0.378624
0.319877
0.488597
0.359837
0.317718
0.882994
0.443252
0.523059
0.251223
0.408922
0.345269
0.358276
0.360543
0.390744
0.322234
0.305842
0.347377
0.403739
0.232972
0.222043
0.522745
0.363102
0.366497
0.427238
0.464779
0.37732
0.361722
0.36278
0.200295
0.374896
0.406524
0.239119
0.372086
0.835593
0.602224
0.344598
1.08658
0.38972
0.487397
1.76407
0.392859
0.375431
0.322176
0.67631
0.314906
0.314104
0.366015
0.371556
0.393954
0.343924
0.562972
0.357778
0.491509
0.322523
0.378435
0.365656
0.309288
1.1776
0.533734
1.06409
0.526094
0.309048
0.919014
0.497505
0.314776
2.64504
0.316148
0.312072
0.477773
0.477245
0.984088
0.735109
0.356428
0.702606
1.53814
0.34038
0.604841
0.992405
0.537076
1.44536
0.38759
0.332845
0.605284
0.68112
0.38752
0.969118
0.367814
0.341575
0.535183
0.367445
0.321602
0.369981
0.791346
0.739347
0.307958
0.527839
0.32311
0.38008
0.346035
0.377181
0.594024
0.436308
0.771299
0.351445
0.360681
0.752577
0.314518
0.327769
0.464092
0.317833
0.354286
1.06827
0.343476
0.917158
0.828779
0.84905
0.802735
0.376378
0.402021
0.310269
0.308526
0.426241
0.316287
0.322509
0.394529
0.324228
0.419402
0.924869
0.315932
0.530153
0.323521
0.478746
0.371226
0.875105
0.362235
0.468285
0.321143
0.33365
0.4059
0.317814
0.338847
0.327933
0.311898
0.541575
0.322874
0.372331
0.366791
0.328037
0.361515
0.348211
0.372109
0.71014
0.342032
0.321158
0.32853
0.395507
0.217543
0.657156
0.486818
0.685567
1.02246
0.39689
0.432952
0.134518
0.297766
0.898676
0.411062
0.544878
0.396976
0.748802
0.716432
1.3245
0.36853
0.34007
0.544386
1.14567
0.353248
0.374689
0.458999
0.41513
0.418259
0.409546
0.87603
1.4109
0.271004
0.382442
0.203607
0.348314
1.15776
0.335861
0.353945
0.325316
0.318247
0.452946
0.325903
0.597197
0.476731
0.323432
0.380917
0.320767
0.5559
0.636125
0.335539
0.430696
0.36788
0.893808
0.454385
0.353825
0.538936
0.531197
0.310609
0.318664
0.356101
0.315644
0.663479
0.317763
0.440431
0.610711
0.329062
0.348892
0.322706
0.323256
0.601875
0.388504
0.526595
0.314113
0.315606
0.560539
0.737596
0.31993
0.340163
0.319255
0.317972
0.635609
0.446892
0.802946
0.350009
0.317731
0.453362
0.391434
0.350868
0.321468
0.381652
0.375744
0.551598
0.449364
1.72404
0.411885
0.421689
0.320135
0.372025
0.842408
0.993979
0.398881
0.878138
0.357462
0.975744
0.426121
0.732477
0.472354
0.525692
0.39205
0.333172
0.363765
0.418693
0.562651
0.355663
0.369664
0.980047
0.37453
1.4356
0.373254
0.345249
0.37137
0.584158
0.417909
0.31878
0.861278
0.314196
0.330439
0.313991
0.361852
0.827894
0.486888
0.332042
0.517174
0.346453
0.3483
0.320024
0.33283
0.420868
0.40298
0.410823
0.353193
0.330102
0.402312
0.344367
0.309593
0.406068
0.363625
2.15812
0.371791
0.46126
0.353063
0.405186
0.357736
0.422792
0.310648
0.359861
0.342198
0.342369
0.372389
0.83485
0.310487
0.654984
0.571441
0.391271
0.379798
0.355616
0.382515
0.444455
0.656303
0.321278
0.345054
0.351381
0.501174
0.384355
0.311594
1.23812
1.20355
0.653053
0.313802
0.319506
0.505531
0.353146
0.353674
0.505437
0.364428
0.334804
0.365121
1.19622
0.318377
0.575579
0.315634
0.335344
0.427266
0.333422
0.382534
0.457785
0.319516
0.590896
0.406849
0.401215
0.447134
0.937548
0.324702
0.359955
0.366274
0.394264
0.356211
0.361314
0.30867
0.308245
0.374467
0.585721
0.375017
0.361037
0.945269
0.373287
0.618265
0.358373
0.383029
0.396319
0.345138
0.774812
0.351576
0.510421
0.367932
0.355034
0.345143
0.391361
0.56775
0.451738
0.325995
0.625795
0.376933
0.711019
0.755245
1.13288
0.324787
0.455823
0.377692
0.235491
0.392414
0.254136
0.441271
0.227224
0.396337
0.751937
0.40247
0.625286
0.688671
0.363136
0.23884
0.459375
0.977781
0.527101
0.676016
1.50334
1.74751
0.704957
0.821624
0.324527
0.353508
0.747734
0.391171
0.926899
0.374354
0.778211
0.772335
0.338509
0.366686
0.33251
0.311179
0.356303
0.310574
0.726584
0.389246
0.364009
0.55499
0.328324
0.357323
0.311117
0.33942
0.354914
0.352503
0.393112
0.312208
0.410994
0.908097
0.314017
0.323009
0.349081
0.320207
0.753379
0.962259
0.394992
0.424608
0.544841
0.31385
0.30383
0.343084
0.364267
0.330276
0.337249
0.324753
0.318796
0.431514
0.31806
0.366001
0.334257
0.313211
0.317239
0.873118
0.329345
0.345461
0.316453
0.430376
0.355034
0.349533
0.700341
0.409326
0.341439
0.388967
0.34472
0.372489
0.388323
0.369149
0.325009
0.377982
0.364285
0.331261
0.353353
0.354018
0.434693
0.455634
0.335141
0.339646
0.402558
0.430699
0.479144
0.569445
0.910917
0.926368
0.343164
0.319546
0.942656
0.531394
0.558891
0.325295
0.314348
0.336176
0.309335
0.333251
0.318353
0.322733
0.351036
0.315769
0.321732
0.318412
0.325404
0.318506
0.536606
0.376442
0.347989
0.323192
0.326002
0.623343
0.314104
0.319779
0.398939
1.05329
0.551651
0.374186
0.362242
0.328549
0.363668
0.470586
0.684717
0.404584
0.331487
0.365271
0.330548
0.329045
0.368346
0.43348
0.363519
0.323986
0.398234
0.402589
0.622186
0.394538
0.749272
0.579434
0.386367
0.391315
0.331051
0.341945
0.374084
0.309715
0.329018
0.605584
0.328276
0.347625
0.716315
0.350604
0.368499
0.518617
0.394611
0.321777
0.353108
0.322703
0.354851
0.732817
0.35092
0.428496
2.88687
0.58255
1.10865
0.841939
0.331378
0.341034
0.531807
0.316078
0.556413
0.492713
0.69639
0.369858
0.314174
0.789769
0.313295
0.545535
0.415507
0.323388
0.722683
0.857136
0.312424
0.322581
0.899584
0.311823
0.318274
0.317415
0.313973
0.347209
0.568139
0.58113
0.341067
0.807102
0.33205
0.338133
0.323034
0.870526
0.336333
0.910435
0.315317
0.355093
0.317053
0.432325
0.335367
0.508744
0.314975
0.658466
0.473208
0.47479
0.706836
0.33622
0.333807
0.880392
0.445998
0.34654
0.41765
0.655077
0.339905
0.426815
0.327288
0.593329
0.405566
0.320777
0.311231
0.457358
0.328736
0.384577
0.35152
0.312925
0.338965
0.318042
0.320331
0.336247
0.740136
0.326366
0.318954
0.317186
0.330428
0.320203
0.343686
0.31355
0.36724
0.43829
0.384173
0.380662
0.322358
0.407485
0.330768
0.381348
0.899924
0.465821
0.757519
0.329112
1.6914
0.36364
0.543178
0.377135
0.351746
0.383844
0.323357
0.314412
0.350248
0.357681
0.305915
0.328061
0.314212
0.671706
0.313555
0.330051
0.369498
0.795004
0.199863
0.339324
0.805826
0.915669
0.612085
0.560742
1.03177
0.162895
0.406288
0.302631
0.349341
0.44391
2.28695
0.55149
0.384718
0.313864
0.315781
0.758203
0.347069
0.552087
0.606639
0.377861
0.590993
0.36831
0.602357
0.32058
0.363791
0.347157
0.311025
0.388995
0.307781
0.350054
1.10652
1.07417
1.09446
0.453445
0.825018
0.332534
0.307728
0.31535
0.369906
0.314945
0.372016
0.321428
0.413217
0.379116
0.311661
0.315979
0.365052
0.312444
0.333432
0.361624
0.321713
0.359728
0.510093
0.33579
0.374022
0.822431
0.365305
0.716734
0.820015
0.353821
0.3887
0.314012
0.477133
0.357073
0.371499
0.673911
0.316769
0.382435
0.347511
0.367
0.322766
0.326077
0.482721
0.519815
0.375501
0.35507
0.792681
0.381725
0.639512
0.584682
0.36051
0.980499
0.439749
0.376174
0.352047
0.351578
0.396741
0.354669
0.304898
0.330595
0.226042
0.588908
0.219979
0.328006
0.360616
0.429041
0.198457
0.826174
0.341852
0.368207
0.393264
0.243377
0.397476
0.712267
1.9097
0.367877
0.326166
0.366003
0.587144
0.322616
0.376617
0.375694
0.32673
0.353777
0.33393
0.609039
0.328665
1.52318
0.387892
0.975336
0.336177
1.30365
0.855967
1.10058
0.345351
0.343923
0.461308
0.368573
0.331141
0.375486
0.336019
0.822494
0.312284
0.469662
0.615061
0.312198
0.318619
0.323772
0.325662
0.355723
0.360488
0.390323
0.392432
0.371808
0.344523
0.400169
0.338906
0.444974
0.329945
0.368032
0.318008
2.18219
1.19281
0.374869
0.446752
0.310126
2.46627
0.309419
0.313228
0.358502
0.310804
0.376478
0.358861
0.311315
0.306176
0.341257
1.09897
0.613467
0.37089
0.815609
0.315734
0.36129
0.330361
0.359563
0.805226
0.38557
0.841378
0.308897
0.332506
0.793643
0.8868
0.339099
0.34055
0.632706
0.37704
0.358686
0.485369
0.384961
0.373282
0.412542
0.374413
0.305688
0.383281
0.354802
0.478023
0.314675
0.362217
0.312657
0.335796
0.805583
0.692079
0.330174
0.363388
0.337782
0.357178
0.328277
0.53304
0.329314
0.346655
0.369373
0.351229
0.438247
0.39704
0.482802
0.371218
0.307279
0.326396
0.315367
0.374912
0.307447
0.527154
0.439496
0.324541
0.647377
0.338755
0.313855
0.357938
0.315714
0.372901
0.632532
0.335114
0.430043
0.36725
0.947993
0.391506
0.371466
0.372553
0.721813
0.374101
0.530085
0.367059
0.399749
0.369167
0.40803
0.381831
0.730212
0.450943
0.363189
0.330328
0.324368
0.552265
0.338427
0.989148
1.72739
0.375889
0.419454
0.357439
0.471024
0.448198
0.384168
0.897109
0.476951
0.654906
0.315803
0.391826
1.02491
0.482271
0.352192
0.466404
0.329689
1.11903
0.385947
0.380591
0.326935
0.314266
0.318263
0.342323
0.315923
2.11484
0.318429
0.640522
0.315405
0.421693
0.387384
0.524793
0.341469
0.34654
0.334213
0.591992
0.461664
0.505112
0.317881
0.31921
0.449533
0.36788
0.355287
0.315121
0.313119
0.314184
0.334914
0.312941
0.369555
0.319218
0.553057
0.428044
1.01105
0.760924
0.602109
0.559738
0.385046
0.392758
0.310901
0.587498
0.325943
0.33842
0.323896
0.456411
0.493885
0.326001
0.419829
0.783761
0.484381
0.3164
0.316088
1.4243
0.817465
0.379512
0.862001
0.87155
0.640324
0.753612
0.57196
0.733479
0.400838
0.634312
0.770989
0.312236
0.320809
0.306291
0.468701
0.606488
0.329099
0.313579
0.396438
0.358739
0.383985
0.822023
0.478149
0.960989
0.347883
0.31535
0.334013
0.314433
0.356391
0.818647
0.805929
0.704194
0.777602
0.321258
1.05206
0.729084
0.31719
0.527865
0.469123
0.772077
0.371265
0.471845
0.769288
0.789805
0.470161
0.85055
0.500166
0.77338
0.36922
0.338428
0.38265
1.09972
0.767166
0.388883
0.332609
0.553123
0.439363
0.57881
0.352329
0.37153
1.11863
1.10748
0.232418
0.323548
0.244432
0.315059
0.230044
0.377185
0.457915
0.603053
0.213
0.432199
0.494091
0.145082
0.457552
1.57167
0.410954
0.378193
0.737241
0.331818
0.494871
0.324536
0.309406
0.328679
0.341129
0.836906
0.700018
1.69621
0.389985
0.385238
0.619374
0.371393
0.469244
0.406182
0.357621
0.332654
0.594673
0.379922
0.413869
0.324178
0.419782
0.40312
0.757343
0.463203
0.808848
0.961567
0.775329
0.373708
0.399513
0.734536
0.308841
0.552208
0.355909
0.38434
0.321557
0.803438
0.612397
0.640745
0.848492
0.611308
0.313622
0.42865
0.872641
0.818083
0.385479
0.357388
0.459832
1.14029
0.35206
0.315655
0.362603
0.337211
0.855971
0.323925
0.616191
1.11235
0.910876
1.72682
0.541443
0.45733
0.799743
1.33501
0.871272
0.586699
0.746944
0.922782
0.529863
0.375715
0.444997
0.356472
0.30498
0.319458
0.419549
0.517325
1.72621
0.36097
0.391126
0.405164
0.377609
0.463978
0.567048
0.477475
0.372728
0.380482
1.03115
1.09698
0.211834
0.394306
0.333822
0.364421
1.532
0.82381
0.37089
0.680553
0.331567
0.442182
0.544798
0.567972
0.339683
0.336663
0.325398
0.389295
0.907257
0.451228
0.352875
0.784576
0.315591
0.936801
0.707686
0.470269
0.69672
0.362886
0.316363
0.323129
0.320887
0.357537
0.39786
0.32709
0.341233
0.327009
0.320029
0.50911
0.688859
0.729621
0.322495
0.47455
0.362521
0.389171
0.34481
0.664602
0.356364
0.338461
0.336292
0.314538
0.327988
0.330609
0.45592
0.310272
0.354714
0.370105
0.616327
0.324842
0.39226
0.49675
0.800624
0.867474
0.383971
0.969242
0.551156
0.371747
0.346072
0.533479
0.329607
1.78845
0.422361
0.32021
0.424419
0.516648
0.405353
0.458109
0.731056
0.868226
0.452079
0.840028
0.340737
0.310932
0.393636
0.317198
0.316765
0.408607
0.320451
0.318838
0.580185
0.314469
0.285951
1.08389
0.594182
0.31428
0.316451
0.706287
0.333815
0.32711
0.582752
0.325185
0.740147
0.402001
0.774445
0.318496
0.544918
0.445663
0.675429
0.323529
0.439721
0.321747
1.10293
0.364328
0.316737
0.9387
0.425508
0.500765
0.355505
0.369457
0.373677
0.320465
0.502061
0.31972
0.321831
0.309791
0.4464
0.548134
0.322038
0.324742
0.321727
0.319594
0.33251
1.26224
0.316678
0.453464
0.315931
0.576906
0.351782
0.367513
0.358909
0.469258
0.335205
0.424179
0.306707
0.337253
0.33599
0.351196
0.317589
0.434947
0.409088
0.855003
0.93701
0.796953
0.393914
0.345419
0.341383
0.31556
0.31686
1.03766
0.641174
0.399367
0.370272
0.308717
0.335929
0.308616
0.32199
0.528543
0.508611
0.77037
0.925267
0.371654
0.349468
0.410846
0.316708
0.592289
0.353928
0.453229
0.363204
0.361539
1.05978
0.416936
0.309168
0.334217
0.400688
0.31754
0.492862
0.314744
0.6984
0.372864
0.909871
0.489555
0.778133
0.322063
0.338274
0.356003
0.374412
0.361072
0.358246
0.315841
0.315162
0.32045
0.329649
0.354906
0.591752
0.3731
0.866507
0.415384
0.323711
0.516558
0.381689
0.361459
0.295794
1.05997
0.891647
0.302497
0.319535
0.322738
0.848988
0.318271
0.422938
0.377912
0.365411
0.282394
0.364025
0.360268
0.314288
0.418045
0.537787
0.959736
0.533847
0.439857
0.308755
0.401223
0.635026
0.349458
0.31826
0.85945
0.812038
0.406504
0.736966
0.320623
0.313423
0.39862
0.321005
0.877804
0.315529
0.315286
0.319569
0.668348
0.315787
0.357602
0.458202
0.466445
0.315405
0.332702
0.338811
0.334302
0.315035
0.352611
0.369541
0.589696
0.432326
0.369768
0.583388
0.362066
0.638838
0.361907
0.903948
0.445338
0.339202
0.687391
0.265587
0.431903
0.532118
0.586994
0.400563
0.314571
0.317603
0.310724
0.36264
0.842814
0.373918
0.315225
0.354619
0.375115
0.311403
0.485285
0.342707
0.370301
0.462055
0.335788
0.319891
0.35004
0.340485
1.56999
0.908661
0.385836
0.358872
0.426583
0.355938
0.807043
1.11187
1.12455
0.783349
0.348889