/*--------------------------------*- C++ -*----------------------------------*\
| =========                 |                                                 |
| \\      /  F ield         | OpenFOAM: The Open Source CFD Toolbox           |
|  \\    /   O peration     | Version:  2506                                  |
|   \\  /    A nd           | Website:  www.openfoam.com                      |
|    \\/     M anipulation  |                                                 |
\*---------------------------------------------------------------------------*/
FoamFile
{
    version     2.0;
    format      ascii;
    arch        "LSB;label=32;scalar=64";
    class       volScalarField;
    location    "0.0563953";
    object      nut;
}
// * * * * * * * * * * * * * * * * * * * * * * * * * * * * * * * * * * * * * //

dimensions      [0 2 -1 0 0 0 0];

internalField   nonuniform List<scalar> 
47425
(
0.00529295
0.00508323
0.00441802
0.00198479
0.00334997
0.00454448
0.00460535
0.00324002
0.00742778
0.00207219
0.00245125
0.00737288
0.00520386
0.00400039
0.00327319
0.0037837
0.00458937
0.00256322
0.000265298
0.00288156
0.00381998
0.00693907
0.00311677
0.00504511
0.00678777
0.006979
0.00393168
0.000504622
0.00433578
0.00558002
0.007334
0.00711875
0.00745919
0.0045692
0.00564091
0.0048498
0.00702344
0.00537819
0.00482954
0.00432293
0.00506756
0.00468921
0.00504546
0.00260976
0.000873601
0.00337241
0.00347511
0.00451987
0.00397194
0.00649656
0.000661341
0.00270545
0.00616059
0.0010384
0.00328214
0.00296688
0.00696493
0.00532041
0.00241354
0.0051685
0.000903514
0.000737648
0.000989351
0.00315756
0.0073849
0.00697399
0.00555526
0.00428568
0.00108559
0.00530268
0.00400498
0.00587137
0.0063826
0.00351838
0.0013659
0.00746319
0.00102727
0.00389351
0.00024298
0.00203864
0.0013498
0.0049221
0.00733607
0.00742889
0.00663945
0.00392736
0.00571782
0.00599094
0.00450949
0.00146508
0.00713751
0.00447576
0.00720924
0.00323188
0.00259667
0.00188384
0.00643251
0.00585329
0.00357129
0.00456732
0.0055704
0.000986655
0.00610886
0.00100384
0.00628155
0.0069973
0.006476
0.00345075
0.006623
0.0070262
0.00316875
0.00522267
0.00605373
0.00227618
0.00737272
0.000352324
0.00738373
0.00075832
0.0043493
0.00540818
0.00407798
0.00747141
0.00590963
0.00272866
0.00362877
0.0069116
0.00384536
0.00741791
0.00336167
0.00726446
0.00709865
0.00346015
0.00104407
0.00292919
0.00508689
0.00493324
0.00671211
0.00668382
0.00458153
0.0032327
0.0049908
0.00281568
0.00473644
0.00530937
0.00641539
0.00742415
0.00400934
0.00542675
0.00241302
0.00499715
0.00537034
0.000549978
0.00738991
0.000427755
0.00312309
0.00389683
0.00299617
0.000307117
0.00385633
0.00461383
0.00751954
0.0070738
0.0061795
0.00682961
0.00122434
0.000482565
0.00743505
0.0013641
0.00319642
0.000803257
0.00138538
0.00412474
0.00479097
0.00352724
0.00489087
0.00129886
0.000399618
0.00432861
0.00586225
0.00703915
0.000325712
0.00644106
0.00506227
0.00677546
0.00661955
0.0069577
0.00558111
0.00113488
0.00237622
0.00552064
0.00746957
0.00430378
0.00528981
0.0047428
0.00668587
0.00743983
0.00582734
0.00453603
0.00754506
0.0036145
0.00512883
0.00297326
0.00651958
0.00739271
0.00249354
0.00237084
0.00569822
0.00735849
0.00402773
0.00747107
0.00489253
0.0047186
0.00745929
0.00337184
0.00496359
0.00496138
0.00408566
0.00172738
0.0035186
0.00381663
0.00194984
0.00243369
0.00486118
0.00319909
0.00238915
0.00164039
0.00667653
0.00252761
0.00729184
0.0042076
0.00430804
0.00444756
0.00336009
0.00748889
0.00223965
0.00351184
0.0017915
0.00301393
0.00202029
0.00203298
0.00405805
0.00511489
0.00721246
0.0030995
0.00703831
0.00733155
0.00458925
0.00590013
0.00710114
0.00405325
0.00728037
0.00236829
0.00474322
0.00742026
0.00351535
0.00717224
0.00677756
0.00304155
0.00330485
0.00739659
0.00305936
0.00746019
0.004059
0.0026909
0.0053803
0.00392828
0.00700655
0.00486432
0.00493596
0.00402188
0.0040399
0.00224667
0.00184689
0.00642433
0.00235009
0.00209574
0.00234884
0.000553116
0.00189579
0.000624095
0.000918378
0.00536337
0.000927584
0.00297849
0.00402702
0.00361757
0.00341039
0.00357458
0.00404086
0.0074762
0.000785825
0.00516718
0.00737543
0.00544901
0.00464245
0.00336915
0.00298186
0.00671327
0.00490513
0.00498225
0.0038562
0.00700444
0.00386209
0.00513822
0.00108361
0.000838997
0.000573628
0.00722293
0.00635065
0.00719241
0.00325299
0.000844376
0.0037621
0.00286129
0.00172537
0.00470899
0.0033215
0.00304575
0.003472
0.00155469
0.00183321
0.00705226
0.00518932
0.00649413
0.00418187
0.00702051
0.00406259
0.00496922
0.00590622
0.00431974
0.00370278
0.00101536
0.00418805
0.00418518
0.00297238
0.00718689
0.000868801
0.00636336
0.00673186
0.00594218
0.00694962
0.00690043
0.006912
0.00599863
0.00610823
0.00612376
0.00521896
0.00672113
0.00379436
0.0040997
0.00680295
0.00695356
0.00519706
0.00663553
0.00664414
0.00267606
0.00407252
0.00734814
0.00648363
0.00385736
0.0019751
0.00579322
0.00422598
0.00345607
0.00648256
0.00668836
0.00282007
0.00743427
0.00490822
0.00716877
0.00279987
0.00108031
0.00398329
0.00735123
0.00192608
0.00731465
0.00458513
0.0038593
0.00502326
0.00697805
0.00563158
0.00719173
0.00714678
0.00481518
0.00407319
0.00439938
0.00391095
0.00602335
0.00717438
0.00392388
0.00667652
0.0064369
0.00411659
0.00550922
0.00480635
0.00661796
0.00520604
0.00364581
0.00332516
0.00633586
0.000894009
0.00678186
0.00213112
0.00478797
0.00348878
0.00347385
0.00656859
0.00242215
0.00660425
0.00359397
0.00693894
0.00111692
0.00104762
0.00714926
0.00281668
0.0039181
0.0036512
0.00394328
0.00429638
0.00384859
0.00403383
0.00487461
0.00690625
0.00310963
0.00454538
0.00629924
0.00346798
0.00399096
0.00610755
0.000925989
0.000416214
0.00671928
0.00049889
0.000519819
0.00399707
0.000492077
0.000795389
0.00648582
0.00389066
0.00413966
0.00394953
0.000969837
0.00384684
0.00621827
0.00630841
0.00423505
0.00421567
0.00404875
0.00389563
0.000969607
0.000732439
0.00127774
0.0054376
0.00104001
0.00380445
0.00546755
0.00723534
0.00530289
0.00729485
0.00422957
0.00478995
0.00284693
0.00460591
0.00748961
0.00398428
0.00524154
0.00437653
0.00735252
0.00494941
0.00470717
0.00523107
0.00562935
0.00340222
0.00282317
0.00508072
0.00419787
0.0073028
0.00121703
0.00278499
0.00211539
0.007443
0.0026161
0.00335935
0.00306698
0.00715909
0.00407767
0.00740281
0.00487319
0.00302017
0.00331924
0.00361847
0.00335837
0.00566089
0.00231024
0.000895903
0.00656111
0.00164743
0.00560403
0.00166271
0.00641779
0.00601407
0.00703869
0.00456291
0.00543417
0.00300882
0.00513426
0.00657261
0.00718551
0.00672401
0.00443605
0.00267991
0.00384632
0.0071976
0.00570867
0.00534069
0.00536104
0.00532572
0.00485859
0.00440497
0.0026537
0.00472295
0.00372038
0.000694536
0.00523598
0.00456969
0.00632506
0.0074118
0.00178834
0.00205772
0.00446784
0.00633361
0.00431144
0.0042806
0.0068359
0.00205788
0.00747831
0.00304629
0.00243625
0.00277671
0.00533544
0.00290764
0.00733532
0.00435757
0.00441435
0.00641747
0.00705463
0.00592154
0.000911065
0.0049793
0.00246976
0.00680677
0.0018157
0.00661258
0.00528788
0.00218032
0.00244614
0.00459379
0.00678763
0.000717802
0.00564109
0.00542473
0.00556688
0.00635369
0.00702805
0.0023173
0.00296475
0.00614821
0.0056817
0.00481285
0.00706662
0.00211444
0.00716563
0.0051826
0.000469469
0.00446437
0.00714867
0.000937859
0.0013451
0.0070851
0.000326056
0.000340123
0.00433044
0.00744587
0.00588835
0.00710433
0.00427238
0.00389494
0.0013212
0.0071131
0.00274005
0.00623158
0.00209984
0.00229277
0.00433175
0.00483842
0.00155378
0.00695809
0.00606361
0.00349279
0.00338361
0.00264077
0.00300887
0.00302149
0.0066866
0.00340424
0.00285125
0.00310556
0.00532865
0.00301481
0.00350466
0.00657544
0.00260123
0.00368842
0.00405387
0.00274238
0.00338837
0.00454388
0.00492995
0.00638893
0.00175433
0.00507815
0.00665972
0.00668114
0.000309732
0.00395643
0.00524565
0.000550581
0.000820509
0.00717046
0.00468279
0.000180596
0.00208372
0.000810612
0.00270324
0.0031541
0.000704336
0.00525005
0.00640262
0.00591029
0.00308474
0.00335454
0.0033283
0.00663143
0.00314693
0.00466567
0.00387029
0.00639611
0.00432054
0.00398014
0.00172225
0.000988606
0.00282385
0.00304133
0.00404779
0.00637859
0.00342673
0.00741635
0.00605416
0.00567858
0.00526792
0.00628129
0.00195596
0.00469495
0.0065425
0.00188303
0.00195519
0.000940185
0.00121796
0.00396387
0.00736518
0.00483778
0.00706475
0.00112777
0.0045119
0.00118739
0.0042314
0.00414183
0.00524172
0.0047531
0.00558982
0.00349369
0.00201061
0.0035999
0.00537932
0.00189949
0.00442657
0.00748588
0.00421005
0.00399838
0.00145036
0.00525336
0.001857
0.00352077
0.00747322
0.00706021
0.00252352
0.00412896
0.00378299
0.00743206
0.00512949
0.00424354
0.00447973
0.00415692
0.00398633
0.00487824
0.000921479
0.00063102
0.0044066
0.000826717
0.00462238
0.00291997
0.00340478
0.0064187
0.00391332
0.00491603
0.00416506
0.00408601
0.00694107
0.000588618
0.00285917
0.00339544
0.00507412
0.00662117
0.00377777
0.00554968
0.00243328
0.00745661
0.00155263
0.00407773
0.0069246
0.00420756
0.00663727
0.00537761
0.00453043
0.00621262
0.00358621
0.0072601
0.0067585
0.00396327
0.00105012
0.00730095
0.000707748
0.00235788
0.00220764
0.00069787
0.00424407
0.00413002
0.00220196
0.00393559
0.000812472
0.000664805
0.000942574
0.00328312
0.00505157
0.00377085
0.00294673
0.000898035
0.00250949
0.00369306
0.00579141
0.00447314
0.00432644
0.00311118
0.00582836
0.0042358
0.00133842
0.00205149
0.00555714
0.00246468
0.00110474
0.000711495
0.00349617
0.000568802
0.00207206
0.000674482
0.000864304
0.0045002
0.00302897
0.00708893
0.00661902
0.00483033
0.000724193
0.00130959
0.00477972
0.00483834
0.00712552
0.000854991
0.000661498
0.00718538
0.0022697
0.00367651
0.00718616
0.00222239
0.00719936
0.00717987
0.00434609
0.00482241
0.00162823
0.00644202
0.00716064
0.00511014
0.00522541
0.00520855
0.00106523
0.00181929
0.00704609
0.0013388
0.00636359
0.00674405
0.00670034
0.00179
0.00453756
0.00201923
0.00265629
0.00574076
0.00722403
0.00130678
0.00067406
0.00452755
0.00392589
0.00194576
0.00536112
0.00561192
0.00302134
0.00278521
0.00294507
0.0054438
0.00238888
0.00109634
0.0074237
0.00113246
0.00554212
0.00392858
0.00700316
0.00202812
0.00272683
0.00715416
0.00351992
0.00130752
0.00342176
0.00196263
0.00476762
0.00563926
0.00466925
0.00353541
0.00458238
0.00313474
0.000653838
0.00472973
0.00264775
0.00179483
0.0017794
0.00110302
0.00173607
0.00414049
0.000557711
0.0070119
0.00658351
0.00426635
0.00269466
0.0038595
0.00147802
0.00136522
0.00321373
0.00503204
0.00457192
0.00320598
0.00357173
0.00391642
0.00771541
0.00135249
0.00400281
0.00437215
0.00248225
0.00206769
0.00584316
0.000561912
0.00392227
0.00537228
0.00386732
0.00398019
0.00621168
0.00686333
0.00342331
0.00386335
0.000764236
0.00278823
0.00480576
0.00367173
0.0057005
0.00351809
0.000798739
0.00462413
0.00206126
0.00576899
0.00189278
0.00286743
0.00376016
0.00546136
0.00529132
0.0035787
0.00193563
0.00394099
0.00167135
0.000751338
0.00528621
0.00703752
0.00515449
0.00109016
0.00538685
0.0027406
0.00695275
0.00169808
0.001866
0.00405873
0.00312092
0.00434286
0.00715144
0.00514761
0.00316432
0.00113208
0.00229334
0.00122439
0.00697836
0.00233265
0.00263726
0.00285288
0.0035988
0.00484027
0.00169074
0.0016491
0.0037874
0.000958097
0.00359411
0.00359943
0.00434032
0.00500067
0.00381144
0.00486563
0.00127782
0.00383953
0.00372343
0.00457293
0.0061284
0.000818715
0.00231394
0.000723805
0.00160165
0.00111864
0.00209055
0.00390497
0.00131227
0.0035353
0.0013033
0.00201122
0.00205449
0.00134906
0.00310507
0.00534046
0.00433413
0.0074691
0.00150131
0.00369834
0.00346501
0.00437561
0.0013977
0.00594657
0.00431444
0.00602705
0.00746045
0.00294879
0.00189514
0.00300008
0.00325412
0.00554703
0.00234601
0.00663701
0.00318451
0.00310928
0.00715636
0.00242976
0.00224402
0.00430552
0.00214896
0.00392557
0.00315583
0.0020637
0.00293697
0.00312549
0.000228278
0.000669156
0.0016564
0.00064836
0.00333725
0.00337033
0.000618047
0.000922937
0.00530791
0.00106756
0.00334079
0.00417269
0.000545113
0.00263429
0.0070602
0.0031993
0.00154969
0.00626601
0.000710939
0.000347299
0.00227024
0.000846207
0.00225342
0.00097464
0.000855073
0.0055435
0.00452569
0.00277661
0.00201394
0.00369999
0.00736215
0.00216624
0.00071189
0.00490594
0.00172621
0.00432245
0.00203535
0.00635775
0.00599653
0.00213314
0.00211476
0.00421655
0.00181078
0.00519334
0.00145388
0.00718
0.00601201
0.00356051
0.00199263
0.00490248
0.00727612
0.000792726
0.00172052
0.00164715
0.00372192
0.00267689
0.00211503
0.00118397
0.00407531
0.00118659
0.00252186
0.00520196
0.00320909
0.00223541
0.00083572
0.00212361
0.00184292
0.00588636
0.00520815
0.00203975
0.00406011
0.0027219
0.0050194
0.00740451
0.00648023
0.00405381
0.00282366
0.000800156
0.00418041
0.000504708
0.00405827
0.0044104
0.00295755
0.00535629
0.0037594
0.0041338
0.00457436
0.00194989
0.0058191
0.00150094
0.00708783
0.000378558
0.00133667
0.0013831
0.00199019
0.00417474
0.00540205
0.00347152
0.00562925
0.000662685
0.000789268
0.00340217
0.00233055
0.000987789
0.000959688
0.0023397
0.00117985
0.000546973
0.00359906
0.0055982
0.000530165
0.00385347
0.00465867
0.00431989
0.00100821
0.000622861
0.00397823
0.00393308
0.00135555
0.00257973
0.00122296
0.000789041
0.00327261
0.00110355
0.00122372
0.00336733
0.00468985
0.00111964
0.00616512
0.00144762
0.000238363
0.00727544
0.00448461
0.00386923
0.00551713
0.00301888
0.00309477
0.00740539
0.00298344
0.00415307
0.000867452
0.00164281
0.00471342
0.00141016
0.00474573
0.000398619
0.00688021
0.00364435
0.00235755
0.00570541
0.00102523
0.00394022
0.00308365
0.0023775
0.00291576
0.00397587
0.00471122
0.00212047
0.000721044
0.00618267
0.00139035
0.000743666
0.00226263
0.00382799
0.00105585
0.00178716
0.00478126
0.00562699
0.0010823
0.001802
0.00227938
0.000835867
0.002586
0.000976133
0.00320993
0.00285003
0.00218414
0.00100594
0.00550897
0.00608819
0.00217044
0.00428488
0.00255693
0.00355048
0.00105448
0.00532368
0.00382204
0.00575606
0.0014026
0.00560471
0.000609152
0.00225953
0.00556989
0.00739778
0.00193651
0.00172101
0.000926714
0.00196452
0.00222568
0.00116079
0.000899406
0.00408643
0.000940958
0.00483484
0.00293978
0.000447646
0.00157309
0.00308877
0.003151
0.00561329
0.00155647
0.000552166
0.00169158
0.00258368
0.00545814
0.00719203
0.00190957
0.00473724
0.00379497
0.00627851
0.00108944
0.00276557
0.00162318
0.00420051
0.00163074
0.00408155
0.00359841
0.00116501
0.0018653
0.00240992
0.00276949
0.00565097
0.000409254
0.00168451
0.00158897
0.00146803
0.00345226
0.00544962
0.00108487
0.000751265
0.00164776
0.00283976
0.00289479
0.00168585
0.00261527
0.00135198
0.00552288
0.00135547
0.0014183
0.00561721
0.00125625
0.00339548
0.00257817
0.00280211
0.00135215
0.00249512
0.0061326
0.000732584
0.00335011
0.000652992
0.00265209
0.00379961
0.00295625
0.00206488
0.00137153
0.00251194
0.00411832
0.0030247
0.00124294
0.00396393
0.00430775
0.000654655
0.00706371
0.00365932
0.000888851
0.00377462
0.00277304
0.00200524
0.00243414
0.00120369
0.00375365
0.000169238
0.00223333
0.00127268
0.00252311
0.00119415
0.00287689
0.000905482
0.00136773
0.0013723
0.00278273
0.00398891
0.00741049
0.00411224
0.00371064
0.00290772
0.000728761
0.00377192
0.00597992
0.00456684
0.00506561
0.00323876
0.00417172
0.00733883
0.00745453
0.00300689
0.00100317
0.00687943
0.0028232
0.00248533
0.00533935
0.00658792
0.00286874
0.002373
0.00747104
0.00561777
0.00338666
0.00357593
0.00635576
0.00388013
0.00116764
0.00388061
0.00360613
0.005759
0.00706228
0.00219563
0.00472518
0.0059039
0.000826361
0.0016483
0.000991123
0.00675064
0.000983568
0.000439294
0.00641515
0.000375603
0.000806241
0.000601426
0.00395081
0.00487027
0.00426473
0.00148129
0.00692501
0.00443341
0.00451067
0.00394942
0.00277552
0.00355331
0.00347852
0.00109637
0.00437193
0.00281759
0.000874224
0.00400875
0.000373229
0.00178197
0.00127547
0.00664355
0.00305724
0.0019779
0.00591673
0.00476868
0.00192876
0.00718124
0.00288472
0.00177784
0.000418996
0.00731315
0.00160943
0.00531952
0.003048
0.00312095
0.00551895
0.00138579
0.00482431
0.00219742
0.00463858
0.00131541
0.000279918
0.00402988
0.00702164
0.00231105
0.00472711
0.000824209
0.00376967
0.00378261
0.00452061
0.00433044
0.00557619
0.00725005
0.00384161
0.00229535
0.00545761
0.00219067
0.00406565
0.00377834
0.0072302
0.00231111
0.0012891
0.00404386
0.00462892
0.00500592
0.0046972
0.00310975
0.00422696
0.00448718
0.00590469
0.00238386
0.00263948
0.0074721
0.00390258
0.00363457
0.00516363
0.00384341
0.00318956
0.00349739
0.00356259
0.00396725
0.00403938
0.0039041
0.00588825
0.00481831
0.00635593
0.00208874
0.00224945
0.00196176
0.0036211
0.00482058
0.00419683
0.00126486
0.00549005
0.00523414
0.00549831
0.00155776
0.00299383
0.00127542
0.00125721
0.00125446
0.00340879
0.00458325
0.00429578
0.00427542
0.0064436
0.00120714
0.00404151
0.00657074
0.00418253
0.00320753
0.00412537
0.00143046
0.00418504
0.00237741
0.00280137
0.00345473
0.00616198
0.0044713
0.00376042
0.00382478
0.00462371
0.0030342
0.00331629
0.00288883
0.0037363
0.00508244
0.00497083
0.00215231
0.00192602
0.0047962
0.00417392
0.002337
0.00377528
0.00229706
0.00683093
0.00543699
0.0023323
0.0046925
0.0058359
0.00469791
0.00688873
0.00671953
0.00352736
0.00436987
0.00199309
0.00448142
0.00244485
0.0061583
0.00443359
0.000991272
0.00407776
0.00424887
0.00513188
0.00518898
0.00399583
0.00429271
0.000332621
0.00347768
0.00396982
0.00606772
0.00529243
0.00502153
0.00721718
0.00632664
0.00351397
0.00413497
0.00641693
0.00680951
0.00307943
0.000992974
0.00133639
0.00304695
0.00179812
0.003518
0.00392931
0.00354758
0.00174165
0.00196957
0.00336668
0.00402547
0.000852746
0.00484683
0.00402321
0.00389791
0.00402622
0.00670876
0.000315548
0.00469397
0.00364272
0.00743009
0.0026777
0.00273968
0.000409643
0.000240879
0.00469192
0.0058703
0.00703955
0.0040373
0.00368872
0.00514742
0.000219815
0.00119778
0.00480894
0.00254655
0.00139593
0.0049764
0.00450501
0.00330806
0.00701933
0.00504491
0.0067592
0.00432285
0.00290188
0.00393714
0.00427556
0.00518829
0.00198018
0.00431508
0.00743716
0.00134697
0.0057193
0.00358183
0.00314681
0.00106346
0.00156669
0.0034835
0.00287964
0.0051433
0.00284779
0.0028838
0.00603463
0.000593299
0.00172124
0.00287975
0.00393894
0.00339996
0.00390777
0.00386905
0.00117406
0.00724794
0.00676017
0.00574206
0.00538432
0.000910849
0.00132086
0.00133832
0.00184844
0.00313261
0.00287973
0.00728145
0.00713689
0.00454916
0.00503911
0.00515756
0.00565627
0.00720739
0.00110657
0.000693666
0.00713741
0.00665061
0.003014
0.00209474
0.00309087
0.00715075
0.0052965
0.00170498
0.000917307
0.0034744
0.00205
0.00507964
0.00150535
0.00056543
0.00302043
0.00631372
0.00711883
0.00617162
0.000918109
0.0054696
0.00435009
0.00427316
0.00720608
0.000961725
0.000347337
0.000513556
0.0016755
0.00359971
0.00615651
0.00696953
0.00237042
0.00412262
0.000962235
0.000821956
0.00078316
0.000476769
0.000768646
0.0017496
0.0065111
0.000835835
0.00739766
0.000354421
0.0039049
0.000751463
0.00444998
0.00177875
0.00585783
0.00298631
0.00224757
0.00225496
0.00478863
0.00559714
0.00398938
0.000917714
0.00111945
0.00500347
0.00516881
0.000479589
0.000416939
0.00370604
0.00179025
0.000688461
0.00127817
0.00470041
0.0068233
0.000865365
0.000626808
0.00158163
0.00708641
0.00133741
0.0063443
0.000751676
0.00110086
0.000533685
0.00245367
0.00573585
0.00160006
0.00673497
0.00463101
0.00388071
0.0022531
0.00628821
0.00368185
0.00489739
0.00381746
0.00421326
0.00689272
0.00644919
0.00352098
0.00673205
0.00590357
0.00433025
0.00382136
0.00162801
0.00384879
0.00241685
0.00405877
0.00574275
0.00393739
0.000959049
0.00349204
0.00338762
0.00200365
0.000592421
0.00422311
0.00376765
0.0033065
0.0010073
0.00166139
0.00133405
0.0046656
0.0066504
0.00479818
0.00343788
0.00559996
0.00342443
0.00320017
0.00375487
0.00708049
0.00467913
0.00524791
0.00455634
0.0031966
0.004456
0.00370515
0.000676543
0.00355511
0.00405173
0.00426544
0.00297138
0.00113553
0.00255092
0.00402322
0.00463695
0.00315715
0.00124868
0.00132707
0.00382914
0.00327117
0.000380683
0.0015195
0.0020568
0.00406762
0.00149494
0.00312288
0.00402209
0.00292305
0.00117355
0.00476642
0.00410804
0.00232144
0.00647698
0.00238533
0.00272162
0.00314343
0.00333179
0.0019452
0.00419414
0.00584785
0.00713606
0.00191241
0.00328895
0.00435599
0.00340932
0.00505681
0.00085045
0.00293989
0.00332665
0.000450526
0.00184951
0.00543978
0.00346234
0.00091964
0.00170714
0.00233061
0.00708903
0.00290733
0.00107744
0.00540291
0.00731504
0.000684044
0.00189926
0.00140585
0.00376016
0.00436286
0.00469138
0.00151888
0.000610547
0.000726973
0.00441141
0.0056426
0.00063314
0.00582893
0.00178525
0.00307695
0.00154282
0.00103833
0.00443435
0.00343642
0.00117723
0.0040185
0.00473391
0.00455963
0.00360305
0.00545073
0.00092944
0.000297991
0.00384227
0.00360407
0.000720187
0.000547267
0.000695947
0.00215669
0.00113555
0.00202929
0.000569512
0.00352561
0.00353176
0.000833497
0.00240539
0.00246728
0.000941884
0.000887197
0.000416368
0.00632972
0.00584594
0.000604862
0.00632695
0.00426846
0.000865916
0.00537005
0.00306563
0.00405765
0.0031823
0.0050512
0.00630308
0.000480286
0.000452263
0.00200032
0.000767891
0.00242185
0.00371501
0.00435526
0.0044802
0.00335428
0.00470982
0.00534235
0.00404812
0.00472623
0.000750316
0.000692702
0.00398607
0.00178909
0.00384449
0.00421519
0.0026922
0.00354956
0.00367364
0.00461408
0.000626305
0.00115161
0.00437349
0.000706885
0.00281258
0.00144279
0.00291669
0.00347033
0.00096218
0.00281561
0.00111394
0.00434658
0.00291582
0.00291421
0.00639332
0.00119764
0.00712846
0.00550206
0.00246247
0.00429477
0.0014793
0.00337117
0.00220239
0.00340012
0.000900127
0.00393091
0.00341483
0.00365553
0.00707275
0.00318103
0.00351757
0.00180049
0.000472312
0.00284504
0.000691253
0.00357315
0.00445642
0.00468046
0.00455444
0.0050918
0.00491991
0.00332627
0.00127489
0.00172818
0.00128436
0.000640816
0.00418658
0.00404185
0.00016054
0.00098142
0.00428043
0.00386969
0.00130687
0.00375623
0.000743862
0.000459192
0.00265672
0.000985393
0.00134506
0.00282683
0.000781677
0.00175301
0.0062126
0.00348487
0.00107736
0.00122338
0.00657823
0.000997945
0.00700908
0.00263109
0.00482455
0.00262103
0.00189618
0.000877363
0.00105127
0.00589244
0.00568929
0.000249815
0.00699408
0.00454308
0.00118866
0.00594643
0.0028219
0.00393158
0.0034249
0.00053093
0.00150377
0.000759426
0.00174171
0.00315235
0.00114849
0.00577944
0.00496039
0.0010602
0.00665351
0.00371021
0.00263595
0.00512063
0.00133035
0.000604577
0.00685912
0.00232392
0.00713443
0.000771986
0.00419843
0.000598923
0.00281239
0.0027324
0.00608218
0.0025264
0.00267369
0.00651112
0.0049421
0.00327869
0.00718797
0.00136624
0.00330571
0.00352078
0.00614873
0.00420795
0.00351117
0.00257836
0.00289456
0.00182352
0.00313793
0.00369347
0.00396913
0.00148346
0.000585307
0.000821564
0.000723326
0.00121805
0.000844254
0.00107201
0.00272765
0.000257522
0.000742633
0.00128661
0.00185247
0.0026846
0.00111103
0.0010064
0.00238725
0.00145044
0.0021229
0.00610852
0.00272305
0.00139766
0.00387493
0.000816909
0.00320438
0.000525586
0.00190901
0.00119204
0.00142325
0.00143774
0.000791951
0.00188368
0.000688508
0.00265055
0.00218217
0.00413959
0.00172341
0.00502079
0.00559783
0.000967911
0.00336291
0.000956039
0.00178641
0.005053
0.00235168
0.0039901
0.00141207
0.0011517
0.00723632
0.0058188
0.00159059
0.000974896
0.00366978
0.00268538
0.00113642
0.00111252
0.00433733
0.00713153
0.00387849
0.00410932
0.000810631
0.00724717
0.000918614
0.000360904
0.00502362
0.00264125
0.0041263
0.00366718
0.000869174
0.00279181
0.00076292
0.00324329
0.00426616
0.000539763
0.000997106
0.00529361
0.00234283
0.00526885
0.00652267
0.00125133
0.00289291
0.000768646
0.00363117
0.00619357
0.00249196
0.00692816
0.00465179
0.00522901
0.00493936
0.00274233
0.0023317
0.00145695
0.00321651
0.00112018
0.004987
0.00677374
0.00216682
0.00129167
0.000853706
0.000880663
0.00180113
0.00196785
0.00105438
0.000961595
0.000816636
0.000861371
0.00318274
0.00301241
0.00400133
0.00138637
0.00510383
0.00277137
0.00314164
0.00139961
0.000530286
0.00348142
0.00276311
0.00347549
0.00453264
0.0033849
0.00412154
0.00610485
0.00463535
0.00260211
0.00294058
0.0026857
0.00544795
0.00292782
0.00149325
0.000766947
0.00417055
0.000586712
0.00744454
0.00313439
0.00689218
0.0044209
0.000929882
0.00271031
0.00117666
0.00369543
0.00347794
0.00339284
0.00443746
0.00478415
0.00369073
0.00323846
0.00617516
0.00742216
0.000808871
0.00301626
0.00126332
0.0028579
0.00104217
0.00571108
0.00453267
0.00340956
0.00387012
0.00291593
0.000980447
0.00642541
0.00392495
0.00104185
0.00246724
0.00243078
0.00271393
0.00243946
0.00232769
0.00218036
0.00491469
0.00750983
0.00655321
0.00198121
0.00152706
0.00465271
0.000490819
0.00579381
0.00179423
0.00692696
0.00622874
0.00188563
0.00435231
0.00635609
0.000990481
0.00742106
0.00412625
0.00145091
0.00303759
0.00694178
0.00132656
0.00674693
0.00725884
0.0011239
0.00290764
0.00287723
0.000781665
0.00733872
0.00199318
0.00136034
0.00170267
0.000967323
0.00116604
0.00471832
0.00582471
0.00286428
0.00590024
0.0018909
0.00290586
0.00516825
0.00593663
0.00348113
0.00118216
0.00297923
0.00428492
0.00231764
0.00340992
0.00251244
0.00738829
0.00209994
0.00117511
0.00362711
0.00347106
0.00486156
0.00479795
0.00307702
0.00432379
0.0021951
0.00333804
0.000624954
0.0041161
0.00696008
0.00101479
0.00286876
0.000663924
0.000979673
0.00595076
0.00334165
0.00125797
0.00309254
0.000644797
0.00144497
0.000574485
0.00144797
0.000634405
0.00303202
0.00173079
0.00156461
0.000549199
0.00116703
0.00291311
0.000674464
0.000556536
0.002425
0.000320027
0.00112917
0.00305367
0.00328584
0.00108775
0.000947768
0.00737201
0.0036754
0.000996879
0.000760437
0.00108264
0.00131745
0.00157941
0.000808346
0.00281255
0.0036429
0.00432982
0.00696574
0.00310309
0.00644087
0.00104124
0.00295104
0.00433068
0.000685465
0.00384156
0.00230158
0.00427696
0.00618897
0.00315589
0.00436472
0.00178175
0.0065613
0.00177959
0.000602259
0.00477506
0.00673784
0.00329964
0.00502104
0.00101925
0.00333482
0.00546254
0.00635642
0.000580308
0.00622469
0.00357264
0.0068522
0.00169603
0.00311524
0.00435738
0.00573759
0.00504714
0.00142413
0.00356873
0.00255449
0.00748466
0.00704562
0.0068286
0.00442283
0.00452131
0.00356033
0.00579694
0.00333289
0.00359436
0.00247063
0.00128748
0.00113682
0.00326396
0.00183004
0.00414301
0.00267303
0.00348031
0.00371511
0.0063668
0.00315522
0.00427852
0.00626373
0.00216519
0.00457723
0.00312189
0.00107602
0.00482832
0.00272658
0.00121327
0.00375617
0.00113582
0.00191065
0.00120158
0.000346894
0.00277241
0.00521978
0.00194285
0.000461849
0.00336192
0.00707536
0.00613404
0.00532649
0.00339989
0.00449233
0.00719157
0.00703743
0.00371999
0.00280126
0.00740452
0.00648414
0.00736976
0.00527046
0.00296399
0.00177714
0.00301461
0.00611689
0.00333839
0.00093705
0.00518917
0.0058669
0.00374578
0.000565126
0.000615571
0.00374873
0.0053969
0.00478895
0.00312204
0.00506175
0.000673069
0.001783
0.00485041
0.00401682
0.00593258
0.0034391
0.00183037
0.00423486
0.00322394
0.00351599
0.001322
0.00196128
0.00156999
0.000956099
0.000290142
0.00238853
0.0019213
0.00374211
0.00384749
0.00338398
0.00324007
0.00569102
0.00432544
0.000475587
0.00648218
0.00179186
0.00114733
0.00330283
0.00295799
0.000722106
0.00203239
0.00398409
0.0038183
0.00737978
0.0029759
0.00105249
0.00379769
0.00154526
0.00612554
0.00269081
0.000758342
0.000862752
0.00330748
0.00314367
0.00108385
0.00458128
0.000690451
0.000616658
0.00122899
0.00741959
0.00685045
0.000319522
0.00593187
0.000509561
0.00199361
0.00310265
0.00109776
0.00101116
0.00610419
0.00730801
0.000959864
0.00616813
0.0058399
0.00480625
0.00652512
0.00425087
0.00372232
0.00219399
0.00551275
0.000361807
0.0031369
0.00404154
0.00374389
0.000314411
0.00415775
0.000567951
0.00476745
0.00320232
0.00364155
0.00111317
0.00559507
0.00453344
0.00481932
0.000969488
0.00190532
0.00191405
0.00134884
0.00270916
0.00615966
0.000801122
0.00327314
0.00323385
0.0032633
0.00416306
0.00311262
0.0038428
0.00716789
0.000376765
0.00131283
0.00437896
0.00478805
0.00268356
0.00396975
0.0027247
0.00288367
0.00469618
0.00227579
0.00444219
0.0047828
0.00414212
0.00153849
0.00443814
0.00450152
0.0046323
0.00348584
0.0067328
0.00537169
0.00493188
0.00276747
0.0041994
0.00270691
0.00255046
0.00356621
0.000638531
0.00483144
0.00281293
0.00138714
0.00114822
0.00151203
0.00364465
0.00508839
0.00185273
0.000647994
0.00395688
0.00105063
0.00399194
0.00720009
0.00271169
0.00174052
0.00381829
0.00438941
0.00739128
0.00491624
0.000347707
0.00488629
0.00649388
0.00244501
0.000462293
0.000584116
0.0036185
0.000292409
0.00111414
0.00113578
0.00223929
0.00108118
0.000551754
0.00499523
0.000919088
0.00390457
0.00512169
0.00563196
0.000538812
0.00208491
0.00686219
0.00569747
0.00101172
0.00424852
0.000539105
0.00514418
0.00291356
0.00457349
0.00292086
0.000642019
0.00735684
0.00314187
0.00281401
0.00556873
0.00368473
0.00574824
0.0028602
0.000480567
0.000467552
0.000713453
0.00146452
0.00127257
0.00571436
0.00621178
0.00499392
0.00365213
0.00704185
0.00148743
0.00724943
0.000946166
0.00418764
0.0066051
0.00577851
0.00474096
0.00670483
0.00328656
0.0029712
0.00718161
0.00310575
0.000905852
0.00538467
0.00105828
0.000928348
0.00645054
0.00029849
0.000559084
0.0027782
0.00291207
0.00372917
0.00125335
0.00448571
0.00201503
0.00125602
0.0054005
0.00163996
0.00720635
0.00203677
0.00408681
0.00229888
0.00198237
0.000850709
0.003328
0.00388129
0.000690969
0.00130982
0.00202349
0.0016819
0.00566127
0.00161696
0.00415931
0.00187083
0.00319843
0.0061234
0.00131507
0.00273112
0.00233601
0.00647584
0.000617656
0.000836986
0.000584671
0.00573518
0.0041498
0.000884356
0.000599299
0.00178384
0.00375118
0.00250078
0.00108024
0.000755491
0.00178731
0.00449965
0.00403948
0.00430942
0.00498475
0.00399286
0.000583287
0.0050473
0.00174817
0.00311964
0.00676549
0.00257524
0.00261312
0.0049411
0.00387429
0.00532169
0.00227738
0.0017615
0.00469374
0.00477251
0.002126
0.00335187
0.00280069
0.00194971
0.00215358
0.00357648
0.00598784
0.00587317
0.00529244
0.000780036
0.00363551
0.000982221
0.00258446
0.00376539
0.00503917
0.00331089
0.00702591
0.00246411
0.00747128
0.00205938
0.00236426
0.00358961
0.00431261
0.00238746
0.00342007
0.00261577
0.00407049