/*--------------------------------*- C++ -*----------------------------------*\
| =========                 |                                                 |
| \\      /  F ield         | OpenFOAM: The Open Source CFD Toolbox           |
|  \\    /   O peration     | Version:  2506                                  |
|   \\  /    A nd           | Website:  www.openfoam.com                      |
|    \\/     M anipulation  |                                                 |
\*---------------------------------------------------------------------------*/
FoamFile
{
    version     2.0;
    format      ascii;
    arch        "LSB;label=32;scalar=64";
    class       volScalarField;
    location    "0.0563953";
    object      omega;
}
// * * * * * * * * * * * * * * * * * * * * * * * * * * * * * * * * * * * * * //

dimensions      [0 0 -1 0 0 0 0];

internalField   nonuniform List<scalar> 
47425
(
58.5668
67.5117
72.1923
162.662
140.293
71.8325
94.4966
102.415
49.394
606.399
138.513
44.6319
71.4597
79.9349
96.2119
89.2464
69.0755
48.1422
1296.14
188.41
85.3546
45.7851
105.856
63.7316
46.7351
44.5103
78.4755
689.071
70.7168
55.8355
44.2879
45.5765
47.7449
67.982
55.0103
67.4775
45.1521
67.5587
65.5723
74.9635
72.3177
100.422
177.064
144.995
1666.8
105.38
96.5265
77.6005
78.9901
47.7618
578.113
230.677
50.1191
752.746
113.754
123.752
44.6844
58.2399
81.831
61.6914
1021.47
1159.74
903.269
44.7601
49.3523
45.4414
61.5167
86.3397
740.766
44.9028
78.5152
52.0846
48.7845
91.189
672.459
49.4037
889.245
81.7257
1349.45
264.423
691.74
65.231
43.6791
46.9415
47.847
82.6076
53.8821
51.4248
119.284
409.66
44.9943
77.0446
43.6893
114.697
147.445
195.222
48.6888
52.7588
88.3001
78.8841
60.2965
91.9437
52.5034
97.5256
49.9491
53.3377
48.1781
93.7365
55.1534
45.9788
367.03
62.6042
70.9781
155.58
45.8826
900.586
45.1987
229.415
78.8464
62.4955
79.5921
48.545
58.2044
63.0292
97.41
57.8274
85.5211
49.1901
105.817
43.3353
45.39
96.6503
127.179
120.838
91.9483
68.0475
48.1105
60.7308
69.3089
97.8683
70.9562
133.103
71.4556
87.5798
52.5032
49.3287
111.188
62.7611
151.574
72.3707
87.0489
498.887
48.7562
701.093
46.6908
84.9096
59.4943
905.72
92.9001
72.6627
45.6417
44.0559
50.1722
47.0124
408.382
831.352
45.6355
682.393
106.63
722.235
701.063
86.2805
73.862
45.8116
72.5431
66.0386
723.825
70.675
52.8006
44.5796
1006.58
47.6084
60.5132
46.3694
47.1313
48.5364
56.8416
77.4109
149.664
55.5417
47.9252
72.047
82.5834
77.0215
47.1596
43.5125
61.8693
73.0283
44.6248
83.0762
66.0824
123.022
51.8012
44.1691
49.6556
159.183
53.6737
43.7373
87.067
48.4406
63.3932
66.3679
47.2232
94.099
63.4899
63.79
75.794
248.25
47.2693
93.3105
284.749
120.185
120.114
96.775
167.329
239.453
47.0794
130.742
49.5975
60.0522
72.041
72.9069
104.309
49.3225
165.556
93.4972
324.208
113.543
268.691
181.638
83.8036
59.6548
43.1796
103.189
44.7616
49.4543
68.7611
60.6089
43.7058
77.9678
43.1302
218.491
67.3738
49.2833
91.7826
43.4478
46.9479
120.531
95.2394
48.3492
125.182
47.2306
78.7127
135.529
71.1563
90.1819
44.7581
71.3604
62.9158
82.4161
80.0984
235.267
313.509
48.5259
220.772
179.752
221.481
113.205
297.572
182.788
1078.28
57.4217
1016.15
124.045
80.1001
86.256
104.963
91.455
90.9258
46.9806
622.042
44.981
50.3438
57.0605
67.9028
98.9888
112.18
46.615
66.0287
56.5164
88.4232
44.1628
86.7224
60.5302
814.026
1042.92
675.019
43.3192
48.654
43.9163
101.687
691.681
86.9556
117.278
252.932
74.2976
104.712
122.421
93.4243
420.691
222.726
45.6155
61.0435
47.2113
82.2327
44.2139
78.822
62.4148
52.3259
72.2436
83.7438
679.47
54.9187
75.341
129.129
43.5516
691.899
51.1118
45.8995
52.8786
46.3727
46.7049
44.8054
53.12
50.2853
51.035
59.7325
47.5572
83.5062
84.3895
47.6276
45.4516
63.0964
48.3395
48.8279
47.618
81.1074
43.4035
49.5544
93.4055
55.2666
60.3974
78.8641
94.7948
48.0894
49.1112
131.643
48.2167
67.5663
44.8502
130.703
960.222
78.1965
44.3626
200.232
44.3083
93.9103
93.708
72.5502
45.4605
63.503
44.9126
43.4181
73.7792
86.6035
82.8559
84.258
52.8016
48.7542
83.3537
48.5722
47.0576
81.1127
56.7876
65.9505
48.6893
62.3006
89.6301
65.6513
48.8794
489.017
45.8887
411.843
70.6392
105.987
103.55
47.5209
146.399
46.7705
94.8033
46.7838
555.651
363.874
43.3143
50.1721
80.7585
86.4301
82.3874
75.0545
81.4353
89.629
67.6506
45.1162
102.064
71.2177
49.0703
85.9798
78.5353
52.8303
144.462
1365.05
47.251
282.296
1129.79
89.9414
1161.33
823.195
48.1207
80.7253
76.2068
79.3505
722.13
88.1007
49.737
49.6681
75.2904
75.8015
81.0853
80.6226
474.158
794.672
152.187
65.5419
72.0025
131.039
57.6042
44.2842
67.9141
43.7767
83.9817
75.8096
132.705
69.3629
49.3502
80.0603
59.8742
78.4735
44.1035
64.9326
67.6625
66.6481
63.537
109.073
121.407
62.2214
84.1857
43.8636
516.256
130.241
74.4675
46.368
136.388
246.955
47.8671
43.5645
47.999
47.319
67.5112
49.8168
106.688
84.4647
48.4144
54.5531
143.84
99.2538
46.9628
51.1447
57.5327
54.8167
48.3817
51.843
44.4136
69.6984
58.7913
112.112
61.911
47.1295
43.6965
44.1335
74.6975
128.152
45.18
43.2549
55.9674
56.7146
57.2548
59.7779
70.0484
72.522
51.9441
76.9239
100.902
431.803
61.7884
69.3323
53.4277
49.3451
129.692
128.715
76.9068
49.5875
80.8214
102.604
47.4184
138.731
48.4582
262.944
48.6026
51.3846
58.5453
123.938
42.9328
72.803
73.7606
50.3276
43.9263
51.5944
1142.07
63.1503
147.934
46.2364
98.1734
46.5842
59.0075
83.322
72.3989
70.593
45.8413
397.497
54.8148
59.2739
55.4535
48.8824
44.3182
58.2788
115.687
48.4436
55.2916
67.8192
44.4749
254.117
44.9
61.7804
502.312
72.1646
43.6758
353.131
569.666
45.5629
665.113
692.016
71.2319
46.6195
52.2767
44.6026
85.2108
89.3983
647.943
45.038
127.804
49.7716
111.451
57.0579
85.3197
67.2835
523.607
329.935
52.0083
94.8178
99.1302
85.1472
122.413
125.834
48.5019
98.1066
132.906
96.8674
67.484
133.421
51.6484
48.0314
134.051
93.5709
78.4361
121.235
101.481
68.2208
73.4138
59.0093
53.7152
67.7129
47.7228
46.9214
1328.16
62.2422
76.1442
1009.29
987.468
43.7985
76.9274
1647.93
170.318
92.425
292.568
119.462
770.227
59.4879
48.6761
60.0489
169.047
113.73
112.841
46.473
118.702
67.5207
83.8099
48.5862
80.6691
57.8566
446.612
697.628
122.797
49.4093
86.522
43.6863
109.675
47.4252
58.215
63.5004
65.1121
45.1704
178.882
75.5247
47.6626
67.968
187.861
796.221
224.543
87.6805
43.5954
74.7632
44.1741
771.811
70.8739
631.769
84.3479
107.64
66.5218
69.5108
59.1918
87.397
54.1909
88.4826
56.8508
207.677
90.3634
49.2337
71.4015
89.6632
681.443
66.4599
203.043
68.7398
48.6642
44.092
143.052
79.9995
71.3035
45.9765
63.9042
67.2555
73.222
80.9622
80.1619
64.8555
126.084
195.595
71.0898
98.0322
67.9475
114.009
92.1119
48.4188
144.451
61.8791
76.8953
78.9971
44.7879
297.554
403.224
95.8851
66.0414
47.196
91.5525
55.1826
137.078
44.9441
251.881
81.7799
45.1891
77.7612
47.3118
59.6126
70.2567
49.7398
89.7673
43.1426
45.6864
48.2681
165.626
42.62
347.658
246.684
259.176
356.991
80.0526
235.641
58.4797
46.8799
145.851
327.912
390.9
104.383
61.5244
123.049
116.358
163.05
129.489
94.9019
53.8218
70.9113
100.245
113.391
56.6165
82.2188
355.76
58.1112
62.6972
153.542
120.671
116.401
168.611
748.179
473.295
226.85
250.564
80.6857
119.592
44.6491
47.1032
72.0399
426.484
178.318
71.8461
73.1077
44.167
365.792
396.069
43.5893
170.092
90.57
43.5399
166.553
43.5129
44.2836
72.9407
72.5787
84.6186
48.6199
43.6815
61.2238
69.1663
67.8501
137.955
106.357
43.9761
246.45
48.2037
46.6735
47.1345
196.558
79.3115
253.266
120.353
54.8403
43.7845
68.5522
1337.38
72.699
83.8204
71.6089
65.4041
61.143
115.646
121.21
127.943
282.682
94.5691
794.095
49.4171
66.5277
56.0077
62.4275
45.3566
167.379
126.889
44.6731
298.225
95.6471
71.5947
248.652
77.7259
54.4124
71.7038
67.3195
69.5847
112.533
332.981
66.7518
73.7285
208.208
221.744
663.59
216.356
89.5218
174.712
45.2001
48.1349
105.327
172.722
86.7392
83.2006
93.6251
103.566
47.8843
68.4387
105.034
99.5766
90.2999
347.325
509.931
94.4563
125.786
157.536
697.322
412.986
205.719
92.8503
67.1535
96.5896
93.558
216.021
46.0351
48.3342
96.4905
421.978
121.573
74.0546
98.0191
54.4114
109.517
127.218
78.6062
497.307
54.0421
64.8129
131.331
97.2577
65.4199
66.1313
104.734
102.099
91.4195
58.5199
126.524
45.6369
45.2306
46.2482
80.5344
58.0116
151.91
53.4767
218.899
289.912
266.881
99.6009
83.7009
46.0996
70.3031
114.566
491.771
240.434
894.44
45.4837
58.5358
54.5337
325.238
88.7917
325.706
238.176
232.326
134.951
221.751
90.8074
86.6555
73.4788
46.6414
124.956
67.7537
74.3266
244.451
74.764
68.0069
51.0358
264.444
401.074
151.225
199.485
662.559
192.474
92.1018
69.0433
89.8349
106.877
185.479
189.162
553.513
46.5786
58.353
72.8673
47.8262
63.4791
101.2
96.9901
54.1199
118.141
53.0755
77.133
51.8714
47.298
125.243
66.4498
118.21
45.2335
45.4998
163.575
47.5848
99.5707
105.541
45.1782
63.063
109.494
79.8769
68.0316
80.1863
563.106
185.08
124.939
108.026
1877.4
1014.39
648.041
448.941
103.062
49.733
1122.44
419.354
54.2782
63.6668
107.216
86.2176
395.911
139.253
46.0479
114.005
58.1906
49.3629
205.097
954.615
139.847
1190.29
153.005
248.578
694.929
56.7784
77.4878
134.433
313.028
92.9498
47.1868
46.8489
820.199
101.899
361.046
73.8778
162.611
49.0212
53.6984
555.919
573.945
83.0676
54.0527
75.2292
508.521
44.474
51.229
439.724
571.662
72.6446
44.7582
1051.92
780.852
573.46
100.015
262.352
515.347
545.953
80.2
89.1582
107.192
64.6329
108.63
547.865
1378.62
64.1229
60.0659
58.8211
52.3895
48.3393
82.0166
134.949
66.1146
49.5561
48.4993
88.9237
355.771
1158.66
51.6831
229.719
101.839
73.3023
180.558
57.3558
90.7351
76.6829
46.933
199.807
53.499
514.069
44.8401
793.06
500.209
576.47
203.926
99.6114
63.3583
103.364
57.3277
216.38
1450.68
104.438
390.751
183.732
468.123
159.356
777.938
620.422
92.3744
57.4543
1594.4
87.4298
49.1159
74.1223
588.717
1076.79
80.4156
52.5046
474.831
77.9338
830.505
766.901
108.325
115.721
852.814
103.368
45.3641
584.441
52.3229
557.259
1006.95
44.0588
69.9275
84.918
56.6784
123.525
102.531
43.3152
122.075
89.9898
117.278
57.729
43.7535
191.046
200.859
603.278
52.0922
96.1625
226.131
45.5748
837.978
86.1919
113.653
151.704
518.655
86.9882
407.586
182.192
145.739
57.0151
570.568
223.712
295.164
85.6704
162.334
62.4866
76.0318
70.8996
340.864
248.961
108.852
727.63
150.101
108.686
286.508
125.881
144.435
757.057
350.061
54.2855
157.728
83.8654
148.415
303.388
929.608
58.3877
46.0304
62.3945
496.704
63.5101
305.372
59.2662
62.304
47.6693
149.062
55.6075
207.77
312.181
54.1014
61.1692
92.4819
81.0174
987.468
402.232
117.177
748.725
353.521
121.981
242.766
64.2436
57.4241
1066.53
57.2142
377.573
342.457
46.495
59.2519
92.8253
96.2713
56.2643
71.1835
141.052
75.8043
78.6562
66.8999
81.8856
246.838
67.171
193.783
156.046
203.086
56.3484
735.587
434.377
55.1508
562.253
240.762
57.3908
108.54
649.879
218.726
47.2973
182.114
429.108
195.798
479.042
57.8566
574.992
112.736
55.0643
68.784
109.129
183.557
123.767
65.927
250.427
50.4714
233.755
107.672
1268.5
144.611
80.8057
120.614
261.544
55.2815
270.22
108.983
109.926
632.489
79.5031
78.9614
1060.4
43.9082
103.89
373.952
62.3736
269.717
694.772
152.243
72.6994
83.6855
958.599
293.026
403.984
309.297
77.9117
69.918
101.052
681.392
738.139
298.814
88.7846
48.2512
87.0167
87.8878
130.425
335.511
92.8673
55.7589
62.6214
61.4434
45.4725
85.3798
44.6736
46.8564
120.859
83.6072
46.0873
129.41
234.621
61.9923
47.7646
131.495
64.2083
48.1108
55.4331
101.423
95.2667
50.3719
96.9094
577.251
88.1034
48.6534
54.9365
44.4602
244.823
67.8398
54.3159
691.477
737.253
287.018
48.4912
672.631
149.82
51.8207
1024.83
94.0462
1008.11
91.2051
66.7062
81.943
66.7602
46.0942
82.7197
84.1625
92.8387
115.313
89.854
104.485
160.599
80.9616
80.369
429.224
86.5451
1344.07
70.6761
691.403
46.4914
119.298
180.78
52.6944
68.7243
189.958
43.5418
546.783
330.79
1241.43
51.6458
637.04
58.9093
110.734
169.676
57.7903
580.299
88.5149
287.516
67.5887
739.073
700.475
79.9684
44.2173
447.359
69.7416
393.983
85.4911
96.1499
70.652
72.95
57.5066
46.1772
88.3816
273.13
73.7548
177.045
84.6002
87.185
43.4631
155.338
635.931
90.2882
386.049
111.768
67.7411
120.744
79.8282
74.319
56.3203
152.361
131.711
48.5683
85.8423
83.1553
68.5394
93.9704
408.259
423.679
82.0864
90.8727
310.397
87.9281
53.0606
64.9746
49.007
168.422
166.872
203.934
104.488
70.1658
74.8901
65.8832
56.3501
57.7718
59.5821
477.145
130.367
665.833
511.354
629.02
58.1001
69.0551
71.6152
72.4207
48.5609
321.387
82.0384
47.2946
79.5499
111.444
76.2112
338.279
74.4493
157.502
111.326
98.878
50.7407
71.1895
89.9583
88.9583
68.5463
113.927
98.5373
177.187
87.2084
68.9152
79.2138
151.357
171.003
65.598
81.0176
135.323
97.6335
170.361
45.7455
56.456
136.818
69.1385
54.2689
76.5377
45.2117
46.8059
88.3483
75.4222
406.278
72.5974
89.076
49.9893
70.6967
650.948
80.3887
85.3848
60.2481
61.8518
88.2017
86.2651
946.659
107.382
470.774
51.4332
60.4548
71.6615
43.4888
49.1988
108.501
82.049
48.4538
45.8115
312.763
107.322
509.468
120.877
255.27
104.806
78.8217
109.539
574.456
182.702
94.8883
79.4607
942.067
64.9872
80.8542
87.5278
83.4784
48.9923
954.084
67.7284
91.819
46.7896
124.989
55.7635
919.224
1017.81
67.9503
53.5994
44.5645
91.8508
94.2495
60.2259
1185.1
806.573
65.1867
138.729
450.785
64.7496
143.545
121.12
44.369
62.5985
46.9414
74.762
217.037
86.5
78.6925
45.5752
56.644
75.6601
48.6132
310.402
63.4565
139.292
162.998
436.039
318.479
102.843
134.643
75.0179
133.155
119.552
44.732
602.251
326.917
131.228
93.0338
106.048
91.2731
88.7159
297.421
43.4051
45.8823
62.1882
65.0079
134.523
76.0354
363.954
391.761
46.2259
131.227
44.6338
43.7939
80.2624
62.1233
64.5035
55.1183
43.4
298.973
372.834
43.8792
49.1716
214.855
500.635
49.0951
43.3086
88.8239
174.448
927.841
94.4798
390.172
381.222
484.163
390.555
71.8685
49.5093
43.5129
58.4315
960.696
56.5229
85.6805
80.3667
43.3567
729.508
1230.82
1207.93
200.031
398.946
50.2924
45.6374
53.4944
84.7556
790.655
646.3
398.984
542.983
383.43
55.7769
49.0658
854.328
47.8112
916.591
95.2459
912.59
79.5671
144.891
82.5231
186.427
169.166
169.721
123.221
63.0048
88.7615
73.378
65.6424
72.0952
66.1561
1248.72
833.601
91.0512
344.507
727.834
327.473
68.5061
46.4283
663.602
517.745
503.242
44.9162
804.726
50.2172
976.47
635.87
737.452
283.805
54.2306
61.3775
47.0524
71.6281
85.7689
165.47
67.888
85.0117
63.5262
94.9836
78.9453
45.2002
48.667
119.017
46.4614
52.0602
78.979
89.5719
93.6851
88.1171
154.466
91.195
54.9513
113.834
100.018
90.9365
94.5082
139.214
1082.24
59.234
337.665
69.2942
91.3609
455.706
66.761
56.1994
46.9967
106.494
96.397
54.8528
108.884
102.406
84.586
46.9951
67.9284
59.8923
71.2912
106.195
73.381
99.3202
284.268
91.2589
81.4339
76.7212
113.074
79.8684
346.378
45.076
68.9601
107.206
307.616
287.832
88.3774
103.301
943.577
233.85
187.213
90.8814
72.6741
110.116
88.5504
53.4217
132.776
78.8696
88.1599
416.479
51.5421
166.309
129.025
111.556
106.219
201.079
78.8182
57.6375
44.4863
53.5404
100.301
81.1058
476.933
63.1111
91.577
127.923
103.594
898.803
56.7406
85.5569
105.402
276.355
386.473
147.7
44.9432
135.883
66.2357
46.6037
43.5015
559.94
100.692
58.999
424.922
110.617
69.1278
153.214
795.24
1106.11
169.032
70.7032
886.612
68.5657
204.764
132.637
577.942
303.33
98.3323
95.454
531.413
92.1018
62.7472
78.7769
100.416
54.2923
63.562
352.505
45.3592
101.996
567.767
152.347
568.401
86.3419
437.654
50.2319
1144.82
105.894
106.079
616.32
233.029
294.636
560.584
426.807
272.591
53.5184
56.4323
429.955
55.8887
86.0306
318.496
67.3519
59.1412
78.8331
153.536
71.2379
50.4068
739.593
466.998
174.348
327.16
168.847
92.9391
82.2629
80.4747
116.491
68.4175
57.2486
85.8118
62.2525
310.499
320.546
131.143
54.5565
95.3304
79.2825
121.717
106.301
98.4643
78.6246
319.805
58.9702
65.3515
338.271
132.293
579.15
206.475
99.2984
747.345
138.414
112.685
405.853
134.733
128.828
50.3926
564.703
44.1759
57.0884
51.8427
86.5137
67.8114
102.019
211.326
105.225
124.219
82.0478
110.821
100.028
43.7295
370.195
151.734
590.999
1113.87
108.627
397.232
127.159
70.6342
565.125
69.4152
61.2891
97.1102
114.435
688.642
425.365
53.8875
313.337
367.398
84.214
1915.83
407.652
125.472
373.508
62.1799
88.6115
241.5
342.842
145.864
747.667
54.4637
52.3197
154.945
51.9692
48.1724
106.168
320.889
580.622
46.8148
139.866
44.269
144.457
63.843
143.906
313.274
91.5663
289.984
59.6434
63.3965
792.436
44.9692
54.0577
109.121
53.4494
125.549
271.716
46.7998
953.246
551.136
890.216
460.888
119.396
67.4433
53.685
62.198
84.708
47.5368
86.9249
149.673
63.318
71.989
662.124
46.0601
163.597
45.3465
134.273
71.3273
731.368
128.8
104.572
45.6649
132.066
151.813
48.8109
61.0258
100.02
43.3916
203.216
97.6717
105.752
54.8944
45.7404
102.961
47.3721
128.555
389.433
45.5318
76.0046
49.4746
64.0835
371.673
222.27
126.164
446.248
841.965
370.231
81.3789
522.356
400.959
698.484
72.9503
202.964
357.303
333.579
300.107
913.168
55.3608
45.6793
199.918
819.706
53.7539
424.259
114.488
446.471
79.4112
67.8914
615.515
577.473
342.198
57.601
295.722
131.412
419.72
45.3573
205.375
64.7937
56.8519
95.5361
96.911
296.759
110.612
64.008
161.977
80.3906
263.093
371.814
44.7697
71.5944
54.875
916.824
88.6358
131.76
192.985
138.986
71.613
44.6838
91.8143
76.8117
454.709
43.8465
104.765
319.523
65.5031
50.3593
78.207
74.5883
692.468
139.159
211.118
96.85
73.9791
1038.49
726.208
60.437
145.193
60.5929
48.7488
410.432
84.321
530.8
56.6765
51.3002
97.5547
56.499
47.7088
61.4779
70.822
137.016
236.565
308.427
396.812
70.555
74.7049
47.2612
171.692
597.054
935.615
69.008
487.548
181.651
666.129
77.9542
366.603
110.871
165.17
130.145
83.2653
262.387
75.1336
186.889
113.21
59.7425
1036.5
107.58
519.56
107.396
76.1695
109.714
141.733
68.4553
68.7715
330.992
106.848
123.037
57.6347
123.591
554.425
128.042
79.616
160.313
46.5378
63.2137
46.4329
75.2855
78.6373
148.684
71.318
95.5755
94.9129
73.978
77.6046
64.7121
75.0852
60.052
349.484
50.0921
107.183
49.7235
68.4974
125.175
76.9505
54.3939
79.3927
100.364
88.4648
127.708
355.67
48.3217
166.877
459.395
158.587
156.246
51.894
156.803
90.7646
301.007
65.3709
45.947
53.6196
163.679
57.156
66.9704
873.502
207.73
363.974
45.3016
51.2955
184.584
81.1399
55.6433
134.355
49.1073
81.1401
54.7005
393.808
45.8639
156.314
46.7819
46.198
77.103
67.511
132.952
106.082
43.5384
296.459
65.8044
68.1154
90.1311
804.042
65.981
61.798
127.877
61.5534
57.4055
124.34
59.7242
51.9226
107.571
208.547
125.877
84.2576
407.858
109.471
246.082
48.5056
182.4
64.8737
95.1553
223.221
50.1477
106.383
65.7314
82.1117
157.233
70.2092
583.816
108.991
46.8378
520.109
131.392
1070.93
301.889
190.376
87.4288
94.3243
122.13
364.556
61.4032
442.372
91.9197
358.169
65.8664
388.355
64.8632
251.745
219.996
124.656
354.118
546.361
403.209
1150.07
542.706
492.304
455.911
470.31
328.828
44.0215
96.1822
322.737
69.6336
634.068
58.7627
492.722
625.064
120.357
100.658
76.7954
44.6727
114.822
48.2193
250.134
131.901
84.0534
186.427
85.4662
155.251
72.7425
54.3598
112.461
49.8075
220.632
47.5832
69.2738
707.439
65.7619
43.8956
105.794
63.773
739.151
288.549
72.3092
66.8
174.173
50.4202
85.0437
50.0361
52.2037
106.019
77.3973
56.6009
63.1638
303.001
89.1241
55.768
44.659
44.4547
46.4573
197.412
72.8428
97.0306
54.5897
79.6898
98.7754
55.6588
239.673
72.3155
48.2689
60.0917
83.2051
139.351
111.577
99.3641
51.0474
119.796
85.1427
52.8856
52.2799
77.3434
83.3665
101.602
69.4117
124.568
66.3966
88.4169
115.962
298.037
758.101
1119.82
123.778
61.2183
485.193
170.083
166.242
45.9757
51.2465
44.81
90.9838
74.1823
44.2675
45.8595
46.6327
112.724
43.4507
49.1063
44.154
60.4323
181.042
54.0104
115.434
52.8359
97.6526
244.345
60.5306
54.5057
62.0249
1073.48
896.162
99.8168
67.1203
68.6056
59.319
92.9691
491.485
65.0133
68.3421
90.9354
44.0394
95.6777
52.0606
86.7073
112.756
92.1465
63.2513
205.269
262.651
64.9193
2081.85
242.591
201.096
61.4676
86.0434
101.048
115.456
54.4218
76.0657
303.836
46.1659
194.003
613.653
106.153
124.578
658.812
65.1628
80.7655
92.4777
43.728
119.242
411.131
92.4035
90.6108
458.569
216.496
1107.45
622.05
100.191
49.3507
141.955
68.9934
185.45
148.607
566.634
49.8488
45.8618
646.255
52.8155
194.762
77.6195
104.23
658.325
847.674
51.1819
44.1408
937.199
50.5539
54.4999
66.0422
48.1176
81.6793
152.63
264.874
61.8688
576.789
105.853
52.0712
86.283
714.652
80.8931
607.433
66.1397
61.6021
87.0655
84.9694
59.9396
112.22
65.3568
571.593
113.428
116.142
524.034
124.105
54.1925
647.402
110.867
107.16
82.3937
157.355
109.202
78.6196
45.6602
262.49
73.2553
73.2541
65.0016
120.963
82.8104
59.0551
47.4027
66.6339
148.944
71.5958
66.9755
81.1776
450.612
73.5366
70.8546
68.4727
94.7916
47.5586
63.981
63.5763
132.699
104.37
141.923
149.252
90.3921
455.334
63.2043
57.208
456.399
405.688
500.996
90.3001
332.403
53.32
582.002
95.3112
334.795
96.1547
44.9102
115.947
201.232
93.6757
69.6938
44.3849
63.913
426.479
64.1703
50.8248
54.4017
1537.24
342.163
45.8047
1499.8
583.814
333.644
218.382
954.299
295.231
75.8692
329.273
89.4696
86.6726
406.066
1023.53
63.1777
45.7381
55.4248
495.742
46.5879
1024.08
117.927
129.69
129.221
126.097
337.826
43.5757
115.788
123.367
55.852
105.569
53.5435
122.388
1996.02
1922.28
818.665
97.6156
648.307
44.7821
49.5395
63.1468
101.285
44.7247
55.935
44.3383
73.8164
90.5322
47.1848
54.6816
76.9995
46.5999
101.453
121.71
44.7968
115.826
123.276
45.1443
54.8838
885.908
56.6318
836.071
605.292
127.356
133.479
84.2044
122.83
68.7129
53.7627
536.547
58.6555
59.0136
48.2228
52.1275
78.9776
141.841
122.636
177.347
112.831
48.3951
553.271
61.5914
316.044
347.632
63.6801
606.386
78.9315
55.3131
60.8152
57.4155
64.3417
48.4031
130.521
51.0505
365.968
218.585
376.243
57.1919
56.9405
83.4458
331.149
463.143
91.132
147.237
64.8218
322.145
64.4657
158.294
472.759
85.3659
56.5037
91.6644
1006.61
63.9186
59.2223
120.429
48.2937
137.376
127.79
123.26
84.8323
286.222
170.324
553.696
71.6224
273.158
402.62
328.349
54.0684
176.397
95.3378
103.055
54.0383
63.9325
63.4905
483.223
85.8984
99.945
237.985
82.9125
63.2284
97.79
46.3516
144.362
48.2499
63.9002
165.985
103.579
79.8874
167.613
99.0932
91.4422
81.0578
126.98
45.8395
322.985
268.163
108.139
103.933
45.8423
336.625
60.439
45.7505
85.8172
47.882
108.258
89.6278
50.2166
55.043
99.164
284.885
238.95
49.6423
818.222
45.3918
97.5238
96.1211
48.1621
779.291
149.068
671.331
49.9486
68.5967
539.199
681.496
88.9973
102.905
186.899
127.983
50.5735
96.8078
63.6402
146.675
81.8688
134.699
49.859
135.913
101.232
107.829
62.2838
88.6704
44.4237
61.0638
580.408
351.555
107.897
94.3321
102.402
86.8715
86.6297
160.98
44.5405
50.659
59.9262
87.1137
81.7448
66.7076
112.917
53.3311
58.114
52.2726
72.9374
58.129
69.8554
189.808
83.2189
68.4292
1031.39
78.8438
65.3011
78.9377
44.8512
83.4129
208.377
47.2054
76.9177
81.3128
625.337
64.3937
63.084
94.9422
1495.67
95.5755
157.047
121.274
65.7411
57.6176
76.9769
63.0665
843.839
94.4494
68.3206
64.623
45.0502
279.942
46.7307
446.508
442.553
112.119
73.7951
59.3162
115.045
89.3827
58.1111
437.811
118.962
302.007
43.9073
138.751
609.295
118.844
50.0287
100.524
54.8911
647.045
58.0818
53.9594
90.7748
44.1122
61.104
87.8698
52.5357
352.678
44.6122
372.623
46.6098
74.0788
66.8168
148.205
87.7914
127.432
113.011
553.517
108.663
119.936
75.6111
45.4602
103.514
58.8291
53.6455
81.5612
77.1168
63.6112
124.865
47.0463
65.6577
47.3223
288.936
87.2304
621.952
542.012
321.704
158.908
67.6249
70.0998
61.3974
195.602
91.1801
45.4398
43.4924
112.365
145.632
47.0175
72.4694
1057.91
120.157
67.2021
75.5884
629.528
848.202
59.6069
548.429
551.66
200.19
360.185
165.028
534.479
72.0158
223.905
739.108
75.4532
43.3921
62.0231
107.051
314.367
44.3324
44.751
70.3524
145.519
153.821
1008.23
109.237
1033.05
119.553
70.3129
85.4236
77.5391
75.3201
564.1
194.03
319.489
460.514
67.1597
423.324
1311.15
66.5069
156.411
114.042
411.834
151.252
126.971
706.06
1058.96
106.358
619.298
125.532
413.603
81.9454
45.2174
153.457
776.04
676.665
62.9964
103.582
149.568
98.3238
250.35
49.3179
71.6095
953.98
387.183
381.46
53.5445
377.31
67.1289
379.505
57.0197
112.973
191.258
318.846
87.2446
119.841
294.908
103.915
939.687
72.3503
59.8749
378.389
47.0232
146.768
45.6549
55.1193
44.4366
82.2379
439.2
448.839
328.676
59.6248
63.0861
299.368
57.1784
553.552
72.013
53.7851
81.5018
218.653
153.844
637.099
51.3594
73.276
64.5478
277.609
100.699
575.811
907.666
432.607
104.58
61.9842
420.779
363.086
153.067
47.9922
62.0603
43.2759
704.297
267.999
468.024
1328.34
239.388
95.915
80.3461
779.796
404.581
63.3321
87.6881
102.534
325.768
60.7783
47.8154
88.3247
81.5847
789.085
299.797
225.863
258.846
318.335
333.867
162.56
91.929
845.09
479.179
716.068
202.562
328.198
646.713
151.536
58.1241
107.395
58.1499
59.0427
77.8094
76.4294
137.984
295.649
85.2998
178.951
182.131
147.035
112.055
190.887
111.394
102.287
128.718
743.832
1128.97
466.41
69.0601
119.429
82.7009
281.111
565.548
156.39
626.344
80.835
502.256
429.028
177.489
47.8355
44.6574
70.6535
63.6419
688.859
93.9435
58.5201
503.221
73.1237
852.318
448.432
106.832
452.46
63.3688
46.0539
47.1182
43.5956
98.1082
62.9888
92.0589
131.521
73.9773
46.348
146.141
696.429
533.342
44.5803
106.49
49.9565
62.8654
56.559
701.503
49.6114
55.0098
53.1257
104.456
46.6671
54.3385
98.5015
56.5891
58.531
53.7838
238.46
44.6556
58.6224
131.038
411.091
305.473
63.5229
573.185
741.212
54.8148
53.2111
164.824
79.1609
298.714
75.6433
92.0554
82.4678
297.227
68.5152
92.5671
1043.8
478.379
89.9302
631.943
46.7996
46.311
62.6031
46.185
47.6219
71.3004
54.3647
80.6896
210.32
88.7815
370.732
242.812
226.246
81.8955
44.025
597.599
131.885
84.2148
556.212
102.58
682.599
64.1671
426.378
44.9905
181.546
87.2741
226.864
47.7859
86.1186
78.289
713.046
49.0446
43.7022
171.724
81.1189
133.564
60.8252
72.0837
91.5378
48.1658
139.543
49.189
64.0744
147.987
92.9751
276.595
69.0747
46.0271
61.631
45.5496
52.5961
281.697
43.6144
94.6181
44.0853
222.854
116.666
51.0268
112.932
112.214
57.4767
74.2377
76.1851
129.869
151.293
51.7041
48.3276
91.0408
68.7313
295.449
605.681
507.511
60.8827
46.4474
58.219
65.3467
90.8066
914.668
237.562
63.9039
53.4919
78.1626
47.1943
48.6489
77.4194
152.085
193.846
506.227
379.256
57.2519
76.7138
75.9987
43.7816
229.496
72.9447
112.924
113.749
50.5886
988.93
77.6803
58.2235
70.8422
72.3738
160.372
622.929
45.3255
479.17
55.08
744.134
121.287
526.57
70.8403
45.0072
60.5428
104.678
49.8639
48.5101
126.018
45.1188
44.6395
54.702
60.9096
233.668
54.3401
760.488
71.6122
60.5783
154.438
171.478
48.3942
427.723
964.722
748.6
539.964
441.138
55.3707
383.149
297.104
74.5264
57.5133
53.5544
672.117
90.8232
96.2418
48.8061
77.3332
311.182
764.365
159.772
86.0163
45.3999
66.0747
242.013
46.7138
56.2749
598.853
451.848
262.934
768.487
75.4423
47.025
69.2784
82.4863
1143.67
50.4907
46.324
43.9309
277.81
47.0641
50.8375
92.6495
101.035
45.1717
113.918
46.6164
146.202
86.6634
142.253
51.8592
234.027
88.6312
112.393
167.393
111.217
254.767
49.696
623.56
94.178
324.882
325.382
386.622
85.6962
124.183
204.543
66.8236
45.2334
50.9768
54.2508
86.9678
570.909
116.676
46.5677
83.2176
64.6492
49.0254
120.729
62.3388
134.888
101.517
47.1578
99.2654
49.3961
79.0742
284.637
572.427
71.4215
100.09
80.2958
104.132
527.324
361.213
488.797
855.406
142.35
46.9115
48.5547
44.4065
105.354
837.991
80.0568
776.33
123.953
45.5144
117.549
428.723
46.3903
46.6572
55.9547
75.6804
60.145
313.369
76.5957
91.9477
307.865
50.6222
97.3058
65.7305
129.239
150.991
51.7439
677.074
82.3274
111.563
56.0074
124.932
46.3178
128.619
123.23
93.6717
92.4697
80.4247
67.2239
69.4529
50.7482
227.497
62.0511
50.7759
115.926
201.041
231.428
146.808
98.7192
112.835
190.046
71.722
302.216
117.92
135.588
102.061
99.3218
149.783
76.9418
124.644
455.614
100.266
53.8635
48.9368
321.147
90.5498
102.751
50.3976
103.744
86.9357
48.3166
94.7196
410.972
94.6997
72.7065
87.0235
667.44
75.495
91.6338
147.351
59.2791
156.836
48.4763
761.104
85.1511
79.6582
83.7475
55.6394
114.955
55.6137
523.572
43.8935
77.5207
655.67
59.6224
111.059
200.617
100.804
49.0105
578.433
59.435
45.5911
100.389
132.056
60.2762
324.695
45.3611
353.908
99.6176
44.3345
71.7435
117.407
735.578
184.487
72.1203
45.1345
131.879
406.315
295.134
117.138
124.052
996.453
213.515
323.059
128.321
82.9468
102.968
59.7947
521.821
1048.99
152.997
164.618
100.198
1008.99
467.787
539.037
410.974
182.946
64.3749
51.6565
152.802
73.7494
557.415
315.215
78.2853
844.968
107.776
99.2555
71.8426
50.7402
106.393
88.103
91.367
80.2909
147.727
184.327
887.095
57.3929
119.108
645.79
618.786
182.268
179.438
62.6861
637.749
47.5733
65.8887
347.574
148.443
44.6926
336.72
437.496
72.1612
124.399
48.4846
95.4254
56.2638
80.9256
175.216
82.424
617.999
44.1858
51.1811
87.9887
481.545
171.666
123.775
165.169
342.369
122.284
78.8191
427.392
108.904
70.1438
244.072
798.798
277.805
59.8593
373.32
160.407
92.3296
65.9925
129.013
47.3145
116.746
80.3311
74.5619
65.6114
60.0842
87.2976
44.4697
43.9201
49.4743
100.243
49.6968
160.568
393.599
738.981
96.6637
85.554
59.5814
49.8895
103.466
657.973
52.3494
143.815
71.6875
224.348
67.2556
126.137
222.341
418.513
47.9665
57.3902
271.282
53.105
71.1983
126.416
91.0811
392.193
85.9425
268.815
456.928
231.885
649.372
195.302
381.88
92.7369
150.961
146.824
54.1096
474.967
130.723
86.1059
169.099
96.7016
88.5286
44.2895
53.0917
50.1196
45.3221
87.2785
337.113
43.7144
951.863
112.131
342.393
114.902
366.762
1316.83
54.7821
253.585
871.045
138.916
344.335
77.3995
69.8376
784.937
1010.06
283.133
168.79
53.0967
431.081
103.429
615.241
53.3107
54.6508
239.699
1025.17
60.905
82.7391
51.4196
232.728
531.067
48.1078
490.338
206.657
540.758
719.616
49.8742
347.356
74.4997
709.121
345.134
201.645
394.404
283.231
512.827
356.058
231.953
82.3913
77.6568
75.4459
49.4647
53.9795
1382.18
73.4615
107.866
76.6133
82.8337
129.89
1117.24
143.43
248.764
300.813
149.805
296.108
126.92
44.8616
78.5935
1016.59
634.468
316.954
193.502
244.831
87.5101
478.026
62.0257
257.946
312.326
58.1101
541.25
97.2279
292.607
323.998
156.664
220.472
224.718
146.157
51.1907
139.736
61.8299
546.669
72.8808
197.701
82.5823
260.792
56.3889
67.4127
337.796
122.106
300.285
45.6148
1346.3
46.1694
59.762
56.9215
55.6877
93.8267
516.954
166.497
92.6228
667.3
75.2469
49.1241
58.2456
877.912
72.7403
98.0309
852.46
343.189
911.299
535.356
161.255
213.946
159.194
186.76
743.755
65.8809
455.323
132.066
66.4177
180.807
65.2115
145.903
74.2555
600.135
451.5
558.413
361.922