/*--------------------------------*- C++ -*----------------------------------*\
| =========                 |                                                 |
| \\      /  F ield         | OpenFOAM: The Open Source CFD Toolbox           |
|  \\    /   O peration     | Version:  2506                                  |
|   \\  /    A nd           | Website:  www.openfoam.com                      |
|    \\/     M anipulation  |                                                 |
\*---------------------------------------------------------------------------*/
FoamFile
{
    version     2.0;
    format      ascii;
    arch        "LSB;label=32;scalar=64";
    class       volScalarField;
    location    "0.0563953";
    object      p;
}
// * * * * * * * * * * * * * * * * * * * * * * * * * * * * * * * * * * * * * //

dimensions      [0 2 -2 0 0 0 0];

internalField   nonuniform List<scalar> 
47425
(
1.23155
1.41075
-0.0166563
-5.95541
-22.0504
0.0791899
-19.9216
0.0400716
12.8747
-38.2982
0.0103786
13.3629
-15.4233
-0.00951485
-2.15321
11.8813
0.0272146
23.9856
-114.446
-37.4952
2.61289
15.5362
-0.0327204
1.08268
14.2838
1.09007
0.10761
-46.1842
0.00830294
0.218894
15.3961
12.2355
13.5327
0.401608
-0.0350301
0.022287
16.2509
13.2999
6.44932
1.30028
1.52619
-0.320797
3.48313
13.2176
-40.1592
1.24203
0.168946
13.1073
1.22254
0.577933
44.3654
0.0980924
0.213342
-32.483
1.05827
8.36509
1.27164
0.0448578
-11.1666
0.0709325
-34.114
-34.0583
-65.5864
20.616
12.7221
2.73887
13.6163
-2.19765
-47.9857
22.7795
3.25952
0.822626
0.875824
2.41799
-54.6366
12.5528
-64.8841
0.206086
-86.8975
-22.1327
-56.9652
10.1098
20.6754
12.4451
2.03876
1.21566
0.759165
1.53043
-4.71773
-27.8661
14.6826
1.82895
0.527863
1.19326
1.22692
1.26054
0.452845
1.25061
1.39354
11.3698
12.3003
20.5018
9.09258
45.2278
9.05224
0.706808
1.49125
1.27102
1.90226
13.6233
-37.3364
13.1863
0.230731
1.19335
-0.955703
34.0364
-0.568162
45.3311
7.75176
-3.41613
1.24525
13.5556
13.0678
-9.3832
11.0521
-0.85014
1.22478
12.6146
1.11075
0.596763
21.6264
0.677457
54.7925
7.81731
0.465267
-12.0408
2.12857
-0.849395
11.0648
-0.893173
13.5978
-5.57003
5.78283
-0.506845
11.0794
12.6744
-20.4191
12.8604
5.77822
13.4857
0.0411712
36.2197
12.9126
-9.64758
21.042
1.22243
0.626217
-126.858
1.18964
0.332713
-2.32484
1.06157
0.747825
10.7294
-53.2954
-93.2632
12.9118
-54.6942
0.823584
-48.9695
-55.4467
0.563657
12.662
18.2001
1.26339
13.0705
26.443
0.0617544
0.0447733
0.377333
20.0585
1.32117
0.0744749
0.077132
0.216002
12.3101
10.1273
49.5313
0.404611
1.34128
13.4433
0.491177
-12.4378
13.6636
0.392734
-1.88525
13.6459
0.990942
-2.59022
1.31262
0.337734
0.906011
2.01233
-1.50694
8.56434
1.72626
0.0205478
-1.08722
12.2094
12.5622
1.2562
-2.04783
12.6293
1.06287
1.05169
-3.06712
1.6459
-24.6275
21.1284
13.445
-24.4582
-4.00115
3.79902
1.41888
2.05556
-22.2705
0.468551
-2.7491
-4.64267
-9.35116
2.07049
0.181041
1.00618
13.2827
0.134535
12.3208
-27.2359
0.661
-24.5994
0.127668
0.146665
0.436606
0.583276
-6.92884
7.89385
12.5624
1.25564
12.4579
0.860499
0.00669097
1.14721
-20.1711
0.0529954
13.6235
0.254388
0.22015
14.8152
0.342364
7.20757
12.493
0.278991
13.1478
9.65573
9.52182
-10.9314
1.17113
0.0702117
-10.8595
0.259533
9.72346
10.1983
-24.6661
-27.1817
10.1359
-22.2137
10.2269
-23.3268
32.6602
-25.5316
32.047
-31.9977
1.41124
-37.3083
0.721227
0.705683
-3.49033
0.660751
0.0216462
1.63086
-0.777086
55.0035
19.5517
12.7462
0.0317565
0.108203
11.453
-5.5918
10.3379
12.9768
-9.76728
1.38031
0.97438
0.23813
0.195297
-53.5755
-67.1297
34.8991
0.45205
0.996128
11.1982
10.669
47.2176
0.00419568
0.0632868
-15.5591
1.29824
0.539567
0.410163
0.154887
-35.9095
-15.1696
11.8574
11.493
0.0801387
1.0605
0.101354
11.767
1.22793
0.727912
0.220604
-6.12849
-60.053
5.03989
0.106238
13.4818
0.066902
-59.1679
13.1654
0.781414
0.84908
11.8171
11.5546
1.32751
13.4359
0.6532
0.0165206
0.13626
15.9009
-0.0653709
0.159469
12.0671
7.32077
12.2458
13.0584
12.5474
-2.78208
0.442052
20.2235
12.8814
12.8399
19.2895
-4.21944
1.09517
0.158747
8.39216
0.836967
0.161758
12.9078
13.1646
9.7146
0.209884
-40.5854
0.77878
10.804
12.6869
10.6532
-1.96649
12.2134
12.5567
15.8609
12.4778
10.5988
0.974899
13.0382
1.13881
13.0705
0.0709455
10.043
13.5351
0.0933028
6.09781
7.42646
-0.0291824
6.85003
0.548192
6.68549
13.4819
0.0253916
-13.4895
0.348641
-29.3941
0.516863
-36.0269
0.203233
2.52482
0.289941
0.267671
0.0407247
0.146697
0.227467
7.48906
-63.227
57.3948
1.01522
6.92672
4.47318
2.96069
0.975348
0.0396651
0.564594
0.161134
0.745548
1.49023
2.87888
0.0422033
0.102645
-6.49217
-4.84635
-1.63449
16.6855
-60.6025
0.792447
26.7476
-59.7209
1.68466
-62.8598
-32.5648
0.821042
0.0182643
0.99775
-2.92926
-65.5046
1.18312
0.899643
0.54932
-3.47296
-1.197
1.1202
1.2817
-24.042
-62.6894
-26.7809
13.3692
19.2177
-2.02212
1.07285
0.779599
-12.4071
1.02976
13.3401
13.6044
13.6226
7.01922
13.5399
0.870932
10.7043
0.190469
-0.945852
0.603133
0.528275
13.4043
13.5265
12.4251
8.22069
11.4711
1.08022
-0.0471217
-23.9481
12.484
-13.1012
13.5652
-1.15194
-3.24698
13.0002
0.934069
11.4073
12.8886
12.4956
9.40552
0.595227
0.0718431
11.6126
1.39595
7.43165
21.2392
0.927342
13.8692
12.4055
15.4402
1.30797
0.370915
0.996798
0.166173
3.23818
0.0478578
0.158015
1.02408
1.30053
-0.374544
0.124173
0.0506756
23.9359
0.0287008
1.62929
1.41992
1.07491
0.0022483
0.174255
11.5645
7.78568
12.6471
12.6471
44.7129
0.0537483
0.0225463
12.899
13.1051
-20.6884
-24.4586
0.362075
1.41257
1.33457
-9.25617
12.2425
-27.1105
13.5302
-30.9627
27.2085
20.1129
0.127852
-21.2106
0.241194
1.27711
0.414923
2.00388
0.168715
0.848624
-61.6582
0.285251
-0.0240528
0.342025
-19.3251
0.935298
0.110967
-19.5027
-15.5511
0.165725
0.241371
-28.5411
0.388643
-0.0424727
0.14521
0.430892
0.290354
-11.0645
-10.7123
19.7844
1.67795
1.30225
0.0735876
-27.9584
18.7822
1.62316
-28.3403
0.0645248
0.249677
-28.9458
-39.795
14.221
-28.2524
-28.1659
0.25907
13.4711
0.114551
17.3115
12.4731
0.121132
-45.8836
11.9172
0.0633595
0.766253
-17.1031
-10.3775
13.5238
6.84919
-54.7867
-27.5332
2.28551
0.662001
0.954576
2.89631
0.63438
0.55545
12.4855
8.48093
13.5228
-1.20358
12.6643
-27.2561
6.01115
4.35254
-29.0072
11.1635
0.613783
7.60242
10.5848
0.651036
12.9234
-1.63684
29.8736
12.6823
-0.414257
1.50171
-85.5724
9.32065
-10.6287
-41.2619
-42.5897
0.240473
1.51827
-44.1017
0.044252
4.64594
-22.195
12.9797
-38.7137
0.236291
0.204696
12.7806
-35.752
13.6255
13.6973
0.375829
0.160185
0.977658
-0.00276232
0.835875
1.06079
0.742981
-32.1262
-31.5285
2.37559
13.9914
0.272172
18.3885
11.9538
13.6054
13.6075
13.6659
13.594
19.9294
3.00853
13.5354
9.98498
-6.53093
0.118696
-66.36
-28.333
-0.0237366
18.9662
5.10944
0.195644
-68.5658
-0.0124032
-55.8048
0.300402
-12.3757
-13.4711
0.76507
13.9569
9.92024
26.5909
0.404159
0.666484
0.9967
-15.588
13.4611
-16.2497
1.10233
-67.4259
-11.7842
0.987838
-14.2597
13.5582
1.0541
6.25117
1.07377
-15.5628
13.4261
12.19
-14.9187
0.319482
1.02304
0.172579
0.873749
28.9636
27.4759
16.5916
15.8572
0.149001
-0.00123688
2.72405
1.15227
-0.12428
0.168954
1.20294
0.0978473
1.195
31.0289
-11.5676
0.0760195
12.3524
1.11039
1.00569
1.34958
0.0281298
-2.7038
-23.4684
1.22389
0.211433
0.12848
1.05666
15.5453
0.0563852
0.862205
0.817679
0.794959
1.19871
18.8816
35.9424
0.973896
-27.4575
-7.8889
-32.3964
-27.2743
1.02895
-0.58881
5.42146
0.282464
42.9104
-28.4737
55.1648
-9.57074
1.68855
-17.4423
0.443712
57.4399
2.36165
0.968542
1.2986
0.210863
-10.1112
1.59504
1.15192
1.03299
-30.1554
26.0531
12.8444
13.1137
45.2583
41.5252
-16.0204
-52.6339
-22.608
46.7854
43.6869
12.9999
0.634902
18.5438
0.420285
6.95012
-28.328
1.5981
6.11292
7.43786
0.284186
-29.3573
-29.4353
0.142474
6.22813
0.728365
0.437612
7.4389
0.315905
16.6871
0.0944466
0.672815
32.4378
0.247416
0.0203849
0.142801
0.468471
0.25039
52.3793
-19.6344
0.0470405
5.46876
0.67732
16.3831
16.7931
-15.4227
0.486846
-28.2265
-16.5748
6.65225
2.83709
24.3493
-48.794
0.0910191
0.128805
-8.19802
1.20198
13.1577
4.28745
-0.027819
13.6981
-34.9652
-17.8372
-49.7643
13.6687
26.9047
0.178388
-10.7067
18.0996
-15.973
0.0615044
19.6215
-39.1837
-10.1194
-17.4862
-29.7814
-15.5048
0.984806
0.0794244
-12.3144
0.114455
-17.2625
-26.8343
0.0357472
-20.4825
1.11888
1.09412
-39.1147
1.15602
1.19597
15.6328
16.3637
12.6533
-23.4756
-4.94573
1.14455
-12.3409
48.5084
0.194198
14.7886
1.38802
0.392127
1.16196
1.14708
-29.9774
-64.5513
-10.1985
1.104
-17.4995
-16.562
-24.5952
4.53362
1.24156
13.2236
13.4177
1.33155
-13.0505
17.1733
24.4211
13.2799
-27.5931
-16.8361
3.06009
1.19534
0.483752
1.11408
33.6152
13.022
-15.5633
0.330544
3.89501
13.1285
13.112
13.008
12.8151
13.3353
-21.3975
-4.05541
23.8652
26.4573
17.7347
7.63139
-1.45662
35.8873
0.857161
-8.25432
0.476919
-15.7778
-8.32936
-6.43761
0.0507349
13.3401
15.8254
13.1449
1.18779
-40.844
-30.1234
-43.9277
10.9534
-9.04256
6.35651
-25.1115
1.31553
-41.0435
1.22493
1.17527
-7.05908
10.5023
1.30446
10.3738
0.389417
5.10535
-8.46418
0.952851
-2.24856
-26.4972
-7.25324
-0.573524
17.7457
50.4441
-58.2824
40.3618
-26.6679
-59.5061
0.252959
1.06354
23.6765
0.532362
52.5665
0.551332
0.388412
-64.7425
15.1919
2.59943
0.300958
12.9134
22.6351
11.4191
0.960537
13.6197
-18.774
10.2441
13.8272
14.0555
13.5606
0.973506
-13.5756
-7.5906
29.5531
14.7342
1.07402
11.0301
0.631544
0.653346
8.28709
-10.1181
-3.42243
-10.1133
-10.3577
11.0266
-41.7895
0.778592
0.683622
0.759222
-57.5328
-57.9395
-21.3542
-27.5342
0.88402
-0.947379
-38.7132
-29.0874
-5.42123
11.1606
0.881646
1.4245
-40.3306
4.48738
-1.12252
0.949087
9.85838
1.35143
32.4704
-112.294
-15.7075
-30.0594
0.979592
55.5788
-61.6434
1.59053
11.415
2.89828
-34.4137
11.4603
-5.0217
18.0019
-26.485
2.17661
-27.9566
2.75376
-10.7259
1.20083
7.63697
-26.8947
-26.4709
10.6315
18.8397
-11.1034
-48.4263
9.96341
1.40663
-27.999
-38.0531
12.1881
9.21307
-59.3956
-59.9426
-41.6932
10.8362
-7.49269
-19.2535
-41.6627
10.3065
26.2604
-21.7996
-8.7213
-6.74809
-24.2152
-39.6303
-5.8424
8.58033
12.7643
13.0451
13.7251
10.6718
-3.6211
13.5044
13.4902
14.327
1.49741
-33.1425
-35.954
11.3321
42.07
-19.293
11.8221
-18.0716
6.24721
10.7373
-9.09331
-2.91699
10.8925
9.69299
-51.3547
13.8965
-34.4979
-64.6218
-37.7694
10.3926
-11.4922
12.3989
1.62008
1.72552
-18.0843
-39.086
0.909639
-30.8289
-22.7802
61.0529
-22.2345
-52.7607
-28.3974
0.0598558
1.46052
-42.9486
0.431947
15.2923
0.118438
-47.2046
-39.9394
0.0409807
0.78744
-34.0346
-14.862
-44.0024
45.9895
0.456526
-6.96971
-54.5564
-0.0153365
22.9841
-29.3191
15.367
-68.0476
-20.4362
11.4229
0.359314
0.456251
0.996259
0.441204
1.45363
0.0856483
0.452475
7.82887
35.0631
15.2078
25.4093
-22.464
-12.838
28.1315
-3.13473
4.37962
-11.1014
13.6226
-71.6618
0.895993
1.07471
0.988694
-38.1402
0.911428
-67.4018
1.03081
7.3149
7.51261
-63.7766
51.1612
-29.513
-23.5742
34.9663
-4.18752
12.9951
-9.01028
-25.4494
-26.6962
-28.4849
44.5035
12.852
-17.9713
-34.0165
-6.39934
-5.70829
-38.3772
-29.9895
2.50771
-14.4804
12.7216
13.0035
-30.2274
-51.3199
-1.11773
10.213
12.8818
-62.0627
13.0428
-14.4107
-13.0195
13.0189
13.2776
-21.0267
3.26754
50.9527
-18.7433
4.26243
30.3156
26.9655
10.2687
-90.1064
-41.002
-15.1524
-116.127
62.3287
13.3472
-26.3913
13.3476
23.9731
-71.262
2.94862
-65.0243
-38.9927
-2.95176
21.3431
-6.70377
13.1996
13.2419
15.9039
-21.617
4.06004
0.150778
26.7102
0.339968
-4.80087
13.8891
-13.3997
-0.676186
-19.8317
16.3542
-61.5833
-41.2152
5.514
-36.7878
-30.9863
0.154588
49.4513
-39.881
-3.94496
30.1328
-9.96661
-15.0107
-23.4668
-30.4692
7.86968
-44.5073
-21.3968
6.35762
-2.27138
0.52959
-23.7654
-4.74539
25.4227
-16.1458
1.22581
25.5916
0.773151
-58.4331
0.264485
0.255302
-7.77174
-23.0151
21.8424
-4.84362
-12.5352
-8.29389
-67.134
0.155424
-13.1088
-63.7187
1.04521
-9.09996
58.5231
-6.75284
-24.6327
-58.5959
0.210886
10.7329
-0.0299688
-127.942
-31.0193
-34.4588
-30.8485
19.7941
-5.83931
-2.56508
-42.5863
-56.7697
-13.7909
0.524593
13.0698
1.31234
0.545113
2.77417
54.3528
13.4934
12.7573
-8.08156
0.581976
15.9576
13.6483
22.6016
13.2317
0.52873
23.0936
14.0343
10.865
-14.9759
1.56006
12.3809
10.3502
-10.5357
12.5805
0.531588
1.25984
11.1011
13.3553
13.3445
-64.2894
12.566
18.1243
1.09722
0.283068
-26.9815
14.2846
13.7047
-60.4173
-55.7415
59.8295
15.1489
-62.8394
22.6462
1.66381
-56.5638
8.69351
-59.7608
1.11712
1.19066
13.1054
19.6714
11.1863
1.16957
1.05045
1.48122
6.88477
9.40508
0.992684
-18.6117
0.912102
-12.4387
58.6503
12.5728
-46.0929
-13.1576
-72.717
1.09783
11.3652
0.164061
14.008
1.43458
12.6513
1.31226
-43.5618
-24.2451
-38.9371
-3.32892
-8.89041
1.39966
2.724
-32.6426
1.64583
-53.457
-0.886394
-47.9597
1.81959
-60.1084
-89.2205
0.750632
0.0992823
-45.7096
0.254905
-45.9422
12.3171
1.74346
0.988381
0.939789
-0.112738
-0.510262
-12.0181
-29.5741
-7.10608
12.3579
1.35702
12.4027
0.911441
12.3166
-45.534
10.1046
-38.7385
1.97096
1.34388
9.87615
0.627488
10.0637
9.37824
0.189477
1.24423
13.1643
1.15897
-3.29464
1.16651
1.23393
-25.9396
-41.479
-3.28096
0.930285
-31.3139
1.00827
0.652322
0.500771
0.471625
0.0672138
1.13537
12.5065
12.225
1.03868
0.799958
41.9852
1.28082
1.10908
1.44129
-47.1638
0.956567
-55.2303
-39.5027
-49.2653
9.7051
0.292028
1.00747
0.151374
1.09792
-45.3144
-11.3947
0.923621
0.934252
1.0198
1.06411
-28.1115
1.06605
-0.0189812
-16.0018
0.713936
0.533396
0.338425
0.540616
0.325782
0.388009
0.591617
-11.509
-15.7322
-0.0171372
12.4029
-2.08052
-9.80517
-8.52681
0.682057
1.07937
-11.2778
1.39615
0.149452
1.52431
1.05154
-10.5801
0.0316251
1.39375
0.706486
0.668133
1.63664
-5.93246
0.0412102
-48.6384
0.734376
-16.3186
1.23295
0.0032836
-50.7399
0.039332
0.656762
0.045911
0.889095
0.912476
0.638478
50.7839
0.94642
-33.3455
0.952053
0.263745
1.62741
0.862282
0.624291
0.989269
0.513302
0.856398
0.29503
-12.0059
-10.8573
-38.9125
10.8612
-12.6153
0.974057
1.19724
0.857024
-28.0786
0.20256
0.246942
0.171509
-56.2671
0.122504
1.35137
-0.0155531
0.255521
1.69404
-144.775
0.100984
1.46914
12.5217
0.00695491
-7.57984
28.2011
26.0416
0.0380874
7.48698
0.153517
1.09424
0.587913
0.257052
-54.8685
-55.4808
0.0796475
1.05477
-46.6896
-0.0847087
-4.92414
-22.6755
0.0758473
0.970773
5.24563
-0.067735
-7.31161
0.0529307
1.26222
19.814
1.67596
0.0435827
12.5385
-24.0423
12.5862
-28.5232
-25.7629
-29.3093
-24.0161
0.515793
12.513
-18.0191
12.6581
0.476797
16.5991
-36.8368
-25.7303
12.9703
-11.5497
12.9506
0.724478
1.40477
-28.7556
0.925424
0.500443
12.782
12.7979
40.9611
44.427
62.9157
-15.6376
28.3862
12.9863
14.99
23.0693
12.8488
0.688103
0.20976
0.500013
-0.0761381
-28.7749
-28.2268
0.716437
2.11804
-2.46893
-61.8276
-2.32551
1.12168
0.350387
-25.579
-56.1069
0.822462
-45.4276
-4.00626
-31.0672
-41.7908
-14.6611
0.265811
0.764649
13.4661
-57.4465
0.257717
13.5714
0.610685
0.167317
-55.4831
-54.5027
-58.7378
0.234653
-42.9988
16.517
9.8638
2.06365
-16.1344
-63.1529
-61.9668
-27.0451
60.7271
-27.4631
34.2853
12.4638
-41.8271
13.112
-60.1767
12.5027
-55.9714
12.3923
-26.5747
2.98681
-24.5411
13.0099
12.9391
2.53829
12.7918
12.6726
33.419
2.76774
12.9131
12.6823
-68.6435
-47.3041
-14.7457
-24.7455
-49.2838
-24.3963
1.23716
15.0951
-40.829
-29.9646
-36.9923
14.0353
-58.2905
6.21972
-55.8731
-63.2733
-40.3648
-16.142
15.3646
3.79891
9.58559
12.8293
1.91085
-31.4504
-0.934637
0.167886
1.76924
0.173917
0.137206
1.29522
0.380411
-25.5512
0.303202
0.150797
0.539479
1.55312
-20.729
1.18594
0.0518563
0.241082
1.79483
-11.8673
-9.55668
0.715822
13.5413
-30.7371
-62.6552
-2.65338
-50.5584
-12.2772
-4.09468
-21.6322
37.3442
9.11889
8.64587
-7.60612
-0.0114523
0.163498
-2.36681
-0.0257009
-0.0884553
-1.04565
-0.0119901
1.88902
1.88927
12.0625
-6.08379
1.29256
43.1398
-0.0778086
12.7985
0.125249
-0.00220388
43.7715
-49.5922
24.4753
-0.0601611
0.988039
-25.3933
-27.3457
-0.81065
1.34234
12.5437
-12.2923
0.289317
0.156535
-14.6069
12.7464
0.0850971
13.6259
55.0578
1.1146
0.597574
-14.4803
-1.35513
0.884111
0.805925
0.582021
12.6399
12.6444
11.0209
12.7795
13.0982
4.54026
3.46897
-4.54009
-56.021
5.33287
-7.01143
12.6939
12.5871
62.6893
3.40173
0.833023
0.939383
-25.1021
-37.4731
5.32319
16.4016
0.768392
29.2754
-5.38048
15.1893
-34.4326
48.1469
29.986
-15.5955
3.76363
4.76269
-23.8004
-60.4199
-82.6018
1.87365
-11.101
-62.1262
2.48816
-13.8006
-7.02899
-38.9921
-27.1126
2.23629
16.1322
-64.5825
10.773
-7.20056
2.80962
11.0265
-1.68604
15.6205
0.0430612
14.569
10.1772
-39.1461
4.54163
58.3983
-19.5157
56.0997
32.7003
-72.5749
13.6827
13.7258
-58.1844
-12.8406
-0.996836
-31.671
-24.2872
-2.17435
2.36738
2.07173
-32.1952
-2.81635
7.1204
57.9943
-8.1347
13.5615
-6.43927
-18.5443
7.9358
8.00901
-34.43
-30.7869
-28.6525
-28.735
0.647173
-17.1478
1.07175
-17.8936
-11.4019
1.76779
0.868903
-16.0223
-4.27609
-28.4844
-28.344
-1.01191
7.2283
0.61652
-11.8781
-22.1246
9.45853
9.14953
-16.7916
-28.017
9.44408
-7.69893
-28.1249
1.76724
-38.5857
-0.608791
-4.28443
-50.7337
1.85472
52.9637
-9.12482
0.951708
1.01715
0.100947
-63.3037
0.927284
0.950631
-4.32013
0.325395
11.2581
0.781237
-29.8099
11.741
36.8033
12.0379
11.9138
11.6748
1.00498
-14.6779
-5.53455
-8.76742
-60.8491
-1.51102
-43.1702
-10.6001
-0.0379531
-59.6806
0.0428456
0.81308
0.537623
-8.06007
-56.0414
-24.9097
11.4208
38.6396
-11.1308
1.78626
-34.4867
-43.5391
-10.5719
-47.9597
34.14
12.5135
-11.5193
42.5362
12.5738
-68.4501
19.9285
11.0652
49.354
34.6664
12.4071
12.7253
61.139
-43.6474
1.20018
54.6498
7.41602
12.6924
-9.74145
12.577
-30.5038
8.65528
60.4733
12.7788
12.9289
37.6478
10.9233
18.7063
-6.16269
-2.54065
15.723
-35.0322
24.3931
-22.2612
-56.1854
-71.0541
-24.1475
13.0161
37.0435
14.5178
4.96305
8.05175
12.2329
12.3951
1.23163
1.2138
41.1877
-41.9822
12.9721
-27.9404
2.05258
7.87554
-17.8864
-69.107
1.30955
-15.6557
13.6359
5.97234
1.10975
10.8039
-8.18118
1.39013
1.29917
-28.027
2.87492
0.944825
-7.31224
10.8483
0.829994
22.4354
0.873406
-17.7181
28.0894
2.5108
16.2975
37.4194
-26.9628
57.4532
42.0258
-30.8879
-61.6212
-27.4145
-26.7614
-26.9613
-27.1193
-26.7426
-23.1421
-33.5037
-27.6382
59.6778
-1.85066
-53.438
11.2947
-0.393165
-37.4533
-56.4624
-5.03915
-28.1461
-16.3505
-26.9389
-14.6432
42.2156
-44.1163
-37.8957
-26.8992
24.4824
-26.5986
1.19808
-59.1294
23.4796
6.32064
1.23513
-1.2058
46.0974
9.31225
-23.4697
-9.25578
13.3932
1.15813
-7.10544
-25.4762
-31.0946
-1.63469
-4.37176
18.7753
-27.3926
-7.19681
1.26118
-22.1354
46.9211
-1.97678
5.78924
1.29757
2.81049
-38.6612
10.667
8.30692
-1.02731
1.41589
5.40937
-2.13975
-2.76376
63.1715
3.49953
-18.8681
-6.26922
2.38984
-62.7321
-61.6538
9.39982
9.68197
8.83478
11.7374
-23.2614
-9.33756
57.4422
-8.4751
11.5093
-18.1785
-2.85664
-5.27049
9.2525
-11.9094
9.25233
-19.9094
-27.6307
-46.1906
31.893
-15.0106
18.0847
9.50469
-56.8802
-68.5245
33.3849
-58.7587
9.95897
-61.6526
33.4248
-2.44725
19.2469
-16.8369
0.947545
0.383955
-7.48412
-13.1849
-39.7093
0.715681
8.98864
-95.3673
13.5309
-34.3719
13.3853
-1.21448
10.865
2.05658
-0.180018
0.252282
-5.74015
8.22172
1.9544
15.9843
0.396849
-53.8634
34.8721
11.852
41.0943
12.7811
-0.275364
11.762
13.5828
31.0661
0.397705
30.9789
1.43146
0.393091
-20.6807
0.952478
0.329771
-16.0915
-9.17673
-33.7701
-3.37432
33.6521
6.77502
27.8994
0.925682
19.7259
15.4511
1.08145
0.980536
0.461387
1.05724
57.6075
0.40218
-9.75429
-28.0559
12.8607
13.2197
15.4202
13.0694
-22.862
-32.5219
-0.407541
-3.46074
-3.40973
-13.9305
34.4324
0.221104
-59.412
-8.59888
-34.0758
0.385451
9.30495
-23.067
12.954
13.1071
-19.8788
13.2111
1.19607
7.11104
-46.3082
18.0793
55.305
0.529664
0.224816
34.5264
7.00181
1.30776
34.6542
8.35529
-13.4728
37.5782
-12.6005
39.3836
-51.9548
2.25891
13.6097
-0.0700238
-7.64606
-0.0873676
1.03551
-0.715628
0.252568
13.6133
-35.389
5.11167
1.25995
-36.8599
0.955145
9.98074
13.067
13.1965
24.8983
4.65909
1.52464
-6.03024
0.136746
-12.3111
12.8652
1.34743
-20.9952
59.8352
-19.8497
1.12209
58.3701
13.0997
-60.0751
54.1545
-1.75699
5.42989
35.4899
13.2305
-27.1213
39.0938
-27.2638
-5.94744
-27.0712
-14.6765
-40.1237
34.1377
-6.13477
60.6736
0.914132
-27.4347
-26.8964
-65.0724
-58.3348
-35.6794
-63.9377
-38.9209
-31.6046
57.2274
10.1135
10.9954
49.8158
24.0051
-46.0391
7.5587
-48.4759
44.8239
1.10798
11.3608
0.0551855
1.17201
0.929278
0.848614
58.6996
0.956205
0.959123
11.6193
1.09423
1.02083
11.4412
-5.5599
1.02558
-7.01052
1.02186
7.63723
26.7367
-46.947
0.454312
2.26279
-5.7774
0.453151
-41.5127
-29.4296
-22.3379
0.823727
38.9161
14.2798
-1.80679
-4.9182
7.73837
4.63662
1.08344
12.2894
11.7692
-27.0022
1.04562
19.4305
-2.55324
3.29235
12.2852
-0.312968
8.54899
12.3831
12.1173
-12.9536
11.8496
9.36896
51.8646
25.4996
13.2742
22.802
11.4883
-0.684069
11.9793
1.30298
-3.04108
1.20332
5.78285
-0.0444
23.8591
11.5044
-16.4328
23.3108
0.212644
10.2923
28.2625
-13.4588
33.8583
-25.0221
-50.9809
-43.791
0.462662
0.0209751
-23.4347
35.3178
-8.37711
-1.68115
9.42864
1.86996
0.373382
0.0572347
10.0568
13.4653
29.679
9.17484
1.87389
12.295
11.9446
0.0755305
-35.7321
35.6911
-0.0660806
8.33889
-11.27
41.9587
13.3383
10.816
-9.4473
-46.9766
-59.0847
12.5346
12.4697
-4.33707
-8.50548
-8.32405
-28.7925
32.3692
1.35291
1.06248
-0.79952
0.498522
19.1025
-17.3262
0.47161
0.41053
30.6072
0.448863
-6.79678
25.9706
-34.0029
-24.7774
0.651944
-10.3296
14.326
0.0186604
0.804018
13.0049
9.7702
-3.66174
21.2002
4.40901
-48.4981
0.896071
0.760996
-35.7093
-4.32057
14.1249
0.741911
8.32824
12.5697
60.5342
0.78601
-9.96616
-40.596
-38.7252
-89.2898
-58.889
0.804166
16.875
46.8136
-0.0240137
8.47219
10.2455
-40.7919
13.7223
6.72483
-38.8183
13.4197
23.06
-16.3629
9.72791
-39.2292
-62.3455
15.193
19.2481
-46.9801
15.4786
11.3874
3.12685
14.7566
12.9996
1.83493
-33.9975
-5.92369
7.02929
14.5787
12.2335
13.3655
2.62642
0.0448215
34.9526
0.0531474
-7.79867
0.756513
36.6476
13.0968
-11.8516
5.14464
57.7585
-23.0352
-28.0613
-44.5915
3.65592
-4.90435
-51.9006
-18.0045
14.8468
-14.7675
-5.88171
0.0339569
-8.3852
12.4305
6.08405
3.77404
0.137359
0.322061
-18.5358
-4.09902
-11.0905
1.04042
0.66932
0.279163
0.361124
-5.2463
13.6727
-41.9885
14.0098
0.298109
0.293495
11.866
11.788
12.8062
1.55318
0.325895
-8.23122
4.45564
0.40161
0.0591593
-25.7779
3.74088
-7.65603
-43.5865
-27.5179
-33.6043
14.7706
-33.4872
18.3558
-28.6539
1.23454
-27.5119
0.996817
3.00881
0.439669
-4.42219
1.17345
3.85812
-1.53344
12.3724
7.22331
13.8218
-4.36794
-6.45596
-58.2096
-27.6223
23.8381
35.1323
-36.9969
-27.9209
-30.599
-59.7315
-27.2492
-7.74132
-27.5944
1.58046
1.55897
-52.9354
-63.7554
-6.11951
0.240774
12.2697
52.4731
-3.14764
-63.3666
1.22428
5.2687
-2.17664
0.253754
-30.1421
1.15481
1.24684
1.0966
2.59389
7.41765
0.861185
1.10217
-51.5697
-53.3697
-39.9554
22.36
-36.4192
13.0026
0.949866
14.9243
6.9087
4.61039
21.6813
12.448
22.7191
1.19669
4.18504
5.73182
0.947605
2.53641
-11.7477
9.36699
13.9403
9.31256
42.7507
1.65867
23.4113
-55.4973
-4.09835
-46.3301
40.0452
10.9654
9.83055
6.7726
-17.3347
-8.75128
11.9812
-36.5415
7.94775
8.00612
-3.86467
17.8107
10.0576
-4.70493
-14.7586
-17.546
13.6009
-1.7144
-55.6647
0.189573
-45.1395
-32.8967
13.4827
-64.954
-5.59596
34.4031
-1.72317
13.4535
14.3708
17.4624
-5.71624
12.7126
-27.3252
-14.668
-26.9994
-4.30534
-7.96403
16.8983
-26.7698
-21.0244
2.04589
1.15169
15.9352
-27.2047
7.14805
-1.45807
-44.9693
0.750878
0.663303
12.1494
-61.1504
-4.90602
-1.88372
1.03499
-1.19871
11.7916
11.3891
0.407563
11.845
-20.2402
11.8515
-66.1843
12.1448
-34.2648
-29.6543
-7.17982
11.3
-7.5995
1.1585
11.4795
-2.32544
0.715696
-7.67848
52.0617
0.154528
34.4149
-7.78618
0.0809609
-2.9703
0.245972
13.0206
11.6323
12.7973
-8.65385
0.168843
12.363
-1.2042
0.0412267
0.744925
-23.4081
2.10494
0.339368
13.122
-31.3433
-32.7009
0.125354
-3.4183
0.740769
-30.0902
0.472377
0.372401
1.00606
0.293051
1.13757
1.05734
0.0333788
0.710432
11.7815
-29.0569
-19.7768
13.1128
45.3932
16.3718
12.8638
-0.0573049
13.555
37.7371
0.0613873
33.6614
0.986229
0.181823
-0.45367
25.4525
0.909661
0.107236
54.7521
13.6353
27.9492
-8.91615
-12.9934
0.19064
-3.26725
-0.028944
1.0417
2.56899
0.654356
50.004
1.08885
0.62338
0.665261
12.359
-39.8915
-20.9108
-3.87948
2.8703
0.924476
0.509772
15.5774
-29.0896
26.0389
17.0493
2.86081
0.517717
42.6649
-13.3963
40.5123
32.3475
12.2122
12.9666
0.365773
-5.71486
1.9768
-12.5931
-11.5132
12.971
-59.161
1.21756
1.32174
1.03532
11.2778
1.12138
48.0433
-3.761
46.0922
1.20524
-62.7402
-9.51946
-13.295
0.984645
-43.4946
1.12225
28.4347
12.5912
32.2353
1.39978
-16.8387
4.36005
-45.4886
29.8337
12.5001
12.1663
-0.358254
-23.4195
12.0309
-67.6587
-26.4937
12.5626
33.9154
12.4246
-21.5877
43.5058
6.70799
-4.74515
43.1632
36.7238
1.72173
3.28214
-61.7863
43.0445
10.0604
39.8918
-4.44863
-58.0652
29.4258
-1.69768
-0.0658099
0.301988
-0.0591883
1.04522
14.3177
-41.5416
0.149577
-33.8788
16.7407
38.5903
-11.0962
36.6046
-0.0732931
-0.0475005
-13.0824
56.9544
-17.6213
47.8276
16.6701
4.59354
24.7459
4.8392
17.2214
0.0466161
-0.046333
0.0178905
-0.0162053
9.23763
-14.0955
13.6985
-31.6882
2.29413
-38.9308
10.3493
-20.8559
44.8101
-2.25505
-1.62596
0.182561
38.5042
0.0609754
23.0831
-1.40978
8.93567
-7.89991
0.679244
31.8989
36.1701
-12.9884
0.104149
0.684777
-47.0083
-60.952
-7.82847
51.7132
27.6024
54.8304
58.142
44.2677
-42.2328
-1.13558
44.0129
-43.6628
-0.0109906
5.70644
0.061325
-26.917
-17.8386
-1.15639
1.95883
-8.11555
-0.0106449
11.8784
-36.4959
41.685
-43.5574
11.8024
-1.40105
10.3711
1.80402
-5.22984
-67.7908
2.31692
-34.3056
-14.0786
12.1787
-66.2652
-55.9673
12.2108
-10.5754
-12.4132
21.5952
12.2535
-12.9909
26.3755
-60.7997
-30.4678
-41.9994
39.684
-39.8583
5.28521
25.8959
4.68861
-55.3182
-46.7349
0.582057
0.156713
49.582
-2.28535
-36.4405
-1.54449
-15.8726
-62.1125
-22.5381
-28.2795
2.032
-28.6597
0.340648
-28.3802
14.4362
-21.1364
49.827
-26.9547
20.9525
-30.6865
-26.6618
-20.1058
-44.5062
33.7839
31.538
-37.3202
11.292
24.3816
17.333
6.47634
13.9324
-2.68585
-31.7551
-77.1082
-34.2684
16.1861
20.1477
-39.6477
23.8711
-29.2354
-14.8082
6.49639
5.99447
-35.0017
13.1965
-29.5922
14.5753
30.8217
32.9364
60.7621
30.0335
-28.3542
-56.6498
43.6967
13.1781
37.3676
-48.2278
-27.9711
51.2601
30.9686
-3.56911
22.5651
22.9541
-43.7382
-31.0251
-57.761
16.0736
11.3273
36.3803
-55.3655
44.4827
29.1492
13.4962
37.6049
-32.6356
2.38716
2.9684
13.4477
-11.8142
-58.3551
-27.2858
45.8206
-2.61464
-25.1307
-51.269
42.5217
47.02
38.9995
-40.569
-95.0033
45.546
-29.3328
-56.854
46.8551
-1.13546
-9.15343
13.0246
1.16091
1.19463
-7.37211
44.4292
-26.4916
1.34395
1.51878
1.18041
1.75004
0.466851
5.22766
-33.1217
-4.1779
1.03968
-54.5708
-73.6422
-27.1167
-18.8173
-0.315811
-17.1465
-30.5944
-41.8958
1.05569
-36.1409
-1.44023
-34.8221
-27.3813
43.6879
19.5713
26.9635
-0.0128945
5.0895
-69.6517
-24.8088
-8.85067
-51.4408
0.0131246
-58.9789
-41.7198
-25.0944
-41.5137
-4.20148
16.6147
12.4385
15.7481
11.6647
43.4312
0.0923229
-0.0318551
0.145237
15.3374
-11.8575
-56.024
-52.9766
16.75
37.7033
24.8798
29.8406
0.491171
-56.7757
-4.95516
13.1267
4.66556
-0.242848
19.5914
8.05366
-13.6704
15.3529
-10.2442
-8.80239
-6.29685
17.9562
36.6875
-30.8644
53.1914
-28.9746
19.7233
-68.4438
-51.5245
-9.47052
15.6878
34.2266
-8.4174
-40.6815
7.71153
15.0985
-18.3994
-28.0601
16.4118
47.308
59.6365
-54.5087
-0.591764
-58.26
15.1523
1.67038
-9.54429
11.5032
7.86375
-16.0087
4.05483
8.72553
-41.2249
-8.22616
-26.823
-15.7304
-29.1143
0.135761
12.7549
-68.146
-16.7182
0.024358
60.8088
13.3086
46.1197
12.0716
-19.6089
17.5886
1.19985
34.0365
55.5296
16.0957
34.1146
-0.0935923
-46.8587
13.2479
13.0738
-2.52369
6.55482
-35.9362
-4.0349
-7.63535
13.4075
4.35817
-22.1021
5.66426
10.2772
-6.43402
-12.463
-26.9434
-0.0572483
14.5192
-0.0113096
15.0377
-0.0270821
-19.6764
13.0968
-22.8258
12.452
-31.521
-0.0511583
34.3366
-8.92083
35.6214
-0.00366759
9.01608
-0.036782
-0.0216495
-4.49494
7.72605
17.626
34.0479
31.0388
-31.8082
-53.45
41.9612
24.4743
21.9832
5.57764
-0.0033628
0.207663
-73.7974
43.4964
18.8918
14.7968
0.082171
19.1098
0.16021
0.0917788
-21.2732
-23.3624
-37.5524
-35.49
7.40854
2.24723
-5.68761
13.0171
43.2082
11.4663
-14.3327
11.427
-6.26333
-76.9131
-15.6442
0.33042
4.18777
-8.74438
-5.93907
-36.8943
13.3454
-35.838
23.5454
-74.4083
-31.3969
-27.7818
0.299455
22.3034
2.75084
13.3242
35.3219
13.3816
-10.4747
11.3935
12.2236
9.01424
13.2791
-39.6296
19.07
4.10354
43.1977
12.6965
-22.5205
13.4739
13.3921
-28.7266
-76.1723
-29.6584
-28.1583
-28.5625
10.01
58.792
-26.9298
-3.97549
11.8631
19.616
-28.6631
0.642723
0.639726
11.3246
-23.1848
-28.5903
-46.9991
31.2371
-1.84501
1.22609
3.1486
-29.1153
28.2411
10.2489
-55.8891
-26.6026
-27.2851
60.0272
14.5506
11.0153
2.28097
14.6309
-57.5356
17.1397
11.5939
19.4001
-0.880299
17.7905
22.8709
44.4669
35.9812
11.0091
-16.5928
22.4777
-9.57166
0.712206
0.623979
31.3495
-31.096
-13.9064
0.600357
55.5017
0.623663
-29.2885
30.9934
20.4538
38.97
-27.2479
-21.6922
-28.0967
31.4571
-11.7543
-31.3072
-7.35639
11.7785
1.95236
14.4962
0.854785
14.6905
0.646256
11.8286
0.808907
-12.1438
0.345256
34.6158
2.59753
4.69773
-26.3617
8.91148
1.31473
10.1819
-6.25381
-36.5951
-48.8769
-20.8468
4.99741
36.7001
1.32584
58.3004
-39.9019
58.68
52.0815
1.17682
4.47093
6.18733
1.05222
1.22039
-89.9474
10.451
-29.6
-11.5961
5.08211
1.13411
-26.58
6.73995
6.68917
9.79958
7.12316
1.10248
-36.199
-3.92763
1.25111
-13.4639
1.67191
1.01481
1.47852
1.20585
-7.52482
7.3427
-56.3853
1.01782
1.24726
-11.2262
-7.60918
23.4318
-18.3617
12.6529
12.54
-0.059357
0.272568
-9.7787
-16.9441
9.10644
0.195791
-2.37526
10.1645
0.11816
56.9381
0.116261
2.42337
0.167282
0.00436838
-29.1932
0.0125513
-27.3033
-6.75678
52.391
4.7392
-0.425022
-3.06604
0.343588
-5.35167
-41.6848
1.95892
0.126632
7.45307
-27.3885
0.108399
8.17589
28.2552
42.3686
-10.8485
9.70068
9.35264
-44.3181
-24.3339
0.0441906
47.8189
-59.8606
-21.9569
-8.00543
49.3394
-9.58559
-10.389
32.0852
-66.4441
-2.78765
0.14491
0.0376355
-0.0224022
0.00737502
-0.00323949
-30.7097
17.7094
-0.0101024
-54.8637
-0.0969333
0.115068
-9.75524
3.24432
15.4797
-47.8772
6.05816
16.0293
-26.6259
1.74386
15.7534
59.0006
15.2366
-45.3442
40.9183
17.7305
32.9526
0.364852
43.2976
0.619279
5.57424
24.1449
0.173147
-44.7226
-23.618
0.730103
0.754568
-139.975
18.0396
-27.9141
1.19748
-1.4848
1.18387
13.6074
20.3516
47.7016