/*--------------------------------*- C++ -*----------------------------------*\
| =========                 |                                                 |
| \\      /  F ield         | OpenFOAM: The Open Source CFD Toolbox           |
|  \\    /   O peration     | Version:  2506                                  |
|   \\  /    A nd           | Website:  www.openfoam.com                      |
|    \\/     M anipulation  |                                                 |
\*---------------------------------------------------------------------------*/
FoamFile
{
    version     2.0;
    format      ascii;
    arch        "LSB;label=32;scalar=64";
    class       volVectorField;
    location    "0.0563953";
    object      U;
}
// * * * * * * * * * * * * * * * * * * * * * * * * * * * * * * * * * * * * * //

dimensions      [0 1 -1 0 0 0 0];

internalField   nonuniform List<vector> 
47425
(
(10.1744 0.156863 -0.00407299)
(10.0394 -0.14675 0.00323292)
(10.036 -0.0187332 -0.00936323)
(11.472 -0.521837 -0.21483)
(12.4413 0.450911 0.730153)
(10.0783 0.0149083 0.00747372)
(12.3367 0.298554 0.706243)
(10.0667 0.0151898 0.00317952)
(10.0049 0.00864192 0.00559874)
(2.6178 5.07502 -1.01362)
(10.0453 0.0131705 0.000306636)
(9.96586 0.0574331 0.000996532)
(12.1297 0.384506 0.256437)
(10.0485 -0.00855641 -0.00323556)
(11.0297 0.311716 -0.133238)
(10.1081 -0.205951 -0.0332356)
(10.059 -0.00731734 -0.00357811)
(8.75069 -0.521505 -1.47276)
(8.67267 1.27853 -4.99695)
(13.4619 -0.470737 -1.00847)
(10.871 -0.715451 -0.587345)
(9.81149 -0.0459507 -0.0248231)
(9.96492 0.0300334 0.00308293)
(9.99911 0.0165776 0.00990911)
(9.90984 -0.0905364 -0.0159166)
(9.99345 0.0364801 -0.0182887)
(9.99187 0.0255518 0.0056269)
(11.4651 -0.334226 -8.77312)
(10.0049 0.0282713 0.00602585)
(10.0378 0.0120753 -0.00192826)
(9.73426 0.723792 0.0640662)
(10.0232 0.104195 -8.51816e-05)
(10.0015 0.00655364 0.00606897)
(10.0018 -0.00322841 0.00189959)
(9.97187 0.0107965 -0.00238332)
(9.93282 -0.00435633 0.00861227)
(9.75331 -0.0289322 -0.062762)
(10.0017 0.016678 0.00772314)
(10.5491 0.378563 0.014615)
(10.0297 0.0393017 -0.00125137)
(9.86799 0.0917888 0.00527094)
(9.42285 0.279574 -1.12538)
(6.26135 -2.26935 -1.45266)
(9.98344 0.0133087 0.00522837)
(-0.168488 -1.02816 1.02741)
(9.99196 0.0703551 0.0196472)
(9.97079 -0.0106225 -0.0232778)
(9.99606 0.0302669 0.00529882)
(10.0656 -0.0266878 -0.00963333)
(10.0578 0.0204091 -0.00672854)
(2.13429 -0.568942 -5.80692)
(9.03399 1.04574 1.49247)
(10.0338 -0.00211759 0.00412612)
(6.90556 -5.62773 2.52122)
(9.9998 0.0176486 -0.01039)
(10.1904 0.0123771 0.0501351)
(10.1893 -0.124363 0.0368351)
(10.056 -0.00611861 0.0260167)
(12.2415 1.30591 1.6034)
(9.99302 0.013256 0.0190972)
(5.3932 -5.57519 1.95309)
(5.06341 -0.327726 2.42598)
(5.13296 -4.1656 0.961973)
(9.13136 -1.15958 -0.0481047)
(10.0074 0.0105257 -0.00681888)
(10.8075 -0.306261 0.0260578)
(9.99011 -0.0148007 -0.006566)
(10.6645 0.0475247 0.477946)
(8.52402 -5.23364 2.67448)
(9.04776 0.539483 0.348656)
(10.8247 -0.54971 0.163564)
(10.0413 0.00325528 0.0132774)
(10.9145 -0.0996374 -0.0199005)
(10.8079 0.242914 -0.624387)
(4.83269 2.58259 0.841658)
(9.99891 -0.00377321 0.000652662)
(5.42897 -3.84634 1.72471)
(9.99157 -0.0124275 0.00710273)
(7.85363 -4.00036 1.97505)
(11.8269 0.131801 1.62668)
(5.11127 1.88997 0.917158)
(10.218 0.308632 0.000513106)
(9.18683 0.101707 -0.271488)
(10.0119 0.0154121 -0.00699174)
(9.82932 -0.00405117 0.100727)
(10.2303 -0.0716385 0.0182944)
(10.7036 -0.171837 -0.022793)
(10.1398 0.0788941 -0.0217163)
(11.0025 0.543404 -1.74424)
(10.9332 -0.392955 2.31191)
(9.79425 0.405082 -0.0303314)
(10.6421 -0.00111311 -0.0192926)
(10.05 0.0251174 0.00574576)
(10.1229 -0.0629832 0.00902828)
(10.0638 -0.054456 0.0136216)
(10.0263 -0.00598429 0.0101837)
(10.0419 -0.0274962 -0.0276354)
(10.253 -0.266101 -0.00601412)
(10.1609 -0.0210699 0.0113892)
(10.0219 0.0164352 0.0301295)
(10.0346 0.0343171 -0.00663194)
(8.766 0.114468 -4.0509)
(10.2743 0.188595 0.030902)
(5.3102 1.97562 -0.660696)
(10.2926 0.126742 -0.0304487)
(10.5523 -0.770567 0.145611)
(10.0921 0.181848 0.0419881)
(10.115 -0.0496691 0.00770329)
(9.29967 -0.073335 -0.0439347)
(9.92935 0.0724461 0.0193893)
(-1.73828 -2.16042 -0.348773)
(10.0427 -0.0941534 0.0266615)
(10.5018 -0.96016 0.241321)
(10.2341 -0.0198466 0.00488491)
(10.8522 -0.466012 0.108238)
(1.80122 -4.25247 -5.80341)
(10.8496 -0.432385 0.0854182)
(4.09337 0.0224845 -4.35201)
(10.3552 0.176597 -0.00620465)
(11.0518 0.352029 0.473527)
(10.3126 -0.0484365 0.00240821)
(10.0002 0.00391381 0.00574732)
(10.0028 0.0507191 -0.000509131)
(11.7469 0.784905 -0.649602)
(10.0949 -0.0548549 0.00496611)
(10.7791 -0.861453 0.212899)
(10.1583 -0.0849707 0.00234795)
(10.0072 0.00380417 -0.00686398)
(9.96674 -0.00799415 0.00482851)
(9.98892 0.0224777 -0.0181302)
(9.23801 -0.312305 0.345039)
(10.3844 0.472591 -0.0358535)
(4.29243 0.0434001 0.567813)
(10.335 -0.440436 0.0399949)
(9.82428 -0.331274 -1.12085)
(12.0008 -0.514586 -0.868004)
(10.9743 0.776139 0.260751)
(10.8027 -0.865832 0.350401)
(10.1478 -0.095848 0.0182317)
(11.0828 0.0793963 -0.0388429)
(9.98291 0.0043036 0.00245567)
(12.3722 0.153819 0.238067)
(10.5143 0.0430537 -0.0527243)
(10.5661 -1.22733 0.343275)
(10.2045 0.224413 0.0177442)
(10.0048 0.00515399 0.00578252)
(12.0085 0.120752 1.0044)
(10.0211 -0.0253814 -0.00240648)
(10.4843 0.0229706 -0.0288025)
(9.97582 -0.0160685 0.00645107)
(10.4863 -1.27678 0.203889)
(2.95022 -0.376243 -6.8581)
(10.0078 0.0149124 -0.0092571)
(5.68748 0.0807024 -11.4492)
(9.02204 -1.163 -0.71881)
(9.97018 0.0505161 0.00142632)
(10.9148 0.421322 -1.65572)
(7.51962 -3.85371 -2.61672)
(10.0516 -0.0406507 0.0253999)
(10.0032 -0.0364528 -0.00792667)
(11.1265 -0.340049 0.0713211)
(9.99812 0.0350109 -0.0135509)
(10.005 0.00479712 0.0450388)
(10.1652 0.288756 0.0343579)
(12.2174 0.153934 -0.351246)
(0.327264 -1.79981 -2.06948)
(10.0059 -0.0265468 0.00426463)
(5.22807 2.38352 0.794786)
(9.94077 -0.011173 0.0182964)
(12.2122 0.691873 -4.22816)
(6.21342 1.83073 0.433026)
(9.97917 0.00391589 0.000589227)
(10.002 0.0236239 -0.00304595)
(9.48499 -0.972471 -0.634811)
(10.2027 -0.0309472 0.0422583)
(9.31179 -3.05095 -1.2899)
(2.77175 0.986678 -7.59024)
(10.0052 0.0248159 0.00977187)
(10.0218 0.0195366 0.0138946)
(10.0536 0.0108099 0.00748958)
(2.60201 0.442076 -10.9222)
(10.0416 -0.0973347 0.0111058)
(10.0101 0.0208446 0.00612638)
(10.0008 0.016133 0.0146135)
(10.0428 -0.021526 0.00116393)
(10.0284 0.0153003 0.0025383)
(10.2133 0.0805435 -0.0203466)
(5.66782 -0.466212 -0.60262)
(9.85852 0.00270539 -0.018128)
(10.0952 0.131082 0.0404184)
(10.0008 -0.00958186 -0.00312227)
(9.97723 0.00179467 0.0101252)
(12.2239 -0.381764 -0.849118)
(9.99704 0.0017057 0.00379661)
(10.001 0.0131899 0.0324283)
(11.0793 -0.0803466 -0.0105395)
(10.0019 0.00100564 0.00750447)
(9.98743 -0.00320285 0.0037359)
(11.2536 -0.0285879 0.00224935)
(10.2585 -0.247045 0.0603531)
(9.97486 -0.00289711 0.0142997)
(10.3247 -0.0283879 0.00637116)
(9.66895 0.151226 0.0957768)
(11.0233 -0.228505 0.000800567)
(10.2473 -1.49727 -0.885118)
(10.5815 -0.0112763 -0.0343988)
(10.0073 -0.00156233 0.0122257)
(11.0094 -0.129633 -0.00961898)
(10.0138 0.102454 -0.00996727)
(10.0023 0.0128406 -0.00342347)
(10.225 -0.144799 0.0203559)
(11.0223 0.0992166 -0.0143092)
(10.0067 0.0291428 -0.00157563)
(10.0087 -0.0170467 0.0321028)
(10.6429 -0.0613315 0.0341311)
(11.2893 -0.0458386 -0.171673)
(10.7417 0.0163001 -0.0613258)
(10.8427 0.290897 1.7088)
(8.7675 -1.27339 -0.634259)
(9.95619 -0.0214375 0.0101091)
(11.7409 -0.304303 1.79969)
(11.0478 0.137631 0.174648)
(9.96568 -1.55636 -0.914025)
(10.8028 0.103132 -0.00905691)
(10.5816 -0.00829827 -0.0276811)
(11.8142 -0.565035 1.73252)
(10.0341 0.0182452 -0.00101304)
(11.2053 -0.0333269 -0.0755016)
(11.3898 0.318955 0.201232)
(11.903 0.265541 -0.277524)
(10.7488 0.0121364 -0.0695354)
(10.0217 -0.0329304 -0.0145894)
(10.3943 -0.103689 -0.00856268)
(10.0011 -0.0040988 -0.000336241)
(9.80102 -0.00424345 0.00540231)
(10.0147 0.226656 -0.0105865)
(11.6413 0.2284 1.69282)
(9.97512 0.0395073 -0.00567647)
(11.9657 0.245066 1.50722)
(9.76552 -0.00288361 -0.0155283)
(9.86255 -0.0156852 0.0159993)
(10.0082 0.0100554 0.00872834)
(10.0426 -0.0183675 0.0153181)
(11.8422 0.583464 0.0278333)
(10.4489 0.390353 0.0542866)
(10.0075 -0.00292838 0.0121062)
(10.271 -0.0562783 0.0106839)
(10.0103 -0.00100113 0.00381114)
(10.023 -0.0158395 0.002021)
(9.97124 -0.0013118 -0.00602209)
(10.0053 0.0334733 -0.0057779)
(11.8023 -0.193239 1.6785)
(9.92895 -0.00737834 0.000872172)
(10.0032 0.00429335 0.00582701)
(9.93228 -0.0164025 0.00646015)
(9.93898 -0.00630177 0.00610704)
(9.85028 0.101621 -0.0115937)
(9.75597 -0.00448296 0.00593265)
(10.4344 -0.607759 0.142957)
(10.01 0.00120541 -0.00685594)
(9.74942 0.000424411 -8.77784e-05)
(9.99768 0.0217455 -0.000758431)
(10.2288 0.0690073 -0.0172375)
(10.1393 0.0209734 0.018135)
(11.6946 0.156923 0.774368)
(10.1063 -0.487591 -0.0883146)
(10.0106 0.0100622 -0.0304414)
(11.7748 0.16589 0.613695)
(10.0055 -0.00410652 -0.0157309)
(10.2549 0.0688462 -0.0256806)
(10.2007 0.0641582 -0.00622644)
(12.0345 0.357705 1.22692)
(11.4993 0.356269 1.44938)
(10.1661 -0.152592 -0.00877865)
(11.8829 0.0626356 1.58889)
(10.0697 0.00773017 0.0183281)
(11.9554 0.217746 1.4179)
(6.72138 3.36516 2.31763)
(11.4617 0.244058 1.53177)
(5.8823 1.26547 -5.12218)
(4.48499 -5.55693 1.79393)
(10.1782 0.141597 -0.0112292)
(3.96605 -5.66645 1.12088)
(9.88968 -0.00477787 0.00923193)
(9.99451 0.00460773 0.00599276)
(11.2579 -0.140363 0.0663192)
(9.90036 -0.00211835 0.0223637)
(9.98555 -0.0220045 -0.0106732)
(9.87041 -0.167412 0.0112236)
(10.8739 -0.598424 -0.00567631)
(1.40963 1.74468 -3.49513)
(9.23411 0.798056 0.0621604)
(10.0029 -0.00158898 -0.00212295)
(9.99308 0.0068994 -0.00225243)
(10.0259 -0.0257936 -0.0162839)
(10.3679 0.340051 0.450358)
(11.8342 0.692296 0.208308)
(10.2181 -0.660047 0.158341)
(10.0593 -0.148051 0.0219287)
(11.8079 -0.11323 0.272142)
(10.043 0.149008 0.0177159)
(10.0675 0.0193658 0.0361241)
(9.9743 -0.00965419 -0.00522116)
(10.0327 -0.0290432 -0.00945199)
(10.8686 4.04093 -0.365741)
(6.35691 1.81142 0.0327707)
(1.493 1.17622 -6.19791)
(9.98446 0.00445222 -0.0188225)
(10.0734 -0.0587299 0.0183924)
(10.0675 -0.622629 0.00483049)
(10.1665 -0.531731 -0.15977)
(1.23464 -0.713723 -5.79834)
(9.98807 -0.0119941 -0.0296272)
(9.96432 -0.0152071 -0.0356578)
(10.8518 2.4997 1.24489)
(10.1614 -0.130016 0.0189716)
(9.87072 0.00693012 0.00462739)
(9.81553 -0.00219787 0.0176248)
(9.92328 -0.00388841 0.0200749)
(12.9206 2.12589 -0.779952)
(11.1791 2.19751 1.13464)
(9.98719 0.170166 0.01571)
(10.1205 0.14443 -0.0266019)
(10.0133 -0.00742898 -0.0239265)
(10.2126 -0.0249099 0.0121742)
(10.0464 0.0074261 -0.00517345)
(10.0785 0.247787 -0.0173862)
(10.0931 0.0609616 0.00481248)
(10.0464 -0.00213744 -0.00819032)
(10.0041 -0.00970751 0.00176183)
(11.3377 -0.00370508 0.272048)
(10.4228 -0.341402 0.190071)
(10.5377 -0.736328 -1.33288)
(9.98727 0.0263066 -0.00805504)
(9.96586 -0.00675798 0.00749008)
(9.99699 0.0202122 0.0367544)
(10.3647 0.151268 0.189128)
(9.94956 0.123836 0.00457073)
(10.0529 -0.00356811 0.0211065)
(10.0109 -0.00754957 -0.013836)
(10.0085 0.252596 -0.00778199)
(10.0216 0.283621 -0.00196579)
(10.0939 0.0588013 0.00178897)
(9.92664 0.282148 -0.0160911)
(10.0283 -0.0189887 0.00637971)
(10.0044 0.00969698 -0.0104175)
(10.0449 0.00169879 0.0206053)
(9.65356 0.414691 -0.173672)
(9.96948 -0.00326697 -0.0122838)
(9.99142 -0.0198406 -0.00720927)
(9.99378 0.237643 -0.0102343)
(10.4133 -0.443687 -0.0401747)
(10.1049 0.244284 0.00870594)
(9.93695 0.228306 -0.00283963)
(9.99408 0.186337 -0.011125)
(11.1979 -1.28834 -0.111725)
(9.94667 0.00856199 0.00524976)
(9.22887 0.226954 0.108229)
(9.95977 0.160632 -0.0087386)
(9.99695 0.0223976 -0.00747643)
(9.62097 0.290066 2.03214)
(11.4 -0.296356 -0.520042)
(10.068 -0.00825982 -0.00798892)
(9.96794 -0.0102306 -0.0160961)
(10.3584 -0.399345 0.0476038)
(10.5523 0.491844 -0.0330899)
(9.82741 -0.00414128 -0.010386)
(10.0115 -0.00615571 -0.00654426)
(10.0495 -0.144834 0.0182602)
(10.2434 0.713694 -0.104906)
(9.86102 -0.0129882 -0.012559)
(-0.525715 -0.809264 -0.0433788)
(10.6315 -0.0791319 0.0339394)
(10.0816 0.950126 -0.0739121)
(9.97932 -0.00164805 0.00748959)
(10.0769 0.837081 -0.0472694)
(10.5339 -0.224381 -1.04406)
(10.009 -0.0100097 0.000400306)
(10.0033 0.0057462 0.00423958)
(9.7888 -0.0178852 -0.0490949)
(10.0112 0.00306348 0.00472173)
(10.0751 0.845314 -0.10552)
(10.1167 -0.0629573 -0.0281825)
(10.0062 0.0233479 0.00518058)
(9.94309 -0.00961338 0.00921875)
(10.0022 0.0182071 0.00578929)
(10.0255 -0.0107058 0.0120768)
(10.209 0.184171 0.0253574)
(10.0008 0.00543554 0.00828652)
(9.98301 0.0117745 0.00850676)
(10.506 0.886354 -0.330025)
(10.3319 1.09099 -0.377096)
(9.96042 0.00871206 0.00969302)
(10.5101 -0.469111 0.0622266)
(9.95924 -0.0299544 0.0224357)
(10.4336 0.829279 -0.29191)
(9.97363 -0.0660999 0.0218764)
(9.94743 0.0167312 0.00739753)
(12.2081 0.19961 -0.588292)
(10.0114 0.0108574 -0.0179931)
(10.4932 -0.520156 1.49623)
(10.034 -0.00967267 -0.0133954)
(10.5352 0.823942 -2.82366)
(9.9831 -0.00457854 -0.0149762)
(10.6208 0.117501 0.0121267)
(9.97357 -0.00710339 -0.0215576)
(10.0187 0.0181532 -0.0186192)
(9.84126 0.0113417 0.00753998)
(10.0393 0.00439768 0.0191412)
(9.98778 0.00498656 -0.013755)
(10.3277 0.971053 -0.290888)
(1.56656 -2.0147 1.4725)
(2.05559 -0.631216 -2.55048)
(10.0586 0.0525089 0.0182632)
(10.3491 1.49254 -0.887369)
(10.695 0.73154 -0.309611)
(10.7909 0.688538 -0.301461)
(9.99419 -0.0330942 0.0171465)
(9.97159 0.0132745 -0.0025181)
(9.98714 0.0194373 0.012922)
(9.93335 -0.00923885 -0.0111499)
(9.95344 -0.0136433 0.00618099)
(10.1349 -0.209392 -0.0120497)
(10.7944 0.622452 -0.209739)
(9.97683 -0.0201106 0.00941655)
(10.038 -0.00210553 0.0115711)
(11.3591 -1.25102 0.338294)
(11.47 0.520336 -0.19112)
(11.0953 0.558441 -0.152108)
(8.12655 -1.31064 -5.07883)
(-0.0445665 4.58843 0.727833)
(10.5409 -0.292643 0.0618264)
(7.47265 -0.963205 -5.61233)
(-0.0975423 4.34336 1.06183)
(9.86038 -0.177797 0.010014)
(-0.163514 4.52002 0.917521)
(8.97729 -1.31 1.32817)
(10.0242 -0.0246231 0.00506751)
(11.0263 0.642414 -0.316881)
(10.9765 0.695652 -0.343613)
(11.2554 0.610186 -0.307525)
(-1.25828 3.59288 1.25753)
(10.1161 0.116545 0.00555629)
(10.0083 0.0166964 -0.00856991)
(10.0058 -0.000951516 -0.0206129)
(11.3288 0.651252 -0.406203)
(11.2052 0.68891 -0.469785)
(10.0598 0.00663099 0.022936)
(10.0796 0.104578 0.0117383)
(9.84093 3.57616 2.78715)
(-1.15121 3.56178 1.25043)
(12.9276 -0.426739 -3.03074)
(10.0068 -0.0138748 0.00797196)
(8.78876 -0.72321 -3.29164)
(10.0656 0.136643 1.17508)
(9.9886 -0.0345493 -0.00731912)
(10.9403 0.432018 -0.0485231)
(11.9475 0.303762 0.272954)
(10.9284 0.344153 -0.0389584)
(9.99542 -0.0167639 0.00469001)
(9.99861 -0.00476702 0.00699433)
(9.9829 -0.00667031 0.000677934)
(10.4613 0.365658 0.0128932)
(9.99923 0.00199998 -0.000341545)
(9.99623 -0.0284417 0.0245576)
(10.1542 0.086072 -0.0332466)
(9.96825 -0.00351712 0.00315803)
(11.0832 0.189762 -0.0490928)
(10.0268 0.0057092 -0.00845644)
(9.99033 0.0465757 0.0228454)
(9.99718 -0.0180551 0.00134423)
(10.0057 -0.00712742 0.00872973)
(9.95188 0.00575064 0.00876028)
(10.392 0.320427 0.000482614)
(10.141 0.0568841 0.0066466)
(10.064 0.00120765 0.0394305)
(11.0091 0.206789 -0.0506721)
(9.14539 4.2061 2.30026)
(9.96768 0.00596568 0.00305286)
(11.9708 1.56556 -1.37632)
(9.99752 -0.00828324 -0.00169187)
(10.8592 -0.167366 -0.0462627)
(6.59465 -0.958471 1.94543)
(9.75727 1.41523 -0.59783)
(9.98663 0.0496584 -0.0184471)
(9.83266 1.49679 -0.668819)
(10.0078 0.0260475 0.00110377)
(10.0496 0.00351968 0.0118264)
(10.0639 1.27907 -0.89011)
(9.98262 0.0015538 0.0120532)
(10.6906 -0.183054 0.0557615)
(9.93825 1.17187 -0.622844)
(10.2571 -0.0593293 0.0418364)
(10.5826 0.0385811 -0.266937)
(8.21013 0.277385 -4.16235)
(10.0526 -0.0313451 -0.00253167)
(9.63725 1.89087 -0.613689)
(10.0525 0.00583987 0.0273156)
(9.04205 2.02885 -1.02338)
(10.0789 -0.0887689 0.02129)
(10.0129 -0.0251529 0.000354443)
(9.99928 0.0194789 0.00571235)
(9.9845 0.0157898 0.006698)
(10.8436 1.00071 0.8648)
(9.96353 0.00843054 0.00462374)
(9.98907 0.020902 0.00366759)
(10.039 -0.030242 0.00246522)
(9.97656 0.0445194 0.00948417)
(11.1466 0.591026 -0.00141938)
(10.0588 0.0178476 -0.00201087)
(10.0417 0.0235013 -0.000394281)
(8.63797 0.259065 -0.598615)
(9.96043 -0.0104929 0.034055)
(9.8753 0.0899301 0.00640343)
(10.069 -0.130785 0.0324291)
(10.06 0.000938232 -0.00981932)
(10.0987 0.0203208 0.0222043)
(9.97024 0.0249317 0.00893586)
(10.1182 0.036522 0.00423654)
(10.3412 1.32264 -1.03289)
(10.004 0.00972866 0.0069091)
(9.9889 0.00457802 0.00276359)
(3.00035 -0.483009 -5.80603)
(10.0359 -0.00879062 0.0148652)
(10.0351 -0.00204538 0.00596169)
(10.0236 0.127821 -0.0335797)
(10.0043 0.0111289 0.00681677)
(12.6486 1.2996 -0.559921)
(12.7584 0.967212 -0.291094)
(9.95816 -0.0165895 -0.00641104)
(9.96139 -0.0953703 0.0154021)
(9.9038 -0.00529208 0.0189392)
(11.3248 -0.0399933 1.25655)
(10.0479 0.062362 -0.0285043)
(12.7339 1.31147 -0.479396)
(9.99926 0.00642336 -0.00343889)
(-1.11378 -1.0008 2.36298)
(8.17067 -0.535652 -0.693095)
(9.20699 -0.894445 1.8779)
(10.0326 -0.00307504 0.0114957)
(12.6772 1.23216 -0.412806)
(10.0665 0.036962 -0.0231181)
(10.0938 0.116123 0.0143899)
(10.0174 0.0110338 -0.062691)
(9.78761 0.0783714 0.153306)
(10.0239 -0.00486687 0.0018838)
(10.0291 0.0382665 -0.0139224)
(6.82147 -1.14031 -0.301671)
(10.0041 0.00414948 -0.0215749)
(9.95966 0.001732 0.00516293)
(9.9961 -0.00250714 0.0175593)
(12.5434 1.37346 -0.500374)
(10.0531 0.0154092 0.0212595)
(10.0302 -0.00522719 0.00166478)
(12.3725 1.35398 -0.558015)
(12.281 0.770033 -0.153826)
(10.0353 -0.00982952 0.0172208)
(10.0157 -0.00750753 -0.000915319)
(-0.249311 2.02185 0.74422)
(10.0464 7.86772e-05 -0.00125771)
(10.6214 -0.345368 0.172465)
(9.98518 0.00270866 0.00724604)
(10.0655 0.0163179 0.0379858)
(10.0412 -0.0107689 0.0071333)
(11.9306 0.899443 -0.300111)
(11.1729 0.0673197 1.42236)
(9.27437 0.699774 0.828814)
(9.93228 0.0744949 0.122538)
(10.0227 -0.047071 0.0204988)
(10.0104 0.00748715 -0.0190837)
(12.6355 -0.46095 0.30654)
(9.3024 0.184066 -0.410989)
(9.81675 0.0624775 -0.0239499)
(-0.132085 1.83057 0.493884)
(10.0194 -0.0294711 -0.0182873)
(10.0232 0.013251 -0.00279179)
(-0.712883 1.72448 0.762039)
(12.088 1.84965 -1.16145)
(9.86995 0.0907431 0.0199489)
(0.035416 1.93305 0.478547)
(0.0132497 1.96628 0.716898)
(10.0022 0.0273903 -0.00690356)
(9.99848 0.0117306 0.00157288)
(10.0394 0.00236463 -0.0106632)
(9.63297 -0.379066 0.0305195)
(9.99779 0.00847417 -0.00376197)
(9.97576 -0.00343969 -0.00511688)
(11.1294 0.732583 0.0366301)
(10.0085 0.255502 0.0373101)
(9.94597 0.0357177 -0.00173453)
(10.0563 0.00647963 0.0258758)
(12.6116 0.974793 -0.170062)
(11.8469 1.20254 -0.303576)
(9.96947 0.0082565 -0.000479947)
(10.4064 0.375862 -0.0376639)
(-4.36799 -2.67788 -0.32053)
(-0.961135 -2.51622 0.440418)
(10.7605 0.38734 -0.144866)
(9.95645 -0.00206151 0.010283)
(10.3211 -0.121921 0.125053)
(10.9425 -0.123503 -0.735891)
(9.88012 -0.00104836 -0.00664545)
(9.87911 0.00152981 -0.00468519)
(10.0462 -0.0129957 0.0234097)
(10.3253 0.148979 -0.00551594)
(9.9797 -0.0130114 0.00688042)
(10.7594 0.200739 0.276183)
(10.0037 2.43092e-06 0.004891)
(12.9735 0.847749 -0.604745)
(10.3244 1.5093 -1.1253)
(10.6867 0.371755 -0.0783882)
(13.0045 1.03513 -0.931429)
(10.0896 0.0558945 -0.0111257)
(9.99844 0.00251438 0.00277327)
(10.4898 0.72393 0.148493)
(10.1683 -0.106534 0.0264605)
(10.0178 0.0057577 0.000871188)
(10.0054 0.00662962 -0.00301293)
(11.0328 0.720459 -0.510354)
(7.97427 -0.767513 -1.46091)
(10.0197 -0.00663925 -0.00252228)
(10.8538 0.16713 0.0372185)
(9.98211 0.14095 0.031619)
(11.8034 -5.39651 -2.14865)
(10.5219 -0.85566 0.913752)
(11.5598 -0.0909822 0.915228)
(6.42297 0.808804 0.31549)
(6.20571 0.77295 0.157935)
(10.063 0.00177982 0.0126584)
(9.89424 0.170365 -0.0148985)
(4.87229 0.653128 -0.179115)
(10.0172 0.0125859 -0.00175663)
(9.99882 -1.74641 -3.4833)
(7.21352 0.551601 2.1083)
(9.98463 0.00103847 -0.00232564)
(9.97597 1.07019 0.595024)
(10.012 -0.0236357 0.00121255)
(10.0255 0.000474353 0.0187488)
(10.0191 -0.000307785 4.35487e-05)
(13.1853 0.437323 -0.0899273)
(9.97667 0.0104901 -0.00391476)
(9.98476 0.00443088 -0.00117378)
(10.0378 -0.0239949 0.00511883)
(9.86784 -0.000512408 -0.035575)
(10.03 -0.017178 0.0166492)
(10.0327 -0.00934054 -0.00361373)
(10.0431 0.00775833 0.0293931)
(9.94973 -0.0126147 -0.00486657)
(11.1315 1.03773 0.670716)
(9.79074 -0.0318041 -2.94545)
(12.8805 3.47306 1.54067)
(10.7949 0.459447 0.0255254)
(9.73322 1.43149 1.36704)
(10.0327 0.0271645 0.0012346)
(9.36793 -0.978977 0.0833514)
(9.99351 0.0163645 0.00652648)
(10.0004 0.000875951 -0.00959234)
(10.0029 0.00306779 -0.00753686)
(9.99971 0.00124429 -0.0071476)
(9.98499 0.0165892 -0.00263283)
(9.15789 0.364496 -0.8844)
(11.3134 0.648596 0.228613)
(9.98603 0.013104 -0.00483514)
(10.221 -0.536066 0.115774)
(11.4396 1.51927 1.95954)
(10.0081 0.0276194 0.000822737)
(3.63362 0.190952 1.69434)
(13.1627 -0.992091 -2.91523)
(9.96097 0.0122498 -0.00805238)
(9.36721 -0.583093 0.0346454)
(10.4283 0.0307913 0.0129468)
(10.0228 -0.00143478 -0.0239012)
(4.12216 1.12096 1.29727)
(10.0067 -0.00480185 -0.00307472)
(7.54792 -3.05683 0.633703)
(10.0129 -0.0026041 -0.00591615)
(11.5398 -0.152562 1.12552)
(11.9981 0.445641 0.00384442)
(9.97425 -0.0283288 -0.00141768)
(9.95725 0.000553758 -0.00866243)
(10.2046 0.564066 0.058163)
(8.60335 -0.60176 -2.29552)
(9.94144 -0.0168429 0.0125894)
(10.031 0.0133255 0.0205451)
(10.239 0.00283923 0.00867292)
(11.9523 -0.08293 0.762807)
(10.0013 0.00403662 0.0021593)
(12.2342 0.415599 0.296208)
(10.3849 -0.0200464 0.0155636)
(0.910807 -0.750802 0.22678)
(11.9424 0.376408 0.10773)
(10.3174 -0.00952146 0.011555)
(12.0567 0.394755 0.223212)
(10.0007 -0.00348942 -0.00336734)
(10.1148 -0.0954957 -0.0131731)
(10.5323 0.383874 0.0239952)
(10.3497 -0.0424539 0.00126653)
(12.2522 0.483109 0.123895)
(9.99851 -0.0193739 0.000998487)
(10.0577 -0.217037 0.00658525)
(12.0922 0.446483 0.063573)
(9.98692 -0.0151279 -0.000886389)
(10.3915 -0.0518517 0.00746399)
(9.99992 0.00635692 -0.00576752)
(10.0202 -0.000197785 0.000186098)
(6.89462 0.356327 -5.18383)
(6.71597 -0.141733 -5.77499)
(9.75009 0.0823866 0.384925)
(8.82333 0.332039 -4.21956)
(10.0049 0.00464798 -0.00734387)
(9.9821 0.00374016 -0.00152322)
(10.7926 0.650645 -0.239458)
(10.3744 -0.153978 0.0301837)
(8.40867 0.147529 0.280168)
(10.0238 -0.0176063 -0.011085)
(10.0518 0.0240477 -0.0111035)
(9.96537 -0.0198785 -0.000447487)
(9.99714 0.034096 -0.0126299)
(5.28744 0.233633 -6.43383)
(3.02339 -0.521054 1.32587)
(9.95661 -0.0163402 0.000853923)
(10.0178 0.0471267 -0.00177512)
(9.97563 -0.0585509 -0.0181916)
(9.93925 0.00191274 4.58115e-05)
(10.1323 -0.130301 0.036597)
(9.94723 -0.0222944 0.000444207)
(11.1859 -0.0916103 0.0138331)
(11.7438 -1.38365 1.70112)
(10.0954 0.00138272 0.0124064)
(10.0497 0.0265046 -0.0244372)
(9.98234 -0.030052 -0.0121227)
(10.0106 0.0254965 0.00282138)
(9.7396 0.21654 0.0357656)
(10.0043 -0.027837 -0.0183694)
(10.6105 -0.194597 0.00697024)
(9.9619 -0.0167311 -0.0230824)
(10.0155 0.00248795 -0.0182476)
(10.0556 0.0246358 -0.00231444)
(9.26302 -0.870895 -1.26487)
(5.17094 0.713865 -4.85067)
(10.0406 -0.0661678 -0.00788889)
(-0.15578 -1.92466 0.535696)
(10.1156 -2.63665 1.13579)
(13.0925 -1.28343 -1.08088)
(-0.116645 -2.06081 0.424067)
(10.2729 0.0484747 0.0237821)
(5.42991 -0.249001 1.11512)
(10.4894 -0.480993 -2.59454)
(10.9776 -1.50643 0.413739)
(5.70326 0.306715 -3.81442)
(-0.368971 1.84122 1.26628)
(1.51379 0.620728 -3.62333)
(11.3031 -0.0385726 0.548658)
(10.7167 -0.0259872 -0.0437682)
(10.9506 -0.0135255 1.23265)
(9.9204 0.00643597 0.00190607)
(3.74934 -0.212208 -0.321655)
(10.787 0.00914865 -0.333166)
(10.6456 -0.0249742 0.0210196)
(9.99684 -0.0278939 0.0199783)
(10.012 0.0196892 -0.0360117)
(11.3378 -0.063132 1.15722)
(9.93793 0.112317 0.048507)
(10.1604 -0.039002 0.0155922)
(9.95974 0.0527555 -0.00963693)
(-1.13359 1.12122 0.345552)
(8.11487 0.251536 -2.51802)
(10.017 -0.00575727 0.00485254)
(9.98457 -0.00478451 0.00428953)
(5.05228 0.288205 -2.43514)
(5.95199 0.146175 -3.09503)
(10.9413 -0.665132 -1.61883)
(-3.00358 -3.25471 -1.08219)
(4.02182 0.423819 1.82269)
(4.07846 -0.00690348 -3.92784)
(3.80873 -0.0741802 -4.79325)
(10.0058 -0.00406328 0.00948958)
(9.77832 0.00283907 0.00722932)
(9.46156 -0.0335575 0.0769393)
(10.0079 -0.0262981 0.00572766)
(10.418 0.0414465 -0.0364327)
(-0.418715 2.0138 0.692099)
(10.9171 -0.0862509 -0.25618)
(10.4728 0.036622 -0.0398542)
(10.3517 0.0408581 -0.0274711)
(10.0572 0.0271565 -0.000226935)
(-0.341442 1.95306 1.48645)
(-0.483167 2.17824 1.4546)
(10.0438 0.011121 -0.0233056)
(10.4385 0.00388516 -0.0502821)
(9.93026 0.0377032 0.00899453)
(10.0084 0.0093045 -0.0141432)
(10.3843 0.0193071 -0.0300383)
(10.0263 0.0161397 -0.0292625)
(9.69978 -0.0157146 -0.0404537)
(10.0326 0.00897997 -0.0320434)
(10.0081 0.00424122 -0.0155737)
(6.96652 -0.699334 -3.1628)
(10.0365 0.00783542 0.00425129)
(10.003 0.0201021 0.0304397)
(10.0257 -0.0199467 -0.0151556)
(9.87627 0.0202837 -0.00280426)
(9.89521 0.0220138 -0.0039829)
(4.26284 -0.509769 -2.44901)
(12.5774 -1.32544 -0.496729)
(10.014 -0.00373284 0.00277927)
(10.8009 0.404634 -0.21094)
(10.0292 0.0325125 -0.0109318)
(9.7301 -0.349924 0.118041)
(9.71041 -0.430361 0.172697)
(12.1017 -0.0627433 -0.0536057)
(9.89788 0.00219511 -0.00608016)
(-0.251512 -1.06615 1.85213)
(12.197 -0.138529 -0.0647665)
(10.4623 0.0850298 0.0124017)
(10.7922 0.362925 -0.0377186)
(8.1278 0.291542 -3.45656)
(11.7089 2.86001 1.21217)
(9.98439 -0.0280724 -0.00441295)
(9.9883 -0.0275333 -0.000923724)
(11.7405 1.65244 2.08764)
(10.0248 -0.012087 -0.0202129)
(10.0012 0.0316739 0.00304408)
(11.0082 0.651236 0.356749)
(9.97872 -0.0291674 -0.00409114)
(9.98354 -0.00295817 0.0015662)
(-2.19651 0.557359 2.33254)
(12.5226 0.365242 0.00123336)
(11.1535 3.33647 -0.2372)
(10.0019 0.000729285 0.00491168)
(7.68037 0.534341 -2.68895)
(9.97744 0.00820346 -0.00206523)
(11.9599 -0.26415 -0.290183)
(9.55643 -0.41969 0.279734)
(12.149 -0.0790944 -0.0264273)
(9.89918 0.00647724 0.00158707)
(9.3676 -0.455622 0.243477)
(-1.28785 0.156327 2.45232)
(11.7558 1.76091 2.55395)
(12.3874 -0.381239 -0.844657)
(-0.883995 1.69471 1.51691)
(12.1031 0.315476 0.234176)
(10.4489 0.181222 0.0571438)
(9.93449 -0.0150534 0.0113828)
(12.1465 0.138895 -0.224602)
(9.97019 0.0128757 0.00168984)
(12.2865 -0.0895449 0.146831)
(-0.158168 -1.22025 1.1317)
(9.97997 0.0140865 0.000882563)
(12.7773 0.0464608 -1.20344)
(9.94512 0.00356179 0.0226943)
(9.92875 0.00283435 0.0132433)
(11.3539 -1.65323 0.437986)
(9.94701 -0.00178168 0.00960175)
(10.1604 0.115095 -0.0185276)
(8.20772 -5.82138 0.123252)
(9.56102 0.419248 0.0618034)
(9.99421 -0.247319 -0.00991442)
(12.588 -0.750476 0.126211)
(10.5135 1.44372 1.36824)
(10.0283 -0.00384958 0.0325497)
(11.8157 -2.56684 -0.85337)
(5.25692 -0.856989 -0.160033)
(10.6933 0.0376683 0.0381888)
(9.62859 -0.731506 -0.881468)
(9.9994 0.0970017 0.0152828)
(10.4619 0.188239 0.0158644)
(9.97335 -0.0101749 0.0109551)
(9.98142 -0.0125036 0.00326206)
(1.11207 1.6996 -0.633648)
(1.0497 -4.28478 1.82836)
(12.3433 -0.559001 0.112249)
(10.1308 -1.63748 -0.398323)
(12.2704 -1.34205 -0.30954)
(1.32875 4.53116 1.14887)
(-1.4941 0.592819 1.23316)
(9.55213 -3.6108 4.32523)
(9.97569 -0.00924314 -0.00272731)
(10.0031 0.0120613 -0.00922642)
(9.98901 0.01393 -0.00380827)
(9.84132 -0.0555061 -0.0416977)
(4.71958 0.850331 -1.29636)
(9.65968 -0.554637 0.167042)
(9.02001 -0.653244 1.08097)
(9.98792 0.0205181 -0.00878254)
(-0.624613 -1.59574 0.316422)
(12.2304 -0.076052 0.00805456)
(10.0602 0.209238 -0.240107)
(10.0895 0.0398582 0.0137393)
(10.0128 -0.0355334 0.0185684)
(10.0883 0.0355162 0.0106688)
(6.28355 -1.84627 -3.21564)
(10.0048 -0.00308248 -0.00662308)
(5.40585 5.11836 -0.0337595)
(10.0258 0.00454166 -0.000588416)
(10.226 -0.587934 -3.08795)
(9.98824 -0.00374176 -0.00279804)
(9.99928 -0.00624865 -0.00607194)
(10.0105 -0.00959934 -0.00543044)
(10.0172 -0.00929368 -0.00912314)
(9.9881 -0.0119026 0.00318305)
(12.8045 1.17552 0.288063)
(12.0009 0.261315 0.779452)
(8.99948 1.48098 2.4615)
(7.08418 4.0814 2.46796)
(9.39816 1.19996 0.503599)
(10.4066 0.527804 -0.0589885)
(11.2295 1.1121 0.0369489)
(6.61495 -0.393327 -2.93625)
(10.5608 -0.133495 0.0447821)
(12.3911 -0.203394 0.00406346)
(10.5133 -0.753246 0.132501)
(12.0041 0.0294685 -0.0447864)
(8.12872 -0.141466 4.53832)
(5.45477 -1.54591 1.83235)
(10.5768 -0.241773 0.204478)
(9.9994 -0.00939596 0.00497793)
(9.54452 0.904826 -0.301065)
(10.0048 -0.00548131 0.00982635)
(10.1377 -0.00923281 -0.000433748)
(13.3534 -2.38771 2.82331)
(12.2967 -0.506248 0.797509)
(-1.75711 3.07444 0.272728)
(10.1536 -0.906968 0.253355)
(11.7903 -1.03393 -0.40961)
(10.4692 -1.08743 -1.14943)
(10.3901 -0.266247 1.71442)
(10.1831 -0.0120136 0.0102892)
(-4.0008 -3.11892 1.40656)
(10.018 -0.000224753 0.00578111)
(10.0747 -0.00717359 0.000811779)
(10.4587 -0.0914674 0.90299)
(9.70424 -0.0886378 4.84133)
(10.2026 -0.0232857 0.0153648)
(10.2631 0.542855 -0.409082)
(9.99137 -0.00629567 0.000383779)
(10.5973 -1.31623 0.619147)
(10.6197 0.094538 1.18156)
(9.96294 -0.0159354 -0.000632556)
(11.05 -0.399263 -3.05427)
(10.1846 1.07561 -2.24267)
(12.3667 0.411457 1.50183)
(10.7456 0.508374 -0.133642)
(9.53575 0.125434 0.292461)
(3.14474 0.973854 -3.79706)
(0.466604 3.27182 3.18432)
(5.30781 3.21532 0.768356)
(13.1674 -0.825318 -2.77327)
(5.23843 -0.60773 -0.141693)
(9.80696 -0.00204345 -0.0492894)
(9.88944 -0.0133398 -0.00239625)
(8.37679 1.73974 2.7838)
(9.96145 -0.0100417 -0.00214458)
(4.5058 -0.780489 -0.233956)
(9.84574 -0.00363163 -0.0330278)
(9.83221 -0.0107864 -0.0339125)
(-0.196193 -0.979288 0.752667)
(9.60704 -1.28146 0.857835)
(10.8946 -0.502841 0.136347)
(9.98057 0.0061742 0.00152025)
(9.99672 0.0189581 0.003543)
(8.29225 0.300739 -2.85615)
(10.026 0.0160639 0.0216596)
(9.95078 0.00142387 -0.00822251)
(10.0136 0.955385 0.976301)
(12.3609 -0.717694 -2.87112)
(10.2446 0.345225 0.0455214)
(9.89332 0.0658888 0.0047908)