/*--------------------------------*- C++ -*----------------------------------*\
| =========                 |                                                 |
| \\      /  F ield         | OpenFOAM: The Open Source CFD Toolbox           |
|  \\    /   O peration     | Version:  2506                                  |
|   \\  /    A nd           | Website:  www.openfoam.com                      |
|    \\/     M anipulation  |                                                 |
\*---------------------------------------------------------------------------*/
FoamFile
{
    version     2.0;
    format      ascii;
    arch        "LSB;label=32;scalar=64";
    class       volScalarField;
    location    "0.0180731";
    object      k;
}
// * * * * * * * * * * * * * * * * * * * * * * * * * * * * * * * * * * * * * //

dimensions      [0 2 -2 0 0 0 0];

internalField   nonuniform List<scalar> 
47425
(
0.363132
0.384002
0.363246
0.353208
0.460098
0.364397
0.432615
0.36542
0.369014
0.872404
0.3699
0.383912
0.400281
0.362962
0.365332
0.371927
0.364042
0.400267
0.898361
0.518005
0.361085
0.363183
0.373995
0.362089
0.373997
0.366263
0.361047
0.789854
0.360347
0.376944
0.375153
0.372367
0.370811
0.368538
0.363605
0.372175
0.36797
0.375474
0.369694
0.357891
0.385631
0.365872
0.39445
0.381559
1.39508
0.390651
0.371985
0.372445
0.364257
0.366928
0.706724
0.420297
0.366083
0.766518
0.392723
0.376683
0.366716
0.375522
0.454452
0.371611
0.820854
0.667612
0.761809
0.384949
0.367506
0.369459
0.372552
0.371661
0.773335
0.394752
0.363091
0.372611
0.368173
0.368859
0.719891
0.37111
0.76285
0.367164
0.818449
0.489415
0.723491
0.367268
0.37033
0.377343
0.364224
0.365676
0.367163
0.35971
0.430091
0.550625
0.372741
0.371351
0.369551
0.384589
0.393029
0.380601
0.362166
0.361943
0.363163
0.385026
0.365646
0.470581
0.364891
0.496677
0.364752
0.370227
0.364632
0.357197
0.359931
0.377177
0.612174
0.364107
0.373278
0.372003
0.367049
0.763253
0.366618
0.632095
0.388558
0.373545
0.357089
0.368518
0.375956
0.398545
0.378532
0.381011
0.370876
0.367717
0.380934
0.370652
0.372534
0.376503
0.538737
0.383411
0.370906
0.400162
0.372342
0.381165
0.37116
0.358332
0.378066
0.389206
0.361863
0.393552
0.371611
0.368475
0.414722
0.366171
0.378907
0.377764
0.388729
0.743856
0.369058
0.749412
0.386818
0.370223
0.4002
0.838855
0.392878
0.378889
0.371004
0.370055
0.365803
0.368897
0.641696
0.766361
0.374724
0.723836
0.371612
0.796869
0.720901
0.387316
0.368237
0.37456
0.390958
0.429465
0.768267
0.362862
0.368955
0.362299
0.754657
0.36199
0.365097
0.3689
0.362373
0.375556
0.369894
0.465854
0.377004
0.366349
0.370221
0.37143
0.429467
0.37104
0.367689
0.371686
0.369071
0.363949
0.374469
0.357049
0.374654
0.376489
0.362339
0.369332
0.395407
0.380013
0.36614
0.370591
0.379335
0.372971
0.367914
0.365702
0.377585
0.359899
0.366558
0.368565
0.372708
0.470174
0.393237
0.390001
0.521853
0.360074
0.38013
0.359775
0.403001
0.507815
0.367732
0.374231
0.383372
0.411034
0.372044
0.372563
0.387349
0.370298
0.378799
0.363781
0.510739
0.383093
0.494652
0.375255
0.35921
0.371631
0.368465
0.364081
0.366619
0.375015
0.359373
0.384485
0.362967
0.373825
0.36075
0.483652
0.371558
0.369183
0.371752
0.36909
0.36816
0.388713
0.356496
0.36853
0.410699
0.38533
0.377208
0.380779
0.394132
0.387116
0.365489
0.395051
0.36688
0.374503
0.375039
0.483516
0.500375
0.372191
0.472961
0.385958
0.475638
0.506292
0.486564
0.56459
0.848718
0.361397
0.781051
0.389334
0.368691
0.358438
0.383465
0.359289
0.388643
0.372098
0.670701
0.38906
0.371479
0.360077
0.363408
0.375619
0.370597
0.367567
0.360233
0.39865
0.390321
0.366319
0.375661
0.36656
0.787554
0.762771
0.732981
0.365126
0.365584
0.371271
0.36539
0.692267
0.367764
0.368553
0.547945
0.382167
0.373918
0.396171
0.364298
0.601916
0.531694
0.36923
0.363397
0.363198
0.384346
0.365743
0.369106
0.362959
0.36797
0.369307
0.365772
0.676425
0.384054
0.363701
0.395385
0.373741
0.678782
0.369002
0.36246
0.367318
0.37876
0.377646
0.362011
0.367439
0.369498
0.369487
0.373115
0.369932
0.366732
0.384732
0.373717
0.374402
0.367751
0.382136
0.369038
0.398238
0.375961
0.3715
0.385123
0.372951
0.429456
0.377879
0.386157
0.372598
0.362622
0.368667
0.389364
0.373173
0.363963
0.36885
0.3915
0.608584
0.355456
0.369409
0.386301
0.36882
0.370115
0.392196
0.372521
0.368002
0.372227
0.368481
0.360278
0.364467
0.379589
0.36865
0.374654
0.363253
0.373677
0.372656
0.373628
0.375513
0.374914
0.366804
0.375972
0.372451
0.363989
0.367213
0.42158
0.366966
0.604564
0.365195
0.723347
0.376269
0.393737
0.389606
0.365226
0.372442
0.360376
0.375389
0.373128
0.830881
0.709251
0.378036
0.390607
0.362998
0.361981
0.364152
0.368459
0.366429
0.374095
0.37092
0.363096
0.357912
0.362809
0.363862
0.42574
0.37002
0.370042
0.539371
0.361596
0.370707
0.652463
0.36418
0.383676
0.406943
0.694189
0.36759
0.365865
0.367674
0.369658
0.641617
0.386116
0.364589
0.364476
0.374107
0.373004
0.366999
0.36246
0.654689
0.659634
0.521587
0.366381
0.44949
0.382103
0.366069
0.374305
0.393921
0.37631
0.36954
0.367134
0.379773
0.36828
0.370741
0.363073
0.375483
0.379657
0.373788
0.364747
0.365623
0.367899
0.365358
0.381248
0.385649
0.365827
0.383312
0.37485
0.6873
0.376988
0.438644
0.379185
0.391599
0.445871
0.385184
0.36988
0.386889
0.383966
0.365057
0.38865
0.395964
0.360702
0.382487
0.370019
0.384792
0.479993
0.360733
0.398007
0.367231
0.410945
0.36156
0.364393
0.364798
0.363188
0.388814
0.372464
0.362945
0.360065
0.364847
0.380231
0.366904
0.374285
0.381521
0.369618
0.36524
0.366186
0.368853
0.36806
0.38259
0.370361
0.391924
0.367757
0.382146
0.705248
0.372895
0.371895
0.378083
0.368044
0.472025
0.475998
0.384754
0.36917
0.389077
0.404806
0.373689
0.488187
0.371138
0.646907
0.406527
0.403119
0.376714
0.479531
0.362406
0.365693
0.368676
0.366735
0.362805
0.366631
0.882409
0.361534
0.401846
0.365265
0.459498
0.378432
0.371426
0.444882
0.434215
0.372627
0.365846
0.302696
0.362272
0.366019
0.366379
0.363676
0.363383
0.414552
0.408121
0.384807
0.363818
0.367293
0.364509
0.527914
0.366559
0.365137
0.303143
0.369125
0.366825
0.376452
0.710186
0.370087
0.193549
0.226102
0.361336
0.383789
0.362755
0.366022
0.396548
0.383934
0.64674
0.375371
0.389803
0.362332
0.462533
0.411525
0.389529
0.374753
0.542836
0.634019
0.36485
0.365661
0.361613
0.375601
0.379919
0.394792
0.369881
0.379419
0.384915
0.365517
0.385038
0.487041
0.395544
0.369123
0.496979
0.382135
0.366321
0.383572
0.376489
0.36333
0.371971
0.376912
0.411679
0.3767
0.367043
0.367539
0.973548
0.385655
0.394286
0.739324
0.720402
0.361082
0.388132
0.674357
0.384155
0.462195
0.425807
0.38137
0.748249
0.365257
0.367448
0.375971
0.490017
0.391126
0.382564
0.368586
0.397084
0.363747
0.363565
0.375962
0.370567
0.388921
0.708113
0.712689
0.392558
0.402494
0.376037
0.381454
0.390644
0.375486
0.376026
0.374257
0.371858
0.375308
0.394737
0.377771
0.363268
0.444665
0.395855
0.742351
0.556325
0.376748
0.382361
0.375146
0.364224
0.754135
0.36501
0.727791
0.379359
0.411613
0.389914
0.365874
0.374244
0.366538
0.410758
0.370574
0.361477
0.40695
0.392248
0.370227
0.415845
0.375652
0.958863
0.389538
0.392799
0.403875
0.368239
0.359248
0.397687
0.360918
0.41629
0.372362
0.363915
0.39746
0.36771
0.366103
0.371648
0.362137
0.511116
0.57961
0.374595
0.478606
0.370896
0.378352
0.357425
0.359925
0.371385
0.368417
0.358045
0.363985
0.370292
0.683051
0.524106
0.362598
0.36897
0.367031
0.375801
0.36636
0.367989
0.372246
0.542816
0.369682
0.362641
0.367619
0.364834
0.36126
0.366894
0.365212
0.36326
0.375433
0.369109
0.382154
0.56897
0.362247
0.315473
0.539487
0.55292
0.244431
0.370983
0.439679
0.408287
0.394036
0.528248
0.309268
0.746089
0.369688
0.366351
0.398487
0.388063
0.561474
0.37597
0.378629
0.365739
0.36112
0.39873
0.387867
0.37461
0.387319
0.401287
0.423184
0.374881
0.380869
0.512168
0.497248
0.468561
0.594388
0.528483
0.608769
0.635573
0.369714
0.387322
0.368191
0.362055
0.371195
0.266164
0.385329
0.364113
0.37631
0.366138
0.306412
0.263871
0.365033
0.401229
0.365697
0.366289
0.390133
0.363944
0.367433
0.364883
0.374247
0.473273
0.366069
0.371604
0.366762
0.384233
0.375626
0.548445
0.468435
0.360376
0.393741
0.368959
0.360996
0.362606
0.386445
0.384541
0.586269
0.363625
0.361404
0.3773
0.438951
0.819514
0.369162
0.367728
0.457865
0.38022
0.36955
0.392124
0.372247
0.381345
0.716856
0.450718
0.782792
0.369566
0.438081
0.364931
0.414078
0.36528
0.372854
0.383234
0.368225
0.706637
0.487975
0.412396
0.534761
0.396869
0.368121
0.37437
0.426795
0.365075
0.378598
0.29264
0.363239
0.427829
0.382499
0.407677
0.723004
0.394742
0.393184
0.545965
0.37733
0.369124
0.458627
0.469799
0.368076
0.454269
0.484136
0.35894
0.373323
0.35725
0.374403
0.378065
0.379101
0.596783
1.7437
0.391202
0.394057
0.486199
0.693272
0.626526
0.574283
0.390784
0.369388
0.383953
0.38866
0.465168
0.365788
0.390133
0.386917
0.338909
0.372766
0.372096
0.375285
0.361468
0.393947
0.516649
0.37046
0.757601
0.365253
0.430677
0.378873
0.371211
0.371903
0.372453
0.382922
0.476926
0.385369
0.427819
0.512194
0.389427
0.373921
0.385443
0.469483
0.363423
0.402708
0.370985
0.400527
0.648552
0.501762
0.360867
0.370681
0.375498
0.367273
0.378473
0.693171
0.489864
0.652206
0.374257
0.408781
0.383969
0.566501
0.363022
0.888151
0.413668
0.396933
0.389895
0.614622
0.361708
0.362419
0.365348
0.389607
0.395383
0.373469
0.442884
0.582641
0.426228
0.363781
0.372909
0.666046
0.686383
0.540517
0.54834
0.747838
0.405597
0.387712
0.455386
0.361459
0.502361
0.380304
0.393625
1.03812
0.388938
0.37228
0.365744
0.383909
0.434115
0.392603
0.359218
0.389403
0.485787
0.366945
0.372434
0.369148
0.376363
0.375413
0.421125
0.378196
0.393691
0.377742
0.385682
0.378349
0.357178
0.35678
0.374381
0.416989
0.500769
0.378161
0.414583
0.365544
0.696956
0.390242
0.378241
0.36208
0.976007
0.615924
0.756934
0.279891
0.389497
0.394746
0.619013
0.315586
0.389641
0.43095
0.380712
0.382999
0.621221
0.375034
0.370668
0.388887
0.407299
0.366872
0.598246
0.897485
0.362004
0.909823
0.366811
0.653888
0.926115
0.361378
0.382776
0.377958
0.591982
0.379872
0.378706
0.395119
0.641318
0.370377
0.502697
0.371343
0.37182
0.362842
0.372915
0.960061
0.975997
0.39081
0.41045
0.397476
0.641562
0.367892
0.361171
1.04084
0.944998
0.379349
0.371914
0.835401
1.02677
0.814823
0.385435
0.555862
0.827941
0.705812
0.372912
0.502321
0.46735
0.381477
0.374551
0.963686
1.21323
0.416362
0.418955
0.374772
0.371554
0.390965
0.373042
0.505107
0.368838
0.368123
0.364866
0.365826
0.672164
0.870208
0.37755
0.611507
0.445814
0.359044
0.517656
0.362989
0.374097
0.3736
0.393
0.399847
0.362981
0.691466
0.367291
0.814622
0.530905
0.689691
0.413613
0.393727
0.375878
0.387758
0.368072
0.5745
0.986899
0.384872
0.62899
0.56299
0.726588
0.494717
0.859756
0.65997
0.371838
0.36813
0.777805
0.365071
0.369901
0.366727
0.658415
0.546377
0.363572
0.391052
0.620225
0.455154
0.69209
0.670344
0.384351
0.510693
0.955794
0.377027
0.403333
0.751858
0.37339
0.819908
0.810749
0.373849
0.371602
0.376417
0.372687
0.404118
0.358928
0.378174
0.395623
0.383454
0.511901
0.410138
0.379029
0.506828
0.453594
0.810929
0.379864
0.385847
0.435402
0.379552
0.830362
0.361025
0.381045
0.370658
1.12297
0.367448
1.48716
0.393523
0.521517
0.403186
1.24111
0.625486
0.626248
0.442175
0.553315
0.418721
0.367493
0.408875
0.591229
0.554262
0.468661
0.694537
0.391514
0.483504
0.616653
0.389567
0.361275
0.640401
0.638293
0.362213
0.371992
0.371039
0.381136
0.599249
0.716507
0.366538
0.387193
0.367491
1.04769
0.370349
0.65167
0.415777
0.371926
0.372232
0.463053
0.41187
0.607833
0.454533
0.398251
0.429658
0.475743
0.363821
0.823329
0.613521
0.36908
0.810858
0.603929
0.379401
0.540254
0.370656
0.41443
0.784919
0.411488
1.11904
0.597693
0.374474
0.418506
0.422217
0.370287
0.371464
0.437098
0.488628
0.459216
0.361625
0.436144
0.364788
0.436256
0.433703
0.396317
0.398259
0.413109
0.36784
0.780442
0.511859
0.417303
0.625468
0.681276
0.367991
0.509783
0.284901
0.401571
0.398189
0.407771
0.694398
0.506465
0.689523
0.361654
0.715333
0.470479
0.368745
0.428889
0.401687
0.501903
0.381501
0.430896
0.562056
0.362228
0.643879
0.395244
1.0263
0.399694
0.37576
0.39186
0.494656
0.412648
0.527578
0.412053
0.367163
0.663341
0.375058
0.392077
0.927746
0.363909
0.377077
0.660613
0.394181
0.496117
1.05612
0.388681
0.454673
0.376083
0.843793
0.524054
0.595752
0.533002
0.454704
0.394688
0.47922
0.769442
1.05802
0.654993
0.380499
0.374578
0.372121
0.368674
0.389184
0.647619
0.38048
0.366169
0.396317
0.36545
0.388114
0.390929
0.390872
0.394692
0.389231
0.478936
0.367404
0.391714
0.426406
0.371912
0.372648
0.40277
0.402863
0.376081
0.362973
0.380121
0.376431
0.377484
0.3968
0.589005
0.36888
0.389558
0.361266
0.36945
0.529288
0.360481
0.366768
0.483843
0.988288
0.687125
0.374946
0.483243
0.527159
0.3714
0.441863
0.481936
0.4203
0.392156
0.376829
0.387399
0.439418
0.367274
0.404903
0.414288
0.383263
0.360059
0.364171
0.382798
0.531552
0.373075
0.426149
0.765879
0.372171
0.543969
0.439814
0.763913
0.372674
0.385041
0.390127
0.37039
0.37854
0.381752
0.367343
0.539175
0.529133
0.783937
0.385212
0.674348
0.368873
0.367847
0.459212
0.360969
0.700642
0.376809
0.597097
0.362679
0.782631
0.812494
0.375781
0.365568
0.464483
0.37068
0.415379
0.368559
0.383893
0.366443
0.361393
0.364372
0.370796
0.376521
0.460545
0.395868
0.402463
0.377861
0.368576
0.371846
0.377683
0.513327
0.373522
0.616858
0.375714
0.359839
0.383814
0.381855
0.366885
0.367782
0.389231
0.365145
0.367577
0.356806
0.369282
0.382442
0.373707
0.646199
0.582674
0.382129
0.395585
0.652513
0.362229
0.366903
0.364837
0.363401
0.389605
0.38644
0.400791
0.404884
0.372151
0.36915
0.439806
0.369089
0.367262
0.369572
0.704326
0.394131
0.769969
0.706236
0.759157
0.3778
0.370103
0.365293
0.36111
0.377627
0.618877
0.383351
0.361776
0.369826
0.375446
0.367276
0.445336
0.366482
0.382987
0.444277
0.374717
0.358867
0.367205
0.37115
0.379548
0.364068
0.380681
0.374028
0.433925
0.363025
0.370874
0.380462
0.370344
0.37047
0.361348
0.381172
0.360314
0.392679
0.397132
0.371144
0.361812
0.362054
0.362407
0.365079
0.380768
0.371269
0.374471
0.36773
0.374223
0.588477
0.368975
0.455999
0.363126
0.370905
0.4842
0.376201
0.38231
0.364426
0.370695
0.383214
0.388354
0.649563
0.389203
0.613678
0.359627
0.368795
0.380618
0.369185
0.377726
0.40121
0.373993
0.367115
0.363782
0.501265
0.474155
0.649776
0.388256
0.509724
0.387828
0.376213
0.409002
0.943862
0.380069
0.368233
0.366762
0.727783
0.363512
0.369953
0.387448
0.374374
0.372664
0.758081
0.366636
0.37965
0.380866
0.375062
0.409629
0.85764
0.756549
0.366
0.361949
0.364308
0.392849
0.390362
0.37065
0.753
0.741027
0.365077
0.376983
0.613577
0.363088
0.396434
0.469901
0.366577
0.364003
0.369513
0.368323
0.403186
0.375188
0.365944
0.390595
0.414243
0.370024
0.367462
0.573108
0.367039
0.454668
0.510997
0.341088
0.564311
0.380801
0.391105
0.413833
0.380832
0.38538
0.385667
0.77925
0.568213
0.379844
0.384649
0.369682
0.388022
0.380232
0.420345
0.365833
0.362171
0.375855
0.376416
0.524412
0.46394
0.736107
0.680088
0.395567
0.383645
0.373049
0.376526
0.36888
0.382189
0.374176
0.363941
0.368598
0.38932
0.330929
0.370304
0.364298
0.500989
1.22486
0.400921
0.362733
0.389058
0.515006
0.772409
0.35653
0.572852
0.481809
0.620532
0.596372
0.439832
0.36723
0.367583
0.374332
0.805595
0.366319
0.379429
0.37959
0.367662
0.418348
0.397992
0.379837
0.375148
0.515023
0.371879
0.377118
0.394336
0.386823
0.67703
0.643835
0.248421
0.419357
0.302974
0.424616
0.368279
0.845729
0.369826
0.803272
0.385679
0.792444
0.384089
0.505281
0.371827
0.508939
0.386131
0.395223
0.367664
0.37308
0.378522
0.457463
0.425102
0.371382
0.376653
1.06458
0.258535
0.385643
0.577204
0.39277
0.569522
0.367362
0.37312
0.30878
0.646489
0.589384
0.384133
0.985737
0.371528
0.80904
0.999561
0.259785
0.438078
0.37087
0.409282
0.358862
0.368281
0.370113
0.520528
0.389867
0.369082
0.364737
0.380307
0.364003
0.365643
0.363987
0.479962
0.363406
0.361581
0.37951
0.368263
0.458969
0.379398
0.396444
0.384721
0.363956
0.402714
0.489085
0.355568
0.360895
0.501443
0.825998
0.383825
0.823942
0.402248
0.470043
0.730117
0.449232
0.399675
0.368062
0.429368
0.371756
0.362879
0.375537
0.368715
0.362981
0.37792
0.365316
0.359431
0.35905
0.389631
0.375242
0.389192
0.688747
0.366001
0.365892
0.364707
0.370603
0.471267
0.606088
0.379883
0.364204
0.380612
0.552419
0.524
0.364702
0.385299
0.78104
0.40068
0.39499
0.382801
0.439698
0.379999
0.368641
0.382465
0.542776
0.386874
0.378043
0.724602
0.37006
0.39505
0.370347
0.397178
0.376098
0.407022
0.381687
0.3716
0.373463
0.405827
0.353976
0.378099
1.13706
0.362616
0.459133
0.392713
0.369707
0.575992
0.413225
0.368025
0.381812
0.619185
0.537607
0.392202
0.375236
0.397267
0.435919
0.383001
0.374085
0.752119
0.491552
0.421482
0.547064
0.374651
0.364978
0.533417
0.382328
0.916641
0.381105
0.409373
0.406155
0.365515
0.523096
0.430148
0.624069
0.437328
0.371984
0.370632
0.569981
0.384326
0.408
0.362271
0.381886
0.397093
0.432527
0.661173
0.390273
0.371876
0.288446
0.541646
0.697423
0.447092
0.657938
0.41054
0.895545
0.391087
0.384557
0.736604
0.430707
0.522828
0.287926
0.606644
0.610591
0.36926
0.366772
0.265914
0.386359
0.381308
0.683449
0.387474
0.421836
0.369809
0.43734
0.374074
0.372655
0.821988
0.279049
0.517654
0.340943
0.404327
0.38509
0.379354
0.395083
0.388419
0.377537
0.368903
0.390342
0.39621
0.238878
0.230748
0.378618
0.408492
0.366184
0.428701
0.46429
0.389927
0.375164
0.400517
0.243863
0.418181
0.410408
0.342898
0.378715
0.6021
0.401069
0.373573
0.795228
0.397867
0.502561
0.479135
0.396295
0.37834
0.369025
0.999998
0.36801
0.360082
0.408088
0.393399
0.434341
0.373738
0.438829
0.37627
0.527433
0.363167
0.398941
0.384644
0.364359
0.639447
0.3949
0.71044
0.667082
0.366149
0.641326
0.468086
0.368952
1.13299
0.364022
0.363185
0.386419
0.448257
0.74706
0.666473
0.402635
0.677896
0.500704
0.36822
0.508938
0.725398
0.409004
0.696309
0.429038
0.363529
0.599459
0.702369
0.403025
0.844072
0.413235
0.393467
0.557449
0.416007
0.374453
0.391028
0.690137
0.370038
0.360537
0.535158
0.379045
0.39948
0.388297
0.397153
0.494445
0.469012
0.669913
0.37386
0.37256
0.623207
0.374985
0.379453
0.502109
0.370426
0.393312
0.615131
0.388006
0.821126
0.746926
0.717568
0.518095
0.380311
0.442806
0.364426
0.367556
0.460799
0.368149
0.366347
0.399933
0.366524
0.45793
0.69967
0.369548
0.520516
0.372478
0.503311
0.410867
0.798579
0.373915
0.458849
0.375832
0.37308
0.40625
0.371321
0.38298
0.367522
0.362803
0.566798
0.354363
0.390879
0.39521
0.38439
0.378986
0.396176
0.387649
0.639063
0.393939
0.371994
0.379041
0.430723
0.349162
0.628879
0.52391
0.600912
0.825922
0.424292
0.446516
0.17115
0.348466
0.736062
0.435562
0.507076
0.428898
0.677399
0.530718
1.08037
0.414291
0.387505
0.500697
0.808354
0.398941
0.273022
0.453436
0.279568
0.440241
0.446697
0.684584
0.50657
0.354159
0.426722
0.242454
0.37437
0.881983
0.380093
0.392135
0.364815
0.369183
0.479775
0.368237
0.629854
0.491401
0.37254
0.392338
0.376589
0.532263
0.6018
0.377412
0.406875
0.413926
0.801943
0.43167
0.371382
0.516165
0.543655
0.364049
0.376039
0.383802
0.365833
0.618616
0.373682
0.475258
0.642137
0.367182
0.397872
0.379255
0.376976
0.322957
0.393364
0.53975
0.364276
0.372408
0.686313
1.22058
0.372196
0.377822
0.371544
0.372406
0.542487
0.428483
0.717224
0.389824
0.36955
0.473106
0.386359
0.388811
0.37486
0.400311
0.390865
0.526834
0.510243
0.564684
0.43929
0.450801
0.369844
0.382738
0.712496
0.815896
0.439126
0.631892
0.395269
0.779928
0.464613
0.678712
0.49544
0.416742
0.395014
0.375938
0.399953
0.429222
0.540848
0.375676
0.415074
0.876025
0.385168
1.03647
0.388665
0.366405
0.381837
0.39277
0.375629
0.362535
0.594623
0.364801
0.358321
0.359751
0.379533
0.513018
0.518423
0.368994
0.546894
0.398569
0.397648
0.367317
0.375773
0.454964
0.412754
0.446841
0.389295
0.361725
0.427058
0.376731
0.35878
0.418075
0.404859
0.649127
0.382557
0.484239
0.396649
0.438753
0.385534
0.453596
0.36946
0.380933
0.361378
0.383213
0.387507
0.724407
0.361945
0.47283
0.293334
0.399848
0.381836
0.399071
0.388382
0.461205
0.483692
0.373003
0.372911
0.379442
0.481484
0.425268
0.361068
0.949113
0.466995
0.517556
0.372454
0.362148
0.514618
0.377683
0.376552
0.515734
0.369791
0.375439
0.409823
0.647292
0.366899
0.56195
0.367371
0.371663
0.457123
0.381702
0.387756
0.487765
0.364893
0.466034
0.439335
0.442409
0.472626
0.823607
0.374406
0.373473
0.386894
0.40268
0.39909
0.392778
0.368895
0.371323
0.381291
0.57761
0.38593
0.394295
0.627073
0.394392
0.660217
0.369955
0.386491
0.43254
0.366109
0.410963
0.389434
0.387181
0.408815
0.371624
0.3827
0.419594
0.438149
0.435406
0.373261
0.549236
0.384693
1.10236
0.698691
0.431807
0.381728
0.494135
0.384978
0.298607
0.436867
0.306909
0.471696
0.235962
0.425343
0.536741
0.437158
0.617473
0.629746
0.397397
0.324714
0.271008
1.10264
0.61277
0.644427
1.22456
0.571901
0.305265
0.757143
0.369103
0.382403
0.686839
0.430726
0.690588
0.411526
0.635845
0.646304
0.380418
0.392055
0.375952
0.361297
0.37825
0.364769
0.672345
0.407139
0.382908
0.559841
0.36224
0.369454
0.372807
0.380942
0.37857
0.385402
0.397356
0.367714
0.442144
0.810805
0.363584
0.376259
0.373563
0.363739
0.667688
0.664758
0.413779
0.375365
0.566452
0.364456
0.368879
0.38192
0.403057
0.370123
0.374818
0.364611
0.362406
0.457261
0.357798
0.421591
0.375402
0.374903
0.373413
0.407819
0.3729
0.376683
0.366646
0.431779
0.3686
0.399211
0.635596
0.447255
0.395545
0.427332
0.375319
0.400869
0.392438
0.381483
0.369333
0.388635
0.376414
0.379605
0.419928
0.387869
0.437597
0.476887
0.37614
0.388591
0.437054
0.435795
0.507612
0.475751
0.688373
0.865444
0.387807
0.373157
0.780029
0.554781
0.479469
0.369708
0.367082
0.380114
0.363242
0.372828
0.367607
0.380936
0.398074
0.366429
0.378366
0.366802
0.370804
0.375689
0.503646
0.414606
0.383198
0.372897
0.372628
0.658281
0.364105
0.370061
0.408014
0.887694
0.700104
0.38499
0.380307
0.384863
0.407091
0.427083
0.645635
0.440802
0.372997
0.383008
0.380045
0.370229
0.405918
0.417538
0.382657
0.363711
0.431857
0.408677
0.53522
0.428457
0.607646
0.544851
0.395722
0.408632
0.362362
0.375134
0.396606
0.36801
0.36423
0.617202
0.371998
0.38482
0.682729
0.384805
0.389769
0.278091
0.44232
0.36386
0.376672
0.367134
0.392528
0.721417
0.383438
0.459237
0.838966
0.550852
0.900216
0.772674
0.369175
0.387103
0.545155
0.363931
0.56352
0.519245
0.672241
0.371323
0.366656
0.570683
0.375345
0.570454
0.436657
0.376265
0.70116
0.758074
0.37278
0.368365
0.801302
0.374028
0.366868
0.358634
0.365285
0.385082
0.396631
0.563038
0.37635
0.766606
0.367628
0.382712
0.359287
0.810421
0.373845
0.827735
0.37476
0.402157
0.370073
0.465535
0.366622
0.447329
0.358993
0.517543
0.492049
0.492822
0.653369
0.371113
0.374726
0.731237
0.448655
0.383568
0.434803
0.428207
0.378503
0.420756
0.382427
0.600469
0.437432
0.371039
0.358918
0.462894
0.37229
0.410181
0.390366
0.366434
0.381451
0.367888
0.368562
0.373506
0.605263
0.363572
0.369795
0.370677
0.368463
0.362853
0.373967
0.377848
0.383521
0.387135
0.398615
0.392911
0.362557
0.303113
0.391926
0.410445
0.453093
0.345716
0.763686
0.370216
0.711732
0.409813
0.279904
0.389651
0.403852
0.395867
0.370426
0.357527
0.389267
0.385635
0.373618
0.374628
0.36544
0.692684
0.364783
0.37295
0.402974
1.1369
0.25333
0.382238
0.764941
0.398985
0.613667
0.538458
1.03235
0.213728
0.396769
0.39111
0.382845
0.370425
0.922788
0.414574
0.42964
0.368891
0.365694
0.66643
0.386523
0.397753
0.371014
0.387109
0.41279
0.391592
0.606512
0.373634
0.381312
0.364519
0.371549
0.398942
0.361863
0.383648
1.00091
1.0306
0.718099
0.474937
0.713794
0.375272
0.36581
0.359429
0.379967
0.366955
0.412915
0.372607
0.447148
0.392739
0.37062
0.366822
0.375515
0.370897
0.378788
0.381315
0.371851
0.383998
0.529385
0.38003
0.410404
0.722755
0.383643
0.613394
0.801183
0.388049
0.410019
0.367745
0.497552
0.389867
0.404838
0.630156
0.369718
0.419467
0.375315
0.406818
0.371471
0.371758
0.468013
0.543545
0.380507
0.394157
0.726829
0.422212
0.600127
0.571497
0.371609
1.20737
0.418342
0.424975
0.408194
0.372631
0.446704
0.397025
0.3546
0.371872
0.345239
0.588023
0.221695
0.376898
0.399986
0.458332
0.230537
0.760614
0.363941
0.378149
0.431636
0.368101
0.433092
0.404531
1.11725
0.390477
0.382439
0.381463
0.73874
0.374232
0.417659
0.395526
0.377188
0.374388
0.388957
0.374876
0.363949
0.654421
0.400741
0.726767
0.365985
0.813741
0.716046
0.475295
0.400328
0.381657
0.482599
0.393047
0.380796
0.367115
0.382424
0.714932
0.371658
0.492968
0.526628
0.374772
0.371507
0.36457
0.368314
0.375512
0.368093
0.426913
0.409131
0.398506
0.383114
0.416161
0.370471
0.455693
0.368815
0.382335
0.372963
0.659113
1.0148
0.400321
0.385566
0.367703
0.615073
0.36412
0.372285
0.378397
0.367437
0.388992
0.377607
0.360888
0.370565
0.378692
0.702262
0.545322
0.371225
0.697706
0.370888
0.377913
0.361601
0.370054
0.677183
0.40039
0.751437
0.367126
0.364979
0.763185
0.827998
0.373141
0.368278
0.598799
0.385227
0.406062
0.426886
0.408956
0.390531
0.448933
0.384598
0.371716
0.39154
0.375595
0.506023
0.364468
0.382898
0.367802
0.370388
0.575397
0.634436
0.362994
0.372479
0.379806
0.377727
0.381695
0.530571
0.382913
0.392157
0.422868
0.378152
0.468315
0.422267
0.506521
0.417381
0.371052
0.367705
0.365136
0.413349
0.365966
0.494007
0.431908
0.363832
0.991686
0.371677
0.365586
0.392856
0.37412
0.41241
0.613924
0.374337
0.462886
0.374105
1.10348
0.422596
0.403331
0.381368
0.609371
0.382348
0.544258
0.399075
0.437853
0.366052
0.42288
0.424684
0.615808
0.484204
0.371778
0.364098
0.366367
0.51876
0.390397
0.961439
0.591312
0.381864
0.451885
0.370217
0.492111
0.477687
0.416027
0.541731
0.501531
0.681274
0.376767
0.403443
0.921341
0.507038
0.393992
0.491676
0.372925
1.00963
0.424986
0.382303
0.365609
0.366611
0.367746
0.375796
0.370002
0.650745
0.368287
0.512589
0.368926
0.456506
0.409447
0.546516
0.372159
0.374767
0.364069
0.547531
0.480015
0.517256
0.369506
0.379221
0.47963
0.408508
0.400122
0.361624
0.360788
0.363309
0.375718
0.367912
0.40819
0.369446
0.552137
0.451303
0.960762
0.743506
0.551677
0.56133
0.425972
0.42871
0.364003
0.583779
0.372384
0.394024
0.373837
0.487846
0.435563
0.379907
0.453149
0.735486
0.46445
0.363849
0.362606
0.65416
0.793924
0.414788
0.751576
0.829626
0.625383
0.658938
0.57487
0.671658
0.433468
0.62123
0.766113
0.369014
0.372061
0.368906
0.475913
0.613501
0.377442
0.367305
0.433281
0.394172
0.401866
0.751836
0.505904
0.817817
0.3771
0.366257
0.371148
0.358203
0.376737
0.74087
0.391554
0.495174
0.601483
0.364296
1.12288
1.15895
0.364927
0.480645
0.456254
0.754868
0.390149
0.496475
0.734846
0.691453
0.475034
0.664612
0.525334
0.579494
0.376865
0.392234
0.388954
0.795396
0.719532
0.421277
0.384234
0.548224
0.470822
0.57365
0.374238
0.402444
0.902502
0.651695
0.279199
0.362565
0.320973
0.367739
0.236503
0.423988
0.470842
0.590039
0.235189
0.45925
0.494754
0.208208
0.477896
0.533913
0.454495
0.42291
0.520198
0.386915
0.525792
0.380731
0.368252
0.376506
0.38591
0.675211
0.688523
0.7474
0.423251
0.426374
0.540181
0.420334
0.265291
0.438657
0.400924
0.37864
0.533518
0.381944
0.305989
0.374887
0.448394
0.437274
0.715279
0.495347
0.785349
0.815061
0.72355
0.384918
0.432585
0.639831
0.353447
0.549254
0.408046
0.42272
0.369233
0.761687
0.568074
0.376033
1.24687
0.618031
0.371929
0.463534
0.716896
0.749527
0.430508
0.390382
0.48989
0.822878
0.398825
0.367648
0.393928
0.392528
0.462083
0.461015
0.62607
0.413512
0.598618
0.816814
0.565937
0.479386
0.644315
0.493255
0.777979
0.599082
0.524553
0.758602
0.552209
0.416259
0.472287
0.371991
0.366327
0.371307
0.410809
0.545448
0.711638
0.377663
0.393503
0.40567
0.378529
0.378693
0.573303
0.479701
0.37328
0.386787
0.784518
0.96175
0.24916
0.430801
0.367051
0.397821
0.648765
0.585235
0.378787
0.281888
0.38478
0.268918
0.338291
0.587513
0.383752
0.383244
0.373828
0.429382
0.770559
0.464915
0.390469
0.524921
0.368354
0.739155
0.602061
0.483716
0.612675
0.408453
0.367366
0.367608
0.374611
0.386919
0.435683
0.369203
0.379339
0.372217
0.371104
0.546604
0.549362
0.683279
0.37726
0.492307
0.408366
0.430729
0.396514
0.512114
0.392153
0.391172
0.384271
0.36221
0.378276
0.378937
0.473214
0.37082
0.391244
0.402006
0.609752
0.379542
0.428263
0.474376
0.720843
0.720174
0.420505
0.993775
0.256155
0.400928
0.410808
0.540032
0.38972
0.739331
0.463293
0.363352
0.446136
0.548549
0.441661
0.476178
0.610992
0.520127
0.487324
0.665122
0.389153
0.367567
0.423531
0.371987
0.363881
0.435293
0.364448
0.367284
0.557111
0.369256
0.365362
0.511688
1.04093
0.3642
0.366411
0.80669
0.364269
0.371848
0.533227
0.370578
0.621356
0.44735
0.741637
0.36744
0.551726
0.472633
0.635444
0.373645
0.463343
0.367098
0.71311
0.371649
0.371218
0.424313
0.456717
0.493896
0.40333
0.382322
0.383543
0.369645
0.500761
0.369073
0.3656
0.361438
0.466451
0.538511
0.366396
0.380553
0.367543
0.372127
0.380882
0.558021
0.369465
0.46342
0.371121
0.585602
0.380689
0.407388
0.383546
0.489795
0.37822
0.460472
0.37709
0.380637
0.376343
0.399179
0.37524
0.462633
0.45135
0.686249
0.717799
0.720517
0.428462
0.398775
0.38946
0.364416
0.363543
0.867857
0.634813
0.427961
0.409205
0.37907
0.386863
0.365681
0.363886
0.526057
0.51302
0.701012
0.51257
0.413568
0.37444
0.443601
0.36848
0.614113
0.370731
0.4021
0.382858
0.394199
0.896361
0.441531
0.361892
0.384885
0.43108
0.363766
0.269014
0.368736
0.300172
0.415445
0.85374
0.484815
0.734185
0.365365
0.391088
0.402174
0.386872
0.408483
0.366962
0.364562
0.360522
0.374741
0.378926
0.369243
0.559314
0.429137
0.787545
0.449325
0.370844
0.507966
0.38471
0.366922
0.33673
0.894769
0.837152
0.283945
0.321086
0.373237
0.719614
0.484975
0.459024
0.42076
0.410109
0.265716
0.389943
0.384218
0.35998
0.438543
0.565151
0.744144
0.543487
0.457311
0.361932
0.435237
0.657203
0.389575
0.366305
0.714637
0.716428
0.555463
0.595231
0.36146
0.359361
0.435166
0.36393
0.767244
0.364061
0.370126
0.36622
0.64334
0.368259
0.407136
0.484366
0.483921
0.369514
0.367268
0.385523
0.37132
0.360566
0.373901
0.429916
0.55955
0.465595
0.396749
0.583547
0.385781
0.599396
0.412446
0.830875
0.473027
0.46741
0.641363
0.313483
0.455055
0.460991
0.576547
0.446518
0.361155
0.378403
0.366234
0.384765
0.788896
0.399191
0.370376
0.375768
0.413653
0.364291
0.501368
0.392966
0.386654
0.480935
0.391475
0.367602
0.401766
0.390758
0.736171