/*--------------------------------*- C++ -*----------------------------------*\
| =========                 |                                                 |
| \\      /  F ield         | OpenFOAM: The Open Source CFD Toolbox           |
|  \\    /   O peration     | Version:  2506                                  |
|   \\  /    A nd           | Website:  www.openfoam.com                      |
|    \\/     M anipulation  |                                                 |
\*---------------------------------------------------------------------------*/
FoamFile
{
    version     2.0;
    format      ascii;
    arch        "LSB;label=32;scalar=64";
    class       volScalarField;
    location    "0.0180731";
    object      nut;
}
// * * * * * * * * * * * * * * * * * * * * * * * * * * * * * * * * * * * * * //

dimensions      [0 2 -1 0 0 0 0];

internalField   nonuniform List<scalar> 
47425
(
0.00674813
0.0054568
0.00569863
0.00218601
0.00372914
0.00516829
0.00530236
0.00355612
0.00743333
0.00162308
0.00260567
0.00740763
0.00633831
0.00502413
0.00433294
0.00397097
0.00589511
0.002873
0.00030593
0.00314073
0.00437248
0.00753166
0.00354625
0.00593434
0.00740978
0.00751948
0.00519216
0.000476843
0.00574227
0.00671725
0.00752776
0.00744481
0.00740037
0.00596613
0.00703813
0.00554572
0.00751308
0.00539551
0.00571656
0.00498445
0.00519856
0.00698044
0.00679693
0.00262054
0.000740783
0.00353604
0.00389732
0.00457697
0.00481539
0.00731712
0.000595591
0.00308211
0.00730197
0.000972713
0.00336638
0.00306611
0.00752788
0.00656129
0.00205859
0.0059892
0.000865554
0.000586005
0.00101278
0.00406011
0.00736678
0.00737833
0.00568032
0.00620271
0.00107583
0.00497522
0.00495115
0.00725286
0.00717797
0.00434528
0.00122877
0.0074381
0.00104454
0.00465812
0.00021952
0.00248472
0.00117321
0.00600965
0.00744998
0.00712835
0.0074637
0.00456281
0.00693846
0.00722662
0.00499731
0.00128148
0.00749727
0.00467293
0.00751532
0.00332754
0.00263106
0.00194358
0.00719112
0.00728872
0.00463924
0.00472191
0.00587383
0.00111179
0.00713193
0.00101844
0.00733255
0.00680761
0.00745921
0.00425916
0.00752917
0.00752369
0.00160921
0.00598707
0.00654412
0.00242532
0.00697635
0.000318485
0.00708008
0.000737403
0.00462973
0.00650617
0.00499606
0.00746051
0.00617749
0.00374796
0.00377734
0.00653339
0.00455013
0.00743271
0.00354368
0.00748024
0.00746851
0.00367156
0.00103012
0.00304885
0.00719276
0.00656421
0.0071067
0.00634579
0.00541734
0.0037366
0.00512115
0.0028697
0.00515993
0.00615993
0.00685814
0.00742124
0.00500482
0.00577277
0.0024733
0.00510693
0.00629209
0.000508825
0.00732618
0.000390415
0.00394077
0.00437221
0.00367041
0.000277976
0.00388646
0.00494911
0.00704981
0.00754356
0.0072819
0.00735345
0.00118363
0.000491948
0.0074869
0.00123119
0.00349274
0.000855849
0.00124789
0.00430309
0.00486611
0.0048734
0.00513443
0.00141619
0.000349148
0.00582825
0.00692303
0.00749904
0.000291724
0.00747008
0.00656046
0.00747109
0.0073778
0.0067893
0.00664874
0.00120831
0.00257866
0.00691148
0.00746472
0.00596623
0.00425161
0.00475567
0.0073931
0.00715797
0.0058328
0.0050827
0.00713189
0.00491831
0.00554586
0.00307573
0.00752054
0.00715781
0.00328272
0.00239942
0.00716711
0.00716443
0.00418916
0.00743416
0.00594196
0.00608376
0.00740909
0.004583
0.00609487
0.00633378
0.00574622
0.0022102
0.00406167
0.00399401
0.00213834
0.00382718
0.00682521
0.00435518
0.00239881
0.00173285
0.00737506
0.00301518
0.00695733
0.00534846
0.00605567
0.0050427
0.00353273
0.0074939
0.00229879
0.00388923
0.0020932
0.00318897
0.00240886
0.00207392
0.00468212
0.00696815
0.00752723
0.00390149
0.00744714
0.00712666
0.00590875
0.00574084
0.00750202
0.0052486
0.00755987
0.00235248
0.00587066
0.00741968
0.00411215
0.00752735
0.00752927
0.00314581
0.00401939
0.00729956
0.00316842
0.00743643
0.00533814
0.00281538
0.00628869
0.00303198
0.00748412
0.00624687
0.00636077
0.00472205
0.00508624
0.00267071
0.00210043
0.00720858
0.00279004
0.00213812
0.00285201
0.000532161
0.00220885
0.000656419
0.000877218
0.00693952
0.000878482
0.00305786
0.004806
0.00476896
0.00356144
0.00435095
0.00230146
0.00690744
0.000684645
0.0066194
0.00737593
0.00669178
0.00608286
0.00365614
0.00337191
0.00739236
0.00574098
0.00453544
0.00412616
0.00739731
0.00409047
0.00658182
0.000829298
0.0008098
0.000501744
0.00752091
0.00731968
0.00750884
0.00349915
0.000711432
0.00433986
0.00309117
0.00154732
0.00492203
0.00355948
0.00313966
0.00436352
0.00195995
0.00176403
0.00757006
0.00628719
0.00744101
0.00397305
0.00749804
0.00505248
0.00640759
0.0070822
0.00534535
0.00540104
0.00106588
0.00535907
0.00500463
0.00301667
0.00761269
0.00106994
0.00712034
0.00734638
0.00698187
0.00751745
0.00745437
0.00748199
0.00702568
0.00720831
0.0069096
0.00653535
0.00729058
0.00496847
0.00432356
0.00743353
0.00734046
0.00590094
0.00726009
0.00730055
0.0031722
0.0049682
0.00754817
0.00713032
0.00387735
0.00191902
0.00657781
0.00454899
0.00423368
0.00739597
0.00718266
0.00288827
0.00731195
0.00546957
0.00746949
0.0028961
0.00077468
0.00487004
0.00752968
0.00192766
0.00751349
0.00705974
0.00401918
0.00504291
0.00751856
0.00558163
0.00747547
0.0075137
0.00481515
0.00422557
0.00439154
0.00434709
0.00706008
0.0071066
0.00443371
0.00726129
0.00736051
0.00465844
0.00665268
0.00583119
0.00723924
0.00609825
0.00403796
0.00209424
0.00736578
0.000813098
0.0074369
0.00252367
0.00505053
0.00360023
0.00361544
0.00730634
0.00259057
0.0074107
0.00388191
0.00735797
0.00096041
0.000907153
0.00740149
0.00388689
0.00485558
0.00456921
0.00464533
0.00478592
0.00525036
0.00411432
0.00541372
0.00745788
0.00358384
0.00572759
0.00722781
0.00347343
0.00556719
0.0070458
0.000993464
0.000330469
0.00724734
0.000496222
0.000403348
0.00412936
0.000447025
0.000620413
0.00713026
0.0050565
0.00543904
0.00540059
0.00101595
0.00410639
0.00719739
0.00700842
0.0058008
0.00563425
0.0045094
0.00459185
0.0008896
0.000703537
0.00143116
0.00540908
0.00124735
0.00546528
0.00683841
0.00729078
0.00654397
0.00726211
0.00426817
0.00480114
0.00285426
0.0054176
0.00749232
0.00489192
0.00648907
0.00460172
0.00717355
0.00615206
0.0056918
0.0052983
0.00562445
0.00344871
0.0029948
0.00634879
0.00437202
0.00718406
0.00102792
0.00289648
0.00241006
0.00735128
0.00274099
0.00307956
0.00393485
0.00747663
0.00509538
0.00705158
0.00567217
0.00364864
0.0035102
0.00521717
0.00405706
0.00690802
0.00248628
0.000947252
0.00742912
0.00194641
0.00662978
0.00193871
0.00724487
0.0070311
0.00748635
0.00546003
0.00684098
0.00328883
0.0062013
0.00741256
0.00752421
0.00718193
0.00492985
0.00285475
0.00490842
0.00753759
0.00645771
0.00698335
0.00694341
0.00644843
0.00515164
0.0054068
0.0033355
0.00474249
0.00375335
0.000647685
0.00599365
0.00535355
0.00669045
0.00741775
0.00178538
0.00160012
0.00472806
0.00699981
0.00455611
0.00571734
0.0072976
0.00168914
0.00750694
0.00238389
0.00268401
0.00311268
0.00634136
0.00289402
0.00756225
0.00522521
0.00536874
0.00745443
0.00754508
0.00716109
0.000840859
0.00627222
0.00259041
0.00744453
0.00177845
0.00720776
0.0064698
0.00247784
0.00266723
0.00518884
0.00752956
0.000696835
0.00693883
0.00663128
0.00706622
0.00712197
0.0074512
0.00266996
0.00428264
0.00732155
0.00703361
0.00545286
0.00750613
0.00148872
0.00742747
0.00597401
0.00055207
0.00509714
0.00748686
0.000670674
0.00138857
0.00754174
0.000214042
0.00028145
0.00536822
0.00728825
0.00712614
0.00754744
0.00445896
0.0040902
0.00173903
0.00756526
0.00289111
0.00699961
0.00199153
0.00247939
0.00444686
0.00546049
0.00156632
0.0024493
0.00714575
0.00410602
0.00453101
0.0034762
0.00306515
0.00307923
0.00723799
0.00400617
0.00287344
0.00525061
0.00551367
0.0033475
0.00437456
0.00729431
0.0027565
0.00393611
0.00506142
0.00299867
0.00354561
0.00603651
0.00494087
0.00674689
0.00206443
0.00524987
0.00711389
0.00738507
0.000285354
0.00470457
0.00613689
0.000492085
0.000744443
0.00753329
0.004861
0.000180559
0.00216804
0.000944085
0.00217544
0.00317302
0.000557871
0.00661743
0.00731651
0.00587056
0.00339822
0.00339632
0.00335887
0.00741634
0.00324459
0.00580096
0.00476127
0.00702859
0.00451423
0.00508998
0.00237667
0.000539021
0.00313466
0.00343731
0.00426448
0.00754254
0.00349373
0.00713921
0.00591031
0.0056069
0.00546111
0.00747765
0.00207791
0.00475122
0.00738933
0.00168276
0.00202993
0.000928239
0.00144533
0.00414787
0.00751999
0.00493961
0.00747817
0.000911338
0.00526878
0.000845906
0.00445658
0.00540405
0.00673369
0.00517883
0.00594502
0.00473712
0.00247467
0.00436012
0.00707345
0.0019294
0.00542888
0.00748666
0.00504843
0.00409736
0.000734377
0.006725
0.00189546
0.00450681
0.00747924
0.0074593
0.00264895
0.00475726
0.00483611
0.00731185
0.00566092
0.00514825
0.00487724
0.00458683
0.00464924
0.00583977
0.00107888
0.000661344
0.00531783
0.000913145
0.00565008
0.00323548
0.00402597
0.00740095
0.00706618
0.00658859
0.00522012
0.00466789
0.00751988
0.0005756
0.00146615
0.0037732
0.00552838
0.00737931
0.00403723
0.00716578
0.00261722
0.00708645
0.00116771
0.00429346
0.00744927
0.00474461
0.00732166
0.00620762
0.00534492
0.00729007
0.00407395
0.00744042
0.00735606
0.00487352
0.000949234
0.00756477
0.000588069
0.00202159
0.00246731
0.000548623
0.00449484
0.00460948
0.00264651
0.00462586
0.000864048
0.000473261
0.00080064
0.00467703
0.00645641
0.00511641
0.00313503
0.000939494
0.00278567
0.00401385
0.00686494
0.00549788
0.00578435
0.00326247
0.0063848
0.00446739
0.00136692
0.00234118
0.0055193
0.00247252
0.00121682
0.000783446
0.00559409
0.000348724
0.00139793
0.000647984
0.000793801
0.00452016
0.00313196
0.00746862
0.0073495
0.00502481
0.000510835
0.00200008
0.00501916
0.00499655
0.00752461
0.000932729
0.000500985
0.00755728
0.00231407
0.00403686
0.00751261
0.00228175
0.007534
0.00754798
0.00518049
0.00509868
0.00166456
0.00718934
0.00759243
0.00642877
0.00538807
0.00538132
0.00115367
0.00169176
0.00752563
0.00150372
0.00722389
0.00750744
0.00743356
0.00187613
0.00469058
0.00263766
0.00331865
0.00695443
0.00735636
0.00148837
0.000787806
0.00503281
0.00433779
0.00168818
0.00568097
0.00565186
0.00320114
0.00300263
0.00296259
0.00195644
0.00239388
0.00116172
0.00741796
0.00125585
0.00693713
0.00409406
0.00747868
0.00219379
0.00290014
0.00748386
0.00184271
0.00133245
0.00426133
0.00210426
0.00566305
0.00703075
0.00515275
0.00362062
0.00515574
0.00367982
0.000784112
0.00548856
0.00317847
0.00182015
0.00180891
0.000625277
0.0017799
0.00426473
0.000559468
0.00741088
0.00738519
0.00385875
0.0022756
0.00419313
0.00160423
0.00141049
0.00351817
0.00616028
0.00573272
0.00338084
0.00368581
0.00408466
0.00254196
0.00165541
0.00454281
0.00640125
0.00213127
0.00186568
0.00176999
0.000535356
0.00406313
0.00539484
0.00392041
0.00406658
0.00390722
0.00744431
0.00341176
0.0039356
0.000956901
0.00326801
0.00536857
0.0039258
0.00703466
0.00355765
0.000860476
0.0046634
0.00219808
0.00698143
0.00242634
0.00287604
0.00377636
0.00546606
0.00535755
0.00361685
0.00138472
0.00410638
0.00172666
0.000724001
0.00632098
0.00735637
0.00693672
0.00128995
0.00641008
0.00269559
0.00689657
0.00176281
0.000911185
0.00336267
0.00409504
0.00437775
0.00743508
0.00516849
0.00324171
0.000826092
0.002621
0.000735961
0.00738823
0.00292708
0.00350701
0.00251981
0.00440073
0.00236897
0.00171375
0.00167864
0.00507887
0.000693995
0.00417745
0.00467395
0.00535199
0.00639656
0.00571432
0.00529938
0.00150295
0.00332178
0.00371786
0.00644873
0.00671432
0.000751979
0.00129487
0.000746494
0.00182905
0.000940921
0.002099
0.00405472
0.00137453
0.00457988
0.00132932
0.00204426
0.00206777
0.00158555
0.00432742
0.00643052
0.00555484
0.0075398
0.00170339
0.00378789
0.00384752
0.00497377
0.00166003
0.00690494
0.00479414
0.00719249
0.00744134
0.00300153
0.00233891
0.00303127
0.0042041
0.00664151
0.00235207
0.007505
0.00422177
0.0036618
0.00733863
0.00290804
0.00151547
0.00578842
0.00267099
0.00499569
0.00175397
0.0020861
0.00299522
0.0034255
0.0002188
0.000300458
0.00180062
0.000442766
0.00355141
0.00415435
0.000482109
0.000560566
0.00696898
0.00122759
0.00346172
0.00430542
0.000410756
0.00267752
0.00693281
0.00330355
0.00188809
0.00719259
0.000725578
0.000349905
0.00269021
0.000727535
0.00252309
0.000894799
0.000743663
0.00640241
0.0047286
0.00280711
0.00135436
0.00388876
0.00709182
0.00243972
0.00058035
0.00705243
0.00188042
0.00574458
0.00222108
0.00730339
0.00668544
0.00232794
0.00236942
0.00445419
0.00207866
0.00617424
0.000973336
0.00746736
0.00739443
0.00343048
0.00209949
0.00508197
0.0074158
0.000746537
0.00133584
0.00201266
0.00380169
0.00421695
0.00240092
0.000987111
0.00495744
0.00090196
0.00168815
0.00673035
0.00406176
0.00230153
0.000653091
0.00268665
0.00215695
0.0062162
0.00725564
0.00258889
0.00471762
0.0022505
0.00565513
0.00740793
0.00734186
0.00539429
0.00207981
0.000722376
0.005223
0.000459907
0.0045581
0.00509545
0.00250775
0.00696683
0.00425225
0.00588339
0.00544311
0.00197549
0.00698153
0.00149541
0.00757937
0.000353617
0.0010235
0.00204041
0.00200928
0.00591546
0.0056614
0.00360899
0.00709954
0.000714106
0.000643485
0.00354084
0.00200855
0.000793658
0.000809063
0.00216829
0.00109868
0.000497574
0.00391004
0.00727559
0.000430142
0.00459941
0.00669811
0.00504049
0.000700419
0.000426005
0.00468743
0.00531362
0.00147894
0.00201754
0.00112738
0.000662866
0.00343627
0.000974876
0.00103383
0.00350451
0.00468837
0.000781899
0.00680222
0.000935338
0.000217496
0.0074656
0.00580741
0.0047348
0.00670222
0.00314277
0.00384202
0.00721629
0.00310944
0.00420677
0.000978619
0.00185981
0.00625149
0.00136793
0.00521468
0.000352424
0.00671731
0.00399154
0.00216521
0.00735692
0.000967546
0.00428537
0.00321559
0.00244456
0.00246966
0.00423852
0.00210057
0.00214021
0.000770963
0.00691782
0.000937899
0.000723621
0.00104962
0.00449264
0.00105312
0.00220824
0.00479687
0.00504976
0.00112649
0.00180842
0.00250817
0.000661848
0.00259707
0.00109208
0.000958646
0.00297024
0.0024334
0.00096784
0.00211056
0.00735124
0.00244659
0.00434287
0.00256241
0.00259935
0.000562475
0.00635852
0.00461521
0.00575993
0.00144846
0.00566436
0.000510317
0.00234371
0.0056925
0.00724408
0.00198031
0.00205508
0.000941898
0.0018212
0.00308028
0.00139839
0.000995206
0.00466543
0.000885672
0.00130876
0.00366061
0.000544376
0.00126389
0.00309941
0.00351202
0.00560242
0.00187687
0.000593504
0.00209609
0.00157943
0.00313804
0.00695366
0.00224865
0.00508928
0.0038415
0.00622539
0.00129251
0.00194553
0.00155491
0.00503364
0.00184753
0.00471286
0.0033595
0.00134941
0.00195333
0.00248016
0.0032371
0.00664427
0.000380865
0.00146508
0.00180668
0.00132718
0.00193681
0.00684041
0.0010352
0.000431215
0.00173945
0.00337719
0.00387708
0.00283351
0.00237692
0.000958501
0.00648519
0.0013477
0.0017166
0.00703029
0.00154416
0.00353555
0.00259138
0.00293935
0.00161223
0.0024857
0.00736903
0.000589978
0.00350686
0.000661519
0.00270758
0.00557371
0.00300433
0.00245154
0.00168717
0.00432074
0.00545058
0.00371122
0.00105681
0.0051308
0.00573622
0.000567919
0.00751107
0.00462313
0.000730189
0.00457358
0.00243092
0.00130025
0.0025517
0.00111203
0.00502404
0.000207201
0.00252072
0.000751819
0.00283078
0.00134307
0.0038412
0.00093634
0.00147934
0.00126323
0.00391671
0.00415152
0.00723104
0.00424247
0.00423626
0.00294562
0.000532377
0.00393104
0.00656293
0.00606344
0.00631083
0.00388942
0.00437052
0.00727191
0.00743561
0.00311196
0.000927216
0.00744145
0.00292329
0.0030011
0.0056599
0.00729014
0.00296437
0.00310038
0.00745989
0.006824
0.00356281
0.00381812
0.00722751
0.00398564
0.00103197
0.00407068
0.00480485
0.00673422
0.00758213
0.00130939
0.00565673
0.00686888
0.000831241
0.00115519
0.000905246
0.00737872
0.00083087
0.000453112
0.00729698
0.000241662
0.00080073
0.000500289
0.00409384
0.00538611
0.00449017
0.00174131
0.00754856
0.00465801
0.0047125
0.00403828
0.00320378
0.00428362
0.00356994
0.00123499
0.00451736
0.00304142
0.000808134
0.00417164
0.000332313
0.00227163
0.00123677
0.00741336
0.0031413
0.00206619
0.00721838
0.00544882
0.00196296
0.00756905
0.00177373
0.00182121
0.000360122
0.0066718
0.0012061
0.00667943
0.00319137
0.0036986
0.00654044
0.00137291
0.00619859
0.00238123
0.00674633
0.00120024
0.000235345
0.00473944
0.00752981
0.000598778
0.00501284
0.000216515
0.00504839
0.00388633
0.00515806
0.00509323
0.0065536
0.00702283
0.00501879
0.00225766
0.00618567
0.0022317
0.00426154
0.00464307
0.00747145
0.00243854
0.000676467
0.00412976
0.0013266
0.00690013
0.00539871
0.00314408
0.00449669
0.00513608
0.00664194
0.00246803
0.00279968
0.00745606
0.0043097
0.00561869
0.0053681
0.00391193
0.00136389
0.00103013
0.00489944
0.00415595
0.00321808
0.00412977
0.00698372
0.00573254
0.00723828
0.0021984
0.00228248
0.00196354
0.00374588
0.00518011
0.00533819
0.00134199
0.00688702
0.00711238
0.00613903
0.00159131
0.0030086
0.00123426
0.00122384
0.00120443
0.0042835
0.00584068
0.00577924
0.00537188
0.00710618
0.00125597
0.00535762
0.00739476
0.00450964
0.00345256
0.00522329
0.00108435
0.00541464
0.00240537
0.00291928
0.00361849
0.00698308
0.00521579
0.00415014
0.00403998
0.0055776
0.00318423
0.00418623
0.00383102
0.00460407
0.00511278
0.00488612
0.00238269
0.00207418
0.00604031
0.00443173
0.00276441
0.00389677
0.00231413
0.00742958
0.007055
0.00273268
0.00582492
0.00676573
0.00483476
0.00739025
0.00746271
0.00493814
0.00476543
0.00150328
0.00520792
0.00274325
0.00735401
0.00541291
0.000617855
0.00455911
0.0043618
0.00659428
0.0060352
0.00416684
0.0043962
0.00029749
0.00355004
0.00148938
0.00720716
0.00632646
0.00516466
0.00748008
0.00720833
0.00360446
0.00434144
0.00711964
0.00747286
0.00229862
0.000927352
0.00141241
0.00312864
0.00174558
0.00366003
0.00556219
0.00363954
0.00231233
0.00207789
0.0042991
0.00464668
0.000822777
0.00580256
0.00455312
0.00415414
0.0042493
0.00746325
0.000336834
0.0055666
0.00388109
0.00716534
0.00291367
0.00348784
0.000323912
0.000236988
0.00543726
0.00691619
0.00748097
0.00415578
0.00390887
0.00654432
0.000226776
0.00102761
0.00589325
0.00263068
0.00135304
0.00601256
0.00729126
0.00250363
0.00750054
0.00617627
0.00721405
0.00511183
0.00350976
0.00425403
0.00466322
0.00673486
0.00248989
0.00503632
0.00741825
0.0011324
0.0056413
0.0042907
0.00253668
0.000954484
0.00125243
0.00359163
0.0028921
0.0061465
0.00285385
0.00304888
0.00749187
0.000550588
0.00135094
0.00288705
0.00438332
0.00344122
0.00407611
0.00407254
0.00118774
0.00752162
0.00736338
0.00570225
0.00536245
0.000980672
0.00144426
0.000996506
0.00143338
0.00362909
0.00290141
0.00751991
0.007504
0.00459042
0.00627048
0.00534886
0.00674719
0.00758661
0.000976978
0.000400766
0.00743129
0.00751899
0.00320984
0.00123729
0.00367169
0.00752201
0.00624945
0.00133443
0.000877397
0.0041519
0.001791
0.002146
0.00225819
0.00043955
0.0028715
0.0070318
0.00755836
0.00610516
0.000883017
0.00687385
0.00438872
0.00457678
0.0075273
0.000798722
0.000203565
0.000207773
0.00177272
0.00113071
0.00696349
0.00733239
0.00312809
0.00492794
0.000658948
0.000973436
0.000489198
0.000405981
0.00056605
0.00201409
0.00736387
0.00084447
0.00724939
0.000341613
0.00397615
0.000688724
0.00463462
0.00201589
0.00728899
0.00395319
0.00226485
0.00229135
0.00724001
0.00554428
0.0040421
0.000970601
0.001342
0.00498919
0.00532588
0.000436158
0.000415252
0.00469996
0.0013944
0.000695678
0.00110545
0.00564937
0.00743172
0.000564374
0.000522648
0.00130566
0.00750979
0.00108743
0.0071581
0.000605874
0.000851064
0.000249236
0.0022964
0.00695548
0.00202929
0.00742487
0.00511338
0.00434411
0.00240252
0.00641979
0.00450768
0.00635913
0.00395861
0.00487835
0.0074575
0.00736406
0.00443589
0.00722674
0.00707134
0.00463854
0.00655385
0.00196447
0.00407081
0.00249083
0.00413819
0.00718632
0.00638533
0.000917237
0.0048443
0.0037534
0.00226957
0.000672983
0.00521572
0.00202242
0.00433523
0.00103695
0.00279665
0.00135708
0.0059985
0.00740099
0.00466734
0.00394564
0.00685096
0.00390722
0.00358842
0.00435295
0.00703669
0.00562257
0.00690437
0.0052636
0.00342908
0.0060012
0.00381066
0.000677595
0.00407995
0.00441593
0.0048469
0.00324853
0.0012071
0.00240945
0.00448677
0.00548899
0.00346646
0.000981635
0.00102677
0.00487375
0.00349315
0.000339734
0.00161372
0.0020833
0.00414854
0.00156634
0.00328304
0.00420773
0.00390202
0.00108565
0.00483556
0.00427082
0.00244369
0.00668575
0.0023805
0.00315322
0.00334573
0.00350985
0.00198437
0.00487602
0.00613461
0.00751743
0.00236
0.00391545
0.00450628
0.0021878
0.00594159
0.000993583
0.00300914
0.00361901
0.000391605
0.00216801
0.00738025
0.00360217
0.0007161
0.00169403
0.00248806
0.00746455
0.00291548
0.0014064
0.0068695
0.00754437
0.000661478
0.00195984
0.00161469
0.00175592
0.00714019
0.00548665
0.00113996
0.000576665
0.00074578
0.00682627
0.00599309
0.000500795
0.00743314
0.00201446
0.00324486
0.00133894
0.00144902
0.00723249
0.00391682
0.000832399
0.00409536
0.00462486
0.00558019
0.00375244
0.00585219
0.00112156
0.000290491
0.00465468
0.00367517
0.000400452
0.000606212
0.000619937
0.00254786
0.00100712
0.00224867
0.000492103
0.00360803
0.00357783
0.000749326
0.00335716
0.00246317
0.000622813
0.00078681
0.000333916
0.00749824
0.00728288
0.000551498
0.00648916
0.00434962
0.00065354
0.00630129
0.00318873
0.00554153
0.00410564
0.00515171
0.00701433
0.000454653
0.000511444
0.0016749
0.000647077
0.00240833
0.0045829
0.00451048
0.00551083
0.00335637
0.00589167
0.00673572
0.00510383
0.00598483
0.000543273
0.000449546
0.00641573
0.00212551
0.00691008
0.00387084
0.00298009
0.00360858
0.00378503
0.00559127
0.000621394
0.00129693
0.00447087
0.00059255
0.0028666
0.00127504
0.00374657
0.00412101
0.00088124
0.00284499
0.00120596
0.00174144
0.00292863
0.00295326
0.00692352
0.00118713
0.00750647
0.00665691
0.00276731
0.00441924
0.00146975
0.00359597
0.00250284
0.00358947
0.000765145
0.00442888
0.00350631
0.00374926
0.00747672
0.00386009
0.00556521
0.00170805
0.000449901
0.00379656
0.000564608
0.00348555
0.00538229
0.00198751
0.00542265
0.00607316
0.00612821
0.00321353
0.0012202
0.00172633
0.00160019
0.000642317
0.00182433
0.00557678
0.000166025
0.00106282
0.00639737
0.00280833
0.00150329
0.00425287
0.00079264
0.00042732
0.00270958
0.00121004
0.00145321
0.00321075
0.000822776
0.00204944
0.00728954
0.00360779
0.00096779
0.000862125
0.00745262
0.0010047
0.00733835
0.00269748
0.0064452
0.00268968
0.00204484
0.00102969
0.000923376
0.00581893
0.00563703
0.000213429
0.00752912
0.00519809
0.00108618
0.00676414
0.00297337
0.00228218
0.00430939
0.000446588
0.0014957
0.000307014
0.00132974
0.00316861
0.00128616
0.00724781
0.00642157
0.00123258
0.00744734
0.00403323
0.00265414
0.00594573
0.00150425
0.000571981
0.00741021
0.00257636
0.00723771
0.000850539
0.00523555
0.000558444
0.00297958
0.00236715
0.00701521
0.00267177
0.00267506
0.00719664
0.00668505
0.00365324
0.0075445
0.00115808
0.00424401
0.00311285
0.00657711
0.00486611
0.00361562
0.00300253
0.0029545
0.00240279
0.00327955
0.00511205
0.00525824
0.00179201
0.000649022
0.000722366
0.000748777
0.00121648
0.000793756
0.000881574
0.00323807
0.000292031
0.000566836
0.00133949
0.00225402
0.00289715
0.000806279
0.000949789
0.00231213
0.00126351
0.00214398
0.00622985
0.00296544
0.00123176
0.00423856
0.000424297
0.00291788
0.000414761
0.00220747
0.00116146
0.00133385
0.000673667
0.00055289
0.00204388
0.000583627
0.00290017
0.00158252
0.00507641
0.00181416
0.00592593
0.00662274
0.00101361
0.00378168
0.000815665
0.00146044
0.00580921
0.00238679
0.00573367
0.00127063
0.000971097
0.00724769
0.00599091
0.0018072
0.000841915
0.00390684
0.00281917
0.00116349
0.00110021
0.00626682
0.00733716
0.0040265
0.00530082
0.000775282
0.00743894
0.000960173
0.000309007
0.00574875
0.00320153
0.00555175
0.00479701
0.000635812
0.00280926
0.00070028
0.00431341
0.00582552
0.000569927
0.000887636
0.00653304
0.00252933
0.00653973
0.00723738
0.00108099
0.0027393
0.000677072
0.00513744
0.00713366
0.00219493
0.00657806
0.00581612
0.00638585
0.00583764
0.00279709
0.00213207
0.00123918
0.00280301
0.0012931
0.00361352
0.00736116
0.00222063
0.00125354
0.000764593
0.000945595
0.000906204
0.00206943
0.000949835
0.00102963
0.000877375
0.000946512
0.00411533
0.00302388
0.00425043
0.00145389
0.00466857
0.00249867
0.0034106
0.00175785
0.000510279
0.00353012
0.00168146
0.00354618
0.00615078
0.00345752
0.00636175
0.00631633
0.00567408
0.00243284
0.00346643
0.00297034
0.00666123
0.00316112
0.00145455
0.000796495
0.0048895
0.000606552
0.00717047
0.00398234
0.00749736
0.00479467
0.00105946
0.00274325
0.00130848
0.00340925
0.00455913
0.00413069
0.00465343
0.00604088
0.00292963
0.00377624
0.00404625
0.00682256
0.000896985
0.00339744
0.00150879
0.00296719
0.00119972
0.00703031
0.00467484
0.00375176
0.00409479
0.00297485
0.00092036
0.00732901
0.00561021
0.000789983
0.00249405
0.00243722
0.00319762
0.00245798
0.00264248
0.00230108
0.00642835
0.00703273
0.00661311
0.00200614
0.00193552
0.00579918
0.000327144
0.00541023
0.00175066
0.00707186
0.00717533
0.00192455
0.00447733
0.00631972
0.0010861
0.00737933
0.00436945
0.00177193
0.00212406
0.00748658
0.00121482
0.00713183
0.00701135
0.00127343
0.00368111
0.00289688
0.000845362
0.00750166
0.00149817
0.00158216
0.0017434
0.00101345
0.00113169
0.00617786
0.00574808
0.00294401
0.0063033
0.00244849
0.0018526
0.00659324
0.00735028
0.00351243
0.0012332
0.00302233
0.00426924
0.00210995
0.00350475
0.00207938
0.00735016
0.00210932
0.00139058
0.00387926
0.00612552
0.00547291
0.00642395
0.00403321
0.00440038
0.00231156
0.00402665
0.000498703
0.00453121
0.00733347
0.000845394
0.00289795
0.000659103
0.000874479
0.00643157
0.00441195
0.00128895
0.00312204
0.000490398
0.00151839
0.00078704
0.0016414
0.000428857
0.00280173
0.00148113
0.00186891
0.000602164
0.00102506
0.00304776
0.000576739
0.000394154
0.00156814
0.000370132
0.000872248
0.00163225
0.00118657
0.000637466
0.000829815
0.0075222
0.00382687
0.000936557
0.000884633
0.000924039
0.00156718
0.00155056
0.000672573
0.00298181
0.00376703
0.00483588
0.00743301
0.00333135
0.0072889
0.000984597
0.00301834
0.00444198
0.00074873
0.00433901
0.00234389
0.00575443
0.00674029
0.00325935
0.00561116
0.0017915
0.00735345
0.00235906
0.000557619
0.00591435
0.00725942
0.00442172
0.00613778
0.00149613
0.00346304
0.00619909
0.00666516
0.000604242
0.00725835
0.00531661
0.00684801
0.00200866
0.00366829
0.00471578
0.00656606
0.00600597
0.00104784
0.00466089
0.002501
0.00694149
0.00723477
0.00735271
0.00579275
0.00500181
0.00380249
0.00710708
0.00371461
0.0038599
0.00308848
0.00110887
0.00133776
0.00414147
0.00202844
0.00442645
0.00277335
0.00349891
0.00380758
0.0070445
0.00319946
0.00436134
0.00653753
0.00198486
0.00479133
0.00322453
0.00119381
0.00497135
0.00291647
0.00141253
0.00396064
0.0011625
0.00230351
0.00104215
0.000385364
0.0029472
0.00638129
0.0023863
0.000484048
0.00273513
0.00697764
0.00723121
0.00726309
0.00460185
0.00489752
0.0074651
0.00749979
0.00454671
0.00318938
0.00727589
0.00726708
0.00752395
0.00648876
0.00325463
0.00196506
0.00319682
0.00673498
0.00428663
0.00088429
0.00642623
0.00682632
0.0037256
0.000486317
0.000680419
0.00380209
0.00533015
0.00620191
0.00323676
0.00403936
0.000572508
0.00196325
0.00551689
0.00411324
0.00717424
0.00403725
0.00211467
0.00371096
0.00331961
0.00427002
0.00140771
0.0019762
0.00137753
0.00109495
0.000263971
0.00153096
0.00194457
0.00419581
0.00431789
0.00370629
0.00333632
0.00711604
0.00483758
0.000431566
0.00742264
0.00188534
0.00102365
0.00346008
0.00304229
0.000512791
0.00197338
0.0047533
0.00395526
0.00750339
0.00313022
0.000908042
0.00397598
0.0017713
0.00295016
0.00283353
0.000542784
0.000815682
0.00388992
0.00406496
0.00109656
0.00548164
0.000700564
0.000706646
0.00109639
0.00741989
0.00735156
0.000234005
0.00686176
0.000473238
0.00230109
0.00349736
0.00110843
0.00101619
0.00712292
0.00746173
0.00100858
0.00712683
0.00694938
0.00572521
0.00733933
0.00447674
0.00564575
0.00243452
0.00659743
0.000344953
0.00337029
0.00623204
0.00437383
0.000298948
0.0044487
0.000513249
0.00567415
0.00436919
0.0042707
0.00116847
0.00587407
0.00402023
0.00593445
0.00078071
0.00214146
0.00215153
0.00136441
0.0030374
0.00704366
0.000859019
0.003126
0.00340233
0.00310911
0.00627767
0.00340063
0.00393452
0.00743099
0.00039779
0.00157186
0.00508355
0.00593346
0.00191735
0.00563627
0.0030779
0.00389429
0.00616104
0.00241432
0.00569093
0.00638015
0.00447931
0.00131889
0.0051461
0.00559986
0.00590433
0.00376856
0.00738746
0.00538988
0.0067276
0.00283916
0.00567316
0.00246272
0.00259135
0.0043527
0.000446762
0.00598153
0.00351887
0.000822208
0.000690305
0.00114516
0.0041715
0.00221075
0.00197937
0.000386289
0.00402203
0.00106782
0.00405411
0.00722702
0.00321022
0.00183506
0.00398682
0.00624846
0.0072061
0.00672229
0.000320153
0.00665581
0.00699379
0.00287912
0.000450832
0.000411258
0.00435595
0.000249894
0.000469317
0.00103014
0.0011222
0.000733484
0.000463998
0.00634197
0.000695323
0.00408777
0.00713445
0.00295073
0.000466531
0.00226914
0.00717731
0.00700308
0.000859316
0.0060436
0.000456825
0.00721749
0.00294921
0.0063406
0.00301194
0.000600491
0.0072266
0.00321669
0.0030063
0.00674683
0.0037318
0.00714967
0.00299439
0.00059019
0.000530835
0.000596986
0.00167713
0.00194086
0.00698464
0.00714559
0.00627678
0.00378462
0.00732863
0.00176512
0.00750501
0.00103823
0.00426213
0.00722111
0.00682232
0.00482878
0.00717034
0.00401204
0.00316665
0.00745277
0.00332043
0.000872649
0.00713187
0.00132121
0.000868512
0.0065265
0.000240907
0.000504804
0.00290969
0.0029911
0.00477559
0.00133386
0.00467302
0.00223258
0.00156305
0.00648237
0.00179267
0.00681065
0.00252676
0.00495194
0.00273717
0.0020624
0.000634888
0.00334988
0.00418145
0.000718916
0.00160978
0.0021544
0.000885108
0.00561309
0.00134953
0.00480532
0.00194459
0.00290848
0.00599868
0.00128334
0.00282583
0.00305326
0.00684932
0.000595977
0.00087827
0.000480293
0.00669019
0.00511663
0.000999189
0.000473656
0.00288452
0.00461921
0.00255771
0.00127085
0.00061916
0.00205334
0.00678854
0.00317215
0.0044402
0.00671782
0.00408581
0.000654819
0.00666615
0.00217983
0.00320097
0.00724663
0.00275572
0.0028203
0.00709765
0.0046328
0.00297154
0.00231491
0.000619036
0.00523535
0.0012837
0.0027078
0.00200132
0.00314456
0.0020538
0.00158836
0.00369333
0.00691211
0.00671172
0.00682424
0.000656138
0.00478896
0.00105588
0.00405621
0.00513323
0.00633726
0.00385862
0.00740188
0.00255057
0.00746937
0.00241183
0.00241426