/*--------------------------------*- C++ -*----------------------------------*\
| =========                 |                                                 |
| \\      /  F ield         | OpenFOAM: The Open Source CFD Toolbox           |
|  \\    /   O peration     | Version:  2506                                  |
|   \\  /    A nd           | Website:  www.openfoam.com                      |
|    \\/     M anipulation  |                                                 |
\*---------------------------------------------------------------------------*/
FoamFile
{
    version     2.0;
    format      ascii;
    arch        "LSB;label=32;scalar=64";
    class       volScalarField;
    location    "0.0180731";
    object      omega;
}
// * * * * * * * * * * * * * * * * * * * * * * * * * * * * * * * * * * * * * //

dimensions      [0 0 -1 0 0 0 0];

internalField   nonuniform List<scalar> 
47425
(
53.8123
70.3713
63.7427
161.576
114.219
70.5063
81.5892
102.758
49.6432
461.927
141.96
51.8265
63.1527
72.2438
84.315
93.6617
61.7532
54.9474
948.203
164.932
82.5813
48.2209
105.462
61.0159
50.4735
48.7085
69.537
657.929
62.7534
56.1158
49.836
50.0169
50.1071
61.7717
51.6621
67.1103
48.9772
69.5901
64.6706
71.8015
74.1804
52.4139
58.0335
145.603
1883.26
110.477
95.4462
81.3737
75.6443
50.1466
542.487
136.367
50.1348
686.326
116.66
122.854
48.7144
57.233
79.4219
62.0469
935.723
1139.26
752.195
51.1109
49.887
50.0736
65.5864
59.9191
718.828
53.446
73.3348
51.3743
51.2921
84.8873
585.863
49.893
730.324
78.8223
1321.38
196.97
616.674
61.1131
49.7088
52.9355
48.7993
80.1425
52.9171
49.7757
69.6122
313.41
49.7168
79.4685
49.173
115.578
149.38
195.825
50.363
49.6579
78.2806
81.5403
62.2501
92.2041
51.163
106.447
49.7442
54.3843
48.8835
83.8656
47.8049
50.1318
244.599
60.8156
57.0403
153.383
52.6134
890.398
51.7816
229.626
83.9266
57.414
71.4742
49.3959
60.859
59.0821
100.211
58.3175
81.5088
49.4728
107.497
49.5508
49.8806
102.546
139.194
125.756
51.5666
60.9612
52.3931
60.0658
68.5134
95.898
73.8243
135.626
70.1295
63.8891
54.1854
49.6514
77.7666
63.4308
153.199
73.9708
61.7806
483.746
50.3753
668.552
51.7886
84.6764
58.6114
851.821
97.2784
76.5569
52.6261
49.0557
50.2345
50.1665
344.745
779.845
50.0506
587.914
106.396
647.302
577.696
90.0087
75.6737
49.844
76.1443
69.855
698.113
62.2592
53.2938
48.3127
940.595
48.4586
55.6512
49.3769
49.1167
55.3159
55.6338
84.7427
146.201
53.0059
49.5961
62.2553
72.9708
78.0207
49.734
51.9262
63.275
71.6055
52.5063
72.5958
67.5555
122.406
48.1799
51.5984
54.4435
158.377
51.0861
51.7265
90.5515
50.1698
61.918
60.1112
50.9624
78.5291
60.1421
58.1903
64.8615
184.67
53.1126
97.6466
218.726
94.0834
55.695
82.6086
168.001
182.873
49.8616
124.116
55.1034
64.6026
61.4373
73.8815
109.646
49.4133
164.782
93.5354
243.999
120.131
204.461
180.94
76.7196
53.3328
48.951
93.3183
49.2295
52.6213
60.8204
66.9736
48.3826
71.2237
47.719
160.007
63.2907
49.7572
90.4033
49.0331
48.8971
123.565
88.694
50.4865
129.623
51.8165
70.6628
135.25
62.6731
94.2664
48.8353
63.2399
57.6786
79.3094
73.736
181.044
238.226
51.6318
163.019
180.512
166.773
130.231
220.279
180.578
967.512
52.0781
889.092
127.322
76.7148
75.1606
107.671
82.5771
93.51
53.8692
559.321
52.3253
50.3637
53.8088
59.7429
102.736
109.907
49.7225
62.7476
58.4958
94.5967
49.5206
91.8379
55.6928
693.107
941.925
644.883
48.5481
49.9453
49.4445
104.423
629.843
84.741
119.228
181.029
77.6443
105.048
126.183
83.4871
307.108
162.486
48.775
57.7995
48.8104
86.9335
48.7784
73.0544
56.6451
51.957
69.0893
67.7226
461.974
53.5796
72.6729
131.067
49.0944
486.499
51.8236
49.3386
52.6102
50.3841
50.6611
48.3844
52.2994
51.26
53.4744
57.0918
50.7412
73.8118
88.985
50.2745
51.0052
62.3207
52.6351
50.5493
56.1543
75.6735
49.2172
54.012
96.1871
65.1629
57.4475
84.8885
88.0079
49.0297
51.3274
134.809
51.036
66.5432
49.3809
135.182
612.078
72.9884
49.0605
200.399
49.0877
52.4262
97.581
73.8701
48.9458
66.688
49.2921
47.9495
75.6917
89.8313
83.9455
86.185
51.4517
52.5817
84.0507
51.4548
51.0173
80.4807
55.1363
64.476
51.4488
59.6875
90.9403
67.9429
49.8204
419.247
49.1059
286.625
74.501
109.364
107.762
49.9876
143.769
48.6292
96.7021
50.7107
865.132
307.581
51.0756
53.8851
74.759
79.2219
78.3912
76.9882
69.7913
90.9251
68.5149
48.6863
99.8683
63.344
50.3419
72.3172
66.4644
52.5195
149.873
1094.19
51.1508
290.19
902.893
92.9141
910.335
789.288
51.5535
72.3553
67.5991
68.4478
595.408
94.0282
50.6558
52.0055
64.4923
66.203
81.3853
78.9354
363.885
606.109
138.918
67.7344
77.6189
69.9146
53.5313
51.3395
60.1959
51.8183
86.5804
76.468
133.055
67.9784
49.4828
74.2189
57.8639
82.5033
52.1065
59.2885
64.2367
69.4371
64.9588
110.548
128.773
57.6216
87.6739
52.178
400.043
130.154
74.7427
51.5808
142.868
144.784
52.0457
49.4715
52.3701
54.4511
64.3593
53.4607
112.804
69.1375
51.9513
53.5637
154.766
99.2175
48.5566
55.8535
55.3911
60.3631
49.9057
51.8259
48.7284
66.5175
56.5319
113.251
58.5272
48.575
48.4898
52.9428
74.4251
131.109
50.7122
49.0367
56.5587
52.437
53.1227
57.0775
74.2657
68.4991
54.8223
77.5452
101.814
398.239
62.2149
69.4671
56.5109
49.6167
108.963
109.827
81.3768
52.74
85.3968
70.8032
51.2071
119.972
49.4393
271.366
55.9479
56.6035
59.4059
108.137
47.9231
69.9863
68.6708
49.1969
48.0849
51.1977
1049.41
57.6406
155.128
49.0648
89.4951
52.5035
57.4091
78.4474
71.5495
71.8131
48.588
374.154
52.2094
55.1958
51.8493
51.0639
48.7683
61.6296
74.5136
52.5581
51.7256
67.3578
48.5616
190.785
49.3518
61.1209
446.598
72.418
48.9958
322.966
511.45
49.0719
629.524
678.572
67.3103
52.6586
50.9049
48.4962
88.9327
93.8669
371.897
49.6178
134.828
51.7646
93.6825
60.5082
87.5964
68.6299
346.567
157.033
51.0583
89.0549
79.8084
77.8717
123.948
128.211
51.1027
94.7084
133.956
69.6142
69.8333
119.845
55.3757
50.6042
123.121
97.0844
72.3752
127.914
106.184
60.1888
75.2846
55.8646
59.6657
71.7542
51.5953
49.7679
1343.72
60.534
64.2485
996.118
967.705
47.9315
79.8462
1552.03
177.19
91.2122
195.734
120.192
699.196
55.1962
50.2218
64.0435
144.198
115.162
113.897
49.6992
122.383
62.7047
76.3587
53.4903
82.0886
55.6706
297.944
617.852
125.231
57.81
88.1788
50.5736
111.813
52.5949
63.622
66.7494
68.0921
50.1906
189.968
79.5102
49.1611
77.232
195.01
799.741
191.776
90.8294
50.846
75.9465
48.7049
827.503
69.278
452.711
85.1234
76.1675
57.905
70.6479
62.9507
77.3757
59.0943
84.9918
51.1034
210.921
72.252
49.4516
66.0414
91.6815
973.431
57.9238
207.231
62.1284
49.2349
48.1611
150.13
75.8667
66.005
50.9259
64.2855
59.9914
75.3932
79.8162
79.9373
62.0123
124.84
196.465
70.4412
97.9646
65.6443
116.939
88.7799
48.6323
52.5581
55.9175
68.5894
77.9764
49.2417
311.216
357.471
96.0985
66.7411
49.7379
93.084
51.1262
140.603
52.5293
197.271
86.1035
48.6814
77.4813
49.8295
58.1962
68.6434
50.0972
89.1666
50.4586
50.1775
51.7625
170.51
47.886
358.796
167.982
224.098
353.762
82.5352
95.3858
59.3283
55.3036
139.62
343.06
353.661
79.0433
56.7422
77.8841
123.783
156.54
134.966
94.3307
53.2764
65.6836
68.9326
118.887
58.6723
86.699
293.569
63.0963
67.9219
154.041
118.529
113.356
83.7601
608.262
378.046
220.375
247.471
81.7923
123.668
49.2984
49.2625
73.8724
396.247
190.703
72.5446
75.314
48.6587
328.511
356.575
48.3021
173.387
90.5895
48.7566
170.979
48.3068
48.6797
70.434
73.4008
92.2144
50.9183
48.9441
57.0501
71.3117
69.8018
144.389
96.8155
47.8865
261.845
51.0749
48.085
48.7797
205.981
81.9815
211.158
109.57
51.9675
51.289
70.9215
1040.25
73.3511
84.7733
82.739
66.9288
65.3857
122.495
123.974
128.72
366.409
84.2366
673.821
49.8204
70.4051
52.6054
65.1476
48.8429
169.959
132.143
49.2025
383.478
108.511
66.8665
187.043
70.0805
52.3587
72.6544
70.1858
70.8093
102.885
373.212
66.1811
70.05
210.147
225.371
649.62
221.777
92.1944
185.977
50.9157
49.9816
95.1821
108.999
87.7807
85.1472
96.5431
102.025
50.6931
62.3176
110.743
102.573
92.8108
137.661
1049.26
86.1147
61.5593
105.92
371.593
177.863
225.876
96.1781
68.4706
97.9369
95.5742
75.0986
49.1366
53.1265
98.3121
354.173
114.065
69.3101
95.5945
51.3838
110.732
132.507
79.4399
333.674
52.3178
68.1092
131.734
98.2985
68.0386
69.5192
105.872
98.273
93.8464
65.8513
138.835
53.2292
50.8296
53.7706
88.2215
56.6955
149.395
53.7927
227.21
307.329
149.216
88.1229
84.6738
50.5036
71.06
116.751
466.994
186.899
632.341
50.6558
60.0228
55.0336
224.819
82.4913
306.714
241.382
236.461
76.7681
264.129
86.586
77.5403
68.2639
54.0787
69.1915
70.4741
74.7336
135.921
76.7125
56.4112
55.5394
271.374
466.509
153.001
177.834
588.686
193.233
95.6199
79.5819
78.9231
109.68
186.035
190.362
617.781
52.1555
57.8926
65.8424
50.9177
68.0899
103.647
93.3636
55.7501
110.243
53.1424
77.6852
51.3241
50.5773
125.074
64.455
124.765
52.5664
50.4144
163.975
50.4128
84.6038
97.4332
51.0152
63.2095
115.545
65.3306
63.6645
73.1718
243.916
187.068
126.281
105.702
1802.24
966.199
420.374
406.248
109.674
56.1869
1082.29
363.213
55.9108
70.0386
109.978
88.9573
332.776
140.067
53.4657
117.718
59.9845
51.0069
205.284
865.037
134.563
1250.55
145.382
252.84
1155.81
56.4441
80.9492
134.643
203.108
97.6847
53.4004
54.026
751.049
52.5177
267.333
64.6422
167.405
49.6812
55.7801
412.407
411.914
87.7399
60.0423
64.3765
342.924
49.2668
48.8437
303.409
450.108
74.646
50.1515
1005.35
768.634
399.563
101.385
131.816
344.843
430.493
75.2228
108.435
93.8624
56.6801
92.2141
396.889
1470.84
63.2254
62.396
60.2896
51.209
54.7441
79.0742
138.318
65.2219
49.6931
49.6967
67.8173
323.185
1201.37
52.4365
243.359
90.6479
70.4637
156.198
52.1024
87.9762
63.5009
55.6999
202.404
51.9917
462.391
48.4592
769.441
518.716
338.017
205.852
66.5589
66.3932
107.442
51.8444
204.896
1533.68
108.695
313.157
195.445
427.908
139.045
782.532
522.674
95.0982
50.5979
1578.08
79.3735
50.4722
72.7563
457.202
993.745
77.5632
54.8014
419.37
81.3047
613.891
695.444
111.851
130.739
924.522
107.583
54.975
627.909
51.4346
876.591
1005.29
50.0761
63.9876
79.5001
55.6065
128.586
93.4217
52.4056
127.233
91.1517
120.499
61.8678
50.1396
140.4
71.5091
693.685
56.5501
96.666
130.747
50.5256
742.036
84.246
118.499
151.626
454.706
86.6927
707.976
183.871
135.289
58.2822
1323.28
224.437
254.387
81.3053
156.178
62.6444
76.6109
65.6391
305.773
306.49
97.0791
664.42
150.752
103.347
276.927
131.157
148.465
661.681
172.741
49.2724
152.045
85.4363
148.741
230.538
861.053
57.6452
53.2399
63.8014
723.311
65.3823
345.844
63.1281
65.3362
51.3844
116.093
61.4021
201.055
218.344
56.5849
66.939
94.9928
77.9824
929.609
185.901
100.825
694.801
296.943
122.411
153.83
66.16
60.9902
885.169
60.7095
708.509
190.467
53.8528
62.4369
71.2535
96.3912
59.6692
72.7649
108.221
82.8214
71.8417
70.2997
77.4027
129.858
68.8825
202.893
160.578
127.617
55.362
703.777
349.373
62.8361
471.275
351.751
53.7966
118.327
467.422
230.861
53.7134
105.175
245.067
159.805
355.278
55.7662
530.782
100.929
52.4509
68.5766
113.614
152.775
129.791
67.9997
226.116
49.1554
299.387
112.706
1072.87
147.62
67.4165
123.41
201.774
60.29
122.104
75.5981
98.933
627.68
73.0992
68.3511
911.638
48.4497
81.5631
389.334
58.4832
190.656
812.242
152.322
81.2422
74.8568
920.506
207.898
346.326
188.288
80.7448
63.0935
107.385
520.126
837.554
160.024
91.653
51.8014
87.7133
87.0282
132.123
314.751
96.7885
55.7934
59.3341
57.9084
52.3382
89.4469
53.751
53.0813
125.076
95.4533
49.3726
133.998
142.083
65.7101
51.1167
135.87
60.7673
50.4137
53.1906
106.691
98.5906
51.3865
99.5572
570.756
90.6187
54.6174
53.6463
48.7264
191.437
63.726
53.3956
582.073
855.52
289.179
50.8146
581.611
159.622
50.8977
861.11
107.056
840.114
95.7919
69.9631
86.2771
71.8395
48.6549
86.9262
87.9127
94.9076
112.386
85.0148
107.228
151.123
82.5869
75.1973
401.681
89.2146
1186.77
74.4876
617.666
50.2706
122.574
188.815
51.312
69.4719
194.478
48.5322
220.913
258.553
1178.15
57.7372
559.114
55.2253
115.263
124.158
55.1903
510.333
60.7894
250.752
53.7595
652.064
645.706
79.2881
48.5494
299.979
73.9462
283.751
73.0053
98.7805
71.0428
70.9557
55.5988
52.7986
75.0222
203.992
63.9976
180.34
88.6675
79.3818
49.769
154.881
227.925
90.4463
193.134
54.4503
66.6529
122.075
84.9191
71.4329
55.3727
157.709
130.424
49.2991
82.7914
65.7238
71.2434
95.53
189.118
221.397
77.9944
95.1852
202.765
87.7116
52.5369
63.6432
50.2054
177.222
169.307
204.116
108.088
71.8422
69.1527
71.0115
53.592
51.6369
60.2004
442.606
131.002
623.829
459.571
579.206
55.1437
63.3664
63.2077
67.2222
53.1406
284.746
71.5525
48.9233
82.0079
108.744
70.315
202.793
67.6835
159.222
92.3113
103.556
51.3909
70.4025
89.4306
93.9479
65.2732
119.552
89.3472
113.266
78.8487
72.5386
77.8659
155.431
178.61
59.8227
86.0098
130.34
100.77
171.612
49.9548
51.2844
132.49
62.2167
53.96
78.7564
50.2376
50.1789
74.4673
78.5287
234.852
70.8487
85.3013
49.3779
68.5222
524.415
82.5164
87.6497
55.2639
61.4222
91.9676
88.3385
872.978
109.633
196.497
49.8987
58.2941
73.6965
49.3558
52.4013
111.309
86.1448
51.5637
48.6804
218.072
105.238
460.049
124.097
177.737
105.963
67.6376
112.377
408.187
182.911
85.6536
78.9298
884.545
62.6469
81.2526
93.2679
88.1025
49.9331
927.124
65.8636
97.8204
53.154
128.725
60.747
923.806
974.629
67.3134
52.3336
48.698
94.5306
99.8658
56.6369
1139.96
721.119
61.9484
143.302
373.869
60.3882
54.3712
106.943
48.8734
58.9358
51.2212
72.0531
114.876
88.1958
78.4746
52.1835
62.1637
73.471
49.5349
243.148
65.0629
105.966
133.756
357.353
248.074
106.025
135.232
67.3283
133.445
126.401
51.478
571.961
254.618
131.568
87.7529
107.428
95.1941
93.3649
217.115
48.6375
49.1854
65.9135
70.1948
133.374
82.9878
352.955
428.076
53.1708
132.227
49.6082
50.1767
80.3588
60.9505
69.9544
53.9396
48.5853
249.636
389.665
49.8304
48.4505
122.23
989.957
56.8587
48.2229
62.2548
145.593
880.341
85.8715
319.85
224.515
274.791
326.065
74.5146
52.2242
48.6326
61.314
912.322
53.2916
86.4556
82.9381
48.8437
521.757
971.084
948.56
211.622
181.235
53.4041
51.4318
55.6083
78.4958
549.118
481.002
356.315
525.519
359.779
62.7968
50.0116
805.55
51.0147
871.59
96.998
865.711
82.874
130.426
51.0121
128.741
170.489
172.485
50.7823
67.2909
93.6448
85.9397
67.9233
74.4374
70.7214
1114.27
517.71
82.0523
270.487
386.829
254.646
65.0272
50.2064
424.187
459.569
393.095
51.151
906.481
51.9032
907.453
1174.48
473.717
190.767
53.3205
60.4829
48.3324
72.0229
85.1988
146.183
60.7289
81.8784
57.3565
96.0709
74.6161
49.0302
49.4275
108.2
50.2863
51.1333
81.8167
56.1903
88.626
93.1998
159.161
92.9685
50.6457
63.0686
111.004
73.3992
96.1514
126.071
1227.37
56.0518
407.405
65.1163
97.3396
261.068
75.0809
59.5704
49.7315
71.2619
94.2196
52.9675
96.1134
102.751
83.3874
53.7071
64.9732
52.0585
68.2138
113.625
62.5278
102.132
295.355
89.7074
82.8575
75.2455
114.084
88.589
251.546
50.4253
66.3517
109.798
241.484
252.084
74.8298
110.301
905.814
248.295
189.599
92.2736
74.975
115.746
87.6105
52.6458
141.572
80.0059
88.5176
227.497
55.3505
165.952
117.45
118.712
107.155
205.115
78.2782
60.5743
49.6795
57.8617
90.405
83.905
519.729
61.0302
90.6326
130.506
102.157
824.483
60.6522
49.8662
105.995
287.791
317.354
157.633
50.2691
136.261
70.4481
54.4216
49.5846
514.833
103.398
63.3639
311.555
52.4707
66.5211
154.219
662.998
885.891
55.8292
68.3075
811.021
49.1737
138.429
86.093
466.092
301.809
51.4324
94.6259
576.625
93.8442
64.5948
64.921
101.77
56.0306
71.3496
377.361
52.4984
101.186
477.636
153.879
547.605
81.2747
400.599
57.2324
1062.88
108.394
107.483
534.018
128.295
212.258
393.142
343.922
300.657
49.2462
50.3608
382.46
59.5392
87.6645
361.046
61.4912
63.0397
66.7342
106.522
72.6115
53.1276
716.899
371.184
138.829
311.205
167.887
84.0277
84.1051
71.692
115.726
64.0798
54.7682
76.4802
61.8171
314.442
326.744
59.0139
58.8603
52.9927
73.0738
105.783
108.056
99.118
71.6326
352.553
63.6935
64.5044
341.724
132.113
463.433
107.05
90.6509
594.652
139.848
112.066
275.138
135.317
128.109
53.3003
842.369
49.0257
54.0915
59.0191
89.0194
72.1767
103.932
146.282
104.826
149.454
81.9997
113.778
102.592
48.7325
159.927
70.9587
415.936
1251.32
96.4422
331.657
96.6583
68.5492
570.057
67.1299
59.8017
63.0557
87.8789
593.027
249.948
57.5054
304.788
274.459
66.0273
1762.6
348.343
61.2024
247.944
67.7417
85.4785
230.551
378.368
148.741
697.555
60.5645
55.4303
160.954
59.5577
51.3685
108.384
287
429.216
48.3772
142.038
51.6527
148.094
60.2459
147.658
241.801
92.4999
259.496
64.249
66.0916
721.057
49.8046
52.9061
124.05
54.7632
132.278
269.537
52.3155
928.308
499.383
818.32
389.621
120.025
74.6207
50.2809
57.2377
86.8765
49.4335
90.832
150.683
61.645
79.3479
575.702
49.8701
146.22
51.4635
130.699
65.8965
696.093
125.493
87.7203
50.55
139.638
151.866
51.5964
57.289
100.602
48.0884
207.238
83.4971
108.352
59.0057
52.1578
104.819
54.0638
131.207
224.227
52.4489
63.2645
51.9961
67.1486
358.942
228.431
139.411
375.273
742.778
230.788
76.8273
586.066
397.991
549.508
69.8806
175.026
254.31
285.21
229.536
855.058
61.2478
54.0352
168.844
656.258
57.1938
362.663
96.1992
366.938
75.6399
75.8092
513.238
268.433
350.606
65.3507
322.578
129.085
398.078
50.8514
216.153
61.5626
55.7447
97.9011
97.3739
313.394
113.134
64.1293
164.379
65.6803
206.341
290.8
52.0735
65.6682
61.5752
863.234
75.4185
131.734
144.212
142.782
58.0914
51.2514
95.3189
69.0144
335.814
50.2332
106.484
344.297
63.8717
55.2251
68.3127
65.0599
507.945
140.024
188.534
84.4519
63.927
1147.65
1337.05
56.9714
149.377
56.8133
51.456
324.724
72.8621
466.663
56.6277
51.8037
97.4726
58.7346
55.5912
58.7017
65.0266
139.74
175.849
184.663
171.227
72.1283
78.6037
50.2426
172.356
515.679
832.02
75.5512
423.61
191.004
585.647
87.3546
376.173
110.977
101.266
130.631
88.447
275.091
70.8419
163.188
110.15
62.7567
983.995
109.109
458.912
109.601
59.5705
110.437
61.7393
59.4696
63.8932
191.167
105.238
120.633
54.0066
120.063
352.699
134.454
75.4665
168.501
55.5848
59.8025
48.9928
78.373
82.2275
150.462
76.27
100.335
79.3409
69.7919
80.9578
59.3921
68.8495
59.5659
153.544
56.0723
105.165
56.3731
71.0048
129.933
80.4793
52.5525
81.4858
96.3223
93.5856
130.261
326.293
49.3853
84.2803
329.634
160.321
156.669
55.2146
158.009
86.6758
210.202
58.0247
53.0251
57.3773
124.056
62.893
62.2619
764.523
80.1907
277.984
52.667
50.4713
164.813
84.3545
59.5836
128.323
50.1118
85.9235
60.0116
304.743
49.0075
156.61
51.5114
53.0087
80.3139
67.5177
133.853
107.756
48.6416
174.82
69.4955
74.9066
93.6308
689.369
60.6044
64.9735
131.417
63.8839
57.7775
129.634
55.9506
50.5183
108.555
189.085
127.693
88.0457
297.198
112.531
317.506
50.3329
183.23
69.7545
94.3758
67.0902
56.4682
60.2715
62.2434
84.4528
165.559
66.5933
512.716
87.787
50.8982
452.08
132.747
1672.52
302.855
67.1386
86.5213
106.578
123.31
410.182
69.0078
373.716
93.5269
364.972
67.6533
299.216
68.3585
236.342
216.14
130.39
351.721
420.482
703.148
1238.36
487.416
750.224
213.446
355.628
375.394
49.0685
99.9256
295.741
74.0777
534.321
61.4926
410.074
568.262
127.579
104.075
77.7424
48.6071
113.542
50.0444
261.542
134.888
86.2021
179.874
83.4844
157.624
64.7862
56.5172
116.149
55.807
221.801
50.0057
72.7573
679.006
61.475
51.8305
84.4837
59.2622
446.277
191.958
66.7483
56.3174
183.112
50.212
69.3823
55.7709
58.7927
100.898
79.4816
55.5297
60.341
311.967
76.7661
63.6105
54.0809
51.8197
50.7858
70.4015
74.5531
99.0622
51.5888
73.7332
95.4947
56.8165
226.001
77.8072
55.7282
65.3385
84.7903
144.543
112.16
100.191
52.4285
121.469
86.3069
58.0656
61.567
80.9522
76.3874
97.6415
75.6616
133.24
70.5995
78.9887
119.711
206.533
660.533
1049.29
131.585
58.4767
313.298
174.156
99.3548
52.9846
50.7636
52.335
78.9339
76.1258
49.2434
50.7929
53.7294
114.89
52.0028
50.4745
49.2831
57.8984
154.748
59.2962
119.869
55.3672
86.9281
281.83
56.6593
54.2109
64.2373
977.969
1028.93
101.257
71.3502
62.0077
60.1016
73.3519
433.666
70.367
67.6101
93.1159
52.9735
91.7034
58.3766
67.4322
115.272
85.1778
67.6472
206.799
191.362
69.7983
1879.66
171.895
203.501
63.9208
83.9211
101.216
118.875
51.7155
75.2919
316.79
50.1167
204.111
530.754
111.213
128.117
483.5
74.4661
76.5489
95.2333
48.9291
125.399
350.157
96.4387
89.6678
243.169
194.405
1052.57
586.614
94.9056
52.7272
145.009
66.391
178.079
143.997
502.522
50.0443
49.8746
549.318
54.701
206.666
74.3255
107.585
601.316
745.993
52.3353
49.3673
794.483
52.4816
52.7914
62.6411
49.7708
86.0184
70.253
231.272
57.0449
551.61
109.079
52.2699
82.1448
672.71
84.0347
590.013
66.0469
60.5273
86.6539
88.9547
62.4136
79.8878
60.4931
517.855
109.104
111.166
408.11
122.181
53.2005
530.881
93.8458
112.737
76.3606
68.2111
111.304
71.8146
51.4638
252.554
72.0913
72.9881
60.4906
102.704
66.0526
62.1202
54.9021
59.476
157.995
64.6448
57.7669
83.3847
368.018
70.65
66.0364
62.7805
97.7728
49.1174
69.3832
56.1638
135.082
68.2399
144.564
151.624
83.2948
393.257
60.5676
60.1892
300.774
332.724
567.384
88.7489
321.941
59.908
418.744
96.8792
232.155
97.6459
51.2557
111.371
212.128
96.7274
59.7937
51.9877
54.3625
460.687
54.8067
53.326
59.3908
2215.69
384.692
51.0386
1461.12
385.341
317.494
159.172
1407.46
337.831
62.5625
304.918
93.656
51.9206
305.52
888.631
68.6806
51.3969
52.219
520.208
55.3461
870.689
51.4048
131.259
65.1027
130.013
325.39
51.7026
118.542
121.251
55.0701
106.904
50.6126
128.122
1695.91
1758.84
631.635
96.0396
367.771
49.6069
51.1938
57.2633
100.398
50.0714
60.362
49.6477
77.1462
92.1462
51.3245
53.768
77.766
51.7266
94.4129
120.416
49.8943
115.647
133.661
53.2862
60.5593
832.176
58.7824
773.576
592.42
133.365
137.08
77.0051
121.731
60.0592
58.1102
306.299
57.0344
65.3599
55.1071
59.0225
75.0153
135.819
97.857
184.627
113.588
54.0573
496.055
65.6427
278.559
219.019
66.204
894.658
69.6105
62.8167
61.1691
62.1187
75.8979
55.1661
116.138
54.2932
348.769
206.006
377.737
56.3359
58.0635
84.5043
356.65
263.689
78.7886
147.847
68.6617
316.208
68.0522
59.5903
352.205
87.9412
55.3979
93.363
1128.16
56.1392
61.7714
123.564
52.0501
135.859
137.913
52.8169
78.5591
199.552
173.113
748.046
69.9065
312.958
264.438
237.491
57.3689
185.83
100.803
106.421
55.0911
54.6976
56.039
464.812
77.6071
104.374
127.3
73.0089
58.6226
94.482
49.7596
147.227
49.2803
65.4662
169.465
107.242
75.4846
170.912
100.862
83.8084
77.3619
128.773
49.348
186.145
379.269
111.738
62.9929
50.1533
164.615
56.2542
50.3349
87.078
50.1995
110.035
91.2047
49.184
52.1006
104.463
173.429
181.626
49.6967
740.445
49.4282
99.7988
87.3564
49.7476
714.537
151.898
645
51.0365
68.0158
522.666
667.055
93.353
99.799
189.643
129.375
57.1757
71.3288
64.3326
150.022
83.0992
136.364
51.1156
137.365
102.688
114.487
53.6149
91.1653
49.162
62.827
498.111
194.588
92.9379
54.4431
108.576
88.605
87.8131
146.052
50.6063
53.6298
65.4269
89.5567
86.7848
65.6668
116.801
59.7389
56.075
54.2582
67.0201
61.8659
56.9657
138.678
75.0681
66.2068
1645.44
78.5727
63.9511
80.5422
49.8916
87.7213
209.866
53.5884
83.8965
81.0565
990.772
66.1686
60.4858
96.0119
1413.43
96.6239
155.926
126.437
70.5999
49.3937
70.9414
67.9361
775.148
101.932
70.541
65.6357
51.1527
228.957
52.6234
722.833
212.747
113.015
77.6111
62.2519
110.811
94.2667
62.8417
411.46
119.861
334.116
51.7716
140.785
620.722
120.122
54.4888
104.399
55.4946
657.465
64.9255
57.0981
90.5116
48.7808
58.6581
84.8855
51.4998
168.669
50.6593
296.352
49.4983
80.0887
62.7179
153.477
90.3708
131.115
93.6491
532.216
100.97
122.572
76.8825
51.8003
103.408
60.4021
55.8175
74.8142
71.8212
61.2289
125.975
49.6573
61.7563
50.4951
251.89
87.1749
450.904
522.788
243.864
160.907
67.2673
70.4218
57.2559
191.779
91.5933
53.5254
52.109
113.104
91.0557
51.8348
77.9921
1024.61
95.4648
64.9774
69.5141
459.543
821.569
62.6754
509.941
560.338
216.478
257.409
169.884
423.618
72.9929
225.527
714.42
72.2092
50.3196
57.3871
99.89
318.389
52.9128
50.4853
70.7669
152.528
157.356
1001.03
115.014
931.017
118.396
61.2836
88.0512
71.0923
62.0773
608.653
61.8967
243.91
462.302
60.1316
635.292
2157.97
58.5802
109.778
93.1293
434.582
155.048
122.309
690.975
988.145
99.5598
514.813
131.613
326.386
82.6791
52.4532
154.711
636.652
606.198
63.4073
111.324
145.117
97.9544
225.844
54.4798
63.3345
859.074
256.971
417.643
48.6995
342.246
65.2534
384.725
64.2232
104.55
189.328
334.958
85.7696
110.596
352.645
99.5296
465.223
81.6715
65.2076
295.246
52.2216
156.688
51.4632
52.8075
49.9196
82.2514
384.099
445.004
281.326
63.6393
67.1437
248.473
62.4233
417.072
71.9081
57.2823
80.6984
162.784
154.257
548.47
51.2979
76.2342
69.5533
317.444
109.279
573.364
834.512
418.962
106.146
66.8241
357.857
388.152
149.271
56.2097
65.0036
48.8348
726.249
225.956
334.231
1952.31
242.033
95.5484
85.7414
706.628
400.107
68.7901
91.6487
106.748
436.256
58.4126
50.2843
92.0635
70.8225
580.302
317.75
234.868
105.538
222.765
414.588
174.801
96.3561
758.475
266.529
662.959
210.083
273.663
560.255
159.591
62.0018
102.418
61.112
53.3441
71.9424
68.3302
150.421
208.132
85.8114
179.492
182.241
146.272
62.6183
190.943
102.456
66.6251
129.777
642.456
1054.22
505.052
70.9717
116.345
72.9441
185.912
496.282
154.684
396.232
75.0458
392.342
307.043
189.711
51.7829
50.6396
69.7616
66.7743
596.662
88.9601
56.9283
315.615
70.7662
781.688
385.351
102.029
394.185
62.1808
49.3943
49.6082
49.7413
102.058
69.1663
93.9604
135.036
73.3311
49.9155
170.351
613.605
482.399
50.2154
106.223
57.5235
67.9662
57.0068
615.87
55.9698
54.8435
54.4952
97.4475
51.8986
53.0332
92.5323
55.4727
57.2533
58.7017
232.152
50.4084
63.9569
112.545
398.436
396.851
65.9795
604.853
507.294
58.5287
59.0458
163.369
65.4336
205.696
84.9385
91.7448
80.5511
190.286
73.3593
92.6536
954.48
370.309
104.242
565.323
52.277
50.7895
66.0487
50.6379
49.129
72.6953
55.4641
72.4531
190.413
75.9077
418.607
91.1049
410.347
78.2588
48.4919
601.85
124.11
84.9524
531.852
102.531
608.113
73.5629
398.549
49.7483
170.438
90.235
241.088
50.7432
87.0344
77.9064
476.714
50.2224
48.9369
61.9235
82.4407
120.995
60.4009
61.5335
92.7475
52.133
125.567
52.7632
63.8875
146.479
89.4497
164.49
63.4117
51.949
58.5674
49.5836
57.348
115.641
48.6635
87.113
49.1909
238.544
120.729
56.5509
114.208
110.579
61.953
83.2436
63.9437
130.013
159.875
55.9759
51.01
89.7117
76.7676
372.185
508.105
473.374
65.238
54.3589
55.3549
61.9496
83.8154
802.479
240.745
65.8702
58.0806
65.9359
52.2362
50.356
74.8838
137.402
170.182
441.434
202.83
60.5421
77.4055
81.5096
48.5833
260.912
74.4558
71.8095
116.79
56.463
918.754
76.0327
54.7428
68.2432
69.5693
155.325
461.561
49.701
414.933
60.6665
720.513
109.877
502.878
71.3468
52.6858
59.4126
106.415
56.9455
50.2133
121.989
48.1367
50.384
53.2574
63.9774
200.535
64.311
729.48
76.9456
58.1486
133.917
172.161
49.4766
406.008
894.892
733.614
523.065
407.451
52.9475
401.351
366.51
82.8339
62.2403
58.7168
652.295
94.0036
98.8572
49.1945
73.4883
252.964
650.896
156.638
82.4904
48.3369
69.4825
246.504
52.0315
56.8598
513.213
436.487
228.901
690.735
75.6673
48.3667
70.1685
78.8091
1069.38
49.9029
50.2431
49.1174
299.665
49.6577
58.1266
98.0336
99.8349
49.5151
102.14
52.0575
147.912
72.197
137.564
61.9606
200.32
92.0277
116.426
174.062
114.807
207.845
57.7345
626.346
93.2229
315.985
315.551
323.08
83.0955
85.5837
191.994
76.2036
48.2495
54.4949
50.9996
89.5819
570.39
120.551
50.2745
84.9287
62.8735
49.4337
117.438
59.2292
137.835
99.1155
54.0628
103.251
57.2098
72.6449
224.839
478.251
66.28
101.779
81.9443
107.268
514.712
203.303
475.558
795.836
142.4
54.4235
55.3982
49.8148
108.898
793.622
83.244
770.989
131.054
52.6693
120.295
381.485
53.9951
53.7001
58.6746
74.8222
53.6004
230.29
65.4813
87.8975
218.061
49.7253
101.246
56.9637
128.731
57.7847
58.9374
595.789
77.3148
118.522
59.7088
66.3569
49.8075
106.975
123.502
97.2153
94.3709
73.1232
62.1438
68.7163
58.1883
233.466
58.2489
57.9951
119.173
218.277
236.773
53.8392
92.9541
115.205
170.22
70.7747
220.048
57.2378
135.719
99.532
59.7655
152.89
85.3833
56.606
213.839
93.3603
52.714
52.6002
212.697
91.8082
102.618
55.7087
115.895
85.7879
50.644
96.4819
350.436
77.816
69.9664
88.8873
597.055
70.37
85.6494
154.932
62.3052
157.973
55.8452
667.21
85.8282
79.0089
86.0375
56.7856
117.454
56.3363
416.806
49.07
74.0429
577.883
59.6885
114.644
205.51
96.4332
53.1889
479.807
54.5549
50.0919
92.3734
130.535
56.1691
289.488
49.5566
383.341
106.329
49.7539
80.4675
121
662.265
182.768
74.1748
51.7705
128.764
341.773
486.594
118.776
127.088
942.929
205.387
196.197
132.372
85.2835
105.639
61.6615
524.879
929.247
154.321
176.515
101.771
870.279
463.956
447.913
374.46
168.66
61.7613
57.135
153.107
74.7033
517.087
340.585
75.7414
676.161
110.855
53.3498
62.5574
55.2927
109.634
88.7787
92.59
79.9225
144.157
185.099
834.826
58.3549
120.38
637.337
579.969
182.552
186.602
67.967
687.408
48.7187
65.7111
367.039
148.703
51.3787
289.353
384.994
65.9246
121.348
54.7039
104.364
55.6556
81.6229
178.922
88.6565
546.958
49.0158
57.9361
90.6963
458.488
178.634
124.944
169.251
195.876
123.67
69.4894
366.678
109.755
73.3365
201.836
767.504
270.174
57.7286
308.734
160.682
88.7041
68.6046
126.414
51.3176
88.8948
83.6929
79.2563
72.6419
63.5267
86.4913
50.5246
49.4912
49.5793
103.388
54.5507
161.711
429.262
668.687
91.9561
77.6103
56.0202
56.2326
105.967
600.845
57.5774
147.322
74.2009
177.939
58.4731
90.7195
64.9601
337.808
50.1096
55.7152
238.025
54.8221
70.4697
88.5958
59.1905
341.899
80.4146
447.712
348.923
259.91
576.027
176.376
375.245
74.1195
103.856
146.478
59.995
356.121
94.7878
87.0211
143.597
77.1262
71.3019
51.2622
60.2445
53.7889
49.6737
87.0494
293.659
49.6414
835.523
115.325
305.934
121.961
304.131
1796.06
58.4635
268.21
1291.28
93.5177
335.572
81.1958
71.5575
702.845
940.434
257.273
160.311
60.7316
281.273
100.988
501.357
54.9988
59.8842
214.317
967.945
61.6228
76.4134
56.5633
148.522
375.281
55.6195
470.555
269.482
537.362
672.867
57.2793
237.618
63.1457
479.61
395.708
249.014
292.481
135.187
385.326
213.203
247.245
71.4522
68.7675
64.962
59.359
58.8019
1320.28
70.0046
98.1693
70.8246
70.41
88.684
892.487
95.2678
243.877
303.345
95.9921
184.254
134.091
48.2591
65.2524
879.563
509.327
244.705
193.476
168.13
76.127
411.806
56.7985
169.889
197.347
58.9375
433.658
114.521
197.91
358.822
94.7575
129.385
133.099
96.4339
55.8743
143.567
67.7574
433.822
65.192
171.473
74.1768
224.1
62.9143
69.5024
365.544
127.504
257.489
50.0301
1554.42
51.366
57.9063
52.6782
61.3832
76.6581
467.24
110.725
54.2544
601.748
76.9977
53.4993
66.5719
762.735
49.6508
87.9042
812.596
144.88
785.335
368.786
108.954
129.533
179.503
188.457
682.863
72.5405
264.827
93.6952
62.5424
181.813
69.5343
98.1975