/*--------------------------------*- C++ -*----------------------------------*\
| =========                 |                                                 |
| \\      /  F ield         | OpenFOAM: The Open Source CFD Toolbox           |
|  \\    /   O peration     | Version:  2506                                  |
|   \\  /    A nd           | Website:  www.openfoam.com                      |
|    \\/     M anipulation  |                                                 |
\*---------------------------------------------------------------------------*/
FoamFile
{
    version     2.0;
    format      ascii;
    arch        "LSB;label=32;scalar=64";
    class       volScalarField;
    location    "0.0180731";
    object      p;
}
// * * * * * * * * * * * * * * * * * * * * * * * * * * * * * * * * * * * * * //

dimensions      [0 2 -2 0 0 0 0];

internalField   nonuniform List<scalar> 
47425
(
2.28687
3.08424
0.300544
3.2459
-8.74713
0.614022
-7.36637
0.362496
18.6829
-19.665
-0.0145251
17.9527
-4.3036
0.0438346
2.0436
17.0364
0.653605
30.975
-91.3873
-20.2763
9.75865
19.2751
0.11477
1.66754
18.8056
1.5833
0.350512
-28.2932
0.539752
-0.134177
19.2901
16.3157
17.8677
0.368002
0.34328
0.289704
20.5465
18.45
9.9938
2.21741
2.70976
2.24222
3.31319
18.8442
-25.627
2.17517
0.351863
17.7737
1.21912
0.254183
54.3967
3.40783
-0.184309
-18.4662
1.83621
11.4064
3.2985
0.204375
-11.1615
-0.00530854
-20.8324
-20.7097
-51.6147
24.4288
17.8021
6.66508
16.7975
1.85766
-33.8372
26.668
6.66757
1.08978
4.93583
11.646
-40.8451
18.6514
-51.7176
0.561014
-97.2684
-9.90507
-45.7017
13.0977
25.695
16.0084
2.29716
2.7691
4.0908
1.21735
1.51939
-14.7696
19.2416
5.80224
0.361647
2.97499
3.39648
2.25414
0.484069
2.98073
2.67196
16.593
16.0735
30.4707
12.8747
50.7248
12.7647
3.33529
2.37913
2.33206
1.50473
17.4772
-38.0456
16.8062
3.11833
3.32763
3.08572
41.3063
3.33702
56.7253
12.4061
1.69667
3.15937
18.1752
17.5451
-0.525583
15.2117
3.14879
1.3234
17.9586
-0.865436
1.12539
24.6363
2.63211
61.5186
11.1329
2.18422
-0.984426
5.31057
3.09044
15.162
3.04632
17.0312
-4.58252
9.29326
3.14889
14.261
18.0369
-7.05693
17.0188
9.90252
18.2288
3.37635
49.1685
17.7499
6.5287
25.5832
1.58404
10.7072
-100.371
2.62832
-0.135009
2.60852
1.28633
1.49585
14.332
-33.218
-68.2628
17.5184
-41.8266
1.68032
-31.2635
-43.0204
2.3547
16.5088
22.8
1.63901
17.0206
40.6422
0.087196
0.277491
0.557602
35.0558
1.3225
0.555006
0.471587
0.20573
16.3855
13.3554
56.0504
0.531242
2.45946
17.5807
0.702724
-4.60143
17.8027
0.795621
2.87135
17.4908
1.6802
2.54801
2.61912
0.189788
4.16839
2.19725
3.13858
13.7037
5.05083
-0.0879662
3.48406
15.8498
17.5262
1.61736
3.13966
16.3964
1.26415
4.24935
1.54898
4.58281
-7.61732
25.4686
18.2454
-11.897
1.40975
4.03386
5.20807
6.21316
-10.2811
-0.115556
1.74793
1.35742
-2.528
6.00559
1.37299
3.75318
18.7131
-0.0176463
16.0907
-13.7492
1.08014
-11.901
-0.374217
0.687177
0.291788
0.187447
-2.04645
11.6032
18.7054
2.20924
18.6305
0.870316
0.554858
2.0063
-8.44366
0.222834
18.4126
-0.557545
0.370479
18.9887
-0.509604
10.0247
17.2077
0.702884
18.839
13.1782
13.5539
-1.78025
2.91832
0.532233
-1.62923
0.115737
13.7741
14.2121
-11.6008
-13.2985
14.4664
-9.76943
13.9484
-10.4108
34.6414
-11.7369
40.8207
-18.3323
2.59019
-22.5713
2.949
0.137177
2.58111
0.109769
0.200875
3.31684
2.97269
62.978
23.6183
17.6209
-0.0560763
0.120578
11.335
-1.60474
13.3201
17.0628
-2.41819
2.59209
1.62674
0.783923
0.419283
-69.6431
-80.9667
44.8999
0.443248
1.37545
15.2701
16.7179
56.9753
-0.286576
0.16744
-4.32781
3.27026
1.04199
2.25758
0.687738
-34.3584
-4.41772
16.049
15.467
-0.844892
2.55305
-0.28455
14.6169
2.1532
0.746898
0.191687
0.611786
-63.2638
13.1012
0.130424
18.1704
-0.802679
-63.0624
17.2015
1.09173
1.46397
15.2293
15.1936
1.72294
17.9982
0.704573
-0.0619798
0.825134
20.5979
-0.386557
0.746583
16.4003
11.3478
16.823
16.8736
15.855
0.941006
0.107172
23.9574
15.1737
17.6223
16.7409
1.18991
-0.114933
0.157139
11.755
3.1066
0.363532
17.4873
17.4161
13.8191
0.899327
-17.0379
3.99646
14.6073
18.6919
14.7386
1.84651
16.8264
17.8342
20.0059
16.8424
14.5601
0.865014
18.2593
1.74997
17.9804
0.135385
13.8476
16.7399
0.43171
10.9319
12.014
0.0347362
10.3628
2.31443
11.4005
16.8237
0.440184
-7.41588
0.256706
-15.6408
0.499769
-19.5701
0.168992
7.04552
0.714039
0.221421
0.777034
-0.0362958
-1.03613
12.2301
-87.8567
65.4505
1.47292
11.924
10.6417
9.42859
1.17318
0.523008
0.546391
0.583515
1.45753
3.18066
8.71262
0.151276
-0.331643
0.473518
2.56963
3.92376
25.0788
-77.3022
3.16826
34.985
-71.4702
2.90807
-79.1922
-18.9551
1.51624
6.56307
7.60655
4.55879
-81.8412
1.85725
1.40286
0.484554
4.23194
6.17573
2.11836
2.29934
-10.55
-74.6122
-11.8102
17.8536
27.9858
2.08045
1.83215
5.31423
-2.79397
5.48474
17.7433
18.0484
18.3101
10.6388
18.4321
1.21307
15.2843
0.266846
3.98524
1.35718
1.32873
17.3472
17.4145
17.4745
11.5262
16.178
2.21995
4.60096
-10.1656
17.2618
-4.86241
17.1409
2.96989
1.22138
17.8229
1.57089
16.0349
17.2865
17.366
14.7769
0.648964
3.19822
16.6922
2.5975
15.5603
31.6785
0.974169
18.0298
16.8125
20.1322
1.82358
0.732911
1.46796
0.324909
5.06347
0.274994
0.330011
0.87724
1.71173
3.89996
0.363166
0.393843
29.5593
-0.459346
2.05189
1.83072
1.68039
1.01192
0.0459788
15.9139
13.511
17.6931
17.9468
54.3699
0.397779
-0.235373
16.8597
18.5376
-13.5879
-16.9639
0.94508
1.8495
2.32677
-1.03962
16.2718
-18.0698
18.3672
-63.689
32.9438
20.4818
-0.144019
-12.6556
0.391639
2.46643
-0.172989
2.05093
0.106114
1.32785
-68.2759
0.410393
0.427083
0.0733936
-13.3922
0.719726
-0.195237
-13.007
-8.913
0.543132
0.420222
-48.8587
0.424168
3.00369
-0.0789591
1.05868
0.659123
-5.64712
-1.47591
22.5054
1.77862
0.785384
0.28599
-19.2882
24.2069
0.626254
-49.8784
0.201847
0.135861
-51.7988
-27.4206
17.916
-49.1296
-49.357
0.209229
17.7833
0.0276062
21.0622
16.9025
-0.040586
-33.2675
15.8719
0.34356
0.856323
-11.1933
-5.25192
17.5959
11.735
-48.6738
-7.77397
7.16435
1.03765
2.46485
12.3911
0.563143
1.97854
16.1664
12.3198
18.2611
2.19364
16.8567
-13.986
11.6216
8.8269
-16.0694
13.0254
1.09277
9.75333
14.8729
0.515325
17.771
2.47915
35.9216
15.6001
3.53735
2.56881
-108.058
10.6408
-1.63733
-28.1744
-30.6503
0.118127
3.15532
-31.0127
-0.153168
12.7034
-3.20116
18.2834
-26.7888
0.659021
-0.525035
16.5784
-17.9173
19.1172
18.7496
0.728881
-0.0406602
1.78451
-0.0740584
1.18233
2.27169
2.93778
-14.4705
-41.8465
6.37724
15.4485
0.733202
21.9125
16.0594
17.7316
17.5138
18.1424
17.784
26.1046
4.2322
17.9352
12.9118
-8.58291
0.173855
-74.285
-15.1797
-0.368368
23.0068
8.98014
-0.247061
-85.4239
0.0807487
-40.0992
1.29379
-2.50693
-3.53007
1.36355
19.0044
13.2363
33.8933
0.120067
0.866171
3.23873
-4.60255
19.1244
-5.74562
3.66826
-84.0306
-2.40362
3.474
-4.10005
17.8828
1.67724
9.805
3.32793
-5.23564
17.9721
15.4132
-4.6317
0.252591
3.43176
0.195745
0.66831
39.9371
39.3453
17.6236
26.8174
-0.0612737
-0.0439188
9.88262
2.75717
2.01152
0.0809148
1.93499
0.590434
1.85906
43.1738
1.01855
0.301344
16.7669
1.12872
1.05198
2.24433
0.0681047
2.52125
-11.2779
1.6387
0.31976
-0.021324
1.08839
19.4546
0.126774
3.48603
1.18948
0.954067
0.632415
24.95
47.0739
1.95902
-52.1179
1.23538
-18.8637
-50.5935
3.27435
3.45376
14.7273
2.39019
52.8643
-52.4
65.9948
-1.92533
4.80543
-5.03297
0.530746
64.6104
11.6944
3.68217
0.559286
1.16379
-1.35362
2.93255
1.96266
1.73233
-52.3778
34.6368
17.0502
18.0628
54.1942
50.5026
-0.503058
-35.2609
-4.6113
57.4405
55.1679
17.7599
1.13579
21.9941
0.655154
10.2274
-48.7922
10.9556
9.31211
11.2311
0.355788
-51.5086
-51.7394
-0.0225206
9.33829
1.36245
0.62507
10.6774
0.492314
20.7274
-0.468019
1.30328
41.1844
0.142635
-1.26793
-0.257476
0.52059
0.0927273
60.4997
-11.2052
0.200251
13.5462
1.20958
19.7392
19.968
-3.52594
0.429202
-64.5258
-4.55452
10.2675
7.3898
34.0979
-60.3985
1.08669
0.138335
-9.50937
2.42005
17.3805
5.08625
0.0172846
18.3628
-69.408
-9.92917
-56.9953
18.1779
35.4576
0.735983
-3.33262
21.3287
-4.10404
0.130055
23.0296
-68.6618
-12.7835
-4.94992
-58.5737
-4.20711
2.73722
0.417613
-4.64061
0.449166
-5.0252
-55.9392
-0.032311
-6.70479
2.22227
2.01568
-30.5685
1.04501
2.61848
16.258
19.8944
16.2577
-12.0598
1.6394
2.81803
-8.3811
53.7354
4.09433
20.6152
1.70613
2.18009
2.57884
2.31418
-5.44143
-99.1833
-3.00711
3.61999
-6.44789
-2.79742
-4.98771
-1.82693
1.98123
18.7531
19.0977
2.36292
1.46919
20.279
26.2998
19.0998
-52.4914
-4.5571
2.59595
1.33498
0.632981
2.11364
40.0479
17.616
-1.13077
0.422955
14.2717
17.939
17.5115
16.8194
15.9727
18.4723
-17.4638
-2.86514
25.6633
27.3487
20.8062
11.9326
2.29155
44.3335
3.24079
-1.13502
3.20276
-3.97547
-31.6542
1.59575
2.63837
18.558
20.4809
18.034
1.94501
-52.7821
-14.2236
-20.3995
13.9908
-1.94665
13.0693
-42.3418
2.63975
-44.5431
2.93406
3.96538
-0.555944
1.16375
1.67674
17.0561
0.256715
7.02137
-1.66134
1.38385
8.40048
-10.9637
-9.29177
2.58328
20.3341
61.1471
-76.141
44.3675
-13.1769
-37.5403
0.0837217
1.78642
24.805
1.41448
58.389
1.48027
0.462708
-71.2045
17.1669
5.9461
0.132655
19.249
31.7289
17.1269
1.10976
15.5738
-6.58199
13.989
17.9962
17.4647
17.7155
1.20739
-2.09619
-2.58558
34.1663
17.2408
2.12389
13.0849
1.22768
0.952635
11.1053
-2.64373
-18.5588
-1.45855
0.443574
18.6459
-16.0696
2.03791
0.450007
0.774125
-94.9314
-50.812
-7.22427
-47.2449
3.54211
1.09773
-24.1344
-49.0704
1.20198
11.6964
1.35688
3.03792
-16.886
8.81513
2.98267
1.71481
17.763
5.02406
43.6023
-86.3604
-3.82229
-16.1416
1.29631
62.2353
-92.4073
1.90412
15.6254
6.17469
-26.1343
15.4812
0.885715
21.1375
-12.9876
3.18651
-12.8025
5.87408
-0.272462
2.94127
11.945
-7.99369
-8.53133
15.8874
21.6215
-2.29322
-33.288
13.4408
2.23401
-4.13082
-17.6243
16.3366
12.3003
-46.438
-66.4696
-20.8928
14.0008
2.08614
-3.51116
-25.3704
14.337
23.7794
-14.1857
-0.640156
0.340136
-6.70894
-21.7002
5.58615
18.3183
17.353
19.8021
15.8734
13.2314
-12.727
17.5934
18.2468
17.9142
2.27232
-65.1485
-21.2801
16.7665
43.8212
-7.38063
16.3679
-37.4896
9.81242
13.3561
-0.769091
0.528111
16.8918
12.9053
-32.3464
17.4616
-21.4165
-82.0226
-25.151
14.9126
-0.841817
16.0455
1.54
1.33395
-6.09846
-24.2705
2.23106
-65.1776
-27.6664
67.2323
-12.4627
-71.8533
-15.3319
-0.161875
2.18267
-27.2553
2.10682
22.141
-0.554042
-38.0335
-23.7098
-0.0659885
7.15838
-23.692
-16.1584
-28.2576
55.5586
1.47593
-11.0159
-86.7981
1.4942
26.5067
-8.82303
20.9893
-97.2293
-19.2216
15.3874
0.30283
1.06853
4.94951
1.99857
5.81969
4.58431
2.69238
11.8764
44.7746
16.3837
29.8527
-22.5815
1.98048
24.9104
2.26367
2.94876
-1.66737
18.4274
-50.5262
1.71266
2.36603
1.45937
-14.7838
2.40805
-80.7452
1.13389
19.0087
6.51499
-106.181
60.4489
-55.2135
-9.21852
46.0174
7.1377
17.9137
-1.48856
-16.4114
-72.2656
-13.0795
57.3567
18.121
-4.62739
-47.7691
-2.22793
4.61754
-24.4065
-10.1126
2.68664
-3.82489
17.0822
18.2275
-35.0343
-37.2715
3.07497
12.5095
17.2463
-95.1744
17.0091
-24.765
-6.42593
16.1145
18.164
-8.91622
3.81715
58.9422
-5.3132
10.5452
38.5988
37.2756
14.0537
-68.4451
-17.1702
-4.35666
-100.447
70.4896
18.4839
-27.3072
18.2446
29.903
-80.201
8.10534
-100.349
-21.6926
2.40273
27.3581
0.612243
18.1876
17.1883
23.1201
-12.1036
-2.24456
-0.00708467
33.1595
0.812659
1.39342
23.8598
-1.674
3.95879
-6.62021
19.3999
-43.1616
-17.1184
7.35255
-16.8126
-65.3534
0.261201
53.2407
-46.918
1.55832
34.7005
-1.43803
-1.57602
-11.5275
-13.5874
11.4848
-29.9912
-8.72272
10.2929
9.273
0.888898
-11.83
-1.52121
32.1073
-40.6816
2.5723
21.6479
1.00029
-39.6763
-0.0677686
0.973271
-1.95829
-10.5082
29.4145
4.4475
-2.65138
-2.26081
-93.8756
0.0872894
-2.33127
-40.901
1.51482
-0.787471
64.8101
1.84605
-7.84642
-49.6506
0.839632
7.15859
0.221215
-114.736
-60.0555
-14.6267
-56.0045
29.9883
4.95483
-6.22336
-32.1172
-56.1027
0.0940197
0.258432
17.4354
2.10001
1.74642
7.23828
59.094
19.0225
17.2695
0.921547
0.698374
18.365
18.3485
28.2113
17.4975
1.8128
20.2319
17.5967
15.4937
-3.39375
2.37058
15.9172
14.4559
-0.960573
17.7546
0.674117
1.3009
15.5108
18.8854
18.0071
-76.966
16.794
25.5875
2.58105
-0.363834
-19.9473
18.1268
17.586
-71.4249
-41.4853
64.1698
20.4628
-75.5075
20.8959
2.06711
-68.4517
5.89261
-73.7244
0.510693
-0.627141
17.3114
28.4564
14.7989
3.52673
2.34269
3.39928
13.9316
12.0537
2.01974
-6.42022
2.44104
-3.45199
67.0955
17.5012
-33.4526
-9.22456
-52.6886
1.10714
16.2483
-1.0398
18.3929
2.31388
17.9621
1.07546
-18.7479
-11.7812
-26.5608
2.25517
-0.786188
1.13577
7.2392
-15.0176
2.19987
-35.4281
2.65352
-30.5136
1.25116
-40.5736
-67.8763
3.72696
-0.376727
-30.1163
0.606752
-28.5026
16.2397
4.09222
1.70665
2.87795
5.19702
2.97504
-2.5241
-12.3615
-0.111231
16.765
2.71173
16.39
1.35089
16.4055
-25.3067
15.0464
-14.9273
3.23208
1.55
14.1373
1.41587
14.4353
13.6025
2.34204
2.62954
18.5
2.51131
1.85493
3.22788
3.14038
-10.1226
-25.9414
-2.9119
2.15607
-30.7718
2.69377
0.484455
0.514033
0.626408
1.74083
2.41177
18.4484
16.7556
2.12076
0.956525
48.6851
2.54579
1.36495
2.45223
-32.4479
3.74484
-37.0655
-23.5813
-30.7568
16.8167
0.378085
3.64551
0.261377
1.24068
-27.9736
-0.605608
1.35923
1.79333
3.67098
4.12696
-56.7545
4.06331
0.265087
-5.52353
0.932874
0.619845
0.314562
-0.35108
-0.136843
0.666906
0.854349
-0.879232
-4.11709
0.076588
15.7585
2.4544
0.710031
1.74421
1.06953
3.1202
-1.12391
2.95069
1.04216
2.02954
1.02163
-0.431359
-0.176742
2.06252
1.60937
0.46297
1.72046
0.628119
-0.358488
-50.0118
1.19621
-8.56308
2.97766
-1.22517
-48.9256
-0.0361808
3.57524
0.117934
0.675873
1.64431
2.59587
60.4324
3.85575
-6.88684
1.70401
0.452022
2.96798
1.02304
0.431329
2.45447
1.02905
1.18569
-0.168022
-0.876958
-5.5831
-26.0713
15.5437
-2.93783
0.420516
0.8268
2.03468
-7.1515
0.00111467
0.366115
0.296692
-42.0301
-0.0510407
2.69635
0.866579
0.369656
2.45478
-124.231
-0.171452
1.77573
16.4708
0.207101
-2.36232
25.8525
34.1244
-0.256954
11.3545
0.322719
2.58811
0.437921
0.0610593
-40.594
-39.8815
-0.147699
1.15463
-26.1473
-0.260116
3.11407
-12.0928
0.123661
1.35368
8.78343
-0.789429
-0.142755
-0.389739
3.43726
23.3955
2.01064
-0.353624
17.3348
-10.8608
17.2111
-12.4515
-16.6219
-47.9093
-11.8964
1.32629
17.2685
-5.72805
17.5437
3.44986
20.3223
-20.2098
-13.3616
18.2242
-3.56982
17.9214
0.953597
1.83586
-54.2286
1.32145
1.30949
16.869
17.303
47.1759
50.6443
69.4994
-45.9002
32.4229
17.8809
19.1161
27.3909
17.7475
0.663093
-0.0217614
0.822311
-0.709403
-54.8149
-54.7257
0.739172
2.36149
3.75232
-68.9344
1.5835
1.36926
3.46647
-21.9232
-41.7895
1.41823
-25.8548
0.00943156
-17.8682
-16.6323
-10.989
0.17276
0.58699
18.3911
-42.0967
-0.0659423
18.892
1.45529
0.117264
-59.101
-61.6397
-67.2268
3.00464
-28.3245
21.4237
12.79
9.05008
-3.43965
-70.926
-65.252
-48.8663
67.9732
-50.5981
40.807
16.4903
-27.0909
17.8312
-44.1444
17.8181
-40.4891
16.4118
-13.5656
2.5139
-14.9026
19.0652
18.3233
2.80999
17.2334
16.8616
37.3692
7.94279
18.782
16.9248
-50.4832
-52.3073
-2.765
-12.5034
-51.9639
-12.1037
1.78013
19.6153
-48.4414
-16.3989
-14.8504
16.9958
-86.3109
11.135
-40.9436
-103.464
-47.5756
-2.42664
19.6889
12.7565
13.4229
17.3039
2.012
-17.273
3.32241
4.28669
1.46965
0.115831
0.255483
1.7032
0.739919
-12.1423
0.129745
0.145519
-0.122759
2.22745
-8.53102
1.31755
1.35274
1.00589
2.02879
0.945157
-12.1773
1.46635
18.9966
-17.1629
-103.669
-0.331089
-72.7866
0.0658187
-7.02214
-6.71514
40.6999
9.00674
12.4859
0.441562
0.19498
0.240335
1.61277
0.0855978
-0.0121633
2.61791
0.739442
2.16964
2.46565
13.3213
-2.20742
2.34728
54.1627
0.0421376
17.5876
0.0699401
0.0665755
47.6912
-42.4484
30.3746
0.722841
2.47117
-12.6841
-58.6922
1.70036
2.36241
21.3979
-1.22042
3.60072
1.18765
-9.58485
16.9875
-0.277877
20.7762
61.7144
2.25535
3.07867
0.236574
2.8204
2.05981
0.990172
2.28401
14.8429
18.2183
10.9973
16.8585
17.1243
10.0357
7.73071
0.774483
-31.3194
10.5869
-2.14661
14.946
16.695
68.8273
8.8608
2.87202
4.61714
-33.3838
-17.0563
7.54198
20.8282
2.88795
37.7775
-0.185856
19.0396
-18.5964
54.2219
36.3194
0.360926
2.91759
11.2773
-27.8501
-77.1409
-54.5645
3.15411
-2.44051
-78.3907
2.71031
-2.73581
0.00635249
-15.3721
-66.352
2.52289
17.8861
-85.1452
16.1719
0.047806
2.86456
12.8193
-0.434762
15.4144
-9.23184
18.148
14.5024
-46.0434
15.9438
65.8178
-8.49129
61.3874
36.298
-53.9809
18.5253
18.8811
-38.1937
-2.70958
4.35164
-48.208
-11.7933
-9.19524
1.9625
2.19849
-47.0464
2.17341
9.31307
64.4084
-0.544739
9.94856
0.530023
-5.64515
12.0526
12.3962
-18.2498
-46.7579
-18.4099
-52.6879
1.18731
-4.64708
3.11394
-5.14399
-3.02658
1.69234
2.80193
-3.86678
1.8081
-51.3552
-52.6473
1.75535
12.7354
2.06544
-3.10989
-10.302
14.7088
13.3167
-4.3718
-52.8184
14.2731
-0.498035
-54.4822
5.64854
-14.0956
2.56084
0.837373
-35.0958
6.33758
59.2799
-0.22902
4.46223
4.76889
3.01768
-96.0505
1.21177
1.49322
-0.557541
1.29394
15.2276
0.952329
-12.9891
15.3741
35.9863
17.523
16.6494
16.2655
1.55956
2.90396
-0.0159586
-1.00282
-98.4377
2.27042
-23.2082
-1.36515
-0.900148
-40.7966
-0.455584
1.24681
3.392
-0.3442
-35.6219
-8.66837
16.9951
47.5105
0.625703
2.32766
-19.682
-25.3053
1.65931
-26.0326
40.0264
16.6673
1.86245
43.2213
18.4127
-48.7794
21.0158
12.4018
55.0973
39.4824
17.5234
13.4454
68.2379
-47.1422
2.03825
59.8382
10.5767
19.043
-1.21872
19.2891
-11.4354
18.4921
65.8955
15.5529
17.945
48.3066
13.8058
18.6178
-10.1085
1.92518
19.4146
-44.9572
29.4063
-12.8428
-37.7766
-47.5945
-6.24405
18.6254
42.7973
19.1736
9.60693
18.243
15.6394
18.5788
3.32605
2.10206
47.8322
-23.7764
15.7791
-13.4702
6.43223
15.7279
-5.35701
-51.509
1.59019
-6.11979
16.3327
7.21738
1.81937
15.9339
-0.508835
2.42982
1.67023
-35.1568
7.0468
1.65559
-1.1726
15.3849
1.03059
25.4266
2.26449
-2.97173
31.406
10.7558
23.2895
41.2891
-55.1265
63.9718
47.9482
-16.5551
-40.7236
-56.6845
-12.0499
-54.0708
-54.6806
-12.6089
-9.76812
-16.6591
-56.7496
66.8221
3.50267
-49.0622
10.3912
2.73065
-19.298
-51.9096
-2.60191
-48.5187
-6.1143
-47.4022
-5.738
45.7473
-24.0542
-13.8019
-55.8646
31.2217
-54.3468
2.31912
-60.6275
29.6802
13.1944
1.55946
2.83047
51.6377
10.2937
-33.1877
-13.6859
17.761
2.00217
1.73169
-13.2688
-18.5012
2.44227
1.68585
21.9107
-14.621
0.260934
2.42421
-9.94298
49.4462
2.33656
9.93898
2.4955
9.04219
-26.597
14.4285
12.5942
-11.5223
2.62611
10.8091
6.26347
5.46823
70.2242
7.69513
-22.1759
0.858025
5.74889
-90.5365
-96.1767
13.093
14.0895
12.2762
15.9114
-10.6797
-1.51777
65.5627
-3.63926
15.9077
-15.0428
2.29513
-0.440178
12.684
-2.88426
12.7744
-8.54203
-59.4707
-21.4659
40.6051
-15.0907
20.7558
13.6268
-37.7272
-48.4106
35.6007
-57.909
14.7759
-41.3935
41.7287
-17.0336
29.9212
-4.4038
5.58388
0.384396
3.30127
-4.18335
-22.6273
5.47002
18.8271
-73.5567
18.7621
-9.27271
18.6136
2.43156
13.8087
3.80351
2.93009
0.655563
2.62335
10.2678
5.50414
19.508
1.75993
-52.5332
39.7429
16.4229
45.9828
18.5885
9.78362
15.6175
17.9298
35.6756
2.84299
35.5907
1.99866
2.02403
-6.85268
1.41665
0.535156
-9.5701
-5.81153
-9.71374
2.09282
41.1795
8.42927
34.8039
1.58233
17.1759
19.9839
3.88571
1.03078
1.10117
3.92432
67.2486
0.764837
0.699808
-48.9652
18.2166
18.7877
22.6412
18.2999
-8.54269
-15.2509
6.55892
2.02393
2.07798
-4.0604
40.7425
0.460829
-34.8725
3.32106
-13.0159
4.59075
13.3598
-13.6732
17.8205
17.0165
-6.16208
19.11
2.09223
11.89
-29.1682
21.4411
62.0861
3.49246
3.45612
42.2628
15.2382
4.94377
38.7173
11.9527
-3.65856
43.801
-12.689
45.9619
-72.4431
9.28316
18.0146
3.34031
-1.19335
7.21389
2.17812
2.85109
0.600573
18.5212
-19.375
9.09764
3.28819
-6.19186
4.00758
-3.92046
17.4806
18.1293
28.736
9.32685
3.84805
-1.68332
3.17658
-2.31608
16.7416
3.10037
-7.36554
67.7475
-7.31215
3.14068
66.5315
17.4159
-96.9663
59.6816
3.5533
6.51374
38.1311
18.4703
-52.003
41.7122
-51.3131
6.75167
-51.3321
-9.70185
-20.8193
42.5657
7.50769
67.8338
1.00519
-52.7565
-47.0155
-96.126
-98.7989
-24.0301
-53.7316
-14.3501
-48.5478
65.6313
13.4212
15.3091
54.279
28.8691
-24.1921
13.3087
-26.6607
55.6103
1.7166
15.6226
0.20738
1.23469
1.12977
1.18579
66.7425
2.16669
1.43139
24.2534
2.61663
1.86641
16.1122
-0.546954
0.967094
-0.59904
1.2342
11.4063
35.6869
-28.9194
4.62806
5.98313
0.509886
3.29991
-34.3379
-31.5169
-8.51322
3.57593
47.9268
18.2824
2.61556
-0.196907
8.92601
8.26453
1.45566
15.7065
16.7092
-59.5108
0.959403
17.3495
2.21422
7.23134
15.6533
1.53915
12.4099
15.4048
15.8438
-4.86459
14.8636
16.6345
56.1555
34.3193
15.0158
31.7913
15.7483
3.63499
16.5427
1.51869
2.71117
4.26947
10.2369
-1.11116
23.534
14.7961
-7.42678
33.7216
1.32579
13.6408
36.6872
-4.22677
39.0664
-10.9083
-30.0237
-56.1942
4.45678
0.92396
-6.73925
38.6138
-0.167193
2.73845
13.4647
5.44304
3.01056
1.39828
13.549
17.4605
34.6823
11.6681
6.0219
16.6211
15.5421
0.0283232
-18.9215
41.3621
-0.494758
12.7231
-1.66542
45.01
16.3905
14.7227
-2.70545
-33.4481
-98.2541
18.0166
17.4551
-1.39659
-5.68742
-0.830742
-15.7293
39.4466
2.09686
3.12847
3.61644
-0.530098
21.671
-5.4197
0.0136117
1.8567
39.014
1.59832
1.8184
28.123
-18.1532
-12.3066
1.0614
-2.33394
18.7827
-0.145107
1.25308
17.1768
13.776
-5.57453
27.2651
10.0806
-45.1732
0.388071
2.05391
-47.3584
-5.73786
18.4166
1.27356
12.1501
17.72
70.0045
1.2873
-1.08209
-14.492
-21.1316
-63.0213
-42.0302
1.27758
22.2483
55.9267
-0.0605533
19.0207
17.6064
-32.6641
18.3771
10.3977
-13.8898
16.3069
23.1604
-6.87543
12.6776
-29.7436
-47.4834
19.699
24.6138
-46.8026
19.7659
15.7663
6.89938
18.3446
16.9391
4.05809
-19.9455
0.5982
22.4993
19.0425
19.8225
17.7188
14.8815
5.44523e-05
48.2945
-0.0445026
2.54107
4.17768
43.119
17.8971
-3.16577
8.71535
64.2612
-10.989
-15.4437
-39.9939
7.62955
1.33629
-31.6208
-7.41159
19.7311
-5.54162
1.47641
0.108871
-0.558741
16.5579
16.0457
13.2071
0.259689
-0.439301
-8.6891
1.52894
-3.83151
4.02838
3.32587
-0.179548
3.12354
1.23007
17.367
-22.94
17.0285
3.32682
3.71386
17.4608
16.1901
17.02
4.1905
4.1776
-0.908816
7.50114
3.58391
5.2534
-47.8059
5.44176
-2.77362
-54.5173
-49.5442
-48.1959
19.1873
-58.5278
21.8682
-47.5909
2.81411
-54.6853
0.726568
6.58689
6.43604
1.72359
1.1149
6.60573
3.29462
19.6594
2.99243
20.7187
1.35664
-3.99097
-97.9871
-53.4131
29.9072
35.7922
-33.6856
-24.9382
-22.9391
-65.0904
-53.8723
-0.375119
-54.831
3.53596
2.95845
-40.3833
-81.5819
-5.50534
3.92328
18.1107
56.3568
0.740233
-81.8124
3.50499
9.14805
2.82779
3.67058
-27.2431
5.26993
3.19348
3.20326
6.47579
12.7802
3.79703
1.29541
-73.679
-76.5684
-20.9028
32.6689
-26.7138
16.8563
1.03116
18.6719
11.0753
8.36778
30.053
16.2965
32.5806
0.433164
8.67531
9.84878
4.1744
6.82536
-1.54197
11.1179
17.6845
11.831
46.3258
4.90946
25.6699
-41.4972
1.62597
-31.6389
42.0443
15.1928
14.7484
9.74213
-19.79
-3.04652
14.5332
-29.0973
12.2564
8.03467
1.61727
19.586
14.0152
0.63543
-4.64232
-22.9883
18.6032
1.94383
-35.1038
5.00977
-27.0087
-32.4008
18.2075
-67.3073
1.37215
37.1119
-0.757387
17.1363
15.0132
20.4657
1.26007
17.4149
-53.8573
-0.418105
-52.4159
0.174554
-4.18546
27.4079
-54.1106
-4.46603
2.48025
4.78227
25.7995
-54.775
17.7134
3.96251
-16.5115
1.53573
3.53904
16.5786
-104.914
1.38981
9.5678
2.21319
4.04038
16.7496
14.0964
3.11224
16.0475
-5.58634
16.5307
-83.8852
15.9868
-50.4782
-11.941
1.31557
12.0541
1.01458
-4.44471
15.289
1.27835
2.97644
0.178541
62.5204
0.220087
43.5622
1.1996
1.13102
1.23928
-0.679943
17.7994
16.0547
18.815
3.55843
1.39532
18.2604
-2.09843
1.67403
1.10003
-10.2566
6.83413
-0.582603
16.6728
-22.0425
-65.784
0.296973
1.12817
0.80868
-14.6515
0.508317
0.430424
2.99883
1.16621
3.55498
2.67367
0.208422
0.952495
17.2303
-17.2595
-27.5496
19.1592
56.742
20.9762
16.8311
-0.198912
17.6834
50.563
0.178216
46.3618
4.26998
-0.698078
14.0509
39.0993
1.95796
0.0934967
60.1701
18.5175
30.8008
-0.183223
-4.03894
0.580706
1.9097
-0.192712
1.18133
6.5379
2.11744
58.561
1.4655
1.84431
0.998779
16.9568
-13.4526
-5.62179
1.32924
2.74472
3.9284
1.08134
15.9487
-13.934
29.4885
24.1495
2.74593
0.990869
51.0645
-4.9291
50.132
34.2226
15.1477
16.8535
0.862746
-0.26168
5.69579
-2.75722
-3.00788
17.3227
-97.7838
2.67233
2.01935
-0.215114
15.2721
2.55348
58.332
1.99175
52.7338
2.14718
-57.5139
-4.2279
-4.12963
2.44273
-29.0541
0.625837
40.0552
16.6999
40.4696
2.05505
-6.3241
8.41298
-30.5785
31.7324
17.1862
16.1676
3.33308
-10.9165
16.4441
-81.3334
-5.70722
18.342
42.0018
16.6308
-10.2915
51.7538
8.02861
1.42286
50.103
38.6617
6.15219
7.22742
-47.899
49.1717
14.2473
48.9998
1.40692
-43.2006
33.1269
2.7812
0.189573
-0.137362
0.855939
3.69178
18.2935
-20.6039
3.91598
-13.7343
21.2721
46.3954
-5.70417
42.8545
0.175933
0.0730482
-3.19317
63.6729
-5.99951
57.0542
20.1614
9.02375
31.0821
11.3766
23.71
-0.168241
-0.308589
0.11265
-0.16433
12.4772
-3.90545
18.4932
-22.0671
2.19151
-17.4953
18.9959
-8.78931
55.1698
7.07362
5.56356
0.336848
49.2386
-0.343096
27.4039
3.29089
13.649
-0.379542
5.52965
40.416
43.3459
-3.54193
-0.144955
3.50368
-24.0905
-50.1677
-2.63025
60.4094
35.974
63.563
65.1062
54.3951
-46.5288
4.71249
54.3413
-35.8831
0.0274003
9.47282
0.573143
-12.2077
-25.5022
3.06625
5.94406
1.03315
-0.412928
16.0259
-25.2405
47.4926
-29.469
16.5352
4.51882
15.5675
7.41203
0.772852
-88.8439
3.082
-16.0076
-4.4587
15.9274
-69.6481
-99.7938
15.8068
-1.49104
-3.21165
22.1374
15.7645
-3.1887
31.0789
-72.6877
-14.7941
-22.2632
44.8229
-21.1333
10.5611
30.9036
10.1808
-32.0237
-36.0844
10.6718
3.14612
59.1561
5.58612
-23.329
2.64034
-4.58401
-43.92
-1.5619
-50.8018
2.44409
-51.8169
0.498113
-50.624
15.2266
-9.94595
59.8647
-53.1236
28.6549
-15.0921
-54.9562
-5.76018
-14.4398
40.6597
38.3745
-16.797
16.2383
23.9929
20.6332
10.5814
17.8078
-1.22701
-53.4893
-152.93
-46.9452
25.5691
29.008
-20.3493
32.2028
-47.8796
-2.30719
12.0423
6.48542
-31.263
18.2368
-50.5718
20.0721
39.7502
40.7051
69.5949
39.1546
-11.5896
-39.1171
55.5442
18.4134
43.2743
-28.9407
-53.1297
56.2974
34.3365
1.96588
26.3371
22.9715
-26.289
-51.0727
-98.1268
28.9263
13.1686
44.3662
-35.2983
53.9825
36.6587
17.687
45.69
-72.6416
12.1702
7.54163
19.0468
-1.19049
-19.6907
-62.4207
51.9874
0.91205
-30.0424
-69.9279
52.8347
51.4108
49.737
-36.6166
-75.4883
51.9829
-6.6503
-37.528
52.7828
4.64987
-1.41079
16.5414
1.87587
4.71025
-0.275807
50.2382
-10.9629
-0.468999
4.47043
4.25148
5.45644
3.17653
16.2204
-17.0509
0.828218
4.222
-34.3795
-53.9055
-55.5468
-5.66771
5.45255
-4.31175
-20.0454
-12.8353
4.47705
-48.1627
8.31466
-46.8838
-49.0878
49.9148
26.9646
31.8469
-0.970998
15.8578
-47.8768
-10.297
-1.38214
-48.3489
-0.281032
-38.5779
-23.1225
-10.5843
-23.9943
5.23538
20.592
16.605
19.5945
16.8205
48.2562
1.40088
-0.313112
-0.103895
19.8772
-17.2769
-59.9895
-37.1918
19.7297
45.457
29.0291
37.8815
9.73883
-64.6457
0.838392
20.1087
11.3056
2.7372
24.5573
15.2493
-1.93596
20.1846
-2.34067
-1.95809
5.89346
20.8373
42.8298
-14.6438
63.4252
-78.5976
25.3576
-86.8757
-55.8651
-2.2553
14.2985
45.6357
1.49485
-19.466
1.9273
19.9254
-13.4418
-59.2617
25.9376
53.9875
70.4672
-38.9503
-12.522
-38.2636
19.6986
5.64072
-4.31972
15.4129
11.5296
-10.8058
8.59661
16.521
-23.8878
-0.481237
-58.4587
3.62269
-78.4229
0.315799
16.1925
-85.3655
-4.74725
-0.324209
68.8212
13.5918
57.9668
7.28061
-49.4073
22.6526
11.5195
42.1723
63.7285
20.8339
42.8443
-0.355699
-25.4563
18.7606
16.7141
4.2668
17.8164
-19.332
6.56578
-0.214786
19.0557
8.7182
-8.19036
9.87872
14.6188
0.975499
0.791078
-18.1315
0.117271
17.7351
-0.264629
18.896
0.113064
-0.484275
16.7778
-8.82909
16.311
-40.9137
0.0399281
38.1104
-3.04701
44.6953
0.416435
3.45502
0.134075
0.0273596
-1.02551
7.85355
20.9615
43.2459
31.0631
-71.836
-33.9461
54.8023
33.3619
26.1454
14.7593
0.058535
-0.318408
-51.9321
54.7984
28.0231
23.8032
1.23231
23.9931
-0.0199725
0.291242
-6.9594
-13.1248
-21.263
-50.9806
16.9323
2.49101
-10.316
16.7685
45.0166
16.3353
-3.71571
16.2327
-0.283072
-56.3784
-8.32167
0.269298
12.581
2.1425
0.523378
-46.502
16.5539
-47.6412
32.0841
-54.6483
-15.6855
-13.9869
0.503673
27.4104
12.919
18.6767
39.9797
18.039
0.434576
14.8566
16.1933
16.8568
17.6536
-22.903
16.4255
19.6118
49.7518
17.5676
-8.42447
18.4291
18.1861
-50.9831
-55.1071
-12.373
-52.9971
-48.4058
17.1866
63.0288
-67.4212
-5.95488
21.7056
28.341
-48.8279
1.74459
0.591609
14.5546
-9.13844
-56.4461
-26.9284
42.3871
9.70493
1.65638
13.8719
-66.0963
34.1157
13.8897
-36.4308
-76.5272
-63.8791
70.8243
18.6719
14.4475
13.428
18.9827
-57.6942
23.0195
15.8339
24.6776
-20.9296
20.8391
30.6131
52.9622
44.6433
14.8471
-4.65204
29.0489
1.72415
1.4063
0.895664
35.8277
-15.4977
-11.4501
0.775298
63.8233
0.873172
-65.3936
33.8596
33.1493
47.7603
-59.214
-30.5954
-54.0193
40.8996
-1.19076
-16.5436
-9.46654
15.1147
5.02693
19.0758
2.78684
27.9144
2.84052
16.0757
2.90346
-0.213016
0.191046
44.3333
12.352
6.79397
-11.2283
10.6556
2.68223
11.4265
4.91291
-18.9204
-28.8635
-6.88142
8.80121
44.4961
2.56905
67.5357
-35.4562
66.6698
62.7306
2.64677
6.52834
7.66946
1.73268
2.64823
-68.4441
21.214
-39.8285
-27.5511
9.43765
4.25324
-49.5632
8.80429
8.78879
16.2587
11.8157
1.77486
-42.3019
3.46515
2.63254
0.625579
2.65139
2.31582
2.7313
2.56445
2.02764
8.3579
-36.0284
0.0976278
1.49496
-3.45491
-0.284742
26.067
-10.3679
18.8786
18.9825
-0.50743
-0.509195
-0.795802
-3.61805
9.80892
1.91414
8.08412
11.2583
-0.722332
62.5674
1.03516
3.08422
0.15526
0.119405
-13.9186
0.104607
-57.0019
3.48621
56.6642
7.29201
1.80134
-14.1684
-6.76433
2.38845
-19.079
4.57903
0.233258
10.1017
-55.9364
0.22822
7.32477
29.7718
45.206
1.86039
12.1087
14.3089
-25.1022
-9.90646
0.0793404
54.5183
-40.1907
-8.03282
-1.35514
58.6914
-2.76787
0.987337
36.119
-46.0467
9.64025
0.206292
0.577843
0.201241
0.0514023
-0.497935
-53.2239
21.5969
-0.561865
-34.6881
10.499
0.464849
1.55552
5.67435
23.1481
-28.2542
10.1937
20.4025
-11.8449
4.3924
17.2351
68.1575
19.3004
-79.2828
48.5948
22.4386
33.4365
0.557445
55.1737
1.08991
16.672
27.9983
0.0293728
-25.2046
-68.6573
1.62856
0.800183
-113.906
30.2483
-55.8976
4.84547
-1.28397
-1.00287
17.5673
34.4014
59.8098
17.9987
60.0278
17.9781
-63.8428
-61.9829
-53.8971
-60.8221
0.491384
3.74049
33.0319
18.6357
18.3395
71.4514
5.62827
-8.92988
-41.1536
1.18098
1.51338
7.75186
2.88133
0.554473
10.8913
12.0054
1.2049
12.9149
17.1679
-15.2842
17.0323
16.5476
20.0862
54.5903
17.675
17.4947
40.8871
-12.1737
19.5238
17.9443
43.4579
17.9863
27.8779
68.7529
62.8269
-7.73648
0.15233
21.247
50.5938
17.8719
17.7613
2.02598
51.5323
-31.1487
1.77554
5.32224
13.0827
57.5426
44.9402
12.8284
7.17224
-22.8413
13.0998
0.792496
-30.7323