/*--------------------------------*- C++ -*----------------------------------*\
| =========                 |                                                 |
| \\      /  F ield         | OpenFOAM: The Open Source CFD Toolbox           |
|  \\    /   O peration     | Version:  2506                                  |
|   \\  /    A nd           | Website:  www.openfoam.com                      |
|    \\/     M anipulation  |                                                 |
\*---------------------------------------------------------------------------*/
FoamFile
{
    version     2.0;
    format      ascii;
    arch        "LSB;label=32;scalar=64";
    class       surfaceScalarField;
    location    "0.0180731";
    object      phi;
}
// * * * * * * * * * * * * * * * * * * * * * * * * * * * * * * * * * * * * * //

dimensions      [0 3 -1 0 0 0 0];

oriented        oriented;

internalField   nonuniform List<scalar> 
92401
(
0.147614
-0.0948667
-0.00782626
-0.044921
-0.0641053
0.0602544
0.0384188
-0.0345679
0.0220441
-0.0387365
0.0425419
-0.0258496
0.00627223
-0.0122965
0.0122429
-0.00621863
0.00129438
-0.000473476
-0.00555957
0.00473867
0.019447
0.00988007
-0.0256887
-0.00363834
0.00542208
-0.004466
0.000338297
0.0323464
-0.0258319
0.0129325
0.0490716
-0.0391012
0.0318087
-0.041779
0.000762607
-0.00117531
-0.0003654
0.0007781
0.00473901
-0.0417113
0.0388479
0.0260038
0.0236236
-0.0884754
-0.0163168
0.0103519
-0.000118657
0.00608354
-0.0343818
-0.0398766
-0.0163063
-0.0162656
0.0549663
-0.0223944
0.00161079
-0.0639953
0.0623845
-0.00245757
-0.00767351
0.0019714
0.00332721
0.00237491
-0.00090957
0.00139305
0.000354832
-0.000838315
-0.00462217
0.0101357
0.000145102
-0.00565864
0.0158591
-0.00548962
-0.00460273
-0.00576678
-0.0404541
0.0085858
0.0366233
-0.00475493
-0.0394749
0.0109566
-0.0557685
-0.0539068
-0.00340778
0.0555847
0.00172988
0.0915317
-0.0897822
0.0233256
-0.0250751
0.0503511
0.060547
-0.0715365
-0.0393615
-0.0323621
0.0507838
-0.0578965
-0.00252531
-0.00107106
0.00387295
-0.000276585
0.0313331
-0.0634252
-0.00027001
0.061575
-0.0612464
-0.0323273
0.0319986
0.0125594
-0.0171468
0.00080566
0.00378181
-0.0366079
0.10667
0.060531
-0.130594
-0.0840745
0.109199
0.00718334
-0.0323078
-0.129726
0.032076
0.0300756
0.0675742
0.0156474
-0.0621156
0.0374842
0.00898402
0.0617578
0.0105078
-0.0566182
-0.0443115
0.0104626
0.00222907
0.0316198
-0.0500239
-0.0414404
0.0647534
0.0267109
-0.0335889
0.0398547
-0.01367
0.00740408
-0.0208704
-0.101464
0.0657073
0.0566269
-0.0860676
0.0854214
0.000646158
0.0319552
0.00169568
-0.0764682
0.0428173
-0.00117577
0.0288348
-0.0312307
0.00357169
0.0276489
-0.0504958
0.0228469
0.000191671
8.72729e-06
-8.35271e-05
-0.000116871
-8.80761e-05
-0.0593362
0.0594243
-0.0689617
0.0430268
0.0625829
-0.0366481
0.0900072
-0.0256511
-0.0129644
-0.0513917
-0.000842772
0.0704802
0.001568
-0.0712054
-0.046643
0.0734222
0.0376743
-0.0644535
0.000491335
0.000989828
-0.000335405
-0.00114576
-0.00214659
-0.00399963
0.000787091
0.00535913
-0.0384438
0.0846486
-0.0463064
0.000101587
0.000396114
-0.000901985
-0.000679456
0.00118533
-0.0540576
0.0538734
0.000184188
0.0750852
-0.00679087
-0.0199966
-0.0482978
-0.0979173
0.0887255
0.00641334
0.00277849
-0.0541233
0.026596
0.012086
0.0154413
-0.000476694
-0.0160631
0.00619628
0.0103435
-0.0131189
0.0250203
0.0382863
-0.0501877
0.00106259
-0.000390125
-0.000276354
2.80903e-05
1.40729e-05
0.000833759
-0.000875923
0.00125146
0.000242556
-0.000848895
-0.00064512
0.00402992
-0.00900971
0.0052393
-0.000259512
0.0683231
0.00502205
-0.0176631
-0.055682
-0.0147916
-0.00453083
0.0100314
0.00929107
-0.0399377
-0.0522204
-0.0557631
0.147921
0.00371747
-0.0329217
-0.0038931
0.0330974
-0.000417601
0.000554878
0.000699847
-0.000837124
0.00548928
0.00373838
-0.0286027
0.019375
0.0184227
-0.00699685
-0.00930216
-0.00212367
0.0407848
-0.0758702
-0.0275543
0.0626397
-0.0279418
-0.00347243
0.0101754
0.0212388
0.0117663
0.00782649
0.0129019
-0.0324947
-0.00111782
-0.000447752
-2.19166e-05
0.00158749
0.0243252
-0.00902348
0.0367609
-0.00134423
0.000939976
-0.00156177
0.00196603
0.0454978
-0.0335989
-0.0684861
0.0565872
0.000619351
-0.000273885
-0.000345466
-0.00104936
-3.76773e-05
0.000550125
0.000536917
0.0010463
-0.000713877
0.00129986
-0.00163228
0.0224308
-0.0217942
-0.063028
0.0623914
0.00126006
-0.0128753
0.00258159
0.00903361
0.0443363
0.0563171
0.0186474
-0.119301
-0.116514
0.0247239
0.129191
-0.0374013
-0.00551569
-0.0434158
0.00433762
0.0445939
0.0521271
-0.0292806
0.0256203
-0.0484668
0.0263285
-0.00405145
-0.152503
0.130226
0.00606754
0.0155044
-0.0254431
0.00387115
0.000687666
-0.000237623
-0.000694323
0.000244279
0.0372671
0.0129569
-0.00198664
-0.0482373
-0.00207491
0.0820907
-0.0839022
0.00388636
-0.0192828
0.049131
-0.114846
0.0849977
0.0414184
0.0048133
-0.0517474
0.0418463
-0.000427902
-0.00235509
-0.029331
0.0418607
-0.0101747
0.0709383
0.0168057
-0.0312986
-0.0564455
0.128171
-0.140919
-0.0297347
0.0424831
-0.0141719
-0.0459549
0.0577717
-0.0818774
0.00131048
0.0805669
0.00159935
-0.0996988
0.165363
-0.0672635
-0.00234858
0.00333398
-0.00049258
-0.000492815
0.0885871
-0.14928
0.0309209
0.0297718
0.00160132
-0.000249334
0.000737099
-0.00208908
-0.0851111
0.143416
-0.105961
0.0476568
0.0281758
0.00380818
-0.0397731
0.00778913
0.0871212
-0.017354
-0.0788535
0.00908629
0.00602254
0.0311139
-0.0513083
0.0325515
0.0291763
-0.136575
0.0748469
0.0850257
0.113625
-0.0774394
-0.121211
0.000962231
-0.000475058
-0.00157105
0.00108388
-0.0951843
-0.0278866
0.110923
0.0121478
0.00245014
-0.00561197
0.0143351
-0.0111733
-0.0138285
-0.0337254
0.0575934
-0.0100395
-0.00513265
0.0163743
-0.0138006
0.00255903
0.000283134
-0.000610517
-0.000497798
0.000825181
0.0209617
-0.0248873
-0.00120706
-0.00171837
-0.000763534
0.00142377
0.00105814
-0.0573825
0.0597935
-0.00241108
-0.00237637
-0.00599515
-0.00201135
0.0103829
-0.0355431
0.0282443
-0.00652967
0.019544
-0.0481041
-0.0555144
-0.0515301
0.0423723
0.0978181
-0.0886602
-0.00743975
-0.00158131
0.00475578
0.00426528
0.0470847
0.0124448
0.00114359
-0.0606732
0.000283982
-0.0087752
0.00676962
0.0017216
-0.037003
-0.0552881
0.0117924
0.0804986
0.0646256
-0.0387079
0.0259744
-0.0518921
-0.00826125
0.0590646
-0.0578198
0.00701646
-0.0599016
-0.0338962
0.00907357
0.0847242
0.0173427
0.00513748
-0.0341546
0.0116744
0.0597234
-0.0576646
-0.00205878
0.00201161
0.00186185
-0.00110966
-0.00276379
0.0414324
-0.0435405
0.00210816
-0.0496057
-0.0430517
0.109251
-0.0165934
0.000895504
-0.00958412
0.00931112
-0.000622503
0.00318559
0.00591564
0.00232081
-0.011422
0.00148718
0.00616656
-0.00736976
-0.026883
-0.0564061
-0.00913469
0.0924237
0.0248218
-0.00695556
0.0165225
-0.0343887
-0.0855164
0.0934598
-0.103628
0.095685
0.0725287
-0.048695
-0.0238337
0.00139867
-0.034244
-0.0100411
0.0428864
0.00771634
-0.00567423
-0.0085445
0.00650239
0.045579
-0.0688551
-0.0614849
0.0847611
0.0748204
-0.0649447
0.0287626
-0.0386383
-0.0131175
-0.00804549
0.0311497
-0.00998672
-0.0596946
-0.0875112
0.0572026
0.0900031
-0.0409951
0.0536104
-0.0112166
0.0985095
-0.0491004
-0.0494091
-0.00373728
0.0144807
-0.00302712
0.000928496
0.000613288
-0.000688337
-0.000853448
0.0484122
-0.0169987
-0.00524274
-0.0261708
0.0035209
-0.00174793
-0.000535304
-0.00123767
0.00556534
-0.00975147
0.00852821
-0.00434208
0.0726461
-0.042419
0.0257064
-0.0559335
0.0083926
-0.000145627
-0.00696195
-0.00128502
0.00158963
-0.000550983
-0.00103865
-0.0630113
0.0633824
-0.000371164
0.0108687
0.00463176
-0.0949704
0.07947
-0.0108153
0.0137078
-0.0100121
0.00711954
-0.0728096
0.0163746
0.0835674
-0.0271324
0.0191597
-0.0976923
0.0746932
0.00383944
-0.0512459
0.0417079
-0.00798897
0.017527
0.00864776
-0.00174716
-0.00292124
-0.00397936
7.67464e-05
-0.00102237
0.000945621
0.0228328
0.173601
-0.24047
0.0440362
0.000198015
-0.000269533
-0.0240373
0.0607788
-0.0538498
0.0171082
-0.000107007
0.00514192
-0.00416572
-0.000869187
0.000840192
0.0017927
-0.00334677
-0.0721794
0.000994908
0.0711845
-0.0333529
0.114689
-0.0481749
-0.0331608
8.22635e-05
0.00109531
0.00933926
-0.0105168
-0.00153003
0.0916625
-0.0901325
0.00232724
-0.00162957
-0.00109098
0.000393316
0.00128813
0.000582503
-0.000604448
-0.00126619
-0.0366402
-0.00179962
0.0324255
0.0187722
-0.0643166
-0.072314
-0.0161934
0.00565666
0.0828507
-0.000571107
0.00185924
-0.09861
-0.0416658
0.112546
0.0277295
0.0271184
0.166346
-0.083722
-0.0575433
-0.0250805
-0.0179422
0.118971
-0.0440556
-0.0569737
0.0422143
0.0292488
0.0371911
-0.108654
0.10649
-0.246878
0.106141
0.0342477
0.0015065
-0.00131494
-0.0014499
0.00125834
-0.0123511
-0.0359559
0.0566023
-0.00829534
0.0250351
0.0405742
-0.0252368
-0.0403725
-0.0354654
-0.0265627
-0.0193912
0.0814193
-0.0548709
-0.0127555
0.0552753
0.000781586
-0.0115672
0.00749219
0.00329345
0.0557312
-0.0287687
-0.0511851
0.0242225
-0.0883453
0.10398
-0.0503152
0.034681
0.0156257
-0.0224887
0.00696261
-9.96393e-05
0.0523467
-0.0610574
0.0644419
-0.0571178
-0.00302827
-0.014794
0.07494
-0.0053075
-0.0121741
0.0020632
0.0154184
-0.000960736
0.0575112
-0.0571707
0.000620302
0.135719
-0.0545783
-0.00207003
-0.0790706
0.058368
-0.00748554
-0.0479083
-0.00297417
0.0535527
-0.0211603
-0.076107
0.0437147
-0.00942355
-0.00196378
0.0143925
-0.00300519
0.00521233
-0.00170142
-0.00478394
0.00127303
0.00204164
-0.0424391
0.0391247
0.00127276
-0.00095633
-0.0861623
0.00418716
0.0188927
-0.0126906
-0.0627096
0.0474888
0.0152208
-0.0601671
-0.0162615
0.00990752
0.0665211
-0.0982363
-0.00430293
0.104311
-0.00177149
0.00376163
0.0227331
-0.0124482
-0.0140466
-0.0696962
0.149774
-0.0669714
-0.0131066
-0.0051257
0.0140534
0.0224501
-0.0313778
-0.0503916
0.0957647
0.0375059
-0.082879
0.0271072
0.00224379
-0.0144959
-0.0148551
-0.0353554
0.0365001
0.000896889
-0.00391046
0.00689528
-0.00979263
0.00680781
-0.000614661
-0.00397875
0.0101587
0.0371282
0.0376574
-0.0747856
0.00107344
-0.00182467
7.44735e-05
0.000676753
0.0188223
0.00801103
-0.0181358
-0.00869753
0.0227252
0.00858602
-0.00287847
-0.0284328
-0.0509802
-0.00101093
0.00702373
0.0449674
0.000386728
-0.0428258
-0.000913695
0.000576676
0.00141046
-0.052412
0.0376121
0.0514179
-0.0366181
-0.0430053
0.0289349
0.0182383
-0.00416791
0.00130743
-0.00305703
-0.00947639
0.011226
-0.0080813
-0.00481527
-0.00368215
0.0165787
-0.0422701
-0.00449392
0.0114086
0.0731326
0.040366
-0.0733892
-0.0401094
-0.043924
7.4808e-05
0.0438491
0.0871035
-0.0483767
0.0583735
0.00377211
-0.00785615
-0.0384964
0.0425805
0.0363244
0.0111076
-0.00569944
-0.0417325
-0.000474328
0.000299538
0.000976917
-0.000802127
-0.0167194
-0.0448407
0.0615601
-0.000266155
-0.00125754
-0.00438647
0.0321736
-0.024015
0.00593785
0.0278866
-0.0416806
0.0952516
-0.0893468
-0.000884294
-0.00502048
-0.0216699
0.100259
-0.0187229
-0.0598658
-0.0310095
0.00665366
0.0155784
0.00877743
-0.0389899
0.035174
0.0144117
-0.0105958
0.0314656
-0.0251061
0.00128624
-0.00764573
0.0190639
0.071406
-0.121033
0.0305629
0.0741121
-0.0731441
-0.0240085
0.0230404
-0.142657
0.00316387
0.00295087
0.136542
0.0303091
0.0125661
-0.0412726
-0.00160255
0.0399088
-0.0581113
0.0190666
-0.000864199
0.00202554
-0.00119626
0.000232928
-0.00106222
-0.0138248
-0.0016688
0.073841
-0.0414589
0.018996
-0.051378
-0.0114643
0.0468756
0.000520015
-0.0359313
0.00500643
0.0970715
-0.0928528
-0.00922511
0.0508512
-0.0982273
0.0569795
-0.0096034
-0.0497766
-0.000610824
0.0389231
0.0153734
-0.00487433
0.0088623
-0.0193613
-0.0237573
0.0483079
-0.0132996
-0.011251
-0.049688
-8.86797e-05
-0.00662152
-0.122845
0.176469
-0.0470022
0.00982068
0.00913277
-0.0617392
0.0427858
0.0505066
0.00557924
-0.0462652
-0.012082
0.00640565
-0.00355515
0.00923146
-0.0552213
0.000504853
0.0547165
0.109249
0.0423801
-0.134457
-0.0171728
-0.00879299
0.000359361
-0.00364834
0.0190623
-0.112621
-0.0237783
0.117337
0.0123871
0.0657246
-0.0689789
0.00283208
-0.0536167
-0.0109545
0.000472377
0.00180018
-0.00253871
0.00193388
-0.00176725
0.000305746
-0.0512781
0.0273469
0.0734677
-0.0495365
-0.00186718
0.000936584
0.000892923
-0.0354105
-0.00783304
0.0460756
0.000236128
-0.000303137
0.000329237
-0.00090015
6.51182e-05
0.000505794
0.000115473
0.00205454
-0.00164114
0.00132122
2.99275e-05
0.000289985
0.00040013
-0.000184147
0.00084661
0.103821
0.1198
-0.0760074
0.000214883
-0.000989358
0.00117461
-0.0529324
0.0534433
-0.00051081
-0.0100313
0.0751776
-0.0702597
0.00511336
0.00177063
-0.0187521
0.00499232
0.0119891
-0.0593867
-0.00357703
-0.016867
0.00424343
0.0468095
-0.0341859
-0.0643193
0.000539935
0.0637793
-0.00624672
-0.0156616
-0.0123244
0.0342327
0.000237936
-0.000314311
-0.000436159
0.000512534
-0.00400689
-0.00762452
0.00898992
0.00264149
0.0549883
0.0438427
-0.017448
0.0468581
0.0882648
-0.0373373
-0.0977857
-0.0116183
-0.0439852
-0.0216022
0.0212539
-0.0567676
0.0571158
-0.00975726
0.0283448
-0.00780037
-0.0107872
-0.0157
-0.0131072
0.0143482
0.0144589
0.0974135
-0.0945949
0.0173714
-0.0201901
0.00102687
-0.00422922
-0.00023006
0.00343241
0.000479995
-0.0652022
0.0647222
-0.0726714
0.00320515
0.0657491
0.00371719
0.0399976
0.0374482
-0.0774458
0.019143
-0.0600838
0.0293225
0.00233719
-0.00145501
0.000963539
-0.00184572
-8.56146e-05
-0.000551496
0.00203892
-0.00140181
-6.16672e-05
0.000413759
-0.000903582
0.00055149
0.0640501
0.0553859
-0.0393474
-0.0800886
0.00605143
-0.0858807
0.0818817
-0.00205244
-0.0135041
7.53304e-05
0.0265357
-0.013107
0.0514458
-0.0513232
0.0197477
-0.0198704
-0.000448611
0.00122597
-0.000598515
-0.000178842
0.0202986
0.0484689
-0.0496245
-0.0476922
-0.00168772
0.000841663
0.00151002
-0.00066396
-6.57694e-05
0.0799693
-0.0799035
-0.0500996
-0.0152992
-0.0233619
0.0887607
-0.0504751
0.000375427
0.0119306
0.0172743
0.0155201
-0.044725
0.000389022
-0.00275858
0.000121233
0.00224832
-0.00160264
-0.000681765
0.000596687
-0.109254
-0.00716702
-0.0450936
0.161515
-0.00997307
0.00633005
0.139916
-0.136273
-0.038562
0.0428531
-0.0634978
0.0592067
-0.0776509
0.0756725
0.00197847
0.00181999
-0.0509997
-0.0301266
0.0655409
0.0189254
-0.00559113
-0.0788751
0.0513576
0.0912678
-0.154865
0.0122391
0.0430717
0.0144355
0.0326159
-0.0901231
0.104518
-0.107606
0.0430856
-0.00333119
0.0125814
-0.0114685
0.00221824
-0.00241413
0.000450491
-0.000904773
0.00286842
-0.00262642
-0.00551461
0.0014676
0.00667343
0.0603267
-0.00577078
-0.0177295
-0.0368265
-0.0564715
0.0284842
0.0279873
-0.091712
-0.00715214
0.0122681
0.00016917
-0.000226358
-0.00235695
-0.117673
0.023392
0.00705387
0.0872273
0.000721435
-0.0534615
-0.00986044
0.0626005
0.0464364
0.0278384
-0.101364
0.027089
0.0387127
-0.0426485
-0.0196609
0.0235967
0.047204
-0.0586736
0.0501823
0.0297708
-0.0561135
0.0501369
-0.0237943
0.0339643
-0.0359179
0.0010586
0.000895022
0.0155052
-0.144622
0.0919923
0.0371249
0.000857452
-0.0593297
-0.003558
0.0527851
-7.18197e-05
-0.106837
-0.0337122
-0.00950925
0.0065256
0.0366959
-0.0480795
0.0450145
0.0494012
-0.0463362
-0.0417673
0.081478
-0.0397107
0.0101957
-0.101348
0.0485037
-0.0170546
0.00774178
0.0240207
-0.0147079
-0.0882817
0.093602
0.0372436
-0.0425639
0.057188
0.0337923
-0.0803313
-0.010649
-0.0482045
0.140698
0.00571023
-0.0982035
-0.000343073
0.00314255
0.00330809
-0.00610757
0.0549587
-0.0730182
0.0837446
-0.0656851
0.00880433
-0.040513
-0.00862336
0.0403321
-0.0432414
0.029227
0.103979
-0.089965
-0.0505599
-0.0273758
0.055614
0.0223217
-0.0106017
-0.000790089
0.00678962
0.00460221
-0.00912286
0.0203513
-0.0172071
0.00597864
0.000177723
0.0737024
-0.0738802
0.0147853
-0.0441559
-0.0187088
0.0486858
-0.0333713
-0.00238913
-0.0129254
0.00135444
-0.0240086
-0.0206162
0.0432704
0.0358976
-0.0353151
-0.000582421
0.0630552
-0.0413571
0.0623111
-0.0840092
-0.0996218
0.097057
0.0999783
0.00029863
-0.0108372
-0.00191911
0.0124577
0.0506828
-0.000286463
0.00022882
0.000362563
-0.00030492
-0.000263167
0.0466963
-0.107824
0.0613904
-0.00866284
-0.00019867
0.0048392
0.00402231
0.0269133
0.0099833
-0.0368966
0.0010728
-0.00117204
-0.00856359
-0.031367
-0.0358127
0.0175739
0.0575474
0.000695997
-0.0582434
0.072492
-0.0436032
-0.0511367
0.0222479
0.00188128
-0.0250326
-0.0211602
0.0690175
0.0430608
-0.0395862
-0.00797618
0.00934761
0.13646
-0.120998
0.0357931
-0.0512553
-0.0458503
0.0375838
0.0222052
-0.0139387
-0.0524236
0.0520072
0.000416393
-0.0483453
0.0301438
0.0108439
-0.0470273
-0.0106205
0.0468039
-0.00253206
0.160025
-0.15949
0.00199789
0.108956
0.0159351
-0.0156926
0.0506273
0.00877957
-0.0516645
-0.0077423
-0.0141462
0.00439044
0.010402
-0.000646255
-0.00952217
-0.00513846
0.00476902
0.00989161
0.0675345
-0.0383961
-0.0536581
0.0245197
0.0298074
-0.0161149
0.0230123
-0.0367048
0.027168
-0.095399
0.0911405
-0.0229095
-0.00556236
0.000449849
-0.00903366
-0.0953961
0.108516
-0.023342
0.0102221
-0.0110966
0.0476523
0.0143858
-0.0509415
-0.0043789
0.000140718
0.00304972
0.00118846
0.083226
-0.00673214
0.0519161
-0.12841
5.93538e-05
-0.000710901
4.53834e-06
0.000647009
-0.0670648
0.058107
0.0747436
-0.0657858
0.00342657
0.00137976
-0.00197059
-0.00283574
-0.0775312
0.0754996
0.00203161
0.0623595
-0.0593552
-0.00300433
0.0596439
0.00040178
-0.0600457
-0.0137898
0.124007
-0.000567851
-0.10965
0.010057
-0.0312891
0.0331627
-0.0237312
-0.000485518
-0.0562686
-0.0675152
0.0121173
0.0674254
-0.0120275
-0.0130022
-0.00208235
0.000391886
-0.000666282
8.89962e-05
0.0001854
0.00110193
-0.000281761
-0.000225926
-0.000594241
-0.0638025
0.00753091
-0.00175328
0.0580249
0.00050497
-0.005308
0.00174589
0.00305714
0.0118779
-0.0143964
0.000147834
0.00237064
0.00793503
-0.00668294
0.0106258
0.0560148
-0.0104413
-0.0226671
-0.0229064
0.0365327
-0.00531235
-0.0360731
0.00485282
0.000590566
0.0671421
-0.000447162
-0.0672855
0.00758662
-0.0714746
0.0193211
0.0445669
-0.0431886
-0.0322556
0.0424313
0.0330129
-0.0327899
0.018131
-0.0902083
0.104867
-0.000802268
0.0148587
-0.00766608
-0.00639034
0.0494328
-0.0588672
0.0472181
-0.0377837
-0.0625084
-0.00758576
-0.00660162
0.000675493
-0.00015007
0.00405297
-0.00457839
-0.0115485
-0.00284332
0.00168293
0.0127089
-0.00776058
-0.00893908
0.0106687
0.00603096
-0.000100713
-0.00213169
0.00128403
0.00094837
-0.000448294
0.000490067
-4.17725e-05
0.000677217
-0.0702514
-0.0253994
0.0949737
-0.000127622
-0.000202859
-0.00127741
0.00160789
5.56562e-05
-0.000468302
-3.56484e-05
0.000777378
-0.0650967
-0.000171585
-2.35626e-05
0.000685214
0.000646087
0.000112697
-0.000426724
-0.00033206
-0.0290534
0.0632024
0.0783964
-0.112545
-0.00885275
-0.00223898
0.0070695
0.00402223
-0.0142549
-0.000219928
0.00562209
-0.00494557
0.00540715
0.0125509
-0.0130125
-0.00060885
0.000573234
-0.000135968
-0.0666689
0.0661422
0.000526704
0.0312096
0.0472072
-0.0602023
-0.0182145
0.0123518
-0.0751659
-0.0222938
0.0851078
-0.0131064
0.00285014
0.00531071
-0.00458941
-0.00615347
-0.00236354
-0.0168427
0.0589969
0.0127406
-0.0548947
0.0686704
0.00450161
-0.0531587
-0.0200133
0.000169854
0.000428627
-0.000778784
0.000180303
-0.000452414
-0.000100779
-0.00265323
-0.0011241
-0.00115851
0.00493585
0.0662036
-0.0462698
0.011478
-0.0314118
-0.000754524
-0.00268751
0.00148333
0.0019587
-0.0162452
0.0110219
-0.00389807
0.00912135
0.00142236
-0.102394
0.102722
-0.00175018
0.00296437
0.000609818
-0.0102028
0.00662856
0.00967618
-0.0102033
0.00153088
-0.00100378
0.00974311
0.00369594
-0.0104747
0.0379238
0.056353
-0.0280731
-0.0273724
0.0549393
0.028403
-0.0559699
0.0277596
-0.055132
-0.000213018
-0.000378205
-0.0329977
0.0124363
-0.0100047
0.0792113
0.0249113
0.00706625
0.0693046
-0.0535236
0.0967035
-0.112485
0.00449218
0.0928202
-0.0973124
-0.0067032
-0.00667598
0.0129906
0.00038857
-0.0340267
-0.0874881
0.0274887
0.0940261
0.0225628
0.0624685
-0.0258558
-0.0591755
-0.0233537
0.11501
-0.0537329
-0.0422531
0.0451652
0.0520272
-0.0557657
0.055213
0.000552639
-0.0381401
0.0365739
0.0015662
0.0408059
-0.0804157
0.0739236
-0.0343138
0.0656006
-0.0824433
-0.00930833
-0.00800016
0.0106053
0.000881158
0.000651213
-0.000588781
-0.000943591
-0.00602056
-0.042947
-0.00679811
0.00126166
0.00137964
-0.00243818
-0.000203122
-0.0558796
0.0511848
0.0863814
-0.0816866
0.0342156
-0.0323153
-0.00190021
0.0103692
0.0274604
-0.0140905
-0.0237391
0.00414573
-0.000551544
0.00225349
-0.00584767
-0.0646989
-0.00106447
0.020684
0.0450793
-0.00284591
0.00670986
0.000281779
0.0416471
-0.11164
0.10455
-0.0345574
0.0449453
0.0135946
-0.0586308
9.08366e-05
-0.00358617
0.00688447
0.00156018
-0.00485848
-0.00130648
0.0607967
-0.0594902
0.0363794
0.00609544
0.0142878
-0.0567627
0.00410843
-0.00726168
0.0026017
-0.181421
0.027495
0.163078
-0.00915213
0.0390522
-0.0110698
-0.0279824
-0.00102341
-0.00163031
-0.00123041
0.00388413
-0.0409617
0.044312
0.124614
-0.127965
-0.00174097
0.000673392
-0.00212068
0.00318826
0.0898616
-0.00177152
-0.0431447
0.000433495
-0.00115201
0.00205209
-0.00133358
-0.0180584
-0.116219
0.0147918
0.119485
0.00336679
0.0519442
-0.00375101
-0.0515599
0.0492549
-0.0699908
0.0595382
-0.0388024
0.0321037
-0.0369242
0.0492663
-0.0444458
0.00880238
-0.00242807
0.00605974
-0.012434
0.00149174
-0.0443293
0.0536526
-0.0539723
-0.0366045
0.0966188
0.0183486
-0.0252166
-0.0897507
0.0473045
0.017449
-0.135129
0.0703751
-0.00144167
-0.00851856
0.00622503
0.00373521
0.0277932
-0.0502151
-0.00326688
0.0288221
-0.0268607
0.00756658
-0.00577421
0.000168977
-0.00196135
-0.0876945
0.00314487
-0.00216404
0.0740171
-0.150587
0.0787336
-0.0268302
-0.0867235
0.0414454
0.0721083
-0.0715699
0.02065
0.00285367
0.0480663
-0.0432897
0.029124
0.0105273
-0.0833244
0.0958045
-0.0124801
-0.0209967
-0.00974744
0.117285
-0.0865411
-0.00345628
-0.00390481
0.00599453
0.00136657
-0.0259689
0.0596712
0.0411182
-0.072139
0.0285358
-0.000635734
-0.000397167
-0.000993333
0.00202624
0.0469835
-0.0484538
0.0542554
-0.0380708
-0.00714363
-0.0448659
-0.123221
0.0464121
0.0768092
-0.0432142
-0.0328005
0.0276694
0.00304117
-0.00209062
0.000593547
-0.0015441
0.00247798
-0.000268121
0.000831314
-0.0860919
0.00330057
0.0827913
0.0594738
0.0137554
-0.121474
0.0482449
-0.0718447
0.000217254
0.0716275
0.00107788
-0.00160994
0.00814903
-0.00761698
0.0485289
0.153909
-0.221409
0.0189706
0.0016622
-0.00228806
0.0015503
-0.000924443
-0.0918961
0.0663761
0.0246254
0.000894584
-0.00270646
-0.00135035
0.00347681
0.000579989
-0.00082338
0.00837349
-0.00804353
0.000493414
0.00820166
0.0081845
-0.0159167
-0.000469444
0.0411207
0.0104957
0.0029271
-0.00264391
0.00137902
-0.0973617
0.105411
0.00662432
-0.0146732
0.0119474
-0.066758
-0.0223042
0.0771148
0.000298794
-0.00209775
0.088142
-0.086343
-0.0433626
-0.0370444
0.0894406
-0.00903363
-0.0404727
0.0248312
0.040368
-0.0247265
0.052867
0.0215401
-0.0725769
-0.0018302
-0.00228468
0.00041772
0.00216492
-0.000297959
-0.123057
-0.0428073
0.0393819
0.126482
0.0488981
-0.0380542
-0.0321761
-0.0372188
-0.0318527
0.101248
-0.00191431
0.00422732
0.000231236
-0.00254424
-0.0309496
-0.0799818
0.0275959
0.0833355
-0.0298568
-0.0282941
0.0200801
-0.000912114
-0.00309282
-0.00162863
0.00339503
-0.00360749
0.00184109
-0.00553798
0.00549413
0.0246566
-0.0765424
-0.0843604
0.136246
-0.000278955
-0.000396913
0.000422846
0.000253022
0.055839
-0.0595057
0.0480853
-0.0444187
-0.0142639
0.042255
-0.00688001
-0.0211111
0.0865514
-0.0862172
-0.0193922
0.0190581
0.0262675
0.0228835
-0.0631586
0.0140076
-0.127541
0.0740442
0.0194746
0.0340223
-0.00508431
0.00273264
9.43518e-05
0.00225732
-0.00765101
0.00921917
-0.000490281
-0.0135969
-0.00366296
0.0186406
-0.00138072
-0.0640247
-0.00383909
0.0150362
0.0528276
-0.00954374
0.104442
-0.00695558
-0.0879422
0.00681637
-0.0471211
0.0812693
-0.0409646
-0.00170963
0.00410205
-0.00169779
-0.000694634
-0.0149374
0.000574224
-0.00256532
0.0169285
-0.10747
0.00202856
0.0130429
0.0923983
0.000131871
-0.000230753
0.000531812
-0.00043293
0.0373274
0.00826328
0.0275419
-0.00588067
0.0464931
0.0537145
-0.0943269
1.16206e-05
0.000683818
-0.000563567
-0.000577831
0.00211937
-0.00140993
-0.000131606
0.0176108
0.111399
-0.0483712
-0.0806382
-0.000143232
-8.75206e-05
0.000230066
-0.000373299
0.0618238
0.0166897
-0.0920486
0.0135351
-0.154877
0.0850467
0.0763039
-0.00647342
-0.0183574
0.00100899
-0.0517164
0.0690648
0.0249808
-0.0148723
0.0175239
-0.0276323
-0.0656904
-0.0245868
0.0902773
-0.0768098
0.0382326
0.0385772
-0.00220175
-0.000248322
1.58149e-05
0.00243425
-0.039391
0.0420415
0.00791583
-0.0105663
0.0479313
-0.0556554
0.00772418
-0.0604625
0.0341593
0.0453387
-0.0190356
0.00428957
-0.0021679
-0.00197213
-0.000149538
-0.00312244
-0.00258553
0.000623662
-0.0422783
-0.0432381
0.0458304
0.0144811
0.00202477
-0.0623363
0.00191617
-0.000269165
-0.00133431
-0.000312691
-0.00266781
0.00894993
-0.0129184
0.00663629
0.00661663
0.0218809
-0.039902
0.0114044
-0.0194679
-0.016679
-0.00792816
0.044075
-0.0740035
-0.0096036
0.0285923
0.0550148
-0.00151513
0.0149026
-0.00851283
-0.00487459
-0.0530776
0.000459601
0.0331501
0.000365697
0.0263263
-0.134148
0.126446
-0.0186242
0.0275799
-0.0337914
-0.051171
-0.0276024
0.055362
-9.80867e-05
0.0390625
0.00290216
-0.0418666
-0.058051
-0.0599997
0.118051
-0.00301124
-0.0009306
-0.00176461
0.00570645
0.00316961
-0.00463684
0.00166464
-0.000197408
0.0361694
-0.00543294
-0.02846
-0.00227643
-0.00318005
-0.00213123
0.00230004
0.0041593
-0.0117873
0.0686495
-0.0610216
0.0755889
-4.559e-05
0.027919
0.00929599
-0.00649711
-0.0307179
0.0581811
0.000411547
-0.0585926
-0.0550864
0.113996
-0.0290588
0.0603625
0.0205741
-0.0518779
-0.0148125
-0.0238024
0.0155597
0.0230552
0.00336772
0.00360903
0.000741593
-0.00771835
-0.0337955
-0.0388472
0.0991481
-0.0265054
0.042914
-0.0349422
-0.000209524
-0.00776226
-0.0529439
0.114892
-0.0486661
-0.0132823
-0.00162739
0.00189313
-0.000205513
-6.02202e-05
-0.000954746
0.0214357
-0.00373539
-0.0167455
0.00271281
0.00370357
0.00019442
-0.00661079
-0.000258387
-4.78342e-05
-2.81259e-05
0.000334347
2.60084e-05
6.67845e-05
-0.00035118
-0.00889799
0.0226427
0.0700368
-0.0837815
0.080979
-0.0813102
0.000331239
0.000307354
-0.000358542
5.11879e-05
-0.0128892
0.000985097
0.00222011
-0.00143161
-0.0017736
-0.00910661
-0.00696768
0.00437118
0.0117031
-0.0557498
0.026691
0.000239914
0.000323786
-0.000810817
0.000247116
0.0339059
0.0549377
-0.0350265
-0.0538171
0.0147208
0.155026
-0.179982
0.0102352
0.0584517
0.0648359
-0.0629251
0.00196949
-0.0129761
-0.0016419
0.0126486
-0.0324909
-0.0296076
0.0620984
0.0319131
-0.0644039
-0.0540533
-0.0448188
-0.0656755
0.164548
0.0507442
-0.0564027
0.00565851
-0.0730173
0.134036
-0.0714595
0.0328413
-0.030176
0.0865336
-0.00348133
-0.06923
-0.0138222
0.0695691
-0.0702085
0.0106051
-0.00996571
-0.000291886
-0.00590285
0.00748014
-0.0012854
0.00255014
-0.00574324
0.00585092
-0.00265782
-0.000156486
2.79292e-05
0.000821787
-0.00069323
0.0219272
0.0223631
-0.0334787
-0.0108115
-0.00515634
-0.00538398
0.00609903
0.00444129
-0.0110126
0.0328548
-0.0438639
0.0220217
0.000809718
-0.00835675
0.0109936
-0.00344655
0.0501032
-0.00479525
-0.045308
0.0394361
0.0351796
-0.126572
0.0519562
-0.0990611
0.0611181
0.0773791
0.0329896
-0.100138
-0.0462141
0.108739
-0.039366
-0.0231592
0.00194371
0.00884895
-0.0124142
0.00162154
0.0279475
-0.00357417
-0.0243734
-0.0299349
0.0448389
-0.00381429
0.019577
-0.0314627
0.00131177
-6.84347e-06
0.000825571
-0.0021305
0.011853
-0.0387138
-0.0012025
0.000192546
-8.13633e-05
0.00109132
0.00265425
-0.000229537
0.000910837
-0.00333556
-0.000446612
-0.00259198
-0.0771863
-0.0145159
0.00162015
-0.0108392
0.0237349
0.0195592
-0.0897129
0.0220039
0.0481499
-0.00297758
0.0574033
-0.0823107
0.0278849
0.000982282
-0.000811563
0.00153158
-0.0017023
0.078666
0.0129198
0.00197177
-0.0935575
-0.00102754
-0.00079195
0.00209027
-0.000270788
0.00250333
0.00172529
-0.0684807
0.0642521
0.00630026
-0.00103783
-0.0046015
-0.000660936
0.00613808
0.00441266
-0.00343894
-0.00711181
-0.111431
0.0974752
-0.0879964
0.101953
-0.055581
0.109872
-0.0542909
0.00334814
-0.0454875
0.00910705
0.0330324
0.00348282
-0.00379326
0.000938422
-0.000627975
0.0479188
-0.00209068
0.0010475
-0.129529
0.00180531
0.0726369
-0.0334195
-0.00030592
0.00126619
0.030175
-0.024506
-0.00693526
0.0777135
-0.0298101
0.0337136
0.00384912
-0.00480843
0.000146397
0.000812906
0.0338526
0.0230717
-0.0741769
0.0172526
-0.000758859
0.000292987
0.000749175
-0.000283302
-0.000415062
0.00140493
0.00514821
0.000433087
-0.00761838
0.00612047
0.00534704
0.0755674
0.0408322
-0.0372538
-0.0791458
-0.132491
0.141943
-0.00860283
-0.000848997
0.0309793
-0.0312893
0.00030993
-0.036054
0.000204982
0.000263086
-0.00300546
-0.00206605
0.0147303
0.20703
-0.15762
-0.0641395
0.029187
-0.0607272
-0.0181709
0.0497111
-0.00294263
0.0387189
-0.000447634
-0.0856968
0.0474255
-0.0222137
0.00923139
-0.0378761
0.0473961
0.0465092
-0.0560292
-0.0666064
0.0889818
-0.151707
0.129332
-0.000110665
0.00015837
-0.00146941
0.0014217
0.000258065
0.00217131
-0.000739881
-0.0016895
0.0451468
-0.0160404
0.0403079
-0.0694143
-0.00351586
0.000417063
0.00317895
-8.01518e-05
-0.0120607
0.0107181
-0.0365335
0.0120545
-0.0456286
0.00569824
-0.0028418
0.0178146
-0.020671
-0.131911
0.0153207
0.12614
-0.0095502
0.0394482
-0.0260032
-0.0193013
0.00585627
0.0350924
-0.0538737
0.0067206
0.00461958
0.00768383
0.0511916
-0.063495
0.0247694
-0.00740291
-0.0254674
0.00810087
-0.0800478
-0.00772823
0.0149664
0.00120081
-0.000936874
-5.87222e-06
-0.000548676
0.00563144
0.00128198
-0.00636474
0.0179918
-0.0323021
0.0390797
0.016633
-0.142379
-0.0233547
0.149101
-0.11183
-0.0152957
0.026309
0.100817
0.0578954
-0.0348363
0.0288022
-0.0518614
0.109048
-0.006303
0.00452494
-0.10727
-0.0178175
-0.037635
-0.00398972
-0.0155223
0.0074939
0.0120182
-0.00131402
0.000485463
0.000122028
0.000706533
0.0146993
-0.0767925
0.0620933
0.10573
-0.00730448
-0.112215
-0.0269226
0.0561188
-0.0470137
0.0400756
-0.122339
0.0132883
0.0689748
-0.00455887
-0.0120064
-0.0275446
0.0441098
0.00300195
0.0489819
0.0809358
-0.129373
-0.000544893
0.0496847
-0.0833499
0.0897025
-0.0560373
-0.0967812
0.0948042
-0.00641357
0.00839057
0.0016887
0.00309431
-0.0943275
0.0895445
-0.00144718
0.00359685
0.00586451
-0.00801418
0.000117768
-0.000843663
-0.000218839
0.000944734
0.0879684
0.00189999
-0.0189549
-0.0709135
-0.00055022
0.000659386
-0.000461647
0.000352481
0.000835957
0.00319339
-0.0021986