/*--------------------------------*- C++ -*----------------------------------*\
| =========                 |                                                 |
| \\      /  F ield         | OpenFOAM: The Open Source CFD Toolbox           |
|  \\    /   O peration     | Version:  2506                                  |
|   \\  /    A nd           | Website:  www.openfoam.com                      |
|    \\/     M anipulation  |                                                 |
\*---------------------------------------------------------------------------*/
FoamFile
{
    version     2.0;
    format      ascii;
    arch        "LSB;label=32;scalar=64";
    class       volVectorField;
    location    "0.0180731";
    object      U;
}
// * * * * * * * * * * * * * * * * * * * * * * * * * * * * * * * * * * * * * //

dimensions      [0 1 -1 0 0 0 0];

internalField   nonuniform List<vector> 
47425
(
(10.0837 -0.00933351 0.0484257)
(10.0914 -0.0117858 -0.370332)
(9.95575 0.00131558 0.143762)
(10.9875 -0.385555 -0.208547)
(11.7658 0.45594 0.691513)
(10.1113 0.00656031 0.0437284)
(11.6643 0.318646 0.614274)
(10.0879 0.00221867 0.0320288)
(10.1085 -0.031437 -0.0408447)
(5.69713 6.69585 -0.871557)
(10.0379 -0.0254899 0.00564928)
(10.2471 0.157867 0.00688698)
(11.51 0.349812 0.212501)
(10.0019 0.0512625 0.0265527)
(10.2346 0.36048 -0.117567)
(9.63369 -0.153322 0.0685467)
(9.99544 0.0635923 0.0644515)
(8.66477 -0.503409 -1.17499)
(8.49848 0.873752 -4.52037)
(12.8186 -0.395735 -0.78416)
(10.5454 -0.509555 -0.486317)
(9.71492 0.0395628 -0.0413314)
(10.0939 0.0658719 0.0457966)
(10.0745 -0.0661145 0.0780808)
(10.0481 -0.148471 0.114515)
(10.0459 -0.0355562 -0.0139663)
(9.96654 -0.0429849 0.0205268)
(11.2213 -0.254627 -7.89596)
(9.95602 -0.0310074 0.0340287)
(10.0779 -0.0362619 -0.00851233)
(9.70625 0.419512 0.203168)
(9.99042 -0.05637 0.138598)
(10.0381 -0.165131 -0.07229)
(9.88627 0.0523911 0.0763807)
(10.0173 -0.250364 0.0382402)
(10.3136 0.0251403 -0.0290243)
(9.75197 -0.0391922 -0.0228207)
(9.83616 0.210532 -0.0776761)
(10.4358 0.179338 -0.0957879)
(10.0358 0.10306 0.00718725)
(9.81706 -0.0202838 0.00201409)
(9.52696 0.11371 -0.15046)
(9.27689 -0.349916 0.343937)
(10.0547 0.100751 0.052773)
(0.778483 -1.40919 -0.0697873)
(10.2217 -0.0630635 0.113942)
(9.98328 0.0560333 -0.0687267)
(10.0385 0.118267 -0.0678101)
(10.0969 -0.135529 0.0949739)
(9.98376 -0.124486 -0.0882908)
(1.95259 -0.521952 -5.21836)
(9.56956 0.702126 0.808374)
(10.0879 0.0623762 0.0109139)
(7.52171 -6.16929 2.30812)
(9.98834 -0.0283485 0.13849)
(10.3469 0.12844 -0.206601)
(10.0921 -0.0905124 -0.220755)
(9.9538 0.139082 -0.0940504)
(12.7275 0.483275 0.416853)
(10.0275 0.0404163 -0.125329)
(6.09594 -6.06912 1.66479)
(5.88981 0.664194 2.14846)
(6.80387 -7.44866 1.40717)
(9.09904 -1.01883 0.217521)
(9.98284 0.00211174 0.0702894)
(10.4832 -0.187974 0.0888612)
(9.97861 0.0274459 0.00319549)
(10.3374 0.225817 0.405115)
(8.70588 -6.69026 2.95933)
(9.1371 0.541567 0.55997)
(10.7236 -0.249341 0.241243)
(10.0087 0.136055 -0.0291172)
(10.5709 0.0546249 0.0636197)
(10.474 0.219679 -0.491035)
(7.62028 5.77316 1.26737)
(9.91579 -0.0904055 0.145497)
(7.32872 -7.45492 2.1995)
(10.0361 0.0538053 -0.0415164)
(8.30935 -5.90763 2.89392)
(11.2818 0.256568 1.67645)
(8.13632 5.28005 1.44737)
(10.2165 0.231215 0.0468803)
(9.37287 0.0862464 -0.0645127)
(9.98883 0.263494 0.189948)
(9.77833 0.128315 -0.153387)
(9.92795 -0.0393099 0.0520516)
(10.3066 -0.0307878 -0.0179)
(10.1521 0.148522 -0.0494081)
(9.8726 0.8675 -0.98263)
(10.6783 -0.147414 2.46161)
(9.65942 0.373369 0.0607856)
(10.4337 -0.177898 -0.089933)
(10.0591 -0.00848016 0.175715)
(9.99239 -0.176999 -0.070059)
(9.83355 -0.181265 -0.0626401)
(10.1655 -0.063104 -0.0863138)
(10.045 -0.0112195 -0.0605009)
(10.0901 -0.318604 -0.145856)
(10.0213 -0.0786049 0.258535)
(9.8247 0.393927 0.282251)
(10.2113 0.125596 -0.0808377)
(8.70619 0.105494 -3.44011)
(10.3056 0.114572 0.0653029)
(5.46946 1.73378 -0.252535)
(10.3381 0.0903447 0.13204)
(10.0733 -0.377805 0.0938859)
(10.0013 0.0367228 -0.0831835)
(9.87618 -0.0753405 0.140496)
(9.99266 -0.00853854 -0.0199728)
(9.96206 0.243609 0.0384629)
(-1.50384 -1.84514 -0.859558)
(10.1114 0.00363216 -0.0125947)
(10.0355 -0.497429 0.141598)
(10.114 -0.00390109 0.0570499)
(10.3737 -0.38556 0.113376)
(1.81542 -3.96223 -5.17862)
(10.3705 -0.364569 0.0815971)
(4.15187 0.134058 -3.62252)
(10.3139 0.0555766 0.222206)
(10.5218 0.289377 0.39776)
(10.1335 0.107691 -0.0812472)
(9.97149 -0.133211 -0.0166472)
(10.0139 -0.011444 0.11303)
(11.3587 0.74159 -0.415137)
(10.0823 0.133269 0.0110042)
(10.1785 -0.609359 0.19884)
(10.001 -0.00791976 0.157209)
(9.91856 -0.0261804 0.036878)
(9.88886 -0.151547 -0.288817)
(10.0814 -0.0164902 0.10713)
(9.54961 -0.0749254 0.463442)
(9.89786 0.156636 -0.0578736)
(4.55361 0.0926356 1.30899)
(10.4242 -0.159328 0.150653)
(9.73119 -0.197599 -0.00442854)
(11.5102 -0.446938 -0.713827)
(10.8169 0.378098 0.285458)
(10.216 -0.607193 0.293356)
(10.0795 0.0211574 0.110398)
(10.5161 0.231637 -0.110879)
(10.3112 -0.165306 -0.0789779)
(11.6365 -0.113452 -0.191623)
(10.3987 0.0159174 -0.0937136)
(10.0168 -0.7767 0.267771)
(10.0614 0.18448 -0.124657)
(10.0429 -0.0299474 -0.0112715)
(11.6384 0.060275 0.952695)
(10.1882 0.0872426 -0.0641908)
(10.2393 0.00150708 0.00405466)
(10.0616 0.018215 -0.101703)
(9.96189 -0.749778 0.170121)
(2.97186 -0.291495 -6.073)
(10.135 0.114733 0.157799)
(5.76265 0.146481 -10.69)
(8.93104 -0.989605 -0.380147)
(9.97134 0.0263989 -0.00129699)
(10.7077 0.23465 -1.4332)
(7.36405 -3.53501 -2.24346)
(9.91 -0.13432 -0.501592)
(9.98106 -0.135501 0.165365)
(10.5762 -0.414154 0.17004)
(10.0296 0.0831547 -0.165445)
(10.0086 -0.0365114 -0.0767051)
(9.85139 0.294005 -0.0172449)
(11.9321 0.114789 -0.12465)
(1.6367 -1.83972 -1.92401)
(9.96631 -0.0156634 -0.101439)
(8.09625 5.53484 1.3033)
(10.0685 -0.21846 -0.118086)
(11.9282 0.469257 -3.61942)
(9.13132 4.99056 1.07341)
(10.1461 0.0610702 0.013203)
(10.1746 0.115108 0.0361882)
(9.30892 -0.797543 -0.323726)
(10.4306 0.218766 -0.220016)
(9.37735 -2.74981 -0.89264)
(2.81358 0.825106 -6.86469)
(10.0053 -0.0494308 -0.00611934)
(10.0776 0.0388938 0.0138319)
(10.0846 -0.077929 -0.045846)
(2.58664 0.349432 -10.2529)
(10.0064 -0.012957 -0.0139528)
(9.97365 -0.0280087 0.0241012)
(9.72465 -0.21821 0.0272713)
(10.0052 -0.046037 -0.0506931)
(10.0459 -0.0701454 -0.190155)
(10.1448 -0.232665 0.0451443)
(5.624 -0.31591 -0.0544631)
(9.9704 -0.0415958 0.0342649)
(10.0546 0.0125595 -0.0680282)
(10.0291 -0.041209 0.0984955)
(9.98755 -0.161359 0.0574086)
(11.1493 0.645907 -1.14932)
(10.0302 0.0876277 -0.00799905)
(9.87253 -0.0729693 -0.0232195)
(10.6344 -0.220394 0.0529123)
(10.094 0.017827 -0.0915166)
(10.0707 0.0237165 0.0258578)
(10.7411 -0.243135 0.13458)
(10.1034 -0.100891 0.0252208)
(10.1063 0.100919 -0.0535257)
(10.0667 -0.141893 0.0141765)
(10.032 0.0572177 0.00597873)
(10.5399 -0.291284 0.0386907)
(10.1857 -1.22993 -0.686359)
(10.3222 -0.0351915 0.113872)
(9.9195 -0.0219775 0.171668)
(10.5633 -0.214202 0.042555)
(9.98012 0.230249 -0.126789)
(9.7905 0.214279 -0.0419863)
(10.1174 -0.0407169 -0.212919)
(10.6768 -0.00145121 0.0749199)
(10.0495 0.216977 0.00371293)
(10.0612 -0.137802 -0.0188529)
(10.2521 0.0575364 -0.0520755)
(10.7273 -0.333685 -0.134892)
(10.4187 0.0733693 -0.0215872)
(10.7237 0.113402 1.0845)
(8.71458 -1.10178 -0.296141)
(10.0694 -0.172241 -0.069559)
(11.2076 -0.20704 2.10612)
(10.5858 0.143541 0.151114)
(9.65663 -0.59368 -0.120451)
(10.4985 -0.107693 -0.0549072)
(10.2619 0.0132562 0.184967)
(11.2026 -0.446127 2.04608)
(10.018 -0.0387687 0.0618084)
(10.6057 -0.277756 -0.0925367)
(10.7467 0.510674 0.309977)
(11.1226 0.88003 -0.186352)
(10.4426 0.0180236 -0.0520396)
(10.0523 0.0211064 0.132946)
(10.0878 -0.0116759 -0.00307577)
(10.0049 0.0332247 0.0479679)
(10.1959 0.13766 0.0140758)
(10.059 0.140296 -0.00959133)
(11.1767 0.389449 1.77303)
(9.93466 0.0731121 -0.0302573)
(11.4077 0.358437 1.60712)
(10.2961 0.0409887 -0.115864)
(9.87832 0.0326208 0.131796)
(9.81277 -0.116262 -0.0280306)
(9.94305 0.0413843 0.0264389)
(11.2901 -0.0364518 -0.203218)
(10.3254 0.255958 -0.0423698)
(9.82369 -0.0415373 0.132389)
(10.2152 -0.0962159 0.118445)
(9.54878 0.22735 -0.075387)
(9.98234 -0.00981655 -0.0644786)
(9.92019 0.0683149 0.0352627)
(9.8655 -0.217265 0.103443)
(11.1842 -0.0560681 1.73634)
(10.111 -0.0574947 -0.00740797)
(9.98076 -0.139554 -0.0268702)
(9.84597 -0.0341986 0.0158973)
(10.0106 0.0408175 -0.00537268)
(9.88083 -0.172196 0.0738527)
(10.3598 -0.0748078 -0.154091)
(10.5459 -0.199746 0.116078)
(10.1049 0.0220529 0.0214953)
(10.2517 -0.11274 -0.354571)
(9.96253 -0.0777809 0.0457484)
(9.9705 0.112719 -0.0345332)
(10.3738 -0.0762475 -0.0553074)
(11.1171 0.103838 0.573402)
(9.76076 -0.25433 0.0065987)
(9.92422 -0.0566338 0.0771064)
(11.1795 0.121965 0.464165)
(9.83631 0.0988903 0.183647)
(10.1765 0.153415 -0.0535776)
(9.85348 0.0885854 -0.0266344)
(11.4495 0.463394 1.29296)
(11.0684 0.509679 1.46994)
(10.1785 -0.267772 -0.0762813)
(11.3035 0.217036 1.5378)
(10.408 -0.016162 -0.0113725)
(11.3662 0.339309 1.40852)
(7.21567 3.08874 2.70435)
(11.0346 0.424962 1.51631)
(5.82325 1.03131 -4.57306)
(5.44855 -5.95389 1.29933)
(10.0239 -0.0661017 0.0526121)
(5.21064 -6.13186 0.474134)
(9.84323 0.236326 -0.113291)
(9.89962 0.0260527 -0.0413925)
(10.736 -0.112097 0.0605638)
(9.93951 0.253788 0.0986371)
(9.88306 -0.0275909 0.0745916)
(9.62535 0.262959 0.194491)
(10.302 -0.470979 0.0618791)
(1.35035 1.5603 -2.94635)
(9.32918 0.622709 0.14068)
(10.0056 -0.00663819 -0.00487518)
(9.85282 0.0292409 -0.00856441)
(9.90771 -0.0842324 0.179177)
(10.8988 0.0856197 0.413551)
(11.4797 0.0527347 -0.182901)
(10.2635 -0.372072 0.159732)
(9.99578 -0.0294778 -0.00191628)
(11.2566 0.0782439 0.442225)
(9.97586 0.0885402 -0.154427)
(10.1425 -0.164175 0.0225964)
(10.0118 -0.278357 0.0240517)
(9.94973 -0.139752 0.172837)
(13.511 3.06621 0.538399)
(8.53383 0.837814 0.815235)
(1.5151 0.972178 -5.65744)
(9.88623 -0.0202446 0.101544)
(10.0555 0.0797293 -0.0255184)
(9.99019 -0.545013 0.0629736)
(9.93901 -0.365554 -0.0432804)
(1.13583 -0.507358 -5.11374)
(10.0953 -0.00849851 0.0039857)
(10.1016 -0.044759 0.000995231)
(10.3873 2.50558 1.55104)
(9.98821 0.0361156 -0.149622)
(9.9953 -0.00599345 0.0236274)
(9.8473 0.139821 -0.00461669)
(9.75877 0.160344 0.096065)
(13.753 0.590184 0.130273)
(10.5921 2.24238 1.48958)
(10.1439 0.109143 0.151109)
(10.2695 0.269027 -0.0855514)
(10.0097 0.180513 -0.133922)
(9.89219 0.0251863 -0.303985)
(10.0658 0.0740041 -0.0658974)
(10.0533 5.46546e-05 0.168374)
(10.0112 0.0855959 -0.22951)
(9.96246 -0.0120558 -0.0894177)
(10.0278 0.0856412 -0.043293)
(10.8423 -0.0231859 0.332237)
(12.5734 -2.67222 1.49028)
(10.2768 -0.626176 -1.04215)
(9.99901 0.0766115 0.0746953)
(9.9927 0.0219237 -0.159529)
(9.79309 0.0273059 -0.0440079)
(12.8577 -2.08678 1.66699)
(10.0025 -0.109163 -0.220778)
(10.078 -0.0054171 -0.044836)
(9.99365 -0.145474 -0.0489696)
(10.025 0.128201 -0.0348961)
(9.98658 0.0610797 -0.0822994)
(10.0978 -0.0943526 0.0325634)
(9.77107 0.0636418 0.0332747)
(10.1305 -0.0900415 0.213464)
(9.67948 -0.140109 -0.0623919)
(9.94515 0.153402 -0.0207351)
(9.71616 0.300657 -0.0580835)
(10.0381 0.15864 0.0608119)
(9.92797 0.0133136 0.160096)
(9.97477 0.0874513 -0.0416652)
(10.3234 -0.504978 0.0836585)
(10.0404 0.162607 0.00432428)
(9.71298 -0.116147 0.0331239)
(9.93203 0.0952937 0.179139)
(11.0732 -0.737629 0.0620288)
(10.1927 -0.0521085 -0.0145503)
(9.46138 0.237029 0.213313)
(9.93788 -0.0999595 0.0670751)
(10.2297 0.172185 0.0286688)
(10.6434 0.136014 2.01458)
(10.5532 -0.590875 -0.360202)
(10.0416 -0.147766 0.0245177)
(10.0045 0.135193 -0.0833455)
(10.2685 -0.100736 0.162116)
(10.1101 0.239884 0.0556628)
(10.1045 -0.0115449 -0.0938441)
(10.0729 0.0731273 0.113927)
(10.0313 -0.0168982 -0.0469109)
(10.203 0.550989 -0.0516632)
(10.1267 -0.0260427 -0.143756)
(0.643355 -2.72319 -1.2044)
(10.3496 -0.113288 0.0515979)
(10.0713 0.669977 0.0569611)
(10.0078 -0.0584031 0.00247959)
(10.0723 0.584662 0.0475735)
(9.78094 -0.171975 -0.112904)
(10.0269 -0.11395 0.0191424)
(9.94541 0.0459026 -0.0607488)
(9.7925 -0.0446909 -0.0162247)
(9.98685 0.0644479 -0.0808561)
(10.0735 0.668117 -0.00219982)
(10.3201 -0.0314715 0.0271413)
(10.2468 0.0821657 0.0103474)
(9.87603 -0.000653945 0.0522398)
(10.1401 0.0834887 0.0302294)
(10.0869 -0.0139157 -0.0967427)
(10.1563 0.196458 0.0366133)
(10.1919 -0.106146 -0.113648)
(10.0738 -0.0543237 -0.0803526)
(10.2677 0.814199 -0.16145)
(10.2122 0.969968 -0.195994)
(10.2106 -0.0224292 0.00271652)
(10.4099 -0.0729153 0.180859)
(10.0994 -0.072153 -0.200587)
(10.2213 0.754293 -0.145066)
(10.1565 0.000991703 0.0140357)
(10.0049 -0.0187506 -0.107224)
(11.4676 -0.669434 -0.659436)
(9.88908 0.018708 0.0382582)
(10.2658 -0.804769 1.77789)
(10.0633 -0.0902229 0.0354748)
(10.8477 -1.79235 -3.77221)
(9.91597 -0.0506133 -0.0430286)
(10.5582 0.085777 0.0991056)
(9.9318 0.206694 -0.262904)
(9.94783 -0.0133626 -0.0721166)
(9.84477 -0.0447096 0.0607451)
(10.0943 -0.0146198 -0.0679202)
(10.1786 0.13266 -0.0590221)
(10.2089 0.865179 -0.130198)
(2.91113 -2.15288 1.21919)
(2.37443 -0.423531 -2.04855)
(10.1707 0.135633 0.190936)
(10.1559 1.37844 -0.67642)
(10.5198 0.58319 -0.335255)
(10.6137 0.546524 -0.303015)
(9.98996 -0.074937 0.0861774)
(9.91349 0.0336989 0.108987)
(10.05 0.0322597 -0.0589898)
(9.94269 0.0564507 -0.0367045)
(9.98607 -0.0651504 -0.0182066)
(10.0588 0.0497992 -0.0834591)
(10.5714 0.544092 -0.201285)
(10.0149 -0.0805309 -0.0412657)
(9.93738 -0.0356276 -0.147693)
(10.4754 -1.24148 0.536602)
(11.0944 0.490765 -0.0529916)
(10.7787 0.374872 0.105243)
(8.0059 -1.18573 -4.56376)
(0.130396 5.50986 -0.0144585)
(10.1362 -0.185874 0.0120947)
(7.35041 -0.812309 -5.0332)
(0.413876 4.90546 0.267665)
(9.73277 0.108207 0.0676763)
(-0.010638 5.58196 0.174804)
(8.95515 -1.79034 1.64844)
(9.96019 -0.0795243 -0.042108)
(10.7461 0.593123 -0.264264)
(10.7073 0.616812 -0.309978)
(10.9387 0.544391 -0.174904)
(-0.767872 5.26971 0.0731718)
(10.1382 0.0684264 -0.024517)
(10.0609 -0.0908005 -0.0450624)
(10.0301 -0.010275 0.0917483)
(11.012 0.594668 -0.24401)
(10.912 0.609258 -0.334512)
(10.0869 0.0598015 0.0125711)
(10.0029 0.0597415 0.0321056)
(9.86108 3.65367 3.09746)
(-0.949053 4.57239 -0.575294)
(12.4752 -0.307922 -2.54927)
(10.0946 0.0296508 -0.0164653)
(8.72892 -0.604974 -2.83434)
(10.2621 0.325311 0.684123)
(10.1427 -0.142423 0.0599964)
(10.6115 0.272738 0.0647155)
(11.3623 0.300193 0.277865)
(10.5994 0.203299 0.00907574)
(10.2163 0.030254 -0.00965599)
(10.0254 -0.00828131 -0.00887592)
(9.97236 0.0589235 -0.040108)
(10.3941 0.234864 -0.0844419)
(9.97994 -0.00791334 0.007664)
(9.98915 -0.142574 0.0991949)
(9.99423 0.118402 0.140829)
(9.966 0.267543 -0.0789599)
(10.7181 0.0494125 0.0685583)
(10.0223 -0.0724871 0.0383248)
(10.103 -0.0116965 -0.166405)
(10.168 0.0568449 -0.0288768)
(10.0352 -0.0226713 -0.0658562)
(9.81886 -0.151828 0.0893302)
(10.3104 0.192669 -0.0815898)
(10.2725 -0.0544159 -0.0726833)
(9.85218 0.0397883 -0.0821148)
(10.6766 0.0976928 0.019871)
(9.40951 4.44445 2.52777)
(9.92785 -0.124835 -0.00464286)
(11.5848 1.51493 -0.988613)
(10.0338 0.0209769 -0.116069)
(10.4155 -0.198816 0.0485576)
(9.33154 -0.185875 1.34804)
(9.68715 1.2777 -0.413749)
(10.024 -0.0211555 -0.0241757)
(9.77157 1.34076 -0.469057)
(10.1373 -0.0237627 -0.254035)
(9.81686 -0.0750284 0.0447046)
(9.91924 1.21491 -0.758558)
(10.0397 0.236564 -0.501138)
(10.209 -0.200147 0.0183413)
(9.82013 1.07224 -0.484119)
(10.2099 -0.0629628 0.0199506)
(10.4329 -0.0222137 -0.219819)
(8.18282 0.21018 -3.59341)
(10.0385 0.0273504 0.0185782)
(9.64612 1.67606 -0.370662)
(9.87573 -0.149192 -0.0247536)
(9.05013 1.8814 -0.746781)
(10.1004 -0.193167 -0.0108215)
(9.89379 -0.0958647 0.01992)
(9.9637 0.135515 -0.0155047)
(10.1103 -0.00331365 0.0197515)
(10.978 0.401931 0.614024)
(9.94878 0.0753478 -0.0069642)
(10.0463 0.00460853 -0.0138099)
(9.98188 -0.0195128 0.0335377)
(10.0934 0.0681384 0.0247419)
(10.8515 0.18916 0.126191)
(10.0937 -0.0166397 0.0755336)
(10.049 0.00442449 0.0559333)
(8.79951 0.244242 -0.317358)
(10.0987 0.00458415 -0.00563656)
(9.92437 0.0414494 0.0364023)
(9.91295 -0.0222874 -0.0262531)
(9.87757 0.042602 -0.0762916)
(10.0662 -0.0106376 0.091774)
(10.0208 0.0418513 0.0306328)
(10.024 0.0430242 -0.123152)
(10.1462 1.25883 -0.899851)
(10.1388 -0.0290113 -0.0107796)
(9.88513 -0.0195125 -0.129011)
(2.91683 -0.261217 -5.11133)
(9.96797 0.0813365 -0.0340833)
(10.0667 -0.062568 -0.0547757)
(9.98825 -0.0264928 0.0449873)
(10.0831 0.0097553 0.00177572)
(12.2964 0.815811 0.241604)
(12.3628 0.43406 0.563361)
(9.99354 0.0252909 0.224136)
(9.80746 0.0295673 0.0155656)
(10.1354 -0.0725188 -0.224661)
(10.8159 0.0093753 0.887682)
(9.82678 -0.0443224 0.0723793)
(12.3442 1.21763 0.175419)
(9.91378 -0.226139 0.0640067)
(-0.659744 -1.8412 3.46117)
(8.07806 -0.357113 -0.435939)
(9.78666 -0.619729 2.07196)
(9.85605 0.0871222 -0.152377)
(12.2734 1.0817 0.253379)
(9.98643 -0.0182053 -0.0402698)
(10.0427 0.0637183 0.0697877)
(10.1223 0.0712887 -0.0245409)
(10.1136 -0.00752238 0.118821)
(10.0266 -0.0460582 -0.0074511)
(9.99519 -0.0935709 -0.0821976)
(9.68738 0.276247 0.956712)
(9.96349 -0.00227549 0.0483501)
(10.1028 0.184908 -0.112942)
(10.0824 0.0742646 -0.0699357)
(12.2523 0.744246 0.23003)
(10.0664 -0.0799179 0.0474847)
(10.0243 -0.0279105 -0.0273614)
(12.083 0.872052 0.112151)
(11.8808 0.172497 0.334601)
(10.0001 0.0494099 -0.0760736)
(9.99334 -0.00218348 -0.0312588)
(-0.312575 1.56617 1.18575)
(9.82666 0.0379012 0.0207533)
(10.1956 -0.232989 0.0777424)
(10.0252 0.115168 0.040924)
(9.99801 0.0506447 0.117942)
(10.0951 -0.0207244 -0.0286592)
(11.6419 0.343841 0.0696651)
(10.6857 0.0497956 1.01204)
(9.55845 0.494172 1.01125)
(10.1165 -0.0161282 -0.0656355)
(10.0843 0.129762 -0.0604074)
(9.92055 -0.0987111 0.0419424)
(12.3953 -0.115446 1.25366)
(9.41515 0.15072 -0.233399)
(9.97697 -0.101291 0.155226)
(-0.306083 1.23511 1.05155)
(10.137 0.0246268 0.0885559)
(10.0999 -0.0205113 -0.00527888)
(-1.18692 1.34847 1.35498)
(11.7987 1.91322 -0.883321)
(9.86175 0.0777048 0.0627421)
(0.104846 1.24404 0.536429)
(-0.0832044 1.61424 1.06122)
(9.99829 0.0380737 0.0285716)
(9.95608 0.16531 0.157596)
(9.99068 -0.0433001 -0.118169)
(9.71548 -0.235578 0.182328)
(10.1285 -0.17951 0.0678112)
(9.80258 -0.0629397 0.0655479)
(12.4649 3.40475 0.908005)
(10.1949 0.236526 0.156967)
(10.1425 0.178833 -0.0227203)
(10.1082 0.0413767 -0.0718161)
(12.1927 -0.118392 0.338987)
(11.6056 0.675225 0.0581765)
(10.2742 -0.272842 -0.210665)
(10.2059 0.186403 -0.0626294)
(-3.29266 -2.48197 -0.283381)
(5.9028 -1.2802 -3.01058)
(10.6665 0.223564 -0.081324)
(10.0146 -0.0529686 0.140768)
(10.085 -0.161368 0.0345309)
(10.7555 -0.127308 -0.530011)
(10.0448 -0.0590643 -0.223739)
(9.97286 0.0952698 -0.243061)
(10.1017 -0.182747 -0.0754545)
(10.2329 0.030325 0.134995)
(10.0618 0.0439684 -0.0925484)
(10.3691 0.233777 0.157523)
(10.2105 -0.0710492 0.206358)
(12.3695 0.774845 -0.370667)
(10.1298 1.44594 -0.935981)
(10.5248 0.20574 -0.133644)
(12.4329 0.951289 -0.645254)
(10.584 -0.000130425 -0.10718)
(9.8603 0.0543691 0.0661669)
(10.5728 0.659363 0.164495)
(10.2138 0.073023 -0.0206554)
(10.0836 0.165761 0.186721)
(10.1313 0.0353933 -0.0558579)
(10.2111 0.660283 -0.288313)
(8.01628 -0.581097 -0.99198)
(10.078 -0.0629438 0.0772689)
(10.4593 0.183242 0.0633371)
(9.9864 -0.106362 0.112095)
(13.8655 -5.04468 -1.4427)
(10.6988 -0.405255 0.724213)
(11.0233 -0.0111834 0.674518)
(6.32747 1.38839 0.499727)
(6.13597 1.39255 0.362615)
(10.0413 0.0607848 -0.00581946)
(9.97935 0.227154 0.278806)
(5.11743 1.15729 -0.191538)
(9.99974 -0.0365057 0.0135821)
(9.86719 -1.62898 -3.0041)
(9.80505 0.284399 1.00245)
(9.8863 -0.0539839 -0.205653)
(10.0195 1.49472 1.14677)
(10.0428 -0.0238267 -0.0149197)
(9.98833 0.117001 -0.0167082)
(10.1296 -0.0637944 0.11264)
(12.6388 0.318897 0.0262755)
(9.79326 -0.0257498 0.152533)
(9.93869 -0.207882 -0.00301983)
(10.0403 -0.0411624 -0.0177711)
(10.0772 0.23251 0.0981491)
(9.97607 0.0202029 0.0265204)
(9.98422 0.00452231 0.0753191)
(10.0864 0.052483 0.00624657)
(9.89251 0.08495 0.00156309)
(11.2144 0.409171 0.440323)
(9.9895 2.22313 -3.39989)
(14.3319 1.78994 0.0294017)
(10.548 0.214789 -0.0439157)
(10.0555 1.02626 1.37004)
(10.2715 0.0294207 -0.00603008)
(9.38243 -0.80991 0.252428)
(10.2752 -0.0863635 -0.0842952)
(10.0236 0.20301 0.0972904)
(10.1472 0.0603656 0.0358972)
(10.079 -0.00646963 -0.0447356)
(10.0277 0.0168225 0.202012)
(9.20344 0.260269 -0.696465)
(11.3685 0.210247 0.188754)
(10.1375 -0.0159627 0.0873035)
(10.2233 -0.267131 0.100367)
(11.9754 0.871396 1.47963)
(10.0557 0.0254775 0.0616873)
(6.95727 -3.99989 3.0276)
(12.6572 -0.88864 -2.40847)
(9.85077 -0.0465772 0.0758094)
(9.57018 -0.317265 0.255096)
(10.4469 -0.22702 0.261245)
(10.067 0.0764862 -0.0300144)
(7.61317 -1.58282 2.84816)
(9.97808 -0.0876434 0.0183609)
(9.81232 -5.44886 1.14395)
(10.1013 0.214901 0.0296914)
(10.995 -0.0721919 0.821684)
(11.4706 0.440999 0.0914973)
(10.051 -0.0245745 -0.0860252)
(9.94157 0.118615 -0.0435198)
(10.4195 0.290404 -0.177221)
(8.63845 -0.54539 -1.843)
(9.68043 0.00569035 -0.0408409)
(10.0233 0.197899 0.203579)
(10.1827 -0.0130208 0.126722)
(11.4942 -0.0202309 0.658077)
(9.97113 -0.0469041 -0.00896716)
(11.6232 0.403052 0.366856)
(10.2249 -0.0199622 0.0747605)
(4.96779 3.80369 1.63733)
(11.4102 0.379693 0.158638)
(10.2187 -0.0203211 0.0992834)
(11.4746 0.379097 0.273599)
(10.1018 -0.00455394 -0.0906043)
(10.1548 0.0650838 0.0774373)
(10.3316 0.206122 0.0836911)
(10.1737 0.0928895 -0.0103083)
(11.6611 0.457752 0.240405)
(9.95997 -0.0633742 0.06297)
(10.0974 -0.316188 -0.0327422)
(11.5299 0.431727 0.130926)
(10.0314 0.0615008 0.119091)
(10.1865 0.0392821 -0.0481953)
(9.97798 0.048651 0.0202534)
(10.0106 0.0166937 0.0162908)
(6.8161 0.235092 -4.53746)
(6.65414 -0.25102 -5.06627)
(10.185 0.0788215 0.403245)
(8.76388 0.291809 -3.67194)
(9.96164 0.0746558 -0.0333193)
(9.89576 -0.0147131 -0.0514114)
(10.5686 0.43362 -0.213199)
(10.1019 -0.195892 0.158922)
(9.79323 0.0431152 0.347339)
(10.2336 -0.0210879 0.0538447)
(10.0059 -0.129612 -0.00712379)
(10.0439 0.0793195 -0.0670847)
(10.0038 0.162523 -0.184522)
(5.18625 0.0162916 -5.66202)
(6.98469 -1.04609 0.260781)
(10.0061 0.110435 -0.0528189)
(9.94966 0.0418774 -0.139296)
(9.85197 -0.124716 -0.012681)
(10.1001 -0.0752141 0.0279616)
(9.92525 -0.0389334 -0.0643179)
(10.1137 0.148495 -0.0196994)
(10.7181 -0.237925 0.152496)
(11.0473 -1.5567 2.24191)
(10.0379 0.0528243 -0.0397624)
(9.9041 -0.208522 0.182895)
(10.238 0.0774002 0.0584493)
(10.0131 -0.0248145 0.13612)
(9.91192 0.0926506 -0.0253276)
(10.1727 -0.0156783 0.0403696)
(10.2666 -0.0351652 0.000864495)
(10.0551 0.0289333 0.0200204)
(10.0042 -0.0917897 -0.164967)
(10.1878 -0.160878 0.0863989)
(9.24515 -0.789882 -0.893872)
(5.08029 0.545542 -4.12929)
(9.94019 0.0591823 -0.0994076)
(-0.49644 -1.16284 1.15893)
(9.76417 -2.37782 1.2247)
(12.6254 -1.21765 -0.766741)
(-0.158211 -1.27601 0.714302)
(10.071 0.171381 -0.0596793)
(9.27608 -0.0681663 1.10347)
(10.2823 -0.435103 -2.19723)
(10.9184 -0.961345 0.415394)
(5.66821 0.29441 -3.1437)
(0.0169697 1.21055 2.23097)
(1.37195 0.356503 -2.72416)
(10.9586 0.00868162 0.527582)
(10.3584 0.0366067 0.00881641)
(10.991 -0.0380707 1.0775)
(10.1779 -0.0661083 0.129595)
(4.00562 -0.223801 0.300374)
(10.6193 -0.0157721 -0.284241)
(10.445 0.027284 -0.0379124)
(9.92554 -0.0603698 -0.00387215)
(10.186 -0.0438835 0.00684698)
(10.8736 0.0324413 0.805381)
(9.56551 0.0192454 -0.210568)
(10.1998 0.155828 -0.0139811)
(10.028 0.00103644 -0.169779)
(-2.8741 0.486095 0.364489)
(8.13552 0.218918 -2.04641)
(10.2714 -0.0110051 -0.12554)
(10.0439 -0.109641 -0.0405274)
(5.25304 0.362629 -1.73741)
(5.99294 0.153305 -2.43805)
(9.96684 0.539217 -1.77876)
(-0.812401 -2.82115 -1.13293)
(6.91105 0.730632 0.625021)
(4.49527 0.245206 -3.15603)
(4.18511 0.181437 -4.04033)
(10.1485 0.0637465 -0.0286319)
(9.94259 0.0598809 -0.136697)
(9.62712 -0.0646085 0.155411)
(9.89184 -0.047696 -0.0319558)
(10.3126 0.0176704 -0.122567)
(-0.394782 1.66598 1.3455)
(10.7319 -0.0503698 -0.211694)
(10.374 0.0142812 -0.0267477)
(10.2768 -0.0321871 -0.0469853)
(10.0622 -0.0369097 -0.0370082)
(-0.272377 1.51326 1.78819)
(0.125942 1.43565 1.93797)
(9.7938 -0.0993557 0.133792)
(10.2428 -0.0718919 0.0533359)
(9.93856 0.017273 0.0376158)
(9.92659 -0.00591919 0.0559946)
(10.2761 -0.116711 0.0220247)
(10.0069 0.0148244 0.0273949)
(9.71666 0.018229 0.00237186)
(10.0445 -0.0403439 -0.0318775)
(9.95831 0.0175714 -0.0410764)
(6.82036 -0.511772 -2.57002)
(9.82201 0.034056 -0.101935)
(9.97336 0.0332706 0.0281141)
(9.95358 -0.124014 0.165006)
(10.1231 0.125551 -0.00761143)
(10.066 0.0119153 -0.0280407)
(4.10833 -0.426315 -1.82237)
(12.237 -1.12605 0.0612736)
(9.94223 -0.0170537 0.0280774)
(10.4973 0.424371 -0.174291)
(10.044 -0.0616987 -0.0873535)
(9.74434 -0.38263 0.246788)
(9.63959 -0.36026 0.355393)
(11.5478 -0.00384633 -0.0298116)
(10.0125 -0.0610455 0.0459589)
(-1.2852 0.187768 3.58011)
(11.7504 -0.0810547 -0.00814036)
(10.3068 0.11899 -0.0229978)
(10.4915 0.172112 -0.0222009)
(8.0626 0.257327 -2.91463)
(14.5578 0.806731 -0.156328)
(10.0084 -0.0982825 0.0672365)
(10.051 -0.115101 0.0906604)
(12.3633 1.09231 1.53427)
(9.90231 0.0769937 -0.250621)
(10.074 -0.0215747 -0.0401314)
(11.2196 0.218347 0.346988)
(9.99886 -0.0792374 0.0497545)
(9.89031 0.1023 -0.0360375)
(2.36002 -1.22623 -1.983)
(11.9406 -0.547124 0.481502)
(13.5528 2.04426 0.733514)
(10.0579 0.00243601 0.0141336)
(7.72219 0.398093 -2.15918)
(10.0147 -0.237501 -0.0166962)
(11.1219 -0.969189 -0.200083)
(9.58885 -0.311175 0.489684)
(11.6157 -0.0254277 -0.00677737)
(10.2838 0.382653 0.0576136)
(9.46242 -0.294699 0.477701)
(4.79751 1.08863 -0.948409)
(12.5114 1.18831 1.95174)
(11.8786 -0.300334 -0.697078)
(-1.25111 1.56793 2.65179)
(11.5074 0.188752 0.186218)
(10.2756 -0.0196671 0.100733)
(10.4185 0.0672409 -0.0516639)
(11.3532 0.942147 -0.126834)
(9.94333 0.0530183 0.184402)
(11.7787 -0.0359417 0.155489)
(0.220324 -0.900002 2.17339)
(9.94149 0.102168 0.167488)
(12.2085 0.0302701 -0.923963)
(9.82605 -0.0674341 -0.039759)
(9.80358 -0.0781409 -0.11887)
(11.4029 -1.91758 1.8555)
(10.0203 -0.113917 -0.189972)
(10.045 -0.0594556 0.0432454)
(8.69643 -5.5919 0.630284)
(9.59675 0.401434 0.0157958)
(9.77901 -0.202885 0.134476)
(11.9761 -0.735261 0.378615)
(10.0741 1.09305 1.23243)
(10.0408 -0.144051 -0.0751199)
(11.9103 -1.88917 -0.265002)
(5.52859 -0.606651 0.403417)
(10.3185 0.0827615 0.183438)
(9.54715 -0.644507 -0.558159)
(10.0705 -0.0397829 0.0863644)
(10.1068 0.17358 0.0523532)
(10.1577 -0.210628 -0.163638)
(10.2102 -0.106521 0.0921689)
(5.64181 1.33911 -2.47483)
(0.198971 -0.0666923 0.529266)
(11.2674 0.25835 -0.689035)
(9.69958 -0.837834 -0.0589924)
(11.0409 -1.9964 0.032616)
(4.66818 4.66481 -1.46443)
(2.79313 0.0119222 -1.45977)
(10.5541 -3.22213 4.32977)
(10.1691 -0.0244437 -0.0160006)
(10.0444 0.161117 0.0130148)
(9.76907 -0.0410326 0.125614)
(10.056 -0.0705608 0.0271434)
(7.66057 0.398383 -0.845554)
(9.62709 -0.454553 0.379094)
(9.44349 -0.410095 1.31278)
(9.8181 0.200746 0.242653)
(-1.5019 -0.792839 0.634482)
(11.7235 -0.0337029 0.0289001)
(9.91556 0.312265 0.00588383)
(10.1979 -0.0190513 -0.0864766)
(10.0387 0.00948857 -0.0280794)
(10.2014 0.0250752 -0.278991)
(6.21429 -1.68089 -2.73701)
(10.0205 0.153337 0.101086)
(7.23901 5.42542 -0.442542)
(10.0505 -0.102466 0.0165923)
(10.0475 -0.512349 -2.62514)
(10.0645 -0.00298314 0.0307787)
(10.1588 0.00532935 0.0423695)
(10.1935 0.0750685 0.26444)
(10.3003 0.0795747 0.100765)
(9.84103 0.0409203 -0.126153)
(12.6492 -0.0619128 -0.455895)
(12.0516 0.00153176 -0.0813885)
(9.3668 1.03558 2.65901)
(7.6665 3.89791 2.78865)
(9.55452 0.884939 0.64268)
(10.216 0.434441 0.000400056)
(11.08 0.514874 0.202494)
(6.3494 -0.19245 -2.47922)
(10.2495 -0.100551 0.0315681)
(10.2316 0.0306864 0.0501111)
(10.0479 -0.35476 0.0999713)
(11.4537 0.0393175 -0.0471035)
(10.2208 0.285499 5.04891)
(8.39641 -0.319561 1.11643)
(10.2046 -0.242889 0.135892)
(10.0118 0.177673 0.0254733)
(9.57957 0.81349 -0.175819)
(10.1437 -0.0559634 0.00215763)
(10.0618 0.149856 -0.0135953)
(14.7149 -1.65788 1.3449)
(11.7614 -0.542878 0.741485)
(0.839114 3.93843 -0.478422)
(10.2038 -0.558458 0.285435)
(11.4841 -0.784404 -0.127989)
(10.3073 -0.915633 -0.912629)
(13.1097 0.086394 -2.64247)
(9.98617 -0.102197 0.22768)
(0.0261108 -0.698302 -2.50972)
(10.1208 -0.0189725 -0.163572)
(10.0229 0.0738238 -0.120502)
(10.7486 -0.196018 0.819667)
(11.5307 0.35087 5.23422)
(10.1242 -0.0984643 0.104564)
(10.0143 0.329985 -0.351226)
(10.1265 -0.135183 0.00202177)
(10.7034 -0.793521 0.649987)
(10.837 0.032854 1.04531)
(10.0837 0.0215159 -0.0668733)
(10.7903 -0.344279 -2.64389)
(9.95642 -0.966597 -2.90931)
(12.655 0.0186055 0.0533483)
(10.1589 0.337412 -0.143989)
(9.65258 0.11656 0.179366)
(3.24395 0.654327 -3.09397)
(1.10498 -0.712768 3.76881)
(5.59368 3.01781 1.09493)
(12.6541 -0.749616 -2.27892)
(6.27533 -0.339383 -0.119261)
(9.98439 -0.0278239 -0.124808)
(9.99045 0.0848677 -0.0840054)
(8.72787 1.36984 3.07188)
(10.0484 -0.1976 0.145231)
(4.69607 -0.53779 0.417544)
(10.0062 -0.148483 -0.22783)
(9.9759 -0.0545983 -0.18452)
(-3.47573 3.03415 -0.400868)
(9.74335 -0.945372 0.932354)
(10.7415 -0.159988 0.162093)
(10.0943 -0.142577 0.0827651)
(9.45177 0.106832 0.00158481)
(8.30535 0.270604 -2.41915)
(9.97935 0.135908 0.219646)
(10.0173 0.0408145 0.0580064)
(10.2748 0.452614 0.97758)
(11.9507 -0.663874 -2.43004)
(10.2794 0.240807 0.143309)
(9.85638 0.191778 -0.0913201)
(9.80554 -0.178647 0.00705886)
(9.88281 0.134744 -0.208036)
(9.8027 -0.0634068 -0.0995004)
(11.5435 -0.676963 -1.56716)
(11.2269 -0.104917 -0.137498)
(8.59135 0.01372 0.323876)
(9.82972 -0.724922 0.566762)
(9.70953 -0.114028 -0.0623412)
(9.97797 -0.209193 -0.0363778)
(9.77913 -0.0248046 0.159003)
(9.83061 -0.0841735 0.0863315)
(10.374 0.721286 0.359738)
(11.5689 -0.95641 -0.248636)
(13.5695 -0.207312 2.38341)
(11.145 -0.0714994 0.400859)
(11.4993 -0.534087 -1.11433)
(10.115 -0.148764 -0.476645)
(0.815887 -4.22566 -2.30143)
(9.80517 -0.0693555 -0.091659)
(9.86476 -0.129364 -0.133882)