/*--------------------------------*- C++ -*----------------------------------*\
| =========                 |                                                 |
| \\      /  F ield         | OpenFOAM: The Open Source CFD Toolbox           |
|  \\    /   O peration     | Version:  2506                                  |
|   \\  /    A nd           | Website:  www.openfoam.com                      |
|    \\/     M anipulation  |                                                 |
\*---------------------------------------------------------------------------*/
FoamFile
{
    version     2.0;
    format      ascii;
    arch        "LSB;label=32;scalar=64";
    class       volScalarField;
    location    "0.00221858";
    object      k;
}
// * * * * * * * * * * * * * * * * * * * * * * * * * * * * * * * * * * * * * //

dimensions      [0 2 -2 0 0 0 0];

internalField   nonuniform List<scalar> 
47425
(
0.377378
0.388981
0.382771
0.390672
0.39621
0.385478
0.403436
0.389164
0.389682
0.39301
0.377032
0.385089
0.389676
0.376669
0.376356
0.376954
0.379417
0.402359
0.473907
0.392676
0.384247
0.386068
0.378477
0.380756
0.381336
0.383663
0.387242
0.47592
0.39131
0.38874
0.391216
0.380609
0.388108
0.384925
0.381211
0.376611
0.377671
0.393019
0.398353
0.390375
0.377684
0.376816
0.382546
0.379018
0.525711
0.379605
0.374934
0.383995
0.393892
0.381698
0.42853
0.387243
0.388184
0.406317
0.376939
0.384384
0.376061
0.392687
0.391
0.39334
0.406621
0.488218
0.408263
0.38752
0.397218
0.384038
0.385541
0.380645
0.422545
0.386349
0.389202
0.384982
0.386979
0.381621
0.407989
0.385891
0.415133
0.386396
0.439062
0.393782
0.411462
0.382292
0.384937
0.380969
0.381158
0.381792
0.382253
0.37633
0.381329
0.396842
0.388066
0.386111
0.386166
0.380144
0.380435
0.386645
0.380723
0.378378
0.38712
0.377584
0.373964
0.40738
0.375991
0.399969
0.377945
0.384674
0.388848
0.377714
0.37894
0.384317
0.390044
0.373166
0.388117
0.386311
0.396418
0.462065
0.386199
0.423095
0.379743
0.389844
0.378473
0.396101
0.379234
0.390351
0.394594
0.381136
0.379356
0.382653
0.378411
0.381694
0.38211
0.380127
0.410364
0.377431
0.382971
0.40251
0.38393
0.382346
0.386908
0.384099
0.385447
0.381577
0.38268
0.381608
0.383969
0.383207
0.385009
0.377402
0.375171
0.378906
0.382153
0.453933
0.383744
0.460295
0.383696
0.379764
0.377863
0.464715
0.379296
0.375138
0.393733
0.376494
0.384827
0.383218
0.385685
0.444259
0.372772
0.410149
0.390153
0.450415
0.409405
0.380492
0.378814
0.388194
0.37757
0.393809
0.471052
0.375977
0.386409
0.376837
0.450967
0.382525
0.385327
0.391883
0.380393
0.374649
0.376024
0.397986
0.388315
0.376617
0.382481
0.384411
0.396563
0.39154
0.37371
0.381936
0.391708
0.374716
0.388077
0.380583
0.384663
0.40102
0.384385
0.380238
0.386764
0.391235
0.387838
0.384239
0.377051
0.406616
0.381741
0.386216
0.37899
0.386454
0.386872
0.390164
0.391202
0.388342
0.383222
0.377619
0.393684
0.388955
0.380732
0.39255
0.3829
0.392841
0.379689
0.395569
0.38693
0.387716
0.387277
0.382184
0.377052
0.379794
0.384603
0.378853
0.393906
0.379659
0.393157
0.382418
0.382871
0.388003
0.381875
0.387543
0.383086
0.404725
0.376479
0.389677
0.377694
0.390579
0.383267
0.390474
0.377913
0.386102
0.393561
0.380872
0.380698
0.402243
0.379323
0.388314
0.381074
0.37678
0.376473
0.381504
0.388835
0.378233
0.373999
0.390645
0.382944
0.38809
0.380951
0.393734
0.39554
0.388554
0.390442
0.38909
0.391902
0.422067
0.393776
0.422494
0.403363
0.377016
0.405369
0.379875
0.379322
0.388575
0.380572
0.376661
0.378542
0.396578
0.416988
0.391306
0.385012
0.37858
0.381222
0.381191
0.39033
0.398938
0.377223
0.386362
0.377577
0.390017
0.375224
0.37848
0.461687
0.514768
0.449604
0.375547
0.377842
0.397732
0.374191
0.426416
0.386219
0.377473
0.393349
0.380226
0.380319
0.379596
0.382306
0.42024
0.394432
0.38157
0.378041
0.376841
0.377723
0.373263
0.393872
0.37907
0.379369
0.386769
0.386745
0.428078
0.387364
0.376148
0.379158
0.382926
0.434279
0.380127
0.373936
0.387962
0.399416
0.388916
0.37674
0.378827
0.378567
0.38412
0.390504
0.382114
0.382763
0.377955
0.39745
0.382262
0.378561
0.384453
0.385708
0.387892
0.385465
0.39163
0.382279
0.382106
0.387813
0.38674
0.376651
0.378459
0.388615
0.375588
0.380916
0.38287
0.3798
0.387098
0.378743
0.467848
0.3748
0.381445
0.378373
0.381551
0.381081
0.378496
0.388035
0.380571
0.383301
0.382445
0.380066
0.385009
0.375842
0.385405
0.381645
0.384459
0.386274
0.383153
0.380101
0.384897
0.381522
0.383332
0.38065
0.378343
0.376877
0.382651
0.394765
0.384619
0.404103
0.378289
0.395103
0.377867
0.380057
0.379464
0.377065
0.376122
0.373742
0.38804
0.383405
0.521696
0.432766
0.394263
0.386449
0.383936
0.388581
0.385766
0.384987
0.385563
0.381093
0.393511
0.387236
0.378842
0.382005
0.381353
0.382127
0.387152
0.380974
0.412127
0.373775
0.382179
0.44021
0.375815
0.378066
0.386736
0.417465
0.383277
0.38825
0.380205
0.385479
0.412776
0.379992
0.382544
0.375291
0.381214
0.383264
0.389445
0.377629
0.406228
0.401974
0.399619
0.384042
0.400174
0.383021
0.384936
0.384607
0.386286
0.380233
0.383832
0.381367
0.380854
0.400613
0.386199
0.383032
0.384131
0.377847
0.389667
0.386656
0.39329
0.381026
0.377826
0.377783
0.378107
0.393501
0.378406
0.386791
0.402422
0.373959
0.392897
0.384516
0.384317
0.381794
0.394591
0.375155
0.390442
0.377288
0.390251
0.390137
0.378175
0.380137
0.385479
0.383567
0.38038
0.407959
0.387487
0.393729
0.374402
0.391746
0.373729
0.393872
0.375246
0.387597
0.382254
0.379906
0.381279
0.378988
0.378295
0.38817
0.382734
0.381025
0.387776
0.383327
0.378634
0.381633
0.375018
0.391032
0.377252
0.391796
0.390668
0.376557
0.381998
0.431431
0.385405
0.378051
0.377055
0.388359
0.394151
0.391142
0.377595
0.38676
0.376287
0.39223
0.379669
0.392737
0.391111
0.424115
0.393005
0.385593
0.397807
0.393098
0.378868
0.376067
0.379406
0.382941
0.399216
0.383326
0.486649
0.380318
0.377674
0.383606
0.391782
0.394362
0.395756
0.391461
0.392115
0.385017
0.382108
0.400909
0.381726
0.37752
0.383385
0.379767
0.378906
0.396486
0.391691
0.400474
0.386258
0.376675
0.383013
0.401742
0.390006
0.375238
0.398589
0.384373
0.397457
0.40026
0.402435
0.379289
0.325731
0.33161
0.382596
0.386501
0.377449
0.388522
0.376899
0.377476
0.411147
0.405517
0.381407
0.390441
0.388821
0.396953
0.378289
0.380948
0.399282
0.385405
0.389473
0.378608
0.385808
0.384671
0.383598
0.379808
0.381092
0.384464
0.380341
0.390361
0.379282
0.386661
0.390722
0.386865
0.392026
0.382741
0.379625
0.378185
0.377749
0.380449
0.383087
0.386367
0.38525
0.388076
0.380951
0.383062
0.598131
0.380149
0.387742
0.403135
0.404436
0.372855
0.377871
0.419247
0.379148
0.403764
0.396763
0.379039
0.418316
0.388647
0.372929
0.37902
0.385024
0.379645
0.381926
0.379177
0.379608
0.383215
0.38307
0.383676
0.384767
0.381142
0.396048
0.458586
0.382553
0.388806
0.378896
0.386328
0.378109
0.380421
0.379262
0.382155
0.384113
0.392053
0.381575
0.384574
0.387239
0.399036
0.381019
0.436135
0.399562
0.389424
0.387781
0.389793
0.377781
0.462567
0.387065
0.414272
0.388558
0.396643
0.388092
0.376357
0.377871
0.39005
0.401218
0.391804
0.375456
0.38408
0.383072
0.39173
0.386381
0.372905
0.436977
0.385494
0.38016
0.386541
0.387391
0.37946
0.379548
0.379068
0.386372
0.373491
0.383044
0.383403
0.39416
0.376233
0.384736
0.377485
0.408795
0.425043
0.381206
0.404889
0.38009
0.376878
0.386458
0.378752
0.383797
0.389779
0.377419
0.376681
0.384023
0.43546
0.389843
0.382224
0.38175
0.382638
0.379868
0.374074
0.377482
0.382579
0.392163
0.377879
0.37865
0.380848
0.380873
0.373118
0.393579
0.380868
0.388831
0.386016
0.37959
0.388429
0.414608
0.379344
0.39935
0.391865
0.396857
0.34857
0.385894
0.386293
0.388331
0.387165
0.41332
0.357003
0.425991
0.382111
0.38256
0.385169
0.378056
0.413013
0.382658
0.380867
0.380108
0.376359
0.397623
0.379228
0.376609
0.378126
0.395429
0.391264
0.385317
0.382742
0.398796
0.419145
0.381459
0.392768
0.399588
0.423886
0.421617
0.388262
0.386142
0.376605
0.379983
0.375292
0.34904
0.382466
0.378166
0.373385
0.372849
0.387956
0.355244
0.37992
0.382008
0.379328
0.378849
0.379678
0.375119
0.383082
0.389352
0.375893
0.399702
0.375094
0.374177
0.379787
0.376879
0.389958
0.406245
0.394345
0.380476
0.39336
0.381803
0.37414
0.378799
0.382762
0.377626
0.386148
0.386757
0.387225
0.392559
0.395353
0.493166
0.386308
0.387012
0.399128
0.389813
0.37977
0.380446
0.38441
0.379987
0.409705
0.387275
0.460717
0.386241
0.399127
0.377123
0.390157
0.388369
0.37998
0.379504
0.385684
0.413634
0.407153
0.388192
0.407643
0.392577
0.376259
0.386481
0.392307
0.393717
0.380831
0.359071
0.380301
0.386445
0.383313
0.384304
0.455823
0.380686
0.378208
0.429413
0.388779
0.377378
0.386934
0.391476
0.379196
0.398122
0.402273
0.382095
0.387999
0.377877
0.376998
0.372949
0.382703
0.38588
0.549229
0.37915
0.375514
0.392138
0.390835
0.380146
0.432519
0.377488
0.37937
0.380435
0.376742
0.390844
0.382791
0.389252
0.378184
0.393966
0.383154
0.387728
0.380508
0.377033
0.378764
0.408473
0.388981
0.392982
0.378654
0.390338
0.381912
0.37929
0.383892
0.376087
0.38085
0.394975
0.381347
0.388908
0.422074
0.385044
0.388168
0.387943
0.40944
0.376578
0.38031
0.393542
0.384109
0.445063
0.389497
0.377279
0.379829
0.394494
0.378037
0.378201
0.450731
0.385347
0.430225
0.38508
0.396137
0.396312
0.392122
0.38929
0.396718
0.384904
0.383358
0.384104
0.441193
0.37937
0.386635
0.38217
0.391346
0.381102
0.378632
0.393456
0.393992
0.380946
0.377198
0.391565
0.424854
0.474526
0.415853
0.395315
0.402076
0.383208
0.377008
0.391413
0.382609
0.39927
0.374521
0.382418
0.413692
0.389804
0.387177
0.379013
0.405445
0.395371
0.379368
0.375976
0.385869
0.395296
0.380921
0.380348
0.376637
0.384038
0.3775
0.390326
0.386978
0.389753
0.390491
0.379481
0.381937
0.393763
0.382252
0.393374
0.393401
0.404064
0.396263
0.397086
0.383842
0.402227
0.379924
0.375129
0.375325
0.561241
0.390391
0.393911
0.349817
0.378977
0.385772
0.470927
0.381252
0.386317
0.396603
0.394399
0.378828
0.394174
0.381755
0.383663
0.379957
0.393732
0.382042
0.420587
0.49218
0.382603
0.4958
0.384301
0.418214
0.597669
0.378673
0.376919
0.388537
0.398059
0.37792
0.389298
0.390611
0.465553
0.382498
0.392351
0.375373
0.376209
0.378534
0.378208
0.393439
0.391482
0.377816
0.396835
0.385017
0.402816
0.401224
0.374939
0.382945
0.392478
0.379177
0.389806
0.443595
0.417115
0.393891
0.380735
0.387703
0.39208
0.406833
0.386119
0.406869
0.397523
0.394062
0.399118
0.391798
0.526711
0.383845
0.389909
0.375492
0.391173
0.394317
0.394483
0.406921
0.378024
0.389007
0.393486
0.378808
0.412443
0.506224
0.386463
0.432247
0.393518
0.375934
0.400946
0.38601
0.383229
0.398646
0.39385
0.38374
0.388399
0.411326
0.381089
0.486842
0.439061
0.397637
0.384119
0.38166
0.376836
0.378915
0.382309
0.42112
0.563246
0.378111
0.42407
0.418069
0.434824
0.39555
0.467571
0.411478
0.382462
0.380241
0.604781
0.378085
0.38797
0.386275
0.422645
0.470502
0.377029
0.391465
0.40549
0.397035
0.387948
0.429407
0.394816
0.412627
0.469004
0.379711
0.390049
0.43344
0.393017
0.477319
0.509181
0.383437
0.379902
0.380943
0.389563
0.380639
0.392384
0.384469
0.383248
0.379945
0.409297
0.382271
0.386455
0.408412
0.382926
0.490616
0.39359
0.381462
0.388446
0.386833
0.406754
0.381134
0.3769
0.375255
0.39008
0.380522
0.414004
0.380484
0.41553
0.386402
0.538818
0.427829
0.389157
0.404739
0.409601
0.389127
0.384351
0.387075
0.414748
0.443753
0.389562
0.430157
0.381634
0.404058
0.394059
0.381198
0.387799
0.426717
0.382945
0.374493
0.388676
0.375182
0.380388
0.39107
0.384417
0.38441
0.386377
0.381604
0.492552
0.380012
0.455283
0.390488
0.379987
0.381118
0.394658
0.395186
0.409496
0.392853
0.386503
0.391334
0.410045
0.380065
0.458337
0.389728
0.386685
0.482936
0.42146
0.379828
0.391032
0.382934
0.393905
0.434904
0.39221
0.467796
0.386067
0.385023
0.39054
0.386972
0.379704
0.379025
0.396823
0.396249
0.391024
0.378889
0.394174
0.381354
0.380029
0.397983
0.385064
0.379971
0.389006
0.382255
0.477823
0.422703
0.397124
0.392946
0.411622
0.380334
0.410578
0.354934
0.382404
0.389518
0.392396
0.390544
0.391859
0.402351
0.379959
0.425376
0.394841
0.385421
0.40045
0.379337
0.392525
0.38349
0.401427
0.41679
0.372855
0.445365
0.379571
0.403436
0.384821
0.392427
0.379686
0.391443
0.394724
0.395657
0.390774
0.393321
0.391329
0.385007
0.388803
0.407579
0.378579
0.38185
0.435122
0.389908
0.386617
0.409573
0.394337
0.402515
0.379425
0.472614
0.393934
0.389056
0.395059
0.393143
0.385741
0.404756
0.403392
0.412377
0.382937
0.381446
0.381456
0.390051
0.376995
0.383435
0.39936
0.376779
0.375119
0.389743
0.384015
0.38697
0.378598
0.387033
0.398052
0.380437
0.405691
0.389874
0.381611
0.385443
0.377312
0.388222
0.381555
0.386089
0.399103
0.378702
0.377967
0.383251
0.388338
0.378287
0.431285
0.372035
0.385728
0.381935
0.384538
0.409502
0.381035
0.383395
0.382539
0.409236
0.426831
0.387325
0.401786
0.42035
0.377409
0.373834
0.41528
0.383122
0.403832
0.389738
0.37772
0.394979
0.377862
0.38529
0.377928
0.378761
0.387482
0.376604
0.379018
0.40786
0.383794
0.392295
0.440047
0.389483
0.441317
0.396377
0.421133
0.373187
0.379623
0.380332
0.382806
0.387907
0.387608
0.380094
0.39021
0.397339
0.447973
0.395305
0.395249
0.378237
0.388154
0.386836
0.377727
0.409339
0.383117
0.408462
0.383639
0.398119
0.427386
0.379268
0.377999
0.366044
0.376753
0.389422
0.386619
0.379866
0.385538
0.387149
0.386711
0.403364
0.381374
0.396595
0.387958
0.382517
0.378166
0.382807
0.389126
0.390881
0.404683
0.390761
0.393861
0.383262
0.382156
0.383514
0.379209
0.376447
0.377298
0.378322
0.393936
0.394252
0.383756
0.386341
0.380027
0.373158
0.378656
0.410376
0.381913
0.377969
0.387238
0.378998
0.377677
0.388077
0.378828
0.378599
0.379535
0.378754
0.378804
0.386583
0.3765
0.395662
0.381929
0.379577
0.389338
0.42998
0.379938
0.461224
0.436876
0.456452
0.388119
0.380468
0.382369
0.382463
0.380397
0.420684
0.395961
0.382816
0.380038
0.38257
0.380363
0.401748
0.385537
0.377358
0.386767
0.377705
0.381663
0.384449
0.380326
0.376318
0.380797
0.380196
0.393156
0.386857
0.37821
0.378573
0.376848
0.38019
0.378751
0.380302
0.378205
0.381993
0.37897
0.379933
0.37541
0.37647
0.384119
0.386656
0.380543
0.377972
0.379744
0.378641
0.394249
0.379827
0.39949
0.37934
0.393852
0.391359
0.379571
0.370105
0.379996
0.380146
0.389244
0.379876
0.3778
0.377606
0.395345
0.385205
0.384291
0.374206
0.37832
0.379801
0.393308
0.37824
0.381292
0.381317
0.375464
0.377464
0.397559
0.407179
0.417211
0.378497
0.389451
0.398401
0.405235
0.378988
0.390456
0.384539
0.381505
0.38703
0.403586
0.382518
0.378353
0.37691
0.379816
0.389309
0.466759
0.392966
0.377953
0.38896
0.382191
0.396623
0.485268
0.437226
0.389492
0.380127
0.384107
0.378121
0.377167
0.380115
0.443584
0.403614
0.382689
0.376565
0.382898
0.385008
0.381008
0.387033
0.384181
0.385273
0.391276
0.385723
0.383456
0.379981
0.383024
0.3858
0.39343
0.381522
0.394061
0.396926
0.384628
0.383151
0.394836
0.406931
0.398132
0.37699
0.378195
0.395184
0.379822
0.385591
0.396836
0.459582
0.398105
0.377651
0.380088
0.380268
0.377371
0.377045
0.387264
0.386367
0.377277
0.383366
0.381809
0.409041
0.39923
0.43679
0.445764
0.382131
0.379038
0.380548
0.381209
0.385341
0.383613
0.389709
0.378937
0.380842
0.387994
0.355966
0.374191
0.387741
0.384155
0.421094
0.386185
0.389847
0.384267
0.404131
0.411614
0.380822
0.398973
0.393647
0.396288
0.395122
0.395499
0.375385
0.379171
0.385419
0.42866
0.379097
0.380353
0.379917
0.378893
0.379214
0.363496
0.372521
0.382628
0.408682
0.3869
0.394176
0.394327
0.387
0.393139
0.396247
0.349887
0.359603
0.393871
0.392556
0.389199
0.443437
0.376293
0.422587
0.378413
0.420325
0.377202
0.394471
0.386124
0.390184
0.377192
0.381285
0.381896
0.380611
0.382336
0.400609
0.390719
0.379271
0.382038
0.452402
0.357917
0.379662
0.399698
0.395566
0.397414
0.38128
0.377726
0.394946
0.410982
0.394983
0.402711
0.464918
0.381384
0.400904
0.495972
0.356609
0.38823
0.381383
0.385019
0.372572
0.383224
0.3793
0.395081
0.388115
0.378975
0.375159
0.380857
0.379588
0.384955
0.381932
0.39107
0.382989
0.378218
0.392037
0.386372
0.39306
0.377508
0.378262
0.379381
0.375729
0.38825
0.405624
0.373122
0.37552
0.390978
0.428224
0.387021
0.411861
0.388403
0.404716
0.386751
0.39852
0.378158
0.379322
0.404176
0.378487
0.381849
0.378587
0.379075
0.380403
0.383478
0.388935
0.381958
0.372736
0.381166
0.392528
0.378025
0.431828
0.384088
0.386199
0.378219
0.373913
0.402386
0.394465
0.387371
0.397391
0.379403
0.401696
0.416447
0.387328
0.377896
0.466502
0.38207
0.378238
0.372703
0.392802
0.378922
0.380192
0.384435
0.400194
0.377813
0.381154
0.388152
0.389475
0.381541
0.384922
0.380109
0.388265
0.382402
0.379517
0.382484
0.379238
0.386378
0.373038
0.377473
0.398619
0.385807
0.403163
0.378557
0.388929
0.366182
0.385916
0.386328
0.40029
0.437374
0.38905
0.380266
0.377389
0.38033
0.394823
0.401928
0.384646
0.44528
0.39984
0.391809
0.387999
0.385365
0.38771
0.403791
0.388697
0.431175
0.391521
0.386582
0.440914
0.392223
0.392066
0.393473
0.394482
0.389539
0.381908
0.388813
0.440863
0.38154
0.382192
0.380023
0.387864
0.39354
0.396648
0.455465
0.387427
0.380802
0.359621
0.414932
0.433236
0.389662
0.428469
0.385542
0.45018
0.378709
0.379331
0.403484
0.390873
0.389322
0.402264
0.406167
0.440166
0.393993
0.3802
0.352998
0.385638
0.377674
0.434029
0.387515
0.382213
0.387092
0.386288
0.376743
0.378214
0.491079
0.354449
0.396183
0.393687
0.380976
0.379038
0.390383
0.386069
0.378413
0.379104
0.382167
0.384487
0.393457
0.351697
0.349038
0.380121
0.391483
0.385182
0.397542
0.392782
0.377706
0.381984
0.390052
0.352086
0.393363
0.386446
0.39854
0.3812
0.40069
0.386241
0.381144
0.403093
0.379971
0.404006
0.387816
0.379797
0.380043
0.386361
0.424883
0.376063
0.379447
0.384246
0.378857
0.396274
0.388571
0.388166
0.394918
0.414096
0.378475
0.380007
0.381483
0.376837
0.394818
0.37811
0.391298
0.434739
0.382943
0.390246
0.386544
0.378938
0.393821
0.38652
0.391214
0.380866
0.384535
0.388176
0.390415
0.391324
0.432529
0.382909
0.391051
0.4249
0.390701
0.377994
0.394934
0.391701
0.382757
0.420444
0.442483
0.380187
0.422011
0.396401
0.385927
0.41139
0.389991
0.38549
0.379091
0.420789
0.404679
0.381261
0.406688
0.398771
0.380236
0.388977
0.3781
0.395606
0.404254
0.427396
0.377832
0.379612
0.402504
0.380585
0.386827
0.410686
0.385457
0.379759
0.388448
0.390442
0.502909
0.436622
0.408097
0.397093
0.381611
0.389632
0.380954
0.377099
0.399177
0.385843
0.377837
0.381132
0.381558
0.389909
0.397251
0.390467
0.395119
0.385539
0.410327
0.386209
0.468868
0.385344
0.395269
0.389249
0.380796
0.380292
0.381922
0.396515
0.385723
0.381699
0.416712
0.37944
0.378422
0.381588
0.38629
0.386537
0.387535
0.381181
0.388353
0.386852
0.395153
0.385155
0.398319
0.396501
0.415075
0.402417
0.390636
0.395662
0.394637
0.389098
0.325608
0.393466
0.399519
0.384713
0.393125
0.390822
0.420285
0.385561
0.422987
0.399046
0.391593
0.392626
0.410092
0.389697
0.351966
0.392307
0.353978
0.387826
0.408164
0.385972
0.390251
0.3973
0.392048
0.354168
0.385628
0.404571
0.388791
0.380778
0.38388
0.393958
0.406252
0.383602
0.442957
0.397314
0.384931
0.382472
0.39284
0.398815
0.405901
0.385238
0.393565
0.400829
0.414546
0.384741
0.381469
0.393062
0.412896
0.388546
0.381402
0.379191
0.383574
0.41334
0.389995
0.410082
0.447421
0.380889
0.386613
0.390064
0.394547
0.340097
0.381213
0.414718
0.393736
0.389798
0.436724
0.504507
0.373899
0.383054
0.380561
0.387138
0.404928
0.386428
0.439553
0.386573
0.392718
0.395477
0.389707
0.395261
0.382223
0.390242
0.379609
0.39701
0.400517
0.402994
0.392831
0.389151
0.387184
0.377058
0.400404
0.405716
0.40531
0.400207
0.378238
0.386556
0.395233
0.449556
0.407515
0.380624
0.379433
0.379363
0.387753
0.389306
0.393487
0.387519
0.40385
0.487477
0.380449
0.405424
0.378422
0.38518
0.380889
0.393203
0.391165
0.373765
0.388487
0.380362
0.37817
0.378102
0.390711
0.385992
0.411639
0.381326
0.407236
0.395243
0.387287
0.378074
0.382683
0.39921
0.380074
0.394263
0.378739
0.383275
0.385475
0.379461
0.380543
0.390865
0.387132
0.390251
0.383456
0.410773
0.392487
0.393571
0.377395
0.398399
0.394496
0.383465
0.382466
0.379073
0.379689
0.423588
0.37405
0.395907
0.356047
0.379496
0.378735
0.383331
0.381772
0.391614
0.397915
0.381228
0.382641
0.384538
0.390549
0.391288
0.382227
0.41007
0.379987
0.398605
0.381417
0.380715
0.395724
0.384741
0.377323
0.407923
0.387777
0.377841
0.386385
0.390202
0.384182
0.412554
0.381161
0.391813
0.401377
0.385219
0.380592
0.406767
0.396878
0.393462
0.403139
0.39369
0.397082
0.45952
0.388712
0.385654
0.383182
0.389817
0.393525
0.379933
0.387755
0.377967
0.379283
0.410434
0.381674
0.379329
0.386093
0.384742
0.433755
0.377624
0.380242
0.396095
0.374109
0.391047
0.388345
0.387958
0.385884
0.385428
0.378081
0.389653
0.34786
0.399339
0.390448
0.431162
0.38025
0.543958
0.42868
0.383122
0.395088
0.411834
0.379766
0.35079
0.392454
0.400139
0.401611
0.347864
0.386029
0.399551
0.398892
0.434405
0.418413
0.378545
0.39679
0.348147
0.492929
0.548031
0.40982
0.40658
0.407773
0.39254
0.440248
0.402522
0.403042
0.41962
0.407482
0.398694
0.390951
0.392304
0.417816
0.380401
0.379301
0.375615
0.386165
0.380439
0.378929
0.42041
0.378723
0.378184
0.424055
0.373674
0.37777
0.381891
0.388462
0.379387
0.408442
0.383579
0.393965
0.395541
0.479957
0.387298
0.393567
0.386929
0.382759
0.408852
0.390058
0.390834
0.380038
0.420808
0.375818
0.393678
0.385204
0.392735
0.388558
0.378255
0.376085
0.381224
0.396202
0.380276
0.386202
0.383529
0.397505
0.386025
0.388327
0.377941
0.385616
0.379004
0.391815
0.386373
0.390476
0.423625
0.403534
0.385737
0.387479
0.380616
0.378752
0.378474
0.375821
0.398631
0.377914
0.386714
0.399606
0.389519
0.376551
0.388488
0.405552
0.38532
0.378361
0.394059
0.390618
0.408315
0.390344
0.393113
0.544363
0.380377
0.397428
0.389854
0.420214
0.388734
0.383247
0.383981
0.388522
0.386717
0.379808
0.384965
0.383408
0.391014
0.377876
0.383526
0.380671
0.384693
0.390534
0.393263
0.395354
0.379426
0.383915
0.380287
0.424391
0.392376
0.375606
0.38651
0.397005
0.593908
0.382309
0.400027
0.386339
0.390351
0.384778
0.404587
0.402529
0.377534
0.378947
0.386365
0.385832
0.396692
0.388324
0.38481
0.37729
0.392199
0.381522
0.396232
0.396345
0.419569
0.398273
0.383194
0.392415
0.378711
0.375066
0.378394
0.380099
0.383557
0.457515
0.387209
0.379748
0.457936
0.380763
0.384728
0.350139
0.393417
0.386142
0.372778
0.383827
0.379482
0.423854
0.382024
0.39497
0.385822
0.400521
0.437054
0.473069
0.381958
0.388531
0.410096
0.380879
0.422162
0.411959
0.457233
0.390383
0.37947
0.406371
0.388248
0.436112
0.387155
0.37934
0.457017
0.406653
0.382073
0.382672
0.464591
0.378295
0.380265
0.37788
0.387045
0.376362
0.382954
0.398455
0.388324
0.475695
0.389382
0.384187
0.378743
0.486945
0.378627
0.459718
0.378709
0.391787
0.384626
0.399446
0.38704
0.388323
0.384758
0.416501
0.393084
0.396442
0.445142
0.385061
0.38391
0.397578
0.390514
0.380111
0.386435
0.384706
0.381124
0.389301
0.380874
0.437893
0.40547
0.388805
0.376722
0.390782
0.393401
0.391053
0.386238
0.383082
0.381414
0.38205
0.387482
0.383688
0.388239
0.38615
0.380865
0.381067
0.379028
0.376492
0.379969
0.380226
0.386084
0.386895
0.380766
0.383806
0.387572
0.350786
0.385073
0.400636
0.406307
0.396254
0.491037
0.389838
0.405883
0.400685
0.352628
0.379344
0.389617
0.377514
0.383292
0.382347
0.383096
0.4007
0.38053
0.391934
0.383484
0.464303
0.380424
0.389694
0.393544
0.615597
0.347088
0.382213
0.439869
0.375209
0.444718
0.396396
0.477135
0.348841
0.385481
0.40116
0.376788
0.374263
0.400162
0.390294
0.390256
0.380126
0.392839
0.428186
0.389611
0.385498
0.387768
0.379237
0.389393
0.379082
0.446513
0.392141
0.380895
0.385856
0.387273
0.378586
0.376948
0.379283
0.516613
0.522053
0.387733
0.401654
0.394739
0.383065
0.384767
0.378426
0.385742
0.376677
0.393363
0.381829
0.404014
0.37948
0.392526
0.391139
0.392315
0.388558
0.383104
0.390417
0.393077
0.386486
0.417074
0.400563
0.391757
0.416775
0.383403
0.401524
0.462043
0.378656
0.380562
0.399828
0.405847
0.388405
0.397711
0.403179
0.382098
0.395097
0.381634
0.392644
0.374575
0.382151
0.398229
0.423445
0.379721
0.390338
0.410601
0.39451
0.395981
0.415371
0.379871
0.42284
0.388247
0.395583
0.391291
0.381342
0.394925
0.389204
0.392679
0.381516
0.401334
0.421335
0.345585
0.386118
0.392114
0.402349
0.347096
0.384964
0.395563
0.378675
0.395525
0.396018
0.393016
0.382096
0.393207
0.377575
0.385851
0.376616
0.546707
0.386076
0.392577
0.378956
0.384109
0.390358
0.381841
0.380264
0.376922
0.38859
0.380136
0.396895
0.379412
0.413448
0.391388
0.395165
0.390855
0.382129
0.392977
0.379586
0.386809
0.381516
0.384776
0.441013
0.387278
0.405619
0.394592
0.39014
0.387814
0.391571
0.383075
0.391567
0.394465
0.395227
0.384114
0.379682
0.382112
0.380532
0.38117
0.388961
0.379857
0.401201
0.37959
0.397325
0.401743
0.377743
0.385588
0.37654
0.391127
0.376766
0.385512
0.37427
0.38039
0.378288
0.382195
0.382044
0.382624
0.37722
0.377427
0.39126
0.384192
0.42236
0.381729
0.378998
0.37759
0.382769
0.404316
0.377761
0.457967
0.380546
0.375778
0.470084
0.490812
0.378513
0.379516
0.416209
0.379331
0.387263
0.38869
0.395708
0.381143
0.398944
0.372225
0.392571
0.379035
0.387995
0.406087
0.383337
0.380007
0.381877
0.378044
0.413193
0.393481
0.388605
0.380716
0.37886
0.389635
0.39525
0.400635
0.392874
0.381618
0.385035
0.389793
0.387467
0.396357
0.41087
0.389328
0.387952
0.379657
0.380894
0.391912
0.381626
0.38836
0.390479
0.377535
0.602168
0.374045
0.384369
0.386374
0.384526
0.379006
0.419742
0.387522
0.399784
0.380534
0.414274
0.392554
0.386838
0.376502
0.443619
0.37886
0.41573
0.378429
0.390856
0.381152
0.386689
0.399172
0.405795
0.412366
0.383701
0.385166
0.387333
0.393348
0.383305
0.412103
0.393316
0.378833
0.397794
0.385864
0.397844
0.398322
0.39073
0.384713
0.410057
0.437236
0.383925
0.3804
0.40701
0.410325
0.387723
0.401174
0.384882
0.401908
0.393264
0.383894
0.389172
0.379782
0.38463
0.384252
0.380263
0.382811
0.383894
0.386524
0.384815
0.385683
0.38877
0.415343
0.382389
0.379339
0.376875
0.379453
0.40232
0.408728
0.384049
0.389317
0.415416
0.39154
0.387964
0.373612
0.384849
0.38717
0.377282
0.378453
0.386024
0.380584
0.405192
0.400118
0.3896
0.463862
0.396602
0.41503
0.395513
0.39245
0.381032
0.421703
0.381346
0.387741
0.381942
0.402341
0.389698
0.388536
0.388624
0.441527
0.390877
0.388307
0.380273
0.430969
0.4701
0.39337
0.447794
0.444325
0.417806
0.412637
0.412721
0.424384
0.392687
0.424907
0.446752
0.38201
0.392868
0.393125
0.398408
0.438378
0.389265
0.395221
0.394234
0.378444
0.381342
0.432725
0.395251
0.398435
0.384956
0.384575
0.372953
0.384077
0.384819
0.437433
0.38199
0.397333
0.393249
0.385736
0.412338
0.584853
0.382718
0.388213
0.388955
0.455894
0.383982
0.40341
0.465475
0.559821
0.395001
0.391774
0.402731
0.387041
0.377832
0.387046
0.379793
0.387649
0.414502
0.392637
0.377781
0.417395
0.402062
0.405215
0.38204
0.38897
0.414008
0.394181
0.352372
0.382516
0.391192
0.383254
0.34622
0.391995
0.3945
0.424055
0.350303
0.397575
0.392616
0.345195
0.391455
0.445152
0.400834
0.403096
0.408508
0.382341
0.424733
0.401832
0.382986
0.387375
0.385641
0.440785
0.454151
0.393652
0.386015
0.398186
0.386959
0.393075
0.348201
0.395203
0.395145
0.381855
0.383668
0.379095
0.349723
0.391973
0.394391
0.399839
0.410186
0.410675
0.484222
0.401791
0.440469
0.37876
0.38996
0.393658
0.357376
0.395444
0.384744
0.390476
0.391827
0.469939
0.390084
0.388991
0.553992
0.432313
0.38686
0.403485
0.402006
0.425654
0.400161
0.37751
0.415391
0.421856
0.384252
0.391004
0.37944
0.387087
0.406532
0.397398
0.426609
0.386873
0.394768
0.415989
0.422066
0.404096
0.408833
0.372779
0.466373
0.411159
0.397881
0.38947
0.398251
0.384769
0.404913
0.377392
0.383491
0.384265
0.392794
0.400891
0.393175
0.381893
0.385034
0.382589
0.385543
0.380882
0.420645
0.387078
0.395868
0.38151
0.390076
0.508606
0.351631
0.392418
0.378671
0.385394
0.383373
0.411857
0.385532
0.392007
0.388954
0.355933
0.405095
0.414647
0.386729
0.381627
0.38088
0.398497
0.414712
0.393605
0.389594
0.397382
0.378985
0.389841
0.391498
0.395626
0.392343
0.40282
0.384098
0.380279
0.385491
0.379195
0.393379
0.385072
0.37888
0.373923
0.397006
0.414438
0.396151
0.423934
0.384893
0.408027
0.38477
0.391663
0.38344
0.370947
0.38768
0.400754
0.399525
0.3743
0.395394
0.385961
0.396737
0.382414
0.387365
0.389677
0.43202
0.37973
0.390831
0.386705
0.413893
0.422566
0.401842
0.404247
0.37257
0.389833
0.390711
0.422399
0.392207
0.386812
0.391539
0.386872
0.398341
0.394871
0.385435
0.405264
0.376555
0.399984
0.401643
0.398484
0.386996
0.380932
0.398634
0.380141
0.389463
0.396384
0.384179
0.388574
0.403791
0.387242
0.356956
0.386366
0.424985
0.379763
0.384247
0.401893
0.398806
0.381546
0.369698
0.381177
0.425542
0.391033
0.459583
0.380811
0.413543
0.401306
0.404804
0.386801
0.395873
0.376627
0.37685
0.393029
0.396874
0.386721
0.398215
0.392441
0.384701
0.38954
0.378727
0.391242
0.395374
0.384435
0.37554
0.400249
0.401172
0.397842
0.383481
0.405078
0.381807
0.393029
0.389916
0.383542
0.389399
0.392112
0.393776
0.423093
0.377144
0.388977
0.379651
0.40115
0.38146
0.397302
0.385105
0.378614
0.379925
0.389829
0.390862
0.405495
0.396722
0.403879
0.394412
0.443441
0.391381
0.384227
0.39542
0.378114
0.38459
0.432937
0.422615
0.395233
0.388644
0.384571
0.380119
0.375257
0.38814
0.411197
0.394321
0.439828
0.387732
0.389944
0.382435
0.394581
0.385817
0.441497
0.381213
0.387115
0.378288
0.390306
0.40703
0.39605
0.37723
0.390716
0.38902
0.378777
0.351464
0.394289
0.390417
0.388866
0.426613
0.392261
0.466806
0.381587
0.384199
0.393038
0.378591
0.39107
0.386193
0.385357
0.377581
0.383311
0.393771
0.380175
0.405553
0.384789
0.46939
0.389298
0.383998
0.399137
0.380968
0.394333
0.386514
0.448967
0.502341
0.346399
0.399213
0.39654
0.450089
0.387963
0.393709
0.393901
0.385303
0.334491
0.377661
0.384581
0.378829
0.38491
0.404766
0.389058
0.419763
0.40211
0.385649
0.392559
0.411952
0.384984
0.38367
0.396385
0.439352
0.408918
0.372613
0.376497
0.383787
0.387968
0.3729
0.459547
0.389896
0.382704
0.390378
0.437186
0.376305
0.385982
0.399685
0.405417
0.387723
0.388217
0.383187
0.398171
0.388398
0.399553
0.386044
0.410166
0.399985
0.380385
0.419763
0.385075
0.40778
0.391649
0.486943
0.402307
0.398486
0.40137
0.398148
0.398844
0.394573
0.410903
0.394575
0.379866
0.391007
0.374561
0.382381
0.474041
0.378284
0.385536
0.39405
0.396147
0.375327
0.401321