/*--------------------------------*- C++ -*----------------------------------*\
| =========                 |                                                 |
| \\      /  F ield         | OpenFOAM: The Open Source CFD Toolbox           |
|  \\    /   O peration     | Version:  2506                                  |
|   \\  /    A nd           | Website:  www.openfoam.com                      |
|    \\/     M anipulation  |                                                 |
\*---------------------------------------------------------------------------*/
FoamFile
{
    version     2.0;
    format      ascii;
    arch        "LSB;label=32;scalar=64";
    class       volScalarField;
    location    "0.00221858";
    object      nut;
}
// * * * * * * * * * * * * * * * * * * * * * * * * * * * * * * * * * * * * * //

dimensions      [0 2 -1 0 0 0 0];

internalField   nonuniform List<scalar> 
47425
(
0.00639957
0.00167816
0.00304613
0.00249985
0.00139448
0.00265238
0.00349506
0.00203135
0.00176918
0.00157829
0.00356256
0.00533682
0.0031943
0.00694371
0.00672162
0.000692223
0.00727993
0.00218023
0.00025888
0.00466094
0.00330123
0.00407456
0.00470972
0.00321474
0.00621524
0.00335529
0.0027677
0.000230958
0.0019461
0.00192333
0.00518557
0.00446224
0.00276671
0.00359182
0.0026616
0.00726064
0.00750884
0.00120098
0.00131787
0.00174729
0.00216107
0.00392342
0.00447437
0.000444186
0.000258753
0.00212766
0.00482003
0.00244789
0.0015179
0.00285877
0.000303632
0.0027061
0.00249544
0.000760688
0.000522753
0.00251198
0.0075205
0.00152327
0.00150487
0.00160432
0.000623463
0.000425192
0.00109299
0.00202649
0.00154605
0.00380866
0.00214771
0.00732106
0.000650082
0.00333261
0.00222738
0.0018668
0.00276585
0.003092
0.00180884
0.00105153
0.00109981
0.00199565
0.00018837
0.00176381
0.000820589
0.00334268
0.00381211
0.00439213
0.00522809
0.0031904
0.00405695
0.00452292
0.00564194
0.00102309
0.00536214
0.00295831
0.00348758
0.00333627
0.000567886
0.00171393
0.00299577
0.0051949
0.00200681
0.00177714
0.00731028
0.000793231
0.00362307
0.000896182
0.00498784
0.00655724
0.00300318
0.00724152
0.00693615
0.00667918
0.00156088
0.00733505
0.00538112
0.00211653
0.00230775
0.000182734
0.00474779
0.000474584
0.00136593
0.00262665
0.00448469
0.00143667
0.00500874
0.0027288
0.0011341
0.00428319
0.00390879
0.00265776
0.00532997
0.00584895
0.00507219
0.00085335
0.000657958
0.0006743
0.00260259
0.00253751
0.00695507
0.00595023
0.00231957
0.00330145
0.00207667
0.00284187
0.00257689
0.00685401
0.00243804
0.00190935
0.00593754
0.00613804
0.00367246
0.00511555
0.0041031
0.000277266
0.00224031
0.000202433
0.00316002
0.00523128
0.00719903
0.000111956
0.00181474
0.00496256
0.00180677
0.00747212
0.00259652
0.00302694
0.00478724
0.000115684
0.00750134
0.000882128
0.00177378
0.000524521
0.000943806
0.000748327
0.00614773
0.0027408
0.00164347
0.00140058
0.000182315
0.00727341
0.00318757
0.00753843
0.00016624
0.00366989
0.00325942
0.00264311
0.00423127
0.00741156
0.00634104
0.000995654
0.0016514
0.00743112
0.00726551
0.00202204
0.00378136
0.00166412
0.00749523
0.00735462
0.00163807
0.0071411
0.00366462
0.00413623
0.0025892
0.0010842
0.0061511
0.00556454
0.0024751
0.00359086
0.00214651
0.00408783
0.000505813
0.0011769
0.00285953
0.00255761
0.00738955
0.00181935
0.00229691
0.0033552
0.00208142
0.00459472
0.00457716
0.00104855
0.00275802
0.0017654
0.00745192
0.00178508
0.00233869
0.00220703
0.00452961
0.00147664
0.00649344
0.00350698
0.00241229
0.00264261
0.000719684
0.00321489
0.00346656
0.00291661
0.00216746
0.00317542
0.00219383
0.00328201
0.0029118
0.00169728
0.00670451
0.00224209
0.00373592
0.000974222
0.00745768
0.0013525
0.00750853
0.00231337
0.00434539
0.00337485
0.00367239
0.00132167
0.00218594
0.00408313
0.00567219
0.0011967
0.00373103
0.00212351
0.0030524
0.0073568
0.00603115
0.0036035
0.00547923
0.00252006
0.00747467
0.00347678
0.00274682
0.00209776
0.00269559
0.00341147
0.00188708
0.00196885
0.00556273
0.00143229
0.00297228
0.000377933
0.00255386
0.000402001
0.00112846
0.0048337
0.000568921
0.00167562
0.00364425
0.00289319
0.0033103
0.00580179
0.00113099
0.00364027
0.000366318
0.00278927
0.00122278
0.00319541
0.00427448
0.00293886
0.00267337
0.00139443
0.00523974
0.00635439
0.00166355
0.00310844
0.000777248
0.00664884
0.000313843
0.000342742
0.000315539
0.00752227
0.00750283
0.00332507
0.00487484
0.000332605
0.00238489
0.00445413
0.00267978
0.00246508
0.00296706
0.0030737
0.00297361
0.000725669
0.00169498
0.0054139
0.00401756
0.00748449
0.00215713
0.00747959
0.00192064
0.00442602
0.00467497
0.00236139
0.00479707
0.000387666
0.00229088
0.00591229
0.0029547
0.00267287
0.000331258
0.00546276
0.00748403
0.00179832
0.00451912
0.00296308
0.00750752
0.004143
0.00526075
0.00700165
0.00155242
0.00557917
0.00310346
0.000622422
0.00445195
0.00506775
0.00437437
0.00354688
0.00266941
0.00363024
0.0025082
0.00326286
0.00305588
0.00254125
0.00128371
0.00232327
0.000586296
0.00577096
0.00256185
0.0074505
0.00285732
0.00385266
0.00343133
0.00499013
0.00105859
0.000229879
0.00730226
0.00644218
0.00161098
0.00364044
0.00404749
0.00232143
0.00198184
0.00541366
0.00299005
0.00593266
0.00756239
0.00380261
0.000759176
0.00249601
0.00297212
0.00204704
0.00269366
0.00271326
0.00733341
0.00317421
0.00211678
0.00242459
0.00398868
0.00740352
0.00700324
0.00409431
0.00149862
0.00480623
0.000856212
0.00583181
0.00244637
0.00506181
0.00353788
0.00209674
0.00493816
0.00325755
0.00748772
0.00191154
0.00416665
0.000400566
0.00041532
0.00293053
0.00650675
0.00221586
0.00280123
0.00274373
0.00382338
0.00222683
0.00253347
0.00148219
0.00246397
0.0066945
0.00526163
0.0051073
0.00432986
0.00287645
0.00711915
0.000804047
0.000131565
0.0035356
0.000314332
0.000462208
0.000779785
0.000329139
0.000624064
0.00282727
0.00192926
0.00447792
0.00247554
0.000518418
0.00111811
0.0037366
0.00737803
0.00330471
0.00377148
0.00226995
0.00323604
0.00109942
0.00165606
0.00103231
0.00301303
0.00127366
0.00283505
0.00225474
0.0032605
0.00551389
0.00404352
0.00357836
0.00271651
0.000402124
0.00121904
0.00208435
0.00334388
0.00283409
0.00140267
0.00677823
0.00237811
0.00155014
0.00444439
0.00577072
0.00114507
0.001053
0.00178383
0.00434474
0.00305657
0.00175441
0.00447385
0.00171221
0.00385858
0.00135559
0.00457619
0.00178892
0.00748345
0.00294667
0.00734701
0.00191618
0.002517
0.00125964
0.002783
0.00652573
0.00264523
0.00142843
0.000762869
0.00242091
0.00158375
0.00737423
0.00156941
0.00748808
0.00145271
0.00746709
0.00255438
0.00370378
0.00246666
0.00195067
0.00358946
0.00503443
0.00675736
0.00482418
0.00302962
0.00262145
0.00278771
0.0035763
0.003327
0.00746216
0.00165024
0.00106974
0.00192949
0.00206131
0.00578672
0.000537958
0.000382461
0.00272797
0.0070007
0.00159689
0.00184156
0.00158362
0.00224826
0.00268344
0.00190497
0.000665494
0.00274514
0.00259447
0.00258688
0.00608641
0.000556899
0.00254027
0.00219874
0.00151961
0.00330134
0.00663114
0.00735985
0.0030797
0.00677443
0.00326557
0.00320881
0.000413051
0.00349162
0.000369084
0.00307205
0.00222189
0.00197075
0.00168186
0.00253648
0.00237116
0.00316323
0.00377262
0.000882796
0.00395669
0.00494942
0.00251305
0.00360345
0.00453753
0.00368317
0.00262164
0.00172616
0.00210255
0.00706791
0.00750928
0.00124279
0.00227896
0.00719898
0.00110552
0.00213626
0.0031693
0.00125545
0.0014818
0.00749134
0.000401229
0.000405007
0.00399856
0.00454519
0.00425358
0.00716802
0.000631175
0.00109945
0.000911842
0.0025428
0.00206196
0.0018795
0.00338077
0.00354112
0.000620129
0.00431992
0.00105422
0.00284588
0.00199403
0.00680207
0.00221691
0.00307996
0.00232292
0.00302054
0.00334741
0.00263562
0.00165713
0.00191966
0.00507834
0.00380704
0.00617952
0.00258085
0.00250787
0.0053022
0.00347674
0.0035149
0.000921093
0.00318588
0.00209084
0.00261557
0.00187641
0.00211529
0.00631627
0.00316095
0.000141942
0.00498109
0.00456632
0.00104928
0.00069763
0.00750514
0.00176545
0.000340768
0.00039868
0.000719003
0.00130307
0.000437984
0.000497575
0.00185326
0.00749906
0.00572358
0.00375823
0.00130696
0.000477588
0.00650218
0.00141862
0.00278186
0.00402502
0.00371943
0.00223348
0.0072196
0.00167473
0.000258296
0.00172608
0.00443745
0.00349032
0.00438053
0.00103997
0.00459735
0.00493197
0.00575954
0.00263819
0.00252241
0.000382353
0.00315395
0.00382947
0.00158352
0.000907218
0.000404839
0.000903677
0.00169346
0.00477824
0.0019212
0.00573445
0.000345518
0.00250775
0.000536286
0.00225137
0.00315773
0.00259759
0.00480319
0.00108857
0.00225727
0.00112619
0.00175365
0.00745301
0.00187476
0.0036562
0.00139101
0.00664714
0.00515145
0.000406747
0.00513264
0.000644166
0.00233889
0.00204329
0.00476972
0.000492961
0.00393431
0.00277164
0.00750427
0.00210428
0.00691276
0.00137884
0.00696835
0.00186902
0.00454982
0.000777722
0.000456807
0.00233164
0.000796315
0.00395849
0.00306119
0.0022364
0.00588256
0.00324422
0.00205204
0.00383281
0.00716412
0.00304469
0.000340405
0.00184252
0.00318647
0.00663504
0.00291909
0.00420432
0.00749525
0.00381003
0.00403656
0.0018514
0.00201579
0.00487666
0.00268889
0.00416093
0.00744878
0.00159881
0.00330651
0.00197047
0.00454112
0.00442797
0.00565914
0.000810442
0.00676272
0.00124805
0.00182716
0.0016927
0.000825575
0.00228882
0.00274263
0.00223163
0.00538485
0.000701406
0.000755672
0.000372275
0.00454941
0.00249977
0.00340824
0.000410156
0.000683816
0.0025047
0.00299668
0.00321485
0.00540835
0.00192303
0.00223151
0.00501028
0.00335929
0.000899812
0.001665
0.00316621
0.000328883
0.00138799
0.000530007
0.00601278
0.000604701
0.00127489
0.000442794
0.000680589
0.00201051
0.0012911
0.0074922
0.00424367
0.0069007
0.000769431
0.000580271
0.00268425
0.00597212
0.00749091
0.00162589
0.000859013
0.00752431
0.00225833
0.00292204
0.00641456
0.00116391
0.00749324
0.00751912
0.00175358
0.00478638
0.00135561
0.0049909
0.00751428
0.00399678
0.00268479
0.00158603
0.000819831
0.00196212
0.00755243
0.000452181
0.00406186
0.00747683
0.00744794
0.000616727
0.00208117
0.00289822
0.00340633
0.0036575
0.00332142
0.000990515
0.000271012
0.00192549
0.00237358
0.00125485
0.00175677
0.00618637
0.0008994
0.00212147
0.000405558
0.000871835
0.00620681
0.000337726
0.00205664
0.00103519
0.00434083
0.00512995
0.00338867
0.00221444
0.0033755
0.00452879
0.000662789
0.0008929
0.00334951
0.000902457
0.00175505
0.00730716
0.00276243
0.0025397
0.00182769
0.00492393
0.000806161
0.00692641
0.0057528
0.00186693
0.00175658
0.000253112
0.00131603
0.00131542
0.000409076
0.00385759
0.00749797
0.00362511
0.00408717
0.00434198
0.00145422
0.00113575
0.00518446
0.00233491
0.00424363
0.000446563
0.00463106
0.00352997
0.00336307
0.000368293
0.00425243
0.00740415
0.00411579
0.00166211
0.00514272
0.0003605
0.00121471
0.00637946
0.000635659
0.000609769
0.00251125
0.00455286
0.00314692
0.000886271
0.00119568
0.00268485
0.00239284
0.00251931
0.00655355
0.00348866
0.00084564
0.00215207
0.00239059
0.00592346
0.0019681
0.000590668
0.00422475
0.00378437
0.0071961
0.000578209
0.0013008
0.00313378
0.00224736
0.000595748
0.00402193
0.00414112
0.00664262
0.000750022
0.00743688
0.00261981
0.00437498
0.000456055
0.00027722
0.00227612
0.00431901
0.00517818
0.00309106
0.0062647
0.00366352
0.000379315
0.00350885
0.00040601
0.00353256
0.00134865
0.00254771
0.00110523
0.00166121
0.00131185
0.00165345
0.0016216
0.00283494
0.00029561
0.0064253
0.00231428
0.00356546
0.00622308
0.00719007
0.0055264
0.0016398
0.00295634
0.00716739
0.00593248
0.00184508
0.000477323
0.00034396
0.000570055
0.00155156
0.00060517
0.00154537
0.000496491
0.00109837
0.00292661
0.00105746
0.00245725
0.00203839
0.000598636
0.00273288
0.00290732
0.0028041
0.00227902
0.00161537
0.00117743
0.00688483
0.00351492
0.00142526
0.00451738
0.00245081
0.00750948
0.00360773
0.00364239
0.00477925
0.00289399
0.0019616
0.00355383
0.00043789
0.00385101
0.00156129
0.00195905
0.00242846
0.00208068
0.00085268
0.00564967
0.0012708
0.00326139
0.000838494
0.000897058
0.00442606
0.0064593
0.000169915
0.000287319
0.0014375
0.0007704
0.00199001
0.00251859
0.000285412
0.00187433
0.00199634
0.0011859
0.00125363
0.00348774
0.00148615
0.00271956
0.00428152
0.00316628
0.00251627
0.00296709
0.000506207
0.000206409
0.00645237
0.000385619
0.00209021
0.000602499
0.000214132
0.00388467
0.00115303
0.00231967
0.00110273
0.00076005
0.00366546
0.0018312
0.000302254
0.00729213
0.00223693
0.0072255
0.00425113
0.0064598
0.00349581
0.00194157
0.00154281
0.000709874
0.00140473
0.0036047
0.00121495
0.00209591
0.00547468
0.00288627
0.00174339
0.00350523
0.00361431
0.000316619
0.000660609
0.00133337
0.00260031
0.00240442
0.00178312
0.000915162
0.00271159
0.000563673
0.00119834
0.00207226
0.00140178
0.00251289
0.000221837
0.00343767
0.00207578
0.00494712
0.00476661
0.00157561
0.00140451
0.00142355
0.0053712
0.00129277
0.00241194
0.0066473
0.000811603
0.000322552
0.00296392
0.000311529
0.00302685
0.00665744
0.000832365
0.00291385
0.00270876
0.00151516
0.00313191
0.00193567
0.0025371
0.00101572
0.00474917
0.000178928
0.00034656
0.00118572
0.00193671
0.00344665
0.00278254
0.00249592
0.00393441
0.000441624
0.000340789
0.000961092
0.000534338
0.000526836
0.000438203
0.00198741
0.000369288
0.000473506
0.00233328
0.00411896
0.000291139
0.00396832
0.00230954
0.0025302
0.000531698
0.000230605
0.00712415
0.00374059
0.00111022
0.00241543
0.00237395
0.000316155
0.00145957
0.000644011
0.00027613
0.00230573
0.00241575
0.000429987
0.00224031
0.000532126
0.000106107
0.0074756
0.00412502
0.00248798
0.00231022
0.00125112
0.00173251
0.00501818
0.000547808
0.00196599
0.000732782
0.00564309
0.00274622
0.000850535
0.00413448
0.000189677
0.00205451
0.00250366
0.00301485
0.00227206
0.00108297
0.00322206
0.00131567
0.00365959
0.00623
0.00355425
0.000596845
0.00210469
0.000622221
0.00312936
0.00040197
0.000430659
0.00344179
0.00132936
0.00068288
0.00197859
0.00204738
0.00236157
0.000770426
0.000378771
0.0059894
0.000316319
0.00176813
0.00122068
0.00164031
0.00135281
0.00273141
0.000339721
0.00209295
0.00746471
0.00201795
0.00584334
0.000339047
0.00166331
0.000958361
0.00263239
0.00329626
0.00404491
0.000271437
0.003235
0.000274763
0.00504626
0.00488566
0.00381941
0.00209967
0.00141812
0.000734645
0.00253115
0.00579772
0.00183382
0.000823199
0.00455732
0.000599612
0.00204603
0.00362465
0.000254309
0.000628017
0.000417179
0.00132995
0.00247749
0.00117564
0.00045666
0.00259681
0.000307031
0.00519905
0.00695014
0.00181258
0.00679288
0.00390522
0.00336798
0.00108353
0.00240549
0.00161538
0.00473095
0.00137502
0.0026593
0.00606523
0.00107579
0.000600274
0.00242299
0.00304301
0.00337555
0.000183262
0.000438546
0.00147354
0.00218869
0.000933773
0.00271909
0.000754949
0.000680506
0.000756947
0.00446672
0.00271578
0.00323427
0.00214973
0.00114265
0.00409027
0.00109458
0.00201016
0.00220503
0.00127999
0.0034362
0.00284302
0.00294755
0.00116052
0.000610092
0.00749301
0.000269424
0.00152841
0.000999875
0.00265764
0.00170727
0.00143974
0.00216084
0.00122203
0.0017403
0.00304722
0.00185225
0.00097061
0.00346633
0.00307225
0.00105253
0.00561611
0.00303992
0.000395468
0.00350681
0.00197708
0.000872
0.00126117
0.000915911
0.00588717
0.000117341
0.00137431
0.00221788
0.00105523
0.00182499
0.00348879
0.000717668
0.0010823
0.00067976
0.00387519
0.00358437
0.00262604
0.00192874
0.00354614
0.00100758
0.000252842
0.00178058
0.00744753
0.00175102
0.00281866
0.00266671
0.0012041
0.00265947
0.00301465
0.0030771
0.000792544
0.00330234
0.000456342
0.00353162
0.00100268
0.0021694
0.00223272
0.00337588
0.00200741
0.00495973
0.000559489
0.0040454
0.00455324
0.00236059
0.000620605
0.00535517
0.0029324
0.00279513
0.00390104
0.000953827
0.00344959
0.00358336
0.000650544
0.000800826
0.000517723
0.00274684
0.000673268
0.000363617
0.00752168
0.000261502
0.000669758
0.000476643
0.000999251
0.00219448
0.000935386
0.00152346
0.00753925
0.00164155
0.00170926
0.00281669
0.0022106
0.00543689
0.000989384
0.000856568
0.00215278
0.00553195
0.000369572
0.00213034
0.000197343
0.00141397
0.00114794
0.00749121
0.000689957
0.000457
0.00715095
0.00272452
0.00215029
0.00589465
0.00100427
0.00200413
0.000256855
0.00313955
0.00278831
0.00310632
0.0017639
0.00299147
0.00541542
0.00105242
0.00410336
0.00114182
0.00255724
0.00170487
0.000176516
0.00405329
0.00747571
0.000237517
0.00159635
0.000125383
0.00307141
0.00240713
0.00236206
0.00220383
0.00167689
0.00247883
0.0071379
0.00241663
0.00399738
0.00217606
0.00147879
0.00452219
0.0040501
0.00181029
0.00128448
0.00229647
0.00122634
0.006062
0.00436424
0.00114274
0.00270987
0.00525285
0.00639928
0.000800643
0.00130919
0.00134656
0.00278018
0.00368147
0.00193766
0.00495852
0.0071619
0.000956371
0.00289106
0.000666012
0.00290313
0.00455425
0.00740811
0.00237213
0.00449402
0.000500086
0.00226223
0.00040602
0.00105378
0.00206283
0.00634125
0.00109641
0.00441249
0.0031757
0.00179954
0.000816465
0.000985888
0.000490384
0.000576861
0.000447618
0.00229604
0.00689067
0.00326304
0.00320384
0.00332438
0.000588453
0.00195028
0.00411153
0.00328405
0.00291234
0.00513703
0.00100715
0.00333992
0.00306856
0.00328501
0.000518844
0.00377277
0.00216564
0.00433663
0.00170793
0.00266924
0.000917635
0.00231516
0.00467629
0.00366249
0.00518913
0.00353791
0.00390364
0.00276092
0.00388823
0.00105302
0.00628818
0.00132193
0.000580624
0.00745663
0.00600035
0.0045373
0.00222033
0.006515
0.00144288
0.00579977
0.00581539
0.00189402
0.00275113
0.0011806
0.00370205
0.00540218
0.00182267
0.0071096
0.000391143
0.00290125
0.00221687
0.00153349
0.00460404
0.00278627
0.0012288
0.000188572
0.000851933
0.00165255
0.00750409
0.00684352
0.00369252
0.00461179
0.00726459
0.0016625
0.00169933
0.00749208
0.00542296
0.00155535
0.000705312
0.00113202
0.00234466
0.00326422
0.00128794
0.00102078
0.000818588
0.00192506
0.00195371
0.00357553
0.00311713
0.000847695
0.00458936
0.00539692
0.000551237
0.00113468
0.0022663
0.000178639
0.00140088
0.000653517
0.00200472
0.00248873
0.00553481
0.000147653
0.000144565
0.00180848
0.00299864
0.00334387
0.00167502
0.000498305
0.0041874
0.000228646
0.00172829
0.00375196
0.000323302
0.00237401
0.00196874
0.00718809
0.00260267
0.00326371
0.00288833
0.00234092
0.00417823
0.00552298
0.00319153
0.0022781
0.00253565
0.00219388
0.00367718
0.00151089
0.00151628
0.00283849
0.00421348
0.00254661
0.000904597
0.00132132
0.000786148
0.000584298
0.00297703
0.000583356
0.00058114
0.00370026
0.00022933
0.00159042
0.000373384
0.00676679
0.00413412
0.00117685
0.0013359
0.00161304
0.00534033
0.00742926
0.00454313
0.00304495
0.000815992
0.0013282
0.000430292
0.000419166
0.00425375
0.000744034
0.00739856
0.00401812
0.00257081
0.00281292
0.0020576
0.00438991
0.00562872
0.00133057
0.00059671
0.00751468
0.0037795
0.00549271
0.000702357
0.00530906
0.00470263
0.00403798
0.000991797
0.000771928
0.00377277
0.000625017
0.00155123
0.00210211
0.000776827
0.00157485
0.00748302
0.00674311
0.0032436
0.000737597
0.00614317
0.000703693
0.00290802
0.00534128
0.000868346
0.00039114
0.000389275
0.000614876
0.000746837
0.00183282
0.00235969
0.00250096
0.0041784
0.00138506
0.00169659
0.000827783
0.000205127
0.00138191
0.00223899
0.00222373
0.000591874
0.00484775
0.000187129
0.001834
0.000666052
0.000784225
0.00274413
0.00342981
0.00168642
0.000315209
0.00169656
0.00752869
0.00351753
0.00224144
0.000893517
0.0020175
0.0057195
0.00398071
0.000333301
0.000499381
0.00715902
0.00153292
0.000836007
0.00163673
0.00395017
0.00739481
0.00085776
0.000596384
0.00130885
0.0032291
0.000291374
0.00404995
0.00132934
0.000387912
0.00064338
0.0023841
0.00341035
0.00172921
0.00750069
0.00376566
0.00367458
0.00191507
0.00422707
0.00586107
0.00729686
0.00511489
0.00425423
0.00199969
0.00374637
0.00256972
0.00398418
0.0054293
0.00147205
0.00206546
0.0026526
0.00109105
0.000709255
0.0038077
0.00739898
0.00189655
0.00117153
0.0074481
0.00507613
0.00558833
0.000103617
0.00636914
0.00089971
0.00476555
0.000793162
0.00241874
0.00107758
0.00737197
0.00583807
0.00163019
0.00535804
0.00315665
0.00550429
0.00301035
0.00364304
0.00598975
0.00298471
0.0037567
0.00719419
0.000992922
0.00352605
0.00375595
0.000422312
0.00274583
0.00256552
0.00660903
0.00433311
0.000942158
0.00142455
0.00269646
0.0013354
0.00403238
0.000921069
0.000894436
0.00218995
0.000741311
0.000178241
0.000419183
0.000420286
0.00533429
0.0017116
0.000526371
0.00358954
0.00332112
0.000730227
0.004779
0.00274073
0.00296233
0.0029289
0.00159285
0.00150031
0.00327376
0.00206442
0.00192367
0.00631437
0.00346503
0.0073879
0.00299244
0.00552605
0.00102641
0.00113081
0.00370697
0.000781865
0.00419127
0.00217707
0.000251854
0.00336139
0.00477615
0.00112167
0.000393079
0.00592762
0.00245025
0.00694927
0.00192969
0.00120317
0.00174949
0.00545198
0.000322846
0.0018194
0.00139992
0.00139243
0.00256209
0.0066314
0.00124716
0.000179087
0.000584047
0.00287366
0.00655703
0.000420368
0.00243083
0.00377317
0.00225272
0.00212983
0.00087985
0.00461739
0.00194296
0.000485527
0.00404901
0.00712198
0.0040074
0.00305453
0.00219254
0.00108201
0.000176332
0.0057031
0.00531026
0.000443317
0.000427853
0.000373053
0.00491148
0.000478343
0.0029778
0.000373043
0.000809768
0.000560485
0.000870436
0.0030144
0.00355477
0.000890872
0.000887169
0.000225775
0.00424546
0.00581064
0.000801595
0.00616871
0.0023155
0.000348789
0.00500108
0.00378457
0.00280169
0.00630221
0.00596655
0.00743769
0.00020377
0.00084749
0.0012458
0.00122662
0.000726946
0.00721682
0.0013768
0.00664424
0.00291946
0.0044358
0.00382531
0.00382722
0.00166709
0.000922414
0.000869204
0.00499024
0.00229
0.00339405
0.00469835
0.00285266
0.000968977
0.0029719
0.00305902
0.000831836
0.00151109
0.00475555
0.00108657
0.00200205
0.00072129
0.00225399
0.00538939
0.00108197
0.000868773
0.000853586
0.00565447
0.000862973
0.0024725
0.0027344
0.000791138
0.00750671
0.00440474
0.00402236
0.00220156
0.00144459
0.00205023
0.00206129
0.00146227
0.000617635
0.00450136
0.00342241
0.000559022
0.00744995
0.00192081
0.00422425
0.00283192
0.000149015
0.00235484
0.000886786
0.00342086
0.00427007
0.00160435
0.00260833
0.00217082
0.00392221
0.00659765
0.00136114
0.00271043
0.00140724
0.000385028
0.00358872
0.00166097
0.000262898
0.00152724
0.00441635
0.00122027
0.00108349
0.00332077
0.000481102
0.000259495
0.00191564
0.000403198
0.00216542
0.00222973
0.000711292
0.00175365
0.0024897
0.00501599
0.000565177
0.000869235
0.00536924
0.000914564
0.00164375
0.000783109
0.0031526
0.00035983
0.00208645
0.000777606
0.000503829
0.00545521
0.00464102
0.000126044
0.00570967
0.00257818
0.000657779
0.00674565
0.00229997
0.00226131
0.0015049
0.000213029
0.000689961
0.000173813
0.00143355
0.000450038
0.00150932
0.00282541
0.00516401
0.00114924
0.00330189
0.0051188
0.00167054
0.00302021
0.00214889
0.000914336
0.00267411
0.00198772
0.00723296
0.000673559
0.00523319
0.000265924
0.00212364
0.00159425
0.00269504
0.00322816
0.000897836
0.0071267
0.00274677
0.00233847
0.00751275
0.000808566
0.00504102
0.0021102
0.00398587
0.00361422
0.00237097
0.00359629
0.00072732
0.00481875
0.00282208
0.0028079
0.003577
0.00145369
0.000928127
0.000574174
0.001154
0.00546742
0.00151235
0.00163271
0.00178604
0.000406213
0.00115468
0.00108856
0.00667352
0.00386124
0.00145624
0.000638351
0.00625308
0.000555959
0.00127266
0.00260124
0.00266566
0.000975335
0.00325016
0.000854976
0.00323527
0.000857556
0.002433
0.000744982
0.0038226
0.0027304
0.00127221
0.00174907
0.000909135
0.00292863
0.000970327
0.00267889
0.00078647
0.00246502
0.00174222
0.000925294
0.00406713
0.000420752
0.00114918
0.00293529
0.00124342
0.0018934
0.000990234
0.000974917
0.00309815
0.00238576
0.00112433
0.000716027
0.00464149
0.0019761
0.00177376
0.000764173
0.00215399
0.0048187
0.000726138
0.00348373
0.000602222
0.00347881
0.000813596
0.000185988
0.00304142
0.00215432
0.00222746
0.0017323
0.00065148
0.00276604
0.000583033
0.00227431
0.00189828
9.81048e-05
0.000366922
0.00740899
0.00224204
0.00338873
0.00280487
0.00201458
0.00596957
0.000366559
0.00422967
0.0017322
0.00159783
0.00397679
0.00140135
0.00326892
0.00624492
0.00100186
0.00236699
0.00112143
0.00133132
0.00148465
0.00241463
0.00282594
0.00249181
0.00216989
0.00130592
0.000770061
0.00102747
0.000262325
0.00215006
0.00100612
0.000348509
0.000692279
0.00411638
0.00131337
0.000893207
0.0013809
0.00306237
0.00218315
0.00172892
0.00101698
0.000308813
0.000542159
0.000839776
0.000643485
0.00275559
0.00362585
0.00243112
0.00383224
0.00731024
0.002427
0.00666111
0.00468331
0.00570717
0.00143935
0.00130387
0.000729579
0.00423587
0.000702491
0.00227719
0.00427227
0.00751375
0.00200283
0.00100132
0.000582221
0.00180256
0.0013488
0.00283365
0.00445921
0.00373241
0.00353918
0.00630914
0.00363575
0.0019164
0.00679471
0.0006455
0.0031023
0.00152482
0.000448518
0.000919482
0.00133307
0.00271734
0.00292766
0.00343656
0.00056094
0.000506705
0.00750392
0.00320101
0.000980289
0.000678965
0.00034604
0.00446052
0.00243756
0.00296528
0.0011344
0.00726753
0.00566432
0.00368728
0.00336854
0.00165171
0.00267221
0.00028072
0.00445836
0.00182017
0.00492697
0.00430601
0.00171942
0.00254591
0.00595335
0.00077493
0.00185745
0.000746934
0.00258843
0.00185885
0.00406732
0.000684626
0.00547542
0.00327648
0.00095166
0.00693163
0.00287052
0.000785253
0.00322126
0.00278845
0.000821957
0.00180875
0.000917384
0.000257026
0.00196167
0.00215161
0.00293077
0.00387892
0.00173473
0.00298046
0.00253585
0.00487663
0.000512168
0.000918424
0.000787345
0.00177775
0.00214142
0.000773572
0.000735462
0.00429516
0.00135548
0.00173765
0.0067391
0.00375673
0.00303357
0.00692769
0.00306508
0.00276904
0.000288561
0.00235687
0.000512211
0.00276632
0.00540621
0.000445286
0.00271983
0.000338983
0.000456888
0.00397031
0.00179295
0.00102697
0.00215734
0.000789063
0.00126338
0.00109353
0.00158643
0.000785678
0.00541982
0.0011732
0.00109945
0.000368068
0.000596933
0.00112264
0.00147359
0.000730695
0.000360388
8.13853e-05
0.0006628
0.000830346
0.000899691
0.00120828
0.000360373
0.00256802
0.000965405
0.000502509
0.000737026
0.001413
0.00157083
0.00275407
0.000350031
0.000447975
0.00347607
0.00650857
0.00239785
0.00220206
0.00695757
0.000587558
0.000632801
0.00235864
0.000487872
0.00668713
0.00210209
0.00451057
0.00344988
0.000570022
0.00118127
0.00114086
0.0023018
0.00180957
0.000213837
0.00249722
0.00326648
0.00193173
0.00262634
0.000722146
0.00281728
0.0028626
0.0071976
0.000422829
0.00535157
0.00263396
0.0035661
0.00252699
0.00242718
0.00574211
0.004771
0.00364867
0.000384797
0.00360431
0.00255278
0.00336701
0.00258843
0.00355602
0.00369451
0.00331071
0.00288621
0.0048753
0.00251816
0.00224647
0.0022818
0.000533382
0.000879092
0.00217028
0.00277965
0.00305807
0.000404736
0.00106825
0.00541709
0.00157502
0.000844759
0.00210851
0.00123216
0.00118039
0.00142524
0.00653644
0.000869328
0.00233784
0.00064286
0.00109966
0.00493104
0.00105823
0.00396806
0.00108089
0.000127502
0.000665073
0.00130756
0.00221914
0.000352092
0.00241172
0.00421029
0.00308321
0.00214713
0.00659278
0.00494138
0.00462789
0.00666758
0.00162134
0.00598764
0.00364787
0.00319494
0.00535276
0.00196838
0.0023672
0.00126787
0.00412746
0.00184944
0.00709208
0.000556773
0.00195953
0.00678673
0.00378724
0.00179443
0.000143958
0.000521472
0.00112025
0.00245038
0.00272353
0.00451735
0.000882293
0.00131615
0.00654582
0.00298498
0.00429256
0.00250876
0.00149955
0.00386303
0.00211216
0.00685026
0.00111797
0.00067502
0.00231546
0.00104054
0.00026662
0.001625
0.00156587
0.00351775
0.00534023
0.00336481
0.000765573
0.00327183
0.0034125
0.000230755
0.00361672
0.000361383
0.000369983
0.000658019
0.00302349
0.000645562
0.00165528
0.00167336
0.00506541
0.00489051
0.0030782
0.000619111
0.0028106
0.00187019
0.0031759
0.00138617
0.000520302
0.000353184
0.00234477
0.00263997
0.000781053
0.00712391
0.000505567
0.000567416
0.000405545
0.00128799
0.00353395
0.000876075
0.00397167
0.00030655
0.00378305
0.00474241
0.000364151
0.00113921
0.00276879
0.00435144
0.000215851
0.00496495
0.00604183
0.00728727
0.00206539
0.000578361
0.00420733
0.00150056
0.00533277
0.000186609
0.00179376
0.00433459
0.00670854
0.000161652
0.00300233
0.000257471
0.00708108
0.00234118
0.00225039
0.00113924
0.00220721
0.00325151
0.00298461
0.000440173
0.00375268
0.00173487
0.000618711
0.00284662
0.006155
0.00137677
0.00538924
0.00276758
0.00308782
0.00450741
0.00405254
0.00602952
0.00474402
0.000257772
0.00104062
0.00233575
0.00722875
0.00192964
0.00187504
0.00257243
0.00631995
0.0026195
0.000396732
0.00290444
0.00385132
0.0024814
0.00344302
0.00263243
0.00384247
0.00526433
0.00201102
0.00471915
0.00541335
0.00725968
0.00308094
0.00370861
0.00118469
0.00256169
0.00371328
0.000828978
0.00537288
0.00170138
0.00106447
0.0012053
0.000277495
0.0018362
0.000948039
0.00136443
0.000750671
0.00161853
0.00159412
0.000716945
0.00558445
0.0026376
0.00178571
0.00109326
0.007189
0.00190522
0.00360147
0.000204594
0.00430237
0.0034974
0.00231205
0.000161913
0.000771105
0.00365733
0.000133306
0.000468087
0.000396879
0.00139534
0.000373557
0.00080952
0.00636331
0.00109596
0.00108358
0.00747856
0.00125871
0.000244753
0.00298309
0.00426402
0.00159146
0.00037044
0.00610352
0.000167746
0.00358555
0.00291928
0.00286177
0.000651077
0.000322586
0.0026891
0.000995781
0.00172693
0.00293517
0.00235826
0.00579671
0.000438672
0.000205757
0.00019651
0.00210386
0.00221122
0.00123588
0.00408136
0.00287645
0.00487373
0.00212163
0.00747284
0.00270116
0.00733996
0.00076213
0.00204306
0.00263233
0.00212346
0.00144733
0.00200027
0.00526347
0.00326186
0.00326908
0.00283854
0.000553738
0.00128965
0.00340893
0.000698513
0.00454304
0.000640712
0.000291365
0.000514123
0.00288207
0.00124604
0.00118868
0.00445355
0.00173801
0.00106922
0.00334683
0.00164719
0.00717799
0.00159399
0.00680426
0.0032764
0.00271432
0.000384707
0.000455579
0.00364127
0.000746424
0.00130977
0.00197958
0.000566694
0.0040991
0.000612957
0.00391394
0.00164084
0.00208595
0.00413084
0.00127367
0.00212416
0.00212144
0.00413646
0.00120533
0.000627941
0.000733733
0.00328453
0.00350905
0.00117134
0.000793841
0.00300563
0.00175944
0.00206417
0.00141285
0.0013957
0.00319414
0.00742002
0.00142905
0.00150772
0.00365636
0.00293733
0.000278593
0.00359202
0.00152474
0.00199549
0.00243383
0.00159723
0.00279534
0.00658272
0.00321788
0.00183165
0.000781176
0.000978954
0.00465438
0.000725802
0.00342395
0.00188075
0.00148763