/*--------------------------------*- C++ -*----------------------------------*\
| =========                 |                                                 |
| \\      /  F ield         | OpenFOAM: The Open Source CFD Toolbox           |
|  \\    /   O peration     | Version:  2506                                  |
|   \\  /    A nd           | Website:  www.openfoam.com                      |
|    \\/     M anipulation  |                                                 |
\*---------------------------------------------------------------------------*/
FoamFile
{
    version     2.0;
    format      ascii;
    arch        "LSB;label=32;scalar=64";
    class       volScalarField;
    location    "0.00221858";
    object      omega;
}
// * * * * * * * * * * * * * * * * * * * * * * * * * * * * * * * * * * * * * //

dimensions      [0 0 -1 0 0 0 0];

internalField   nonuniform List<scalar> 
47425
(
51.0488
64.5183
53.2886
74.5371
69.0545
55.4408
81.9418
68.8746
57.2476
66.4414
105.832
51.3462
58.4741
54.2461
55.9918
94.2777
52.1182
72.4542
579.168
68.052
55.4199
51.975
80.3608
52.5277
50.8201
51.9947
56.7782
466.745
57.8435
55.8175
55.545
50.8381
54.0794
54.2178
52.2762
51.8703
50.2968
71.6989
66.4353
61.1973
73.403
50.2858
51.1518
145.089
921.703
108.885
65.3519
56.9064
61.2733
51.5352
286.699
56.6639
54.6761
85.674
114.281
81.7364
50.0048
58.8727
58.7483
59.2651
159.399
753.3
97.3367
55.3889
64.8296
52.6125
56.5223
51.9931
156.755
53.1521
58.6042
52.8144
54.447
54.9033
86.1223
59.8172
108.768
64.3433
970.288
69.1835
88.2107
53.1612
52.6567
51.9997
50.7177
54.5243
52.0519
50.3041
51.7226
71.1916
52.2066
71.48
51.7603
78.6505
146.953
123.658
50.9585
50.3131
56.5775
80.7433
51.1559
80.269
50.4663
68.3557
50.3764
51.5593
53.4352
51.3985
50.1826
51.353
91.7204
50.8743
53.8094
102.353
58.354
707.98
54.1086
107.845
82.9466
59.2292
51.315
59.9344
52.4942
61.3312
82.0373
52.0774
63.2028
52.6069
70.9969
50.8585
51.4259
103.013
80.9768
124.758
52.1996
78.7658
55.2015
52.8091
55.5346
57.046
66.2126
134.27
53.6962
53.3946
53.5756
53.1085
56.9361
51.5052
102.158
74.0693
52.4576
249.389
54.6607
506.561
53.8903
69.3436
52.488
633.533
95.5685
60.1431
60.7734
50.3865
52.9761
51.8256
80.5652
593.409
49.6941
86.5256
78.2388
368.151
85.4838
89.1868
54.937
55.1312
74.8208
65.1382
506.535
51.692
54.0712
49.9888
727.423
51.3407
53.73
54.2402
51.0167
50.5493
50.2631
67.4848
94.559
50.6811
52.6433
53.6282
65.3081
77.657
49.8598
51.9314
65.3184
52.4732
56.005
52.4182
59.486
93.3474
50.9144
51.8236
57.1418
108.953
54.7183
52.0399
90.2711
67.3884
52.0496
56.2561
51.2873
54.46
55.7085
57.6813
58.7876
63.6881
54.5017
96.0722
69.0335
60.0473
51.0918
60.8234
163.724
66.2045
50.6754
84.0158
59.5879
57.9781
55.1299
60.65
108.167
51.1992
110.946
59.7094
70.6062
119.562
70.2254
116.519
52.6724
56.552
50.7072
61.6529
51.9533
73.9918
50.4821
65.3877
50.3021
59.4056
51.3083
64.9912
50.8408
54.9831
65.1961
50.6142
50.729
104.21
53.1795
56.0795
124.844
51.2152
50.9093
95.4475
60.3521
93.1661
50.0355
61.4584
52.2351
59.7144
53.653
72.9803
71.4559
55.1693
70.1888
116.412
71.2226
113.117
69.1708
111.013
127.063
50.517
166.165
125.753
53.9526
58.1821
74.8706
51.3649
92.2778
58.6494
355.102
56.1615
55.9112
51.2146
51.6614
77.8172
67.3422
62.0178
51.5756
60.8024
93.0287
53.9793
91.7801
51.0244
315.808
643.803
327.563
49.9247
50.3599
56.6931
76.7596
395.972
59.6427
84.7468
70.7722
77.4322
72.4267
123.498
53.0049
112.732
70.2338
50.6792
50.6878
50.3496
86.1679
49.9043
61.0813
51.0002
51.0763
60.4101
57.5446
134.236
58.0846
52.388
128.324
51.302
153.779
50.8309
49.7992
56.0389
57.238
53.536
50.1817
50.8036
50.8364
54.8614
58.0217
52.6285
55.0966
88.1834
57.1545
51.5476
52.7151
51.9671
53.4655
56.8665
66.1535
53.4526
51.3238
70.603
55.6159
56.6949
83.8189
61.1187
54.4005
50.2607
133.312
53.6523
57.0788
53.9603
132.938
495.146
51.3267
51.9303
198.314
51.5648
51.7031
95.8517
69.5193
50.8775
57.0345
52.8787
50.2575
59.8528
89.3845
76.3841
65.4467
53.4806
53.3842
62.8354
51.8314
54.3894
62.2973
53.8471
57.6032
51.1031
51.2326
65.5039
64.3644
52.0129
111.149
50.3235
68.2584
74.6506
107.425
106.332
50.353
97.5304
49.9139
73.5923
52.8499
671.478
135.396
54.9124
59.392
55.0673
58.1768
57.1651
65.6802
55.6663
72.0765
66.0076
53.4401
56.59
52.876
51.6763
55.0412
57.2817
53.514
83.6697
1113.63
51.5764
168.997
813.086
92.2207
774.178
369.471
51.9199
60.2983
52.281
56.8157
328.544
93.2586
52.6762
50.2579
54.3263
55.9904
64.5091
55.6945
107.317
242.73
70.3671
57.8498
71.6347
53.6148
54.1527
53.0849
56.7628
51.4554
66.6782
67.2586
133.209
70.0456
54.0503
52.9764
53.1384
82.2951
57.488
55.7335
64.1586
54.1585
55.6169
110.044
127.485
60.3278
87.0953
53.5619
87.3941
83.5877
63.5931
51.3861
141.494
52.4844
62.8549
50.1313
62.1435
51.3526
57.8147
59.2148
110.227
52.308
59.0706
52.5949
153.85
82.4226
53.6407
65.1941
50.7716
62.1355
49.9099
59.8246
50.2533
57.2489
53.5766
84.9242
52.4224
50.8919
50.1515
57.444
58.477
98.1493
55.1213
51.8419
50.9474
51.4273
50.2559
58.5055
73.7357
60.1535
60.5589
65.0726
101.755
181.293
56.449
54.0019
56.4261
57.5686
64.38
61.4451
80.6059
54.7577
83.9743
64.7633
51.1588
65.9806
53.2465
149.1
61.5688
54.7473
62.2323
65.9989
50.093
51.097
52.9755
51.6037
55.7393
52.4166
476.479
51.7505
150.367
51.9538
61.9641
57.8788
60.7157
62.0671
64.6992
60.9677
51.1429
178.104
51.4509
51.0693
52.449
51.3668
50.6462
70.4009
61.8635
64.5117
54.7895
53.2937
51.0053
78.0601
54.9861
52.1237
157.886
56.8209
54.9164
99.4301
83.882
50.4044
811.833
818.777
52.6462
52.6673
50.8125
52.9971
86.6911
93.063
86.9036
57.7198
133.335
57.6618
61.2194
71.5122
86.3054
52.5104
114.786
53.8679
57.0467
55.6607
56.0882
55.0182
88.7818
125.742
51.0331
75.17
133.127
59.6182
69.2974
59.7699
62.6548
54.1016
64.5769
72.1852
51.6151
93.9426
106.349
51.5493
66.8857
53.8135
56.4214
57.8105
51.8549
51.5682
1307.25
52.1246
60.5697
362.25
391.44
49.6799
78.7745
1230.3
175.995
77.196
66.2571
119.795
133.608
56.0166
49.7301
54.3081
58.4402
113.434
113.759
50.7091
119.635
54.5018
57.4693
52.1929
66.0025
52.7926
66.3566
268.985
106.575
59.7684
71.3831
54.6756
109.994
51.6281
53.0632
61.9154
54.4098
57.5379
186.733
63.0449
54.8376
74.7974
191.286
173.657
69.6102
75.4892
53.2451
69.0371
50.2265
284.16
57.8832
93.2611
67.2119
70.4698
58.0524
59.752
63.2416
59.9471
70.936
59.3052
50.3764
204.869
53.7093
58.048
58.1274
72.3884
199.783
55.826
203.845
57.0189
54.6741
50.7658
146.642
54.0813
57.9478
49.7705
55.1006
55.4631
64.5237
53.9917
57.7408
51.2146
84.225
113.91
53.6362
76.7643
52.2061
80.6001
56.2344
50.5015
54.5968
56.5786
52.1771
52.5789
51.8614
147.937
59.4277
60.0191
53.2275
52.074
66.615
49.9081
98.7836
52.6222
66.3269
87.0358
50.6635
56.207
50.8995
50.0912
59.9515
51.0959
73.5032
52.2124
50.9164
58.7689
92.942
50.258
130.354
66.3883
70.1441
422.214
65.1346
53.6617
56.8133
59.5785
92.3203
368.707
130.151
53.2964
52.6033
54.4089
122.15
87.9699
113.438
73.9598
51.8178
50.8954
68.257
117.54
53.4363
85.6538
187.137
60.6536
55.2613
154.371
68.2074
102.332
52.45
495.025
109.99
114.01
109.264
76.1818
123.424
50.2663
50.8796
54.3847
453.634
189.952
54.8289
62.5214
49.7735
145.954
413.549
50.4924
169.155
66.7993
50.3045
168.655
50.061
50.9477
57.5341
62.6102
70.2727
50.0691
49.7954
51.1947
70.6207
65.3064
77.8376
72.8063
50.3779
261.558
51.7256
50.0399
50.8595
204.932
81.2309
66.507
57.6198
55.8813
56.471
63.2313
530.872
55.7724
58.9568
71.0057
62.6807
51.5883
120.637
90.382
128.454
80.5248
62.3952
284.602
55.6432
68.6722
50.4729
59.9839
53.966
122.811
93.9423
52.6283
93.4838
85.4583
59.0089
85.9692
62.0083
50.2674
58.5933
63.177
63.6889
57.7467
413.382
54.9059
58.7374
138.555
218.779
342.984
217.77
90.4111
138.466
54.6502
50.3308
58.6585
68.5924
57.3368
69.7778
70.2318
55.6258
56.6548
51.313
111.111
80.5321
70.0388
54.4247
707.044
56.7189
50.7167
63.5732
61.3788
52.5101
145.135
94.5179
59.4673
97.4555
94.0908
55.5915
51.7799
58.2223
97.1765
122.265
68.2601
57.7772
71.8754
50.2211
108.57
79.977
78.053
65.5946
50.6999
60.5563
132.23
82.3614
58.2629
52.2627
105.549
68.993
59.702
57.6785
110.751
55.4062
54.1774
58.4021
85.4187
50.6365
145.167
53.9016
222.418
287.77
56.4963
55.7416
73.3519
61.0451
60.344
84.335
240.589
57.5624
276.278
53.5623
66.9592
65.7971
60.3649
61.4799
69.0177
232.789
232.34
54.9194
194.357
55.8582
56.1334
53.8929
62.8863
53.0039
60.91
65.9113
60.5382
53.1499
50.4376
58.8235
111.209
444.989
99.961
66.7799
432.168
187.784
94.281
61.2941
54.0843
66.7862
106.875
187.608
99.4089
59.1034
55.7119
53.9628
58.4072
66.2141
101.867
54.6093
55.4081
65.4795
51.5135
63.2302
50.1549
51.7623
82.3958
62.4326
94.4966
59.5593
58.081
162.638
51.3206
61.7167
57.1093
62.3438
66.5161
74.3015
70.1391
67.5504
53.3945
77.4303
184.564
84.7547
56.6961
1192.54
771.495
65.0116
454.072
108.161
56.3078
787.154
163.401
56.4609
66.7453
89.1111
88.4613
265.233
94.3701
53.1618
116.337
65.4417
51.9746
105.596
540.626
59.2965
561.812
99.2078
100.352
1685.2
50.8448
80.3207
97.8916
67.0154
97.4197
58.1428
59.679
437.343
51.5914
68.4118
51.9512
88.4962
50.3927
51.28
63.385
64.6416
86.253
67.772
55.9082
77.0788
62.3947
49.9259
55.524
63.2285
60.4788
57.1314
723.857
101.502
62.8043
74.7593
57.0178
65.0531
89.3187
59.5807
79.0026
69.5646
64.2144
73.7046
62.5334
745.624
57.8203
59.5382
53.3352
58.9597
64.4142
62.5818
89.1815
55.4979
57.26
58.3553
52.7649
92.9012
683.943
55.4264
144.552
66.0484
52.6201
70.5905
53.7842
56.1526
73.585
66.3547
198.246
55.8331
103.872
50.3047
606.988
402.074
67.9652
198.336
51.9301
66.4717
106.196
52.0161
111.782
1015.6
107.717
119.684
102.894
171.72
68.6013
422.458
279.373
71.866
51.009
1650.08
59.9686
55.8987
57.5575
121.083
840.273
52.9227
61.8701
91.2632
69.0688
163.419
478.945
85.4669
93.4626
306.357
107.942
56.0805
196.03
58.1025
387.501
869.311
51.2917
54.073
63.9554
58.4059
124.769
65.8895
52.5776
125.184
90.7172
79.281
54.1195
53.8529
88.3049
52.0253
436.918
60.9257
73.5426
63.9749
55.1728
251.652
53.5197
117.844
102.54
62.6132
58.237
90.2694
180.779
89.1572
56.3738
709.917
125.878
61.1354
78.6181
84.0003
59.7917
68.616
55.4351
122.955
191.385
65.0419
484.344
148.804
79.6809
91.8873
129.711
74.8895
306.56
53.2138
50.1684
88.6123
64.2067
148.56
59.347
401.12
53.6992
56.4867
57.0386
479.028
55.3636
248.052
64.9137
52.4725
52.1659
71.3991
66.601
84.4583
66.8381
58.24
63.7912
86.5243
62.8926
702.245
61.9575
58.9161
520.903
106.195
122.449
58.6487
60.698
60.6152
190.306
64.908
288.402
55.9603
55.3979
58.5457
56.9673
82.1392
53.0537
65.9537
69.0447
58.8961
51.6112
61.7846
60.6241
51.6687
67.7207
199.906
156.819
59.0834
52.1929
552.098
145.891
67.8463
107.314
82.9928
51.4058
80.8184
521.573
225.226
59.3095
64.748
60.9853
64.4091
79.8676
51.3756
176.981
65.4929
54.0888
74.8094
110.394
65.6194
130.105
71.021
106.242
49.7604
205.095
110.427
256.786
144.798
58.8862
121.459
65.7174
63.1394
63.6039
63.6657
62.1954
403.178
55.5211
57.8559
211.261
50.461
56.5489
208.918
61.5224
56.0336
87.9341
102.535
71.7484
55.0319
688.594
60.1733
175.418
63.3023
63.1617
58.2316
79.1996
74.0665
95.6721
53.9984
69.9153
53.3371
71.8761
67.9436
131.108
247.022
96.3059
50.3682
60.7201
53.2277
55.968
88.0119
54.2823
56.2927
123.635
76.7547
54.7836
132.215
56.4848
66.1736
54.0805
132.214
58.1204
56.8821
50.8135
106.368
69.8661
56.5873
97.191
197.307
69.4721
54.774
52.1758
51.2207
86.4606
52.0557
52.3337
515.341
91.2946
121.718
55.6136
355.23
108.451
50.1761
794.289
94.5759
803.793
84.3721
57.603
85.1778
64.2795
50.1193
84.7491
83.9619
94.3434
88.8542
53.1167
106.676
80.9754
65.3163
70.9143
170.169
59.7212
1006.65
70.2113
232.951
49.8167
121.683
186.388
53.5321
66.2285
132.872
50.3272
146.016
77.1097
600.754
64.8334
72.9697
50.8242
93.8498
57.1404
51.3
141.473
54.0104
89.9774
52.5915
233.519
468.047
65.7454
49.9982
266.502
74.5422
274.682
54.7058
98.242
56.4976
57.6157
56.0136
60.1297
53.4294
79.6439
59.1445
175.784
88.6893
53.4359
52.6818
105.415
204.831
74.0128
65.2744
51.9189
54.0499
121.992
84.6055
52.5884
50.6637
155.466
97.534
58.648
53.9583
58.3634
71.0022
75.2559
52.8709
91.8636
56.9909
93.0243
56.7786
56.8656
50.9815
56.7917
50.5727
174.675
167.77
198.4
104.535
64.4502
53.498
63.1469
53.6321
50.9581
58.1066
153.344
128.604
338.151
198.598
314.835
56.7342
55.215
52.8221
52.7881
51.3027
120.304
67.8206
51.8882
64.3893
80.4855
53.15
75.832
54.7974
122.976
60.4028
103.947
51.5623
60.5576
65.5458
93.5409
57.7388
119.451
63.896
60.332
54.3482
52.7225
77.4912
97.3937
137.183
51.4285
85.6606
58.2568
98.9794
167.822
50.3458
50.1545
64.9327
54.8716
51.9446
78.46
51.0073
50.621
62.3983
64.3315
68.9046
59.5659
72.9061
56.2319
53.3884
459.645
66.0458
87.3854
56.3168
51.3529
91.3053
87.0969
682.109
109.016
56.0785
49.867
51.1413
73.6032
53.8595
50.5268
108.479
86.9569
50.1148
50.2545
66.2609
80.5264
185.821
122.516
62.7979
85.617
74.6239
108.159
60.5751
116.57
55.2437
57.6786
476.098
52.9249
62.4659
91.976
88.7167
54.4079
726.865
59.2818
97.5806
54.3376
93.1906
71.6597
748.406
741.024
56.7956
51.1988
52.0681
92.7312
98.1471
52.5305
876.388
85.0578
52.5117
143.204
119.66
53.7948
51.314
59.6846
51.8515
55.0528
59.128
57.7671
54.8139
68.6816
63.0925
53.5829
65.0459
55.0787
61.0131
70.3895
63.4461
54.8873
66.4602
88.208
72.3171
105.484
132.962
65.0292
133.24
126.372
61.3855
309.565
72.7984
131.164
53.8961
81.1973
93.8664
92.9647
95.5095
51.3483
50.4648
56.8832
54.3684
83.1593
67.1754
149.627
324.218
52.9576
131.405
51.4355
51.057
72.5219
55.5117
58.3823
50.7489
50.5571
187.042
404.445
49.7948
52.3037
55.6957
110.9
55.654
52.1137
55.1328
74.5175
533.228
52.3962
202.215
60.9659
66.6274
265.538
72.1745
50.165
50.4773
60.7837
581.158
51.2282
86.534
66.2448
50.2073
436.708
929.324
940.499
213.642
123.867
53.7204
60.4993
67.0488
57.0907
283.842
181.322
422.679
487.235
122.831
63.9481
54.7246
479.262
50.882
632.493
96.063
631.07
82.1154
66.3473
52.326
57.7549
168.466
169.373
50.7254
54.725
66.7972
69.8717
61.9287
66.312
53.5716
331.075
608.584
53.0327
76.0426
356.532
72.3423
52.5411
51.0799
236.399
105.959
80.732
56.4651
267.16
51.7611
244.023
652.831
554.274
58.2925
52.2717
56.5931
49.6717
57.3413
67.1856
66.2397
55.9807
54.6473
51.4138
68.552
51.6442
52.7609
51.397
64.0226
51.6245
50.3815
70.6045
53.8988
66.3056
92.9501
155.453
92.311
50.7811
56.1534
84.055
50.0962
73.9776
64.4158
884.236
60.7649
99.6836
60.8908
79.0711
61.075
66.3716
51.2967
50.9627
69.1266
70.6392
52.1546
68.7804
77.7816
58.7575
55.8026
56.9814
52.1211
51.8107
112.348
64.8532
100.647
137.722
61.8279
65.6549
53.6101
86.2922
69.264
65.0975
55.5528
64.5135
76.6215
77.2394
108.087
61.1989
109.215
696.663
242.407
185.527
69.8693
62.8126
115.562
56.4878
53.7357
71.0007
79.0568
65.2868
58.6864
56.3049
163.066
78.7399
116.108
62.7561
198.788
56.1083
52.3317
51.3323
57.0005
51.3182
83.8223
66.6409
56.7143
73.5997
90.3204
58.0015
658.904
56.0532
51.7545
87.9075
161.381
65.6334
155.194
50.2783
133.304
64.2138
70.1313
51.95
219.35
68.4153
60.9734
59.4412
53.2755
58.4658
77.5652
668.692
485.783
54.1516
58.9568
700.891
54.5579
67.3787
65.8231
100.565
206.937
51.6782
69.503
420.704
93.49
53.6638
52.3956
76.0065
66.3218
66.8914
253.186
57.8056
71.7107
532.844
94.759
280.066
63.6732
184.212
55.262
704.328
106.639
106.725
90.8401
64.8106
60.3934
156.162
133.659
176.563
54.232
50.8054
440.369
55.079
87.2373
186.929
58.7672
54.5783
57.8211
61.294
59.4925
50.851
564.681
418.234
66.0781
121.598
162.943
52.5215
71.439
58.1058
83.7628
52.3451
52.3367
55.9755
63.2935
381.279
401.56
51.2207
60.768
54.5431
78.3646
65.9202
106.341
71.4106
60.087
423.264
63.5776
60.9213
155.885
86.9005
177.19
54.3858
70.7212
81.281
136.648
72.2559
57.9428
132.453
84.192
53.6231
431.356
50.097
51.4332
55.4142
87.3444
68.9042
77.8229
58.0229
79.8858
91.0225
58.1294
111.035
102.139
50.5825
63.0372
50.6014
66.9019
1011.43
58.2915
258.944
57.4418
52.4862
62.7849
57.0107
60.4964
52.4902
58.2837
285.183
63.4531
60.0182
135.369
53.4358
60.6096
1616.21
255.822
51.39
60.8582
60.4675
56.3126
111.087
189.958
144.455
493.177
68.6094
54.3188
81.8942
57.7054
54.5859
75.5765
99.0533
126.502
50.8587
78.2749
64.8141
144.471
60.1698
144.064
71.3768
75.2419
117.399
52.7437
60.8406
580.006
50.6442
55.0725
88.028
57.1416
129.954
57.5902
57.4175
739.324
236.29
617.983
75.3301
120.189
59.9769
52.0328
51.3537
69.105
52.1455
73.8135
147.08
52.697
59.5725
434.469
55.7246
69.1043
53.3031
85.9092
56.9574
502.736
79.22
72.2778
56.4346
117.961
146.918
53.5903
68.4758
75.2619
50.8069
102.032
52.4806
106.596
53.9771
55.4524
80.4324
57.8413
130.082
60.8773
54.6944
67.1774
53.9397
68.4697
194.071
87.5233
74.7826
71.4479
260.037
67.604
62.7791
801.57
185.835
73.114
57.6476
66.4245
64.3461
109.426
58.0439
116.97
69.0466
63.8349
65.4283
88.7655
61.1708
411.668
67.2095
412.776
60.1565
78.6831
88.5812
142.929
138.082
59.8763
389.566
94.8338
81.3242
56.1054
212.967
54.2892
60.3725
75.0186
61.0254
184.944
65.5234
54.6938
162.263
63.4514
72.2477
83.7184
54.1755
62.0358
73.6713
149.612
57.1212
94.5401
66.069
88.9103
55.918
51.8166
94.7241
54.1048
103.176
54.909
87.0886
213.094
55.2177
57.3531
59.1898
64.5343
522.037
137.819
98.9322
63.8049
58.4297
915.006
709.988
50.4655
102.726
51.6594
54.5471
106.226
58.2264
242.052
57.3974
58.1641
65.0746
56.3599
66.0163
52.579
62.4894
137.693
77.3072
114.656
86.4551
60.4799
59.8294
54.4005
108.1
102.478
310.675
75.0204
112.544
186.81
179.789
63.4264
246.049
81.6945
51.8122
128.013
88.8241
270.761
61.9828
66.474
82.9367
74.2384
693.57
108.404
92.1411
108.122
54.3116
75.2746
57.907
56.8991
51.1289
59.1674
57.1019
74.4577
50.8471
83.8911
105.053
87.6585
52.1817
83.3331
55.7135
58.5452
50.3176
63.4061
69.5618
144.367
64.5197
98.9514
56.0205
58.1564
65.7317
51.5139
61.9521
58.7181
57.2438
56.4345
84.1174
64.4507
63.443
128.54
69.1863
61.1723
67.0859
57.0365
93.0669
128.925
107.972
49.8473
61.0446
363.206
156.155
155.999
55.5898
156.62
61.6928
67.602
52.4563
55.9814
55.1928
63.8444
63.208
55.7329
503.035
51.4503
74.9545
51.8526
51.0874
70.4852
68.2134
52.6067
80.1826
55.8809
86.1767
58.1137
58.9924
51.6968
86.0838
50.929
53.7759
75.3987
55.5741
132.587
77.6463
56.97
68.6131
73.9641
67.9677
66.7566
244.912
57.0122
59.9087
130.744
58.71
64.3
127.475
55.5656
50.5011
108.234
90.5021
126.96
86.3461
60.9767
111.095
174.208
51.5685
181.704
68.3658
55.5132
55.7479
59.7728
55.9105
56.8626
62.5751
164.524
60.1112
457.817
74.6018
53.1088
156.958
131.946
1052.52
126.255
51.5492
70.4619
89.9124
122.446
444.566
60.4115
145.939
72.1912
442.756
60.1835
90.6231
70.9488
141.385
92.2836
127.242
131.548
476.46
430.63
1168.59
97.1409
76.1853
101.534
160.364
164.453
63.383
91.0235
106.994
82.5102
113.769
60.078
67.9483
401.169
127.543
102.354
57.7108
52.8387
73.7873
50.9991
102.676
130.084
85.6588
116.469
55.8795
112.347
56.417
58.0043
116.247
80.9237
217.879
57.3733
65.4561
526.065
56.4993
60.4073
56.6526
52.6058
92.6637
58.6185
61.5083
52.8007
111.808
50.1717
62.985
56.0432
66.927
66.8456
65.8739
50.4831
52.7968
290.245
52.0356
55.3078
54.2564
57.345
53.0847
54.1717
61.1845
76.4807
50.7779
62.2747
69.882
59.7063
112.312
76.0672
57.1957
56.8947
63.7814
140.476
110.137
69.3769
66.1204
119.775
71.7553
65.3211
56.7747
79.7551
59.4342
75.5954
59.4198
131.443
62.1953
65.6592
81.5688
65.3702
363.694
943.685
130.275
62.1891
60.8223
110.99
61.6984
53.0864
52.1739
57.2655
58.6576
60.1814
52.9837
51.1475
58.0639
63.1094
53.4753
52.1591
54.7042
57.359
65.8092
63.1463
91.9272
53.5148
53.6213
119.468
60.4259
50.5535
59.8171
149.955
1561.79
100.861
78.1219
58.4428
60.9509
55.0312
85.0647
77.3466
57.6756
92.6046
54.4214
60.5955
65.8636
55.7246
85.0443
55.0768
60.506
199.778
73.15
66.1277
1573.66
69.7213
200.208
68.8561
56.889
76.0418
116.1
52.3327
54.7073
275.477
54.4098
202.697
312.251
110.591
127.246
542.379
66.2397
57.3583
73.5929
53.2129
123.281
122.812
75.6065
65.2852
54.6639
74.5659
599.548
403.825
80.6424
56.5563
80.7331
53.4649
109.34
90.2861
309.144
58.5568
50.9728
463.854
56.5981
151.35
60.4422
79.9888
385.624
92.9057
52.1356
52.0269
287.103
50.821
51.2144
51.8548
56.018
85.027
53.3342
72.3013
58.586
371.764
83.8201
55.605
52.4184
434.528
67.0148
319.521
53.4818
61.8112
67.3983
71.0086
54.7407
57.927
54.1882
271.255
66.5754
68.2734
208.094
80.8532
56.457
76.7603
64.8015
112.2
59.2184
53.7054
79.7753
64.5659
50.7276
179.851
85.3446
58.159
50.5061
63.0553
62.3514
62.0866
61.1141
53.175
157.928
55.2253
56.8637
63.747
63.2163
55.9702
52.8493
53.0336
84.2672
49.9682
51.7148
52.3751
97.5622
56.234
141.263
149.825
58.574
423.154
57.4155
74.7295
110.425
143.217
428.406
70.6073
76.3569
75.2498
469.75
95.5734
80.0608
95.3469
53.4707
60.5988
210.377
83.6437
52.9322
58.5897
53.9363
291.519
51.9304
60.4278
65.4024
1772.36
450.118
53.6923
1111.47
374.104
205.527
67.7592
350.14
430.924
57.892
142.948
92.904
50.0449
66.9646
864.164
62.822
50.7351
59.0155
349.841
60.8092
858.352
53.3098
129.908
54.3676
127.898
238.213
56.8284
118.451
85.9482
55.1647
104.131
50.4428
127.362
793.57
796.332
184.296
75.6143
65.2293
53.659
53.4333
50.9126
74.0216
50.4062
64.9147
52.0206
73.2758
90.5594
57.6796
57.5938
69.5518
54.9178
56.9884
84.4373
53.7155
80.5877
95.1235
68.4133
61.497
576.344
55.5026
626.684
298.07
131.721
132.045
66.9195
83.8768
58.3998
69.4129
78.7705
52.307
69.1321
53.1673
63.1488
55.0501
90.8053
79.6731
116.983
113.434
60.2063
98.7682
64.9932
69.7644
99.9443
61.0762
119.599
58.3372
64.4873
59.8672
53.6091
61.8378
58.1634
63.9434
51.5277
141.927
109.402
470.996
56.0034
66.0485
74.0632
437.236
58.8626
64.8904
92.3377
63.7398
129
62.8676
51.4953
60.6041
86.4697
57.3416
70.8368
1393.53
55.4359
60.8056
120.931
54.7563
91.4397
136.599
50.9802
53.0884
56.9144
168.582
204.545
52.6473
89.1444
65.0643
66.0363
59.1689
185.874
63.2152
104.562
57.9308
52.4641
55.1606
250.528
55.2662
78.0254
65.9423
59.7707
57.0074
63.8468
51.7308
107.968
57.3506
64.2665
164.158
104.656
54.1571
163.407
72.945
61.6752
55.421
104.667
50.415
63.9251
69.204
108.532
55.2955
50.5836
58.4493
50.4739
52.6825
63.461
51.1416
108.503
69.4135
52.6614
52.1759
104.234
51.0196
61.7687
54.8884
480.342
51.4223
72.0177
56.8301
54.211
552.475
147.523
381.973
51.1799
52.1093
330.689
460.46
94.0061
76.0787
96.9584
128.351
56.3778
56.1544
67.9243
148.18
68.7397
106.493
57.5288
135.145
75.302
77.4764
52.486
90.7997
51.1645
55.0337
254.308
67.3397
58.1862
51.6045
108.424
71.1948
73.3281
75.9711
57.4336
52.6
56.8659
72.4568
56.963
68.8658
89.9945
56.8028
55.7128
51.3399
52.6968
64.5185
51.7863
62.1536
65.2787
51.7813
1650.67
62.8698
54.7463
65.3113
51.4668
84.0738
100.015
57.796
69.1279
66.8174
105.213
65.5693
58.8247
76.4277
1240.05
96.1672
95.7249
123.11
62.2921
50.9342
57.5346
71.3445
630.022
94.2776
65.5958
56.7256
53.8915
66.3719
54.4431
90.5481
64.8689
112.536
66.9292
57.4864
68.2403
65.0122
62.0696
57.6736
86.0292
161.544
53.3428
136.688
77.8787
85.8475
59.0888
74.039
55.0072
74.6928
63.0811
54.6423
62.9782
50.3986
54.0941
67.142
51.156
53.0201
51.7923
62.9044
52.3678
56.7071
60.5397
97.5299
58.7801
92.563
51.653
443.345
80.0337
78.0834
62.267
56.0321
95.0807
61.516
57.6852
52.0956
53.9651
55.7372
91.4085
50.5782
56.2485
51.7901
86
73.4288
59.1313
307.483
68.2554
92.3913
72.0598
62.1794
52.2324
115.147
75.6866
56.3374
51.7031
73.7108
64.204
57.5169
58.0503
794.078
70.2294
56.734
54.9168
208.87
574.933
65.601
212.23
188.463
92.6778
91.511
89.1448
124.124
63.1319
115.821
320.331
55.5268
57.5949
58.3363
75.7922
173.043
57.0626
57.1636
65.1295
149.42
153.252
565.027
66.0243
267.257
84.1939
55.9303
73.5088
53.864
55.333
275.3
51.38
86.2229
67.0287
54.06
87.4261
1612
54.101
60.8809
63.6778
230.332
153.769
75.5272
496.432
1204.62
74.3875
169.098
73.5584
83.299
67.9105
54.8741
152.857
129.638
132.89
65.0208
110.365
94.9127
71.3703
81.589
52.1408
57.3564
404.403
62.7673
469.058
51.2061
123.44
54.0053
465.078
60.0053
69.0049
110.25
408.463
68.7904
65.8443
453.309
61.0146
345.923
70.5223
71.607
126.056
53.4185
116.34
65.0258
52.087
54.4031
57.6422
215.509
360.904
61.4816
56.2266
68.5264
61.4846
61.3686
477.611
68.054
65.2719
53.3069
53.94
153.645
586.581
58.6305
65.4149
69.9203
80.619
85.0383
397.015
327.759
190.931
105.272
57.8219
72.2044
390.497
67.1714
56.413
59.9303
57.2708
542.941
61.4267
204.879
1085.79
133.69
68.7482
74.7379
529.872
124.84
69.4638
90.1094
94.8553
118.615
55.8935
56.6544
90.3354
58.1024
544.521
204.406
124.905
54.3842
62.76
95.6147
103.872
74.3911
604.628
195.117
466.257
90.3293
73.5657
103.121
67.9242
55.5539
78.4835
53.1798
52.6716
58.6923
66.3516
70.2922
60.1407
66.111
177.501
176.946
94.8104
52.8686
116.426
61.2624
62.9709
128.867
204.847
718.377
599.014
63.3538
69.8489
55.5732
54.2239
231.266
100.973
181.002
58.0374
451.102
97.99
95.4274
57.2642
51.4615
52.5174
70.4537
139.167
63.8351
60.9899
68.3288
52.656
306.512
68.2125
71.7024
65.3303
75.5481
52.0336
50.7422
53.5521
101.012
62.5179
66.5474
96.5036
51.948
57.3659
100.032
373.251
137.472
53.3701
78.9719
54.5554
61.9674
54.0151
524.919
57.7205
72.8338
70.3954
56.5402
58.7425
57.968
70.5843
52.7282
59.5642
58.9858
139.188
51.7813
62.2908
58.4264
112.257
113.782
71.9585
216.745
610.283
60.2774
56.9566
108.42
62.2352
55.4175
60.6146
59.0389
73.7965
66.0092
58.6045
74.5005
751.221
324.939
71.3266
380.3
56.2888
53.0542
72.1578
50.8671
55.5531
70.3489
52.9422
57.7554
80.2479
57.5595
414.1
53.7412
116.689
53.9686
51.3371
329.517
74.4136
67.1447
443.328
61.0727
458.415
60.2298
318.237
51.3377
98.6147
72.6431
80.0323
53.5358
66.5348
54.4786
378.262
59.8646
54.1223
52.4095
65.6192
63.8076
55.4794
62.8375
92.1394
56.1924
71.2112
52.8619
53.2872
91.3989
80.4193
69.1355
54.6068
66.788
52.5415
54.2012
58.645
52.7465
52.351
61.32
54.3022
112.087
93.6856
58.1779
85.5538
68.8687
54.6369
67.0072
54.0061
99.0734
106.733
59.4734
54.781
74.8974
63.8372
75.2755
106.906
255.111
60.3926
54.0734
64.9516
52.4771
58.0499
265.092
116.664
64.3889
57.324
53.7802
51.7095
49.9557
62.4457
87.4408
67.4656
207.452
58.8493
62.0406
61.538
61.137
51.9815
176.178
62.4436
56.0468
116.068
59.3922
505.914
69.6501
50.5698
58.601
59.6331
73.1161
527.074
58.0969
179.793
58.2001
509.148
63.7277
337.407
54.8791
53.4718
61.8136
105.247
59.8108
54.7555
68.0341
50.2566
51.2493
61.3227
54.3691
83.3222
55.6514
548.99
57.7413
54.5974
74.8399
171.284
59.4367
235.211
504.937
551.014
577.676
103.271
63.5725
236.035
327.923
62.2102
64.4242
54.7956
731.077
92.4968
74.1349
50.6664
57.1275
73.1336
212.005
103.244
77.5684
52.748
62.3553
83.2836
54.451
53.9059
83.5806
180.738
122.789
547.265
55.0617
52.3045
57.2305
53.4339
827.925
55.7781
51.5158
54.683
202.72
50.0553
57.0376
68.0918
73.5895
54.3319
59.5963
53.1717
89.6943
57.2439
111.686
56.0532
92.1194
72.8124
113.967
99.2028
114.65
78.1477
60.9532
434.684
73.641
196.163
84.164
132.779
68.3627
61.5312
91.2293
67.8131
50.997
57.9532
50.2458
89.2752
368.395
117.335
52.2829
74.1807
67.4425
49.8718
70.4305
64.0377
136.411
59.5184
60.6298
87.5679
59.4766
65.2233
59.5853
133.846
66.3355
73.412
67.8321
107.725
270.662
142.799
92.7139
621.274
104.905
59.6995
58.1965
52.9901
107.572
534.967
65.6627
742.859
70.4571
56.7035
118.64
424.654
65.001
60.9969
57.2557
54.4199
51.5157
61.2378
55.5505
62.7749
53.218
51.6921
100.209
49.9849
81.7906
59.8984
63.3774
235.656
53.8289
117.477
61.526
53.5948
53.2823
72.0063
123.28
80.4819
75.2394
55.8498
56.7515
58.0747
59.5207
227.616
53.2264
61.1386
84.5436
99.7252
227.92
56.1536
67.9348
82.3896
89.1034
53.6676
91.8044
55.5382
75.2654
65.0463
54.8045
88.9709
61.4197
50.8655
79.7548
57.6558
52.2834
52.0118
102.614
69.2782
69.3311
55.5551
93.0427
68.6607
58.641
75.2002
269.219
58.5789
52.4341
89.005
449.57
55.1949
60.6533
81.9795
59.9038
92.211
51.3916
167.815
65.4834
58.5131
61.7429
51.7653
86.8643
53.7572
396.441
50.8978
58.3979
267.236
62.7519
81.4346
144.478
60.4652
54.2103
170.74
53.6895
52.2296
61.116
67.2812
61.3276
92.2684
54.0481
293.942
69.4453
51.2476
69.2943
120.034
482.732
177.088
74.4538
52.5505
81.7806
270.166
352.018
80.0724
124.584
710.045
116.152
67.5818
130.845
71.4051
83.7344
55.274
335.511
797.823
152.214
108.728
84.2752
379.597
352.204
453.9
204.654
96.1048
60.0797
56.9716
152.323
63.8406
441.378
191.789
68.0711
195.523
108.793
50.0534
51.2605
64.8561
108.999
65.9022
91.2354
59.3711
83.018
181.304
627.073
52.286
93.517
406.474
423.822
181.016
120.399
63.3539
567.183
51.9525
59.9679
137.474
148.662
53.4652
138.202
148.651
56.2648
59.2675
63.2495
65.651
50.9191
70.898
117.874
58.9947
418.645
49.9359
57.2444
67.6433
276.93
100.159
121.196
137.023
64.3412
121.503
57.8907
97.3686
78.1231
59.6088
62.3719
550.14
61.1277
60.3807
69.0866
159.736
62.3039
65.6704
83.1146
52.5766
53.5655
68.1478
79.8147
62.0279
53.5458
57.9385
54.8484
51.1004
55.2239
78.3844
59.4185
159.831
348.068
494.119
54.3435
64.1323
57.8208
64.0642
78.9018
489.465
69.0835
144.807
65.0006
62.86
56.6302
54.6728
51.3768
108.793
49.9625
59.0002
84.3477
67.7127
58.4258
57.3305
53.4612
101.262
60.8253
271.675
93.3195
113.959
434.119
109.258
119.974
68.7323
60.6529
111.079
70.137
97.2992
62.5582
71.2749
59.712
66.5398
63.0347
53.7988
60.6361
61.2056
51.6563
71.2939
80.7681
51.3216
691.967
113.85
86.6919
74.9021
63.699
935.255
62.3681
262.408
606.671
60.2366
101.273
68.8006
65.4494
557.174
654.513
96.3454
105.212
56.3587
70.2865
91.9501
318.323
56.3679
55.8582
75.0935
560.42
56.566
65.2988
58.2252
62.043
393.342
60.96
561.451
189.677
351.267
324.866
58.7743
58.535
66.3578
522.5
360.405
152.759
81.1604
54.644
126.379
52.9619
103.718
59.7628
56.7725
52.801
59.3331
56.1624
1132.89
62.9853
71.5068
61.428
54.0496
59.2897
453.469
58.9305
119.506
249.618
60.2061
58.6983
93.1278
49.8998
54.8976
470.827
351.126
73.3539
82.2641
67.1861
54.1166
84.3833
58.4536
57.8393
64.7146
53.7265
76.1011
66.8944
68.2663
189.26
59.7418
60.38
62.5344
60.8235
57.9289
82.5254
62.9813
209.721
54.9215
96.5924
62.503
64.3085
58.8051
58.2684
242.798
98.6531
99.6686
52.5767
643.121
51.6739
50.202
55.34
57.5754
63.2345
229.386
62.0069
54.9253
259.797
64.2658
59.8917
56.4831
595.073
52.4397
64.4839
609.795
55.1047
594.325
352.941
62.5001
59.4256
94.0497
100.458
540.916
69.7635
244.938
63.5123
55.397
94.4527
64.6161
60.4978
56.9274
278.619
75.6134
230.633
93.0525
65.8274
62.0235
62.1493
61.1422
63.1763