/*--------------------------------*- C++ -*----------------------------------*\
| =========                 |                                                 |
| \\      /  F ield         | OpenFOAM: The Open Source CFD Toolbox           |
|  \\    /   O peration     | Version:  2506                                  |
|   \\  /    A nd           | Website:  www.openfoam.com                      |
|    \\/     M anipulation  |                                                 |
\*---------------------------------------------------------------------------*/
FoamFile
{
    version     2.0;
    format      ascii;
    arch        "LSB;label=32;scalar=64";
    class       volScalarField;
    location    "0.00221858";
    object      p;
}
// * * * * * * * * * * * * * * * * * * * * * * * * * * * * * * * * * * * * * //

dimensions      [0 2 -2 0 0 0 0];

internalField   nonuniform List<scalar> 
47425
(
247.943
241.385
13.208
390.592
368.662
16.0321
370.926
9.68653
611.464
364.769
5.96408
535.817
366.366
4.6462
364.531
500.995
15.7518
437.08
283.255
365.118
406.576
496.661
8.50526
167.727
497.046
157.948
14.2592
364.015
13.1453
53.4341
446.172
535.743
583.219
70.3968
17.6634
11.5485
475.697
589.371
431.001
228.522
222.041
310.84
320.7
619.5
372.539
196.312
28.0521
576.625
215.967
92.9613
458.602
348.978
44.1199
363.133
185.153
460.572
259.784
20.3916
375.229
20.9378
362.083
363.692
358.178
430.556
585.519
398.616
556.597
329.881
362.854
438.815
396.924
145.163
385.465
404.683
365.571
625.319
358.794
61.4724
335.137
366.757
364.115
464.243
449.984
569.383
239.719
271.401
341.557
233.47
349.692
364.184
473.476
375.831
99.3061
270.986
273.773
261.253
73.26
283.521
251.839
524.568
573.903
430.306
466.394
450.501
461.47
338.02
257.046
253.42
257.363
521.689
346.578
527.818
335.232
293.555
347.455
442.126
345.366
459.361
435.779
353.223
292.197
592.97
568.052
387.081
509.216
346.754
266.279
603.304
210.262
125.527
446.407
296.798
463.281
434.384
309.395
388.65
398.996
347.284
492.458
363.641
569.938
358.146
424.513
345.534
478.811
608.284
358.49
574.549
426.837
557.642
341.835
450.719
582.995
399.288
433.237
197.944
403.203
269.977
226.501
37.1162
364.693
172.177
128.754
465.19
358.136
321.326
565.439
364.151
148.166
357.18
365.147
102.168
568.775
433.874
247.868
414.186
437.609
6.59881
20.9205
75.7364
431.433
215.797
17.0312
48.1643
63.3878
566.524
485.205
458.915
69.1393
244.148
555.282
63.7258
366.067
594.651
88.5215
376.118
578.543
167.334
375.936
290.264
74.713
325.075
260.103
366.638
414.008
376.37
19.2668
373.918
543.451
589.283
268.665
372.75
558.784
190.863
331.311
367.745
363.257
358.342
437.036
540.494
368.439
352.175
330.582
394.228
381.122
368.27
98.8049
357.549
369.302
372.06
378.066
25.3633
310.131
602.403
28.005
489.501
366.139
79.6401
366.935
25.9451
29.5499
89.9666
93.6416
368.737
434.177
608.898
270.735
594.521
149.06
14.174
183.756
366.698
16.9441
601.734
59.2943
31.2408
487.253
62.1617
415.101
593.61
51.2783
593.921
476.138
486.792
362.252
280.57
23.7988
362.369
58.5772
482.016
487.406
367.813
366.744
470.469
365.945
497.967
366.779
429.867
366.081
440.572
363.745
245.71
360.382
115.149
130.756
378.142
127.014
8.45908
229.796
347.92
462.964
438.081
615.847
27.9057
12.8071
407.643
380.07
433.874
516.835
375.006
253.669
168.779
40.4646
17.5766
326.991
309.68
443.292
77.382
151.938
448.14
438.536
460.654
16.8432
5.86982
366.895
260.99
86.344
85.8123
16.0547
366.134
367.88
500.573
512.262
8.59106
249.753
5.20633
498.336
218.071
93.8868
29.7646
360.493
352.497
415.416
22.6566
562.712
15.5722
346.763
532.849
118.078
152.609
476.931
471.697
220.003
489.216
104.739
5.63051
20.0617
451.364
11.1086
51.574
478.423
425.394
490.421
497.857
500.828
393.921
96.5034
454.492
498.567
587.984
409.478
356.954
179.311
9.05849
439.995
315.126
20.3773
586.256
507.802
431.994
3.83239
355.96
334.955
428.541
625.286
436.652
324.96
534.024
601.741
477.213
582.911
433.503
193.606
591.693
194.077
596.047
19.4802
482.749
570.752
16.8285
416.107
414.969
19.389
426.305
72.4552
418.657
529.691
19.9995
377.17
69.3472
370.487
77.8445
367.3
65.9262
395.568
45.1976
48.8875
25.5198
12.1502
49.0544
419.306
287.669
468.997
174.951
410.432
412.86
409.316
164.707
6.85048
84.94
30.9268
123.429
233.518
405.953
11.5169
21.7071
364.184
387.237
392.187
421.713
304.352
308.262
431.342
313.9
230.494
289.56
367.952
155.559
402.917
402.591
394.84
304.125
232.722
160.929
96.9694
392.618
398.883
219.257
231.559
366.18
315.301
380.777
579.369
424.242
343.259
185.932
397.531
369.158
394.133
574.928
584.951
605.697
432.28
601.44
137.713
497.955
35.883
383.853
127.912
90.4055
564.387
570.132
542.073
453.626
528.25
220.845
386.404
366.565
539.797
386.355
568.856
337.967
352.607
421.633
156.29
420.216
571.571
548.865
417.496
116.6
333.968
419.6
239.858
416.511
428.219
158.383
417.948
546.87
423.316
220.891
65.1395
193.859
12.5547
395.086
6.14509
20.2138
150.758
211.389
390.818
18.6305
13.206
446.002
4.61292
231.009
241.034
177.592
18.0782
54.459
536.454
414.452
597.45
614.525
456.775
30.299
6.70693
507.638
606.412
378.926
375.015
77.7024
201.718
199.807
358.108
543.378
375.679
585.295
300.4
441.294
421.117
23.693
378.117
66.0099
240.493
79.7255
256.141
9.54152
142.207
335.583
49.5936
15.3984
44.8054
378.624
145.11
26.1007
380.343
380.147
28.1179
56.8256
321.326
84.0121
325.981
31.5098
81.8158
81.0466
381.621
361.867
428.971
250.868
216.368
18.2927
372.531
454.096
241.211
319.49
18.0871
51.0666
318.544
368.91
504.096
320.062
319.591
26.776
578.177
22.0076
460.269
534.69
22.449
369.359
482.066
7.32268
106.205
378.575
383.685
571.306
434.461
344.893
351.419
408.369
103.389
313.581
411.613
109.31
103.457
530.313
449.906
585.747
333.6
552.873
372.627
409.946
414.492
372.733
513.082
97.9798
406.954
477.271
104.66
590.049
349.538
438.908
559.355
349.134
235.433
240.016
412.298
359.049
369.043
366.641
53.7694
254.903
365.822
9.17188
407.918
358.345
601.55
368.849
19.5479
46.9496
573.178
362.185
594.11
605.321
121.921
47.2687
160.043
9.59918
133.419
173.876
394.602
368.433
350.852
385.315
412.969
23.8275
436.478
544.928
575.989
571.57
587.574
565.406
437.748
384.899
571.75
427.995
381.957
23.1831
352.092
373.71
5.68562
447.779
415.843
36.1856
336.739
25.7932
363.258
86.967
361.921
375.055
138.937
529.788
439.726
435.798
54.3318
105.152
296.966
351.029
619.26
373.001
306.899
351.244
373.971
307.568
371.967
592.41
215.911
434.452
291.904
375.996
583.551
459.458
374.521
35.4015
303.374
10.2952
137.929
438.769
437.487
442.785
422.519
29.7951
4.91372
406.463
283.445
319.99
28.7628
192.26
10.1759
180.128
441.88
356.133
5.99861
563.284
165.172
177.139
242.836
3.3604
374.385
368.605
232.804
55.6268
9.8184
171.975
477.489
20.0201
330.316
145.042
124.732
181.625
430.737
446.997
170.612
318.566
364.013
372.403
319.67
288.288
334.349
410.401
395.832
454.383
311.798
465.737
345.622
371.343
354.366
68.3016
468.724
406.022
346.347
214.802
52.083
357.614
265.068
198.667
170.388
324.939
435.192
575.019
604.047
457.973
453.661
353.089
354.832
361.075
459.344
459.144
587.979
100.524
463.907
76.2104
446.404
321.595
412.058
428.712
444.163
83.0959
320.165
319.06
25.0756
425.545
132.849
79.4115
440.68
71.5278
472.997
20.6772
120.591
440.104
41.9135
16.5801
21.4348
75.9869
79.1232
464.324
379.488
24.8851
416.596
128.802
468.363
448.566
367.755
73.6093
307.05
368.014
437.628
401.703
432.277
335.56
19.383
8.74677
381.697
184.737
576.775
396.41
8.93575
606.378
352.129
375.208
346.725
599.85
435.388
20.605
375.091
447.189
367.119
5.33105
449.753
346.932
378.511
376.058
314.753
368.981
288.646
2.43338
371.34
12.5751
363.788
308.519
3.15295
379.593
201.929
199.426
366.526
207.14
258.789
410.811
464.477
482.672
374.627
360.942
204.144
385.055
454.697
339.137
429.543
228.584
299.444
200.995
220.072
351.843
295.485
364.501
342.637
368.486
364.102
352.133
390.831
242.561
594.029
613.701
207.975
343.438
446.308
432.033
597.739
321.46
371.654
280.226
249.227
93.4527
243.192
438.632
578.458
364.805
36.304
410.317
604.213
577.829
571.475
555.386
608.091
374.95
368.39
421.182
423.812
426.879
430.327
393.946
445.545
305.717
344.017
332.876
369.067
302.483
344.72
322.826
587.27
432.57
590.874
278.382
343.764
365.898
356.315
420.581
386.96
414.096
348.876
251.844
346.345
262.385
272.851
348.664
375.697
272.051
433.221
82.2762
403.495
347.471
152.948
400.294
360.179
367.717
333.204
459.821
462.165
295.36
442.335
377.223
353.054
55.5867
174.201
418.59
88.0669
460.038
94.5745
85.7325
335.551
419.852
398.573
62.8668
601.041
430.074
532.858
146.214
418.465
384.939
463.577
509.007
502.962
586.178
152.291
387.002
361.504
444.226
427.154
156.532
507.246
109.973
114.196
411.966
385.514
358.547
362.018
386.828
428.397
355.116
123.712
121.56
120.674
271.652
355.637
362.445
323.805
314.388
392.983
358.284
324.004
392.341
406.934
181.655
273.092
353.595
418.551
354.524
182.143
410.913
369.49
445.78
291.97
369.257
371.038
188.96
463.068
242.753
232.196
499.744
393.948
368.539
498.046
374.219
424.43
371.316
322.425
363.929
388.702
374.561
283.787
439.973
364.395
365.163
505.082
424.337
363.828
366.549
434.192
268.511
358.227
364.61
573.554
419.729
345.654
359.885
365.354
513.788
357.469
364.234
364.82
480.408
412.596
377.023
380.439
345.681
364.224
371.81
398.384
418.585
555.815
427.42
417.231
509.963
371.699
538.237
601.56
451.962
289.833
343.129
366.632
425.948
441.841
370.989
505.698
344.695
423.335
513.774
376.678
386.944
502.143
433.479
361.91
497.351
367.56
308.664
369.572
492.931
352.159
496.49
265.898
254.58
385.28
367.356
292.978
335.789
367.965
468.536
378.024
288.727
365.394
17.5456
254.564
360.294
319.607
434.587
13.3705
363.838
358.096
12.2129
403.516
371.377
373.865
360.102
454.81
78.5827
378.791
318.118
313.118
431.804
363.218
430.848
329.431
367.815
447.719
89.0291
83.8588
394.417
74.3159
381.795
388.151
84.2037
440.788
446.317
408.911
447.572
371.166
337.36
421.576
360.271
387.095
363.177
429.944
342.872
174.961
266.448
165.229
362.927
182.111
354.007
166.029
412.961
399.169
312.218
460.849
319.549
370.306
445.641
400.088
592.479
367.053
377.125
237.866
370.402
461.431
590.038
385.898
334.554
366.721
394.026
354.538
354.48
269.116
359.445
571.25
604.16
353.463
358.651
371.585
411.962
585.921
292.213
572.43
364.629
380.641
552.114
582.781
366.798
396.902
461.12
361.967
406.805
440.292
435.098
476.286
309.215
353.342
357.569
260.325
472.444
603.198
351.018
583.446
431.327
349.448
403.13
327.58
353.777
365.731
427.415
365.801
582.656
571.585
419.824
372.22
382.201
32.3691
434.728
34.1317
343.668
418.494
377.126
361.339
355.309
472.509
335.848
344.439
401.817
356.021
343.726
35.3995
453.72
338.645
351.906
444.623
357.637
364.861
373.399
365.597
458.322
360.636
380.333
426.324
404.861
119.561
373.592
370.62
432.991
349.427
255.602
411.742
132.726
356.994
-2.20147
27.8522
352.621
367.611
431.83
359.713
360.999
359.229
304.046
8.81881
374.432
348.616
148.538
334.404
464.655
392.229
357.109
363.967
32.8935
398.942
7.43724
232.864
327.572
332.834
332.668
427.964
398.026
387.535
368.319
363.539
356.557
105.932
575.99
197.47
89.9838
396.723
453.16
556.195
535.752
388.084
99.6716
422.286
536.275
443.292
554.013
93.9034
408.78
452.39
502.635
357.603
219.616
450.493
476.71
384.696
595.766
92.3375
171.758
508.317
430.731
581.484
314.704
518.11
435.383
193.948
61.555
373.001
513.834
517.111
319.134
365.05
464.82
433.635
313.426
416.709
258.421
311.179
396.592
300.559
234.657
233.596
535.956
426.036
486.828
203.361
180.216
209.886
424.617
467.76
156.234
385.362
160.056
368.018
472.81
555.704
342.385
382.458
335.177
196.121
507.064
17.5031
482.795
254.409
559.56
196.369
356.516
367.035
360.549
362.226
361.946
214.118
396.667
356.664
244.799
353.031
334.309
358.08
254.118
348.319
322.458
301.565
24.9764
317.603
51.1107
303.38
542.477
366.939
175.226
301.804
392.554
340.75
361.983
359.241
361.418
549.165
210.926
549.463
147.679
542.422
344.86
493.587
347.367
327.954
216.928
478.984
90.4373
492.749
474.993
29.4739
226.006
597.669
228.458
354.181
225.412
227.688
352.649
347.116
380.092
267.314
349.543
233.563
108.373
79.5139
85.2801
24.1849
229.263
595.239
568.372
167.301
147.016
450.066
242.219
183.357
214.422
358.609
331.408
356.601
368.183
363.485
424.912
35.2875
323.125
11.6481
181.152
364.06
374.185
149.705
128.555
321.61
341.429
321.7
334.222
0.0923892
367.766
127.215
115.103
53.8811
102.382
45.9686
62.4763
101.299
375.428
361.033
8.49433
570.51
315.206
382.925
384.544
106.568
186.086
374.049
265.781
14.3365
203.922
173.775
377.392
20.4613
219.883
130.84
117.175
222.407
354.264
14.6218
339.063
123.687
381.599
290.476
12.3514
344.686
12.3086
305.495
25.5426
139.966
158.82
294.181
461.712
309.948
353.385
165.308
21.2677
227.769
144.893
95.8876
295.709
65.9925
143.936
42.3448
345.8
383.735
366.527
451.095
365.268
303.614
237.694
298.932
364.558
21.7048
16.8653
13.8371
348.345
32.8128
273.033
7.90762
48.6045
266.102
269.037
23.7585
226.331
578.622
3.32078
389.537
417.874
433.901
21.7648
446.896
28.3508
184.178
89.1863
39.9911
350.673
360.958
22.8637
171.561
354.53
24.7306
323.888
374.562
16.0965
147.563
419.739
18.6986
352.918
14.3777
294.13
436.4
395.079
15.3996
599.735
369.813
583.81
362.241
374.225
326.858
369.379
126.067
608.62
367.289
605.22
352.984
437.577
373.632
368.058
615.119
354.324
587.616
108.648
250.373
314.785
141.266
112.597
582.572
580.967
446.4
453.66
473.071
277.633
443.514
599.967
438.908
445.691
599.436
95.2362
10.482
96.2562
20.9026
312.423
307.069
124.313
264.486
359.863
360.587
394.227
176.454
347.123
373.527
346.997
144.489
341.543
345.191
373.138
354.41
379.551
74.959
122.373
587.476
347.189
47.9332
609.488
104.405
48.2941
328.06
324.005
317.287
390.926
348.261
457.654
416.175
402.319
380.486
318.28
325.779
321.466
467.681
320.917
443.942
530.508
365.361
583.173
350.995
581.096
354.05
560.194
373.746
292.967
359.329
622.601
602.675
305.611
581.275
576.555
438.206
403.297
601.208
559.135
344.034
332.678
376.032
367.452
333.923
368.459
200.105
478.472
334.528
369.815
358.803
507.721
332.559
419
356.602
275.554
333.9
363.141
475.578
407.541
480.524
539.344
250.013
372.082
347.29
353.033
251.662
48.1081
36.1073
199.408
74.8881
375.72
72.7071
54.394
122.341
306.544
375.646
162.495
11.0752
31.2795
256.11
342.297
378.154
132.509
443.999
371.926
272.496
388.346
351.399
385.301
385.229
364.824
439.86
398.46
451.104
357.425
8.17709
18.0196
323.13
6.74976
6.87967
390.649
25.3038
262.227
240.477
421.446
380.279
274.154
456.136
6.14565
482.209
14.108
4.38275
448.902
361.999
442.766
20.0533
297.38
367.502
306.342
326.101
257.363
417.821
380.065
44.1655
41.5408
379.835
524.682
45.8548
423.402
464.511
275.685
302.983
361.878
351.812
150.461
124.822
295.863
577.69
561.861
410.325
562.558
440.731
405.215
401.91
337.578
362.26
410.155
389.09
572.757
561.149
469.166
403.973
290.652
321.037
360.287
361.074
398.555
465.346
323.216
439.668
381.045
442.19
375.037
457.572
437.87
356.949
308.727
412.09
370.085
268.323
334.671
324.546
368.261
289.302
287.026
367.641
360.695
354.155
281.382
301.34
438.209
308.977
505.287
370.161
291.427
522.345
391.788
410.871
380.397
421.73
495.744
337.388
410.816
465.175
380.789
463.178
441.502
326.659
598.05
615.881
356.073
363.587
356.263
329.887
366.492
383.517
264.851
257.577
331.17
358.205
434.235
466.741
365.659
400.651
367.812
363.391
437.454
423.979
376.22
331.634
373.006
316.908
126.717
369.592
280.844
368.794
351.896
255.534
295.74
370.534
363.371
317.444
316.049
334.349
408.537
318.313
368.767
373.283
453.601
460.512
370.552
315.848
410.454
369.579
314.41
369.964
352.597
341.983
331.684
363.321
359.205
459.947
348.158
335.467
350.868
335.2
295.369
146.785
151.765
391.987
73.0556
411.748
121.454
356.413
545.76
420.239
460.622
557.534
531.745
154.285
357.074
340.6
362.249
265.379
339.233
353.933
369.343
17.0044
361.155
28.5141
120.818
343.468
365.626
353.1
365.381
414.85
447.768
358.383
295.778
364.367
354.784
343.984
357.185
442.013
535.101
396.403
441.505
548.391
345.77
421.522
415.012
454.646
444.389
423.094
561.037
471.335
341.137
228.145
462.584
411.268
557.097
381.812
535.896
361.764
413.345
466.613
565.685
584.426
447.428
463.401
413.982
382.708
378.676
480.071
347.426
430.569
374.223
356.074
349.255
363.058
607.379
443.522
476.201
410.995
414.077
478.693
441.047
271.357
253.879
448.861
364.997
427.2
374.837
396.265
412.163
369.247
331.662
247.446
372.884
424.517
397.612
248.128
430.363
381.185
251.802
193.986
360.754
395.977
152.242
372.82
422.394
132.261
429.213
138.403
366.404
443.067
413.602
432.704
444.487
314.563
467.613
446.523
368.117
348.747
314.398
368.681
315.016
314.348
366.278
374.859
366.097
314.356
467.926
357.828
364.071
403.381
394.421
364.062
364.361
385.462
324.068
370.852
325.917
382.492
448.09
361.258
359.555
316.99
431.748
316.694
250.612
329.717
439.455
429.068
242.397
344.99
453.573
405.41
359.325
378.122
544.404
257.23
387.667
370.051
366.163
391.041
365.058
419.258
369.915
365.916
258.692
368.566
449.202
362.503
416.628
242.125
407.854
372.155
428.96
407.04
379.03
257.512
405.729
397.295
398.085
475.004
408.191
370.375
377.663
382.635
242.871
292.817
469.766
484.901
471.855
466.55
367.657
367.512
465.31
378.453
467.019
375.44
358.422
381.263
484.406
366.747
473.29
368.465
308.353
348.642
441.651
371.989
438.206
483.095
354.372
341.797
436.023
337.491
492.347
350.596
440.474
346.141
429.372
356.42
367.324
48.2448
392.764
374.6
368.394
370.003
416.008
310.402
603.4
356.416
587.193
329.828
509.748
335.776
337.495
56.0263
360.053
416.841
378.476
466.97
330.41
336.374
438.889
537.902
446.036
579.395
404.518
500.201
540.946
434.754
319.094
434.577
256.558
311.138
377.821
170.337
47.6585
358.653
380.744
350.353
361.811
441.793
404.63
437.422
163.031
408.072
477.848
169.015
145.771
75.8585
179.23
470.967
77.448
348.648
326.235
576.898
616.262
425.262
596.969
377.381
363.098
397.729
364.015
360.137
367.409
441.721
45.2684
348.378
340.041
360.234
372.599
474.207
379.044
579.401
580.073
383.171
605.655
261.511
407.711
361.097
463.333
464.074
336.025
338.256
441.246
413.446
350.94
437.429
432.754
362.461
444.197
378.508
447.832
333.268
405.722
583.923
351.298
365.627
398.166
169.548
337.732
63.282
594.051
372.331
420.45
230.292
361.048
306.716
352.649
574.49
605.298
428.373
421.355
336.487
383.956
339.138
381.937
556.21
265.618
375.498
470.684
364.182
316.175
469.532
577.073
274.221
461.629
330.677
394.914
436.657
581.518
317.069
437.947
320.481
397.615
317.87
377.837
354.32
445.816
402.62
470.52
152.737
317.33
329.166
305.678
207.199
367.699
358.643
351.904
330.504
468.665
433.66
507.65
454.166
427.32
356.448
411.088
359.242
455.278
179.069
508.829
24.6068
196.554
182.13
147.985
468.583
172.993
158.463
421.399
198.316
199.367
480.084
379.43
181.844
373.827
196.179
446.964
436.479
361.559
362.521
399.017
340.511
322.933
366.894
354.954
367.715
334.739
447.86
464.742
374.211
381.406
405.254
400.578
181.857
508.238
464.554
203.47
192.123
410.971
375.564
404.663
441.843
317.981
470.406
466.227
513.242
375.499
518.224
413.086
455.504
434.3
410.925
432.609
541.019
334.877
514.465
227.381
384.078
230.795
416.262
17.0793
416.5
495.878
375.903
432.221
13.2336
454.72
437.783
369.03
437.235
363.275
359.132
276.582
347.688
21.0365
365.268
434.823
357.194
368.244
486.315
398.248
391.843
19.1541
447.037
490.063
442.21
423.414
398.954
508.302
431.337
18.1158
360.945
443.895
-1.18224
453.617
368.076
442.871
484.684
511.065
366.741
362.846
246.016
616.617
597.237
384.483
382.553
363.435
366.332
440.918
240.132
305.975
388.083
100.638
423.085
349.856
110.694
87.8559
440.634
84.181
363.04
425.976
368.146
371.638
99.1716
370.382
509.378
7.57876
158.884
470.1
454.667
385.447
441.184
434.389
341.496
130.572
152.696
334.555
385.888
505.537
160.307
423.302
491.993
474.034
167.898
392.899
356.834
365.097
326.512
342
145.19
428.883
456.104
21.6717
413.391
413.909
360.89
607.266
426.363
355.496
436.138
419.003
380.382
449.202
362.737
357.569
472.153
448.748
332.323
473.354
469.605
405.015
447.179
522.889
340.08
372.885
364.991
420.213
496.08
423.27
501.3
409.517
11.4133
447.549
6.7871
388.665
345.406
441.799
566.829
364.197
417.585
465.582
376.847
374.318
358.842
392.725
382.339
360.921
371.451
478.14
376.176
341.81
11.075
364.44
541.801
410.833
405.056
17.4335
61.4053
372.176
348.792
378.995
397.687
310.923
42.1515
313.129
373.44
529.616
363.384
525.977
324.822
331.368
448.509
545.737
578.925
394.498
331.202
349.065
423.777
322.866
389.692
322.995
394.084
386.023
324.908
323.085
333.035
475.142
349.977
421.464
328.611
221.657
314.95
218.164
402.784
394.594
360.965
237.488
400.206
385.136
428.935
397.808
439.527
373.132
386.487
249.092
313.75
441.812
433.481
343.667
370.137
371.491
356.529
314.872
359.597
313.788
278.376
311.221
356.574
234.574
385.068
352.789
433.454
456.52
389.694
251.144
316.709
429.297
345.693
335.15
366.183
389.917
294.153
297.62
396.231
426.492
335.113
180.802
312.953
313.292
363.779
431.53
368.369
427.367
155.698
485.849
432.685
411.137
431.659
454.204
431.101
255.143
415.567
424.13
282.467
395.588
374.199
466.15
529.484
469.35
444.974
399.63
423.802
347.897
361.014
364.799
438.842
501.54
473.095
425.404
373.586
366.275
414.072
368.682
448.727
403.322
363.689
419.801
481.877
356.809
368.65
369.423
603.507
392.502
358.38
398.869
365.391
364.42
587.184
358.762
363.701
435.387
389.656
570.389
407.025
425.868
373.962
557.727
316.4
393.765
317.142
386.7
382.624
426.192
316.017
364.271
302.175
346.396
425.032
315.709
413.113
329.117
357.874
125.504
393.966
576.001
246.711
370.388
401.543
285.604
394.546
546.554
432.161
323.264
546.169
349.932
546.294
345.921
577.9
346.664
366.535
348.008
408.398
376.35
378.656
527.783
389.75
315.168
383.355
463.635
34.0755
442.272
362.667
26.7276
378.569
58.0169
543.76
477.404
602.777
395.445
27.891
589.812
383.452
26.7193
137.434
376.207
401.661
61.6653
482.197
345.389
341.964
47.8457
347.102
125.777
354.104
71.276
67.2275
269.432
83.3352
267.957
264.855
16.2087
150.417
551.04
354.65
353.065
627.31
457.215
467.444
568.954
4.24084
588.986
448.161
13.0883
447.307
344.39
45.054
409.863
438.144
138.926
12.252
462.926
590.746
433.012
355.575
376.339
23.8472
395.848
8.94857
179.663
389.398
114.308
461.013
179.462
111.87
103.498
498.995
352.046
365.963
339.666
298.77
313.723
92.1975
429.277
377.23
444.018
426.607
391.597
93.277
453.321
382.331
452.21
431.781
433.536
539.345
71.7284
393.303
380.814
366.541
367.938
539.028
250.617
282.026
274.126
189.078
497.469
192.191
461.014
372.084
451.757
190.913
362.635
386.895
377.071
173.743
347.573
189.177
439.356
474.541
443.541
270.163
372.451
403.09
365.699
429.242
600.826
476.308
352.277
370.795
419.127
346.365
353.062
622.446
446.783
587.246
381.282
451.873
404.189
357.401
450.978
435.507
396.161
378.505
358.175
449.105
412.364
451.832
363.743
362.972
432.067
350.365
6.78567
47.137
17.8108
339.457
492.912
348.357
351.518
360.729
464.691
450.798
373.509
439.685
20.6199
9.39036
353.121
465.745
382.104
460.864
472.804
414.469
428.59
407.16
425.217
10.2589
19.7105
19.8548
4.01044
467.105
380.341
437.685
373.345
394.168
365.228
416.012
365.631
459.101
401.998
399.582
22.3255
452.401
16.4672
436.68
380.017
409.043
360.549
397.725
442.032
442.626
368.72
23.855
321.534
360.922
342.388
388.35
461.74
435.067
465.595
468.28
458.232
352.634
399.798
458.112
359.909
6.71324
414.093
10.732
373.16
365.486
390.104
389.595
392.121
9.84798
518.768
366.09
447.563
366.103
529.658
396.202
449.219
404.191
349.709
299.075
321.475
362.856
361.404
527.821
333.939
247.775
537.342
365.449
366.899
414.899
534.392
391.298
429.237
239.441
368.484
360.972
445.427
350.127
411.949
441.008
413.394
355.641
361.699
404.788
311.813
462.666
402.187
368.701
354.553
369.002
344.696
359.698
317.158
257.231
317.654
58.1842
318.29
409.922
376.264
464.554
316.456
428.543
371.199
316.555
383.728
353.478
444.628
441.296
355.389
421.683
419.385
436.936
428.169
439.38
384.018
314.834
80.217
351.028
422.213
428.411
357.583
436.316
329.164
385.671
410.468
401.508
359.905
606.043
326.382
432.658
438.835
443.681
471.588
436.827
378.455
353.956
457.806
592.359
450.162
358.548
308.889
455.995
439.152
395.751
451.602
420.43
360.811
320.314
275.26
425.968
431.807
443.417
355.589
454.705
438.022
544.219
444.859
346.155
406.45
401.437
560.683
377.682
291.191
279.949
452.131
347.31
360.355
346.275
453.032
448.75
447.348
348.105
299.153
451.749
358.518
351.477
452.906
399.337
391.412
581.155
286.412
349.466
362.492
450.557
352.226
219.436
360.162
355.154
375.611
337.75
410.988
369.009
352.73
337.948
351.92
331.736
318.704
378.088
392.153
372.389
352.273
355.848
349.544
333.037
399.471
333.352
325.004
448.996
436.001
443.072
29.8143
412.2
350.227
376.622
386.498
341.766
4.56881
358.675
364.543
378.775
363.363
396.138
478.847
534.479
436.699
513.916
447.922
18.8475
4.46915
11.5115
462.788
369.512
331.202
355.838
435.872
445.462
434.858
440.103
405.062
324.706
383.913
423.518
407.664
323.871
440.196
420.346
389.056
473.964
380.495
383.566
399.138
431.038
442.275
364.461
466.035
337.165
424.545
311.832
334.101
382.968
403.46
444.664
382.875
351.013
385
462.366
378.03
316.991
427.614
455.314
470.048
294.607
370.442
351.862
423.427
386.164
384.939
468.285
453.607
380.692
415.293
422.317
365.474
362.279
308.241
341.516
311.737
19.6253
474.132
302.788
368.357
17.3619
471.259
410.056
457.237
398.166
239.102
447.184
403.618
440.955
466.329
445.635
441.906
21.7553
354.241
599.087
460.92
331.845
414.392
366.924
395.892
357.347
614.612
412.973
379.676
412.034
458.648
374
393.769
372.555
3.30836
435.085
24.6825
476.019
21.0569
349.152
456.28
380.331
449.907
356.126
5.40917
446.773
361.617
444.847
31.0645
390.746
11.4294
3.19886
379.61
403.438
443.065
442.977
429.592
335.271
352.476
458.376
433.337
436
415.837
3.1893
23.3854
346.957
454.474
425.053
422.589
9.8616
437.766
35.3708
19.9948
383.901
378.515
368.466
336.614
412.372
282.431
372.116
471.168
436.882
496.89
357.6
506.984
383.509
332.7
381.17
56.0049
409.36
391.181
349.851
334.934
438.668
333.709
433.639
343.202
368.037
373.77
59.6609
448.183
412.057
588.851
444.071
578.253
380.78
462.305
451.61
412.249
577.626
366.81
405.964
417.226
452.914
528.398
381.785
614.738
594.716
317.73
329.809
380.256
321.688
323.381
421.482
462.147
218.13
380.02
419.338
426.46
322.655
99.8711
108.253
467.983
375.903
324.641
360.462
441.926
401.811
207.832
407.532
321.207
441.337
447.636
355.293
336.803
294.172
470.228
488.19
455.496
410.535
493.496
339.877
440.011
442.741
451.44
341.031
460.559
436.737
453.042
443.275
441.154
359.91
440.837
386.48
110.998
105.573
436.579
376.03
380.366
89.6823
466.762
100.659
319.872
437.198
430.513
449.556
304.671
360.471
316.118
439.785
361.753
373.92
381.749
458.793
394.52
483.495
283.181
423.946
297.301
452.362
299.684
385.655
47.7149
442.675
409.699
419.148
376.197
411.205
296.07
408.836
395.945
352.559
354.267
378.882
416.101
446.042
233.633
470.752
337.272
466.961
464.214
225.878
404.038
403.898
173.943
217.243
317.988
418.297
300.976
361.43
410.562
282.506
320.872
404.122
406.782
414.193
439.131
178
341.276
388.122
268.855
346.886
281.32
292.406
285.503
270.555
327.347
404.85
351.221
307.449
260.7
379.458
344.623
446.48
373.866
618.04
600.873
17.0653
39.6842
379.941
382.335
406.24
37.0959
401.183
410.625
44.2326
463.819
28.1884
320.563
18.5081
10.5214
377.778
2.99996
312.188
324.626
457.965
406.824
318.207
364.888
376.705
326.704
351.597
395.566
38.8606
409.681
313.697
6.23545
402.653
433.909
439.068
396.506
414.357
432.539
350.057
364.05
1.38616
457.086
349.701
374.758
358.879
461.787
387.691
382.705
442.971
344.298
403.315
15.9405
16.4126
24.0218
6.05328
20.5481
332.908
462.707
20.5579
352.596
403.251
10.8571
388.732
393.974
427.467
347.33
421.724
469.763
375.295
396.559
428.266
471.97
464.952
225.398
448.06
449.195
425.013
60.0957
457.188
127.897
411.432
447.893
62.2482
347.497
193.798
138.229
132.734
257.181
424.736
319.019
199.877
378.936
209.62
576.772
434.145
460.091
598.36
457.666
585.609
332.38
228.081
299.744
288.946
394.515
396.223
443.1
613.708
591.464
473.903
398.676
363.797
350.227
47.7078
313.349
402.832
396.516
72.9522
450.262
438.096
391.14
410.133
587.658
375.319
581.83
579.137
417.826
457.319
610.881
412.038
443.855
356.665
457.338
597.551
440.036
607.92
443.028
471.949
466.998
373.457
377.312
425.12
452.395
462.772
591.656
395.815
456.724
355.291
205.795
399.356
466.516
459.26
443.375
453.311
409.194
351.144
470.661
387.5
360.432
459.444
187.411
335.616
332.665
345.269
414.344
345.328
618.361
374.373
417.964
426.753
435.588
355.925
407.471
524.47
453.937
577.475
515.067
442.215
457.02
616.369
578.433
437.666
598.121
400.057
352.348
414.483
375.912
384.971
446.07
351.376
473.588
393.782
354.231
406.206
359.804
358.348
363.804
327.406
351.352
202.163
397.302
377.676
396.301
411.472
363.566
322.687
365.97
373.672
263.7
368.832
283.891
352.152
401.798
467.446
358.322
363.046
438.278
392.348
368.848
363.725
490.021
372.914
361.042
357.705
450.368
444.119
411.049
471.542
400.817
366.846
456.297
345.865
437.041
365.737
459.183
368.396
276.73
420.617
387.494
281.944
362.418
473.883
412.301
421.054
472.135
317.939
375.846
446.368
450.127
371.015
438.322
357.192
430.482
437.075
366.683
323.098
402.769
371.035
439.335
362.382
336.097
389.185
319.568
373.318
401.712
342.593
380.92
350.052
388.523
333.814
293.709
376.036
347.392
344.381
328.631
349.573
464.522
375.423
358.949
125.684
405.394
380.642
349.376
369.786
379.263
281.277
365.878
359.788
329.245
358.407
300.287
220.851
355.488
319.85
382.461
479.83
344.154
329.686
355.246
338.981
466.227
363.243
364.483
359.065
358.933
353.753
362.795
348.656
365.161
360.276
354.523
327.292
357.909
361.866
361.882
360.818
361.788
463.11
448.208
358.203
441.232
448.093
370.923
363.876
436.001
553.309
340.634
406.933
351.286
527.79
354.148
562.605
544.677
456.734
397.882
364.328
374.818
361.093
323.583
349.901
418.614
433.902
434.26
352.915
293.525
375.834
411.13
350.766
354.032
340.263
363.04
362.905
469.172
470.619
472.648
429.269
329.606
361.986
382.988
457.444
433.888
359.426
349.358
347.553
362.742
360.127
362.409
362.319
329.146
396.087
364.956
363.661