/*--------------------------------*- C++ -*----------------------------------*\
| =========                 |                                                 |
| \\      /  F ield         | OpenFOAM: The Open Source CFD Toolbox           |
|  \\    /   O peration     | Version:  2506                                  |
|   \\  /    A nd           | Website:  www.openfoam.com                      |
|    \\/     M anipulation  |                                                 |
\*---------------------------------------------------------------------------*/
FoamFile
{
    version     2.0;
    format      ascii;
    arch        "LSB;label=32;scalar=64";
    class       surfaceScalarField;
    location    "0.00221858";
    object      phi;
}
// * * * * * * * * * * * * * * * * * * * * * * * * * * * * * * * * * * * * * //

dimensions      [0 3 -1 0 0 0 0];

oriented        oriented;

internalField   nonuniform List<scalar> 
92401
(
0.144429
-0.0913261
-0.0075661
-0.0455373
-0.0673004
0.0597956
0.0452298
-0.0377251
0.0195083
-0.0380835
0.042128
-0.0235527
0.00662296
-0.0117297
0.0117402
-0.00663343
0.000995835
-0.000465863
-0.00506529
0.00453532
0.0185416
0.00898963
-0.0243093
-0.00322189
0.00502762
-0.00423002
0.000198233
0.0325058
-0.0252398
0.0112756
0.0496048
-0.0404682
0.0327394
-0.041876
0.00106557
-0.000422273
-0.000989288
0.000345996
0.00553609
-0.0409534
0.0398839
0.0281657
0.0231412
-0.0911908
-0.0150628
0.00922512
-3.59758e-05
0.00587368
-0.0308127
-0.0409098
-0.0166237
-0.0192618
0.0565418
-0.0206563
-0.00140815
-0.0669092
0.0683173
-0.00231484
-0.00787041
0.00152941
0.00358634
0.00275466
-0.00102844
0.00127603
0.00081842
-0.00106601
-0.00426494
0.00919954
0.000645913
-0.00558051
0.0157459
-0.00544084
-0.00409561
-0.00620945
-0.0398362
0.00859257
0.0364795
-0.00523583
-0.0390128
0.0120552
-0.0549842
-0.0528897
-0.00187482
0.0543859
0.00037866
0.0900192
-0.0837168
0.0218818
-0.0281843
0.0511356
0.061208
-0.075678
-0.0366656
-0.0312802
0.0485499
-0.0562825
-0.00251684
-0.00140106
0.00429917
-0.000381271
0.0309219
-0.0630075
0.000805415
0.0588637
-0.0570069
-0.0316142
0.0297573
0.0125533
-0.0171534
0.000703791
0.00389633
-0.0317149
0.103361
0.0599499
-0.131596
-0.0830458
0.107182
0.00875626
-0.0328919
-0.132594
0.0313916
0.0283073
0.0728946
0.0130706
-0.0654815
0.0439965
0.00841447
0.0566941
0.00704214
-0.0506657
-0.0439247
0.0108496
0.00114168
0.0319333
-0.0507927
-0.0416232
0.0659243
0.0264917
-0.0354192
0.0392136
-0.0139443
0.0101498
-0.014786
-0.105795
0.0631961
0.0573848
-0.0865404
0.0874684
-0.000928011
0.0318106
0.00435043
-0.0767905
0.0406295
1.4518e-05
0.0275422
-0.0330235
0.00546677
0.0265212
-0.0532715
0.0267502
0.000251874
0.0001342
-0.000146922
-0.000239153
0.000104404
-0.0636455
0.0635411
-0.0685342
0.044366
0.0595391
-0.0353708
0.0882257
-0.0268597
-0.00651041
-0.0548556
0.00297554
0.0734394
-0.000920273
-0.0754947
-0.0448732
0.0687409
0.0387401
-0.0626077
0.00050197
0.000964838
-0.000266861
-0.00119995
-0.00199809
-0.00441175
0.00131338
0.00509646
-0.0390177
0.0873326
-0.0444825
-0.00383245
0.000238065
-0.00108305
-0.000285731
0.00113071
-0.0561274
0.0550181
0.00110935
0.0758387
-0.00636238
-0.0175897
-0.0518866
-0.093283
0.0895338
0.00463253
-0.000883365
-0.0595738
0.0244364
0.00636856
0.0287689
0.00217353
-0.0147444
0.00426111
0.00830973
-0.0105286
0.0262327
0.0343596
-0.0500637
0.000995528
-0.000716559
-4.09036e-05
7.04607e-05
-0.000170966
0.0011493
-0.0010488
0.000887694
0.000412656
-0.000796752
-0.000503598
0.00433979
-0.00886404
0.00516486
-0.000640607
0.0721028
0.00580863
-0.0223584
-0.0555531
-0.0141107
-0.00397351
0.00934916
0.00873506
-0.0511554
-0.0473588
-0.0569165
0.155431
0.00259645
-0.0305612
-0.00498398
0.0329487
-0.000259705
0.000620586
0.000384678
-0.000745558
0.00644317
0.00462751
-0.0300938
0.0190231
0.0176295
-0.0071492
-0.00865018
-0.00183008
0.0433924
-0.0820044
-0.0250285
0.0636405
-0.02638
-0.0032613
0.0099052
0.0197361
0.0125308
0.00677433
0.0127245
-0.0320296
-0.000938523
-0.000765572
0.000124925
0.00157917
0.0233784
-0.00540339
0.0340876
-0.00147453
0.000831927
-0.00111432
0.00175692
0.050156
-0.037922
-0.070339
0.058105
0.000598115
-0.000370455
-0.00022766
-0.00100382
6.96138e-05
0.000461365
0.000472839
0.00137032
-0.000750568
0.000999046
-0.0016188
0.0215089
-0.0179338
-0.0629652
0.0593902
0.00134393
-0.012845
0.00234596
0.00915512
0.0442002
0.0586165
0.0170208
-0.119838
-0.115285
0.0271064
0.127427
-0.0392481
-0.00208045
-0.0437886
0.006453
0.0394161
0.0515598
-0.0277819
0.0248587
-0.0486367
0.0279984
-0.00737619
-0.148434
0.127812
0.00676718
0.0126868
-0.0251457
0.00569172
0.000686848
-0.000124934
-0.000749319
0.000187405
0.0364869
0.0149255
-0.00246279
-0.0489496
-0.00459981
0.0839701
-0.083794
0.00442376
-0.0158186
0.046889
-0.114848
0.0837775
0.0457831
0.00705915
-0.0549227
0.04674
-0.000956916
-0.0030179
-0.0292638
0.0401718
-0.00789012
0.0673165
0.0191213
-0.0312388
-0.055199
0.131504
-0.142119
-0.0280966
0.0387117
-0.0170151
-0.0474438
0.061441
-0.0858753
-0.00316396
0.0890393
-0.00162291
-0.0934544
0.156927
-0.0618493
-0.00232675
0.00336207
-0.000342535
-0.000692787
0.0873524
-0.148905
0.0322627
0.0292899
0.00169579
-0.000150804
0.000598473
-0.00214346
-0.0774338
0.136006
-0.106135
0.0475628
0.0274418
0.00521755
-0.0406316
0.00797227
0.0865526
-0.0152199
-0.0771128
0.00578013
0.00895157
0.0249227
-0.0508893
0.031926
0.0296451
-0.137001
0.0754296
0.0966054
0.107372
-0.0825167
-0.121461
0.000841213
-0.00104927
0.00232183
-0.00211377
-0.0927861
-0.0271767
0.111475
0.00848738
0.00251276
-0.00561427
0.014539
-0.0114375
-0.0145806
-0.0361168
0.0575108
-0.00681338
-0.00288697
0.015497
-0.0143761
0.00176608
0.000270249
-0.00057977
-0.000477971
0.000787491
0.022679
-0.0243693
-0.00119666
-0.00171315
-0.000846377
0.00141355
0.00114598
-0.0574933
0.0661583
-0.00866496
-0.00198459
-0.00573787
-0.00231393
0.0100364
-0.0360746
0.0268041
-0.00531008
0.022123
-0.050791
-0.0543778
-0.0508008
0.0414803
0.0960526
-0.0867321
-0.00707531
-0.00142846
0.00424231
0.00426146
0.0480759
0.0130686
0.00011523
-0.0612597
0.000453525
-0.00796915
0.00630371
0.00121191
-0.0407777
-0.0537187
0.0124295
0.082067
0.0637018
-0.0391296
0.0245024
-0.0490747
-0.00981361
0.062575
-0.0608282
0.00806676
-0.060508
-0.0312013
0.007954
0.0837553
0.0175065
0.00399195
-0.0334428
0.0119443
0.0618535
-0.0589849
-0.00286861
0.00218811
0.00215881
-0.00117692
-0.00317
0.0401473
-0.0422675
0.00212017
-0.0453881
-0.0434994
0.108926
-0.0200384
0.0011714
-0.00971432
0.00900228
-0.000459359
0.00331024
0.00581467
0.0018381
-0.010963
0.00100302
0.00617197
-0.00672147
-0.0290752
-0.0549525
-0.0135285
0.0975562
0.0236056
-0.00639475
0.0180884
-0.0352993
-0.0885932
0.106938
-0.113779
0.0954345
0.069238
-0.0468231
-0.0224149
0.000870048
-0.0356784
-0.00894478
0.0437532
0.00783398
-0.00617101
-0.00776562
0.00610264
0.0451527
-0.0666465
-0.0626771
0.084171
0.0771164
-0.0655729
0.0269775
-0.0385211
-0.0119384
-0.00729962
0.0285669
-0.00932895
-0.0621412
-0.085947
0.0564411
0.0916471
-0.0434354
0.0535366
-0.00923112
0.0991925
-0.0469252
-0.0522673
-0.00278185
0.0140626
-0.00344673
0.000961695
0.000622354
-0.00072184
-0.000862209
0.0475611
-0.0170116
-0.00612281
-0.0244267
0.00385014
-0.00180025
-0.000709712
-0.00134018
0.00563464
-0.00942609
0.00861363
-0.00482218
0.0727945
-0.0435229
0.0235
-0.0527716
0.00795217
-0.00019922
-0.00689491
-0.00085804
0.00205527
-0.000660779
-0.00139449
-0.0697262
0.0646168
0.00510937
0.0150175
0.00741038
-0.0987233
0.0762954
-0.0111557
0.0133123
-0.00876293
0.00660631
-0.0713942
0.0152136
0.0835925
-0.0274119
0.0173403
-0.102893
0.0819691
0.0035834
-0.0506552
0.0418828
-0.00836345
0.0171359
0.00895959
-0.0021091
-0.00279183
-0.00405866
-0.0002769
-0.00170574
0.00198264
0.0287511
0.17423
-0.249105
0.0461242
0.000495251
-6.34538e-05
-0.0277973
0.065245
-0.0573051
0.0198575
-0.000179826
0.00560111
-0.00419765
-0.00122364
0.000452144
0.00197866
-0.00318137
-0.0770232
0.00428405
0.0727392
-0.0316491
0.110209
-0.0449648
-0.0335956
0.000174664
0.00127304
0.0094905
-0.0109382
0.0103296
0.0936128
-0.103942
0.00230402
-0.00161566
-0.000937982
0.000249618
0.0013499
0.000605299
-0.000560777
-0.00139442
-0.0368014
-0.00252766
0.0275723
0.0281036
-0.0662044
-0.0706572
-0.0174098
0.00430013
0.0837668
-0.000682356
0.00203225
-0.0972231
-0.0440543
0.110444
0.0308336
0.0216928
0.162795
-0.0778468
-0.0430177
-0.0419302
-0.0224832
0.118934
-0.0421878
-0.0542632
0.0419957
0.024707
0.0428878
-0.10959
0.103339
-0.246672
0.109118
0.0342156
0.00156061
-0.00137262
-0.00163909
0.0014511
-0.0135621
-0.0400036
0.0610428
-0.00747711
0.0256718
0.0387702
-0.0252092
-0.0392329
-0.0373107
-0.0238536
-0.0183413
0.0795056
-0.0571461
-0.0183377
0.0619218
0.00158087
-0.0100357
0.0059141
0.00254075
0.0603524
-0.0276168
-0.0547306
0.021995
-0.0869165
0.104154
-0.0496193
0.032382
0.015245
-0.0216072
0.00644376
-8.15273e-05
0.0592817
-0.0663075
0.0673782
-0.0604507
-0.00548517
-0.00444963
0.0703855
-0.00527143
-0.0116738
0.00230259
0.0146427
0.000383263
0.0538702
-0.0586059
0.0043524
0.134081
-0.0492495
-0.0071872
-0.0776443
0.0652524
-0.00892041
-0.050243
-0.00608904
0.0526998
-0.0192687
-0.0772997
0.0438685
-0.00851665
-0.00194132
0.0138937
-0.0034357
0.00483605
-0.00160425
-0.00482626
0.00159446
0.00218477
-0.0457572
0.0398808
0.00369168
-0.000896513
-0.0868687
0.00269951
0.0188628
-0.0121345
-0.0574907
0.0358486
0.0216421
-0.0604424
-0.0182578
0.0120627
0.0666375
-0.0979325
0.00926891
0.0990169
-0.0103534
0.0035056
0.0223658
-0.0124115
-0.0134598
-0.0687981
0.143369
-0.0634672
-0.011104
-0.0056309
0.0145365
0.0226281
-0.0315337
-0.0528735
0.102741
0.0362065
-0.0860739
0.0258058
0.00192531
-0.0134235
-0.0143077
-0.0374152
0.042269
-0.00266898
-0.00417654
0.00673462
-0.0101143
0.00755626
-0.00104813
-0.00375919
0.010442
0.0331573
0.039339
-0.0724963
0.000968684
-0.00162131
-1.96707e-05
0.000672296
0.0196946
0.00657729
-0.0165783
-0.00969362
0.0235798
0.00775055
-0.00284613
-0.0284842
-0.0529283
0.00155553
0.00639108
0.0449817
-0.00184419
-0.043913
-0.000803121
0.000441456
0.00133035
-0.0484294
0.0338234
0.0494775
-0.0348715
-0.0451822
0.0294071
0.020711
-0.00493594
0.00137318
-0.00288102
-0.00890936
0.0104172
-0.00739547
-0.00414616
-0.0034935
0.0150351
-0.0399767
-0.0024037
0.0049652
0.0739587
0.0378437
-0.0735129
-0.0382895
-0.041641
-0.00176836
0.0434094
0.0838165
-0.047703
0.0609868
0.00188851
-0.00901048
-0.0354024
0.0425244
0.0366926
0.00993196
-0.00686793
-0.0397566
-0.000390793
0.000287742
0.000922389
-0.000819339
-0.018828
-0.0423289
0.061157
-0.000165123
-0.00122949
-0.00446718
0.0302745
-0.0239188
0.00533565
0.026731
-0.0410771
0.0965801
-0.0883793
0.00308562
-0.0112864
-0.0242179
0.103761
-0.0211873
-0.0583562
-0.0299671
0.00560461
0.0172143
0.00714817
-0.0386486
0.0362573
0.0140215
-0.0116302
0.0312592
-0.025596
-0.000284727
-0.0053784
0.0205571
0.0732952
-0.119611
0.0257589
0.0739962
-0.0810324
-0.0212951
0.0283312
-0.136372
0.000992019
-0.000820861
0.1362
0.0291926
0.0150924
-0.0423306
-0.00195442
0.0392163
-0.0590253
0.0210656
-0.00125655
0.00184731
-0.0010062
0.000146108
-0.000987218
-0.0164782
-0.00170602
0.0772114
-0.0407964
0.0172157
-0.0536307
-0.015304
0.0500765
0.00376863
-0.0385412
0.00827095
0.097835
-0.0978111
-0.00829494
0.0493474
-0.0991368
0.0554182
-0.00562881
-0.0570288
0.000791107
0.0409337
0.015035
-0.00442224
0.0083111
-0.0189238
-0.028635
0.0493658
-0.0138475
-0.00688334
-0.0547528
-0.00227596
-0.0181635
-0.118526
0.172067
-0.0353772
0.010439
0.0134545
-0.0644445
0.040551
0.0471848
0.00700777
-0.0437535
-0.011458
0.00596353
-0.0031717
0.00866613
-0.0617294
0.00684407
0.0548853
0.114721
0.046265
-0.140927
-0.0200586
-0.00835322
0.000143018
-0.00324775
0.017841
-0.115087
-0.0229534
0.120199
0.0110623
0.0751404
-0.0727482
0.00276807
-0.0583445
-0.00886809
0.000465237
0.0016987
-0.00232906
0.00190821
-0.00165913
0.000216156
-0.0540593
0.0282875
0.0758663
-0.0500944
-0.0016481
0.000914069
0.000803647
-0.0339546
-0.00527082
0.0419935
0.000233544
-0.000182944
0.000258895
-0.000810745
-1.76263e-05
0.000569476
0.000250942
0.00189081
-0.0015757
0.00136665
-0.000102934
0.000311985
-0.000258338
0.000129173
0.00112469
0.101796
0.113313
-0.0706795
5.01565e-05
-0.00102482
0.000716325
-0.0504522
0.0548385
-0.0043863
-0.0125226
0.0759414
-0.0660975
0.00267872
0.00215888
-0.0186979
0.00595763
0.0105814
-0.0636407
0.000665889
-0.0178344
0.00344133
0.043126
-0.0287329
-0.0718431
0.000350168
0.071493
-0.00639618
-0.0150486
-0.0119154
0.0333602
0.000286266
-0.000306395
-0.000459195
0.000479324
-0.00371824
-0.00753611
0.00823622
0.00301812
0.0567768
0.0415956
-0.0169893
0.0515439
0.0852736
-0.0371235
-0.099694
-0.0138158
-0.0421021
-0.0212012
0.0249402
-0.0595891
0.0558502
-0.00778029
0.0250747
-0.0080625
-0.00923189
-0.0173455
-0.0125831
0.0155252
0.0144034
0.0988308
-0.0952195
0.0163725
-0.0199838
0.00105084
-0.00386962
-0.000210293
0.00302907
0.00400737
-0.0675625
0.0635551
-0.069012
0.001646
0.0666842
0.000681836
0.0333552
0.0415869
-0.0749421
0.018156
-0.0570768
0.025105
0.00214322
-0.00160179
0.00161858
-0.00216001
-0.00128508
-0.000959576
0.00358985
-0.0013452
-0.000105085
0.000483468
-0.000987965
0.000609582
0.0629758
0.0555511
-0.0385494
-0.0799775
0.00911363
-0.0923661
0.0787202
0.00453227
-0.0132685
-9.88602e-05
0.0264305
-0.0130631
0.0504467
-0.0484736
0.0187133
-0.0206864
-0.000428641
0.00120185
-0.00056722
-0.000205986
0.0206721
0.0467173
-0.0492333
-0.0457428
-0.0014172
0.000827137
0.00143789
-0.000847828
-0.00209237
0.0828682
-0.0807759
-0.0521754
-0.012621
-0.0244323
0.0892287
-0.0532246
0.00104919
0.0134198
0.0199653
0.0139574
-0.0473425
-7.39559e-06
-0.00222413
-0.000112933
0.00234445
-0.00157356
-0.000474462
0.000630816
-0.108322
-0.0104237
-0.0396442
0.15839
0.000982586
0.0058728
0.126249
-0.133105
-0.0357027
0.0393389
-0.0631639
0.0595277
-0.0673375
0.0806284
-0.0132909
0.00133891
-0.0440109
-0.0311707
0.0636526
0.0219378
-0.000287545
-0.0853029
0.0450554
0.0886943
-0.154185
0.0204357
0.0427717
0.0156811
0.0310108
-0.0894636
0.105113
-0.115677
0.0439198
-0.00305311
0.0117304
-0.0108321
0.0021548
-0.00230541
0.000791405
-0.00100484
0.00251885
-0.00231286
-0.00549208
0.00122482
0.00658013
0.058932
-0.00564534
-0.0181931
-0.0350936
-0.058928
0.0312559
0.0276721
-0.0900767
-0.011642
0.0137506
-9.39705e-05
0.000511345
-0.00272278
-0.113308
0.0299576
0.00315626
0.0801937
0.00236107
-0.0511075
-0.0101205
0.0588669
0.0498096
0.0256435
-0.106883
0.0314299
0.0357138
-0.0462603
-0.0167639
0.0273104
0.0495346
-0.0634337
0.0496129
0.0341491
-0.0535618
0.043638
-0.0242254
0.0323182
-0.0365028
0.00278367
0.00140091
0.0272329
-0.147815
0.0881037
0.032478
0.00298426
-0.0644179
-0.00112668
0.0528887
0.00178368
-0.114246
-0.0331486
-0.00970044
0.00353962
0.0393094
-0.0492072
0.044213
0.0485674
-0.0435732
-0.0449213
0.0825211
-0.0375998
0.0105255
-0.106235
0.0494496
-0.0149423
0.00781421
0.0223004
-0.0151723
-0.0910123
0.0958888
0.0359977
-0.0408742
0.0584847
0.0313185
-0.0763438
-0.0134593
-0.0501809
0.151287
0.00537608
-0.106482
-0.00013804
0.00323502
0.00303422
-0.0061312
0.0477064
-0.0693578
0.0882997
-0.0666483
0.00942206
-0.041411
-0.00887507
0.0408641
-0.0393767
0.0279836
0.099401
-0.0880079
-0.0512412
-0.0276888
0.0549788
0.0239512
-0.00999867
-0.00289275
0.00745781
0.00543361
-0.00994604
0.0212887
-0.0163594
0.00501673
-0.00239724
0.0712541
-0.0688568
0.0151437
-0.0452663
-0.0190845
0.0483324
-0.0313426
-0.0007548
-0.016235
0.00145548
-0.0232718
-0.0202869
0.0421033
0.0343617
-0.0338792
-0.000482464
0.0573023
-0.0438408
0.0704408
-0.0839023
-0.0988045
0.0975808
0.100054
0.000526148
-0.0104991
-0.00221613
0.0121891
0.0495053
-0.000376689
0.000641905
-2.1276e-05
-0.00024394
0.00182355
0.0456609
-0.108687
0.0612028
-0.00825756
-1.79731e-05
0.00452307
0.00375246
0.0263368
0.012623
-0.0389598
0.000977516
-0.00136942
-0.00786565
-0.0303185
-0.0373214
0.0222517
0.060628
-0.00366521
-0.0569628
0.0741058
-0.0430055
-0.0482713
0.0171709
0.00216422
-0.0255251
-0.0205637
0.0664753
0.0468852
-0.0392547
-0.00774207
0.00924573
0.124688
-0.115784
0.0360682
-0.0449718
-0.0447118
0.0356816
0.0204146
-0.0113845
-0.0521702
0.0545733
-0.00240309
-0.0480479
0.0298573
0.00901819
-0.0459069
-0.00903688
0.0459256
0.00996552
0.159716
-0.166787
-0.00289506
0.110495
0.0125521
-0.0158661
0.0507983
0.00672419
-0.0511638
-0.00635878
-0.0142631
0.00463876
0.0100798
-0.000455463
-0.00940047
-0.0048178
0.00459972
0.00961856
0.0651121
-0.0354382
-0.0524634
0.0227895
0.0296803
-0.0164308
0.0225858
-0.0358353
0.0252047
-0.0969993
0.092297
-0.0205024
-0.00532013
-0.000128496
-0.00881447
-0.0916105
0.104387
-0.0236193
0.0108425
-0.0108552
0.0495599
0.012042
-0.0507468
-0.00389422
8.05605e-05
0.00286681
0.000946854
0.0840388
-0.00493039
0.0541381
-0.133246
1.02398e-05
-0.000699242
6.74997e-06
0.000682252
-0.0648369
0.0634709
0.0697731
-0.0684071
0.00302542
0.000679898
-0.00140038
-0.00230494
-0.0796111
0.0841086
-0.00449751
0.0619447
-0.0597935
-0.00215122
0.0622319
-0.00160505
-0.0606268
-0.0127934
0.127795
0.00229228
-0.117294
0.00831907
-0.0301133
0.035214
-0.0257187
-0.000375138
-0.0552407
-0.0708065
0.0118975
0.0632909
-0.00438192
-0.0123687
-0.00235186
0.00208407
-0.000441541
0.000233491
-0.00187602
0.00103824
-0.000459075
-0.000161088
-0.000418076
-0.0668019
0.00527505
0.00196489
0.0595619
0.000757035
-0.00496847
0.00126875
0.00294268
0.0117073
-0.0144952
-5.6067e-05
0.00284394
0.00767188
-0.00669218
0.0107276
0.0570171
-0.0106425
-0.0260938
-0.0202809
0.0381138
-0.00643274
-0.0362891
0.00460806
-0.00165296
0.0699458
-0.00096144
-0.0673314
0.00806851
-0.0728065
0.0162917
0.0484464
-0.0410327
-0.0347495
0.0432535
0.0325287
-0.0310482
0.0126823
-0.0878511
0.106217
-0.000919313
0.0136766
-0.00657684
-0.00618044
0.0513626
-0.0600832
0.0449139
-0.0361933
-0.0589001
-0.0136227
-0.00467569
0.000605854
-0.000456635
0.00400635
-0.00415557
-0.0107669
-0.00217366
0.00130634
0.0116343
-0.00760348
-0.00825247
0.0101501
0.00570588
-2.25323e-05
-0.00211884
0.00116987
0.000971501
0.000245451
-0.000248099
2.64782e-06
-0.00244109
-0.0658315
-0.024275
0.0925476
-0.000116855
-0.000366164
-0.00126289
0.00174591
-9.17862e-05
0.000312696
2.45416e-05
-0.00647904
-0.0653641
3.68391e-06
-7.66471e-05
-0.000175136
0.000745106
0.000165346
-0.000437347
-0.000473105
-0.0255112
0.05625
0.0763801
-0.107119
-0.00840696
-0.00230357
0.00660063
0.00410991
-0.0138267
-6.11387e-05
0.00548092
-0.00468117
0.00460854
0.0127719
-0.0126993
0.000467119
-0.000525527
6.20925e-05
-0.0640721
0.0673373
-0.00326512
0.0312523
0.044983
-0.05931
-0.0169253
0.0139343
-0.077813
-0.0190784
0.0829572
-0.0126087
0.0028458
0.00508176
-0.00479842
-0.00571627
-0.00209404
-0.0129342
0.0610084
0.01176
-0.0598343
0.0683263
0.00229534
-0.0513611
-0.0192605
0.000280358
0.000440201
-0.000578253
-0.000142306
0.000287543
8.77891e-05
-0.00279059
-0.00103507
-0.000781315
0.00460697
0.0631701
-0.0448479
0.0135924
-0.0319147
-0.000642422
-0.00268982
0.00154701
0.00178523
-0.0150369
0.0110114
-0.00431565
0.00834118
-0.0022771
-0.104935
0.101277
0.00593545
0.00275109
0.000470984
-0.00991852
0.00669645
0.00954826
-0.00955195
0.00107485
-0.00107116
0.00977004
0.00301589
-0.0100348
0.0389728
0.0572896
-0.0330923
-0.0264816
0.0556522
0.0293396
-0.0585102
0.0291644
-0.055646
0.000113814
-0.00162325
-0.0339098
0.0145228
-0.00997438
0.0770945
0.0241437
0.00507612
0.0707401
-0.0543076
0.100409
-0.116841
-0.00513556
0.0937242
-0.0885886
-0.00688809
-0.00639979
0.0124196
0.000868295
-0.0350806
-0.0838774
0.0259835
0.0929745
0.020715
0.0609597
-0.0232985
-0.0583761
-0.0230917
0.114215
-0.05215
-0.0414472
0.0443109
0.0527885
-0.0572408
0.059492
-0.00225113
-0.0346922
0.035555
-0.000862813
0.0414028
-0.0839297
0.0732348
-0.030708
0.068705
-0.0816392
-0.00838537
-0.00812619
0.00962347
0.000516777
0.000771506
-0.000417535
-0.000870748
-0.00781822
-0.0427674
-0.00665527
0.0012059
0.00137524
-0.00227883
-0.000302305
-0.0580452
0.0529209
0.0862382
-0.0811139
0.0347286
-0.0327583
-0.0019703
0.00937672
0.0272372
-0.0110339
-0.02558
0.00382138
-0.000649205
0.00256538
-0.00573755
-0.061941
-0.000393083
0.0210869
0.0412472
-0.00290447
0.00678324
-5.73937e-05
0.0396161
-0.108255
0.10258
-0.0339419
0.041385
0.0167876
-0.0596543
0.00148172
-0.00373288
0.00694888
0.00144027
-0.00465627
0.00110132
0.0615542
-0.0626555
0.0353193
0.00554826
0.0156366
-0.0565042
0.00399824
-0.00731664
0.00266919
-0.178779
0.0206243
0.166216
-0.00806096
0.0383368
-0.0107037
-0.0276331
-0.000838934
-0.00179039
-0.00134391
0.00397323
-0.040808
0.0443488
0.128651
-0.132192
-0.00155582
0.000732187
-0.0023516
0.00317524
0.0857522
-0.00374298
-0.0406243
0.000277082
-0.000980441
0.00208045
-0.00137709
-0.0199895
-0.113376
0.0170063
0.116359
0.00139142
0.0547007
-0.00153125
-0.0545608
0.0466049
-0.0642378
0.0552647
-0.0376318
0.0331375
-0.0392503
0.048897
-0.0427843
0.00853283
-0.00272988
0.00622764
-0.0120306
0.00297347
-0.0439499
0.0507529
-0.0558689
-0.0341342
0.102908
0.0177039
-0.028968
-0.0916442
0.0466194
0.0229022
-0.139867
0.0703458
-0.00127985
-0.00806738
0.00625868
0.00308854
0.0281762
-0.0484495
-0.00403605
0.0278191
-0.0248826
0.00772995
-0.00587231
0.000274009
-0.00213165
-0.0888341
0.00306816
-0.00323868
0.0808129
-0.156583
0.0790085
-0.026549
-0.0895195
0.0447847
0.0712838
-0.0713374
0.0180977
-0.000564599
0.0538042
-0.0453965
0.0273926
0.014782
-0.0798464
0.0942026
-0.0143562
-0.0232603
-0.0107137
0.131378
-0.0974041
-0.00343395
-0.00411852
0.00589347
0.00165901
-0.0242908
0.0621526
0.0392547
-0.071753
0.0287475
-0.000578986
-0.000367782
-0.00107596
0.00202273
0.0460146
-0.0490224
0.0558966
-0.0361137
-0.00769078
-0.0430071
-0.121623
0.0468562
0.074767
-0.0442879
-0.0321289
0.0283689
0.00282343
-0.00196553
0.000378951
-0.00123685
0.00209274
-0.000268136
0.000998825
-0.0872353
0.00570282
0.0815325
0.0665241
0.0128584
-0.127728
0.0483453
-0.0724055
0.00315154
0.069254
0.000731855
-0.00125698
0.00788234
-0.00735722
0.0511808
0.162683
-0.236762
0.0228979
0.00137715
-0.00231603
0.0016173
-0.000678426
-0.0942293
0.0665699
0.0254732
0.00218617
0.000725845
0.00328839
-0.00515789
0.00114366
-0.000778863
0.00886013
-0.0073301
-0.000751164
0.00711778
0.00872799
-0.0161337
0.00028793
0.041135
0.00953413
0.00264022
-0.00244802
0.00118495
-0.0934848
0.106553
-0.000606616
-0.0124615
0.0110027
-0.0678262
-0.0219876
0.0788111
-0.00241938
-0.000836971
0.0892755
-0.0860192
-0.0375264
-0.0384836
0.085277
-0.009267
-0.0377583
0.0229526
0.0381768
-0.0233711
0.0493772
0.0209477
-0.0704588
0.000133837
-0.00366263
0.00144025
0.00236192
-0.000139536
-0.122132
-0.0392457
0.040737
0.120641
0.0486828
-0.0396646
-0.0306771
-0.0349769
-0.0305822
0.0962362
-0.00179415
0.0039538
-2.89476e-05
-0.0021307
-0.0249176
-0.0891931
0.0265544
0.0875562
-0.0268932
-0.0277117
0.0184912
-0.00106138
-0.00269831
-0.0014444
0.00323675
-0.00327216
0.00147981
-0.00641046
0.00651817
0.0157409
-0.0725647
-0.0793927
0.136216
-0.000332147
0.000326537
-9.89864e-05
0.000104596
0.0531999
-0.0557141
0.0421403
-0.0396261
-0.0145142
0.0396401
-0.00479786
-0.0203281
0.0850179
-0.0846287
-0.0180253
0.0176361
0.0271419
0.0200541
-0.060886
0.01369
-0.132162
0.0765986
0.0150834
0.0404798
-0.00456479
0.00222565
-8.27286e-06
0.00234742
-0.00722999
0.00863975
-0.000677901
-0.0160195
-0.00234798
0.0190896
-0.000722147
-0.0638028
-0.00392087
0.0166886
0.0510351
-0.00141882
0.102574
-0.00460118
-0.0965538
0.00613353
-0.0484611
0.0813131
-0.0389855
-0.00170682
0.00358789
-0.00143849
-0.000442581
-0.0158705
0.00164588
-0.00260619
0.0168308
-0.10636
-0.000757306
0.0149071
0.0922098
-0.000189678
-8.15638e-05
-2.93691e-05
0.000300611
0.0417996
0.00706083
0.0250983
-0.00553188
0.0434391
0.0595649
-0.0974721
-0.000241397
-0.00037276
0.000424479
-0.000592709
0.00213702
-0.00124998
-0.000294329
0.0204039
0.111823
-0.0504207
-0.0818065
-0.000132856
5.12925e-05
-8.91248e-05
-4.37315e-05
0.0629938
0.0166505
-0.0896359
0.00999164
-0.161996
0.0834433
0.0796623
-0.00110931
-0.0167396
-5.70179e-05
-0.0497342
0.0665308
0.0242457
-0.0146147
0.0193822
-0.0290132
-0.0698213
-0.0170332
0.0868546
-0.0747353
0.0362431
0.0384922
-0.00164265
-0.000266525
-1.21445e-05
0.00192132
-0.043334
0.0437932
0.00931616
-0.0097753
0.0476464
-0.0552617
0.00761522
-0.0584025
0.0359933
0.0455204
-0.0231112
0.00370522
-0.00156843
-0.00210574
-3.10478e-05
-0.00296513
-0.0024735
0.000873831
-0.0415025
-0.0470906
0.0459961
0.0149272
0.0018242
-0.0627475
-0.00045126
-0.000832756
0.00235287
-0.00106885
-0.0166882
0.0186291
-0.00814746
0.00620656
0.00871201
0.0209102
-0.0409298
0.0113076
-0.0213025
-0.00867574
-0.0111881
0.0411664
-0.0743947
-0.0109752
0.0263723
0.0589976
-0.00151423
0.0152409
-0.00918579
-0.00454089
-0.0561596
0.00362376
0.0312334
-0.00132112
0.0280974
-0.140462
0.126286
-0.013922
0.0302607
-0.0327735
-0.0549805
-0.029634
0.0587984
0.00302696
0.0368322
0.00273566
-0.0425948
-0.0597067
-0.0621372
0.121844
-0.00273232
-0.000701054
-0.00176249
0.00519586
0.00331709
-0.00449312
0.00149372
-0.00031769
0.0359236
-0.00523443
-0.0284509
-0.00223829
-0.00308761
-0.00172626
0.00208155
0.00138953
-0.000870008
0.0608893
-0.0614088
0.0727015
0.00191879
0.0275709
0.00793673
-0.00327746
-0.0322302
0.0604189
-0.00697501
-0.0534439
-0.051615
0.115641
-0.0280187
0.0582464
0.0215258
-0.0517535
-0.0145977
-0.0231179
0.0148568
0.0228589
0.00346577
0.00339885
0.000827025
-0.00769164
-0.0366607
-0.0364793
0.10199
-0.0288496
0.0419689
-0.0330903
-0.000704618
-0.008174
-0.0493351
0.116386
-0.0519675
-0.0150835
-0.0019948
0.00213839
-9.64362e-05
-4.71569e-05
-0.000584063
0.0217469
-0.00384364
-0.0173192
0.00224022
0.00371498
9.29835e-05
-0.00604819
-0.000473726
-6.747e-05
-6.87934e-06
0.000548075
3.28238e-05
5.52002e-05
-0.00056175
-0.00885472
0.0304602
0.0642255
-0.085831
0.0840361
-0.0857682
0.00173206
0.000686335
-0.000705274
1.8939e-05
-0.0131343
0.00115777
0.00211466
-0.00159294
-0.0016795
-0.00958929
-0.00734561
0.00588393
0.011051
-0.0556186
0.0276
0.000296195
0.000370155
-0.000878022
0.000211672
0.0337179
0.054643
-0.0385253
-0.0498356
0.0172024
0.151638
-0.173991
0.00515077
0.0592513
0.064058
-0.065063
0.00196279
-0.0120627
-0.00150646
0.0116064
-0.0340253
-0.0328293
0.0668546
0.0291728
-0.0631981
-0.0531998
-0.0466383
-0.0643345
0.164173
0.0499965
-0.0581863
0.00818983
-0.0690383
0.137969
-0.0795729
0.0316611
-0.0304429
0.0853484
-0.00434234
-0.0684412
-0.0125649
0.071417
-0.0699713
0.0169315
-0.0183772
-0.000545519
-0.00546221
0.00723207
-0.00122434
0.000410182
-0.00522702
0.00597448
-0.00115764
-7.40757e-05
-0.000130313
0.000828285
-0.000623896
0.0203391
0.0229974
-0.0338136
-0.00952288
-0.00483284
-0.00554165
0.00572873
0.00464577
-0.00916433
0.029418
-0.0401816
0.0199279
0.00115285
-0.00810299
0.0111856
-0.00423541
0.0481469
-0.00113343
-0.0470134
0.040015
0.0378777
-0.126067
0.0481743
-0.0973412
0.0563802
0.080976
0.0324461
-0.100615
-0.0422853
0.105922
-0.042422
-0.0212146
0.00228963
0.00835048
-0.0126126
0.00197253
0.0256892
-0.00466968
-0.0210195
-0.0307496
0.0448445
-0.00344337
0.0184089
-0.0323109
0.00166945
0.000223685
0.00041823
-0.00231136
0.0120158
-0.0368984
-0.00104566
0.000272831
-0.000521238
0.00129407
0.00258729
0.000172244
0.000534031
-0.00329356
0.000244698
-0.00025852
-0.0766975
-0.0151399
0.0026615
-0.011363
0.0238413
0.0195772
-0.0924706
0.0177204
0.055173
-0.00460683
0.0590849
-0.0815565
0.0270784
0.000269384
-0.000538063
0.00217457
-0.00190589
0.0854385
0.0122917
0.000767574
-0.0984978
-0.000665559
-0.00103836
0.00186372
-0.000159794
0.00975367
-0.00759671
-0.0729573
0.0708003
0.00573137
-0.00107242
-0.00415048
-0.000508476
0.00559972
0.00419088
-0.00332583
-0.00646478
-0.110647
0.0957446
-0.0860765
0.100978
-0.0566045
0.107809
-0.0512048
0.00205003
-0.0434098
0.0109733
0.0303865
0.00320116
-0.00396207
0.00125579
-0.000494884
0.0471593
0.00266712
0.000250073
-0.134675
0.00722215
0.075838
-0.034369
-0.00174778
0.000124316
0.0290045
-0.0229023
-0.00622656
0.0751081
-0.0279367
0.0344456
0.00362836
-0.00440296
1.32013e-05
0.000761398
0.0348635
0.0217614
-0.0739796
0.0173547
-0.00118559
0.000627208
0.000785485
-0.000227105
-0.000424146
0.0011593
0.00486456
0.000494493
-0.00706395
0.00592392
0.00476839
0.079203
0.0406981
-0.039509
-0.0803921
-0.134668
0.146755
-0.0122557
0.000169226
0.0308635
-0.0333066
0.00244307
-0.0338393
-0.00398315
0.000234894
-0.00282681
-0.00181105
0.00455409
0.211952
-0.150783
-0.0657223
0.0320746
-0.0665108
-0.0159898
0.050426
-0.00263817
0.0362866
1.6096e-06
-0.0854493
0.049161
-0.021807
0.00972908
-0.0421648
0.0518211
0.0465591
-0.0562154
-0.0690782
0.0843452
-0.144808
0.129541
-5.49218e-05
0.000234997
-0.00156886
0.00138879
0.00030405
0.00220399
-0.000830163
-0.00167788
0.0469064
-0.0198961
0.0442386
-0.0712489
-0.0035861
0.000494587
0.00303613
5.53856e-05
-0.0109386
0.00802761
-0.0392538
0.0117782
-0.0425532
0.00563344
-0.00312339
0.0178498
-0.0203599
-0.127345
0.0174012
0.120059
-0.0101157
0.0392981
-0.0258078
-0.0205274
0.00703701
0.032129
-0.0591623
0.0160947
0.0038072
0.00669174
0.0537595
-0.0642584
0.0243593
-0.00548926
-0.0239038
0.00503375
-0.0798612
-0.00596454
0.0144315
0.00127467
-0.000922317
-4.82979e-05
0.000644116
0.0072973
0.00122425
-0.00916566
0.0189641
-0.0310473
0.0364426
0.0116577
-0.141034
-0.0191967
0.148573
-0.107379
-0.018295
0.0226325
0.103041
0.0524211
-0.0333546
0.0321069
-0.0511734
0.110833
-0.00541749
0.00362555
-0.109041
-0.0152514
-0.03556
-0.00411491
-0.0146685
0.00698226
0.0118011
-0.00116538
0.000430638
1.96253e-05
0.00071512
0.0105145
-0.0742275
0.063713
0.107608
-0.00445431
-0.115947
-0.0217855
0.0540979
-0.0475637
0.036477
-0.121074
0.0141848
0.0704121
-0.0068291
-0.014657
-0.0229667
0.0444527
0.0145248
0.0427313
0.079309
-0.123272
0.00123146
0.0475693
-0.0869025
0.0943975
-0.0550643
-0.0961218
0.0958269
-0.0060334
0.0063283
0.000719351
0.00175924
-0.0913768
0.0888982
-0.00107083
0.00360863
0.0055404
-0.0080782
7.51038e-05
-0.000868532
-0.000183986
0.000977414
0.0867875
0.000587002
-0.0168896
-0.070485
-9.57331e-05
-7.93021e-05
0.000443427
-0.000268391
0.000479318
0.00312418
-0.00171051