/*--------------------------------*- C++ -*----------------------------------*\
| =========                 |                                                 |
| \\      /  F ield         | OpenFOAM: The Open Source CFD Toolbox           |
|  \\    /   O peration     | Version:  2506                                  |
|   \\  /    A nd           | Website:  www.openfoam.com                      |
|    \\/     M anipulation  |                                                 |
\*---------------------------------------------------------------------------*/
FoamFile
{
    version     2.0;
    format      ascii;
    arch        "LSB;label=32;scalar=64";
    class       volVectorField;
    location    "0.00221858";
    object      U;
}
// * * * * * * * * * * * * * * * * * * * * * * * * * * * * * * * * * * * * * //

dimensions      [0 1 -1 0 0 0 0];

internalField   nonuniform List<vector> 
47425
(
(9.4462 -0.5974 -0.104157)
(9.04489 -1.72918 -0.764915)
(9.38978 -0.297246 -0.491898)
(10.8536 -0.746537 0.766978)
(11.0034 0.0506499 0.617449)
(8.85802 0.878526 -0.20304)
(10.2268 0.52245 1.4371)
(9.67692 0.569178 -0.223729)
(10.4424 -0.262953 0.420914)
(7.9969 2.07274 -0.201852)
(9.94765 0.731508 0.781377)
(9.2614 -0.2528 -1.43238)
(10.6679 -0.0751366 0.65338)
(9.99982 -0.267439 -0.705272)
(8.60481 1.40772 -1.25737)
(7.48113 0.123982 2.74976)
(7.59346 -0.228549 0.116838)
(9.1514 -0.0851277 -1.36389)
(10.4672 0.018907 -3.76012)
(12.0008 -0.282669 0.437917)
(10.4479 -0.127009 -0.35504)
(9.3002 0.465382 -0.812988)
(9.86833 -0.892607 0.876572)
(9.54617 -0.0695886 0.0849012)
(8.94741 -0.740901 -1.24052)
(10.4799 -0.955763 -0.294558)
(9.48128 0.072498 -0.318151)
(12.6959 0.254928 -6.91018)
(9.40395 1.43396 0.219198)
(8.30297 0.435103 0.650945)
(9.96513 0.159067 -0.674565)
(9.90015 0.040555 -0.728761)
(9.77771 -0.74623 -0.49047)
(9.92699 1.70164 0.0303888)
(9.88161 -0.6489 1.60242)
(7.94826 -0.566848 0.577347)
(10.0284 0.631302 0.175114)
(9.63441 1.58268 -1.72588)
(9.95415 -1.87251 -0.847397)
(9.61073 0.0915355 -0.635015)
(10.0621 0.623677 1.75871)
(9.00079 0.00164319 -0.172199)
(8.82883 -0.33894 -0.183189)
(8.42274 -0.185432 -2.45238)
(2.57594 -1.81351 -1.69839)
(10.9356 0.33877 0.40812)
(10.1118 0.247863 -0.0497175)
(8.43365 -0.765064 0.857946)
(9.69532 -2.86036 -0.685426)
(9.74955 -0.157443 0.788307)
(2.88156 -0.623853 -4.73733)
(9.52028 0.429476 0.0642565)
(10.7023 -0.495587 0.809231)
(8.32507 -2.46655 0.194456)
(8.2217 0.48167 -2.11115)
(9.54954 -0.425833 0.126642)
(9.36428 -0.0554618 -0.753152)
(8.6111 -0.924402 2.26263)
(11.27 -0.549522 -0.388591)
(9.15988 2.06209 0.429208)
(7.90804 -2.48636 -0.0258297)
(7.74629 -1.33373 2.27989)
(8.11874 -3.79332 -0.0974476)
(9.06198 -0.624583 -0.0167432)
(8.68794 0.918564 2.4797)
(9.54645 0.0219256 0.410411)
(9.03778 1.05974 1.59193)
(9.69594 -0.69628 1.00433)
(8.99281 -3.51093 1.1421)
(9.25531 -0.127127 0.86094)
(10.3908 -0.308614 0.615256)
(10.5441 0.721044 1.02255)
(10.1984 -0.0717602 0.0343665)
(10.2736 -0.39294 -0.286543)
(8.67052 3.61211 0.305876)
(5.04555 0.907592 0.199185)
(8.1226 -4.28076 0.177765)
(8.71055 0.448477 0.0562839)
(8.56388 -3.77963 1.03062)
(10.5638 -0.241964 0.984584)
(8.89296 4.10037 0.535631)
(10.0023 -0.484741 0.0383588)
(9.40573 -0.0505441 0.240324)
(9.67513 -1.35078 1.26175)
(8.95818 0.716805 -0.821279)
(7.76717 0.0844359 0.456878)
(9.57461 -0.321796 0.360085)
(9.76641 -0.970907 -0.511102)
(9.40136 0.0326652 0.0505271)
(10.6675 -0.245404 1.35644)
(10.0078 -0.199408 -0.819888)
(9.95895 -0.897353 1.13277)
(10.7694 0.228121 0.232853)
(9.55733 1.25941 1.00565)
(8.84837 -0.195818 -3.31612)
(9.33278 -0.39292 0.164901)
(10.1339 -0.178986 -0.144957)
(10.7532 -0.0799583 0.0444922)
(10.546 0.152779 0.786661)
(10.5388 1.06814 0.777894)
(8.07386 0.145714 -0.378973)
(8.68125 0.575149 -2.88733)
(9.61085 -0.380353 -1.03463)
(5.75695 1.88031 -0.0487418)
(10.0181 -0.853516 -0.481935)
(8.80344 1.04295 1.49419)
(8.55898 -0.00933661 0.143579)
(9.26936 1.12082 -0.00616215)
(9.57343 -0.0222852 0.580785)
(10.9341 -1.95819 -0.26476)
(4.93585 -0.210378 -0.725856)
(9.55917 0.732758 0.539394)
(9.35977 -0.647608 0.550826)
(9.00129 -0.21304 1.0489)
(9.82346 0.680512 0.477754)
(1.62184 -3.60023 -4.96946)
(10.4563 0.25425 -1.36175)
(4.44425 0.0934835 -3.43464)
(10.5249 1.41292 -0.417734)
(10.2195 0.0867914 -0.224223)
(8.63144 -0.0921299 -0.0749696)
(9.08526 -0.192359 1.07259)
(9.6858 0.149942 -0.340423)
(10.7562 0.34663 -0.342223)
(8.00389 2.3711 0.426725)
(9.2451 -0.423374 -0.302529)
(10.1404 0.884892 -0.206201)
(9.79065 0.677462 0.506121)
(8.7013 1.29079 -1.15674)
(9.63651 1.06679 0.904928)
(9.60426 0.347848 0.0368058)
(9.31496 1.57381 -2.29889)
(4.85111 -0.148531 1.51012)
(9.17011 -0.392947 0.910994)
(10.1162 0.720857 -0.266576)
(10.9743 0.539474 0.789919)
(10.4138 -0.175928 0.845483)
(9.47237 -0.114895 -0.0849909)
(8.62745 2.71059 0.62802)
(10.9348 -0.298924 -0.475168)
(9.92284 1.9968 1.59978)
(10.7834 0.827886 1.18265)
(9.31768 -1.72991 -0.451555)
(9.60192 -0.469219 0.656747)
(9.56702 -0.598108 -0.47091)
(10.3367 -0.969027 0.0463577)
(10.4416 -0.285225 0.631317)
(10.3655 -0.597919 0.795713)
(9.55296 0.182849 1.22014)
(10.7441 -0.17384 0.39671)
(9.82368 -0.50408 0.42371)
(3.13619 -0.262244 -6.21652)
(8.8886 0.0997833 1.36054)
(6.70184 0.206364 -11.2193)
(8.92044 -0.953207 0.124188)
(10.3158 -0.264241 -0.273686)
(10.0576 0.36259 -1.14997)
(10.2311 -2.54495 -1.76721)
(11.4194 -0.598824 0.594829)
(9.63559 -0.712686 0.201679)
(10.1092 -0.238198 0.481934)
(10.4173 0.92079 -1.32163)
(9.16398 1.67657 -2.16142)
(10.1196 0.61546 -0.00828208)
(12.3102 -0.0833681 0.16146)
(7.59899 -0.498841 -0.613505)
(10.3605 -0.361822 -1.5763)
(8.80551 3.59988 0.355332)
(9.46545 -0.790985 -0.0759695)
(12.9686 0.0553337 -2.44361)
(9.07781 3.58438 0.107579)
(8.65856 2.24704 -1.72205)
(9.92222 0.498711 -0.785142)
(9.6155 -0.757942 -0.0856565)
(9.91956 -3.47716 1.04235)
(9.63202 -2.2852 -0.578628)
(3.29067 0.546335 -7.26379)
(10.014 0.782287 -1.63772)
(9.70825 -0.248196 2.24259)
(9.77804 -0.337617 -0.0613783)
(2.85408 -0.0355269 -11.3243)
(8.74994 -0.197987 -1.50819)
(7.74916 -0.698936 0.198423)
(8.33845 -2.18851 -0.458193)
(9.81027 -0.539326 -0.0559165)
(8.30588 2.05212 -0.435322)
(10.0674 0.0739742 0.220258)
(6.27823 -0.0849481 0.338602)
(8.10454 0.670503 1.47282)
(9.16209 0.431287 -0.448377)
(10.1655 -0.620177 0.0955864)
(9.09749 -1.00535 -0.720528)
(9.53435 0.354347 0.0848287)
(10.3549 2.29344 -0.456344)
(10.1772 -1.06458 -0.625093)
(10.3596 -0.179653 0.105894)
(10.9069 1.45245 -0.745452)
(8.11038 -1.17615 0.532532)
(10.0809 -0.213452 -0.221029)
(9.80595 0.479671 -0.816018)
(9.24728 -0.0868438 -0.967721)
(8.362 -1.22995 -0.322037)
(10.3515 1.03359 -0.605568)
(9.19195 -0.403123 0.489589)
(9.7638 -0.751963 0.302694)
(9.76225 -1.6338 -1.01133)
(9.96565 -1.04922 1.6397)
(10.2619 -0.185731 -0.108121)
(8.10247 -0.963992 1.43968)
(7.10991 1.57674 1.10747)
(9.22154 -0.0811971 -1.31304)
(10.6793 -0.0223698 0.174988)
(10.2409 0.521824 0.355463)
(8.91643 -0.10075 -0.887162)
(11.2644 -0.93893 0.0651449)
(9.94143 0.545862 -0.163125)
(10.0196 2.35843 0.28032)
(10.7974 -0.610909 1.15884)
(8.56443 -1.09485 -0.0846425)
(9.64506 1.23842 0.294715)
(10.2627 -0.110215 1.22142)
(9.12695 0.945181 0.233464)
(9.79318 0.0440605 -0.159791)
(9.16929 -0.488183 -2.14234)
(10.0902 -2.20879 2.03087)
(10.2236 -0.278446 1.22862)
(8.30777 -0.162475 0.769893)
(10.8795 -1.794 -0.827876)
(10.0646 0.748739 -0.176511)
(10.0755 0.742997 -0.164924)
(9.96682 0.324123 1.14542)
(10.0155 -0.335088 0.509414)
(8.76262 0.154751 -1.30135)
(8.94469 -2.33025 1.08752)
(9.26213 -0.816234 -0.614322)
(9.19876 0.324117 -0.251593)
(10.7628 0.0204818 1.04949)
(9.95048 -0.174996 -1.41403)
(10.7292 -0.0449209 0.959426)
(9.3525 1.0355 0.934017)
(8.98308 -1.04617 0.0108522)
(8.3186 -0.045195 -1.63761)
(9.00811 -0.0830874 1.35167)
(10.5237 -0.918388 1.42277)
(10.7045 0.4383 0.149577)
(7.43366 1.08891 0.446843)
(9.71285 0.18151 0.534989)
(8.86932 2.50603 -0.927789)
(9.47133 -0.935213 0.620028)
(9.61014 1.14763 -0.105277)
(8.92812 -0.928276 0.463731)
(10.2245 -0.247999 1.05708)
(9.5627 0.199141 1.15598)
(9.56674 -1.40726 -0.589047)
(8.10898 -0.73259 -1.94144)
(9.05825 0.297597 -0.108513)
(10.1231 0.214558 1.26481)
(7.97572 1.98262 1.69781)
(9.80723 -0.673412 0.735307)
(7.87872 1.34321 0.203378)
(10.7183 -0.44256 3.06502)
(9.77646 -1.98286 1.45124)
(10.003 0.0647226 0.566773)
(10.015 -0.491459 0.457797)
(10.5438 0.158483 0.575422)
(10.3501 0.807763 0.405858)
(10.2146 1.39549 -1.38387)
(10.6922 -0.103331 0.565277)
(9.89619 0.11138 0.049077)
(11.5641 -0.214581 0.631186)
(10.4309 0.481645 0.633145)
(10.5855 -0.10621 0.824805)
(10.674 0.103947 0.969288)
(9.14055 -0.572374 -0.355093)
(10.476 -0.224105 0.803416)
(9.1151 -0.486147 -0.140152)
(10.5684 -0.184593 0.785638)
(7.35856 2.42687 3.31853)
(10.6547 0.0093505 0.959081)
(6.08167 0.842263 -4.41728)
(7.79166 -2.2732 0.0433864)
(11.0742 1.12053 -0.145627)
(7.96369 -2.10936 0.160267)
(10.1976 0.611808 0.23732)
(9.03454 0.258201 0.349498)
(10.5551 0.896453 0.871379)
(9.03537 -0.625472 -0.88234)
(8.85244 0.577366 0.0876246)
(10.2423 -0.299691 2.91711)
(9.12129 -0.189909 0.949869)
(0.968856 1.39102 -3.22799)
(8.70585 -0.354368 0.442322)
(9.12542 1.25967 1.18697)
(10.6941 -2.07355 0.51894)
(9.44869 0.579906 -0.443205)
(10.8742 0.512555 -0.971373)
(9.45539 0.0497437 0.514474)
(9.89093 0.000923595 -0.0402426)
(8.49064 -0.0297081 -0.199827)
(10.0159 0.41838 0.0976581)
(9.65055 1.19521 -0.350575)
(9.58549 0.327368 1.16695)
(8.34123 -0.547261 2.02781)
(9.04698 1.00205 0.0667614)
(15.3964 -1.6878 0.755508)
(11.9618 -7.10608 2.07578)
(1.67233 0.766173 -6.30199)
(10.1575 0.493686 0.527063)
(9.57828 -0.63858 1.05455)
(9.30874 -0.247245 -1.02184)
(9.52339 -0.828221 0.10498)
(1.08968 -0.410867 -4.89493)
(8.69702 -0.261927 -0.0822327)
(9.84942 -0.0355574 -0.657875)
(9.80824 1.2586 0.837278)
(9.99265 -0.202371 -1.36599)
(9.63315 -0.51107 -0.124539)
(10.103 0.461678 1.90592)
(9.80164 1.14636 0.439486)
(12.0562 -2.07695 0.635888)
(9.84746 1.16073 0.773062)
(8.94225 0.728853 1.56287)
(9.55089 0.0230434 0.126893)
(8.70922 0.0712184 0.472077)
(9.11661 2.543 0.149784)
(9.62822 -0.0135199 1.12135)
(10.1815 -0.840405 -1.43043)
(10.1518 -0.664479 0.0780402)
(9.34428 0.0965965 -0.00297588)
(9.89406 -0.905824 1.76164)
(10.1268 -0.577301 0.121901)
(10.9117 -4.4391 1.58193)
(9.9507 -0.319254 -1.0001)
(8.7078 0.39247 -0.285777)
(10.1111 0.831541 1.50965)
(9.95413 1.54054 0.586758)
(11.6348 -4.57602 2.16648)
(9.29232 0.194352 0.0299789)
(9.3071 0.0200983 0.437069)
(8.78466 -2.30611 -0.75347)
(7.29391 0.927697 0.285574)
(9.88759 0.396841 -0.936177)
(9.47461 0.877909 0.0981452)
(9.24045 -0.874076 0.375926)
(8.98855 -0.903457 1.76643)
(10.0262 1.58406 -1.57984)
(11.2521 0.0218821 0.00466347)
(10.1155 0.147693 0.658569)
(8.91271 0.0572558 0.0145685)
(8.35299 0.0125177 -2.19971)
(10.4771 0.897442 0.386385)
(9.56629 0.00119885 -0.0199756)
(10.2628 -0.361908 -0.505028)
(9.67534 -0.399406 0.64043)
(9.4065 -2.04378 -0.104552)
(10.9674 -0.32412 0.122075)
(10.3544 1.25087 1.07092)
(9.21673 -0.56194 -0.0541541)
(9.2985 -0.129553 -0.826862)
(9.74661 -0.188676 -0.176226)
(11.1372 0.0091813 0.838416)
(10.0405 -0.107498 -0.711608)
(8.80378 -0.67962 0.0740534)
(10.3609 -0.431314 0.112597)
(9.71869 0.102272 -0.515232)
(9.37444 0.240682 0.625231)
(10.1122 -1.02848 0.727777)
(9.50776 -0.337646 -0.106718)
(10.6976 1.01902 0.162251)
(9.81444 0.600279 0.16925)
(9.55299 -0.72082 0.0828244)
(2.68109 -1.51701 -0.276223)
(9.99811 -0.173939 -0.633879)
(9.56018 0.929859 0.199248)
(9.26093 0.0121916 -0.821991)
(9.43503 0.584251 -0.277691)
(8.06112 0.320259 0.583638)
(10.5251 0.383434 -0.271864)
(10.2017 2.5297 -1.83818)
(9.04969 0.198672 0.0559543)
(10.5206 0.727115 -1.45519)
(9.62899 0.522132 0.492148)
(9.30319 -0.251922 0.0579717)
(9.96875 -0.56868 0.220155)
(8.89191 0.531044 1.65937)
(10.3226 1.61982 -0.265392)
(9.89128 -1.31875 0.0126953)
(8.97848 1.72372 0.0536153)
(10.2163 0.829889 -1.48579)
(9.86053 -1.49603 0.22548)
(10.3015 0.0905142 -0.232688)
(10.1816 0.872775 -0.194944)
(10.1302 -0.238677 -0.138401)
(10.4425 -1.34351 0.17387)
(10.4235 -1.19283 1.02857)
(9.88817 0.0173253 -0.171771)
(8.46881 0.087136 0.571182)
(10.0461 -1.70479 0.612885)
(9.23676 -1.39914 -0.829491)
(10.1221 0.857828 0.0681635)
(10.5556 -0.656159 1.1801)
(10.2686 0.26716 -0.195305)
(9.52752 -1.47652 -1.453)
(10.0343 1.69802 -1.68613)
(10.5755 -1.55519 1.25912)
(10.5096 2.07866 -0.0105273)
(9.5371 1.43896 -0.521382)
(9.83288 -0.37732 0.637382)
(10.236 -0.0683772 1.94442)
(9.36301 -0.103962 -0.650988)
(9.86805 0.993141 -0.185827)
(7.56493 8.85424 0.270348)
(2.58859 -0.301022 -1.61575)
(10.2808 -0.247974 0.121317)
(10.0346 0.937048 -0.123526)
(10.4187 0.794729 -0.118454)
(10.5831 0.585395 -0.776115)
(9.8228 0.482398 0.195407)
(10.0577 -1.94944 1.00651)
(10.4369 0.0607083 0.343254)
(8.5478 -1.42599 -0.508136)
(7.99054 -0.485974 -0.819329)
(8.59142 -1.06386 -1.26124)
(9.87988 0.177039 -0.572126)
(10.2769 -0.674099 0.322253)
(9.68464 1.22372 -0.0141112)
(10.0267 -0.396562 0.381121)
(10.285 0.441152 -0.331352)
(10.4164 0.496308 -0.286309)
(8.12551 -0.870092 -4.40073)
(-0.17467 -2.736 -0.00405764)
(10.2075 -1.0024 1.01308)
(7.88182 -0.663093 -4.9288)
(0.0401927 -3.1727 -0.646326)
(8.29602 -0.511726 2.4782)
(-1.36672 -2.51353 0.049012)
(10.8371 -1.44241 1.01197)
(9.18272 -1.22974 0.220332)
(9.76467 0.444608 -0.136831)
(10.5418 0.749838 -0.434611)
(10.5312 0.0863012 -0.640594)
(-0.374706 -3.4066 -0.683151)
(9.55268 -0.763408 1.29095)
(9.73193 -0.540566 -1.21823)
(9.47319 0.369833 -1.27446)
(10.4086 0.686813 -0.220876)
(10.4722 0.602073 -0.113178)
(9.2169 0.948969 1.35376)
(9.3365 0.766117 -0.808046)
(9.27788 1.75836 1.11414)
(0.459546 -3.41365 -0.840186)
(12.082 -0.0818258 -1.27537)
(10.3422 -0.521695 -0.802372)
(8.6413 -0.26875 -2.44633)
(9.25534 0.285266 0.420529)
(9.43264 1.34503 -0.431511)
(10.3658 0.07089 0.541385)
(10.9081 0.135417 0.726539)
(9.86226 -0.343643 0.144462)
(8.86567 0.0221792 -0.346719)
(10.7366 0.984894 -0.288365)
(8.30313 0.886851 -2.16825)
(8.4238 -2.99564 -0.18415)
(7.70856 -2.21179 0.462258)
(8.90969 1.40626 1.06862)
(9.61431 -0.722097 -0.535488)
(9.70927 -0.329339 -1.65558)
(9.97136 -0.0403436 -0.803384)
(9.60479 -0.669275 -1.24129)
(8.04433 0.91068 -0.236183)
(10.3151 0.348421 0.572648)
(10.416 0.118771 -1.11599)
(9.43093 -0.279772 2.77992)
(9.32068 -1.23447 0.745)
(9.68143 -1.14251 -0.595259)
(10.1601 1.34876 -0.910336)
(10.0985 -0.241694 -0.0640984)
(9.04411 1.89414 0.73983)
(9.16047 -1.46715 -0.946306)
(11.2901 0.867464 -0.38985)
(9.83525 0.338579 -0.600905)
(10.7274 -0.069854 1.73592)
(9.6117 -0.499684 1.09753)
(9.84576 0.555912 -0.198859)
(8.37031 -0.648693 -1.00554)
(9.55932 1.01779 -0.347093)
(9.99238 -0.315431 0.335598)
(8.69996 -1.70622 0.145174)
(9.9168 0.751561 -0.774865)
(9.60936 -1.34101 1.03419)
(9.77995 -0.656319 -0.0481608)
(10.0506 1.17256 -0.543371)
(9.72932 -0.265765 -0.114388)
(10.0177 0.34844 -0.742081)
(8.42481 0.0729411 -2.7199)
(9.56704 -1.62499 -0.342978)
(9.59681 1.14958 -0.0469339)
(8.23515 0.447084 -1.32314)
(9.08936 1.55252 -0.255448)
(10.194 -0.0872285 1.31722)
(8.91553 -0.0233464 2.14491)
(9.83148 0.59035 -0.607443)
(10.3686 -0.415588 0.529782)
(11.0015 -0.37665 0.479283)
(9.99428 1.82945 0.529723)
(9.96784 -0.727283 -1.41723)
(8.24767 -0.477374 -1.18286)
(10.4801 -0.0627598 -0.235576)
(10.3317 -0.39465 -0.213597)
(10.2436 -0.338578 0.442395)
(10.4614 0.388195 0.170726)
(8.73301 -0.0685525 -0.184363)
(10.0835 0.099347 0.663875)
(10.472 0.0229413 -0.161984)
(8.29461 -0.172753 -0.733927)
(10.2026 1.32259 -1.75734)
(9.72551 -0.647081 1.13919)
(9.0793 1.85654 -1.34588)
(10.5462 0.52416 -2.29355)
(9.96971 0.729656 -0.619223)
(11.0638 0.972113 0.416978)
(7.66874 -0.110215 -3.30937)
(3.24649 0.0222955 -4.85965)
(10.217 -0.348899 0.426946)
(9.93683 0.629097 -1.58223)
(9.59818 -0.120715 -0.252023)
(9.90268 -0.285732 0.589217)
(11.2458 -0.112366 0.869905)
(11.221 -0.387407 0.965041)
(10.1088 0.990533 0.225604)
(10.6399 0.20998 1.17332)
(8.77659 1.32536 0.773169)
(10.686 0.214163 0.638557)
(10.6487 0.985618 1.08224)
(11.5274 0.537529 0.67637)
(8.45281 -1.09647 1.20583)
(0.47778 0.102394 -4.14576)
(8.03527 0.332742 -1.04272)
(10.258 0.033213 1.88847)
(7.15394 -0.595846 -0.151677)
(11.2924 0.402432 0.769086)
(9.78969 -0.313847 0.218752)
(9.85209 -0.017541 -0.0925247)
(9.07793 0.551007 -1.12322)
(9.11309 0.346027 1.70376)
(8.87932 -0.0452818 -0.568248)
(9.21382 -1.3883 -0.193108)
(12.3064 6.76758 2.60464)
(9.78246 -0.36512 0.681109)
(8.10779 0.84446 1.26963)
(10.0497 0.159401 0.129994)
(11.3518 -0.238502 0.804128)
(9.76597 1.38116 0.616406)
(7.09041 -0.55284 0.124967)
(11.2281 -0.0526563 0.613029)
(10.7967 -0.380711 0.559961)
(9.73981 -1.19331 0.303494)
(10.4089 -0.175796 -2.0577)
(0.379505 0.596023 -0.653319)
(7.35385 0.476727 -1.06048)
(9.59728 -0.188751 0.344516)
(9.50932 -0.215792 -0.969123)
(9.41794 -0.964517 -0.136612)
(9.8063 0.990034 1.76184)
(10.9285 -0.397085 0.42927)
(10.0239 0.144302 0.647073)
(9.5016 0.00571558 -1.44881)
(9.2944 0.0761772 -0.847411)
(8.40892 0.948437 1.16931)
(8.17835 -0.111751 0.0535024)
(10.9486 0.506236 1.59367)
(8.63179 0.810353 -1.02767)
(9.14819 0.149324 0.431059)
(0.354806 0.272281 -0.609259)
(10.4714 -0.32072 -0.690347)
(9.40569 0.00230767 0.64176)
(0.776651 0.423037 -1.17251)
(11.7917 1.10559 0.400279)
(9.35754 0.0925842 1.96401)
(0.258277 0.450406 -0.328927)
(0.263475 0.501388 -0.528876)
(9.85867 -0.667882 -0.499852)
(10.7798 0.427909 -1.83966)
(9.38465 0.210681 -1.40914)
(9.78593 0.59726 1.3603)
(8.96131 1.01631 0.236974)
(9.52325 1.19976 0.268939)
(9.69563 3.00486 0.664263)
(9.49712 -1.88373 0.507088)
(10.5459 0.44212 0.238326)
(8.78622 0.073125 0.13615)
(10.7662 -0.771379 0.493456)
(11.0363 -0.449115 0.213473)
(8.79695 0.25987 1.70347)
(9.97493 -0.507869 -0.852993)
(3.23625 -2.22181 -0.987687)
(7.84923 -0.386983 0.20415)
(10.0531 0.370913 -1.55398)
(8.97008 0.644753 -1.28489)
(10.2053 -0.783462 -1.06076)
(10.5135 0.328319 0.168492)
(9.31067 -0.711169 -0.545434)
(10.1889 -1.75678 -0.111775)
(10.1615 0.349343 0.982596)
(10.8384 1.33176 0.354469)
(10.7042 -1.04628 -0.285566)
(10.0622 -1.49505 -0.40299)
(11.7004 -0.292779 0.715929)
(11.3405 0.457446 0.101725)
(10.1216 0.962119 -0.556273)
(10.1726 -0.396411 0.434497)
(11.4071 0.503583 0.0129561)
(8.29691 -1.55037 1.29901)
(9.60887 0.574304 1.31757)
(10.457 -0.245488 -0.501069)
(8.7666 -0.391559 2.36795)
(9.9054 0.266999 1.18228)
(10.2159 -0.367294 -1.60702)
(9.7585 0.831594 -0.498201)
(8.30433 -0.134201 -0.952613)
(9.75566 1.04445 -1.25906)
(10.0223 0.285156 -0.378801)
(9.17289 1.19186 -0.779106)
(17.311 -2.49164 -1.66329)
(10.9619 -0.45109 0.35744)
(10.3057 -0.223999 0.192)
(10.8775 1.48968 0.623444)
(10.8536 1.34045 0.608575)
(8.66108 2.02937 0.465233)
(10.3007 1.06017 1.24845)
(10.7717 1.28905 -0.0575708)
(8.82791 -0.0659323 0.634897)
(9.77063 -1.16424 -2.40439)
(9.54529 -0.47777 1.95727)
(7.6189 -2.38664 -1.55381)
(11.0444 1.44849 1.40298)
(9.42392 0.473606 0.973633)
(9.13843 0.372765 -0.0954716)
(10.1606 -1.55467 -0.140183)
(11.7702 -0.0296916 0.137681)
(10.1589 0.155194 2.72074)
(7.71932 -1.47988 2.60427)
(8.81104 0.0133976 0.565052)
(10.1789 0.356139 -0.264144)
(9.0033 0.842309 0.0876713)
(9.95587 -0.374578 0.0297596)
(8.93389 1.37285 -0.220002)
(9.70207 -1.4645 0.67063)
(10.7022 0.0599274 0.104971)
(9.54705 1.12307 -1.08783)
(13.7595 -0.45531 -1.29095)
(10.601 0.870177 -0.399511)
(10.1017 0.582442 1.49709)
(9.02421 0.43161 -0.082388)
(9.27723 -0.120469 -0.627334)
(9.3574 0.707294 -0.677455)
(9.7618 -0.92982 -1.29289)
(10.2795 -0.533188 1.17347)
(10.1108 -1.32514 0.553534)
(9.43893 -0.331787 0.62938)
(9.26424 0.144016 -0.778004)
(9.53752 0.0215638 -0.696205)
(8.54109 0.429957 -0.0809623)
(10.9356 0.283023 -0.967993)
(11.9151 -0.203883 0.825599)
(9.65436 -0.936261 -1.10721)
(7.84192 -6.21217 1.56622)
(12.3012 -0.587526 -0.981702)
(9.28477 -0.0750154 -1.81304)
(9.36816 0.231149 -0.32817)
(10.634 0.131936 -0.571509)
(9.38962 -0.230828 -0.562751)
(8.82287 -7.00665 1.5854)
(8.4698 -0.846675 -2.03814)
(8.91178 -3.17956 0.754411)
(8.66699 -1.3245 0.715146)
(9.78631 0.250263 1.34099)
(10.6703 0.238493 0.142408)
(10.6669 -0.0963807 0.203527)
(8.64579 -0.46951 0.315884)
(9.40125 -0.839426 -1.01958)
(8.27675 0.124814 -1.46866)
(8.99959 1.63161 -0.745379)
(10.9872 -0.575026 0.495603)
(10.7864 -0.969244 -0.00977079)
(10.342 0.120685 1.68814)
(7.83243 2.46113 1.33768)
(10.6597 0.0212379 0.0705876)
(10.0338 -0.778108 0.695846)
(6.00899 5.7966 -0.0717724)
(10.4776 0.181561 0.386534)
(9.88164 1.12819 0.549303)
(10.7348 0.187703 0.516847)
(10.1077 0.049717 -0.527758)
(10.4266 -0.35685 0.397424)
(9.35933 2.06422 0.283351)
(9.72312 0.554549 1.46632)
(10.6802 0.0708431 0.0999689)
(10.3148 -0.000562809 0.392273)
(10.3234 1.69488 -0.363142)
(10.4649 0.382081 0.528653)
(9.28764 -0.70835 -1.37867)
(9.24974 -0.143808 -0.115474)
(9.98237 -0.188475 -1.79269)
(9.95495 0.0228443 0.723905)
(7.15083 0.120726 -4.40914)
(6.93656 -0.341648 -4.88292)
(9.41733 -0.405529 0.00690633)
(8.96335 -0.0697817 -3.36608)
(7.15912 0.512836 -0.959146)
(10.058 -1.06937 0.251213)
(10.6448 0.579731 -0.22612)
(9.4568 -0.395156 -0.563164)
(9.52739 0.90539 -1.44978)
(9.13079 0.159821 1.22088)
(9.15403 1.7101 -0.436782)
(8.11997 0.47441 0.734815)
(9.80217 0.251488 -0.752704)
(5.46701 -0.0306364 -5.58659)
(9.33351 -0.185161 1.54315)
(9.91198 -0.211909 0.802479)
(10.7728 -0.699988 1.27798)
(9.94572 -0.28457 -1.2503)
(9.08065 0.639358 -0.916243)
(9.7996 0.761239 -1.19994)
(9.76185 0.250947 -0.286473)
(10.1356 -0.409126 0.0918272)
(10.2409 -1.11361 1.34158)
(9.77593 -0.561807 -0.335796)
(8.4303 -0.798172 1.7503)
(9.19912 -0.461125 -0.376782)
(9.93216 0.935349 1.82663)
(9.09692 0.0321285 1.28173)
(8.29703 -0.759413 -2.25139)
(8.84615 0.308532 0.974756)
(10.602 -0.65907 -1.10668)
(9.88333 -0.182035 -0.793809)
(10.1675 0.575327 0.630912)
(9.44179 -0.503114 -0.266578)
(5.22032 0.545408 -4.26275)
(9.48207 -0.880507 -0.218601)
(0.414506 -0.31762 -0.853732)
(9.55981 -0.728593 0.507961)
(11.5883 -0.548466 0.0372197)
(0.229257 -0.413284 -0.364993)
(8.75725 0.769683 1.91868)
(9.07275 0.101217 1.01247)
(10.2108 0.0216896 -1.92358)
(10.9814 -0.484571 0.284668)
(5.82622 0.0103693 -3.13289)
(-0.149013 0.245548 -1.26261)
(1.2948 0.0170356 -2.78252)
(9.87055 1.01897 -1.17205)
(9.27098 0.59702 0.95889)
(10.2293 -0.026176 0.51108)
(8.16293 0.575915 -0.630896)
(3.63738 -0.143446 0.745193)
(10.5883 -0.335026 -0.569818)
(10.0036 -1.11061 0.176343)
(8.41346 0.280532 -1.43164)
(10.0405 -0.14008 0.816361)
(9.82344 0.120302 0.414256)
(10.5262 0.238425 -1.41642)
(9.78031 -0.38697 0.340168)
(10.7939 0.00199924 -0.0712457)
(2.02623 -0.0813648 -0.289502)
(8.31316 0.070225 -1.69944)
(9.6744 -0.668537 0.227457)
(8.67567 -1.17702 -1.78979)
(4.96121 0.170324 -2.01168)
(6.27817 -0.247599 -2.05508)
(9.65563 0.855582 -0.704292)
(6.72667 -2.19643 -0.228582)
(9.18641 0.259733 2.01805)
(4.59079 -0.362594 -3.31213)
(4.13959 -0.511669 -4.15156)
(11.2361 -0.682862 -0.163731)
(10.18 -2.3585 -1.40494)
(8.48754 0.846704 1.14736)
(10.5546 -0.489546 -0.499099)
(10.1256 -0.485917 -0.0309429)
(-0.0382972 0.585215 -0.749835)
(9.65404 -0.197147 -1.23056)
(10.0175 -0.156116 0.675978)
(9.47033 -0.959415 0.702984)
(10.1037 -0.456886 -0.0782398)
(0.232144 0.785485 -0.811661)
(0.0150239 0.843877 -1.04073)
(7.98286 -0.20649 -0.112848)
(10.8217 -0.551071 0.353896)
(10.4099 0.397917 0.325824)
(10.0012 0.299366 1.026)
(10.1891 0.518999 0.808448)
(10.6676 -1.26667 -1.14908)
(9.58225 -0.41632 -0.202079)
(10.1271 -0.596131 1.03683)
(10.5545 0.653265 0.6738)
(7.46578 -0.512545 -1.90904)
(9.79998 1.06567 0.448523)
(7.95436 0.112967 -0.644903)
(10.3402 -0.0984249 -0.341451)
(9.80347 0.145572 0.786893)
(8.61798 -1.49624 0.326202)
(4.53282 -0.217922 -1.29455)
(11.2256 -0.511043 0.554425)
(9.81077 -1.43218 -0.959212)
(9.58151 1.47427 -1.85792)
(10.382 -0.23219 0.423297)
(8.68588 -1.07931 -0.491875)
(9.75167 0.180209 -0.0288703)
(10.3057 1.10643 0.751285)
(10.4329 -0.557222 0.131645)
(1.23962 0.109613 -2.17722)
(11.1673 -0.166397 0.722593)
(8.89382 -0.313345 0.130629)
(10.8395 0.179325 -0.210132)
(8.20332 -0.235709 -2.8079)
(14.5807 -2.1772 -1.7398)
(8.68298 1.86537 0.750754)
(10.4731 1.48858 0.299894)
(12.017 0.307528 0.0910841)
(8.10978 0.569015 -0.310435)
(10.2132 -1.13544 0.307635)
(9.99454 -0.66624 1.03364)
(9.84933 0.580336 -0.761172)
(7.05378 0.832153 -3.03238)
(7.02975 -0.040743 -3.5006)
(10.8834 -1.24035 0.548442)
(14.4987 -2.5915 0.818492)
(10.5409 0.492708 0.243383)
(7.67263 0.261179 -1.99534)
(10.6577 0.0923652 -0.292735)
(10.2282 -0.50233 0.621487)
(9.01365 -0.528387 0.418703)
(10.9547 0.201662 0.680126)
(10.0027 0.77579 0.601485)
(9.77864 -1.37057 -0.0342327)
(6.49062 0.966037 -4.00446)
(12.1173 -0.170397 0.129929)
(11.5173 0.0901925 -0.317686)
(1.50526 0.736547 -2.22054)
(10.6338 -0.316804 0.143304)
(9.62573 0.0273571 -0.662758)
(9.56728 -0.35427 1.59099)
(10.4423 0.842021 -0.0239989)
(9.80724 -0.65966 0.0299644)
(11.1202 0.127469 0.562869)
(-0.0604363 0.000624555 -1.05916)
(10.3305 1.04152 -0.939304)
(11.5779 -0.172225 -0.455579)
(9.31717 -0.658935 -0.0492166)
(10.2616 -1.2605 -1.10601)
(11.6954 -1.16889 3.67742)
(9.95024 0.852208 0.357763)
(10.1229 -0.839818 -2.17904)
(9.23942 -4.64111 0.864467)
(8.85209 -0.627565 1.68718)
(8.10857 -1.12749 -1.33809)
(10.9974 -0.349476 0.678198)
(9.7055 0.499934 0.268238)
(9.60747 -0.0932589 -0.117178)
(11.6054 -0.763387 0.345482)
(5.42514 -0.490198 0.927295)
(10.2964 -1.18563 1.15162)
(9.34468 -0.0124923 -0.473811)
(9.6975 -0.115923 1.8357)
(8.75949 -0.701085 0.370268)
(10.2754 -0.182541 0.84509)
(9.59252 -1.70327 -1.12618)
(8.13183 0.336177 -0.837685)
(1.04448 2.5523 -5.66789)
(9.93817 0.140777 -0.464264)
(9.21937 -0.138565 0.731688)
(10.3081 -1.01646 -0.486108)
(8.18544 1.02738 0.696556)
(7.65362 -0.573396 1.32964)
(11.5631 -2.2431 3.82474)
(8.51698 -2.33421 2.3746)
(10.4769 -0.711743 -0.47983)
(7.26816 0.475219 3.76631)
(8.98547 1.07516 -0.00448418)
(9.03679 0.661282 0.481087)
(9.32508 0.157651 0.0227542)
(9.47007 0.407119 0.650688)
(9.41386 2.31599 1.07985)
(1.15362 -0.147133 -0.375492)
(10.8468 -0.111473 0.548065)
(9.21391 0.482796 0.695025)
(9.80649 0.30149 0.892148)
(9.12561 -0.364318 0.363594)
(9.72187 -1.23386 3.05877)
(6.30065 -1.48096 -2.71051)
(10.1661 -0.749926 1.5477)
(8.7099 1.45623 0.233332)
(8.52263 -0.0223356 -1.0027)
(10.1169 -0.158589 -2.15637)
(9.10088 -1.39683 2.01287)
(10.6284 -0.62881 0.259191)
(10.8374 0.566803 1.00258)
(9.32406 -0.590188 -0.203712)
(7.64303 -0.0567805 -3.39734)
(11.1362 -0.819254 -1.09182)
(11.4177 -0.443135 -0.0494688)
(9.69171 0.833461 3.14201)
(7.92443 3.45386 2.92254)
(9.51622 0.639795 0.084127)
(9.94529 0.13585 -0.509845)
(10.6353 0.544196 0.426983)
(7.21362 -0.122965 -2.14009)
(10.7043 0.303671 0.110442)
(10.2671 -1.46419 -0.773909)
(9.55439 -0.949965 1.46989)
(10.1885 0.119194 -0.657922)
(15.1097 -0.0820312 3.60132)
(8.92009 1.33165 1.19964)
(10.4246 0.239635 -0.199756)
(10.1855 -0.655437 -0.40432)
(9.18579 1.43019 0.149943)
(10.6903 0.713189 0.386211)
(9.48528 -1.49712 0.17138)
(14.5733 0.488112 -1.24768)
(11.2028 -0.184049 0.462282)
(5.50586 2.41025 0.195096)
(10.2671 -0.100281 0.151578)
(10.6109 -0.193778 0.0798566)
(10.8573 -1.23176 -0.702673)
(9.60292 0.135125 -2.56968)
(9.11722 0.855431 1.77575)
(6.31126 -0.995118 -1.51048)
(10.1376 -0.86864 -1.26006)
(9.93037 1.02093 0.500193)
(9.02664 0.170944 1.01619)
(14.2171 0.916918 4.1404)
(9.07725 0.0624425 -0.0354702)
(9.87087 -0.824051 -0.113361)
(9.55451 -1.13852 0.563127)
(10.6675 -0.53143 0.327867)
(9.86738 -0.556205 -0.362968)
(11.1494 0.712642 0.98838)
(10.6787 0.0697132 -1.6216)
(8.15302 0.327333 -0.641609)
(10.8978 0.267086 -1.2339)
(9.46976 0.604715 -0.588249)
(8.63171 2.52031 -1.5314)
(3.39522 0.68517 -3.12913)
(2.2412 -0.259145 -6.18251)
(5.97517 2.47638 1.17723)
(12.3396 -0.491398 -1.00751)
(12.0665 -0.0925706 0.299938)
(10.5424 -2.02031 0.24612)
(8.95288 1.31373 -0.118616)
(9.13209 1.43996 2.61457)
(8.18749 -1.40671 0.785256)
(5.1033 -0.41416 0.717208)
(7.66586 0.229831 1.77912)
(11.0077 0.30403 0.804665)
(1.7172 2.84996 -2.98921)
(9.97321 -0.783307 0.822645)
(10.8217 0.829374 -0.391796)
(9.88334 0.150753 1.91879)
(7.03451 0.292428 -0.724727)
(8.36815 0.171927 -1.66474)
(10.0906 2.0755 1.68553)
(8.91045 -0.756967 -0.16387)
(9.64495 0.574662 0.630038)
(11.644 -0.428494 -1.21312)
(9.47903 -0.346391 0.480472)
(9.65429 -0.111125 -0.194324)
(8.68955 0.00300579 0.942232)
(10.6421 0.773764 0.592717)
(9.67897 1.03035 0.980914)
(11.4065 -0.388564 -1.3623)
(8.86821 -2.2315 -0.50617)
(8.91634 -0.344222 0.141485)
(9.8043 -0.729856 0.515576)
(8.48032 -0.791429 -3.15323)
(7.80748 0.562923 -0.776307)
(8.20941 0.10788 2.60802)
(9.93122 -1.06436 0.31716)
(9.70198 -0.119943 0.177562)
(11.0468 -0.430853 0.0731405)
(13.7353 -0.397803 -1.513)
(10.7198 -0.553861 0.63596)
(10.9608 -0.340842 -0.694967)
(10.2247 0.346144 0.0986117)
(6.55964 -0.958056 0.247451)
(9.18584 0.522724 -1.99598)
(9.7812 -0.626323 0.996142)
(8.86619 -0.133666 0.470002)
(15.5988 1.37281 0.822343)
(5.83041 3.06083 0.21589)
(8.00069 1.32906 0.560631)
(-0.0526441 0.55426 -0.379292)
(10.5935 -0.450826 -0.715216)
(10.9058 -0.117154 0.422568)
(9.50621 1.27859 3.02945)
(0.292085 0.702866 -0.90169)
(10.5377 0.172125 -0.401346)
(10.0308 -1.82176 0.302371)
(8.52307 -1.5943 -0.792045)
(10.0489 -0.85547 0.686866)
(12.3036 -0.301192 -0.017943)
(10.8145 -0.349092 0.12549)
(10.0214 0.191815 0.461909)
(10.7445 -1.15115 1.11381)
(9.59937 -0.207091 -1.8939)
(10.5921 -0.145741 -1.28746)
(6.04127 -0.443222 -4.63009)
(13.7483 2.56292 -3.30773)
(11.2798 -0.273858 0.57337)
(6.6979 2.1246 1.86307)
(10.2098 -0.095334 0.484083)
(2.31088 -0.762594 -1.39484)
(0.851263 4.64153 -2.77786)
(9.93241 -0.186736 0.727551)
(9.62181 0.668518 0.357059)
(10.3587 -0.993869 -0.419979)
(10.1331 -1.12958 -1.65118)
(9.15473 0.492635 -0.574259)
(9.92637 0.678833 0.161231)
(9.39243 -1.0445 0.336773)
(9.1724 1.08116 2.30003)
(9.74735 0.941838 -0.321961)
(10.9095 0.281002 1.20287)
(10.3642 0.558138 0.582573)
(10.1404 0.205805 0.0931543)