/*--------------------------------*- C++ -*----------------------------------*\
| =========                 |                                                 |
| \\      /  F ield         | OpenFOAM: The Open Source CFD Toolbox           |
|  \\    /   O peration     | Version:  2506                                  |
|   \\  /    A nd           | Website:  www.openfoam.com                      |
|    \\/     M anipulation  |                                                 |
\*---------------------------------------------------------------------------*/
FoamFile
{
    version     2.0;
    format      ascii;
    arch        "LSB;label=32;scalar=64";
    class       volScalarField;
    location    "0.00742553";
    object      k;
}
// * * * * * * * * * * * * * * * * * * * * * * * * * * * * * * * * * * * * * //

dimensions      [0 2 -2 0 0 0 0];

internalField   nonuniform List<scalar> 
47425
(
0.374014
0.390025
0.382222
0.383079
0.397082
0.384255
0.395772
0.379651
0.384059
0.482419
0.377825
0.386448
0.389712
0.378649
0.389876
0.380129
0.379441
0.409425
0.656859
0.443313
0.382633
0.380855
0.379506
0.374451
0.385405
0.384436
0.383744
0.636916
0.385076
0.391937
0.404679
0.378763
0.399309
0.383846
0.375462
0.383448
0.379429
0.398173
0.403911
0.379148
0.385389
0.37427
0.380249
0.386531
0.673709
0.388985
0.379543
0.388649
0.398064
0.381403
0.52648
0.386696
0.3911
0.520021
0.386014
0.380602
0.376573
0.404057
0.410996
0.398269
0.523463
0.871144
0.58267
0.390956
0.386225
0.388036
0.384928
0.379204
0.575939
0.398911
0.384858
0.389524
0.383682
0.384199
0.570923
0.381903
0.606752
0.384294
0.620699
0.405461
0.592668
0.384337
0.385733
0.388393
0.382401
0.379455
0.376953
0.371423
0.385447
0.439023
0.383942
0.377089
0.387028
0.381547
0.386128
0.382065
0.377222
0.376132
0.39299
0.381799
0.373457
0.440037
0.383281
0.45471
0.380305
0.39383
0.385221
0.373696
0.372204
0.393385
0.468111
0.371637
0.383656
0.378789
0.39047
0.578266
0.390409
0.518178
0.391723
0.38485
0.375639
0.392897
0.381192
0.395142
0.398246
0.384968
0.374022
0.381122
0.374308
0.385745
0.38463
0.385152
0.473377
0.383316
0.387297
0.399557
0.387751
0.382794
0.390075
0.377238
0.383487
0.387552
0.381744
0.383065
0.384017
0.386632
0.388494
0.375043
0.377198
0.382582
0.38416
0.585923
0.391377
0.604617
0.387077
0.382359
0.392522
0.65037
0.387576
0.379642
0.382708
0.380795
0.386963
0.38473
0.470672
0.604957
0.376717
0.580185
0.392639
0.626704
0.593399
0.391696
0.386265
0.386615
0.385163
0.420452
0.601839
0.381383
0.383623
0.371308
0.583719
0.381814
0.387162
0.395649
0.379553
0.37837
0.381167
0.430202
0.390643
0.379183
0.399035
0.394422
0.412624
0.39005
0.375013
0.380847
0.393205
0.371235
0.380965
0.379868
0.379374
0.402204
0.380111
0.380646
0.390263
0.380824
0.388788
0.381053
0.379143
0.405648
0.386266
0.385911
0.392369
0.39349
0.381137
0.388283
0.390588
0.396748
0.390994
0.385115
0.429284
0.390059
0.381888
0.399034
0.396081
0.422638
0.380544
0.393169
0.388329
0.396489
0.392755
0.379218
0.384225
0.378521
0.378059
0.372519
0.409642
0.39014
0.406384
0.375593
0.377882
0.385307
0.37974
0.390126
0.38268
0.410116
0.371837
0.417126
0.373782
0.393985
0.379847
0.407941
0.382683
0.387845
0.393071
0.386944
0.38471
0.388569
0.376215
0.40013
0.394325
0.399412
0.391848
0.382047
0.389558
0.385744
0.376838
0.388664
0.387601
0.3874
0.395835
0.39808
0.394615
0.393464
0.397708
0.385407
0.397073
0.479829
0.39284
0.512107
0.513803
0.375407
0.495413
0.384726
0.382639
0.389446
0.376841
0.373429
0.38396
0.388869
0.525248
0.399141
0.381117
0.377196
0.379978
0.386848
0.383618
0.395136
0.375565
0.389895
0.38498
0.38542
0.376231
0.380745
0.62435
0.65524
0.571293
0.372547
0.377945
0.390803
0.372419
0.52077
0.378665
0.374937
0.434187
0.384508
0.379127
0.389366
0.382302
0.51533
0.430098
0.386956
0.380685
0.374046
0.384649
0.374586
0.391141
0.380558
0.379693
0.390241
0.385912
0.583493
0.385735
0.377109
0.391377
0.38672
0.58272
0.379081
0.372565
0.390099
0.396787
0.395293
0.377587
0.376379
0.379725
0.396675
0.397909
0.388086
0.381408
0.38509
0.397028
0.392801
0.375842
0.384335
0.389532
0.397624
0.384506
0.385074
0.397817
0.382689
0.411891
0.385237
0.387159
0.384546
0.388929
0.383115
0.389682
0.396822
0.377281
0.391925
0.390117
0.469017
0.371251
0.378417
0.384958
0.37857
0.38212
0.38578
0.397337
0.380811
0.393252
0.383503
0.376039
0.379175
0.376747
0.381935
0.385138
0.382258
0.396364
0.3867
0.382853
0.38819
0.383402
0.39239
0.38144
0.383505
0.374237
0.378863
0.402758
0.383021
0.452571
0.376024
0.458914
0.380222
0.392191
0.388157
0.378153
0.378083
0.372355
0.38889
0.386689
0.847841
0.555023
0.396754
0.393683
0.3919
0.393573
0.385297
0.377301
0.393799
0.381979
0.390232
0.385637
0.381608
0.384845
0.377181
0.396001
0.385153
0.38152
0.474596
0.349896
0.390039
0.549428
0.428528
0.383123
0.398874
0.489969
0.383267
0.384974
0.385892
0.386172
0.461841
0.387178
0.374109
0.379698
0.38515
0.386807
0.394369
0.370638
0.482386
0.451095
0.463708
0.38548
0.42601
0.382213
0.387484
0.381701
0.385799
0.385139
0.383011
0.388194
0.388827
0.399779
0.38078
0.388055
0.383619
0.382443
0.383931
0.382211
0.388647
0.385738
0.3853
0.37893
0.386384
0.394226
0.386698
0.383899
0.496672
0.372966
0.417603
0.393057
0.391056
0.399747
0.388831
0.387153
0.391346
0.39541
0.387813
0.393419
0.387932
0.377832
0.388984
0.383498
0.38435
0.445626
0.38192
0.399279
0.378618
0.404658
0.373332
0.393261
0.379677
0.389825
0.388422
0.384962
0.38759
0.377391
0.375453
0.389129
0.379819
0.37987
0.390864
0.386537
0.377745
0.379678
0.384085
0.388931
0.384405
0.399067
0.392336
0.382539
0.396812
0.565566
0.393365
0.390683
0.380674
0.380842
0.432799
0.43485
0.383703
0.384786
0.382577
0.389348
0.395499
0.440361
0.391813
0.57989
0.397165
0.400052
0.406606
0.434367
0.380619
0.376388
0.379204
0.384957
0.385148
0.384428
0.700537
0.374581
0.39143
0.387201
0.426588
0.400343
0.399491
0.41857
0.412792
0.388621
0.383302
0.349045
0.377841
0.378193
0.387039
0.376925
0.376972
0.406997
0.391201
0.401534
0.382031
0.381387
0.375679
0.458887
0.387986
0.375098
0.35102
0.37969
0.392309
0.399781
0.522495
0.381222
0.249064
0.259949
0.377863
0.408148
0.37705
0.387631
0.387689
0.383286
0.530434
0.409008
0.392276
0.383547
0.424889
0.40547
0.387514
0.378435
0.419943
0.416978
0.383428
0.380693
0.379867
0.38499
0.379535
0.388431
0.383276
0.392459
0.389954
0.394569
0.384778
0.425607
0.396383
0.380012
0.436657
0.377051
0.382741
0.379216
0.380894
0.380432
0.393839
0.383201
0.408832
0.393898
0.386331
0.387534
0.812811
0.390575
0.394274
0.528225
0.526688
0.371838
0.38538
0.498902
0.387615
0.435266
0.427451
0.389396
0.515512
0.393427
0.371298
0.3923
0.413073
0.391735
0.394622
0.380571
0.39332
0.378766
0.379263
0.387489
0.384028
0.387364
0.455261
0.607425
0.389574
0.398275
0.38278
0.387059
0.385503
0.389975
0.387586
0.402616
0.38849
0.38696
0.392333
0.381207
0.388362
0.425624
0.391814
0.637897
0.48257
0.383171
0.394575
0.385222
0.374045
0.608799
0.386561
0.562825
0.386805
0.392764
0.387536
0.370958
0.382975
0.385624
0.424286
0.399261
0.37606
0.396757
0.388073
0.38571
0.391396
0.378369
0.668179
0.386876
0.388257
0.388824
0.386134
0.379692
0.39153
0.3758
0.393263
0.37664
0.387013
0.38897
0.38791
0.372606
0.389741
0.378723
0.464861
0.515012
0.384432
0.446031
0.389269
0.380961
0.386673
0.372906
0.384547
0.396139
0.380318
0.377614
0.383447
0.574402
0.438813
0.374729
0.382285
0.381665
0.377783
0.377983
0.375501
0.383298
0.448299
0.381628
0.373761
0.385099
0.380115
0.373947
0.394342
0.384082
0.38154
0.384708
0.383062
0.395367
0.491831
0.378435
0.370668
0.422225
0.46838
0.300579
0.383303
0.391248
0.403421
0.398532
0.48227
0.318025
0.56483
0.384282
0.381537
0.391521
0.386559
0.488547
0.376979
0.376816
0.378806
0.372373
0.392713
0.385526
0.383373
0.385312
0.380221
0.40988
0.389211
0.390367
0.466735
0.457306
0.392487
0.425595
0.456591
0.531287
0.54201
0.397767
0.398413
0.381905
0.379222
0.372524
0.304151
0.386228
0.375307
0.378861
0.372968
0.351041
0.310462
0.377952
0.392679
0.378938
0.377789
0.38647
0.378874
0.378617
0.391665
0.376788
0.436761
0.376573
0.375241
0.383568
0.382082
0.38838
0.472592
0.430475
0.376796
0.408243
0.38424
0.375814
0.379227
0.39395
0.384272
0.533635
0.383511
0.379718
0.400665
0.420125
0.703779
0.387674
0.381593
0.427844
0.391854
0.379136
0.387565
0.38163
0.390893
0.562456
0.41424
0.637348
0.384495
0.415664
0.376466
0.394989
0.382386
0.380468
0.381989
0.38771
0.582576
0.450344
0.395085
0.440222
0.389673
0.380353
0.394132
0.400538
0.382893
0.382859
0.316415
0.385462
0.401392
0.378746
0.396884
0.600519
0.388147
0.387218
0.506475
0.395456
0.379875
0.412306
0.400036
0.373056
0.428301
0.443588
0.377743
0.386824
0.376921
0.379542
0.377159
0.3824
0.407194
1.52717
0.382895
0.381762
0.417446
0.450388
0.444756
0.518552
0.385183
0.386966
0.393879
0.383826
0.391955
0.382783
0.392316
0.38839
0.386584
0.383666
0.384147
0.378518
0.373857
0.385807
0.475154
0.396323
0.439406
0.376177
0.416433
0.386003
0.38602
0.392315
0.384697
0.39445
0.437125
0.381348
0.413039
0.484544
0.400138
0.399181
0.386094
0.437475
0.378175
0.390545
0.395945
0.404784
0.549552
0.403123
0.376571
0.387744
0.394818
0.38396
0.377453
0.591168
0.402616
0.419938
0.389432
0.402069
0.390206
0.480707
0.3924
0.521387
0.401909
0.392537
0.389232
0.545827
0.378892
0.384224
0.38282
0.393737
0.384228
0.384265
0.422853
0.41445
0.399027
0.375439
0.400312
0.540669
0.659842
0.47673
0.47573
0.520142
0.398565
0.384182
0.427773
0.378476
0.45097
0.378835
0.391215
0.556629
0.391167
0.388177
0.386789
0.420682
0.414267
0.39025
0.373067
0.395533
0.44156
0.381972
0.382961
0.381299
0.40204
0.374114
0.402629
0.380723
0.399606
0.394273
0.383017
0.38744
0.39169
0.380681
0.392734
0.40738
0.450274
0.392806
0.402695
0.385792
0.431473
0.384212
0.375476
0.370876
0.810781
0.422277
0.444988
0.314209
0.389194
0.390054
0.936351
0.338698
0.391557
0.415185
0.38599
0.382469
0.43053
0.377472
0.391184
0.388888
0.401319
0.383286
0.519136
0.700543
0.37985
0.773795
0.379152
0.550105
0.687589
0.373519
0.381534
0.382368
0.465169
0.383514
0.386547
0.395665
0.520126
0.380397
0.38814
0.389793
0.374062
0.37461
0.38566
0.457065
0.456283
0.387951
0.405545
0.388337
0.515525
0.383969
0.375084
0.429057
0.475031
0.383618
0.396263
0.652227
0.798312
0.501144
0.382123
0.40071
0.440386
0.530446
0.399684
0.46398
0.431933
0.385571
0.399051
0.452267
0.559599
0.399113
0.402757
0.376483
0.388272
0.399502
0.400422
0.451325
0.37525
0.381643
0.385341
0.384804
0.525064
0.861526
0.388837
0.539929
0.398765
0.371669
0.447259
0.381772
0.389524
0.389089
0.394768
0.394122
0.387531
0.564611
0.385334
0.64946
0.691218
0.492225
0.400809
0.382065
0.378976
0.385728
0.378227
0.507164
0.947309
0.386422
0.535868
0.5072
0.561107
0.446748
0.660858
0.49723
0.378032
0.381802
1.31562
0.377367
0.386239
0.383046
0.554926
0.560624
0.375205
0.390002
0.50043
0.414624
0.462815
0.522716
0.396341
0.470953
0.738827
0.384972
0.396423
0.52887
0.385889
0.707203
0.675322
0.379494
0.386152
0.384539
0.386093
0.395795
0.380675
0.385732
0.397696
0.386215
0.464522
0.402947
0.399641
0.459341
0.387352
0.669656
0.3871
0.387287
0.400627
0.380081
0.604214
0.373841
0.380408
0.373477
0.469232
0.372961
0.822668
0.386963
0.481786
0.392106
0.9535
0.516372
0.403999
0.402638
0.486185
0.409051
0.38417
0.390018
0.511541
0.58324
0.42022
0.525949
0.392783
0.443266
0.454761
0.392008
0.38107
0.480307
0.431162
0.376403
0.385684
0.37754
0.388188
0.475479
0.454465
0.380259
0.39229
0.38595
0.726416
0.385149
0.576413
0.403637
0.383005
0.387683
0.397025
0.401282
0.511951
0.403538
0.39509
0.418546
0.439052
0.37319
0.644715
0.43429
0.386631
0.654675
0.528671
0.388192
0.441834
0.390935
0.407554
0.634739
0.408765
0.73289
0.435973
0.38596
0.411024
0.392736
0.384847
0.389289
0.425279
0.423857
0.424004
0.379697
0.419037
0.381674
0.390525
0.412117
0.401793
0.392394
0.405334
0.385218
0.634929
0.413146
0.415345
0.420312
0.560927
0.381002
0.465727
0.329038
0.396124
0.399723
0.401386
0.425042
0.423894
0.497003
0.378025
0.589425
0.431259
0.385239
0.410121
0.38948
0.424001
0.386314
0.413585
0.489144
0.370169
0.58403
0.39113
0.631559
0.401504
0.392668
0.387113
0.407791
0.407661
0.402999
0.395999
0.388526
0.725753
0.392616
0.384273
0.630201
0.378273
0.378612
0.536245
0.393086
0.420262
0.807744
0.396508
0.433003
0.385843
0.664257
0.474615
0.397384
0.447663
0.428185
0.393626
0.448732
0.598277
0.757765
0.406648
0.384106
0.400282
0.386539
0.380517
0.391884
0.507987
0.382625
0.373073
0.393937
0.381562
0.394161
0.386818
0.397699
0.424279
0.387806
0.446118
0.388023
0.397758
0.403085
0.38125
0.388152
0.395934
0.398157
0.409017
0.375572
0.384557
0.384227
0.388293
0.388654
0.536529
0.370659
0.388083
0.381308
0.389043
0.471362
0.374209
0.381464
0.444588
0.778597
0.543887
0.387294
0.53464
0.48596
0.379208
0.368983
0.458707
0.34179
0.416153
0.396931
0.387256
0.419647
0.37973
0.409616
0.390356
0.379424
0.374283
0.374868
0.387883
0.471603
0.385618
0.395194
0.586916
0.391446
0.458932
0.414946
0.579257
0.377809
0.388074
0.391013
0.382392
0.383678
0.380252
0.379472
0.417175
0.429783
0.567595
0.386705
0.471798
0.385491
0.376377
0.394979
0.374231
0.533363
0.384473
0.493711
0.388404
0.523349
0.611336
0.380729
0.377958
0.397078
0.3767
0.3791
0.386643
0.386449
0.388908
0.383618
0.384989
0.396835
0.384802
0.406447
0.385534
0.394866
0.381475
0.389877
0.389572
0.38625
0.424779
0.38285
0.44899
0.379432
0.379126
0.390679
0.387011
0.377249
0.375595
0.385439
0.388987
0.391526
0.37788
0.389836
0.387846
0.375009
0.444895
0.439451
0.380544
0.391405
0.444475
0.372809
0.378846
0.384949
0.378599
0.386139
0.384289
0.391146
0.390014
0.38683
0.383449
0.420305
0.381575
0.387138
0.384248
0.582958
0.3889
0.627095
0.581493
0.619758
0.388925
0.388149
0.386452
0.377128
0.384797
0.524462
0.395648
0.376234
0.377666
0.380979
0.38845
0.426821
0.386612
0.379184
0.393329
0.383851
0.37512
0.385118
0.373707
0.379415
0.378825
0.385581
0.395063
0.399505
0.383892
0.385063
0.379454
0.381889
0.386413
0.37646
0.384888
0.384489
0.389078
0.39342
0.382129
0.374931
0.386346
0.389103
0.37509
0.380412
0.379919
0.385571
0.388845
0.378817
0.444153
0.383993
0.424544
0.390585
0.385866
0.357312
0.378888
0.384953
0.391259
0.379523
0.382022
0.38562
0.480307
0.404051
0.458262
0.371734
0.383493
0.385956
0.384297
0.386998
0.399356
0.387926
0.379259
0.374208
0.417768
0.446205
0.545276
0.384289
0.425312
0.393288
0.409691
0.393375
0.451496
0.3816
0.384135
0.390534
0.555117
0.382587
0.382544
0.386517
0.386999
0.38975
0.619441
0.396107
0.386056
0.40356
0.382139
0.397914
0.673392
0.595844
0.391028
0.377866
0.37896
0.386976
0.387818
0.384989
0.591469
0.538581
0.385279
0.382709
0.422546
0.392583
0.377915
0.418663
0.387691
0.386926
0.383559
0.388789
0.399544
0.378645
0.384812
0.389027
0.403083
0.380758
0.389476
0.464851
0.382298
0.398665
0.443411
0.392703
0.450048
0.380056
0.389275
0.392699
0.388626
0.402643
0.397834
0.62354
0.450403
0.386238
0.385894
0.377531
0.385242
0.380227
0.385295
0.383132
0.376957
0.395242
0.385898
0.474507
0.429172
0.570607
0.56798
0.392763
0.387723
0.383772
0.384744
0.384305
0.387977
0.3904
0.377282
0.390643
0.361735
0.31312
0.376848
0.389222
0.39751
1.01567
0.396719
0.386541
0.384101
0.461882
0.593658
0.377622
0.411352
0.414618
0.483234
0.424346
0.418707
0.378826
0.380178
0.401362
0.627438
0.381864
0.390406
0.379875
0.393416
0.369584
0.28491
0.308973
0.391334
0.392135
0.388872
0.392884
0.397974
0.389871
0.410116
0.421075
0.301814
0.356265
0.345684
0.409838
0.388761
0.660118
0.386061
0.616021
0.38742
0.600775
0.384461
0.454153
0.391229
0.417
0.391708
0.395237
0.382514
0.383207
0.385118
0.435641
0.416785
0.39014
0.384891
0.721159
0.315793
0.384957
0.452974
0.31829
0.450682
0.3772
0.380746
0.338234
0.48705
0.39007
0.400539
0.732881
0.379352
0.548611
0.87754
0.320312
0.411575
0.389538
0.399178
0.367471
0.385009
0.371481
0.459045
0.386282
0.38028
0.375303
0.376648
0.379464
0.384183
0.379057
0.429741
0.38115
0.376987
0.39616
0.390766
0.42196
0.384822
0.388176
0.381592
0.382908
0.391323
0.451268
0.371829
0.375863
0.449545
0.785119
0.394024
0.678821
0.399637
0.447147
0.43113
0.424118
0.396322
0.380925
0.393977
0.380527
0.377916
0.383231
0.37522
0.375702
0.386836
0.393251
0.374866
0.368914
0.392907
0.385948
0.385044
0.545628
0.387347
0.383229
0.379429
0.378606
0.431797
0.468611
0.391929
0.396998
0.379457
0.442267
0.440075
0.387988
0.3872
0.614879
0.395781
0.384499
0.378423
0.411688
0.382858
0.371345
0.389028
0.466612
0.383991
0.378889
0.417232
0.384804
0.390159
0.388012
0.393541
0.388675
0.39239
0.385737
0.378292
0.387188
0.396382
0.376367
0.381254
0.495121
0.38071
0.434745
0.387119
0.392604
0.430051
0.400994
0.381442
0.403547
0.544216
0.412267
0.385726
0.377275
0.391715
0.421476
0.389678
0.386066
0.610639
0.448599
0.406667
0.443304
0.385959
0.39083
0.474962
0.462681
0.653005
0.38629
0.389708
0.542419
0.392564
0.42112
0.395188
0.415634
0.47246
0.381686
0.389738
0.66953
0.383793
0.386824
0.380717
0.375811
0.394248
0.418249
0.58293
0.38799
0.375095
0.342852
0.487349
0.541382
0.422435
0.511793
0.392831
0.646428
0.392372
0.390475
0.552503
0.401343
0.398431
0.34967
0.476527
0.544804
0.386749
0.383624
0.322971
0.386036
0.381022
0.552346
0.385474
0.401696
0.383343
0.396954
0.379201
0.381314
0.660826
0.321543
0.444311
0.364637
0.394047
0.384011
0.388765
0.387355
0.387218
0.387468
0.38221
0.386344
0.386932
0.304785
0.296979
0.380895
0.398536
0.37746
0.395055
0.40452
0.384686
0.383058
0.392084
0.308144
0.407531
0.396159
0.378457
0.379513
0.394057
0.386421
0.38261
0.538555
0.391522
0.459187
0.412973
0.390781
0.382167
0.384359
0.673348
0.379364
0.373252
0.40039
0.389415
0.424111
0.381668
0.401942
0.387875
0.488519
0.382437
0.388341
0.391748
0.381151
0.403961
0.38017
0.452166
0.473772
0.379383
0.43065
0.40712
0.384031
0.543238
0.386378
0.387243
0.385441
0.399566
0.507571
0.444344
0.397593
0.571904
0.423069
0.3926
0.446094
0.480177
0.390631
0.455594
0.41523
0.380736
0.516436
0.595439
0.387953
0.605884
0.40889
0.389566
0.486499
0.396981
0.388034
0.382576
0.545452
0.367784
0.375843
0.473292
0.397805
0.385546
0.38727
0.383444
0.400241
0.440062
0.535942
0.387327
0.394803
0.463671
0.381084
0.389069
0.46829
0.383967
0.390109
0.471818
0.401031
0.65912
0.595989
0.530361
0.409775
0.391545
0.418168
0.375902
0.386409
0.437597
0.384763
0.373865
0.390697
0.380995
0.427638
0.468867
0.389481
0.452189
0.387409
0.464045
0.394093
0.628285
0.381849
0.408651
0.390512
0.379686
0.392951
0.389486
0.387903
0.384849
0.379397
0.504646
0.376038
0.387535
0.387167
0.389576
0.383261
0.397538
0.388571
0.433309
0.391987
0.395201
0.390044
0.416909
0.358874
0.528573
0.474217
0.441019
0.532273
0.399068
0.403421
0.243118
0.352966
0.482189
0.403844
0.423514
0.402432
0.546195
0.406839
0.775916
0.406291
0.391057
0.418193
0.62023
0.399403
0.312434
0.399473
0.320511
0.417438
0.425053
0.467058
0.382727
0.377612
0.409566
0.306879
0.383808
0.520822
0.394395
0.389109
0.380267
0.388132
0.447426
0.37699
0.553679
0.435558
0.387309
0.392433
0.390919
0.433505
0.468909
0.382863
0.384085
0.407837
0.554451
0.394665
0.378791
0.429274
0.472106
0.385238
0.389853
0.386443
0.388111
0.505909
0.394659
0.453756
0.572764
0.380183
0.39108
0.389197
0.387349
0.293618
0.391722
0.49034
0.384079
0.387824
0.689035
0.89288
0.376259
0.381384
0.380856
0.386851
0.440148
0.397009
0.557228
0.39184
0.385666
0.426131
0.385655
0.390007
0.383953
0.388049
0.387246
0.432966
0.419011
0.430937
0.424535
0.415497
0.385888
0.380791
0.517677
0.588495
0.42952
0.431529
0.391845
0.519117
0.436063
0.565989
0.459996
0.393008
0.389338
0.387954
0.403303
0.399234
0.460557
0.385585
0.403273
0.686758
0.394832
0.533436
0.390155
0.381496
0.376827
0.38367
0.382685
0.37367
0.413737
0.376659
0.37336
0.373852
0.386593
0.422879
0.469987
0.386066
0.487262
0.406344
0.397671
0.375853
0.381988
0.430218
0.395092
0.42593
0.386302
0.382348
0.398111
0.378475
0.377122
0.401276
0.390692
0.412668
0.385393
0.448539
0.397613
0.416028
0.38419
0.428228
0.398939
0.382924
0.378101
0.383959
0.386801
0.559597
0.373904
0.394423
0.324122
0.393962
0.388308
0.392736
0.392417
0.421907
0.396958
0.382467
0.383334
0.385914
0.409971
0.409331
0.379549
0.605355
0.386773
0.393055
0.388258
0.378594
0.454969
0.384536
0.391654
0.470132
0.389439
0.385794
0.400654
0.471214
0.380564
0.483946
0.379005
0.38899
0.435598
0.402434
0.388166
0.4503
0.389786
0.409815
0.424835
0.420786
0.455335
0.678789
0.3856
0.402276
0.394392
0.391964
0.395486
0.389587
0.389803
0.380093
0.392278
0.502324
0.389506
0.388253
0.466849
0.403117
0.582883
0.387985
0.390011
0.413456
0.375696
0.387169
0.389707
0.383013
0.400478
0.392913
0.386776
0.396667
0.335154
0.397161
0.390094
0.506969
0.390571
0.895905
0.558174
0.383609
0.384418
0.449789
0.38982
0.313723
0.419051
0.358705
0.43577
0.295799
0.401889
0.393423
0.420356
0.540161
0.518387
0.38983
0.367309
0.308718
0.744046
0.634982
0.484252
0.731037
0.459776
0.340545
0.588072
0.390372
0.404804
0.542042
0.420692
0.448053
0.40717
0.462569
0.49305
0.386935
0.388217
0.37936
0.384669
0.380464
0.380263
0.528219
0.391729
0.383941
0.500936
0.37566
0.376844
0.392291
0.384403
0.386127
0.389401
0.394062
0.386101
0.423836
0.663068
0.378167
0.386279
0.393874
0.382789
0.554255
0.448697
0.394976
0.386599
0.499771
0.378688
0.401619
0.385915
0.402242
0.380175
0.374834
0.379023
0.379258
0.385065
0.383328
0.418231
0.38656
0.394425
0.386841
0.395757
0.384525
0.38532
0.376974
0.39983
0.378934
0.403762
0.511138
0.425264
0.398038
0.413615
0.381374
0.392562
0.386117
0.381074
0.38595
0.382307
0.382669
0.401788
0.401271
0.382649
0.40372
0.446746
0.389465
0.389747
0.423364
0.39333
0.460466
0.392149
0.474736
0.715222
0.393716
0.402033
0.444911
0.489318
0.403091
0.384963
0.381796
0.383668
0.382159
0.383129
0.380293
0.396918
0.393561
0.379943
0.385464
0.388581
0.380451
0.40479
0.421303
0.407448
0.38269
0.38737
0.381235
0.548093
0.387704
0.374916
0.394844
0.594434
0.878121
0.396811
0.408314
0.383748
0.392547
0.392917
0.498703
0.421654
0.379569
0.385446
0.385638
0.379787
0.400627
0.394901
0.38412
0.379215
0.417207
0.397442
0.423603
0.414924
0.445681
0.444813
0.393624
0.394213
0.379764
0.377459
0.388393
0.383432
0.379673
0.550291
0.392225
0.392152
0.583066
0.393802
0.394489
0.315302
0.420379
0.383529
0.375503
0.390031
0.38849
0.539642
0.381546
0.432969
0.432528
0.468152
0.632236
0.627944
0.379601
0.391589
0.473113
0.381544
0.498104
0.484409
0.574665
0.3882
0.376863
0.426971
0.390414
0.522909
0.416853
0.378306
0.595953
0.55517
0.392713
0.38326
0.628402
0.385767
0.378272
0.373521
0.386081
0.38406
0.380539
0.477657
0.389745
0.631171
0.380983
0.395843
0.37425
0.68038
0.378019
0.624887
0.39506
0.394969
0.380952
0.442177
0.383982
0.397727
0.377398
0.421733
0.440851
0.442298
0.554527
0.377337
0.382993
0.543773
0.397472
0.390751
0.400837
0.386437
0.380017
0.393419
0.391804
0.539162
0.425784
0.392221
0.37403
0.412964
0.388644
0.394705
0.388127
0.382846
0.39457
0.382631
0.384076
0.381233
0.450947
0.380234
0.382209
0.386443
0.379752
0.377529
0.382221
0.383399
0.379528
0.386564
0.393351
0.38989
0.380597
0.322059
0.391925
0.404393
0.396441
0.355734
0.664576
0.386292
0.517233
0.404665
0.330488
0.388809
0.394789
0.386716
0.38898
0.383985
0.391866
0.404917
0.384791
0.383992
0.38232
0.615555
0.38136
0.393719
0.401157
0.940766
0.290789
0.391792
0.587269
0.381011
0.547051
0.459564
0.902192
0.294788
0.387077
0.37543
0.383347
0.385132
0.483436
0.414517
0.412476
0.385763
0.385779
0.517004
0.395164
0.399069
0.38039
0.38434
0.388923
0.389715
0.54287
0.387087
0.386598
0.382461
0.385188
0.388713
0.37622
0.388967
0.794427
0.820838
0.429832
0.443182
0.519374
0.38016
0.385527
0.376289
0.380601
0.37855
0.408042
0.384082
0.429634
0.391357
0.387432
0.386102
0.391229
0.392306
0.378953
0.384044
0.384757
0.383236
0.478875
0.390247
0.402464
0.557551
0.384936
0.508239
0.621191
0.38619
0.394208
0.403548
0.459905
0.388629
0.402786
0.519099
0.384927
0.411575
0.383696
0.406182
0.379376
0.381553
0.411476
0.499986
0.391934
0.391985
0.559143
0.407019
0.492157
0.500921
0.398305
0.797477
0.39621
0.408752
0.397645
0.388216
0.429006
0.395266
0.388101
0.380211
0.374852
0.518969
0.289372
0.384772
0.393829
0.434006
0.289677
0.430573
0.388113
0.380054
0.419164
0.375342
0.417907
0.383142
0.453182
0.384424
0.387952
0.381424
0.702391
0.387047
0.407186
0.388801
0.386119
0.38926
0.392552
0.377372
0.379151
0.436893
0.392323
0.556793
0.378454
0.504054
0.444273
0.402473
0.404108
0.395588
0.433776
0.391163
0.38754
0.381403
0.387198
0.563294
0.398136
0.456411
0.41009
0.397042
0.388806
0.3892
0.385109
0.378315
0.388847
0.409256
0.402765
0.393099
0.380989
0.399591
0.381975
0.41922
0.381622
0.392291
0.385202
0.443232
0.588902
0.387235
0.385863
0.381927
0.438378
0.374
0.388995
0.375471
0.379329
0.383332
0.381335
0.378065
0.387208
0.387341
0.417339
0.456376
0.378169
0.514534
0.380206
0.378819
0.37427
0.397786
0.493951
0.390471
0.565866
0.380671
0.372626
0.632744
0.667865
0.382508
0.379969
0.49877
0.391234
0.405528
0.390809
0.400897
0.390325
0.427898
0.3778
0.395257
0.386401
0.384563
0.457386
0.384243
0.38821
0.389561
0.375365
0.392495
0.420918
0.382986
0.382937
0.382846
0.392854
0.390215
0.471743
0.396472
0.392451
0.402461
0.39123
0.431542
0.41001
0.451394
0.411787
0.392498
0.383892
0.389226
0.402181
0.380383
0.4152
0.399351
0.380718
0.942866
0.3745
0.390827
0.382363
0.394718
0.398928
0.506757
0.389407
0.431658
0.382597
0.880834
0.411116
0.391857
0.377141
0.477086
0.386289
0.481017
0.388768
0.422877
0.377145
0.392689
0.412797
0.506266
0.441627
0.389582
0.37831
0.386777
0.418196
0.391776
0.688607
0.446106
0.391312
0.424754
0.39313
0.446313
0.442446
0.411889
0.431896
0.462557
0.57946
0.399453
0.391769
0.562965
0.46575
0.398657
0.443137
0.387002
0.665339
0.409246
0.38961
0.383707
0.382112
0.386976
0.381926
0.384061
0.422228
0.383215
0.40374
0.391343
0.427167
0.396403
0.479673
0.377894
0.375635
0.379641
0.435937
0.448273
0.471199
0.390734
0.38774
0.454418
0.402132
0.398712
0.375452
0.380382
0.383556
0.376706
0.380917
0.399037
0.380658
0.472652
0.431744
0.490789
0.627858
0.446831
0.497427
0.414828
0.416248
0.379954
0.518353
0.390397
0.39386
0.380316
0.454358
0.39697
0.386107
0.425837
0.591344
0.407309
0.388637
0.377652
0.513277
0.656824
0.407847
0.588245
0.64675
0.513134
0.535832
0.495064
0.555306
0.421536
0.529122
0.630257
0.385826
0.395828
0.397196
0.432076
0.544508
0.38979
0.391553
0.413797
0.393114
0.396773
0.518412
0.458753
0.553439
0.381302
0.384782
0.377457
0.383122
0.388639
0.693238
0.37955
0.406266
0.464234
0.384781
0.504848
0.889036
0.385303
0.407661
0.403472
0.613144
0.395817
0.455492
0.605173
0.754454
0.426655
0.444898
0.468633
0.398927
0.380914
0.390659
0.388016
0.486139
0.564058
0.408035
0.386008
0.479345
0.444668
0.497426
0.384852
0.390315
0.613802
0.443588
0.312012
0.381097
0.359836
0.384513
0.293754
0.410149
0.419712
0.509518
0.298328
0.434307
0.436799
0.285234
0.436537
0.426582
0.432918
0.430877
0.411563
0.390277
0.492147
0.395055
0.388432
0.383083
0.385338
0.543059
0.578584
0.482237
0.407997
0.426898
0.427647
0.407823
0.310207
0.415457
0.400544
0.381755
0.435453
0.388251
0.307924
0.387056
0.424034
0.41619
0.542836
0.451124
0.661018
0.554594
0.561406
0.388425
0.415889
0.496887
0.346715
0.474756
0.405743
0.407489
0.383515
0.62317
0.463618
0.390827
0.873946
0.542478
0.391871
0.43181
0.504416
0.578532
0.429913
0.387783
0.44591
0.612824
0.403024
0.381245
0.391736
0.385183
0.386693
0.47
0.518066
0.395615
0.472142
0.647295
0.501575
0.450729
0.500931
0.371213
0.614863
0.509949
0.432414
0.515913
0.482161
0.402929
0.443563
0.389052
0.389865
0.390325
0.391857
0.473819
0.443225
0.37756
0.392882
0.396964
0.383238
0.380634
0.506409
0.424183
0.394893
0.385919
0.481047
0.74348
0.294522
0.406258
0.376606
0.394115
0.434594
0.399679
0.3783
0.340622
0.399927
0.325686
0.366682
0.494966
0.392521
0.387378
0.389454
0.412286
0.571376
0.423589
0.391112
0.431437
0.389686
0.528677
0.462469
0.437272
0.481296
0.399367
0.389631
0.377851
0.380218
0.390147
0.419081
0.384265
0.37715
0.37918
0.391849
0.486243
0.386696
0.55876
0.383948
0.457135
0.401081
0.422304
0.39671
0.338947
0.391016
0.397712
0.391721
0.37525
0.391503
0.386294
0.442104
0.385726
0.389758
0.395089
0.530695
0.383214
0.413017
0.410439
0.557507
0.55812
0.413519
0.62729
0.340511
0.393027
0.403459
0.48431
0.392787
0.431487
0.429393
0.383139
0.419074
0.451664
0.417234
0.43628
0.447719
0.419208
0.439925
0.466834
0.392036
0.393697
0.40642
0.380557
0.388924
0.412411
0.382562
0.393957
0.480619
0.390747
0.329146
0.393082
0.682061
0.382176
0.37948
0.621995
0.389945
0.379668
0.413711
0.378551
0.466858
0.422439
0.5387
0.379407
0.498687
0.445637
0.493613
0.388777
0.435537
0.37518
0.403136
0.390938
0.39767
0.383029
0.431413
0.430022
0.393863
0.389196
0.391602
0.383746
0.452146
0.383502
0.379037
0.39162
0.433555
0.454989
0.386956
0.397253
0.385512
0.389929
0.393322
0.395411
0.388057
0.424354
0.393124
0.499004
0.381816
0.404447
0.381157
0.459599
0.389857
0.429367
0.392426
0.383623
0.379341
0.396089
0.394783
0.441059
0.425502
0.552487
0.470239
0.570714
0.412889
0.398804
0.395103
0.386828
0.38244
0.632825
0.531169
0.407305
0.404115
0.396178
0.390959
0.374857
0.390601
0.481691
0.443998
0.589169
0.448629
0.40574
0.383298
0.409539
0.386521
0.543648
0.386598
0.386898
0.387194
0.391772
0.60922
0.415687
0.380426
0.395867
0.418335
0.377752
0.315996
0.388784
0.339668
0.405632
0.63179
0.422799
0.606509
0.378084
0.388343
0.404295
0.389738
0.402928
0.389558
0.385672
0.374669
0.379428
0.403498
0.388694
0.482101
0.410094
0.620263
0.432864
0.380997
0.454536
0.388743
0.389083
0.351503
0.685393
0.679097
0.29856
0.351074
0.397675
0.572588
0.410501
0.418463
0.40458
0.40068
0.289663
0.38776
0.379578
0.372455
0.406737
0.419588
0.487116
0.486044
0.430425
0.38132
0.4133
0.521777
0.395903
0.379938
0.502866
0.548224
0.529455
0.448358
0.375539
0.37505
0.415645
0.370383
0.616257
0.387375
0.387062
0.383991
0.54558
0.379355
0.40066
0.449875
0.449428
0.384184
0.385622
0.389419
0.380605
0.385724
0.392977
0.402681
0.485634
0.441009
0.396972
0.486606
0.398815
0.495672
0.400174
0.655841
0.442394
0.414294
0.516896
0.375517
0.433855
0.399916
0.5038
0.422544
0.377041
0.390618
0.376608
0.392868
0.632402
0.389541
0.387937
0.389316
0.397039
0.37116
0.461183
0.395318
0.387396
0.433724
0.393023