/*--------------------------------*- C++ -*----------------------------------*\
| =========                 |                                                 |
| \\      /  F ield         | OpenFOAM: The Open Source CFD Toolbox           |
|  \\    /   O peration     | Version:  2506                                  |
|   \\  /    A nd           | Website:  www.openfoam.com                      |
|    \\/     M anipulation  |                                                 |
\*---------------------------------------------------------------------------*/
FoamFile
{
    version     2.0;
    format      ascii;
    arch        "LSB;label=32;scalar=64";
    class       volScalarField;
    location    "0.00742553";
    object      nut;
}
// * * * * * * * * * * * * * * * * * * * * * * * * * * * * * * * * * * * * * //

dimensions      [0 2 -1 0 0 0 0];

internalField   nonuniform List<scalar> 
47425
(
0.00710331
0.0055027
0.00679919
0.00270773
0.00425177
0.00598804
0.00589686
0.0041611
0.00721756
0.00105295
0.00280788
0.00747121
0.00656677
0.00595458
0.00513293
0.0018209
0.00691719
0.00319851
0.000337512
0.00229101
0.00547907
0.00756284
0.00380465
0.0068487
0.00751227
0.00742072
0.00624061
0.00036018
0.00690644
0.00480972
0.00728833
0.00756406
0.00603247
0.00666423
0.0073536
0.00623089
0.00751959
0.00309417
0.00592539
0.00591298
0.0051974
0.00738925
0.00746679
0.00168559
0.000468438
0.00352894
0.00452541
0.00519303
0.00535878
0.00742997
0.000431263
0.00654096
0.00600328
0.00071562
0.00321018
0.00342134
0.0075262
0.00574849
0.00221845
0.00468997
0.000686917
0.000548482
0.00109531
0.00381384
0.00692057
0.00730308
0.00628315
0.00709396
0.000857092
0.00400965
0.00626688
0.00725216
0.00713172
0.00544765
0.00171929
0.00358626
0.00104595
0.00526231
0.000189923
0.00291089
0.00117372
0.00666869
0.00736744
0.00692254
0.00756938
0.0057283
0.00730017
0.00744435
0.00705894
0.00136146
0.00753921
0.00482005
0.00756801
0.00365007
0.00139698
0.00210212
0.00749839
0.00753217
0.00513041
0.00253539
0.00665957
0.00109252
0.00706594
0.000902869
0.00751382
0.0072741
0.00746529
0.00601872
0.00755745
0.00755693
0.00068412
0.00672388
0.00702547
0.00271357
0.00695105
0.00023802
0.00705721
0.000638006
0.00405945
0.00663958
0.0066966
0.00515651
0.00679984
0.0045425
0.00378856
0.00672773
0.00504243
0.00739492
0.00397135
0.00745079
0.00735835
0.00371367
0.000887433
0.0030487
0.00729598
0.00504165
0.00688495
0.0065866
0.00625913
0.00474564
0.00537263
0.00286368
0.00471609
0.00664693
0.00704233
0.00548126
0.00672262
0.00666534
0.00262944
0.00513981
0.00680311
0.000388629
0.00558996
0.000285989
0.00387906
0.00462726
0.00512263
0.000200311
0.00401178
0.00528823
0.00693307
0.00749834
0.00737617
0.0074326
0.00127906
0.000310767
0.0075243
0.000850749
0.0039999
0.000717025
0.00131111
0.00329435
0.00534092
0.00378774
0.00509686
0.00128911
0.000261412
0.00668569
0.00719914
0.00753375
0.000223584
0.00754346
0.00709173
0.00743915
0.00743821
0.00716077
0.00725283
0.00115244
0.00292017
0.00722914
0.00719381
0.004345
0.00512531
0.00389798
0.00750461
0.00726303
0.00526109
0.00597259
0.00718391
0.00637159
0.00582093
0.00342891
0.00758144
0.00727983
0.00386423
0.00261611
0.00691737
0.00731642
0.00167077
0.00407483
0.00690295
0.00681181
0.00722248
0.00565818
0.0066319
0.00676971
0.00610138
0.00434176
0.00466415
0.00261198
0.00218925
0.00544271
0.00723169
0.00574224
0.002077
0.00213148
0.00751573
0.00343524
0.00655972
0.00474519
0.00538088
0.00554997
0.00269027
0.00726366
0.00249881
0.00467928
0.00432934
0.00265525
0.00311571
0.00226986
0.00651152
0.00711125
0.00756024
0.00536742
0.00735331
0.00255623
0.00699793
0.00239083
0.00751529
0.00595332
0.00759746
0.00348202
0.00687895
0.004393
0.00364624
0.00757564
0.00755851
0.00328817
0.00557123
0.00369523
0.00296101
0.00723997
0.00497223
0.00301777
0.00639097
0.00187648
0.00751457
0.00645044
0.00708435
0.00569844
0.00571255
0.00545897
0.00448099
0.00658839
0.00361998
0.00228855
0.00412583
0.000449213
0.00464309
0.000570135
0.000831888
0.00648314
0.000549549
0.00303964
0.00572799
0.00632292
0.00384221
0.00617096
0.0011898
0.00693292
0.000507568
0.00537844
0.00498918
0.00723685
0.00725754
0.00399797
0.00436757
0.00613839
0.00663161
0.00617017
0.00409835
0.00740268
0.00409383
0.00726007
0.000465838
0.000760909
0.000379184
0.00753704
0.00749358
0.00732213
0.00386434
0.000494711
0.00516265
0.00337453
0.0015894
0.00493698
0.00397135
0.00311286
0.00599343
0.00127372
0.0018913
0.00761591
0.00717159
0.00745906
0.00134562
0.0074732
0.00615246
0.00712279
0.00736218
0.00586239
0.00650513
0.000533245
0.00705263
0.00604987
0.00300195
0.00684337
0.000510827
0.00744233
0.0074982
0.00528574
0.00723519
0.00723458
0.00750172
0.00743104
0.00734289
0.00579732
0.00651011
0.00719389
0.00623586
0.0030157
0.00737183
0.00737132
0.00642133
0.00745742
0.00741467
0.00347835
0.00527211
0.00754132
0.0051001
0.0041482
0.00154108
0.00678708
0.00311954
0.00504435
0.00695101
0.00738745
0.00288952
0.00571758
0.00599716
0.00732793
0.00289135
0.000323265
0.00607772
0.00744081
0.00192445
0.00747052
0.0073379
0.00306906
0.00422863
0.00750103
0.00556834
0.00743796
0.0075571
0.00512245
0.00291442
0.00444803
0.00472491
0.00531877
0.00704358
0.00500578
0.00642582
0.00707939
0.0052833
0.00556424
0.00620294
0.00609784
0.00681684
0.00457164
0.00233261
0.00742736
0.000933086
0.00751998
0.00154764
0.00189826
0.00359355
0.00360915
0.00746856
0.00288402
0.0074866
0.0042118
0.00720353
0.000668787
0.000671513
0.00728831
0.0046617
0.00581017
0.00552533
0.00547769
0.00507335
0.0048325
0.00434302
0.00521372
0.00742616
0.00459501
0.00676177
0.0073422
0.00505671
0.0065347
0.00701149
0.000886629
0.000325167
0.00734651
0.000415399
0.000299447
0.0022983
0.000491871
0.000654709
0.00740049
0.00639894
0.00649574
0.00666535
0.000685304
0.00266066
0.00738427
0.00732442
0.00678121
0.00659769
0.00307227
0.00545617
0.00087266
0.000518185
0.00124022
0.00548392
0.00118941
0.0068251
0.00699531
0.00721211
0.00647393
0.00719676
0.00462264
0.00489543
0.00098595
0.00475927
0.00604385
0.00508339
0.00724944
0.00438579
0.00715824
0.00672813
0.00514534
0.00591352
0.00572246
0.00167282
0.00299818
0.00650152
0.00439187
0.00719553
0.000948152
0.00324605
0.00220389
0.00743996
0.00273919
0.00482137
0.00695861
0.00751493
0.00677476
0.00675732
0.00673641
0.00377393
0.0034749
0.00660093
0.00695288
0.00723647
0.002485
0.000881235
0.00743632
0.00218384
0.00719391
0.00191791
0.0074336
0.00443246
0.00749243
0.00618152
0.00690715
0.00357735
0.00427082
0.00749736
0.00757003
0.0069039
0.00540513
0.00307187
0.00547249
0.00755011
0.00714857
0.00740433
0.00731285
0.00698495
0.00447563
0.00540117
0.00345043
0.00485757
0.000948647
0.00048777
0.00534915
0.00604864
0.00671388
0.0072694
0.00165335
0.0014016
0.00472213
0.00708248
0.00451837
0.00616769
0.00566188
0.00144531
0.00739827
0.00120847
0.00427009
0.00351679
0.00641667
0.0025216
0.00764063
0.0063564
0.00619771
0.00744771
0.00750573
0.00725575
0.000816599
0.00714866
0.00174861
0.00739758
0.00178525
0.00640516
0.00662352
0.00252668
0.00292759
0.005379
0.00755021
0.0011934
0.00739482
0.00722923
0.00728069
0.00728419
0.00748758
0.00302478
0.00515549
0.00679259
0.00721422
0.00612809
0.00750013
0.00122778
0.00731286
0.00646553
0.00123561
0.00582008
0.00743244
0.00142519
0.00152245
0.00757497
0.000349811
0.000357685
0.00668348
0.00714452
0.0073898
0.0074893
0.00381124
0.00241527
0.0012806
0.00747041
0.00290055
0.00716252
0.00185485
0.00261509
0.00443599
0.00658127
0.00205068
0.00195377
0.00708929
0.00498361
0.00555968
0.0045181
0.0032449
0.00305442
0.00749472
0.00433012
0.00289254
0.00616226
0.00551235
0.00322175
0.00451386
0.00739286
0.00216428
0.00420761
0.00626198
0.00310011
0.00120038
0.00713549
0.00345022
0.006993
0.00185049
0.00587048
0.00709871
0.00746258
0.000221432
0.00426953
0.0060958
0.00041843
0.000756621
0.00754176
0.00388638
0.000104295
0.00217797
0.000919265
0.00200968
0.000838104
0.000548638
0.00492076
0.00745909
0.00595096
0.00395722
0.00106497
0.00127506
0.00746471
0.00322977
0.00637839
0.00563988
0.00721127
0.0049265
0.00606126
0.00161583
0.000389119
0.00324706
0.00432437
0.00445039
0.00648155
0.00305476
0.00700592
0.00602825
0.00346059
0.00626871
0.00724392
0.00207163
0.00518994
0.00706127
0.00148941
0.00112567
0.000635693
0.00101956
0.00432614
0.00731426
0.00512465
0.00753222
0.000886281
0.00589189
0.000533127
0.00492263
0.00607959
0.00647022
0.00561471
0.00283257
0.0064649
0.00216942
0.00557742
0.00735651
0.00190525
0.00658018
0.00449337
0.00640517
0.00424597
0.000555202
0.00647993
0.00188466
0.00648087
0.00675594
0.00756432
0.00159894
0.00610719
0.00518692
0.0074372
0.00542301
0.00605894
0.00537532
0.00545298
0.00466474
0.00681686
0.00099066
0.00055703
0.00641444
0.000852471
0.0062913
0.00363746
0.00582177
0.007509
0.00715236
0.00605463
0.0066305
0.00580392
0.0074973
0.000454882
0.00282026
0.00464998
0.00650191
0.00745598
0.00447045
0.00743911
0.00285984
0.00704551
0.00113678
0.00436255
0.00749395
0.00545675
0.00751355
0.00696912
0.00497043
0.0074765
0.00454255
0.00745746
0.00739995
0.00589167
0.000936473
0.00760437
0.00135321
0.00234289
0.0019693
0.000766399
0.00494328
0.00697609
0.00266694
0.00500511
0.000743166
0.000742088
0.000587889
0.00636089
0.00710727
0.004465
0.0016171
0.000797021
0.00286571
0.00423632
0.00712544
0.00666818
0.00607749
0.00199649
0.00409458
0.00445625
0.00178601
0.00226744
0.00602545
0.0015656
0.000968513
0.000717474
0.00671412
0.000371076
0.00154862
0.000538894
0.000683841
0.00413593
0.0021143
0.00754433
0.00747253
0.00553867
0.000718091
0.00170697
0.00575474
0.00517529
0.00751988
0.00149427
0.000802775
0.00755768
0.00228945
0.00466691
0.00755538
0.00227122
0.00754819
0.00754121
0.00512556
0.00531361
0.00165053
0.00743967
0.00753084
0.00534719
0.0053372
0.00538514
0.00103442
0.00149982
0.00758538
0.00122208
0.00731759
0.00749991
0.00743268
0.00136319
0.00468949
0.00071514
0.00512281
0.00729133
0.00698168
0.00133089
0.000590085
0.00582793
0.00515796
0.00163877
0.0055963
0.00654761
0.00252652
0.00338989
0.000754431
0.00218439
0.00275637
0.000789259
0.00649483
0.00124761
0.00733518
0.00592719
0.00734797
0.00239155
0.00304426
0.00734929
0.00169822
0.00125693
0.00511295
0.00191426
0.00632819
0.00739329
0.00466364
0.0042782
0.0056387
0.00462644
0.000814984
0.00617287
0.00404803
0.00189628
0.0017849
0.000407278
0.00176508
0.00423272
0.000495613
0.00715982
0.00750354
0.00371757
0.00360287
0.00499633
0.00165068
0.00118472
0.00481789
0.00716005
0.00685756
0.00279412
0.00379057
0.00439958
0.00255361
0.00102302
0.00528979
0.00698417
0.00288224
0.00133344
0.00119646
0.000456669
0.00195669
0.00551534
0.000978066
0.00404146
0.00582196
0.00740551
0.00386873
0.0016656
0.00202827
0.00401415
0.00596862
0.00424702
0.00746772
0.00352085
0.000749358
0.00362465
0.00233342
0.00739501
0.00229805
0.00161772
0.00356785
0.00542556
0.00595655
0.000951402
0.00124986
0.00484676
0.00156746
0.000657643
0.00657198
0.00704004
0.00685888
0.00103234
0.00704539
0.00265474
0.00738667
0.00177247
0.000485825
0.00573892
0.00519928
0.00395875
0.00695927
0.00536113
0.00342031
0.000617426
0.00538163
0.000772822
0.00619906
0.00282051
0.00462219
0.00161568
0.00313784
0.00110475
0.00168939
0.0016694
0.00567238
0.000471164
0.00514409
0.00609485
0.0063692
0.00579617
0.0067572
0.00544523
0.00147902
0.00263244
0.00294165
0.00734531
0.00647913
0.000645681
0.000652489
0.000715553
0.00151568
0.000679806
0.00208094
0.00331599
0.00125862
0.00633451
0.00109611
0.00230672
0.00108444
0.000978904
0.00560229
0.00683301
0.00564695
0.00589938
0.00189956
0.00137785
0.00502834
0.00538207
0.00130659
0.0072712
0.00517992
0.00746598
0.0073305
0.00331493
0.00228766
0.00317923
0.00460756
0.00589599
0.00117056
0.00751118
0.00597462
0.00423522
0.00679771
0.00276665
0.00110931
0.00597766
0.00271037
0.00491809
0.00131295
0.00199422
0.0032422
0.00446733
0.00019649
0.000200592
0.00130838
0.000730014
0.00355078
0.00498834
0.000530704
0.00129643
0.00666135
0.00132786
0.00365927
0.00430258
0.000551225
0.00288851
0.00697032
0.00330398
0.00219119
0.00735634
0.000604442
0.000291424
0.00389763
0.000577184
0.00283425
0.000714776
0.000335919
0.00711168
0.00472124
0.00300795
0.00103395
0.00390778
0.00690319
0.00275008
0.000424604
0.00735992
0.00337977
0.00486539
0.00249308
0.0075189
0.00550893
0.00149182
0.00112108
0.00215376
0.00242871
0.00622148
0.000969229
0.00727277
0.00753726
0.00170718
0.00103883
0.00537183
0.00681782
0.00052435
0.00139455
0.000903512
0.00401376
0.00425718
0.00176768
0.00101447
0.00582109
0.000703194
0.00150966
0.00689772
0.0049836
0.0012939
0.000323927
0.00344928
0.00225051
0.00659049
0.00700253
0.0018037
0.00317341
0.00247248
0.00622655
0.00508519
0.0062364
0.00529794
0.00241471
0.000575574
0.00696342
0.000381158
0.00497825
0.00601481
0.00122474
0.00732423
0.00519286
0.00646833
0.0055987
0.00196139
0.00702248
0.00135536
0.00767023
0.00026991
0.00042799
0.00104565
0.00197814
0.00713231
0.00563876
0.0035998
0.00736181
0.000585034
0.000557794
0.00354844
0.00180938
0.000621839
0.00058366
0.00182533
0.000861995
0.000477503
0.00426083
0.00745054
0.000508516
0.00551795
0.00713432
0.00580717
0.000674948
0.00032594
0.00580379
0.00571579
0.00165094
0.00201804
0.0016835
0.000479655
0.0037269
0.00079706
0.000781134
0.00354154
0.00702257
0.000569794
0.0072221
0.000722108
0.000166545
0.00750709
0.00623821
0.00516685
0.0070236
0.00194937
0.00471291
0.00720048
0.00173881
0.00422197
0.000899348
0.00179689
0.00539664
0.00107738
0.00729427
0.000273945
0.00642996
0.00439307
0.00376566
0.00737698
0.000774147
0.00550209
0.00321308
0.00267998
0.00157387
0.00487586
0.00194918
0.00212234
0.000671624
0.00687868
0.000667267
0.000608499
0.00488531
0.00509257
0.000917093
0.00212665
0.00492336
0.00666886
0.000885475
0.000743734
0.00209576
0.00046382
0.00169352
0.00102371
0.000954048
0.00297968
0.00300222
0.000459783
0.00157866
0.00747224
0.00287731
0.00464803
0.000933282
0.00190553
0.00068322
0.00699287
0.00462404
0.00575304
0.000831949
0.00577688
0.000396105
0.00234728
0.00633874
0.00709958
0.00333444
0.00253564
0.000784472
0.00293768
0.00333294
0.00125497
0.000919072
0.00521775
0.000770723
0.00133485
0.0052548
0.000401742
0.00101605
0.000940332
0.00159984
0.00487709
0.00188457
0.000498134
0.00214608
0.00102609
0.00232339
0.00674623
0.00194782
0.00580558
0.00390233
0.0061124
0.00117882
0.00190308
0.0014577
0.00656984
0.00185836
0.00551113
0.00575329
0.0014108
0.00196699
0.00246218
0.00519521
0.00704194
0.000275422
0.000798328
0.00180707
0.00172987
0.00230395
0.00733137
0.000871826
0.000655084
0.0017279
0.00292014
0.00425637
0.00258394
0.00239737
0.000921377
0.00714274
0.00117398
0.00144712
0.0071909
0.00171035
0.00348187
0.00268273
0.00295767
0.00163106
0.00133734
0.0074365
0.000446149
0.00186746
0.000526223
0.00271395
0.00644034
0.00205368
0.00355603
0.00165204
0.00590986
0.00583164
0.00523056
0.000321738
0.00590019
0.00613991
0.000531846
0.00754972
0.00562599
0.000531455
0.0061645
0.00219188
0.00164074
0.00285628
0.000961222
0.00576303
0.000156023
0.0010472
0.0017599
0.00174049
0.00131047
0.00450495
0.000851755
0.00190601
0.00138921
0.00271529
0.00442777
0.0044794
0.00456351
0.00465454
0.00210655
0.0003804
0.00225251
0.00713967
0.00650223
0.00702132
0.00439879
0.00136517
0.00718455
0.00654313
0.00310649
0.00078831
0.00736795
0.00221174
0.00437713
0.0057309
0.00729507
0.00141707
0.00305837
0.00601078
0.00739427
0.0035839
0.00428753
0.00663097
0.00394541
0.000800167
0.00434408
0.00641146
0.00731199
0.00762106
0.00096321
0.00681043
0.00724823
0.00058883
0.0014983
0.000682436
0.00711252
0.00046369
0.000405116
0.00747077
0.00029101
0.000724416
0.000158581
0.00239448
0.00587583
0.00303962
0.00167514
0.00759184
0.00301392
0.00183116
0.00401788
0.0035633
0.0055485
0.00239694
0.00101868
0.0048871
0.00476352
0.000587272
0.00496449
0.000146232
0.0023421
0.00107273
0.00709829
0.00139147
0.00206873
0.00733553
0.005517
0.00208925
0.00757498
0.00150754
0.00175672
0.000298109
0.00641488
0.0018695
0.0066234
0.00332706
0.00572218
0.00699448
0.00127768
0.00685319
0.00196005
0.00500033
0.00106411
0.000167436
0.00509353
0.00756654
0.000269094
0.00501743
0.000169345
0.00672506
0.00389935
0.00600884
0.00594907
0.00700187
0.00700744
0.00644988
0.00303758
0.00649186
0.0022107
0.00294582
0.00635455
0.00750148
0.00273999
0.000710719
0.00446434
0.00108072
0.00730258
0.00625944
0.00233547
0.00284299
0.00605161
0.00723129
0.00245613
0.00322833
0.00554575
0.00581054
0.00643473
0.00540607
0.00404234
0.00114753
0.00134495
0.00573494
0.00252378
0.00182687
0.00493531
0.00727154
0.00638373
0.00748096
0.00205174
0.00227623
0.00194001
0.00367705
0.00544304
0.00613487
0.00132339
0.00713927
0.00588433
0.00667786
0.00140439
0.0017401
0.00105321
0.000975287
0.000891108
0.00477132
0.00645589
0.00692065
0.00671674
0.00733936
0.000951482
0.00549854
0.00747617
0.00493307
0.0037194
0.00605753
0.00426447
0.00656316
0.00243233
0.00471275
0.00197908
0.00741393
0.00489241
0.00465714
0.00403952
0.00610772
0.00320493
0.00493249
0.00511912
0.00583845
0.00583325
0.00487988
0.00263155
0.00223247
0.00719588
0.00217733
0.00401818
0.00105835
0.00230349
0.0074401
0.00738028
0.00370265
0.0068718
0.007186
0.00201905
0.00743046
0.00745237
0.00599456
0.00502149
0.00239234
0.00558995
0.00262205
0.0059786
0.00624062
0.000791084
0.00487944
0.00437699
0.00412441
0.0068906
0.00416056
0.00438109
0.000209258
0.00209476
0.00120479
0.00747182
0.00697388
0.0052008
0.00746904
0.00738166
0.00359708
0.00442185
0.0073472
0.00754082
0.00476011
0.000806555
0.00130201
0.00311278
0.00207752
0.00393576
0.00565412
0.0035701
0.00183671
0.00226783
0.0055441
0.0054916
0.000725139
0.00673361
0.00508235
0.00229943
0.00422515
0.00617898
0.000268622
0.00363421
0.00189111
0.0070453
0.00318765
0.0041348
0.000227811
0.00019551
0.00466737
0.00742748
0.00747702
0.00346243
0.0024182
0.00690744
0.000185737
0.00135717
0.00685529
0.00121823
0.00164997
0.00410522
0.00738811
0.00228589
0.00750897
0.00656347
0.00713623
0.00585155
0.00430014
0.00454094
0.00407589
0.00570848
0.00296628
0.00591069
0.00698464
0.00112098
0.00555151
0.00505805
0.00189519
0.00192942
0.00118532
0.00358833
0.0014201
0.0062773
0.00111585
0.00290599
0.00692467
0.000403004
0.00134381
0.00082737
0.00393424
0.00367778
0.00406202
0.00264208
0.00283739
0.00751551
0.00745189
0.00560242
0.0057849
0.00085709
0.0014376
0.000681763
0.00071483
0.00410508
0.00145003
0.00749555
0.00675867
0.00466068
0.00671791
0.00597882
0.00730936
0.00766988
0.00170426
0.000819526
0.00750348
0.00754629
0.00431026
0.0012806
0.00476445
0.00758061
0.0066822
0.00108555
0.000749626
0.00602255
0.00123027
0.00382546
0.00197023
0.000749871
0.00251947
0.00731204
0.00756407
0.00491186
0.000759408
0.00451212
0.00197759
0.00485055
0.00760357
0.00058173
0.000345008
0.000261494
0.00181075
0.00263689
0.00713696
0.00705681
0.00396591
0.00612398
0.000395011
0.000621837
0.000768545
0.000286337
0.00150823
0.00204491
0.00732208
0.000691424
0.00699155
0.000192345
0.00398584
0.000631125
0.0040234
0.00173461
0.00736868
0.00259559
0.000704876
0.00178016
0.00744085
0.00572817
0.00445409
0.000872209
0.00138044
0.00489198
0.0061741
0.000347462
0.000445352
0.0061545
0.00128776
0.000665798
0.00110244
0.00680567
0.00738451
0.000875607
0.000550245
0.00218347
0.00732921
0.000917821
0.00733712
0.000874489
0.000636191
0.000609344
0.00240162
0.00703395
0.00224756
0.00750408
0.0059776
0.00479665
0.00200066
0.00657307
0.00551623
0.00682742
0.0043324
0.00628692
0.00741233
0.00747014
0.00409246
0.00742333
0.00747359
0.00449194
0.00531135
0.00194388
0.0041005
0.00159644
0.00412131
0.00593759
0.00551596
0.000922518
0.00688061
0.00418598
0.00191976
0.000272426
0.0063083
0.00164973
0.00418931
0.000951328
0.0017365
0.00117494
0.00502621
0.00745728
0.00654748
0.00441625
0.00735186
0.00443016
0.00398704
0.00499514
0.0066699
0.00616951
0.00734737
0.00620543
0.0034437
0.00674133
0.00240635
0.00054435
0.00470135
0.0049822
0.00569472
0.00357214
0.00121549
0.00128181
0.00492749
0.00552868
0.00378392
0.00101918
0.000967346
0.00413186
0.00217939
0.00025112
0.00160418
0.00159727
0.00433662
0.00180214
0.00262252
0.00511432
0.00416634
0.000947961
0.00481776
0.00468801
0.00196646
0.00679974
0.00208002
0.00370098
0.00333088
0.0042674
0.00105354
0.00519421
0.00716365
0.00744502
0.00273236
0.00586141
0.00365891
0.00191833
0.00691234
0.000976796
0.0027452
0.00488554
0.000306818
0.00250589
0.00749288
0.00387281
0.000544136
0.00374291
0.00246755
0.00751631
0.00289535
0.00118789
0.00644596
0.0074981
0.000513498
0.00177554
0.00167689
0.0023831
0.00730572
0.00515894
0.000961457
0.000399886
0.000609236
0.00747428
0.00617213
0.000277802
0.00740025
0.00223633
0.00483529
0.00207645
0.000661569
0.00732709
0.00465541
0.000700765
0.00409216
0.00655575
0.00670041
0.00408723
0.00522813
0.00118134
0.000242307
0.00524002
0.00408335
0.000658688
0.000527641
0.000490515
0.00227821
0.000696732
0.0028712
0.000407048
0.00122518
0.000858804
0.000818754
0.00471153
0.00447432
0.00119897
0.0007047
0.000277452
0.00744612
0.00744299
0.000766703
0.00643595
0.00434834
0.000467216
0.00643849
0.00449408
0.00659383
0.00580257
0.00544032
0.00734917
0.000332466
0.000807115
0.00159887
0.00201664
0.00237775
0.00600212
0.0047469
0.00636211
0.00351625
0.00661562
0.00719685
0.00632504
0.00639916
0.000858431
0.000801455
0.00717387
0.00231861
0.00723052
0.00425408
0.00358869
0.00233485
0.00415566
0.00625801
0.000777863
0.00131714
0.00607918
0.00132191
0.00314824
0.00143861
0.00669996
0.00467771
0.000715083
0.00282251
0.00105301
0.00372488
0.00290844
0.0032569
0.00731176
0.000443525
0.00750052
0.00731127
0.00278143
0.00325683
0.00133421
0.00393291
0.00324418
0.00401655
0.000612431
0.00509601
0.002564
0.00159726
0.00746205
0.00372073
0.00730891
0.00151473
0.000268087
0.00470958
0.000472605
0.00436004
0.00574542
0.0012611
0.00600042
0.00662648
0.0065611
0.00433131
0.00117628
0.00129075
0.0017941
0.000520143
0.00336034
0.00567742
0.000269519
0.000856336
0.00584677
0.00143802
0.00159805
0.00538348
0.000669349
0.000344893
0.00265845
0.00102582
0.00139238
0.00373979
0.000730092
0.00236447
0.00552548
0.00387607
0.000720933
0.00118917
0.00752382
0.000893457
0.00439644
0.00109143
0.00666398
0.00128968
0.00504195
0.0009807
0.000687474
0.00620342
0.00515655
0.00015302
0.00752613
0.00469547
0.000937077
0.00665734
0.0029618
0.00173416
0.00294265
0.000329675
0.00125886
0.00014683
0.00157269
0.00321523
0.00136161
0.00741514
0.00694007
0.00113944
0.00753115
0.00424785
0.00183937
0.0067415
0.00139056
0.000823647
0.0070463
0.00165751
0.00713644
0.000760318
0.00490696
0.000408699
0.00346541
0.00270855
0.00706434
0.00274951
0.00263111
0.00714359
0.00657251
0.00405978
0.00756132
0.000953175
0.00618306
0.00359253
0.00669011
0.00616522
0.00386828
0.00292139
0.00172048
0.00218384
0.00366218
0.00631979
0.00424792
0.00188677
0.00152352
0.000575041
0.000661054
0.00183067
0.000830253
0.00371357
0.00305372
0.000349825
0.00147275
0.00100011
0.00224806
0.00353173
0.00277246
0.000761811
0.00478896
0.00129777
0.00210223
0.0065159
0.00307785
0.00155698
0.00393943
0.000805461
0.00376707
0.000815888
0.00210726
0.00099586
0.00170887
0.00220041
0.00112693
0.00213169
0.000845817
0.00313801
0.00120907
0.00589687
0.00136722
0.00670944
0.00664866
0.00092466
0.00458825
0.000625087
0.00134643
0.00644266
0.00238711
0.00619822
0.00136007
0.00108733
0.00699581
0.00671574
0.00182442
0.000663711
0.00592719
0.00307312
0.00138588
0.000971139
0.00632136
0.00733634
0.00292043
0.00629366
0.000655902
0.00720408
0.000878402
0.000255094
0.00570885
0.00393602
0.00672357
0.0059935
0.000605281
0.00145737
0.000613746
0.00537976
0.00652808
0.000254781
0.000645293
0.00707681
0.00269655
0.00709978
0.00724353
0.00109025
0.00409213
0.000530314
0.00518792
0.00724857
0.0022388
0.00698709
0.00641891
0.00689356
0.00648196
0.00267571
0.00202978
0.00148462
0.00169163
0.00122258
0.00349617
0.0068655
0.00238493
0.00122733
0.000703201
0.000894684
0.00143981
0.000896329
0.00074644
0.000963997
0.000752019
0.000792042
0.00598359
0.00151584
0.00300414
0.00146012
0.0053697
0.00161877
0.00367304
0.00194631
0.000390871
0.000961141
0.000975295
0.00126413
0.00703958
0.00378346
0.00690014
0.00692782
0.00671024
0.00240045
0.00478023
0.00364853
0.00734341
0.00354713
0.00154327
0.000742881
0.00574495
0.000545845
0.00692634
0.00447959
0.00752513
0.00523636
0.00105004
0.00268425
0.00116099
0.00167015
0.00552303
0.00531347
0.00485743
0.00716361
0.00314977
0.00517512
0.00256539
0.00664966
0.000855412
0.00370534
0.0015858
0.00296215
0.00110155
0.00667341
0.00487962
0.00488842
0.00168814
0.00139396
0.000695306
0.00750941
0.00643124
0.000935365
0.00247609
0.00116482
0.00349567
0.00247103
0.00252282
0.00271477
0.00707516
0.00688956
0.00640553
0.00249754
0.00174893
0.00658965
0.000164037
0.00714108
0.00358994
0.00717271
0.00741204
0.00157056
0.00482489
0.0063621
0.000924027
0.00591472
0.00175273
0.00191328
0.00189873
0.00747262
0.000959808
0.00744282
0.00727931
0.0011174
0.00397198
0.00289844
0.000828483
0.00730858
0.00277713
0.00135552
0.0018554
0.000858988
0.000622934
0.00437956
0.00332034
0.00297247
0.00596998
0.00226541
0.00151769
0.00684712
0.00748491
0.00173443
0.000948552
0.00207362
0.00236369
0.00167814
0.00236525
0.00133656
0.00457211
0.00211915
0.0015384
0.0048645
0.00695444
0.00558156
0.0067387
0.00386048
0.00467127
0.00162952
0.00436311
0.00047247
0.00549257
0.00742991
0.000629283
0.00292043
0.000510076
0.000700463
0.00724194
0.00501834
0.00102217
0.00214036
0.000746342
0.00146045
0.00145111
0.00151071
0.000724199
0.00341874
0.00248711
0.00178051
0.000501911
0.000825612
0.00301901
0.00113764
0.000688006
0.000976667
0.000187205
0.000807974
0.0015782
0.00133565
0.00119549
0.000560048
0.00723078
0.0037441
0.000704172
0.000893342
0.00131274
0.0015425
0.00224338
0.000476435
0.00126888
0.00374888
0.00531811
0.00748313
0.00377637
0.00734865
0.000750573
0.00296109
0.00324131
0.000640645
0.0052021
0.00247477
0.00633369
0.00657758
0.00286552
0.0066683
0.00178405
0.00655491
0.00224516
0.000378518
0.00671905
0.00706796
0.005648
0.0070092
0.000853675
0.00162418
0.0062047
0.00696487
0.000513947
0.007385
0.00602636
0.00672119
0.00236361
0.00443748
0.00496616
0.00691448
0.0067211
0.000255964
0.00641947
0.00212567
0.00679961
0.00714269
0.00727533
0.0070612
0.00444306
0.00410842
0.00744632
0.00548608
0.0044124
0.00286949
0.000817149
0.00131328
0.00502396
0.00191592
0.00487265
0.0026923
0.00347084
0.00419909
0.00685337
0.00170416
0.0045716
0.0042565
0.00238212
0.00315298
0.00408201
0.0010844
0.0053811
0.0029215
0.00126438
0.00592299
0.00107817
0.00447807
0.000949356
0.000286817
0.00297023
0.00547935
0.00132815
0.000444557
0.00342105
0.00707422
0.00745853
0.00700793
0.00669313
0.0051897
0.00743234
0.00749839
0.00394559
0.00403679
0.00714733
0.00719554
0.00734222
0.00591012
0.00257967
0.00171151
0.00333872
0.00524377
0.00526401
0.000719443
0.00678244
0.00718367
0.00462238
0.000478028
0.000331155
0.00247327
0.00419825
0.00689363
0.00459009
0.00614321
0.000515279
0.0018411
0.00479643
0.00412655
0.00687174
0.00485786
0.00252288
0.0066384
0.0035182
0.00565136
0.00129601
0.00176404
0.00157687
0.00103845
0.000275279
0.0015336
0.00193947
0.00621969
0.00507611
0.00401899
0.00309485
0.00714844
0.00590311
0.000350176
0.00718656
0.00190353
0.000592269
0.00350093
0.00306067
0.000612397
0.00186166
0.00592251
0.00411569
0.00722847
0.0018474
0.000772346
0.0041266
0.00167027
0.00163442
0.00209502
0.000528193
0.000605924
0.00423614
0.0054742
0.00095989
0.00630114
0.000643332
0.00065315
0.000676164
0.00302632
0.0073425
0.000898146
0.00690543
0.000414465
0.00228102
0.00384786
0.000656369
0.00112493
0.00403359
0.00671131
0.000669227
0.00724046
0.00731561
0.00663695
0.00715461
0.00206597
0.00692953
0.00213979
0.00646829
0.000270172
0.00369754
0.00441725
0.00573955
0.000239341
0.00469604
0.000376278
0.00636113
0.00466762
0.00486381
0.00108379
0.00692171
0.00410886
0.00693442
0.000667636
0.00205742
0.00186701
0.00101381
0.00349332
0.00689644
0.00103213
0.00425888
0.0034345
0.00347935
0.00686845
0.00368988
0.00597869
0.00750726
0.000368813
0.00145773
0.00589723
0.00696209
0.00181801
0.00642103
0.00370918
0.0048828
0.0069001
0.000715559
0.0063877
0.00670422
0.00493759
0.00181975
0.00609491
0.00640175
0.00661249
0.00394843
0.00758665
0.00636458
0.00705418
0.00299186
0.0067028
0.00117758
0.00258135
0.00527468
0.000794327
0.00682635
0.00340278
0.00189036
0.0015354
0.000713249
0.00485964
0.00233286
0.00243866
0.000685565
0.00401813
0.0033664
0.00296895
0.00687624
0.00419251
0.0018413
0.0041676
0.00686555
0.00715325
0.00719624
0.0002743
0.00720896
0.00640543
0.00311321
0.000328198
0.000705499
0.00610704
0.000191532
0.000392389
0.0006973
0.000919558
0.000750046
0.000743728
0.00619387
0.00218658
0.00317614
0.00740251
0.00121969
0.000466398
0.00234527
0.00743519
0.00704336
0.000622224
0.00605316
0.000229231
0.00739731
0.00272708
0.00688829
0.00237078
0.000498282
0.00699499
0.00190695
0.00350203
0.00719515
0.00299971
0.00736494
0.00123294
0.000420296
0.000336296
0.000954497
0.0016312
0.00106789
0.00736516
0.00718391
0.00704494
0.00411868
0.00741978
0.0019343
0.00748356
0.00107428
0.00425536
0.00717061
0.00705448
0.00503794
0.00706623
0.00485533
0.00358298
0.0075167
0.00370738
0.000722016
0.00653251
0.00144088
0.000756126
0.00630714
0.000215406
0.000392287
0.00201857
0.00293329
0.00319974
0.00129042
0.00659612
0.00215221
0.000901042
0.00714474
0.00189564
0.00701039
0.00217677
0.00567747
0.00319933
0.00264724
0.000500067
0.00226642
0.00437277
0.00072732
0.00177362
0.00177112
0.000731592
0.00394473
0.00138027
0.00585297
0.00197245
0.00285002
0.00619095
0.00110808
0.00406297
0.00469532
0.00738774
0.00130541
0.000735492
0.000671001
0.00660275
0.00532343
0.000919997
0.000724833
0.00172558
0.00547801
0.00282815
0.00129247
0.00137119
0.00202278
0.00721537
0.00120411
0.00440591
0.00671854
0.00428832
0.000405146
0.00659645
0.00199423
0.00317405
0.00678539
0.00316855
0.00283384
0.00742512
0.0059074
0.00174954
0.00229069
0.000639517
0.00633008
0.00137258
0.00186978
0.00398878
0.00256529
0.00181293
0.00132373
0.00350296
0.00656055
0.0071304
0.00632987
0.000473871
0.00598766
0.000952332
0.00392098
0.00530754
0.00658527