/*--------------------------------*- C++ -*----------------------------------*\
| =========                 |                                                 |
| \\      /  F ield         | OpenFOAM: The Open Source CFD Toolbox           |
|  \\    /   O peration     | Version:  2506                                  |
|   \\  /    A nd           | Website:  www.openfoam.com                      |
|    \\/     M anipulation  |                                                 |
\*---------------------------------------------------------------------------*/
FoamFile
{
    version     2.0;
    format      ascii;
    arch        "LSB;label=32;scalar=64";
    class       volScalarField;
    location    "0.00742553";
    object      omega;
}
// * * * * * * * * * * * * * * * * * * * * * * * * * * * * * * * * * * * * * //

dimensions      [0 0 -1 0 0 0 0];

internalField   nonuniform List<scalar> 
47425
(
52.6536
70.8787
56.2158
141.476
64.3516
64.1704
63.3496
91.238
53.2118
145.397
134.559
51.7249
59.3461
63.5896
75.9559
94.6808
54.8548
66.1019
746.774
109.716
65.2755
50.3588
99.748
54.6747
51.3034
51.8057
61.4916
617.383
55.7561
56.2408
55.5242
50.074
56.5787
57.5979
51.0582
61.5399
50.4587
76.262
68.1661
64.1212
74.1504
50.6506
50.9253
146.54
1438.2
110.227
83.8694
74.8405
68.025
51.3331
425.63
59.1191
53.3414
336.386
115.645
111.244
50.035
62.3474
65.206
61.7785
479.276
1588.28
531.969
55.1413
55.8083
53.1333
61.2635
53.4545
485.758
55.3199
61.4114
53.7114
53.7994
70.5257
332.07
54.7191
553.747
73.0276
1151.43
76.3101
371.449
57.1405
52.3564
56.1056
50.5195
66.2422
51.6362
49.8932
54.604
129.488
50.926
78.2335
51.1399
104.531
148.058
181.752
50.3071
49.9367
64.1137
81.1949
56.0783
89.607
52.2929
100.438
50.6141
54.1415
51.6016
62.089
49.2499
52.0561
185.615
55.2712
54.6092
139.591
56.1742
805.538
55.3206
177.637
84.2535
57.963
56.0939
55.3784
56.0589
62.3685
98.967
57.2211
74.1751
51.5384
94.2522
51.7723
51.9951
103.712
118.407
125.731
53.0837
64.3203
56.3186
58.1171
62.3209
79.4914
71.3779
135.333
59.9655
57.6304
54.5298
53.887
57.789
56.2676
143.452
74.435
56.4683
419.568
57.5553
632.274
53.9036
82.6319
56.9771
749.97
96.6094
71.79
55.2004
50.7838
52.4613
51.7625
193.148
692.871
50.0667
344.783
98.1621
577.993
347.703
90.5036
70.7856
52.4562
75.5687
73.2418
634.562
57.0446
53.2873
49.286
827.565
50.6153
54.5934
53.1847
51.0275
52.8392
52.5542
77.5371
133.774
52.452
55.4691
58.5352
73.0479
81.4598
49.9711
52.4364
68.405
62.1565
53.0304
59.619
65.1741
117.298
50.1371
52.2877
55.2408
145.569
53.6122
52.0819
90.5265
60.2434
55.9566
56.6532
54.3261
61.0712
57.4702
57.3559
61.7279
87.3431
55.5374
97.0198
95.1221
71.6663
52.8076
69.4909
166.534
85.5121
50.633
114.452
59.199
64.1308
58.3555
68.3279
109.193
50.3618
151.296
79.6103
94.6201
121.211
77.1292
165.469
58.0329
54.1828
50.2286
72.6841
52.0419
69.692
53.1353
83.0782
49.7362
66.179
49.9966
73.7314
55.631
54.5356
79.4
51.0775
50.8976
118.172
67.5282
59.7888
126.995
55.1677
59.6947
126.599
60.9544
94.0903
50.1477
60.2539
54.7123
67.9834
63.9616
72.9222
88.0642
55.2996
71.8371
168.407
71.6731
143.599
84.6076
179.393
446.494
51.4587
442.381
126.57
66.8017
61.5927
98.0794
60.5138
92.939
56.0903
479.6
55.6169
52.5745
52.1216
52.3562
96.761
87.8331
56.3109
56.6326
59.6425
93.9353
52.0649
91.9019
52.4437
557.368
861.128
565.285
49.4288
50.4358
53.3729
96.3732
541.196
73.347
111.108
90.0337
77.8832
95.4657
125.083
63.7868
230.94
85.2233
50.8089
53.0824
50.1466
86.9547
50.1239
63.5746
53.4282
51.5734
66.5669
59.3243
367.78
54.6938
62.3334
130.374
51.4635
383.961
50.9357
49.6872
55.4772
54.8412
54.6394
50.3333
50.6496
51.7133
58.7754
61.1217
53.9466
61.1636
89.0179
53.8575
53.2878
58.5302
51.5372
52.5353
60.1695
72.9321
51.0619
54.8682
92.2542
64.8604
56.7603
84.9789
74.1732
53.3778
51.8603
134.861
58.2094
62.91
53.4837
134.926
544.459
61.0839
50.857
200.036
50.6752
52.0749
96.7699
80.1657
50.7678
70.6228
51.5603
49.7597
74.0222
89.4895
85.8662
81.5122
52.5842
56.2731
77.2507
52.1449
54.8339
72.5688
56.574
61.4934
52.352
54.8989
82.8726
67.8719
51.569
229.234
50.0033
111.845
74.8881
109.137
107.548
50.6326
131.096
49.7362
92.3335
53.6805
1267.73
238.373
54.437
58.8447
67.4507
71.2308
70.3392
74.3692
61.4829
87.9524
68.6442
51.9295
83.0483
56.9148
51.3717
65.4976
58.9397
54.4135
125.274
1076.05
53.0918
256.444
802.838
92.838
810.932
499.167
51.7894
60.1622
59.407
57.9372
472.78
94.1516
50.663
51.84
56.7967
57.3178
75.8402
67.9301
210.681
434.762
118.936
70.2928
75.8803
56.001
55.3919
52.9251
59.5926
53.5156
82.8555
79.2972
134.629
69.7151
51.3016
62.2494
52.9171
82.7965
53.6348
56.8079
62.3781
65.2298
67.3311
110.215
128.873
60.6361
88.0487
53.3525
234.446
114.898
71.3276
52.8305
142.763
65.3846
55.8776
51.5179
57.7652
58.5157
57.5697
57.5431
111.638
57.2392
55.9458
52.9951
154.668
94.1445
51.3587
60.7508
52.6303
62.5209
50.2222
57.1102
50.6748
63.063
56.2348
107.611
57.6299
50.1356
49.5973
56.3636
70.2701
123.661
54.0325
51.1961
52.8421
51.2778
52.522
55.6812
74.4333
66.4001
57.4047
78.751
103.737
349.192
64.3432
64.5902
56.6995
52.3897
88.6013
88.9992
81.2565
54.3292
84.6715
63.127
53.9004
95.1705
52.96
378.875
58.3506
59.0034
63.3671
88.1805
49.8151
59.214
61.1845
51.6879
51.3139
52.9826
857.871
52.3987
153.079
52.3415
79.9084
57.3926
60.314
73.8346
71.6412
72.2479
50.767
292.48
51.0953
52.3144
53.1597
51.7456
50.3463
68.0627
62.4464
59.1135
52.9552
62.2359
50.0897
135.711
53.0553
58.015
284.088
65.238
52.7833
149.975
343.194
50.3265
711.995
726.755
56.5369
57.1275
51.0229
51.7579
87.9174
93.7786
239.61
54.7504
135.242
53.5491
79.6476
66.6942
87.3568
57.5019
190.325
67.2764
54.0855
75.2749
68.3253
61.6777
116.963
127.17
51.1394
90.6346
134.813
64.0298
69.8028
84.2002
59.5235
51.4026
91.7653
89.6118
59.4182
122.323
106.797
53.3155
78.9543
54.7977
62.9484
67.0981
54.4226
51.9304
1353.56
55.2679
64.6795
650.581
696.106
49.3039
79.5541
1338.83
177.971
84.0414
120.107
121.439
400.353
56.2144
49.778
65.9222
80.302
115.23
115.663
50.9826
121.78
59.3827
67.2466
53.7339
77.9515
56.1116
105.82
508.947
119.977
60.1507
86.0105
52.8005
111.068
55.6636
64.2949
75.1615
61.9729
53.4186
189.383
73.4512
54.9988
80.2513
193.986
612.39
155.97
88.5711
53.946
75.1703
49.6593
686.914
65.6091
282.134
78.577
64.6038
59.8953
66.0689
63.6748
59.6489
75.3681
71.5852
51.1194
208.244
58.9761
53.2104
61.1063
89.1125
775.444
59.7037
206.009
59.9957
52.7639
50.1952
148.943
61.5341
61.55
50.6427
61.3441
59.8591
72.165
68.3307
71.5348
55.5568
115.386
185.739
59.9322
93.3516
61.8742
104.733
66.4185
49.6611
53.765
57.8744
57.3589
65.062
51.1446
289.859
155.593
80.5873
58.7957
51.1891
84.5066
50.8103
131.301
54.4032
108.11
87.4781
49.875
70.573
50.5906
53.6578
63.5772
51.372
83.9925
51.587
51.7654
58.0235
149.378
49.7654
207.898
83.8324
156.842
392.196
77.5402
56.0842
61.0235
63.0328
136.413
348.015
273.448
60.4132
53.6827
59.7013
123.524
137.013
131.548
88.9489
53.1625
55.8433
64.6177
118.518
57.6769
86.4654
212.889
63.0772
64.5945
155.947
114.72
107.552
55.1454
514.957
294.837
207.925
223.209
90.3932
125.41
50.6215
50.7488
67.2587
423.554
190.927
65.2171
73.2058
49.5976
234.924
386.736
50.009
171.517
81.1968
50.0027
170.16
50.1941
50.2064
63.5332
70.91
85.4242
50.6169
49.8273
53.9634
71.1067
70.0145
116.638
83.7464
49.674
266.595
52.5091
50.1091
51.0216
207.95
81.9432
221.563
74.8634
52.078
57.388
69.6752
956.18
66.52
73.9814
81.4854
67.2075
57.9044
121.776
112.579
130.308
257.489
72.1395
559.781
54.0906
68.1166
51.3233
62.6186
52.0397
159.089
125.478
52.7548
290.585
106.521
60.9034
113.762
61.5773
51.4458
70.8071
67.2344
67.9044
82.7545
388.247
62.4446
64.1273
199.731
222.356
601.489
219.903
91.4821
185.192
55.2326
50.6261
72.9689
70.8495
74.6659
81.4189
90.272
78.4042
54.0254
54.9643
111.497
99.4992
86.9175
62.2751
1492.8
72.3839
54.6611
74.7316
141.689
101.837
218.698
95.4754
70.1617
99.1729
94.9722
54.6943
51.6889
55.3553
98.4778
190.598
95.5783
64.3611
89.1254
50.0631
109.578
124.63
88.2312
93.4963
50.869
70.6744
132.965
101.105
72.3087
64.5838
107.434
88.0128
78.6811
65.1135
149.378
60.8855
55.6613
56.2912
88.09
53.6769
147.112
53.6026
228.373
311.744
65.712
72.4275
88.4351
56.7328
71.6192
110.357
423.319
73.3785
407.34
54.0633
63.2984
56.6612
136.348
69.587
171.665
237.901
235.136
59.2449
280.543
73.6558
63.0407
60.1049
58.6276
54.7992
70.5692
73.6961
68.4425
61.1184
51.1128
61.7848
218.938
656.028
128.178
147.762
490.754
191.531
95.1748
75.1267
59.7483
97.5822
164.231
189.776
305.252
56.0441
56.8091
59.3031
58.0354
66.9423
103.322
74.193
57.1104
97.4258
52.5323
73.9317
51.0716
54.8448
112.857
61.8917
119.753
58.222
55.8629
163.407
51.5818
65.5591
72.2096
57.7745
66.8963
102.979
65.7124
63.1527
56.4354
122.684
185.61
115.809
83.0197
1617.05
801.211
100.849
430.416
109.608
57.614
1764.35
261.255
58.7805
71.1909
105.483
88.893
277.061
130.68
56.1214
117.703
61.5976
52.1028
187.626
798.136
97.4565
1340.64
133.775
234.907
1345.51
52.5219
80.8122
127.119
123.903
98.1412
55.9953
59.545
740.975
51.6849
114.842
61.5899
150.04
49.8225
54.3407
107.412
107.834
87.4058
62.8477
62.4188
207.291
52.7955
49.764
79.566
127.701
71.4129
58.1217
915.228
572.45
166.476
95.2034
65.1435
91.7053
241.734
68.6613
109.279
84.213
55.8984
80.0729
101.721
954.173
61.6709
59.8659
57.1252
55.4474
59.3663
72.5861
125.238
60.2662
52.9376
52.708
60.3015
217.444
1496.81
55.5132
234.342
66.4492
61.7923
110.726
52.1245
75.0114
60.153
60.5203
200.94
55.1843
416.575
50.2376
736.472
960.986
163.198
202.619
53.5682
66.6644
107.153
51.377
192.464
1698.31
108.899
258.168
184.452
350.522
113.588
684.621
390.103
88.7225
51.2448
2543.51
68.3891
54.1382
65.9608
336.098
1286.9
64.6483
56.9981
303.118
72.7198
253.255
630.97
106.346
127.241
830.955
108.702
56.4498
523.782
53.4316
979.36
980.249
50.5514
61.9011
74.4243
54.9708
127.233
80.7727
53.5703
127.548
91.4776
112.371
60.8373
55.0161
116.84
53.1035
698.128
60.2025
88.1584
73.6083
51.5226
613.214
67.9454
118.394
139.358
116.612
76.4914
422.06
182.329
134.606
57.0031
1428.96
180.346
82.6966
70.2781
136.442
65.8243
78.0299
58.4835
269.362
401.774
80.6499
580.973
150.98
93.028
138.467
131.561
126.929
562.894
78.4664
50.3735
134.043
81.2257
150.107
115.587
518.993
54.378
56.4928
67.0862
873.15
66.6707
347.478
64.4132
60.423
54.6066
65.8578
62.1532
168.532
137.366
58.7414
69.5551
87.8598
71.5231
836.507
95.6377
73.5767
680.562
226.069
123.815
88.5764
69.4739
62.6324
748.239
66.5317
714.257
84.5892
57.2112
64.4565
59.5144
98.6198
61.3092
74.8402
78.9033
73.0716
57.7939
69.4277
69.2551
59.2045
66.3857
204.268
159.368
78.0207
53.9889
683.337
227.373
70.7206
242.974
243.463
51.9688
110.798
502.283
229.251
57.9053
71.3709
80.0853
90.2266
168.827
52.9244
502.075
88.2309
53.5731
67.5153
111.859
89.5662
130.614
66.6701
184.513
49.7773
331.784
112.096
785.743
147.941
60.9701
122.651
81.8732
63.7374
65.079
67.9053
74.28
923.573
66.5429
62.586
685.864
50.1042
67.297
351.415
60.777
102.679
492.305
138.82
80.7439
66.9514
816.56
119.879
225.799
98.5844
75.7404
61.0181
101.248
313.89
545.464
63.982
86.7494
59.9511
84.7021
81.7518
132.576
278.646
97.0488
52.2535
60.5848
54.3433
56.9645
88.9651
55.3547
59.9211
124.837
92.9558
52.6636
135.003
75.0738
66.5253
53.2075
134.686
62.6499
56.5157
50.7923
107.301
89.6148
54.9451
98.508
437.444
85.3251
55.0769
52.1484
51.0484
148.195
54.9465
52.6285
534.09
519.654
223.773
54.4524
515.782
154.447
50.7589
787.988
109.784
759.099
100.418
67.5532
86.247
70.6134
50.0182
87.4055
85.3214
94.4338
105.038
67.5621
107.927
134.687
78.9054
65.6391
321.84
78.8493
1312.54
73.1538
539.983
50.4055
123.043
189.011
52.1288
69.5447
182.004
50.0955
207.708
137.614
962.265
60.2824
224.977
53.65
113.126
69.026
53.5038
417.446
56.1013
192.097
53.7603
491.816
559.862
74.7475
49.9512
277.372
74.5432
271.099
57.4929
99.1061
64.7227
64.4837
54.9838
56.6306
59.6603
133.807
59.3873
178.616
89.0851
61.354
51.9327
140.968
228.442
85.7574
118.434
51.9587
60.5687
123.158
85.4787
62.3386
51.9402
156.929
120.492
55.1743
65.0334
60.5831
71.7426
92.7703
92.1312
136.069
66.3554
94.6615
89.0916
75.5392
52.0998
60.3016
50.6084
176.419
168.827
201.621
106.067
71.0688
62.5032
70.5376
53.4474
52.3792
57.5407
415.096
130.122
595.414
420.29
551.435
55.7853
60.1233
55.8404
56.1475
52.4293
246.03
71.955
50.3244
76.5582
102.43
64.1268
100.088
58.9064
155.893
62.9036
104.802
50.5966
67.7507
80.2439
93.9258
62.0238
120.309
80.094
73.7877
65.7524
66.0117
77.7589
145.119
173.088
52.316
86.4221
95.6873
100.292
170.793
51.3607
50.8017
104.343
56.6231
52.1973
78.7188
51.1299
51.7381
64.8663
75.4391
119.502
68.4387
77.4985
53.8104
61.8313
451.674
77.6498
87.9491
55.8356
55.0785
91.8197
88.0193
751.19
111.687
125.679
49.7514
54.9899
74.2109
51.452
52.4269
111.022
87.7294
51.6196
49.6243
87.7644
98.8598
418.797
123.455
99.4284
99.9268
71.9056
110.186
102.541
168.267
69.2872
71.1147
765.532
56.8175
75.269
93.1434
89.5674
52.783
838.053
63.4591
98.6289
57.2808
119.881
59.6873
869.445
865.018
63.3757
50.874
50.6833
93.8104
99.521
55.7354
1010.64
396.841
56.2017
144.376
199.154
57.8062
51.1518
78.7241
51.6303
58.9515
53.7481
66.442
66.6076
83.3848
73.3665
53.042
63.6676
64.4185
55.7618
128.048
68.8638
69.1211
98.6657
203.534
126.31
105.914
134.897
62.5587
134.801
129.179
57.4518
512.268
128.851
132.664
68.1445
102.652
94.8402
93.3613
135.792
50.9788
50.5854
70.5484
66.7079
124.249
76.2476
284.047
434.215
54.6336
132.914
51.2
51.0419
82.4569
57.7526
65.2971
51.6162
50.9321
212.253
379.379
50.2231
51.5779
65.9008
793.117
59.8499
50.9908
57.4812
122.684
791.939
62.7013
230.425
93.3267
156.318
275.125
74.8259
51.8085
50.261
70.0572
826.221
52.39
87.6866
78.3158
51.741
465.482
825.805
858.966
216.117
148.711
54.4871
55.6745
61.648
63.663
438.994
335.443
392.709
484.709
229.198
65.7103
53.0944
737.917
55.2183
763.073
97.1991
753.575
82.9034
116.027
53.0935
70.0564
171.684
172.449
51.4073
66.8987
86.464
84.6893
71.2467
79.7511
62.3396
866.383
572.173
62.5489
136.373
478.058
127.796
55.4244
51.5601
386.285
264.954
178.647
54.6496
798.501
51.703
627.35
1379.37
525.668
114.488
55.3798
58.5777
48.9695
64.4086
77.4459
121.863
58.7673
68.9383
54.97
86.9376
60.3577
51.8303
50.743
91.5734
51.3448
50.4425
81.8976
55.8122
82.2237
93.8476
157.478
92.5901
51.8258
56.4341
105.075
54.0401
89.7908
109.161
1194.73
62.1452
369.126
64.8099
98.0003
82.7302
74.3823
59.1587
51.081
60.1723
86.1651
51.4041
86.5051
94.1099
75.2135
57.9972
63.7411
51.0205
59.4503
114.094
57.251
101.58
230.481
82.3906
76.9195
66.6282
105.989
79.4431
126.948
54.5256
67.4043
100.281
125.547
135.174
67.3451
110.554
839.887
246.719
187.05
87.2622
68.0022
116.18
72.6089
54.5702
113.303
79.7032
80.821
70.995
56.5911
164.915
104.84
118.149
91.08
201.37
68.2471
52.8073
52.0063
58.2161
64.2111
84.2442
144.145
55.0769
86.4985
123.125
78.4621
713.002
60.4766
50.9073
104.2
270.354
98.7949
156.32
50.1942
135.291
72.2462
60.4531
51.4885
466.705
93.7238
61.9454
186.019
52.8297
61.0457
134.302
729.79
745.96
51.6826
63.14
1074.47
53.0474
77.6295
66.3181
200.166
284.844
52.0924
83.7172
955.428
93.7874
59.0053
56.82
91.9474
59.4181
73.2644
371.796
55.1268
91.8596
520.508
141.376
454.192
80.197
310.196
55.4842
895.923
108.541
108.283
417.406
70.8195
70.7714
291.642
249.149
290.33
51.9396
51.5416
421.247
59.9812
87.6247
338.61
59.8703
60.443
58.1366
66.1257
69.7021
51.8853
699.7
398.386
99.2807
180.814
165.723
63.9793
81.8988
60.8847
110.122
58.5686
53.1079
61.0817
60.466
355.049
370.55
53.0948
59.1035
52.2037
65.252
68.5142
107.32
92.1775
62.6532
396.142
64.1889
65.1664
196.772
120.548
273.914
57.6751
81.7943
286.923
138.714
104.013
93.2105
134.361
117.341
52.5673
800.029
50.5783
51.0517
61.5156
88.5533
75.5604
97.0446
86.8738
96.5692
152.86
75.0464
112.248
103.529
51.0786
62.4596
52.0146
138.085
1059.9
80.5556
271.731
70.3405
60.7297
195.595
64.3918
58.4387
58.7463
67.2735
431.506
96.3558
59.4292
283.938
125.901
63.6244
1655.15
283.233
53.6763
100.57
66.8606
70.7231
206.653
362.47
145.932
590.636
64.7347
54.1795
138.813
57.1463
54.108
98.7019
224.952
309.277
49.9537
120.05
57.7461
145.478
58.1139
145.082
79.3823
89.224
206.549
62.4377
72.2621
622.238
50.6348
53.9659
126.515
57.6757
131.714
122.044
59.2721
882.871
450.987
703.507
260.557
121.778
70.0071
50.6939
55.6779
86.1994
51.0474
88.0128
148.927
56.5148
75.5277
471.239
54.2347
113.616
54.286
118.629
60.5798
647.516
110.189
73.0139
55.2793
138.092
149.348
54.5225
59.019
94.7954
50.1761
187.189
60.8175
107.873
57.8716
55.3648
99.078
58.7185
131.357
87.3191
54.0043
62.5338
54.2295
68.8784
235.557
198.41
132.793
153.604
536.784
100.793
65.6362
694.97
239.665
182.851
62.2554
94.3345
95.821
241.269
84.9536
597.885
61.6522
58.025
85.7006
398.355
64.2027
387.895
66.5034
392.837
73.4486
77.6495
273.313
173.934
190.475
63.6992
362.82
122.31
211.065
55.6833
215.287
56.6764
58.3774
94.2204
82.1642
297.118
88.2141
60.1163
164.396
63.0696
108.537
147.435
54.7275
57.1917
65.4461
649.71
63.9481
123.259
83.9856
117.051
54.6748
53.14
95.6361
61.667
215.77
54.7828
106.573
338.088
58.3292
55.8288
57.8854
57.3458
485.094
139.718
165.52
71.3933
59.4086
1148.26
1383.68
53.1678
141.434
53.6434
53.4065
259.905
66.254
378.135
62.3097
53.2059
84.5669
55.1954
60.759
55.6974
59.866
139.082
94.9588
131.878
132.12
73.0343
70.2358
52.6486
159.666
382.594
686.989
80.3357
190.251
190.138
406.395
84.7034
368.221
109.815
61.5774
129.681
89.8382
276.213
64.9569
119.49
104.977
60.5755
925.798
110.443
297.667
109.785
54.193
99.5986
55.6032
55.2389
55.6866
72.4341
78.7951
102.332
50.9099
108.987
174.72
121.789
61.0025
148.293
58.6665
62.0236
49.9464
72.9491
79.8593
147.189
75.9161
99.9364
69.2279
62.8042
77.9168
52.6442
63.3005
59.5557
64.8238
57.9568
97.9961
60.6396
67.4638
129.7
78.2786
59.7804
78.4741
77.3463
93.6713
130.141
242.93
49.7913
61.3291
346.519
159.106
157.983
55.641
158.807
77.8714
99.0136
54.0577
55.6398
60.2471
71.0041
65.3397
57.5978
610.285
54.1617
109.488
54.1299
51.0783
131.178
79.6984
61.1307
120.879
55.0952
87.0876
60.9558
123.427
50.9278
129.937
50.9223
53.4377
84.9437
67.0799
133.923
99.1421
53.3326
99.4431
75.8715
78.1736
104.238
601.432
54.5148
71.4678
132.682
65.6558
58.482
129.089
56.9294
50.7813
110.093
166.969
128.28
87.3603
179.806
113.747
339.498
54.6522
184.041
67.7036
77.2321
55.6722
60.7197
56.8378
63.898
84.1126
166.416
60.334
449.028
66.3659
52.5033
330.987
133.737
1756.41
250.852
52.9705
76.6027
97.705
124.065
420.347
69.629
247.194
86.4286
408.449
66.6123
158.185
70.8711
225.571
173.833
129.125
221.05
448.714
761.821
1261.35
253.986
339.862
188.786
284.858
325.594
53.9876
103.362
224.724
76.6669
247.89
64.1752
206.192
504.792
128.666
103.556
71.3335
51.4049
100.749
51.746
188.607
132.292
86.3165
166.591
66.2706
152.274
60.9763
58.4414
117.293
58.3958
220.88
52.0999
73.2913
695.43
56.2829
54.6521
69.7368
54.6124
302.882
90.6052
63.6575
55.507
166.651
51.278
66.6438
57.4177
63.106
85.6736
75.4776
52.8588
56.4279
286.185
59.7133
68.0586
56.8503
55.2208
53.1716
56.0468
71.3148
93.7879
50.6255
64.9298
85.8792
63.5551
176.389
78.5771
60.5748
65.6245
78.2683
143.022
111.246
90.7515
56.3154
120.467
83.7058
62.9713
59.0588
80.3959
66.783
93.0941
72.3765
133.407
72.7921
62.7548
109.244
87.571
485.964
982.984
132.554
61.0405
97.8714
152.802
68.2438
54.4178
51.1892
54.7477
57.0972
73.8248
51.1674
52.9338
55.2481
94.1201
53.9311
54.0031
51.8169
62.0982
88.6421
62.0454
114.622
54.9167
72.4229
237.42
57.1628
52.1899
62.1842
654.794
1793.45
102.786
82.5871
55.6671
61.2113
63.9596
239.344
73.1092
63.4842
93.4063
56.1194
78.1799
59.9503
59.4874
109.181
67.1015
68.3865
203.912
100.392
68.5323
1619.02
99.9045
202.954
62.5688
74.814
93.919
117.623
53.6385
64.3175
315.949
54.5775
206.013
484.687
112.485
128.89
514.865
76.1783
64.7578
91.237
53.9576
124.739
242.389
92.4602
84.36
79.4211
148.724
839.311
560.198
89.6101
56.1108
117.533
60.5516
160.864
145.368
451.582
55.2696
51.3263
475.391
56.5372
205.963
73.9443
98.316
555.639
457.088
54.9114
51.3571
559.002
53.2794
51.7075
56.279
53.9626
85.8908
54.9156
172.719
60.2547
529.922
103.037
58.2064
65.2054
652.834
80.4974
510.784
62.1053
60.2973
78.3238
88.039
55.4751
60.668
54.4239
437.872
93.7798
94.663
322.232
108.017
55.5349
415.019
65.1016
113.773
66.872
56.2627
102.989
65.8035
52.19
249.855
75.9476
66.5093
53.7238
73.5798
60.5267
60.6764
57.1889
55.4842
160.67
59.9012
57.2887
77.2103
158.79
62.3855
59.7039
58.4413
96.178
49.7623
60.0544
54.3506
126.853
57.6721
143.588
151.041
72.1554
405.449
57.4136
65.3003
209.717
231.689
603.922
79.4898
174.701
63.3274
454.789
96.7637
117.273
96.4986
56.5687
91.5884
212.82
97.1584
56.0466
53.6807
53.1278
467.728
52.9009
61.4665
65.2637
2152
412.175
54.6751
1281.93
376.948
303.611
112.523
1202.85
396.366
62.4935
171.698
93.709
52.0272
136.1
888.762
73.009
51.8835
54.7721
468.451
62.6568
872.62
51.4227
130.786
56.4614
129.69
310.613
55.3377
119.359
109.211
53.5344
105.512
51.0825
128.992
1425.45
1513.24
334.956
91.0246
207.448
51.6159
53.6654
53.4127
92.4086
51.019
64.2035
51.3233
79.0002
91.9681
54.0305
54.7314
77.6565
55.5184
78.0488
107.186
51.187
103.371
130.006
59.7392
61.1824
737.379
61.0317
703.992
503.683
133.03
134.391
68.7105
115.383
58.9178
62.1569
213.474
53.8756
67.9624
54.7325
62.2428
66.8213
119.26
71.6633
179.097
115.27
57.4848
373.625
64.4331
199.315
171.027
73.0999
577.768
67.694
62.9385
61.1018
62.707
76.4524
57.9572
82.657
51.4651
203.602
194.323
431.255
58.2746
64.6082
82.0214
399.646
81.2829
70.8493
134.382
72.4914
185.139
71.3704
53.1008
98.8041
87.2519
57.7435
88.9448
1312.14
58.675
62.6626
122.494
56.7994
122.851
138.523
50.8237
64.1825
95.7248
171.268
585.237
59.7866
163.789
95.8301
69.7844
61.6471
189.149
84.0015
106.147
59.0713
53.4897
56.6822
390.52
63.5503
103.605
71.0149
62.8814
59.0418
81.4738
51.1672
139.005
53.9102
65.4397
168.122
106.483
65.2886
167.444
93.4893
79.1978
68.9755
124.063
50.8078
88.6888
236.987
109.885
57.8262
52.1189
83.9235
51.271
52.4536
79.2284
50.642
109.229
85.4032
51.2443
53.4602
105.638
68.319
115.972
51.5437
651.501
50.8267
92.2562
72.0774
57.2246
610.399
149.983
549.591
51.5119
59.9014
501.666
648.41
94.5138
91.7182
151.517
130.357
61.7104
58.4085
70.2503
149.965
80.5248
132.815
55.884
136.45
95.0994
104.48
52.7315
91.7907
51.796
60.4082
337.539
75.5332
70.3938
52.3673
109.003
85.7434
83.4104
128.957
54.9712
54.8779
60.585
86.0238
79.3886
70.6778
99.2605
63.6882
58.9043
53.1352
58.7633
63.1073
52.5992
76.1812
65.6677
58.246
2040.2
73.3365
60.8711
74.5515
52.1272
86.2503
161.79
58.3041
78.5976
78.9397
684.089
68.8163
60.6105
92.9556
1390.53
97.1133
136.849
124.78
73.6495
50.0471
61.6723
68.5691
702.603
90.5031
74.946
61.134
53.6124
91.5273
55.7456
549.641
132.823
114.39
74.3516
67.1648
98.2028
88.8922
69.996
114.683
111.213
315.984
57.45
138.719
279.9
114.052
60.5677
90.165
59.9867
346.049
63.3909
58.009
80.1203
50.5537
56.776
78.9532
52.195
71.5473
51.2999
85.704
52.8356
76.3432
62.4032
132.951
79.2606
119.525
60.884
474.947
100.998
117.898
74.7449
53.5692
105.717
61.0877
60.3793
61.4145
58.5433
57.7883
117.651
51.2794
63.5795
51.4707
188.609
85.9986
145.259
505.796
127.955
150.849
71.2822
70.4138
53.335
187.989
88.0643
55.8343
52.0711
105.824
69.0126
56.9067
75.505
918.919
71.5025
62.309
63.8662
376.487
764.365
66.645
444.998
481.627
169.123
214.175
146.794
314.955
74.1225
202.677
665.307
65.6693
56.1211
58.7166
90.0593
299.29
57.7539
54.8457
68.022
152.293
156.33
657.6
104.887
655.132
109.974
55.7133
85.5142
56.333
61.2235
694.751
51.3219
155.128
285.134
54.8163
193.984
1973.97
56.4371
74.5018
68.3418
395.532
156.161
110.622
644.56
1152.26
86.2984
258.293
116.63
162.562
80.8316
54.2811
154.514
320.457
479.97
65.5944
111.565
125.803
93.8787
190.87
54.4893
59.8957
716.563
121.636
441.503
51.0465
196.543
60.2116
428.586
64.4068
79.2372
169.487
377.101
82.7476
90.0576
412.328
87.9013
451.626
81.6047
80.4051
201.06
54.3406
160.009
55.7147
53.5937
51.907
69.6104
343.54
407.78
124.58
62.9958
78.9563
116.727
63.7659
450.84
69.9001
61.5708
64.8879
87.2452
155.518
550.785
54.0599
74.1674
68.256
213.076
99.2249
570.477
665.244
330.37
106.607
67.5713
254.285
384.403
123.239
60.8819
64.4473
51.1604
686.489
143.062
238.651
1607.09
231.821
86.3972
81.252
592.757
323.771
78.8677
91.3274
94.1191
344.811
64.1477
52.0412
91.7926
66.0579
531.616
290.956
187.819
59.5714
124.496
322.752
161.247
98.476
669.054
250.082
603.235
180.004
178.407
379.017
138.177
61.8006
97.2732
63.3628
54.5369
71.0253
66.4112
124.214
87.2338
79.4233
179.346
180.257
133.857
54.3997
178.029
81.1262
63.2499
129.631
389.21
985.184
548.973
67.9075
102.775
65.1116
81.8759
288.998
139.6
316.582
68.387
431.598
216.783
150.685
55.1854
51.6684
62.3167
68.5062
478.132
78.6314
62.1279
135.588
62.7288
608.532
208.262
89.17
253.061
63.274
53.1234
50.2091
51.1096
102.47
68.999
85.5559
123.956
63.3507
53.7684
155.401
410.97
417.021
51.6923
105.017
59.3962
73.078
61.0288
502.208
58.1705
60.449
58.1291
79.2952
53.7814
54.757
93.4436
54.5811
61.7131
60.153
215.158
51.9256
65.4606
72.3365
310.908
298.681
68.6837
511.025
584.015
60.0114
58.8334
145.381
61.8427
77.327
77.3365
77.3734
75.1195
127.003
69.0618
82.5231
817.91
332.659
90.0597
459.976
55.9904
55.9279
64.506
51.0404
53.2588
68.8606
53.5999
67.4009
161.24
67.2417
397.491
55.416
391.973
64.7168
50.1611
624.62
92.5569
77.9022
468.569
86.8341
569.652
71.5802
280.9
50.9316
163.94
93.9071
156.393
52.8318
84.5688
68.0611
433.414
56.0628
52.5072
51.9174
79.0961
89.03
57.8079
62.1319
93.6969
53.3498
112.424
53.4991
60.5356
120.663
85.1813
110.162
59.1499
57.3992
55.3292
52.1908
60.3785
56.1736
51.3912
77.8796
52.7477
190.835
114.9
59.9586
105.392
109.284
62.4455
78.4506
58.5177
123.757
148.774
56.7773
54.3063
89.9333
73.2954
235.234
275.496
418.424
64.5997
57.6542
56.7439
58.1354
71.1064
693.17
210.104
63.6197
63.2967
61.0664
54.4585
50.0017
71.1722
136.163
122.951
404.682
105.808
62.7478
72.2974
68.1961
50.989
265.853
73.106
56.7269
117.431
59.0892
770.116
70.4097
52.475
63.9282
74.388
124.506
499.88
53.5542
324.243
60.9758
619.525
81.7557
475.093
65.2102
52.7886
63.494
106.786
59.8448
56.0733
95.311
49.6839
50.3952
61.7147
65.7202
167.157
63.9901
681.547
80.2945
55.5668
114.955
173.046
54.9816
255.583
818.592
711.511
536.49
250.075
58.4189
374.094
336.928
70.0946
62.3497
59.3004
680.882
93.7231
92.1621
49.6753
64.9814
82.143
376.721
144.856
80.3453
50.9893
66.9791
188.502
55.8837
55.3376
359.409
328.685
240.967
599.603
68.8378
50.0486
68.0361
66.6754
958.551
54.0155
52.1547
51.8839
287.557
50.5466
58.9875
93.4648
96.4975
52.2616
75.204
53.7506
126.369
59.8199
130.79
59.81
171.722
91.1233
116.432
137.454
116.718
183.461
58.5993
582.484
90.3027
216.828
233.484
189.041
82.1342
61.8078
177.581
78.1536
50.1613
56.2291
50.5119
90.5132
536.247
119.067
52.2358
82.8718
59.2851
49.4839
108.553
60.0228
137.95
85.4176
59.1152
102.071
57.892
65.6798
82.4132
263.715
66.1222
95.9752
78.2014
109.311
435.242
177.527
281.285
692.666
132.664
59.0433
60.4282
50.5406
109.168
662.186
77.1078
745.299
103.2
55.7941
120.687
397.884
58.5228
58.0818
58.6083
66.5088
52.8967
115.327
56.9477
75.0012
86.0869
51.1813
101.205
51.7904
113.729
55.5406
59.7527
408.959
66.0358
118.655
61.461
54.4756
52.4762
86.172
124.079
101.488
89.1369
64.5206
58.6623
65.3006
58.7587
230.951
58.1484
59.9789
112.733
161.937
232.788
54.5407
84.2112
106.074
148.898
62.2201
117.009
54.4494
124.765
76.057
55.4816
130.673
73.7234
51.6636
176.264
68.4567
53.2632
56.4113
133.106
88.9102
89.5379
59.7516
115.202
84.4715
55.3716
92.3123
286.334
60.5917
60.651
85.8213
498.227
62.6224
71.7048
138.119
60.7427
134.819
55.9917
525.536
82.6328
69.3203
78.536
54.2427
109.913
54.5718
377.044
50.8007
65.9331
421.81
66.0263
105.836
194.812
71.5819
54.9187
270.479
53.918
51.9033
75.6785
108.788
61.9488
241.592
53.7515
384.558
106.329
51.139
81.3051
121.917
582.817
180.364
75.7364
52.2535
113.2
282.456
455.524
106.804
126.432
832.476
190.318
92.1428
132.909
80.6276
100.309
65.0683
502.389
811.789
154.528
165.751
102.194
743.219
412.403
433.543
290.885
154.798
59.4984
56.8512
153.378
77.5789
462.361
330.995
61.876
453.075
110.411
51.8206
55.5135
55.1289
110.444
83.0816
92.253
77.247
132.936
184.053
767.574
59.4726
118.529
602.15
508.822
182.896
178.849
68.1018
682.393
50.9919
66.529
332.939
149.804
54.233
268.185
320.405
65.5874
98.6675
60.8573
89.119
52.6791
84.6363
169.728
81.7162
454.041
49.8407
59.3023
84.5481
398.376
163.009
123.16
163.587
103.322
123.52
64.5855
299.2
100.267
67.68
128.254
749.703
160.314
56.7941
171.653
161.327
74.0365
67.0538
125.297
56.4324
62.7941
75.4461
80.3685
72.0527
64.7488
77.1933
54.4689
51.2232
51.7202
100.931
55.8445
162.232
427.781
556.442
72.522
72.5165
63.1828
59.1843
99.7235
514.133
60.978
146.7
68.5957
80.3643
56.3194
68.4094
52.4096
179.547
50.3459
55.1374
207.149
56.6264
62.4325
65.9538
54.6177
285.044
70.3709
471.156
258.896
223.154
479.774
159.758
275.538
66.1756
72.1343
133.643
62.9646
268.738
71.5823
79.2542
88.9086
68.5429
64.792
56.8789
59.9463
57.2577
52.3002
85.9787
239.717
51.1037
725.992
114.996
245.661
111.571
115.209
1657.02
58.4771
269.16
1333.98
66.6076
220.535
74.2514
70.6972
602.432
847.938
224.607
149.982
62.317
186.246
98.7146
421.015
55.8943
60.9202
175.754
900.27
60.1963
66.5311
58.3536
83.1139
379.433
61.1695
513.651
288.517
520.809
601.927
60.6011
100.228
68.0346
498.803
358.887
266.307
135.843
63.7576
282.697
85.3239
201.15
63.0887
62.9047
56.1243
65.5506
61.9599
1671.1
60.4305
86.4671
69.7426
58.0279
66.301
802.439
66.1818
160.641
281.454
65.2857
79.0952
124.033
50.7187
57.0763
801.097
497.481
153.411
162.966
99.7594
61.3502
300.496
59.9489
108.331
82.018
57.8897
289.135
94.3468
119.397
349.049
63.8379
70.1316
71.7526
66.6247
58.8973
117.205
65.2727
307.836
58.7913
149.441
66.3161
146.869
67.1232
66.1049
369.368
122.506
203.414
52.1708
1755.01
53.2632
52.3003
57.5021
64.8852
70.5104
429.158
72.0854
52.5262
526.944
72.4117
55.0466
63.9821
656.018
51.7117
80.9722
747.329
77.4359
664.723
347.908
72.6471
72.0824
145.252
153.311
596.881
71.5365
247.463
69.5201
57.7018
152.42
69.7906
68.9146
58.0645
350.75
305.078
304.636
153.421
80.1843
92.8587
53.866
73.7
66.5416