/*--------------------------------*- C++ -*----------------------------------*\
| =========                 |                                                 |
| \\      /  F ield         | OpenFOAM: The Open Source CFD Toolbox           |
|  \\    /   O peration     | Version:  2506                                  |
|   \\  /    A nd           | Website:  www.openfoam.com                      |
|    \\/     M anipulation  |                                                 |
\*---------------------------------------------------------------------------*/
FoamFile
{
    version     2.0;
    format      ascii;
    arch        "LSB;label=32;scalar=64";
    class       volScalarField;
    location    "0.00742553";
    object      p;
}
// * * * * * * * * * * * * * * * * * * * * * * * * * * * * * * * * * * * * * //

dimensions      [0 2 -2 0 0 0 0];

internalField   nonuniform List<scalar> 
47425
(
56.7219
57.8303
1.74825
81.2846
70.5791
2.59417
71.4045
0.961297
138.368
68.6331
0.583605
116.182
73.4265
0.899927
78.6847
110.22
2.60077
110.112
-18.07
60.6364
88.1534
106.629
2.151
40.7108
107.963
37.8383
3.16985
50.3884
2.93908
12.0667
99.9237
112.265
129.191
16.2709
2.45836
1.6005
104.808
132.575
89.1974
54.8602
54.0853
69.8909
71.8715
139.275
68.9494
49.1654
4.94843
127.236
48.1261
19.5967
136.638
75.3019
11.0148
65.8482
42.7891
92.2251
61.1533
2.68879
67.1515
4.0611
64.0874
66.5162
49.8631
102.963
131.803
83.8579
120.369
72.6623
58.0687
104.309
83.37
33.4431
81.9271
90.1322
57.7033
143.347
50.5461
15.3922
10.8052
70.5107
53.5928
94.3246
104.869
121.861
57.4981
60.5392
77.2984
53.3391
74.1948
67.7793
101.526
80.6052
21.5559
61.8004
68.05
62.8132
16.1957
68.7074
58.3586
112.966
123.996
110.324
93.7136
130.029
95.7088
75.5739
60.6188
59.2151
56.7966
111.112
52.754
112.376
74.5101
69.6584
75.9359
122.991
76.2805
137.433
90.4724
75.4981
68.1713
131.709
123.815
77.995
111.37
75.4542
59.1452
135.693
43.2208
28.7375
103.9
69.2032
140.878
91.1896
69.3844
78.1027
82.9877
75.4374
106.674
78.4292
123.015
72.7161
86.424
75.1866
98.107
136.402
70.4365
124.734
88.1477
124.07
75.1776
130.485
129.764
84.5255
104.766
48.1007
89.1087
-27.9543
54.4202
9.78185
77.1624
38.7327
31.3322
96.3924
50.839
10.3468
124.556
54.7236
36.0176
46.7051
55.5416
28.2562
123.818
102.475
55.0211
95.5235
120.764
0.926627
5.40736
16.6397
114.898
48.1046
4.27977
10.2811
13.9315
125.744
96.7127
136.14
15.3574
56.3734
122.283
12.5863
73.0033
129.83
20.4241
78.7509
125.311
38.6111
78.086
69.2439
17.9171
74.6501
60.5032
77.9822
92.3443
80.6671
5.02127
78.4985
114.583
132.133
61.0791
78.1512
117.64
42.2554
74.2472
77.8718
76.4354
68.7545
104.705
118.387
69.8465
76.0071
73.7266
83.0072
83.1751
70.4186
20.391
76.3414
76.9386
75.2233
81.0961
9.29005
71.0233
134.058
6.7159
104.905
68.5666
19.2909
69.4617
5.72821
8.7423
18.756
20.9893
75.5496
90.7175
139.789
61.3514
136.756
33.1273
2.57018
43.0856
71.361
3.15557
133.504
11.4856
6.29363
103.595
13.1824
87.0395
132.148
15.1103
133.473
96.0176
102.219
74.1409
67.4285
5.62635
74.5127
9.69782
97.4531
101.688
69.5704
68.5553
101.231
70.4705
106.503
70.2009
112.758
69.6046
120.57
67.5767
57.1345
65.54
25.9804
27.1321
78.6514
24.0077
0.932846
58.5359
76.1067
143.634
101.733
137.143
5.23336
1.74274
85.8337
76.8484
92.0521
110.123
75.3929
61.4717
40.1305
10.0028
4.25389
3.26904
-16.4107
125.434
17.8475
33.3571
96.1484
96.0984
139.011
1.31885
1.04395
73.4065
63.7868
23.4204
21.3213
5.57922
48.2967
73.7125
107.318
108.133
-0.0116052
60.6339
1.59377
102.509
49.6914
20.3922
6.76466
75.6573
26.2069
91.8749
5.07489
125.517
1.89741
22.1508
113.71
27.6345
34.6446
95.1585
96.4727
50.25
104.529
22.6922
-0.277306
5.00232
100.452
0.473833
15.3171
98.5455
91.8667
105.486
103.961
103.189
79.1205
20.2093
104.096
98.248
129.893
91.2421
75.7592
33.7389
0.572756
92.5575
71.2137
4.97763
128.869
110.275
92.4918
2.90352
63.165
74.6655
93.0925
141.916
93.5025
71.3218
116.078
135.414
104.793
127.343
93.5213
42.8726
129.692
43.1851
132.983
4.39969
98.9149
121.644
5.07163
89.2047
90.2507
3.58601
88.4717
20.2762
89.9756
112.68
5.5098
71.6129
13.494
68.3956
16.5035
68.2237
13.0696
81.4701
10.4146
12.658
7.4488
2.3057
6.17476
90.6052
-36.1147
147.174
40.3676
90.1274
89.55
86.9261
37.3777
1.0262
18.9699
5.65896
29.317
54.9904
85.3429
4.04354
2.94786
75.578
80.0936
81.0539
104.159
-2.85288
69.979
114.103
4.90392
56.8641
-11.9685
65.612
36.1155
84.4026
85.0428
82.6365
-7.10163
51.8106
37.4553
20.5048
82.2527
84.4195
52.9395
54.4435
70.3367
2.88696
68.9917
128.554
107.231
74.2422
40.7186
82.3446
74.6352
82.3295
125.527
128.27
133.036
89.4539
134.56
32.6639
105.111
7.15574
80.0263
29.7612
21.9454
123.13
122.899
122.303
94.2772
113.554
52.9632
81.1416
70.8961
119.374
74.4421
122.152
74.6815
75.4893
95.8586
35.3422
94.432
123.73
120.58
93.0831
24.9979
74.6412
94.8787
55.7581
93.3709
111.062
35.6875
96.2283
121.425
98.5305
51.4576
16.2567
42.472
3.95559
83.2608
1.41357
4.50326
33.0662
47.3278
81.1859
2.75457
1.45195
108.352
-0.714248
54.5835
55.4395
40.1002
4.00761
13.4635
114.766
91.8949
133.613
138.421
136.311
8.18973
0.593859
108.54
136.573
67.1331
64.2437
18.5233
45.5489
47.2804
74.4542
117.24
62.7845
132.078
-14.7014
112.459
96.8474
4.83401
68.0627
14.7962
54.9376
18.8916
58.9261
2.4343
31.9977
8.17438
10.8539
5.7078
9.40478
67.2372
31.7653
4.60859
67.675
70.9915
11.023
11.2439
15.668
18.0908
73.4204
6.6888
19.3615
18.5894
73.4088
74.1706
100.681
57.4994
47.7564
1.84669
63.7039
105.331
52.8652
13.9929
6.13535
11.5266
13.5723
54.626
109.272
14.6982
14.4456
5.2697
126.413
2.3283
102.15
117.081
4.14303
57.5344
101.341
2.65683
24.2972
68.8255
73.7299
123.225
90.7178
38.325
71.6461
84.0217
24.8407
71.7971
91.3069
24.9639
25.424
112.882
92.7061
129.647
74.057
122.25
66.9334
89.86
87.4018
65.1231
106.294
22.2966
86.532
99.8468
21.7358
130.586
75.9295
115.469
118.721
76.3454
56.8483
-47.5678
88.153
73.8452
57.6133
54.2339
12.0458
62.0978
53.7953
1.37477
91.5674
73.0936
134.591
58.6029
3.90439
6.83328
123.612
62.8612
135.718
135.929
25.0738
10.3086
37.0779
1.08712
31.5937
40.6963
80.7346
70.8204
33.5905
84.3367
92.5751
2.84921
101.151
117.543
125.806
123.828
131.037
122.405
106.006
79.849
124.446
91.6
68.1861
3.43943
24.7279
64.945
-1.12245
102.423
84.3457
6.16297
6.2356
6.00594
56.7394
21.8912
73.6363
74.5291
31.0934
119.478
93.1216
113.266
12.7538
23.4925
70.3346
72.255
140.398
72.6541
70.7626
24.4329
75.3197
70.5651
73.6699
133.071
49.0775
90.3596
69.0752
73.2289
127.733
96.8495
73.5268
10.212
71.0637
1.12573
30.3259
120.291
120.14
92.5776
106.517
6.10467
-0.898209
87.6636
65.6171
71.1273
6.55848
45.3163
2.75166
42.9691
124.102
75.0869
2.076
124.01
36.4849
38.7307
56.9295
1.0446
78.2063
69.7357
53.2973
13.3061
2.59462
38.904
104.775
5.91395
74.5832
33.8833
27.3048
41.1011
104.028
127.943
39.5716
14.2252
75.9492
62.5604
15.1706
69.1703
74.0415
93.7169
80.5332
133.498
9.98983
147.523
72.1584
79.5116
70.7026
13.21
145.639
90.5731
74.5993
45.1409
12.1113
73.9512
63.4784
42.6145
39.2056
20.8651
114.127
125.306
133.541
134.401
130.646
74.2816
58.9359
71.9938
138.279
136.34
130.936
25.7856
103.348
17.2001
91.6083
16.6015
90.3214
86.5037
91.2598
17.4478
15.1247
14.7109
4.89022
86.494
31.518
18.8242
88.9831
16.423
104.226
2.19595
28.237
121.179
9.01087
-0.0224628
-0.0721483
18.0615
16.538
141.642
69.1882
5.63007
93.0367
29.5771
101.685
99.3597
74.9894
16.9642
2.08671
73.9577
88.4567
84.1958
113.992
15.9016
6.52507
2.67105
68.4176
43.1822
125.303
80.9782
2.65715
134.001
27.6744
70.3987
23.4291
132.288
114.45
2.51301
74.4235
100.836
74.085
0.926025
102.673
13.8326
64.3644
73.9972
9.25432
73.4626
68.4113
-1.20046
73.9576
2.50544
73.4964
8.45562
-0.00346743
72.9949
45.6496
46.0828
51.4534
42.8328
60.6442
93.8696
101.725
101.076
69.0257
75.5461
48.2509
70.4087
133.058
76.4224
99.9357
52.5016
65.9891
43.8392
47.8908
73.3053
-39.634
73.7467
74.9989
72.6517
74.4997
72.6684
74.0722
55.591
134.126
141.065
46.6876
73.5589
100.017
104.634
136.432
16.8782
74.5626
66.9931
55.3576
19.9555
56.6938
119.515
128.247
75.3366
8.90638
93.4314
133.519
126.873
124.717
116.678
136.617
63.7934
73.639
102.474
105.066
98.6838
90.4562
80.0583
124.256
71.3321
71.562
74.7531
74.4615
15.5377
74.2492
71.2782
131.374
99.2219
131.853
63.198
24.2162
67.549
61.8277
92.6321
76.8173
91.8859
50.817
59.4459
56.8532
62.7928
65.7755
73.5644
68.8692
61.9597
96.2685
17.8902
85.2465
72.7456
33.0027
87.787
69.9742
69.526
74.0154
99.8571
141.936
-13.3102
123.034
67.001
46.7734
12.4793
41.3859
101.478
21.1597
138.402
23.2341
20.3428
16.2481
95.0496
83.3233
10.9466
136.942
110.377
116.945
32.9136
92.7137
72.7353
96.816
110.838
106.445
127.322
32.1072
77.1234
75.0136
111.905
95.9547
37.7107
100.143
26.3508
27.1088
88.9189
76.3788
52.4535
74.6321
79.2322
98.599
64.7662
32.1414
27.7806
27.5733
-34.3549
52.4218
73.6173
18.0399
74.6464
79.2793
61.2479
18.4178
79.5277
88.8524
39.7186
67.5932
64.1105
86.0355
76.9567
42.843
96.3651
78.2273
125.228
-11.2394
74.6705
69.7098
42.7676
143.273
-39.0413
54.6586
106.921
81.0586
60.387
106.455
77.2162
99.4359
71.889
71.3638
68.9146
79.2839
76.9794
66.1386
90.1252
72.3024
72.0574
109.503
99.547
74.1848
60.0439
92.3673
63.2758
73.507
68.9952
125.642
90.4759
31.7835
38.3974
68.0481
105.344
75.368
73.7331
63.1378
101.265
97.792
67.2058
76.7609
73.9681
72.4717
69.0568
84.3751
97.574
120.518
98.8885
93.5572
103.933
59.4056
116.089
132.208
99.284
67.0754
30.3747
70.4482
95.098
122.473
71.699
109.783
40.0156
88.4047
105.907
76.4526
78.7462
108.794
92.9582
48.663
104.761
55.9859
-8.68847
62.879
104.439
73.7906
105.068
61.3894
53.7419
72.9865
67.1816
68.9849
14.9726
51.5769
148.295
68.0764
-9.62976
67.0769
1.05918
59.2284
68.4961
69.6811
101.618
0.0257732
52.687
63.2903
0.841415
85.5014
58.2282
64.0782
63.5725
135.941
18.912
64.8073
-22.7323
68.7712
104.628
69.6839
99.6764
-13.8739
57.6104
95.5335
19.3189
20.0278
81.8693
20.9794
81.3665
81.2889
26.4879
89.5869
125.518
92.8682
108.786
56.8177
72.1027
102.486
76.8358
77.4628
74.6738
97.6116
29.1178
41.2337
61.0143
40.8814
70.6817
42.4039
36.8793
41.662
98.3891
81.4743
-33.0406
140.659
14.16
69.4833
126.262
85.8975
131.351
75.1032
63.4152
-35.5512
67.056
138.831
133.705
74.0799
40.7774
75.6206
83.2744
60.3513
70.9769
65.1614
73.356
125.611
134.505
59.6149
59.1828
79.7595
91.092
128.52
-31.7903
125.323
50.0418
73.2096
118.368
130.379
71.0185
80.8693
140.215
72.3583
88.8051
117.98
117.384
99.5443
6.75471
66.4787
72.8116
-33.351
150.747
135.482
60.2494
130.473
108.785
28.5423
86.3473
-27.971
67.9853
77.367
106.192
75.9532
129.67
125.757
102.119
68.615
72.4571
4.46364
112.151
7.25006
73.696
102.956
76.0816
78.054
71.2091
103.49
27.9419
58.798
85.106
63.3814
27.8666
6.8613
132.419
27.262
76.8951
112.554
73.9058
74.5727
70.3922
69.7499
93.6479
47.2488
71.196
89.9777
88.364
26.516
70.0344
75.6355
110.982
37.1805
59.4028
94.0942
30.8711
42.2046
-2.20399
6.67461
74.0288
70.5314
108.573
75.8052
73.2964
74.6472
-6.63394
2.76586
75.5175
35.7219
35.0754
70.048
143.782
80.228
69.8222
51.4989
5.18556
82.0838
0.580133
-54.4577
23.8148
62.8852
27.9988
109.58
84.2292
70.8791
60.426
45.0379
74.2174
21.8989
126.935
48.0174
23.5821
85.6713
135.943
125.835
117.555
79.4127
21.1077
96.721
118.192
107.53
119.873
22.5924
93.8537
98.0416
110.178
72.72
53.7361
96.2051
101.939
77.6723
132.357
19.481
35.6181
112.088
97.6218
129.763
-3.69792
112.252
104.955
47.0883
10.9373
60.3629
109.96
111.449
5.92717
57.775
144.8
99.5653
1.04
98.2425
58.065
3.27369
82.7742
-2.56285
52.3079
50.9899
116.061
108.014
101.529
48.7727
39.8997
49.517
91.8935
96.1459
36.6007
73.2242
37.8963
74.1735
149.303
122.746
49.2768
70.2487
25.0154
41.4594
109.853
3.87525
104.647
58.4999
127.03
39.7439
62.7247
69.5592
58.5312
76.7484
76.2418
48.3171
84.0016
65.4048
54.9862
43.6431
74.4284
48.9925
53.9464
39.43
9.44359
68.7689
3.35849
40.1476
13.047
39.7774
116.125
76.6991
41.2744
71.224
82.6683
75.8539
74.1483
67.926
75.0719
122.655
51.7319
121.084
35.773
118.087
52.8861
103.744
63.7704
73.2582
50.527
101.747
24.2537
101.414
99.2834
10.3844
56.3462
135.245
55.7286
76.0617
53.04
54.6212
69.8202
58.947
75.5746
58.4769
61.2529
57.3309
23.4153
17.2341
18.8564
8.391
52.4139
137.983
125.664
37.4554
34.0747
127.669
57.5226
40.6136
50.201
46.0379
74.3347
43.8284
55.3557
50.6124
96.1966
7.53559
72.5034
3.65743
36.8541
51.2754
77.871
33.315
31.233
72.8694
75.4583
15.7605
74.7727
0.461839
72.8751
31.104
25.6121
11.4237
21.9574
11.1949
14.1628
24.1577
77.806
72.6907
1.4297
121.119
69.7112
78.665
80.2226
21.6076
46.3612
77.0467
65.6647
5.80686
49.6033
37.4685
77.8575
2.97185
51.3137
30.6612
24.4935
50.8287
75.3407
2.6079
26.9834
30.0008
71.4591
67.2549
-3.22378
33.5124
1.77663
72.6891
5.34782
32.7799
36.2904
68.0965
141.374
72.1922
67.9754
37.1696
1.91833
54.1016
32.4786
21.6724
68.5613
17.4009
33.5513
5.38725
72.7109
72.2529
53.8646
96.5993
73.7848
65.1351
50.2933
68.0258
73.2388
6.2478
3.98072
3.9252
36.8272
6.15669
62.064
3.61528
11.7262
61.9236
-44.8464
2.99966
54.5111
124.951
0.844961
76.5659
101.933
115.517
2.85223
91.9261
5.4933
45.9413
20.7487
6.10127
38.6457
56.8803
4.47133
37.6915
58.1306
2.18714
71.1252
69.0204
3.30945
35.4694
86.0551
1.10361
74.2935
0.752711
68.7907
101.619
79.1985
3.69235
133.582
70.7596
129.574
66.9733
66.5818
20.771
69.8754
28.6827
136.302
71.6552
135.159
76.6637
99.5777
59.3519
68.8389
137.28
70.435
129.728
26.0319
56.7545
9.79725
33.6427
26.4922
127.36
127.197
126.85
130.533
150.741
-0.427587
111.736
133.732
97.9111
106.054
133.519
18.8696
3.30523
20.8046
0.952205
8.10765
4.86033
27.675
61
75.9192
36.6158
79.8697
38.2723
75.152
59.417
36.8854
32.9712
53.8806
72.6871
67.2148
63.5727
68.7889
14.167
27.2865
130.961
37.1937
9.78827
137.556
22.6614
10.4011
17.5471
14.2993
7.77368
80.6411
49.8245
101.829
91.0457
87.7507
75.741
7.02025
12.9666
16.4507
147.447
15.8816
119.994
113.644
53.4796
127.719
36.9777
129.728
40.1548
121.223
66.0525
67.8937
67.3275
143.04
136.755
70.2529
127.043
125.433
116.223
86.26
137.214
122.82
28.756
22.504
75.5504
69.1776
23.2624
69.6961
46.0286
104.367
24.4483
68.2172
65.8981
107.036
-10.2375
88.6837
51.731
-46.7192
24.6773
73.6702
103.92
91.4434
99.5827
116.694
58.7981
62.8301
76.1787
76.9305
56.2728
7.76111
6.79362
45.4897
16.0774
67.8155
14.7048
11.7978
26.3487
68.6956
70.7225
36.551
5.68538
6.76701
59.7994
73.1866
64.941
30.7822
99.0462
62.9514
-46.507
77.9143
15.6745
78.7334
69.4939
72.4261
117.867
85.7449
93.1939
74.9398
1.48185
3.58374
67.9768
1.16306
1.50615
79.9261
7.29991
61.4925
57.0657
88.0212
76.2396
65.0462
134.989
2.68708
103.605
2.77761
1.51719
125.484
53.5114
109.46
5.37642
68.6928
69.0962
6.42117
71.693
59.3896
100.837
77.6451
17.65
10.6017
69.6214
113.718
9.90153
99.8046
141.521
61.9991
71.1685
74.7597
76.2322
36.9182
28.1256
67.0539
123.007
124.703
87.997
121.38
97.2432
88.4962
85.5679
72.791
64.8672
88.9383
76.0271
118.858
122.836
149.133
87.5242
67.8289
72.8489
43.7287
64.5502
82.9201
104.496
70.6515
117.058
77.2165
99.2049
60.6473
134.261
115.043
74.8159
70.4433
89.9362
54.2762
-19.57
25.4389
72.1929
74.538
-19.6485
65.8254
74.6311
74.9179
64.7308
-11.0913
67.9073
94.1574
-13.2469
106.02
76.201
67.8992
107.267
77.9111
92.7924
65.4195
96.776
103.15
25.9191
95.2768
146.723
71.808
142.148
114.734
21.7788
135.843
141.992
42.5783
74.2208
76.0961
22.6205
69.6513
66.9478
58.0561
58.9377
22.9396
75.9671
89.332
145.592
75.4803
84.4495
76.5783
72.0827
92.3827
88.4255
60.8794
24.2047
65.9172
11.6006
32.1319
73.1703
66.7369
72.8931
69.7102
54.3369
69.509
74.373
76.1486
12.0639
10.9734
73.0749
91.1774
71.2257
74.1722
70.4381
95.9748
97.9569
73.6805
10.5629
92.801
75.7488
10.0213
79.2862
64.4991
74.2593
72.8196
59.6078
77.3555
140.012
74.0622
75.3579
79.4049
74.1771
-23.1129
33.635
36.8054
77.9393
20.5626
93.6195
28.6905
67.1967
116.447
109.883
100.794
123.345
114.793
33.6285
75.0976
72.5611
75.3054
-45.4782
73.7142
60.2807
75.336
1.8185
60.182
5.04674
29.3228
75.0676
75.3248
46.9162
71.2523
95.4502
128.074
75.0491
69.1902
65.7619
56.2093
73.5437
66.0598
119.2
117.142
81.2084
121.827
122.003
30.5825
99.3053
90.4665
135.144
118.808
97.1691
113.632
149.732
30.223
53.0854
140.261
89.1052
123.904
77.1757
117.736
67.4487
97.9749
146.759
119.042
131.906
128.051
96.196
92.2207
66.8635
79.1183
105.512
53.001
108.091
63.7643
41.6114
35.5795
71.776
137.915
122.238
101.935
86.904
98.0011
101.025
98.649
68.4485
59.3295
127.749
62.6706
94.9989
66.406
84.1143
95.0864
73.3928
23.641
58.3664
73.1394
94.9417
85.0661
61.6355
94.4888
77.8271
60.8119
43.864
43.1818
84.1801
36.7948
75.8997
94.5219
29.1132
104.011
35.5454
74.4457
108.59
89.0265
102.133
120.561
10.5534
144.744
127.593
66.8242
39.7438
9.96246
67.4976
10.9381
10.2209
71.2853
69.538
64.4624
10.0671
147.831
76.1477
45.7222
87.1147
80.7403
62.8517
45.6523
75.9266
18.5835
72.7727
19.9626
73.7983
124.417
56.985
73.2207
11.86
110.658
11.9761
57.8687
19.3341
108.91
94.4953
53.4023
75.3275
131.069
89.0116
43.0483
63.873
118.174
58.7675
79.3465
69.1866
65.4159
79.8803
76.0179
100.257
70.7613
75.6518
60.8329
70.9052
128.985
76.4942
89.1239
55.9575
86.1252
61.3204
93.3518
91.0651
62.815
58.3168
89.2711
84.6248
83.323
152.198
86.9657
55.7511
77.8746
79.8505
-31.1786
-31.0637
95.6068
100.549
96.5261
96.8692
71.3493
74.9168
146.5
75.0059
97.685
66.5508
76.2154
77.3213
98.2081
74.3107
96.2709
71.3355
4.96518
61.4512
120.355
65.484
99.756
100.004
43.0809
29.144
114.543
26.5805
103.522
39.4585
121.698
44.9917
109.838
71.6999
80.9088
10.8948
82.4255
74.4559
58.7537
81.201
97.234
2.35291
137.426
63.851
133.424
74.9134
104.185
74.6148
74.5364
14.1451
76.0109
87.0363
79.9848
103.679
72.945
26.494
118.822
115.997
125.343
128.355
88.315
106.429
118.432
114.268
71.5823
114.372
61.7415
68.9892
72.8472
38.4348
11.706
69.9986
73.0679
70.7417
76.3615
120.549
85.9825
113.78
36.1211
91.8108
104.932
38.2886
32.5778
20.3738
40.249
148.258
18.2909
73.8511
19.2711
131.242
139.528
100.66
134.443
71.4757
63.242
84.2649
76.8534
76.4785
73.5068
119.647
10.1719
48.1459
73.257
66.7814
80.0759
97.2533
66.466
128.933
125.694
71.5634
137.464
60.2524
90.3602
65.1117
102.76
142.492
75.138
75.6835
121.614
92.0286
77.0341
117.694
90.9109
73.5045
122.972
66.4401
125.327
3.85208
87.2912
130.802
72.9148
75.2779
85.5795
41.5743
73.6049
14.6167
133.502
59.993
91.8062
51.0069
72.1837
70.496
57.4807
127.124
132.871
106.974
86.8733
74.447
76.2002
74.4346
76.5161
119.002
61.8383
71.8388
148.342
71.3595
72.0973
147.428
126.23
-40.2182
139.74
73.4763
82.1973
116.319
130.472
13.523
118.928
16.0562
85.9222
14.2213
70.5868
59.872
122.511
87.0099
148.593
35.1809
13.6849
22.3205
-34.0761
-51.8506
61.7138
53.9419
65.3411
23.3394
146.714
92.2682
111.5
133.816
107.416
58.2547
91.853
56.8075
135.916
40.6096
112.622
4.93505
43.943
40.8425
33.3744
147.453
42.876
35.8777
104.3
45.8365
43.7462
102.257
76.6801
38.8476
76.3002
42.2941
91.7867
115.272
48.2928
79.7936
83.0273
73.7165
73.8823
52.6464
61.2711
70.5484
74.9846
128.779
100.498
80.4248
76.969
86.2807
83.6504
41.8666
105.471
98.2293
-15.4189
41.6529
91.9859
78.4236
83.9609
94.1802
70.6056
96.5573
97.0236
110.064
73.634
110.78
95.1735
135.599
114.15
91.8209
111.349
114.832
75.6057
113.58
50.765
79.2813
59.5046
86.8937
-0.90112
98.1447
102.684
72.3708
113.832
6.01223
94.7669
116.103
73.6312
118.001
69.8638
54.3404
1.79693
74.8801
4.8434
72.6258
116.823
74.8827
77.6306
100.686
83.1056
81.0513
4.30402
94.165
103.802
113.064
88.743
82.8688
109.968
94.0474
1.74763
62.1396
119.593
-1.81006
95.0043
75.155
123.839
102.228
106.188
74.1979
49.8497
-48.549
139.541
134.965
76.7883
73.2107
74.9876
67.6677
118.542
54.7317
66.6021
80.2506
20.6947
99.5889
71.6285
24.1909
22.6333
118.545
21.7897
75.7956
106.014
67.8599
69.6476
22.7258
74.8708
111.094
0.946641
36.4664
99.8516
94.6192
70.322
105.598
90.6354
31.821
27.0057
34.5833
24.7637
71.4266
109.831
36.4942
90.3067
109.204
151.342
37.4993
78.2182
70.3388
59.185
16.6124
33.3979
33.977
100.702
136.546
4.96068
97.82
97.1051
47.7399
133.528
88.7321
67.2276
95.6011
100.679
72.8667
94.0432
50.2802
51.027
100.477
104.71
28.3244
102.895
98.5927
83.475
98.7013
111.523
74.7477
61.8042
76.025
102.835
107.628
99.7907
109.188
93.8533
2.28649
129.641
1.59121
80.8909
77.2413
122.65
123.621
73.6496
86.2503
144.71
68.7902
65.1685
41.3452
84.2642
78.2172
49.7903
71.9989
105.706
73.3111
74.13
1.64821
75.2113
114.934
94.9289
91.9702
5.83308
12.0494
71.1974
75.0665
74.4606
81.7351
72.5537
9.87671
69.8584
76.9516
113.539
60.9268
110.364
73.7578
73.078
99.4359
117.398
126.333
81.7106
72.6478
72.7832
88.9961
73.1585
80.883
17.2136
82.3276
75.9934
16.911
17.0461
22.0349
103.089
46.6804
100.364
21.8635
55.2296
11.8241
51.4313
83.7401
82.2901
75.7214
54.2604
84.23
79.9243
98.512
79.3651
97.8322
76.8919
74.199
-54.5082
9.92622
108.944
113.041
49.2924
54.6924
60.9901
27.3787
10.6534
74.7573
9.87093
68.5694
71.9035
57.9172
-26.7039
72.6996
77.0739
97.9485
135.68
78.4403
-20.6019
71.5998
87.2265
75.215
75.8948
51.039
81.3613
69.2953
69.7982
83.9175
92.3975
74.1892
41.1143
-4.58057
-7.26746
63.233
112.519
59.8005
94.9862
35.8824
104.305
88.4091
85.9629
109.404
96.2998
112.361
56.9617
86.3306
86.5183
69.1987
82.5751
76.1043
93.677
114.708
95.7134
124.719
82.6574
103.352
36.0043
76.103
55.2447
119.766
109.316
104.61
85.6708
58.5274
74.4711
92.2997
57.1733
90.3737
85.0882
76.7957
97.2375
100.705
75.5321
73.747
53.4333
134.857
79.778
44.8969
83.3068
53.485
48.7188
131.587
38.7031
76.0139
114.14
76.8654
122.652
91.6228
98.3323
77.3824
120.518
12.9411
78.9829
13.5514
77.6562
74.3529
107.078
12.0011
73.2391
67.1571
76.7476
105.304
12.504
96.9901
74.0067
68.5505
33.5351
81.0254
126.756
-59.3193
76.9182
88.7316
66.0163
81.4611
123.228
93.7991
72.3897
117.68
70.6327
118.105
21.9291
125.99
48.9503
71.4035
74.3204
89.4734
78.6583
71.2188
115.521
79.036
71.5952
78.0416
143.49
5.06034
123.105
75.7777
6.98899
78.2536
10.9489
116.962
101.936
137.142
82.919
6.46261
134.584
75.3986
9.86647
33.3171
69.6361
82.7143
12.5036
102.749
63.4141
21.8291
10.832
73.9834
28.2878
69.6453
16.5852
15.312
60.8942
17.9925
64.3134
59.6326
2.55408
34.1823
122.63
67.9441
57.3125
142.078
137.31
103.928
123.645
-0.0619677
130.709
129.961
1.87617
127.441
76.1159
8.96548
93.6331
119.336
34.3185
2.13112
140.536
131.458
109.579
74.8489
74.5271
5.96108
80.2729
0.860709
38.5865
81.8728
30.2731
138.485
40.0031
29.8081
24.2517
107.913
64.9963
73.1107
75.1044
65.8857
71.1177
24.4884
90.5113
65.4355
108.047
102.302
79.7058
24.0288
130.855
74.4516
130.393
110.898
94.4214
115.786
17.3515
78.292
80.1361
74.1925
74.1901
115.835
-47.4444
66.015
62.5743
37.0162
104.74
42.1203
138.941
77.4453
131.802
46.7542
46.0012
74.5643
74.2164
42.2516
58.4003
40.6047
120.199
101.802
119.825
62.7361
72.5451
86.6897
56.45
109.501
134.039
100.87
76.3829
70.2467
95.0353
23.9848
69.3103
142.85
121.298
128.349
69.3233
131.704
85.3981
76.323
130.167
116.97
82.8628
78.6609
54.6579
128.875
92.1106
129.11
76.3237
55.4231
111.683
76.7469
1.19967
9.8836
3.42305
74.7986
104.299
68.1618
76.4484
66.2519
103.475
125.797
72.9974
122.392
2.79715
1.60999
72.5448
144.585
73.0205
138.048
107.055
87.2
110.507
89.9321
102.446
0.129398
0.978249
3.37274
-0.464665
95.8592
74.9237
99.0338
60.4959
78.9115
69.5781
99.3757
70.9133
136.718
85.8803
84.4795
5.54956
130.632
2.33551
106.239
79.2468
92.1002
74.8092
83.2362
120.098
125.262
73.9334
5.66556
72.177
56.0374
28.4539
75.9211
140.995
116.324
144.348
146.016
136.095
32.9732
83.2703
136.365
44.6423
0.311075
87.1689
2.71001
67.8158
49.6043
79.9728
81.9848
79.9478
4.34464
113.094
62.3108
127.09
56.2135
117.225
81.9778
96.9162
84.7612
74.5322
-22.8411
71.6563
64.8073
74.0356
111.697
19.3924
-48.4353
115.519
74.4804
73.9007
99.23
114.304
76.2909
111.666
-15.8969
65.1846
61.3682
124.052
59.139
88.0685
110.612
86.4423
52.4239
45.0279
89.3604
71.6532
140.539
84.9014
55.3485
76.6261
73.3912
32.4563
74.0472
12.8491
60.4385
12.276
13.2318
12.9471
92.0377
70.1445
141.773
13.2423
107.941
64.7724
11.3284
73.9128
59.66
121.031
118.794
65.7868
95.161
100.934
98.9165
91.054
96.2729
77.095
6.71981
-153.486
54.6435
104.776
108.615
60.7906
111.764
21.8896
76.6963
90.352
83.8515
57.6627
134.929
21.997
99.2384
119.214
120.228
150.475
119.365
66.5622
42.8078
136.956
133.625
122.094
51.2101
7.59222
135.35
110.727
80.604
105.574
101.51
54.4213
15.9806
-37.6555
109.188
91.6807
124.204
49.1373
134.439
116.435
119.48
125.82
9.27188
90.5167
84.2997
124.8
76.3937
44.1364
-7.12499
132.206
73.5865
58.3829
27.4451
133.72
129.397
129.307
53.59
-3.98956
132.25
67.2821
44.1232
132.932
83.4148
78.0772
125.449
67.1876
77.1911
75.0026
130.325
70.5573
48.257
76.5301
76.6911
81.6537
74.6053
94.6402
63.5651
74.8065
74.6477
48.5019
23.5549
12.9004
73.8225
80.401
74.4325
66.8006
65.2373
76.9911
23.4402
85.4497
24.1011
18.6823
130.034
106.381
110.589
1.04429
95.0181
33.9409
70.0715
76.85
34.6504
0.996135
48.4541
58.4569
68.9258
57.7643
83.7976
105.117
112.007
99.1752
114.146
126.724
6.66875
1.14776
1.76554
101.448
57.9231
16.5899
41.7958
98.2936
125.436
107.642
116.964
88.3609
11.777
78.7718
98.7315
90.1769
71.3005
103.422
94.1554
77.0849
106.057
75.748
76.761
84.1045
99.3791
121.643
65.5425
144.737
14.9149
104.252
-2.88368
20.2365
76.3933
88.4905
126.09
79.2554
67.2708
75.0314
104.384
66.9763
11.4104
105.404
133.549
150.72
27.0149
59.696
44.4687
98.4474
80.956
74.4999
99.4184
92.5938
69.1023
86.9643
94.8856
55.6599
75.7729
5.04856
73.5669
-18.2817
4.78885
99.115
-10.2884
73.9535
1.74499
149.387
88.165
138.849
80.9649
-16.7137
102.433
90.4024
121.654
144.279
100.377
122.503
3.21932
58.4928
135.88
98.8568
73.8414
97.3406
60.7035
84.9209
74.4143
141.13
87.3174
71.3168
88.661
96.9295
78.2813
80.4895
64.9123
1.93253
96.1141
4.7024
103.38
3.19723
73.289
98.0525
70.6562
96.6699
38.731
1.74599
116.859
74.7252
124.684
5.58071
77.4155
0.386383
1.29528
77.3508
84.9055
99.6852
123.252
106.873
17.0557
48.2292
136.08
112.83
105.219
93.8149
0.329179
1.11078
29.7498
135.891
106.863
102.714
0.446672
102.751
6.69761
3.69287
72.6179
67.3803
56.4116
34.4755
95.8895
65.5669
68.8884
99.8719
121.756
105.927
72.1275
109.925
77.7459
21.9257
71.551
11.6158
90.6967
80.9481
74.1873
25.5703
96.0192
24.7853
111.052
23.4658
64.865
61.9408
14.4753
107.35
91.91
132.042
118.12
129.156
78.3598
96.275
96.5669
95.0975
126.997
57.2038
90.7134
99.5661
128.969
112.506
71.0052
135.169
131.786
13.2764
21.4244
66.6522
17.3637
17.5389
94.9788
141.883
-28.1989
69.9541
101.165
107.499
16.4236
24.8245
21.7191
96.937
70.0966
20.6733
58.5234
122.856
88.8909
46.8588
92.9054
13.6539
112.892
93.4875
45.8407
2.58111
-5.77866
152.075
105.622
96.1218
92.9488
106.526
21.9228
101.242
96.4975
105.13
39.7612
101.082
109.522
132.92
124.205
94.5448
73.0752
108.247
79.6084
26.904
24.4
113.852
64.462
66.8869
21.0082
143.982
25.0682
9.56273
109.756
112.245
127.503
3.65773
47.0457
11.52
120.874
74.6235
61.5815
67.4071
97.0844
82.8577
103.698
65.1685
107.011
69.7554
97.929
70.0919
78.6912
8.71057
124.393
91.2075
84.9007
68.3006
88.6674
69.3257
89.4512
83.7242
67.7998
53.8916
73.1529
84.2594
123.996
58.0434
148.643
46.3348
147.605
144.166
56.5514
84.7887
85.9581
40.8744
54.003
6.44423
100.787
23.0729
49.7186
88.1776
66.7227
15.6873
87.3406
86.8414
95.0227
89.8663
40.1832
46.2757
81.0913
60.2476
74.0599
65.1018
66.8384
66.9671
60.4059
71.9864
86.4915
46.3967
66.9563
52.3374
75.5803
73.2773
105.198
70.2107
140.647
139.635
0.93306
4.9176
77.1662
75.3765
87.6969
11.2366
86.5564
89.3698
5.34431
141.913
7.78009
73.2296
2.54519
2.45493
65.5129
0.574644
10.1568
70.0521
136.166
85.7942
71.9547
56.5117
67.9974
71.4498
64.2363
82.8766
8.90246
87.9924
11.3206
-1.16466
83.0973
106.389
122.168
81.5274
90.8371
93.5237
57.9661
69.3566
0.440931
133.752
42.0556
71.5981
75.9869
139.516
76.5611
79.4672
114.915
33.1627
89.0735
4.58858
3.9643
3.146
1.7108
2.79528
30.7143
103.323
2.28503
47.8586
89.6317
3.2846
80.6512
83.389
102.661
55.9546
88.5504
104.288
67.9704
82.9473
92.0081
149.517
101.235
-41.0322
128.39
103.457
109.239
14.4781
136.723
32.3154
95.8067
106.147
12.3031
58.4246
-53.653
33.883
31.6187
-41.1069
109.915
14.9588
50.0931
76.8186
43.6757
125.729
115.173
141.214
132.498
139.288
128.558
17.686
-32.9046
4.65482
-8.55167
80.0971
83.1138
111.724
135.939
130.139
152.402
81.5935
69.5154
40.5498
8.71484
69.0856
85.5463
80.9587
15.1095
94.51
91.4926
80.2262
92.4977
130.962
62.6615
128.885
127.863
100.078
135.697
136.545
94.6099
120.037
55.4085
99.7244
135.521
121.951
134.894
106.213
150.627
144.715
71.5942
77.7121
92.858
130.095
99.4825
132.255
78.4448
130.364
51.899
48.2928
83.7018
95.8852
138.811
125.443
95.0393
86.0846
62.8317
97.8893
79.6661
48.5392
91.8686
39.4604
30.8514
26.0775
45.557
96.7437
35.0383
137.56
68.2582
100.847
107.301
105.289
68.5434
92.5065
113.725
129.731
125.13
110.891
110.626
103.358
137.401
126.504
104.253
133.631
92.9238
46.9867
92.499
72.0014
78.3208
119.364
76.9443
152.022
77.4932
85.162
90.8066
64.6556
75.8081
75.4699
72.9066
57.5746
45.6573
82.3196
64.9523
80.2215
87.9104
75.4213
70.5799
52.3084
67.69
-40.3538
55.4795
-17.9485
49.8422
85.61
144.471
75.7152
75.6958
118.42
76.6546
56.4918
75.2302
106.018
68.1077
75.3026
75.6442
108.382
117.533
89.1626
105.225
84.2084
54.4108
104.049
56.5723
92.2513
54.6084
136.527
66.6316
-44.968
98.4317
79.8005
-35.6737
75.3849
152.517
96.9891
100.329
151.201
11.1112
64.6974
124.957
120.452
59.1026
119.147
65.6834
95.2031
111.037
55.0022
15.3381
88.6312
69.593
109.098
75.3138
28.3816
77.6517
13.7453
65.7871
85.8222
28.9153
75.6655
73.2707
80.5137
23.0559
-3.3096
70.3896
59.1152
73.4457
21.8803
73.2718
141.891
73.5276
70.0115
30.1739
95.1898
75.2343
59.5702
73.9704
70.0284
64.867
71.8688
76.491
12.0327
76.2594
-6.21097
-42.6654
75.5395
14.7757
66.8926
105.353
73.0044
11.5563
69.1588
29.7178
144.565
75.6329
71.8001
45.0565
76.4689
73.1863
74.663
75.4787
50.2322
53.8192
67.1867
31.0256
76.0056
75.7204
75.2152
75.5627
76.4926
140.987
123.751
65.8652
99.6885
127.902
68.298
57.7025
113.483
122.467
41.4194
86.2428
30.5706
110.974
63.3711
121.148
118.488
102.055
83.9743
75.1297
61.7892
74.9933
70.4621
32.6381
87.2001
102.885
110.583
59.4985
67.0857
63.9791
93.6507
71.9847
61.6629
38.3084
75.1441
74.7373
145.92
147.976
151.222
108.604
40.1135
75.6368