/*--------------------------------*- C++ -*----------------------------------*\
| =========                 |                                                 |
| \\      /  F ield         | OpenFOAM: The Open Source CFD Toolbox           |
|  \\    /   O peration     | Version:  2506                                  |
|   \\  /    A nd           | Website:  www.openfoam.com                      |
|    \\/     M anipulation  |                                                 |
\*---------------------------------------------------------------------------*/
FoamFile
{
    version     2.0;
    format      ascii;
    arch        "LSB;label=32;scalar=64";
    class       surfaceScalarField;
    location    "0.00742553";
    object      phi;
}
// * * * * * * * * * * * * * * * * * * * * * * * * * * * * * * * * * * * * * //

dimensions      [0 3 -1 0 0 0 0];

oriented        oriented;

internalField   nonuniform List<scalar> 
92401
(
0.147331
-0.0927664
-0.00858079
-0.0459841
-0.0689886
0.0605534
0.0431725
-0.0347374
0.020182
-0.0381432
0.0429439
-0.0249828
0.00630981
-0.0117356
0.0119138
-0.00648801
0.00114939
-0.000507157
-0.00520216
0.00455993
0.0196769
0.00938813
-0.0254875
-0.00357754
0.00525033
-0.00430713
0.000206185
0.0324138
-0.0252406
0.0125037
0.0503297
-0.0404687
0.0320318
-0.0418928
0.00100264
-0.000771379
-0.000725611
0.00049435
0.00453414
-0.0417529
0.039557
0.0293511
0.0248835
-0.0937917
-0.0157058
0.00971902
-8.00132e-05
0.00606679
-0.0335296
-0.0395512
-0.0150653
-0.0174341
0.0541729
-0.0216735
0.00110736
-0.0653122
0.0642048
-0.00395941
-0.00782335
0.00181501
0.00337538
0.00263297
-0.000945017
0.00134046
0.000511888
-0.000907327
-0.00452987
0.00962301
0.000798819
-0.00589196
0.0159818
-0.00556433
-0.00456733
-0.00585012
-0.0408014
0.00897721
0.0372237
-0.00539956
-0.0399032
0.0115576
-0.056256
-0.05488
-0.00161771
0.0551763
0.0013214
0.0888824
-0.0873045
0.0222699
-0.0238478
0.0513226
0.0620888
-0.0741187
-0.0392926
-0.0326285
0.0504264
-0.057701
-0.00253252
-0.00120959
0.00406066
-0.000318557
0.0303287
-0.0627905
-0.00016672
0.0605201
-0.0583429
-0.0324981
0.0303209
0.0125669
-0.0169534
0.000504796
0.00388174
-0.0352829
0.105404
0.0584508
-0.128572
-0.0839667
0.109371
0.00832813
-0.033732
-0.130219
0.0357868
0.0281776
0.066255
0.0150665
-0.0626318
0.0389447
0.00862054
0.0598302
0.00914548
-0.0539092
-0.0439891
0.0104656
0.00203748
0.031486
-0.0499848
-0.0410095
0.0625849
0.0284094
-0.0344115
0.0390137
-0.0132617
0.00865949
-0.0197542
-0.101748
0.0647736
0.0567284
-0.0861332
0.0858723
0.000260928
0.0319759
0.00547122
-0.0785722
0.0411251
-0.000260103
0.0287679
-0.0330297
0.00452187
0.0280116
-0.0516515
0.0236398
0.00025185
0.000225208
-0.000197338
-0.00027972
0.00100527
-0.0606872
0.0596819
-0.069008
0.0435752
0.0626354
-0.0372026
0.0898766
-0.0258525
-0.0131646
-0.0508595
0.00030111
0.0718444
0.00171902
-0.0738645
-0.0458664
0.0724536
0.0372823
-0.0638694
0.000459742
0.000961918
-0.000279055
-0.0011426
-0.00204403
-0.00433521
0.00117072
0.00520852
-0.038364
0.0865465
-0.0457793
-0.00240315
0.000393872
-0.00104013
-0.000495779
0.00114204
-0.0554353
0.0545627
0.000872547
0.0748115
-0.00659166
-0.0190404
-0.0491794
-0.0969677
0.0894009
0.00502769
0.00253911
-0.0523747
0.0256569
0.00978389
0.016934
0.0017132
-0.0158274
0.00513161
0.00898263
-0.013087
0.0251782
0.0370773
-0.0491684
0.00109329
-0.000597507
-0.000101913
-0.000104795
-4.65482e-05
0.000923616
-0.000772273
0.00116213
0.000343969
-0.000807385
-0.000698712
0.00425336
-0.00896854
0.00525034
-0.000535161
0.0701898
0.00520154
-0.0199677
-0.0554236
-0.0147962
-0.00440335
0.00990649
0.00929305
-0.0440106
-0.048106
-0.0547269
0.146843
0.00322673
-0.0320116
-0.00457476
0.0333596
-0.000337192
0.000590742
0.000564373
-0.000817924
0.00586193
0.0039771
-0.0289424
0.0191034
0.017924
-0.00655133
-0.00938748
-0.00198523
0.0408538
-0.078212
-0.0262503
0.0636085
-0.0276531
-0.00331627
0.0101921
0.0207773
0.0121064
0.00760107
0.0132319
-0.0329393
-0.00123494
-0.000541478
6.27939e-05
0.00171363
0.0230391
-0.00661543
0.0356389
-0.00143089
0.000985109
-0.00143661
0.00188239
0.0497261
-0.035854
-0.0702472
0.0563751
0.0006153
-0.000307565
-0.000307735
-0.00102559
2.61311e-05
0.000474483
0.000524973
0.00116758
-0.0010485
0.00153317
-0.00165225
0.0222577
-0.0184781
-0.064895
0.0611154
0.00133457
-0.0129524
0.00259662
0.00902123
0.0449414
0.0562195
0.0175687
-0.11873
-0.11674
0.0258846
0.128886
-0.0380301
-0.00337475
-0.044047
0.00619787
0.0412239
0.0517655
-0.029533
0.0261096
-0.0483421
0.0242522
-0.00470126
-0.152418
0.132867
0.0065591
0.0137033
-0.025697
0.00543463
0.000703675
-0.000155445
-0.000728108
0.000179878
0.0365506
0.0138645
-0.00175524
-0.0486598
-0.00248329
0.0812017
-0.0833351
0.0046167
-0.0195064
0.047074
-0.11261
0.0850424
0.041904
0.00531657
-0.0505953
0.0419887
-8.47018e-05
-0.00212641
-0.0297804
0.0415274
-0.00962063
0.0701838
0.0173874
-0.0315234
-0.0560478
0.130749
-0.141965
-0.0299919
0.0412081
-0.0152404
-0.0460628
0.0591767
-0.086114
0.00239512
0.0837188
-0.000434565
-0.0996963
0.164439
-0.064308
-0.00229319
0.00337002
-0.000443168
-0.000633658
0.0889936
-0.152535
0.0309117
0.0326302
0.00165796
-0.000191553
0.000659506
-0.00212592
-0.0838891
0.142654
-0.107287
0.0485221
0.027427
0.00441674
-0.0396359
0.0077922
0.0857678
-0.017576
-0.076034
0.00784226
0.00616372
0.0299016
-0.0513057
0.0342246
0.0299605
-0.139967
0.0757816
0.0884601
0.110812
-0.0775638
-0.121709
0.000944458
-0.00158555
0.00147999
-0.000838903
-0.0942348
-0.02719
0.11087
0.0105552
0.00284113
-0.00560467
0.0142491
-0.0114856
-0.0142565
-0.0343518
0.0575925
-0.00898423
-0.00438278
0.0161375
-0.0138833
0.00212858
0.000252389
-0.000591847
-0.000483662
0.00082312
0.0210921
-0.024551
-0.000923855
-0.00171877
-0.000787038
0.0013976
0.00110821
-0.0579753
0.0639653
-0.00599001
-0.00221682
-0.00586938
-0.00213874
0.0102249
-0.0349891
0.0270605
-0.00632793
0.0211332
-0.050601
-0.0544989
-0.0526239
0.0454252
0.0961182
-0.0889196
-0.00730548
-0.00156022
0.00453019
0.00433552
0.0470873
0.0135405
0.000516546
-0.0611444
0.000202247
-0.00842612
0.00695022
0.00127366
-0.0369425
-0.0564079
0.0126518
0.0806987
0.064929
-0.0381807
0.0230242
-0.0497724
-0.00883264
0.0593685
-0.0577287
0.00719285
-0.0602446
-0.0321095
0.00835802
0.0839961
0.0174429
0.00482275
-0.034107
0.0118413
0.0609212
-0.0573915
-0.00352968
0.0021715
0.00191189
-0.00116235
-0.00292105
0.0408569
-0.0424783
0.00162144
-0.0478846
-0.0446228
0.110798
-0.0182909
0.000968923
-0.00961564
0.00916358
-0.000516864
0.00312061
0.00561443
0.00241646
-0.0111515
0.00115255
0.00619234
-0.00714265
-0.0317038
-0.0544439
-0.0105587
0.0967064
0.0234894
-0.00642963
0.0173368
-0.0343965
-0.0885126
0.0998061
-0.108902
0.0976088
0.0688258
-0.0470758
-0.02175
0.00204236
-0.0353024
-0.00961533
0.0428754
0.00755517
-0.00604323
-0.00806965
0.0065577
0.0443904
-0.0665521
-0.0624092
0.0845709
0.0763739
-0.0657007
0.027736
-0.0384091
-0.0123276
-0.00751099
0.0293376
-0.009499
-0.0621207
-0.0878674
0.0587494
0.0912387
-0.0422045
0.055047
-0.0108002
0.0991193
-0.0486179
-0.0505014
-0.00328591
0.0144412
-0.00360014
0.00093555
0.000634343
-0.000712931
-0.000856962
0.0488195
-0.0180629
-0.00458081
-0.0261759
0.00368753
-0.00176806
-0.000644768
-0.0012747
0.00549358
-0.00964526
0.00867654
-0.00452486
0.0737109
-0.044243
0.0257363
-0.0552042
0.00825582
-0.000174731
-0.00710551
-0.00097557
0.00169968
-0.000547564
-0.00115211
-0.0631037
0.0649096
-0.00180594
0.013117
0.0048967
-0.0972975
0.0792838
-0.0107492
0.0134308
-0.0096806
0.006999
-0.0720019
0.0158447
0.0826905
-0.0265333
0.0188066
-0.0982745
0.0752408
0.0042271
-0.0499509
0.0421835
-0.00858151
0.0163489
0.00893369
-0.00161653
-0.00307451
-0.00424266
-4.18271e-06
-0.00124846
0.00125264
0.0217069
0.179722
-0.245435
0.044006
0.000143425
-0.000210784
-0.0250211
0.0623285
-0.0553048
0.0179974
-0.000123049
0.00534255
-0.00419781
-0.0010217
0.000768856
0.00169265
-0.00351001
-0.0745079
0.00533428
0.0691736
-0.0329574
0.110971
-0.0458731
-0.0321407
0.000156525
0.00112978
0.00949147
-0.0107778
0.000655008
0.095155
-0.0958101
0.00231119
-0.00159761
-0.00103479
0.000321217
0.0012806
0.0006014
-0.000576827
-0.00130517
-0.0358612
-0.0018458
0.0309969
0.0196154
-0.0636993
-0.0729115
-0.0165119
0.00533348
0.08409
-0.000625035
0.00190563
-0.0977007
-0.0423398
0.113088
0.026953
0.0254644
0.163155
-0.0813005
-0.0520532
-0.029801
-0.0202868
0.120132
-0.0436263
-0.0562186
0.0417478
0.0262318
0.0414029
-0.109382
0.108351
-0.249808
0.10766
0.0337974
0.00150927
-0.0013333
-0.00151208
0.00133611
-0.0124752
-0.037909
0.0584757
-0.0080915
0.0256487
0.0396465
-0.0252158
-0.0400794
-0.0365983
-0.0256376
-0.0182455
0.0804813
-0.0562853
-0.0142052
0.0580152
0.00108157
-0.010919
0.00675581
0.00308165
0.056425
-0.0283518
-0.0526228
0.0245496
-0.0896426
0.104658
-0.049832
0.0348167
0.0154641
-0.0220702
0.00668325
-7.71435e-05
0.0546252
-0.0639315
0.0657314
-0.0582036
-0.0027214
-0.0105807
0.0715057
-0.0051948
-0.0118957
0.00202047
0.0150701
-0.00101323
0.055806
-0.0569561
0.00216334
0.133753
-0.0518157
-0.00198122
-0.0799563
0.0593606
-0.0066376
-0.0483477
-0.00437532
0.0531
-0.0196198
-0.0776223
0.0441421
-0.00922115
-0.0018955
0.0141131
-0.00299647
0.0050962
-0.0017332
-0.00473937
0.00137637
0.00231134
-0.0425882
0.0383558
0.00192102
-0.00145906
-0.0850626
0.00353761
0.018506
-0.0122631
-0.0613345
0.0430365
0.018298
-0.0613531
-0.0151566
0.00995087
0.0665587
-0.0967589
-0.00301742
0.104122
-0.0043456
0.00374722
0.0223088
-0.0122113
-0.0138447
-0.0709463
0.147389
-0.0663106
-0.0101323
-0.00630455
0.0155657
0.0223569
-0.031618
-0.0517465
0.0973693
0.0357508
-0.0813736
0.0266178
0.00221184
-0.0141861
-0.0146435
-0.0357021
0.0382381
-0.000224666
-0.00399379
0.00710474
-0.0103971
0.00728617
-0.000839351
-0.00390215
0.0102351
0.0360082
0.0377852
-0.0737934
0.00101677
-0.00172031
2.77289e-05
0.000675805
0.0188373
0.00759028
-0.0177858
-0.0086418
0.0235313
0.00820952
-0.00267898
-0.0290618
-0.0508265
-0.000328329
0.00730049
0.0438544
0.000172014
-0.0427602
-0.000849772
0.0004982
0.00136835
-0.0503404
0.0363039
0.0503918
-0.0363554
-0.0421732
0.0282721
0.0184701
-0.00456902
0.00130892
-0.00301401
-0.00920275
0.0109078
-0.00761877
-0.00448914
-0.00355308
0.015661
-0.0413427
-0.00411229
0.00975286
0.073816
0.0403526
-0.0735256
-0.040643
-0.0437001
-0.000353429
0.0440535
0.0880759
-0.0480463
0.0570707
0.00329938
-0.00778733
-0.0372626
0.0417505
0.0368788
0.0106139
-0.00620016
-0.0412926
-0.000409101
0.000279325
0.000939459
-0.000809683
-0.01795
-0.0433001
0.0612502
-0.000203589
-0.0012311
-0.00409882
0.0314027
-0.0240045
0.00543243
0.0277859
-0.0410057
0.0917933
-0.0866327
0.00183649
-0.00699708
-0.0239313
0.101955
-0.0182631
-0.0597606
-0.0300379
0.00604472
0.0157483
0.00824493
-0.0393169
0.035499
0.0147264
-0.0109085
0.0297353
-0.0249243
-7.74295e-06
-0.00480326
0.020287
0.0714779
-0.121824
0.0300588
0.0723837
-0.0750042
-0.024094
0.0267145
-0.140621
0.00235043
0.0034156
0.134855
0.0309657
0.0115997
-0.0394027
-0.00316259
0.0400537
-0.0582742
0.0187258
-0.000505251
0.00193311
-0.00106727
0.000149582
-0.00101542
-0.0121414
-0.00192832
0.0756298
-0.0406261
0.018742
-0.0537457
-0.0137381
0.0464793
0.001038
-0.0337792
0.0054259
0.0989347
-0.0935742
-0.0107864
0.051266
-0.0990322
0.0563685
-0.00860224
-0.0517514
-0.000750051
0.0387634
0.0151599
-0.00500696
0.00885083
-0.0190038
-0.0266306
0.0494188
-0.0126158
-0.0101725
-0.0508015
-0.000949911
-0.0106954
-0.125236
0.176221
-0.0402894
0.0101839
0.0114694
-0.0641232
0.0424699
0.0487142
0.00651023
-0.0450405
-0.0115388
0.00610234
-0.00353887
0.00897536
-0.0573863
0.00298491
0.0544014
0.111448
0.0413541
-0.136305
-0.0164967
-0.00851017
0.000319532
-0.00334818
0.0185458
-0.113719
-0.0237519
0.118925
0.0112671
0.0688976
-0.0686954
0.00222548
-0.0557207
-0.010628
0.000458965
0.00175943
-0.00242198
0.00195854
-0.00172203
0.000222454
-0.0528986
0.0307976
0.072659
-0.050558
-0.00175946
0.000965131
0.000820461
-0.0354775
-0.00727179
0.0449748
0.000203844
-0.000203876
0.000309188
-0.000880773
1.93161e-05
0.000552269
0.000194796
0.00196759
-0.00163272
0.0013502
-2.27415e-05
0.000305263
3.83798e-05
0.000118041
0.000936871
0.103084
0.117434
-0.0731867
0.000251387
-0.00103961
0.000826605
-0.0521468
0.0545712
-0.00242445
-0.0102375
0.0773206
-0.069769
0.00268588
0.002013
-0.018663
0.00478036
0.0118696
-0.0609424
-0.00144187
-0.0177413
0.00395769
0.0457296
-0.031946
-0.0656591
-0.000558306
0.0662174
-0.0062508
-0.0149957
-0.0123598
0.0336063
0.00023254
-0.000277909
-0.00044755
0.000492919
-0.00397414
-0.00767661
0.0089356
0.00271516
0.0553554
0.0426783
-0.0166506
0.0482495
0.0861963
-0.0362704
-0.0981753
-0.0124799
-0.0434045
-0.0223676
0.0232416
-0.057882
0.057008
-0.0090141
0.0268742
-0.00805229
-0.00980786
-0.0164786
-0.0127002
0.0150074
0.0141714
0.0976298
-0.0919349
0.015817
-0.0215118
0.000998948
-0.00406064
-0.000182661
0.00324435
0.00226317
-0.0664166
0.0641534
-0.0701785
0.00141766
0.0636117
0.00514909
0.0388128
0.0378023
-0.0766151
0.0189452
-0.0599396
0.0285144
0.00238301
-0.00163261
0.0013131
-0.00206351
-0.000632052
-0.000740939
0.00299553
-0.00162254
-8.1395e-05
0.000461084
-0.000930356
0.000550667
0.0654159
0.0546551
-0.0399188
-0.0801522
0.00789256
-0.0881045
0.0795938
0.000618143
-0.0136742
-0.00012431
0.0267912
-0.0129927
0.0504429
-0.0499769
0.0199531
-0.0204191
-0.000430535
0.00120921
-0.000584363
-0.000194312
0.0197992
0.0494104
-0.0502644
-0.0476485
-0.00150314
0.00080031
0.00144185
-0.000739014
-0.00031763
0.0796167
-0.0792991
-0.0509668
-0.0158951
-0.0229935
0.0898554
-0.0516086
0.000641851
0.013026
0.0189188
0.014804
-0.0467488
0.000206729
-0.00261444
-1.71597e-05
0.00242487
-0.00155104
-0.00056985
0.000617743
-0.110505
-0.00550938
-0.0442292
0.160243
-0.00496958
0.00428272
0.13782
-0.137134
-0.0374747
0.0409917
-0.0640019
0.0604849
-0.0729881
0.0764717
-0.00348352
0.00346626
-0.0504778
-0.0300312
0.0645337
0.0212497
-0.00505336
-0.0807301
0.0507251
0.0892773
-0.1553
0.0152974
0.0437571
0.0139
0.0318232
-0.0894804
0.103824
-0.110763
0.0457517
-0.00332359
0.0122004
-0.0111186
0.00224185
-0.00257636
0.000822745
-0.00108597
0.00283958
-0.00246851
-0.00557238
0.00143467
0.00660622
0.0605303
-0.00668659
-0.0183555
-0.0354882
-0.0580038
0.0296567
0.0283471
-0.0899179
-0.00856183
0.0127749
-4.90772e-05
0.000256584
-0.00278387
-0.117628
0.0263211
0.00794911
0.0833582
0.00155062
-0.0520655
-0.0104907
0.0610056
0.0478921
0.0272767
-0.106389
0.0312198
0.036975
-0.0408604
-0.0188672
0.0227526
0.0472132
-0.0600017
0.0497635
0.0300905
-0.0548652
0.0481336
-0.0233589
0.0332754
-0.0366507
0.0015784
0.00179685
0.0185294
-0.144837
0.0896299
0.0366779
0.00188106
-0.058465
-0.00357724
0.053352
0.00146495
-0.107192
-0.0345282
-0.00950561
0.00573933
0.0382945
-0.0484073
0.045174
0.0474843
-0.044251
-0.0424996
0.082204
-0.0397044
0.00992203
-0.100824
0.0500418
-0.0156655
0.0079902
0.0232675
-0.0155921
-0.0904917
0.0954665
0.0380324
-0.0430072
0.0571945
0.0319975
-0.0784156
-0.0107764
-0.047814
0.141154
0.00645205
-0.099792
-0.000287995
0.0032203
0.00316128
-0.00609358
0.0526061
-0.0706281
0.085062
-0.06704
0.00830486
-0.0409579
-0.00861702
0.0412701
-0.0423128
0.0267853
0.102055
-0.0865273
-0.0510904
-0.0289784
0.056761
0.0233078
-0.0104576
-0.00136289
0.00693915
0.00488136
-0.00902979
0.0201493
-0.0166558
0.00553625
-0.00203448
0.0739697
-0.0719352
0.0149644
-0.0454465
-0.0179252
0.0478353
-0.0317975
-0.00281209
-0.0132257
0.00114394
-0.0233651
-0.0204448
0.042666
0.0370909
-0.0354017
-0.00168918
0.0614242
-0.0422157
0.0652413
-0.0844499
-0.101049
0.0976749
0.101004
0.000555025
-0.0109528
-0.00198994
0.0123877
0.0520553
-0.000295693
0.000515914
0.000289959
-0.000510179
0.000532283
0.0464888
-0.108929
0.0619078
-0.00855217
-0.000119378
0.00485043
0.00382112
0.0271491
0.0105408
-0.0376899
0.00105357
-0.00129239
-0.00831336
-0.0321729
-0.0358562
0.0201446
0.0580475
-0.000662792
-0.0573847
0.0712615
-0.0426241
-0.0499366
0.0212993
0.00203271
-0.0253996
-0.0206222
0.0662986
0.0442662
-0.0393033
-0.00780394
0.00941253
0.133599
-0.123045
0.0382478
-0.0488016
-0.046613
0.0376221
0.02242
-0.0134292
-0.0512415
0.0516852
-0.0004437
-0.0486256
0.0300243
0.0105905
-0.0490007
-0.0101321
0.0485424
0.000595452
0.161235
-0.16505
0.00321988
0.109107
0.0167634
-0.0164998
0.0515457
0.00868413
-0.0527269
-0.00750299
-0.0142373
0.00449349
0.0102157
-0.000471898
-0.00941726
-0.00497718
0.00468072
0.00971372
0.0668955
-0.035832
-0.0553279
0.0242644
0.0295847
-0.0159853
0.021365
-0.0349644
0.0268947
-0.09584
0.0917639
-0.0228186
-0.00546565
0.000182998
-0.00895463
-0.0960121
0.109498
-0.0226406
0.00915443
-0.0109989
0.0491628
0.0138153
-0.0519792
-0.00420748
0.000212298
0.00284627
0.00114891
0.0852978
-0.00684316
0.0514581
-0.129913
4.95561e-05
-0.000704436
-1.86637e-05
0.000673543
-0.0672193
0.0616005
0.0730341
-0.0674152
0.00305711
0.00101061
-0.00157377
-0.00249395
-0.0787506
0.0776239
0.00112673
0.0629725
-0.0590398
-0.00393276
0.0596574
-9.45436e-05
-0.0595629
-0.016542
0.127877
0.00128438
-0.112619
0.0102394
-0.0310896
0.0338762
-0.0238692
-0.00104703
-0.0567753
-0.0691775
0.0121328
0.0655524
-0.00850771
-0.0127369
-0.00214597
0.00115437
-0.000665671
0.000379801
-0.000868504
0.00110062
-0.000398386
-0.000175163
-0.000527076
-0.0650731
0.0075429
-0.000602078
0.0581323
0.000661934
-0.00515388
0.0014407
0.00305125
0.0112336
-0.0143707
0.000352069
0.00278508
0.00814258
-0.00734838
0.0104394
0.0572115
-0.0112612
-0.0257891
-0.0201612
0.0378435
-0.00557066
-0.0361673
0.00389448
0.000971444
0.0679576
-0.000353588
-0.0685754
0.00780055
-0.0721062
0.0191062
0.0451995
-0.0418638
-0.0335344
0.0429329
0.0324653
-0.0324183
0.01625
-0.08814
0.104308
-0.000667336
0.0145664
-0.00726674
-0.00663234
0.0505093
-0.0590744
0.0473211
-0.038756
-0.0619739
-0.0104413
-0.00514457
0.00069032
-0.000331149
0.00398996
-0.00434913
-0.0112204
-0.00261078
0.00140096
0.0124302
-0.00761917
-0.00883473
0.0105211
0.00593282
-3.61198e-05
-0.00216941
0.00122467
0.000980854
-0.000256246
0.000288553
-3.23072e-05
-0.00115375
-0.0679143
-0.0243627
0.0934307
-0.000128448
-0.000350444
-0.00124727
0.00172617
-5.02784e-05
-0.000149546
-5.64215e-05
-0.00194169
-0.0637174
-0.00015704
-2.89396e-05
0.000474532
0.000698009
0.000180302
-0.000454287
-0.000424025
-0.0279481
0.0591844
0.0810667
-0.112303
-0.00873574
-0.00219508
0.00700777
0.00392305
-0.0141857
3.81011e-06
0.00544615
-0.00469334
0.00522968
0.0123122
-0.0128486
-0.000300985
0.000271307
-0.000127362
-0.0647898
0.0671104
-0.00232058
0.032216
0.0463486
-0.0597984
-0.0187661
0.012838
-0.0749044
-0.0220097
0.084076
-0.0128716
0.00277997
0.00539833
-0.00465391
-0.00599103
-0.00222671
-0.01628
0.0606882
0.0113799
-0.055788
0.0685522
0.00377868
-0.0520688
-0.0202621
0.000220324
0.000435537
-0.000678682
2.2822e-05
-0.000213421
-0.000137843
-0.00277802
-0.00109588
-0.00103972
0.00491362
0.0650097
-0.0455675
0.0127033
-0.0321455
-0.000669174
-0.00274199
0.001513
0.00189816
-0.0154469
0.0110948
-0.00407111
0.0084232
0.0011836
-0.105668
0.102726
0.00175877
0.00287631
0.000494233
-0.0100979
0.0067274
0.00953011
-0.00983982
0.00132534
-0.00101564
0.00971993
0.00352938
-0.010373
0.0378083
0.0576478
-0.0304464
-0.0273842
0.0546123
0.0300572
-0.0572853
0.0284731
-0.0558573
-0.00030178
-0.00157861
-0.0325311
0.0129232
-0.00990314
0.0786228
0.0246049
0.00758561
0.0724666
-0.0546574
0.097862
-0.115671
0.00122975
0.0920786
-0.0933084
-0.00676133
-0.00642169
0.0127635
0.000419514
-0.033422
-0.0860917
0.0271053
0.0924084
0.0215085
0.0624137
-0.023719
-0.0602032
-0.0230557
0.114564
-0.0537002
-0.0419446
0.0445113
0.0520456
-0.0559287
0.0570026
-0.0010739
-0.0373764
0.0364436
0.000932776
0.0417253
-0.0810905
0.0738682
-0.034503
0.0643424
-0.0806225
-0.0087854
-0.00827078
0.0102948
0.000691859
0.000705463
-0.000506043
-0.000891279
-0.00776547
-0.0412062
-0.00695706
0.00123945
0.00140472
-0.00238389
-0.000260283
-0.0551752
0.0518534
0.0861701
-0.0828483
0.0341767
-0.0318143
-0.00236243
0.0102548
0.0281272
-0.0133732
-0.0250088
0.00397255
-0.000567905
0.00244136
-0.005846
-0.0636834
-0.00119455
0.0208762
0.0440017
-0.00295545
0.00679184
0.00013616
0.0410179
-0.111902
0.105928
-0.0350438
0.0416212
0.016167
-0.0580695
0.000281257
-0.00365521
0.00695771
0.00139254
-0.00469504
5.28308e-05
0.0595834
-0.0596362
0.0358184
0.00641848
0.0138766
-0.0561134
0.00392787
-0.00715453
0.00265876
-0.180454
0.0232412
0.168599
-0.0113859
0.0384569
-0.010182
-0.0282749
-0.000902386
-0.00174537
-0.00128394
0.00393169
-0.0400654
0.0430437
0.127098
-0.130077
-0.00173153
0.000737838
-0.00216576
0.00315945
0.0892998
-0.00359656
-0.0440821
0.000348011
-0.00113477
0.00209606
-0.0013093
-0.0193324
-0.113937
0.0145764
0.118693
0.00188223
0.0534157
-0.00262081
-0.0526772
0.0475013
-0.067096
0.0580951
-0.0385004
0.0319124
-0.0361658
0.0496066
-0.0453532
0.00895802
-0.00271091
0.00627079
-0.0125179
0.002436
-0.042289
0.0542874
-0.0556701
-0.0347831
0.0991917
0.017474
-0.0260461
-0.0906196
0.0470118
0.0186735
-0.137122
0.0714367
-0.00133032
-0.008294
0.00612762
0.0034967
0.0281518
-0.0503182
-0.00332114
0.028294
-0.0253828
0.00760894
-0.00593549
0.000276274
-0.00194973
-0.0901445
0.0041622
-0.00336782
0.0765925
-0.152379
0.0791545
-0.0261112
-0.0887244
0.0425795
0.072256
-0.0708619
0.0194764
0.00135789
0.0500275
-0.0453087
0.0288227
0.0129084
-0.0819624
0.0952672
-0.0133048
-0.0238013
-0.00892847
0.121659
-0.0889287
-0.0033439
-0.00417857
0.0059861
0.00153637
-0.0262966
0.0613638
0.0413066
-0.0715412
0.028917
-0.000600701
-0.000395038
-0.00103563
0.00203137
0.0488229
-0.0499712
0.0545003
-0.0356297
-0.00679898
-0.0455472
-0.121723
0.0431038
0.0786188
-0.0441994
-0.0337097
0.0292835
0.00294885
-0.00204748
0.000485513
-0.00138689
0.00225664
-0.000288528
0.000980743
-0.087306
0.00514545
0.0821606
0.0609893
0.0116489
-0.121503
0.0488648
-0.0728682
0.00260204
0.0702662
0.000823034
-0.00140059
0.00804344
-0.00746589
0.0471241
0.159848
-0.225723
0.0187514
0.00149453
-0.00234336
0.00164772
-0.000798891
-0.0931787
0.0684251
0.0220126
0.00274093
0.000401462
-0.000287328
-0.000245516
0.000131383
-0.00107179
0.00857644
-0.00762352
0.000118868
0.00811241
0.00826047
-0.0163261
-4.68073e-05
0.0393029
0.0115322
0.00280744
-0.00258975
0.00127685
-0.0966501
0.107335
0.00330761
-0.0139924
0.0122708
-0.06737
-0.0220589
0.0771582
-0.00112003
-0.00113908
0.0890904
-0.0868313
-0.0418232
-0.0387388
0.0902123
-0.00965025
-0.0389497
0.0246254
0.0394427
-0.0251184
0.0506797
0.0212712
-0.0705319
-0.001419
-0.00322258
0.00104411
0.00250491
-0.000326432
-0.122378
-0.0411207
0.0388717
0.124627
0.0499889
-0.0393984
-0.032104
-0.0360802
-0.0325711
0.100755
-0.00185055
0.00410521
7.52203e-05
-0.00232988
-0.0285516
-0.0829244
0.0284199
0.0830562
-0.0286653
-0.0274742
0.0205098
-0.000992799
-0.00290523
-0.0015179
0.00340064
-0.00348697
0.00160423
-0.00648647
0.00630863
0.021025
-0.0741195
-0.0809935
0.134088
-0.000338483
-3.85073e-05
0.000192412
0.000184578
0.0529498
-0.0563988
0.0471659
-0.0437168
-0.0144197
0.0412442
-0.00600616
-0.0208183
0.0859708
-0.0866393
-0.0199131
0.0205815
0.0263626
0.0215831
-0.0624704
0.0145247
-0.130097
0.0741668
0.0191209
0.0368094
-0.00483075
0.00245397
3.35413e-07
0.00237645
-0.0075141
0.00890082
-0.000563682
-0.0141887
-0.00341709
0.019018
-0.00141224
-0.0640932
-0.00314626
0.0163987
0.0508408
-0.00724664
0.101646
-0.00555999
-0.0888394
0.00428322
-0.0474095
0.0811887
-0.0380624
-0.001766
0.00388633
-0.00159227
-0.000528058
-0.0153221
0.000914432
-0.00268336
0.017091
-0.105399
-0.00196049
0.0133546
0.0940051
1.19979e-05
-0.000135531
0.000223948
-0.000100414
0.0380239
0.0086057
0.0271864
-0.0068137
0.0465543
0.0547894
-0.09453
-5.33819e-05
0.000214237
-0.000148857
-0.000583617
0.00223301
-0.00138749
-0.000261905
0.0185285
0.111221
-0.0490696
-0.0806799
-0.000114377
-2.11546e-05
9.08825e-05
-0.000205259
0.0611704
0.0169034
-0.0909598
0.0128859
-0.15707
0.0831617
0.0800436
-0.00613521
-0.0179827
0.000569019
-0.0505801
0.0679938
0.0248849
-0.0148976
0.0182032
-0.0281906
-0.0667031
-0.0224272
0.0891302
-0.0754922
0.0376811
0.037811
-0.0019035
-0.000327541
-0.000170736
0.00240178
-0.0391682
0.0415908
0.00890417
-0.0113267
0.0479494
-0.0552058
0.00725636
-0.0588573
0.0339177
0.0455033
-0.0205637
0.00400516
-0.00183513
-0.00210993
-6.0096e-05
-0.0030127
-0.00258154
0.000763491
-0.0430095
-0.0455031
0.0463204
0.0145744
0.00297811
-0.0638729
0.000640161
-0.000661159
0.000875696
-0.000854698
-0.0126167
0.0161147
-0.00951941
0.00602141
0.00640798
0.0209606
-0.0390256
0.0116569
-0.0210472
-0.0157702
-0.00664313
0.0434605
-0.0737507
-0.0103208
0.0278127
0.0562587
-0.00138685
0.0148911
-0.008564
-0.00494022
-0.0549711
0.000996148
0.0329278
-0.000399903
0.0282703
-0.137279
0.12596
-0.0169511
0.02752
-0.033331
-0.0521643
-0.0291355
0.0576086
0.000846676
0.0384958
0.00222614
-0.0415686
-0.0602259
-0.0612367
0.121463
-0.0029253
-0.000717431
-0.00184273
0.00548546
0.00328439
-0.00458428
0.0015648
-0.000264922
0.0358648
-0.0057363
-0.0286317
-0.00149676
-0.00324081
-0.00190685
0.00222237
0.00268406
-0.00653958
0.0660343
-0.0621788
0.0752915
0.00162922
0.0280851
0.00868254
-0.00499722
-0.0317704
0.056742
0.000438505
-0.0571805
-0.0562669
0.115788
-0.0292349
0.0595309
0.0223752
-0.0526712
-0.0149181
-0.0226516
0.0151367
0.0224331
0.00342948
0.00345524
0.000808241
-0.00769296
-0.0366111
-0.0372584
0.100017
-0.0261479
0.0431276
-0.0342342
-0.00087682
-0.00801653
-0.0530717
0.117087
-0.0499191
-0.014096
-0.00176761
0.0019982
-0.000178549
-5.20422e-05
-0.00106333
0.0216797
-0.00363034
-0.0169861
0.00251167
0.0036367
0.000268332
-0.0064167
-0.000358691
-9.23027e-05
2.92247e-05
0.000421769
-1.54684e-06
3.62386e-05
-0.000393383
-0.00925773
0.0273165
0.0665127
-0.0845715
0.0797551
-0.0821494
0.00239429
0.000418853
-0.000417307
-1.54569e-06
-0.0134588
0.00107289
0.00214289
-0.00146447
-0.00175131
-0.0107059
-0.00769688
0.0068834
0.0115194
-0.0560497
0.0268148
0.000333007
0.0003621
-0.000822043
0.000126936
0.0321556
0.0566027
-0.0386429
-0.0501154
0.0161217
0.15276
-0.177151
0.00826952
0.0582428
0.0647128
-0.0634247
0.00201763
-0.0127901
-0.00122733
0.0119998
-0.0316035
-0.0299744
0.0615779
0.032789
-0.0643925
-0.0528548
-0.0429018
-0.0689261
0.164683
0.0499086
-0.056453
0.00654442
-0.0720791
0.132326
-0.0715084
0.0329922
-0.0295996
0.0854584
-0.00285005
-0.0687831
-0.0138252
0.0706554
-0.0699065
0.0121445
-0.0128934
-0.000412338
-0.00571275
0.00746672
-0.00134163
0.00157325
-0.00537584
0.00556217
-0.00175958
-0.000120284
-5.68078e-05
0.000848872
-0.000671781
0.0213459
0.0218596
-0.0326219
-0.0105836
-0.00511909
-0.00547036
0.00593024
0.00465921
-0.00961528
0.0318049
-0.0428224
0.0206329
0.000746828
-0.00809583
0.0111867
-0.00383773
0.0478929
-0.00376011
-0.0441328
0.0399033
0.0374338
-0.125888
0.0485509
-0.100141
0.0602429
0.0798014
0.0343929
-0.101745
-0.0437794
0.10718
-0.042108
-0.0212921
0.00195918
0.00895587
-0.0124672
0.00155219
0.0268479
-0.00419007
-0.0226578
-0.0294967
0.0459602
-0.00370454
0.0195994
-0.0323734
0.00152229
0.000116372
0.000609871
-0.00224854
0.0114428
-0.0368256
-0.00106026
0.000173642
-0.000684089
0.00157071
0.00267621
-0.000109401
0.000750707
-0.00331752
0.00118571
8.69346e-05
-0.0768997
-0.0150124
0.00213656
-0.0106421
0.0235179
0.0191492
-0.0895941
0.0208207
0.0496242
-0.00305931
0.0579126
-0.0823487
0.0274954
0.000510063
-0.000688804
0.00222582
-0.00204708
0.0818562
0.0127927
7.22337e-05
-0.0947211
-0.00101085
-0.00084931
0.00199516
-0.000135004
0.00470385
-0.00160242
-0.0692393
0.0661379
0.0061427
-0.00114855
-0.00440039
-0.000593761
0.00583441
0.00436577
-0.00340199
-0.00679819
-0.1104
0.0974577
-0.087517
0.100459
-0.0562015
0.108947
-0.0527456
0.0036211
-0.0454898
0.00995154
0.0319171
0.00341723
-0.00404445
0.00115924
-0.000532019
0.047177
-0.000998728
0.000301054
-0.133045
0.00226188
0.0745166
-0.0335104
-0.000841373
0.00115003
0.0290389
-0.0235172
-0.00667169
0.0767145
-0.0273518
0.0322542
0.00369006
-0.00458404
3.98515e-05
0.00085413
0.0343057
0.0229815
-0.074868
0.0175808
-0.00115731
0.000698846
0.000948421
-0.000489957
-0.000488008
0.00131392
0.0050085
0.000795338
-0.00730833
0.00599851
0.00499988
0.078951
0.0407284
-0.0381973
-0.0814822
-0.135111
0.146464
-0.0105883
-0.000764747
0.0304557
-0.0308378
0.000382084
-0.0358545
2.40546e-05
0.000243196
-0.00295531
-0.00187193
0.011089
0.210894
-0.15659
-0.0653928
0.0300123
-0.062725
-0.017431
0.0501436
-0.00269936
0.0377891
-0.000315556
-0.0863207
0.0488472
-0.0210007
0.00812767
-0.0373693
0.0470591
0.0470176
-0.0567073
-0.068809
0.0869568
-0.147173
0.129025
-6.78197e-05
0.000190497
-0.00151575
0.00139307
0.00029617
0.00218661
-0.000829108
-0.00165367
0.0465999
-0.0197151
0.042348
-0.0692328
-0.00357919
0.000476277
0.00311548
-1.25599e-05
-0.0113646
0.0118757
-0.0378804
0.0103192
-0.0424755
0.00573338
-0.00311263
0.0177706
-0.0203913
-0.129478
0.0157809
0.121669
-0.00797182
0.0394722
-0.0258625
-0.0202523
0.00664255
0.0343827
-0.0560333
0.010286
0.00376945
0.00696543
0.0522328
-0.0629677
0.023813
-0.00715095
-0.0249305
0.00826845
-0.0815339
-0.00751152
0.0170435
0.00123106
-0.000915735
-1.91576e-05
0.000578697
0.00692536
0.00169499
-0.00919904
0.0174465
-0.0315905
0.037957
0.0150022
-0.140086
-0.0242119
0.149295
-0.110559
-0.0166798
0.023719
0.10352
0.055255
-0.0343666
0.0314964
-0.0523849
0.110275
-0.00777101
0.0048119
-0.107316
-0.0168761
-0.0371329
-0.0039326
-0.0151683
0.0074108
0.0116901
-0.00122035
0.000458139
7.89667e-05
0.000683243
0.0134186
-0.0768409
0.0634223
0.10209
-0.00508336
-0.113549
-0.0252585
0.0561473
-0.0477649
0.0392087
-0.121371
0.0126043
0.0695578
-0.00532918
-0.0120732
-0.0268259
0.0442283
0.00561446
0.0470516
0.0778428
-0.126258
0.0013633
0.0479595
-0.083241
0.0916014
-0.0563199
-0.0977453
0.094999
-0.00560525
0.00835153
0.00113181
0.00203256
-0.0929282
0.0897638
-0.00134177
0.0036282
0.00587931
-0.00816574
7.6019e-05
-0.000831713
-0.000192139
0.000947833
0.0873685
0.00324409
-0.0193222
-0.0712904
-0.000261075
0.000300937
-0.000112965
7.31019e-05
0.00062014
0.00313002
-0.00191981
-0.00183035
-0.001782
-0.000811196
-0.00079301