/*--------------------------------*- C++ -*----------------------------------*\
| =========                 |                                                 |
| \\      /  F ield         | OpenFOAM: The Open Source CFD Toolbox           |
|  \\    /   O peration     | Version:  2506                                  |
|   \\  /    A nd           | Website:  www.openfoam.com                      |
|    \\/     M anipulation  |                                                 |
\*---------------------------------------------------------------------------*/
FoamFile
{
    version     2.0;
    format      ascii;
    arch        "LSB;label=32;scalar=64";
    class       volVectorField;
    location    "0.00742553";
    object      U;
}
// * * * * * * * * * * * * * * * * * * * * * * * * * * * * * * * * * * * * * //

dimensions      [0 1 -1 0 0 0 0];

internalField   nonuniform List<vector> 
47425
(
(10.074 -0.245075 0.0898271)
(9.94432 -0.422365 -1.16404)
(9.81599 0.188914 -0.0771788)
(10.8284 -0.148405 -0.0382077)
(11.2051 0.126143 0.652445)
(10.0016 0.0454117 -0.0566284)
(11.115 0.0407028 0.562868)
(10.064 0.0853339 -0.120492)
(10.3688 -0.175186 0.0646426)
(7.17393 4.13498 -0.780832)
(10.0745 0.0431435 0.0839385)
(10.7047 -0.000821463 -0.0840943)
(11.0923 0.0937114 0.219678)
(9.8389 -0.0236999 -0.218798)
(9.49225 0.275338 -0.357646)
(8.87177 -0.239244 0.884506)
(9.38401 0.133689 -0.251503)
(8.80616 -0.359615 -0.958604)
(9.07968 0.53962 -4.16601)
(12.5283 -0.243884 -0.000226968)
(10.6268 -0.492805 -0.42736)
(9.75862 0.206629 -0.218768)
(10.1486 -0.165598 0.324403)
(9.86987 -0.0387003 -0.0925141)
(9.65 -0.226063 -0.0273775)
(10.4232 -0.132741 0.0533697)
(10.0331 -0.118632 -0.0184087)
(11.8802 -0.0433493 -7.54145)
(9.91809 0.135928 -0.0643871)
(9.64173 0.16184 0.179238)
(9.69835 0.298258 0.182637)
(10.0323 0.0490233 0.284362)
(9.92539 -0.424558 -0.086578)
(10.0041 1.07405 0.0754117)
(10.0914 -0.328012 0.281818)
(9.45567 -0.171169 0.222218)
(9.71177 0.0887808 -0.0586497)
(9.08447 0.947354 -1.08431)
(10.2155 -0.684266 -0.355031)
(9.99095 0.104371 -0.13753)
(9.85133 -0.258298 1.06127)
(9.63981 0.0625465 0.180381)
(9.60123 -0.247194 0.203346)
(9.8954 0.160103 -0.376738)
(3.09185 -2.16599 -2.14706)
(10.3227 0.21843 0.731073)
(9.96254 0.230479 -0.0437114)
(9.90769 -0.0286364 -0.0679167)
(10.0395 -0.738998 0.126186)
(10.052 -0.115778 0.0331254)
(2.09558 -0.347833 -4.98938)
(9.80118 0.397648 0.372708)
(10.1908 0.0248476 0.194094)
(8.0263 -4.49696 0.736055)
(9.90947 0.204433 -0.315857)
(10.2882 -0.33205 -0.268985)
(10.0404 -0.0277755 -0.194214)
(9.8656 -0.205565 0.246575)
(12.3293 -0.0114143 -0.408552)
(9.85461 0.487773 -0.134894)
(7.36451 -4.38181 -0.057345)
(6.24753 -0.240339 0.478514)
(7.38533 -6.50819 0.25012)
(9.24447 -0.712286 0.301109)
(9.59221 0.32234 0.829859)
(10.4051 -0.114611 0.137217)
(9.55694 0.167528 0.251817)
(10.1218 -0.180225 0.50171)
(8.98116 -5.40451 2.00929)
(9.10781 0.324466 0.72479)
(10.5185 -0.281933 0.13875)
(10.466 -0.0272377 -0.0341143)
(10.449 0.0575209 0.0463809)
(10.6933 0.210564 -0.559265)
(8.3394 6.04862 0.647361)
(8.7028 -0.0794487 0.351309)
(7.6531 -6.81918 0.92566)
(9.81951 0.352147 -0.0893791)
(8.47892 -5.08417 2.05267)
(10.8661 0.105278 1.10558)
(8.77205 6.30654 0.858967)
(10.2249 -0.232547 0.166403)
(9.37417 -0.00140189 -0.133449)
(10.008 0.135941 0.602371)
(9.44299 0.432628 -0.321805)
(9.46576 0.351468 -0.0393702)
(10.2001 0.0209083 0.0999176)
(10.168 -0.260084 -0.293934)
(9.76426 0.443194 -0.394626)
(10.6827 0.00482997 1.715)
(9.79781 0.144287 -0.103037)
(10.3903 -0.675656 -0.352884)
(10.1095 -0.123788 0.410929)
(9.9823 0.017026 -0.0726705)
(9.37159 0.137588 -0.5362)
(10.0952 -0.403123 -0.224837)
(9.99828 -0.0553731 -0.113881)
(10.3071 -0.243972 -0.298982)
(10.1508 0.20859 0.544383)
(10.1034 1.07099 0.813122)
(9.6216 0.159131 -0.016478)
(8.82099 0.107954 -3.1645)
(10.4031 0.0205225 -0.0974443)
(5.5846 1.5492 -0.0945916)
(10.2586 0.0460999 0.0672449)
(9.74972 -0.00400997 0.358259)
(9.47029 -0.032402 -0.0436177)
(9.83617 0.081878 -0.149477)
(10.2366 -0.0463095 0.12692)
(10.0535 -0.285684 -0.0633928)
(2.92517 -0.378851 -1.54068)
(10.0131 0.342877 0.166145)
(10.0164 -0.386557 0.201155)
(9.87796 -0.142817 0.271254)
(10.2855 -0.0971662 0.243745)
(1.89474 -3.90508 -5.11937)
(10.2909 -0.250738 0.0546325)
(4.2878 0.0854416 -3.47851)
(10.5671 0.60761 0.422845)
(10.294 0.25851 0.238083)
(9.61289 0.180391 0.0458721)
(9.55293 -0.290425 0.37044)
(9.97415 -0.12893 0.125202)
(11.1205 0.498749 -0.352227)
(9.5894 0.840448 0.344036)
(9.93544 -0.31184 0.130272)
(9.99587 0.209893 -0.00482159)
(9.45232 -0.032921 0.50634)
(9.65996 0.295353 -0.619595)
(10.0821 0.00266813 0.195528)
(9.51535 0.0653257 0.198349)
(9.83972 0.330629 -0.601054)
(4.80626 0.206362 1.47377)
(10.1743 -0.1213 0.184847)
(9.90231 -0.0808511 0.0520833)
(11.3629 -0.369176 -0.474995)
(10.5358 0.336708 0.0603321)
(9.94917 -0.379804 0.154538)
(9.67895 0.742418 0.367444)
(10.5682 -0.0229639 -0.468342)
(10.3047 0.521956 0.441695)
(10.9213 -0.164711 0.21721)
(10.2709 -0.282784 0.0521235)
(9.96532 -0.388457 0.191327)
(9.88465 0.0628283 -0.43529)
(10.0021 -0.3948 -0.0632841)
(10.9413 0.0543223 0.908126)
(10.3406 -0.0388706 0.285224)
(10.2794 -0.0139901 0.424635)
(10.1862 -0.0845131 -0.0501173)
(9.96921 -0.38604 0.162516)
(3.13445 -0.389083 -6.09806)
(10.0355 0.194813 0.512703)
(6.27163 0.118941 -10.906)
(9.05216 -0.878003 -0.344707)
(10.0855 0.124045 -0.0732802)
(10.6732 0.27995 -1.15796)
(8.08819 -3.22204 -2.12906)
(10.6209 -0.397978 -1.15912)
(10.1017 -0.490662 -0.290461)
(10.3952 -0.303706 0.179267)
(10.0994 0.244114 -0.49849)
(9.88596 0.167492 -0.845294)
(9.68842 0.31697 0.252325)
(12.3981 0.0736388 0.645828)
(3.27492 -1.62645 -1.79627)
(10.4339 -0.00482928 -0.25458)
(8.67644 5.97917 0.71804)
(10.0082 -0.64829 0.0498644)
(12.3897 0.34008 -3.27193)
(9.33878 5.70544 0.460369)
(9.74832 1.2877 -0.276716)
(10.049 0.197672 -0.0567478)
(9.52385 -0.729214 -0.362088)
(10.8444 -0.790783 -0.0790222)
(9.42003 -2.49784 -0.824217)
(2.91555 0.593876 -6.97378)
(9.94866 0.070918 -0.322735)
(9.92845 -0.054642 0.452708)
(10.1756 -0.197338 -0.0555397)
(2.66304 0.0961054 -10.5408)
(9.74394 -0.158304 -0.456595)
(9.38052 -0.199451 0.1769)
(9.03937 -0.953644 -0.0844922)
(10.0824 0.0871312 -0.0246181)
(9.56029 0.58031 -0.203851)
(10.3809 -0.423401 0.27762)
(5.81118 -0.175453 0.12694)
(9.65113 -0.130523 0.437601)
(9.80928 0.255373 -0.193904)
(10.0539 -0.378106 0.138212)
(9.77516 -0.416295 -0.0566645)
(10.3634 0.63895 -0.929852)
(10.0415 0.716197 -0.266803)
(9.93224 -0.26151 -0.31364)
(10.4756 -0.216277 -0.0105675)
(10.3493 0.417171 -0.529052)
(9.63827 -0.262289 0.302577)
(10.5222 -0.2083 0.151571)
(9.81443 -0.072785 -0.476438)
(9.84184 0.254436 -0.652123)
(9.54545 -0.363028 0.235865)
(10.259 0.0965368 0.0159389)
(10.2705 -0.277482 0.0650594)
(10.0739 -1.0921 -0.584876)
(10.297 -0.772755 0.0748518)
(9.80052 -0.299337 0.94555)
(10.3712 -0.170007 -0.00701714)
(9.59608 -0.210799 0.0418773)
(8.43159 0.933133 0.172845)
(10.0562 -0.0125494 -0.550254)
(10.4667 -0.00202191 0.238633)
(10.2983 0.36916 0.145127)
(9.92533 -0.56154 -0.507921)
(10.2223 -0.0372606 0.3463)
(10.4986 -0.301265 -0.193275)
(10.3337 0.599484 0.0361947)
(11.1809 -0.00777203 1.03562)
(8.81735 -0.949577 -0.250508)
(10.0138 -0.148725 -0.243721)
(10.7057 -0.193641 1.6452)
(10.234 0.256201 0.161654)
(9.92061 -0.362869 -0.129591)
(10.3549 -0.684705 -0.493222)
(10.0428 -0.0737839 0.710453)
(10.686 -0.340104 1.55971)
(9.47876 0.00944042 0.159639)
(10.5813 -0.300728 -0.722701)
(10.446 0.462629 0.198346)
(10.5549 0.862013 -0.0908267)
(10.2453 0.0798166 0.0272121)
(10.1277 -0.0498946 0.0799325)
(9.74913 0.0584834 -0.506195)
(9.81118 -0.175654 0.437508)
(9.9479 0.362802 -0.169878)
(10.0408 0.0674954 -0.0241062)
(10.9 0.228034 1.19323)
(9.75313 -0.157909 -0.542075)
(10.9513 0.166491 1.1164)
(10.1952 0.430788 -0.289297)
(9.81439 -0.0711956 0.437368)
(9.35166 -0.345815 -0.409578)
(9.70604 0.0859242 0.294683)
(10.8442 -0.25602 0.0202952)
(10.4495 0.251348 -0.121108)
(8.94566 0.275725 0.495644)
(10.1878 -0.0733092 0.412247)
(8.43751 1.64207 -0.780923)
(9.69639 -0.386803 0.188059)
(9.95554 -0.0747388 0.026171)
(9.77871 -0.495778 0.27002)
(10.6704 -0.079948 1.16081)
(9.54611 -0.24809 0.500138)
(9.66017 -0.782529 -0.308498)
(9.12933 -0.110005 -0.535172)
(10.0177 0.204856 -0.221196)
(10.0964 -0.272309 0.413494)
(10.0528 0.485961 0.719097)
(10.5439 -0.141479 0.050757)
(9.75681 0.409064 -0.113097)
(10.6893 -0.35886 -0.227548)
(9.85704 -0.510096 0.688047)
(10.3718 0.277525 0.181522)
(10.2259 -0.584658 0.376306)
(10.7022 -0.0802526 0.429547)
(9.94465 0.33976 0.50566)
(10.0032 0.0715139 -0.179423)
(10.764 -0.0613603 0.353951)
(10.1188 0.145693 0.271049)
(10.6538 0.151315 0.628776)
(10.1079 0.428908 0.277214)
(11.0198 0.205832 0.93356)
(10.9921 0.20063 0.959052)
(9.73864 -0.634062 -0.370094)
(10.9162 0.0587474 0.995227)
(10.2478 -0.443907 -0.257689)
(10.9551 0.137706 0.946389)
(7.48869 2.79989 2.93461)
(10.9502 0.169892 0.955444)
(6.00403 0.865985 -4.53813)
(6.99009 -4.14629 -0.250341)
(10.0847 0.122363 0.0046028)
(6.76882 -3.89906 -0.940579)
(10.0136 0.238159 -0.39951)
(9.6978 0.280185 0.269017)
(10.6618 -0.0317691 0.327655)
(9.96533 -0.249606 -0.172907)
(9.61647 0.376878 -0.0545198)
(9.491 0.040826 1.53323)
(10.0399 -0.25597 0.244763)
(1.40811 1.27024 -3.07556)
(9.40324 0.56408 0.125119)
(9.93248 -0.00599764 0.0610178)
(9.89086 -0.607012 0.107977)
(9.84886 0.174114 0.118882)
(11.0162 -0.0544501 -0.268419)
(10.7644 -0.123883 -0.249738)
(10.3861 -0.145584 0.151807)
(9.69078 0.100999 -0.0227849)
(10.7082 0.173559 0.410305)
(10.0569 0.614988 -0.748915)
(9.99982 -0.597113 0.0854785)
(9.7095 -0.750261 0.381146)
(9.96017 -0.0907646 -0.0239529)
(15.0422 1.38143 0.557532)
(11.4837 -2.15045 1.20849)
(1.59029 0.814905 -5.81381)
(9.87505 0.0745718 0.390159)
(9.93789 0.149328 0.421637)
(9.96606 -0.410284 -0.0491573)
(9.77395 -0.249926 0.0228022)
(1.10792 -0.412158 -5.00781)
(9.96816 -0.0862337 0.0513252)
(9.96215 -0.187511 -0.0765955)
(9.82415 1.74033 1.14695)
(9.86742 -0.385985 -0.101805)
(10.0222 0.0196285 0.220523)
(10.0323 0.376665 0.654097)
(10.0813 0.50576 0.290895)
(13.591 -0.676484 0.495033)
(9.97957 1.59642 1.13144)
(9.83768 0.116582 0.577675)
(10.189 0.637955 -0.143314)
(9.78887 0.0653224 0.0457734)
(9.14742 1.25003 -0.693301)
(9.8328 0.252413 0.253423)
(10.3975 -0.729563 0.0565376)
(10.2112 -0.0660087 -0.454612)
(9.93331 0.142953 -0.187554)
(9.81117 0.0142803 0.882189)
(10.5108 -0.0911864 0.265853)
(12.4875 -4.40544 1.74658)
(10.2538 -0.493151 -1.01592)
(9.7106 -0.0919838 0.0737563)
(10.5211 -0.0306208 -0.104542)
(9.59142 0.446544 -0.10378)
(13.1846 -4.05 2.19445)
(9.86967 -0.256732 0.0600327)
(9.84034 0.108766 0.153058)
(10.0533 -0.785577 -0.0818076)
(9.45029 0.214414 -0.0881131)
(9.90876 0.259451 0.0205446)
(10.0053 0.089977 -0.010894)
(9.59022 -0.115609 0.409002)
(9.80622 -0.0439119 0.6585)
(9.48571 -0.0358192 -0.554355)
(10.0984 0.193642 -0.993922)
(10.0052 0.146638 0.00120478)
(10.1071 -0.0565642 0.334738)
(9.84949 0.216312 -0.0680801)
(10.328 -0.391238 -0.0727793)
(10.3916 -0.0894427 0.309958)
(10.1414 -0.0270026 -0.0238118)
(9.60192 -0.261489 0.0591917)
(9.61591 -0.95675 0.0582913)
(10.9961 -0.515563 0.25159)
(10.3273 0.176903 0.570227)
(9.61548 0.106458 0.0792273)
(9.81987 -0.539543 0.032683)
(10.2881 0.11785 -0.0805788)
(10.6292 0.125837 1.76255)
(10.2202 -0.483302 -0.392454)
(9.90564 -0.932518 -0.317134)
(10.3234 0.305369 -0.0740042)
(9.98286 0.0447248 0.0271355)
(9.89638 0.301664 0.18569)
(10.3073 -0.358475 -0.156964)
(9.81972 0.0580421 -0.2394)
(10.1345 0.280419 -0.141553)
(10.2101 0.361632 0.0109039)
(10.3228 -0.458549 -0.170103)
(2.99583 -2.31208 -1.94427)
(10.4514 -0.191243 -0.112515)
(9.92372 0.548406 0.014365)
(9.95441 -0.153996 -0.27988)
(9.92666 0.445931 0.0386806)
(9.29951 -0.173332 0.134927)
(10.0246 -0.240563 0.00405886)
(9.67719 0.924592 -0.703251)
(9.69217 -0.01626 -0.114057)
(9.95216 0.690198 -0.672926)
(10.1206 0.434111 0.0227785)
(10.1959 -0.145493 -0.19292)
(10.4302 0.0946182 0.0634761)
(9.61881 0.0669361 0.189708)
(10.3667 0.231166 0.0581011)
(10.4572 -0.554562 0.0844177)
(10.075 0.616872 -0.0303965)
(10.3461 0.0263419 -0.480501)
(10.1345 -0.593972 0.127111)
(10.2552 0.528761 -0.131331)
(10.0746 0.878734 -0.172407)
(10.4892 0.0385299 0.249562)
(10.2902 0.162188 -0.0559871)
(10.1693 -0.268213 0.282444)
(10.1102 0.54973 -0.100524)
(10.0844 0.203831 0.0707738)
(10.1615 -0.295234 0.0193593)
(10.8329 -0.797074 -0.563458)
(9.99125 0.176822 -0.122992)
(10.6023 -0.49467 1.61571)
(10.3667 0.11906 -0.193798)
(9.63594 -1.70955 -2.58654)
(9.87699 0.240293 -0.870433)
(10.6754 0.12564 0.201622)
(9.87352 1.3283 -0.643034)
(9.83036 0.514539 -0.120184)
(9.88413 0.0519017 0.244645)
(10.2196 0.0557659 0.363604)
(10.1799 -0.208191 -0.357541)
(10.0117 0.794659 -0.247371)
(6.36054 2.30964 0.0268902)
(2.68583 -0.481624 -1.86496)
(10.478 0.217034 0.161491)
(10.1439 1.08723 -0.420561)
(10.4475 0.364955 0.141248)
(10.5377 0.355082 0.0931574)
(9.98491 -0.251383 0.138511)
(10.0731 -0.231479 0.45968)
(10.237 0.290817 -0.0482126)
(9.67159 -0.266671 -0.234836)
(9.56834 -0.203811 -0.378208)
(9.70519 -0.23842 -0.392377)
(10.4846 0.391167 -0.375576)
(10.2437 -0.279217 -0.0441168)
(9.93693 0.222071 -0.169185)
(10.1821 -0.822657 0.372286)
(10.8353 0.322818 -0.0406446)
(10.6153 0.381215 0.153864)
(8.30535 -0.973638 -4.44839)
(0.106065 3.31466 -0.341001)
(10.081 -0.369753 0.0559989)
(7.83472 -0.81157 -4.90909)
(-0.332969 1.56051 -1.06461)
(9.1618 -0.00321986 0.587186)
(-0.656348 3.37931 0.0187185)
(10.3981 -1.32048 1.52656)
(9.65192 -0.888404 0.242149)
(10.5794 0.635129 -0.225132)
(10.6203 0.656865 -0.166211)
(10.7551 0.431377 -0.154173)
(-0.98788 2.76878 -0.0745875)
(10.0344 0.244699 0.41313)
(10.0263 -0.370733 -0.39284)
(9.9508 -0.100627 -0.184274)
(10.8016 0.431774 -0.224725)
(10.7451 0.514297 -0.275467)
(10.0296 0.194235 0.436961)
(9.85829 0.115336 -0.195)
(9.57695 2.64227 2.17341)
(-0.34591 2.17195 -0.343377)
(12.5822 -0.292286 -2.09404)
(10.2122 -0.423648 -0.123868)
(8.76442 -0.396791 -2.69463)
(9.86711 0.350826 0.409266)
(10.383 0.024592 0.058294)
(10.5434 0.0997934 0.148398)
(10.9828 0.0921137 0.30264)
(10.4697 0.151147 0.0488196)
(10.1343 -0.129673 -0.0507961)
(10.2043 0.194562 -0.207707)
(9.59195 0.562094 -0.731759)
(10.0507 -0.345101 -0.256741)
(9.5769 -0.413569 0.098177)
(9.92519 0.30034 0.296924)
(10.0932 -0.244545 -0.0638151)
(9.74933 0.0206546 0.0814255)
(10.5677 -0.172124 0.0599233)
(9.78632 -0.264514 -0.215736)
(9.59128 0.44166 -0.258462)
(10.1734 0.185935 -0.0072425)
(9.96503 0.042408 -0.39632)
(9.55661 -0.402269 0.749639)
(10.0821 -0.0977595 0.183312)
(10.1247 -0.626698 -0.111003)
(9.89475 0.0127259 -0.397514)
(10.5897 -0.156414 0.114022)
(9.09703 3.12613 1.66911)
(9.60567 -0.49983 0.054739)
(11.5421 1.16663 -0.711022)
(10.2006 0.192437 -0.0643771)
(10.4215 -0.30224 0.329094)
(9.55223 -0.194071 1.23199)
(9.67846 0.979923 -0.434062)
(9.68796 -0.183509 -0.129908)
(9.79012 1.02886 -0.4322)
(10.2527 -0.00226021 -0.210217)
(9.56945 -0.630438 0.319659)
(9.90885 0.994886 -0.573415)
(10.2033 0.258324 -0.168336)
(10.1007 -0.744717 -0.027713)
(9.70571 0.943502 -0.460292)
(10.402 -0.0416458 -0.362109)
(10.3334 0.136356 -0.170903)
(8.32591 0.122385 -3.30321)
(10.0841 -0.178818 0.068731)
(9.66406 1.49476 -0.387916)
(9.3432 -0.15406 -0.12076)
(9.16445 1.62292 -0.620941)
(10.0843 -0.220437 0.313728)
(9.91067 -0.334741 0.454764)
(9.81121 0.266388 -0.115831)
(10.2209 0.0569354 0.351154)
(11.1104 0.200576 0.598112)
(9.5921 0.47633 -0.0935622)
(9.96275 0.174987 -0.315617)
(9.46961 -0.181134 -0.347758)
(10.4373 0.376899 -0.0365768)
(10.5354 0.0349416 0.14183)
(10.1656 -0.115735 0.0452889)
(10.0373 -0.0937602 -0.0774788)
(8.93268 0.090502 -0.3643)
(10.2707 0.0859408 0.0682532)
(10.0899 0.379643 0.123954)
(9.43641 0.0493068 -0.408865)
(9.82273 0.507691 -0.645241)
(10.2216 0.0346739 0.394031)
(9.66244 0.600305 -0.927857)
(10.1693 0.119122 -1.128)
(10.1891 1.02112 -0.657963)
(10.5335 -0.0575553 0.0310591)
(8.9057 0.042191 -1.40736)
(3.03989 -0.205358 -5.03365)
(10.1303 -0.264585 -0.495294)
(9.94488 0.108254 -0.195512)
(10.1131 -0.491227 0.249472)
(10.2521 -0.204459 0.37271)
(11.8353 0.255106 0.591403)
(11.8304 -0.125181 0.876865)
(10.0386 0.596795 0.776815)
(10.077 0.70983 0.18205)
(10.1557 0.381638 -0.371199)
(10.5608 0.225931 0.697021)
(10.2868 -0.233783 0.0560396)
(12.046 0.771881 0.612333)
(9.35037 -0.885019 0.313127)
(-0.965618 1.12467 0.755758)
(8.11218 -0.0855942 -0.287397)
(10.0464 -0.270835 2.07353)
(8.8807 0.0201221 0.0222583)
(11.9236 0.65005 0.658155)
(9.99645 -0.206852 0.100429)
(10.1415 0.115974 0.13982)
(10.0222 0.397846 -0.35035)
(9.98704 0.21755 0.776833)
(9.89533 -0.179569 -0.112337)
(9.7596 -0.359661 -0.63509)
(12.221 3.57504 1.47176)
(9.98269 -0.154336 0.558557)
(10.1244 0.787545 -0.0839017)
(10.2549 0.174939 -0.11513)
(11.807 0.15645 0.525277)
(10.1556 0.234982 -0.122115)
(8.98378 -0.198513 0.189201)
(11.7161 0.359679 0.380367)
(11.4183 -0.288737 0.435987)
(10.2525 -0.517472 0.0913445)
(9.97846 -0.015453 -0.658543)
(0.0408165 0.970117 0.25483)
(9.04473 0.141193 -0.0522552)
(9.92721 -0.147132 0.0958728)
(9.996 0.0957709 0.084669)
(9.9559 -0.272858 0.126585)
(10.2286 0.0867078 0.484127)
(11.2706 -0.0823456 0.207011)
(10.4661 0.233342 0.757276)
(9.7326 0.425977 0.659002)
(9.88903 -0.400711 -0.514698)
(9.73436 0.1765 0.409955)
(9.52974 -0.320656 0.165374)
(11.8081 0.377694 1.55826)
(9.44932 0.365861 -0.383861)
(10.0805 -0.141433 0.483686)
(-0.045414 0.816663 0.299716)
(10.26 -0.0346097 0.0820672)
(10.1045 0.169179 0.101572)
(-0.274976 0.689052 0.388407)
(12.2951 1.33468 -0.10809)
(9.68494 0.127297 0.599297)
(0.165696 0.611368 0.022857)
(0.0135977 0.993148 0.189226)
(9.99687 -0.139453 -0.0425673)
(10.4611 0.76898 0.132706)
(9.82351 0.0234535 -0.351835)
(9.73186 0.0565238 0.464956)
(10.2664 -0.237402 0.0320528)
(9.69346 -0.0932091 0.40221)
(11.4787 4.53158 0.722476)
(9.9583 -0.18302 -0.0601207)
(10.1244 0.428095 -0.0071239)
(9.83247 0.0322868 -0.225252)
(11.6443 -0.629121 0.411524)
(11.269 0.217288 0.22386)
(10.3548 -0.224254 0.280442)
(10.572 -0.0632135 0.240517)
(0.71766 -2.62279 -0.542001)
(7.73067 -0.63489 -0.87301)
(10.5204 -0.0098884 -0.298697)
(9.81605 -0.0964019 -0.107796)
(10.055 -0.244012 -0.183662)
(10.7205 -0.0519722 -0.460597)
(10.0982 -0.517936 -0.32933)
(10.1453 -0.239606 -0.392576)
(10.2914 -0.31313 0.805343)
(10.3119 0.178692 0.583034)
(10.5049 -0.0846437 -0.627371)
(10.3255 -0.118371 0.160772)
(10.6471 -0.272371 0.466334)
(12.0426 0.427081 0.00983118)
(10.2081 1.16198 -0.723849)
(10.3898 -0.116339 0.261935)
(12.1817 0.588194 -0.2041)
(10.0316 -0.241948 0.639868)
(9.93207 0.398166 0.660599)
(10.6824 0.296158 -0.172547)
(9.54519 0.302477 0.474175)
(10.3158 0.338114 0.677038)
(10.2373 -0.127607 -0.537458)
(9.96921 0.478586 -0.351111)
(8.06154 -0.380607 -0.900359)
(10.0017 -0.0191464 -0.315734)
(10.392 0.154591 -0.244671)
(9.71367 0.192683 -0.140878)
(15.1643 -4.27783 -1.50949)
(10.8543 -0.29886 0.650032)
(10.7039 0.146988 0.525015)
(8.28173 0.748186 0.933049)
(7.88701 0.71803 0.817877)
(9.81474 0.868652 0.245302)
(9.86067 0.414842 1.24564)
(6.40078 0.583949 -0.0308128)
(9.96847 -0.156534 0.0863921)
(9.81346 -1.34555 -2.78872)
(10.388 0.317687 2.1203)
(9.01155 -1.04527 -1.09503)
(10.6883 0.742741 1.66573)
(9.75103 0.41211 0.235958)
(9.70766 0.182741 -0.0130692)
(9.99887 -0.501788 0.000216452)
(12.2596 0.107259 0.379494)
(9.43956 0.0365785 1.78404)
(9.2462 -1.30579 0.859903)
(9.78623 0.00909075 0.183558)
(10.3376 1.1465 0.121306)
(9.6374 0.281227 0.247212)
(9.99867 -0.0459395 -0.122936)
(9.83839 0.24739 0.159713)
(9.87836 -0.198994 0.295366)
(11.1098 0.173704 0.318258)
(9.25453 1.88206 -2.14838)
(14.4127 0.609988 -0.667086)
(10.3863 0.319617 0.111921)
(10.183 0.77342 1.26773)
(9.87327 0.0941351 0.0695189)
(9.46998 -0.582339 0.279947)
(9.87636 -0.12441 0.246508)
(10.0959 0.569914 -0.277619)
(10.3813 -0.224572 0.242134)
(10.1469 -0.185579 0.229627)
(9.60218 0.0288119 0.581203)
(9.23519 0.328525 -0.705972)
(10.907 -0.121685 0.0992993)
(10.105 -0.158245 0.0378982)
(10.5573 -0.0900549 -0.00477814)
(12.0379 0.355946 1.04241)
(9.4872 -0.128668 -0.248384)
(8.13085 -7.5577 2.22209)
(12.6611 -0.67231 -1.92962)
(9.31647 -0.0764186 -0.569109)
(9.56772 -0.0659856 0.0181351)
(10.5759 -0.158609 0.26938)
(10.1224 -0.0591373 -0.108339)
(9.3454 -6.14219 2.37393)
(9.81943 -0.483804 -0.409429)
(9.7184 -5.23539 0.707542)
(9.94444 -0.365571 0.382142)
(10.6527 0.202719 0.697284)
(11.0858 0.207007 0.14615)
(10.0104 -0.0942036 -0.0786099)
(9.552 0.0244727 -0.290138)
(10.5332 -0.380532 -0.066979)
(8.82152 -0.235973 -1.71597)
(9.27959 0.169881 -0.863589)
(10.4379 0.080184 0.742048)
(10.3301 -0.0802693 0.187875)
(11.0146 -0.00394749 0.689238)
(9.52899 0.349463 0.246362)
(11.1166 0.123982 0.382904)
(10.2529 -0.0774857 0.0678267)
(5.30042 7.03751 1.33202)
(11.0317 0.156762 0.204912)
(10.1286 0.159195 0.282679)
(11.0439 0.135617 0.296306)
(10.2937 0.127794 -0.605644)
(10.3838 0.2033 0.311878)
(10.0473 0.661536 0.690054)
(9.9549 0.226428 0.207841)
(11.1731 0.19168 0.316022)
(9.95184 0.0977755 0.0301342)
(10.3164 -0.018234 0.168597)
(11.1097 0.203557 0.189298)
(10.0908 0.0280174 0.0200844)
(10.0066 0.177154 -0.213538)
(9.82639 0.0848841 -0.336323)
(9.80307 -0.0525519 0.129185)
(7.00543 0.078411 -4.40225)
(6.84913 -0.311037 -4.86881)
(10.2957 -0.0176166 0.46964)
(8.96247 0.261722 -3.43903)
(9.0033 0.348658 -0.0481823)
(9.61132 -0.0538891 -0.48098)
(10.4979 0.515865 -0.395835)
(9.81705 -0.5171 -0.0907735)
(9.65543 0.159333 -0.096957)
(10.2524 0.149826 0.451262)
(10.2511 -0.0724368 0.187964)
(9.45405 0.295552 -0.0506472)
(10.0758 0.0218595 -0.809297)
(5.35235 -0.0470829 -5.61685)
(8.91226 -0.494538 1.73055)
(9.77006 0.121584 0.0502055)
(10.0851 0.07812 0.527053)
(9.88395 -0.0918281 -0.315694)
(9.81481 0.229896 -0.432529)
(9.84739 -0.00521015 -0.307181)
(9.8693 0.202598 -0.191549)
(10.4603 -0.20547 0.115373)
(10.4044 -1.23228 1.82771)
(10.1891 0.110395 -0.139119)
(9.35217 -0.596965 0.944536)
(9.97335 0.10286 -0.318752)
(9.92617 0.178717 0.481804)
(9.76763 0.132536 0.134813)
(9.79249 -0.237558 -0.533803)
(9.75916 0.104077 0.286291)
(10.0063 -0.209694 -0.432316)
(10.1168 -0.289176 -0.477038)
(10.1626 -0.185243 0.105519)
(9.39983 -0.689514 -0.802426)
(5.20714 0.454589 -4.02316)
(9.77525 -0.143161 -0.319794)
(-0.0727082 -0.634017 0.410277)
(9.57825 -1.43266 0.731087)
(12.5243 -0.774787 -0.191786)
(0.0940734 -0.560296 0.153893)
(9.82295 0.861863 0.172446)
(9.46154 0.0112255 0.799047)
(10.2896 -0.281903 -2.01199)
(10.8765 -0.663829 0.419042)
(5.91661 0.351601 -3.00879)
(0.237172 0.46381 0.645534)
(1.3679 0.221493 -2.64747)
(10.5683 0.261143 0.39648)
(9.84411 0.455797 0.289104)
(10.4856 0.0179247 1.0928)
(9.76842 0.165625 0.376448)
(4.09895 -0.218287 0.604474)
(10.4248 0.0921894 -0.241046)
(10.3673 -0.423464 -0.0670614)
(9.60892 0.0948457 -0.407752)
(10.233 -0.0812768 0.322593)
(10.5119 0.239006 0.64384)
(9.71996 -0.090828 -1.22288)
(10.1698 0.170726 -0.480953)
(10.3775 -0.117546 -0.300752)
(-0.33533 0.601197 -0.223036)
(8.26334 0.203739 -1.89138)
(10.3424 -0.212345 -0.0771458)
(9.92186 -0.857414 -0.414265)
(5.44062 0.415232 -1.5588)
(6.26807 0.266766 -2.29425)
(9.6853 0.506901 -0.729377)
(4.4744 -3.55873 -0.581736)
(9.18558 0.201271 1.43884)
(4.53818 0.177061 -3.12876)
(4.16529 0.0566463 -4.04904)
(10.4255 -0.00577533 -0.060162)
(9.80076 -0.415088 -1.14831)
(9.4683 0.138824 0.3265)
(9.94875 -0.321757 -0.0540678)
(10.2315 -0.0672628 -0.0521285)
(-0.0242319 1.18063 0.297277)
(10.3958 -0.0689122 -0.273722)
(10.4224 -0.0920894 0.406894)
(9.981 -0.128016 -0.134811)
(10.0858 -0.0396127 -0.179672)
(-0.148217 1.02565 0.128159)
(0.277877 0.601494 0.570729)
(9.21651 -0.117291 0.127171)
(10.4142 -0.0244717 0.416817)
(10.128 0.140202 -0.0226581)
(10.118 -0.0135292 0.226854)
(10.1322 -0.139481 0.385635)
(10.0897 -0.302454 -0.284633)
(9.7641 -0.207038 0.000763116)
(10.1487 -0.0870222 0.116216)
(10.0634 0.192587 0.359897)
(7.05581 -0.547313 -2.41219)
(9.56387 0.399484 0.127398)
(9.39954 0.186026 -0.0392178)
(10.1128 -0.405605 0.131683)
(9.96528 0.238859 -0.0323242)
(9.51739 -0.357109 0.174923)
(4.18636 -0.382701 -1.6058)
(11.896 -0.781393 0.451707)
(9.92527 -0.465276 0.164613)
(10.1238 0.646972 -0.263035)
(10.1741 -0.219158 -0.269533)
(9.55734 -0.558683 0.131683)
(9.71293 -0.176634 0.214203)
(11.1074 0.307601 0.0923318)
(10.1992 0.272536 -0.0501919)
(-2.01931 1.09341 -0.0527213)
(11.3923 -0.161434 0.190517)
(10.0728 -0.255968 -0.0606451)
(10.551 0.223927 -0.220274)
(8.13489 0.205543 -2.81379)
(14.9837 -0.740744 -0.941995)
(9.87232 0.550942 0.323133)
(10.3131 0.703739 0.214105)
(12.4191 0.582203 0.875339)
(9.40278 0.23334 -0.40487)
(10.011 -0.428419 0.0700009)
(10.6688 -0.0428771 0.327507)
(10.1232 0.607746 0.00188853)
(8.80719 0.658884 -1.08787)
(4.95142 -1.86732 -6.36205)
(11.3288 -0.935298 0.496727)
(14.661 0.241161 0.756736)
(10.27 0.142724 0.114146)
(8.00155 0.270036 -1.81249)
(10.0178 -0.268552 0.0643714)
(10.5902 -0.936434 -0.164113)
(9.78618 -0.29351 0.455235)
(11.1498 0.143859 0.0918436)
(10.2206 0.607895 0.377455)
(9.78719 -0.35702 0.388049)
(5.95268 1.20358 -6.24926)
(12.678 0.545822 1.13413)
(11.6888 -0.325677 -0.442357)
(-1.37585 -0.147861 -0.200976)
(11.0969 0.049177 0.2868)
(10.1323 -0.0891955 0.150241)
(10.2316 0.110122 0.096643)
(10.7422 1.00807 -0.0408953)
(10.0919 -0.318541 0.374832)
(11.3334 -0.0184664 0.305704)
(0.398001 -0.555278 0.623662)
(10.0699 0.0979152 0.0588143)
(12.0236 -0.0309857 -0.627473)
(10.0487 -0.405396 -0.12663)
(9.92415 -0.132026 -0.137187)
(11.4905 -1.38864 2.74534)
(9.82266 0.17277 0.114712)
(10.5481 -0.0650376 -0.139149)
(8.97264 -5.38207 0.704794)
(9.46734 0.203036 0.645639)
(9.19754 -0.562293 -0.492495)
(11.4417 -0.363853 0.659523)
(9.88014 0.711331 0.632448)
(9.8568 0.0785493 0.243598)
(11.9217 -1.36434 0.00751089)
(5.64703 -0.478273 0.560071)
(10.3477 -0.123971 0.559525)
(9.7206 -0.53972 -0.529476)
(10.0149 0.0252941 0.649677)
(9.9242 0.0139821 0.229227)
(9.88226 -0.0922165 -0.368272)
(10.0938 -0.936056 -0.121808)
(7.64488 0.694749 -0.693183)
(-1.27477 1.28655 -1.57773)
(10.4873 0.388572 -0.695753)
(9.80604 -0.412441 -0.000282349)
(10.1736 -1.58997 0.0606687)
(6.73394 1.8239 0.0800936)
(6.13226 0.0719257 0.610464)
(10.9686 -2.82916 4.12111)
(9.66395 -0.20546 0.960954)
(10.1623 0.287599 0.0586656)
(8.39383 0.216769 1.66478)
(9.82445 0.19505 0.220342)
(8.95496 0.319958 -0.0252721)
(9.57014 -0.188913 0.235957)
(9.49657 -0.281386 1.17893)
(9.61104 1.07938 1.19908)
(-0.511647 -0.498104 -0.167474)
(11.3236 -7.92562e-07 0.12902)
(9.95134 0.644984 0.464238)
(10.1648 -0.0233041 0.587634)
(9.73348 -0.225677 -0.0262292)
(10.3922 -0.311455 0.0801538)
(6.33227 -1.47706 -2.69496)
(9.69497 -0.0541203 0.926143)
(7.88206 2.64211 -0.370612)
(9.67733 0.113363 -0.293406)
(10.0839 -0.399013 -2.56168)
(10.1611 -0.664929 0.417735)
(10.6438 0.107202 0.278356)
(10.4488 0.49673 0.601894)
(10.2204 -0.0310458 0.0918605)
(8.73208 0.208125 -1.45432)
(12.0477 -0.566664 -0.655936)
(11.5223 -0.166098 -0.149732)
(9.66213 0.709982 2.69673)
(7.92135 3.67505 2.98411)
(9.71421 0.72761 0.617263)
(10.1897 0.3749 -0.241614)
(10.8721 0.345701 0.133874)
(6.74262 -0.124038 -2.26697)
(10.2326 0.0419695 -0.1742)
(10.1343 -0.224671 -0.0665374)
(9.85359 -0.0670137 0.728204)
(11.1628 0.112045 -0.151058)
(12.6073 0.291476 4.68344)
(9.32903 -0.151977 0.862036)
(10.2034 -0.145437 0.0525628)
(10.0343 0.446556 -0.211448)
(9.57445 0.7016 -0.0987401)
(10.4314 -0.105774 0.0150162)
(10.2001 0.118066 -0.130097)
(14.9939 -0.866888 0.113693)
(11.3641 -0.0941373 0.763562)
(4.42808 3.32004 -1.15735)
(10.0532 -0.356072 0.399125)
(11.2621 -0.509321 0.041463)
(10.2372 -0.895949 -0.895005)
(11.4222 -0.131619 -3.78343)
(9.7121 0.274775 0.741886)
(3.48824 -0.537427 -3.32265)
(10.2009 -0.235375 -0.408806)
(10.1226 -0.00502438 0.0982585)
(10.2902 -0.171974 0.687782)
(12.9993 0.63384 4.91141)
(9.77017 0.0711521 0.164333)
(9.93941 -0.251638 -0.709528)
(9.81133 -0.28567 0.235852)
(10.5812 -0.648159 0.605326)
(10.3434 -0.0261157 0.709847)
(10.2394 0.210294 0.082847)
(10.7355 -0.127377 -2.38399)
(9.34888 -0.671923 -1.73624)
(11.785 -0.150538 -0.505733)
(9.99725 0.211927 -0.229364)
(9.29432 1.09309 -0.464847)
(3.30504 0.721376 -3.10785)
(0.157043 -0.296945 0.443851)
(5.93258 2.77501 1.31163)
(12.6537 -0.504294 -1.7643)
(8.56482 -0.258655 0.215693)
(10.5808 -0.274099 0.166064)
(9.93254 0.865196 -0.397012)
(9.03457 0.993187 3.14597)
(9.4821 -0.34579 0.267016)
(4.73146 -0.433458 0.645234)
(9.13436 -0.372886 0.249322)
(9.94701 0.237641 0.323017)
(-2.44006 3.54727 -1.02545)
(9.91656 -0.691783 0.921936)
(10.5083 -0.0684101 -0.137643)
(10.017 -0.15267 0.839359)
(8.14991 0.201605 -0.480045)
(8.4666 0.179254 -2.16253)
(9.51791 1.53504 0.790206)
(9.7752 0.0245989 0.0699043)
(10.2935 0.340538 0.561798)
(11.8866 -0.449719 -2.01628)
(10.1136 0.0542728 0.210102)
(10.0742 0.199426 -0.216816)
(9.48592 -0.101237 -0.101513)
(9.91895 1.05441 -0.139136)
(10.1151 0.0615927 0.0228204)
(11.4948 -0.459978 -1.24286)
(10.6221 -0.46542 -0.158951)
(8.7861 -0.185436 0.323899)
(9.89067 -0.664352 0.481467)
(9.46041 -0.137116 -0.487425)
(9.43089 0.0786379 -0.210602)
(9.41076 -0.0459924 0.853355)
(9.6792 -0.366904 0.396428)
(10.3722 0.412166 0.26084)
(11.3317 -0.715859 0.0459436)
(14.1762 -0.175591 0.610016)
(10.7285 0.00193979 0.45011)
(11.4193 -0.374322 -0.808838)
(10.2363 -0.142479 -0.327838)
(4.73739 -1.72219 -1.39061)
(9.70398 0.0803372 -0.353082)
(9.99353 -0.201692 -0.154912)
(9.5854 -0.154214 0.319406)
(14.3263 -0.0262296 1.87498)
(2.96795 3.68453 -0.119505)
(6.77058 2.49224 -0.520719)
(-0.325203 1.16263 0.0549697)
(10.1355 -1.00415 -0.785321)
(11.0594 -0.433467 0.414987)
(7.68289 -0.384298 1.12702)
(-0.0484466 1.10723 0.345699)
(10.9904 -0.240408 -0.139758)
(10.1853 -2.07366 0.708618)
(9.731 -0.631136 -0.555715)
(9.97048 -0.470509 0.124925)
(10.1743 -0.00689607 0.6831)
(10.5532 0.326876 -0.22513)
(10.4218 -0.282284 -0.0189493)
(10.22 0.204623 0.432237)
(10.0345 -0.702068 -1.87093)
(10.3222 -0.000381423 -0.228036)
(5.93999 -0.419753 -4.75788)