/*--------------------------------*- C++ -*----------------------------------*\
| =========                 |                                                 |
| \\      /  F ield         | OpenFOAM: The Open Source CFD Toolbox           |
|  \\    /   O peration     | Version:  2506                                  |
|   \\  /    A nd           | Website:  www.openfoam.com                      |
|    \\/     M anipulation  |                                                 |
\*---------------------------------------------------------------------------*/
FoamFile
{
    version     2.0;
    format      ascii;
    arch        "LSB;label=32;scalar=64";
    class       surfaceScalarField;
    location    "0.01535";
    object      phi;
}
// * * * * * * * * * * * * * * * * * * * * * * * * * * * * * * * * * * * * * //

dimensions      [0 3 -1 0 0 0 0];

oriented        oriented;

internalField   nonuniform List<scalar> 
7606
(
0.000819697
-0.00114268
-0.000419392
0.000742373
-0.00213347
-0.00408774
0.000881224
0.00533999
-0.0327391
-0.00403499
0.0330831
-0.00117287
-0.000464558
-6.3303e-06
0.00164376
0.00107846
-0.000808589
0.00138628
-0.00165614
-0.00235532
-0.00596232
-0.00203727
0.0103549
0.000169649
-0.000264068
0.00176635
-0.00342591
0.0187388
0.00794894
-0.0180165
-0.0086712
0.00129748
-0.00304607
-0.00942066
0.0111693
0.00177375
0.00496925
0.0119387
0.00102853
-0.00420539
-0.000219896
0.00339675
-0.00165977
0.000832896
0.00149368
-0.000666815
-0.00158619
-0.000667813
0.000594239
6.28482e-05
-0.000707283
-3.23503e-06
0.00064767
0.000646377
0.000126475
-0.000431341
-0.000341511
0.000175462
0.000428526
-0.000767155
0.000163167
-0.0161609
0.0110509
-0.00387699
0.00898699
0.000861082
0.000656017
-0.000579873
-0.000937227
0.00100686
-0.00156413
0.00813119
-0.00757391
-0.00762307
0.00917545
-0.000545523
-0.00216276
-3.80401e-05
0.00246291
-6.80566e-05
0.00275914
-0.0416712
0.00267846
0.00365808
0.000224063
-0.00656061
0.00626512
-0.00106057
-0.00455669
-0.000647863
-0.000877457
0.000394798
0.000827435
-0.000344776
-0.00592122
0.00755966
0.00104002
-0.002429
0.00987382
-0.000442314
-0.0070025
0.0215932
0.00898795
-0.000461503
-0.00215616
0.00235736
0.000260296
-0.00329495
0.00208178
0.00264982
-0.00143666
0.00053053
-0.00209295
0.00188916
-0.00032674
0.00174306
-0.000591688
-0.00238044
0.00122906
-0.000465234
0.00192709
0.00222387
-0.00368573
0.000703787
-0.000862231
-0.000231546
0.000389989
-0.00956493
0.00411038
0.00203991
0.00341464
-1.93037e-05
0.000372918
-0.000353615
0.00110991
-0.0013846
0.00148207
-0.00120738
-4.51788e-05
-5.98736e-05
0.000398162
-0.00029311
0.000435634
5.03135e-05
0.000304168
-0.000790116
0.000523075
-0.000461527
0.000100678
-0.000162225
0.00232087
0.000851306
-0.000736675
-0.0024355
-0.0017128
-0.0014574
0.0023759
0.00079429
-0.0023619
-0.000432569
0.00108167
0.00223931
0.0023246
-5.72302e-05
-0.00450668
-0.000771951
-0.0016256
0.000940154
5.24206e-05
-0.000659268
0.00282036
-0.00221351
0.00259708
-0.000168756
-4.75334e-05
-7.69899e-05
0.000233485
-0.000108962
-8.42812e-05
0.00026729
6.80829e-05
-0.000251092
-0.00362344
0.0006266
4.81374e-05
0.0029487
-0.000162985
3.11699e-05
-0.000170676
-0.000492732
0.000438003
0.000225404
-3.87141e-05
0.000162487
8.96311e-05
-0.000213404
0.000412771
0.000225947
-0.000677432
8.01119e-05
0.000236929
0.000491695
-0.000808736
0.00464045
0.00806066
-0.00812142
-0.00457968
-0.00144065
-0.00247798
0.0024877
0.00143093
0.000140727
-0.000471484
-0.000334754
0.000665511
0.0120579
-0.00278725
-0.00680549
0.000565165
0.00548026
0.00164596
-0.00769139
0.00225271
0.00286233
0.00214011
-0.0262255
0.025681
0.000544561
-0.00275236
-0.000464231
0.00241355
0.000803042
-0.000485408
-0.0027891
0.000522149
0.00019726
0.00119628
-0.0011912
-0.000202339
0.00119497
-0.00180696
0.0109752
-0.0103632
3.94534e-05
0.0098765
0.00202334
-0.0119393
-0.00321244
-0.00148185
0.00214917
0.00254512
-0.000289822
-4.08129e-07
-0.00010194
0.00039217
-0.000550044
-0.00205781
-0.000451402
0.00305926
-0.000566295
0.000214317
-0.000404853
0.000756832
0.000557813
-0.000263507
-0.000268875
-2.54316e-05
-0.00185834
0.00260906
-0.0114451
0.0106944
-0.0162035
0.0117153
0.00593002
-0.00144182
-0.00344294
-0.00656382
0.00187114
0.00813561
0.0118397
0.0138141
-0.0074441
-0.0182097
0.00130168
-0.00349995
0.00225379
-5.552e-05
0.00060982
-0.000425373
-0.000256903
7.24565e-05
0.00235999
-0.000189077
-0.00263242
0.000576812
-0.000199653
0.000408877
-0.000786037
0.000511568
0.000169358
-0.000104114
-0.00470868
2.39245e-05
0.00702044
-0.00233569
-0.00604571
-0.0046116
0.0127683
-0.00211101
-0.000410665
-0.000185915
5.94643e-05
0.000537116
1.86618e-05
8.22413e-05
-0.000666083
0.000120528
0.000542979
2.57528e-06
0.000577394
-0.000380886
-2.71506e-05
-0.000729917
0.00485002
-0.00139597
-0.00272413
0.0266745
-0.00598592
-0.0116075
-0.0090811
0.00804656
-0.00797319
-0.0004139
0.000340533
0.00348356
-0.00522834
0.00220442
-0.00045964
0.00122249
0.00233136
-0.00143437
-0.00211949
0.000760371
0.0053394
-0.00569052
-0.000409252
-0.00334784
-5.36318e-05
-0.00836437
0.0117658
-0.00161183
-0.00303393
0.00383537
0.00081039
-0.00394643
-0.000798224
0.00243815
0.00230651
0.00045651
2.3022e-05
-0.00011619
-0.000363342
-0.00955544
0.000298718
0.00923402
2.27037e-05
-0.000161244
0.00121275
0.00430457
-0.00535608
-0.000595419
0.00832922
0.000131287
-0.00786509
0.00691891
0.000447886
-0.0080978
0.000731001
0.00239766
-0.00090912
0.00288934
0.00206954
-0.00462577
-0.00240601
0.00496225
0.00206026
0.000219961
-0.00290783
0.000627614
-0.000451635
0.00249026
0.000677618
-0.00271624
-0.000341347
0.00160282
0.00182919
-0.00309066
0.0159365
-0.00741547
-0.00602936
-0.0024917
-0.000243388
-0.000302591
0.000737289
-0.00019131
0.00848291
-0.00869365
-0.00432159
0.00453233
0.00677185
0.00248986
-0.00919791
-6.38013e-05
-0.00120672
0.00220434
-0.000202443
-0.000795173
0.0621328
-0.033717
-0.0241211
-0.00429473
5.96846e-05
0.00261616
0.00063369
-0.00330953
-0.00119181
0.00296714
0.000689192
-0.0110523
0.0120629
0.000134388
-0.00114499
-0.00321815
-0.000417915
-0.000355679
0.00399174
0.00309905
-0.0015434
-0.000466903
-0.00108875
-0.000862313
9.90759e-06
0.000274161
2.43484e-05
-0.000298509
0.00231938
0.00284534
-0.0029016
0.00723787
0.00344543
-0.0060193
-0.004664
0.00367357
0.00266475
-0.00340891
-0.0029294
-0.00063997
0.00185076
0.00153019
-0.00170008
-0.00212632
0.00229621
0.00587735
0.00169004
0.00142195
-0.00135568
-0.000284941
0.00473968
0.00109588
0.00110106
0.000357847
-0.00255479
-0.000252711
-0.0011218
0.000850604
0.000523906
-0.00361192
-0.00259341
0.0022589
0.00286285
-0.00118736
-0.000543914
-0.00113158
0.0312563
-0.00688529
-0.00864902
-0.015722
-0.000446268
0.00139842
-0.000207509
-0.000744639
-0.000887345
0.000275756
-5.90829e-05
0.000670671
-0.00790408
0.007508
-0.00205379
0.00244987
0.000187823
-0.000918981
-0.000237945
0.000969103
-0.00326807
0.00161983
0.00242414
-0.000775906
0.00208842
-0.000659247
9.38652e-05
-0.00152304
-1.09416e-05
-0.00200896
-0.000779641
0.00279955
0.00411358
-0.00499507
0.0103856
-0.0095041
-0.000779698
-0.000211461
9.66856e-05
0.000894473
0.000671632
-0.00511167
-0.00140847
0.00584851
-0.00925465
0.0139226
-0.00953977
0.00138687
0.00224539
0.000579852
-0.00421211
-0.00094926
0.000603583
0.000490567
-0.00014489
0.00403111
-0.00436502
-0.00277014
0.00310406
0.0142597
0.00145753
-0.0157554
0.000672146
-0.000769731
-0.00186925
0.00196683
0.00250652
0.000303866
-0.00248083
-0.000329556
-0.0135572
0.00112518
0.0144792
-0.00204719
0.00318552
0.000811637
0.00646533
-0.0104625
0.025658
-0.0275737
0.00191569
-0.0026371
0.00227169
0.00257601
-0.00221061
-0.00124395
-0.000882847
0.00134126
0.000785538
0.00263171
0.00817608
0.00712555
-0.00142235
-0.00186184
0.0043567
0.00639019
-0.00978787
-0.00095902
-0.00156303
-0.00310922
0.00307594
0.00159631
0.00280341
0.00138673
-0.00309427
0.000473604
0.00281311
-0.00469783
0.00141112
0.00397547
-0.00174828
-0.00400965
0.00178246
-0.00174054
0.00320829
-0.000920491
-0.000547255
0.00892598
-0.0079199
0.00298047
-0.00398655
0.00186934
-0.00986609
0.0107391
-0.00274237
-0.000224701
-0.0052501
0.0101152
-0.00955393
0.00883156
-0.00532334
0.00177219
-0.00289355
0.00177519
-0.000653832
-0.000333492
0.000108546
0.000804654
-0.000579708
0.000802955
0.00662623
-0.00623421
-0.000203963
0.00196049
-0.00184553
0.00661215
0.00106627
-0.00583289
0.0181069
-0.00804066
-0.0221205
0.0120543
-0.0214515
-0.0274138
0.00601808
0.000274278
0.000325398
-0.000516572
-8.31035e-05
0.000774942
-0.000355561
-0.000891461
0.00047208
0.00160547
-0.00485216
-0.00563776
0.00888445
-0.00582184
-0.0015098
0.00225163
0.00508001
0.00306553
-0.000945544
-0.00559172
0.00347173
0.0112657
-0.0232365
0.0300777
0.00157033
-0.00345976
0.0032763
0.00197257
0.000379196
-0.00226838
-8.33881e-05
0.000601637
-0.000134414
-0.000326496
0.00631582
-0.00109405
-0.00588744
0.00499055
-0.00269604
0.00209556
-0.00439007
-0.00657894
-0.00164238
0.0055244
0.00269691
0.000261058
0.00358367
-0.000171159
0.00202184
-0.00338424
0.00123526
0.000127149
0.032851
-0.0241077
-0.00349393
-0.00524933
0.000475264
0.00274747
-0.000493862
-0.00272887
-0.0388572
-0.00735178
-0.00278188
0.00460768
-0.00284598
0.00102018
0.00382179
-6.03191e-05
-0.00333545
-0.000426019
0.00116346
-3.15548e-06
-0.00922103
0.00806072
-0.0152281
0.00818962
0.00566161
0.00137686
0.00182366
0.00217559
-0.0114649
0.00746567
-0.00067142
0.00205713
-0.00425236
0.00286665
-0.00168475
0.0113358
-0.00225105
-0.00185577
0.00348698
0.000619836
0.00406885
-0.000613254
-0.00412168
0.000666082
0.000892166
0.0023602
-0.000655722
-0.000343176
0.00308641
0.00132561
0.00116068
-0.00298577
0.00906295
0.000340757
-0.000433141
-0.000371304
0.000463689
0.00659074
-0.00110618
-0.00506795
-0.000416608
-0.00145193
-0.00268502
0.00243953
0.00169742
0.00901104
-0.00971081
0.00107062
-0.000370855
-9.75656e-05
0.000879133
-0.0023934
0.000334052
-5.01314e-05
-8.32695e-05
-0.000200651
2.68588e-05
-0.00122568
0.00024956
0.00141622
0.00178275
0.000876684
-0.00407117
0.00246373
0.00322043
-0.001613
-0.000300436
2.83521e-05
-0.000605373
0.00122561
0.00215596
-0.00378805
0.000406476
0.00171884
-0.00262688
-0.00124812
0.0115741
0.00337582
-0.0289885
0.0140386
4.75125e-05
0.000302839
-0.000516933
0.000166582
-0.00258798
0.00111387
-0.0112379
0.000999873
0.000811984
-0.00225783
0.000445975
0.000454927
-0.00015446
0.00035349
-0.000653957
-0.0120437
0.00845511
0.00780182
-0.00421327
0.000308214
-0.000118458
-0.000523248
-0.000339532
0.0033366
-0.00221511
-0.00078196
-0.0038744
0.00437483
0.000292945
-0.000793378
-0.0110907
0.0115683
0.0036758
-0.00415339
-0.00028474
-0.00178407
-0.00375303
-0.0110462
0.0154777
0.0131904
-0.0176219
0.0157784
0.000737595
-0.00907031
-0.00173717
-0.0095488
0.0093467
0.00193927
-0.000638278
-0.0123821
0.00137085
-0.0013359
0.00184413
-0.00187907
-0.000505157
0.000742876
0.000471308
-0.000709027
-0.000473175
0.000956445
-4.85561e-05
-0.000434714
-0.00425607
-0.00254993
0.00209733
0.00170181
-0.00417357
0.00294536
0.00115909
-0.000593622
-0.00023172
0.00125753
-0.0008104
-0.000215412
-0.00122078
-0.00258522
-0.00381706
0.00193783
-0.00656179
0.00911467
-0.0044907
0.00925481
0.00241487
-0.00984602
-0.000185495
-0.000299717
0.000485212
0.00400552
-0.000472535
-0.00495327
0.00142029
-0.00641914
0.000114353
0.0116492
-0.00534436
-0.00820364
-0.0059379
0.0189279
-0.00478632
0.00407665
0.0015186
-0.00622809
0.000632845
0.00104504
-0.00127876
0.00334789
-0.00311417
-0.0112231
0.000342938
-0.0146529
0.000395226
0.000700531
0.00264264
-0.00214133
0.00105458
-0.00155589
0.000420111
0.0057413
0.00589648
0.00459128
0.00192403
-0.00831676
0.00180145
-0.000814866
-0.00247419
0.00439894
-0.00110988
-0.00401652
-0.00289872
0.00274663
0.00416861
0.0117927
0.00476337
-0.00222158
-0.0143345
-0.0022239
0.00474397
-0.00497886
0.00245879
0.00141188
0.000104306
-0.000535517
-0.000980667
-0.00172223
0.00253274
0.00178874
-0.00259926
0.0024818
-0.00217888
-0.00128866
0.000985739
0.000345084
0.000251767
0.000178092
-0.00264075
-0.000386824
-0.000240491
0.00590838
0.00190801
0.00211596
-0.00993235
-0.00175218
-0.00124982
0.00124527
0.00175673
-0.00218157
-0.000187785
0.00262499
-0.000255628
0.00577741
-0.000665362
-0.0016107
-0.00350135
-4.91632e-05
-0.000383678
0.000432841
0.00070773
-0.000119154
-0.000224462
-0.000364115
-0.00121115
0.00049402
-0.00206859
0.00278572
0.0012456
0.000105511
0.000700292
-0.00205141
0.000330301
-0.00364788
2.26299e-05
0.00171494
-0.0006253
-0.000244864
-0.000844776
0.000230335
0.000504109
-0.000461062
-0.000273382
0.00013202
-0.00228093
-0.00106354
0.00157723
0.00236292
-0.00160436
-0.00233579
-0.0260157
0.000113486
0.000892565
-0.00091303
-9.30212e-05
-0.00112725
0.00169452
0.0018047
-0.00237197
0.0059145
0.00115724
-0.00317244
-0.00389929
-0.00151347
0.000696542
0.00104322
-0.000226298
-0.00350667
0.000745145
0.00320754
-0.000446011
-0.00190578
0.00424105
-0.00181436
-0.000520905
0.00121191
0.000562125
-0.00134014
-0.000433894
0.0024929
-0.000325472
-0.00215764
0.00273701
-0.00233223
0.00175286
0.000535415
0.00016976
-0.000550385
-0.00015479
-0.000627306
-0.000659917
0.000990908
0.000296315
-0.00227403
0.00632255
-0.00402459
-0.00190417
0.00170853
0.00251776
-0.00232212
-0.00262806
-0.00116598
0.0035093
-0.00187282
0.00220856
0.000799832
-0.00113558
0.000787164
-0.00151186
0.00266566
-0.00194096
-0.00601862
0.00139549
-0.00438402
0.00900715
-0.00187005
-0.00180363
0.00149211
0.00132448
-0.00118575
0.00355105
-0.000576338
-0.00109741
0.000723978
0.000949768
0.000369821
-0.000602577
-0.00104834
0.00128109
0.00167234
-0.000814711
0.00065396
-0.00151159
-0.000205578
0.00234119
-0.00257855
0.000442935
-0.000977923
-8.71261e-05
0.00228754
0.00145894
-0.00103922
-0.000419721
0.00268275
-0.000742204
0.000147873
0.000185444
0.000354887
-0.000793041
-9.09412e-05
-0.00021308
5.42635e-05
-0.000492684
0.000307189
-0.00567949
-0.0120932
0.00668197
0.00289414
0.00162279
-0.00327133
-0.0133448
-0.00507601
-0.00783979
0.00774659
0.000343056
-0.000249855
-0.0102869
0.00260055
0.00581534
0.00187104
0.0032614
0.000282
-0.00306814
-2.59178e-05
0.000847134
0.00185705
0.005618
-0.00681672
-0.000658331
0.0122106
-0.000352584
-0.00590535
-0.00595269
-0.00147596
0.0038916
-0.00254391
0.00012827
-0.00128767
-0.00124953
0.000379561
0.00155467
-0.00182734
0.00127254
0.00109299
-0.00475789
0.00110948
0.00255541
0.00424467
-0.0182638
0.000109104
0.0139101
-0.000112052
0.00118169
-0.000208561
-0.000118239
0.000532987
-8.36772e-05
-0.000331071
0.00132286
0.001403
-0.000550472
-0.00217539
0.000682625
0.00103032
-0.000162273
-0.00155067
-0.00152126
-0.000342472
0.0019419
-0.000442087
-0.00111723
0.000600074
0.000959248
-0.00138993
0.00075075
0.00270132
-0.00206214
-0.000195987
-0.00030172
-0.000381063
0.00087877
-0.00511931
0.00925799
0.00383562
-0.0079743
-0.00486857
0.00639277
-0.000852562
0.0135454
0.000168207
-0.00445879
0.00491555
0.00931332
0.00351149
0.00165982
-0.00739521
0.0035599
-0.00305952
-0.00131524
-0.000209712
0.000243414
0.0004536
-0.000487302
0.000553658
-0.000660972
0.000282776
-1.81735e-05
1.76758e-05
0.00210194
-0.00294351
0.00225779
3.77253e-05
-9.88846e-05
6.11593e-05
-0.000233265
0.00530099
3.09363e-05
0.000317555
-0.000348491
0.00137043
0.00201791
-0.00208665
0.000726581
0.000211257
-0.000536206
-0.000401632
-0.000432103
0.0015071
-0.0013167
0.000241703
-0.000321124
0.000626603
0.000167132
-0.000472611
-0.00255483
0.00173697
-0.00246836
0.00328623
-0.00035249
0.00111392
-0.00054683
-0.000214604
-0.000589172
-0.00261594
0.00276973
0.000435383
0.000227088
0.00456677
-0.000305967
-0.00448789
-0.000922973
-0.0031107
0.000421746
-0.00109129
-0.000109373
-0.00088834
0.002089
-0.000267525
-2.46276e-05
-0.000387755
0.000679907
0.0010182
-0.000347871
-0.00164825
-0.00055912
0.000128428
0.00245232
-0.00202163
-0.00528852
0.00305682
0.0116232
-0.00939152
-0.000727018
0.000515972
0.00188475
-0.0016737
-0.00175908
0.00319958
-0.000287407
-0.00115309
-0.000772099
0.000360533
0.000730138
-0.000318572
-0.00191469
0.00316463
-0.000470964
-0.000778971
-0.00292388
0.00651442
-0.00870985
-0.00396827
-0.0134919
-0.00167729
0.0191374
-0.00127446
-0.0208602
0.018771
0.00336363
-0.00831319
-0.013196
0.0191538
0.00359641
-0.000827418
-0.00139856
-0.000531018
-0.00017397
-7.47108e-05
0.0043049
-0.0018785
0.00099345
-0.00341985
-0.000355953
0.000310693
-0.000130275
0.000175536
0.00157903
-0.00151064
0.000132009
-0.000200399
0.00385653
-0.000143917
0.0122239
0.00227666
0.000415603
0.00158196
-0.0057034
0.00738368
0.0042281
-0.00337303
0.00419009
0.00432451
-0.00514158
0.00461504
0.0014329
0.00192282
-0.00797076
0.00239956
-0.00712243
0.0077754
-0.00305253
0.00391151
-0.0131192
0.00350425
-0.00119135
0.00128763
0.00359208
-0.00368836
0.00449927
-0.00689165
0.00120102
-0.000109728
0.000726655
0.00354333
-0.00416025
0.000559965
-0.00395743
0.00328774
0.00373732
-0.00347412
0.000463453
-0.00301213
0.00172432
0.00174617
-0.00045835
0.000485664
-0.00221073
0.00228503
0.00123909
-0.00101303
-0.00432137
0.00409531
0.0249908
0.019565
-0.0329817
0.000474978
-0.00275307
-0.000145187
0.00242328
-0.0014355
-0.000973609
-0.000590084
0.0029992
-0.00248489
0.00264794
0.00103968
-0.00120272
0.00436708
0.000192762
-0.00408487
0.000283148
-0.00029075
-0.000558694
-7.62621e-05
0.000753383
-0.000393973
0.000478336
0.000329767
-0.000501796
-0.000306307
-7.38329e-05
0.000124337
0.000419827
-0.000470331
-0.00106715
0.000897487
-0.000121084
0.00134456
-0.000312535
0.0014158
-0.00244783
0.0027462
0.000636298
-0.00203794
0.00168307
-0.00506313
0.00411479
-0.000734723
0.0024041
-0.0017091
-0.0021305
0.00138192
-0.00272635
0.0010319
0.0083183
-0.00331448
-0.00485986
-0.000143951
0.00360867
0.00470586
3.76264e-06
0.00406771
0.00220502
-0.00432862
-0.00194411
0.0067564
-0.00453205
0.00184336
-0.00222421
0.00566613
-0.000129983
-2.08883e-05
5.79218e-05
9.29494e-05
-0.00242805
-0.00022679
0.00507726
-0.00313742
-0.00208379
-0.00112651
0.00565032
0.000553443
0.00098498
-0.00197462
0.00208263
-0.00209396
-0.00105078
-0.00161315
0.00210961
0.000865985
-0.00428954
0.00131394
-0.00132482
0.00118796
-0.00117411
0.00131096
-0.000869729
-0.00195307
-0.000733761
0.00355656
0.000111005
-0.000201946
0.0032477
-0.00745156
0.00016519
0.00935591
0.00579122
-0.00429633
-0.00894645
0.00259993
0.00176681
0.000544139
-0.00491089
0.00178164
-0.00386823
0.00119172
0.000894875
0.00276258
-0.00343697
0.00327433
0.00457647
0.00156424
0.00299565
0.0520446
-0.050702
0.0161823
0.00370147
-0.0156391
-0.0444223
0.0474179
-0.0113918
0.00215263
0.0251851
-0.0159459
-0.0151935
-0.0275266
0.0152493
-0.0155756
0.00842386
-0.0080975
0.000374321
0.00062964
-0.000818517
0.000400105
0.000490196
5.23924e-05
-0.000394764
0.00103736
-0.000694993
0.000856539
0.0018766
-0.00565629
0.000583636
0.00610118
0.000575965
-0.000634347
8.36244e-05
-2.52425e-05
-0.0049554
-0.00636937
0.00566848
0.00249061
0.00056631
0.000995016
-0.00405194
0.00297442
0.0108566
0.00236721
0.000283863
0.000941995
-0.00359307
0.00485837
-0.0043257
-0.000305575
0.00270947
-0.000867944
0.000649081
0.000190939
-0.000393548
-8.72129e-05
0.00161768
-0.000630549
-0.000255873
-0.000731262
0.000473903
3.32872e-05
-0.000112393
-0.000890399
0.00143498
-0.000787374
0.000242797
0.000599727
7.20928e-05
0.000414753
-0.00108657
0.00608442
-0.00812975
-0.00713586
0.00918119
-0.00215786
0.00265759
-0.00152657
0.00102685
-0.00280439
0.0024048
-0.00281856
5.46569e-05
0.000219504
0.000962767
-0.00250098
-0.0169956
-0.0036466
0.000636631
-0.000588389
0.000136218
0.000511292
-5.912e-05
-0.0115594
-0.00174914
0.00869697
-0.000435808
0.000983101
0.000154804
-0.000702097
-0.00417762
-0.0114012
0.00401937
0.000851537
-0.000512288
-0.000582637
0.00297487
0.0128766
-0.0119949
0.00969297
-0.0142413
0.0133912
-0.0111179
0.000977497
-0.00325077
-0.00032559
-2.12597e-05
0.000309044
3.78049e-05
0.000212639
-0.00362173
-0.00110552
0.00451461
0.00243777
-0.000506285
-0.000915552
-0.00330147
0.000595292
0.0026415
0.00263925
-0.00236633
-0.00291442
-0.00257662
0.00565844
-0.000440315
0.010854
0.00374323
-0.000913733
-0.00187134
-0.000167603
0.00158731
0.0120025
-0.00594437
0.00241033
-0.00846848
-3.96632e-05
-0.00107572
0.00155928
-0.000443901
-0.0508311
-0.00276317
0.0535942
0.00544607
-0.00125804
0.00120434
0.00365381
0.000587922
-0.0016838
0.00179047
-0.00273473
-0.000254039
-0.000882572
-0.000736207
0.000119314
0.000198294
4.81173e-05
-0.000365725
5.74311e-05
-0.000358672
0.00299291
-0.000344787
-0.000443786
9.41824e-06
-0.000910556
0.000901137
5.67959e-05
-0.000994702
0.000223924
0.000713981
-0.00188632
-0.00304067
0.00307702
0.00184997
-0.00240815
0.000507037
1.47862e-05
0.000562753
-0.00364072
0.00139417
0.00126783
0.002335
-0.00171623
-0.0018866
0.00326226
-0.00140827
-0.000586158
0.00266455
0.000892662
-0.00123634
0.0021032
-0.000512184
-0.000362726
-0.00122829
0.00142476
0.00121598
2.38107e-05
0.0180117
-0.0233686
0.0164174
-0.0110605
0.00660902
-0.00346159
-0.00501085
0.00186342
-0.000442252
0.00372937
0.00424474
-0.00753185
0.00350924
0.000285259
0.00431844
-0.00140579
-0.0034152
0.00113272
0.00368826
-0.00112808
0.000273875
-0.000675688
0.00152989
0.000622373
-0.00171924
-3.12163e-05
0.00182871
-0.00171352
0.000507185
0.000471142
-0.000808872
-0.000547911
0.000885642
-0.00128023
0.00258427
-0.00114468
-0.000721006
0.00213956
-0.00122912
-0.00119579
-0.023936
0.0159727
-0.0229882
0.000800251
-0.000969694
0.000364713
-0.00019527
0.000523008
0.000325296
-4.80525e-05
0.00127528
0.00180155
-0.00145914
-0.000797805
0.00320054
-0.00314943
0.000746701
-0.000779875
-0.00133747
0.00341649
-0.00129914
-0.00114984
-0.00108674
0.00145671
-0.00194954
0.000242297
0.00434649
0.000321314
0.00239617
-0.0043364
0.00161891
0.0021864
0.000776155
-0.00208647
-0.00087609
-5.38881e-05
0.000230107
0.00256627
-0.00274249
0.0012375
0.00402816
-0.00404005
3.79384e-05
-0.00354382
0.000781892
0.00272399
0.000910628
-0.00113312
0.000328004
-0.000762076
0.0012481
0.000228927
0.00118843
-0.00311852
0.00447064
0.000803844
-0.00127314
-0.00362821
0.00220166
0.0026997
0.00106631
-0.00138967
-0.00225327
-0.00129138
-0.00142193
0.00111287
0.00160045
0.000821318
-0.000559063
-0.000976283
0.000714028
-0.001965
0.000237806
0.000496318
-0.00087502
0.00277636
0.00981442
0.00903353
-0.00809635
0.000174522
0.000428223
-0.000555233
-0.000599604
0.00117628
-0.000524279
0.000934199
-0.000116697
-0.000946976
0.000129474
0.000126054
8.03209e-05
-0.000527499
0.000462673
7.01385e-06
0.000140133
-0.00125095
-0.000278095
0.00306877
-0.00153972
0.000478717
-0.000122344
-0.000623898
0.000225855
0.000370378
-0.000429485
-0.000166748
0.00157531
0.000632816
-0.00336414
0.00115601
0.00167282
-0.00131483
-0.000160728
0.000450117
0.00272298
0.000541117
-0.00371422
0.0004334
0.00218842
-0.0021717
-0.000307325
0.000610609
0.00190528
0.000495949
-0.000887381
0.000237404
0.000154028
0.00267556
-0.00307325
-0.00916724
-0.00508032
-0.0042805
0.00812704
0.00123378
0.000954801
-0.00272758
-0.00243139
0.00420416
-0.000911355
0.0106946
0.00399564
-0.00333439
0.00427838
-0.00493963
0.00186465
0.0026047
-0.00313865
-0.00133069
0.00795802
0.0120589
-0.0161054
0.00625667
0.00312826
-0.00841566
-0.00096927
0.000227874
-0.0030513
-0.0026837
0.00550712
-0.00136867
0.00764467
-0.00905063
0.00277464
-0.00239488
0.00183011
-0.00134993
-0.000896535
-0.000752045
-0.00106417
0.00271275
-0.000791216
-5.09289e-05
0.00273432
-0.00189217
-0.000718383
-0.00161975
0.00314058
-0.000566191
0.00630417
-2.33257e-05
-0.00571466
-0.00495393
0.00889745
0.000170062
0.00670133
0.00340108
-0.012798
0.00269558
-0.00601337
0.00959853
0.00133039
0.00361525
0.00673399
-0.00364791
-0.00449225
0.0113785
-0.0239622
0.0148537
-0.00300957
0.00748016
0.00637153
-0.000460476
-0.00530427
-0.0057826
0.00571114
0.0040671
0.0107394
-0.00712991
-0.00667005
0.0030606
-0.00369445
0.00235518
-0.0020301
0.00336937
0.00138635
-0.00330333
0.00116391
-0.00634002
0.00847945
-0.00204796
-0.00915945
-0.00313551
-0.00103939
-0.002349
0.0065239
0.00578733
-0.000464548
-0.0013175
-0.00400529
-0.0087574
-0.0019223
0.00539118
1.96882e-05
0.00520145
-0.00967758
0.0215078
-0.00338893
-0.00413869
0.00544028
-0.00176614
0.0016655
-0.00108792
-8.12641e-05
0.00192812
-0.00157321
-0.0044936
-0.00615301
0.00126494
0.0067254
-0.00183732
0.00499692
-0.00238784
-0.000680955
-0.00407027
-0.00597523
0.00538977
0.00465572
0.000600982
0.00144255
-0.0061138
0.00426075
-0.00408821
-0.00201992
0.00184738
0.0411475
0.00144923
0.00408554
0.000437946
-0.000262739
-0.000622821
-0.00894956
0.00359716
0.00139052
-0.00231297
-0.00328293
-0.00121211
0.0112245
-0.00462265
0.00645876
-0.00818628
-0.0050905
0.00681802
-0.00292434
0.013375
-0.00399189
-0.000350946
-0.00326223
0.0050037
-0.000341372
-0.00853196
0.000687055
0.000217799
0.00466722
-0.00408206
0.00320244
-0.00757878
0.0131722
-0.00879589
-0.0051791
-0.0040119
0.0123934
0.00433018
5.99892e-05
0.000468201
-0.00455567
0.00370675
-0.0106391
0.00256002
0.00390061
0.00417842
-0.0011049
-0.00949963
0.0110804
-0.000475868
-0.00241321
-0.00614961
0.00344491
0.00343281
-0.00072811
-0.0142033
0.0275568
-0.00689757
-0.00645588
0.00124208
-0.00129099
0.00210916
0.00762533
-0.0120459
-0.00978269
-0.0071208
-0.00638451
0.00379451
-0.00465515
-0.00647755
0.00597381
0.0113894
-0.00812759
-0.00923566
0.000443114
-0.00243382
0.000703037
0.000124982
0.0011371
-0.000483954
-0.000778133
-0.000880689
-9.0353e-05
8.36969e-05
0.000993083
-0.000786993
-0.000737108
-0.000432113
-8.20224e-05
0.00242803
-0.00191389
0.00210358
-0.000720667
-0.00167788
0.000294973
-0.00389269
0.00810255
7.89569e-05
-0.00639905
0.0036024
0.00850167
0.0256111
0.0107712
-0.00970779
-0.0161151
0.0201119
-0.005759
0.00180285
0.0017456
-0.000830245
0.000924451
0.000816422
0.000137071
0.000821631
-0.000232638
0.000891499
-0.000168615
-0.000515329
-0.000207555
0.00073252
7.58435e-05
-0.00037273
0.00324047
-0.00845489
0.0020046
0.00670629
-0.00547043
-0.00275253
0.00201869
0.000426014
0.000307819
-0.006358
-0.00865938
0.0302667
0.00352242
-0.0042475
-0.00808509
0.00881017
0.00335251
-0.00224247
0.000991899
0.00138234
0.0055675
-0.00338994
0.00448262
8.28086e-05
-0.00259918
-0.000878231
4.04408e-05
-0.00129705
-0.00404575
0.00274361
-0.00644366
0.0110804
0.000166923
-0.00271939
0.00188963
0.000662831
-0.000564787
0.00318763
-0.000749893
0.000812788
0.00184703
-0.00296488
0.00222609
-0.00047237
-0.00345
0.000869784
0.00181027
0.000769946
-0.00263525
-0.00196288
-0.00367691
0.00827504
-0.00216126
0.00168055
-0.00296929
0.0025297
0.00476003
-0.00331427
-0.0299359
-0.00777392
-0.0129922
-0.0019033
-0.000586755
0.00176905
-0.00945105
0.00710963
-0.00733916
-0.00240572
0.00118027
0.00198089
-0.00490944
-0.00433048
0.00195034
0.00292428
-0.0105696
0.018978
0.003132
-0.00231053
0.00291898
-0.000617959
0.000372124
0.00219951
-0.00065074
0.000811435
0.0475917
0.00927579
0.0031828
0.00029901
-0.00435683
-0.00027642
-0.0028976
0.00664139
-0.00864702
0.00504605
0.00290885
0.000587552
-0.000248705
0.00186891
0.00206463
-0.00102469
-0.000807188
0.00237356
-0.00168049
0.000114112
0.00389235
0.0120586
-0.0160949
-0.00537517
-0.00303599
0.00959963
-0.00118847
0.00507015
-0.00216506
-0.00503856
-0.00471314
0.00236782
0.000615816
-0.00815605
-0.00734938
-0.0118475
0.00582948
0.0241138
-0.0156359
-0.00495549
0.000747787
-0.0203958
0.00451163
-0.00195794
0.00943181
0.00218906
0.00153608
0.000786725
-0.000356426
-0.00366813
0.00501003
0.00166136
-0.00300326
-0.00113874
-0.00180872
0.000849759
0.0020977
0.000694925
0.00206625
-0.00270149
-0.00203699
-0.00114508
0.00127629
1.51671e-05
-4.97446e-05
8.69811e-05
-5.24036e-05
0.00233131
0.00145116
-0.000335272
-0.0034472
0.00328537
0.0028814
-0.000245145
0.00187961
-0.00273774
0.00110327
-0.00646952
-0.00194516
0.00957536
0.0173552
-0.016792
0.00122116
-0.00178437
-0.0195327
0.0173352
0.0104171
-0.0013287
-0.00290315
-0.00618528
-0.00132826
-0.00287335
0.00433363
-0.00234554
0.00248181
0.000709248
-0.000845518
0.00157923
0.00153225
-0.0022455
0.00140937
-0.000541804
-0.00165878
0.000971615
-0.00167726
2.18442e-05
0.000683798
0.00585735
-0.0072913
0.00314191
-0.00170796
0.000898898
-0.000243877
0.00116003
-0.00181505
0.000197204
0.00330028
-0.000261774
-0.000548246
0.0104764
-0.00704594
-0.0049824
0.00155191
-0.000804013
-0.000359418
0.000386588
0.000152439
-0.00017961
0.000900819
-0.00169728
-0.00178087
0.00257733
-0.00202159
-0.00833607
0.00851212
0.00406397
0.000679969
-0.000933523
-0.00207713
0.000687747
0.00138503
4.35497e-06
0.00190528
-0.00100394
0.00316263
-0.00185103
0.00147773
0.000185516
0.00223472
-0.000458291
-0.00313212
-0.000969376
-0.00376177
0.000949737
0.00378141
0.000292967
0.0029938
6.97864e-05
-0.000954869
0.00230656
0.00135778
-0.00107817
-0.0018027
-0.00030558
0.00325597
-5.62493e-05
0.000246706
0.000504731
-0.00102883
0.000277397
-0.000957073
0.00104997
0.000530621
-0.000623523
0.00923727
-0.0118496
0.0022249
0.0111493
0.000271829
-0.000515441
0.000810905
-0.00150902
0.00280117
-0.000621916
-0.00321683
0.00925294
0.00441936
-0.0104555
0.00154723
-0.00198442
-0.000459348
0.0101062
-0.00584831
0.0056306
-0.00988852
0.00605098
-0.0148812
-0.0121358
0.020966
0.000134707
-0.00353916
0.00259727
0.00263619
-0.00302186
-0.00328247
0.00360775
-0.0105166
0.00752466
-0.00333703
0.0018075
0.00589662
-0.00558134
0.00518544
0.000726199
0.000407211
-6.37087e-05
-6.37422e-06
-0.000337128
-0.000717397
0.00272813
0.00397703
0.0580877
-0.00392051
0.00566688
-0.0291601
0.0349507
0.00029298
0.0011658
-0.00108446
0.00246161
0.00256718
-0.000155832
-0.00285462
0.0066257
0.0311443
0.000622877
-0.0201561
0.0017401
0.00230097
-0.00104398
0.000213731
-0.00360128
0.00531182
-0.0020285
0.000317958
-0.00328881
-0.000445124
-3.48068e-05
-0.000308209
0.000609542
-0.000266526
0.000413657
-0.000277359
6.76287e-05
-0.000203927
0.000296041
-8.33152e-05
0.00036671
-0.000579436
0.000727671
0.00479554
-0.00428412
-0.000994514
-1.90925e-05
0.00084267
0.000170937
0.00103447
-0.000725283
-0.000992849
0.000683665
-0.000251659
0.000344429
-0.00381106
-0.00242385
0.00261147
0.00211246
0.00147737
-0.000968351
-0.000517624
0.000651441
0.000834534
-0.00471805
0.0032037
0.00077065
0.000743695