/*--------------------------------*- C++ -*----------------------------------*\
| =========                 |                                                 |
| \\      /  F ield         | OpenFOAM: The Open Source CFD Toolbox           |
|  \\    /   O peration     | Version:  2506                                  |
|   \\  /    A nd           | Website:  www.openfoam.com                      |
|    \\/     M anipulation  |                                                 |
\*---------------------------------------------------------------------------*/
FoamFile
{
    version     2.0;
    format      ascii;
    arch        "LSB;label=32;scalar=64";
    class       volVectorField;
    location    "0.01535";
    object      U;
}
// * * * * * * * * * * * * * * * * * * * * * * * * * * * * * * * * * * * * * //

dimensions      [0 1 -1 0 0 0 0];

internalField   nonuniform List<vector> 
3948
(
(5.99995 6.4559 -0.927952)
(9.65365 0.624684 0.715708)
(10.2925 0.189216 0.387862)
(7.8642 6.0286 1.14709)
(8.3701 5.65198 1.34115)
(10.4713 0.294564 0.365165)
(8.32908 5.81322 1.20669)
(9.26707 5.29911 0.972917)
(10.5133 0.157319 0.151968)
(10.6866 0.49735 0.302366)
(10.6929 -0.0965185 0.0655777)
(11.1623 0.106976 0.427591)
(10.2682 2.41596 1.50172)
(10.4633 2.17292 1.44913)
(10.2864 -0.718008 1.8081)
(9.12785 -1.67415 1.67543)
(9.81168 3.53655 2.99762)
(10.2077 0.339868 0.634404)
(9.36872 4.30159 2.43603)
(10.7525 0.05441 0.830092)
(10.6495 0.0848439 0.928122)
(12.3769 3.72489 0.904099)
(10.3278 0.23378 0.131157)
(10.9347 0.0292032 0.670486)
(10.914 -0.0150488 0.793717)
(5.19406 4.68903 1.68894)
(10.8052 0.0892001 0.778842)
(7.66192 0.527135 0.759768)
(11.694 -0.0870551 0.0319046)
(11.8803 -0.672388 0.448812)
(10.0265 0.979778 1.12499)
(5.10803 3.93922 -1.38469)
(7.32326 4.99111 -0.518357)
(11.7234 -0.435804 0.836421)
(1.67603 3.94695 -0.768839)
(11.0628 -0.0436125 0.427151)
(-0.784339 2.86485 0.388734)
(5.41666 5.20286 -1.29084)
(7.01077 -0.459463 2.50831)
(5.29633 1.70286 3.43146)
(8.79638 0.68825 3.35902)
(10.6543 -0.301627 1.58462)
(6.03198 5.17603 -1.88756)
(6.81197 5.09553 -1.6119)
(10.8992 -0.0138928 0.685012)
(5.81436 5.78365 -1.99957)
(7.17928 4.87489 -0.764188)
(5.91586 5.09507 -1.83333)
(1.23579 2.70195 -0.308887)
(4.9778 -0.834091 1.8634)
(11.7767 -0.473948 0.307587)
(1.19409 -0.0546205 0.956331)
(10.3838 2.57705 3.34784)
(4.17237 -0.495268 1.88838)
(7.59194 -0.474931 1.82837)
(3.78767 6.0572 -1.65757)
(10.4805 0.390899 0.30636)
(10.3919 0.0393348 1.26273)
(3.35369 5.02182 -1.06134)
(10.273 1.14857 -0.50274)
(8.94201 -0.129401 1.16494)
(9.12249 -0.180996 0.638614)
(10.4944 0.152469 0.0246125)
(11.7287 -0.260186 1.38078)
(11.7758 -0.424905 1.18964)
(11.0222 -0.0241398 1.8263)
(9.06038 1.6696 -1.12622)
(8.45006 1.76386 -1.9799)
(11.0009 0.212245 0.926186)
(8.28836 -0.828626 2.01447)
(1.14411 2.76318 -1.55218)
(10.6904 0.205375 2.34436)
(9.6188 3.13107 4.44666)
(10.4447 0.656595 0.174467)
(11.1619 -0.0592908 0.387328)
(10.6235 0.232787 0.754261)
(10.6453 0.155785 0.213047)
(11.1528 -0.0398711 1.11153)
(5.937 6.9317 0.0394123)
(11.9765 -0.709452 0.518059)
(11.1457 0.901247 2.44372)
(11.0756 0.968551 2.54424)
(9.39488 1.86959 0.479092)
(9.9824 0.620579 0.202)
(10.863 1.1614 2.76327)
(11.0101 1.11452 2.56129)
(10.4641 0.593383 3.01303)
(10.9591 0.744784 2.38263)
(7.56018 3.2778 -1.24352)
(10.3299 0.303003 0.183131)
(7.19251 0.827754 0.847008)
(10.9552 0.144188 0.762372)
(10.2588 2.47204 0.917028)
(10.3624 0.448954 1.11508)
(10.5474 1.06407 -0.174313)
(10.5894 -0.0475095 1.16828)
(9.05217 1.54753 0.947676)
(10.0009 2.15343 2.93557)
(10.2978 0.625243 0.218615)
(10.8395 0.0353671 0.560711)
(10.8452 -0.0410596 0.343002)
(11.2415 -0.127891 0.907872)
(12.3293 1.51701 1.0214)
(10.3718 0.683523 0.408501)
(11.0185 0.326442 1.00009)
(11.7387 -0.376936 0.825396)
(10.6939 0.779695 0.63533)
(9.83739 0.487623 0.724184)
(6.80443 6.98076 0.632756)
(8.35942 0.550548 0.835919)
(7.31571 2.25503 -1.66526)
(6.7464 4.00483 -0.414414)
(10.399 0.167515 0.119605)
(10.5722 1.76917 0.600207)
(1.22787 4.83193 -4.21536)
(9.96387 0.51932 0.324182)
(10.4149 1.04312 1.00127)
(9.4956 3.99762 -0.52753)
(7.79109 0.496542 0.99407)
(7.45288 -0.412223 0.223853)
(1.72003 2.45678 -2.92323)
(11.242 -0.447719 -0.177289)
(9.2624 0.0679288 0.758696)
(7.08134 0.381127 0.419271)
(11.1321 1.59384 0.334564)
(11.202 -0.387948 -0.012591)
(9.4226 3.58677 -0.42419)
(10.9145 -0.864085 1.02233)
(6.78267 6.27247 0.186867)
(9.11102 1.58896 1.19618)
(11.1623 0.134307 1.27014)
(10.357 0.225731 0.177461)
(11.2855 0.424557 2.08813)
(10.8148 1.84455 3.04457)
(10.2639 1.01832 0.0593944)
(7.46518 4.6727 3.44947)
(10.4521 1.17198 0.648568)
(10.945 2.13238 1.29947)
(11.8776 1.6794 2.51823)
(10.8684 -0.235105 0.158632)
(9.91119 0.533319 2.72307)
(10.5327 1.29831 0.330139)
(10.2532 0.797627 -0.088879)
(11.0275 -0.0340662 0.610292)
(10.8447 1.25494 2.00802)
(11.2921 0.217453 0.873438)
(9.89273 0.6707 0.167635)
(11.795 -0.78888 -0.0922963)
(7.77996 -0.0152563 0.642745)
(10.8578 -0.110981 0.148344)
(10.7938 0.0266831 0.336965)
(10.9182 -0.14361 -0.0407676)
(11.3179 -0.186469 0.413474)
(11.2799 -0.22009 1.69153)
(11.397 -0.119741 0.337392)
(11.3391 -0.481585 -0.163579)
(10.5885 0.233417 0.425431)
(12.1819 -0.857562 0.228455)
(11.3786 -0.732001 0.868505)
(10.114 0.172727 1.44109)
(11.1941 -0.118607 0.631512)
(9.96532 0.684778 1.67825)
(10.5478 0.21684 0.297197)
(10.2418 0.487303 0.283017)
(10.4177 0.338956 0.223663)
(10.0849 0.615099 0.250919)
(7.09967 4.80399 -0.321767)
(7.94189 -0.584952 2.28866)
(8.51283 2.26029 -1.14943)
(2.14124 5.85101 -4.29997)
(4.35523 2.26556 -2.59792)
(11.1384 0.00324231 0.425362)
(11.3802 -0.0472865 0.417086)
(3.9856 1.58017 0.379234)
(7.33768 3.88558 0.274902)
(10.3866 0.322308 0.339908)
(11.188 -0.131679 0.887073)
(8.03788 0.340552 0.47063)
(11.0012 0.0723776 0.669589)
(10.9421 0.0282262 0.589432)
(11.8757 2.35583 0.638755)
(1.1822 2.96566 -0.609689)
(3.31481 1.68311 -0.278413)
(7.27657 3.52336 -2.43365)
(10.8876 0.0430152 0.472466)
(9.34349 0.24502 0.548784)
(10.5164 3.50565 0.70474)
(11.2336 0.0616385 0.716636)
(11.4283 -0.292871 1.03573)
(11.0233 0.082535 0.530141)
(11.6314 -0.294902 0.784333)
(10.8828 1.45286 0.462869)
(10.8524 -0.075246 0.285689)
(9.14422 1.54477 -1.14005)
(10.517 0.210486 0.810342)
(11.0059 0.448276 0.60503)
(11.0296 -0.55138 -0.377845)
(9.07199 0.947828 1.49574)
(11.4174 -0.574875 -0.00431347)
(11.699 -0.619897 0.341341)
(11.4714 -0.436735 0.218125)
(11.2154 -0.368374 -0.087013)
(8.96709 2.532 3.9634)
(11.2871 -0.22611 0.19419)
(11.4452 -0.582254 1.07004)
(9.63492 0.68158 0.31654)
(10.5098 -0.0723681 1.23209)
(2.71499 2.5371 -0.401442)
(10.9711 1.20089 1.93133)
(12.1242 0.119149 1.63873)
(11.2206 -0.17117 0.255652)
(4.66714 3.58629 1.5783)
(11.3928 -0.355156 0.181357)
(11.9155 -0.74915 0.272817)
(10.6238 0.193656 0.536254)
(6.78946 4.56859 1.21588)
(9.71954 0.977555 -0.758758)
(7.20117 4.77878 1.41574)
(8.54919 6.2952 2.44502)
(10.8082 -0.0125491 0.284096)
(8.1406 -0.51944 2.42597)
(11.5821 2.60738 0.0508483)
(10.7401 -0.00763061 1.07679)
(10.0832 0.811168 0.280892)
(11.2806 -0.188405 0.840329)
(10.419 0.233769 0.50814)
(11.1749 -0.243435 -0.0288907)
(9.57691 1.16995 -0.337275)
(10.3322 0.762653 -0.0473967)
(-0.0281031 3.80672 -2.21219)
(9.32802 -0.438478 1.70132)
(8.375 4.47466 3.43541)
(9.53775 1.86323 0.457625)
(10.1091 0.089114 1.19541)
(7.2299 4.38099 -0.250334)
(4.22887 6.55616 -1.28172)
(10.7214 0.0566363 0.954686)
(9.08813 0.651643 1.01284)
(10.4181 0.266801 0.681195)
(7.89523 -0.107822 0.266825)
(10.8351 1.80999 0.0563315)
(7.17777 1.39934 -1.96355)
(10.5366 0.141869 0.314318)
(9.4331 0.899608 0.79936)
(9.23261 3.76939 -1.50764)
(10.8106 -0.0792222 0.274176)
(10.8946 -0.213913 0.135749)
(10.034 0.908737 2.20714)
(10.1751 1.05173 -0.450112)
(10.7454 0.190666 0.318483)
(10.8996 0.364852 0.691568)
(10.7305 0.198009 0.792774)
(10.3048 0.576623 0.0881813)
(9.89539 0.758188 0.837617)
(9.40532 -0.330159 1.53586)
(9.7325 -0.0384922 1.32718)
(9.24294 1.7777 1.94347)
(6.6778 4.19207 0.0937378)
(10.5223 1.19746 0.701256)
(11.2707 -0.180261 0.193665)
(11.2782 0.230666 1.45303)
(7.51084 1.38504 1.55578)
(10.5223 0.00343835 1.03808)
(6.61244 -0.350119 0.00312985)
(9.11248 -0.327397 1.00456)
(11.4629 1.79695 1.67854)
(11.5287 -0.957145 0.735534)
(10.1568 0.83907 1.21174)
(9.78617 3.67613 1.45534)
(5.52967 -0.0466781 1.05242)
(11.1087 0.172317 0.995132)
(11.5154 -0.346478 0.670229)
(11.6641 -0.0751958 0.495644)
(10.082 -0.524879 1.17143)
(3.9807 5.37097 -1.82359)
(9.09394 1.90389 0.280047)
(10.7958 0.193487 1.83719)
(7.48658 3.18516 -0.662807)
(10.9834 2.65265 0.613897)
(4.33847 6.65228 -2.06504)
(11.95 -0.454484 0.670486)
(10.3662 0.844885 1.41828)
(4.97392 4.80913 -0.0865554)
(6.74211 5.85431 0.895998)
(9.64165 1.53892 0.801175)
(11.2308 -0.114916 0.426796)
(11.3129 -0.229177 1.15683)
(11.0592 -0.237756 1.47112)
(8.17119 4.0583 0.682264)
(9.65387 1.90803 -0.548801)
(7.64405 1.09546 1.89269)
(10.6232 2.52005 -0.719713)
(11.2843 -0.224316 1.40499)
(10.8791 1.68004 1.51069)
(5.66466 3.78934 -0.650471)
(10.287 1.7566 1.02833)
(10.0629 2.73861 1.23719)
(10.4827 -0.150498 4.3381)
(10.6849 2.29533 1.48774)
(6.09021 6.42031 -0.140218)
(-0.903975 0.658062 -0.194013)
(7.64715 -0.146671 0.2885)
(10.1077 0.844641 0.270842)
(11.5286 -0.956098 0.810954)
(7.87109 1.3931 -2.41601)
(10.7435 0.122855 0.435957)
(10.6873 0.171928 0.365014)
(11.3127 -0.295948 1.24935)
(9.1491 -0.344014 1.07877)
(10.4487 0.143734 0.980176)
(10.365 0.321785 0.222148)
(10.6203 0.66625 1.44092)
(10.3979 1.02821 1.62895)
(6.61682 5.57282 0.380628)
(11.005 0.311022 0.572454)
(10.5826 0.121965 0.194615)
(8.92783 4.74407 2.30994)
(3.20197 3.66845 -1.33598)
(3.01649 5.85528 -2.64021)
(8.64195 4.03744 1.87705)
(10.2254 1.31415 4.30487)
(11.2242 0.626023 1.91457)
(9.89839 1.692 0.949958)
(4.57507 7.15377 -0.324873)
(10.2314 0.505522 0.60794)
(10.566 0.9878 0.44823)
(10.3795 0.273092 0.569902)
(10.7916 -0.137897 0.102921)
(9.98013 0.819442 0.762097)
(10.8858 0.341307 0.564642)
(10.539 0.714351 2.80531)
(9.6009 2.82722 3.02174)
(2.08788 0.193891 1.80088)
(12.0111 0.12926 1.77531)
(-0.343793 -0.831578 -0.648499)
(10.2093 0.72412 -0.0745825)
(8.34207 -1.01265 0.253778)
(11.048 0.129811 1.28142)
(5.70822 6.71178 -0.455446)
(9.06131 5.86897 2.3064)
(6.48609 6.68823 0.340918)
(8.37857 2.95748 0.841543)
(4.79465 1.53739 -0.163374)
(7.32437 2.61113 0.283042)
(9.43158 0.876531 0.854656)
(8.88885 1.86933 1.37277)
(2.46919 3.36969 -1.32237)
(7.86448 6.69991 1.13368)
(10.0439 3.04536 1.67651)
(7.27567 0.981147 0.518841)
(11.2726 0.0186841 0.878009)
(11.6862 0.390409 2.18994)
(6.19369 2.34821 -0.483543)
(7.40779 -0.533195 1.45243)
(10.7485 -0.220824 1.37092)
(10.2093 0.601595 0.6444)
(10.6723 0.09777 0.553295)
(10.7635 -0.018686 0.0171181)
(10.5292 0.265839 0.258771)
(10.8885 0.219007 1.10501)
(10.2692 0.496646 2.6465)
(10.8566 0.464175 0.814368)
(7.72273 -0.578392 0.846796)
(9.91101 -0.173775 1.89942)
(9.78018 0.430776 0.527581)
(13.2195 1.89685 0.947697)
(11.2333 -0.145981 0.230692)
(11.1323 -0.180802 0.191224)
(11.0024 -0.0989817 0.243745)
(11.0912 -0.159982 0.19808)
(11.2756 -0.173643 0.142589)
(11.8559 -0.451208 0.617854)
(11.8333 -0.375513 0.618378)
(11.4186 -0.387729 0.907722)
(10.9817 -0.38316 1.0439)
(10.1863 -0.0823298 0.957791)
(8.68637 -0.254834 0.847998)
(10.5928 -0.317527 1.23827)
(11.597 -0.268868 0.581354)
(10.6151 0.133575 0.368093)
(9.95584 0.493051 1.45054)
(10.5992 0.413002 1.45606)
(10.6541 0.262279 1.17596)
(10.0016 0.666874 1.18203)
(10.6826 0.188276 2.39629)
(10.506 0.661615 2.6611)
(10.7102 -0.37571 2.04089)
(10.1714 -0.58619 1.90875)
(10.994 0.235339 2.04096)
(10.3149 0.271266 1.60579)
(10.3769 0.162686 1.43301)
(10.4527 0.256746 1.0997)
(10.628 0.307423 1.71233)
(10.4426 0.454788 1.46837)
(10.7384 0.305845 0.688457)
(10.6963 0.3115 0.703944)
(10.8877 0.262861 0.654044)
(10.7969 0.268595 0.576198)
(10.7612 0.257574 0.550231)
(-1.42629 1.37202 -0.828213)
(10.8329 0.287745 0.734687)
(10.8089 0.155317 0.618234)
(10.7601 0.188362 0.629686)
(11.0482 0.355148 0.813276)
(11.0388 0.293473 0.56767)
(11.2004 0.0885282 0.64369)
(10.2207 0.986758 4.88862)
(12.0138 -0.860177 -0.00725997)
(2.18197 2.42955 1.30499)
(12.2917 -1.01722 -0.179193)
(10.4027 0.576456 0.314809)
(10.4639 0.569872 0.290305)
(11.344 0.610381 1.04236)
(11.1259 0.385956 0.675776)
(11.3619 0.633213 1.11259)
(11.2047 0.188958 0.792501)
(10.3637 0.128986 0.0286942)
(10.5616 0.136675 0.121892)
(10.4586 0.0541961 0.100291)
(10.1729 0.354466 0.198287)
(10.236 0.314648 0.184196)
(10.367 0.306959 0.224333)
(5.44522 6.3459 -0.823976)
(5.26218 5.31863 -0.36189)
(10.1436 4.62475 2.58656)
(9.7137 3.38156 1.47756)
(11.0288 0.0751417 0.389235)
(8.67089 4.64244 3.57767)
(11.0463 -0.0256794 0.300696)
(10.9382 2.08162 0.939312)
(8.34541 0.340632 0.977243)
(3.768 2.75125 -2.19563)
(8.87141 0.9971 0.68419)
(10.7835 2.30181 0.907762)
(8.99672 -0.519906 1.53871)
(8.59806 1.09262 2.67021)
(3.64049 4.8958 0.381566)
(2.14728 6.25638 0.327227)
(1.50119 4.6765 0.127723)
(10.3581 0.217568 0.969384)
(10.589 0.739372 1.03095)
(10.4576 1.17285 1.12059)
(7.77365 -0.439012 0.200688)
(10.3443 -0.052815 1.40433)
(9.1205 1.73778 -1.36559)
(10.4885 1.22086 1.09617)
(9.26231 -1.73849 1.89928)
(9.85866 0.770814 0.176386)
(4.01615 6.76487 -1.41895)
(9.85636 0.82962 0.197606)
(6.27557 7.07321 0.55659)
(9.72589 0.42756 0.403932)
(9.71145 0.61303 0.193705)
(10.4872 0.209791 0.19478)
(8.23446 -0.487125 0.633971)
(11.5221 -0.450795 0.192284)
(11.7849 -0.587991 0.365781)
(11.5707 -0.51852 0.107474)
(11.6968 -0.315178 0.921541)
(11.5249 -0.255554 0.848317)
(12.0937 -0.0563035 0.736325)
(11.6967 -0.474477 0.646589)
(10.2107 0.912518 0.333592)
(10.9826 -0.441776 1.47054)
(10.2398 0.0785276 0.0320058)
(10.2896 2.91545 -0.569597)
(10.2111 2.91332 -0.570364)
(11.4457 -0.246475 1.09335)
(11.1595 -0.275001 1.39998)
(1.42119 2.32456 -1.10895)
(8.01145 -0.601324 0.655902)
(6.53482 3.62437 -0.574923)
(6.66276 -0.431237 0.0964237)
(10.9597 0.724226 2.03369)
(11.7777 -0.447557 0.896788)
(11.8265 -0.541102 0.840378)
(11.4791 -0.345731 1.15781)
(11.2056 -0.003409 0.582004)
(11.2487 -0.0554707 0.741157)
(10.6804 -0.277036 1.54223)
(10.7943 -0.12916 1.55112)
(10.6189 -0.229135 1.59243)
(10.7471 0.0561087 0.234065)
(10.6951 0.659383 0.29292)
(10.6143 0.524217 0.285566)
(10.9688 0.347168 0.304772)
(10.9095 0.581567 0.492153)
(10.6095 1.31351 1.43066)
(10.7297 1.4354 1.33972)
(10.6314 1.43603 1.20291)
(10.0612 2.47639 2.18968)
(10.1989 2.14361 1.74444)
(10.4429 1.54725 1.68139)
(10.4714 1.82309 1.71448)
(10.4628 0.254602 0.789379)
(10.0107 -1.25589 3.2756)
(9.73668 -0.690081 3.62986)
(7.32425 1.04885 2.3148)
(9.95734 2.59564 0.626955)
(8.90922 4.75834 -0.171397)
(8.57443 5.16112 -0.651464)
(11.6288 -0.0908478 1.10031)
(11.5657 0.0406917 1.5352)
(4.49345 5.77727 -1.83661)
(11.4011 0.790714 1.48713)
(11.3772 -0.276979 0.309065)
(11.7317 -0.610465 0.0816873)
(8.15763 -0.961365 0.790684)
(11.7828 -0.607189 0.528648)
(12.1827 -0.874017 0.0273243)
(11.3384 -0.321919 0.233995)
(11.6853 -0.609024 0.216651)
(11.5002 -0.231737 0.665338)
(4.02263 6.15308 -2.43271)
(11.1895 -0.0519621 1.8122)
(3.43996 6.62226 -2.06896)
(12.1131 1.77296 1.22403)
(10.7072 0.0737413 0.168043)
(7.34423 6.58653 1.30164)
(10.4477 3.40516 2.57649)
(10.5327 0.390022 2.98595)
(6.45612 6.21373 0.401776)
(5.77498 6.89822 -0.0984923)
(11.1747 0.0203299 1.30848)
(7.64503 6.89567 1.24736)
(6.36865 6.80307 0.159196)
(9.14379 4.76023 -1.07123)
(11.0772 -0.0449249 1.65962)
(11.5044 -0.306608 1.10372)
(11.3641 -0.0960328 1.05288)
(10.9861 -0.164615 1.47061)
(8.39845 5.37638 3.98989)
(11.1237 -0.0681061 0.384209)
(11.1977 -0.14634 0.42275)
(10.9823 -0.0541235 0.45171)
(11.1327 -0.114315 0.240214)
(9.85337 1.79478 -0.19826)
(5.66044 4.65598 -3.95212)
(11.2023 -0.130315 0.0995931)
(10.7982 0.618563 0.285439)
(11.3006 -0.201118 0.436595)
(10.8168 0.0428824 0.36927)
(10.7475 -0.28214 1.44056)
(9.90167 -0.173534 1.22112)
(5.27788 5.94065 -2.46009)
(9.58957 5.44521 -0.0488471)
(6.5779 1.00688 0.246088)
(10.9275 -0.170802 0.24433)
(10.9744 -0.267842 0.147667)
(10.8389 -0.160662 0.194769)
(11.0351 -0.221913 0.18323)
(7.9838 1.64976 -1.32573)
(10.5064 0.147211 0.112145)
(10.4473 0.221242 0.188322)
(10.7899 0.156242 0.700921)
(9.90824 1.52957 0.0425876)
(10.106 1.86182 -0.434117)
(10.2133 1.9007 -0.00437236)
(9.99462 1.68027 -0.317706)
(10.2178 1.20245 0.189763)
(10.3402 1.06223 0.0928269)
(10.5272 1.78361 -0.172448)
(5.09603 1.86308 -1.05389)
(11.3845 -0.00944191 1.12726)
(5.65619 1.57952 -0.585677)
(10.4456 0.199655 0.138962)
(6.33616 2.24282 -1.11627)
(12.3342 2.33789 1.31301)
(5.92214 2.84979 -1.25193)
(7.48298 1.37384 -0.0642094)
(6.46231 2.44254 -0.732832)
(10.6399 0.305977 0.468779)
(10.699 0.243877 0.411615)
(10.6007 0.579202 0.801683)
(10.609 0.0109264 0.039826)
(10.5429 0.620957 0.78262)
(10.6817 0.31386 0.53083)
(11.2061 0.0351025 0.387299)
(10.6279 0.311255 0.493963)
(8.59136 1.61286 -0.48168)
(8.65514 1.45303 -0.0560945)
(11.1164 0.143557 0.463689)
(8.72967 1.8046 -0.653586)
(7.8042 2.40502 -1.01311)
(8.94574 1.02398 0.320259)
(9.29439 0.834213 0.435076)
(9.02749 0.889738 0.714877)
(9.29267 0.811977 0.686838)
(10.4158 0.430746 0.287152)
(10.4928 0.431685 0.170829)
(10.4394 0.437598 0.313392)
(10.5244 0.378557 0.641146)
(9.27266 0.5266 0.753236)
(10.8945 0.375005 0.862003)
(9.44411 0.499247 1.00999)
(9.57939 0.831101 0.355673)
(9.37148 1.03763 0.363017)
(10.6153 0.11785 0.272095)
(10.3673 1.20471 1.82138)
(10.1696 1.58989 2.71979)
(11.1247 1.47144 3.05197)
(10.5435 0.327192 2.397)
(11.0609 0.428945 1.48268)
(10.7416 0.838396 1.5863)
(10.7599 0.821069 0.0338917)
(10.566 0.700639 -0.0043989)
(10.2939 0.323797 0.197664)
(10.3442 0.306579 0.171314)
(11.1435 0.580508 0.847867)
(7.55641 -1.48987 0.560442)
(6.80447 -1.15762 0.181513)
(7.44232 -1.59817 0.519595)
(6.08174 1.01526 3.15052)
(11.2231 -0.206573 0.17177)
(11.2013 -0.181504 0.287145)
(11.3885 -0.246619 0.570345)
(10.3603 0.283535 0.221275)
(11.2028 -0.292937 -0.0578759)
(11.8756 0.0417783 1.61051)
(10.7879 0.320716 0.496328)
(11.2008 0.608919 1.05306)
(11.4571 0.533158 1.11163)
(11.5508 0.356573 1.04793)
(10.3583 0.170249 0.0570831)
(12.1038 -0.495454 1.00928)
(12.181 -0.223705 1.43362)
(11.9196 -0.323284 0.837801)
(11.7045 1.45187 1.45104)
(11.6487 0.437729 1.73778)
(10.8233 0.207295 0.41108)
(11.6774 0.355978 1.58815)
(11.1734 -0.0887151 0.771861)
(10.4597 0.0675202 0.0854146)
(10.584 1.26908 1.87753)
(10.5437 0.0191562 0.0513727)
(10.8822 0.130079 0.392924)
(11.1565 -0.0910313 0.594042)
(11.3143 1.03496 1.07655)
(10.5338 0.177162 0.167011)
(11.5502 -0.301999 0.340378)
(10.9868 0.131512 1.98002)
(11.67 -0.514268 0.420065)
(10.3024 0.272877 0.185232)
(12.024 1.26149 1.55142)
(8.40463 1.4023 1.48639)
(11.2081 -0.570139 -0.353731)
(12.2159 -0.900298 0.200863)
(12.1088 -0.816438 0.325245)
(11.4201 -0.711634 1.10778)
(10.0518 0.369478 0.450532)
(10.1311 0.363309 0.642479)
(9.89483 0.446897 0.792032)
(9.76984 0.561046 0.812666)
(10.0946 0.375992 0.763379)
(10.2812 0.315368 0.682786)
(10.2632 0.276665 0.18141)
(11.002 -0.274364 -0.0409772)
(10.924 -0.24747 0.0831747)
(10.8904 -0.359543 0.0224353)
(3.47928 1.48173 -0.484601)
(7.91697 6.64433 1.70904)
(8.37653 2.90774 -0.00391459)
(9.46113 2.75225 2.37797)
(10.6047 1.44547 0.637818)
(11.2164 2.92247 0.781652)
(1.51301 -0.795129 2.04726)
(9.87198 1.63719 0.39479)
(10.6266 0.660783 0.285807)
(10.8621 0.13699 1.33677)
(11.1555 -0.306245 0.0708746)
(10.7136 0.00377547 0.0694819)
(10.4726 0.185117 0.160091)
(11.0823 -0.138662 0.200639)
(11.0726 0.0987039 0.763384)
(11.7244 -0.514135 0.404241)
(11.187 0.0314693 0.681071)
(6.05397 5.75673 -1.90903)
(11.7041 2.06196 2.46611)
(10.2838 2.33565 -0.667541)
(11.2916 0.0232559 1.08641)
(11.1455 0.158101 0.890235)
(11.6027 -0.300182 0.865328)
(10.7113 0.369789 0.38591)
(4.25693 6.55511 -1.80277)
(9.53646 -1.18164 2.5287)
(5.33623 4.55982 -1.80246)
(6.13016 1.94988 -3.14976)
(11.7799 0.114809 1.74383)
(11.5501 -0.706839 -0.212713)
(10.0553 1.63782 4.96958)
(11.5437 -0.587267 -0.118841)
(6.89161 3.0795 1.49161)
(9.98275 3.13464 -0.218111)
(7.76635 -0.469895 0.293597)
(11.366 -0.748566 -0.308162)
(10.6936 2.27484 1.00481)
(9.59578 4.53862 -0.403484)
(11.481 -0.847263 0.920404)
(5.76879 6.93672 -0.0434798)
(5.2672 1.31019 0.20108)
(10.9124 -0.23808 0.147955)
(11.3554 -0.298187 0.0925957)
(12.706 3.1944 1.09937)
(-1.17729 3.78677 -1.92908)
(10.6039 0.910546 1.47574)
(11.2949 -0.160663 0.52258)
(10.5855 -0.200006 1.33671)
(9.74631 0.972226 0.521867)
(11.4076 -0.025723 0.593819)
(11.8261 -0.546649 0.920107)
(8.68472 2.74975 -0.120901)
(10.1556 0.434661 0.680835)
(9.93033 0.782807 1.10068)
(10.2233 0.816026 0.944268)
(3.71628 3.69124 -0.136949)
(5.72771 4.49441 -1.35133)
(10.3369 0.175317 0.104549)
(11.4365 -0.0594288 0.173564)
(11.3187 0.0421101 0.0153615)
(5.11434 6.5324 -0.993737)
(11.2991 0.00940601 0.0773874)
(11.8032 -0.895768 0.181019)
(10.9909 -0.152491 0.256135)
(11.2019 -0.109974 0.0386675)
(10.3761 0.292035 0.14374)
(7.36084 -2.00762 0.431028)
(11.9377 -0.618115 0.57689)
(10.8714 0.121205 0.685784)
(6.28819 -0.509306 1.23871)
(10.0002 -0.573739 1.42003)
(10.6052 -0.389926 1.74775)
(11.5006 -0.228966 0.716231)
(11.1566 2.71265 3.14574)
(10.5219 -0.842556 1.81687)
(3.69319 4.01866 -0.638585)
(11.8401 -0.542338 0.178307)
(12.6585 1.71389 0.807059)
(8.57447 -0.276141 1.03604)
(5.84067 4.45999 -2.73927)
(5.9895 4.60203 -2.95276)
(10.6243 1.07533 3.12015)
(10.8594 2.35139 3.12702)
(11.5028 -0.02226 1.02523)
(4.6301 5.54895 -3.89523)
(7.20003 -0.21301 0.51742)
(6.4637 4.23059 0.354914)
(-0.341348 3.97332 -0.184914)
(3.82246 5.38494 -1.72832)
(11.1327 -0.131716 0.534863)
(11.1833 -0.242927 1.30575)
(10.6507 -0.430278 1.1875)
(11.4537 -0.317501 0.442949)
(6.25247 1.54874 -0.953979)
(10.6783 0.0287989 2.6836)
(11.09 0.757404 1.70329)
(9.3362 -1.57847 1.92971)
(11.3326 -0.688802 1.26988)
(10.489 0.171264 0.180858)
(9.84283 0.517541 1.6772)
(10.9381 -0.110417 0.1978)
(10.2812 0.346566 0.173323)
(3.80951 5.91973 -3.85776)
(10.5803 0.135196 0.927169)
(10.3746 0.271087 0.581634)
(6.90924 2.21672 -1.64897)
(8.78052 6.20183 2.49496)
(9.46398 0.839899 0.788166)
(10.1506 0.283531 0.25315)
(10.3122 0.216587 0.273765)
(10.6441 0.795582 -0.0265383)
(10.6618 0.407863 0.380139)
(10.8113 0.0557792 0.297839)
(7.10241 -1.43783 -0.0527606)
(10.648 0.0972923 0.460541)
(8.52106 5.17986 0.871734)
(8.04358 3.38613 -3.03942)
(5.44605 6.71306 -0.625697)
(10.1912 0.421679 0.270068)
(9.78868 0.307211 1.14051)
(10.2023 0.343916 0.382354)
(10.7884 -0.0519716 0.129326)
(10.4846 0.258041 0.23888)
(10.5522 0.170023 0.317971)
(11.2419 -0.021738 0.631728)
(11.7396 -1.05448 0.853792)
(7.75688 4.98903 -1.97436)
(10.6489 0.91495 0.419133)
(10.3151 2.22959 2.32638)
(10.0802 0.697474 0.23273)
(10.8079 0.434751 0.307529)
(10.4866 0.154615 0.321809)
(6.90502 3.12026 1.86367)
(8.13283 6.2044 2.2607)
(10.2363 0.302221 0.983628)
(6.5553 1.02555 2.62185)
(3.60344 1.50744 0.328234)
(10.8362 0.0327928 0.826246)
(3.33668 4.91824 -3.13847)
(10.4219 -0.166988 1.487)
(3.35668 3.78802 -4.1098)
(10.7033 0.132763 0.838655)
(10.635 1.22139 0.678719)
(10.528 0.210169 0.198434)
(10.371 0.211141 0.403332)
(0.836066 2.52656 -0.599862)
(4.78987 7.03203 0.387835)
(10.4219 0.1875 0.371469)
(9.13093 1.71917 -1.53027)
(7.21831 -0.0496454 0.449137)
(9.98741 0.897916 1.88821)
(9.94019 1.20062 -0.502507)
(10.0293 1.08132 -0.605317)
(6.92827 1.86263 -0.374142)
(9.16992 1.50252 -0.909728)
(4.68494 3.58686 -0.501077)
(10.1108 0.658939 0.0276828)
(10.7666 1.61335 0.453819)
(8.19513 -0.929576 0.325958)
(2.70937 0.933488 0.588912)
(10.1261 -0.717731 4.43078)
(10.1873 0.161982 0.97505)
(8.01145 3.84891 2.29547)
(5.81846 3.27203 0.22578)
(11.3965 -0.0984298 1.7669)
(8.71932 0.131534 0.316838)
(8.26069 -0.372906 0.67263)
(8.26246 1.38783 0.579167)
(7.42559 0.0301703 0.23736)
(9.4874 1.41379 1.13244)
(8.99651 1.727 0.297807)
(8.15619 4.93363 3.3256)
(9.03511 4.39002 4.05298)
(11.3747 -0.399426 -0.0180908)
(8.54466 4.72825 3.43892)
(12.0283 -0.729016 -0.218652)
(11.6151 -0.766362 0.501465)
(2.41798 3.72548 -1.68683)
(10.8687 0.050708 0.408715)
(11.5039 2.20545 2.25123)
(11.4971 -0.479533 -0.0302311)
(11.5334 -0.588538 -0.161202)
(11.9638 1.73677 2.51795)
(8.80087 5.02569 6.00088)
(10.5317 4.15311 3.25467)
(9.29055 4.06818 6.35236)
(10.7678 3.22819 2.02575)
(11.4974 -0.453445 0.0936025)
(11.7162 -0.413933 0.646928)
(7.30682 -1.21419 0.439806)
(10.9316 0.0509851 0.771675)
(10.8801 0.0937456 0.821315)
(11.1852 -0.0062871 0.885398)
(11.0512 0.0174647 0.831158)
(11.4245 -0.135594 0.912598)
(11.3051 0.0263773 0.86102)
(11.687 -0.101164 0.804893)
(12.949 2.79198 1.1672)
(11.6754 -0.136178 1.10856)
(12.0297 -0.155288 0.63149)
(11.1837 -0.13458 0.439415)
(9.80758 0.406843 0.840887)
(11.1124 0.0877931 0.875974)
(11.8178 -0.0677278 0.328441)
(9.36221 0.848853 5.22191)
(9.78622 0.32893 1.15281)
(10.9838 -0.045696 0.0741697)
(11.4333 2.42671 3.31223)
(11.6163 2.2878 3.01115)
(3.62089 7.15535 0.0718691)
(0.248041 5.75736 -1.19834)
(10.0838 0.278935 0.258521)
(11.1924 -0.11925 1.21449)
(-0.418966 4.63076 -1.21875)
(11.7868 0.0151477 0.933522)
(9.24881 -0.449205 1.3535)
(10.5368 0.227712 0.319289)
(11.0242 -0.0844594 0.13354)
(5.08018 5.87219 -2.48899)
(2.08627 3.85356 -1.60918)
(9.48283 0.144265 0.890162)
(8.81023 -0.108262 1.04138)
(0.930785 5.35387 -0.0642433)
(8.59235 2.10182 -0.807141)
(8.06301 3.47145 1.04178)
(3.87718 4.08555 -1.24735)
(10.3537 0.393844 0.524862)
(3.67868 4.76437 -2.60794)
(0.987048 4.36949 -0.027288)
(7.65486 -0.412045 0.567028)
(10.5853 -0.818056 2.84018)
(11.3737 -0.476689 -0.111071)
(11.4169 -0.584555 0.62693)
(11.9487 -0.586513 0.6924)
(7.69398 0.0406488 0.506802)
(6.31379 7.17518 0.667236)
(6.54791 7.26246 0.961263)
(7.39039 -1.47344 0.405687)
(11.1241 -0.113669 0.443951)
(11.508 -0.100927 0.614844)
(11.6275 -0.476543 0.442939)
(4.74715 3.1107 0.0430618)
(5.03891 3.06766 0.352155)
(3.54043 6.79152 -0.894024)
(11.467 -1.32215 0.482893)
(9.66855 1.44037 1.41894)
(9.36709 -1.29677 3.58655)
(10.99 -0.278482 1.14802)
(10.2108 3.5513 2.66062)
(10.1988 0.3524 0.146803)
(10.301 0.877325 1.34832)
(10.2913 0.406801 0.323976)
(11.6932 1.30935 0.753819)
(10.4382 0.25762 0.219212)
(11.4859 0.0718847 0.63713)
(10.6056 0.204407 0.328497)
(10.4134 0.525824 0.222159)
(11.0145 2.9792 3.65666)
(12.3476 -0.834318 -0.242882)
(4.15007 6.5943 -1.49413)
(7.42848 -0.1409 0.322991)
(11.4414 2.19259 2.85182)
(11.5317 1.26999 0.386311)
(11.0616 -0.0902322 0.565126)
(12.0298 -0.671039 0.420513)
(10.1019 4.07553 1.04373)
(10.5827 0.330622 0.630013)
(10.7639 0.0603021 0.183642)
(10.5813 -0.718549 3.31206)
(9.36856 -0.37823 1.04473)
(11.8685 -0.671742 0.0520813)
(10.6989 0.389218 0.577082)
(11.0861 0.0898123 0.926625)
(9.10575 6.5615 2.76512)
(6.55766 6.73667 1.20047)
(3.32278 3.58111 0.846257)
(11.6 -0.439666 0.55576)
(5.76115 4.85692 1.58569)
(11.1738 -0.356271 0.0215194)
(10.5248 0.221389 0.245254)
(11.6944 -0.661483 -0.0451982)
(9.72157 -0.0544887 0.952716)
(5.51038 0.57113 0.552156)
(9.81802 0.457258 0.892222)
(10.1571 0.512883 0.574693)
(10.3907 0.381844 0.569217)
(10.334 -0.791417 1.72327)
(7.07512 -0.471961 0.2243)
(11.454 1.42217 0.746897)
(10.9696 0.989196 0.472423)
(11.8421 1.18138 1.47683)
(11.8739 -0.794219 0.15423)
(10.6938 0.247861 0.665113)
(10.4696 -0.14259 2.32125)
(10.5459 0.470056 2.88795)
(10.5498 -0.0167706 2.09475)
(6.57823 3.182 -0.609993)
(7.7337 3.73081 1.74139)
(12.2242 -0.651577 0.797004)
(11.2259 2.17224 2.0629)
(10.8699 1.14498 3.05977)
(9.21627 -0.0848684 4.48976)
(9.96838 2.9182 0.462404)
(9.947 0.937111 -0.060274)
(10.7562 0.583674 0.830725)
(10.653 0.54917 0.728563)
(11.213 1.40707 1.83344)
(10.8723 2.37946 -0.312992)
(9.85516 4.81513 2.4369)
(5.71114 7.04905 0.351656)
(10.2572 0.456098 0.162221)
(11.0366 1.19628 0.688598)
(9.53068 0.931454 -0.179434)
(9.85683 0.911335 -0.387287)
(9.95803 0.57404 0.387281)
(8.04196 1.98286 0.395554)
(10.2002 0.28889 0.26891)
(10.7916 0.147328 1.15832)
(10.3947 0.122521 0.0702286)
(10.4493 0.612249 0.864323)
(10.1567 0.109058 0.0683433)
(10.8625 0.0243129 0.614655)
(10.7651 0.0693255 0.598989)
(9.93509 0.496537 0.299408)
(11.3377 1.09173 0.713494)
(10.2201 0.360687 0.347222)
(10.5473 0.572807 0.970655)
(10.532 0.25378 0.411776)
(10.081 -0.473962 1.52357)
(10.0278 2.98572 2.05937)
(10.6198 -0.11185 1.94137)
(11.8516 3.2568 1.28755)
(3.92989 6.62022 -0.90436)
(9.76372 -0.301303 1.59181)
(10.4637 -0.14034 1.57596)
(10.0112 -0.0714061 1.18123)
(11.3648 -0.442642 -0.035745)
(4.30121 1.28721 0.420109)
(10.3223 0.185438 0.961517)
(9.87825 0.108786 1.27566)
(-0.451 -1.37384 -0.314603)
(6.37318 4.20308 0.556129)
(10.5915 0.312679 0.725504)
(11.5951 -0.181453 0.492089)
(10.2961 0.352123 0.201926)
(11.7728 2.7126 0.688396)
(10.6792 0.140134 0.753356)
(11.1224 -0.0780096 0.891986)
(11.074 -0.0662161 0.485632)
(10.358 0.477973 0.0187286)
(10.3293 1.61609 0.639968)
(6.7907 3.9225 -0.761148)
(6.89436 5.47298 1.92705)
(10.5366 0.111336 0.0701456)
(10.6336 0.345942 0.625333)
(10.6393 1.32344 2.00964)
(11.2201 4.24484 1.37411)
(10.7135 0.0787462 0.523188)
(11.2687 -0.435268 -0.204553)
(11.0689 0.183689 1.30858)
(11.3439 -0.26507 0.387177)
(5.65768 2.24373 -0.488796)
(11.6707 0.0906306 1.04978)
(4.37483 4.7892 -3.6186)
(9.44413 6.67788 3.50931)
(11.0624 0.652857 0.61283)
(10.7944 0.0541257 0.297162)
(9.83372 0.992249 1.13979)
(11.5831 0.836852 1.03629)
(10.138 0.678695 0.359318)
(10.8486 0.210366 0.498259)
(10.7285 0.101764 2.10476)
(10.6004 0.824288 2.14985)
(11.1105 0.0791165 0.920566)
(11.9315 -0.568348 0.859822)
(4.6693 3.20228 -0.99356)
(10.8527 0.0296895 0.601102)
(6.66093 6.98031 0.459471)
(10.5562 0.0890187 0.110075)
(10.682 0.0465252 0.123051)
(11.7506 -0.272352 0.679062)
(10.7956 -0.134062 1.10772)
(10.6109 0.105978 0.292035)
(8.53234 1.39496 -1.65267)
(9.74331 1.7695 0.477168)
(10.4672 1.90873 0.643963)
(10.4836 -0.283724 2.20924)
(10.8607 4.01157 1.36313)
(9.5025 -1.0344 3.64161)
(5.62127 2.484 0.110844)
(10.7057 0.0586924 2.36554)
(11.1564 0.705752 1.5939)
(11.4645 2.32775 0.353865)
(9.22215 -1.66216 2.32744)
(9.512 5.4711 5.49078)