/*--------------------------------*- C++ -*----------------------------------*\
| =========                 |                                                 |
| \\      /  F ield         | OpenFOAM: The Open Source CFD Toolbox           |
|  \\    /   O peration     | Version:  2506                                  |
|   \\  /    A nd           | Website:  www.openfoam.com                      |
|    \\/     M anipulation  |                                                 |
\*---------------------------------------------------------------------------*/
FoamFile
{
    version     2.0;
    format      ascii;
    arch        "LSB;label=32;scalar=64";
    class       volScalarField;
    location    "0.0321319";
    object      k;
}
// * * * * * * * * * * * * * * * * * * * * * * * * * * * * * * * * * * * * * //

dimensions      [0 2 -2 0 0 0 0];

internalField   nonuniform List<scalar> 
3991
(
0.470439
0.502681
0.35475
0.349127
0.505116
0.366296
0.863685
0.83049
0.427355
0.384314
0.398217
0.366672
0.364715
0.373176
0.746947
0.37045
0.383801
0.383376
0.438243
0.882256
0.452169
0.851147
0.488379
0.487681
0.419889
0.515586
0.553177
0.446235
0.365963
0.356876
0.65075
0.403493
1.21254
0.379223
0.460432
0.511791
1.03365
0.869702
0.349181
0.39381
1.07817
0.388235
0.402106
0.378424
0.354747
0.946075
0.839237
0.350313
0.406207
0.537652
0.445765
1.05024
0.915211
0.491749
0.46946
0.379187
0.361096
0.361365
0.377567
0.345145
0.522526
0.554852
0.451876
0.442368
0.434194
0.404641
0.383421
0.440199
0.923625
0.413826
0.426045
0.379483
0.768033
0.361826
0.492892
0.433198
0.756621
0.419497
0.372969
0.70561
0.371848
0.391709
0.723977
0.375246
0.512769
0.566741
0.343905
0.345778
0.672114
0.369546
0.404768
0.397675
0.424482
0.641786
0.433049
0.524508
0.581016
0.467775
0.61776
0.37443
0.356399
0.372304
0.802997
0.352899
0.346509
0.712583
0.396656
0.975683
0.828998
0.567117
1.08404
0.423961
0.758609
0.371025
0.347729
1.12047
1.14246
0.740351
0.361306
0.403393
0.854728
0.50847
0.387803
0.397776
0.662897
0.410986
0.396596
0.352261
0.552097
0.598371
0.394984
0.437064
0.384085
0.363907
0.398674
0.365399
0.367927
0.355332
0.410593
0.485209
0.408335
0.512947
0.700567
0.516612
0.378045
0.416419
0.421193
0.559294
0.614357
0.480915
0.45075
0.785883
0.804208
0.896551
0.731725
0.633846
0.514338
0.805675
0.794205
0.53567
0.417135
0.530655
0.378242
0.589781
0.825083
0.554669
0.392289
0.566029
0.608996
0.369533
0.463088
0.43941
0.878259
0.784666
0.786634
0.856769
0.613258
0.357249
0.362039
0.570648
0.441887
0.421521
0.483622
0.679431
0.354459
0.367476
0.376168
0.378265
0.377735
1.05138
0.700807
0.386481
0.887665
0.665683
0.477384
1.0183
0.436916
0.357468
1.17451
0.390406
0.338644
0.490445
0.499314
0.384709
0.400854
0.476253
0.456649
0.597861
0.392143
0.487567
0.684399
0.390462
0.436709
0.687261
0.378931
0.439726
0.383921
0.762638
0.864848
0.774703
0.413663
0.740148
0.42597
0.733207
0.443462
0.520768
0.579737
0.362017
0.36456
0.597809
0.429228
0.406381
0.623645
0.685448
0.366275
0.541689
0.383761
0.368341
0.382418
0.819462
0.648437
0.566184
1.24204
0.461866
1.05893
0.386475
0.368213
0.380719
0.424597
0.473446
0.342774
0.376596
0.419825
0.353904
0.342407
0.38211
0.452178
0.596652
0.417742
0.571699
0.895045
0.68023
1.21039
0.671093
0.345122
1.22672
1.03797
0.39687
0.597554
0.511099
1.10005
0.506706
0.401255
0.633646
0.95523
0.461143
0.344119
0.451086
0.36547
0.398815
0.466403
0.613796
0.387193
0.938618
0.392178
0.620091
0.365368
0.744538
0.982876
0.406262
0.709302
0.765616
0.379578
0.627207
0.377594
0.371797
0.395035
0.371564
0.386828
0.374275
0.346337
0.351068
0.452868
0.37402
0.500267
0.565468
0.369199
0.968928
0.417408
0.510098
0.351795
0.366414
0.362281
0.35483
0.582006
0.494963
0.790546
0.342876
0.460092
0.373432
0.412162
0.388256
0.369753
0.397808
0.438171
0.501601
0.382983
0.417103
0.520137
0.809221
1.25152
0.720757
0.408979
0.402958
0.666501
0.354697
0.578472
0.38474
0.491326
0.402305
0.579635
0.376916
0.456742
0.435184
0.355152
0.398027
0.414271
0.550524
0.54157
0.332481
0.480559
0.36604
0.369126
0.798583
0.504379
0.707996
0.418649
0.367879
0.856184
0.61007
0.51155
0.438106
0.404442
0.667675
0.407879
0.414434
0.420975
0.422893
0.357702
0.563655
0.506669
0.406244
0.609853
0.927747
0.371055
0.51069
0.481498
0.421653
0.477469
0.402122
0.985085
0.612915
0.652996
0.371135
0.406245
0.39754
0.567716
0.95427
1.21068
0.513641
0.546815
1.03472
0.529703
0.419921
0.357347
0.726397
0.37248
0.355166
1.21181
1.16059
0.371705
0.622024
1.17382
0.572944
0.797067
0.34874
0.87281
0.861806
0.985939
0.38798
0.425541
0.869657
0.733922
0.895383
0.366583
0.38105
0.370866
0.79412
0.366709
0.349914
0.350252
0.870851
0.366722
0.369838
0.355754
0.51477
0.500725
0.970193
0.924494
0.373071
1.0424
0.55217
0.677706
0.378907
0.366224
0.359341
0.348521
0.376952
0.524687
0.594784
0.561206
0.553332
0.606223
0.579405
0.357468
0.387994
0.373621
0.432449
0.553153
0.42093
0.537173
0.549368
0.724448
0.429124
0.430738
0.456567
0.466391
0.402635
0.42857
0.414307
0.439079
0.412765
0.442367
0.49225
0.491527
0.454492
0.509576
0.429434
0.43349
0.584731
0.619414
0.464832
0.4496
0.42623
0.459655
0.432087
0.396456
0.400854
0.408685
0.406029
0.421054
1.04248
1.11803
0.754287
0.823084
0.770406
0.654732
0.518363
0.76832
0.488177
0.440744
0.371729
0.435565
0.65533
0.768869
0.526461
0.643214
0.683741
0.389542
0.395193
0.369208
0.377373
0.343227
0.3807
0.356232
0.357767
0.349054
0.352007
0.361035
0.341034
0.350803
0.358717
0.348931
0.35341
0.357673
0.353261
0.348297
0.398249
0.399817
0.410993
0.39131
0.430771
0.391874
0.384842
0.389831
0.444577
0.452816
0.403758
0.423378
0.435077
0.45734
0.416992
0.402199
0.405866
0.634546
0.488394
0.653006
0.537355
0.553478
0.588455
0.653525
1.04094
0.885457
0.699857
0.718132
0.541935
0.376777
0.740985
0.591976
0.546959
0.572875
0.343357
0.345744
0.368532
0.374929
0.394837
0.383401
0.375199
0.384755
0.377102
0.393273
0.553081
0.550477
0.552998
0.607316
0.533044
0.609513
0.656339
0.426051
0.717893
0.409807
0.985631
0.664091
0.786504
0.621364
1.0923
0.443549
0.459348
0.389153
0.453388
0.647659
1.25421
0.948052
0.804347
1.22493
0.49468
0.497114
0.937225
0.796376
0.684783
0.389389
0.604425
0.544762
0.614726
0.509745
0.794543
0.36329
0.50766
0.772945
0.385876
1.09808
0.772431
0.397214
0.657543
0.589364
0.363025
0.468732
0.588201
0.473289
0.62205
0.672724
0.381981
0.396988
0.377992
0.533383
1.18572
0.960686
1.1033
0.388491
0.384237
0.396807
0.343561
0.363706
0.360464
0.366068
0.645689
0.380513
0.439542
0.380471
0.389311
0.37119
0.386895
0.422429
0.373719
0.345178
0.529213
0.723532
0.761076
0.619231
0.374093
0.394183
0.375716
0.53032
0.864395
0.80761
1.00302
0.519343
0.393143
0.347096
0.648796
1.18239
0.388361
0.4377
0.545708
0.658359
0.579865
0.369092
0.530405
0.385908
0.393935
0.396757
0.471168
0.449062
0.486327
0.342465
0.739725
0.385692
0.38222
0.538497
0.893095
0.517302
0.510305
0.531381
0.349158
0.523696
0.340485
0.369128
0.383844
1.28119
0.462196
0.709975
0.850855
1.2291
0.453499
0.359767
1.238
0.612154
0.980485
0.981993
0.764209
0.837401
0.384938
0.923629
0.369238
0.348065
0.629062
0.440533
0.485103
0.366881
0.37175
0.447135
0.35232
0.396423
0.356283
0.933144
0.844464
0.773266
0.80671
0.486415
0.373753
0.864951
0.366716
0.951717
0.361418
0.391054
0.439478
0.368683
0.608206
0.592151
0.525217
0.523569
0.3698
1.10417
0.530271
0.541281
0.586981
0.583773
0.43622
1.20353
0.499196
1.11491
1.2508
1.05226
0.966227
1.23185
0.971048
0.774037
0.859958
1.31841
1.05044
0.856118
0.429077
0.648467
0.594781
0.83184
0.680901
0.410852
0.658758
0.524713
0.643335
0.551003
0.711064
0.445733
0.487146
0.518719
0.449316
0.848548
0.477527
0.540313
0.452755
0.479741
0.431281
0.457472
0.398329
0.419945
0.466506
0.859689
0.745529
1.14216
0.603849
0.871284
0.461362
0.469402
0.513705
1.26906
0.341782
0.350394
0.344208
0.344128
0.410442
0.372626
0.360284
0.363843
0.371008
0.362886
0.363869
0.365953
0.358368
0.349809
0.34986
0.369145
0.364612
0.428286
0.368938
0.369032
0.404991
0.376241
0.381821
0.339546
0.566979
0.852147
0.978207
0.696207
0.626483
0.777518
0.535005
0.541555
0.574681
0.654245
0.620505
0.412725
0.390007
0.4109
0.403011
0.37952
0.394223
0.41225
0.383749
0.380645
0.388844
0.708652
0.694626
0.586359
0.656044
0.624546
0.491856
0.369709
0.389702
0.408
0.418889
0.441217
0.408884
0.399002
0.504955
0.542968
0.399827
0.406547
0.401447
0.413817
0.414168
0.387184
0.491999
0.597905
0.612213
0.570595
0.361793
0.464035
0.371582
0.361463
0.586418
0.493084
0.707495
0.414536
0.479884
0.865377
0.397912
0.741705
1.28917
1.18417
0.364097
1.20434
0.608962
0.692217
0.42113
0.485051
0.450723
0.595486
0.339762
0.373774
0.495335
0.493733
0.418793
0.393185
0.617591
0.406559
0.41505
0.650468
0.500066
0.48448
0.410933
1.24241
1.15932
0.489685
0.519077
0.607231
0.625464
0.82184
0.58452
0.429927
0.797083
0.803926
0.389663
0.546218
0.549988
0.660795
0.808626
0.802653
0.807201
1.2359
1.1888
0.417128
0.391983
0.52646
0.378636
0.828284
0.803917
1.46334
0.404096
0.656395
0.38557
0.414764
0.44277
0.350955
1.23315
0.402426
0.383562
0.500237
0.909072
0.352812
0.656837
0.402247
0.483138
0.449886
0.389448
0.519672
0.399343
0.450893
0.400316
0.893266
0.354503
0.346076
0.382353
0.344724
0.374273
0.862101
0.341645
0.76606
0.866967
0.565908
0.692035
0.728652
0.382575
0.517594
0.967764
0.816925
0.375271
0.440026
0.547068
0.48936
1.06952
0.805646
0.544354
0.553256
0.651255
0.541203
0.454846
0.354296
1.09587
0.478235
0.390882
1.10124
0.457615
0.467685
0.396896
0.456872
0.408582
0.350995
0.380484
0.413085
0.506914
0.849167
1.04103
0.371099
0.4154
0.366603
0.512099
0.512118
0.731402
0.735038
0.376518
0.807007
0.509724
0.481443
0.38761
0.376976
0.377059
0.363803
0.343257
0.34242
0.53955
0.364897
0.37173
0.369074
0.349873
0.423152
0.431488
0.495233
0.37897
0.384105
0.381583
0.352088
0.456089
0.451534
0.381812
0.372449
0.51569
0.458744
0.458095
0.380721
0.350192
0.355407
0.338985
0.351033
0.490204
0.432604
0.407778
0.617944
0.820532
0.370019
0.348572
0.345561
0.423261
0.389709
0.398984
0.380084
0.391803
0.356042
0.429396
0.981662
0.753255
0.691786
0.659484
0.408779
0.385697
0.3693
0.423936
0.405449
0.427311
0.556025
0.44916
0.384716
0.799323
0.39074
1.02487
0.448607
0.50815
0.423335
0.62874
0.465249
0.455049
0.764556
0.470976
0.605012
0.438365
0.427614
0.379143
0.631795
0.434509
0.453067
0.506608
0.410503
1.02042
0.776091
0.487971
0.59661
0.397495
0.359783
0.359541
0.443688
0.364546
0.362858
0.367701
0.358338
0.360028
0.486249
0.466371
0.415354
0.604385
0.421845
0.645864
0.516356
1.02136
1.07564
0.973622
0.908739
1.07167
0.643755
0.541044
0.825471
0.644936
0.572791
0.416743
0.858427
0.794673
0.508012
0.552872
0.494953
0.513914
0.832331
0.351221
0.351998
0.373745
0.418718
0.734114
0.442431
1.1678
0.835093
0.368085
1.04265
0.411056
0.657136
0.562143
0.459866
1.18799
0.605571
0.387172
1.12971
0.464053
1.12301
0.855142
0.974653
0.998865
1.18742
0.890062
0.975001
1.06105
1.21537
0.345892
0.373217
0.345406
0.35321
0.337444
0.409302
0.37108
0.34045
0.508368
0.357368
0.40466
0.355347
0.393
0.344172
0.7364
0.406855
0.588561
0.410529
1.09227
1.05604
0.858733
0.529209
0.568492
0.680837
0.782333
1.08919
1.00594
0.79465
0.802791
0.517158
0.531394
0.767297
0.689242
0.624013
0.601462
0.84001
0.653488
0.543344
0.364484
0.355558
0.356872
0.35214
0.349461
0.372596
0.374764
0.371938
0.846376
0.840197
1.10382
0.97254
1.08853
0.525495
0.776096
0.790181
0.703532
0.688916
0.564819
0.569078
0.523349
0.598268
0.556521
0.74087
0.624612
0.450463
0.476808
0.791819
0.640336
0.439361
0.695371
0.668784
0.813883
0.838362
0.532819
0.985351
0.755873
0.379304
0.356755
0.431903
0.443658
0.41448
1.09908
0.556726
0.905554
0.577485
0.773798
0.613404
0.413692
0.438139
0.461775
0.435371
0.419229
0.348882
0.4451
0.427812
0.533332
0.540922
0.533351
0.405592
0.405104
1.19585
0.397049
0.424574
0.440673
0.466836
0.451552
0.883565
0.809842
0.403961
0.771899
0.376387
0.780407
0.732815
0.759637
0.80466
0.854385
0.761935
0.488024
0.363763
0.552853
0.428559
0.408696
0.424153
0.449595
0.421763
0.420985
0.834032
0.653059
0.555275
0.534557
0.654937
0.666167
0.880348
0.824228
0.363036
0.362053
0.354665
0.76042
0.357002
0.356524
0.418905
0.389093
0.383004
0.351997
0.379802
0.342092
0.364388
0.392332
0.364685
0.382059
0.377726
0.402735
0.51498
0.446495
0.360888
0.348035
0.400929
0.632334
0.81573
0.59265
0.549769
0.581019
0.659957
0.34648
0.38039
0.353065
0.506139
0.389998
0.356685
0.390057
0.416459
0.453361
0.538895
0.352787
0.360872
0.947408
0.415568
0.404483
1.02061
0.456361
0.368196
0.496812
0.359248
0.489563
0.49986
0.433386
0.385441
0.376915
0.534486
0.526792
0.362761
0.385765
0.459172
0.366188
0.403772
0.564171
0.428153
0.353386
0.345836
0.387677
0.379649
0.364816
0.481606
0.381986
0.370734
0.359353
0.403491
0.690146
0.499587
0.529632
0.436896
0.817764
0.635587
0.377718
0.736801
0.414813
0.385363
0.43557
0.743384
0.373841
0.759583
0.466786
0.356056
0.352599
0.378193
0.333618
0.350041
0.480679
0.366516
0.35077
0.375964
0.389851
0.415215
0.488198
0.461364
0.675886
0.469156
0.40641
0.879314
0.378019
0.429058
0.700071
0.48802
0.409876
0.875965
0.464582
0.702438
0.897309
0.366053
0.584417
0.870701
0.373423
0.385849
0.397103
0.365692
0.378245
0.414746
0.400743
0.86903
0.998367
0.666888
1.27412
0.367538
0.388745
0.373607
0.349633
0.372288
0.360253
0.416766
0.803948
0.465599
0.361752
0.400209
0.34711
0.36112
0.434824
0.777675
0.659152
0.823148
0.494764
0.477253
0.435585
0.43463
0.474225
0.350142
0.366541
0.409993
0.399811
0.400548
0.385354
0.415229
0.350521
0.602944
0.945966
0.521287
0.361517
0.376724
0.413373
0.553576
0.490331
0.522371
0.468202
0.512072
0.395254
0.399357
0.421843
0.717143
0.619592
0.554697
0.434304
0.593858
0.808362
0.691166
0.65187
0.499285
0.568594
0.992323
0.401896
0.428579
0.557477
0.621785
0.391015
0.453942
0.343278
0.559462
0.388488
0.426952
0.35117
0.403329
0.379318
0.399158
0.39924
0.41574
0.379531
0.345155
0.361582
0.382077
0.364469
0.705106
0.579677
0.71994
0.560839
0.824704
0.8319
0.875727
0.369066
0.58825
0.89733
0.936066
0.820861
0.67692
0.42123
0.583642
0.434077
0.467232
0.373739
0.366453
0.353464
0.945978
0.643293
0.992272
0.497376
0.847736
0.613792
0.979898
0.856134
0.740408
0.757706
0.480604
0.443315
0.450325
0.398701
0.455179
0.62864
0.864003
0.411431
0.493101
1.07912
0.366149
0.450279
0.462208
0.340295
0.54711
0.809273
0.44688
0.782714
1.54549
0.36837
0.345237
0.383567
0.34288
0.46767
0.402987
0.48776
0.495081
0.348926
0.517053
0.470061
0.555768
0.579575
0.720148
0.346792
0.600862
0.749365
0.758115
0.41182
0.417086
0.528281
0.386507
0.399866
0.373317
0.460088
0.523409
0.595368
0.811586
0.361954
0.969067
1.19962
1.3101
1.01124
1.12051
0.435803
0.484748
0.462005
0.424814
0.494286
0.477233
0.443061
0.478559
1.34934
1.36931
1.10188
0.901392
0.952726
1.06466
0.923949
0.860998
0.741841
0.964171
0.720755
0.97404
0.918915
0.805451
1.3806
1.16265
1.4765
1.18545
1.40888
0.975648
0.732919
0.613133
0.80161
0.803069
0.434948
0.713039
1.4049
0.712408
0.455717
0.878967
0.421911
0.52826
0.382365
0.347113
0.352348
0.348023
0.519206
0.463702
0.458212
0.536809
0.383529
0.399207
0.336715
0.5669
0.389276
0.84704
0.908585
1.10617
0.457152
0.780305
0.64922
0.962714
0.408428
0.539918
0.947433
0.516332
0.806004
0.400304
0.668094
0.613544
0.467449
0.489696
0.461065
0.409482
0.383432
0.469777
0.596222
0.521643
0.654069
0.60139
0.449352
0.428929
0.46208
0.506007
0.53539
0.457369
0.398792
0.435413
0.433713
0.443259
0.53402
0.801781
0.537199
0.517034
0.932674
0.812773
1.08839
0.459314
0.889475
0.564431
0.520135
1.18403
0.571441
0.536693
0.481534
0.426615
0.411573
0.351523
0.373373
0.480304
0.373972
0.352328
0.350609
0.367182
0.389859
0.386697
0.745885
0.390037
0.410413
1.07754
0.379865
0.425389
0.376789
0.833901
0.440421
0.409868
0.411629
0.471364
0.392652
0.429368
0.911842
0.435745
0.731066
0.365118
0.367054
0.408076
0.528098
0.830005
0.417306
0.483506
0.367792
0.50207
0.811325
0.419053
0.530856
0.878185
0.862359
0.751297
0.498421
0.454592
0.437713
0.995136
0.491203
0.771085
1.00876
0.359716
0.346838
0.390009
0.348168
0.343031
0.943639
0.917564
0.929553
0.4047
0.374288
0.41218
0.368116
0.467139
0.48695
0.430834
0.503198
0.445737
0.545731
0.420465
0.380912
0.587385
0.430567
0.403827
0.365018
0.464458
0.440967
1.06583
1.11782
0.709344
0.527763
1.06547
0.494541
0.537391
0.656847
0.45464
0.8743
0.741295
0.797335
0.8696
0.999225
0.600531
0.573625
0.477224
0.418081
0.431985
0.947999
0.409628
0.732038
1.21938
0.483257
0.681024
1.03438
0.43756
0.372812
0.44593
0.801336
0.437547
0.716792
1.08119
0.693562
0.39499
0.385706
0.399877
0.97192
0.893368
0.487812
0.877432
1.03895
1.47446
1.18009
1.04939
0.624819
0.646584
0.623399
0.845715
0.606823
0.845571
0.927597
0.858503
0.840278
1.01624
0.461969
0.383064
0.368857
0.371258
0.460022
0.603721
0.378595
0.392886
0.551484
0.766929
0.637061
0.519494
0.553048
1.05965
0.570855
0.470779
0.439755
0.35036
0.641287
0.397445
0.439121
0.399957
0.794466
0.437707
0.477306
0.896773
0.602516
0.807264
0.493898
0.665844
1.07406
0.433492
1.25158
0.542042
0.593976
0.397493
0.477945
0.382288
0.707704
0.721485
0.40273
0.593151
0.502499
0.387049
0.498121
0.729365
0.746647
0.612082
0.364344
0.374005
0.354604
0.361221
0.37108
0.593218
0.619456
0.675462
0.829184
0.799328
0.618957
0.404435
0.495955
0.637939
0.395473
0.411822
0.404111
0.902693
0.600132
0.429335
0.920227
0.498819
0.493171
0.604983
0.75753
0.500805
0.419075
0.686473
0.383249
0.420881
0.38519
0.406442
0.383315
0.48626
0.413239
0.445208
0.48805
0.402013
0.487317
0.381243
0.420566
0.537513
0.586998
0.571141
0.574955
0.533885
0.497971
0.452959
0.517818
0.576792
0.622815
0.423136
0.724075
0.90479
0.895063
0.542242
0.533586
0.521476
0.538587
0.491573
0.488297
0.405628
0.420889
0.374885
0.344644
0.388515
0.381836
0.391518
0.440479
0.388079
0.384288
0.392112
0.393958
0.434003
0.490243
0.336589
0.442656
0.835685
0.499457
0.509504
0.507628
0.412328
0.40294
0.436917
0.424271
0.399875
0.374426
0.379655
0.34851
0.353225
0.362074
0.426549
0.406706
0.433522
0.580289
0.669978
0.3956
0.427957
0.457445
0.395672
0.37103
0.392527
1.19715
0.370557
0.382534
0.387163
0.395296
0.435789
0.436296
0.404
0.397609
0.463897
0.422263
0.449355
0.530316
0.44728
0.418802
0.529854
0.374789
0.380677
0.411247
0.437492
0.527996
0.447471
0.518286
0.373384
0.561163
0.410699
0.421933
0.400512
0.421768
0.403944
0.423288
0.401545
0.425046
0.443592
0.489892
0.425549
0.569077
0.462092
0.538479
0.344728
0.354053
0.355337
0.362088
0.352679
0.3501
0.632737
0.967006
0.844885
0.869904
0.774583
0.524666
0.498675
0.337551
0.343477
0.401381
0.342495
0.555946
0.788547
0.468187
0.381199
0.569858
0.4899
0.757428
0.552711
0.694939
0.929392
1.17082
0.805498
0.637376
0.73303
0.664392
0.5469
1.10032
1.34866
1.10592
0.856204
1.08842
0.499907
0.792605
0.401669
0.71632
0.981408
0.441665
0.592025
0.763685
0.992896
0.654928
1.07688
0.627526
0.790528
0.663152
0.681802
0.756599
0.437329
0.505481
0.60642
0.649135
0.74173
0.551838
0.494608
0.984892
1.04853
0.530262
0.66101
0.699486
1.12456
1.26731
0.76984
0.478453
0.870066
0.804192
0.400576
0.818479
1.0064
0.885446
0.923587
0.943471
0.987058
0.361797
0.572554
0.782789
0.626549
0.714182
0.553568
0.348585
0.353567
0.600514
0.704267
0.503985
0.461061
0.43282
0.463284
0.756882
0.568016
0.978745
0.473285
0.770822
0.809354
0.96435
0.727117
0.378134
0.627019
0.383779
0.558338
0.555197
0.426369
0.475306
0.734507
0.394217
0.415551
0.370421
0.67864
0.358375
0.520487
0.536016
0.845528
0.785138
0.353841
0.352175
0.501027
1.14554
1.0088
0.395473
0.355326
0.458178
0.367854
0.409472
0.343222
0.505292
0.523913
0.705036
0.582505
0.750791
0.379178
0.567897
0.773103
0.854543
0.437192
0.648062
0.440795
0.582879
0.795396
0.41078
0.405647
0.410667
0.481208
0.480785
0.447105
0.419007
0.402615
0.3858
0.468623
0.366116
0.421647
0.397391
0.448026
0.456779
0.666065
0.776756
0.442452
0.347945
0.445475
0.360641
0.418331
0.446919
0.402845
0.448601
0.965524
0.49582
0.392936
0.376938
0.39836
0.422206
0.378202
0.362693
0.35212
0.556252
0.368301
0.44196
0.379404
0.636086
0.886443
0.386407
0.494977
1.07336
1.19367
0.761489
0.668958
0.429319
0.388315
0.426423
0.370181
0.414367
0.7809
0.975581
0.72301
0.419875
0.37098
0.391032
0.513391
0.435351
0.394729
0.453116
0.604589
0.652057
0.646087
0.852652
0.463571
0.856166
0.37193
0.429363
0.696277
0.428847
0.421311
0.741292
0.723045
0.736372
0.664338
0.548436
0.487169
0.345662
0.366113
0.344435
0.392367
0.407645
0.775622
0.387155
0.369677
0.45412
0.441567
1.12219
1.05094
0.368185
0.482951
0.679421
0.642306
0.434519
0.393083
0.500378
0.510835
0.579916
0.525587
0.697099
0.937607
0.545497
0.379794
0.538475
0.535924
0.616208
0.583543
0.914597
0.749215
0.601232
0.508679
0.441217
0.632138
0.45075
0.910134
0.580653
0.397162
0.374403
0.423067
0.382049
0.56792
0.441326
0.367121
0.810792
0.373869
0.400026
0.379762
0.448368
0.342124
0.470784
0.35089
0.389614
0.382867
0.401117
0.577756
0.54428
0.627477
0.435245
0.414547
0.400498
0.371213
0.430398
0.404342
0.362289
0.384945
0.392799
0.409035
0.41011
0.431699
0.406506
0.391531
1.02447
0.92792
0.782625
0.433312
0.389352
0.865526
0.401409
0.769572
0.761881
0.396265
1.05802
1.07722
0.552588
0.693359
0.566284
0.941941
0.958487
0.418004
0.424815
0.501366
0.402407
0.491858
0.461387
0.884595
0.450207
0.415018
0.438284
0.469787
0.373866
0.498861
0.39517
0.507988
0.38518
0.40633
0.402936
0.492582
0.399913
0.392542
0.993271
0.36668
0.397693
0.743065
0.334952
0.518616
0.588719
0.515622
0.386271
0.405522
0.464003
0.430094
0.457418
0.466257
0.739559
0.423111
0.858818
0.503901
0.593534
0.494431
0.404459
0.405226
0.389906
0.358803
0.352491
0.557844
0.926202
0.360268
0.371067
0.386226
0.421028
0.524199
0.925077
0.489703
0.670451
0.475528
0.504663
0.440121
0.374383
0.400223
0.959476
0.564933
0.769629
0.458136
0.3847
0.437134
0.721111
0.674126
0.454922
0.696832
0.478077
0.619718
0.457281
0.416178
0.748364
0.815989
0.388314
0.67858
0.590522
0.849115
0.438242
0.795122
1.27476
0.662714
0.457107
0.72343
0.987828
0.634305
0.924959
0.44431
0.407352
0.619789
0.347032
0.397062
0.383075
0.534308
0.398595
0.496562
0.360224
0.367503
0.393099
0.383684
0.447409
0.393365
0.371144
0.343977
0.495001
0.363042
0.406375
0.364527
0.368035
0.392922
0.844361
0.596343
0.679178
0.730085
0.461773
0.386617
0.449119
0.859643
0.401607
0.374003
0.397189
0.412483
0.392839
0.528269
0.440884
0.672152
0.404808
0.520613
0.447902
0.373883
0.484986
0.470438
0.689382
1.04739
1.05692
0.97289
0.596205
1.03122
0.529439
0.736079
0.486947
0.628508
0.89762
0.467737
0.894924
0.520847
0.428461
0.456267
0.523807
0.518777
0.414063
0.615798
0.43991
0.469861
0.900385
0.793533
0.626579
0.807986
0.934958
0.987495
0.3509
0.384992
0.400692
0.40143
0.369037
0.377559
0.386178
0.357168
0.371679
0.350121
0.431255
0.48743
0.344201
0.569179
0.412348
0.364902
0.37907
0.466147
0.762695
0.432585
0.367348
0.354379
0.359947
0.354756
0.37068
0.370099
0.389481
0.479562
0.429356
0.424737
0.364766
0.382038
0.356394
0.463586
0.937713
1.16474
0.504639
0.437162
0.383443
0.920981
0.495395
0.892971
0.350866
0.349152
0.380975
0.348278
0.428773
0.360248
0.346375
0.340347
0.458108
0.527512
0.477684
0.388344
0.478837
0.39238
0.355906
0.436714
0.662712
0.498101
0.604912
0.445185
0.56601
0.718
0.833502
0.914286
0.756395
0.826206
0.451681
0.414477
0.423592
0.409326
0.916316
0.564815
0.482053
0.89968
0.737474
0.526648
0.881442
0.372974
0.369349
0.394062
0.396281
0.654636
0.478282
1.27596
1.26329
0.738991
0.880096
0.81946
0.414539
0.450536
0.995854
0.379595
1.02413
0.613033
0.417788
0.877582
0.717347
1.41647
0.590224
0.703632
0.43142
0.454769
0.420726
0.431609
0.427334
0.549018
0.832781
1.0672
0.624293
0.461775
0.386924
1.18005
0.566758
0.465453
0.870481
0.658152
0.385454
0.400079
0.795942
0.953549
0.41735
0.384222
0.425923
0.423774
0.383724
0.641299
0.737927
0.527349
0.415141
0.400838
0.37629
0.36671
0.367501
0.363879
0.380061
0.355917
0.342781
0.386774
0.358912
0.353385
0.543205
0.504726
0.357572
0.381175
0.379329
0.380235
0.379906
0.377244
0.372745
0.367143
0.36167
0.360472
0.385988
0.346515
0.350743
0.37415
0.349472
0.451648
0.603628
0.683114
0.942155
0.355578
0.603731
0.581788
0.637227
0.694037
0.77366
0.712418
0.392678
0.60126
0.92095
1.06114
0.717368
1.06147
0.437595
0.996743
0.884294
0.77638
0.618318
0.491075
0.495247
0.47501
0.893406
0.629563
0.847271
1.01885
0.581206
0.605006
0.907161
0.674665
0.855184
0.618859
0.775464
0.647611
0.385253
0.669007
0.696765
0.712472
0.380176
0.438406
0.378837
0.385541
0.8421
0.620314
0.48021
0.967881
0.945512
1.02679
0.849309
1.04184
0.70108
0.462947
0.443302
0.534588
0.34469
0.41516
0.434878
0.377606
0.342532
0.357018
0.41336
0.822982
0.917225
0.415416
0.390209
0.377826
0.381391
0.485396
0.43083
0.433042
0.695508
0.649471
0.415464
0.729505
0.371264
0.37132
1.25566
0.431669
0.369476
0.685474
0.351853
0.37438
0.368097
0.358605
0.478911
0.772327
0.476066
0.406409
0.435587
0.51554
0.450353
0.422674
0.649567
0.422298
0.347155
0.375674
0.401096
0.440958
0.463291
0.47917
0.483597
0.44497
0.653219
0.375665
0.57281
0.367491
0.341256
0.365099
0.39231
0.394331
0.500254
0.385005
0.42569
0.53248
0.388967
0.441215
0.410583
1.16974
0.641557
0.586669
0.457295
0.475566
0.724515
0.544162
0.599345
0.561529
1.0919
0.389214
0.384856
0.623962
0.681014
0.348475
0.419354
0.370019
0.362151
0.426211
0.409521
0.50831
0.393603
0.399942
0.462408
0.86273
0.385709
0.369107
0.380785
0.384143
0.342872
0.35002
0.374717
0.404196
0.478422
0.627071
0.924532
0.710154
0.979952
0.736664
1.06773
0.483447
0.396293
0.758044
0.488812
0.392167
0.977507
0.369983
0.629374
0.62546
0.367316
0.902307
0.400495
0.411646
0.930789
0.580736
0.50805
0.592001
1.38397
0.930495
0.420259
0.445344
0.719517
0.386513
0.799097
0.422484
0.533232
0.654989
0.580131
0.462338
0.407957
0.753841
0.866053
0.864365
0.390853
0.378668
0.544595
0.394118
0.489656
0.382983
0.420504
0.397557
0.467562
0.457971
0.643453
0.380014
0.416784
0.442697
0.475927
0.422466
0.394253
0.380163
0.47969
0.520207
0.633828
0.516927
0.643871
0.462709
0.374044
1.41706
0.365317
0.362792
0.367371
0.37365
0.382095
0.382453
0.416761
0.420905
0.395946
0.397067
0.44805
0.398705
0.426086
0.49911
0.518527
0.641363
0.516507
0.353061
0.352763
0.354064
0.448961
0.628595
0.518603
0.408743
0.390091
0.39026
0.383124
0.371249
0.370397
0.382583
0.348429
0.347384
0.351936
0.418197
0.375924
0.398678
0.367638
0.374843
0.450576
0.440919
0.432213
0.447743
0.496283
0.504757
0.475006
0.546113
0.545961
0.435282
0.642254
0.611293
0.388326
0.423153
0.571033
0.335699
0.35311
0.681802
0.79828
0.610536
0.382802
0.405509
0.384415
0.412548
0.500258
0.592606
0.856923
0.444422
0.724337
0.498408
0.529079
0.564837
0.777719
0.451734
0.632766
0.437698
0.443913
0.533966
0.480301
0.395894
0.396518
0.406287
0.398517
0.953258
0.665031
0.459446
0.513689
0.992413
0.388298
0.41185
0.390151
0.399577
0.428044
0.404012
0.374285
0.372266
0.387501
0.364055
0.389128
0.343835
0.3681
0.460674
0.51735
0.357121
0.456718
0.438727
0.465288
0.712446
0.381434
0.34266
0.348545
0.745512
0.460776
0.399098
0.500893
0.697709
0.992931
0.706732
0.512361
0.72695
0.510531
0.384503
0.394264
0.417004
0.404093
0.428643
0.533308
0.845305
1.20285
0.91712
0.769336
1.07636
0.758495
0.977562
0.638754
0.377496
0.398805
0.385911
0.378536
0.36404
0.38924
0.410925
0.49291
0.340066
0.42246
0.404582
0.372898
0.340661
0.377058
0.376231
0.377329
0.362571
0.383254
0.588458
0.403329
0.348324
0.527843
0.500449
0.416646
0.572935
0.4637
0.536864
0.38459
0.360214
0.388088
0.45761
0.975687
0.483093
0.393528
0.416051
0.368069
0.402863
0.440476
0.482551
0.349135
0.384166
0.372536
0.348297
0.440022
0.346081
0.493157
0.610122
0.354736
0.649592
0.79624
0.432933
0.868346
1.19202
0.929075
0.788376
0.633225
0.860396
1.07265
0.447403
0.364846
0.354894
0.505283
0.350872
0.438901
0.37257
0.390013
0.472187
0.411827
0.456652
0.357636
0.389142
0.416928
0.431167
0.405725
0.375003
0.366633
0.389886
0.374914
0.356007
0.383195
0.378041
0.389909
0.377053
0.379355
0.401722
0.34522
0.370765
0.362474
0.737509
0.908262
0.569009
0.405882
0.435087
0.745075
0.559726
0.502043
0.845253
0.784125
0.593218
0.468528
0.466024
0.589223
1.15354
0.506303
0.822943
0.491521
0.486115
0.377586
0.434427
0.381298
0.40308
0.506259
0.374573
0.389799
0.391503
0.430896
0.60072
0.462795
0.950574
0.406454
0.526159
0.41787
0.401332
0.472687
0.383349
0.385282
0.391887
0.376792
0.379
0.397959
0.415468
0.491888
0.373803
0.410257
0.785363
0.699063
0.400029
0.453465
0.606996
0.83374
0.413275
0.409189
0.453342
0.431793
0.365986
0.410332
0.561073
0.610719
1.10956
0.847107
1.02396
0.646566
1.20059
0.586599
0.526361
0.438478
0.352897
0.664518
0.443083
0.493456
0.815787
0.881614
0.943636
0.614778
0.477605
0.844718
0.928844
0.68131
0.934526
1.04418
0.980918
1.10884
0.798718
0.578937
0.824519
1.15804
1.03063
0.992943
0.366627
0.374054
0.383135
0.376034
0.380548
0.378181
0.368052
0.441356
0.487699
0.543528
0.70773
0.382093
0.358426
0.369395
0.358601
0.406545
0.404067
0.397771
0.403598
0.391507
0.340139
0.343205
0.368325
0.384572
0.339799
0.667412
0.606213
0.639711
0.650394
0.423348
0.39764
0.387683
0.380036
0.368739
0.371436
0.380879
0.651739
0.488379
0.471115
0.585594
0.621802
0.676118
0.591635
0.58839
0.473572
0.512535
0.428188
0.378671
0.376317
0.379472
0.409057
0.477696
0.543735
0.504482
0.487483
0.628265
0.609668
0.542967
0.565165
0.572535
0.637497
0.607416
0.368904
0.370059
0.982853
0.36862
0.354718
0.369003
1.30827
0.872923
0.823122
0.809757
0.367029
0.353351
0.387039
0.438131
0.392952
0.570962
0.833831
0.829857
0.531199
0.902166
0.84488
0.892976
0.379909
0.492693
0.633895
0.717281
0.5746
0.71316
0.577679
0.509313
0.908536
0.477922
0.553024
0.544343
0.495312
0.508673
0.367755
1.00237
0.976257
0.874876
0.731634
0.958977
0.838119
0.768195
0.625509
0.433001
0.409116
0.390018
0.461874
0.446029
0.406642
0.455905
0.556829
0.384021
0.388923
0.397564
0.399537
0.577926
1.23053
0.625996
0.885909
0.401339
0.414827
0.397275
0.363396
0.588444
0.675189
0.784508
0.675636
0.645582
0.770369
0.768385
0.70016
0.707908
0.623076
0.726938
0.882394
0.703013
0.622868
0.3446
0.660342
0.507647
0.960355
0.877994
0.833839
0.655743
1.00649
0.540035
0.457106
0.357135
0.364836
0.377024
0.479689
0.442083
0.448858