/*--------------------------------*- C++ -*----------------------------------*\
| =========                 |                                                 |
| \\      /  F ield         | OpenFOAM: The Open Source CFD Toolbox           |
|  \\    /   O peration     | Version:  2506                                  |
|   \\  /    A nd           | Website:  www.openfoam.com                      |
|    \\/     M anipulation  |                                                 |
\*---------------------------------------------------------------------------*/
FoamFile
{
    version     2.0;
    format      ascii;
    arch        "LSB;label=32;scalar=64";
    class       volVectorField;
    location    "0.0321319";
    object      U;
}
// * * * * * * * * * * * * * * * * * * * * * * * * * * * * * * * * * * * * * //

dimensions      [0 1 -1 0 0 0 0];

internalField   nonuniform List<vector> 
3972
(
(9.89799 -0.135593 -0.0101786)
(9.1186 -1.09641 0.0933769)
(10.6211 -0.20918 0.106995)
(10.6693 0.0114906 0.0209747)
(1.73721 -4.20178 -5.32901)
(10.4513 -0.341842 0.0648474)
(10.8 0.201253 -0.0588726)
(8.92059 -1.10172 -0.52865)
(9.36272 -0.923728 -0.491593)
(9.27432 -2.91802 -1.02307)
(10.1611 -1.37621 -0.749441)
(8.6862 -1.21477 -0.436829)
(11.5476 0.686497 -0.212354)
(10.232 -0.0960912 0.00279266)
(10.2031 -0.525979 0.197689)
(10.0176 -0.576412 0.0513934)
(10.3922 -0.390571 -0.0285013)
(11.2132 -1.01613 0.0278074)
(10.3608 -0.299092 0.0876388)
(10.5049 -0.330366 0.102139)
(8.29145 -0.57435 0.580643)
(12.5567 -0.32406 0.977871)
(10.2355 -0.0173751 0.0322692)
(10.6229 0.246102 0.0963253)
(12.8854 -5.36182 -1.4899)
(9.4319 -0.865717 0.198492)
(10.2088 -0.416187 0.165102)
(9.98415 -0.242831 0.0689897)
(12.3894 -1.27387 -0.139825)
(9.75978 -0.428025 0.286051)
(11.3275 -2.01752 1.41374)
(8.3784 -5.75738 0.464625)
(10.0099 -0.201245 0.0935669)
(11.8631 -2.19921 -0.465639)
(9.71041 -0.531876 0.281328)
(10.1602 -0.768135 0.295514)
(11.6623 -0.881056 -0.223364)
(10.8415 -0.251931 0.166879)
(9.853 -0.912601 0.61244)
(11.7442 -1.06788 -0.365411)
(11.3546 -0.636759 -0.285755)
(11.1262 0.172733 0.24468)
(9.21203 -1.67369 0.226102)
(12.4374 -0.594697 0.484847)
(10.4298 -0.114261 -0.056728)
(10.1842 -0.386014 0.173364)
(10.0211 -0.0390193 0.0770589)
(12.3582 -1.56982 -0.627643)
(10.6914 0.00549926 0.114478)
(9.64239 -0.97175 -0.366181)
(10.9019 0.129707 -0.0195664)
(10.3078 -1.06728 0.57397)
(11.8878 -0.646245 0.104341)
(10.1273 0.00344668 0.0541289)
(10.7602 -2.21988 0.335029)
(10.4449 -0.208409 -0.106842)
(10.4728 -0.0266415 0.0595816)
(9.63057 -1.19534 0.591497)
(10.0942 0.0612464 -0.0352887)
(12.9067 -1.42852 -0.238835)
(10.1127 -0.0361393 0.01238)
(10.1683 -0.0383968 0.0444107)
(9.92956 -0.198738 -0.00433004)
(10.5569 -0.0173531 0.0824455)
(10.9653 -0.350145 -0.0136222)
(12.2133 -1.38037 -0.401837)
(11.3603 -2.52225 -1.61178)
(9.86536 -0.26434 -0.0095708)
(11.5513 -1.18534 -0.189069)
(12.9372 0.648234 0.636274)
(10.4622 0.0318878 0.0226864)
(11.2498 -1.25952 -0.00544995)
(13.1925 -1.22258 0.310531)
(10.2626 -0.757094 0.322303)
(12.2067 -0.614023 0.119712)
(9.81823 -0.632244 -0.0538621)
(10.4061 -1.61805 -1.036)
(10.5969 -0.074894 0.0163414)
(10.4854 -0.679357 -0.212867)
(11.0199 -2.7334 -1.6911)
(10.4784 -1.82632 -1.18002)
(11.3591 0.0685251 -0.0110886)
(9.84029 -0.552851 -0.0357619)
(10.4496 -0.737443 -0.412103)
(9.49094 -1.5735 -0.172786)
(10.4048 -0.067852 -0.0504414)
(10.3475 -0.0995904 -0.0312061)
(10.1648 -1.68724 -1.1502)
(10.199 -0.107213 0.0272931)
(10.2635 -0.0870683 0.00822156)
(9.84245 -2.23146 -1.27494)
(11.3629 -1.3721 0.00392604)
(9.35371 -3.00451 -1.07115)
(10.0299 -1.45938 -1.19464)
(9.84 -0.864659 -0.455781)
(10.4091 -0.852526 0.336191)
(10.0357 -0.251751 0.0076699)
(11.1402 0.0929181 -0.00177916)
(10.533 -0.203658 -0.112841)
(10.0018 -0.249322 0.0958535)
(9.99842 -0.735773 0.345779)
(10.8099 -0.427634 0.0495877)
(9.96172 -0.873819 0.497919)
(9.91336 -0.77918 -0.374526)
(10.6552 -0.0561466 0.0384829)
(10.0258 -1.08743 -0.243981)
(8.76485 -1.65676 0.308708)
(11.2417 -0.704709 0.220064)
(12.1219 -1.1404 -0.304842)
(11.1399 -0.277328 0.155074)
(9.00685 -2.54829 -0.287938)
(10.5306 -0.504412 0.0213723)
(10.0885 -0.745971 0.0608601)
(9.63527 -3.83713 -1.83651)
(10.3316 -1.41989 -0.810583)
(11.4173 0.0666299 0.0238393)
(9.60976 -0.623476 0.690254)
(10.5915 -0.0178166 0.041707)
(10.6132 -0.00821385 0.0373097)
(10.1434 -2.00971 -0.893362)
(6.49685 -3.1654 -1.28981)
(10.4421 0.00286476 -0.0187877)
(9.98653 -0.340074 -0.0191594)
(10.4343 -0.00907821 -0.0860535)
(10.0496 -0.269057 -0.0945678)
(12.4003 -2.48383 0.207792)
(9.95852 -0.228176 -0.0131652)
(12.5571 -2.72146 -0.582782)
(12.3734 -2.90458 -1.00064)
(11.8488 -3.29383 -1.65722)
(12.755 -2.62086 -0.510958)
(9.01366 -2.34803 -0.229641)
(13.0593 -3.05239 -0.346439)
(12.2174 -4.35132 -1.61918)
(10.1146 -0.0623813 0.0301928)
(10.2031 -0.0783775 -0.00827635)
(10.1568 0.00188046 -0.000106603)
(10.1725 -0.0337535 -0.012881)
(10.1046 0.0781203 -0.0267545)
(10.1422 -0.050934 0.0343886)
(10.7788 -2.08762 -0.959824)
(10.0063 -0.187591 -0.030977)
(8.3614 -1.57844 0.910813)
(10.7706 -2.69573 -1.6366)
(10.6139 -0.0589874 0.0149179)
(10.0498 -0.0238044 0.0639701)
(11.9066 -0.933447 -0.101611)
(10.0242 -0.204658 0.0157991)
(9.96124 -0.299336 -0.0345668)
(10.4661 -2.37027 -0.822751)
(9.96488 -0.220643 0.0813027)
(9.76535 -1.45092 -0.486164)
(9.78043 -0.749364 -0.288178)
(10.341 -0.134317 -0.0520104)
(10.388 -0.0969543 -0.0685036)
(9.88227 -1.10904 -0.530481)
(10.3903 -0.195933 -0.116053)
(11.0305 -1.92115 -1.05624)
(10.8576 -1.72425 -1.02402)
(11.483 -2.16461 -1.75421)
(9.66384 -0.752119 -0.045949)
(9.62325 -0.792287 0.49465)
(11.3493 -0.487914 0.121305)
(11.595 -0.565536 0.104296)
(9.55675 -0.848127 0.609177)
(8.79838 -1.92821 -1.79257)
(11.6441 -0.438445 0.231279)
(12.3549 -0.937043 0.0639292)
(9.41158 -1.47542 -0.538444)
(11.8245 -0.784999 -0.0611091)
(12.2003 -0.971782 -0.0636147)
(10.7289 -0.425623 -0.0409915)
(10.0282 -0.281535 0.0552257)
(9.99534 -0.413758 0.00602895)
(10.6939 -0.481061 -0.0435254)
(10.6286 -0.499619 -0.0590598)
(10.1912 -0.304246 -0.0961992)
(10.028 -0.339702 0.0314658)
(9.95833 -0.470727 0.0405341)
(10.04 -0.321737 0.019779)
(10.0726 -0.0446815 0.0549141)
(10.1016 -0.00796581 0.0546602)
(11.4087 -0.35241 0.216925)
(12.1312 -1.15058 -0.13753)
(9.95143 -0.63294 0.224369)
(10.1209 -0.317083 0.0648294)
(10.1376 -0.264831 0.0542959)
(10.2371 -0.251295 -0.0754187)
(10.1713 -0.324999 0.0856055)
(10.0249 -0.994472 1.62125)
(9.88549 -0.611989 -0.0477335)
(10.0091 -0.520866 0.0601941)
(11.9542 -2.37734 -0.256426)
(10.1035 -0.357296 0.075413)
(10.9337 -0.423538 0.253381)
(9.90814 -0.56858 -0.0250456)
(10.6162 -0.732449 0.00112861)
(10.408 -0.164565 0.0118438)
(12.4204 0.646315 0.505705)
(10.5249 -0.742604 0.417669)
(10.3025 -0.769249 0.50395)
(10.1362 -0.389585 -0.0521614)
(11.6801 -1.04487 -0.209292)
(10.4712 -0.205085 -0.0979116)
(9.84141 -0.323048 -0.000232064)
(10.6095 -0.212576 -0.0803941)
(9.82418 -0.391042 0.204531)
(10.7649 -1.75335 -0.18031)
(12.0691 0.187015 0.422654)
(10.5231 -0.00757326 0.0394286)
(10.4635 0.00721271 0.0389369)
(10.7082 -0.417914 -0.00768841)
(12.8263 -0.1028 1.22844)
(12.7227 -0.378585 0.761032)
(10.5128 -0.666751 -0.120069)
(10.5173 -0.147646 -0.0272681)
(12.4726 -1.11661 -0.0251793)
(11.0082 -0.0134858 0.0464159)
(11.392 -0.959359 -0.528666)
(10.2764 -0.720876 -0.313738)
(10.2594 -0.328277 0.0745541)
(7.66804 -2.20909 0.151803)
(11.3847 -0.829912 -0.1151)
(10.3666 -0.644933 0.333768)
(9.95238 -5.48652 -1.18863)
(10.1325 -0.675534 0.481605)
(9.67663 -9.00087 -2.42393)
(12.6138 -1.3294 -0.204358)
(12.8894 -7.99421 -0.768111)
(11.944 -2.08024 -1.61007)
(9.04031 -12.9303 -1.7489)
(9.9755 -2.35048 0.211879)
(6.44919 -4.0867 -1.54791)
(1.24369 -5.65675 -2.08348)
(10.5778 -1.1764 -0.460427)
(10.9706 -0.542813 -0.0648741)
(11.2805 -0.622425 -0.113456)
(9.80779 -0.77487 0.129342)
(9.10489 -1.96333 -1.78527)
(10.0565 -1.30995 -1.27305)
(9.22194 -1.60401 -0.532659)
(10.9097 -1.79754 0.128744)
(5.80233 -3.40619 -0.7559)
(8.49279 -1.34601 -0.15113)
(11.5024 -1.21 0.290119)
(10.5196 -0.316015 -0.0302103)
(10.0041 -1.34562 0.0579677)
(10.6473 -0.315633 0.0101479)
(11.4012 0.128497 -0.0141133)
(10.7791 -0.555305 -0.0661125)
(10.9505 -0.687912 -0.0194969)
(5.73573 -3.67579 -6.57517)
(10.2797 -2.55549 -1.65817)
(10.4426 -0.0628289 -0.0101209)
(10.7618 -0.211625 0.0807371)
(11.2329 -0.780642 -0.279041)
(6.03509 -3.24949 -2.71707)
(6.51683 -3.2246 -0.296632)
(10.5669 0.254938 0.0736993)
(10.3701 -0.0211954 -0.0117109)
(12.8956 -2.82482 -0.405702)
(10.4209 0.0317107 0.036822)
(10.1706 -0.0411959 -0.0221556)
(10.7372 0.309227 0.120275)
(10.3462 -2.54469 -2.76503)
(11.0185 -1.60846 -0.355885)
(10.6344 -0.32448 0.0822479)
(8.43456 -2.0962 -1.48693)
(8.87159 -2.01192 0.319205)
(10.7846 0.4636 -0.0754794)
(10.1404 -1.80703 0.32614)
(11.9733 -1.58107 -0.590926)
(3.23604 -4.63236 -2.9657)
(12.5632 -2.85034 -0.363326)
(11.4281 -2.08931 -0.884016)
(8.60984 -4.87086 0.202472)
(11.4843 0.435401 -0.228342)
(10.6071 0.00601138 0.0308066)
(10.8038 -0.349549 0.136112)
(9.96674 -0.448335 0.0425778)
(10.2768 -0.26975 -0.0469482)
(13.0673 -2.1158 0.138756)
(10.543 -0.809811 -0.0206398)
(4.649 -5.01222 0.355393)
(3.26705 -1.65883 1.22511)
(6.57846 -6.78685 -3.48628)
(11.0587 -0.0766557 0.127149)
(10.6957 -0.069262 -0.0339395)
(11.1531 0.0919291 0.171904)
(9.97568 -0.253209 0.0685036)
(10.873 -0.312474 0.0928566)
(8.95643 -1.02403 -0.398123)
(10.3054 -1.35135 -1.35991)
(10.669 -0.174291 0.0176111)
(8.94022 -5.50482 -0.871147)
(10.1928 -3.03221 -0.382303)
(11.0932 -0.761479 -0.53878)
(9.6371 -4.69422 -2.13522)
(9.5646 -1.06807 0.549589)
(5.16081 -6.49311 -1.49382)
(10.2741 -0.28022 0.0690875)
(10.4368 -0.825885 -0.561587)
(10.9624 -1.47046 -1.21022)
(11.6232 0.634809 0.188544)
(10.857 -0.148208 0.0429064)
(10.9346 -0.261397 0.0233848)
(8.75694 -2.06826 -0.322396)
(10.6016 -1.68572 -0.531606)
(10.7282 -0.0272591 -0.00291355)
(10.6036 -1.55159 -0.606769)
(10.6644 -1.50941 -0.288136)
(10.581 0.124198 0.018054)
(8.90786 -2.94248 -2.77885)
(10.9643 -0.284932 0.0134292)
(6.90563 -0.37845 -1.66205)
(9.6915 -0.902025 -0.447746)
(11.0843 -0.174969 0.119216)
(10.6138 0.326145 0.0167398)
(11.1469 -0.445447 -0.0481786)
(10.9392 -0.836583 0.0343536)
(12.861 -3.04247 -1.61559)
(2.28239 -6.9813 -2.67013)
(11.6592 -0.824996 -0.0418015)
(9.9495 -0.851464 -0.0230377)
(9.9426 -0.914992 -0.0376265)
(10.6052 0.0360588 0.0231404)
(10.0314 -0.738175 -0.209326)
(9.72007 -0.797821 0.378445)
(10.9109 0.203321 0.0516047)
(10.3927 0.0103049 0.00769294)
(10.6251 0.199373 0.0635728)
(10.8058 -5.0576 -0.200482)
(10.263 -1.58703 -1.38251)
(10.5993 -0.504376 0.12196)
(9.77719 -0.79379 -0.0865122)
(10.2814 -0.0155248 0.00522106)
(10.7742 0.11673 0.0259416)
(11.5073 -1.51445 -0.483487)
(9.65705 -0.586965 -0.225249)
(12.1452 0.379802 0.479008)
(11.0567 -2.68194 -0.369081)
(9.7136 -0.876966 -0.144472)
(10.4497 -2.99279 -2.75525)
(10.6588 0.308244 -0.0113814)
(11.1627 -0.369294 0.0738809)
(9.93651 -0.793473 -0.04547)
(9.33182 -1.05537 -0.714378)
(9.18749 -1.26327 -0.330799)
(10.8972 -0.629566 -0.181289)
(11.6624 -0.719313 -0.0793862)
(11.0118 -0.581786 -0.110756)
(10.579 -0.0148706 0.0982598)
(10.5496 -0.21798 -0.0718439)
(10.5304 -0.220504 -0.0560353)
(3.2186 0.973582 0.3238)
(8.5331 -3.81403 -1.84914)
(2.61039 -5.63022 -3.16592)
(10.5382 -0.234175 -0.0165793)
(9.91816 -1.2522 0.016158)
(9.9341 -1.1609 0.014509)
(9.88474 -0.912396 0.31993)
(10.0947 -0.683502 0.149349)
(10.9585 0.0501087 0.145325)
(12.3661 -1.12339 -0.0612367)
(10.8126 0.122392 0.16437)
(10.7459 0.161186 0.130508)
(10.6376 0.117067 0.0360812)
(10.2921 -0.969942 0.320831)
(10.0198 -0.230445 0.0401221)
(9.91777 -0.559998 -0.062339)
(10.6576 -0.601408 0.173585)
(10.2745 -0.909778 0.190708)
(10.165 -0.299306 0.0597701)
(10.586 -0.792884 0.157147)
(10.967 -0.360172 -0.0100054)
(10.7363 0.207498 0.0253515)
(10.6726 0.238203 -0.000674095)
(10.4505 -0.0201822 -0.0140133)
(10.6505 0.0982101 -0.0551324)
(10.6068 0.0502199 -0.0293661)
(10.7799 -0.329612 0.193818)
(10.9331 -0.374495 -0.0218638)
(10.709 -0.25772 0.16602)
(11.5083 -2.20077 -1.08065)
(10.6492 -0.740869 -0.291507)
(11.309 -2.3809 -1.31049)
(10.2539 -0.986678 -0.0206126)
(8.05531 -2.6587 -0.268639)
(10.7071 -0.00810839 -0.00378262)
(10.876 -1.01861 -0.440952)
(12.7677 -1.02833 0.0256153)
(10.9189 0.266712 0.22572)
(12.6311 -0.534016 0.806182)
(11.0411 0.244844 0.132232)
(12.8706 -1.19481 0.121088)
(11.1089 -0.933828 -0.0279357)
(1.54698 -1.4669 0.84407)
(9.71953 -3.97035 -2.04353)
(9.8058 -0.685832 -0.207297)
(10.2559 -0.453707 0.170279)
(9.33024 -2.40943 -0.949445)
(11.022 -0.608163 0.0519618)
(9.88817 -0.540126 0.0338393)
(11.0837 -0.88647 -0.435089)
(8.35725 -1.82987 -0.433693)
(9.89583 -0.306771 -0.0132476)
(10.8994 0.140408 -0.0500597)
(11.5783 -5.3927 -0.659079)
(11.1136 -0.0513416 0.0696976)
(11.3211 -0.787445 0.0130008)
(9.97046 -0.520491 0.113437)
(12.1025 -1.60399 0.180578)
(11.2871 0.651346 -0.0538285)
(11.2787 0.324305 0.0827077)
(10.1199 -0.0377141 0.0287276)
(1.51785 -7.99557 -1.78109)
(10.3865 -0.543075 0.26563)
(10.9674 0.201351 0.209779)
(10.9722 0.327138 0.138912)
(10.6791 -0.385629 0.214101)
(11.1379 -0.000885585 0.178045)
(10.2423 -0.0252478 -0.0224661)
(9.70323 -1.00059 0.196341)
(10.4161 -0.29791 -0.0315951)
(10.8558 0.00830648 0.119082)
(11.0922 0.000214485 0.174486)
(9.29239 -1.60557 0.571581)
(10.8518 -0.29418 0.136772)
(9.57928 -1.95173 -1.62859)
(10.4088 -0.0254407 -0.0936675)
(10.9918 0.170912 0.224961)
(10.8084 -0.0599797 0.0799701)
(10.007 -0.106098 -0.0100087)
(10.3285 -0.740436 -0.195712)
(10.0977 -0.608933 -0.125078)
(8.90375 -1.54265 0.244236)
(10.6069 -1.1568 0.159599)
(10.6605 0.028162 0.0630697)
(10.1506 -0.240196 0.0305792)
(9.88137 -0.183718 0.0674849)
(10.6923 -0.503697 0.254426)
(10.6456 -0.212736 -0.0128008)
(9.93487 -0.609525 -0.0707036)
(10.7974 -0.624144 -0.179923)
(11.203 -0.0292888 0.0453505)
(11.1195 0.339297 0.0907911)
(9.57814 -1.17188 0.891867)
(10.4227 -0.562077 -0.0694487)
(10.7781 -0.0788434 0.0969927)
(10.0389 -0.589038 0.548711)
(10.4587 -0.853645 0.516083)
(11.3072 -1.82993 0.1295)
(10.4784 -1.94263 0.289101)
(11.2435 -1.63255 -0.00925557)
(11.1702 -0.37171 0.15356)
(10.2818 -0.354532 0.232433)
(6.12468 -7.1621 0.0353525)
(9.41484 -6.20365 -0.615439)
(12.7472 -2.42645 -0.147238)
(11.6682 -0.787523 0.0652456)
(7.8206 -3.77534 -0.853015)
(10.5626 -2.13153 -0.387637)
(10.9673 -0.0141832 0.140443)
(10.255 -1.38993 0.49402)
(11.0358 -1.39841 -0.546399)
(12.0332 -1.57689 0.0590482)
(9.77013 -0.620739 0.219921)
(9.3596 -0.926435 -0.00286197)
(10.4831 -0.299873 0.0417637)
(9.32569 -1.16463 0.375109)
(10.4445 -0.0191965 -0.015642)
(10.4688 -1.32425 -0.0190549)
(9.18443 -1.86812 -0.027831)
(10.4429 -1.57585 -0.621179)
(10.5106 -0.796908 0.122609)
(8.26966 -3.89778 -0.145171)
(12.5352 -0.467601 0.225903)
(1.05757 -5.53789 -0.144783)
(11.5707 -0.353064 0.19999)
(11.5037 -0.463492 0.163306)
(11.937 0.312225 0.437259)
(12.0695 -0.0546242 0.345545)
(12.55 -0.851534 0.369857)
(12.4438 -1.11482 0.115548)
(12.6818 -0.844963 0.333682)
(10.0842 -0.259317 0.00573875)
(10.0903 -0.151491 0.00974165)
(12.5352 -0.676708 0.141091)
(10.0342 -0.175738 0.00284361)
(10.0827 -0.666238 -0.294362)
(10.266 -0.491023 -0.144616)
(10.3663 -0.489766 -0.100471)
(12.8634 -3.67405 -2.08966)
(11.8158 -1.10554 -0.118667)
(12.3355 -1.4466 1.12746)
(10.4553 -2.51638 -0.0391037)
(12.2095 -1.14838 -0.27531)
(10.2467 -0.0795851 -0.00860937)
(10.3696 -0.092564 -0.0368167)
(10.3539 -0.172564 -0.0755441)
(10.2807 -0.167644 -0.0440003)
(12.1617 -1.22649 -0.381598)
(10.691 -0.111955 0.0359404)
(11.4725 -1.0337 -0.422512)
(11.4824 -0.72102 -0.177585)
(9.26838 -2.12884 -1.40362)
(10.3845 -1.05459 -0.0485932)
(10.4612 -0.87014 -0.0839992)
(10.2352 -1.08841 -0.2934)
(10.2882 -1.12988 -0.327529)
(12.6043 -1.63121 -0.00773258)
(10.3228 -0.117892 -0.0347167)
(12.9828 -1.04849 0.174679)
(12.649 0.0518795 1.12222)
(9.46231 -1.44145 0.49936)
(9.71966 -1.09449 0.855122)
(10.1776 -0.677139 0.361854)
(10.9208 0.186889 0.0240335)
(10.5507 -3.88673 -1.80806)
(11.3315 -3.01238 -1.06854)
(10.3334 -3.10853 -0.904883)
(10.4786 -1.54444 -1.47046)
(10.8346 -0.0348086 0.0255993)
(10.8188 -1.4484 -0.972938)
(8.26012 -3.62856 -4.27645)
(10.9881 0.253594 -0.0322875)
(9.52402 -1.45418 0.377663)
(9.89467 -1.9209 -1.73167)
(12.2602 -1.75683 -0.69946)
(10.134 -0.661681 0.224595)
(12.1 -1.47435 -0.519137)
(12.477 -1.57909 -0.444595)
(11.0856 -0.536758 0.107807)
(11.6336 -1.34024 -0.698944)
(11.8133 -1.51406 -1.01343)
(9.3975 -1.56116 0.497978)
(10.5347 -0.817487 -0.495794)
(10.8684 -0.686479 -0.277395)
(10.9419 -0.674552 -0.285484)
(10.8787 -0.595016 -0.205018)
(10.9767 -0.621441 -0.218593)
(9.41285 -1.64725 0.370331)
(9.11305 -1.84426 0.278433)
(10.0728 -0.22251 0.0034887)
(11.0455 -0.306765 0.0568451)
(10.9993 -0.382992 0.0629101)
(8.39778 -3.71045 0.163471)
(9.54916 -1.36231 0.335393)
(9.98942 -0.11238 0.00537397)
(10.3616 -0.532768 0.240113)
(10.9943 -0.503176 0.0426607)
(10.9582 -0.548708 0.0208863)
(10.0761 -1.59817 0.275431)
(10.5428 -1.70187 0.18321)
(10.8874 -0.516816 0.0150647)
(10.4976 -0.601124 -0.0022551)
(10.7969 -0.54819 0.0500199)
(11.9635 -0.419816 0.14226)
(10.1273 -0.379847 0.127644)
(10.8051 -0.645429 0.148897)
(11.347 -0.725342 0.0997357)
(8.87428 -1.23372 0.793052)
(10.9114 -0.70259 0.072642)
(12.4242 -1.53621 -0.447032)
(10.8073 -0.739892 0.101503)
(12.6572 -1.80737 -0.588301)
(12.4599 -1.80375 -0.820273)
(12.7933 -1.5388 -0.22848)
(10.9074 -0.629459 -0.289202)
(4.82102 -6.98791 -0.115502)
(9.58726 -0.892299 0.224598)
(10.4699 -0.893569 0.339959)
(7.89455 -7.1274 -0.086569)
(10.853 0.0202021 0.123452)
(11.5066 -0.0790687 0.129165)
(11.0484 0.0119621 0.0696131)
(10.3242 -0.16983 0.0447379)
(11.0404 -0.531702 -0.116527)
(11.0064 -0.487963 -0.0745334)
(10.1583 -0.944617 0.1036)
(10.9544 -0.323652 0.0921883)
(10.9822 -0.262402 0.105158)
(11.123 -0.718435 0.172366)
(11.0369 -0.468556 -0.0603613)
(11.2004 -0.168357 0.239276)
(11.1155 -0.101277 0.212233)
(10.6922 -0.595303 0.12389)
(10.6354 -0.533558 0.0879322)
(10.7276 -0.583075 0.0226813)
(10.6741 -0.908535 0.07094)
(8.17485 -2.3128 0.0887923)
(12.5278 0.501322 0.421954)
(12.5295 0.480009 0.946486)
(13.3344 -2.29884 -0.941764)
(8.43911 -2.90545 -0.984001)
(12.2678 -2.15095 -1.29661)
(10.6034 0.113157 0.03042)
(10.6239 0.167823 0.0499464)
(10.9167 -0.545432 0.180547)
(9.73915 -0.652658 0.468349)
(10.5861 0.121323 0.0367018)
(10.4892 0.032508 0.0792771)
(10.5911 0.00860164 0.0491761)
(10.592 0.0379862 0.0592929)
(5.92316 -5.94336 -2.4691)
(6.9372 -3.9774 -1.4775)
(6.37882 -4.61631 -1.65177)
(9.90608 -1.14408 -0.861984)
(1.29183 -3.72954 -5.54307)
(10.965 -0.0810796 0.120874)
(11.1933 -0.1746 0.111098)
(10.1784 -0.946171 0.025817)
(11.5407 -1.90976 0.154927)
(10.4652 -0.202527 -0.0470262)
(10.4239 -0.217057 0.00905837)
(10.4178 -0.234561 0.0338266)
(10.4994 -0.259346 0.000215753)
(10.053 -0.205242 -0.030231)
(10.0582 -0.186338 -0.0261686)
(10.0513 -0.230877 -0.038085)
(10.0724 -0.195457 -0.0077087)
(8.75277 -3.79908 -3.95176)
(9.03848 -3.08403 -3.38696)
(9.5996 -2.26849 -1.77222)
(9.68289 -2.6734 -2.33499)
(10.971 -0.225615 0.0369375)
(10.9208 -0.193247 0.0728345)
(10.4962 -0.522098 0.0987286)
(10.4289 -0.619287 0.0193972)
(9.94222 -0.870915 -0.218454)
(9.37906 -0.737699 -0.257585)
(9.51087 -0.641104 -0.213974)
(9.90648 -0.543416 -0.1861)
(11.8791 -0.63342 0.180035)
(12.0644 -0.877718 0.0156037)
(10.1131 -2.41389 0.291641)
(10.5539 -2.21696 0.315007)
(9.89837 -0.5922 0.0375176)
(9.81071 -0.779238 0.0163767)
(9.80913 -0.697796 -0.0147729)
(9.74868 -0.791987 -0.027793)
(8.3293 -2.61671 0.114685)
(8.71457 -2.38971 0.2384)
(9.73088 -0.996061 -0.327084)
(9.76144 -0.812454 -0.213327)
(11.4752 -3.36507 0.256522)
(10.3171 -3.2458 0.18816)
(12.2227 -0.933643 0.549887)
(11.2404 -4.04531 0.35049)
(11.6816 -3.44774 -0.136312)
(10.7182 -2.44494 -0.0849795)
(11.731 -0.10001 0.125895)
(13.1632 -0.300507 0.483944)
(12.8623 -1.05697 0.394814)
(10.9224 -1.61576 -0.0376989)
(10.9883 -1.35292 -0.169015)
(10.8922 -0.623134 0.150853)
(10.8199 -1.05158 -0.0977776)
(10.73 -1.64388 -0.00268934)
(7.85005 -3.51084 -0.819594)
(6.77959 -4.03488 -0.367205)
(7.72561 -3.10467 -0.299522)
(10.467 -0.32819 0.051843)
(6.9047 -3.5924 -0.0836647)
(10.6189 -0.17674 -0.0798304)
(11.1352 -1.26971 0.196285)
(11.2219 -0.836452 0.00290768)
(11.1089 -0.771127 0.100164)
(11.5182 -1.09474 0.0956356)
(11.4282 -0.860824 0.0376133)
(10.474 -0.197176 0.0627331)
(10.1746 -0.66355 0.0454299)
(10.1457 -0.725043 0.00908928)
(10.2782 -0.797724 -0.0636825)
(10.1331 -0.881024 -0.0413685)
(10.3797 -0.567884 0.0101526)
(10.2714 -0.684827 -0.02314)
(9.68488 -1.59359 -0.450389)
(10.5832 -0.336766 -0.0194489)
(9.65746 -1.65281 -0.573336)
(9.44081 -2.10433 -0.714171)
(9.15444 -2.32367 -0.315863)
(11.5757 -0.904109 0.0365407)
(11.4847 -0.982592 -0.00364867)
(10.8744 -1.42384 -0.186064)
(10.7942 -0.679438 -0.25211)
(9.95331 -0.180379 0.0066442)
(10.6888 -0.629772 -0.22812)
(9.77959 -0.872766 0.0579221)
(9.98644 -0.284683 -0.00756854)
(9.81279 -0.197365 -0.0537428)
(12.8297 -1.4127 -0.17432)
(9.80118 -0.192983 -0.0457748)
(9.84081 -0.240848 0.0110927)
(9.86474 -0.311348 0.0117149)
(11.1613 -1.69722 -0.455409)
(9.65901 -0.548704 0.344829)
(10.5112 -0.0452187 0.0142111)
(9.77923 -0.501789 0.230718)
(10.0869 -0.497213 0.499858)
(10.0675 -0.106517 0.00957358)
(10.8507 -0.417783 -0.0115231)
(9.91486 -0.554632 0.214091)
(10.413 -0.261074 -0.0222953)
(9.96399 -0.332295 0.203075)
(11.6195 -1.92528 -0.827027)
(10.2803 -0.04924 -0.0395272)
(9.79372 -0.457309 0.147897)
(9.91412 -0.221873 -0.0256157)
(10.0202 -0.13863 -0.0143857)
(11.0072 0.466977 -0.0791952)
(10.8219 0.0112761 0.105834)
(10.7102 -0.564475 -0.279278)
(10.2787 -0.0548592 -0.00584237)
(9.71195 -2.28539 0.473511)
(10.5095 -0.220244 -0.0338917)
(10.0576 -0.212853 0.0813367)
(10.2476 -0.189013 0.0194317)
(9.9645 -0.266144 0.108754)
(10.4908 -0.192052 -0.021186)
(10.1992 -0.0319823 0.0112967)
(9.88759 -0.334466 0.0447269)
(10.7083 -0.329404 0.0704658)
(10.7557 0.399859 0.00476227)
(10.4055 -0.117862 -0.0456287)
(10.2131 -0.63771 0.165478)
(9.56116 -2.17664 0.345983)
(10.5886 -0.0424258 0.0890962)
(10.7177 -0.721838 -0.30602)
(10.8828 -0.677295 -0.411843)
(10.2414 -0.550203 -0.0643525)
(10.2047 -0.712183 -0.051817)
(10.2222 -0.552399 -0.0956535)
(10.1736 -0.552787 -0.11767)
(10.4896 -0.268348 -0.0356308)
(10.5153 -0.299978 -0.0494293)
(10.3321 -0.427112 -0.0229389)
(10.4962 -0.366078 -0.0490057)
(10.0691 -0.234398 0.00657151)
(9.97757 -0.260062 0.0754681)
(10.7094 -0.103638 -0.010158)
(10.7612 0.0570121 0.105611)
(11.0304 0.283215 0.270022)
(10.8539 0.173515 0.11229)
(10.6706 -0.0398689 0.0866767)
(8.90621 -2.00273 -1.91419)
(10.1699 -0.218681 -0.0222548)
(10.703 -0.313294 0.0877447)
(10.1308 -0.111249 0.00225351)
(11.0946 -0.473841 0.00895766)
(10.1086 -0.220849 -0.0160577)
(10.758 -0.158339 -0.0127152)
(10.1803 -0.170687 -0.0188213)
(9.35209 -1.98119 0.649132)
(8.83909 -2.80701 -0.851687)
(9.98085 -0.0785548 0.0505227)
(11.2482 -0.882588 -0.00609194)
(12.0968 -0.903737 0.109632)
(12.3412 -3.22063 -1.99761)
(12.8529 -2.02662 -0.150613)
(5.10347 -5.06581 -2.65278)
(13.1616 -1.69117 0.213581)
(9.40828 -1.15643 0.490865)
(9.18571 -1.19192 0.859072)
(11.0302 -0.259153 0.14291)
(10.0315 -1.8293 0.308935)
(10.4397 -0.000769037 -0.00515314)
(9.98252 -0.747928 0.309995)
(10.2281 -0.476527 0.0517762)
(11.6369 -1.1029 0.289425)
(10.6122 0.0993448 0.013721)
(10.8436 0.289578 0.130049)
(9.8846 -0.374395 -0.101231)
(10.3129 -0.441738 -0.0470595)
(10.2295 -0.316757 -0.0935193)
(10.2238 -0.364705 0.27968)
(10.3626 -0.0637953 0.0330438)
(10.7008 -0.199775 0.00717539)
(10.4795 0.0551225 -0.0072133)
(11.9397 -2.44198 -0.670361)
(10.6013 0.193226 0.0446414)
(10.5076 0.0132229 0.0596601)
(10.9456 0.127318 0.0439413)
(11.174 0.483667 0.154687)
(12.3375 -0.317649 0.153196)
(12.3236 -0.747999 0.192363)
(10.3394 0.0166891 -0.0372667)
(11.8993 -1.22012 -0.494978)
(10.2861 -0.730817 0.384207)
(10.8971 -0.472815 0.254235)
(9.97331 -0.552938 0.373074)
(12.792 -2.33665 -0.223915)
(10.4129 -0.220712 0.0280646)
(10.0782 -0.565532 0.334217)
(10.5128 -0.19335 0.0833826)
(10.6925 -0.646008 0.335092)
(10.4317 -0.203926 0.0388314)
(12.1514 -1.96592 -1.00838)
(10.6632 0.0832726 -0.0347192)
(10.6076 0.121937 0.0185284)
(10.1201 -0.600262 0.390266)
(10.6977 -0.0111324 -0.065527)
(10.618 0.0557271 0.000833653)
(10.1217 -0.526113 0.226085)
(9.97638 -0.469463 0.369898)
(10.0085 -0.240484 0.0316919)
(7.08559 -6.95721 0.588491)
(10.7506 -1.85546 -0.566496)
(12.8473 -5.59924 0.262478)
(10.1737 -0.443219 0.0362847)
(9.55442 -0.843075 -0.492796)
(10.584 -0.00208744 -0.00549886)
(10.2258 -0.175823 -0.0386229)
(10.1569 -0.377112 0.15012)
(9.86622 -0.573661 0.179281)
(9.67115 -0.635921 0.759621)
(9.84871 -0.574748 -0.0260753)
(10.0094 -0.255328 0.0103606)
(10.1111 -0.403704 -0.02982)
(8.56065 -1.79473 0.308856)
(9.71813 -0.913468 0.527375)
(9.94663 -0.774236 0.764223)
(10.3479 -0.403436 -0.024963)
(10.1784 -0.720168 0.424625)
(12.1179 -1.39844 -0.771166)
(10.5186 -0.801091 -0.0885217)
(11.3567 -0.492617 0.15976)
(12.6668 -1.45571 0.218145)
(11.9988 -0.492937 0.180757)
(9.31997 -1.34316 -1.04666)
(10.2848 -1.20507 0.248989)
(10.8545 -0.107466 0.0560208)
(10.326 -0.555875 0.210164)
(10.612 -0.273379 0.0765179)
(10.6615 0.165638 0.109175)
(12.2503 0.611164 0.540866)
(11.8023 -0.313651 0.263579)
(10.2839 -0.379954 0.0658364)
(13.1838 -0.55827 0.146489)
(12.3211 -3.31488 -0.139369)
(11.8711 -2.42906 -1.33505)
(1.68714 -6.92691 0.305906)
(11.1719 -0.156363 0.135734)
(11.1651 -0.253234 0.12355)
(10.4034 -0.317302 0.133255)
(10.6503 -0.722647 0.429278)
(10.6581 -0.170168 -0.0692165)
(0.333391 -9.35553 -3.00421)
(11.3025 0.212686 0.115823)
(13.0787 0.488416 0.388342)
(12.8676 -1.04964 0.0387457)
(11.8273 -2.27791 -1.9227)
(11.1685 -1.19841 -0.597404)
(10.8908 0.168483 -0.0369)
(9.00419 -1.33125 0.354612)
(9.94214 -0.292152 -0.0811102)
(10.1053 -0.260687 0.00687849)
(11.9729 -4.20913 -1.24073)
(9.57049 -3.11103 0.199159)
(1.34394 -5.98182 -4.80625)
(9.75045 -0.715892 0.187975)
(9.79408 -0.688412 0.246741)
(10.1652 -0.386018 0.13184)
(9.86924 -1.3755 0.348607)
(9.42336 -2.24283 0.0544161)
(10.6412 -0.51677 -0.113687)
(11.3194 -0.679381 0.202815)
(10.8701 -0.711144 -0.0423642)
(10.297 -1.32702 -0.511992)
(12.9036 -1.0635 0.497481)
(11.1403 0.166502 0.177864)
(11.2341 -1.30317 -0.47884)
(10.9437 -0.837679 0.0995725)
(11.102 -3.09011 0.268739)
(10.2595 -3.94414 -0.100016)
(10.5306 -0.0427222 -0.0823138)
(6.49075 -7.27444 -0.948723)
(10.1407 -0.765261 -0.336715)
(10.3144 -0.0722715 0.0457586)
(10.1805 -0.121163 0.0214827)
(10.1633 -0.0879226 0.0110496)
(10.364 -2.51854 -0.327146)
(10.171 -0.00725858 0.0193604)
(10.3193 -0.0422907 -0.0484845)
(10.1441 -0.0100031 -0.0262866)
(12.4791 -1.27561 -0.223196)
(12.2445 -0.785443 0.000559748)
(9.9771 -0.326445 -0.0875306)
(10.666 0.168203 -0.0288303)
(10.554 0.130028 -0.00739402)
(10.7583 -0.053057 -0.0216349)
(10.1316 -0.0342446 0.0211024)
(10.5281 -0.0392423 0.0970337)
(10.3302 -0.126911 0.0524391)
(10.0516 -0.0865192 -0.0739037)
(12.9124 -0.2265 0.573798)
(8.73907 -4.73952 -1.97392)
(12.5457 -1.621 -0.434053)
(1.52444 -4.29877 -4.24383)
(10.5746 -0.0790046 0.00669479)
(12.2737 -0.208624 0.361081)
(10.6867 0.112189 -0.0270169)
(10.689 0.133337 -0.0349344)
(10.6909 0.126483 -0.0189739)
(10.6892 0.148397 -0.0261682)
(10.849 0.0486992 0.0413264)
(10.7662 0.0725274 0.0258977)
(10.6629 -0.0247312 0.0547061)
(9.98738 -0.295718 0.160284)
(10.8398 -0.198261 0.0393028)
(10.9411 -0.437591 0.177668)
(10.7348 0.0700342 0.0332813)
(12.4046 -0.48788 0.238892)
(9.94596 -0.165562 -0.0296271)
(10.0411 -0.900446 -0.147689)
(10.6603 -0.00991308 0.0219033)
(10.7361 -0.0588744 0.0854348)
(12.2089 -0.28765 0.149644)
(10.0534 -0.960535 -0.237555)
(10.6324 -0.860699 0.180638)
(10.1805 -0.316251 0.173389)
(9.98451 -0.25544 -0.0970774)
(9.95105 -0.308567 -0.103473)
(8.7932 -1.17433 -0.166284)
(10.7714 -1.04132 -0.0214165)
(9.94441 -0.337783 0.024307)
(10.9105 -0.41972 -0.0391871)
(10.6329 -0.707353 -0.0551497)
(9.92427 -0.738784 -0.141347)
(7.10943 -4.99642 -1.38124)
(10.52 -1.69171 -1.88596)
(9.96628 -1.22774 0.0557885)
(9.8484 -0.609929 0.01129)
(10.0766 -0.33771 0.104628)
(10.0465 -0.271197 0.0159049)
(9.81248 -1.17406 0.0469454)
(8.91869 -1.43033 0.372344)
(9.70348 -0.856329 -0.397217)
(10.4913 -0.350677 -0.00967215)
(10.9459 -0.783246 -0.535314)
(9.92418 -0.33427 -0.0465865)
(10.7577 -1.01045 -0.43456)
(9.96258 -0.478616 0.0491583)
(10.1219 -0.362331 0.0960234)
(9.92541 -3.09193 -3.1639)
(6.78116 -4.59557 -0.412384)
(10.1869 -1.11476 2.62694)
(10.0156 -0.334571 0.0476322)
(10.0302 -0.352577 0.0301976)
(10.2597 -0.0410607 0.0266126)
(10.5985 -0.183471 0.0892165)
(9.96965 -0.934106 -0.288642)
(9.98237 -1.51089 0.249327)
(11.0453 -0.605856 -0.201326)
(9.88153 -0.625791 -0.157518)
(11.4988 -0.654587 0.0628606)
(10.3982 -0.0271749 0.0624671)
(9.71931 -2.04159 -1.09379)
(9.21588 -1.97191 -1.55339)
(10.031 -0.328898 -0.0270254)
(11.74 -2.07852 -0.227879)
(10.9576 -0.212219 0.0530922)
(9.61205 -0.782227 -0.392051)
(10.1217 0.0266032 0.0490435)
(9.8529 -0.198594 -0.00150258)
(10.6027 -0.489037 0.0692545)
(11.0024 -1.9471 -0.583648)
(10.8211 -0.240723 -0.012618)
(10.9924 0.530497 -0.0343428)
(7.57519 -3.95046 -3.55585)
(11.5192 -1.21626 0.0733747)
(11.0853 -1.89922 -0.069785)
(10.9846 -0.31888 0.00847172)
(10.6932 -1.81098 0.0975268)
(5.29681 -10.1729 -0.920296)
(9.96175 -1.81907 -0.598455)
(8.96348 -2.07135 0.404968)
(9.93661 -0.438644 0.0571743)
(9.69515 -8.18296 -4.51596)
(11.1332 -0.3784 0.0175594)
(9.96864 -0.192037 -0.0276851)
(4.8092 -4.26643 -3.25653)
(9.35367 -2.73133 -1.2771)
(11.3347 -0.642366 0.0470151)
(11.0258 -0.485607 -0.0491441)
(10.4331 -0.680001 -0.19369)
(10.8257 -1.62128 -0.568895)
(11.854 -0.967887 -0.119238)
(10.4748 -0.175046 -0.00714238)
(10.7797 -0.592154 0.0852878)
(10.514 -0.213377 -0.00625403)
(1.16917 -3.6445 0.158893)
(9.75196 -1.34783 -1.37246)
(2.30347 -11.7574 -2.583)
(2.97089 -7.72067 -0.251908)