/*--------------------------------*- C++ -*----------------------------------*\
| =========                 |                                                 |
| \\      /  F ield         | OpenFOAM: The Open Source CFD Toolbox           |
|  \\    /   O peration     | Version:  2506                                  |
|   \\  /    A nd           | Website:  www.openfoam.com                      |
|    \\/     M anipulation  |                                                 |
\*---------------------------------------------------------------------------*/
FoamFile
{
    version     2.0;
    format      ascii;
    arch        "LSB;label=32;scalar=64";
    class       volScalarField;
    location    "0.0100321";
    object      omega;
}
// * * * * * * * * * * * * * * * * * * * * * * * * * * * * * * * * * * * * * //

dimensions      [0 0 -1 0 0 0 0];

internalField   nonuniform List<scalar> 
3972
(
94.5904
53.6666
52.1791
53.648
838.357
125.937
86.7884
53.8468
51.6691
72.3272
55.4815
55.2977
64.6
54.1401
54.2793
52.2944
52.6536
59.8001
51.8982
55.9403
938.913
155.636
106.782
53.9248
1353.91
52.0523
52.8608
62.0895
90.5903
50.4588
636.017
188.698
50.5021
84.3255
51.0198
53.7897
62.6009
56.3647
53.7384
66.431
57.9198
54.7111
58.0275
86.8758
51.4265
53.6751
66.6249
128.926
85.1583
51.1274
55.4118
55.817
62.1605
73.6625
69.6286
53.0981
132.533
55.8594
135.556
165.694
73.9095
123.211
51.661
114.507
54.6905
82.3286
101.569
123.75
60.2
113.692
128.934
59.6946
132.15
54.8721
71.8415
51.6209
57.8452
71.6104
56.2317
88.0695
60.1034
58.1012
51.3699
61.6691
54.6651
87.8024
71.5344
58.7891
107.665
95.753
65.0602
61.9063
74.7927
58.6593
53.1615
55.5312
50.6066
57.0957
56.3403
50.4521
52.7773
53.5986
53.9157
53.5217
66.601
54.6885
57.9926
57.2628
75.9991
53.9078
63.5973
52.9386
53.5569
106.733
55.9424
58.8617
52.0937
130.11
107.709
61.1831
101.546
128.207
96.1449
85.0961
53.1345
508.016
125.189
473.586
579.672
655.215
349.784
62.0747
310.603
319.141
106.116
95.9322
112.409
108.21
135.446
69.6952
65.1234
50.4496
60.1111
81.4064
136.917
61.5677
69.0798
51.8469
125.469
69.2426
62.8377
54.7616
51.385
82.0872
154.798
53.7413
52.9416
64.4999
61.7159
99.38
50.7742
51.3268
56.7035
58.6703
51.4323
68.0118
59.1189
76.3773
54.5597
64.5663
69.7263
53.7157
49.8128
51.282
52.8927
53.2965
62.0983
50.5796
51.867
50.2633
74.298
117.683
57.6817
73.6234
52.2634
49.1918
49.399
56.0822
49.428
1000.6
51.6951
51.6968
93.7827
49.5623
54.7084
51.6842
55.148
69.8593
93.2726
56.0146
54.0497
94.4671
61.8719
53.7079
52.2644
57.1589
50.2435
59.1757
74.0974
102.992
147.013
65.2806
290.734
297.542
55.713
74.1592
82.7857
59.3918
62.845
63.5824
49.8464
70.2508
56.6641
55.3842
187.914
53.9385
1114.27
117.773
1161.34
109.382
1482.56
721.682
133.54
670.592
56.4017
55.5858
56.5528
53.315
62.1177
56.5401
55.806
419.518
104.729
58.3334
68.0669
53.8853
55.0251
55.099
59.2689
128.508
54.9367
666.389
72.5582
159.595
51.6082
57.7806
153.426
104.715
52.3286
122.63
182.347
129.54
95.3634
53.5266
108.501
60.5202
51.751
70.0015
59.9755
56.0601
60.1804
79.1167
340.951
141.407
72.7138
120.751
62.3206
132.504
52.0822
51.5418
96.3009
147.903
54.2188
261.497
1256.59
585.392
54.9101
59.9778
54.8699
62.7749
53.3637
53.732
57.8393
54.9432
170.578
82.2026
61.9313
179.256
53.609
451.094
50.5125
57.3954
61.1069
63.4326
88.9734
85.0634
59.9685
59.2051
54.9739
57.9637
56.92
53.744
104.037
71.3128
1154.93
51.0679
54.748
54.1588
59.0978
56.1833
373.708
778.871
59.6174
53.1741
54.251
103.089
53.2529
51.8742
53.5771
140.757
54.175
199.082
60.4948
52.2542
51.7598
134.17
53.3338
65.723
50.5395
72.5454
77.8062
51.4552
104.286
53.8946
55.3716
52.7863
52.3432
54.0335
56.8916
60.677
56.2542
126.82
59.536
53.8946
1466.24
103.333
458.035
62.9267
54.5249
54.5374
54.6546
52.9587
54.7727
82.1911
54.1005
54.3392
64.1045
54.6986
61.5261
54.4096
52.6085
54.4662
49.2269
54.1868
67.0545
54.6464
55.1483
108.634
61.686
82.352
52.8004
69.7771
52.5051
79.4781
55.3422
80.0149
54.052
72.1247
61.6318
56.9617
309.537
55.5712
206.562
55.0097
159.581
55.8801
1171.31
1257.98
51.3862
53.7766
65.1172
55.1215
51.6539
57.467
62.1893
50.731
70.1351
265.204
54.9246
58.7006
52.2457
78.4467
61.1534
58.1162
86.6596
975.144
54.9452
55.3744
55.4441
53.5027
53.9337
133.974
54.5722
52.9078
59.4124
55.3546
58.3542
51.7534
64.4191
88.0693
55.2885
68.377
95.6009
53.9997
53.4027
56.9053
60.3146
73.16
50.07
82.9795
54.7354
100.698
54.1663
56.9372
54.2092
55.0117
55.2972
56.2428
55.3095
55.8692
55.8755
71.1534
64.9263
63.0769
54.6759
107.608
311.508
285.789
129.502
60.9129
95.3447
63.2587
56.5096
55.8204
59.1395
78.2618
51.4559
51.9286
51.7034
54.1852
107.915
57.0295
57.6896
57.5545
53.9
90.3187
86.7654
632.245
58.7312
58.4597
72.3741
71.8501
102.096
94.9138
117.585
50.9799
55.0999
90.2725
54.1676
59.3624
82.3289
77.0062
407.739
65.4951
427.132
703.34
82.0455
60.7187
94.0136
55.4083
57.2738
87.8712
55.5024
61.428
59.8216
61.215
54.3511
54.9708
56.0912
56.0968
104.944
73.5895
117.136
220.008
58.2488
54.7292
52.7146
54.9739
118.001
121.723
90.1822
60.6505
58.4769
58.9684
248.763
55.786
57.9346
66.0135
95.093
53.6743
82.6807
115.453
54.9312
66.5001
72.5119
58.9748
59.2641
56.8818
56.7455
59.5749
57.8567
58.9277
59.0083
141.284
54.4884
53.7488
86.0002
57.084
68.4652
54.9731
54.3012
54.3741
58.9603
64.0751
54.0208
53.4022
53.3961
65.7189
51.2372
54.4554
58.6356
54.4298
55.2002
129.381
54.7864
165.406
167.615
153.841
62.07
422.476
51.934
56.5914
282.556
54.618
58.9236
54.7899
65.9073
60.8798
57.7702
54.5014
53.4687
53.5435
57.0276
61.4545
55.4444
56.6175
53.2292
52.4614
53.3207
55.3275
65.6788
82.5863
378.136
386.728
76.5347
111.66
53.3972
53.4415
52.8212
50.7048
54.29
97.1794
73.6951
60.2299
286.086
112.061
173.75
54.3021
740.827
56.2264
53.9989
53.8937
71.9838
51.5319
130.494
91.6598
70.7605
51.3506
51.1585
50.9285
50.7946
214.285
130.833
69.3022
95.8577
54.4776
88.6423
52.6463
53.9196
53.3992
52.1092
51.0133
54.7689
66.7217
72.7646
65.5158
66.8915
52.2148
52.5841
52.0433
52.1843
68.3307
63.8498
51.7242
51.7817
104.638
82.376
342.561
125.816
146.694
68.2083
60.3831
318.99
376.819
61.5901
56.3111
55.05
55.7742
60.96
91.3622
140.585
87.8893
52.301
117.644
55.2574
65.4815
56.3247
56.4104
62.3705
58.3814
50.4707
53.248
53.4673
54.9368
54.1055
53.7771
54.8026
55.8006
88.1565
56.4093
60.0746
62.251
59.0357
59.6548
57.6051
56.0299
52.2465
56.4759
53.2416
119.866
118.603
120.268
85.1265
50.8996
50.8919
62.7104
51.0024
58.562
50.8085
60.8997
52.4861
169.425
50.8958
74.1729
57.618
74.6728
133.454
50.9804
51.5622
55.4252
57.7954
53.7027
70.6773
83.6627
764.332
52.3025
61.3433
70.0146
89.7567
54.0598
123.674
50.2613
109.778
55.4531
51.3327
53.1526
61.6931
152.383
57.761
60.146
56.42
56.4386
55.3493
55.2095
67.4783
65.5174
52.1128
55.3101
50.6711
54.1556
57.5879
55.9854
55.6551
53.9201
124.847
69.3763
54.9037
52.0419
51.5227
55.1099
53.34
53.3571
53.9451
61.8062
72.1532
66.9838
58.9542
70.7772
694.19
132.375
250.187
382.722
54.3334
54.4338
52.6664
59.5635
129.11
53.1818
53.6785
68.188
52.5604
53.6542
51.9643
81.0726
61.8523
84.2546
95.66
89.7578
65.3498
109.1
52.5709
105.241
54.8088
58.896
73.9374
76.5208
90.593
69.9647
54.4727
54.5346
54.0249
195.418
95.4953
53.6
50.7318
55.8972
50.5203
95.5385
57.3282
59.9905
54.282
59.7213
87.5468
52.6321
54.6889
54.5287
388.491
61.8818
471.448
53.6203
50.6688
142.811
56.5902
52.9732
51.2959
53.0587
51.7353
50.0008
52.7502
59.1203
52.6035
53.4385
52.4367
53.0171
78.4893
56.6514
57.6616
93.4014
69.1316
54.451
56.2964
84.2138
54.9652
51.8722
52.9402
82.5143
63.8287
50.3968
123.759
174.093
631.425
1202.54
54.2046
54.4631
52.9916
55.8613
55.4222
1294.29
57.9767
132.583
113.974
121.629
59.2157
54.5198
55.597
75.1738
53.1164
181.012
75.588
934.118
51.6545
51.4244
51.598
56.2919
59.446
65.0225
57.3288
55.0229
56.4758
286.542
55.1976
59.5459
56.2167
91.0854
103.988
53.2965
355.928
54.2982
70.439
51.4598
57.5962
65.6317
124.218
60.3278
122.033
88.007
373.699
52.1658
58.4206
60.7624
102.051
73.1703
112.611
66.3051
79.2005
112.397
165.191
431.011
757.704
137.127
79.2943
56.006
57.8147
55.702
57.5453
55.1583
52.8943
53.1462
60.4396
111.199
52.569
52.9092
76.8803
51.9203
54.5282
53.5769
53.5811
70.9473
54.6698
54.7088
109.802
52.3248
51.7932
55.834
56.1451
50.2901
54.8673
53.6687
53.2644
151.695
67.4397
55.0682
51.543
77.6215
76.011
54.5661
56.1437
51.0651
114.874
61.2806
51.5384
56.5332
51.8564
125.66
111.677
167.618
753.58
50.624
61.4219
107.525
52.6626
53.483
57.6243
57.5065
52.7449
59.3568
106.525
61.8019
61.5492
116.201
77.1059
71.674
50.3978
87.1754
109.77
52.4804
62.8918
113.783
57.9111
193.813
62.5304
433.314
57.9027
65.9172
1008.9
58.5897
61.934
51.3663
836.225
55.4158
49.7864
230.259
71.4984
56.008
55.5787
58.3867
59.8475
64.8133
60.1818
53.3466
55.5109
1065.2
59.4125
1268.91
632.066
732.994
65.5685
1310.08
109.249
319.595
1285.99
59.1626
53.2075
61.0179
56.6257
59.4133
88.2791
66.9274
464.788
990.763
96.175
56.9418
74.2619
392.96
58.7701
56.7084
52.9082
74.1539
76.5636
53.6751
1287.77
289.997
920.167
1167.43
53.4783
75.5835
64.4744
69.399
74.4261
73.0514
129.11
73.7943
55.3941
53.8605
56.6516
55.7522
86.9648
55.8515
54.5354
87.531
52.0666
54.4141
54.0812
59.2103
54.3884
54.0151
53.7893
54.4871
61.0013
87.1874
54.3912
57.4673
55.7368
56.0718
54.783
53.9406
56.4765
53.9524
55.6179
56.9203
61.2034
55.6207
57.7182
55.4665
63.7463
71.8522
53.2322
49.8814
87.3435
106.263
139.324
155.657
52.4888
52.9885
56.5223
53.1615
58.3776
54.7622
53.1181
54.1624
72.4777
283.655
57.3621
55.3522
58.5768
57.2627
53.9875
55.1844
66.4005
57.0222
55.0648
105.728
50.998
50.1366
59.4415
55.7818
58.8654
61.6313
57.2428
61.71
63.0428
52.8659
52.4298
118.432
1276.12
665.143
51.7306
84.7823
78.0601
50.7638
56.3377
56.5352
217.64
51.3755
138.243
56.6632
57.7061
58.1626
55.4777
59.3203
55.4637
53.8787
53.4695
52.4303
52.3615
51.7824
52.459
51.3051
50.9999
52.8351
54.5307
52.1773
53.0846
157.486
51.232
415.288
317.683
78.4021
51.9722
56.0834
1718.55
56.8725
79.1081
54.8621
53.5087
52.2012
51.2296
58.9598
55.3177
344.426
53.7071
65.5615
54.6158
64.7244
56.2734
65.2704
55.7019
66.9266
57.0585
53.8029
63.6842
52.2921
55.9519
54.0046
63.6486
88.6841
745.778
57.3696
53.3794
117.647
51.7071
67.6292
54.0169
52.4655
110.723
51.9263
58.5053
239.93
933.157
60.3599
64.3251
62.0701
61.1589
63.2408
74.9937
57.6112
67.3952
52.5244
54.5946
67.3327
53.6919
55.0166
51.7174
67.61
58.102
1237.75
72.8419
745.93
53.2681
282.077
87.4375
231.986
52.4882
52.8686
62.1904
396.612
58.2551
50.3166
767.79
56.9421
888.926
553.647
51.7942
51.488
55.7644
56.4463
71.5875
88.284
65.1561
58.2145
67.3198
62.6867
57.2325
57.6936
61.7677
54.535
54.8414
54.8136
55.8631
55.7394
55.8887
55.8173
55.9513
54.4966
53.2551
52.8671
53.5194
52.8287
53.6111
56.2792
51.5997
52.236
63.2614
53.8371
59.4765
51.9826
52.5925
53.4438
53.367
115.294
52.9606
52.6809
52.8836
51.7841
52.7639
51.0183
50.8905
51.8353
52.3888
51.7789
52.1429
51.1209
51.8484
54.2984
53.4946
53.6147
54.14
53.2085
54.2838
53.3339
51.0306
53.0486
51.3181
51.8592
88.8269
102.621
101.095
53.2462
244.272
129.613
56.927
70.8156
53.2007
55.7357
85.6268
111.111
1080.72
50.2578
50.2885
69.5495
134.009
49.5257
52.5959
52.7925
72.8868
52.9555
53.4747
52.6758
52.2801
52.0205
80.5327
69.4979
84.918
55.5396
54.0884
58.6903
53.4588
56.2867
52.2317
52.4486
77.15
59.0995
54.9204
59.7908
54.128
58.5472
72.2349
99.9196
50.313
75.8846
95.0932
129.588
52.3451
100.049
53.4131
76.0998
50.1913
55.9671
126.928
52.62
59.154
75.4733
52.347
49.6929
51.81
50.8066
50.0707
49.557
60.5302
124.894
108.792
65.9903
82.7148
96.9671
107.068
100.112
55.9878
96.0037
60.4114
137.038
165.625
65.2555
57.5463
111.275
91.139
51.2478
52.6648
50.9865
51.6314
53.3989
50.8573
88.7267
51.4386
55.0803
129.193
53.9005
55.1513
69.7062
56.0917
53.2625
155.839
98.6054
56.5432
55.736
51.2766
56.6679
103.194
55.7419
55.2642
54.8089
162.599
72.2775
55.4423
56.3521
56.4454
55.8495
54.283
166.416
54.1802
170.792
54.7903
671.706
259.569
52.9515
1347.41
1314.61
52.6767
450.482
64.8813
53.5745
578.985
90.2282
802.828
782.74
1242.25
152.571
492.254
584.691
1200.85
58.1004
440.4
67.4859
92.9641
118.74
56.0428
83.9333
91.7781
56.5531
60.5742
217.528
159.792
66.0438
52.9361
141.993
1024.74
302.771
79.3315
54.4395
52.4675
54.3615
53.252
109.248
52.8867
55.3648
56.1923
53.28
54.4531
55.5688
55.5675
1010.78
87.1051
69.7876
111.799
91.9354
56.21
54.9663
53.9785
52.4539
50.407
51.3916
62.5211
51.0107
50.5435
106.051
58.4814
51.5619
53.3946
54.7545
53.1323
61.1776
52.8459
106.77
51.8914
51.5862
55.8054
54.1339
53.1871
55.4432
55.5765
167.979
80.2598
60.0346
55.2599
120.259
61.9006
59.271
53.179
54.2339
92.9338
54.3072
54.411
53.1713
56.9401
57.9185
54.9871
55.7467
87.7511
51.4572
55.8219
51.9284
959.222
50.3532
52.3999
51.2306
50.8955
62.7003
53.8602
55.9116
52.5938
55.2905
193.801
52.7703
56.9736
52.9072
87.3158
56.4608
55.7013
957.675
72.2942
58.6662
91.275
56.4934
70.894
65.6071
75.2121
55.326
131.183
53.0829
58.6804
1164.22
54.6375
127.708
117.131
111.476
133.193
84.9278
87.9403
88.2806
127.788
80.6945
70.9167
56.9622
64.1204
119.151
55.0913
54.6861
55.562
56.5646
114.727
58.5727
54.9201
53.9253
55.6433
54.0308
55.615
55.9555
51.5421
51.6242
50.7078
52.2986
53.3195
50.0448
90.3711
88.4014
66.5376
75.4949
51.4732
66.6456
49.7163
51.2137
78.6191
50.985
50.6314
950.589
64.1742
1270.6
920.972
56.2102
59.2589
53.1126
57.7907
80.6241
50.4529
56.3869
108.891
1026.67
121.459
130.99
72.9493
52.8388
101.106
123.837
78.8003
304.654
58.5898
1101.05
123.826
412.062
1184.09
82.005
51.8655
61.5069
54.1825
74.2946
56.3959
54.9396
54.7722
58.345
109.047
103.726
67.1341
60.3164
55.3123
196.177
54.1827
59.2276
57.3705
84.1746
94.739
61.6009
86.4175
55.1941
59.0085
127.846
56.8238
101.856
51.7285
54.6449
122.087
56.6588
54.9874
84.2394
55.3442
52.5833
53.3748
67.2726
95.3359
55.197
773.621
188.271
57.8545
57.1212
840.031
139.655
734.478
52.7285
121.914
98.542
53.8144
79.2913
120.568
54.691
57.0453
61.1646
55.1985
62.2886
121.765
251.528
71.029
73.6813
54.3592
51.9081
53.1481
52.4807
60.5515
51.5878
61.0922
101.586
51.9191
50.2369
64.3145
85.8499
62.0055
182.535
94.8925
77.8591
168.841
73.6532
60.0378
51.8637
53.8132
56.1464
53.6189
54.6737
55.5795
54.0374
61.9927
60.6646
409.477
61.8361
50.8793
214.949
58.0119
53.031
153.907
135.492
80.3383
69.691
287.792
105.65
61.8018
118.105
123.822
107.492
68.0602
66.4529
125.71
53.2296
70.8245
53.3534
57.7552
53.0387
56.0422
59.163
55.6817
58.644
55.711
52.9331
62.4162
54.2121
62.0779
58.1063
106.943
54.9947
51.0101
54.0849
63.626
55.9614
55.8827
58.7009
53.6552
84.6204
76.7867
92.9366
70.4458
63.2946
67.845
59.2529
58.0522
52.0997
56.8194
71.761
64.0249
152.835
75.739
114.485
51.2855
53.9967
50.5899
52.1302
52.5785
51.3284
51.818
52.7314
54.0892
53.3667
59.802
79.9197
57.8996
59.1349
64.948
56.5765
55.8658
55.4121
55.1448
59.8007
58.6269
64.8032
129.796
50.1702
54.623
59.5949
52.5084
51.8514
51.7348
54.8242
58.4597
56.5369
56.2602
55.1217
55.2323
51.6708
52.6621
53.4044
54.3374
56.9341
56.4391
63.8473
55.1265
56.9896
55.6566
52.7391
55.9999
52.4379
55.5349
51.0522
52.1622
61.0832
50.2954
53.9929
60.8508
91.203
53.7839
53.4719
56.1509
52.9157
103.461
57.4981
53.683
58.0325
77.7261
54.4517
53.5538
54.8851
56.6768
55.4088
52.4463
59.1482
62.2908
1240.7
51.8652
64.374
406.449
84.4468
88.5612
320.383
218.335
77.0733
91.2332
83.958
61.6917
53.895
50.1086
52.2683
58.107
97.0133
52.5558
56.5806
52.8895
62.1267
59.3625
84.3884
55.4804
74.9857
60.8215
60.9479
51.8345
55.099
53.6903
302.613
179.209
169.85
123.389
150.387
58.5837
51.7117
1282.76
59.6556
57.1526
53.251
51.5612
62.103
119.09
74.4473
60.7588
53.7395
52.6732
103.462
58.0129
58.6143
64.0266
59.1071
91.5238
54.6491
155.25
281.274
51.0292
58.0117
58.0455
182.846
51.978
56.3844
61.2194
88.871
51.4658
52.5373
51.81
73.3939
52.9137
53.5761
54.6365
54.6873
50.3325
53.5495
52.1017
50.8954
51.1129
82.7621
58.9361
57.7487
118.092
51.935
53.8874
81.9885
56.7409
133.565
107.554
58.6209
160.741
53.0652
66.8635
50.5433
58.0089
50.8128
54.4653
65.665
51.0893
49.5299
52.5899
64.2872
94.7544
127.073
64.6337
105.861
54.7006
51.1159
122.814
64.6546
161.178
60.403
80.3679
54.2738
60.1129
54.3003
86.9622
721.996
64.3154
920.181
1007.43
580.257
53.9546
55.1003
52.3774
993.025
52.6398
52.3275
53.9356
54.6543
55.3366
61.3468
60.4257
56.5854
55.7119
57.5124
56.6728
54.9191
61.686
268.853
224.791
55.9263
157.958
60.2426
76.9756
74.1118
76.2441
58.0274
990.39
975.549
900.965
299.066
187.627
961.368
72.2775
65.5799
73.365
1358.93
76.3877
915.501
55.0894
57.5402
51.0137
51.4033
51.3036
56.601
55.567
54.6969
56.9724
66.3841
71.0526
58.8167
54.4727
55.3239
62.7226
61.7228
52.9453
52.8302
53.0237
53.0265
52.0163
54.1937
53.4199
128.841
52.9523
52.7636
51.9775
54.3117
57.5983
85.2096
87.4044
81.0409
57.3885
61.0136
50.9147
130.903
73.3165
52.0648
54.3677
64.0824
52.0877
65.8729
51.5036
52.2728
51.5307
58.4346
56.8095
53.3163
55.5747
52.3689
72.2859
55.1979
55.434
54.7255
64.9549
56.5338
53.731
52.4952
54.2637
52.2396
52.591
56.4236
54.77
66.4231
66.8789
56.2549
72.6588
295.693
59.617
54.8595
50.4588
50.8827
50.2365
57.0833
53.5081
60.4679
58.075
51.9775
54.4487
56.0411
56.864
127.27
52.8107
57.5508
50.0911
49.238
52.3284
51.6051
51.6938
61.8675
52.3372
96.3823
80.5643
50.2941
50.8758
78.3231
73.0987
55.3636
54.3911
51.0098
52.3334
54.1208
57.1717
59.0548
56.0092
68.4009
100.858
62.308
52.7218
131.916
52.716
54.9814
56.8218
55.6077
127.221
53.0803
52.8264
53.5194
53.4869
53.3984
53.6915
62.7598
53.4393
55.6221
51.748
68.377
80.4065
53.0579
53.1129
55.2071
50.2192
51.0254
95.3939
56.8041
53.8607
55.958
53.3761
53.6709
52.7085
59.4866
92.3781
51.0633
58.9499
56.6101
68.7286
58.4184
51.8905
59.1679
49.7173
50.1712
98.9362
53.781
54.9034
56.1451
51.5071
52.1317
52.4183
63.244
163.156
70.5412
157.363
727.444
991.342
50.4806
53.1055
53.8238
51.6504
50.8941
70.579
68.0869
54.5184
73.8832
131.237
94.9678
53.03
52.3526
773.156
514.468
52.3478
401.651
52.7228
51.799
53.3951
1160.35
1248.3
908.408
51.574
52.5967
1140.06
1326.01
52.5862
51.9214
55.7893
69.2988
63.86
51.4313
54.4733
56.8448
55.9211
54.2606
60.0334
518.077
53.1317
61.4981
55.3174
50.5267
52.9391
53.9914
50.2399
50.2791
51.4786
103.54
51.4812
123.926
57.5694
53.0301
55.5107
56.9767
55.9911
54.0071
56.1722
54.7846
66.7451
80.7368
52.8753
64.0058
67.1693
136.756
53.0677
53.802
56.4512
1011.16
52.9034
82.7073
58.0524
55.8665
70.1591
61.1211
51.6826
51.2041
55.7957
55.719
63.4935
56.7926
67.4073
57.892
60.2316
251.711
57.726
67.2659
80.0963
51.1913
51.744
52.8204
56.373
277.466
99.2265
55.4575
55.0025
65.356
131.105
68.9482
54.8727
51.8558
54.8163
55.3865
65.3625
56.021
66.6723
76.5631
55.8046
57.8677
55.9433
67.8252
58.929
57.2591
117.914
375.342
56.0241
65.5942
55.3427
53.3742
52.943
56.285
101.398
71.0524
57.0487
54.4729
55.582
59.0916
53.1756
56.602
52.9284
54.0316
57.982
53.4531
56.283
117.91
57.6141
56.8837
55.8758
54.9365
53.2546
53.2044
53.5199
54.0128
53.8285
52.5385
51.6118
53.5621
55.5392
54.4497
53.7478
54.5549
55.1271
53.7067
66.2799
779.783
54.8091
54.6106
57.1105
54.9586
54.1918
767.629
55.5242
751.083
54.1771
54.9852
60.7352
72.457
53.5773
83.4325
80.1924
59.3512
60.4124
67.7123
54.1225
49.5006
107.311
62.111
66.0588
56.0866
61.5273
55.7782
54.7653
99.369
54.5087
52.8207
54.964
53.0911
53.0189
52.8138
54.4544
53.4644
56.4642
54.1434
51.0653
56.5082
51.0147
52.6237
51.7457
50.7507
53.364
57.3251
57.2036
71.9528
61.1938
59.367
70.1984
51.2257
53.869
70.8606
54.1248
55.3844
64.2125
53.9838
279.985
55.2333
56.3986
53.6674
54.2303
142.76
186.404
112.427
79.2546
56.0183
94.4553
53.9599
54.2238
90.2312
54.7019
253.016
56.3908
56.1022
114.129
54.046
54.9621
62.838
52.6737
54.301
97.4821
55.8015
55.8289
50.6244
52.4881
55.0175
272.941
56.8941
54.9336
54.3215
55.0894
52.7555
102.363
53.5952
51.8049
53.4331
55.2009
176.925
74.1477
65.0155
64.8346
1239.03
163.634
53.5408
57.8964
60.6936
55.6387
62.8569
64.8402
56.0524
55.0774
59.4312
55.9847
55.166
63.9494
61.6222
56.3569
56.7942
62.3814
61.11
51.8733
72.7943
80.3953
85.372
50.7505
50.094
86.3948
54.6889
53.3714
54.3141
164.425
1211.6
54.2643
60.4072
52.1429
65.5817
63.9407
59.1192
55.1503
175.635
64.1833
100.456
1317.72
66.3811
82.0631
596.675
1165.18
261.457
215.573
80.8704
363.217
50.1861
57.2159
52.0819
54.3889
51.1089
203.612
52.915
56.7029
57.9654
56.6329
56.4196
49.848
53.2165
56.3368
52.7501
52.6852
64.4803
56.6209
410.828
76.7222
423.826
76.6685
161.816
56.0881
83.4508
64.3202
1019.07
62.4014
85.0618
220.661
620.039
251.255
335.452
315.532
66.9477
264.239
56.5369
1019.67
165.83
57.552
56.5077
54.6519
58.4424
119.157
55.7449
340.475
57.576
57.0938
56.6211
100.377
83.3019
240.389
77.278
874.79
377.801
178.675
87.644
54.5748
63.0378
99.1029
61.219
57.8413
55.9108
60.4818
67.049
51.1421
86.5254
133.582
92.312
53.5318
74.0045
54.5416
61.9629
53.2773
61.7679
55.8253
54.2639
106.05
417.33
213.123
81.1346
101.121
292.516
92.9542
167.883
55.0746
52.2151
52.9305
85.555
73.2114
54.9377
53.9286
55.3625
53.7717
51.6356
76.7859
54.0751
59.3651
61.8433
52.0685
56.0293
53.7845
55.6702
53.4067
60.9911
145.014
65.8739
127.178
57.6471
118.644
95.7674
74.6516
57.2908
50.7182
53.4738
75.0087
63.8744
52.8214
50.7278
52.2446
127.589
121.736
95.7885
128.118
157.217
133.145
68.6268
61.2221
51.1482
51.605
52.6548
53.7303
65.8565
52.0355
54.6592
68.46
59.666
124.638
52.8975
91.3126
58.0233
76.9581
120.347
120.829
51.2615
50.2338
75.7368
101.995
67.092
66.7636
52.8349
61.7019
68.7761
67.7534
52.2
54.4172
52.851
51.1473
50.8309
53.6107
81.432
55.5821
101.415
49.5779
52.1811
54.8005
58.6915
56.4419
56.9682
74.1286
52.5022
53.1188
52.764
52.8531
61.8674
60.5959
52.8498
1034.16
355.869
795.438
786.637
52.6645
90.0967
90.5855
53.8401
105.197
95.9963
92.4696
57.7978
52.8629
60.7801
52.8798
65.8643
61.8319
96.5809
55.8294
54.5671
51.7151
58.9009
76.8334
57.5418
53.6993
81.6131
55.4002
51.2756
53.6085
57.0282
55.6244
53.8618
138.335
53.2025
52.4571
61.4005
166.586
77.2744
86.1695
517.591
50.8665
78.0854
222.165
735.92
221.205
206.617
209.089
1455.18
314.768
517.322
95.0426
65.7839
54.9628
52.8791
53.5377
921.359
52.5867
51.7051
1084.39
52.4146
1095.88
71.2693
51.1958
50.5658
50.8221
51.0895
50.3371
51.136
52.7825
50.1971
50.5165
50.7197
50.4403
50.8227
57.848
51.9439
54.2356
56.9118
54.2945
53.8886
52.0186
59.4855
51.5296
82.8561
86.392
55.6763
56.7945
54.1121
54.6152
50.1159
50.5627
139.054
55.8621
53.1938
51.6513
53.4938
76.6218
50.2334
66.5343
116.603
63.244
51.2388
50.7593
53.5969
54.2072
51.5718
58.4177
54.9325
51.4117
50.4339
50.4629
51.2754
55.2886
53.3789
54.0893
53.6968
55.6671
55.1161
63.1234
59.6236
52.7806
52.0239
52.7875
53.3998
52.6802
53.2393
54.719
133.171
51.41
50.9356
56.7084
571.625
107.232
55.4128
96.4877
53.9105
59.6175
52.0448
57.1264
56.0713
51.2167
51.0632
52.2171
52.9249
56.6888
50.7662
133.67
55.0823
52.6017
52.1218
51.9669
51.2182
60.0082
59.0426
82.1986
79.4729
87.1312
102.199
56.6077
55.0518
55.7944
455.671
128.012
56.3909
52.7424
51.9306
104.071
87.0257
54.3689
941.653
58.842
55.1143
53.5137
52.9406
51.1228
52.0639
52.3759
50.4421
103.458
949.971
51.8552
771.919
63.0345
55.0903
62.0461
73.4966
55.1738
63.0791
87.4457
61.5659
52.4445
1143.47
53.3057
52.9789
55.7923
61.2914
55.2143
62.093
1172.91
454.548
1174.34
196.42
265.962
1159.59
144.007
56.0181
51.7588
569.591
53.0068
83.5077
58.1989
53.5954
103.393
102.728
54.8978
53.9792
52.6513
52.4127
53.259
57.6754
62.8751
55.1855
55.8666
55.2912
53.0103
92.1915
57.286
53.2626
107.199
67.8827
79.7577
51.8159
55.3062
55.0076
55.1079
50.5643
56.9634
52.8932
80.1794
59.0871
55.1012
55.125
54.2047
112.164
74.4504
95.8526
50.3572
55.5427
51.5838
54.5806
54.5157
51.6351
51.965
53.2211
55.11
800.195
63.898
51.2268
58.1874
67.5785
77.4406
58.7685
53.4272
52.6313
57.7368
55.0287
55.5484
61.958
54.2973
50.1297
54.9128
78.7354
115.011
399.679
60.7798
57.3922
54.2893
62.2001
56.1227
57.0246
56.5894
61.848
52.9349
116.385
56.6264
55.723
105.189
107.68
1155.95
1084.53
291.32
53.6266
91.4296
65.964
62.3585
55.6002
57.1139
56.376
58.3896
57.9449
87.0435
59.8878
57.7291
93.2727
61.9137
56.3776
59.271
58.0547
109.386
1281.94
66.6288
55.6779
55.9641
68.1204
241.91
60.7501
60.1376
91.0545
64.1015
56.3444
56.5905
300.932
62.7512
55.8805
56.9002
53.2309
52.6307
59.8463
54.3708
100.988
51.9754
83.6688
67.2826
78.0236
246.455
70.7476
55.018
56.5668
51.0172
52.6799
54.9322
53.6259
60.8828
51.1487
55.7192
58.0238
51.6473
99.0681
50.6637
52.5119
55.6485
53.5811
51.3074
50.3248
55.5302
64.9865
54.381
51.0669
54.8982
51.9079
53.9878
53.9021
53.3521
57.5458
57.2707
54.479
54.1864
60.4735
49.6668
50.7489
71.2447
50.2361
54.1746
53.7057
114.227
53.6212
60.3827
53.9152
51.5461
60.298
63.8042
51.6283
58.6895
52.79
55.2089
54.7944
54.0991
53.0295
54.1841
57.1754
102.834
53.1946
62.5889
52.6235
53.4343
56.356
55.7663
68.9568
303.334
52.3302
70.6498
51.2204
52.9068
55.1952
55.8319
54.8245
53.6007
62.2319
53.7432
53.3742
51.4698
56.0686
77.8231
748.693
55.4519
55.9162
54.1116
52.4396
54.3029
52.1532
53.5743
52.9026
53.0363
90.8977
52.5076
54.2926
54.659
53.776
57.5737
55.6193
53.4643
104.679
53.2112
55.403
53.7818
52.7716
67.7512
58.5179
53.4391
54.2116
53.4726
54.1879
53.3517
63.2725
56.2377
51.6263
1300.08
59.8789
57.3909
1433.19
53.5341
62.1509
56.7589
326.295
54.7654
52.3732
99.2235
101.293
161.25
66.7807
807.623
1057.42
53.3558
52.7699
54.9768
53.1212
51.1517
201.721
56.8176
56.7291
69.2348
63.5745
809.053
63.8358
79.6003
56.3745
54.1038
242.817
170.227
152.032
52.0808
1270.65
312.279
235.857
241.413
134.113
109.893
58.1784
57.1579
57.1092
58.0063
55.0741
54.9891
53.5717
53.2875
255.593
52.8197
61.5737
53.592
51.4654
55.675
59.6756
54.2939
53.6596
53.3738
56.8347
54.5599
50.8159
50.9707
51.6724
50.993
52.0358
51.9701
54.6783
51.5602
51.5556
53.6539
74.5333
51.249
53.1149
58.8759
94.4167
53.4001
114.712
73.1659
76.2178
81.6388
55.5827
55.6586
55.1951
52.9561
57.5281
116.534
63.9627
57.56
63.4283
184.72
384.523
343.163
315.464
64.0193
59.1319
59.3236
53.8397
54.5335
52.9904
1332.53
220.464
54.7548
55.5295
761.226
53.1025
59.1535
56.3135
53.6518
53.0129
54.2225
57.2207
70.2609
63.2111
65.0694
73.1334
55.5229
54.8152
55.4119
54.5648
52.1761
52.146
54.331
53.752
306.113
62.3118
259.902
57.7643
54.2415
54.3319
55.5848
56.2083
51.7185
50.5778
52.4502
52.4114
50.132
51.2273
50.4696
51.5274
52.3738
50.6873
50.5182
50.1139
50.4495
54.0159
53.7847
54.2619
81.2317
82.0704
55.3135
78.1839
131.668
161.23
162.414
77.2224
72.0674
125.376
121.428
76.9261
54.5931
57.1681
82.8561
85.9745
61.4749
57.2869
58.2496
55.6334
56.9995
58.5094
55.1351
56.7807
95.1558
54.0796
51.7063
53.7211
50.6447
122.873
50.3888
63.5041
140.147
56.6747
54.0072
54.5546
109.289
56.8163
53.3661
84.7867
54.8495
52.7386
54.0264
52.8651
53.577
133.223
121.765
50.5485
51.0888
52.3465
51.6044
52.1109
905.368
745.709
380.689
762.978
679.784
56.0002
56.3547
54.0515
567.81
53.2412
54.3414
49.7093
58.5407
50.5715
49.7404
55.5923
54.7739
54.4477
68.1038
50.9293
51.417
51.0043
69.6186
50.9375
57.2379
107.26
95.704
58.4863
50.9168
54.0528
84.6541
73.1018
62.8772
63.1399
49.8153
49.9775
49.7717
51.3557
53.8019
54.671
54.2415
53.3163
60.7242
65.9686
110.473
62.7339
114.847
65.7207
52.6138
52.018
54.4695
52.7846
53.9577
53.7318
55.632
64.7813
60.0214
54.3428
99.8523
54.0078
68.621
53.3295
1296.14
65.3404
57.3383
50.7363
54.5038
52.2194
52.2275
52.5198
57.1776
51.4724
1251.65
52.9769
55.1727
51.32
54.1357
96.6079
52.7141
53.5897
55.0163
52.4549
53.4265
76.6067
84.2405
135
78.9473
54.3573
54.3022
52.8118
55.2163
53.7575
52.8049
53.411
62.7086
62.3452
53.5007
56.0709
53.3488
60.9001
53.9171
53.1615
62.5763
56.0237
51.9924
53.0214
55.3863
55.5615
54.3412
53.1282
51.672
52.7694
55.7735
53.8194
55.1952
56.3533
49.4767
52.2832
54.8563
61.6329
84.9118
175.67
59.0689
52.3899
54.7888
53.9127
56.5154
54.1773
58.594
56.4391
55.1548
54.5344
57.9302
112.329
60.5103
53.5683
53.8184
53.7773
53.7702
50.9872
51.8216
50.7923
52.6023
51.1284
51.3011
57.0831
94.422
374.841
53.772
1453.06
73.3274
50.6785
52.8543
51.1542
56.5794
52.1525
50.9907
52.5995
54.5184
53.3862
60.8229
64.9268
53.8205
59.542
51.5285
53.7239
53.3912
124.653
105.547
51.0421
55.0222
51.7547
50.4061
50.5662
54.6158
56.9238
82.3548
60.77
66.7302
62.2885
1264.33
57.0882
72.8955
87.6769
782.46
66.5863
634.689
54.1838
53.2543
53.829
56.5262
63.7975
60.2845
55.9347
56.5614
54.1203
53.2695
56.9649
174.252
81.2598
55.5567
53.9365
1231.57
61.0208
725.062
71.7277
64.3502
84.9274
74.6359
54.8723
54.657
55.7452
54.9413
59.5768
67.9573
570.914
81.655
73.363
63.1192
59.7975
65.7764
64.3282
63.2348
82.3278
64.4079
55.6638
66.6211
54.2809
52.6478
53.6302
53.1882
121.526
56.2957
54.2421
58.2563
55.4086
54.5471
55.6552
90.3131
55.6067
53.5314
52.0008
61.0246
55.9018
68.5938
73.8988
54.452
53.375
61.7881
59.781
51.861
51.6665
53.1348
76.1924
52.8991
65.2916
77.9829
54.6148
56.1652
53.6729
54.723
53.2291
53.6013
57.5799
53.5547
104.62
53.9128
53.1973
52.2039
52.6635
101.725
90.9681
52.5706
138.513
99.4786
111.897
51.9152
109.584
55.8738
175.044
57.0823
50.7591
65.0593
91.6836
62.8676
54.2741
136.148
120.295
119.744
54.7947
49.9285
55.7522
50.4278
58.8006
61.2829
51.3318
54.0245
49.6972
52.6847
50.5701
52.4304
50.5476
51.0292
55.1627
54.6724
55.5875
54.1809
55.7299
53.68
51.6362
54.6691
56.868
803.226
52.4222
60.0259
54.4212
54.569
55.5221
52.9746
52.7676
53.1363
54.8309
57.3817
62.1437
54.62
55.7741
191.189
62.2099
58.6926
99.3348
49.2818
49.2312
51.6839
51.7082
51.3276
55.2568
53.5119
51.7845
54.0737
53.2529
64.3349
62.0844
58.509
59.0456
57.7833
54.341
54.8363
53.2504
55.5184
56.7296
55.5972
60.4249
55.6013
57.4457
66.4036
116.392
72.9778
57.7083
51.3898
131.195
52.6931
53.0787
78.2967
52.7684
50.8436
72.7934
54.2942
55.6665
63.0348
52.145
182.024
222.352
50.9658
94.4716
64.4166
66.1658
51.7711
56.4934
54.7933
66.9853
56.2346
251.185
1011.14
963.696
64.0137
169.448
57.45
50.8531
52.1147
52.2356
51.1557
65.5032
57.5775
60.2375
57.6313
64.8914
57.4773
54.2665
54.2598
53.8908
56.0919
56.1883
55.0657
55.2919
52.119
55.5132
51.9378
51.8601
54.9364
50.8183
51.7329
51.9686
61.1422
81.5489
54.0629
156.99
66.0069
54.7026
54.7445
1053.41
1160.67
132.77
898.963
87.5856
1160.54
141.051
51.363