/*--------------------------------*- C++ -*----------------------------------*\
| =========                 |                                                 |
| \\      /  F ield         | OpenFOAM: The Open Source CFD Toolbox           |
|  \\    /   O peration     | Version:  2506                                  |
|   \\  /    A nd           | Website:  www.openfoam.com                      |
|    \\/     M anipulation  |                                                 |
\*---------------------------------------------------------------------------*/
FoamFile
{
    version     2.0;
    format      ascii;
    arch        "LSB;label=32;scalar=64";
    class       volScalarField;
    location    "0.0100321";
    object      p;
}
// * * * * * * * * * * * * * * * * * * * * * * * * * * * * * * * * * * * * * //

dimensions      [0 2 -2 0 0 0 0];

internalField   nonuniform List<scalar> 
3972
(
57.0746
57.9732
39.7963
37.9431
77.8096
45.3444
35.646
59.6334
56.9234
50.8363
47.5413
59.3806
31.5154
51.6322
46.5372
49.3259
45.8679
34.68
45.7864
43.2217
-37.9658
17.7608
50.8525
34.9306
-85.805
55.749
46.0661
49.2377
24.0594
53.5198
5.31911
49.4597
51.4823
25.7687
54.008
47.5366
32.3604
39.2215
50.6805
31.8632
35.0328
33.9719
54.6177
21.7766
43.0221
46.9246
53.2941
22.7435
38.4935
52.2381
36.3116
46.1853
28.4332
49.8681
40.5405
44.0225
41.0226
51.7578
51.795
15.1555
46.5908
56.345
55.0748
40.4213
38.5634
26.5052
28.0886
49.9012
31.8678
20.9148
34.7363
35.3675
13.8975
46.2602
25.0276
51.2088
43.9415
40.946
44.215
31.7027
42.8384
33.4461
53.1385
45.1967
51.8419
42.6173
46.2752
46.5777
49.3351
49.6139
48.1435
33.3308
49.093
50.8195
51.7387
44.4047
47.9174
35.2926
42.589
51.3923
49.5582
39.9398
49.9433
49.4348
40.0272
49.1655
59.0182
36.2498
29.126
35.7657
55.5145
43.8117
48.001
46.5716
44.5815
33.3865
54.1658
38.5585
38.5297
45.6763
72.8803
45.3955
49.0852
42.5803
51.5739
-12.5292
57.3464
2.56002
5.04754
-14.9425
-4.40839
55.5387
9.58564
6.68705
47.022
42.887
44.4278
46.0792
54.1703
50.3966
38.7981
52.8964
64.5053
35.838
38.4481
55.8679
29.7846
52.9669
52.5029
42.2016
51.4793
50.0394
52.8751
44.2704
42.1085
50.0665
44.794
35.9716
38.6951
32.9967
53.4606
53.0484
34.6061
32.3896
54.1603
59.4028
32.1108
21.8464
53.4632
29.8372
24.0944
42.1442
50.7132
51.3266
42.5238
43.779
49.6368
51.1641
50.2075
51.5513
54.613
56.3117
33.7079
26.6598
50.1743
48.9141
48.8707
47.2644
48.7849
-24.4117
50.2123
48.5599
22.3938
49.5465
38.4318
50.8917
43.1135
44.1235
25.3529
43.3497
45.7063
48.3205
31.8474
43.2951
53.6844
41.113
53.2328
39.046
27.3941
35.0203
41.4338
42.8225
8.31021
9.89762
44.4465
42.2513
18.561
36.3326
35.313
47.6922
47.3619
68.5011
34.1131
44.8101
30.3933
48.4082
15.8319
18.7412
-9.14875
30.163
-23.9952
3.58448
69.582
86.7547
43.0748
38.9839
36.0439
51.3425
54.2646
49.8017
55.4728
11.101
76.7208
64.3671
33.7144
42.8884
48.0724
40.9595
34.0734
40.9014
38.9478
73.6136
43.2824
42.7646
38.1668
36.0878
75.0455
72.6325
34.8943
37.4046
14.1372
34.3284
48.5432
35.1321
42.915
36.9292
40.6192
61.6715
57.9921
34.463
45.7062
28.987
83.2632
17.3776
30.3793
47.8533
31.9695
38.5498
39.4495
50.5383
45.6654
10.9143
43.7834
82.693
-55.5949
53.3327
35.3539
38.4321
34.5063
52.4258
38.4824
59.7017
45.2655
38.9097
43.0406
41.6959
37.6993
39.969
53.2778
77.7363
48.0628
45.9876
38.4836
30.2191
35.4929
37.2577
57.5994
41.4283
37.932
41.4117
42.0822
35.5178
51.661
36.9851
-29.331
52.7387
35.5676
34.6252
36.12
38.6693
15.9445
69.6429
31.9481
48.7457
49.2788
39.0641
48.3653
52.5027
35.1273
41.9009
35.5977
24.0841
47.1773
42.6003
50.5266
49.602
36.5899
32.1191
54.866
26.0819
34.7366
51.9469
34.6559
35.1448
35.8241
49.689
56.0496
57.6905
40.1688
31.4429
38.7638
39.4058
43.0744
43.1254
-45.5463
51.8344
80.1293
43.8692
48.9789
48.4428
50.2274
48.0955
36.01
23.1862
35.507
35.3831
35.3537
45.8492
50.6161
51.1726
41.994
45.46
48.8034
43.3016
37.1607
34.7173
35.3046
38.4104
35.9414
37.0184
40.3335
37.7072
40.1366
30.3644
42.3857
32.3382
46.2695
65.6248
37.7967
40.1672
4.33897
34.7714
17.6742
34.801
16.614
37.1051
-69.5428
-24.1722
52.4533
45.0146
51.7341
38.2986
52.3017
38.0807
63.2356
53.1271
36.2905
15.9811
35.9696
34.1798
50.5687
24.0479
32.711
33.4436
48.844
65.3898
44.6349
34.8159
34.7987
41.7013
34.6311
51.8166
51.9711
43.5398
36.7494
35.0196
55.6218
38.5577
51.5633
44.2373
35.6856
35.09
55.0401
45.8787
48.0349
59.3904
41.3302
38.8293
48.4803
45.2133
41.6308
41.2045
49.6375
41.4816
35.3666
34.0289
52.4964
45.3194
36.9078
48.5222
43.4597
33.9302
41.886
33.026
35.9491
47.5542
55.6988
34.635
16.1206
31.5124
61.1443
41.2862
36.0917
45.1745
38.0637
26.2252
53.4735
56.098
42.7823
55.8602
39.5105
43.9919
55.9043
43.0271
44.389
55.3964
22.9709
87.0471
32.4507
32.8304
28.7442
27.5608
23.6392
23.4658
20.4989
52.269
50.5231
22.8726
53.6881
47.8742
46.9716
46.1488
6.95045
29.2589
11.9774
0.0384425
26.6412
42.7263
43.6816
44.9304
45.1762
25.8115
36.878
34.2488
34.0216
52.9476
44.8628
44.8109
46.7357
47.0349
20.4115
44.5802
19.0411
15.0173
52.1379
50.9312
47.3178
35.3075
32.8067
29.2144
40.8246
43.77
37.314
40.0734
53.2752
34.7452
53.0021
48.5647
22.8426
48.3479
27.3779
21.6142
36.6824
32.3308
29.7625
53.6884
44.2276
40.2367
39.1289
40.326
39.2572
52.2767
54.5067
51.6603
37.1511
37.3713
57.4346
52.4945
49.9356
45.1712
37.6915
38.7761
45.8137
42.17
39.7377
44.7298
40.7107
27.8575
48.5101
40.3286
34.5796
60.9124
39.1481
23.0035
40.3455
19.0611
21.1236
14.8423
39.9927
69.3787
53.8575
43.3394
43.9937
36.7171
32.1998
36.2391
46.6393
37.8372
37.9226
46.6371
37.282
36.7818
36.8202
37.5571
34.2697
35.1785
41.4415
41.9371
41.6394
42.361
63.1348
23.2137
-12.7922
11.0203
58.9572
24.726
36.0796
35.5284
39.1928
51.9952
36.2318
37.7019
35.3202
36.6556
59.6429
68.1695
67.7074
49.3465
77.55
35.3212
35.4186
46.5835
30.3344
43.6626
43.5685
43.9734
44.0451
51.0234
48.3587
50.2373
51.4506
49.7602
50.0869
49.3826
48.1504
37.6524
38.0726
43.4052
45.5069
49.8353
56.5107
56.3668
52.0124
28.5488
28.4619
44.7364
40.594
50.2081
50.2626
51.01
50.8388
61.7095
58.6315
51.0851
51.3074
29.0763
39.3295
9.59425
24.1944
27.2288
38.4243
29.4117
-0.727523
-9.90248
37.884
38.9963
39.4411
40.2517
39.5606
64.6078
71.0049
67.6983
43.7001
71.3495
39.9955
35.8
35.7231
37.5237
32.3339
34.6199
42.5119
47.0467
47.3916
46.7135
47.3588
46.0804
46.2777
49.3662
43.6437
50.7388
51.7923
54.1101
31.9335
32.8209
39.355
41.3303
53.8272
42.547
50.8469
52.6288
51.6067
16.5757
53.2225
54.0862
53.2737
34.8459
53.6298
42.1887
52.2029
49.6446
54.3248
38.9493
50.6546
46.3768
51.7581
28.9893
44.4715
53.3288
54.4778
52.5416
34.331
36.7277
41.9262
49.0662
4.8707
43.3598
45.9678
48.9
50.0798
43.7058
56.6255
52.1142
40.7913
35.2387
42.4899
46.285
50.0528
42.9184
42.8062
40.2751
46.7259
47.706
46.1384
46.8725
44.2648
44.6174
46.1537
45.3512
51.8192
53.1555
39.1332
36.4856
34.0854
35.6398
39.3943
57.7407
51.1164
39.6092
50.9499
37.3773
50.395
37.7034
50.735
51.0594
56.2058
56.59
35.6127
26.1089
-3.54709
12.9014
72.624
-17.1306
55.1397
56.8422
36.4116
48.8923
41.8372
49.3335
47.9445
30.7038
36.8976
35.0932
52.7719
47.8618
48.7287
48.014
47.3324
38.936
31.8108
24.778
36.6495
36.5041
35.6746
33.7091
22.8839
25.5228
46.0704
28.3934
46.2382
39.315
50.0255
17.1547
44.6641
48.9118
42.0601
40.9828
43.5505
21.5999
38.2313
36.0251
48.3435
38.2137
37.4041
49.0475
50.4737
48.8422
52.609
38.9586
-10.647
47.5677
54.8822
39.2557
51.5661
47.857
52.2928
51.9773
51.3833
49.4747
49.6726
61.5688
51.6376
49.7417
46.3031
47.3258
25.7065
43.9254
34.7262
19.2575
28.4329
56.0139
46.11
35.4373
44.9183
40.5061
35.4251
26.9238
29.5432
47.3317
14.9359
20.6495
-17.9356
84.2724
35.9427
35.7669
44.6496
42.1555
38.9127
58.6128
33.1384
17.418
12.3065
26.9235
36.4585
36.2573
57.9259
52.6609
47.2212
14.9393
50.0197
75.6757
52.5722
52.724
47.9886
48.2083
51.1562
42.587
34.7669
40.7286
45.7384
11.8261
33.9489
35.4067
39.0264
34.8378
36.8203
40.495
53.935
47.7095
47.2061
45.2867
53.7724
42.0111
39.5367
47.3821
51.978
20.4324
-7.11526
51.3956
35.9284
36.0773
38.482
54.2066
40.9547
49.1745
55.371
19.0591
47.5486
-0.915977
87.4313
40.113
26.8454
37.8444
38.3718
37.3456
36.8294
37.6469
37.2805
38.8513
51.8695
37.8959
38.2483
36.9278
23.9533
54.4061
47.8846
38.5261
38.2502
26.4235
48.6607
42.6496
49.2596
51.2803
52.5396
60.1058
40.5274
51.2585
40.1743
43.049
50.0123
63.2259
42.5665
48.0346
52.1243
47.978
51.4344
50.4985
59.4491
52.8144
46.2702
39.9013
52.8488
42.1879
51.7115
49.9501
42.4007
68.5541
-8.34559
51.1006
49.835
42.8908
40.2666
49.6429
48.0937
38.0959
51.4468
32.2543
43.7629
50.1744
51.9745
49.4844
28.2608
36.5287
53.8959
47.678
54.3712
42.4373
36.2129
38.9775
34.2495
59.4139
31.8026
7.73411
38.0197
39.8609
35.5669
48.4982
58.1886
51.028
-1.62224
35.9845
57.1998
75.4502
50.4465
34.5968
38.008
46.1634
39.4652
29.9507
44.114
40.8279
43.4337
-52.5049
52.0698
30.7484
71.3471
-7.48456
37.4277
3.48043
57.447
10.5368
-39.6773
56.3658
49.8664
40.2318
40.6123
58.0521
48.6035
35.9031
24.5506
60.6441
50.3626
45.0176
60.3161
1.93476
37.4166
46.0146
46.4126
35.3619
28.2133
35.2191
-68.758
30.2453
-28.0982
-20.0136
35.4847
25.6845
30.3595
44.4094
45.0089
28.6497
37.5287
40.3605
35.5823
35.2044
34.0705
35.6389
43.3865
34.1235
45.3392
48.2498
36.0893
47.6524
36.4743
33.1141
34.741
47.3054
35.6884
35.0418
30.9884
45.3357
45.4251
47.5534
34.6497
34.2772
36.0613
38.2438
34.0467
45.7622
34.8767
36.5358
38.2048
41.2797
34.0739
34.9757
28.2363
26.5758
51.9891
52.7655
42.2245
42.3893
44.3249
41.9829
51.6758
49.1681
37.5242
38.1259
36.7498
34.8931
36.0202
35.6831
53.3579
11.3037
52.9389
34.3996
32.5565
33.3512
34.715
34.8551
59.5126
41.3183
61.4688
36.4345
49.3106
53.1648
41.4248
42.9306
43.6203
41.4918
36.6771
37.8755
53.1816
38.1185
44.0401
38.2498
-49.6706
-2.44358
53.4281
39.2641
38.8631
48.9178
36.3836
36.0481
14.7344
51.7432
81.6184
44.6814
49.8466
56.1976
50.558
52.545
53.7413
55.5327
35.3135
36.3784
35.9752
55.5574
50.5293
53.6809
52.6007
54.7881
49.854
50.6305
49.3599
13.4017
54.3722
55.8747
29.4496
30.2822
37.4939
41.2938
-61.5148
36.0415
46.7062
40.9747
51.7358
48.7957
51.1124
64.9457
42.1035
12.9899
36.6038
64.3964
36.2515
61.2346
37.6706
70.0774
48.0733
66.5264
51.9261
46.2887
54.3549
49.3762
47.9997
51.4697
47.4855
50.457
36.8997
37.2424
43.9171
51.0297
53.3433
52.9065
48.2392
43.4439
31.6417
40.9177
41.5677
59.7851
89.3856
61.9941
57.4096
28.8707
31.914
27.8065
27.0759
33.4038
30.1072
42.0341
54.9561
29.6809
49.6809
45.2438
51.1332
64.4871
50.3152
70.8126
27.3207
0.737201
36.2105
-2.89702
22.5857
0.626803
36.1186
46.0527
34.7549
81.7642
49.6441
53.7561
62.6786
39.4875
58.7394
18.5576
47.4956
52.2766
46.0581
43.5736
39.5051
58.8705
36.4499
40.0087
35.0852
28.0752
34.2116
33.8827
34.3349
36.5335
43.4549
42.8337
40.3895
40.2526
38.2731
34.452
34.8006
37.1809
37.2386
48.5425
50.1118
51.0506
52.7564
47.3416
48.4336
57.0445
58.8989
40.9775
40.2597
45.6599
47.8817
46.2757
46.0342
34.5159
36.0291
46.2025
50.6208
48.6447
47.0473
53.1058
52.7616
53.2705
54.1389
52.3464
53.3203
53.8576
53.7656
46.2038
48.7632
49.1166
48.8213
58.1907
52.6271
53.5171
55.1191
52.8093
53.6793
56.6397
50.0951
19.6788
25.1877
35.3862
11.2356
36.7616
37.7281
24.6389
36.9822
34.4758
36.6361
19.1644
-38.4784
54.1927
50.4233
46.1078
46.4273
48.327
46.2452
52.6709
47.285
44.7878
40.3635
39.9137
39.8107
40.0015
39.8305
40.7841
39.1188
37.919
37.8031
49.8887
45.5027
36.7927
46.1049
41.901
53.5323
47.4784
35.508
36.5099
35.238
34.3994
41.5444
65.2684
51.0257
53.6712
46.2812
38.253
57.1435
41.9136
52.5061
55.1171
49.0622
49.3506
52.5449
49.1005
51.0106
48.6353
50.2149
56.675
49.7811
52.1687
52.331
55.0214
59.7854
55.8813
50.0398
64.2305
28.4439
25.0312
44.6266
52.8426
46.0137
23.8885
53.9639
46.8865
40.2797
40.3366
35.5717
34.8522
55.1204
54.0463
55.3319
53.7085
48.6842
48.051
52.5152
36.2475
53.9918
40.8812
34.8326
41.7938
41.9628
46.5972
45.7672
46.8229
42.5397
43.9632
46.5583
46.9166
52.7351
53.2155
47.5682
52.7882
47.5246
48.8531
14.42
29.0692
41.4654
41.7184
39.8827
40.6618
45.1917
16.081
41.7969
9.5652
42.5509
72.078
13.3647
45.445
47.3274
59.7826
45.2377
7.11894
30.1716
45.3091
80.4156
22.7564
98.294
96.997
-51.5246
50.2306
77.0562
88.9772
67.9283
55.4121
81.0117
45.2469
35.3717
44.4205
41.6333
44.1978
44.3702
38.8769
50.2323
52.8723
48.731
36.341
37.4183
59.3721
-30.9011
61.0299
37.035
39.8267
40.5095
40.9269
52.7374
53.1032
48.4525
43.7861
42.5973
44.1519
47.7095
44.9696
43.1731
-29.8982
49.9793
54.1887
53.801
54.6193
48.8365
46.5411
47.2212
57.9757
55.1007
48.2975
44.7021
52.2729
52.1232
47.7641
48.4743
52.7019
50.0713
42.3425
37.4336
39.5857
38.4453
49.7502
52.465
52.7023
48.1181
36.1441
43.0902
36.0895
35.9646
41.8381
44.7411
50.9499
50.3083
74.0073
40.0095
38.4342
36.6935
35.2093
28.2723
35.0208
34.0407
35.5757
36.6501
37.5368
36.6672
38.7539
37.3853
41.7856
35.5434
36.569
-94.6576
52.5886
49.5447
50.2725
54.2611
39.1735
46.7158
62.0532
41.4089
44.4488
59.8051
44.8437
44.4191
52.958
49.3841
47.5795
48.5087
-20.563
40.7504
38.7139
22.5764
36.1404
27.0515
41.2455
31.9167
34.889
34.2037
37.0399
35.4739
-166.877
36.4397
38.9333
37.9028
37.7952
38.5279
44.4904
47.8699
50.1836
38.1853
38.4122
38.3352
53.6776
51.077
53.801
36.1147
39.1449
34.9904
34.5491
47.7302
43.9789
42.6756
46.2913
43.7842
45.7632
42.2448
45.8006
52.3324
48.6721
50.1735
51.6641
51.296
47.8406
36.9556
36.9893
54.3366
54.8331
42.845
41.3296
48.6313
54.0135
45.32
54.7516
53.6146
-32.7919
46.2201
-60.7548
-58.9663
49.8026
52.039
51.4437
53.5944
56.6106
54.1939
34.2768
40.1961
-45.321
42.7797
21.2481
45.7288
51.284
48.948
63.739
58.0721
27.8411
61.6458
0.227164
74.1727
92.4601
-14.7577
39.2501
36.5281
34.3604
48.1789
45.6182
52.4653
47.7101
47.5697
35.8593
34.9261
37.5725
33.0164
34.4578
34.5932
14.2555
48.1214
35.4217
37.0334
29.3494
45.1625
50.9458
57.5117
38.2466
38.3531
37.7934
36.1106
42.3384
39.1922
36.6708
40.3143
33.738
37.8079
42.7352
35.4749
39.0895
38.5241
38.787
37.1372
41.6962
-50.0834
13.4663
34.416
33.7368
48.7565
20.6424
-34.6532
41.0593
40.2082
42.2482
41.6495
25.3965
48.4591
40.071
34.7341
42.9993
34.0484
46.5068
41.7258
44.1375
26.2678
39.5065
35.4754
38.4236
40.3731
39.6377
33.3603
48.9442
41.9949
45.2237
46.6298
48.7101
40.1048
42.8662
47.1541
31.9148
50.0536
26.2407
64.392
36.95
43.0704
51.6919
45.1739
43.7223
50.063
44.4581
42.944
48.6947
37.7142
55.0491
-14.3928
44.2365
49.042
15.8139
42.0402
37.3242
41.1596
38.5046
40.5123
39.0979
6.60021
47.9183
41.8719
50.6221
50.2716
49.059
35.5035
31.1401
47.4198
35.638
49.4886
35.7869
33.4192
34.7995
34.5569
35.3046
34.3249
34.6348
56.2983
36.1395
30.7384
35.1321
30.8473
33.9993
17.5589
34.9474
36.3507
35.9755
29.9351
35.4688
36.1072
35.9674
52.2296
21.6864
25.8222
25.0157
26.9673
37.1797
29.2509
32.0738
32.2723
51.6419
57.088
63.4859
51.4506
49.5346
49.3198
47.6073
50.2247
36.4786
46.8785
44.0541
36.7543
42.1584
49.3781
47.4794
52.0903
36.454
33.7885
35.7899
35.7281
38.504
41.981
39.8907
49.8035
41.7989
40.8372
30.0243
39.6417
30.0124
38.9787
48.7629
45.9755
31.7825
37.147
40.7319
40.3282
44.2289
51.1334
38.9031
44.5484
34.6117
51.6731
54.3215
52.0835
47.0767
35.4271
34.0998
36.4544
38.707
34.4592
42.9957
57.0146
50.1235
40.8331
43.7549
36.8167
51.3629
45.2661
38.9423
48.5628
43.7723
46.489
44.1684
53.3085
48.8541
41.1596
43.2255
41.1162
49.6568
39.7906
44.6092
25.3345
34.3948
39.1398
42.477
40.3664
44.7421
50.423
48.8744
50.2705
-17.4068
55.4996
48.5696
-20.7414
51.1951
51.0376
70.6586
75.8879
64.1145
55.5039
52.4996
45.0873
49.1816
53.1751
53.965
45.4536
47.6301
50.3067
63.9422
56.375
31.5516
37.8593
33.4015
47.5932
32.1844
37.7008
40.7898
52.03
46.2514
52.2077
-7.0566
7.33425
11.4914
19.2851
9.80553
57.7552
54.8817
-17.0631
38.7678
37.7842
39.6323
52.0864
36.9517
61.9516
62.9889
55.5095
37.8413
40.2709
42.4754
33.5198
33.6201
31.2312
32.1328
19.5231
36.2382
20.0268
17.6834
47.11
56.182
50.8781
20.0742
36.7097
34.4595
31.1552
44.0872
40.4788
39.046
46.327
45.4647
55.3425
53.9054
49.8433
51.5457
49.7068
47.4798
51.2066
51.5103
50.7388
51.6061
45.5144
49.4823
43.7162
38.7897
45.9822
45.1289
38.0988
39.0408
38.4267
36.8541
35.4826
36.5294
40.0462
51.1151
55.242
49.1095
39.6581
66.3062
50.0173
55.8815
48.6863
51.4423
41.9431
36.1597
47.9013
48.8751
52.8416
50.1363
52.7788
53.8238
42.2809
36.5894
53.6589
35.7188
32.9007
36.9102
72.4111
31.0771
38.4745
75.0037
-0.620334
4.16814
44.4156
44.209
42.877
-22.9084
41.9748
44.4931
40.6804
41.5458
41.6944
63.1812
60.5023
52.8553
50.9176
52.9951
54.5583
52.6716
57.3943
42.4757
52.2615
47.8133
23.4975
34.2726
44.5244
53.3677
54.6454
52.6933
56.807
-17.5485
-169.512
66.0399
24.8758
-152.927
60.7365
60.6369
64.0975
49.0347
70.5122
-18.4889
39.2358
38.4452
36.7148
37.9074
37.1958
37.9128
38.6188
39.053
37.2083
34.412
33.8048
40.7447
40.3301
46.9285
54.1374
54.4102
48.821
44.3528
44.9954
45.0425
55.7817
44.5566
44.0484
56.6117
42.9789
43.8537
43.6581
45.7361
49.2312
44.4212
54.5688
55.2566
45.2919
56.0741
51.57
34.4597
49.7456
52.9511
39.845
38.8227
50.7778
57.0027
50.6235
52.339
52.9863
50.7479
46.4054
46.5816
50.695
35.7549
33.106
34.6136
36.2097
35.4137
37.7636
38.1211
42.0355
36.489
35.5116
40.0518
39.2992
41.8135
45.7062
32.9067
32.0496
45.9461
36.8949
-2.98692
61.0366
48.3998
51.3331
53.418
51.9528
36.0396
36.1434
50.4723
35.2047
41.5276
44.7298
36.4729
45.0899
39.0411
50.0623
46.7599
51.7378
50.8605
44.868
49.5407
50.0047
48.0456
47.6514
39.7295
44.0511
52.4405
51.0836
53.0024
45.4083
35.7351
45.4887
43.7839
41.7018
45.0669
43.0852
39.9156
38.5574
38.8915
38.8675
38.8054
39.3328
41.4579
41.414
38.2423
34.4164
35.119
38.795
40.5646
40.5118
36.7529
39.1319
47.1969
38.9989
30.2034
37.8907
34.6159
38.0377
32.3634
23.5719
35.7702
53.7086
46.2605
52.3408
50.1189
53.1805
39.9028
49.5085
51.2276
49.7009
48.2318
54.0716
59.6843
53.5395
51.5502
53.2545
50.3853
60.0614
43.2663
40.3628
43.3874
51.6238
52.7282
52.6732
35.2838
34.9611
35.107
35.6764
36.2758
39.1088
35.5958
38.0161
59.7805
43.529
11.5658
-46.1704
49.932
49.8273
46.467
53.3505
49.6687
46.2824
33.0707
51.5051
67.7457
51.4377
69.4356
50.63
41.4786
84.7949
79.331
53.055
83.7198
56.3369
53.9895
48.5781
-58.4868
-10.4513
-35.6905
52.4086
53.3859
-40.3376
-59.1138
55.1623
54.6625
62.1208
28.3978
38.4181
52.1783
51.4069
35.51
34.4345
50.9062
45.4119
80.7626
35.387
34.7716
50.1687
49.9417
48.579
49.2245
51.0997
52.6245
42.1551
39.6825
47.6086
55.1701
49.9616
40.2915
40.5104
45.0095
41.1091
47.9389
45.497
37.3763
41.3217
59.5922
49.7622
55.1343
33.4997
38.3838
35.6061
37.1766
36.2642
-36.5119
43.6223
62.1199
37.841
38.8722
41.8531
39.9732
42.9335
45.172
35.8657
40.8023
32.9261
44.4824
43.0217
46.8791
41.6436
45.5868
45.5379
42.1783
43.9333
37.2341
39.9068
44.3517
35.2319
12.7452
29.7722
34.406
37.735
44.0592
14.338
43.645
43.4648
54.8206
46.711
51.6038
34.2531
43.4922
45.7644
39.059
44.9031
35.8833
41.9033
59.0651
55.2646
36.7722
49.3374
5.30439
34.0214
30.9427
34.32
35.0344
35.7484
38.2384
20.9509
26.1841
34.2037
34.3803
35.2308
33.2904
35.6742
36.7212
35.3445
35.3616
32.6485
35.9002
37.9289
21.3033
36.0297
34.2569
34.3969
38.971
36.1546
36.1401
38.1287
35.3668
35.3342
35.1744
35.5289
35.5406
35.2092
34.7436
35.0933
39.117
35.3666
35.316
35.4398
94.639
34.1791
35.404
36.7337
35.5797
35.9195
95.2756
36.5163
90.9246
36.7084
35.3587
36.5295
36.4006
37.6717
74.4632
59.0809
37.187
37.2783
30.1308
34.9129
55.4603
49.3704
40.4262
34.5948
44.1687
39.9539
53.6297
45.038
43.2394
47.0751
37.5665
36.6672
37.812
34.9496
35.5741
34.7452
35.1215
43.6166
37.6252
36.3177
43.9495
56.3432
50.1744
52.5269
51.9695
55.0105
64.0548
33.1473
26.1993
31.9358
32.1798
27.1446
48.7038
50.0449
29.7591
46.811
49.1634
33.301
43.2957
14.3903
43.1718
42.2455
37.3969
36.4744
18.354
65.0093
15.7038
25.9463
40.4823
24.9469
41.3232
59.5478
76.647
45.5397
31.188
46.6932
46.0236
34.9646
46.8021
48.2807
43.3546
52.1242
43.9343
51.143
50.5447
42.0067
51.0344
41.1447
46.3115
14.7022
39.6058
43.0665
45.9391
43.3067
42.2966
41.9415
48.898
39.6436
40.1898
35.5628
72.9265
60.4517
53.0119
53.1877
88.602
16.614
50.0873
32.8114
33.8358
39.7823
31.9459
40.3836
41.6178
45.541
43.5622
37.6166
43.3011
64.2045
41.1682
42.8387
42.7499
48.1375
45.8212
54.309
49.4922
47.4228
70.3473
52.627
53.8637
51.8945
51.7606
49.9889
49.0043
79.4973
57.4492
52.2148
34.1084
54.7111
67.0224
35.2742
56.9508
46.9763
55.6307
69.3735
29.1878
29.3109
34.5557
30.223
80.2908
-215.698
55.3923
40.1869
31.4173
88.1766
55.6305
45.3379
50.6282
51.2073
51.9777
70.2646
52.5728
44.1779
44.5116
47.1617
48.1161
48.219
36.7532
39.2982
37.2783
40.7458
30.4018
41.2685
12.9416
66.8271
8.45037
62.0953
38.8737
37.6245
23.7863
29.2895
-44.8576
29.9833
26.09
15.2638
-15.567
69.7545
-10.7201
-6.17693
34.0259
66.5651
38.2181
-8.1219
55.5897
36.9503
37.5541
41.9546
39.4869
57.1973
37.5413
20.6962
39.6911
35.998
35.5965
18.3679
61.713
4.2211
23.0455
55.2303
-2.00108
20.9955
49.3226
35.6234
60.6514
50.788
46.5104
50.7841
50.2112
62.931
60.3554
52.4168
70.7258
68.5663
72.7977
48.623
31.991
54.3746
60.0643
57.7793
61.5348
44.9343
46.3641
19.5709
7.83387
68.2327
65.4463
57.647
31.8076
39.5258
66.2795
42.8387
42.0788
44.1623
40.1253
38.2274
49.8205
45.924
58.3795
47.9327
55.3448
51.2361
47.0667
32.561
27.8876
52.0817
51.3372
34.8808
36.205
37.1711
37.3535
41.642
37.6499
35.8246
44.9391
39.227
41.3181
43.1014
40.7169
50.745
35.402
24.1721
48.8514
52.5549
52.691
52.4713
37.408
42.5153
43.6651
37.7176
39.6974
43.2436
39.2238
53.0183
53.1221
55.6173
45.2351
50.9104
49.566
54.8429
40.2716
39.9128
53.3489
51.5783
36.5606
40.9623
40.0062
49.0416
38.0888
43.7913
46.8467
47.1788
48.6151
48.9805
46.4561
47.0322
44.0351
52.8852
49.1546
54.1603
53.9379
51.6652
50.8871
54.5347
54.2225
43.308
50.2971
51.9
48.9187
49.9937
44.6592
39.1166
45.7473
39.9869
43.5062
37.333
36.6565
35.8653
40.5525
35.7929
38.1434
51.5605
39.8328
55.7458
86.9171
70.4161
78.9586
38.3598
42.9997
44.881
40.0606
41.9433
40.8135
43.0291
42.6667
52.8693
50.3351
34.8498
38.2461
56.2606
38.3924
43.7778
46.7518
53.5751
42.225
39.4524
41.8847
41.88
43.1874
41.9736
48.5952
45.5979
47.5541
49.9909
37.878
39.3358
37.3775
42.9241
47.0656
23.4636
22.893
22.8665
-2.15405
45.0378
69.4848
70.2273
7.32698
49.7914
36.9108
58.8649
-78.4928
54.3717
52.0339
60.931
33.0155
53.4574
49.0702
48.1962
-25.0219
44.3899
43.4029
-42.6403
43.6618
1.95778
49.5877
47.8588
52.0875
51.6204
53.9166
51.9835
51.2336
50.3732
49.4393
49.3659
50.4093
48.6879
48.6792
51.9614
51.3653
51.2634
45.8791
46.8722
44.7288
51.7337
40.933
45.253
44.8493
42.4488
38.3243
38.9003
37.0931
38.6384
49.0406
50.8715
48.4916
42.2001
49.0667
54.0123
49.864
44.6463
48.2187
36.3011
35.186
43.0401
44.2271
45.0526
45.9955
46.6954
51.426
37.6279
35.0793
50.8982
49.8337
49.6505
50.4672
48.1261
51.3019
49.1714
50.7714
54.0648
50.2591
58.2108
56.2204
36.3363
39.9088
39.0849
36.4471
39.333
47.8532
45.1356
46.5986
51.2244
49.4282
38.3869
-1.85421
39.4234
44.2613
19.6581
49.8606
36.6775
48.3117
43.6238
44.0574
46.1158
49.731
53.2409
47.8852
47.868
53.9043
45.8206
49.6695
52.6935
57.2043
50.1967
50.3936
32.9018
33.1861
46.8657
21.7313
22.3573
22.6322
36.2741
48.9255
44.163
-20.3058
36.0282
34.02
37.6557
41.7096
36.1177
26.6252
52.1083
72.0842
43.07
46.4579
40.5227
53.6942
55.7769
49.2094
53.4927
51.5767
47.4612
-31.1403
40.019
94.8455
61.1843
52.4245
69.0586
58.9162
55.3741
60.4381
64.1065
58.2837
52.128
-32.505
36.6392
38.8356
34.6398
43.6198
35.3396
36.5344
-45.9088
-12.6886
-68.3636
77.9353
5.71588
-53.304
14.715
34.2491
37.3223
-3.6435
39.2268
42.7315
42.8533
40.1422
42.1923
43.4237
42.1047
38.4963
39.6765
39.4516
52.3643
34.5081
34.4654
37.9
38.983
46.387
40.0055
52.5357
33.3167
38.6918
18.1469
27.9241
25.1267
38.1094
36.0767
36.0063
37.688
51.492
36.0299
38.1631
51.8243
57.2899
45.9525
44.0176
39.5763
37.0955
38.6372
67.7003
52.6968
47.1522
55.4792
53.3827
43.7622
54.4363
50.9819
47.225
45.5051
-4.48036
36.2188
47.7282
52.2425
50.5384
51.9371
49.9578
46.7402
45.7032
57.5073
53.9372
49.0631
31.0387
46.5691
54.102
43.9616
60.4133
30.1726
43.476
34.5791
52.2493
46.3249
48.3586
34.6049
33.3704
37.3036
35.7305
36.3429
21.3251
35.2933
36.8806
21.5433
37.1306
-101.782
2.76987
10.6863
51.4141
35.18
36.5233
35.287
35.3114
39.1406
34.2831
42.6159
36.7927
29.8275
30.7382
38.2279
24.0947
38.6583
35.0436
38.9715
34.472
29.7357
5.50188
44.8864
42.6749
54.089
65.876
4.55306
41.7848
34.065
23.3414
39.8015
40.3469
36.6237
15.5412
39.3863
34.4646
34.5429
36.3685
43.4546
54.2214
38.571
51.3366
52.3076
25.0253
31.7307
28.1421
0.86011
30.3455
35.2673
33.7235
53.7758
35.8688
35.0146
35.6795
32.3363
53.7063
34.9196
36.7144
54.6803
50.1528
54.3898
36.635
35.1926
35.6234
55.39
53.7279
47.5738
52.6402
49.3506
56.2355
50.6021
56.4483
48.7201
50.6948
49.2804
44.8066
44.006
43.9597
50.5505
64.2624
51.4532
47.2289
50.4981
49.7201
46.5587
51.481
44.5328
43.1126
53.4798
47.8377
53.7594
41.9799
47.9075
41.4615
38.805
39.3984
46.5159
43.4194
35.2947
52.1612
48.9806
59.2323
37.8485
37.8632
32.6401
39.4092
54.775
51.785
43.7567
65.3255
87.7028
54.257
36.4127
37.1933
41.0326
37.8196
39.2962
49.3749
47.3744
56.2837
36.8237
36.7838
55.6134
38.0085
27.8389
-40.8867
47.1663
43.2756
46.6667
46.7482
49.0151
51.3865
47.7358
49.4929
48.62
42.3779
43.0441
43.2208
45.416
37.5896
53.3944
34.278
35.7838
38.7766
38.1903
37.4484
37.2002
36.0762
28.3137
39.97
37.2742
38.2315
41.4641
35.4767
37.3714
55.9496
47.3208
55.9054
-2.90986
37.0474
37.9112
-73.1036
53.7108
52.3433
55.4328
23.7768
51.214
57.7414
18.5288
19.6852
40.1655
38.0908
40.0039
-61.4023
49.5086
48.5858
51.9315
49.0868
52.5317
10.771
57.9017
49.3524
40.2816
44.1751
-19.8638
44.9442
57.2767
57.6924
46.1082
85.5179
86.276
78.0317
51.4606
32.8977
86.6977
-0.342181
1.64276
9.78423
20.9023
33.3711
35.2376
33.7599
33.3039
38.179
39.4084
39.3933
40.0692
-9.47668
35.7843
30.5732
36.1626
37.4924
44.6196
51.1569
36.2759
35.3855
44.1102
35.3162
43.9773
52.9875
51.6745
51.4063
52.1585
39.2774
41.6586
41.8567
53.489
51.4375
48.565
50.6402
52.4581
53.8027
36.462
36.1597
50.4106
34.8156
37.6942
27.3429
26.8272
35.1027
35.4009
35.2984
36.0848
38.5042
22.6839
36.8341
33.8134
29.4573
10.4798
-10.5578
-11.8595
-11.8831
28.4651
36.8612
32.0418
35.9181
34.9697
35.6592
2.83637
67.137
35.3769
35.7259
89.4132
35.2928
55.0286
35.3733
35.9142
35.5544
34.479
34.4211
48.914
47.6515
45.6387
46.0711
43.2715
40.0357
39.8518
42.3009
51.9274
51.7395
49.4989
52.775
77.375
50.3016
74.5756
33.6675
50.4967
35.3333
34.3095
34.4324
54.0544
51.275
49.1338
49.7194
50.7937
52.1731
52.139
52.4991
50.2225
50.1643
50.3368
51.0336
51.7845
45.522
47.8094
37.6184
50.7573
48.8483
49.9207
54.642
39.4813
35.6427
40.2421
40.531
38.0069
47.6085
36.0945
47.647
46.9563
43.3585
41.4938
43.1268
42.278
39.2113
43.6875
41.2483
40.8519
41.8625
47.6405
45.1557
36.3815
57.0054
52.5903
50.791
51.7933
46.9524
52.0469
52.2612
51.3577
40.2851
39.1536
39.5045
37.8724
38.3218
35.927
50.2094
38.1808
36.8362
37.6499
37.2983
37.0013
36.8284
40.5174
43.9377
43.3283
41.6475
41.9227
41.9391
-118.58
26.013
42.3863
3.84706
78.231
37.9627
37.2344
40.3682
-11.8277
40.5892
40.6442
51.659
32.8329
53.7204
51.453
48.2048
52.062
34.7342
53.9104
53.1955
49.1089
54.128
52.8477
50.2111
48.2907
47.5038
49.6456
48.6756
46.2402
38.2417
48.662
38.8118
28.9578
51.8051
48.4456
49.7729
50.0759
53.7774
46.8871
36.5191
39.0235
39.1544
29.9878
32.6866
36.5284
37.6486
36.7313
29.4272
50.5155
57.0216
48.6262
50.6834
50.7546
38.67
43.9256
32.958
31.5675
43.319
46.7656
49.3242
51.4099
49.3129
-62.9364
48.7342
45.6015
51.2106
51.9117
48.7333
47.8885
48.6657
48.5407
48.5747
-53.521
38.7617
41.7316
48.5072
49.0486
50.5986
42.7946
38.3085
40.3014
40.1818
38.3724
42.0246
41.8756
38.2136
43.4652
38.1991
33.8381
35.703
34.9835
37.5623
39.3956
37.1382
42.0409
41.8777
38.4284
35.2865
34.9831
32.0119
34.9983
37.9732
44.2537
34.6747
51.2987
51.0282
56.9139
49.9289
54.3808
50.2575
52.4397
56.757
35.815
39.4953
34.0162
34.7024
50.1045
53.4614
60.3469
58.3239
58.2069
71.8634
32.5345
39.9586
37.5287
35.2736
35.9025
37.3952
53.1976
38.6959
35.1991
37.75
34.5258
37.637
40.07
47.3386
46.3117
47.8773
47.4232
54.0304
51.285
53.5121
55.4204
53.3421
53.5981
53.1511
21.0044
-10.4077
50.6191
-50.6273
53.4742
55.2152
52.3593
52.9746
41.9693
52.6648
54.8813
50.3423
47.7904
43.4804
50.5813
51.1706
50.7244
61.4294
57.0972
55.9588
59.5675
50.1261
51.0216
53.1469
48.402
50.4148
53.5782
54.0299
46.4162
60.6756
54.8446
56.2279
45.5919
56.5846
-29.5175
33.4339
38.898
31.7501
-2.72559
33.98
36.5637
42.3552
36.9416
46.7536
33.9408
26.1969
31.0612
38.6084
35.9545
41.3234
41.0575
46.3409
40.0801
40.1941
43.5353
40.9087
-56.5271
31.693
26.7964
38.4116
39.2964
23.6842
26.1408
45.832
35.0095
41.3582
40.2054
50.0054
46.3134
23.1704
25.3826
40.9126
36.4427
31.8579
37.8857
28.8953
34.3054
25.3164
31.5656
35.1617
31.7536
37.4462
36.0596
36.6094
36.8024
38.887
36.109
35.142
33.6994
34.0583
35.1394
34.8215
40.9656
34.9761
35.4263
54.6241
33.1001
49.5809
42.2797
35.1726
38.4465
35.8767
29.5185
32.9118
55.5318
38.9892
35.0214
56.2089
35.7717
54.5823
31.5578
40.7322
48.2052
38.1409
36.1826
37.2028
38.2448
34.585
35.8216
51.9858
42.4933
41.5276
42.2753
36.7595
50.5089
44.9339
41.0718
48.9312
37.2286
35.5954
44.0166
43.4355
36.6832
32.6924
37.5698
51.8639
36.4607
38.0672
34.4774
36.0302
37.6969
43.1618
41.8388
41.3906
53.9783
51.8565
53.6498
51.5591
55.3858
51.4188
47.6025
52.8268
44.3352
46.3836
45.8914
46.3171
52.3462
49.3099
46.8259
43.8773
52.1593
44.2869
46.7319
52.0061
56.6921
52.9598
5.13711
42.9201
32.1472
50.2811
49.1761
52.6557
44.5816
39.9516
40.8195
38.709
41.397
52.1424
49.1608
43.633
40.4095
54.9646
57.8198
53.7899
54.4395
50.9266
50.6878
51.6186
45.1475
47.396
40.9103
41.2984
47.9152
45.6587
51.9581
39.4769
47.127
33.207
33.6788
36.5005
48.3297
36.2208
35.6534
33.0736
33.8968
31.3041
33.1402
32.1386
62.9992
49.5218
49.8247
47.0636
47.0276
44.6215
49.2446
55.4628
53.6295
50.1576
51.4769
46.9227
50.5821
34.9241
61.5051
52.8964
36.693
66.9405
53.6323
61.5063
31.9349
64.1557
50.8278
54.3791
46.1587
73.4006
58.7129
54.0648
29.2978
40.2933
39.0034
20.1655
33.5443
48.7793
45.5629
48.138
53.4552
37.0001
48.5901
49.1708
44.2693
53.5776
51.6438
48.8672
48.4562
49.63
47.6257
54.5373
56.9293
54.1008
53.4731
41.3893
53.3651
52.2879
45.1825
53.0636
52.8497