/*--------------------------------*- C++ -*----------------------------------*\
| =========                 |                                                 |
| \\      /  F ield         | OpenFOAM: The Open Source CFD Toolbox           |
|  \\    /   O peration     | Version:  2506                                  |
|   \\  /    A nd           | Website:  www.openfoam.com                      |
|    \\/     M anipulation  |                                                 |
\*---------------------------------------------------------------------------*/
FoamFile
{
    version     2.0;
    format      ascii;
    arch        "LSB;label=32;scalar=64";
    class       volScalarField;
    location    "0.0689058";
    object      k;
}
// * * * * * * * * * * * * * * * * * * * * * * * * * * * * * * * * * * * * * //

dimensions      [0 2 -2 0 0 0 0];

internalField   nonuniform List<scalar> 
3948
(
1.36338
0.612338
0.358585
0.916461
0.918663
0.327556
0.921453
1.04296
0.285889
0.348141
0.30183
0.357474
0.571408
0.544585
0.636417
0.736128
0.690525
0.479402
0.762691
0.42956
0.446541
0.905885
0.290599
0.391315
0.437296
0.993356
0.425742
0.86003
0.309059
0.432552
0.528144
1.23026
1.12052
0.542397
1.42457
0.336152
0.654775
1.06752
0.72498
0.993129
0.737805
0.610552
1.29235
1.28305
0.381025
1.2327
1.18741
1.32107
1.30603
0.978915
0.430806
1.08804
0.68306
0.953853
0.70506
0.928651
0.347066
0.545994
0.951412
0.424445
0.728165
0.829384
0.353385
0.489891
0.484068
0.51834
0.678605
0.912646
0.406233
0.665761
1.54156
0.561042
0.803886
0.364823
0.331515
0.390807
0.293784
0.44285
1.01744
0.442054
0.567709
0.572236
0.635859
0.462269
0.582276
0.574066
0.658683
0.560255
1.02857
0.322279
1.329
0.385485
0.558589
0.470205
0.391002
0.550758
0.697739
0.631826
0.378529
0.351127
0.310763
0.480984
0.501541
0.391698
0.410386
0.448809
0.392648
0.58601
1.22042
1.66381
1.41027
1.01187
0.299626
0.47913
2.5162
0.468488
0.45927
0.799843
1.66735
0.61525
1.69077
0.333146
0.789514
0.921959
0.450804
0.325183
0.761842
0.669463
0.91
0.688312
0.440996
0.306602
0.5295
0.613677
0.417513
0.816683
0.440138
0.517112
0.653344
0.304802
0.607807
0.431502
0.378444
0.370633
0.526541
0.401266
0.500619
0.399209
1.09458
0.297682
0.311889
0.336949
0.369211
0.52767
0.360527
0.339985
0.330675
0.487106
0.609116
0.540357
0.38677
0.557878
0.311744
0.377271
0.334749
0.429782
1.04549
0.708293
0.826091
1.84631
2.29806
0.338757
0.324628
1.1082
0.664194
0.338356
0.442147
0.794205
0.378097
0.358902
0.550913
0.91141
1.34528
1.15314
0.336703
0.87288
0.671871
0.397238
0.49959
0.348406
0.491424
0.445816
0.312283
0.654879
0.434185
0.365446
0.317203
0.672771
0.360963
0.395605
0.368628
0.328976
0.769321
0.350675
0.562392
0.615078
0.595698
1.77344
0.521068
0.514244
0.346887
0.96641
0.363198
0.427422
0.34799
0.792951
0.535515
0.91361
0.895118
0.298358
0.688281
0.543554
0.609758
0.434719
0.437009
0.374678
0.304644
0.563393
0.368486
1.27071
0.680463
0.780783
0.612962
0.56815
1.0284
1.01034
0.443074
0.858074
0.417061
0.606829
0.465939
1.4937
0.315186
0.633097
1.00271
0.30112
0.304736
0.575072
0.422987
0.332276
0.376486
0.388039
0.361833
0.530269
0.75969
0.632407
0.66126
0.948477
0.443842
0.329762
0.454808
0.797401
0.691928
0.654743
0.72469
0.521697
0.578609
0.506196
0.717556
0.95994
0.413294
0.415837
0.354839
0.694522
1.17338
0.722868
0.508447
1.0974
0.537422
1.08584
0.434466
0.490597
1.05647
0.896458
0.584191
0.362367
0.478369
0.504813
0.896303
0.613862
0.798267
0.555185
0.483201
0.508935
1.17324
0.503332
0.598674
0.810198
0.543898
0.93158
0.874622
0.60171
0.427115
0.566636
1.52135
0.323923
0.314527
0.51232
0.739702
0.506943
0.331885
0.468389
0.508785
0.936607
0.367638
0.301452
0.803871
0.995799
1.29576
0.828834
0.867086
0.504752
0.549261
1.09042
0.423504
0.404245
0.39835
0.308645
0.50827
0.364344
0.633628
0.71265
1.06163
0.54615
1.18678
0.382833
0.719759
0.448418
1.31491
0.99177
0.850545
0.815283
1.16536
0.893614
0.639838
0.73472
2.28912
0.986028
0.644561
0.912192
0.470046
0.563245
1.19474
0.709949
0.594156
0.427051
0.353095
0.332086
0.306049
0.428809
0.594331
0.394768
0.734049
0.607315
0.597673
0.685714
0.320512
0.330651
0.318942
0.319356
0.313331
0.493255
0.52575
0.633881
0.683903
0.821692
0.812544
0.781863
0.4401
0.313095
0.582984
0.478242
0.445526
0.539829
0.579573
0.60217
0.59451
0.663786
0.533669
0.519648
0.514679
0.466131
0.497834
0.486901
0.369918
0.37153
0.366838
0.35968
0.353898
1.25995
0.38023
0.359341
0.362195
0.388332
0.366737
0.381213
0.818632
0.437283
0.586241
0.471245
0.370489
0.363996
0.436194
0.375703
0.438276
0.396643
0.297413
0.297499
0.340408
0.352817
0.324014
0.317257
0.909809
1.08414
0.785541
0.694955
0.341479
0.800831
0.335387
0.500494
1.83951
1.54139
0.742221
0.514826
0.619265
0.759083
0.975032
0.900549
1.00932
0.655513
0.432639
0.462637
0.617457
0.56985
0.65505
0.45714
0.75312
0.489346
1.15524
0.485661
1.11176
0.601501
0.579856
0.318129
0.672341
0.3798
0.425452
0.380181
0.435065
0.419488
0.52996
0.436412
0.420013
0.585671
0.317052
0.669055
0.66463
0.467517
0.508671
1.42989
0.671248
1.05276
0.691165
0.519935
0.481375
0.486534
0.49655
0.375551
0.396042
0.592056
0.50446
0.586163
0.297935
0.359163
0.3504
0.346277
0.367824
0.478707
0.481589
0.461144
0.625814
0.570669
0.526068
0.53513
0.467976
0.700389
0.7201
0.811247
0.578858
0.988019
1.16177
0.436086
0.482728
1.34252
0.464832
0.369892
0.390301
0.733969
0.432058
0.465356
0.355907
0.404146
0.400314
1.17257
0.521129
1.08823
0.509787
0.312068
0.828149
0.689429
0.649751
0.853971
1.01814
0.448856
0.941447
1.28098
1.0277
0.495915
0.455052
0.430584
0.49839
0.821467
0.337249
0.360096
0.348962
0.316529
0.547015
1.42412
0.2993
0.35814
0.372828
0.317519
0.618985
0.708819
1.15734
1.18216
1.37354
0.312887
0.31262
0.310116
0.318213
1.2081
0.299486
0.318194
0.373942
0.537759
0.525947
0.509094
0.531443
0.438592
0.415423
0.49037
1.53151
0.523529
1.82315
0.304612
1.29636
0.648155
1.27163
1.28755
1.15173
0.348081
0.33939
0.398002
0.300422
0.400458
0.353763
0.353664
0.347787
0.925811
0.89279
0.357067
0.832813
1.11858
0.860524
0.714651
0.74406
0.674621
0.353171
0.338858
0.352531
0.373911
1.12631
0.400912
1.02465
0.623951
0.711481
0.298765
0.530034
0.609506
0.609056
0.565502
0.464607
0.48495
0.367394
0.353593
0.326036
0.318038
0.412061
0.71363
0.726259
0.731981
0.898298
0.326801
0.34047
0.390863
0.322558
0.318011
0.519772
0.354558
0.42912
0.438005
0.432253
0.293975
0.466024
0.570991
0.439107
0.499318
0.487801
0.340699
0.485151
0.399516
0.302042
0.519496
0.297428
0.336202
0.375871
0.438362
0.295988
0.377877
0.535682
0.397812
0.314842
0.51549
0.755954
0.329938
0.481231
0.471321
0.526863
0.499353
0.482774
0.57342
0.603035
0.528341
0.450752
0.313794
0.307742
0.308531
0.306962
1.52661
0.869806
0.848292
0.663784
0.460478
0.568817
0.989133
0.536245
0.360105
0.458294
0.325843
0.300486
0.304534
0.333789
0.390482
0.409061
0.386482
1.24047
0.621846
0.557034
0.427288
0.406096
0.442823
0.343106
1.14733
0.763289
1.44534
2.09734
0.516802
0.368833
0.779359
0.36729
0.889254
0.65145
0.923842
0.356659
0.518618
0.874932
0.550527
1.14894
1.02224
0.312328
0.327156
0.991502
1.12182
0.481391
0.389915
0.610085
0.54275
0.390901
0.475574
0.805633
0.459344
0.544568
0.464108
1.20727
1.11896
0.295254
0.306868
0.348208
0.993992
0.333487
0.680491
0.320125
0.328027
0.319008
0.72814
0.479795
0.372764
0.799312
0.721405
0.636412
0.448902
0.66759
0.615016
1.2895
0.430336
0.52164
0.688397
1.30846
1.30975
0.659165
0.662742
0.519196
1.25597
0.65291
1.00471
0.791356
0.96066
0.37211
0.51147
0.716737
0.387703
1.62634
0.636473
0.484465
0.735053
0.547284
0.290984
0.595611
0.309167
0.33433
1.57099
0.446026
0.403878
1.29821
0.932159
0.630652
0.372739
0.337641
0.362859
0.344783
0.324877
0.765904
0.333318
0.96842
1.07193
1.26682
0.3731
0.879382
0.392567
0.295325
0.307933
0.313588
0.389947
0.551265
1.24617
0.39547
0.601047
0.431079
0.345004
0.307883
0.856256
0.84247
0.516308
0.849832
1.20922
0.441915
1.49879
0.566914
1.84695
0.462724
0.436143
0.319342
0.350709
0.947429
0.995644
0.338164
0.663552
0.765711
0.575519
0.481319
0.451075
1.07865
0.684427
1.19102
0.397914
0.459095
0.717763
1.00287
0.804709
0.687504
0.885613
0.829552
0.52081
0.772563
0.813332
0.794062
0.784971
0.639448
0.757895
0.805002
0.808982
0.346378
0.822573
0.435546
0.675554
1.47751
0.32199
0.627415
0.363197
0.363582
0.630426
0.758933
0.765654
0.771362
0.656107
0.369155
0.412823
0.712069
0.431347
0.439948
0.46801
0.443859
0.501444
0.44335
0.492021
0.743635
0.532195
0.500412
0.361262
0.757891
0.44408
0.358658
0.776175
0.729215
0.327552
0.651688
0.642351
0.950073
0.89871
0.400746
0.459859
0.92535
0.517965
0.735312
0.313749
0.298882
1.22627
1.94059
0.759265
0.799565
0.914122
0.855617
0.870869
1.34837
0.372438
1.33905
0.999872
0.951452
0.68779
0.345032
0.737092
0.487567
1.01668
1.01708
1.04043
0.729185
0.355768
0.393013
0.409926
0.750146
0.800564
1.1291
0.612733
0.592625
0.731584
0.642303
0.692375
0.359439
0.492847
0.359575
0.460881
0.321006
0.387317
0.309998
0.355546
0.729885
0.493409
1.21343
0.60306
0.66703
0.453218
0.364227
0.477643
0.762009
0.366027
0.294379
0.692416
0.712356
0.416476
0.365714
0.469851
0.943296
1.14144
0.764875
0.418063
0.859846
0.327486
0.303846
0.387746
0.734825
1.21859
0.60078
0.431787
0.375404
0.632237
0.686681
0.462887
0.397923
0.495678
0.419659
0.366623
0.615549
0.646278
0.560596
1.0495
0.894259
0.46461
0.598334
0.601884
0.762941
0.60423
0.456124
0.399734
0.390593
0.51588
0.548585
0.800908
1.11909
0.354086
0.426614
0.581035
0.47206
0.473784
0.86967
0.365836
0.557179
0.304241
0.412949
0.328033
0.370416
0.363233
0.490886
0.423882
0.370931
0.424081
0.329661
0.708004
0.641807
0.547862
0.710369
0.974136
0.70592
0.561822
0.670251
0.346105
1.20255
0.582165
0.616926
1.41014
0.787935
0.382519
0.395326
0.337941
0.583721
0.415872
0.467626
0.357696
0.336645
0.484512
1.04284
0.832781
0.325519
0.365169
0.526128
0.782919
0.343362
0.321891
0.443068
0.374857
1.34371
0.428929
1.66415
0.951023
0.382441
0.29614
0.557073
0.442597
0.425795
0.352236
0.545584
0.7276
0.4716
0.47526
1.26421
0.364421
1.13419
0.299784
0.294023
0.504269
0.648824
0.302048
0.975554
0.566641
0.49111
0.636002
0.729273
0.730706
0.695068
0.588681
0.478792
0.518317
0.794716
0.804376
0.843237
0.89312
1.02362
0.376437
0.415436
0.718798
0.562837
0.506847
0.415857
0.556483
0.568598
0.535073
0.674664
1.03581
0.819842
0.729767
0.413242
0.818209
0.527589
1.07366
0.888203
0.587168
0.581525
0.592928
0.772918
0.67277
0.409597
0.369259
0.358516
2.00948
1.69955
1.12903
0.72599
0.846754
0.86546
0.964522
1.28349
0.37885
0.589375
0.418987
0.493693
0.530567
0.645498
1.01382
0.925575
0.658153
0.512991
0.990874
0.633794
0.438381
0.781283
0.458134
0.373199
0.400169
0.526088
0.3244
0.359282
0.320177
0.672416
0.527547
0.69472
0.475469
0.846027
0.58658
0.966095
0.430591
0.42199
0.415192
0.320182
0.866898
0.873804
0.729232
0.403533
1.24797
0.583933
1.20685
0.877449
0.410766
0.390762
0.925045
0.916762
1.90885
0.651296
0.597516
0.314742
0.800485
0.78221
0.835275
0.900467
0.607743
1.40904
0.319821
0.357594
0.352874
1.24718
0.850034
0.832123
1.09468
1.13161
0.436985
1.20501
0.372228
0.930346
0.92086
1.10631
0.957792
0.602468
0.558157
0.785385
0.335091
1.31104
0.393615
0.415449
0.640011
0.916473
0.979385
0.622403
0.575831
0.745304
0.483431
1.41208
1.5892
0.659601
0.953036
0.950372
0.645168
0.967764
1.05637
0.965533
0.394197
1.3354
0.357641
0.330493
0.960273
0.540952
0.613128
0.596186
0.59152
0.589779
0.749436
1.05421
1.11639
1.0382
0.69318
0.978464
1.00095
0.677092
0.766357
0.648601
1.23663
0.861667
1.30702
0.623285
0.603213
0.661478
0.820667
0.951169
0.370103
0.573217
1.09236
0.441185
0.376468
0.633381
1.02975
0.458231
0.40991
0.629274
0.699458
0.613766
0.384784
0.597046
0.69531
1.06546
0.802029
0.759992
0.514479
0.547683
0.645833
0.66902
0.451542
0.741975
1.03148
0.767639
0.873701
0.441972
0.298971
0.359089
0.475651
0.552044
0.550467
0.568889
0.479882
0.473614
0.676573
0.507485
0.355563
0.94627
0.940636
0.710283
1.46185
1.38621
0.460934
0.913876
0.640945
0.71702
1.3322
1.04058
0.879882
0.806596
0.989187
0.52232
0.511094
0.795172
1.51554
0.656688
0.91025
1.06142
1.58935
0.696443
0.492977
0.788836
0.989442
0.488269
0.785988
0.740664
0.554647
0.502872
0.365798
0.941162
0.936954
0.518145
0.874134
0.363604
0.909749
0.687201
0.523619
0.722169
0.678695
0.454266
0.374621
0.364395
0.319937
0.381916
0.445526
0.422635
0.29406
0.380171
0.335574
0.867699
0.409346
0.362894
0.323635
0.325043
0.773185
0.317222
0.315038
0.828392
0.320852
1.01534
1.07943
0.455929
0.541336
0.82706
0.690338
0.533984
0.661815
0.963306
0.629102
1.0629
0.769539
1.17229
0.614259
0.714578
0.677678
1.41505
0.952259
0.329453
0.671204
1.19875
0.451875
0.973306
0.834262
0.47123
1.00256
0.595304
1.00911
0.503104
0.734117
0.882582
0.38888
0.339199
1.33076
0.956373
1.29536
0.746073
0.930618
2.30936
0.363516
0.898221
0.957006
0.997296
0.391071
0.654143
0.403148
1.04788
0.346076
0.509225
0.687717
0.43966
0.570298
0.351216
0.352197
0.300739
0.502656
0.352712
0.352362
0.664478
0.341675
0.613712
0.679384
0.328091
0.584142
0.633126
0.374836
0.995648
0.504704
0.366955
1.0125
0.498697
0.578624
0.445266
1.0321
0.347072
0.84293
0.403805
1.07197
1.14913
1.10751
0.466735
0.334332
0.51257
0.526831
0.806293
0.514985
0.397321
0.522051
1.0045
0.732983
0.816887
0.812793
0.300478
0.330931
0.394217
1.33518
0.406542
0.752648
0.362093
0.520235
1.29053
1.08522
1.09249
1.68583
0.998065
1.23027
0.6927
1.32699
0.916444
1.1768
1.21193
0.851993
0.43966
0.405299
1.55732
0.325844
0.301136
0.730629
0.514818
0.3023
0.379527
1.0591
0.760325
0.305919
1.35046
0.353369
0.730729
0.299556
0.417703
0.647171
1.88234
0.629974
1.20454
1.45674
2.26812
1.15338
0.334572
0.724616
0.303972
0.754135
0.344101
1.0051
0.320385
0.378476
0.342474
0.748207
0.585294
0.322569
0.338167
1.34471
0.327565
0.297198
0.343969
0.309665
0.850251
0.95934
0.399701
0.358445
0.532364
0.402309
1.48914
0.505758
0.29823
0.646776
0.347126
0.731896
0.715279
0.845734
0.313009
0.706989
0.310553
0.380575
0.319738
0.353285
0.351721
0.399706
0.552846
0.321297
0.385024
0.375303
0.539966
0.442121
0.596852
0.992506
0.34792
0.826611
0.35419
0.966324
0.440299
0.305804
0.431369
0.427983
0.320853
0.477261
0.355969
0.389176
0.479116
0.339097
0.410987
0.341273
0.304677
0.305969
0.389504
0.435407
0.297419
0.292842
0.345346
0.308318
0.403321
0.518192
0.741192
0.832482
0.783091
0.767018
1.29112
1.17577
1.23843
1.29248
1.03624
0.524876
0.682952
0.41877
0.35388
0.906435
0.46491
0.40938
0.455386
0.478429
0.539007
0.455964
0.390635
0.296217
0.61046
0.826762
0.946888
0.485632
0.517953
0.331199
0.372279
0.842894
0.658411
0.50408
0.540012
0.714783
0.711118
1.05378
0.657745
0.583362
0.684184
0.318718
0.416239
0.304629
0.318707
0.6293
0.737257
0.903047
0.755557
0.804152
0.694626
0.56313
0.400465
0.735106
0.623066
1.33934
0.995297
0.854019
1.23537
0.884861
0.919239
0.865721
0.717499
1.49778
0.904417
0.451692
0.414884
0.386287
0.338114
1.71785
0.384279
0.392815
0.376389
0.46311
0.624467
0.423189
0.772603
0.516955
0.774206
0.579973
0.44881
0.525995
0.770045
1.01023
1.07699
0.33731
1.35881
0.613552
0.698543
0.900063
0.695699
0.497387
0.429818
0.336115
0.4733
0.856038
0.96353
0.553253
0.455791
0.820979
0.346997
0.451306
0.733522
0.767601
1.67295
1.42209
0.644168
0.555929
0.897026
0.67289
0.464484
0.618215
0.72737
0.624573
0.991172
0.861671
1.17578
1.29384
0.566838
0.87871
0.848228
0.625506
0.606849
0.863981
0.628569
0.586521
0.683582
1.25415
1.32622
0.950931
0.391039
0.324585
0.335784
0.32731
0.309611
1.17054
0.675846
0.510646
0.973647
0.464286
1.01279
0.457415
0.768274
0.32248
0.973936
1.03872
0.624231
0.301097
0.460643
1.27954
0.360673
0.472346
0.647367
1.09301
0.552509
0.309479
0.464365
0.588497
0.502192
1.33163
0.377951
0.433088
0.935918
0.318092
0.312836
0.295094
0.315295
0.316787
0.411377
0.324823
0.332206
0.538999
0.559447
0.372962
0.401197
0.49864
1.08069
0.347196
0.352633
0.518943
2.24253
1.96727
1.62672
0.44046
0.42473
0.501514
0.421414
0.398682
0.572326
0.331961
0.698708
0.646019
0.630857
0.513758
0.428508
0.595257
0.592435
0.810471
0.64177
0.455401
1.33791
0.587266
0.58815
0.423567
0.653397
0.983092
0.955886
1.5415
1.45683
0.593034
0.418312
1.22877
1.28944
0.72265
0.594738
0.700618
0.661097
0.526104
0.429775
0.675103
0.497671
0.421939
0.384416
0.4548
0.54074
0.592907
0.734168
0.45996
0.412927
0.453918
0.47008
0.93631
0.566046
0.920191
0.620643
1.31821
0.767541
0.400896
0.659061
0.750453
0.872781
0.712121
0.561331
0.603242
1.09105
1.15024
1.05667
1.23369
0.967541
1.33974
1.07924
1.07883
1.22497
1.39636
0.950813
0.381627
0.305271
0.55322
0.657631
0.553136
0.755704
0.884508
0.511099
0.973244
0.952167
1.18909
0.788907
1.27345
0.85487
0.302782
0.777223
0.588395
0.694123
0.743626
0.553248
0.546431
0.840894
0.602652
0.370378
0.477781
0.462701
0.528071
0.396001
0.347658
0.35493
0.505155
0.466565
0.418611
0.669936
0.671954
0.545423
0.429691
0.50293
0.764194
0.462484
0.43616
0.427947
0.422195
0.790987
0.863381
0.372711
0.984875
0.900785
1.03126
0.946191
0.969588
0.997868
0.764365
1.08256
0.364028
1.20926
0.356136
1.04584
0.435432
0.695645
0.664479
1.37133
0.965097
0.904773
0.514167
0.875096
1.08779
0.76469
0.510678
0.326303
0.418776
0.769405
0.357854
0.36881
0.353683
0.809446
0.550303
0.362797
0.530383
0.921836
0.994623
1.00929
0.856054
0.963894
0.598847
0.442784
0.4513
0.594736
0.356157
1.16138
0.500454
0.615454
0.878086
0.844262
0.655225
0.634404
0.860846
0.670783
1.4024
0.945697
0.528652
0.515516
0.450957
0.800592
0.873749
0.569806
0.661134
0.497742
0.501064
0.328427
0.579932
0.384322
0.737388
0.467522
0.501448
0.624251
0.552098
0.719187
0.453139
0.491908
0.298637
0.325874
0.338553
0.333652
0.315248
0.572592
0.301116
0.333145
0.344475
0.363972
0.516597
0.499706
0.542107
0.821176
0.69003
0.71067
0.916136
0.730653
0.711236
0.724645
0.732722
0.944503
0.726994
0.619501
0.454834
0.634864
0.840267
1.22559
0.440193
0.789396
0.708908
0.77877
0.696071
0.752903
0.65211
0.553815
0.426145
0.457917
0.498005
0.500807
0.652481
0.820081
0.756345
0.742912
0.470969
1.17918
0.359011
0.4418
0.48541
0.389603
0.48719
0.394134
0.407262
0.328652
0.72396
0.557443
0.586062
0.844625
0.371913
0.552606
0.986315
0.822317
1.32334
0.751778
0.293705
0.917411
0.607825
0.381101
0.381078
0.483897
0.497863
0.455106
0.317213
0.519638
0.755089
0.321126
0.330026
0.518329
0.320169
0.385399
0.782574
0.347593
0.581201
0.43838
0.287259
0.829321
1.79476
0.348295
0.55073
0.584546
0.497749
0.404387
0.895402
1.01201
0.557789
0.89772
1.18132
1.16899
0.54564
0.608157
0.47303
0.398969
0.740969
0.520892
0.590473
0.468966
0.621278
0.922942
0.774311
0.396185
0.369645
0.545972
0.497465
0.917201
0.883722
0.90906
0.894637
0.86984
0.343738
0.381244
0.347414
0.331656
0.335387
0.330308
0.718529
0.844371
0.914843
1.22337
1.20507
0.861934
1.53084
1.80199
0.971126
1.13794
0.53709
0.708351
0.671512
1.24161
0.955592
0.953826
1.58335
1.22738
1.12836
1.03321
0.974467
1.17121
0.991001
0.7786
1.24577
1.21802
0.701436
1.21085
1.08402
1.17385
0.928799
1.25273
1.02365
0.645055
0.398292
0.732266
0.780011
0.777987
0.84279
0.362613
0.393069
0.358881
0.772992
0.395876
0.759531
0.915401
0.928336
0.372894
0.819817
0.96532
0.691343
0.945585
1.19303
0.721246
0.731874
0.522705
0.51963
0.80258
0.495658
0.307381
0.535226
0.776258
0.434652
0.481311
0.641661
0.523244
1.60366
1.77241
0.311078
1.04462
1.24807
1.22421
0.34326
0.301877
0.42081
0.455958
0.355817
0.359773
0.46764
0.360129
0.675373
0.320585
0.473064
0.356258
0.314949
0.43188
0.341847
0.320698
0.326638
0.310004
0.357648
0.379952
0.412021
0.312352
0.772629
0.427999
0.300158
0.330105
0.491477
0.305889
0.58306
0.427331
0.55197
0.494928
0.296264
0.727773
0.964128
0.310527
1.235
0.653168
1.23783
0.418529
0.385045
0.424838
0.419398
0.48676
0.699534
0.531458
0.338618
0.824299
0.877463
1.13054
0.479012
0.305115
0.632984
0.746037
0.526472
1.35424
0.845932
0.880302
0.96739
1.0428
0.740862
1.28777
0.463577
0.537135
0.575163
0.404504
0.382064
0.363429
0.465159
0.312482
0.300358
0.360755
0.349603
1.20064
0.779969
0.646498
0.828933
0.515787
0.505284
0.301251
0.34675
0.325253
0.772306
1.63949
1.20438
0.33834
0.360178
0.328563
0.994132
0.654997
0.505014
0.980786
1.25779
0.857573
1.32938
0.668444
0.547458
0.381484
0.879593
0.599413
0.360139
0.515028
0.574097
0.5747
0.628251
1.27399
0.746219
1.14145
0.783839
0.312601
0.358153
0.360854
0.339774
0.51783
0.308328
0.75436
0.42228
0.387249
0.416528
0.361004
0.507064
0.709165
0.534637
0.600666
0.718516
0.57302
0.615677
0.69945
0.301394
0.417977
0.327622
0.339968
0.794399
0.359682
0.412641
0.70303
0.483265
0.699449
0.876526
0.650964
0.753736
0.598496
0.450141
0.591388
0.298516
0.716799
0.303554
0.39641
0.715363
0.48818
1.28373
0.446618
0.790298
0.721196
0.695357
0.731191
1.21382
0.572067
0.726602
0.617768
0.643472
0.496848
0.576893
0.595296
0.432052
0.439434
0.699145
0.606403
0.662145
0.464948
0.623709
0.46235
0.465311
0.577218
0.410555
0.411826
0.641387
0.715161
0.309432
1.06659
0.436609
0.572249
0.327113
0.447712
0.49196
0.468407
0.598813
0.436827
0.419608
0.637515
0.425333
0.519967
0.406629
0.416435
0.51843
0.621131
0.810464
0.353519
0.344867
0.43274
0.36985
0.361928
0.442369
0.39467
0.497577
0.476215
0.526169
0.585004
0.52368
0.645772
0.64919
0.545359
1.24699
0.601395
0.58142
0.305514
0.339969
0.372307
0.324277
0.396797
0.298281
0.332488
0.318646
0.39092
0.386433
0.299462
0.448013
0.302829
0.372019
0.343873
0.298541
0.339615
0.339378
0.333645
0.316034
0.35856
0.302674
0.533384
0.339785
0.543435
0.648131
0.81003
0.668009
0.613262
0.676767
0.633936
0.80516
0.653053
0.627319
0.731025
1.51661
0.447964
0.479652
0.520216
0.465105
0.626096
0.551113
0.587828
0.713101
0.508002
0.553816
0.489174
0.326579
0.365381
0.360179
0.603393
0.406262
0.575261
0.431526
1.752
0.435109
0.33436
0.622221
0.312678
0.442964
0.907879
0.35655
0.360877
0.539424
0.758712
0.406172
0.389982
0.337333
0.299814
0.352134
0.360486
0.352677
0.723269
0.307574
0.297391
0.51968
0.703349
0.516991
0.497263
1.14759
1.10974
1.35061
0.70355
1.12155
0.425844
0.359343
0.360396
0.34239
0.39517
0.461161
0.368557
1.1204
0.878165
0.561949
0.505758
0.479978
0.452991
0.566274
0.455571
0.48606
0.805963
0.801436
0.547573
0.298659
0.306573
0.598695
0.531863
0.531722
0.633066
0.605349
0.299174
0.308868
0.462848
0.607946
0.578084
0.574799
0.51066
0.387937
0.357009
1.32698
1.14425
1.08434
0.854503
1.06232
0.722098
0.524614
0.521711
0.458527
0.68856
0.731226
0.765309
0.762665
0.78312
0.832331
1.56475
0.483473
0.497423
0.540194
0.66485
0.863918
0.688876
0.687384
0.56378
0.68866
0.470691
0.478346
0.595165
0.526322
0.377616
0.682298
0.823972
0.991121
0.917625
0.801701
0.667977
0.316018
0.791218
0.368909
0.433683
0.303486
0.301974
0.322333
0.304325
0.688138
0.35219
0.442246
0.739286
0.474866
0.591219
0.598187
0.668755
0.48337
0.537885
0.744466
0.499305
0.595359
0.628387
0.727567
0.661999
0.610896
1.15092
1.05253
1.1461
1.11818
0.746629
1.06188
0.740968
0.698159
0.964702
0.724111
1.44685
1.0133
1.0483
0.513265
0.489058
0.953621
0.830578
0.696183
0.970381
1.12211
0.861269
0.990075
0.700298
0.698629
0.446565
0.485957
0.950207
0.972744
0.561569
1.22343
1.13187
0.769426
0.490667
0.363099
0.584919
1.221
0.836484
0.588672
0.635062
0.676774
0.465914
0.453077
0.493246
0.410088
0.557296
0.46956
0.568151
1.06915
0.333259
1.017
0.924106
0.393783
0.573425
0.504745
0.325269
0.434075
0.429563
0.636794
0.755596
0.628967
0.63874
0.43585
0.31501
0.869523
0.306396
0.309376
0.343816
0.45031
0.50919
0.763987
1.07892
0.656215
0.480056
0.645292
0.355064
0.329311
0.349771
0.385107
0.447076
0.630059
0.611699
0.710444
0.718149
0.779686
0.643986
0.496966
0.392367
0.739657
0.381549
0.362707
0.411776
0.407408
0.388324
0.430995
0.423618
0.412997
0.502377
0.387861
0.645067
1.04015
0.350676
0.423132
0.387077
0.417982
0.684569
0.630457
0.548761
0.518894
0.618134
0.389376
0.845257
0.397819
0.721637
0.379256
0.860651
0.475925
0.527167
0.438939
0.409809
0.423619
0.722695
0.385276
0.362832
0.422607
0.349564
0.36774
0.360883
0.344188
1.37082
0.433752
0.319981
0.815455
0.650333
0.7746
0.315136
0.629018
0.359029
0.335106
0.312281
0.569403
0.418724
0.374235
0.322611
0.331238
0.624466
0.520509
0.661649
0.582321
0.840979
0.51997
0.54804
0.90596
0.380515
0.56771
0.687638
0.60354
0.572959
0.728861
0.359368
0.479493
1.16827
0.595298
0.707054
0.932041
0.471668
0.59978
1.23545
1.27458
0.915445
0.632945
1.17432
1.06788
0.570099
0.352336
0.499449
0.399964
0.467134
0.913415
0.755634
0.566307
1.05739
0.91063
0.890143
1.1002
1.55506
0.903619
0.791743
1.01535
1.1507
1.38058
1.01103
0.730374
0.644886
0.631132
0.679591
1.05772
1.24043
0.890151
0.368583
0.37286
0.506734
0.501016
1.04332
0.965334
0.594752
0.752453
0.406003
0.385179
0.619331
0.444301
0.777193
0.714766
0.707919
0.733694
0.605108
0.815743
0.680119
1.04019
0.624835
0.72006
0.715829
0.730769
0.60831
0.686602
0.685129
0.517978
0.989152
0.489108
0.53296
1.15368
1.95137
0.696166
0.710615
0.597503
0.968426
1.12879
0.979277
0.912856
0.573745
0.559734
0.67048
0.673512
0.485441
0.41126
0.336265
0.458277
0.423923
0.511369
0.462008
0.46552
0.310557
0.319346
0.357941
0.300241
1.05812
0.453427
0.638608
0.592829
0.943244
0.620177
0.637791
0.608715
0.839551
0.641912
0.922376
0.70275
0.651171
0.699172
0.721165
0.899876
0.745655
0.985986
0.70018
0.851328
0.768467
0.572339
0.3861
0.511896
0.51563
0.550873
0.402891
0.378623
0.418898
0.385158
0.793439
2.03454
0.665641
1.12129
1.05199
0.643833
0.40118
0.392275
0.359355
0.30168
0.384986
0.326866
0.477202
0.356573
0.4202
0.849127
0.471451
0.372027
0.370238
0.370115
0.775017
0.434887
0.666005
0.736578
0.324976
0.603812
1.29292
1.19711
1.2951
1.14606
1.28209
1.15627
0.350321
0.33659
0.342244
0.366193
0.323982
0.337536
0.522511
0.911361
1.73064
1.31185
1.31279
1.6183
1.28397
0.847884
0.572955
0.320945
0.807521
0.339573
0.85072
0.885622
0.910308
0.393359
0.396596
0.510301
0.393539
0.45624
0.875828
0.658632
1.01975
0.335928
0.326858
0.330677
0.382231
1.46708
0.394033
0.428007
0.355482
0.350657
0.344976
0.501738
0.582157
0.463931
1.18665
1.14956
0.512712
0.397145
0.362079
0.464289
0.673952
1.36944
0.860911
0.528894
0.391807
0.451076
0.452675
0.398632
0.357056
0.359785
0.45152
0.361467
0.3669
0.400085
0.512878
0.489932
0.585142
0.466683
0.735263
0.397791
0.411642
0.296949
0.345988
0.33444
0.8858
0.32122
0.737186
0.410778
0.486903
0.776792
0.379303
0.351037
0.325264
0.431056
0.400291
0.820527
0.986674
0.449278
0.714137
0.977749
0.417672
0.374165
0.841589
0.771305
0.932062
0.393085
0.518817
0.567566
0.618819
0.438455
0.485036
0.551324
0.393712
0.392685
0.569302
0.979226
0.781784
0.933182
0.821449
0.343175
0.685094
0.507396
0.393822
0.325668
0.554545
0.299705
0.352269
1.40044
1.41682
0.385303
0.298235
0.362792
0.28738
0.407591
0.6436
0.355103
0.58652
1.06403
0.844383
0.726785
0.764346
0.555797
0.497801
0.452988
0.705561
0.300287
1.028
0.841892
0.723576
0.46012
0.417105
0.428864
0.594254
0.624881
0.610091
0.403602
0.529698
0.71045
1.46881
0.873709
0.48745
0.738974
1.33595
1.00581
0.961537
0.954587
0.63216
0.729842
0.465121
0.716153
0.726411
0.43097
0.433236
0.4592
0.360961
0.773185
0.763198
0.543955
0.576796
1.26391
0.666091
0.658386
0.761627
1.01516
0.731989
0.480161
0.550161
0.302199
0.479868
0.622643
0.64544
0.767273
0.524926
0.518256
0.670436
0.713936
0.741847
0.653648
0.695816
0.499792
0.529877
0.961949
0.769333
1.32172
0.766925
0.608895
0.688004
0.757979
0.773975
0.62019
0.748765
0.621296
0.474342
0.586224
0.489227
0.412444
0.769816
0.518484
0.371971
0.388588
0.427836
0.385175
0.47895
0.431347
0.700469
0.46263
0.763252
0.576593
0.67749
0.764878
0.385376
0.578866
0.408823
0.667739
0.585564
0.590413
0.505026
0.338316
0.309371
0.351648
0.344222
0.294994
0.29527
0.313379
0.359047
0.468822
0.352252
0.340222
0.321837
0.32064
0.356925
0.415624
0.547003
0.552333
0.66235
0.46587
0.663533
0.549726
0.575576
0.556919
0.305291
0.343706
0.458045
0.294197
0.812658
0.534612
0.942786
0.762774
0.616484
1.31759
1.05636
0.397384
0.373041
0.511145
0.412944
0.740325
0.685315
0.313747
0.40395
0.412438
0.434997
0.428681
0.466874
0.482501
0.452077
0.530885
0.66829
0.782422
0.319489
1.06887
0.617026
0.706825
0.84828
0.692784
0.61477
1.13624
0.857001
0.318338
0.572197
1.3164
1.86613
1.02212
0.467083
1.0439
1.24132
1.02312
0.84892
0.69111
1.25991
0.99053
1.289
0.528108
1.15882
0.432144
0.540304
0.772911
0.949649
1.6605
0.642184
0.422702
0.41472
0.756058
0.395234
0.400251
0.366641
0.330868
0.325688
0.401057
0.453717
0.352584
0.330206
0.388852
0.437936
0.741825
1.03335
0.314628
0.334856
0.980874
1.537
1.19558
0.544338
0.964109
0.51211
0.528899
0.354937
0.380312
0.377435
0.417726
0.382022
0.357933
0.305955
0.801178
0.975545
0.829671
1.35756
0.384579
0.41923
0.382114
0.577403
0.312765
0.352036
1.31656
1.5374
1.76493
1.78434
0.320908
1.00454
0.618536
1.02344
1.33494
0.436383
0.343661
0.431323
0.33088
1.26425
0.426365
0.41029
0.849615
0.677788
1.07377
1.3082
0.426306
0.426269
0.477917
0.409544
0.523805
0.536796
0.876455
0.939197
0.46389
0.421677
0.413801
0.416965
1.06373
1.13975
0.475891
1.50415
0.46485
1.22844
0.448471
0.638316
0.470735
0.444607
1.30149
1.43709
0.488335
0.436222
0.424023
0.765806
0.551537
1.12328
0.986298
1.33125
0.744608
1.09541
1.2223
0.364691
1.16508
0.585294
1.14262
0.530569
0.489685
0.404395
0.800714
0.392355
0.625589
1.08754
1.21359
0.841203
0.506278
0.42219
0.766728
0.971084
0.831201
0.9849
0.534989
0.449996
0.621728
0.646981
0.344785
0.314849
0.308319
0.306111
0.318578
0.310689
0.33037
0.463162
0.498445
0.476903
0.670673
0.717592
0.673614
0.774947
1.12526
0.631311
0.684011
0.695699
0.757983
0.60259
0.895536
0.89185
0.814376
0.918058
0.831632
0.519451
0.473229
0.571696
0.784149
1.04673
1.63168
0.675378
0.729043
0.821739
0.743018
0.557743
0.502323
0.348925
1.06072
0.328874
0.63017
0.763836
0.744403
0.975013
1.30292
1.24161
0.692113
1.62951
0.606492
1.12303
0.975061
0.317254
0.750277
0.43651
0.37777
0.382554
0.427817
0.346307
0.382177
0.335778
0.467944
1.0287
0.407244
1.03479
0.341936
0.341706
0.401607
1.2424
0.56804
1.23025
0.509381
0.678662
0.69809
0.576859
0.503127
1.24782
0.366245
0.498307
0.999094
0.729659
1.02438
1.00394
0.775567
0.687827
0.959933
0.499933
0.380174
0.874916
0.375934
0.691816
0.352296
0.394364
0.48312
0.302616
0.319483
0.656475
0.75577
0.900057
0.802199