/*--------------------------------*- C++ -*----------------------------------*\
| =========                 |                                                 |
| \\      /  F ield         | OpenFOAM: The Open Source CFD Toolbox           |
|  \\    /   O peration     | Version:  2506                                  |
|   \\  /    A nd           | Website:  www.openfoam.com                      |
|    \\/     M anipulation  |                                                 |
\*---------------------------------------------------------------------------*/
FoamFile
{
    version     2.0;
    format      ascii;
    arch        "LSB;label=32;scalar=64";
    class       volScalarField;
    location    "0.00481384";
    object      p;
}
// * * * * * * * * * * * * * * * * * * * * * * * * * * * * * * * * * * * * * //

dimensions      [0 2 -2 0 0 0 0];

internalField   nonuniform List<scalar> 
3989
(
283.453
242.332
221.283
222.732
202.664
238.476
267.068
213.839
271.404
191.259
286.263
263.52
200.615
270.295
251.631
202.814
291.929
202.311
256.896
209.24
235.043
259.257
202.749
203.894
232.535
236.556
191.419
272.252
257.861
278.294
258.342
186.932
209.869
280.607
189.472
256.115
267.506
204.864
258.958
260.287
210.001
252.792
270.714
262.328
242.452
271.969
248.06
245.112
276.167
218.492
192.473
283.351
276.905
275.807
215.649
273.022
273.178
206.824
216.152
209.636
215.669
223.482
217.691
240.961
201.138
283.046
231.148
223.831
228.015
218.789
258.401
238.513
205.791
206.401
217.119
203.276
209.428
219.421
219.24
220.472
214.087
269.423
229.014
193.034
192.633
289.291
194.286
277.626
214.319
265.034
194.094
269.12
274.348
211.409
256.965
187.77
188.545
237.41
188.754
186.672
265.831
261.537
266.247
276.514
191.05
276.793
221.084
257.136
257.268
201.263
237.596
256.889
193.402
191.75
258.646
190.533
192.092
241.604
275.097
284.105
227.134
280.62
245.708
270.79
198.522
226.631
263.029
212.699
258.076
191.887
197.52
267.741
227.902
275.309
278.879
246.263
261.663
258.204
269.781
255.132
258.523
243.201
194.8
287.079
274.778
193.24
265.34
182.685
257.061
214.485
209.444
196.858
187.996
195.155
187.445
192.46
212.609
191.058
261.778
277.574
274.473
207.934
274.054
286.198
277.226
196.254
190.62
270.165
198.415
195.726
204.999
278.716
241.126
204.992
229.86
223.108
265.944
219.624
186.155
192.588
227.648
193.192
261.89
189.13
226.367
213.218
196.739
224.729
241.998
274.831
203.58
193.323
227.578
224.68
220.032
219.856
233.302
202.017
197.706
198.756
192.432
270.921
273.274
261.235
277.128
267.159
268.034
268.05
205.908
203.001
261.056
198.794
209.605
211.966
201.602
141.68
208.199
256.466
243.113
251.055
202.015
200.427
273.383
196.333
266.465
229.74
232.484
198.493
241.963
215.625
218.254
213.015
216.201
210.037
277.552
278.998
259.977
256.247
261.952
196.76
200.526
275.845
267.148
281.495
278.658
200.304
283.641
268.675
265.391
264.439
276.118
198.409
275.771
269.876
281.966
265.421
267.061
254.199
214.506
225.721
213.101
211.875
243.255
198.87
215.176
236.915
211.188
212.217
224.399
232.037
218.43
277.388
288.63
187.202
245.694
206.783
254.812
239.474
211.093
193.835
246.301
204.726
213.726
207.168
204.884
205.883
210.975
206.707
213.396
218.53
280.323
271.939
224.095
211.058
241.985
264.383
223.463
245.028
217.763
211.07
215.187
268.403
285.578
197.333
275.664
216.957
207.737
266.213
263.037
280.406
208.761
192.301
220.424
222.912
268.887
273.869
193.154
213.647
196.598
206.722
177.797
225.05
204.93
195.814
206.504
191.096
242.372
218.401
201.403
214.227
198.437
217.185
211.094
228.228
193.804
200.864
214.824
225.631
286.239
276.453
215.905
228.993
199.734
227.109
189.271
198.326
193.924
276.901
188.929
196.166
199.974
207.964
211.381
207.492
201.636
233.824
222.454
225.771
190.203
256.969
184.907
215.078
242.219
191.063
187.699
237.229
233.425
202.876
245.488
262.801
212.822
197.733
188.856
193.962
216.127
200.683
186.955
238.515
185.693
194.436
277.127
270.203
256.821
262.833
252.653
194.627
246.69
246.413
263.045
241.104
244.436
212.5
280.09
273.666
252.362
211.07
270.815
270.59
199.09
194.608
243.181
243.191
276.726
290.986
267.694
218.575
209.147
168.187
216.01
199.733
205.59
182.169
204.82
238.748
200.495
204.713
198.584
197.06
198.107
192.707
232.061
248.071
256.536
226.349
214.753
237.036
207.117
222.793
195.974
202.941
215.108
210.603
208.02
199.382
186.143
201.731
277.725
287.165
196.328
213.239
201.087
204.252
201.799
270.995
266.254
200.737
264.218
235.165
281.249
272.886
191.015
218.235
220.098
206.502
210.699
215.036
285.868
281.629
208.915
212.046
190.728
261.999
274.689
266.758
280.852
269.616
200.886
193.663
270.518
266.897
265.395
281.398
277.065
278.413
205.491
272.348
204.839
200.353
207.633
199.689
284.452
236.438
261.991
231.043
207.216
283.226
263.74
275.621
218.962
214.062
195.314
215.533
252.358
234.893
254.046
244.288
207.1
210.235
218.554
233.327
226.768
246.183
219.081
214.881
220.993
263.326
250.914
244.549
252.525
236.946
211.929
234.5
235.64
225.124
222.433
263.403
262.034
191.678
183.14
188.666
192.611
186.08
267.032
188.683
184.065
185.173
193.771
252.237
203.906
192.465
190.956
199.788
201.535
205.56
204.37
189.373
199.301
192.973
194.806
239.999
265.738
243.275
241.722
111.148
112.343
197.372
197.112
199.417
240.228
216.983
206.821
248.749
214.593
207.33
187.326
189.54
217.766
203.32
201.237
197.873
184.064
193.744
190.451
197.644
204.53
202.971
197.715
191.009
195.134
199.801
199.63
188.871
205.647
216.472
202.453
183.35
185.335
199.662
207.375
206.145
221.644
203.11
189.996
207.695
199.531
200.473
188.938
185.78
205.306
206.047
223.676
188.737
209.029
241.159
232.325
196.33
282.774
231.788
261.453
241.582
235.182
239.299
224.565
256.005
207.096
271.517
205.613
217.614
194.808
281.361
247.535
216.298
288.211
189.225
241.367
183.582
253.216
237.542
240.604
235.821
232.811
195.633
192.295
263.575
213.438
208.927
199.003
248.995
281.393
268.198
248.462
267.016
269.768
251.457
274.006
263.218
282.179
254.839
268.181
290.055
251.945
290.596
212.365
253.225
263.255
242.425
260.188
274.246
223.443
238.216
238.795
220.144
256.647
241.517
246.793
255.083
282.601
208.461
245.851
260.022
260.219
222.691
217.143
238.695
237.155
257.278
227.143
242.336
191.826
206.634
223.894
259.256
178.05
231.613
205.786
196.807
187.435
244.99
204.665
241.567
226.933
192.908
192.902
198.144
197.145
196.037
191.583
260.444
190.259
190.01
188.055
218.44
191.193
257.172
222.833
190.202
217.02
267.146
234.25
203.921
176.09
191.924
216.959
187.538
232.054
195.331
255.926
231.626
213.165
209.261
274.184
234.643
210.961
214.021
265.72
241.944
234.651
205.944
212.221
224.028
230.514
219.007
246.307
242.011
221.875
240.561
207.265
205.67
216.517
236.078
223.971
225.705
217.895
219.98
212.583
194.186
184.693
188.138
213.417
220.72
222.635
221.041
261.683
201.292
204.74
208.826
189.464
226.946
205.783
208.989
224.357
218.423
224.408
220.948
195.308
207.735
202.622
227.863
215.764
212.765
216.991
228.552
219.483
273.997
275.262
279.69
213.695
264.24
224.566
274.523
253.457
260.69
254.345
216.38
235.611
239.666
237.875
230.327
279.101
288.12
199.846
262.797
279.057
189.602
187.693
219.621
217.88
216.978
202.685
191.514
213.973
198.647
216.496
204.218
210.789
209.016
218.01
208.941
266.077
219.811
192.73
193.842
194.607
191.745
209.378
219.518
220.159
217.049
209.712
210.614
210.742
211.032
209.689
274.528
251.306
204.326
213.735
215.054
209.661
204.087
193.373
229.199
259.299
228.919
253.713
210.835
197.1
228.028
199.505
194.626
187.179
198.502
200.712
191.206
200.801
194.259
183.117
190.625
197.857
206.88
209.405
210.945
224.25
209.124
230.018
209.51
191.42
228.265
217.005
206.449
192.674
188.282
193.97
196.415
194.252
190.951
189.125
192.352
187.112
205.136
191.368
203.946
201.617
191.307
191.592
227.011
188.395
209.512
186.385
188.366
243.738
179.856
211.779
178.751
187.181
193.311
207.107
206.971
187.788
203.556
207.12
169.354
196.721
195.73
178.966
193.278
197.619
199.627
198.513
190.814
188.318
201.651
199.556
199.541
204.194
202.92
238.995
211.664
211.77
213.535
179.168
211.686
183.064
215.749
214.981
218.128
170.982
185.647
148.208
142.532
158.884
196.174
197.612
190.972
123.65
238.491
195.645
208.484
204.731
227.344
192.969
200.442
211.691
242.826
196.592
250.544
213.368
201.978
194.971
202.932
195.913
189.701
189.311
200.291
208.573
192.362
192.45
187.003
217.289
201.49
244.784
243.65
217.494
194.979
198.892
222.45
197.416
197.139
206.676
198.956
199.053
207.064
196.72
207.422
207.405
196.529
182.14
186.037
183.428
210.085
204.791
204.594
189.921
193.146
193.577
200.355
251.767
233.517
245.456
277.494
204.325
202.322
206.175
268.767
277.742
206.864
248.72
284.208
286.53
209.565
211.783
204.629
277.153
211.831
209.205
237.307
231.518
226.688
283.952
214
212.051
209.003
215.774
218.059
208.539
211.644
211.669
200.243
280.186
255.233
210.456
222.213
210.228
224.753
235.958
254.706
257.824
219.837
216.16
214.847
212.924
214.841
207.317
207.064
198.095
200.028
189.655
188.215
202.21
196.363
197.899
194.294
183.631
198.393
200.385
190.39
198.097
199.758
200.404
199.579
198.695
227.87
236.728
218.387
259.244
206.285
195.43
193.849
197.158
197.9
197.867
206.595
216.84
212.728
215.143
193.837
195.079
195.719
196.932
190.119
202.275
199.045
197.314
198.388
284.137
210.903
216.036
208.726
205.188
222.252
187.295
182.506
199.182
198.313
196.578
194.583
192.022
192.244
191.777
185.476
196.01
197.009
195.285
195.987
194.943
195.578
183.594
186.502
233.806
193.374
223.159
205.157
209.097
202.965
207.764
210.039
207.17
218.806
192.022
194.452
191.986
194.026
190.617
193.545
191.138
191.192
201.292
201.849
202.459
216.221
221.292
227.125
228.178
112.835
217.886
195.71
198.146
195.729
194.666
186.913
191.291
224.078
190.265
213.259
184.586
191.587
187.93
186.205
193.482
187.496
194.742
199.266
184.551
205.082
192.969
258.558
211.93
195.247
201.503
224.573
213.412
209.535
215.137
196.337
205.548
215.789
241.585
222.421
207.749
198.964
209.427
251.896
215.528
184.329
190.147
188.593
198.507
193.464
198.598
197.776
204.916
186.9
211.171
198.61
195.479
207.408
187.686
190.321
201.259
195.741
200.13
251.104
250.06
192.634
184.837
200.436
200.934
250.876
186.846
203.199
251.396
256.314
247.443
248.764
200.094
249.852
204.979
197.555
201.815
196.915
186.955
248.534
254.482
196.622
196.006
196.752
255.021
255.689
250.917
244.421
226.851
252.958
249.65
268.614
283.035
215.291
226.393
266.81
232.487
242.71
275.652
213.731
195.814
245.455
215.377
277.895
233.939
256.748
258.68
286.248
257.166
233.691
266.519
261.563
244.1
249.013
211.678
228.072
231.985
218.622
233.082
239.923
235.798
237.213
232.266
222.47
216.177
212.74
227.92
226.762
211.885
225.678
209.54
215.798
213.163
226.608
209.504
185.682
189.441
186.999
188.293
189.117
274.84
206.505
251.863
225.264
221.617
186.612
219.269
260.675
259.767
270.406
284.002
230.149
214.835
231.451
250.458
285.734
269.163
212.473
263.474
258.721
264.986
246.945
254.098
260.53
280.014
215.57
278.36
243.905
252.583
257.354
257.392
253.554
210.373
216.041
277.771
203.979
226.305
235.758
262.111
277.255
248.576
224.456
244.138
217.094
224.982
220.897
221.729
215.868
213.636
228.445
292.618
233.483
276.991
278.151
259.57
205.886
282.063
248.652
239.861
221.073
279.234
222.522
223.513
220.287
229.971
233.796
236.378
189.807
249.376
198.875
218.257
232.602
252.681
235.738
231.552
237.064
240.525
244.953
238.86
246.724
207.565
242.962
205.746
279.918
194.377
203.551
248.099
225.005
273.142
247.722
262.572
191.394
195.71
251.198
239.012
232.866
204.505
281.262
193.049
200.634
212.709
180.766
183.937
175.064
197.047
191.316
233.961
289.408
210.777
246.007
214.767
228.694
244.948
251.913
210.583
202.653
225.562
266.974
278.418
209.195
255.859
259.581
206.855
243.389
265.622
279.989
255.537
269.837
283.357
234.432
192.267
218.639
211.853
212.838
284.967
217.697
290.753
281.453
256.097
276.328
202.588
198.547
208.785
284.105
227.443
210.208
228.648
239.375
221.936
232.348
287.228
207.92
214.696
205.223
206.028
203.513
195.414
203.684
289.424
201.852
278.299
270.023
197.591
189.384
197.07
214.621
190.214
191.334
202.46
209.968
202.834
200.006
195.456
200.665
203.527
209.294
222.799
209.978
191.012
177.585
182.457
207.93
223.949
209.825
231.022
231.711
196.591
196.304
198.44
211.983
105.127
146.154
147.095
161.429
20.8867
202.372
201.71
207.747
234.84
260.432
237.958
275.637
234.667
260.431
240.421
238.903
223.563
180.029
207.577
207.851
195.304
189.676
218.043
193.736
250.053
213.249
187.402
192.607
193.472
196.108
192.179
221.892
219.552
213.618
187.64
190.601
203.148
211.186
223.973
199.625
174.708
226.848
205.397
203.619
195.334
220.654
228.064
205.496
200.747
188.417
201.563
204.408
221.152
197.09
228.925
191.206
193.684
248.433
194.997
199.746
240.048
195.472
192.876
226.38
240.664
259.023
238.241
222.374
190.827
233.148
206.027
219.559
204.382
216.055
207.853
192.092
198.477
225.666
194.427
236.24
234.191
197.373
193.007
200.027
192.624
196.096
207.343
232.226
216.661
179.884
262.8
274.857
208.92
191.149
234.533
191.669
214.484
214.956
285.124
195.459
191.694
199.395
265.69
263.448
244.891
245.194
254.14
248.289
209.759
217.465
211.115
215.721
229.879
263.169
171.07
214.321
229.979
214.346
192.334
201.717
190.815
191.142
241.932
195.419
213.127
219.817
245.693
234.521
200.552
190.397
238.558
191.812
184.992
235.57
122.417
259.53
239.169
78.9613
195.471
254.596
246.98
195.387
247.075
241.19
194.728
190.307
266.876
208.124
209.492
224.641
242.032
244.193
255.898
205.081
264.458
210.848
204.55
186.18
252.656
200.387
241.241
261.611
206.987
206.198
207.579
189.656
217.73
211.965
212.658
197.866
217.168
190.666
195.54
188.306
218.026
220.956
221.753
270.542
213.337
215.908
195.768
260.278
202.88
200.128
273.99
266.025
203.44
186.362
211.672
210.465
196.171
248.39
214.39
213.744
209.006
222.388
207.758
208.989
202.6
198.41
265.066
232.754
226.496
209.557
257.149
228.19
280.8
194.483
213.521
221.615
207.312
212.007
222.723
224.12
256.19
218.974
210.987
221.024
220.201
257.416
201.921
210.733
209.835
214.175
261.202
269.717
202.405
211.652
259.923
227.07
257.085
220.096
226.012
187.361
229.653
237.198
214.612
217.711
210.726
221.308
212.082
213.176
234.242
224.253
232.212
233.766
205.176
206.339
207.199
244.741
218.706
210.838
224.92
211.134
210.161
213.172
214.552
251.051
255.955
217.285
231.426
241.398
238.823
242.184
241.131
213.554
265.048
263.118
251.291
247.106
248.406
249.115
244.498
262.417
263.496
239.77
244.041
276.631
249.579
263.104
258.756
293.472
286.481
276.075
270.31
281.872
266.297
282.548
271.347
282.566
284.031
281.569
275.493
191.46
201.285
204.021
248.85
249.46
262.406
247.521
190.088
183.474
246.477
198.055
206.135
213.259
199.813
192.035
192.341
282.81
287.912
282.97
238.85
245.737
266.625
192.36
183.309
278.323
197.909
201.233
202.083
197.342
271.802
193.413
201.172
204.181
200.202
210.157
196.778
187.11
188.647
195.371
199.285
213.981
213.712
188.994
212.513
209.336
219.471
208.005
203.144
202.393
204.934
200.055
190.849
219.903
217.913
214.654
206.208
215.879
201.806
206.451
251.989
220.677
218.161
216.095
217.069
232.254
232.703
252.31
258.7
229.246
252.073
235.473
255.058
263.76
257.649
245.971
262.39
236.249
272.723
212.881
238.033
263.17
271.84
263.698
206.717
289.926
272.869
203.756
254.294
248.816
258.287
254.113
258.743
238.25
204.202
202.861
181.79
181.737
193.186
189.302
190.64
213.232
193.855
200.43
197.474
196.013
181.206
189.059
194.042
189.795
198.403
189.658
195.735
192.296
216.525
203.486
205.531
196.944
187.601
189.073
192.101
188.249
201.101
191.072
186.102
221.748
205.947
202.315
218.553
198.291
200.498
200.667
253.247
222.271
215.677
213.006
212.446
208.236
248.057
223.84
242.938
254.154
240.646
255.599
225.098
224.541
244.769
247.194
289.084
285.468
257.085
246.302
278.615
267.558
278.462
229.031
228.492
224.219
222.491
239.894
220.496
226.8
246.143
251.373
193.634
192.197
196.093
203.998
207.887
205.96
205.66
210.558
273.277
201.166
202.142
201.185
197.802
245.085
256.366
252.151
255.755
243.682
235.851
261.333
191.913
214.915
185.779
185.62
186.462
238.463
195.117
217.569
203.274
199.923
210.974
209.672
278.825
205.121
209.787
264.251
202.328
218.043
144.052
247.678
259.218
261.895
251.405
269.395
287.196
235.412
266.413
284.036
285.387
278.875
248.897
281.776
255.043
257.313
252.56
266.479
253.442
264.483
224.186
237.07
255.615
249.793
248.652
257.569
246.978
199.117
195.166
212.941
228.939
207.111
239.186
242.264
239.73
244.859
207.508
215.762
195.926
201.257
243.935
257.944
244.542
221.073
255.038
243.898
220.61
204.412
208.396
244.609
246.263
239.665
245.535
238.774
237.45
222.682
215.871
202.552
236.124
219.273
229.125
199.625
214.429
217.696
210.837
157.702
217.456
184.43
182.571
219.42
194.461
278.438
213.907
266.68
275.685
213.479
214.489
212.542
214.794
252.903
213.316
248.322
216.606
213.082
211.304
206.398
204.149
205.356
201.547
193.04
192.745
203.028
200.521
210.67
209.769
207.231
210.056
196.999
247.162
197.408
204.375
201.057
189.786
194.864
192.816
277.881
284.209
240.386
268.892
261.397
249.371
212.953
246.318
216.927
229.196
238.4
251.757
228.063
191.568
204.359
191.649
198.043
215.046
244.662
239.339
249.596
253.6
231.986
231.16
249.908
260.005
274.316
259.461
253.443
236.886
238.029
191.233
241.675
245.761
228.24
251.976
220.411
224.179
211.49
273.139
269.094
271.618
194.048
243.588
215.564
260.295
233.38
220.128
221.666
210.33
195.631
195.092
195.73
196.646
202.676
280.83
259.456
205.876
186.567
250.281
213.091
190.815
231.776
202.634
207.628
202.824
194.348
189.233
242.769
200.334
197.938
205.142
193.588
228.258
219.53
202.461
220.898
194.066
202.289
275.845
187.501
256.896
193.623
224.465
194.013
217.322
192.692
194.242
205.14
202.007
209.228
202.702
210.473
208.868
214.565
212.034
215.634
214.358
210.75
202.6
218.869
189.84
231.253
190.894
242.726
199.838
207.567
203.584
190.502
191.837
197.819
192.144
217.973
216.519
212.453
245.65
202.03
201.155
204.829
200.416
202.546
205.204
204.418
202.561
202.163
210.407
209.371
201.996
203.354
201.595
203.264
211.516
213.413
238.817
202.484
197.261
192.91
201.282
200.962
196.538
193.503
190.521
213.521
202.305
199.574
215.839
199.636
187.136
202.325
203.804
200.207
199.486
201.618
189.216
255.13
240.616
217.228
234.6
225.872
240.549
220.392
242.781
250.862
233.499
199.215
188.635
203.795
202.411
196.136
192.322
195.564
188.818
185.242
195.073
180.608
207.74
185.741
189.561
192.203
191.762
192.633
192.556
204.256
201.005
186.377
190.072
205.156
97.4647
218.213
205.801
206.056
204.726
215.291
212.04
203.398
202.387
218.226
210.82
220.244
212.329
203.781
203.483
208.507
198.949
195.237
198.063
201.965
231.054
149.825
218.702
207.21
224.114
211.322
199.311
203.246
145.999
206.497
210.104
206.482
202.816
222.667
207.552
222.736
192.733
188.854
185.054
196.65
216.505
208.753
211.444
218.91
191.776
198.908
210.559
200.034
200.347
197.363
210.134
213.703
218.837
220.566
211.172
213.152
205.104
218.94
212.418
209.776
215.782
215.26
221.729
255.008
215.73
208.152
235.059
211.357
222.01
234.135
189.111
191.057
225.2
222.987
230.208
199.001
215.695
197.528
200.083
196.044
197.256
196.961
215.097
199.131
195.496
200.14
202.104
199.238
191.966
203.188
196.169
256.278
266.244
188.453
213.576
257.888
266.484
252.482
257.733
252.86
201.366
253.473
261.37
256.313
253.963
257.03
257.935
251.224
187.831
204.75
201.553
188.952
216.334
190.241
192.97
201.741
200.001
196.882
188.882
202.137
198.266
198.675
196.669
25.9149
96.9633
200.251
215.166
236.35
203.647
217.961
204.151
205.427
213.696
208.945
212.461
209.868
212.312
188.75
243.628
204.528
212.246
198.858
197.225
196.825
204.149
206.717
188.799
195.336
208.445
195.926
253.058
247.04
249.603
252.89
253.691
266.767
241.246
227.67
253.386
241.858
273.589
233.992
228.113
241.172
240.401
257.329
259.59
219.165
244.954
238.061
234.815
239.848
256.345
228.459
276.787
281.776
279.072
241.241
245.772
249.114
256.574
255.213
233.043
253.369
234.48
231.916
222.278
239.478
202.336
259.615
255.224
249.929
252.519
244.099
249.728
230.885
279.776
243.013
251.037
260.976
213.102
257.638
249.916
245.595
239.516
238.52
242.479
244.908
235.216
285.877
292.034
274.034
260.173
259.621
271.367
289.94
295.407
287.208
193.498
278.309
207.265
208.968
210.687
208.952
274.235
256
244.963
262.27
284.191
283.719
286.671
281.191
220.658
277.781
283.38
283.471
197.706
186.023
187.551
191.216
189.032
216.331
277.266
196.052
191.725
190.16
198.133
256.98
257.369
205.931
231.917
243.47
260.183
231.073
240.329
198.283
211.21
224.921
221.657
254.253
222.995
200.528
204.805
202.082
198.154
187.774
188.551
190.42
192.745
189.509
185.226
206.977
208.47
197.754
205.563
205.831
225.754
207.686
210.741
200.352
207.562
183.79
183.843
183.724
190.021
223.593
226.534
222.242
209.806
222.365
263.628
263.625
218.821
267.575
231.356
194.084
209.978
225.949
249.943
240.823
249.563
235.712
211.138
240.878
221.603
197.835
223.504
213.457
194.255
263.835
247.235
224.236
240.037
255.013
198.526
189.078
225.651
222.039
192.338
221.197
208.891
210.054
211.058
210.619
185.355
191.996
216.866
228.704
242.574
209.087
184.788
190.037
184.521
191.941
64.4853
218.61
229.483
223.885
224.499
223.765
226.507
231.108
247.867
232.808
213.673
248.467
231.799
269.838
255.99
209.488
215.726
227.648
214.734
260.228
253.466
274.335
280.19
249.507
274.629
212.962
270.117
213.072
228.233
215.727
219.126
220.059
211.371
217.491
236.633
256.065
236.575
214.706
207.635
239.336
212.103
213.495
216.212
210.436
205.006
217.751
231.9
203.894
205.163
199.085
209.335
201.74
222.398
185.862
224.237
208.72
207.665
200.182
200.356
198.759
219.743
230.395
216.026
227.634
222.966
224.55
202.532
197.776
205.507
209.483
211.999
215.692
206.787
207.334
205.55
210.642
216.177
215.94
216.068
257.214
210.877
195.25
212.407
211
205.742
208.107
212.354
207.841
194.43
195.778
200.2
200.451
202.384
246.333
185.074
186.836
193.234
184.977
188.921
188.639
200.684
197.177
188.838
193.525
194.774
192.156
212.484
190.462
202.882
199.862
208.393
207.686
199.563
205.469
212.581
212.14
209.796
198.738
191.959
222.942
192.88
204.068
201.866
211.407
212.794
188.982
194.085
184.669
189.088
199.159
218.384
197.507
224.35
198.307
208.666
211.099
195.735
200.219
194.326
199.25
185.898
214.364
218.715
224.384
230.496
256.507
193.24
197.981
197.539
191.385
208.222
195.411
187.766
198.55
196.302
210.293
207.747
203.198
207.499
210.228
206.854
205.57
194.775
201.079
202.428
202.341
202.228
207.723
192.363
202.306
199.572
200.318
243.891
229.047
193.091
241.437
194.729
190.29
188.38
190.748
190.918
93.2722
195.183
194.376
209.178
209.123
200.418
218.847
189.998
197.836
187.424
215.524
184.857
193.244
188.958
196.236
203.026
196.22
206.314
195.427
199.502
192.936
210.296
204.521
207.315
199.593
183.678
211.894
195.878
239.385
204.285
187.543
102.642
7.27016
222.613
209.861
225.415
208.67
203.448
197.832
193.913
219.676
210.758
212.944
218.33
164.984
227.515
214.265
219.26
206.681
216.856
201.294
208.859
199.006
213.331
208.404
211.068
178.22
194.507
206.058
205.22
200.865
199.691
193.896
219.133
221.394
222.235
217.633
215.12
226.765
187.679
141.101
203.426
195.393
187.618
197.05
189.979
195.873
184.818
197.708
201.449
200.986
201.508
200.397
199.548
206.169
211.065
195.543
195.981
218.443
209.798
211.545
204.579
191.37
212.143
206.504
210.76
212.568
214.639
217.641
212.323
208.299
173.125
229.879
188.93
188.192
192.403
199.031
191.839
183.877
180.679
196.688
192.712
195.232
188.243
193.019
202.206
195.409
191.213
191.69
186.863
187.963
204.221
216.462
204.966
211.574
201.006
208.257
202.902
201.648
199.293
208.735
199.985
203.486
241.588
199.185
201.726
206.799
220.505
206.167
202.285
216.967
197.977
196.105
202.769
185.66
189.23
185.687
242.245
244.852
200.092
211.738
207.792
207.47
214.58
187.936
205.869
191.593
211.346
190.443
198.615
197.227
211.453
206.716
213.442
220.926
223.518
200.351
187.738
210.724
185.185
202.919
205.185
200.271
219.152
201.628
218.246
223.723
210.47
209.366
189.201
220.17
229.313
192.477
201.868
234.564
247.321
240.206
212.825
212.576
62.7106
208.98
184.24
183.714
184.959
183.807
191.392
200.416
210.31
194.415
188.845
188.851
189.94
193.419
188.081
194.747
190.102
213.669
196.847
218.241
187.196
195.303
186.299
201.793
200.962
189.55
192.691
188.457
191.961
204.545
189.338
211.588
212.674
223.94
218.155
244.029
202.931
188.969
221.769
207.661
206.905
220.13
242.383
230.201
213.363
224.458
208.832
225.751
205.009
221.498
228.698
216.616
182.965
183.517
219.62
250.038
214.436
207.628
192.715
202.146
199.272
198.67
197.227
189.862
191.973
201.787
195.11
198.567
186.314
190.833
194.6
185.564
185.647
187.126
188.199
185.927
195.758
199.935
249.49
198.907
215.979
209.472
191.736
208.851
207.57
230.395
197.66
262.198
260.413
270.538
277.208
255.653
273.845
239.552
211.995
210.717
220.459
266.588
276.228
278.586
271.866
253.625
248.987
233.363
248.779
255.301
235.516
254.557
236.815
255.878
273.587
227.206
239.153
238.743
263.583
244.059
235.635
230.381
230.38
195.373
186.176
196.833
190.559
234.834
262.456
265.532
274.884
256.793
219.052
201.185
203.341
204.094
205.275
201.932
201.079
221.64
191.475
205.308
201.018
201.394
200.839
197.3
201.236
200.974
220.093
242.069
209.076
208.294
202.705
196.593
189.155
207.747
208.407
203.3
220.149
266.415
282.27
282.552
269.736
282.232
252.496
186.823
281.875
285.42
277.841
215.878
211.089
270.204
273.792
213.105
211.355
269.095
187.771
252.902
281.7
198.052
207.622
257.701
267.383
257.597
202.091
250.814
281.099
196.343
202.494
200.733
237.225
255.655
278.851
205.149
206.342
204.761
209.318
202.352
201.838
203.808
207.215
185.793
182.286
256.514
249.138
260.452
207.262
184.563
226.542
238.667
230.296
232.268
232.11
223.1
245.432
241.957
191.629
240.683
217.981
243.803
249.176
246.528
246.953
246.968
243.953
230.702
200.914
255.383
263.8
193.254
204.642
213.926
200.218
200.148
198.486
197.126
262.556
201.221
197.296
274.653
281.707
219.679
211.944
226.568
185.613
186.55
219.108
220.793
240.532
241.313
198.376
197.075
191.953
206.515
190.335
270.073
191.431
189.842
203.497
196.898
243.505
209.771
198.858
197.27
232.082
200.27
199.955
201.748
199.967
206.784
200.589
199.314
208.947
210.774
212.745
206.766
200.586
201.092
215.146
219.373
224.106
237.97
231.086
226.26
213.246
100.719
210.792
208.161
212.306
214.663
197.963
199.699
191.373
191.543
191.661
191.543
184.512
180.786
185.169
186.469
185.514
191.453
194.782
206.249
193.044
194.481
195.6
233.369
227.007
245.1
265.306
245.683
235.421
284.18
262.143
247.778
259.361
251.522
259.551
205.235
201.061
271.124
256.53
242.569
243.175
244.809
233.326
259.787
267.505
246.104
208.376
268.151
233.597
253.051
244.158
249.978
210.571
246.725
291.269
264.629
287.254
284.525
275.924
283.726
209.183
276.313
277.898
259.734
256.288
271.08
216.041
191.711
221.643
222.101
224.047
221.977
228.487
230.382
188.152
189.423
195.53
191.656
191.333
188.352
195.837
210.37
188.423
228.45
229.283
236.644
234.269
224.869
220.23
189.46
216.203
253.797
237.298
192.31
198.039
223.481
231.526
205.365
202.973
201.912
211.64
201.946
204.95
207.135
195.993
202.529
207.061
204.698
197.223
188.111
193.929
192.106
188.642
195.382
209.48
197.324
192.958
206.374
223.116
213.074
209.901
260.103
231.669
253.054
268.185
202.545
206.09
210.091
201.627
231.166
202.834
222.534
195.341
208.804
214.222
205.831
195.048
185.423
197.393
186.909
185.538
187.655
186.838
198.939
193.971
211.175
208.99
210.436
214.109
205.421
184.587
183.84
182.507
192.083
254.132
191.523
235.916
194.87
203.887
205.514
194.962
190.093
188.404
197.599
187.805
196.347
189.688
191.148
193.753
193.583
199.223
206.259
196.922
201.435
200.523
188.65
204.129
222.382
212.875
210.674
220.359
213.351
207.829
203.652
195.515
204.682
214.658
204.193
217.189
223.186
209.139
221.048
202.679
193.135
196.485
188.879
194.665
194.084
202.932
198.292
197.831
198.039
193.115
178.99
187.286
188.308
209.778
238.161
215.885
228.363
208.947
191.497
192.185
191.441
197.735
194.007
196.58
196.579
212.274
224.821
214.604
201.845
205.873
204.882
195.241
209.01
221.59
209.637
195.799
205.422
201.348
200.845
189.171
200.728
198.946
187.135
263.211
198.197
207.633
205.271
203.115
205.079
201.819
209.567
221.009
185.377
213.323
214.548
229.857
225.267
233.983
230.259
210.312
236.544
211.026
190.497
224.006
212.344
214.743
247.754
238.051
247.365
196.625
213.217
222.428
213.627
195.479
197.564
197.897
186.703
185.605
219.4
235.851
190.986
192.985
210.571
216.015
237.766
273.314
278.519
189.143
182.294
250.333
243.455
191.104
178.35
208.182
211.398
213.671
211.304
216.167
215.377
225.156
228.327
212.46
201.279
184.443
203.464
216.222
213.625
223.659
208.293
215.698
214.733
191.03
187.297
187.144
185.949
187.582
218.094
221.646
180.832
258.551
177.977
257.763
257.772
228.811
222.944
221.437
204.824
218.65
189.718
215.244
186.064
197.848
186.664
194.096
190.464
199.507
273.41
186.941
189.07
265.849
192.462
200.194
195.111
189.697
198.784
194.001
208.504
175.87
281.245
283.332
217.799
285.117
285.574
234.834
229.348
240.228
204.297
199.599
289.28
191.636
202.16
277.677
205.766
215.371
222.967
275.508
217.049
223.697
218.993
232.376
280.193
265.755
274.49
277.621
227.116
288.085
286.109
258.214
261.147
220.592
218.895
207.057
213.08
202.873
212.101
288.24
210.162
187.582
194.433
190.648
268.387
247.028
287.209
209.302
237.227
195.882
196.475
189.443
188.854
192.214
194.304
193.928
267.829
215.514
213.592
214.973
228.869
227.153
215.162
254.212
257.797
251.833
227.099
245.576
261.518
286.107
262.104
272.796
242.924
241.289
262.004
265.467
232.542
265.254
246.402
256.581
244.754
253.781
263.704
280.049
254.236
223.124
219.557
218.434
229.157
215.861
218.629
228.06
245.299
246.072
241.328
224.963
250.956
225.753
254.547
220.227
244.42
229.721
230.734
242.79
262.001
256.153
259.474
246.713
247.023
266.817
243.547
235.212
219.293
216.249
250.765
262.565
245.156
237.881
271.863
279.867
264.938
271.96
193.4
251.621
224.161
228.768
243.765
249.472
195.704
201.146
199.687
198.124
198.319
202.413
211.331
218.475
213.966
264.378
252.786
245.703
202.543
209.996
209.46
207.56
205.951
208.081
206.483