/*--------------------------------*- C++ -*----------------------------------*\
| =========                 |                                                 |
| \\      /  F ield         | OpenFOAM: The Open Source CFD Toolbox           |
|  \\    /   O peration     | Version:  2506                                  |
|   \\  /    A nd           | Website:  www.openfoam.com                      |
|    \\/     M anipulation  |                                                 |
\*---------------------------------------------------------------------------*/
FoamFile
{
    version     2.0;
    format      ascii;
    arch        "LSB;label=32;scalar=64";
    class       volScalarField;
    location    "0.0882685";
    object      omega;
}
// * * * * * * * * * * * * * * * * * * * * * * * * * * * * * * * * * * * * * //

dimensions      [0 0 -1 0 0 0 0];

internalField   nonuniform List<scalar> 
3923
(
149.234
99.0506
215.427
1751.16
679.154
822.285
1241.21
732.348
767.507
756.616
1331.13
286.779
79.9048
405.959
113.601
52.2152
77.441
98.5533
100.054
82.3773
266.067
299.953
146.019
253.733
99.6931
348.178
291.157
234.682
254.895
332.4
240.124
240.761
315.49
830.829
807.573
999.387
742.156
737.31
829.782
447.365
1119.21
44.0001
925.95
948.005
599.026
660.435
57.6393
454.9
99.9685
575.547
645.895
677.901
204.51
88.1934
199.799
79.2522
79.7955
47.1629
412.14
287.885
289.872
744.178
160.299
198.786
52.3928
98.3746
264.906
378.063
452.811
395.413
47.1311
585.219
411.257
570.419
314.184
652.631
104.524
627.641
384.989
424.747
323.395
676.433
160.845
324.019
721.081
341.26
170.834
186.608
503.761
589.144
113.946
553.757
243.809
609.204
89.9791
136.41
129.4
111.508
185.727
263.984
104.063
486.176
77.8417
210.296
352.25
323.347
390.464
615.38
1025.83
1004.33
652.466
538.332
118.507
158.618
713.637
587.346
554.662
528.053
1002.01
663.928
78.5379
976.953
506.628
114.551
398.109
412.548
602.958
482.724
421.347
598.957
331.305
341.303
368.109
77.6855
173.929
71.3683
403.767
452.723
186.779
177.72
384.927
391.659
313.198
245.488
114.457
43.1135
350.265
332.903
100.826
63.4576
74.6427
317.09
515.923
229.831
113.567
479.028
89.4639
87.2916
275.965
2040.7
280.785
583.18
439.918
635.648
662.063
164.554
117.417
184.288
84.0369
409.528
78.0158
102.074
383.07
844.068
842.359
153.339
156.034
344.771
507.594
192.589
389.666
893.977
156.068
360.861
440.715
312.007
65.3043
335.415
104.901
105.485
605.62
438.252
103.47
97.9493
205.199
336.776
1412.45
300.615
442.345
440.979
422.073
396.564
521.364
325.164
152.749
812.127
76.7003
462.474
200.804
481.795
329.865
189.006
1006.95
99.3746
784.634
768.104
58.84
113.539
601.019
536.209
470.32
437.282
439.124
501.956
507.351
73.4261
128.936
95.3486
116.614
88.823
127.813
80.829
106.804
174.326
151.453
212.425
152.686
102.918
181.549
150.643
108.074
96.7958
949.212
169.37
644.826
612.149
1425.62
150.499
161.645
165.689
651.808
386.015
193.715
286.26
289.34
177.043
571.957
1404.11
105.092
200.839
869.108
908.337
195.291
280.876
150.111
170.584
586.606
384.542
323.59
308.267
248.286
664.251
157.329
190.193
134.675
91.9852
182.521
97.5227
130.806
100.011
192.792
209.551
167.847
94.194
548.974
64.2713
245.429
334.285
56.4777
316.972
390.521
272.687
283.835
277.87
117.305
1273.49
1012.76
634.229
693.681
901.362
496.468
656.221
611.867
826.043
849.752
967.416
1660.91
1410.29
387.261
449.608
430.659
396.141
418.397
599.831
529.642
579.794
598.566
555.598
219.603
192.028
412.267
454.345
404.979
468.367
367.246
549.708
181.828
703.775
1203.53
289.639
285.875
150.67
453.883
183.583
153.593
144.24
109.816
254.601
256.973
197.185
269.236
318.907
223.573
350.929
435.017
310.136
318.575
254.3
187.476
222.831
290.724
319.366
202.466
88.3801
88.5026
79.6882
142.42
82.7864
69.4409
95.9018
126.183
79.454
102.505
90.8949
83.6705
77.9636
84.8106
78.6932
78.5758
59.5025
49.4731
345.149
289.262
348.529
1241.81
1242.35
1089.56
498.996
483.285
497.258
527.845
459.037
451.095
176.013
196.243
189.904
171.078
146.116
100.182
343.774
341.606
357.49
192.421
303.025
272.857
506.387
282.362
541.777
956.986
288.13
257.851
269.087
312.22
284.805
311.009
311.315
167.64
219.623
250.438
232.072
369.877
310.721
477.18
558.137
563.224
548.115
458.32
442.13
520.557
203.453
192.522
391.43
222.423
102.044
482.393
245.932
278.227
171.419
121.895
306.208
262.352
746.573
113.113
515.939
168.956
650.915
983.654
837.932
462.741
290.191
547.999
86.0371
128.633
648.864
44.3942
44.0519
214.756
1078.54
158.429
531.466
892.064
539.358
329.717
467.926
213.552
73.3262
1505.76
82.9045
138.65
164.882
650.644
305.577
472.795
92.5838
968.877
475.063
79.1413
212.452
426.17
948.529
85.9397
95.6138
587.271
87.3234
250.828
1067.61
1000.35
460.476
73.8572
96.3908
187.998
852.517
414.631
753.308
335.714
168.248
159.734
163.373
177.968
568.722
3154.42
1498.33
143.073
2010.68
239.232
251.191
183.432
725.954
498.778
996.316
245.284
87.4111
123.555
85.2802
349.893
46.6325
659.288
253.762
84.2922
77.7818
78.9375
647.963
247.726
524.604
263.572
1112.66
66.0508
42.4018
255.039
316.187
580.446
340.405
456.096
145.898
163.468
492.284
425.648
551.127
1400.35
382.783
475.87
857.366
175.764
407.686
512.853
652.802
566.312
83.2486
960.136
495.342
911.241
438.425
477.764
174.155
143.43
528.203
369.443
234.564
279.071
294.287
577.33
363.907
441.508
1403.33
128.226
619.183
546.848
181.763
625.709
393.517
123.47
862.648
640.405
511.287
177.753
283.634
327.163
451.288
232.53
380.105
326.559
317.036
90.4297
237.438
351.787
719.548
324.679
194.987
235.08
228.827
218.841
300.765
335.488
865.688
550.673
1224.31
327.504
667.404
473.949
108.66
94.1121
498.159
98.6697
116.639
305.386
932.842
463.49
561.907
87.0328
598.107
397.048
208.788
200.889
120.797
486.777
238.159
442.686
295.536
157.956
365.115
159.045
463.547
394.217
502.557
294.47
284.979
378.208
617.502
396.162
632.275
333.914
719.662
451.756
585.399
500.687
503.415
73.6632
117.992
298.942
524.145
327.74
87.4952
370.536
99.36
157.535
116.94
581.173
551.114
371.127
101.236
609.347
350.723
180.421
714.094
207.303
605.182
106.583
579.629
1114.37
549.229
465.663
1395.98
1227.38
625.09
347.455
637.134
557.646
304.517
1088.3
235.825
391.9
413.505
307.363
460.679
443.32
542.454
571.842
848
121.67
56.9228
45.5188
45.8898
107.454
77.9239
78.8565
81.6691
153.545
718.4
625.717
69.824
634.44
117.386
56.845
43.6483
84.9393
59.6232
147.036
361.853
80.3572
198.531
276.111
77.3669
50.4859
90.3252
61.5756
43.5267
732.999
83.3967
61.8726
62.711
463.738
374.738
472.327
189.169
1184.5
379.165
914.722
760.965
763.282
1381.33
1069.71
739.364
199.491
337.023
627.209
623.469
318.802
923.541
1041.02
824.224
682.896
558.683
563.221
496.315
237.568
537.706
365.059
479.806
563.224
545.651
448.361
152.842
60.8682
134.361
101.94
132.975
76.1073
365.999
102.581
128.938
105.252
340.709
106.038
613.2
77.2881
80.4986
219.687
499.288
117.508
184.708
298.495
375.195
425.597
382.217
281.091
166.01
85.9811
166.846
88.3351
346.808
107.61
586.892
1681.88
411.867
108.236
217.742
508.698
291.922
331.496
414.747
272.566
183.464
1245.1
523.263
1140.7
527.279
373.996
768.466
225.262
366.223
69.4993
510.026
590.526
337.102
175.802
315.335
556.282
397.081
310.952
254.86
212.204
104.847
1351.12
235.452
170.086
572.449
438.407
475.053
227.276
260.159
314.576
165.54
201.894
400.252
161.465
96.5004
306.238
105.622
102.024
178.88
75.4391
71.4962
227.227
870.672
318.914
199.543
83.8713
911.771
239.239
692.237
121.317
114.792
1263.97
489.306
743.493
174.323
86.9991
100.796
213.083
144.09
117.126
80.3484
241.473
639.075
798.411
407.154
499.941
441.06
500.525
473.277
317.621
169.528
528.248
640.284
123.386
361.162
84.9465
108.502
360.006
78.4194
412.435
271.026
90.6682
239.002
165.932
167.969
119.346
867.287
194.143
208.505
299.537
275.525
102.825
97.56
338.035
293.291
288.685
138.26
329.938
129.734
283.441
263.937
417.958
73.3608
84.7503
482.93
423.66
360.481
328.964
696.349
543.089
654.884
512.77
399.816
916.028
341.303
259.051
335.248
263.466
328.731
1277.68
337.725
1310.74
395.572
340.96
640.472
369.868
505.282
472.31
465.843
640.939
379.467
568.035
345.973
431.102
436.572
369.154
103.636
456.266
213.678
211.547
408.559
45.5228
70.1282
103.609
548.343
895.421
635.243
69.4368
102.031
156.395
1169.68
188.769
541.184
131.903
786.39
133.928
382.1
428.317
285.236
762.565
667.917
640.79
847.079
304.556
1289.57
747.085
1256.86
590.414
372.007
3464.71
857.91
1834.56
807.82
244.405
54.5992
546.537
693.268
309.558
519.181
496.043
307.775
303.068
542.439
803.111
1053.31
241.879
244.112
441.759
376.081
248.329
468.322
390.564
994.374
659.77
347.162
674.887
573.553
468.238
442.037
599.805
196.624
173.664
723.707
140.707
83.5203
101.799
474.17
389.119
103.94
476.303
321.714
135.027
526.462
142.193
138.657
93.7378
114.217
189.953
371.947
88.6083
108.54
174.846
107.184
78.5777
505.572
341.361
68.8139
43.3693
68.6293
239.544
371.971
85.1138
133.297
84.8171
387.56
344.636
152.798
95.3334
453.048
498.141
651.154
555.533
417.474
79.3587
353.859
181.203
285.875
624.039
328.608
444.218
1145.46
176.853
322.135
241.233
347.179
732.225
463.262
383.408
652.526
283.413
620.84
504.065
256.029
1286.76
1085.51
432.667
226.259
254.391
123.373
171.173
424.478
270.574
253.157
134.92
862.526
473.146
471.046
539.719
1789.73
291.823
414.463
414.769
417.27
244.331
363.727
288.845
1431.78
322.118
243.317
570.858
83.7113
124.517
267.243
335.366
335.198
137.404
227.895
294.811
863.754
667.853
115.686
531.289
556.958
356.57
378.362
101.582
65.593
211.422
1003.96
1506.47
285.614
999.344
303.395
509.507
1256.17
501.181
395.75
720.419
783.938
523.43
670.536
259.639
334.247
452.734
127.393
371.655
146.987
294.157
280.16
259.3
217.368
482.271
289.788
349.317
360.468
326.114
458.239
467.203
343.394
349.289
462.637
388.26
394.56
394.973
328.473
902.297
501.753
541.808
98.6162
254.714
652.431
539.697
698.139
669.375
478.473
465.227
780.54
291.485
199.287
712.081
325.705
915.749
655.569
688.727
540.816
1015.17
275.018
862.099
1243.07
393.742
291.369
397.159
278.129
528.787
490.81
695.332
467.088
719.215
567.868
770.016
407.795
189.459
407.608
422.933
261.085
159.015
597.178
354.035
271.407
255.547
450.26
93.9996
591.738
305.726
492.339
618.385
408.842
396.112
319.787
332.854
425.09
445.592
570.119
391.52
333.246
625.808
360.108
601.171
427.229
504.457
731.093
709.941
399.237
373.28
408.814
413.84
361.831
103.418
67.8323
105.933
86.2259
62.8856
63.0845
63.1173
76.0224
45.032
46.8262
62.276
68.8865
52.5859
108.619
48.2823
110.123
105.269
65.5896
71.4023
166.389
98.3048
282.792
252.152
159.954
642.081
911.557
91.0531
81.7048
67.3409
91.2244
81.114
89.7875
305.491
1098.91
157.373
107.118
134.839
580.481
566.225
1149.01
501.701
416.071
549.927
331.183
990.506
617.356
1032.04
1276.18
683.476
668.789
1672.19
1662.66
418.666
1355.84
477.933
478.146
1073.36
665.607
748.674
703.125
946.882
388.35
404.281
308.668
453.14
705.565
654.294
217.904
887.989
1210.54
988.001
512.725
474.904
152.778
153.035
113.201
106.947
944.806
305.645
620.83
611.272
675.407
1627.41
176.239
125.517
466.885
102.553
564.831
87.703
545.849
523.851
749.45
409.116
494.315
99.416
126.054
113.576
303.464
128.124
445.459
457.763
698.032
75.4076
50.9392
93.8612
75.8023
90.1181
164.354
370.474
106.817
305.573
297.366
229.809
526.404
193.977
300.92
119.353
489.791
61.8945
64.7962
45.8087
404.05
61.4389
336.998
98.3669
101.022
194.607
96.3299
117.158
156.12
357.041
624.822
297.389
406.51
126.99
435.702
375.348
576.996
464.127
336.899
249.854
62.448
62.2684
259.408
43.7077
264.504
152.14
525.624
307.093
374.944
375.826
322.166
209.369
964.328
325.578
1007.13
412.851
442.891
171.718
87.6981
109.043
806.511
106.992
320.372
239.852
222.586
361.959
480.693
434.218
46.599
328.178
123.725
135.811
97.6346
96.034
72.1752
81.6014
82.7126
75.6091
896.246
592.078
346.559
413.796
472.071
441.056
373.455
543.047
148.109
105.431
442.028
674.867
297.128
921.028
500.379
569.533
906.402
895.157
525.965
516.412
529.472
523.936
602.11
371.514
338.823
323.123
351.083
360.802
82.7426
349.342
230.593
659.021
116.012
301.951
476.383
237.717
192.009
128.248
277.005
283.003
92.4134
56.586
845.386
697.168
359.499
1405.48
286.56
98.1591
133.458
319.504
682.179
325.809
167.971
865.468
352.274
1879.34
457.752
510.449
769.197
1399.38
667.874
649.316
568.771
474.383
408.683
703.085
46.7312
236.587
189.908
699.146
410.782
149.399
91.4183
492.477
545.891
786.133
1230.59
703.823
409.724
415.018
273.681
54.1715
45.9536
173.552
144.947
393.497
61.1271
78.0522
292.506
659.908
299.947
100.538
61.331
115.79
83.4386
262.768
81.1833
77.4499
140.877
87.4587
336.336
141.632
736.878
139.919
206.848
420.355
170.35
173.888
70.8791
83.1449
302.762
291.574
421.195
219.165
1653.97
480.565
845.536
560.604
220.645
311.285
321.204
552.999
1409.06
637.983
646.015
737.02
376.981
290.691
460.249
447.878
417.088
716.676
765.128
1680.18
412.476
729.158
111.274
330.884
349.527
666.364
327.363
219.71
1164.14
640.68
234.84
735.647
141.032
458.193
94.9872
76.1646
103.369
1091.01
1336.85
951.173
64.1575
448.423
583.645
1135.67
266.65
448.446
1287.33
297.604
1681.97
456.146
544.574
87.5407
656.6
101.566
347.282
618.448
301.409
371.444
397.619
452.103
167.017
187.611
796.532
509.712
289.881
77.9985
394.442
293.642
525.838
1015.89
1198.12
56.4528
436.327
535.086
62.3499
321.581
335.431
61.4162
59.9685
586.787
1265.18
869.823
449.813
298.75
649.171
1235.22
475.617
412.42
631.735
824.801
369.829
445.758
391.393
249.704
88.061
353.396
262.544
122.127
348.039
473.261
738.295
702.377
473.835
445.041
468.321
497.361
398.498
633.269
315.557
450.072
422.212
151.932
111.36
253.719
79.8875
213.118
287.565
511.617
496.708
574.574
1017.64
290.366
295.382
294.174
330.106
724.024
820.864
651.851
649.162
624.856
577.989
285.806
346.583
550.18
355.327
324.144
618.92
436.319
325.968
643.46
474.151
360.284
1088.79
88.917
107.26
116.412
453.553
395.4
595.768
514.72
593.272
547.514
960.335
1203.81
432.772
566.925
518.496
837.414
1286.62
426.989
290.053
531.351
355.314
377.155
731.073
468.472
101.121
267.626
248.478
255.079
585.198
107.751
609.935
430.304
388.915
688.37
454.146
809.563
860.301
604.658
751.937
209.194
628.482
106.77
93.8847
355.964
132.99
226.072
583.627
65.3956
123.422
67.0671
80.6791
79.7473
51.738
71.2089
100.347
862.913
821.654
114.417
543.7
403.851
644.449
800.417
69.2259
83.7414
101.416
80.44
107.303
53.5339
135.23
105.732
110.744
239.094
400.119
151.855
93.9343
93.5364
91.4849
103.185
96.3902
71.161
87.7718
51.9558
475.772
433.663
452.776
455.597
579.596
594.498
654.993
459.353
917.759
1014.16
371.349
627.792
326.278
351.136
573.338
410.072
871.983
943.471
724.694
1564.56
654.571
609.705
743.533
1596.83
738.149
781.809
866.778
920.302
717.517
456.694
417.436
449.444
415.865
485.004
582.546
592.057
957.569
452.4
849.426
616.359
639.569
598.728
196.942
78.258
161.215
708.897
443.979
177.028
233.472
117.697
91.7748
53.0739
161.05
213.024
207.751
211.957
469.547
154.9
349.777
130.872
229.896
69.876
127.442
202.91
281.515
293.046
130.869
125.111
61.4976
63.9152
145.728
81.1917
110.095
103.662
168.528
46.2955
1112.31
564.938
511.694
343.422
332.223
429.354
404.697
809.916
524.55
288.237
370.449
286.905
338.479
373.165
313.07
433.196
796.986
394.024
424.037
302.786
576.935
334.107
330.192
329.243
318.472
420.587
541.29
456.561
89.6566
471.016
450.016
292.083
473.761
306.897
461.148
699.893
359.658
486.351
323.027
199.386
103.589
421.126
149.815
606.402
345.066
442.91
396.468
148.077
337.34
365.087
622.06
470.218
352.328
729.689
79.5676
89.6408
56.8557
131.163
66.3158
202.299
416.354
477.992
52.2596
700.886
552.472
389.447
101.192
266.295
103.064
80.9664
537.289
384.678
82.6468
84.996
250.979
1522.49
430.497
87.6471
233.827
1650.77
67.15
418.386
1336.07
290.938
669.907
363.104
906.367
1008.81
1179.09
827.474
562.494
520.941
421.469
223.468
171.752
221.127
104.175
114.067
265.882
415.991
276.704
97.8741
1292.72
430.392
501.477
389.442
450.946
74.5734
65.5406
62.8414
174.04
86.0929
114.848
76.6778
70.1955
291.592
169.325
102.798
106.06
159.22
961.402
1369.33
788.466
641.536
480.767
378.729
752.238
968.23
578.595
454.875
769.488
788.65
583.481
118.713
133.476
85.1059
126.943
589.38
359.487
549.51
320.509
1042.85
970.039
953.798
199.249
591.798
428.869
523.229
205.68
133.545
143.089
155.419
143.629
395.87
570.626
131.821
489.123
486.614
450.443
121.771
107.849
534.015
336.189
319.367
118.269
78.3637
43.1756
101.691
89.1609
108.167
96.4036
81.3561
84.05
82.956
97.8147
93.6091
95.2364
59.7731
578.306
822.913
494.775
1096.47
1106.22
932.486
415.077
800.181
637.06
412.005
595.271
139.978
150.145
223.321
332.619
330.504
467.443
690.358
119.907
536.508
380.738
391.388
451.644
372.951
489.026
286.357
359.328
174.313
580.652
455.547
100.891
63.5831
523.977
371.266
309.527
348.409
316.317
252.037
450.539
565.048
81.1501
318.749
514.682
91.3704
85.1112
73.368
123.575
710.348
534.878
604.966
716.404
718.228
791.584
589.29
745.882
349.555
369.351
355.08
510.407
376.544
340.047
501.108
301.064
108.434
1213.97
1403.23
436.877
812.261
169.692
302.908
274.286
351.542
107.253
220.581
826.933
63.8177
443.669
468.772
162.271
234.491
85.4416
532.992
190.936
442.78
100.011
408.029
349.873
274.81
760.028
109.567
79.8096
45.5082
215.401
147.308
68.1148
52.4805
248.438
52.012
68.679
419.475
534.12
172.648
200.931
267.043
338.885
459.752
548.204
90.9328
1085.07
619.168
880.992
443.342
695.14
547.77
1028.77
470.376
319.008
403.558
479.82
526.806
1196.93
451.057
435.466
80.155
291.588
560.898
210.318
72.153
190.953
67.7414
105.679
65.1786
102.726
123.377
302.757
123.44
146.959
142.801
194.268
607.981
81.4529
48.779
375.245
346.012
309.964
410.311
292.165
68.3263
82.5477
217.328
991.543
100.393
315.744
84.4124
175.388
302.418
78.3474
84.7229
386.452
95.4137
298.823
647.523
94.945
1356.01
447.21
1022.13
316.568
312.283
403.72
376.586
549.351
808.602
370.798
463.243
492.204
238.357
493.421
474.807
774.42
597.936
606.683
72.7761
677.245
762.435
199.131
238.942
1023.92
254.091
368.138
188.493
624.026
190.858
168.99
96.985
402.591
608.472
791.441
621.056
490.557
449.158
182.85
284.282
317.595
508.395
66.8999
171.114
79.9973
108.441
187.012
180.472
81.3323
145.146
81.3623
569.228
194.456
252.522
259.096
362.626
231.71
404.974
522.053
421.171
360.726
659.175
632.508
342.189
942.345
908.461
85.2766
295.416
114.052
175.436
116.034
166.99
292.42
720.192
365.325
946.365
784.872
982.341
397.888
361.285
556.998
559.147
368.524
293.231
376.234
490.882
328.689
418.794
617.059
602.99
431.944
566.049
446.284
335.968
309.366
475.155
449.042
330.727
491.691
342.818
554.644
353.038
707.035
643.305
541.834
340.663
151.668
241.114
905.073
215.426
489.914
108.134
548.509
292.392
334.831
375.879
368.582
486.652
352.757
344.739
520.198
392.732
294.721
329.685
587.789
374.288
668.199
581.292
302.807
317.353
347.051
397.201
316.894
379.626
708.678
456.374
472.562
1001.15
750.681
1481.14
487.046
151.087
364.102
138.84
589.308
532.588
350.057
383.374
473.744
546.468
547.797
323.118
580.322
945.612
925.851
722.896
456.643
628.056
378.406
390.123
449.755
623.876
112.857
98.186
82.1789
103.89
47.4549
98.6892
320.682
245.358
565.121
309.621
131.224
101.799
163.619
240.08
104.73
130.783
152.362
54.3134
50.6192
69.9323
72.0298
516.583
283.981
87.5222
302.216
677.428
333.612
496.898
534.604
89.2528
372.304
323.772
88.2208
157.141
446.806
1762.91
475.452
449.448
146.034
548.832
562.227
324.349
428.948
260.48
328.466
444.189
371.217
311.212
580.321
1084.33
775.294
1326.53
1877.85
1154.66
630.99
562.203
116.56
174.275
120.747
226.778
68.4279
73.2606
346.724
187.177
123.001
71.7801
151.827
140.451
140.124
173.941
691.068
398.593
430.223
143.325
44.6579
535.814
98.3578
131.841
250.466
477.672
372.676
570.335
541.458
61.815
89.4185
122.7
280.958
408.065
117.167
129.586
379.497
799.258
393.214
361.186
394.345
850.091
160.497
93.6213
650.417
299.957
345.314
572.733
393.438
186.853
137.446
409.904
705.09
491.168
80.9552
69.4059
158.186
66.4955
120.251
153.446
466.891
176.303
113.746
110.711
126.927
184.653
68.6921
81.7191
513.044
103.02
638.46
397.447
489.217
700.755
98.6948
566.955
52.4179
242.325
166.838
86.6612
71.4859
243.602
112.967
87.3228
120.591
103.69
377.178
460.509
279.824
188.017
462.089
381.367
366.684
536.102
474.516
495.371
117.739
115.343
108.606
161.115
75.0682
57.5831
53.0836
244.283
92.6278
86.7205
93.6376
107.613
73.5491
501.321
96.1623
111.417
282.631
207.4
219.04
185.82
77.1274
170.768
391.405
582.13
870.806
422.564
110.134
103.703
131.413
269.302
172.551
668.481
165.142
736.106
139.725
558.437
266.377
283.072
90.6463
165.102
1035.78
1019.93
108.578
50.69
48.8086
49.5323
56.8497
491.363
93.4959
57.3131
378.003
59.15
299.063
509.651
83.8544
788.781
771.286
310.179
209.144
341.818
165.041
397.316
398.28
440.41
114.99
113.137
94.0803
120.929
108.797
55.6848
347.768
351.1
85.0543
239.746
140.499
242.191
192.913
260.267
217.279
209.184
190.093
103.713
407.501
132.548
97.2323
153.166
170.286
374.374
582.575
515.002
451.826
466.47
1091.7
45.6112
338.802
2035.95
126.49
348.67
376.807
460.956
1032.81
200.32
322.615
391.103
286.29
946.903
855.319
592.951
593.643
361.7
61.339
76.298
514.619
149.124
396.986
312.225
606.807
436.572
332.677
405.631
322.039
313.14
401.844
135.405
375.47
1418.19
1133.43
439.985
1662.4
126.322
747.408
474.271
447.016
757.242
622.982
650.619
543.475
449.741
431.002
321.534
839.635
627.739
655.749
737.569
45.615
84.0964
60.0498
83.9005
100.74
67.1294
60.3731
660.362
45.2235
81.138
117.488
272.621
93.8425
527.547
330.292
709.017
184.951
95.9393
159.172
153.494
113.999
234.268
236.594
161.103
228.99
154.799
91.5496
395.432
161.726
113.688
197.021
190.292
978.658
290.249
149.222
186.208
495.166
215.796
168.39
177.721
147.367
133.473
367.456
507.059
292.4
240.031
550.46
144.643
392.595
482.662
696.952
846.777
458.95
101.875
402.911
436.057
468.071
386.126
196.731
102.104
615.483
386.936
355.184
404.315
394.134
552.951
524.77
436.207
420.049
1017.14
418.818
294.627
329.186
450.872
643.635
461.039
467.562
427.511
398.039
1731.09
2303.98
1155.49
1389.05
352.789
185.62
55.6544
123.118
354.385
288.446
237.414
290.339
295.154
209.175
259.873
1762.73
2141.69
1236.77
291.807
443.094
437.919
1247.97
492.511
491.901
621.461
120.088
523.685
290.22
500.748
276.615
310.839
212.344
581.133
313.91
373.457
146.058
948.75
880.304
423.143
774.915
365.722
486.009
366.13
361.752
541.419
379.134
476.168
456.938
339.755
393.147
746.348
446.818
603.276
574.013
452.33
67.1071
71.5406
69.797
67.9079
81.3769
376.191
334.933
421.14
303.597
409.824
275.6
623.366
653.556
399.556
529.48
334.78
327.363
396.412
390.884
326.982
452.049
372.143
484.626
572.469
414.193
375.734
425.512
640.422
275.289
675.635
317.625
264.126
82.7145
90.6184
465.417
414.544
232.087
224.609
239.51
137.12
266.321
131.106
482.083
287.835
475.672
220.373
179.667
210.419
601.635
376.618
321.676
335.682
630.132
404.189
444.385
66.4661
467.49
425.276
402.539
218.861
605.28
265.589
493.434
274.343
67.5867
732.371
89.9069
70.0322
555.151
546.3
567.013
515.148
622.454
172.397
267.788
367.13
417.55
360.425
399.511
356.783
770.03
647.119
323.494
331.39
1166.74
635.746
663.831
536.372
536.42
615.593
767.069
539.803
918.658
334.868
931.918
976.015
1058.54
604.098
1263.39
328.798
623.63
1200.04
1179.06
1231.94
982.428
749.035
403.774
748.529
612.722
592.901
436.944
573.272
1768.41
714.433
671.688
443.384
350.843
175.3
323.873
372.477
351.357
442.841
447.298
547.536
450.059
414.182
585.76
822.36
442.968
590.539
403.397
328.507
470.045
894.665
433.088
577.118
368.107
302.539
331.204
290.972
629.507
370.527
312.886
417.211
404.879
44.1187
585.891
166.008
161.255
501.778
122.801
166.54
221.103
426.78
203.015
144.432
129.875
69.2828
559.531
328.004
288.892
319.644
722.262
87.372
79.4296
183.773
295.742
374.041
77.0167
180.278
68.0792
65.7211
314.428
80.0241
102.262
70.9847
304.059
438.772
501.972
514.366
544.101
60.2245
154.421
165.423
123.33
83.859
498.875
99.6735
339.725
116.177
226.154
43.3941
329.888
344.856
349.938
511.554
398.793
521.653
382.312
85.4287
66.2404
206.435
52.7007
57.9335
65.0081
60.1641
61.0703
61.1516
70.1957
74.3193
61.9849
806.885
73.1218
657.691
50.9716
213.99
485.204
320.392
385.133
838.991
688.488
571.988
810.554
70.5886
623.298
1402
247.777
94.8291
350.264
525.672
693.713
720.958
577.376
554.922
493.008
423.586
100.864
127.808
544.613
1234.32
641.116
618.706
578.703
639.227
1419.25
288.84
274.604
281.084
86.1537
83.0954
85.4537
667.954
94.9155
350.498
399.138
410.915
413.058
356.617
385.315
383.421
432.209
1304.62
145.895
92.2973
529.33
452.657
2753.84
1605.65
457.244
144.138
176.341
174.615
341.474
283.445
213.896
169.439
177.3
187.765
321.081
880.538
1080.79
312.446
419.751
441.661
245.596
245.253
690.227
266.493
619.281
380.145
251.966
372.759
286.856
146.969
284.863
141.686
121.542
660.514
164.243
173.925
68.4131
66.3497
97.7286
61.297
243.98
239.429
269.592
592.023
583.575
635.55
629.271
533.206
79.086
59.1533
626.079
101.88
603.969
592.959
660.031
487.506
477.214
1643.96
939.364
711.825
991.933
501.845
876.663
504.635
387.759
501.375
380.738
434.437
539.992
769.435
670.346
1250.84
389.101
536.232
1339.27
519.239
417.214
1398.23
187.361
1764.36
483.045
382.288
127.767
537.954
624.243
192.986
286.505
321.387
582.031
992.826
291.819
497.229
441.14
600.501
619.992
120.729
784.235
441.341
379.309
235.063
464.035
356.436
428.567
129.797
449.095
214.232
91.7727
388.686
393.973
207.607
486.263
355.091
230.932
434.749
373.548
65.5183
101.816
79.6917
397.15
323.328
225.528
76.8262
230.305
374.326
411.675
408.103
171.105
198.739
309.002
579.682
607.485
491.992
531.48
385.626
98.1351
75.8721
188.037
611.421
280.807
81.0858
297.483
481.954
217.541
434.337
372.257
715.281
553.433
527.595
628.173
268.419
408.977
258.42
310.613
664.537
473.005
571.553
1042.05
1115.37
513.178
106.371
1129.4
443.472
120.679
217.579
299.058
127.578
333.307
233.565
703.191
339.184
376.668
301.882
288.438
403.957
394.669
290.48
143.456
102.743
296.133
296.717
366.941
490.375
443.576
555.652
555.207
229.541
456.87
537.442
143.592
494.522
552.794
196.023
320.844
572.302
334.482
84.4109
357.743
64.0093
528.489
320.126
479.315
632.428
109.85
388.058
373.619
83.9607
460.57
110.133
365.115
481.713
1782.54
1287.85
945.054
287.111
822.684
827.171
1637.88
93.8549
118.844
79.7121
122.426
91.9981
255.035
66.3312
83.8573
89.6621
64.6902
453.068
214.615
345.988
913.176
365.98
1482.31
600.749
648.016
690.015
379.955
129.642
128.615
139.492
169.346
651.911
430.011
339.179
852.997
311.953
427.908
94.7671
215.442
136.963
215.093
125.017
211.042
86.1954
637.089
668.015
1237.11
395.487
145.637
376.076
374.08
616.894
140.209
329.659
567.339
193.989
112.107
158.667
92.6425
699.116
720.833
400.104
435.021
523.27
177.208
131.062
442.068
324.355
344.631
629.698
1039.2
854.416
465.586
442.266
377.674
438.31
335.356
704.424
90.8642
54.8964
1263.98
1026.73
882.745
92.4692
297.751
207.575
77.7169
64.9014
341.87
212.842
80.7694
108.026
78.3963
119.511
175.246
425.347
493.627
65.6697
59.4014
569.674
61.3199
93.0995
63.2747
598.449
254.066
89.3839
358.429
556.395
386.15
92.5604
585.807
89.2365
89.021
94.0656
85.5847
83.1751
759.212
900.201
728.455
496.856
502.704
161.612
240.666
86.7154
129.345
87.023
210.547
164.282
500.863
497.059
141.091
113.371
162.732
131.578
536.049
357.396
423.844
323.844
133.652
135.434
135.836
330.261
464.071
270.383
317.275
485.096
537.588
562.878
653.363
471.772
72.6011
305.717
282.803
257.096
422.539
139.149
111.402
144.728
563.732
243.81
574.024
904.907
623.391
165.691
111.881
72.048
94.2584
71.5116
92.2488
764.78
1846.92
147.209
90.684
194.83
215.94
85.4215
81.7149
176.34
128.472
80.5817
542.902
829.669
664.233
204.75
504.149
505.721
210.313
511.618
874.963
93.3022
998.093
724.904
584.489
540.83
752.162
716.154
652.033
94.3012
248.562
70.2585
53.1919
44.393
314.617
168.354
83.4642
250.718
422.419
424.134
59.1875
315.617
249.581
385.239
107.789
281.696
193.129
310.561
526.571
474.095
443.702
395.455
210.397
106.461
249.12
531.36
399.656
285.765
732.316
689.112
732.618
1192.79
838.308
1054.88
757.86
521.22
707.16
398.005
416.277
135.493
303.691
484.897
178.471
363.228
469.628
85.5348
329.956
188.02
292.523
190.714
69.3757
182.006
167.957
1188.2
699.763
1977.67
400.178
126.463
330.441
194.041
45.3884
92.4879
167.414
89.0422
153.855
70.7645
69.3473
829.883
73.2968
81.8801
178.103
236.545
259.42
103.257
204.776
83.7228
572.282
68.6827
85.1267
366.067
80.9981
76.3877
92.1022
108.959
98.2068
108.064
127.729
95.5888
174.105
548.902
90.5187
103.374
114.344
120.814
99.1552
326.888
394.347
224.709
315.475
412.919
291.553
548.581
449.166
584.647
1279.51
216.441
320.044
468.443
1198.09
474.486
207.981
91.2093
275.838
420.47
203.497
422.871
366.308
557.26
129.187
205.443
135.802
685.177
513.612
456.308
451.151
472.213
381.449
498.038
470.807
130.304
109.68
544.819
418.131
166.653
1147.65
542.545
541.682
759.627
276.957
148.035
56.2733
42.5398
76.0217
545.199
50.402
281.543
589.865
97.1644
518.739
160.209
151.432
383.404
601.71
484.96
500.834
512.396
377.25
115.042
507.479
71.2551
422.224
83.8944
65.6632
307.078
811.493
339.326
388.689
396.184
502.899
621.226
97.9062
366.302
331.755
540.917
307.402
777.745
644.597
1885.58
278.832
851.908
286.628
273.524
1871.13
315.538
1219.46
495.76
718.774
652.111
1574.43
920.581
637.344
874.321
337.746
681.924
558.121
403.957
594.051
239.579
747.405
746.94
210.841
454.084
697.348
82.9172
46.3531
269.57
83.039
103.137
86.2284
55.2066
354.607
546.397
78.0657
72.4597
713.188
896.377
333.183
584.213
410.659
432.893
628.483
1191.88
766.45
345.003
710.82
517.206
371.43
339.179
348.554
1100.95
73.7554
418.508
395.354
405.803
374.948
196.514
287.254
355.092
958.889
349.982
582.733
414.515
620.988
718.785
429.34
549.822
695.55
491.332
602.48
287.476
805.325
651.547
1160.73
309.817
351.146
485.094
116.33
699.828
540.34
899.334
408.137
564.083
64.3147
60.0353
284.894
672.21
420.883
134.584
603.955
60.976
62.2518
373.88
650.604
235.681
502.464
536.824
604.655
648.316
865.59
660.04
689.524
567.757
542.098
114.391
1253.22
429.202
637.346
350.717
409.044
483.347
223.533
86.824
279.988
411.965
348.66
402.708
461.035
353.45
412.858
420.72
509.67
431.867
492.995
365.05