/*--------------------------------*- C++ -*----------------------------------*\
| =========                 |                                                 |
| \\      /  F ield         | OpenFOAM: The Open Source CFD Toolbox           |
|  \\    /   O peration     | Version:  2506                                  |
|   \\  /    A nd           | Website:  www.openfoam.com                      |
|    \\/     M anipulation  |                                                 |
\*---------------------------------------------------------------------------*/
FoamFile
{
    version     2.0;
    format      ascii;
    arch        "LSB;label=32;scalar=64";
    class       surfaceScalarField;
    location    "0.0882685";
    object      phi;
}
// * * * * * * * * * * * * * * * * * * * * * * * * * * * * * * * * * * * * * //

dimensions      [0 3 -1 0 0 0 0];

oriented        oriented;

internalField   nonuniform List<scalar> 
7426
(
0.0014153
-0.000566281
-0.00601635
0.00516733
0.00592502
0.000307616
-0.00388012
0.0299858
-0.0185826
-0.00752318
0.000153284
3.00263e-05
-0.000144405
-3.89056e-05
0.000322082
-0.000713094
-0.00045098
0.000841992
0.000799101
-0.00033587
-0.000141149
8.33585e-05
-0.000107153
0.000805013
-0.000781219
0.000308256
0.000120287
-0.000216327
-0.000212216
-0.000249823
0.000461654
0.000332079
-0.00054391
-0.000317261
0.000220648
-0.000392287
0.000488899
0.000298303
-0.000194149
-0.000104154
-0.00113393
3.60514e-05
0.000550998
0.000546884
-0.0054211
-0.0449372
0.003749
0.000685804
-0.000176036
-0.00076486
0.000255091
0.00538731
-0.0534365
0.0310405
0.00265299
-0.0418096
0.00811609
0.00146418
-0.00578631
0.0160085
-0.0116863
0.00805877
-0.00561071
-0.00964734
0.00719929
-0.00485621
0.0156732
-0.00275825
0.000269729
0.0593965
-0.0587655
-0.000900634
-0.0047491
0.00754617
-0.0102649
0.00746787
0.00107661
1.76697e-05
0.000804521
0.0227022
0.00948642
-0.00109139
-0.0310972
-0.000989164
0.000508826
0.00155695
-0.0460723
-0.000126387
0.0461987
-0.000462515
0.000343095
0.00101976
-0.000900337
-0.000204818
-0.00139163
0.00216154
-0.0012013
0.000230447
-0.00119069
0.000530493
0.00195487
0.00207667
-0.00178243
0.000236254
-0.00193736
0.00100847
0.000964941
0.000288437
-0.000270923
0.000263251
0.00210185
0.000270137
-6.37823e-05
0.000592747
0.000201695
-0.000593884
0.000662326
-9.98406e-05
0.000948564
-0.00112141
-0.00123586
-0.000194638
-0.000511036
0.00194154
-0.000572315
-0.000279591
0.000104899
0.000310054
-0.000135362
0.00306589
0.000626773
-0.00210567
-0.00158699
-0.00025419
0.000309501
-5.53111e-05
0.00131962
-0.0746957
0.101238
8.06214e-05
-0.000266286
-6.85256e-05
-5.27516e-05
-6.39749e-05
0.000426228
-0.00030791
0.000461642
-0.000206483
-6.40714e-05
-0.000163217
-0.0148944
0.0450656
-0.0221542
0.00164289
0.000124069
-0.00143409
-0.00033287
-0.0753676
-0.0111308
0.0306282
0.0558701
-0.000376399
0.00015125
0.000261825
-3.66755e-05
0.000582918
-0.000349272
0.000216754
-0.000450399
-0.000234767
-0.000735908
0.000968079
2.59672e-06
-0.0344636
0.00018487
0.034535
0.0240817
-0.0763006
0.0176839
7.13766e-05
-0.0371534
0.000248377
-0.0231462
0.0100745
-0.139045
0.0193234
-0.0110216
-0.000513659
0.00307991
0.00247744
-0.0050437
-0.00128662
0.00044337
-3.22269e-05
0.000875472
0.000653226
0.00325161
-0.00224822
-0.00165662
-0.000641991
-0.000242266
0.000884256
0.0113689
-0.0168208
-0.00162019
0.00707209
0.00542475
0.00333847
-0.00748951
0.00149058
-0.000157933
0.0297078
0.00171977
0.0789265
-0.0386566
-0.0419897
-0.00836278
-0.00503717
0.00236141
0.0110386
0.000396988
0.00178338
-0.00270218
0.000521807
0.000124957
-0.00322484
-0.0022041
0.00530399
0.00433877
0.00045557
0.130302
0.0365958
-0.146459
-0.0204385
-2.24552e-05
0.00127585
-0.00148816
9.95147e-05
0.000977596
0.00264311
-0.00372023
0.00092158
-0.000585414
0.000195163
-0.000531328
0.0111813
-0.00618173
-0.000200698
-0.00479892
-0.00059256
-0.000106606
0.000787191
-8.80254e-05
0.0391729
0.0189669
-0.000270917
0.0023333
-0.0019288
-0.000133582
-0.000131196
0.000364646
-0.000241142
7.69116e-06
6.16351e-05
-0.00165666
0.00132186
0.000273163
-0.000299564
-0.000217635
0.000927591
-0.000410392
0.000119117
0.000666535
-0.000607335
-0.000178317
0.00266409
-7.90935e-05
-9.74004e-05
-0.00086077
-0.00157628
0.00253445
1.05987e-05
-5.65607e-05
1.5484e-05
3.0478e-05
-0.000116612
-0.000849003
0.000288356
0.00258475
0.00394945
-0.00428189
-0.0016395
-0.0043831
0.00634584
-0.000323234
0.00123472
0.00300614
-0.000952712
-0.00328815
-2.9727e-06
0.000756324
-0.000357026
-0.000396325
0.00177832
0.0064672
-0.00746111
-0.000784411
-0.000755162
0.000601588
0.000367308
-0.000213735
0.00182064
0.000527297
-0.010196
0.00784806
0.000210079
0.00129474
-0.00143866
-6.61593e-05
0.0125773
0.0029275
-0.00926301
-0.00624179
-0.00463921
0.0113271
0.0160143
0.0554074
-7.11136e-05
0.0768014
-0.00112384
-0.00239465
-0.00317523
0.00414703
0.00142285
-0.00110005
0.00163153
0.00164166
-0.00217313
0.0537098
0.0106867
-0.00548992
0.000945412
0.000309753
-0.00126508
9.91899e-06
-0.0548683
-0.0966439
0.106575
-0.00238913
0.00173102
-0.0119205
0.0125786
0.000122751
-0.000357188
0.00139213
-0.00115769
-0.00443604
0.00183477
-0.00726178
0.00537347
0.000334908
0.000268505
-0.000294097
-0.000309315
0.000419717
-8.48095e-05
0.000153432
-0.000345768
0.000435128
-0.000406284
0.00032902
-0.0331249
0.0131188
-0.0554006
-0.0049063
0.00339558
-0.040648
0.0421588
-0.000355536
-0.000243162
0.000598698
-0.000439921
0.000277954
-0.000193569
0.00032155
5.46201e-05
0.000278422
-0.000654592
0.000506742
0.00149345
-0.00266136
0.00066117
8.18175e-05
0.000107557
-0.000285741
9.63663e-05
-0.000222133
0.000543683
-0.0186292
0.0165344
0.0168522
-0.0147575
-0.000298787
7.58549e-05
0.00215126
0.00203011
-0.00349581
-0.000685554
-0.0103319
-0.00928137
0.00882767
0.0107856
-0.00107674
0.00125971
0.000302126
-0.000485097
0.00712612
-0.000294799
0.000343547
0.000494384
-0.00502962
0.00499081
6.50311e-05
0.000138981
-0.000396657
0.000193072
-0.000128041
0.00185908
0.000814727
-0.00216707
0.00360036
-0.000450395
0.00035893
-0.0035089
0.000385478
-0.000539145
0.00078722
-0.000633553
0.000345782
0.0002415
0.000102836
-0.000690118
-0.0386845
0.000405454
0.00592986
0.0323492
-0.0182897
-0.0101773
0.0164837
0.0119832
0.0135193
0.0153385
-0.00991149
-0.0189463
-0.00233237
-0.00126927
0.00208763
0.00151401
0.000379609
-0.000314425
0.000280598
-0.00136464
-0.0130605
0.0264823
-0.0120571
0.0015216
0.000913143
-0.00129834
0.00179257
0.00330125
0.0041292
-0.00312587
0.0045803
-0.00558363
0.000296817
0.000685508
0.00150367
-0.00248599
-0.012797
0.0215086
0.00256783
-0.0112794
0.00501312
-0.000636274
0.000247999
-0.00462484
-0.0565324
-0.0210328
0.0788848
0.00086765
-7.61207e-05
-0.00114352
-0.00056432
-7.71633e-05
0.000113431
0.000528052
0.0572604
-0.0542287
0.00016006
-0.00319181
0.112249
-0.0498822
-0.0334926
0.0372936
-0.00549826
-0.00861537
-0.02318
0.000351562
0.000470565
0.00300086
-0.00382299
0.00124026
-0.00188626
-0.000324222
0.000970215
0.00163192
-0.00765822
-0.00108344
0.00710974
-0.00419121
0.0173946
-0.00859315
-0.00461021
-0.000661011
-4.91751e-05
7.59695e-05
0.000634217
0.000500749
-0.00245253
0.0251135
-0.0301839
-0.000446085
0.00277929
-0.00206847
-0.00026474
-0.000358184
0.00045509
-9.69061e-05
0.00257333
-0.00313568
0.000449844
0.000328952
-0.000176894
-0.000152058
-0.00131993
0.0021116
-0.000347116
-0.000444556
-0.00177372
0.0022681
2.76139e-05
-0.000287477
0.000181533
7.83304e-05
-0.00707037
-0.000743855
0.0103544
-0.0025402
0.00715898
-0.00438054
-0.000529631
-0.00224881
-0.0154251
-0.0163095
0.0237742
0.00796037
-0.00506085
-0.00794819
0.0217677
-0.00875871
2.28673e-05
0.000167612
0.00102838
-0.00121886
0.00386663
-0.00311989
0.0034747
0.00762273
-0.0623363
0.0314704
0.0232433
0.0031792
0.000151866
0.000379712
-0.00371077
-0.000329007
-7.14242e-05
0.000400431
-7.00662e-05
-0.000258941
-0.0325053
-0.00706756
0.0204055
0.0191673
-0.00262188
0.00316592
-0.0188301
0.0182861
-0.000186709
3.4365e-05
-0.000267044
0.000419387
0.0030232
0.000902578
-0.00177452
-0.00729843
0.0257997
6.85965e-05
-0.0185699
-0.00146891
0.000521393
0.00164167
-0.000694155
-9.25188e-05
-0.000284477
0.0167512
-0.0316502
-0.0176062
0.000403372
-0.000386634
0.000125658
-0.000142396
0.00181533
0.00164158
-0.000391012
-0.00218501
-0.00215769
0.00475479
-0.000412087
0.0225248
-0.0346064
0.0160694
-0.00398784
-0.00434542
-0.000333027
0.00631037
0.0168153
-0.0175344
0.00322342
-0.00250441
0.00197745
-0.0118143
-0.000494995
0.00146512
0.00105899
-0.00066503
-0.000573029
-0.00216088
0.00476401
-0.0582121
-0.00491965
0.0254337
0.0376981
0.000130298
-0.0462026
-0.00135318
-0.00031956
0.00195048
-0.000277744
-0.000484636
0.000401212
7.57436e-05
7.68017e-06
0.000357232
2.42362e-05
-0.000262351
-4.08205e-05
-0.000201672
-0.00031131
0.000553803
-0.00172412
-0.0013469
0.00341868
-0.000347668
-0.000478478
-0.000628138
0.000306638
0.000799979
-0.000125927
-0.000641927
0.000813166
-4.53125e-05
0.00654898
0.000126742
0.000959558
-0.000506053
-0.00127377
0.000820267
-0.000623806
0.000255072
-0.000397141
0.000765875
-0.00134122
-0.00143544
0.00347232
-0.000695663
0.000634765
8.35233e-05
-0.00071916
8.71184e-07
-0.00649337
-0.00859294
0.0100255
-0.000274924
-0.00035742
0.000778017
-0.000145673
0.0210217
-0.0238186
-0.00108323
0.000451398
-0.00184877
-0.000720055
0.00211743
-0.000558911
0.000288475
0.000376088
-0.000105652
0.00485275
-0.00537284
-0.000209695
0.000729787
-0.0010101
-0.000196156
0.000740862
0.0573757
-0.00377441
-0.00029908
0.00126539
-0.000624312
-0.000341997
0.000416059
-0.000271302
-0.000144757
-0.0119849
-0.00234112
0.126769
-0.112443
-0.0126234
0.0104197
0.00252386
-0.000320146
0.001686
-0.00232784
-0.00133177
0.00197361
0.000154021
0.000245316
8.4388e-05
-0.000483725
0.000482973
0.000802421
0.000588454
0.000252011
0.000239217
0.000979388
-0.00121073
-7.87887e-06
-0.000774004
0.000738297
-0.000672021
-0.000886454
0.000678188
0.000880287
0.00914503
0.00453399
-0.00687413
0.0143087
-0.00230034
-0.00484942
0.048217
0.0145876
-0.0574966
-0.00530792
-0.000164493
0.0538743
-0.00849513
-0.0472697
-0.0511938
0.0517625
-0.00463902
-0.0364367
-0.0544305
-0.000437807
0.035652
-0.0269389
-0.00322257
-0.00549049
0.00300844
0.000660191
-0.00407076
-0.0120366
0.0213598
-0.0109406
0.00161738
0.00373808
-0.00344932
-0.00563814
0.00546819
0.00213364
0.000690154
0.00482279
0.00023059
0.0029387
-0.00247913
-0.00334271
-0.000468749
-0.00182668
0.00746749
-0.00287205
0.000846874
-1.64123e-05
-0.00102818
0.000197718
-4.88037e-05
0.0054963
-0.00170942
0.00151947
-0.00271087
0.00203827
0.000210273
-0.000453434
-0.000160783
-0.000270397
0.000109023
0.000322158
0.0075528
-0.00570922
0.000290053
0.00685181
0.00268505
-0.00198406
0.000464487
-0.00187558
0.00826291
0.000298846
0.000165784
0.00105484
-0.00140862
0.00214974
0.000491954
-0.00123308
-0.00888301
0.00763659
0.00581819
-0.00457177
0.00336694
-0.00361123
-0.00248454
0.00272883
-0.00105836
0.0043765
-0.00151016
0.00640797
0.00059849
-0.00333219
0.000788872
-0.000167549
0.000168764
0.00044043
-0.000310347
-0.00290667
-0.00398948
0.00276983
-0.00029051
-0.000875214
0.000698019
0.000223198
-0.00016179
-0.000936622
-0.000876114
0.000335074
7.26296e-05
-0.00401893
0.00392183
-0.00145188
0.000982444
-0.00220344
-8.59275e-05
-0.00104283
-0.00284909
0.003411
0.000226971
-0.00203197
-0.000385719
0.00307091
0.000904225
0.000818269
-0.00420703
0.00550167
-0.00602037
-0.000931018
-0.000683411
-0.000589008
0.0109344
-0.000612793
-0.0056789
0.0100128
-0.00785024
0.00351638
-0.0107788
0.00834656
-0.00545833
-0.00439255
0.0156691
-0.0103207
-0.00165012
-0.00120105
-0.000394527
0.0116083
-0.00238868
-0.00343692
-0.00164576
0.00320709
0.000338723
-0.0057597
0.00251981
-0.00210714
0.00881496
-0.00166945
0.000477565
-0.00159514
0.00128336
-0.101705
0.0990366
0.00309416
-0.00585595
0.00826346
0.00240713
-0.00291152
0.00179409
-0.103499
-0.0006832
0.00255196
-0.000787934
-0.00564162
-0.000899389
0.00196924
0.00767121
-0.00184822
-0.000666632
-0.0143252
0.00944655
-0.00483021
0.00970885
2.47189e-05
-0.000480788
0.000221313
0.000234757
-0.000646329
6.45834e-05
0.000606464
0.000598627
-0.000388355
0.000304601
0.000416709
0.000631241
-0.00104795
-0.00133775
0.000823441
-1.91973e-05
0.000308509
0.000595011
-0.000647181
0.000344219
0.0007025
-0.000452484
-0.000594235
-0.000712284
-0.000401823
-0.000138058
9.08593e-05
-0.000145758
0.000105399
-0.000137432
0.000444687
0.000610752
-0.000918007
-0.000505245
0.000265745
0.000923186
-0.000683685
-0.000435477
-0.000826967
0.000757199
-0.00103356
0.000460648
-0.00101215
0.00172259
-0.00130618
0.00248899
0.000781996
-0.00196481
0.00270619
-0.00340599
-0.000606386
0.00228397
0.00322059
-0.00279836
0.00506278
-0.000289818
-0.000254863
0.00377209
-0.00437947
0.00144176
-0.000834377
-0.000416381
0.00566148
-0.00147301
-0.000658507
-0.00124761
0.00180872
-0.00133938
-0.000766494
0.00144737
-0.000807721
-0.00118345
0.00074356
0.00013693
-0.00228403
-0.00284111
0.0037523
-0.00199132
0.00108012
9.64575e-05
0.00244728
0.00064036
-0.00318409
0.00311247
0.000560086
-0.000162029
3.22632e-06
0.000444063
-0.000285259
-1.44323e-05
2.71145e-05
2.41951e-06
-1.51018e-05
-0.000561518
0.00203926
-0.00038188
-0.000537319
-0.00131081
0.000205551
0.000866154
-0.00252359
0.00165207
-0.00196562
0.00147932
-0.00116577
0.000830522
-0.00172701
-0.000814556
0.00171105
8.61073e-06
0.00352217
-0.00101957
-0.00251121
0.00278993
-0.0019508
-0.000735458
0.00241122
-7.36275e-05
-0.00160214
0.00245662
-0.00318003
-1.00756e-05
0.000733481
0.0017631
0.00110689
-0.00041337
-0.00330227
-0.00075903
0.00396858
9.27144e-05
0.00213785
-0.00161335
-0.000381552
-0.00014295
0.000440461
-0.000275301
-0.0021996
0.00203444
-0.00116472
0.00338066
0.000238972
-0.00245491
-0.000559166
-0.00177626
0.00147466
0.00156122
-0.000476799
-0.00114617
6.17507e-05
0.00352147
-0.00111719
0.00269977
0.00129844
-0.000476738
-0.00581917
-0.000399124
-0.00185486
-0.00301496
0.0018473
0.00302252
0.00230304
-0.000391578
-0.00376632
-0.00119161
0.000173717
-0.00200723
0.00302512
-0.00182281
-0.00124236
0.00187357
-0.000837286
0.00188324
0.00125708
-0.00719387
0.00334664
0.000330425
0.00351681
-0.00203253
-0.00129472
0.00307573
-0.00696098
0.00825989
-0.00437464
0.0375638
-0.000410938
-0.0131155
0.0191213
-0.013398
0.0130036
-0.0276156
0.00746655
0.00714552
-0.00111137
-0.0123709
0.0286893
-0.015207
0.0184918
-0.0224523
0.0205562
-0.0165957
-0.0154376
-0.0186141
-0.0120361
0.0460877
0.0345047
-0.0244396
-0.052403
0.0423379
-0.0277762
-0.0262632
0.0885441
-0.0287893
0.015573
-0.0145598
-0.0310483
0.0354072
-0.0197965
0.0397824
-0.0348164
0.0128307
-0.0177967
0.0439933
-0.0282497
0.0214557
-0.0371993
-0.00842756
-0.0071412
0.0595621
0.00129788
0.0396006
-0.0638851
0.0229867
0.0391899
-0.0584495
0.0205575
0.0012543
-0.000245069
0.00222127
-0.0032305
0.00323425
-1.54728e-05
-0.00196447
0.000525283
-0.0027029
0.000354804
0.000547829
-0.000703878
0.000156049
0.000678779
-0.00013095
0.000360094
-0.000207729
0.000526414
0.00193685
0.000138495
-0.000835078
-0.000642341
0.000827601
0.000828127
-0.00101339
0.000404323
0.000890181
0.001035
-0.00053551
0.000614122
-0.00111361
-0.000793068
-0.00046294
0.00142898
-0.000172975
-0.00103981
0.00179835
-0.00155161
-0.0147371
0.00781631
-0.00875955
0.000869627
-0.0068472
0.0155964
0.00273632
-0.0164298
-0.00190285
-0.00998395
-0.00944481
-0.0131012
-0.0113748
0.0339208
0.0159476
-0.0384589
0.00301728
0.019494
0.000545039
0.000786306
0.000357099
-0.00168844
-0.00106231
0.000222242
0.00138511
0.00015371
-0.000683009
1.58264e-05
0.000513473
-0.000772614
-0.0015729
0.00258045
-0.00023493
-0.000718146
-0.00202286
0.00164785
0.000786821
-0.00207474
-0.00105673
0.00201783
0.00111364
0.000529056
-3.89785e-05
-0.00210343
-0.000759797
-0.00123675
-7.81916e-05
-0.000511812
-0.00119878
0.000698793
0.00101179
-0.00257558
-0.00747144
0.0111485
-0.00110146
-0.00944234
-0.00205302
0.00891978
0.000857098
-0.00819005
-0.0021094
1.22144e-05
-0.00662656
0.00581964
-0.000552239
0.00588108
0.000632927
0.000325047
0.000715605
-0.00167358
-0.00176275
0.000366197
0.0019256
0.00285812
0.00299568
-0.0044443
-0.0014095
-0.00126711
-0.000721561
0.00122365
0.000765031
0.00152735
0.00200673
-0.0014802
0.00160908
0.00117075
-0.00269761
-8.22258e-05
0.00301823
0.00116418
-0.000190767
-0.000772602
-0.0003713
0.00133467
0.000753491
-0.000678947
-0.00026531
0.000866986
-0.000165651
5.21552e-05
-0.000243193
-0.000438727
0.000911129
-0.000778291
-0.000376031
-0.000799339
0.000937866
-0.000635037
0.00104077
0.000461258
0.00151931
-0.000363455
0.0013082
0.000652109
-0.00113415
-0.00013661
0.000224877
0.00104588
-0.00139559
0.000997522
0.000177867
-0.00015648
0.00142205
-0.00147968
0.0017222
-0.000764751
0.000522233
-0.00466194
0.00686202
-0.00765841
0.00210989
-0.00179948
-4.22267e-05
0.000114693
-0.000196329
-0.00633361
0.00385268
0.00267727
0.000105067
-0.000119659
2.98973e-06
1.16019e-05
-0.00229338
0.0107977
-0.00164225
0.00232604
-0.00172167
0.000210351
-0.000896519
0.00133373
0.0045759
0.00400479
-4.44124e-05
0.000374609
0.00112635
0.00110029
-0.0029482
0.000256489
0.000249465
-0.000505953
-2.1249e-05
0.00063
-0.000248658
-0.000157597
0.000222784
-5.45888e-05
0.000849546
0.00115375
-0.00173407
-0.000269223
0.00164214
-0.00140699
-0.000694756
0.000459604
0.00215354
-0.000175671
-0.00197786
-0.0560319
-0.0460571
0.0110086
0.0248217
-0.00885487
0.000848559
-0.00100082
-0.000157106
-7.19149e-05
0.00122984
-0.00731576
-0.00368211
-0.0431173
0.0422764
-0.00647484
0.000948959
0.000932171
-0.00298118
-0.000269538
0.00038512
-0.000117264
1.68187e-06
0.00441624
0.00864724
-0.00549506
-0.00756841
0.00193038
-0.00342162
0.000865669
0.000625579
-0.000793898
5.09797e-05
0.000384734
-0.00155991
0.000328185
0.00120927
-0.000729919
-0.000219777
0.000385376
-0.000173286
9.2314e-05
0.000128644
-4.76723e-05
0.000408065
0.00079587
-0.000145692
-0.00105824
0.0325629
-0.0256775
0.000189988
-0.000129645
9.2941e-05
0.00459674
-0.00263196
0.019803
0.00460398
0.0346105
-0.0392145
-0.00735701
0.0202555
-0.00943558
-0.000672513
-0.000215352
-0.00127068
0.00215855
-0.00137813
0.00432703
-0.0023942
-0.000554693
0.00235006
-0.00217061
0.000991305
0.000847442
-0.000211603
0.00817913
-3.89729e-05
0.000340479
6.58274e-05
-0.000367334
-0.000443702
0.000719498
-0.000297045
-0.058039
0.00064618
0.0573928
0.00887126
0.00020421
0.000408523
-0.009484
-0.000309521
0.00222718
-0.000712442
-0.00120522
-0.000321959
-7.15928e-05
0.00964732
0.0024717
-0.00877238
0.00266748
-0.0018796
4.41781e-05
-0.000622132
0.000577954
0.00137811
0.000180456
-0.00467846
-0.00393773
0.00691798
-0.000306079
0.00027066
0.000394697
-0.000435461
-0.000229895
0.000296837
-0.000428312
0.000256434
-0.00012496
0.00159071
-0.00231371
0.000477924
-0.0858215
-0.0081296
0.0708048
-0.0563655
-0.0183088
-0.000115475
0.0747898
-0.00124206
0.00193163
-0.00213726
0.00144768
0.000666298
-0.00103759
0.000209505
0.00307805
-0.000150358
-0.00236075
-0.000566949
0.000320057
0.000711617
0.000467324
-0.000643977
0.000278648
0.000769383
-0.000404054
-0.00485705
-0.0180897
-0.0162395
0.0248844
5.6119e-05
0.0140071
-0.0101017
-0.00396152
-0.00154639
-0.00619464
0.0073465
-0.000373329
-0.000644122
0.000837325
0.000180126
9.0784e-06
3.69347e-05
-2.94471e-05
-1.6566e-05
0.000371174
-0.000257789
0.00659867
0.000118969
-0.00910676
3.37087e-05
-0.000118499
-5.96145e-05
-0.0100762
-0.00255045
0.00955583
0.00307077
-0.00664193
-0.00529207
0.00185785
-0.00364336
-0.00648107
0.0116443
-0.00151991
6.54701e-05
-0.000261626
0.00218909
-0.000181942
0.000694952
-0.00270209
-6.32464e-05
5.86349e-05
5.24885e-05
-4.7877e-05
-0.00406051
0.00882426
-0.00840711
0.00035804
0.0606484
-0.0390065
-0.022
0.00132637
0.000596557
0.00857974
-0.0105027
0.0182702
0.00506834
-0.0122837
-0.0110549
-0.004344
0.00410618
-0.0057002
0.00593802
0.065644
0.00924895
-0.0357031
-3.99063e-07
-0.00930094
-0.00526586
0.0142223
-0.0576921
0.0883087
0.0530829
0.00133247
-0.0738427
-0.00487047
-0.00130566
0.00435434
0.00182179
-0.0001326
-0.00326014
-0.00167915
0.00507189
-0.000476187
0.00117797
-2.07145e-05
-0.000681065
0.00295448
-0.00993187
-9.95641e-05
0.00048466
-0.000637043
0.000251947
0.0661071
0.00657824
-0.0768012
0.00411587
0.0218905
0.034111
0.00741328
-0.0634147
0.000267679
-0.000375545
0.000791116
-0.00068325
-0.00345679
0.0051333
-0.004257
0.0025805
1.44436e-05
0.000633445
-0.000443658
-0.00020423
0.00651501
-0.00600194
-0.00280645
0.00141439
0.00127622
-0.00103855
0.00164662
0.00146255
-0.0046706
0.00156143
-0.005541
0.00441913
-0.00042452
-0.000362163
0.00103521
0.000917666
0.00174009
0.00111338
0.000213879
-0.00306735
-0.000779886
-0.000232347
0.000507262
0.000504971
0.000260996
0.000300166
-0.000526601
-4.9498e-05
0.00118932
-0.000613221
0.00121864
0.00133026
-0.00181724
-0.000731657
0.000218094
-0.000486924
0.000530428
-0.000261598
-0.00187638
0.00120325
-0.00164829
0.00109231
-0.000578163
-0.00127158
0.00201269
-0.00119133
0.000450224
0.000921966
-0.00177275
0.000488625
0.00223039
0.0015106
-0.00268615
-0.00835725
-0.00102974
0.0154471
-0.0060601
-5.49928e-05
0.000141291
-0.000182424
9.61257e-05
-9.88362e-05
-0.00148537
0.00110801
-0.000185249
0.000320262
-0.000448198
0.000313186
-0.000560872
-0.000328968
9.05015e-05
-0.000317517
0.000437552
-0.000563737
-0.00112046
-0.00108818
2.13256e-05
0.00218731
5.14792e-05
0.002003
0.000959324
0.000575861
-0.000957246
-0.00057794
0.000230115
-0.00213171
0.0021458
-0.00263821
-0.000667675
0.00116009
0.00737617
-0.00237411
0.000477706
-0.00547977
-0.000393282
0.000599513
0.000237427
-0.000443659
0.000326707
0.000287197
-0.000528933
-8.49707e-05
0.00285173
-0.00247646
0.00143143
-0.000443006
0.00037414
-0.000943288
0.000312934
6.7562e-05
-0.000487649
-0.00298458
-0.00138723
0.00359919
-0.000918612
0.00193952
-0.00102091
0.00275803
0.000302251
-0.00295882
-0.000101465
-0.000159888
-0.000653729
0.00367174
0.000353045
-0.000212044
-0.000411458
0.000270456
0.0013486
-0.000512557
-0.000683723
-0.000152323
-0.000188124
0.00431688
-0.00185618
-0.00227257
0.000157808
-7.6289e-05
-0.000281493
-0.000151344
0.000373405
-0.00017712
-4.49416e-05
0.000653618
-0.000223906
0.000529612
0.00194522
0.00186224
0.000299489
-0.00410696
0.000957051
0.00172533
2.69305e-05
0.000797625
-0.000421183
0.000359174
4.47504e-05
-0.000659424
0.000255499
0.00750986
-0.00490396
-0.00606269
0.000550811
-0.000165375
-0.000922755
-0.00166612
0.00148011
-1.64159e-05
0.000202428
0.00144578
-0.00203525
0.000452859
-0.0152676
0.0058358
0.00738344
0.00204832
-0.00327641
0.00179285
0.00125208
0.000231477
-0.0020904
0.00350787
-0.00120209
-0.000215386
0.000145927
-1.21931e-05
-0.000706433
0.000572699
-0.00126027
0.00335356
-0.00347142
0.00522811
-0.00310065
0.0111244
-0.00304533
-0.00497842
0.00460507
-0.00485219
0.00827606
-0.00802894
0.00154379
-0.0045551
0.000668098
0.00234322
0.000849433
-0.00144961
0.000676346
-7.61684e-05
-0.000411545
0.00118444
-0.000387417
0.000303264
0.00015384
-0.000706927
-0.000269012
0.00105461
-0.000758672
0.00027313
-0.000372842
6.07387e-05
-0.000273745
-5.37704e-05
-0.000110635
5.7198e-05
0.000107208
-0.000133729
0.000192216
-0.000125126
0.000267917
0.00323436
-0.0312845
0.0520626
0.0365976
-0.00305701
-0.000524482
0.00538148
-0.00179998
-0.0059622
0.00591723
0.000826849
0.0149359
0.00287762
-0.0112149
-0.00425382
0.00901579
-0.00555818
0.000796208
1.35016e-05
-0.000164899
0.000151398
-0.000132122
-0.000434041
0.00143459
-0.000868431
-0.00133504
0.00067362
0.000503525
0.000157897
0.0133818
-0.0452619
0.0304095
0.00147056
-0.000443629
0.000649701
-0.000206073
-0.00357369
0.000829036
-0.00547922
-0.0294675
0.0276483
0.00606264
-0.00710261
-0.00151047
0.0133613
0.0454233
-0.0587847
0.000808878
0.0005296
-0.000592046
-0.000746432
0.00130616
0.00175492
-0.000577793
-0.00248329
0.00069118
0.000369764
0.000105337
-0.00116628
-0.00727497
-0.00797527
0.000895958
0.0143543
-0.00777214
-0.00468033
0.0053821
-0.0104256
0.00759251
-0.000224901
0.00305799
0.0145645
-0.00720464
-0.0104605
-0.00172877
0.00283874
-0.000260423
-0.000964971
0.00119825
-0.0045787
0.00365405
0.000545236
-0.00510407
0.000904786
0.0140701
-0.000818722
-0.00330477
9.64881e-05
-9.0962e-05
-0.000287087
0.000281561
0.000168938
0.00042405
9.42983e-05
-0.000687287
0.000509698
-0.000121419
-9.35459e-05
-0.000276449
0.000491328
-0.000565964
-0.000321123
0.000703886
0.000183201
-0.00147742
0.00110214
-0.000241406
0.00061669
0.000584195
0.000243444
0.00149841
-0.000121553
-0.000232143
4.42382e-06
-0.00102676
-0.000834016
0.00173485
0.00175629
0.000244691
-0.000782348
-0.000303355
0.000160265
-4.76648e-05
-0.0796739
-0.0409934
0.0836371
0.0370303
0.0546255
-0.0412642
-0.000322487
7.70321e-06
-1.56324e-05
0.000330416
0.000264865
0.000149656
-0.000342156
-7.23651e-05
0.000242856
-0.000279987
-0.000692788
-0.0162787
-0.048756
0.00900283
-0.000451832
-0.00129222
0.00066731
0.00470982
0.0516314
0.000919197
-0.00446635
-0.00151406
-0.00264419
0.0086246
-0.0425223
0.049567
-0.0368866
0.0298419
-0.000112678
0.00033812
-0.000166633
-5.88095e-05
0.000192456
-0.000243861
0.000279954
-0.000228548
-0.000493592
0.000581148
-0.000424759
0.000337203
0.00422656
0.00210566
-0.0105729
0.00424071
-0.00175994
0.00114714
-0.00104312
4.2026e-05
0.000245658
0.000755437
-0.00391404
0.00206559
-0.000283501
-0.000221665
0.000283113
0.000222053
0.00783361
0.000572689
0.00107405
-6.99544e-05
-0.0010041
0.000351147
-0.017128
-0.0257146
0.0424915
-0.000917018
0.00213161
0.000129816
-0.00134441
-0.000391532
0.000165956
0.0002392
-1.36241e-05
0.00133093
-0.000960467
0.000124087
-0.000185687
-0.000765367
-1.4798e-06
0.000514651
-0.000520275
0.00014034
0.000379935
-0.000462481
0.000506398
0.000139359
-0.000183276
-0.000461802
-0.000361399
0.000224965
0.000255021
0.000240165
6.44465e-05
-0.000559632
-0.000651405
0.000513351
0.00105963
0.000136997
0.000141441
0.000299289
-0.000577727
-0.000105853
3.91382e-05
0.000227789
-0.000161075
-0.00119102
0.00969353
0.00371348
0.00228921
-0.00213167
-0.00387102
-5.06073e-05
-0.00192469
0.00206408
-8.87821e-05
-0.000553932
0.000594517
-0.000242257
-0.000769165
-0.00180987
0.00166043
0.00130413
-0.00232162
0.00107913
-0.00101729
-0.00378448
0.00147045
0.00333132
0.0031517
-0.00151094
-0.00151581
-8.05523e-05
-0.000222713
0.00100341
-0.000700146
-0.0482943
-0.000320502
0.0486148
0.0411584
-0.0821029
0.0144001
0.0265444
0.11309
-0.00224382
0.0187552
-0.037081
-0.000326313
0.0388979
-0.00477919
-0.00873265
-0.0578364
-0.104559
0.0543982
0.0177862
-0.051686
-0.0047848
0.00110357
0.0301211
-0.0313826
-0.0336455
-0.0259244
0.0484095
0.0111604
0.000662682
0.000698586
-0.00104338
0.000458969
0.00124709
-0.00746954
-0.010349
0.0136273
-0.000878026
0.00129291
0.00125217
-0.00166705
0.0484867
-0.0498681
0.0130498
0.0821557
-0.0453374
0.051558
-0.0501511
-0.104019
0.102612
-0.00860228
-0.0433203
0.043495
-0.0618552
-0.0394617
0.101675
-0.00370721
0.000393927
0.00700107
-0.000344675
-0.000981233
0.00123103
9.48798e-05
0.0254592
0.0388096
-0.050887
-0.0202437
0.010381
0.00720774
0.00265497
-0.0023078
-0.00994276
-0.028391
0.0472911
-0.00322563
-0.0156745
-0.0441232
-0.0705103
0.00551854
-0.00410835
0.0518869
-0.0154506
-0.032328
0.000419073
0.103198
-0.103617
-0.0043141
-0.00902862
-0.000197628
2.7258e-05
-2.04729e-05
-0.0116816
0.0231476
0.043758
-0.0355635
0.0290991
-0.0104015
-0.0380385
-0.000148414
-0.00361568
-0.0015519
0.005316
0.000290456
-0.00209062
0.0016103
-0.000226935
-0.00111223
0.00166979
-0.00380885
0.00428486
0.000214134
0.00016941
-0.000497503
0.00011396
-0.000180551
5.71704e-05
0.00136403
-0.00124065
0.000275318
-0.00106922
-7.28815e-05
0.000155455
-0.00024017
4.78135e-05
-4.98495e-05
1.99331e-05
-1.78971e-05
0.000146627
0.000187943
2.26627e-05
0.00124443
-0.000672561
-0.000478099
-9.37699e-05
-2.38553e-05
-0.000171837
-0.000591326
0.000787018
-0.00852885
-0.00526098
0.0216061
7.79576e-05
-0.00104841
-0.000704505
-0.00249383
0.00195325
0.00124508
0.000470091
-0.000350393
-0.000232376
0.000303551
0.000177528
-0.000384591
-0.000302086
9.28244e-05
0.000209262
0.000410849
-0.000907165
0.0002254
0.000870972
-5.87088e-05
0.000480217
-0.00129248
-0.000116477
-1.29653e-05
-8.81112e-05
0.000246582
0.000311621
-0.000604062
0.000128987
0.00130118
-0.00066751
0.000175207
-0.00235764
8.76057e-07
5.6875e-05
-0.000416954
0.000359203
-0.000458152
-0.000853981
0.000326592
0.000531583
0.0011185
0.0005217
-0.000715642
-0.000924563
-0.000115319
0.000247295
-0.000254582
0.000122606
0.000460636
-0.00049313
2.1619e-05
1.08748e-05
-0.00460102
0.0470143
-0.0473195
-0.00879881
0.0108868
-0.0155855
0.0134975
-0.0194692
-0.0400322
0.00313255
-0.0235751
-0.00968975
-0.0421027
-0.00609314
0.0039552
-0.00232842
-0.07234
-0.000140693
-0.000232976
-0.000352534
0.000726203
0.0571518
0.00117923
-0.0583311
0.00410681
-0.00224272
-0.00394365
0.00207955
-0.0662625
-0.0445111
0.0502745
0.060499
-0.00610201
0.00313325
-0.00128506
0.00274318
-0.0194845
0.0288015
-0.0120602
0.000151317
-0.000924205
0.000772888
0.0798159
-0.0775726
0.0319532
0.00347989
-0.0304381
-0.00499504
0.00143349
-0.002988
0.000312458
-0.00131284
-0.000240422
-0.000412361
-0.031231
-0.0497559
0.0738639
0.00712302
0.000357757
-0.00752905
0.0102824
-0.00311106
0.000695555
0.00397345
-0.000606037
-0.00127409
-0.000817479
0.000528433
-2.01113e-05
0.0002941
0.000965393
-0.000536272
-4.77633e-05
-0.000381357
-0.0031424
0.00147389
-0.019103
0.0146852
0.00196525
-0.012521
-0.00129985
0.0118502
-0.00312152
0.00157812
0.00249235
-0.0675129
0.0204976
0.0157309
0.00203701
0.000307283
0.00135419
-0.00369848
0.00235043
0.00263718
-0.00347328
-0.000322929
0.000793556
-0.000843956
8.48157e-06
-3.87235e-06
-4.60922e-06
0.00300693
0.00324496
-0.000878428
0.00794377
-0.0115684
0.0111036
-0.00747895
0.00412156
-0.00224197
0.000278001
-0.00215759
-0.000123272
-0.00027406
0.000144942
0.00025239
-0.000354507
9.52229e-05
0.000186519
7.27651e-05
-3.48427e-05
-0.000537648
-0.000108856
0.000681347
5.76398e-05
0.0016143
-0.000412231
-0.0048993
-0.00267569
0.00247195
0.00510304
-0.00280251
0.00134904
0.00857653
-0.00712305
0.000603654
-7.72443e-05
-0.000550265
-0.00209822
-0.000208953
-3.33443e-05
-0.000572309
0.000113776