/*--------------------------------*- C++ -*----------------------------------*\
| =========                 |                                                 |
| \\      /  F ield         | OpenFOAM: The Open Source CFD Toolbox           |
|  \\    /   O peration     | Version:  2506                                  |
|   \\  /    A nd           | Website:  www.openfoam.com                      |
|    \\/     M anipulation  |                                                 |
\*---------------------------------------------------------------------------*/
FoamFile
{
    version     2.0;
    format      ascii;
    arch        "LSB;label=32;scalar=64";
    class       volScalarField;
    location    "0.0948794";
    object      omega;
}
// * * * * * * * * * * * * * * * * * * * * * * * * * * * * * * * * * * * * * //

dimensions      [0 0 -1 0 0 0 0];

internalField   nonuniform List<scalar> 
3989
(
49.394
43.6173
42.6482
43.9628
41.5401
44.1964
47.7433
42.0859
67.5565
64.7486
144.994
77.6018
120.329
49.3524
61.404
43.2741
49.4036
63.4107
46.9233
42.0046
77.2945
60.084
50.9519
48.6661
43.5113
61.7414
75.5408
48.5449
58.0933
49.1901
70.9426
68.3229
50.2774
49.3287
146.445
72.3635
48.7557
44.3735
73.8617
48.3732
55.3682
47.9245
77.0217
61.8693
86.5413
48.44
47.2035
92.8838
49.3224
89.9151
43.534
49.4523
60.6005
49.2833
43.3226
48.3484
47.205
77.43
132.994
80.4236
78.6745
176.506
180.199
618.088
42.1135
50.3438
64.5638
41.9689
59.0794
76.3518
129.126
49.1957
42.6736
43.0254
50.5679
45.0082
43.7192
60.2258
45.1402
45.0605
46.7003
93.3977
65.9168
42.7931
41.7725
200.232
41.766
72.5499
42.2832
63.5009
42.6011
73.786
82.8567
51.2013
48.7482
45.3853
47.2803
61.4114
45.1191
77.5956
65.5408
83.9824
75.8097
132.705
68.2738
49.3502
58.5941
66.6387
63.5369
114.646
61.2967
46.3423
45.4502
45.6096
47.2993
47.9629
46.3732
71.4381
76.9238
100.902
52.2702
49.345
46.2027
48.4578
47.862
41.7773
46.5983
41.6891
85.308
64.6413
95.1052
132.906
91.6374
113.729
112.841
109.456
47.4195
58.2115
63.5013
65.0524
75.5049
57.6334
85.9237
49.2336
48.664
135.048
45.9282
87.9318
65.9122
57.2861
42.578
68.7873
68.607
70.581
164.249
160.799
41.1767
53.308
61.1333
127.943
49.4171
43.1401
67.1588
96.5893
96.4885
43.3931
43.3964
83.7017
43.5
83.5197
49.9052
47.817
100.057
51.5628
75.1213
49.5893
47.2952
45.0895
135.086
51.7223
80.2027
42.4835
72.5917
42.5284
98.3955
78.704
50.9576
80.3656
65.5053
49.5561
46.9091
49.7503
89.0117
196.24
42.0377
200.131
751.754
43.0808
49.9963
41.4697
87.5774
76.0302
150.1
83.8606
148.415
62.3938
47.6539
64.2451
55.3983
57.4606
56.2585
69.9914
64.9827
54.0999
55.8302
579.499
64.0297
92.4508
85.004
46.8127
44.1387
46.0981
48.1053
48.1401
96.9013
65.8765
51.9351
46.1246
81.4087
42.7741
88.0713
117.622
72.4209
54.1685
48.5681
203.932
104.428
68.9088
46.7615
52.1957
43.4435
48.6131
63.4607
134.642
133.154
41.8978
131.227
106.053
62.188
65.0123
131.226
41.909
80.2628
58.43
85.6803
47.8091
95.242
79.4152
43.8656
42.3422
51.8737
44.9326
71.0941
46.1105
77.5774
107.974
41.989
56.4671
90.1358
98.6029
99.2289
105.892
106.079
48.9673
104.63
78.0914
110.52
99.1865
51.8937
195.969
63.3204
58.8149
140.489
58.9524
46.0471
48.7192
59.7331
133.899
168.146
175.885
107.579
107.394
108.004
55.8897
78.9111
46.4687
43.4219
74.2736
105.647
66.0237
52.3208
158.58
156.245
49.8006
156.801
53.7606
49.5939
81.1299
55.6368
49.1072
43.6231
41.3081
62.3457
87.0825
61.7962
107.57
41.5609
70.7088
46.9537
48.3907
101.972
54.0898
60.4899
44.9741
69.4732
54.0862
82.1457
74.5166
119.292
49.7911
42.1899
42.1363
43.7991
46.6419
41.5621
50.8053
57.769
52.6216
99.8161
67.1178
61.5867
83.0295
72.9982
77.784
41.3765
47.0434
184.366
49.8488
45.1703
52.3838
100.804
48.773
48.403
51.9887
46.7581
80.8329
101.546
83.3307
714.217
59.8835
63.3526
102.081
44.3946
264.419
72.0704
79.721
71.7121
90.0688
45.8861
63.977
86.5433
53.1929
125.382
42.0058
60.3178
41.3652
53.6723
43.0731
82.6272
57.4909
112.831
63.6793
57.4091
91.6057
136.682
121.101
84.2537
169.916
71.3634
101.835
45.1082
138.973
48.248
103.559
98.1682
42.533
48.1617
127.983
48.6288
57.0904
51.7908
67.6759
68.32
112.119
59.3156
50.1965
44.5291
110.756
73.0058
51.7182
45.9344
67.1627
42.4237
547.857
81.2675
85.9342
44.0921
41.6713
49.0845
91.7566
406.17
87.483
88.2125
809.433
43.4571
45.6339
43.544
103.969
53.2892
44.2256
54.3027
87.9682
43.6816
46.2196
182.066
45.2462
49.0445
91.5374
44.5705
42.2073
47.6435
43.3229
44.6656
104.677
48.5082
41.8975
60.9065
59.8674
171.477
48.3928
54.137
72.3805
79.2541
45.0598
48.3228
52.3007
123.23
93.6681
41.5587
42.6996
60.645
59.7945
152.996
100.196
152.802
73.7491
85.3486
88.723
184.326
57.3932
119.105
182.268
65.8885
148.443
53.4373
80.9276
84.049
120.696
119.124
105.736
160.407
72.6925
60.0814
84.5248
41.8267
49.4743
100.246
160.565
82.1953
42.991
106.663
41.8613
67.0116
44.3467
46.1327
58.9017
56.7212
50.8139
41.9357
66.5314
42.9594
62.2438
56.1875
54.7677
62.6256
105.385
103.009
63.4793
74.0403
70.8733
46.111
108.213
102.699
54.3691
88.6351
100.049
81.1152
48.458
81.8945
49.0952
52.0586
68.0253
87.6714
42.9191
121.701
44.4045
41.6509
77.1816
51.4311
41.5121
47.185
47.5667
99.4659
43.609
53.1852
90.8322
46.815
68.7231
100.127
59.7364
46.9923
61.0712
76.7312
1402.4
947.34
44.8357
43.0252
44.2831
69.8981
41.3727
43.6877
51.5412
101.492
123.693
84.7547
65.2359
71.9086
79.1129
42.8503
46.2455
104.301
130.977
59.026
43.3599
47.1619
42.3703
44.3182
50.5826
72.4151
47.9335
49.4042
41.6852
42.9614
78.4417
41.774
70.5278
42.3758
49.9531
41.3607
44.2571
50.0696
60.2302
47.4992
50.4026
42.187
43.2899
65.546
53.9135
41.6171
42.231
53.6247
42.6656
44.1179
911.383
431.558
106.914
49.3154
69.2376
79.4503
84.0275
45.9085
42.7584
54.1565
59.0084
45.6131
47.9599
46.7269
43.6098
64.7348
49.3138
77.3647
94.2142
49.0191
41.3083
58.4314
47.1933
78.5052
82.3952
47.5966
109.949
73.3797
45.9447
61.2183
67.7337
41.598
98.4887
44.4767
45.0922
50.28
91.7939
43.9592
47.1713
47.7443
45.8739
49.3073
47.5537
49.1878
65.4422
48.2123
49.8157
68.3429
49.6042
52.4147
45.2951
44.8828
53.0011
48.1019
48.4177
104.388
45.1949
68.8512
51.9212
62.7791
46.563
92.8034
48.0864
49.3508
41.4158
79.0267
65.5489
76.5262
93.0516
55.5222
42.8689
48.7087
58.6464
72.7074
50.9197
128.805
44.7702
42.3228
45.2398
125.352
62.8272
44.3246
59.0579
104.252
77.4406
135.723
55.8727
69.3613
42.0125
42.3241
42.2027
42.3812
42.8486
46.9115
82.5475
42.9869
42.357
42.139
43.1672
42.6999
88.2878
59.7968
45.5526
71.8927
47.3754
65.3957
51.0592
146.451
42.1
145.492
41.4925
64.459
80.8592
53.1207
107.352
46.9411
85.6863
48.5333
108.915
42.2205
41.3086
46.6507
137.954
46.8432
52.4117
136.736
44.6637
107.428
55.6584
84.5324
78.4668
65.7161
80.2604
46.3145
41.5814
41.2548
44.8339
108.559
43.495
43.0925
44.4008
41.2693
42.611
67.6844
82.672
41.4997
47.9966
41.8667
42.9098
95.1641
42.5059
162.953
42.6415
66.3771
131.716
62.2435
43.1416
91.9884
76.004
61.3583
59.0965
197.675
494.138
771.367
59.9564
42.9417
46.1144
41.1326
41.6323
45.5543
48.5613
48.0724
49.3511
51.1405
71.1107
105.368
48.9338
46.5954
74.6211
55.9202
94.7266
52.1603
145.333
43.4974
48.0418
96.2984
49.9829
43.3261
65.1639
47.3665
53.1055
77.828
41.0122
52.8154
61.8724
55.257
44.9381
49.1984
47.9792
61.003
42.8734
41.2784
41.1263
62.1588
41.5724
109.095
41.3669
76.4348
78.8404
75.8103
74.2309
46.2724
41.7674
41.9393
42.5688
63.4515
62.9814
51.5411
51.554
40.8173
47.5595
79.5478
54.485
57.2872
53.0722
58.3439
42.1423
46.1224
73.9482
65.9574
45.9986
123.661
50.8835
85.0689
41.986
53.5155
74.9548
50.4432
105.291
45.1352
50.591
59.6792
42.3964
58.2669
50.55
41.5917
55.3754
41.6752
43.7034
84.8657
55.6421
41.8962
43.5006
57.7442
104.408
59.3487
46.9348
46.0506
45.4265
52.5054
52.6998
78.6887
54.3329
41.4238
46.7626
50.8943
42.9719
64.2822
50.0685
42.9793
41.4897
78.0627
53.8056
42.1854
274.045
98.0793
42.4101
43.8216
89.5703
88.864
66.5331
91.1965
42.2255
82.9727
49.7255
56.7218
42.6646
43.4042
378.241
44.0183
45.1057
120.122
54.2747
44.3234
63.0667
65.9202
54.4279
55.0514
51.5473
53.5155
52.7248
86.9948
84.4675
44.813
47.1894
78.7021
53.4097
101.464
43.2881
72.8054
49.9475
48.0802
57.5561
553.939
157.692
465.639
683.882
201.712
50.4162
45.6415
47.1993
932.424
451.019
42.6397
53.1937
47.1542
707.899
60.3917
70.4643
41.7543
65.5159
43.2182
69.7648
43.3855
49.0047
51.7006
42.0696
94.5243
50.4414
51.6274
42.0767
44.5253
69.7018
50.0594
55.748
44.8411
48.0917
929.67
368.198
114.097
52.2703
46.2765
91.8077
51.0827
53.135
43.1269
48.9686
96.5274
56.4539
42.0482
43.8335
57.0097
43.839
80.4188
76.7391
70.0909
54.8787
43.8015
52.0397
79.584
43.3051
41.5637
43.4318
46.1612
64.291
104.803
49.2735
50.3841
64.3069
45.7198
48.2085
49.2012
61.1852
45.411
49.3868
49.7608
51.8782
50.3576
41.5616
48.9947
50.7946
65.1085
93.7788
66.9867
47.8685
49.9185
51.3017
43.6153
59.3748
43.613
41.7149
50.747
44.7673
51.8474
50.6074
49.3134
50.5705
42.288
44.7428
40.9394
52.5107
93.9349
49.7389
48.6116
65.6473
40.9723
53.3086
45.8499
41.5141
47.3256
43.551
56.1874
70.0868
69.5125
55.6652
95.1134
50.5279
53.2015
69.1572
57.167
52.8293
52.1174
46.3266
60.1506
41.5528
43.0604
42.9116
42.6776
59.7294
43.857
51.5044
48.5186
43.756
53.9035
54.4112
61.172
56.3929
53.5259
41.8785
41.5207
41.7339
41.6573
46.9399
46.9232
48.2617
46.3066
43.7168
44.9468
43.1765
46.5671
41.7444
49.5386
47.1647
52.1858
54.6232
57.3904
62.8362
134.67
132.669
45.3061
45.0715
41.8668
95.2465
43.1846
42.8196
49.6339
50.1913
42.1457
42.1044
44.5382
53.3666
58.084
46.3231
48.6738
49.8577
109.628
116.003
85.0446
79.1423
125.534
53.3363
42.105
41.8759
41.4294
44.2742
53.7432
51.7541
52.7968
50.0756
61.251
85.7543
85.0546
82.2393
42.5249
42.5282
42.3701
55.9204
46.0032
57.6004
63.3147
897.628
50.2182
42.4772
45.4687
45.2625
51.9511
43.0268
51.7524
78.3065
94.0712
51.4329
64.5339
42.0925
44.6785
65.2349
50.6349
50.8314
52.0072
100.177
117.912
51.2134
47.5933
62.9872
41.7884
86.4869
107.395
97.8555
51.574
44.6664
55.8549
47.0542
93.4068
74.2882
77.4779
42.918
43.4199
48.2062
49.6005
92.8594
46.4224
100.245
101.961
42.3494
43.9774
47.0386
52.5748
43.4208
46.7688
42.3028
66.3144
43.2227
47.2771
41.6875
46.8904
41.8179
49.9485
44.5333
52.2679
48.8892
46.8811
50.5215
73.4193
43.452
44.5657
52.036
67.9893
53.4236
44.7324
61.3283
57.8671
62.1278
44.9589
43.7488
42.1332
47.1107
47.5513
61.0571
65.3103
52.6774
61.9118
44.1507
45.0408
72.7032
63.2098
44.4758
47.766
57.7589
72.6629
45.6108
63.6357
47.8058
50.1569
50.0688
46.0125
47.371
61.3151
65.7467
49.2169
51.3319
57.8284
45.2032
65.7113
94.6045
54.5782
45.2117
88.3483
49.1984
70.4682
76.2232
55.89
48.7043
47.9469
62.7795
60.0258
47.0105
44.8001
70.3572
42.1289
43.6006
45.4089
43.4624
44.829
42.9297
54.6503
44.0327
56.1766
76.6418
43.789
56.3338
50.4824
50.2152
53.5689
42.3323
50.5199
47.1228
45.9654
46.7114
46.647
48.4728
48.2684
68.4778
44.3923
113.429
72.9515
68.1388
51.0317
91.3935
109.528
47.8386
49.1977
100.873
93.2149
76.7305
46.0616
49.2119
114.561
107.55
109.634
69.8199
95.2667
67.7507
97.5684
55.7517
48.785
77.79
46.7711
66.6706
46.0905
44.6394
88.0985
105.626
48.5084
53.7865
49.2815
46.5716
69.4123
42.8563
65.489
49.3181
69.5987
65.5608
77.9639
84.6247
80.206
67.5765
63.7387
48.9277
101.536
42.816
49.1962
43.869
48.5232
49.2971
77.0147
43.1638
48.1956
60.05
44.5033
45.7387
105.825
57.4249
43.095
78.7349
80.1199
91.7242
51.3836
43.402
61.4898
54.2721
60.1571
70.6129
48.4083
42.2959
47.9117
45.4349
76.5182
50.8995
66.2132
97.7982
62.7586
47.2656
42.8855
48.557
104.819
93.5362
100.907
77.7265
48.3949
75.478
105.036
87.7281
73.6652
43.9707
52.375
71.7204
44.9063
49.4852
50.3382
53.6947
53.4027
106.902
101.277
336.793
84.6513
110.204
662.896
49.0215
54.0106
60.3404
47.466
61.951
43.7723
63.8521
42.7996
51.1438
51.6152
105.706
50.0575
43.5298
45.5327
45.8675
94.7448
67.9119
46.778
49.6011
47.3053
48.5559
49.3436
44.5668
134.903
41.9314
45.0873
41.5877
50.134
49.4483
49.8745
48.766
60.2708
48.8031
41.535
41.3787
41.4253
49.5584
73.6511
69.1167
66.6273
45.4261
54.0459
59.2784
50.0394
50.0367
69.5468
41.355
41.3791
41.3691
55.2756
42.0445
49.2203
41.7182
49.2068
48.8412
43.8528
44.0128
42.4983
45.5695
47.3407
43.4251
42.0047
73.5204
49.2685
52.8661
42.8049
41.9206
42.541
47.6209
42.3216
41.5833
71.0234
84.0743
68.177
42.6919
77.6318
42.5948
72.0523
52.6971
66.8894
57.3159
42.2964
41.6778
747.238
596.954
738.994
567.505
927.367
168.075
44.166
57.1424
70.3228
44.1781
42.554
49.1358
54.3726
49.1033
71.2162
113.08
64.1218
97.6217
50.3986
45.0218
53.5219
49.2957
174.39
46.9665
73.9182
99.748
43.9397
49.6451
41.7848
43.2987
41.4026
101.399
80.8495
71.5959
57.6881
42.0459
54.1856
66.8266
62.4558
50.4527
81.4611
111.055
57.0426
56.026
42.1946
70.4774
100.116
66.1653
84.1029
96.3677
55.8916
48.2406
78.31
47.1407
231.841
44.2212
41.3964
64.7553
71.0372
50.7467
93.7052
43.6122
52.5827
44.396
43.5533
123.42
59.8877
44.1445
81.5178
94.4571
82.3083
41.1601
132.491
51.543
95.7989
50.5767
49.299
146.268
45.3886
275.17
272.54
43.3264
47.6538
42.5825
41.7159
42.5593
57.4592
45.0516
50.6084
63.4764
108.162
48.9882
48.5609
49.1288
60.9682
65.7788
51.0493
61.6065
152.775
42.053
53.5269
99.0447
98.6991
74.4273
75.3081
85.1116
65.2173
88.0499
41.5365
75.8084
51.4451
100.855
50.5431
63.3863
129.906
88.3694
51.2668
90.8942
45.8368
46.1854
82.2243
78.4265
71.5733
51.0564
51.7196
51.0977
77.9879
66.2517
42.6497
50.7628
55.3619
59.7925
83.3605
239.722
882.63
45.3954
58.1731
901.046
98.4447
59.157
46.4575
54.7524
43.2105
74.0623
114.34
53.4864
92.3951
41.9124
95.2333
52.3467
59.7644
51.514
82.5512
41.8373
93.6803
100.625
45.1856
60.2509
88.782
47.1438
46.8276
46.1762
70.3959
76.2519
92.573
71.4104
130.782
198.981
94.3063
50.9796
62.3186
58.0694
101.087
83.3021
149.606
184.085
187.808
48.1284
48.615
44.4532
72.4254
46.74
42.4331
46.7616
49.3442
47.8199
127.603
260.191
71.0138
82.6147
51.599
44.581
42.7691
42.668
106.663
43.4976
41.3923
43.749
44.6053
534.001
46.4053
118.981
89.3709
41.9498
45.5241
45.4806
49.3126
53.8837
60.9308
63.6244
42.4096
70.4201
67.826
74.7148
45.5933
78.9569
54.2496
61.2369
63.4162
46.8857
67.7765
61.4541
60.7991
52.4558
48.7327
48.8222
86.9965
63.3192
48.5307
79.0482
70.5346
102.592
82.2139
81.5969
82.4987
84.1646
41.6802
42.5004
42.4239
43.973
89.9988
51.6291
113.48
66.0699
67.4401
144.796
42.7937
43.6527
46.5968
48.4288
41.895
41.3555
58.4445
85.5786
71.0471
60.676
67.64
54.9728
62.8108
63.4291
58.5697
112.419
111.266
66.1405
80.2974
42.1498
106.646
71.9065
107.361
77.7606
61.9849
59.2769
55.574
107.927
92.0149
82.835
82.0432
48.1571
45.7186
46.2851
63.9781
49.3911
49.3999
49.4034
48.5361
48.9606
48.6901
49.3479
48.6333
49.3007
49.4688
49.3354
49.3256
71.3443
118.641
116.569
76.7975
79.456
151.647
61.5328
41.7698
53.736
45.6515
92.1653
94.9063
46.5945
53.9092
50.2472
46.3798
49.7187
49.458
49.7394
44.8444
44.848
47.7825
52.9975
80.6341
49.2002
49.9398
47.5078
44.7405
50.6855
48.5347
46.5191
43.995
43.2365
43.42
78.5926
52.2019
50.0141
44.1703
77.3048
48.3037
62.4372
61.6324
58.077
66.7582
77.0469
42.0013
58.6923
46.1724
47.2084
49.8715
49.5592
48.7363
41.3357
47.0424
50.0594
46.8876
43.5035
65.5108
122.022
58.866
41.9922
48.4874
50.2281
74.4204
51.2198
45.0761
45.5077
43.9392
42.5791
46.0316
43.6044
46.8856
63.062
45.147
68.7027
46.8092
49.9685
48.0873
68.8067
44.5469
68.6422
48.4889
47.4559
45.5203
48.6144
47.9874
44.8302
45.3796
46.1909
45.2587
47.6988
45.6182
45.7657
43.7748
44.4037
92.8278
110.097
51.4263
63.0548
51.2119
82.8109
46.6875
42.9766
45.1533
43.1568
59.1791
46.1003
45.0678
47.114
97.3774
41.911
41.5757
42.2366
60.2804
82.5267
127.145
44.3118
41.9928
42.1392
71.2951
51.2498
76.5834
42.643
53.0946
81.7585
45.6827
42.3071
96.8759
46.052
44.9347
55.8896
45.4016
63.8417
62.8105
88.6212
67.3515
88.3207
63.4305
67.9318
93.4386
47.0358
43.106
63.3763
43.9346
43.6743
44.7571
44.947
48.7631
49.1946
47.1449
61.1362
48.5604
47.9139
48.4047
42.7786
43.4981
43.8574
43.4124
53.9568
67.0684
54.7395
44.027
66.8792
94.1487
87.0961
107.025
72.214
55.3557
43.8248
50.2643
45.2872
47.9001
44.3645
47.3055
41.6492
53.3775
55.4291
105.251
115.076
104.335
55.748
74.9848
81.5323
68.3897
147.834
41.2357
41.3898
42.0406
111.957
46.6916
63.9337
115.313
101.933
135.958
137.674
48.846
130.691
135.697
104.105
124.164
80.9935
604.196
88.647
79.3117
74.2069
57.802
57.1916
112.066
74.5448
47.4088
49.7253
48.8932
49.3311
123.049
49.7017
62.4066
63.6836
128.231
146.598
91.4529
86.8246
50.1887
44.9211
46.0279
69.754
167.321
123.281
124.187
45.14
48.7399
80.5542
45.5714
51.2235
73.5613
61.2435
62.843
79.9766
41.8059
52.4204
69.3117
52.0941
43.1813
52.9322
70.0937
51.226
44.3973
46.2403
66.8104
41.8914
130.091
75.8802
92.6781
56.2294
57.0699
93.3934
47.1147
42.4597
65.4389
58.7191
108.295
77.5404
109.921
107.692
61.0589
90.8991
128.977
844.651
52.0026
74.3045
109.357
110.531
43.0318
153.543
106.529
61.0664
48.7089
80.8717
76.8242
93.9335
80.07
51.5338
113.574
58.531
113.224
81.1249
94.7258
100.21
86.0692
129.085
116.927
42.2246
41.5391
41.9555
41.7794
47.6562
44.1425
110.413
74.12
42.8928
64.1385
42.7764
43.5388
63.9846
42.1866
42.4093
42.6228
49.3513
145.076
43.9964
46.0925
47.3143
44.8936
49.9611
44.8058
59.7339
54.9679
72.4221
109.88
43.2876
94.3537
53.1052
58.9672
151.739
62.0833
482.73
96.864
43.7389
97.1779
82.6221
43.3981
75.0189
46.6621
48.6242
61.3519
46.4216
51.7694
43.0758
42.9613
46.4876
106.153
45.0889
69.126
57.491
50.8435
47.1356
119.747
48.7133
48.406
46.4703
99.242
43.4075
69.8576
43.6072
43.9146
44.2826
91.621
43.346
41.8077
41.5725
41.4608
41.9728
49.7075
47.3949
41.8593
61.1872
53.015
79.8938
90.211
42.9031
45.5039
54.276
41.5373
44.3459
49.9429
43.1663
68.9941
41.7521
43.4895
44.5487
57.2813
84.0328
42.0813
65.6711
43.8411
42.5823
49.3534
42.8683
50.282
41.6569
49.9323
45.4557
41.7177
41.9555
44.2362
43.6356
49.0574
55.3003
48.2954
46.0108
46.2419
87.2414
56.1098
42.7109
82.6733
85.8559
65.3104
41.1161
42.9747
174.731
45.6966
582.884
45.7265
53.104
52.5117
43.1484
47.999
48.0391
51.2685
64.223
115.12
59.5407
46.5226
52.8154
72.3946
42.1409
41.3486
44.4146
124.011
48.2353
50.5313
53.9728
41.9229
40.8782
44.6921
65.8572
47.4584
41.6903
41.3622
41.9472
58.6663
45.3416
42.421
77.3869
49.4547
75.4465
47.145
49.5057
42.0596
50.1437
42.2173
41.3201
63.6475
44.2171
85.172
43.6285
42.7776
42.2826
47.1478
99.1493
122.143
45.1342
43.4152
49.8211
49.3687
42.6948
65.7799
77.3553
47.8228
45.0474
43.3762
42.661
47.0797
42.4331
43.9138
45.7266
47.1264
42.2761
126.136
41.8429
41.7343
63.5655
44.2173
58.3794
41.8642
45.5346
45.0816
47.4932
64.272
54.905
44.3627
67.4086
60.4134
60.1795
910.244
709.419
47.5224
42.4152
47.0287
42.1462
42.2726
44.015
41.7642
52.9268
42.168
41.9335
41.5582
61.572
42.8255
41.7833
44.3915
44.9285
82.5222
43.8975
218.542
909.565
43.5717
78.1178
66.2546
43.4166
832.415
66.2399
472.492
41.6043
45.5153
41.8415
43.624
106.55
60.1632
81.614
61.3739
89.4764
55.9079
50.8749
46.664
42.2287
124.822
56.2676
52.1612
108.775
106.933
41.5445
41.7462
51.9141
43.592
49.2592
53.2938
46.1351
41.4658
41.8762
41.8126
52.7646
41.0874
46.2721
47.5285
75.2659
41.5981
45.4995
52.5854
92.0778
69.9687
42.8962
41.4372
43.225
66.0298
42.172
85.8807
100.436
42.1783
41.8217
52.0765
45.1541
50.9073
42.691
41.7805
45.6215
75.2069
47.7902
45.1034
46.5465
41.6431
43.0551
63.6793
41.4894
42.013
46.4339
47.232
43.916
42.984
46.8302
47.5968
44.5858
44.8111
45.0624
81.149
44.9447
46.5463
45.6572
81.0952
92.1654
106.742
60.0609
44.7257
43.0971
47.9493
41.2595
57.2639
42.5018
48.7996
49.7203
49.7498
43.0793
50.0354
51.4609
54.35
43.4532
50.1019
758.562
693.706
46.4574
77.7393
238.629
65.0602
42.8994
50.6309
45.7736
75.6968
53.4839
44.2308
84.4097
134.201
42.0828
48.1976
42.7151
59.5717
43.7061
44.7876
46.5806
44.3252
41.9057
83.4017
41.6205
45.2829
50.9266
70.4154
52.2694
44.2082
45.0591
97.0965
47.3438
47.5531
45.8387
77.5444
63.1637
48.6746
43.7293
45.312
63.542
58.0297
87.8206
69.7125
49.5711
43.6674
42.4165
61.5849
62.4263
45.2103
111.389
49.2365
49.6471
48.4682
101.81
88.2235
64.8549
60.3315
46.6082
44.0327
57.9591
48.7619
47.7623
62.6061
44.0304
86.2894
45.8505
46.6051
69.11
69.4393
46.1719
44.3454
91.7515
47.9631
43.5925
44.4085
54.3459
81.7496
46.1957
46.5858
47.9311
50.6201
46.6031
62.5966
60.3942
44.2108
48.6099
49.2494
48.3947
47.1541
46.62
48.3449
49.2667
49.6735
99.7483
132.289
100.475
69.6799
42.5235
42.605
43.4244
48.4187
63.8032
104.223
47.718
49.0209
49.3503
49.2856
49.6671
94.5183
49.4302
200.053
49.4215
41.5129
41.6558
41.6756
55.9283
60.8347
75.9235
49.3577
73.9873
113.514
48.1523
45.2174
47.2064
59.0589
41.6377
92.2442
43.4222
47.0844
65.8547
44.527
47.6602
90.8344
43.5918
54.9359
43.9297
62.3266
43.3051
41.8212
44.3304
43.9216
44.9799
45.474
48.8925
44.0443
43.7441
45.1783
41.6016
42.1329
108.336
41.5448
59.0983
64.6461
67.2861
42.1203
138.818
65.1345
60.8061
52.3128
79.3819
137.886
52.0289
44.9449
43.1413
65.7191
115.081
59.1008
48.2793
77.1288
122.315
103.312
55.1392
53.5762
53.2058
92.9711
68.349
80.8916
71.2552
41.0873
62.4921
115.786
42.286
62.8552
49.0171
49.0123
83.4811
61.7609
51.33
44.6886
45.5338
79.3395
93.6102
46.8977
101.087
102.152
50.4475
83.1415
90.7637
42.7671
107.338
43.0023
47.1697
503.487
73.0192
59.344
41.0402
52.1589
52.2144
52.0119
52.658
946.039
64.4225
99.2531
65.0667
92.3209
96.0252
92.706
92.7191
45.9251
49.3449
42.4071
47.6585
59.1276
48.6601
44.8364
41.4091
63.2099
45.1587
55.7572
61.41
46.4093
48.4797
49.3436
47.1177
48.3417
52.476
48.432
64.2677
50.0767
52.4653
42.335
43.0109
83.6166
47.0713
128.553
47.1963
144.148
78.9942
58.3388
188.771
128.447
62.9899
42.82
56.8123
42.8188
110.666
61.0899
46.7266
43.9861
42.0743
65.6867
53.8731
52.5485
94.4997
69.1654
41.8786
42.5049
41.7289
86.3443
49.3298
42.7801
65.0992
57.0664
43.8872
42.5336
117.494
42.0001
41.622
41.2408
41.7656
45.2086
41.6167
45.1026
43.0072
45.6539
46.1892
42.1433
42.3023
49.6478
93.0872
55.2829
56.9612
43.3201
41.6082
45.522
43.9658
42.0107
41.7598
53.2616
45.9624
42.0287
45.2298
42.7858
74.9032
46.8078
48.5506
51.6837
55.3925
42.4231
41.4965
42.0666
72.1437
48.5005
41.9189
41.7586
42.3217
50.6188
47.5201
44.0627
46.3464
45.4229
46.0783
44.0843
44.7824
41.1612
44.5759
44.8988
42.7685
50.7696
64.1885
45.9981
44.7161
81.2642
52.4786
51.5906
47.0906
41.4717
44.9377
44.6257
42.1103
49.2644
41.6637
42.7107
47.1764
44.9174
42.0032
43.3183
41.5498
50.2115
48.598
65.718
43.2619
45.2775
47.1953
43.7997
46.8492
44.6579
44.8446
43.9447
57.0505
85.9941
55.4761
58.0056
45.1853
42.7589
75.3537
72.0703
43.4006
97.8289
59.1004
58.3615
42.4101
42.1321
42.3185
41.7962
41.9431
42.2725
79.8465
43.2201
126.585
86.6891
46.3022
347.871
99.7769
41.3794
57.4541
52.9178
41.5362
43.204
42.4542
132.558
898.519
66.5381
50.7023
83.9219
216.681
41.9895
72.8241
43.576
49.3256
202.492
140.472
61.3894
45.487
60.0144
44.8361
44.5843
44.123
47.1207
41.7242
43.744
50.4666
73.1048
44.448
76.887
42.6558
65.0907
53.0756
49.9478
212.561
69.6357
83.7724
935.105
933.388
42.2647
41.9562
120.369
54.2181
42.5872
55.2841
94.9597
57.6733
49.6031
42.2265
51.1876
127.512
51.6402
77.2964
51.2721
52.4215
66.5727
52.107
41.9672
41.5536
68.7337
41.7211
42.1953
123.206
117.127
42.5134
44.6562
57.7664
42.9188
42.6993
65.2175
77.9754
66.3402
81.1595
41.6791
70.1789
75.3485
638.948
47.8609
89.1306
63.5482
68.5946
77.0525
52.0828
59.2216
53.1608
48.8459
44.3014
44.2674
48.8017
53.7917
42.8653
53.713
47.2517
46.2114
45.9382
41.0061
42.5278
55.4249
115.806
51.696
42.6626
61.0429
58.9802
42.8658
88.207
41.1705
46.6371
106.907
63.4173
52.9824
49.7081
61.6108
68.4072
55.177
63.5021
64.0394
44.8788
42.6572
43.6723
42.8517
42.9642
42.7495
45.0101
44.2126
44.127
43.7994
44.287
42.1271
53.8301
44.2546
43.528
45.4892
46.0527
42.7761
42.9839
42.3415
41.5682
41.8307
42.96
53.8262
44.0196
42.5807
42.4036
44.4776
56.1552
56.8325
53.0118
43.1175
44.4334
41.9355
65.4927
61.9717
42.6299
87.7705
73.3989
44.2248
46.5195
42.2605
62.7465
95.4232
43.4998
44.028
46.2882
45.5824
47.164
45.8355
42.9303
43.5197
43.7876
42.1475
51.6905
72.4912
41.6911
48.4931
45.4149
45.1653
44.8474
45.9658
43.7182
42.672
43.5224
42.1764
41.7413
43.5894
45.17
42.0367
53.2249
42.4539
46.7719
42.3156
42.864
50.8108
45.015
51.2205
42.3498
961.729
43.0289
52.2853
54.718
56.5045
59.9005
77.9973
41.6049
85.3835
53.2382
60.1398
95.4357
64.688
48.9134
42.9228
53.3057
45.4095
134.666
45.0158
117.619
61.1896
42.6516
58.7267
48.3336
46.3643
43.7299
42.5686
48.303
44.5643
50.0421
42.4174
48.5821
42.4215
45.6539
41.6828
80.9878
44.7691
67.552
813.527
72.8503
49.7967
543.093
43.6729
72.7059
46.1994
41.9817
74.9207
95.6303
58.2631
41.7625
58.2179
41.7385
59.5877
85.1016
41.9
43.489
91.385
100.243
76.997
41.6822
41.7539
42.3167
42.5455
76.3218
45.8999
42.2093
63.2991
43.1532
45.9623
42.8239
43.623
42.4956
41.2507
43.3006
41.8056
41.4324
42.0377
43.832
64.1683
49.0815
56.5513
65.0732
41.621
53.879
41.6864
69.8556
42.3574
64.1714
69.424
48.2322
49.4585
64.8336
48.381
43.136
43.7356
43.1498
41.3492
86
48.6875
49.3512
48.6859
61.6936
57.1683
70.1195
97.5634
45.8605
49.8962
46.0458
85.2626
45.0864
47.0945
41.9281
74.7021
97.0559
105.989
43.3767
80.4118
53.7359
102.87
52.3415
60.4067
50.3968
56.2564
60.7228
93.4776
74.8209
101.125
122.818
55.2005
43.7189
41.6003
46.5572
44.0475
43.4139
41.7205
164.729
58.0907
41.6227
43.7199
44.2983
41.7294
43.7641
42.1616
42.2693
52.1555
73.0466
42.1761
44.4802
59.04
65.6992
68.4117
50.6653
44.8529
75.8457
83.598
48.2967
49.2454
49.272
48.5786
91.2687
68.6619
45.3329
49.3236
49.6743
49.3196
50.2309
45.9601
85.5547
49.0042
49.0815
46.5508
92.3363
43.4041
65.7646
49.2586
42.2491
41.735
80.5958
72.788
108.922
41.8644
57.5721
49.5932
111.474
42.0085
43.9973
105.642
45.6664
49.3236
47.812
44.1987
44.4458
76.4407
42.561
43.498
74.8397
79.5016
46.5421
46.786
73.3418
79.9231
104.483
44.6554
46.3755
42.3368
54.5636
64.2426
64.6368
44.7611
63.6522
56.1387
56.1405
43.4256
44.4293
69.2452
70.9079
58.5622
48.7203
69.632
62.0437
45.1981
51.073
54.1811
48.0481
64.2818
88.5508
83.7461
51.6497
44.9671
45.3376
48.0113
48.6403
80.0944
52.2603
49.6898
47.5965
49.3035
49.0023
42.6949
45.9453
98.6307
49.9045
100.865
58.0525
66.0298
60.1421
48.4469
52.6652
43.1508
42.6546
43.5407
91.6651
43.6811
45.7679
43.4596
110.943
65.3354
43.8776
41.4116
50.5098
66.7316
42.0707
42.3717
42.4483
42.5707
43.9396
49.9945
80.6763
54.216
41.6542
41.5527
41.4558
41.7973
41.9699
91.6206
42.3937
47.7631
58.7226
80.4576
80.7937
43.7171
965.744
166.614
44.1021
49.9371
65.7914
41.4239
41.4775
42.3056
42.1373
46.7477
46.0988
56.8706
56.2124
50.3786
49.2968
52.4904
62.7148
68.2131
690.544
55.7591
50.9361
56.1372
43.5023
60.438
57.3008
72.0757
60.9408
47.0245
49.071
45.8729
83.9699
45.6472
57.2296
46.5102
51.7379
58.4293
48.0949
46.2857
51.4006
93.1324
44.1226
92.3411
46.8154
48.001
77.7673
42.8375
47.0057
42.2228
44.5158
86.8026
44.1932
43.4656
96.3729
50.481
121.724
49.4026
49.4058
48.3386
49.3559
43.3582
48.5706
49.343
47.8595
47.1893
47.7755
82.4351
65.1652
50.9809
54.825
55.4491
51.4383
53.0522
41.8827
41.5078
41.9959
51.986
43.0841
51.6417
46.9777
77.2755
64.8596
50.0605
60.0171
75.0854
45.7358
58.1533
93.4411
45.7671
65.9658
59.7231
64.758
46.1768
70.0042
85.7056
102.426
145.437
42.7591
41.3277
46.8192
42.944
42.0449
41.3219
44.6106
81.1059
71.9039
46.6729
44.0996
50.9718
48.7543
54.641
115.42
45.6627
51.766
45.7964
43.8341
42.7012
52.4553
83.8952
88.9707
45.0613
46.9621
49.0874
67.2451
47.8838
43.0516
43.9102
42.1519
48.6276
58.0801
43.3791
53.0706
47.5025
70.5204
42.4308
41.7576
52.2262
80.0302
53.56
55.4559
42.1433
42.092
41.4564
105.311
47.6957
41.9029
46.1827
43.2245
49.673
54.7534
43.2718
49.9624
102.833
47.7239
74.2168
51.242
83.3259
81.663
55.3927
58.0433
51.2507
52.3332
52.4536
42.1926
41.4757
46.5009
49.0403
49.5481
50.7727
45.367
43.7353
43.9499
44.0859
48.9041
53.8249
60.7841
42.7072
57.8969
42.1173
42.1173
69.3833
43.6821
42.0217
43.2407
41.9596
42.1254
42.0304
53.9846
71.1141
41.5954
45.9275
52.91
86.9999
42.3286
42.7174
52.3711
58.2841
50.3774
87.214
65.5471
45.0728
42.6543
70.3218
149.658
42.3338
41.8406
44.3365
44.4335
83.9375
103.367
43.5908
42.8618
45.9263
45.548
51.7229
42.2959
42.8379
44.2933
41.9752
550.293
143.026
165.21
44.3437
44.1334
57.786
50.7002
42.5348
79.5959
92.0382
46.8635
44.6796
46.3052
58.5945
47.0546
46.3095
54.4797
108.69
49.4787
48.7866
42.5022
43.4093
42.1509
49.4565
70.6222
99.6719
207
45.4528
55.5937
99.8771
99.8412
47.5148
41.7623
41.1042
109.884
44.6195
50.379
42.221
41.7219
48.8673
70.6883
56.0477
43.9814
44.8018
45.1507
56.5932
44.1033
44.9561
42.1422
43.969
56.7747
57.6319
87.5365
95.7896
54.0516
53.4622
50.0088
42.0017
64.9748
49.2802
49.9161
65.963
67.7142
55.7252
87.1554
43.912
132.798
60.1072
82.3304
87.4852
73.8395
150.003
103.043
102.016
56.0455
41.2127
97.0326
82.8524
43.534
96.9589
46.8191
81.9592
45.643
68.2908
53.159
116.401
85.6887
96.688
95.9888
132.067
52.3581
53.9221
109.617
80.0449
147.144
47.1399
59.9803
114.171
82.9677
114.489
61.7832
42.3825
42.4587
49.3697
112.172
43.6471
48.8241
43.6175
50.5501
44.4295
48.8682
60.3439
47.456
109.169
43.4812
41.3204
42.7257
132.992
49.6028
50.9294
43.292
198.238
49.2613
48.903
44.6632
48.8947
48.7522
186.091
107.384
958.196
46.2742
45.8553
49.2275
52.2906
50.0135
47.9974
41.9637
41.8781
41.656
108.381
41.3857
52.6944
49.0954
44.3148
49.374
54.7273
47.2584
47.4528
48.2564
49.2366
49.189
85.0134
134.127
67.2832
82.6094
47.1328
58.4257
49.9807
48.0576
49.5107
76.1445
123.975
59.311
121.689
85.5876
108.492
49.019
48.1185
83.6247
46.4075
45.257
42.1478
42.0705
42.8437
42.7827
43.0274
47.5755
41.8612
66.8515
46.0762
62.4375
92.4388
43.8331
50.5173
92.0616
71.4658
75.2749
44.9252
67.1069
49.083
46.5463
47.8741
76.0158
76.6272
49.1667
94.254
100.177
121.971
66.2541
68.4121
51.2422
60.8426
45.8322
48.1323
60.6031
74.7747
42.7737
43.2006
60.0631
141.004
101.951
105.658
62.1493
45.9118
104.345
44.7276
93.9907
41.9448
64.7995
48.9484
43.9933
44.176
43.6075
45.4304
45.9228
45.1195
46.4319
44.2712
46.3475
122.266
44.1207
42.9967
52.6178
43.924
44.2385
47.0356
60.576
43.5978
47.816
49.2
47.3297
48.4945
67.355
46.6646
43.4452
44.148
45.1996
92.2377
59.6462
69.2823
66.4907
59.334
60.9603
56.0659
40.956
42.057
62.4853
97.086
77.4086
59.2586
49.8782
47.5317
49.1928
45.654
44.2252
45.1675
43.8829