/*--------------------------------*- C++ -*----------------------------------*\
| =========                 |                                                 |
| \\      /  F ield         | OpenFOAM: The Open Source CFD Toolbox           |
|  \\    /   O peration     | Version:  2506                                  |
|   \\  /    A nd           | Website:  www.openfoam.com                      |
|    \\/     M anipulation  |                                                 |
\*---------------------------------------------------------------------------*/
FoamFile
{
    version     2.0;
    format      ascii;
    arch        "LSB;label=32;scalar=64";
    class       surfaceScalarField;
    location    "0.0948794";
    object      phi;
}
// * * * * * * * * * * * * * * * * * * * * * * * * * * * * * * * * * * * * * //

dimensions      [0 3 -1 0 0 0 0];

oriented        oriented;

internalField   nonuniform List<scalar> 
7391
(
0.0480777
-0.0386434
0.032458
-0.0418923
0.0385977
0.0243189
0.0243103
-0.0872269
-0.0406857
0.00833177
0.0369452
-0.00459127
0.0906722
-0.0892149
0.0220068
-0.0234641
0.0124735
-0.0172702
0.00137791
0.00341879
-0.0362497
0.106872
0.0618362
-0.132458
-0.0846935
0.107527
0.00896908
-0.0318027
-0.0441144
0.0100961
0.00240984
0.0316084
-0.0504177
-0.0411728
0.0654829
0.0261076
-0.0331899
0.0406811
-0.0136999
0.00620873
0.0268843
-0.0503976
0.0235133
0.0901228
-0.0254237
-0.0128097
-0.0518895
0.0752676
-0.00771769
-0.0187366
-0.0488132
0.0679094
0.00506344
-0.0172014
-0.0557715
-0.0409689
-0.0528813
-0.0547718
0.148622
0.00424174
-0.0278526
0.0191076
0.02523
-0.00973276
0.0365654
0.0225935
-0.0230847
-0.0622557
0.0627469
0.0430078
0.0585939
0.0185156
-0.120117
0.0381264
0.0123132
-0.00128948
-0.0491501
-0.0824307
-0.000810841
0.0832415
0.00106687
-0.0978436
0.163124
-0.0663472
0.0899272
-0.149294
0.030357
0.0290101
-0.087217
0.142862
-0.10422
0.0485753
0.0871099
0.113393
-0.079983
-0.12052
-0.0936089
-0.0284601
0.110593
0.0114758
-0.0576457
0.0604563
-0.00281061
0.0183405
-0.0472367
-0.0557974
-0.0513002
0.0415507
0.0983363
-0.0885868
0.0647087
-0.0388776
0.0266255
-0.0524566
-0.0840042
0.0925689
-0.101283
0.0927181
0.00163871
-0.0346741
-0.0101406
0.043176
0.0461409
-0.0698518
-0.0618651
0.085576
0.0740262
-0.0647103
0.0293642
-0.0386801
-0.0416154
0.0543455
-0.0110914
0.0976984
-0.0482768
-0.0494216
0.0473397
-0.0157943
-0.00524905
-0.0262964
-0.0526901
0.0429633
-0.00843757
0.0181644
-0.0323859
0.113778
-0.0477401
-0.0336525
0.0397234
0.0299328
0.0386249
-0.108281
0.104768
-0.249116
0.109571
0.0347767
-0.035358
-0.0257996
-0.0197653
0.080923
0.0553731
-0.0284452
-0.0508468
0.0239189
0.0517902
-0.0600551
0.0636379
-0.0631127
0.0464928
0.01662
-0.059556
-0.0170383
0.0109784
0.0656159
-0.0713314
0.149755
-0.0659892
-0.0124343
0.0360494
0.0377804
-0.0738298
0.0861904
-0.0486827
0.0595925
0.035824
0.0113086
-0.00532501
-0.0418075
-0.0390247
0.0358951
0.0136753
-0.0105457
0.0325689
-0.0251267
0.00134386
-0.00878606
0.0762941
-0.0752766
-0.0243121
0.0232946
0.0733993
-0.0416415
0.0188073
-0.0505651
0.0495335
-0.0989863
0.0579339
-0.00848115
-0.0234251
0.0477888
-0.0133069
-0.0110568
-0.00559123
-0.12287
0.175901
-0.0474396
0.0100588
0.00977596
-0.0633694
0.0435347
0.0493815
0.0054271
-0.0447498
0.0126911
0.0660531
-0.0689683
0.00278448
-0.0556733
-0.0104806
-0.0341064
-0.007729
0.0446198
-0.00182285
0.00146127
0.00014821
0.00021337
0.000341916
-0.000393285
-0.00054668
0.000598049
-0.00388885
-0.00736419
0.00912778
0.00212525
0.0549853
0.0439048
-0.0175071
0.096322
-0.0946103
-0.0203686
-0.106561
-0.00941067
-0.0434038
0.159375
-0.00980015
0.00738537
0.136806
-0.134391
0.0669057
0.0193376
-0.00595261
-0.0802907
-0.0567444
0.0282164
0.028528
-0.118223
0.0264979
0.00512371
0.0866011
0.0385883
-0.0435742
-0.0191431
0.0241289
0.0485846
-0.0602608
0.0502646
0.0347171
-0.036038
0.000318505
0.00100238
-0.0339761
-0.00863264
0.0068616
0.0357471
0.0105148
-0.102419
0.0483299
-0.0876982
0.0933039
0.0360682
-0.0416739
0.0588064
0.0329505
-0.0829804
-0.00877655
-0.046311
0.142088
0.00423393
-0.100011
-0.0435013
0.0315334
0.103409
-0.091441
-0.0499883
-0.0264425
0.0528774
0.0235535
-0.098856
0.0983658
-5.02676e-05
-0.0107504
-0.0017872
0.0125879
-0.00850453
-0.000742794
0.00502865
0.00421868
0.0268861
0.00996048
-0.0368466
0.00128623
-0.000905741
-0.00888502
0.0728487
-0.0441362
-0.0511907
0.0224781
0.00173578
-0.0251091
-0.020741
0.0693856
0.0430344
-0.0395712
-0.00800414
0.0092401
-0.045017
0.0364879
0.0218848
-0.0133557
-0.047776
0.0296433
-0.00216216
0.161167
-0.161082
0.00207758
0.107659
0.0159359
-0.0160677
-0.00952021
-0.00546908
0.00467779
-0.0060021
0.000523557
-0.00905943
-0.0943194
0.106853
-0.0228103
0.0102766
-0.0133726
-0.00214973
-0.014784
-0.000102053
0.00250994
0.0650891
-0.0459272
0.0120504
-0.0312123
0.0367746
0.0562727
-0.0279582
-0.0272772
0.0548041
0.0281922
-0.0557191
0.0277534
-0.0550306
-0.00107002
0.000739613
-0.0328595
0.0124709
-0.0100476
0.0792196
0.069642
-0.0541002
0.0976675
-0.113209
-0.0235274
0.113234
-0.0529325
-0.041847
0.0448965
0.0517545
-0.0391644
0.0366713
0.00249301
0.0397038
-0.0779415
0.0724148
-0.0341771
-0.0574117
0.0518781
0.0855315
-0.0799979
0.00421926
-0.000363113
0.00215334
-0.00600949
-0.0029578
0.000540108
0.0389711
-0.109392
0.104743
-0.0343225
-0.00363333
0.00174743
-0.00507265
0.00436989
-0.00732379
0.00259079
-0.0208284
-0.0094047
0.117614
-0.0873812
-0.0258019
0.0591832
0.040645
-0.0721675
0.0280313
-0.123314
0.0476049
0.0757092
-0.0429202
-0.0325216
0.0276658
0.0488476
0.156562
-0.226551
0.0211411
-0.0916405
0.0649476
0.0265239
0.000168917
-0.0134406
-0.00372204
-0.000715293
0.0170917
0.111427
-0.0477794
-0.0807388
-0.15717
0.0860105
0.077211
-0.0060516
-0.0380089
0.0411842
0.00779815
-0.0109735
-0.042212
-0.0417922
0.0472854
0.0142303
0.00252222
-0.0640379
0.0285702
-0.034443
-0.0517729
-0.0271125
0.0548658
0.00353134
-0.0107819
0.0659018
-0.0586513
-0.0333999
-0.0301153
0.0635152
0.0311226
-0.0645224
0.0484764
-0.00414456
-0.0443319
0.0380449
0.0357472
-0.126568
0.0527763
-0.0979025
0.0599818
0.0759657
0.0329845
-0.0997644
-0.0469306
0.10788
-0.0370649
-0.0238843
-0.0305203
0.0435716
-0.0540479
0.108965
-0.0549172
0.00228202
-0.0438105
0.00858472
0.0329437
0.0781847
-0.0307718
0.0342041
0.0746267
0.0407455
-0.0370564
-0.0783157
0.0315147
-0.0327963
0.00128155
0.0146443
0.206794
-0.158934
-0.062504
0.0059577
-0.00331479
-0.0213047
0.017973
-0.143339
-0.0230053
0.148371
-0.00401275
-0.0121594
-0.0268864
0.0430586
-0.0081305
0.0318627
-0.0304591
0.0347346
-0.0328718
0.0286914
-0.0305542
0.000131632
-7.1086e-05
0.0412219
0.0168062
-0.0908999
-0.0414838
-0.000261894
0.00701421
0.0351491
-0.0320672
0.0338355
-0.0244321
-0.0238942
0.0144909
0.123415
0.0591178
-0.0924102
-0.0569973
0.0285522
-0.0385346
0.0269044
-0.0392166
-0.037244
-0.0132896
0.0431479
0.00738569
0.0314887
-0.0197062
0.0807174
-0.0924998
0.0415108
0.0336598
-0.0751706
0.0729994
-0.00317351
-0.00593225
-0.00085568
0.00702775
-0.0121606
0.0244991
-0.0193662
0.0351529
0.0390464
-0.0216949
-0.0525044
3.3771e-05
-0.0104988
0.00862267
0.00184239
-0.0448951
0.00146098
0.0122483
0.0311858
-0.0325632
-0.0131051
-0.00518427
-0.0524323
0.00126667
0.109571
-0.0584057
-0.0661853
0.0663047
-0.000119423
-0.0114636
0.0664607
-0.0324036
-0.0385822
-0.0405182
0.0467494
0.032351
0.074062
-0.0326296
-0.0354368
-0.00599561
0.0885935
0.0169926
-0.162998
0.0772766
-0.027675
0.0711412
-0.120743
-0.00187137
0.00138834
-0.0346538
-0.0677137
0.0118494
0.0626751
-0.00681075
-0.0560237
0.00280574
0.0532179
-0.0141709
0.00911816
-0.00545916
0.0105119
0.0437921
-0.0988309
-0.0122871
0.067326
-0.00403904
-0.00342337
-0.00135221
0.0231103
0.0341124
0.00879149
-0.0660142
-0.0558948
-4.33653e-05
0.000264853
0.00563167
0.00605942
-0.0185614
0.00687035
-0.00460888
-0.0281756
0.0621038
-0.117417
-0.0390061
0.0207997
-0.0197463
0.0372014
-0.0382547
-0.000439657
0.0367402
0.00422515
-0.0405257
0.0103243
-0.000687826
-0.00733651
-0.0023
-0.0217069
0.0546241
-0.0375261
0.0341497
-3.73237e-05
0.0214454
0.0998148
-0.11778
-0.000594112
0.000997167
-0.000668758
0.000265703
0.00351226
-0.00167369
-0.0147229
0.0128843
0.00643353
-0.000530622
0.0077754
-0.0136783
0.00933866
-0.0169425
0.0193695
-0.0117657
0.0753856
-0.000118023
-0.0187124
0.0501575
0.0177046
-0.0491496
-0.0306052
-0.0157144
0.0463195
-0.0475089
0.0319507
-0.0168277
-0.0493176
0.084047
-0.0350295
-0.0409858
0.102651
0.0335136
-0.106404
0.00607084
0.0014017
-0.00389634
-0.0035762
-0.00118838
0.0056414
0.142344
0.00335343
-0.00443038
0.00164356
-0.000566604
-0.000260162
0.00387272
0.0357932
0.0282757
-0.0104003
-0.0536686
-0.000833518
-0.0365149
0.0611346
-0.0237863
-0.00132963
-0.0034071
0.0030468
-0.00182289
0.00416305
-0.00260033
-0.0358532
-0.037243
0.0730962
0.0409714
0.0413083
-0.0822797
-0.0269426
0.119705
-0.0438847
0.0172854
0.00181996
-0.019545
-0.0230089
-0.00122953
-0.00183618
0.0260746
-0.0862442
0.0747771
-0.0598642
-0.00443314
0.00387909
-0.00316695
0.00372101
0.0343059
-0.0736622
0.0393563
-0.0966139
0.0257738
0.0314543
0.0393857
-0.0177007
-0.024502
-0.0373675
0.0795702
0.00163975
-0.0102873
0.00498252
0.00366504
0.0404169
0.0412092
-0.0816261
-0.130927
-0.0173077
0.136635
0.0115995
0.0515677
0.0155158
-0.000232142
-0.0668513
0.05145
0.000117767
0.0614625
-0.0434238
-0.00252291
0.0422671
-0.132162
0.0766509
0.013244
0.0566848
-0.0847351
0.0647808
-0.0367304
2.09923e-05
0.0268651
-0.0524967
0.0525235
-2.67999e-05
0.0777496
0.0113115
-0.0196755
-0.128271
0.11803
-0.0649195
0.0751605
-0.0274304
0.0195645
-0.0359513
0.0438172
-0.0103306
-0.00615548
0.0100594
0.00642661
-0.00605213
0.0269699
-0.0443429
-0.00731587
0.00532396
0.0383704
-0.0363785
-0.0476694
-6.15854e-06
0.0476756
-0.00722901
0.010016
-0.000284314
-0.00250263
0.0252825
0.0303783
-0.0556609
0.024346
-0.0549258
0.0670677
0.0664956
-0.0535443
0.0523132
-0.0652646
0.129813
-0.00198878
0.0127205
0.00759925
-0.018331
0.0249117
-0.0429891
-0.112903
0.0402279
0.115664
0.0416761
-0.0846651
-0.0815576
0.0846051
-0.0284711
0.0207883
-0.0699628
0.0491745
0.0694301
-0.0514572
-0.00904246
0.00467542
0.0324261
-0.0280591
-0.0762951
-0.0262503
0.0148173
0.087728
0.0360702
-0.0348357
0.0199413
-0.0211757
0.043278
-0.0381121
-0.137496
0.13233
0.0412201
-0.109103
0.111022
-0.0431391
-0.0610468
0.0352258
0.0430159
-0.0171949
-0.0585398
0.0385232
-0.047988
0.0680045
0.0325546
-0.052101
0.0195464
-0.0255695
-0.000801836
0.00113567
-0.00479993
0.00245615
-0.00217948
0.00452326
-0.0664652
0.0663496
0.000115625
-0.0591252
-0.00380865
0.014852
0.0485189
-0.0636031
-0.034706
0.0676905
-0.0685404
0.0338343
-0.0309784
8.45322e-05
-0.00325777
0.0341516
-0.0605681
0.0660231
-0.00642503
0.00097009
-0.0181827
-9.62389e-05
-0.0288847
0.0471636
-0.0605031
-6.49914e-05
-0.000162242
-0.0750049
0.0372658
0.00872212
0.0290169
-0.0250977
0.00046411
-0.0970526
0.0899453
-0.0993893
0.106497
0.0381069
0.0172962
0.0136529
-0.069056
0.00366895
-0.0253278
0.03435
-0.0607718
0.0629799
0.0358987
-0.0288698
-0.0236153
0.045201
0.00728413
-0.0278378
-0.0156526
0.0146205
9.95762e-05
0.000165387
-0.0610367
0.0494811
-0.0251508
0.0342468
-0.000201183
-0.0251266
0.0344249
-0.0675704
0.0331455
0.0679385
0.0286447
-0.0415601
-0.0265456
0.0346072
-0.0241588
0.0160972
0.0158246
-0.0632654
0.0207138
0.0267269
0.113204
0.00723921
0.044785
-0.165228
0.115958
-0.0694371
-0.060911
0.0143897
0.07247
-0.0750016
0.0358432
-0.0333116
0.00133007
-0.00107206
0.000517632
-0.000775639
-0.00205035
0.00356393
-0.00100478
-0.0005088
-0.0217695
-0.0156607
0.0360124
0.00141768
-0.044854
0.0184115
0.0271494
-0.0468556
-0.00434377
-0.00243124
0.00619893
0.000576082
0.00155248
0.00105176
0.00129673
-0.00390097
-0.0885233
0.148265
-0.0164639
-0.0497311
0.0498509
0.0182917
-0.107763
0.138749
-0.0890867
0.0371757
-0.0405889
-0.00106816
0.0425461
-0.00583036
-0.0356476
0.00527815
-0.0109619
-0.0110325
0.0167162
0.00211005
-0.00201654
0.000500935
-0.000320977
-0.0335972
0.0339903
-0.111749
0.111356
-0.0675782
0.033981
0.0017153
-0.00400746
-0.00598191
0.00827408
0.0526945
-0.0521968
0.000562334
-0.00106004
0.0131871
-0.0224038
-0.021118
0.0303348
0.0337895
-0.0360329
-0.0293176
0.031561
-0.00758467
0.000642516
-0.0349068
0.151721
-0.147885
-0.0501466
-0.0802198
0.00353296
0.0159744
0.0607125
0.00131867
-0.00192352
-0.00975758
0.0103624
0.0469813
-0.0615473
-0.0245984
0.00394274
-0.00994577
0.00161829
0.00438473
-0.0304633
0.083827
-0.0741921
-0.0522604
-0.00562789
0.0578883
0.0326624
-0.0354787
0.00281624
-0.10345
0.0335297
0.0271801
-0.0200527
0.00420867
-0.0113361
-0.0137928
-0.0299204
-0.028937
0.0726502
-0.00824969
0.00204072
0.00480419
-0.00753048
0.0933397
-0.0894925
0.00368324
-0.00472051
0.00691034
-0.00786589
0.00567606
0.00234578
-0.0182784
-0.0517811
0.0393809
-0.0120486
-0.0407772
0.0134449
0.251103
-0.128009
-0.053452
0.0358338
0.0306809
-0.0665146
-0.061529
0.0319333
0.0654295
-0.00115206
-0.00236969
0.00138546
0.0539112
-0.022288
-0.0364168
0.00479369
0.0545689
-0.0362588
0.0046954
-0.0230055
0.0211678
0.0266858
-0.00141951
-0.0464341
0.0023867
0.00821999
-0.00679847
-0.00380822
-0.0068576
-0.00223113
0.00801779
0.00107094
-0.00272608
0.00033868
0.00196387
0.000423527
-0.0151744
-0.0299007
0.00057565
-0.00114417
0.0304693
-0.0139524
-0.000292611
-0.00262912
0.0365943
0.0228886
-0.0268205
0.0285554
-0.0210184
-0.0356558
0.0281188
0.00353529
0.000169899
0.0248502
-0.036515
0.0187475
-0.0100703
3.28158e-05
0.0196901
0.0170174
0.081637
-0.016972
0.0380253
-0.0325294
0.0114762
-0.0609845
0.0187108
0.0486725
-0.00639873
-0.000255666
-0.00172593
-0.000286096
0.0022677
0.0395386
0.0174887
0.0663878
-0.0491662
0.0113463
0.0531413
-0.0153213
0.0241911
-0.0590596
0.0348686
0.130315
0.0690819
-0.150549
-0.00123889
0.00191841
-0.00171523
0.00103571
0.00188973
-0.00111841
-0.00504162
0.0279267
-0.0299955
0.0745388
0.0668004
0.00390583
-0.055893
-0.0148133
-0.0167485
-0.0691609
0.0677267
-0.0350126
-0.145602
0.113332
0.0672828
0.0425957
0.0512224
0.0359945
-0.0385625
-0.031268
0.0365352
0.0332952
-0.0204339
0.0223405
-0.0247926
0.022886
0.0546861
-0.000340615
-0.0048037
-0.0073242
0.00590379
0.00622411
0.0417515
-0.114969
0.0662386
0.00697852
-0.0214417
0.00855219
-0.00616227
0.0190518
-0.0549348
0.00582445
0.0499969
-0.00088655
-0.0946759
0.0485537
-0.00614754
0.0522697
-0.0382153
0.0451773
-0.0145089
0.00754685
0.023
0.0488887
-0.0302946
-0.0415941
0.0344029
-0.0645183
0.102248
-0.107847
0.0400024
0.110748
-0.0513404
0.0428403
0.0278694
0.0120874
-0.0903839
0.0504271
-0.0109955
-0.0326864
0.0527446
-0.00906268
0.0135526
-0.0406385
0.0540572
-0.0492281
4.00574e-05
-0.0327265
0.0211103
-0.0652073
0.0719664
0.0587021
-0.0587846
8.25203e-05
0.0672882
-0.0741256
0.0415742
-0.0347368
0.0309182
0.00588472
-0.0287574
-0.00804556
-0.0477002
-0.0298403
0.0393033
0.0382372
0.0347251
-0.0872217
0.00603999
-0.0657259
0.0596859
-0.000579635
0.0254054
3.30563e-05
-0.0248588
-0.0588297
0.0287457
0.104711
0.00773175
-0.00629866
-0.00577686
0.00864018
0.0132683
-0.0344313
0.0125228
-0.072986
0.0945303
-0.0137361
-0.0514236
0.0693679
-0.0771235
-0.0256505
0.0633436
0.0189338
-0.0566269
-0.0593476
0.0336971
0.0467933
0.0643391
-0.074039
0.0444071
0.0583562
-0.0287243
0.0354093
0.00492404
0.004989
-0.0453224
0.00184086
-0.00452988
0.000827299
-0.0709621
-0.0261035
0.0282754
-0.00902141
0.00183659
0.00126214
0.00592268
-0.0351497
0.0096012
-0.0354983
0.000466488
0.00472896
-0.00122955
-0.00396589
0.00234844
0.00504592
-0.00768037
0.000286009
0.000384665
-0.000501468
-0.000477309
-0.0811443
0.0383901
-0.0329688
0.075723
-0.00222105
-0.000818381
0.00353173
-0.0004923
0.0106992
-0.0156568
0.00328594
0.00167167
-0.00505235
0.0135298
0.00348586
-0.0119633
0.00364014
0.0178703
-0.0365025
-0.00099784
0.00143902
-0.0395633
0.0798729
-0.0403097
-0.0797984
0.0402352
0.000881124
0.000116044
0.0410751
0.00482194
-0.0194418
-0.0264552
0.00786932
0.0176069
-0.108634
0.0831583
0.0196419
-0.018003
0.0050862
-0.00672503
-0.00147694
-0.000411126
0.0013872
0.000500871
0.00901526
-8.69204e-05
-0.00423622
-0.00469212
0.00845565
0.00260986
-0.0130704
0.00200484
0.0314555
0.00901371
-0.00439901
-0.00438472
-0.0329939
-0.00243369
0.0437344
-0.0528896
0.0484436
-0.0392885
0.0414185
0.0173619
-0.00872309
-0.0500573
-0.000778288
-0.000961204
-0.00256673
0.00430622
-0.00944662
0.0133975
-0.00416837
0.000217459
0.0326632
-0.000259679
-0.0828212
-0.0793509
0.0381781
-0.00209711
0.0127245
-0.00824913
-0.00237826
-0.0691431
-0.0131388
0.0557417
0.0265403
0.0165922
-0.00728622
-0.0131735
0.00386752
0.00219689
-0.00120151
-0.00574589
0.0047505
-4.92677e-05
-0.010326
0.00802744
0.00234778
0.0698504
-0.0262022
0.0010746
0.0099783
0.00203819
0.0279081
-0.0399245
0.120312
-0.0692152
0.0234551
0.0367385
-0.12527
0.0650766
-0.0428183
0.0211234
-0.0598755
0.0395451
-0.00587177
0.0139323
-0.0180691
0.0373681
-0.00560159
-0.0487385
-0.011291
0.000368585
0.0544713
-0.0435489
0.03885
-0.0339851
-0.00593306
0.00222121
-0.00889336
0.00513631
-0.0670982
0.0358831
-0.0437899
0.0542514
-0.0542304
0.0639271
0.0228931
-0.0283992
0.00172821
-0.0216614
0.0111928
-0.0313682
0.0315409
-0.0113655
0.0327359
-0.0390256
0.00442536
0.00855764
-0.0550161
-0.0627845
0.109243
0.0478072
-0.0238883
0.108155
0.0241125
-0.0480007
0.0424957
-0.0691802
0.0560287
-0.0159453
0.0290969
-0.0696436
0.000463362
0.0359662
-0.0306423
0.00739046
-0.0562543
0.0962917
-0.0474279
0.0706145
-0.0272578
0.00970666
-0.0403489
0.0181611
0.0335928
-0.0493071
0.023746
-0.0349541
-0.00701518
0.0182233
0.0518017
0.0497005
0.0250747
0.0691992
-0.0520068
-0.0517457
0.0516075
0.000138155
-0.00029573
0.0689646
0.0199235
-0.0457254
0.0121411
-0.0657027
0.0535616
0.0119782
0.12494
-0.0777353
-0.0120838
-0.0282839
-0.0206168
-0.0394774
-0.00585449
0.00769187
0.00532841
-0.00571747
-0.0448352
0.109127
-0.0207344
0.0370681
0.0210344
-0.00617829
0.0434636
0.00378984
-0.0567791
0.00107072
0.0170028
-0.0204745
-0.0161159
0.0195876
-0.0947583
-0.00333991
0.0319646
0.0661336
0.109769
-0.0416226
-0.0868302
0.0186838
0.063476
0.0199974
-0.0920064
0.00853292
-0.139922
0.0152099
0.0463362
0.0783757
0.0299346
-0.00548107
-0.0252065
0.000752961
-0.00232717
0.0325391
-0.0286632
-0.00154879
0.0453854
0.0350614
-0.0864224
0.00597559
0.0351572
-0.0351062
-0.0936599
0.0345191
-0.0140299
-0.0967844
-0.0939102
0.0719618
-0.0251317
0.0470801
0.0124193
0.00340671
0.0466805
-0.0625065
0.0556738
-0.017935
0.0649394
-0.100962
-0.0419564
0.0779793
0.0337589
0.0987363
-0.0392636
-0.0584058
0.0204843
0.0732755
-0.135645
0.041885
-0.0875801
0.0655469
0.101906
0.0806589
0.0180774
-0.0385969
-0.00209676
0.060439
-0.000710377
-0.0597286
-0.000423101
0.117186
-0.00456137
0.0459456
-0.15857
-0.0131696
0.0509982
0.0160826
0.0266872
0.0450127
-0.0596125
-0.0154678
-0.0164019
-0.0137256
-0.00991632
0.0400439
0.00030326
0.0780313
-0.0783345
-0.0121692
0.035492
-0.0397247
-0.0324952
-0.0229668
0.0349848
0.0204772
-0.0492951
0.000432101
-0.0405382
-0.0392602
0.00542414
0.00185884
0.0065385
-0.0138215
0.000849543
0.0519652
0.018255
-0.012019
-0.0312789
-0.0109549
0.00934936
0.000699783
-0.0115578
0.0178752
0.0645363
-0.0444741
-0.0315258
0.0112531
0.0258209
-0.00169733
-0.0353767
0.0041748
-0.00343824
0.00264252
0.0154712
0.0502073
-0.0683211
0.0640772
-0.0639204
-0.000156838
-0.0255453
0.00431452
0.0132818
0.00794899
-0.00252251
-0.0033541
0.027934
-0.0220574
-0.0303393
-0.0136077
-0.00444291
-0.00101213
-0.0101163
0.00842923
0.00269915
-0.0135627
-0.0359114
0.000179077
-0.00620033
-0.0602635
0.0529011
0.155335
-0.0416
-0.0305454
-0.0831896
-0.0577151
-0.0750646
0.0106984
0.122081
-0.0542153
0.0922825
-0.121837
0.0837693
-0.085002
0.00257133
0.00048121
-0.00152674
1.46835e-05
0.000121455
-0.0139372
-0.00193859
0.00685832
0.00901748
0.00958816
-0.00778892
-0.00389635
-0.00450428
0.00861182
-0.00856767
0.00446013
0.0388585
-0.0805356
0.0292539
-0.0155846
0.0277918
-0.041461
0.0224781
-0.00997109
-0.0827526
0.114102
-0.0299793
-0.00137
0.0402325
0.0151573
-0.0553898
0.000957091
0.0394167
-0.0403738
0.00838367
0.0259165
-0.0249577
-0.00934243
0.0043133
-0.0354899
0.00278109
-0.0505692
0.0635145
0.0299271
-0.0428724
-0.0382152
0.0237346
-0.0430757
0.0575562
-0.00160169
-0.0115593
0.0178201
-0.00465915
0.00820468
-0.033378
0.00216449
-0.0106544
-0.0533837
-0.0340369
0.0329669
-0.054915
0.0518805
0.0243575
-0.0213231
-0.000916741
0.0042497
0.0062552
-0.0382178
0.00797738
-0.0115367
0.0417771
-0.0302768
0.0490816
0.022612
-0.0414168
0.000653144
0.00765146
0.0023946
0.000163115
-0.00924439
0.00944135
-0.000360077
0.040793
0.00298796
-0.0676481
0.0238671
-0.0209398
0.0998917
-0.114102
0.0541219
-0.0328176
-0.0221378
-0.00684725
-0.00124031
0.0104743
0.00278082
-0.0091802
0.00874782
0.000729828
0.000769605
-0.00287069
0.00137126
0.0372724
0.0262811
-0.0260257
-0.0375278
0.0334539
-0.00639835
0.0136256
-0.0139728
0.00235468
-0.0143984
-0.0470323
0.0215995
0.0254655
0.00476237
0.0375267
0.00373048
-0.0460196
-0.00767551
0.00363285
-0.00222717
-0.0257854
-0.0303234
-0.0269581
0.083067
0.0289189
-0.0358181
-0.0397458
0.00711768
-0.0392136
-0.0157641
0.0478601
0.00548995
-0.00599351
6.69629e-05
0.00043659
0.000203723
0.00430742
-0.0115978
0.0201719
-0.00689092
-0.0148827
0.0173418
-0.000968224
-0.0646922
0.0483187
-0.0053324
-0.00137214
-0.0205107
0.0272153
0.0281662
0.0136519
-0.051299
0.0102192
0.021784
-0.0228708
-0.00913235
-0.105404
0.0868808
0.135708
-0.00279044
0.00865315
-0.00990175
-0.0102126
0.0151501
0.043647
2.43402e-05
-0.000693098
-0.000228243
-0.000959971
0.00145392
0.0363427
-0.0387325
0.00238978
0.0515296
-0.0508984
0.0749743
-0.0689165
-0.0299395
0.144007
-0.0668305
-0.0617702
-0.0154066
0.0817715
-0.0408001
-0.114148
-0.0333607
0.0334748
0.076141
0.0291132
-0.0202011
-0.0850532
-0.00550249
0.148873
0.00835007
-0.154254
0.0417399
0.0582989
-0.0304287
0.0569877
-0.0486355
0.0220765
-0.033128
0.0308994
-0.00974997
0.0126401
0.000194086
-0.0899913
0.0467969
0.0430003
-0.0178062
0.00864354
0.0178028
0.0481
-0.00481452
0.0341583
0.0519153
-0.0860736
0.0496134
-0.0253189
-0.0242945
-0.0189922
0.0556027
0.018769
0.00594925
-0.000294738
-0.0244235
-0.106817
0.0430453
0.125875
-0.0120538
0.0315036
-0.0311704
0.0392055
0.0472547
-0.0379121
0.0510586
-0.0604013
-0.0835713
-0.044701
0.0814501
0.0468222
0.0126201
0.0346346
0.0624209
-0.0502798
0.00116227
-0.00925374
0.04951
7.87794e-05
-0.0553222
0.000328394
-0.0570857
-0.0357214
-0.0505315
0.0153196
-0.0134395
-0.0295967
-0.0322585
0.0375729
-0.00428842
-0.00952777
-0.000121011
-0.0890663
-0.0195224
0.00272535
0.105863
-0.000812001
0.0398774
-0.078406
0.0385286
-0.0865222
0.0159536
0.0680166
0.00255203
-0.0560529
0.102059
0.0355475
-0.0815532
-0.00841723
-0.0442852
-0.0566895
0.153365
-0.104387
-0.0822875
0.0333095
0.00238455
-0.00269121
0.0819717
-0.129247
-0.0242614
0.118479
0.0177229
-0.0127373
0.153672
-0.0316212
-0.167169
0.0451187
0.00779037
0.0335753
-0.031118
-0.0975482
0.0915932
-0.00881566
0.0147707
0.0326869
0.00670731
0.0135847
-0.0694388
-0.100167
0.146901
-0.0320892
0.00931609
-0.0295623
0.0990298
-0.0787836
0.0162212
0.0381666
-0.150797
0.0964094
-0.0173459
0.124172
-0.0533384
-0.0534872
0.0167638
-0.0347434
0.0758961
-0.0579165
0.0374568
-0.0581912
0.106981
-0.0915269
-0.0885895
0.0731353
0.0515406
-0.104143
0.00591241
-0.032627
-0.0473245
0.049574
-0.0630882
-0.0858792
0.0993934
0.0687404
-0.0386248
0.0371726
-0.0389753
-0.0333054
0.0722807
-0.0398019
0.106318
-0.0257701
-0.0170788
0.00524669
0.0222925
-0.0794444
0.0788342
0.0752611
-0.0618128
0.0462085
0.0988455
0.084828
-7.91642e-05
0.0666379
-0.0665587
0.0292513
0.011581
-0.0058903
-0.034942
0.062733
0.0173107
-0.062695
-0.0173488
0.101916
-0.100249
-0.0288339
0.0271668
-0.0107112
-0.0201535
0.0751299
-0.0442651
0.0711119
-0.0843685
0.080057
0.0615231
-0.0228204
-0.00763494
-0.0310677
-0.00184466
-0.0321923
0.00140256
-0.0025623
-0.0370581
-0.121529
-0.00380929
0.0954524
-0.0611997
-0.0304434
0.0292836
0.00935281
-0.00712169
-0.105131
-0.0390792
0.0785078
0.048547
-0.00341002
-0.0080457
0.00208713
-0.00175764
0.00212278
-0.0279281
-0.0366601
0.0401529
0.0244353
-0.00134029
-0.0609453
-0.0615357
0.122481
-0.0630775
0.109787
-0.0467094
0.00982737
-0.0038351
-0.00427697
-0.00683344
-0.00346091
0.00843847
0.00185588
0.00231927
-0.0159208
0.0104713
0.00313026
-0.0113975
-0.00246658
0.0104863
0.00337779
-0.000541868
0.00969201
-0.00783146
0.00494042
-0.00468506
0.00275677
-0.00301213
-0.0716612
0.0982855
-0.0373355
-0.00655431
-0.00972698
0.00519168
0.00157483
-0.00117339
-0.00604301
0.00380712
0.000711367
-0.00852042
-0.083549
0.0199261
0.0597729
0.0038499
-0.00861528
-0.00136241
-0.064087
-0.067099
0.090217
0.0695644
-0.0793646
-0.0279871
-0.00724607
-0.0501908
0.0931178
-0.042927
0.0442924
-0.112161
0.0708022
-0.00293364
-0.115249
0.112446
-0.0079789
0.000616799
0.0904639
-0.00115347
-0.00267853
0.0319621
-0.0110754
-0.00308386
0.0194374
0.028195
0.00214371
-0.0303388
-0.00438385
0.0303058
-0.025928
6.07113e-06
0.0522532
-0.0831228
0.104329
-0.073459
0.0614869
0.0345906
-0.0415086
-0.0308167
-0.0166618
0.0295256
0.0328619
-0.0623875
0.0556475
-0.0373858
-0.0613762
0.0431145
-0.0310081
-0.0501362
-0.0662966
-0.0592373
0.0244645
0.101069
-0.0325084
0.062034
-0.0212434
0.0207471
-0.0250731
0.0188673
-0.0389489
-0.00116184
0.129736
-0.010667
0.0450527
-0.0889807
0.0844151
-0.00296487
-0.00681687
0.00636905
0.0241938
-3.84005e-05
0.0486751
-0.0486367
0.132229
0.0540677
-0.10902
0.070191
-0.0373292
-0.0589095
0.00423058
-0.0410615
-0.0412181
-0.012556
-0.0501624
0.0627183
0.0505583
-0.0632445
-0.075012
0.0532562
-0.0658122
-0.0155242
0.0341673
-0.0529968
0.0343538
0.00920418
-0.00503638
-0.0229707
0.0188029
0.0356311
0.0330691
-0.0685062
0.0877433
-0.00508119
-0.118111
0.0354485
0.0214125
0.0487785
0.0748258
-0.0174665
0.0146169
-0.0719762
0.0394994
-0.00535925
0.0897964
0.0117685
-0.119031
-0.0260356
0.0221294
0.0227734
-0.0148137
-0.00390242
0.00821303
0.0105031
0.00155289
-0.00824267
-0.00494079
-0.00114559
-0.00333477
0.0217691
-0.0172888
0.0110119
0.00721747
-0.0442649
-0.0245999
0.0491378
0.0189859
-0.0435238
0.00104065
-0.0188918
0.0535082
-0.0356571
0.0377921
-0.0244559
-0.0397221
0.0263859
0.0663282
-0.0455399
-0.000783978
0.00818154
-0.000270738
-0.00712683
-0.000682892
-0.0014553
-0.000587889
-0.0486777
0.00189739
0.0187408
0.0280395
-0.00336737
0.0131541
0.00805013
-0.0178369
0.00144034
0.000298292
-0.00200299
-0.0840123
0.00049714
0.000158592
0.0833566
0.00487289
-0.00800008
0.0515593
-0.0526795
-0.065316
0.00246051
0.0556009
0.00725466
0.0015875
0.0171253
-0.0702352
0.0515224
-0.0749596
0.0205234
0.00225291
-0.00216989
0.000936345
-0.00106447
-0.00159781
0.00237649
-0.00151806
7.79151e-05
-0.0053952
0.0187972
-0.0111096
0.0214871
-0.0291747
0.0357291
-0.0151961
0.0129152
0.0134327
-0.0374575
0.0736099
-0.0049668
0.00429134
-0.0729345
-0.0499569
0.0636708
-0.0354332
0.0471946
-0.0471195
0.0568719
-0.0168658
-0.096059
0.0709428
-0.00240653
0.0123987
0.0608215
0.0342069
-0.00331893
0.0682327
0.0488647
-0.0464821
0.0345229
0.0119592
-0.0624048
-0.0627886
0.0317547
0.0550449
0.015259
-0.0549301
0.106113
-0.0666512
-0.118631
0.067331
-0.0347235
0.0255205
0.0450269
-0.00308828
0.139161
-0.0413561
-0.0947166
0.0239168
0.0178463
-0.0417631
-0.0699794
0.064057
0.092353
-0.0864306
0.055078
0.039343
-0.0930099
-0.001411
-0.0154197
0.0213188
-0.0306097
0.0231062
-0.0138153
0.0608742
-0.0863581
-0.110889
-0.0234968
-0.0227845
0.0538577
-0.0943254
0.0130373
0.01443
0.0809431
0.050303
0.0380847
-0.0334883
-0.0548994
0.0380258
-0.036246
-0.00553582
0.00375598
0.00212947
-0.0589167
0.033824
0.0229633
-0.0113671
0.0118992
-0.00292984
-0.0064744
-0.149757
0.151075
-0.0133901
0.0461417
-0.0944192
0.092257
-0.0130091
0.00450814
0.000667572
0.00783343
0.0283455
0.00535143
0.00969802
-0.043395
0.00191503
0.00344265
0.0512769
-0.0553191
0.12242
-0.118378
-0.0107158
-0.0278998
0.00201467
0.0366009
-0.0170529
0.126679
-0.0628325
0.030565
-0.0414868
0.0612248
0.0016923
0.058764
0.0594313
-0.057739
0.0372642
0.0389733
0.0342472
0.0410249
-0.0165081
0.0432527
-0.0532704
0.000171088
0.00984658
-0.00294747
-0.0230166
0.0342959
0.0451244
-0.0294669
-0.00513285
0.0300013
0.00438545
-0.0424554
-0.00274969
0.0137813
-0.00092951
-0.0406412
-0.000884762
-0.0389638
-0.00507835
0.00893508
-0.0393604
0.00224228
-0.00184573
-0.00107249
0.00124319
-0.0354491
-0.0864262
0.0082557
-0.0501007
-0.0774752
0.026018
-8.97699e-05
0.00202775
-0.00488196
-0.00382673
0.000633399
-0.00415558
0.00148329
-0.00224154
0.0035586
-0.00164934
0.000332277
-0.0166724
-0.00331397
0.0160903
0.00389602
0.00396222
0.00213973
-0.00535017
-0.000751775
0.0101605
-0.00459308
-0.0336853
-0.0592698
0.0726761
0.0757695
-0.0607022
0.0538866
-0.024607
-0.0292796
0.00169385
-0.00124102
-0.00460841
-0.00103502
0.0456115
-0.0390664
-0.00551006
-0.0110379
0.0186669
-0.0950712
0.0874422
-0.00361837
-0.0201075
0.0226908
0.0340338
-0.0541305
0.0263305
-0.00657606
-0.0211266
-0.00213822
0.0540539
-0.0654234
-0.0615751
0.0729447
-0.0193315
0.000873614
-0.00128202
-0.0360396
-0.0609922
0.060517
0.0158054
-0.00279618
0.0451507
-0.00328136
0.0100112
0.0121476
-0.0105066
-0.0209725
-0.00292592
0.0161644
-0.00389985
-0.0224887
-0.0244498
0.0119845
0.00121573
-0.00523531
0.0452038
-0.0231144
-0.0110739
0.00864297
0.000471498
-0.0031003
-0.000318257
0.00294706
-0.00501453
0.0034064
0.00199056
-0.153788
0.0302682
0.0368054
-0.0344441
0.00240108
0.0316871
-0.0559335
-0.0187043
0.0429506
0.0588701
-0.0309434
-0.000156637
-0.103933
0.104089
0.049473
-0.0110907
0.000467724
-0.00308374
0.00227137
-0.00950937
0.0103217
-0.000163776
-0.00204127
-0.0111675
0.00108967
-0.00621045
-0.00134723
-0.00723318
0.00387042
0.00651335
-0.0031506
0.00840006
0.0320069
-0.0406179
0.000210868
-0.0126644
0.0131422
-0.0554126
0.00421713
0.00691643
-0.00291357
0.00539707
-0.000817233
0.00036058
-0.0407221
0.0300895
0.00966438
0.0035631
-0.00255214
0.00403497
-0.00584158
-0.0138586
0.000212051
-0.0440366
0.0165478
-0.0112991
-0.0184049
0.0131562
-0.0131
0.000595022
0.00570651
-0.00161382
-0.00599433
-0.00717584
-0.118391
0.118285
0.000487282