/*--------------------------------*- C++ -*----------------------------------*\
| =========                 |                                                 |
| \\      /  F ield         | OpenFOAM: The Open Source CFD Toolbox           |
|  \\    /   O peration     | Version:  2506                                  |
|   \\  /    A nd           | Website:  www.openfoam.com                      |
|    \\/     M anipulation  |                                                 |
\*---------------------------------------------------------------------------*/
FoamFile
{
    version     2.0;
    format      ascii;
    arch        "LSB;label=32;scalar=64";
    class       volScalarField;
    location    "0.0625936";
    object      k;
}
// * * * * * * * * * * * * * * * * * * * * * * * * * * * * * * * * * * * * * //

dimensions      [0 2 -2 0 0 0 0];

internalField   nonuniform List<scalar> 
3919
(
0.313472
0.319854
0.325736
0.333934
0.31428
0.310995
0.323237
0.315592
0.303228
0.301755
0.299755
0.304519
0.303383
0.301499
0.319564
0.331097
0.302928
0.301699
0.303043
0.311992
0.297654
0.312027
0.306417
0.305595
0.306963
0.328691
0.303842
0.301406
0.336993
0.350294
0.298894
0.302034
0.306269
0.299008
0.305506
0.304459
0.352272
0.303582
0.30682
0.324673
0.333769
0.298773
0.306195
0.317365
0.368035
0.335756
0.366952
0.33704
0.297643
0.303576
0.302897
0.309934
0.306326
0.31227
0.316355
0.304381
0.362954
0.379657
0.305909
0.303509
0.364843
0.316157
0.353478
0.322651
0.303992
0.309669
0.301377
0.328495
0.304833
0.305051
0.301651
0.321956
0.330781
0.344119
0.370407
0.318799
0.29912
0.303186
0.301775
0.305391
0.308495
0.305242
0.300936
0.307286
0.298282
0.305523
0.30518
0.310282
0.338898
0.324797
0.321527
0.367335
0.3613
0.303607
0.323177
0.320432
0.327618
0.309281
0.320231
0.302049
0.30314
0.33085
0.354333
0.304651
0.350257
0.301825
0.334912
0.31945
0.314798
0.308365
0.358331
0.324072
0.319179
0.302285
0.304793
0.301162
0.30568
0.306945
0.313398
0.336374
0.315488
0.312649
0.304181
0.346992
0.300839
0.304089
0.304936
0.311474
0.331232
0.311029
0.302963
0.324789
0.337485
0.304065
0.300575
0.311138
0.334224
0.317071
0.309999
0.337379
0.305167
0.306954
0.318203
0.302869
0.297839
0.306813
0.358511
0.306778
0.29927
0.305005
0.317868
0.303378
0.30155
0.301179
0.302744
0.303014
0.306116
0.315217
0.305056
0.301756
0.299933
0.34144
0.343512
0.302435
0.325819
0.363754
0.375419
0.311613
0.303278
0.306556
0.349392
0.304734
0.30306
0.300264
0.370354
0.307881
0.319301
0.301809
0.34333
0.345419
0.361672
0.34123
0.304277
0.313213
0.352162
0.324282
0.311929
0.298815
0.321484
0.313239
0.309731
0.307539
0.326633
0.297381
0.31614
0.303088
0.319063
0.304995
0.341735
0.326824
0.305171
0.320037
0.306798
0.311227
0.31647
0.305302
0.303517
0.337228
0.309575
0.341647
0.359354
0.30408
0.307023
0.305991
0.327346
0.305044
0.305588
0.310938
0.345106
0.306404
0.30512
0.306878
0.356882
0.348762
0.302865
0.299096
0.355305
0.321273
0.321291
0.345239
0.329987
0.301617
0.338859
0.3271
0.311188
0.308147
0.303024
0.303233
0.312516
0.322921
0.399549
0.353868
0.312373
0.369283
0.385323
0.309394
0.330264
0.364114
0.378971
0.313266
0.324189
0.379391
0.364154
0.333389
0.355146
0.360978
0.326812
0.314133
0.314132
0.352137
0.306815
0.323011
0.370049
0.361683
0.336913
0.359036
0.343016
0.384911
0.325725
0.328948
0.306679
0.365974
0.356372
0.378652
0.300198
0.309174
0.302664
0.365731
0.307831
0.352377
0.319803
0.304633
0.361408
0.304512
0.337815
0.309442
0.306282
0.359144
0.349611
0.351085
0.303217
0.32254
0.313463
0.305129
0.331576
0.357331
0.305657
0.306262
0.30435
0.344958
0.332944
0.308373
0.309824
0.302831
0.30226
0.325324
0.372191
0.334463
0.306007
0.311949
0.332955
0.33373
0.310729
0.340053
0.321978
0.308386
0.332021
0.388627
0.29932
0.319549
0.354941
0.304292
0.322642
0.319241
0.306415
0.320739
0.302207
0.312979
0.348089
0.305377
0.312783
0.305957
0.303245
0.333281
0.302214
0.303421
0.356038
0.313569
0.314036
0.308928
0.334079
0.330351
0.311975
0.328574
0.312199
0.305925
0.363946
0.341369
0.301889
0.307137
0.348933
0.316221
0.30382
0.30958
0.316802
0.334179
0.320137
0.353388
0.35039
0.305565
0.302982
0.305597
0.326149
0.304933
0.305115
0.305086
0.303096
0.322982
0.305044
0.301881
0.301851
0.338794
0.305077
0.315839
0.358904
0.327648
0.305476
0.305427
0.300009
0.335206
0.333569
0.367496
0.366674
0.312989
0.325322
0.299688
0.321473
0.31077
0.309914
0.316856
0.319561
0.328343
0.311707
0.382113
0.366725
0.353091
0.392608
0.348333
0.405801
0.30665
0.30774
0.368153
0.338137
0.302698
0.307694
0.309461
0.305188
0.368193
0.357762
0.368671
0.326594
0.311543
0.337695
0.302896
0.350881
0.354847
0.337516
0.336373
0.366946
0.303349
0.304892
0.356113
0.299785
0.356359
0.332182
0.327176
0.304112
0.303687
0.359684
0.331564
0.324115
0.328524
0.311194
0.325144
0.310226
0.340848
0.32406
0.359328
0.318713
0.398303
0.381883
0.335106
0.370624
0.346517
0.365482
0.349061
0.34813
0.325263
0.309607
0.329947
0.308195
0.333272
0.313948
0.30465
0.332331
0.344835
0.300763
0.36306
0.305627
0.305328
0.317731
0.387737
0.395094
0.334001
0.364293
0.368845
0.302541
0.302695
0.305483
0.303299
0.302705
0.29847
0.32609
0.382019
0.326878
0.332639
0.335991
0.369567
0.371216
0.298072
0.351726
0.307762
0.358939
0.305465
0.35373
0.346872
0.308721
0.353747
0.370958
0.320814
0.306933
0.311177
0.336468
0.341512
0.30856
0.306221
0.306573
0.32815
0.303982
0.319347
0.309721
0.305535
0.299411
0.35233
0.308344
0.319952
0.309726
0.321296
0.33574
0.32158
0.307458
0.320299
0.31482
0.316967
0.315719
0.325206
0.345859
0.328354
0.29986
0.331321
0.309078
0.310736
0.301779
0.300949
0.315352
0.302461
0.315798
0.362105
0.358396
0.310849
0.349549
0.367305
0.359516
0.302618
0.301161
0.301133
0.341818
0.313029
0.379651
0.359761
0.392923
0.318265
0.331702
0.307365
0.301834
0.323081
0.308931
0.313843
0.323832
0.305834
0.331608
0.30563
0.319619
0.327938
0.362195
0.412311
0.345856
0.353095
0.372978
0.367939
0.358251
0.306454
0.304558
0.302478
0.340698
0.34143
0.304837
0.336017
0.343321
0.34342
0.30214
0.301
0.318578
0.304155
0.375152
0.338244
0.327399
0.317175
0.315892
0.352951
0.303956
0.304525
0.352564
0.314977
0.334008
0.314461
0.36245
0.301721
0.355214
0.33454
0.312569
0.310701
0.346862
0.336622
0.350406
0.366231
0.372993
0.359005
0.354
0.306708
0.310107
0.351419
0.300797
0.304689
0.305718
0.307782
0.304413
0.347555
0.343571
0.313213
0.305393
0.32955
0.305083
0.306936
0.299117
0.334506
0.310844
0.301238
0.30619
0.304447
0.340516
0.323939
0.36664
0.318147
0.331513
0.306036
0.298135
0.306633
0.30597
0.367506
0.304645
0.304424
0.349899
0.314789
0.303282
0.329558
0.378674
0.327992
0.355154
0.353659
0.304973
0.315991
0.311931
0.301503
0.305663
0.361476
0.302782
0.316536
0.338626
0.303099
0.304239
0.310299
0.335222
0.303669
0.298998
0.304319
0.300817
0.303552
0.304666
0.336185
0.339992
0.351719
0.306876
0.310828
0.334185
0.304066
0.328711
0.340589
0.333761
0.315973
0.302742
0.313333
0.302391
0.305864
0.306085
0.301733
0.324415
0.303353
0.30238
0.3368
0.35181
0.308368
0.328222
0.315165
0.303743
0.322834
0.348391
0.315224
0.30778
0.302927
0.370808
0.304809
0.303617
0.329146
0.366433
0.320484
0.302815
0.304785
0.333585
0.330009
0.329491
0.303072
0.299424
0.30342
0.325102
0.338171
0.362101
0.330147
0.325326
0.378549
0.347309
0.351199
0.305547
0.31293
0.312777
0.303182
0.348521
0.305424
0.306113
0.304991
0.303105
0.306237
0.310314
0.304321
0.304879
0.347739
0.333873
0.350424
0.311971
0.363645
0.346832
0.304391
0.346962
0.308575
0.303946
0.30097
0.303366
0.335294
0.301482
0.361704
0.309892
0.312593
0.326266
0.341392
0.311494
0.321864
0.300965
0.341976
0.301539
0.301372
0.30473
0.358644
0.305615
0.306572
0.312845
0.306135
0.35178
0.304102
0.340633
0.301961
0.377306
0.301834
0.355465
0.344822
0.328767
0.357645
0.304343
0.353784
0.316537
0.328321
0.307943
0.303982
0.305
0.299163
0.339582
0.30627
0.354889
0.304032
0.336474
0.303123
0.299076
0.298696
0.300786
0.347224
0.305444
0.341988
0.330745
0.304392
0.336943
0.376347
0.358912
0.323716
0.305439
0.302803
0.30524
0.304223
0.305457
0.315364
0.312627
0.311232
0.338041
0.302957
0.30272
0.302545
0.30381
0.358989
0.300497
0.339969
0.346479
0.299869
0.323883
0.300175
0.32828
0.317227
0.326201
0.304897
0.376808
0.304472
0.346802
0.303956
0.309385
0.29884
0.320733
0.341151
0.302075
0.304121
0.344879
0.302151
0.305338
0.30709
0.308388
0.303141
0.370242
0.307063
0.334391
0.307431
0.33306
0.304681
0.305022
0.314383
0.303222
0.300026
0.302461
0.339778
0.361783
0.307036
0.317948
0.307481
0.306355
0.347456
0.309833
0.304671
0.30986
0.306979
0.317671
0.363534
0.355369
0.35099
0.32567
0.314556
0.312904
0.363513
0.309953
0.344586
0.306935
0.303711
0.307831
0.328823
0.336271
0.336655
0.299689
0.307076
0.306098
0.307935
0.300708
0.302603
0.307344
0.304936
0.306614
0.325889
0.33646
0.356478
0.324046
0.305973
0.336767
0.301662
0.305024
0.304161
0.344724
0.361696
0.347807
0.300554
0.339057
0.303248
0.337972
0.304749
0.313912
0.335983
0.316847
0.303117
0.327047
0.340383
0.311727
0.313142
0.314197
0.303108
0.306148
0.316722
0.324749
0.303126
0.326309
0.303414
0.299445
0.349556
0.347713
0.347492
0.300239
0.315561
0.30358
0.302797
0.343091
0.309867
0.322578
0.326907
0.305822
0.354298
0.302629
0.328617
0.304776
0.338504
0.30675
0.336719
0.327372
0.310066
0.303986
0.304576
0.305391
0.307296
0.306108
0.307423
0.346416
0.34312
0.304325
0.302681
0.340858
0.359262
0.357315
0.376441
0.301991
0.307562
0.338928
0.313205
0.297466
0.388701
0.305096
0.300694
0.301647
0.306408
0.350476
0.313218
0.327188
0.333978
0.349554
0.328413
0.300125
0.304914
0.305927
0.315329
0.300889
0.306365
0.298032
0.358312
0.35359
0.302122
0.30493
0.305255
0.312917
0.306233
0.307053
0.319239
0.333335
0.315249
0.312272
0.308024
0.306399
0.375606
0.328189
0.37132
0.331972
0.301462
0.33022
0.311649
0.355803
0.30341
0.304137
0.30579
0.303725
0.307265
0.301737
0.302586
0.303855
0.301279
0.302554
0.308205
0.328174
0.30562
0.306145
0.304413
0.302025
0.299046
0.304161
0.325383
0.347761
0.342309
0.307713
0.35688
0.303796
0.301809
0.302654
0.301421
0.301912
0.303676
0.305119
0.304959
0.304903
0.303873
0.30462
0.304866
0.334534
0.329912
0.344979
0.311054
0.344974
0.303723
0.301657
0.337356
0.302814
0.301141
0.337805
0.344523
0.311131
0.315782
0.301363
0.309561
0.300413
0.302648
0.34713
0.306556
0.358436
0.328985
0.308014
0.304093
0.323827
0.302633
0.342372
0.322578
0.304512
0.30349
0.337091
0.305171
0.303814
0.340275
0.305907
0.306987
0.308813
0.317917
0.302243
0.33453
0.345164
0.304697
0.330998
0.354038
0.34549
0.313906
0.301138
0.303623
0.303425
0.301192
0.305595
0.35394
0.36254
0.321652
0.311611
0.314318
0.325976
0.340047
0.352876
0.302659
0.300652
0.29786
0.307217
0.303604
0.309743
0.309704
0.300538
0.347102
0.297367
0.325015
0.317845
0.325854
0.332801
0.315446
0.312872
0.325755
0.301
0.302663
0.307056
0.301512
0.309161
0.367213
0.327061
0.306273
0.304394
0.30865
0.303288
0.310275
0.302075
0.348592
0.32027
0.306381
0.304489
0.359311
0.310549
0.307533
0.320881
0.313938
0.299254
0.304016
0.300188
0.360388
0.346192
0.328794
0.304394
0.305547
0.305858
0.301511
0.304491
0.325857
0.302452
0.33018
0.303294
0.338147
0.305313
0.306875
0.337818
0.361646
0.301624
0.356872
0.302884
0.345322
0.308399
0.375644
0.302383
0.310628
0.296696
0.296994
0.355966
0.312149
0.302141
0.304641
0.304212
0.305349
0.298446
0.319912
0.323769
0.308601
0.335883
0.30534
0.304773
0.339611
0.349191
0.304743
0.304721
0.301273
0.308123
0.304681
0.299521
0.302483
0.306651
0.318614
0.306023
0.305438
0.326831
0.323314
0.320735
0.304872
0.312704
0.303292
0.318113
0.313348
0.305184
0.30393
0.310419
0.348946
0.303865
0.305742
0.305548
0.360901
0.305797
0.306717
0.313351
0.391036
0.306695
0.31798
0.306096
0.303383
0.304628
0.315828
0.303362
0.303912
0.303094
0.301975
0.33214
0.305745
0.313827
0.318375
0.317943
0.303614
0.303225
0.306115
0.301549
0.306086
0.297851
0.30317
0.315921
0.346358
0.300747
0.305595
0.304658
0.311968
0.303936
0.303904
0.301941
0.303852
0.305251
0.305835
0.30521
0.304132
0.356495
0.341384
0.30633
0.304731
0.30397
0.301999
0.304126
0.306552
0.304162
0.305901
0.337613
0.303629
0.305462
0.337447
0.320639
0.342412
0.301868
0.323557
0.306602
0.329871
0.310802
0.334068
0.359099
0.298078
0.300022
0.318211
0.387549
0.305629
0.305301
0.305382
0.304654
0.304047
0.30483
0.305225
0.3054
0.305814
0.336209
0.345976
0.366385
0.304682
0.303139
0.336209
0.30569
0.310452
0.302339
0.306785
0.304577
0.306567
0.304965
0.393016
0.300112
0.304439
0.304103
0.305726
0.327502
0.303441
0.317262
0.305309
0.302264
0.299007
0.312323
0.306307
0.301902
0.305069
0.304828
0.29969
0.301781
0.305405
0.360583
0.343065
0.3061
0.303121
0.311349
0.300767
0.319156
0.304647
0.303921
0.305368
0.307252
0.308719
0.307331
0.307426
0.318936
0.321084
0.307099
0.30177
0.300057
0.331504
0.3547
0.306767
0.326733
0.305873
0.327515
0.306908
0.302603
0.29979
0.314285
0.343542
0.303127
0.338622
0.303839
0.304982
0.302606
0.363023
0.331946
0.335826
0.304834
0.302441
0.300726
0.304991
0.299169
0.300146
0.311613
0.303581
0.303512
0.303024
0.303112
0.303794
0.304999
0.315832
0.325523
0.363585
0.303262
0.304131
0.35931
0.302347
0.311113
0.355992
0.343002
0.303828
0.296032
0.305606
0.301547
0.309201
0.301594
0.30521
0.304614
0.307276
0.343638
0.338592
0.314232
0.306531
0.305891
0.298071
0.304902
0.304691
0.305331
0.304289
0.30696
0.30376
0.313825
0.305843
0.305392
0.300689
0.307973
0.305485
0.299898
0.303072
0.32798
0.300403
0.30629
0.306006
0.305602
0.333027
0.304041
0.30364
0.309387
0.302372
0.303096
0.305272
0.30273
0.33217
0.338522
0.307658
0.303099
0.305054
0.305149
0.304624
0.304647
0.304992
0.302759
0.305669
0.302141
0.304784
0.35533
0.322972
0.31096
0.30551
0.303843
0.305426
0.329013
0.305211
0.348553
0.352486
0.302872
0.302652
0.301885
0.303189
0.305247
0.337758
0.303052
0.309728
0.356571
0.360867
0.302586
0.302233
0.304564
0.317424
0.304352
0.3649
0.343547
0.360214
0.303145
0.302217
0.301827
0.3417
0.332427
0.298602
0.319103
0.339684
0.307556
0.335602
0.350067
0.354375
0.34101
0.337957
0.30575
0.333718
0.363245
0.315361
0.301065
0.326649
0.352945
0.35534
0.312489
0.299863
0.304529
0.306919
0.342076
0.309035
0.301251
0.300701
0.304058
0.317831
0.301836
0.300909
0.315595
0.319493
0.343611
0.30759
0.315042
0.303695
0.345467
0.332842
0.330636
0.302764
0.341805
0.302617
0.335908
0.308396
0.321045
0.305856
0.306197
0.309062
0.350781
0.349587
0.328732
0.304905
0.333315
0.339104
0.353577
0.333841
0.309346
0.302759
0.312312
0.305036
0.306108
0.300306
0.304247
0.305149
0.306533
0.315126
0.306848
0.300926
0.311802
0.31861
0.298343
0.303406
0.329459
0.310306
0.352676
0.304995
0.305044
0.304207
0.306964
0.303177
0.304115
0.335906
0.382181
0.307648
0.302065
0.303313
0.339073
0.306744
0.30441
0.330913
0.301464
0.308924
0.303496
0.303098
0.307305
0.340482
0.308038
0.299859
0.306129
0.307051
0.300689
0.301093
0.304106
0.308852
0.36624
0.304829
0.299762
0.342117
0.302689
0.304432
0.345829
0.378201
0.301925
0.336128
0.306106
0.374606
0.323185
0.304041
0.301538
0.304031
0.301618
0.34735
0.299735
0.307127
0.328499
0.302543
0.318132
0.302923
0.304738
0.30731
0.332355
0.341133
0.34189
0.300561
0.33551
0.3147
0.321246
0.304508
0.305466
0.302377
0.306499
0.345144
0.308343
0.358787
0.348192
0.304566
0.30455
0.305714
0.303845
0.303351
0.334711
0.304698
0.362246
0.299646
0.344868
0.307758
0.307031
0.303008
0.305524
0.341754
0.305054
0.303951
0.302001
0.304021
0.303504
0.332332
0.335848
0.360887
0.29833
0.300112
0.30441
0.335414
0.301243
0.301146
0.301514
0.349488
0.323863
0.301988
0.299482
0.300214
0.302216
0.303566
0.304206
0.348475
0.328428
0.310395
0.335796
0.305961
0.355682
0.323182
0.331694
0.33643
0.303082
0.368166
0.304239
0.305806
0.359575
0.348609
0.338692
0.299031
0.30543
0.331884
0.324252
0.338702
0.324489
0.326966
0.303255
0.359437
0.323484
0.329949
0.30396
0.336629
0.320531
0.32333
0.303557
0.303411
0.312319
0.328902
0.302831
0.306564
0.307262
0.303175
0.304549
0.302968
0.306595
0.315432
0.354407
0.339585
0.311138
0.301243
0.311577
0.346731
0.306935
0.300549
0.386096
0.338012
0.343241
0.306154
0.326773
0.314454
0.3144
0.354902
0.307385
0.352581
0.348402
0.315299
0.364871
0.313804
0.307681
0.358881
0.366935
0.356935
0.341376
0.319112
0.347785
0.355746
0.310812
0.331415
0.346121
0.322769
0.33109
0.310744
0.344678
0.33759
0.312276
0.325762
0.307982
0.314091
0.332905
0.305637
0.303215
0.333247
0.335601
0.311389
0.305073
0.343232
0.358119
0.301092
0.331531
0.319697
0.345397
0.337491
0.340975
0.30062
0.325181
0.302114
0.338897
0.306516
0.32161
0.352308
0.350573
0.327871
0.317233
0.329468
0.331737
0.367891
0.338863
0.301542
0.322242
0.342666
0.339222
0.318101
0.306381
0.332796
0.304425
0.306151
0.301007
0.315112
0.30299
0.327147
0.311625
0.307528
0.304371
0.383615
0.366234
0.369054
0.304097
0.360598
0.306541
0.343667
0.304597
0.302911
0.334649
0.303838
0.303017
0.303269
0.303863
0.302147
0.304409
0.304738
0.306488
0.304254
0.301563
0.304711
0.309566
0.313312
0.3275
0.304335
0.307233
0.305726
0.30418
0.369926
0.366186
0.374604
0.309276
0.305154
0.308638
0.311477
0.303208
0.30229
0.302802
0.312708
0.301744
0.3084
0.304359
0.305118
0.326979
0.305639
0.307799
0.305356
0.304384
0.316334
0.30203
0.305077
0.304333
0.304515
0.304212
0.304643
0.308747
0.305193
0.303422
0.309841
0.31354
0.305842
0.30674
0.303895
0.302786
0.302484
0.30521
0.304904
0.307039
0.306875
0.301184
0.32358
0.307044
0.320873
0.302966
0.304398
0.305653
0.307458
0.3002
0.305631
0.30418
0.304056
0.306359
0.301426
0.31576
0.308251
0.308173
0.305251
0.303724
0.299399
0.324865
0.302711
0.304021
0.302933
0.298822
0.334864
0.325201
0.31971
0.336983
0.339577
0.339419
0.305646
0.349633
0.348016
0.333417
0.356281
0.299466
0.303465
0.3575
0.304256
0.361642
0.313212
0.327413
0.301634
0.33347
0.372956
0.306455
0.325346
0.339696
0.324204
0.362297
0.301895
0.307518
0.305881
0.338622
0.307004
0.330578
0.302825
0.314776
0.306158
0.329379
0.311314
0.308365
0.316593
0.305357
0.344844
0.338494
0.342522
0.323921
0.305697
0.300959
0.304853
0.324076
0.328951
0.311529
0.305476
0.354826
0.305709
0.304363
0.312221
0.355152
0.307518
0.318578
0.304819
0.360313
0.300614
0.301276
0.303631
0.332626
0.306613
0.330267
0.328059
0.339643
0.335854
0.338326
0.341221
0.30604
0.303483
0.319516
0.301041
0.300339
0.321039
0.31951
0.329752
0.349205
0.305407
0.302365
0.344392
0.333991
0.301589
0.307283
0.336476
0.337693
0.306484
0.306904
0.305475
0.300918
0.334622
0.299907
0.304545
0.305685
0.306985
0.305972
0.296921
0.305692
0.304851
0.303809
0.30522
0.302829
0.318566
0.311762
0.347948
0.358782
0.310929
0.345223
0.317062
0.320773
0.336574
0.302716
0.36322
0.300273
0.331355
0.305592
0.303746
0.307238
0.328364
0.374851
0.304912
0.343217
0.378242
0.326661
0.302921
0.367169
0.319961
0.31797
0.381982
0.342628
0.384502
0.378655
0.339677
0.302906
0.312105
0.384136
0.361867
0.370918
0.362691
0.318779
0.303272
0.369825
0.331293
0.361903
0.329977
0.31959
0.303042
0.301924
0.306898
0.330889
0.35305
0.300649
0.306075
0.327463
0.325158
0.337706
0.304945
0.313207
0.328801
0.345609
0.314305
0.305742
0.300258
0.29834
0.345283
0.309159
0.300652
0.325665
0.302437
0.345879
0.346096
0.338255
0.304288
0.331309
0.326809
0.332701
0.305057
0.30581
0.320702
0.334293
0.34006
0.305022
0.31693
0.304703
0.301596
0.366552
0.299709
0.334142
0.356503
0.298499
0.347808
0.307184
0.350382
0.310818
0.312409
0.317239
0.308063
0.321039
0.310295
0.308556
0.301745
0.342096
0.342084
0.322679
0.340851
0.306332
0.348582
0.308818
0.305339
0.34347
0.359933
0.308532
0.303275
0.315875
0.312557
0.335111
0.30465
0.304345
0.305453
0.33573
0.369393
0.359852
0.308881
0.369836
0.363478
0.329316
0.330404
0.338443
0.313907
0.352834
0.302844
0.306704
0.352586
0.318167
0.34629
0.304145
0.304388
0.301283
0.303132
0.302788
0.302459
0.333479
0.301442
0.302183
0.324471
0.334906
0.362593
0.315972
0.304601
0.302347
0.306459
0.312517
0.303244
0.316542
0.30352
0.30325
0.306932
0.302131
0.305207
0.354407
0.335798
0.327697
0.340591
0.350764
0.302638
0.316001
0.339535
0.300808
0.302731
0.298952
0.301754
0.304023
0.306406
0.298294
0.347507
0.306116
0.344002
0.302549
0.306233
0.304961
0.30458
0.303585
0.303953
0.305464
0.356906
0.312847
0.337998
0.305417
0.319066
0.36228
0.330713
0.35601
0.352556
0.338383
0.344907
0.349694
0.297881
0.305289
0.303096
0.337617
0.303386
0.305514
0.305762
0.306536
0.302566
0.303772
0.303046
0.342877
0.32307
0.306506
0.335397
0.305762
0.328742
0.324674
0.378612
0.328017
0.305406
0.306909
0.34203
0.312925
0.318695
0.303844
0.345607
0.307705
0.3122
0.310321
0.305424
0.351994
0.345001
0.302857
0.305309
0.305029
0.350447
0.349375
0.347219
0.313105
0.306379
0.306121
0.318367
0.322991
0.343563
0.30246
0.325434
0.303531
0.305028
0.316898
0.304281
0.364942
0.304488
0.303522
0.355848
0.314379
0.303664
0.298922
0.306235
0.331037
0.325587
0.304825
0.302955
0.301746
0.31226
0.305396
0.30331
0.300761
0.368238
0.330383
0.345233
0.307605
0.325169
0.31047
0.306719
0.349477
0.307777
0.304561
0.306184
0.30624
0.303674
0.305051
0.31934
0.363873
0.378143
0.340905
0.305988
0.304066
0.303292
0.30583
0.310004
0.304464
0.359563
0.305948
0.366638
0.308013
0.334825
0.30823
0.301959
0.305475
0.317002
0.299376
0.336275
0.298788
0.303346
0.368415
0.350696
0.340328
0.307002
0.303493
0.301967
0.30431
0.302231
0.305228
0.299582
0.340373
0.303038
0.307117
0.316303
0.303207
0.306487
0.326287
0.320666
0.305433
0.305249
0.30504
0.302092
0.30206
0.307459
0.302721
0.306962
0.303582
0.304215
0.345384
0.316685
0.313175
0.301648
0.306915
0.30785
0.307724
0.307825
0.30465
0.352681
0.303994
0.32379
0.302439
0.301392
0.310985
0.338128
0.316813
0.30918
0.304152
0.304436
0.330266
0.301137
0.298987
0.303438
0.310299
0.315849
0.362331
0.297493
0.305724
0.371739
0.306602
0.304038
0.309807
0.322021
0.304733
0.306119
0.305334
0.309494
0.30409
0.303833
0.303515
0.303837
0.297892
0.319258
0.341469
0.354377
0.305386
0.337136
0.298801
0.335942
0.305835
0.302922
0.303367
0.300169
0.30337
0.304776
0.30423
0.321604
0.304503
0.330835
0.318658
0.303929
0.306045
0.302681
0.302213
0.330002
0.302318
0.354774
0.303107
0.302382
0.316339
0.353401
0.302432
0.302717
0.303666
0.303446
0.301982
0.337111
0.359626
0.301165
0.348895
0.301138
0.336824
0.303915
0.302794
0.312151
0.304634
0.303915
0.302057
0.303524
0.301742
0.356894
0.336224
0.30854
0.314717
0.305885
0.342693
0.303695
0.30597
0.302235
0.303368
0.300883
0.30693
0.303379
0.304772
0.30367
0.305747
0.329021
0.333856
0.303636
0.299309
0.304437
0.301193
0.364305
0.305497
0.304788
0.309993
0.30697
0.305203
0.305895
0.324564
0.304658
0.298699
0.306301
0.325934
0.315671
0.341366
0.306081
0.328339
0.304355
0.358474
0.364177
0.343628
0.330264
0.323893
0.350933
0.317011
0.303948
0.307587
0.30646
0.357577
0.316534
0.315895
0.331514
0.30394
0.317738
0.312696
0.304755
0.317468
0.334423
0.312444
0.305947
0.305092
0.305954
0.305701
0.304991
0.304326
0.303687
0.336599
0.340031
0.323991
0.306284
0.342185
0.351994
0.342144
0.335995
0.319296
0.329902
0.306879
0.307832
0.307493
0.307661
0.300061
0.30581
0.307913
0.304259
0.327468
0.305933
0.35629
0.370858
0.312563
0.344388
0.350638
0.321049
0.302714
0.304675
0.301814
0.354164
0.30881
0.303216
0.318079
0.305316
0.304273
0.313586
0.340765
0.340261
0.329404
0.311562
0.305467
0.316012
0.347181
0.334424
0.346614
0.31615
0.309208
0.305856
0.301108
0.301565
0.304731
0.303
0.316468
0.302892
0.317631
0.306082
0.350318
0.304331
0.308596
0.311631
0.313068
0.368421
0.336397
0.30637
0.316246
0.306111
0.332118
0.322815
0.306289
0.303968
0.365408
0.301412
0.301067
0.303508
0.37152
0.301306
0.319516
0.303871
0.298448
0.311847
0.306577
0.333736
0.303707
0.318968
0.316753
0.369588
0.364271
0.32717
0.305785
0.343865
0.351105
0.303961
0.318951
0.325101
0.307131
0.329525
0.31394
0.307139
0.323335
0.315667
0.310976
0.344947
0.324979
0.305238
0.34233
0.347
0.303104
0.34315
0.317987
0.305477
0.301034
0.31725
0.307714
0.31713
0.309047
0.346352
0.303739
0.306398
0.32487
0.307246
0.329742
0.30208
0.32391
0.304666
0.362703
0.304347
0.30368
0.346794
0.304125
0.307433
0.303587
0.304635
0.348349
0.310421
0.360887
0.300066
0.302402
0.301903
0.303062
0.339391
0.304845
0.305106
0.304369
0.310389
0.311733
0.348375
0.303599
0.302887
0.302541
0.303963
0.329396
0.356347
0.361068
0.324935
0.30921
0.304667
0.343947
0.308886
0.352023
0.3054
0.30434
0.304435
0.298489
0.306061
0.30612
0.336058
0.305234
0.304343
0.303792
0.316627
0.304001
0.328874
0.338795
0.316138
0.301908
0.351867
0.305699
0.308554
0.326191
0.302376
0.315364
0.307915
0.307956
0.303374
0.352606
0.307701
0.307378
0.306692
0.304468
0.30294
0.32347
0.305873
0.307775
0.305971
0.308598
0.325988
0.344467
0.333514
0.306043
0.305105
0.312435
0.305279
0.311045
0.303791
0.328455
0.332033
0.303588
0.302672
0.30545
0.345716
0.326067
0.358996
0.305881
0.303577
0.303544
0.302201
0.366996
0.308705
0.302088
0.302546
0.311957
0.358528
0.326492
0.304372
0.303709
0.311534
0.304638
0.301694
0.301764
0.303912
0.304967
0.304569
0.304296
0.313913
0.314557
0.337631
0.324005
0.359408
0.304881
0.30822
0.314743
0.306052
0.304978
0.304713
0.30729
0.304061
0.304832
0.303104
0.355003
0.310327
0.304439
0.351448
0.304365
0.304595
0.307843
0.301877
0.321303
0.305359
0.304642
0.304833
0.342465
0.304005
0.30683
0.345179
0.305049
0.304748
0.340841
0.359885
0.326129
0.323123
0.335749
0.305913
0.310092
0.302333
0.318699
0.30451
0.306981
0.30685
0.350859
0.342345
0.335631
0.34161
0.305648
0.304379
0.304047
0.304778
0.305094
0.304566
0.342331
0.302728
0.303709
0.318243
0.314833
0.322973
0.305784
0.303785
0.303875
0.305021
0.351039
0.303958
0.303548
0.302878
0.322251
0.306272
0.299942
0.307271
0.351503
0.30259
0.307058
0.303046
0.304943
0.303503
0.318544
0.350746
0.331714
0.31155
0.306965
0.311421
0.301772
0.300849
0.298336
0.30467
0.303245
0.320086
0.302959
0.305488
0.295041
0.302404
0.302403
0.31896
0.346653
0.303049
0.300372
0.301579
0.301025
0.305136
0.343661
0.304493
0.305187
0.303069
0.302298
0.307472
0.357397
0.340381
0.35337
0.320275
0.300265
0.307361
0.301736
0.307173
0.313925
0.304729
0.307568
0.305331
0.304288
0.318558
0.335312
0.315149
0.304841
0.305356
0.307903
0.334389
0.302104
0.31341
0.338021
0.332326
0.305045
0.308862
0.298389
0.305592
0.304626
0.318847
0.330209
0.304939
0.305394
0.340001
0.312909
0.302417
0.312945
0.304944
0.336375
0.310597
0.304426
0.307786
0.30282
0.376013
0.30352
0.302183
0.306992
0.332603
0.302248
0.30345
0.301216
0.301371
0.304025
0.310566
0.306065
0.309348
0.342337
0.338739
0.317221
0.304811
0.331025
0.372308
0.30126
0.319916
0.304546
0.307299
0.3311
0.347529
0.315527
0.328496
0.303511
0.300841
0.317705
0.302834
0.303374
0.304021
0.304344
0.302606
0.336245
0.30249
0.311166
0.308677
0.336307
0.307238
0.303024
0.328728
0.302743
0.304374
0.35598
0.311217
0.333025
0.313701
0.304994
0.301134
0.307798
0.344898
0.329991
0.317499
0.314411
0.342874
0.392312
0.318424
0.316862
0.330924
0.310817
0.29958
0.305329
0.342589
0.313764
0.304861
0.347846
0.304406
0.309429
0.339595
0.303547
0.306141
0.309454
0.306881
0.344694
0.305391
0.376136
0.311697
0.354086
0.370803
0.362568
0.338616
0.395571
0.305286
0.305426
0.362681
0.345362
0.304125
0.299447
0.305594
0.333744
0.301937
0.340742
0.365801
0.364496
0.348836
0.369845
0.302649
0.305839
0.348071
0.372
0.331245
0.350347
0.315078
0.312112
0.367694
0.365879
0.351402
0.304441
0.350418
0.306654
0.30591
0.320531
0.320632
0.325225
0.304009
0.303386
0.319217
0.335281
0.300573
0.30099
0.305207
0.30662
0.306114
0.324547
0.339456
0.320655
0.315962
0.316656
0.310606
0.311772
0.322658
0.329815
0.339728
0.308076
0.306597
0.305857
0.333371
0.319904
0.350089
0.348379
0.303983
0.304036
0.305294
0.304195
0.303571
0.30521
0.315809
0.304006
0.306822
0.341101
0.350951
0.302015
0.30925
0.348075
0.306627
0.309872
0.303884
0.304871
0.356528
0.313386
0.331354
0.340033
0.379003
0.304711
0.333133
0.32647
0.302064
0.307425
0.307254
0.31664
0.29889
0.327793
0.336272
0.30462
0.326256
0.306043
0.298862
0.340998
0.336669
0.30859
0.305163
0.331441
0.344351
0.306813
0.345213
0.304785
0.33096
0.347743
0.304925
0.335241
0.30141
0.329767
0.301287
0.330615
0.311213
0.302764
0.332314
0.360996
0.304422
0.318039
0.301519
0.316572
0.331017
0.304312
0.346891
0.301341
0.308986
0.305786
0.362081
0.312117
0.301333
0.305971
0.328758
0.323266
0.30719
0.349827
0.307345
0.323141
0.301935
0.303627
0.302698
0.304532
0.300247
0.32417
0.310169
0.3025
0.333993
0.304503
0.303754
0.306335
0.303751
0.330672
0.382708
0.311588
0.361975
0.329522
0.372675
0.325643
0.306729
0.313575
0.302308
0.353547
0.305219
0.33198
0.304259
0.306886
0.370761
0.351285
0.313468
0.305923
0.30569
0.318107
0.340713
0.306492
0.326792
0.33323
0.301455
0.334103
0.299571
0.299801
0.320354
0.344032
0.321299
0.355479
0.29553
0.355138
0.307902
0.307569
0.338362
0.309068
0.306799
0.306018
0.316346
0.305648
0.305785
0.306108
0.308499
0.307004
0.307053
0.305732
0.300661
0.327094
0.334369
0.313811
0.322989
0.341246
0.313183
0.330751
0.304733
0.303198
0.304446
0.302454
0.305279
0.302624
0.303115
0.302915
0.302403
0.302051
0.323991
0.333924
0.300407
0.305638
0.306838
0.341015
0.310562
0.332445
0.307602
0.351363
0.322269
0.29969
0.335922
0.303961
0.340012
0.301003
0.303638
0.307395
0.333582
0.301948
0.304562
0.310762
0.308919
0.32871
0.302263
0.300931
0.30205
0.30614
0.307118
0.306072
0.307503
0.322613
0.348911
0.314585
0.3013
0.304228
0.307023
0.304477
0.30374
0.306361
0.304934
0.306243
0.30405
0.303391
0.300903
0.303478
0.299728
0.303589
0.307294
0.304608
0.347687
0.305293
0.318234
0.312035
0.302454
0.302926
0.301374
0.303522
0.348257
0.305702
0.306424
0.314046
0.335341
0.306707
0.362686
0.335444
0.358297
0.351402
0.307518
0.306821
0.309494
0.309852
0.305383
0.312188
0.336015
0.303398
0.353914
0.307793
0.303001
0.305095
0.316766
0.306576
0.303815
0.303613
0.309222
0.333342
0.303468
0.302768
0.366202
0.351002
0.302851
0.348618
0.314757
0.343611
0.308896
0.30308
0.30707
0.309401
0.303022
0.314217
0.320234
0.303463
0.305156
0.306626
0.345994
0.34259
0.329487
0.306112
0.308032
0.300426
0.353938
0.332662
0.30481
0.304626
0.347275
0.356074
0.304281
0.33082
0.337999
0.303904
0.338362
0.305729
0.305339
0.304786
0.305775
0.306109
0.304661
0.30346
0.304677
0.305591
0.305584
0.303386
0.303083
0.306292
0.328958