/*--------------------------------*- C++ -*----------------------------------*\
| =========                 |                                                 |
| \\      /  F ield         | OpenFOAM: The Open Source CFD Toolbox           |
|  \\    /   O peration     | Version:  2506                                  |
|   \\  /    A nd           | Website:  www.openfoam.com                      |
|    \\/     M anipulation  |                                                 |
\*---------------------------------------------------------------------------*/
FoamFile
{
    version     2.0;
    format      ascii;
    arch        "LSB;label=32;scalar=64";
    class       volScalarField;
    location    "0.0625936";
    object      nut;
}
// * * * * * * * * * * * * * * * * * * * * * * * * * * * * * * * * * * * * * //

dimensions      [0 2 -1 0 0 0 0];

internalField   nonuniform List<scalar> 
3919
(
0.00436064
0.00448419
0.0032023
0.00242848
0.0039481
0.00452269
0.003079
0.00498506
0.00687047
0.00386732
0.00426085
0.00548755
0.00444545
0.00545506
0.00476408
0.00344859
0.00640335
0.00605555
0.0051976
0.00508274
0.005705
0.00383544
0.00715685
0.00634877
0.00719277
0.00456779
0.00696948
0.00603927
0.00316803
0.00409218
0.0042469
0.0057305
0.0069594
0.0049559
0.00664093
0.00650685
0.00235932
0.00421544
0.006585
0.00448311
0.0050669
0.00558504
0.00659053
0.00438037
0.0022309
0.00298536
0.00202473
0.00403713
0.00497176
0.00713342
0.00699898
0.00399061
0.00720154
0.00464907
0.00345375
0.00709875
0.00302603
0.00304609
0.00691161
0.00482393
0.0029598
0.00396618
0.00338827
0.00354319
0.0053518
0.0045768
0.00688993
0.00382481
0.00505087
0.00714306
0.00623447
0.0037234
0.00283847
0.0032995
0.00303572
0.00341771
0.00634807
0.00692537
0.00576336
0.00424089
0.00412186
0.00710901
0.00659496
0.0058024
0.00588005
0.0060259
0.0051153
0.00371856
0.00405757
0.00402249
0.00339892
0.00280519
0.00278201
0.00707936
0.00385749
0.00387546
0.0040703
0.00470514
0.00360297
0.00618466
0.00667439
0.00473553
0.00344772
0.00646116
0.00240346
0.00650288
0.00355951
0.00387742
0.00422134
0.00380028
0.00401572
0.0048238
0.00449541
0.00620519
0.0063906
0.0060755
0.00622419
0.00532001
0.00390857
0.00433123
0.00487389
0.00463578
0.00706118
0.00328563
0.00642086
0.00588571
0.00694579
0.0044794
0.00297365
0.0050318
0.00650521
0.00438116
0.00265279
0.00712401
0.00523075
0.00523429
0.00481475
0.00515456
0.0044824
0.00442717
0.00521629
0.00727323
0.00432871
0.0069708
0.0057739
0.00487226
0.00244649
0.00669233
0.0064418
0.00517354
0.00452644
0.00667889
0.00549754
0.00541298
0.00624454
0.00689093
0.00697336
0.00439403
0.00707904
0.00425981
0.0057591
0.00385691
0.00271379
0.00611593
0.00345039
0.00298987
0.00300241
0.00399007
0.0044522
0.00708927
0.00206748
0.00511865
0.00625828
0.00647966
0.00313344
0.00455694
0.0038264
0.00624553
0.00428956
0.00401685
0.00194012
0.00392646
0.00696133
0.00444309
0.00420193
0.00470086
0.00353199
0.00525024
0.00443035
0.00392392
0.00477703
0.00453713
0.00288551
0.00480972
0.00403231
0.00682592
0.00335491
0.0065082
0.0037529
0.0024057
0.00683052
0.00414592
0.00655423
0.00445298
0.00354766
0.00718603
0.00722856
0.00292235
0.00438062
0.0041954
0.00301687
0.00651607
0.00705538
0.00711228
0.00364091
0.00710789
0.00712867
0.00427663
0.00478122
0.00636089
0.00708153
0.00502962
0.00519251
0.00517397
0.00696224
0.00621682
0.00450864
0.0044622
0.00387177
0.00531059
0.00275125
0.00536367
0.00269338
0.00460329
0.00449602
0.00463734
0.00560332
0.00561165
0.00426926
0.00478729
0.00208317
0.00387342
0.00348329
0.00200035
0.0020457
0.00425894
0.00342988
0.0029277
0.00233133
0.0031599
0.00308923
0.00205676
0.00292569
0.00310348
0.00332627
0.00318275
0.00356109
0.00425515
0.00392721
0.00326133
0.00438293
0.00381915
0.00300729
0.0029731
0.00391792
0.002371
0.00395381
0.00211655
0.00415945
0.00404252
0.00536038
0.00337448
0.00332991
0.00263519
0.00371968
0.00390147
0.00695236
0.002416
0.00368441
0.00397871
0.00366
0.00496141
0.00299861
0.00552681
0.00335857
0.00566071
0.00696154
0.00345783
0.00434447
0.00195986
0.00692532
0.00467568
0.00446573
0.00716718
0.00419013
0.00236447
0.00580387
0.00473858
0.00626879
0.00206834
0.00476511
0.0041295
0.0045145
0.00420588
0.00643558
0.00412627
0.00237028
0.00341843
0.00609294
0.0044085
0.00372718
0.00378798
0.00455295
0.0030094
0.00370363
0.00472014
0.00413588
0.0022891
0.00529429
0.0046378
0.00466757
0.00680692
0.00431912
0.0044199
0.00435439
0.00402418
0.00502428
0.00511142
0.00397108
0.00595109
0.00520457
0.00713766
0.0062034
0.00409829
0.00626218
0.00667842
0.0019567
0.00330418
0.00398116
0.00478141
0.00385716
0.0039916
0.00463467
0.00265087
0.00462438
0.00694509
0.0039996
0.00365519
0.00499928
0.00473564
0.00253083
0.00489786
0.00691408
0.00497826
0.00426389
0.00389591
0.0042617
0.00345974
0.00387317
0.00716973
0.00665985
0.00493677
0.00509898
0.00556845
0.0071255
0.00706148
0.00707833
0.00344096
0.00618813
0.00700953
0.00533572
0.00422809
0.0071385
0.0046505
0.00379704
0.00416966
0.00632088
0.00665377
0.00576593
0.00426658
0.00381702
0.0023979
0.0040397
0.00345827
0.00339916
0.00548326
0.0031627
0.00369672
0.0045885
0.00349844
0.00419909
0.00293198
0.00455117
0.00204891
0.0040513
0.00400415
0.00237295
0.00270719
0.00241255
0.00705187
0.00540439
0.00427504
0.00333887
0.0070008
0.0043805
0.00448713
0.00498952
0.00350114
0.00349199
0.00288113
0.00396164
0.00454772
0.00439401
0.00470207
0.00283038
0.00450077
0.00337852
0.0038361
0.00289455
0.00632661
0.00457639
0.00288486
0.00578109
0.0028858
0.00278614
0.00428527
0.00687758
0.00634366
0.00430489
0.0043161
0.0061807
0.00477281
0.00511066
0.00442878
0.00515744
0.00298144
0.00340028
0.00320483
0.00347016
0.00195078
0.00191011
0.00334342
0.00322502
0.00328353
0.00294585
0.00379589
0.00378248
0.00324887
0.00450499
0.0041147
0.00467904
0.00307679
0.00431533
0.00470883
0.00225339
0.00283878
0.00607844
0.00428111
0.00356442
0.00369055
0.00326652
0.00235008
0.00237227
0.00339348
0.0028834
0.00343856
0.00665721
0.00502965
0.00677051
0.00639378
0.00601869
0.00540054
0.00340605
0.00257459
0.00478341
0.00377374
0.00328218
0.00253225
0.00276772
0.00597836
0.00348762
0.00498075
0.00406646
0.00695728
0.00409126
0.00400656
0.00424625
0.00450552
0.0039155
0.00355427
0.0070474
0.00511715
0.00385849
0.00269889
0.00380699
0.00399471
0.00483629
0.00265091
0.00496287
0.00352794
0.004637
0.00406417
0.00483148
0.0024431
0.00461129
0.00455018
0.00426144
0.0035196
0.00257072
0.00437001
0.00377122
0.00383329
0.00405211
0.0046033
0.00514173
0.00623497
0.00298876
0.00576137
0.00393653
0.00256778
0.00473188
0.00344227
0.00386649
0.00621077
0.00409276
0.00521579
0.00449103
0.00399745
0.00373329
0.00359639
0.00246434
0.00327897
0.003244
0.00619829
0.00683734
0.00501334
0.00372488
0.00388993
0.00167576
0.00311636
0.00170484
0.00322546
0.00296398
0.00429952
0.00562338
0.00359042
0.0042747
0.00396888
0.00390064
0.00553686
0.00290996
0.0055336
0.00415142
0.00297937
0.00309871
0.0022418
0.00262856
0.0030247
0.00301622
0.0034344
0.00338887
0.0040849
0.00669194
0.00649885
0.00384212
0.00561124
0.00713543
0.00383407
0.00241163
0.00375118
0.00680936
0.00572825
0.00428364
0.0041208
0.00214114
0.00414329
0.00399151
0.00404606
0.00545767
0.00511587
0.00728401
0.00698551
0.00355403
0.00457208
0.00367552
0.00567485
0.00455375
0.00507276
0.00395128
0.00464349
0.00353159
0.00398269
0.0035446
0.00321035
0.00342851
0.00366594
0.00369965
0.00362957
0.0036041
0.00624867
0.00499277
0.00440778
0.00640587
0.00621436
0.00703258
0.0053134
0.00635129
0.0034902
0.00463494
0.00406615
0.00632562
0.00381698
0.00670692
0.00436584
0.00629198
0.00417287
0.0043443
0.0051885
0.00699217
0.00682503
0.00356477
0.00458476
0.00402551
0.00511745
0.00473555
0.00535648
0.00557501
0.00708588
0.00399336
0.00259744
0.0072247
0.00508736
0.0040348
0.00493666
0.00490988
0.00389129
0.00291999
0.00293312
0.00382781
0.00216755
0.00710621
0.00459932
0.0044636
0.00606842
0.00700078
0.00193961
0.00508043
0.00395419
0.00510118
0.00712294
0.00707482
0.00566838
0.0032294
0.00681921
0.00527844
0.00659472
0.00670038
0.00643391
0.00716791
0.00371537
0.00468467
0.00332149
0.0065569
0.0055227
0.00356677
0.006259
0.00464813
0.00384428
0.00514563
0.00383456
0.00692517
0.00505876
0.00629481
0.00716301
0.00622392
0.00688876
0.00545641
0.00606491
0.00642472
0.00532373
0.00323296
0.00581218
0.0033199
0.00528879
0.0068414
0.00412828
0.00377822
0.004347
0.00615523
0.00672759
0.00377846
0.00629929
0.00679155
0.00416389
0.00256908
0.00499167
0.00716311
0.00710367
0.00468243
0.00351096
0.00370527
0.00714345
0.00561937
0.00675206
0.00341948
0.0027469
0.00348533
0.00354441
0.00386076
0.0039374
0.00323545
0.00513535
0.00587471
0.00444316
0.00503991
0.00676889
0.00326495
0.00665784
0.00673793
0.00622569
0.0060952
0.00652629
0.00404335
0.0065737
0.007155
0.00446029
0.00471435
0.00405638
0.00382937
0.00271306
0.00399152
0.00389971
0.00241706
0.00429569
0.00722843
0.00620472
0.00695623
0.00404915
0.00544165
0.00359981
0.00433091
0.00382245
0.00401304
0.00511197
0.00564672
0.00544716
0.00560299
0.00334225
0.00527567
0.00495305
0.00660328
0.00360432
0.00606274
0.00719002
0.00553573
0.00503042
0.00327271
0.00710836
0.00512068
0.00552839
0.00299212
0.00708041
0.00412946
0.00292879
0.00472664
0.00253008
0.00676192
0.00556713
0.00414134
0.00327261
0.00487095
0.00631902
0.00600168
0.00569617
0.0034499
0.0071701
0.00426603
0.00606948
0.0047027
0.00466122
0.00543643
0.00431204
0.00472074
0.00378483
0.00476514
0.00432305
0.00378313
0.0068575
0.00423007
0.00216705
0.00398282
0.0042068
0.00635624
0.00477834
0.00637872
0.00640718
0.00708953
0.00550976
0.00412901
0.00519887
0.00373898
0.00610884
0.00725155
0.00509872
0.00675939
0.00401862
0.00554573
0.00404197
0.00410272
0.00582043
0.00542574
0.00606847
0.00361203
0.00385966
0.00577433
0.00709346
0.00331552
0.00699527
0.00339679
0.00550938
0.00503142
0.00535986
0.00475801
0.00386016
0.00655133
0.00689239
0.00382754
0.00556632
0.00665879
0.00652551
0.00593292
0.00668935
0.00351622
0.00712069
0.0049405
0.00602962
0.0033327
0.00717362
0.00484948
0.00392649
0.00651889
0.0056283
0.00576312
0.00395008
0.00281908
0.00590726
0.00490318
0.00731012
0.0071402
0.00240846
0.00475754
0.00705059
0.00480794
0.00624887
0.00678848
0.00427688
0.00422856
0.0029258
0.00465602
0.00543498
0.00547333
0.00297769
0.00573216
0.00354637
0.00444898
0.00483971
0.00460334
0.00429087
0.00374132
0.00411618
0.00630652
0.00716141
0.00718375
0.00721835
0.00629112
0.0066045
0.00715014
0.00513678
0.00670087
0.00424925
0.00405167
0.00272465
0.00458191
0.00689568
0.00333826
0.00583515
0.00706501
0.00595122
0.00467716
0.00429631
0.00468377
0.00593901
0.00752112
0.00671369
0.00373403
0.00555428
0.00384322
0.00329088
0.00526825
0.00597729
0.00414901
0.00262479
0.00350781
0.00445152
0.0035076
0.0068925
0.00614203
0.00371209
0.00493237
0.00684938
0.00406771
0.0058889
0.00639308
0.00454169
0.00418274
0.00348432
0.00617471
0.00511095
0.0064508
0.00638323
0.00278993
0.00452899
0.00386826
0.0028149
0.00604206
0.00408806
0.00724074
0.00422056
0.00681008
0.00366015
0.00704074
0.00437432
0.00431317
0.00432993
0.0070285
0.00712177
0.00717338
0.00714083
0.00716769
0.00726908
0.00491362
0.00401388
0.00666454
0.0065391
0.00463672
0.00235518
0.00417006
0.00220411
0.00680764
0.00583594
0.00375798
0.00569307
0.00608881
0.0021795
0.0067556
0.00576689
0.00613339
0.00717928
0.00424926
0.00450527
0.00410604
0.00454784
0.00357446
0.00411005
0.00641316
0.00685549
0.00708049
0.00506238
0.0054606
0.00615551
0.00547254
0.00312243
0.00401115
0.00488412
0.00701954
0.00714685
0.00507586
0.00706328
0.00700369
0.00550933
0.00402414
0.00502492
0.00499648
0.00705638
0.00658636
0.00407453
0.00373792
0.00334902
0.00270483
0.00612887
0.0034874
0.00437121
0.00360629
0.00589696
0.00693573
0.00513932
0.0063766
0.00459543
0.00561344
0.00608584
0.00522911
0.00667935
0.00529031
0.00474225
0.00408909
0.0056318
0.00710146
0.00688886
0.00620982
0.00463217
0.00697217
0.00498703
0.00519543
0.00436979
0.00500487
0.00404899
0.00673153
0.00635771
0.00648864
0.00618835
0.00642146
0.00672159
0.00636195
0.00639524
0.00690762
0.00660445
0.00646808
0.00692595
0.00365328
0.00405693
0.00536303
0.00445459
0.00382441
0.00699263
0.00611913
0.00357256
0.00631783
0.00435814
0.00363077
0.00463927
0.0047593
0.00458887
0.00666706
0.00477264
0.00632337
0.00686965
0.003524
0.00574401
0.00374006
0.00465113
0.00506316
0.00707712
0.00489773
0.0064994
0.00415382
0.00478976
0.00597469
0.00705075
0.00417987
0.00721961
0.00714934
0.00414109
0.00677802
0.00646128
0.00560728
0.00440466
0.00665772
0.00514074
0.00384583
0.00620696
0.00408753
0.00351715
0.00347439
0.00462542
0.00607272
0.00578606
0.00566455
0.00662956
0.00638614
0.00396857
0.00401652
0.00474019
0.00469354
0.00470202
0.00411046
0.00339373
0.00523356
0.00705417
0.00518028
0.00485587
0.0044984
0.00679059
0.00466544
0.00356933
0.00586847
0.00386195
0.00471045
0.00413044
0.00483921
0.00473362
0.00339462
0.00477235
0.00434311
0.00478381
0.00497632
0.00491091
0.00547255
0.00647691
0.0060327
0.0029295
0.00508287
0.00666485
0.00680617
0.00645045
0.00707347
0.00592455
0.00558842
0.00453547
0.0046628
0.00703039
0.00684244
0.00259456
0.00485013
0.00661479
0.00475296
0.00545213
0.0051345
0.00701684
0.00549183
0.00271973
0.0036327
0.00400699
0.00633509
0.00639097
0.00462736
0.00606338
0.00719553
0.00444843
0.00540368
0.00524766
0.00640838
0.00383827
0.00706906
0.00714281
0.00406438
0.00434081
0.0069589
0.00517667
0.006207
0.00438775
0.00687571
0.00226973
0.00615163
0.00568329
0.00596491
0.00589965
0.00385815
0.00519897
0.00655593
0.00722758
0.00681013
0.00710247
0.00617021
0.0044738
0.00384719
0.00517961
0.00356568
0.00697742
0.00678045
0.00285738
0.00485852
0.00664975
0.00715768
0.00618635
0.00628775
0.00560863
0.00616628
0.00388925
0.00712769
0.00531215
0.00712471
0.00644433
0.00542042
0.00381904
0.00482625
0.00685446
0.00451086
0.00698937
0.00517505
0.00468336
0.00721299
0.00687122
0.00430588
0.00390713
0.00497629
0.00668232
0.00670714
0.00225879
0.00711078
0.00715701
0.00495978
0.00220896
0.00495745
0.00431847
0.00606464
0.00722418
0.00699628
0.00439557
0.00687666
0.00689267
0.00666342
0.00577472
0.00440002
0.00704886
0.00418094
0.00412335
0.00489164
0.00694532
0.00681908
0.00715554
0.00494443
0.00485445
0.00617235
0.00536892
0.00328516
0.0028785
0.00581536
0.00724799
0.00452261
0.00356592
0.00684548
0.0068551
0.00659061
0.00656929
0.00712138
0.00647705
0.00723511
0.00544139
0.00458657
0.00481582
0.00653566
0.00682782
0.0069134
0.00682912
0.00658926
0.00709441
0.00652612
0.00714389
0.00396223
0.00718522
0.00717908
0.00343367
0.00416127
0.00391484
0.00602142
0.00317269
0.00626396
0.00437762
0.0052088
0.0038571
0.00386834
0.0055571
0.00441583
0.00544769
0.00212612
0.0070852
0.00683362
0.00679704
0.00693262
0.00679321
0.0061416
0.00702103
0.00694897
0.00676665
0.00364501
0.00347936
0.00326921
0.00720915
0.00469273
0.00376198
0.00689411
0.0045913
0.00635489
0.00728119
0.00692186
0.00727176
0.00719564
0.00209341
0.00472882
0.00586439
0.00703732
0.00688662
0.00448623
0.00653041
0.00414698
0.00358693
0.00694661
0.00579928
0.00333121
0.00428949
0.00635816
0.00691801
0.00713202
0.00584223
0.00636975
0.0072306
0.00359416
0.00334077
0.00715751
0.00680364
0.00398082
0.00348195
0.00425931
0.00654561
0.00660644
0.00429052
0.00594051
0.00530626
0.00659695
0.00657234
0.00446052
0.00486848
0.00707247
0.00668321
0.00515328
0.00462581
0.00343759
0.00631835
0.00391691
0.00498103
0.0038889
0.0054997
0.00661291
0.00551764
0.00524227
0.00333588
0.00680933
0.00350223
0.00695654
0.00684009
0.00649294
0.00344359
0.00502782
0.00410316
0.00679446
0.00639343
0.00654462
0.00708228
0.00642788
0.00649856
0.00442514
0.00719415
0.00642785
0.00716841
0.00717639
0.0064269
0.00699541
0.00420412
0.00427846
0.00236931
0.00637505
0.00639516
0.00400067
0.00602896
0.00409435
0.00451292
0.0033251
0.0041585
0.00477042
0.00666065
0.00560685
0.00513515
0.0069427
0.00627567
0.00632176
0.0069817
0.00360662
0.00479637
0.00421897
0.00457622
0.00658072
0.0054125
0.00624529
0.00665772
0.00628941
0.00686894
0.00720303
0.00634679
0.0048704
0.00660435
0.00615958
0.00633476
0.0043291
0.00568907
0.00540137
0.00688732
0.00415796
0.00606717
0.00648837
0.00633586
0.00715514
0.00399697
0.00702468
0.00631769
0.00600795
0.00689292
0.00695302
0.00634401
0.00693459
0.00423342
0.00341514
0.00571684
0.00703468
0.00618376
0.00712931
0.00659279
0.00709901
0.00718915
0.00714231
0.00711556
0.0064011
0.00713257
0.00349894
0.0043635
0.00601798
0.00703196
0.00690432
0.00696194
0.00407046
0.00646145
0.00400144
0.00327411
0.00723276
0.00717433
0.00713707
0.00713737
0.00721196
0.00439576
0.00680228
0.00558674
0.00463255
0.00474826
0.00534608
0.00606486
0.00725602
0.00501544
0.00679582
0.00392898
0.00333586
0.00315677
0.00688987
0.00614743
0.00471266
0.00496263
0.00499063
0.00541515
0.00480913
0.0053367
0.0072482
0.00353575
0.0046454
0.00314356
0.00332077
0.00403731
0.00681899
0.0041942
0.00191394
0.00443155
0.00605101
0.00498499
0.00438453
0.00395989
0.00507208
0.00610851
0.00708462
0.00710729
0.00315803
0.00473297
0.00573619
0.00645207
0.00713816
0.0035384
0.00644112
0.00358264
0.00386587
0.00452017
0.00318069
0.006184
0.00471242
0.00678063
0.00353746
0.00386995
0.00522967
0.00673927
0.00432528
0.00701692
0.00495169
0.00488748
0.00443981
0.00604557
0.00650603
0.00409156
0.00383844
0.00339256
0.00346626
0.00700942
0.00477778
0.00355221
0.00355659
0.00482353
0.00451939
0.00623857
0.00424754
0.00705952
0.00692017
0.00473579
0.00712397
0.00711923
0.00707737
0.00425962
0.00708528
0.00567908
0.00424876
0.00502814
0.00554699
0.00503235
0.00385032
0.00426867
0.00319442
0.00704427
0.00690382
0.00724652
0.00717614
0.00678089
0.00729005
0.00390949
0.00201546
0.00715796
0.00620594
0.00609953
0.00359941
0.00708535
0.00697689
0.00430047
0.00649934
0.00481959
0.00535741
0.00639167
0.0065061
0.00474142
0.00723772
0.00575724
0.00696383
0.0052041
0.00568891
0.00666304
0.00677226
0.00507034
0.00410761
0.00713846
0.00614538
0.00228635
0.00494498
0.00702525
0.00255483
0.00399998
0.00600061
0.00471247
0.00570314
0.00277622
0.00456689
0.00671744
0.00657306
0.00648935
0.00658814
0.00336841
0.00550456
0.0068166
0.00472547
0.00637529
0.00452993
0.00484226
0.00616232
0.00719066
0.00420119
0.00318349
0.00408881
0.00653914
0.00585934
0.00417768
0.00457148
0.00712536
0.00720857
0.00634599
0.00714473
0.0038755
0.00497732
0.00342343
0.00321631
0.00687286
0.00708569
0.00712224
0.00725697
0.00630056
0.00475062
0.00626472
0.00282569
0.00552868
0.00287943
0.00703438
0.00718944
0.00663125
0.00708345
0.00382511
0.00441741
0.00693602
0.00618623
0.00689797
0.00671292
0.00309427
0.00341234
0.00423263
0.00581394
0.00641628
0.00581794
0.0039066
0.00656012
0.00671367
0.00671129
0.00385457
0.00522142
0.00590905
0.0057353
0.00598079
0.00620039
0.00705027
0.00658429
0.00320319
0.00331918
0.00485039
0.00340114
0.00458553
0.0049035
0.00368311
0.00479169
0.00488646
0.00694426
0.00379056
0.00633945
0.00721932
0.00374605
0.00360166
0.00341179
0.00558222
0.00600736
0.00309974
0.00343303
0.00313144
0.00337582
0.00390446
0.00677136
0.00372996
0.00353838
0.00499797
0.00655365
0.00342952
0.00346016
0.00314661
0.00648967
0.00661748
0.00398979
0.00437585
0.00700337
0.00723445
0.00727769
0.00693298
0.00509149
0.00681053
0.00701904
0.00410314
0.00410934
0.00513399
0.00476938
0.00510726
0.00388261
0.00385456
0.0050615
0.00402759
0.0028185
0.00430588
0.00430187
0.0056336
0.0044021
0.00449585
0.00451867
0.00256527
0.00498558
0.00255686
0.00335658
0.00370591
0.0031898
0.00355217
0.00390133
0.004343
0.00439151
0.00428277
0.00433473
0.00559422
0.0037573
0.00380008
0.00464001
0.00436506
0.00427656
0.00453995
0.00297263
0.00487128
0.00284825
0.00358725
0.00519304
0.00317137
0.0059198
0.0034603
0.00439775
0.00493877
0.00497905
0.00365669
0.00372605
0.00475549
0.00614658
0.00371109
0.00468842
0.00421809
0.00334674
0.00342749
0.00329148
0.00286013
0.0030092
0.00517034
0.00341438
0.00567537
0.00282424
0.00459772
0.00334184
0.00397106
0.00396124
0.00277789
0.00376
0.00428495
0.0034796
0.00294833
0.00576785
0.00513027
0.00615232
0.00534275
0.00351864
0.0034071
0.00454631
0.00380776
0.00682527
0.00711015
0.00577669
0.0034007
0.00613227
0.00470931
0.00525261
0.00437625
0.00628205
0.00186484
0.00391749
0.00403883
0.00501905
0.0036702
0.00433753
0.00358297
0.00663079
0.00512343
0.00286249
0.00728157
0.00706648
0.00701616
0.0072664
0.00714355
0.00673858
0.00717402
0.00654601
0.00669196
0.00631066
0.0071947
0.00506197
0.00468523
0.00375694
0.00715044
0.006977
0.00621513
0.00612574
0.00400661
0.00376485
0.00380792
0.00501531
0.00582766
0.00465973
0.00462612
0.00719679
0.0067289
0.00647884
0.00360749
0.00619294
0.00385737
0.00414508
0.0036616
0.00301649
0.00701114
0.00529179
0.00529273
0.00681875
0.00517888
0.00683778
0.00669627
0.00694807
0.00670111
0.00654493
0.00472857
0.00452226
0.00683919
0.00694808
0.00492622
0.00496852
0.00537777
0.00712687
0.00663341
0.00675787
0.00665024
0.00681181
0.00697195
0.00718833
0.00713557
0.00636112
0.00500653
0.00722151
0.00501667
0.0065392
0.00551601
0.00701698
0.00607827
0.00440062
0.00702984
0.00685381
0.00692858
0.007104
0.00587659
0.00427074
0.00722821
0.00722363
0.00652411
0.00656931
0.00543978
0.00378801
0.00643463
0.00606969
0.00562985
0.00478083
0.00417622
0.00400841
0.00469993
0.0038294
0.00384412
0.00348706
0.00697621
0.00353915
0.0042212
0.00426164
0.00320525
0.00619865
0.0066832
0.00329727
0.00640262
0.00315005
0.00476621
0.00338303
0.00578463
0.00432693
0.00399392
0.00638101
0.00407476
0.00345044
0.00437574
0.0037348
0.00515949
0.00668437
0.00594837
0.00471914
0.00714366
0.00444474
0.00656626
0.00402316
0.00696042
0.00347106
0.00457755
0.00424722
0.00440502
0.00711895
0.00393486
0.0039809
0.0034353
0.0036422
0.00710479
0.00589026
0.00714648
0.00380077
0.00486918
0.00434049
0.00724476
0.00356283
0.00651472
0.00703911
0.00509947
0.00356445
0.00701897
0.00550791
0.00723204
0.00333194
0.006144
0.00615735
0.00705296
0.0052671
0.00683208
0.0035444
0.00322515
0.00385471
0.00521689
0.00337068
0.0025153
0.00707702
0.00715824
0.00520332
0.00482214
0.00593488
0.00500453
0.0039626
0.00346916
0.00304965
0.00530004
0.00710962
0.003651
0.00383141
0.00703554
0.00722699
0.00371697
0.0041225
0.00701803
0.00703467
0.00698642
0.00650483
0.00447161
0.0062915
0.00719475
0.00714731
0.0066217
0.00723482
0.00454135
0.00457845
0.00718125
0.00681415
0.00691469
0.00705887
0.00500481
0.00491708
0.00361478
0.00367065
0.00590695
0.00348566
0.00587973
0.00448496
0.00344173
0.0068171
0.00332361
0.00619953
0.00376536
0.00588562
0.00500087
0.00716751
0.00349548
0.00393755
0.00666395
0.00397618
0.00263513
0.00337821
0.00640913
0.00333604
0.00422054
0.00503146
0.00290166
0.00301646
0.0021648
0.00294038
0.00440828
0.00697948
0.00494387
0.00238198
0.0021654
0.0023406
0.00223019
0.00375738
0.00687564
0.00368381
0.00448176
0.00364413
0.00401016
0.00468761
0.00615302
0.00529309
0.00346292
0.00418872
0.00209249
0.00656305
0.00689331
0.00395912
0.00406239
0.00402848
0.00529039
0.00448951
0.0049546
0.00407536
0.00457475
0.00684384
0.00655246
0.00589604
0.00408767
0.00525681
0.00539034
0.00345358
0.0069467
0.00506434
0.00347744
0.00405373
0.00684899
0.00379923
0.00435661
0.00439571
0.00669267
0.00619147
0.00455121
0.00401535
0.00404986
0.00708673
0.00502346
0.00611181
0.00651319
0.00457649
0.00651294
0.00245319
0.0035436
0.00563227
0.00356689
0.00447779
0.00358006
0.00469645
0.00454734
0.00683019
0.00722076
0.00473191
0.00452197
0.00452882
0.00671865
0.00287959
0.00374842
0.00422134
0.00465275
0.00645628
0.00375102
0.00606796
0.00707853
0.00522725
0.00528566
0.00504148
0.00684679
0.00458499
0.00532275
0.00470389
0.00716882
0.00592427
0.00627051
0.00435027
0.00280412
0.00395152
0.00402321
0.0032232
0.00467724
0.00381188
0.00362385
0.00502382
0.00519223
0.00357499
0.00659444
0.0070514
0.00244399
0.00363835
0.00214482
0.00642297
0.0067875
0.00607308
0.00630395
0.00619376
0.00663215
0.00437691
0.0058007
0.00539424
0.00421865
0.00367558
0.00366738
0.0041725
0.0052987
0.00635981
0.00460677
0.00502469
0.00696295
0.00386905
0.00668446
0.00594744
0.00629225
0.00692171
0.00712755
0.002265
0.00377678
0.00316948
0.00252602
0.00204504
0.0055728
0.00425836
0.00228952
0.00621463
0.0066828
0.00572825
0.00542261
0.00656844
0.00665174
0.00575354
0.00377179
0.00459451
0.0028353
0.00681662
0.00678828
0.00640406
0.0062373
0.00720421
0.00692125
0.00707016
0.00189715
0.0043194
0.00284353
0.00668917
0.00393949
0.0019909
0.00350989
0.00309335
0.00307829
0.00531152
0.00315902
0.0030518
0.00597194
0.00631317
0.00566064
0.00313737
0.00626236
0.00703887
0.00679785
0.00702958
0.00716234
0.00664754
0.00711479
0.00344788
0.00387336
0.00429052
0.00341003
0.00611444
0.00428179
0.00479307
0.00248254
0.004749
0.00675844
0.0071219
0.00400748
0.00441737
0.00457597
0.00719361
0.00345071
0.00658411
0.00435608
0.0046947
0.0062475
0.00231915
0.00422864
0.00717981
0.00431393
0.00653005
0.00429162
0.00412345
0.00411059
0.00479241
0.00585113
0.00718435
0.00388072
0.00398381
0.00424253
0.00704683
0.00356884
0.00569848
0.00716683
0.00520832
0.00499879
0.00456642
0.00574596
0.00647443
0.00353894
0.00482026
0.00632106
0.00532084
0.00638931
0.00313601
0.00420105
0.00697804
0.00662815
0.00564475
0.00479773
0.00489794
0.00710244
0.00649804
0.00308081
0.00477336
0.00364572
0.00679737
0.00486825
0.00419552
0.00719718
0.00279247
0.00676111
0.00687066
0.00699135
0.00627308
0.00649118
0.00710281
0.0051854
0.00308012
0.00355358
0.00424425
0.00697144
0.00715489
0.00668797
0.0061343
0.0051169
0.00698675
0.00249771
0.00704506
0.00320748
0.0045584
0.00419482
0.00573731
0.00515855
0.00640028
0.00565163
0.00502376
0.00464072
0.00465044
0.00717985
0.00305469
0.00232452
0.00370632
0.00715385
0.00656982
0.00566502
0.00709979
0.00603731
0.00705174
0.00642184
0.00356557
0.00534332
0.00719792
0.00539172
0.00640429
0.00584371
0.00451291
0.00378458
0.00663276
0.00706826
0.00423962
0.00638613
0.00647777
0.00702628
0.00660001
0.00713982
0.00509832
0.00655161
0.0033721
0.0041138
0.00413317
0.00458618
0.00693702
0.00694463
0.00691527
0.00703826
0.00423707
0.00257536
0.00683406
0.00286571
0.00565789
0.00566188
0.00372471
0.0026551
0.00389327
0.00464013
0.00675981
0.00707574
0.00410517
0.00595559
0.00504374
0.00653034
0.00357185
0.00446903
0.00330821
0.00580468
0.0071042
0.00286249
0.00493633
0.00687894
0.00579604
0.00426552
0.00678312
0.00700632
0.00705786
0.00555035
0.00635494
0.00701284
0.00613963
0.00472932
0.00583633
0.0045108
0.00247996
0.00252643
0.00680362
0.00333323
0.00554055
0.00395772
0.00661857
0.00687822
0.00574865
0.00577118
0.00693978
0.00693496
0.00579335
0.00518354
0.00648429
0.00380439
0.00460938
0.00676567
0.00488279
0.00696741
0.00703539
0.00401256
0.00672256
0.00315511
0.00670387
0.00658813
0.00509664
0.00429101
0.00709987
0.00700966
0.00591672
0.00599979
0.00618977
0.0040503
0.00317838
0.00667222
0.00356846
0.0067669
0.00401258
0.00570663
0.00611667
0.00505671
0.00696652
0.00702408
0.00668958
0.00618719
0.00688166
0.00378426
0.0040938
0.0058417
0.00428633
0.0070474
0.00423721
0.00671413
0.00713628
0.00627135
0.00693251
0.00444547
0.00647635
0.0065598
0.00713743
0.00690622
0.00580014
0.00380318
0.00342775
0.00702137
0.00592421
0.00680914
0.00528212
0.00369889
0.00648123
0.00707023
0.00594288
0.00635907
0.00691425
0.00706555
0.00390148
0.00707295
0.0055134
0.0055747
0.00338805
0.00387075
0.00350402
0.00672462
0.00406504
0.00620626
0.00420094
0.0040902
0.00310679
0.00383509
0.00340979
0.00508721
0.00427371
0.00619345
0.00711296
0.00567275
0.00412768
0.00473399
0.00483356
0.00418522
0.00712367
0.003624
0.00361073
0.00378565
0.00409548
0.00285867
0.00359717
0.007115
0.00687738
0.00713844
0.00698945
0.00590516
0.00693543
0.00662273
0.00353908
0.00349718
0.00314076
0.00665325
0.00405112
0.0030428
0.00379088
0.00328017
0.00441021
0.00385215
0.00711621
0.00678935
0.00697076
0.00715299
0.00589117
0.0068393
0.00516737
0.00713039
0.00436472
0.00665691
0.00226228
0.0023081
0.00488662
0.00279521
0.00382251
0.00415968
0.0057836
0.00685689
0.00509109
0.00252566
0.00345076
0.00566191
0.00368218
0.00446627
0.0044607
0.00368759
0.00394249
0.00382485
0.00376331
0.0048098
0.00603754
0.00429488
0.00408104
0.00400534
0.00378149
0.00448218
0.00502011
0.00635086
0.00601057
0.0062971
0.00686863
0.0055261
0.00363024
0.00626952
0.0047691
0.00578114
0.00514455
0.00626817
0.00539027
0.00529828
0.00512125
0.00438131
0.00418642
0.00597104
0.00417742
0.00471585
0.00467356
0.00445531
0.00607844
0.00622613
0.00421703
0.00686977
0.00640335
0.00537159
0.00311234
0.00542422
0.00349495
0.00408189
0.00512054
0.00473257
0.00483905
0.00361409
0.0066562
0.00447882
0.00481215
0.00346772
0.00358201
0.00439499
0.00712968
0.0036222
0.00397425
0.00721263
0.00390958
0.00388329
0.00482412
0.00428631
0.00444866
0.00420893
0.00434777
0.00431879
0.00342441
0.00340172
0.0046139
0.00718876
0.00407957
0.00254969
0.006773
0.00385108
0.0043684
0.00722058
0.00433086
0.00447234
0.00648372
0.0046307
0.0051602
0.0050822
0.0063037
0.00684383
0.00384295
0.00684534
0.00310056
0.00484755
0.00447871
0.00708261
0.00447579
0.00597816
0.0058908
0.00408979
0.00478273
0.00491014
0.00648962
0.00693077
0.00367222
0.00496201
0.00359319
0.00620589
0.00546926
0.00640265
0.00555731
0.00352346
0.00614849
0.0068188
0.00584736
0.00502056
0.00495873
0.00267398
0.00673856
0.00489894
0.00630488
0.00687429
0.00399023
0.00258383
0.00247323
0.00443877
0.00403938
0.00714756
0.00316492
0.00466134
0.00231925
0.00729333
0.00715287
0.00718603
0.00557553
0.00736624
0.00717031
0.00356833
0.00662842
0.00505561
0.00676486
0.00444101
0.00657017
0.00431983
0.00332666
0.00470162
0.0065945
0.00428095
0.00438166
0.00399218
0.00402451
0.00670981
0.00453799
0.00695627
0.00423964
0.00666804
0.00322524
0.00398768
0.0066072
0.00628564
0.00612275
0.00715537
0.00446524
0.00692047
0.0050983
0.0071295
0.00455584
0.00475246
0.00352137
0.00482208
0.0050813
0.00712451
0.00415635
0.00648327
0.0046947
0.00492133
0.00412595
0.00381129
0.00615544
0.00672622
0.00716629
0.00340731
0.00430459
0.00414273
0.00727186
0.00688297
0.00619238
0.00648195
0.00418866
0.00572507
0.00683265
0.00654235
0.00534672
0.00432199
0.00503209