/*--------------------------------*- C++ -*----------------------------------*\
| =========                 |                                                 |
| \\      /  F ield         | OpenFOAM: The Open Source CFD Toolbox           |
|  \\    /   O peration     | Version:  2506                                  |
|   \\  /    A nd           | Website:  www.openfoam.com                      |
|    \\/     M anipulation  |                                                 |
\*---------------------------------------------------------------------------*/
FoamFile
{
    version     2.0;
    format      ascii;
    arch        "LSB;label=32;scalar=64";
    class       volScalarField;
    location    "0.0625936";
    object      omega;
}
// * * * * * * * * * * * * * * * * * * * * * * * * * * * * * * * * * * * * * //

dimensions      [0 0 -1 0 0 0 0];

internalField   nonuniform List<scalar> 
3919
(
71.8867
71.3293
101.719
137.508
79.6029
68.7633
104.981
63.3076
44.135
78.027
70.3509
55.4927
68.2456
55.2695
67.0777
96.0095
47.3077
49.8219
58.3043
61.3827
52.1742
81.3535
42.8146
48.1345
42.6766
71.9586
43.5961
49.9077
106.373
85.6007
70.3794
52.7065
44.008
60.3338
46.0034
46.7905
149.311
72.0167
46.5937
72.4212
65.8725
53.4952
46.4598
72.4518
164.971
112.468
181.235
83.4849
59.8666
42.5569
43.2773
77.6658
42.5362
67.1683
91.5976
42.8782
119.944
124.638
44.2602
62.9174
123.266
79.7132
104.324
91.0623
56.8018
67.6606
43.7416
85.8854
60.3526
42.7059
48.3844
86.4683
116.535
104.294
122.016
93.2786
47.1198
43.7791
52.361
72.011
74.8435
42.9373
45.6313
52.9584
50.7279
50.7017
59.6603
83.4414
83.5225
80.7453
94.5967
130.948
129.87
42.8862
83.7791
82.6824
80.4899
65.7326
88.8795
48.8383
45.4183
69.8654
102.773
47.1511
145.73
46.4141
94.0892
82.3871
74.573
81.1427
89.2322
67.1819
71.0009
48.7149
47.694
49.5699
49.1116
57.6964
80.1821
77.6625
64.7303
67.4426
43.078
105.609
46.8534
51.6657
43.9023
69.5349
111.389
61.8127
46.5724
74.1331
127.219
42.6817
57.4631
59.4422
69.4166
61.5128
69.1593
76.2065
58.5028
42.2032
73.5097
43.4483
51.5837
62.9714
146.541
45.8403
46.4574
58.9549
70.2247
45.4235
54.8519
55.6402
48.4814
43.9729
43.8979
71.7375
43.0929
70.838
52.0798
88.5266
126.58
49.4504
94.4298
121.662
125.039
78.0972
68.1186
43.2423
168.994
59.5341
48.4255
46.3394
118.194
67.563
83.4469
48.324
80.0386
85.9925
186.417
86.9052
43.7096
70.4943
83.8096
68.9836
88.3153
56.9147
72.564
79.828
64.8375
67.7826
113.197
61.8293
78.4018
44.4026
95.1032
46.8633
91.0589
135.854
44.6775
77.1932
46.8092
69.8917
89.2052
42.4854
41.9886
115.396
70.6692
81.4337
119.115
46.6661
43.5161
43.0229
89.9077
42.9163
42.8674
72.7065
72.1795
48.1699
43.0867
61.0142
68.7301
67.407
43.5011
48.1108
78.8052
71.9988
82.9828
65.0096
119.941
56.2333
125.812
71.0578
69.2142
66.4491
54.0793
54.0363
73.2014
67.454
191.799
91.3582
89.6775
184.609
188.358
72.6459
96.2902
124.369
162.556
99.1379
104.942
184.46
124.468
107.424
106.77
113.417
91.7732
73.8243
79.9886
107.973
70.0024
84.5766
123.051
121.652
85.993
151.428
86.7559
181.857
78.3096
81.372
57.2121
108.454
107.022
143.691
80.7052
79.2455
43.534
151.379
83.5496
88.5656
87.3778
61.4006
120.525
55.0972
100.583
54.6648
43.9962
103.864
80.4725
179.138
43.7838
68.9824
70.193
42.5731
79.1326
151.125
52.6644
64.6316
48.5501
166.78
69.8713
74.6757
68.6285
72.0018
46.967
78.8423
157.024
97.8413
50.2232
70.7608
89.3316
88.1022
68.2477
112.997
86.9357
65.334
80.2782
169.773
56.5364
68.901
76.044
44.7034
74.701
72.228
70.3692
79.7028
60.1493
61.2312
87.656
51.3145
60.0979
42.8652
48.8836
81.322
48.2602
45.4331
181.959
94.9005
78.8806
64.6101
86.6127
82.7614
67.3134
123.949
67.5117
44.049
90.9955
93.393
60.3865
64.8565
137.873
64.5631
43.9422
62.1863
74.2989
85.7768
75.1195
102.143
90.4661
42.6187
45.4938
61.9022
63.9636
54.7608
42.8202
43.2043
42.8203
93.864
49.295
43.0673
56.5716
80.1292
42.7368
67.9151
94.522
78.5791
48.3281
45.9028
52.0312
78.5656
87.39
153.258
90.7676
90.5046
95.7066
54.655
101.645
84.0664
67.5415
90.5706
76.1023
111.987
68.4894
186.496
90.5204
88.1813
165.451
128.669
168.204
43.4849
56.9427
86.1169
101.273
43.2377
70.2417
68.9663
61.1659
105.164
102.452
127.96
82.4392
68.5054
76.8535
64.4176
123.97
78.8413
99.9006
87.6863
126.771
47.9481
66.6227
123.442
51.8562
123.487
119.227
76.349
44.2179
47.8725
83.5523
76.8204
52.4399
68.8324
60.8912
73.416
60.1511
114.323
95.3039
112.121
91.844
204.176
199.928
100.228
114.921
105.532
124.067
91.9575
92.0374
100.116
68.7254
80.1874
65.8672
108.318
72.7516
64.6976
147.481
121.473
49.4803
84.8051
85.7439
82.7324
97.2689
164.989
166.547
98.4245
126.341
107.267
45.4455
60.1821
45.1197
47.4365
50.2942
55.2668
95.7386
148.381
68.3358
88.1458
102.368
145.944
134.123
49.8584
100.85
61.7904
88.2681
43.9058
86.46
86.5759
72.7044
78.5142
94.7408
90.2616
43.5526
60.8106
87.202
126.538
81.0508
76.6566
63.3901
123.788
61.2512
90.5194
66.7933
75.1777
61.9708
144.214
66.8671
70.3164
72.6809
91.2876
130.601
73.5878
81.5273
83.5572
77.6928
68.8565
61.4033
52.1584
115.72
56.9923
76.1737
129.03
65.3182
90.2705
78.0499
48.4561
77.051
57.9894
70.3176
90.584
96
86.4337
141.843
112.019
110.825
48.8229
44.0465
60.0663
91.7662
80.4718
226.555
115.443
230.476
98.6727
111.911
71.4882
53.6749
89.9842
72.2696
79.0761
83.0202
55.236
113.956
55.2317
76.9901
110.07
116.886
183.919
131.576
116.737
123.657
107.133
105.714
75.0213
45.5111
46.5434
88.6746
60.8475
42.7216
87.6399
142.36
91.5498
44.3714
52.5465
74.3709
73.8096
175.211
81.6367
82.0239
78.3911
57.8803
68.9913
41.7292
43.5938
99.2014
68.8914
90.8735
55.4131
79.5938
59.4786
89.8985
72.0449
88.5065
78.0127
97.8563
104.855
102.204
99.9008
100.818
98.9111
98.2215
49.0837
62.1111
79.727
46.9565
49.0299
43.4717
57.9256
47.9294
99.5803
74.1264
77.0294
48.2787
86.338
45.4878
70.3041
47.5394
80.1623
71.5522
58.0588
43.7905
44.6075
95.5225
70.6556
91.0792
62.169
70.005
57.1338
53.477
43.2738
76.6197
141.488
42.1671
59.8394
86.7204
63.7656
61.7699
84.6911
129.683
111.824
92.7824
163.161
42.9165
68.7038
69.8832
49.684
43.6613
186.365
59.5977
80.0509
66.3818
42.5525
43.003
54.742
103.803
44.5314
56.6451
46.1458
44.8955
47.1801
42.5041
90.4849
72.5755
105.892
46.802
56.2818
93.694
48.5806
70.719
88.5961
64.8631
82.4013
43.7161
61.9387
48.0381
42.7005
49.1788
43.8008
59.4557
50.0177
47.0651
63.2639
108.82
53.0555
98.8651
59.5913
44.3978
78.2006
92.2103
72.5155
50.003
45.0276
98.1375
48.3878
44.7052
79.0477
142.632
64.2036
42.2742
42.9053
71.2419
93.9941
88.9249
42.4266
53.2842
44.9375
95.0735
123.11
103.893
93.1456
84.2647
96.1418
107.345
68.3886
52.0105
70.4295
62.0601
44.7905
106.746
45.8744
45.4313
48.9891
49.7286
46.9237
76.7468
46.2937
42.6106
77.9633
70.8207
86.3883
81.468
134.035
86.8923
78.0548
143.547
71.8335
42.0486
48.5067
43.6107
82.8059
55.4026
100.479
71.5536
81.7781
81.3014
66.7828
55.1637
59.0883
53.715
102.319
57.1566
60.8457
46.1484
99.5039
50.4088
42.6386
56.5137
60.8568
107.489
42.7809
66.5211
54.62
126.1
42.6294
86.0803
117.735
69.5561
141.357
45.0083
63.5487
76.4333
100.324
63.2203
48.1059
50.8191
52.52
98.4324
42.7149
83.1895
50.0919
71.5491
65.0308
55.0132
69.2701
63.7158
91.7412
64.0996
79.1081
87.4265
44.3883
79.6542
173.668
90.115
76.9507
48.0535
63.3699
47.8529
47.4816
43.0857
57.2374
75.7148
59.8654
90.4102
49.5933
41.7456
59.3375
44.9464
89.3315
54.1853
84.1098
84.451
51.5201
59.6939
49.4648
90.8853
82.1906
56.4915
42.9828
113.65
43.5254
102.097
55.1706
61.4906
55.7551
67.4092
88.3772
46.109
44.1241
90.1047
54.2819
45.8549
47.0599
51.9792
45.317
105.295
43.1226
67.6835
50.9869
99.9371
42.4724
62.8979
80.0672
46.5144
53.3067
52.4822
86.0179
128.334
51.9761
64.8452
42.0624
42.9056
144.265
65.1246
43.2122
64.4475
49.1255
46.7956
84.9999
84.0402
119.964
69.9462
57.8762
57.1689
122.079
54.0727
97.1658
68.9899
62.754
66.8712
76.6331
89.8802
81.7882
47.5205
42.8792
42.6098
42.66
47.7988
45.8177
42.9843
59.3632
45.7573
76.6933
83.0423
130.834
70.7229
44.3717
100.881
51.6973
43.1739
51.1089
73.7037
84.1875
74.258
50.6068
45.0807
45.1685
90.5114
54.8675
81.6794
102.095
60.1427
50.7115
78.8254
129.68
88.8664
70.3451
89.5762
43.9764
49.8448
85.3217
65.8403
44.256
80.2192
51.5231
46.8389
76.966
83.1303
99.7304
48.624
61.7421
47.0608
47.4363
122.975
68.4186
83.391
116.135
50.6155
86.6666
41.7953
77.861
44.7536
92.4838
43.5678
76.9763
75.9007
71.61
43.2504
42.767
42.5729
43.0337
42.7066
42.2919
70.5012
85.4835
45.6634
46.2878
73.5126
152.541
85.6858
170.791
44.3606
52.7014
90.1888
55.0151
48.8545
178.344
45.1619
52.1414
49.1811
42.6795
82.4793
69.5226
79.6844
73.4367
97.7919
79.9048
46.7984
44.4773
43.207
62.2887
55.1017
49.7708
54.4596
114.754
88.1518
61.8581
43.4402
42.7119
61.6481
43.3556
43.8415
57.9453
82.8338
62.7373
62.4984
43.6518
46.5202
92.1839
87.7999
110.874
122.733
49.1872
94.6894
71.2958
98.6618
51.452
43.8507
59.5001
47.6312
66.8632
53.7526
49.7198
58.1083
45.106
57.1902
64.9912
80.256
54.2668
43.1101
44.1891
48.6367
64.5585
43.625
65.2457
66.9358
78.3353
61.4827
88.1404
45.1304
47.4714
46.6437
48.7079
47.0162
45.1792
47.96
47.6853
44.14
46.0103
47.0959
44.018
91.5709
81.3206
64.3254
69.8277
90.2031
43.4347
49.2973
94.4297
47.93
69.0985
93.0394
74.2624
65.3732
68.8147
45.2018
64.8617
47.5084
44.0559
98.5047
53.3696
95.837
70.7322
60.8344
42.9685
66.1178
46.5632
82.4233
67.3473
50.967
43.0437
80.6464
42.2698
42.4954
82.1705
45.1322
47.5118
55.0735
72.1774
45.3973
65.0743
89.7503
49.0896
80.9775
100.661
99.4388
67.8655
49.5886
52.475
53.5656
45.4317
47.8528
89.1859
90.262
67.8564
66.3914
66.8475
79.304
100.199
67.4256
42.9049
58.0377
61.3402
68.2948
44.7095
66.3908
86.7682
51.2123
89.8774
63.1292
78.6876
65.6812
68.8382
98.0378
66.0988
72.0386
68.0953
60.4865
61.6307
56.1084
46.5519
51.2476
125.35
64.3456
45.9534
44.7233
47.8494
42.8769
52.371
54.0538
76.8592
68.6862
43.5795
44.5
138.486
64.0291
46.4917
67.5118
57.5809
58.283
43.3266
54.6608
132.509
95.2989
82.0551
48.0489
47.8092
66.0978
49.7265
42.3168
73.2521
55.9715
62.9194
47.3277
88.0988
43.1901
42.9628
83.1167
83.3131
43.3436
68.9386
48.7972
78.7013
44.8534
165.502
49.1549
54.6564
49.7402
50.341
92.2634
60.0405
46.0866
42.1498
44.6705
42.9919
48.3688
71.5079
84.1574
59.5799
94.1988
43.7612
44.9488
118.854
71.8717
45.8278
42.5726
48.6996
49.0037
54.3236
48.574
77.7741
43.0225
59.9784
42.9523
47.3963
60.2962
84.6585
66.4564
44.4779
69.3226
43.3933
61.4706
66.9067
42.3103
44.2324
72.0918
89.3099
61.0626
45.7539
45.5556
159.776
43.0046
42.8555
63.1784
177.022
61.8655
73.6326
50.4723
41.9954
43.5414
71.8514
44.1147
44.092
45.4863
52.2926
75.486
43.3751
75.0614
77.2128
64.9972
43.7149
44.4671
42.7801
60.9876
63.0527
48.2556
56.4675
96.1662
120.326
51.7159
42.1628
67.3634
87.4859
44.3994
44.3326
45.8138
46.2535
42.8641
47.2182
42.1846
55.8924
77.726
70.888
46.8705
44.6308
43.9683
44.2222
46.1548
43.2103
46.6069
42.82
85.2078
42.2574
42.5489
98.2759
77.0531
87.465
50.1323
101.982
48.947
75.3539
59.6686
86.6112
92.83
53.6392
67.9422
58.4122
182.28
43.1363
44.6763
44.9287
43.9449
44.7575
49.6337
43.473
43.949
45.1942
92.2381
99.4367
112.071
42.2633
64.5976
89.3704
44.3407
67.6173
47.5757
42.1339
44.0022
42.1586
42.3819
187.74
63.4645
51.9132
43.2129
44.3942
73.0016
46.4659
76.5045
85.117
43.5125
51.5594
93.7564
71.4086
47.4826
44.0977
42.7407
51.2972
47.3773
42.2379
100.325
102.69
42.7663
44.5528
78.2123
86.3789
74.9315
46.5422
46.0037
71.1728
51.7214
58.18
46.5868
46.7758
71.502
65.9517
43.4218
45.1534
58.2264
71.664
103.183
48.5518
83.4161
61.4075
84.2179
55.8045
45.7595
54.333
59.952
102.984
44.5164
96.6877
43.6767
44.5875
46.6053
105.42
66.0219
81.8458
44.865
47.305
45.9501
43.0639
46.5424
46.1865
70.4187
42.1983
47.2183
42.2721
42.2374
47.2692
43.5998
75.1243
76.0842
153.456
47.5701
47.5564
89.8125
50.1491
75.986
78.8829
103.156
73.062
62.0558
45.8823
53.782
60.2126
43.4405
48.6338
48.185
44.0116
95.2798
70.5934
74.4808
66.9834
46.4829
55.0709
48.8211
45.7651
48.5469
44.2992
42.6154
47.8604
64.4352
46.3092
49.5799
47.4665
71.1402
53.6968
55.5226
44.0044
78.88
49.5129
47.206
48.2975
42.7108
83.3197
43.2819
48.0618
51.4963
43.867
43.592
48.1197
43.6551
78.4637
99.124
53.8161
43.0864
49.3315
42.802
46.2056
42.914
42.424
42.3894
42.9578
47.2015
42.7313
101.554
74.0167
51.6718
43.4459
44.0077
43.8709
80.8294
47.2357
87.1071
107.659
41.8751
42.1854
42.2982
42.4791
42.3252
76.8372
44.5516
55.4398
76.9708
75.9999
56.5995
49.8335
41.9739
63.2893
44.7852
92.874
102.986
114.109
43.9986
49.1615
64.0461
68.8545
66.6102
55.142
66.3537
63.6505
42.432
94.9169
75.3576
112.73
102.69
83.7084
44.8381
79.5665
189.789
71.1627
49.7546
65.5266
80.4977
89.7347
61.6097
49.0893
42.9846
43.1837
108.319
65.2941
52.5177
46.6054
42.5961
89.8233
46.8608
83.9911
81.6363
70.6816
108.03
49.7397
66.8536
44.7886
97.6598
86.0068
63.2231
44.9254
79.025
43.1267
67.837
63.0991
72.3106
50.5917
47.0636
75.5364
91.3862
103.045
94.8377
43.4993
69.7636
95.4629
99.4146
69.2109
68.4488
48.5303
73.5278
43.2092
44.2342
63.4121
42.7076
42.8627
43.3118
73.9797
43.3078
52.9885
73.3865
63.3654
53.7847
60.2911
85.5667
72.6937
110.404
43.2969
44.1849
41.9797
42.7757
44.7105
41.7164
85.9206
189.625
42.9798
48.6736
49.7274
94.2022
43.2927
43.6313
76.9481
46.3838
64.0975
56.6497
47.4209
47.2334
71.8101
42.5601
52.0839
43.9598
59.0017
52.8554
45.1885
44.9046
60.9135
89.1612
42.7024
48.7785
149.634
61.2114
43.334
135.363
94.5508
50.3157
71.3273
53.6733
134.934
70.7669
45.2614
45.8748
46.8509
45.7819
103.12
54.4522
45.0557
69.5167
47.4556
70.229
62.5582
49.4518
42.7374
79.1096
107.157
83.6159
45.9635
57.2607
75.329
70.2719
42.7358
42.3755
47.6485
42.8986
89.0579
61.9496
104.803
108.258
44.3142
42.9809
42.9239
41.8694
48.1467
70.4562
48.6371
128.197
54.1985
119.77
43.7506
42.7058
45.6939
43.1321
89.3448
69.0572
43.8221
48.8182
44.0739
45.2119
107.402
98.4216
85.2631
51.3129
46.7735
52.3226
85.8584
45.9203
44.8556
44.9265
90.6685
62.0259
51.106
52.2173
50.1964
48.7415
43.0574
46.2018
108.79
98.9485
63.994
98.7305
66.7232
72.5364
87.747
69.2227
68.8493
43.645
97.127
47.9915
42.3594
95.9878
96.7912
99.271
53.5686
50.8427
107.068
94.4507
108.162
96.1215
83.7417
44.7849
96.365
91.4214
66.0165
46.3804
98.1563
92.6347
102.755
46.7754
45.85
78.2796
75.1629
43.2408
42.3755
42.2197
43.7294
59.8153
44.4853
43.6805
76.8758
86.2444
66.1444
65.2367
58.9832
80.2492
89.9534
60.6412
74.6226
136.987
78.5
79.7888
54.3443
74.2311
69.9432
69.578
138.349
61.6547
137.896
103.797
85.0801
114.387
88.3415
78.8656
82.6343
83.5557
83.3422
78.7537
57.0432
92.5625
93.6153
66.9852
75.9245
80.9344
71.0954
111.379
63.7909
121.014
94.1081
60.1336
102.72
52.0258
90.7698
75.699
61.8852
60.8982
91.1336
90.0689
65.4799
49.6329
92.4884
76.3837
71.3811
99.0609
93.2744
104.937
117.999
113.311
58.1432
95.2386
53.2326
119.996
66.6669
96.2374
88.7189
88.5008
118.029
84.3704
76.8895
95.3377
124.78
58.7503
58.777
52.3773
64.1366
96.4073
93.3642
67.3912
87.3995
44.6026
43.0583
52.1072
92.6611
49.4091
69.468
59.3276
70.2721
48.4509
205.709
93.4869
91.3766
60.5886
98.2503
70.6717
95.9167
45.9368
59.1226
116.908
41.727
42.8809
43.2243
41.8175
42.2965
45.1741
42.4781
46.8205
45.4656
47.7863
42.3521
61.1552
66.8722
87.1722
42.5618
44.0352
49.1907
49.656
92.3289
97.2644
98.3748
61.6665
52.3631
66.2352
67.3301
42.131
44.9242
46.7371
86.6828
48.7239
79.9508
73.4267
83.3294
108.397
43.5933
58.1655
57.6935
44.6392
61.0815
44.1707
45.5593
43.8011
45.4424
46.4805
64.4261
68.2727
44.6242
43.6699
62.8963
63.1054
56.8714
43.0399
45.8127
44.8049
45.4847
44.806
43.733
42.7136
43.0064
47.3476
64.6317
42.518
63.9613
46.3306
55.1844
43.5591
50.5832
68.2177
43.4762
44.3811
43.8843
43.1249
51.2926
73.9357
42.6456
42.6619
46.7882
46.2337
55.0388
85.7614
47.044
50.0884
53.8084
62.5042
80.1836
81.1296
68.0244
87.999
88.3369
97.3367
43.8126
98.7901
82.4446
78.2368
111.155
48.3114
45.4071
108.423
47.5206
114.805
65.7151
96.781
52.144
77.0685
93.3808
48.0261
79.8443
98.4501
74.0913
97.0058
58.5126
46.0054
51.4227
71.7551
42.9757
74.3751
46.1183
78.2412
43.9856
94.8929
68.0088
72.6038
71.871
42.8935
87.6382
85.0296
99.7067
88.9356
43.0269
51.0944
42.6577
85.2658
67.5578
71.7728
42.1651
99.5911
46.9259
43.2388
61.2263
99.6374
43.8124
57.8401
42.1483
108.139
48.9281
48.9295
43.0501
63.1517
44.8784
93.18
101.719
88.1111
64.3783
100.373
135.658
43.2441
42.3963
61.4062
62.4289
50.6058
64.1498
80.6314
95.0524
114.507
57.6236
42.5289
94.3282
87.1717
42.8665
42.5187
90.5242
81.9146
43.671
43.6273
43.724
46.2607
74.8327
47.6686
42.3287
42.7693
46.3605
42.2916
65.3816
66.7675
42.4509
44.5851
44.1408
42.9004
63.6519
63.4039
96.2572
97.7435
52.6378
99.041
53.9245
71.5219
97.7923
44.4054
109.285
48.4348
88.0009
51.9218
60.7386
42.8653
93.9395
95.1988
45.7554
86.3182
143.538
96.6966
47.2639
110.061
75.8105
63.1963
131.642
113.586
177.616
128.777
77.0542
43.3995
63.1298
161.268
167.113
158.471
162.628
84.8408
44.1082
100.392
73.9202
99.3112
82.2852
68.1776
49.2509
57.0412
88.624
78.9953
168.722
45.8094
44.4017
82.711
80.041
83.8296
57.6413
69.7644
66.3628
84.8046
68.7044
44.6741
45.8237
50.6
84.4694
58.8112
55.776
94.2978
43.5368
68.2969
99.5262
83.4429
44.4281
87.2041
75.0145
75.6877
45.5808
49.3921
70.4653
83.2538
83.9682
43.0414
63.0899
49.8547
46.3054
80.0945
46.0174
136.207
100.605
52.998
97.51
68.6016
97.8704
66.1815
68.7016
46.4466
42.6636
67.8455
68.6194
68.1315
44.9115
118.8
91.2607
76.4401
73.258
47.4471
92.9299
50.8932
43.1359
65.7076
68.0961
61.1986
44.2945
68.8932
58.721
71.2412
42.4965
51.3726
48.7126
77.1745
131.732
91.0666
76.7749
114.742
77.7121
86.392
91.1747
67.3677
60.4572
98.6951
45.9242
43.4955
144.267
87.4483
161.454
47.3528
44.8453
49.6096
48.086
48.886
45.605
76.1906
51.9666
56.0196
76.9135
91.1164
98.8698
75.7274
57.486
47.5404
66.5235
62.1961
43.5511
81.814
45.4068
50.9884
48.7793
43.6497
42.8208
156.471
88.9112
103.391
134.833
171.52
54.3064
74.2073
148.3
48.4031
45.3001
52.189
55.6473
46.2855
46.064
51.8453
92.1333
66.6266
121.328
44.384
45.112
47.6199
48.832
42.1399
43.9159
43.2046
188.127
72.4284
118.866
45.6585
80.9919
181.967
94.2231
115.089
114.53
63.7074
109.182
114.586
49.8802
48.3575
53.5444
107.611
48.446
43.4039
44.9792
43.6066
42.2441
45.6969
42.5938
99.4458
83.4082
71.438
98.3562
50.0066
76.7768
67.7382
152.51
69.0707
45.1889
43.0937
85.3477
70.8396
69.6454
42.238
100.155
46.7345
71.6699
66.1003
48.8873
151.777
81.5866
42.1818
70.7728
46.7116
81.6583
84.7288
84.4693
65.3335
52.3623
42.6094
82.038
81.0758
80.9806
42.9214
91.1877
53.2653
42.5611
60.8445
60.8709
79.9186
52.9917
46.8802
100.552
65.2203
48.04
56.1794
47.9293
105.56
77.5015
43.6835
45.7072
53.4561
65.0849
62.3519
42.705
46.2849
119.526
69.2139
94.6956
45.2536
66.7937
74.0002
42.6166
125.15
45.5217
44.3278
43.7947
48.8181
46.7826
42.948
61.5844
118.136
106.412
80.3216
43.8917
42.4977
45.349
49.8557
60.5843
43.5773
143.957
43.4274
114.307
67.5705
79.8187
53.7238
58.5356
47.7284
56.0904
59.5921
72.4617
64.2494
42.2497
120.606
150.868
91.8237
42.9142
46.1951
53.3038
42.8619
50.0605
43.2841
46.6505
95.4611
56.7134
42.6675
58.6645
47.3443
52.4473
72.3009
84.7297
46.0491
43.1859
71.9497
47.3044
46.6302
43.7584
45.8667
42.9929
59.5455
46.4336
102.424
76.9812
75.7711
65.7733
44.2431
44.3292
44.4992
43.736
71.901
136.944
44.4822
112.988
53.4544
53.2318
83.4924
127.351
81.3746
66.6316
44.9942
43.0253
80.4513
50.5638
59.2789
46.4659
86.8735
70.675
109.525
51.2505
43.0342
129.866
62.1114
44.1983
53.4516
75.494
44.9252
43.6918
43.2615
55.7613
47.851
43.3253
49.4353
64.2454
51.0409
70.7764
137.692
140.268
44.8858
101.144
53.9298
84.8828
46.2086
44.0407
52.7718
52.0117
43.7147
43.9478
52.5137
62.0433
46.9602
86.9615
69.1326
44.9222
62.6784
43.4424
42.9561
82.2422
44.9706
112.444
45.2137
45.8979
62.0682
82.3586
42.5968
43.1857
51.3234
50.5761
48.7873
83.2312
113.148
45.1371
97.7719
44.5017
83.942
53.2565
49.5031
61.7301
43.7283
43.2676
45.1534
49.0568
43.8472
94.3101
82.13
52.8168
73.4234
43.4039
80.8771
45.2322
42.8754
48.1929
43.7602
67.6831
47.3924
46.2482
42.7005
43.9706
52.7138
86.512
97.3978
43.2446
50.523
44.71
57.0212
98.4903
47.1356
43.1086
52.1621
48.2728
44.1411
43.2939
83.1899
43.0736
54.1769
54.9449
96.2012
81.5529
97.4213
45.5165
80.7715
49.04
85.3318
89.0366
110.606
86.1165
94.989
68.9835
74.177
49.0758
43.2432
54.0231
86.6291
66.8642
65.3547
79.2106
42.6662
87.6759
86.6021
80.5026
77.5167
116.986
86.8583
43.0003
44.3616
42.86
43.7375
51.6483
43.8799
45.8552
95.109
97.23
103.157
46.0353
84.4666
115.681
90.2547
102.432
72.3993
85.6411
43.124
45.3405
44.1119
43.0115
50.934
44.7137
59.5878
42.6707
75.0261
45.9572
157.492
160.676
63.9629
123.206
91.7298
77.1812
52.34
44.4334
59.2828
140.226
89.4903
53.5537
86.3833
68.3604
68.2119
85.0382
86.4339
88.9604
87.5303
64.7765
50.5945
73.5788
85.0716
83.4943
91.6606
70.5348
61.5939
48.1599
50.0964
47.8895
44.3656
54.8307
87.1754
48.3118
66.6019
52.945
68.0948
48.5518
57.2505
58.8173
61.1311
84.0892
80.3543
51.3093
75.7036
64.911
71.0631
72.4562
50.3894
48.8213
86.6505
43.8752
47.0172
56.5024
119.37
55.5484
91.4224
74.4437
58.2844
65.8938
63.3547
92.3431
45.6277
71.217
65.8237
106.58
101.695
74.4416
42.8891
94.9325
88.3449
42.1429
81.582
83.7179
63.6656
76.8786
70.5696
72.9733
74.3679
73.0914
90.8116
101.404
70.4348
42.4604
83.9132
136.095
44.7518
89.105
72.7925
42.3064
69.5091
70.9359
47.4595
68.4842
59.8904
68.1499
48.1842
44.77
84.5366
44.884
106.349
62.316
72.3223
43.0161
81.0365
50.9098
51.5516
84.7951
63.5882
62.612
46.7804
43.9539
94.8607
62.5596
100.436
48.3518
55.2912
47.1528
54.5339
96.3233
49.5804
44.7448
52.0524
61.8235
62.8655
130.283
45.0541
61.8271
47.9851
44.2173
82.5507
137.914
145.99
73.2037
76.5489
42.6253
108.675
66.2655
151.783
41.8739
42.548
42.3648
53.5355
41.5491
42.6928
94.1781
46.0493
60.199
44.9074
71.2961
46.2699
76.1313
101.842
67.2403
45.7818
82.1936
69.7679
77.2898
81.0511
45.0647
69.4941
44.2644
72.6373
45.4968
109.327
77.1628
46.5217
48.7925
49.7274
42.3375
72.4417
44.1984
60.3681
42.9163
67.7366
68.5935
97.8221
69.1639
60.2292
42.8247
75.1706
47.0873
66.2545
61.7295
79.6071
87.1184
49.3204
44.9988
42.6232
101.463
75.7487
86.6569
42.0637
44.1056
49.019
46.6219
87.6165
53.9216
44.2125
46.2442
58.3454
82.9544
64.8819
50.4343
50.0935
56.2429
50.9643
52.2643
44.5539
43.073
43.8033
44.0908
43.1989
65.3128
73.4049
90.4653
78.4971
102.134
65.503
55.3755
73.2381
64.0607
67.1858
63.9753
62.3497
44.6476
44.368
42.3009
93.0523
55.1129
48.2748
94.8976
43.251
41.9948
45.89
44.9554
67.7067
42.2381
45.9665
52.4374
106.12
42.6866
50.5923
98.2293
43.4642
44.0468
91.2456
93.7582
71.0799
74.4997
89.4078
44.7118
51.1103
50.4288
71.8962
60.3114
46.7887
46.0761
125.398
72.2693
78.8709
102.491
42.5697
43.3891
45.0373
45.5538
45.38
45.1535
116.112
56.7788
43.6457
67.1833
70.3523
79.2833
42.7395
42.611
44.993
42.2593
109.789
43.9403
43.7507
47.3835
67.3016
72.4831
46.0082
43.9529
109.263
47.8254
60.6621
50.2931
75.8539
46.5384
76.3714
103.851
93.0611
78.5439
59.5402
57.4447
67.7091
66.1898
50.3978
44.8188
45.7682
87.0306
56.3371
43.2722
63.5569
44.4105
43.9891
82.6036
127.157
46.9133
50.8126
48.6057
48.2192
49.3873
81.2297
42.2004
44.6005
45.4267
73.7667
43.9911
84.853
80.1763
73.3468
84.3822
60.7274
43.667
49.1273
42.5734
48.2646
44.3754
46.9988
62.3521
43.0377
81.0305
77.5205
74.5012
44.6777
43.8887
64.8805
124.889
64.232
75.9426
88.8172
69.2191
44.0859
66.3446
51.9573
42.8236
44.3534
70.5827
77.3267
44.2662
44.3819
88.3401
70.213
44.5734
66.1496
42.6765
65.2534
63.2157
44.1918
51.1391
41.947
93.0852
49.8546
46.5183
80.0414
88.2703
42.5856
41.9669
44.8336
43.8252
50.8961
77.1281
43.6286
62.154
93.5251
106.988
71.7801
42.6604
75.91
93.8116
44.1554
75.2234
42.7242
61.4463
66.2808
82.3408
68.4214
72.242
42.7439
63.3524
71.3272
44.5244
46.9392
52.6996
45.6224
45.296
107.986
44.4697
59.6382
65.9296
66.7224
49.6698
49.8225
97.2858
45.6203
50.1591
83.9741
65.3261
89.0443
82.7808
50.0799
62.9406
73.8033
91.7738
96.5901
88.2298
63.8027
84.6965
188.966
79.1189
71.7877
77.4104
83.227
47.7643
47.588
104.509
78.4533
52.2115
82.6444
43.3111
48.203
86.581
44.0921
43.6376
75.8179
72.4751
87.0365
74.0105
151.165
80.2093
114.309
111.444
110.2
104.326
208.886
44.1562
43.8949
109.141
91.7113
45.8426
51.3857
48.3435
82.6143
69.3738
66.5516
101.191
133.104
76.1319
82.3987
53.2375
47.121
83.0361
178.59
78.9781
171.418
68.7741
75.3139
94.2863
85.8532
87.3412
46.8367
100.849
44.1352
45.3786
86.3436
68.2741
86.4876
45.014
60.2828
59.2952
86.4151
46.4586
60.5828
44.5997
43.6988
43.7517
83.5433
85.4401
63.0927
67.476
80.4033
78.0545
70.6908
68.4932
80.9533
75.4013
43.0358
67.1126
69.7339
90.7835
76.7474
81.9729
70.4298
42.0765
42.8412
41.9708
48.2336
44.3609
48.4533
64.2415
42.3298
47.8725
94.419
116.022
47.8353
51.9476
92.6031
52.2223
52.9996
61.9742
42.6649
132.713
70.5712
87.0433
100.681
136.83
43.0918
81.4236
99.7882
47.2093
84.0314
47.8093
72.1018
51.5324
65.8724
82.4596
46.2957
80.654
54.5736
51.4181
94.9419
107.871
68.8709
46.4272
71.5089
112.823
75.6193
88.3671
41.9245
85.1823
77.9619
43.3638
71.3815
48.3046
91.2894
54.3949
82.489
54.5782
42.0531
62.1423
76.0164
46.5956
60.7812
48.605
60.4859
83.9432
68.9103
95.7544
51.3023
76.9313
42.4828
91.3452
78.1807
49.9454
66.1595
86.7493
89.344
56.2503
121.544
62.4229
81.0204
48.9081
49.5195
50.3393
42.3173
58.4105
68.4574
57.0495
48.9503
101.792
42.7365
46.1872
73.5403
43.2945
46.2273
144.458
47.488
158.131
88.027
125.447
72.2939
64.97
83.1181
43.9567
84.3194
42.319
117.803
43.4476
75.1117
125.002
104.137
63.623
75.9671
47.2361
73.4183
142.859
43.2187
66.7324
80.2554
51.6413
109.465
46.0502
50.8022
87.248
89.692
74.8491
91.1672
67.5638
91.1277
44.12
43.5135
73.736
65.5652
44.8202
45.1735
69.9886
46.3778
42.4762
46.5106
47.3753
49.6154
51.5704
47.7711
57.6942
81.2946
94.7411
83.062
78.3882
96.9382
66.2913
74.2367
44.0575
46.1441
48.1785
46.2559
42.7621
46.176
45.6843
45.7766
47.8115
47.785
78.9507
112.16
45.5695
66.5368
66.196
91.2294
73.7236
77.7987
61.7879
84.1341
78.9325
52.7741
75.9608
45.9165
153.264
51.988
45.6231
47.5717
72.3685
44.8875
66.3854
64.4567
67.313
78.7899
44.2625
48.3442
44.7997
47.8409
42.5209
47.4011
42.356
78.9676
69.3242
72.2351
49.0367
45.939
48.1612
46.734
44.4908
43.9851
45.4337
45.2516
44.8285
47.8955
54.62
43.6779
45.5498
42.2755
57.4909
55.9185
142.602
70.5973
70.9163
75.1727
42.3088
42.0481
52.2632
43.0083
78.1427
47.3867
70.1935
69.7924
74.9133
44.3651
75.535
86.784
117.903
113.169
43.7196
44.5714
70.6575
56.7348
66.4333
76.1109
95.9503
43.1974
124.898
42.8356
44.5656
50.6133
70.0923
49.8185
41.9472
42.4495
56.3506
66.3655
43.8428
42.8343
124.353
74.2827
42.4981
183.026
61.4466
123.543
62.0963
47.4426
43.2759
61.7986
54.6705
65.6934
77.9433
56.7648
57.9029
45.9035
102.464
113.606
90.599
44.0879
69.8769
46.3121
114.381
83.8635
43.4098
43.282
81.0927
83.3463
44.0082
93.4863
70.7118
43.9154
69.6768
43.3114
43.7789
61.6152
43.0034
42.7175
50.2454
48.2875
51.0941
45.6345
45.0814
50.3896
48.619
45.5949
78.4898
170.097
49.8656
44.2524
108.369
53.3482
78.5149
67.9751
42.4908
46.8224
72.4816
113.278
86.6958
48.1539
79.4164
103.864
117.23
65.0959
139.017
68.6636
91.0596
44.9921
109.334
75.1843
84.4507
93.2547
67.2998
89.2255
96.0008
74.5152
65.1538
58.2533
80.0279
76.066
68.8477
111.061
117.77
97.8323
69.6411
66.5482
134.861
80.0768
79.3444
77.8737
108.384
79.4595
44.8608
72.4259
67.3847
42.4541
64.3336
60.5591
48.1732
103.741
80.3791
108.532
81.7358
66.2329
82.4456
102.546
45.9812
59.3842
94.595
67.3655
80.6142
43.3771
62.9545
42.9555
51.1526
75.9274
80.3147
86.8659
80.592
66.0516
69.0402
103.329
60.9611
71.0937
73.2845
81.7571
42.1654
93.7273
165.644
162.479
72.9543
79.6082
69.435
96.5079
74.5478
118.084
82.5673
62.2225
53.8129
58.5229
74.7449
79.1397
111.828
112.02
87.2665
188.019
141.513
83.4299
105.392
64.7027
72.8523
83.008
92.9518
105.43
89.7837
74.1329
98.3037
151.887
168.204
115.88
166.785
68.3757
102.252
112.886
53.9485
113.811
67.9902
72.8013
97.3763
44.3673
43.9609
50.8489
47.8412
43.3536
42.2695
44.4468
42.7329
82.0072
44.1515
45.4709
44.0635
45.1623
106.977
106.029
51.9621
42.5095
43.1183
47.3796
43.9275
45.3338
51.278
45.4222
42.8669
50.4504
113.57
48.2695
44.7669
70.5095
53.1653
53.3305
43.7124
43.1875
52.9195
84.7932
66.8579
43.2057
90.1629
46.1531
42.8094
46.6741
42.4962
45.2919
64.2773
47.7481
70.5252
43.4048
56.9302
43.8914
51.0338
42.731
88.5815
44.3806
43.3757
57.7872
55.9316
42.97
77.9894
50.2805
44.2669
42.7692
70.1066
42.6317
43.507
42.595
46.1316
42.9429
41.9596
52.0712
42.1118
43.4501
46.8469
82.1732
50.3219
43.1087
42.5134
42.4773
46.933
45.5383
43.8892
43.5179
52.7481
59.5937
51.822
47.9941
49.5048
48.1713
47.5725
46.4691
53.1274
43.4496
45.4855
77.0158
51.593
107.171
47.5034
44.3246
44.3569
53.5666
51.3594
42.9066
52.5682
43.6037
65.1186
42.742
50.8486
104.181
50.77
43.7661
43.4066
44.3169
102.101
68.1988
48.2853
46.8825
125.354
46.6618
95.2857
101.798
76.5288
43.2116
43.0447
43.2135
43.7786
43.0697
57.4555
60.2009
42.6052
75.9761
63.1635
57.6996
43.7946
45.8345
44.3128
49.4751
90.0581
44.289
43.3686
48.7148
73.0032
107.537
49.4434
48.7282
46.2508
63.9936
67.3922
89.5457
43.8339
62.6356
42.4821
42.0853
100.763
44.3196
46.082
70.9826
103.229
47.9626
102.685
43.991
55.0379
75.8562
52.0078
62.9628
60.0595
68.9335
62.7381
47.8114
43.537
60.3108
102.244
47.4496
83.8781
78.4789
87.018
80.3648
64.7245
45.2174
44.2805
72.7737
60.9612
60.0273
46.1963
47.7681
68.9387
49.1199
43.1742
45.2544
98.0312
43.2644
43.7996
44.9404
52.26
74.8516
45.0651
45.0881
75.929
53.0979
48.1301
42.0161
68.0634
45.3519
44.0837
42.1242
46.7286
96.5417
58.2694
62.9002
81.9483
45.0111
99.045
88.5388
73.1495
97.2822
90.3152
93.335
93.2188
60.8592
47.5924
44.8553
56.9225
58.1026
168.721
45.6518
81.9309
70.0974
81.674
95.9787
107.638
81.0285
72.2094
105.887
92.2948
86.8898
66.6265
131.594
53.2724
83.9711
71.2201
79.6515
71.084
102.694
63.6399
126.318
65.0283
55.2369
55.5214
104.781
97.0054
99.1393
133.12
88.0713
65.5829
51.498
88.3125
89.1839
89.9935
67.9293
76.8238
82.0246
42.7239
42.4914
42.7013
66.3452
43.2165
56.2705
49.1059
44.7621
109.538
42.1655
52.0872
42.7969
96.5164
59.853
80.2625
91.745
71.0974
86.4142
44.6252
47.7522
72.3491
44.2649
43.6954
67.0641
52.1038
71.8895
80.1363
54.5763
64.9339
161.952
163.636
72.4587
146.221
78.449
51.3245