/*--------------------------------*- C++ -*----------------------------------*\
| =========                 |                                                 |
| \\      /  F ield         | OpenFOAM: The Open Source CFD Toolbox           |
|  \\    /   O peration     | Version:  2506                                  |
|   \\  /    A nd           | Website:  www.openfoam.com                      |
|    \\/     M anipulation  |                                                 |
\*---------------------------------------------------------------------------*/
FoamFile
{
    version     2.0;
    format      ascii;
    arch        "LSB;label=32;scalar=64";
    class       surfaceScalarField;
    location    "0.0882685";
    object      phi;
}
// * * * * * * * * * * * * * * * * * * * * * * * * * * * * * * * * * * * * * //

dimensions      [0 3 -1 0 0 0 0];

oriented        oriented;

internalField   nonuniform List<scalar> 
7606
(
0.000342349
-0.000568186
0.000237106
-1.12692e-05
-0.0020164
-0.00361164
1.98723e-05
0.00560817
-0.035328
-0.00275571
0.0345066
-0.000257856
-0.000277753
8.2583e-05
0.000453026
0.000590386
-0.000229836
0.000190633
-0.000551184
-0.00259246
-0.00640961
-0.00224211
0.0112442
0.000254856
7.76749e-05
0.00120978
-0.00127672
0.020316
0.00837449
-0.0194011
-0.00928941
0.00140384
-0.00372134
-0.00995237
0.0122699
0.00165125
0.00535966
0.0127652
0.00129114
-0.00443285
-0.000513554
0.00365526
-0.00165903
0.00105659
0.00145216
-0.000849722
-0.00181747
-0.00043698
0.000595422
2.86651e-05
-0.000663882
-5.78324e-05
0.000693049
0.000579725
0.000212347
-0.000358472
-0.0004336
0.000269392
0.00040017
-0.000664138
-5.42392e-06
-0.0179132
0.0108408
-0.00249207
0.00956445
0.000650158
0.000597671
-0.000438819
-0.00080901
0.00126176
-0.00165553
0.00875607
-0.00836231
-0.0084037
0.00983933
-0.000173873
-0.00169897
0.000830118
0.00128509
-0.000583125
0.00383045
-0.0444889
0.00308793
0.0038961
0.000280186
-0.00726422
0.00691359
-0.00120752
-0.005117
-0.000589066
9.08533e-06
0.000107952
-0.000174478
5.74413e-05
-0.00635441
0.00807455
0.0013678
-0.00290061
0.00748852
-0.000389723
-0.00419819
0.0230046
0.00926227
-0.000604756
-0.00221249
0.00257475
0.000242497
-0.00358483
0.00251683
0.00259361
-0.00152561
-0.000642289
-0.00129066
0.00189452
3.84214e-05
0.00113933
-0.00046794
-0.000974916
0.000303525
-0.000588196
0.00208555
0.0023955
-0.00389285
0.00128814
-0.000316853
-0.000430758
-0.000540532
-0.0104046
0.0045052
0.00219415
0.00370529
0.000175544
0.000111157
-0.000286701
0.000558866
0.000140905
0.000653379
-0.00135315
1.12889e-05
-4.33869e-05
0.000351749
-0.000319651
0.000547546
5.74611e-05
0.000185951
-0.000790959
0.000508061
-0.000506663
7.90126e-05
-8.04112e-05
0.00242558
0.000876079
-0.000847271
-0.00245439
-0.00075598
0.000169847
0.00122216
-0.000636029
-0.000225119
-0.0011505
0.000619639
0.00242726
0.00262553
-6.75835e-05
-0.0049852
-8.33718e-06
-0.000716723
0.000894907
0.000191454
9.23273e-05
0.00097688
-0.00126066
0.000675385
0.000738231
-9.80052e-05
-2.8717e-05
6.08378e-05
6.58844e-05
-0.000111384
0.000115743
0.00018355
-0.000187909
-0.0040314
0.000707669
0.000156706
0.00316703
-0.000158474
-5.09149e-05
-0.000159205
-0.00044772
0.0004752
0.000131726
6.88698e-06
0.000119715
2.63944e-05
-0.000152996
0.000400071
0.000157202
-0.000550386
-0.000150823
0.00049102
7.86938e-06
-0.000348066
0.0051177
0.00867391
-0.0088907
-0.00490092
-0.001121
-0.00278737
0.00251068
0.00139768
0.000351294
-0.000321324
-0.00010225
7.22799e-05
0.0133847
-0.00233115
-0.00725846
0.000814997
0.00469836
0.0015784
-0.00709175
0.00204766
0.00287534
0.00171851
-0.0277905
0.0271414
0.000649022
-0.00277866
-0.000700099
0.00264307
0.000835689
-0.000314325
-0.00301933
0.000555001
0.000266483
0.0012051
-0.00127989
-0.000191692
0.00294608
-0.00415273
0.0100261
-0.00881943
0.00148804
0.00625686
0.00254625
-0.0102911
-0.00356524
-0.00146833
0.00231657
0.002717
-0.000222437
6.07164e-06
-0.000121734
0.000338099
0.00352081
-0.00366037
0.000217311
-7.77497e-05
-0.000648789
0.000305969
-0.000401067
0.000743887
0.000417776
-0.000142116
-0.00030718
3.15204e-05
-0.00250496
0.00292296
-0.0123609
0.0119429
-0.017626
0.012697
0.00650633
-0.00157734
-0.00387997
-0.00718649
0.00205175
0.0090147
0.0125511
0.0146881
-0.00782715
-0.0194121
0.00132767
-0.003849
0.00250446
1.68641e-05
0.000159597
-6.00096e-05
-0.000130356
3.07683e-05
0.00245672
-0.000422591
-0.00263888
0.00055011
-5.80032e-05
0.000376019
-0.000868126
0.000478042
0.000225536
-0.000153468
-0.00505343
0.000229896
0.00674845
-0.00192492
-0.00694525
-0.00496358
0.0136316
-0.00172275
-0.000433242
-0.000238494
0.000121779
0.000549958
-2.58696e-05
7.06693e-05
-0.000638283
0.000186114
0.000479733
-2.75635e-05
0.000582904
-0.000332758
-2.46097e-05
-0.000127026
0.0026551
-0.000307035
-0.00222104
0.0288725
-0.00629976
-0.0126046
-0.00996814
0.00271462
-0.00432907
0.00276546
-0.00115101
0.00393149
-0.00574537
0.00243896
-0.00062508
0.00132865
0.00219319
-0.00119396
-0.00232788
0.000542098
0.00603853
-0.00612625
-0.000454382
-0.00306849
-7.40433e-05
-0.00963413
0.0127767
-0.00137742
-0.00321216
0.00394726
0.000642321
-0.00408336
1.82522e-05
0.00229817
0.00176694
0.000480622
-3.65022e-05
-0.000124554
-0.000319566
-0.0104764
0.000304055
0.00993903
0.000233317
-0.000227024
0.00129283
0.00476083
-0.00582663
-0.000565636
0.0088838
0.000221779
-0.00853994
0.00737563
0.00044813
-0.00889077
0.00106701
0.00236583
-0.00157467
0.00304204
0.00233667
-0.00522594
-0.0025332
0.00542248
0.00237334
3.69119e-05
-0.00323358
0.000823326
-0.000505115
0.00275566
0.000630171
-0.00288071
-0.000599263
0.00179908
0.002134
-0.00333381
0.0146866
-0.00680462
-0.00426032
-0.00362166
-3.47495e-05
-0.00017628
0.000237041
-2.60112e-05
0.00544209
-0.00510956
-0.00195016
0.00161763
0.00214795
0.00108623
-0.00502834
0.00179416
-0.000639199
0.00206567
-0.000837815
-0.000588659
0.0662645
-0.0363705
-0.0255937
-0.00430026
0.000387252
0.00280638
0.000572892
-0.00376653
0.000692859
8.77854e-05
0.00016121
-0.0115213
0.01351
-0.000264397
-0.00172436
-0.00364664
-0.000545216
-0.000167956
0.00435981
0.00235111
-0.00105039
-0.000691071
-0.000609653
-0.00215247
-0.00115215
0.000278315
-7.17413e-06
-0.000271141
-0.0038807
0.000643761
-0.00183924
0.00776048
0.00359601
-0.00634835
-0.00500814
0.00319346
0.00182109
-0.00328282
-0.00173173
-0.0008709
0.00158796
0.00232362
-0.0022784
-0.00215701
0.00211179
0.00606251
0.00199064
0.00121424
-0.000875169
-0.000606225
0.00383251
0.00126606
0.00105083
0.000319869
-0.00263675
3.12493e-05
-0.000703254
0.000374491
0.000297513
-0.00334627
-0.00303674
0.00229966
0.00314297
-0.00125123
-0.000718765
-0.00117297
0.0337408
-0.00744554
-0.00915795
-0.0171373
-0.000634789
0.00146968
-0.000169144
-0.000665746
-0.000797926
-4.71113e-07
1.54791e-05
0.000782918
-0.00842438
0.00838438
-0.00284476
0.00288475
9.96534e-05
-0.000863811
-0.000112525
0.000876683
-0.00366247
0.00202479
0.00246996
-0.000832279
0.00214175
-0.000570454
-2.05854e-07
-0.00157109
-0.000178221
-0.00192789
-0.000362569
0.00246868
0.00429181
-0.00517252
0.0110842
-0.0102035
-0.000817274
-0.000160279
2.45647e-05
0.000952989
0.00108663
-0.00548385
-0.00190915
0.00630637
-0.00962356
0.0155097
-0.0109444
0.00151179
0.00252046
0.000586288
-0.00461854
-0.0010197
0.000618073
0.000619973
-0.000218351
0.00449688
-0.00459114
-0.00318922
0.00328348
0.0149032
0.00300112
-0.0164511
0.000821156
-0.00084486
-0.00198027
0.00200397
0.00199328
0.000779497
-0.002393
-0.000379774
-0.0144788
0.00139268
0.0152646
-0.00217843
0.00365113
0.0009182
0.00673685
-0.0113062
0.0275457
-0.0291834
0.00163768
-0.00272059
0.00231295
0.00294587
-0.00253823
-0.00141983
-0.000865262
0.00154251
0.000742584
0.00252007
0.00887177
0.00753195
-0.00137635
-0.00191755
0.00469659
0.0068424
-0.0106107
-0.000928301
-0.00160359
-0.00342652
0.00329167
0.00173844
0.00292028
0.0014958
-0.00315003
0.000868942
0.00267099
-0.00487337
0.00133343
0.00431502
-0.0019395
-0.00439677
0.00202125
-0.00193452
0.0034219
-0.00113347
-0.000353911
0.00973719
-0.00854661
0.00311264
-0.00430322
0.0021212
-0.0106727
0.0117677
-0.00321619
-0.00014264
-0.00573407
0.0109944
-0.0107445
0.00932983
-0.00553055
0.000831182
-0.00181051
0.000970876
8.45684e-06
-0.000390659
0.000143432
0.000702003
-0.000454777
0.00172858
0.00588643
-0.00466893
0.000263201
0.000602322
-0.00417259
-0.000786502
0.00441822
0.000540864
0.0196478
-0.00843352
-0.0241528
0.0129385
-0.0238545
-0.029611
0.00735758
0.000494007
0.000236808
-0.000296267
-0.000434548
-3.38981e-05
6.96562e-05
7.80051e-05
-0.000113763
0.00183571
-0.00528152
-0.00614286
0.00958867
-0.00645259
-0.00165514
0.00248092
0.00562681
0.00302315
-0.000431004
-0.00486661
0.00227446
0.0129497
-0.0252502
0.0319483
0.00166605
-0.0037742
0.00361994
0.00173982
0.000441325
-0.00253524
0.000354098
0.000257498
8.32926e-05
1.05044e-05
0.00314608
-0.00279556
-0.00143046
0.0025502
-0.00301514
0.00192751
-0.00146256
-0.00715583
-0.00183609
0.00595562
0.00303629
-2.05238e-05
0.00240821
0.00080578
0.00147617
-0.00294938
0.00183631
-0.000363097
0.0360761
-0.0266792
-0.00410004
-0.00529692
0.000492399
0.0030025
-0.000528699
-0.0029662
-0.0427756
-0.00727796
-0.0031464
0.00505974
-0.00312448
0.00121114
0.00393143
0.000284427
-0.00385698
-0.000358873
0.00144774
-1.22749e-05
-0.00991814
0.00848267
-0.013366
0.00931188
0.00387782
0.000176306
0.00169397
0.00288302
-0.0125492
0.00797223
-0.000848634
0.00199615
-0.00451802
0.0033705
-0.00164777
0.011867
-0.00214823
-0.0021509
0.00326551
0.00103362
0.00422559
-0.000668302
-0.00457446
0.00101717
0.000748446
0.00266571
-0.000668834
-0.000606452
0.00322171
0.00161033
0.00126269
-0.00311307
0.00961086
0.000252782
-0.000415696
-0.000304229
0.000467143
0.00709337
-0.00115602
-0.00519579
-0.000741558
-0.00153997
-0.0028429
0.00266977
0.00171309
0.008276
-0.00961579
0.00240191
-0.00106212
-0.000239913
0.00132257
-0.00246008
1.40751e-05
0.000255969
3.53371e-05
-0.000305381
-5.69553e-05
-0.00120092
0.000238182
0.00180591
0.00230196
4.46821e-05
-0.0045324
0.00273107
0.00340219
-0.00160086
4.52079e-05
-0.000109888
7.37655e-05
0.00127982
0.00240271
-0.00408338
0.000400844
0.00196853
-0.00285383
-0.00132719
0.0121546
0.00380572
-0.031246
0.0152856
-1.9436e-05
0.000177896
-0.000361192
0.000202732
-0.00192653
0.00287069
-0.0134428
0.00092624
0.000510625
-0.00175683
0.000319967
0.00022986
-0.000121631
0.000284478
-0.000392707
-0.0128572
0.00877824
0.00836121
-0.0042823
0.000176658
-0.000155674
-0.000411643
1.62158e-05
0.00351419
-0.00196001
-0.00157039
-0.00378805
0.00466069
0.000261486
-0.00113413
-0.0126023
0.012616
0.0041274
-0.00414108
-0.000357775
-0.00196602
-0.0041288
-0.0113895
0.015958
0.0149071
-0.0194756
0.0167659
0.00072326
-0.0094524
-0.00277667
-0.00836491
0.00964691
0.00149467
3.37596e-05
-0.0137039
0.00199006
-0.00133293
-0.000440776
-0.000216351
-0.000369321
0.000715016
0.000511774
-0.000857469
-0.000475425
0.000751086
9.01787e-05
-0.00036584
-0.0043935
-0.00222026
0.00156033
0.00207667
-0.00398917
0.00278144
0.00111261
-0.000920628
-3.54227e-05
0.000327156
-0.000398549
0.000106816
-0.00147799
-0.00266387
-0.00426184
0.000642942
-0.00485083
0.0069992
-0.00279131
0.0097865
0.00289756
-0.0109901
-0.000229043
-0.000167639
0.000396681
0.00377265
7.50965e-05
-0.00554831
0.00170056
-0.00514115
-0.000282694
0.00508945
0.00033439
-0.00902547
-0.00621868
0.0203496
-0.00510541
0.00459394
0.000674169
-0.00552782
0.000259706
0.000249081
-0.00185092
0.00270719
-0.00110534
-0.0118554
0.000445956
-0.0155756
0.000524507
0.000572294
0.00281501
-0.00245873
0.00106205
-0.00141834
0.00115026
0.00519651
0.00703793
0.00515184
0.00195952
-0.00897431
0.00186295
-0.000847567
-0.00268726
0.0048674
-0.00133257
-0.00441188
-0.0031681
0.00291668
0.0046633
0.0128904
0.00539767
-0.00199783
-0.0162902
-0.00290933
0.00523214
-0.00458608
0.00226327
0.00125372
0.000247606
-0.00059701
-0.000904316
-0.00151139
0.00271382
0.00127384
-0.00247627
0.00228994
-0.00206363
-0.00152404
0.00129773
8.44528e-06
-4.0734e-05
-1.60935e-06
-0.00293033
-0.000264935
-0.000467207
0.00639055
0.00208111
0.00223299
-0.0107046
-0.00199996
-0.0012059
0.00139167
0.00181419
-0.00246145
0.000202089
0.00237834
-0.000118981
0.00565547
-0.000710223
-0.00148415
-0.00346109
-0.000107114
-0.00031505
0.000422164
0.000655546
-2.64684e-05
-0.000210853
-0.000418225
-0.00116405
6.30279e-05
-0.001894
0.00299503
0.00126862
2.66806e-05
0.000814952
-0.00211026
8.94775e-05
-0.00396553
0.00029122
0.00156938
-0.000716801
-0.000244284
-0.000608299
0.000423346
0.000337079
-0.000534004
-0.000226421
0.000289798
-0.00260872
-0.00124633
0.00179224
0.00254057
-0.00170939
-0.00262342
-0.0282976
0.000164575
0.000894645
-0.000914519
-0.000144701
-0.00156175
0.000403959
0.00188856
-0.000730764
0.00583087
0.00048285
-0.00355189
-0.00276182
-0.00164786
0.000865362
0.00103081
-0.000248312
-0.00219
0.00129968
0.00111828
-0.000227964
-0.00249342
0.00430587
-0.0018467
3.42518e-05
0.000130952
0.000485211
-0.000130633
-0.000485531
0.00267098
-0.000392736
-0.0024558
0.00286315
-0.00250589
0.00209854
0.000309818
0.000167582
-0.000330623
-0.000146778
-0.000460546
-0.000376836
0.000737376
0.000100006
-0.00206022
0.00656431
-0.00427419
-0.00210847
0.00194513
0.00265389
-0.00249056
-0.00295329
-0.00124607
0.00384158
-0.00197992
0.00239655
0.000864992
-0.00128163
0.000565578
-0.00090273
0.00200499
-0.00166784
-0.0055671
0.0023594
-0.00462622
0.00783393
-0.00183888
-0.00184521
0.00122265
0.000974834
-0.00100952
0.00415377
-0.000556708
-0.00123442
0.000742192
0.00104893
0.000592953
-0.000606834
-0.00124376
0.00125765
0.00152497
-0.000789631
-0.000110551
-0.000624787
1.96212e-05
0.0025566
-0.00297397
0.000397747
-0.0010031
0.00017614
0.00215561
0.000898034
-0.000835767
-6.22671e-05
0.00268548
-0.000853503
0.000309766
0.000237331
0.000226334
-0.000432416
-0.000124835
-7.33415e-05
-0.000126902
-0.00041872
0.000189678
-0.00679994
-0.0129061
0.00710373
0.00308955
0.00153509
-0.00335602
-0.00607725
-0.00262843
-0.0084927
0.00830901
0.000361532
-0.000177844
-0.0110411
0.00286047
0.00608823
0.00209243
0.00353576
0.000300515
-0.00334388
-2.98845e-05
0.000850006
0.00245334
0.00562875
-0.00748179
-0.000600298
0.0132084
-0.000293524
-0.00635737
-0.0065575
-0.00183511
0.00440885
-0.00269042
0.000116682
-0.00141541
-0.00127388
0.000233495
0.00101898
-0.00104144
0.000948695
0.00112644
-0.0052052
0.00134497
0.00273379
0.00454598
-0.0196397
-4.64183e-05
0.0151401
-5.39187e-05
0.000935382
-0.000231305
-0.000293587
0.000248107
0.000214605
-0.000169125
0.00125297
-0.000275346
-0.000330097
-0.000647528
0.000661476
0.000750729
-0.000120337
-0.00129187
-0.000659903
-0.000465686
0.00103956
-0.000578026
-0.0010838
0.000601196
0.00106064
-0.00157821
0.00101823
0.00277857
-0.00221859
0.00015677
-0.000157738
-0.000248425
0.000249393
-0.00584908
0.0104475
0.00391118
-0.00850961
-0.00530879
0.00719013
-0.000794712
0.0147221
0.000384821
-0.00532038
0.00511411
0.00981538
0.00343621
0.00153566
-0.00788121
0.00402375
-0.00330848
-0.00156284
-0.000257369
0.000242178
0.000503448
-0.000488257
0.000578158
-0.00058987
0.000281103
3.67284e-06
-4.24319e-05
0.00259574
-0.00274748
0.00195765
5.87827e-05
-0.000200844
0.000142062
-0.000276621
0.00639967
-1.13735e-05
0.000330274
-0.000318901
0.00147199
0.00225735
-0.00240167
0.000357349
-0.000171401
-0.000131619
-5.43295e-05
-7.20404e-05
0.000505064
-0.00046765
3.46261e-05
-0.000115303
0.000306047
9.72364e-05
-0.00028798
-0.00182385
0.0013499
-0.00244206
0.00291601
0.00015439
0.000541076
-0.000725822
3.0357e-05
0.000744936
-0.00262807
0.00221862
-0.000335488
0.00112396
0.00396403
-0.000280723
-0.00480727
-0.000718738
-0.00334081
0.000713272
0.000587062
-0.000709356
-0.000831794
0.000954089
-0.000126009
4.37229e-05
-0.000187367
0.000269653
0.000771507
-9.59649e-05
-0.00167864
-0.00106201
-0.00066042
0.00283182
-0.00110939
-0.00573172
0.00295924
0.0128672
-0.0100947
-0.00044775
0.000557621
0.00169045
-0.00180032
-0.000751463
0.00208872
0.00047176
-0.00180901
-0.000617254
0.000196518
0.000734091
-0.000313355
-0.00197115
0.00329703
-0.00041724
-0.000908644
-0.00353359
0.00727165
-0.00958715
-0.00457379
-0.0146034
-0.00195814
0.0211353
-0.0013411
-0.0224153
0.0201396
0.00361677
-0.0090711
-0.0141543
0.020633
0.00395391
-0.000820756
-0.00166116
-0.000535761
-0.000240144
-4.13688e-05
0.00461138
-0.0018999
0.00106138
-0.00377286
-0.000353329
0.000311292
-0.000210847
0.000252884
0.0015967
-0.00152999
-2.81999e-05
-3.85104e-05
0.00339734
-0.00172767
0.0130169
0.00143786
0.000267307
0.00196145
-0.00612498
0.00799421
0.00452132
-0.00367111
0.0044536
0.0047069
-0.0054894
0.00504861
0.00150532
0.00202587
-0.0085798
0.00259502
-0.00770941
0.00836387
-0.00324948
0.00426393
-0.0140586
0.0036697
-0.00135985
0.00136657
0.00398795
-0.00399467
0.00490592
-0.0074795
0.00121372
-9.54062e-05
0.000702904
0.00364942
-0.00425692
0.000564254
-0.00401754
0.00335788
0.00354979
-0.003303
0.00045611
-0.00239412
0.00131125
0.0017044
-0.000621533
0.000503066
-0.00218446
0.00224565
0.00135154
-0.0010276
-0.00486124
0.0045373
0.0269856
0.0208484
-0.0356794
-1.89312e-05
-0.00248141
-0.000192371
0.00269271
-0.00148493
-0.00117208
-0.000590471
0.00324748
-0.00277985
0.00290206
0.00130754
-0.00142975
0.0044672
7.40842e-05
-0.00456021
0.000228161
-0.000285666
-0.000591284
-0.000111538
0.000807997
-0.000468298
0.000422437
0.000376573
-0.00051469
-0.00028432
-0.000106475
0.00020814
0.000368343
-0.000470008
-0.00112201
0.000997865
-0.000161519
0.00146416
-0.000523739
0.00160912
-0.00254954
0.00310376
0.000451465
-0.00209106
0.00209726
-0.00552796
0.00426859
-0.000837893
0.00260499
-0.00172196
-0.00236796
0.00154009
-0.00298329
0.000919462
0.0090566
-0.00357369
-0.00544075
-4.21601e-05
0.00405346
0.00511536
-0.000112215
0.0045869
0.00236352
-0.00464265
-0.00230777
0.00743537
-0.00482951
0.00198104
-0.00229059
0.00615227
-0.00010742
2.90706e-06
2.22069e-05
8.23065e-05
-0.00264005
-0.000437185
0.00561205
-0.00344905
-0.00220516
-0.00119977
0.00613942
0.000672398
0.00120743
-0.00231159
0.0022306
-0.00201683
-0.00126476
-0.00192361
0.00206768
0.000973025
-0.00469154
0.00165083
-0.000899419
0.00120365
-0.00105957
0.000755334
-0.00101377
-0.00210039
-0.000704143
0.00381831
-0.000203509
7.86748e-05
0.0033908
-0.00826975
0.00038092
0.0102255
0.00622454
-0.00493924
-0.00955505
0.00292526
0.00225594
0.000232326
-0.00541352
0.00166102
-0.00423152
0.00146478
0.00110572
0.00335418
-0.00374085
0.00331192
0.00488515
0.00167941
0.00382304
0.0559226
-0.0543268
0.0174957
0.003783
-0.0167328
-0.046895
0.0507181
-0.0125687
0.00190857
0.0275842
-0.0169241
-0.0169159
-0.0295953
0.0165109
-0.0168126
0.00884772
-0.00854602
4.93128e-05
0.000443648
-0.00025563
6.56207e-05
0.000470531
0.000208303
-0.000354877
0.000708692
-0.000562118
0.000788839
0.00155205
-0.00581162
0.000487036
0.00661572
0.000497891
-0.000540748
0.000129129
-8.62714e-05
-0.00536685
-0.00673785
0.00629309
0.0022603
0.00101737
0.00137244
-0.00465012
0.00261054
0.004647
0.00225818
0.00167323
-0.0040986
0.000167194
0.00463248
-0.00299857
-0.000509945
0.00284947
-0.00156643
0.00097726
0.00020973
-0.000401842
-3.0325e-05
0.00187131
-0.00042881
-0.000553682
-0.000888815
-0.000170631
0.000118155
0.000160428
-0.000549618
0.000326696
-8.56568e-06
0.000231487
0.000388226
-0.000240471
9.45079e-05
-0.000242263
0.00503092
-0.00617381
-0.00732418
0.00846706
-0.00226656
0.00290537
-0.00192192
0.00128311
-0.00323825
0.00254543
-0.00295382
0.000105015
0.0001733
0.00129888
-0.00265979
-0.0160307
-0.00396712
0.000748496
-0.00061087
4.63442e-05
0.000555554
8.97221e-06
-0.0129751
-0.00105123
0.00906271
-0.000444958
0.000116177
0.000455737
-0.000126957
-0.00470769
-0.0120215
0.00375415
0.000252006
-0.000227696
-5.90592e-05
0.0013072
0.0133209
-0.0112308
0.00839954
-0.015304
0.0144008
-0.0121238
0.00119661
-0.00347363
-0.000319769
-6.6247e-05
0.000320101
6.59146e-05
0.000134835
-0.00396119
-0.0010863
0.00491265
0.00261812
-0.000514757
-0.0011164
-0.00346014
0.000615349
0.00316515
0.00261523
-0.00268581
-0.00309457
-0.0026851
0.0062276
-0.000377349
0.0113042
0.00438113
-0.0012685
-0.00196446
-0.000298674
0.00175802
0.0132904
-0.00650615
0.00296765
-0.00975191
7.4756e-06
-0.00113105
0.00166603
-0.000542455
-0.0537593
-0.00442542
0.0581847
0.00476914
-0.000908632
0.000658231
0.00339618
0.000714729
-0.00184234
0.00187674
-0.00298769
-0.000199365
-0.00090561
-0.000874943
6.63481e-05
9.3106e-05
-1.39309e-05
-0.000145523
1.01826e-05
-0.000337125
0.0018416
0.000355285
-0.000131216
-0.00011324
-0.000806589
0.00091983
9.70367e-06
-0.00103136
0.000340728
0.000680932
-0.00216708
-0.00319467
0.00330179
0.00205996
-0.00261617
0.000468596
-1.95016e-05
0.000527519
-0.00393593
0.00156607
0.00138362
0.00254424
-0.00174757
-0.00218029
0.00356442
-0.00166044
-0.00052036
0.00282811
0.000836263
-0.00123879
0.00225295
-0.000554747
-0.00030368
-0.00139452
0.00137956
0.00138116
6.73809e-05
0.0194138
-0.0252392
0.0177357
-0.0119103
0.00736571
-0.00361135
-0.0055327
0.00177835
-0.000829925
0.0042067
0.00461322
-0.00799
0.00345734
0.000259941
0.00482756
-0.00171797
-0.00335181
0.00107669
0.00399309
-0.00137788
0.00023085
-0.000604617
0.00175165
0.00065972
-0.00180554
-0.000232062
0.00217034
-0.00180042
0.0002898
0.000535641
-0.000731404
-0.000672845
0.000868608
-0.00114404
0.00273627
-0.00144787
-0.000625123
0.00230384
-0.00139103
-0.00120088
-0.0264567
0.0163256
-0.0210262
0.000749895
-0.00082639
0.000131995
-5.55002e-05
0.000651564
2.64392e-05
7.18918e-05
0.00136541
0.00175756
-0.00125166
-0.00116107
0.00337969
-0.00320514
0.00098651
-0.000558088
-0.000938983
0.00211138
-0.000614313
-0.000762569
-0.000377078
0.000581559
-0.00214267
-0.000148134
0.00490603
0.000318605
0.00282852
-0.00464161
0.00149449
7.7346e-05
0.00070846
-0.00113851
0.000352707
0.000125014
-8.23669e-05
0.00284528
-0.00288793
0.00126056
0.00439513
-0.00437587
9.3693e-05
-0.00377644
0.000740551
0.0029422
0.000766408
-0.00129667
0.000556946
-0.00072488
0.00133517
0.000312465
0.00131643
-0.00326649
0.00485148
0.000817724
-0.00133637
-0.00398692
0.00246026
0.00286303
0.00133808
-0.00172316
-0.00230003
0.000210174
-0.000977038
0.000502731
0.000264133
0.000785247
-0.000665176
-0.000953462
0.000833392
-0.000772502
0.000537718
-0.000149215
-0.000381292
0.00289633
0.01035
0.00993567
-0.00888085
9.41518e-05
0.000213438
-0.000327026
-0.000486523
0.00113195
-0.000437121
0.000967385
1.2887e-05
-0.00107651
9.62329e-05
0.000109269
1.66007e-05
-0.000241173
0.000196354
-5.39101e-06
-3.13654e-05
-0.00128189
-0.000323399
0.00335419
-0.0017489
0.000173847
-5.14392e-06
-0.000294712
9.76272e-05
0.000124325
-7.25039e-05
-0.000149448
0.0005108
0.000807282
-0.00181229
0.000494208
0.00180303
-0.00140463
-0.000131919
0.000461209
0.00301468
0.000482395
-0.00395828
0.000358368
0.00242442
-0.00232158
-0.000284817
0.000596015
0.00208535
0.000494662
-0.000687212
0.00012707
6.54796e-05
0.0029171
-0.00338737
-0.00993436
-0.00559523
-0.00470895
0.00890646
0.00139772
0.00107229
-0.00296373
-0.0026911
0.00458254
-0.000943532
0.0115328
0.00467184
-0.00425622
0.00427316
-0.00468878
0.00116797
-0.000180038
-0.00116461
0.000176676
0.00836108
0.0129477
-0.0170449
0.00687028
0.00320346
-0.00873953
-0.00133421
0.000254418
-0.00327273
-0.00303819
0.0060565
-0.00169887
0.00829832
-0.00952107
0.00292163
-0.00258722
0.00189388
-0.00127781
-0.00119276
-0.00058349
-0.000833495
0.00260975
-0.000151098
0.000543038
0.000439539
-0.00083148
2.97497e-05
-0.000408778
0.00120518
0.00208093
0.00233132
-0.000552281
-0.00385996
-0.00543226
0.00952133
0.000202747
0.00703807
0.00355138
-0.0136076
0.00301816
-0.00656425
0.0100747
0.00160366
0.00378055
0.00721594
-0.00395842
-0.00536824
0.0072335
-0.0257648
0.0158138
-0.00299089
0.00812504
0.00691781
-0.000642054
-0.00583868
-0.00578247
0.00613612
0.00431819
0.0113954
-0.00840161
-0.00651153
0.00351771
-0.00386729
0.00312431
-0.00239209
0.00313508
0.00157211
-0.0038579
0.00172271
-0.0072195
0.00935469
-0.00182479
-0.0104575
-0.00332366
-0.0019296
-0.00184257
0.00709583
0.0021614
-0.00392315
0.00458695
-0.0028252
-0.00929788
-0.00240468
0.00597084
0.00472639
-0.000484061
-0.0102795
0.0230866
-0.00379126
-0.00247196
0.000531723
-0.00198292
0.00126256
-0.00118211
-0.000229663
-0.000700154
0.000982467
-0.00275427
-0.00403319
0.0046316
0.00103351
-0.00163193
0.00333587
-0.00300445
-0.00103157
-0.00429444
-0.00669846
0.00599373
0.00499917
0.000725099
0.00174704
-0.00676658
0.00462235
-0.00451742
-0.00226991
0.00216498
0.0436414
0.00126936
0.00462045
0.000417217
-0.000415319
-0.000926994
-0.00978515
0.00401368
0.00155447
-0.00213057
-0.00385674
-0.00118498
0.0123145
-0.00513583
0.00465754
-0.00775062
-0.00111425
0.00420733
-0.00376321
0.0101371
-0.00171631
6.59181e-05
-0.00385534
0.00534388
-0.00231073
-0.00578974
0.000349852
0.000519501
0.00246624
-0.00125716
0.000407918
-0.00760929
0.0123014
-0.00509999
-0.00520003
-0.00473507
0.010343
0.00299472
-0.000173713
0.00181147
-0.00494633
0.00274103
-0.0115942
0.0028822
0.00427434
0.00443766
-0.000973156
-0.0103691
0.0119085
-0.00056629
-0.00253937
-0.00668531
0.00373199
0.00387295
-0.000919638
-0.013753
0.0176025
-0.00481801
0.000968511
0.00121654
-0.00135053
0.00250733
0.00358513
-0.00911173
-0.00822645
-0.00525755
-0.00703728
0.00267904
-0.00339101
-0.0066016
0.00652833
0.0123671
-0.00871515
-0.0101803
0.000568735
-0.00256106
0.000576916
5.36508e-05
0.00121706
-0.000486114
-0.000784594
-0.000730216
7.45331e-05
-0.000142243
0.00106091
-0.000761753
-0.000834923
-0.000627484
-8.10282e-06
0.00277438
-0.00213879
0.00232737
-0.000622381
-0.00193123
0.00022624
-0.00378211
0.0088946
-0.000515306
-0.00743274
0.00345617
0.00979033
0.0279125
0.0114233
-0.0104633
-0.0174944
0.021465
-0.00596233
0.00198271
0.00193425
-0.000968247
0.00100794
0.000726713
6.01021e-05
0.00079076
-0.000140048
0.00101108
-0.00037313
-0.000572323
-6.5628e-05
0.000697379
0.000162777
-0.000312609
0.00345219
-0.00908049
0.00211654
0.007264
-0.00592835
-0.00297227
0.00229747
0.000358688
0.00031612
-0.00687338
-0.00901743
0.0324017
0.00381563
-0.0045879
-0.00853809
0.00931036
0.00355773
-0.00215839
0.0011964
0.00140282
0.00610084
-0.00347991
0.00494204
0.000394846
-0.00290693
-0.00117935
0.00034543
-0.00105477
-0.00479331
0.00294115
-0.007082
0.0125649
0.00033858
-0.00294967
0.00172439
0.000886701
-0.000319417
0.00324703
-0.00080206
0.00109129
0.00191827
-0.00283413
0.00252091
-0.000850836
-0.00330738
0.000634091
0.00201953
0.000653767
-0.00274919
-0.00235317
-0.00384818
0.00895053
-0.00240989
0.00214668
-0.00304417
0.00267559
0.00528644
-0.00364701
-0.0321877
-0.00858982
-0.0135493
-0.00212341
-0.000536414
0.0020347
-0.0102494
0.00776431
-0.00769428
-0.00281922
0.00136606
0.00207137
-0.00537693
-0.00507779
0.0022978
0.00301231
-0.0113544
0.0202603
0.00316229
-0.00263271
0.00318977
-0.000678373
0.000341608
0.00224921
-0.000552585
0.000969088
0.0512738
0.0103795
0.00334552
-0.000168677
-0.00355813
0.000294679
-0.00316165
0.00705945
-0.00901827
0.00528462
0.00318955
0.000680505
-0.000479259
0.00208087
0.0021319
-0.00102321
-0.000726457
0.00255961
-0.00202283
0.000189673
0.00302156
0.0116876
-0.0164369
-0.00528548
-0.00320205
0.0104941
-0.00200653
0.00534606
-0.00284378
-0.00451869
-0.00355463
0.00209608
-0.000123809
-0.00800545
-0.00894906
-0.0121662
0.00587238
0.025674
-0.0164592
-0.00539917
0.000796741
-0.0215449
0.00462341
-0.00210833
0.0102273
-0.00176102
0.00129074
0.000475829
-0.000202247
-0.00306598
0.00354377
0.0011989
-0.00167669
-0.000963962
-0.0017978
0.000683782
0.00207798
0.00105007
0.00222759
-0.00289041
-0.0022494
-0.000902602
0.000658585
1.60622e-05
-4.42122e-05
4.82362e-05
-2.00862e-05
0.00274369
0.00111507
-9.84218e-05
-0.00376034
0.00327205
0.00326373
-0.000272236
0.00199533
-0.00301084
0.00128775
-0.00695803
-0.001915
0.0101357
0.0181748
-0.0179842
0.00111215
-0.00130279
-0.0207934
0.018639
0.0111291
-0.00115378
-0.00331529
-0.00666001
-0.00144161
-0.00313936
0.00487077
-0.0025128
0.00254357
0.000956615
-0.000987388
0.00160632
0.00182172
-0.00245501
0.000387021
0.000332454
-0.000870573
0.00077937
-0.0017771
-5.57915e-05
0.00105352
0.00551385
-0.00750831
0.00382904
-0.00183458
0.00108519
-0.000457224
0.00134311
-0.00197107
8.27931e-05
0.00354408
-0.000298332
-0.000490089
0.011296
-0.00782232
-0.0050523
0.00157857
-9.85111e-05
-0.000358455
0.000421512
9.95192e-05
-0.000162576
-0.000252462
0.000525816
-0.0014551
0.00118175
-0.00331284
-0.00140773
0.000547987
0.0044145
0.000732908
-0.00111927
-0.00146124
0.000677624
0.000655892
0.00012772
0.00194356
-0.000956854
0.00342779
-0.00178873
0.00137636
0.000614459
0.002648
-0.000626563
-0.00289661
-0.000769333
-0.00286171
0.000621755
0.00300929
0.000315178
0.00329024
-5.02747e-05
-0.000767443
0.00260117
0.00101575
-0.000935126
-0.00105425
-0.00017568
0.00355229
-0.000287062
0.000234386
-0.000201111
1.00283e-05
-4.33029e-05
-0.00105457
0.00063981
0.000744399
-0.000329638
0.00964906
-0.0126619
0.00252541
0.0120101
0.000173167
0.000553525
-0.000148482
-0.0015696
0.00218535
-0.000781623
-0.00350002
0.0102399
0.00486052
-0.0116004
0.00132211
-0.00218231
-0.000332567
0.0104299
-0.00639755
0.00657086
-0.0106032
0.00678623
-0.0160866
-0.0135793
0.0228797
0.000184944
-0.00374785
0.00283645
0.00150775
-0.00269196
-0.00188177
0.00344556
-0.0111638
0.00759441
-0.0038393
0.0023794
0.0059271
-0.00619735
0.00541884
0.000867982
6.47929e-05
-0.000156716
5.07864e-05
4.11369e-05
-0.00122412
0.00153052
0.00449806
0.0611833
-0.00346636
0.00558115
-0.0317258
0.0382006
-0.000398403
0.000616429
-0.000168713
0.00249965
0.002748
-0.000338804
-0.00301497
0.00713432
0.0336483
0.000948069
-0.0218136
0.0016397
0.00267952
-0.00101706
4.88101e-05
-0.00394164
0.0057876
-0.00229259
0.000446622
-0.00365318
-0.000519444
-2.49708e-05
-0.000198865
0.000532717
-0.000308881
0.000408864
-0.000278947
0.000151513
-0.00028143
0.000327142
-6.29374e-05
0.000347394
-0.000611598
0.000831105
0.00527798
-0.00475754
-0.000764164
-0.000147209
0.000761208
0.000150165
0.00107882
-0.000876101
-0.000816044
0.000613322
-1.21935e-05
0.000151059
-0.00421665
-0.00259913
0.00278438
0.00183529
0.00048856
-0.000786647
-0.000577478
0.000539299
0.000824826
-0.00190306
0.000456069
0.00103089