/*--------------------------------*- C++ -*----------------------------------*\
| =========                 |                                                 |
| \\      /  F ield         | OpenFOAM: The Open Source CFD Toolbox           |
|  \\    /   O peration     | Version:  2506                                  |
|   \\  /    A nd           | Website:  www.openfoam.com                      |
|    \\/     M anipulation  |                                                 |
\*---------------------------------------------------------------------------*/
FoamFile
{
    version     2.0;
    format      ascii;
    arch        "LSB;label=32;scalar=64";
    class       volScalarField;
    location    "0.0817324";
    object      omega;
}
// * * * * * * * * * * * * * * * * * * * * * * * * * * * * * * * * * * * * * //

dimensions      [0 0 -1 0 0 0 0];

internalField   nonuniform List<scalar> 
3989
(
49.394
43.6562
43.5616
44.5053
42.5633
44.2876
47.7433
43.2026
67.557
65.3454
144.994
77.6016
121.608
49.3523
61.4052
43.8937
49.4036
64.2569
46.9234
43.2147
77.4576
60.0881
51.58
49.3488
43.7196
61.7975
76.4735
48.5449
58.0947
49.1901
70.9426
69.2702
50.8715
49.3287
148.028
72.3636
48.7557
45.4281
73.8618
48.3771
55.9296
47.9245
77.0218
61.8692
86.5648
48.4399
47.2039
92.8999
49.3224
90.6907
44.151
49.4523
60.6008
49.2833
44.1824
48.3484
47.2055
77.9202
133.801
80.977
79.1181
177.314
181.588
627.027
42.928
50.3438
64.7444
42.789
59.3995
76.9097
129.126
49.3521
43.8464
44.251
51.4066
46.0342
44.7665
61.0701
45.8913
45.9016
47.1423
93.3987
66.1518
43.5636
42.566
200.232
42.6074
72.5498
43.3608
63.5007
43.4415
73.7854
82.8564
51.8466
48.7482
45.9735
47.873
61.4715
45.7343
78.7592
65.5407
83.9822
75.8097
132.705
68.9725
49.3502
58.9695
66.6385
63.5367
116.691
61.3789
46.3426
46.1694
46.2974
47.2995
48.6082
47.0639
71.5281
76.924
100.902
52.3871
49.345
46.2831
48.4578
48.2644
42.4137
46.5984
42.7982
85.3081
65.6728
96.0863
132.906
91.9336
113.729
112.841
109.462
47.4195
58.2108
63.5007
65.053
75.5037
57.8051
86.802
49.2336
48.6641
137.529
45.9288
89.3921
65.9133
58.2624
43.5604
69.7527
69.5656
71.341
166.039
162.542
42.3397
53.9323
61.1335
127.943
49.4171
44.1887
67.1574
96.5893
96.4886
44.012
44.1148
83.7015
44.3207
84.766
50.6431
47.817
100.16
52.4214
75.3255
50.1906
47.2952
45.6089
136.479
52.5495
80.7366
43.1692
72.5925
43.0726
98.6248
79.0843
51.5632
80.7196
65.5352
49.5561
47.9347
50.5094
89.3997
196.871
42.685
200.958
760.608
43.7418
50.8105
42.504
88.5468
76.0304
150.1
83.8635
148.415
62.3941
47.6542
64.2451
56.0416
58.0803
56.2585
70.5658
65.6427
55.0225
56.5958
582.931
64.7015
92.4653
85.0158
46.8137
45.1772
47.0298
48.1054
48.9195
96.9014
66.1409
52.3461
46.9332
81.4302
43.6049
88.6298
118.492
72.9926
54.7519
48.5681
203.932
104.429
68.9088
46.7619
52.8241
44.1352
48.6131
63.4597
134.642
133.154
42.7337
131.227
106.053
62.1875
65.0118
131.226
42.8602
80.2625
58.4303
85.6803
47.8092
95.2421
79.419
45.026
42.6947
52.8402
45.7629
71.1076
46.7661
78.676
108.17
42.9721
57.1531
90.4944
98.884
99.9498
105.892
106.079
49.6708
104.663
79.4543
110.53
99.2443
52.5688
199.313
63.3631
59.3909
141.685
59.5593
47.2387
49.8127
60.3235
134.87
169.254
177.237
107.579
107.394
108.269
56.9043
78.9544
46.4697
43.8975
74.3256
106.449
66.6438
53.1651
158.581
156.246
50.3988
156.802
54.4793
50.2821
81.1287
55.6361
49.1072
44.5748
42.0784
63.1218
88.0142
61.7968
107.57
42.3138
71.492
47.4797
49.5137
103.427
54.5408
61.5731
45.6815
70.5853
54.7524
82.2157
75.0837
120.991
50.4822
42.997
43.2868
44.3898
47.0559
42.3643
51.6308
58.8034
53.1789
99.8161
67.1177
62.3113
83.6978
74.1598
78.4347
42.0954
47.7929
185.562
49.8488
45.5774
52.9574
102.156
49.7786
49.437
52.9419
47.7147
80.8796
102.564
83.8546
720.264
59.8841
64.2249
103.422
44.4718
265.525
72.6198
79.8309
71.9295
91.6514
46.013
63.9766
87.6973
54.0398
126.766
42.7694
61.4192
42.6167
54.2722
43.1756
83.3523
58.2451
112.831
63.6795
57.4089
91.6066
136.723
123.095
84.2837
169.927
71.3711
101.942
45.1626
140.674
48.2481
103.559
98.2283
43.7657
48.1617
127.983
49.262
57.8721
51.812
67.7182
68.32
112.119
59.3154
50.9532
45.4831
111.06
74.1198
52.3912
46.6618
67.6637
43.197
552.744
82.6779
86.5082
44.7526
42.5365
49.876
93.1077
409.867
87.4869
88.2145
823.051
44.592
45.7472
44.6626
104.97
53.9816
45.0069
55.3121
89.2893
44.6865
46.8383
183.128
46.1195
49.0445
91.5374
45.1519
43.4669
48.2519
44.0856
45.4193
104.677
48.5082
43.0516
60.9065
59.9152
171.477
48.3928
54.7349
72.9584
80.0724
46.0049
49.0694
52.9217
123.23
93.668
42.7107
43.7008
61.1504
59.7944
152.996
100.196
152.802
73.7492
86.3515
89.6842
184.326
57.3931
119.106
182.268
65.8887
148.443
54.5098
80.9269
85.0479
121.729
120.087
106.749
160.407
72.8978
60.0815
84.9138
42.9143
49.4743
100.245
160.565
83.0156
44.1168
108.546
42.9542
67.028
44.4335
46.133
58.9511
57.4217
51.7566
42.7964
66.5575
43.1324
62.2906
56.603
55.915
63.2442
105.385
103.021
63.5329
74.0486
70.9002
46.8043
108.439
102.877
54.6549
89.5
100.053
81.1393
48.9795
83.3954
49.6574
52.5979
69.0542
87.6722
43.5787
123.037
44.7247
42.4306
77.1899
52.2972
42.3522
47.8234
48.4898
101.241
44.6582
54.1741
92.3011
47.5063
69.8118
101.773
59.8477
46.993
61.0747
76.8259
1423.89
967.112
45.5155
43.7049
45.1502
69.9782
42.2642
44.575
51.5423
103.029
125.732
85.9832
65.8906
72.8743
80.2637
43.8085
47.2368
105.86
132.998
59.7636
43.994
48.2434
43.3254
44.922
51.2864
73.3294
48.5837
50.0073
42.366
43.7273
79.1326
42.8441
71.0854
42.8287
50.8456
42.7394
44.8057
51.0234
61.1788
48.1729
51.0941
42.9768
44.2183
66.5064
54.379
42.6496
43.5396
54.0009
43.239
45.3496
925.426
437.19
108.533
49.3154
69.4178
79.4514
84.052
45.9929
42.8577
54.7189
59.0105
46.3235
47.9601
47.7905
44.4105
65.4751
49.3138
77.383
95.2635
49.0191
42.0299
58.486
47.4485
78.5076
82.4643
47.6694
110.122
73.6884
46.5267
62.0206
67.7335
42.7331
99.7318
45.2254
45.1335
50.28
91.7941
43.9836
47.1718
47.7444
45.8886
49.3073
47.5538
49.1878
65.4413
48.2123
49.8157
68.3395
49.6042
53.3508
45.297
44.8924
53.0151
48.1019
48.4177
105.249
45.2451
68.8624
52.5386
62.7822
46.7046
92.8159
48.0864
49.3508
42.4819
79.0304
65.5484
76.5264
94.1135
56.2793
42.9707
48.9207
58.6572
72.9751
50.9721
130.797
45.8897
42.967
45.251
127.533
62.9646
45.3358
59.3915
105.753
77.5236
137.491
55.8767
69.5713
42.6645
42.9552
43.1474
43.1469
43.5956
47.6145
82.5486
43.5047
42.968
42.7154
43.9486
43.2466
88.2879
59.9405
46.0307
72.522
47.3756
65.6053
51.6941
149.128
42.76
146.939
42.2025
64.9779
82.1939
53.1644
107.623
48.0373
87.1908
48.5332
109.214
43.1814
42.2538
46.6523
137.969
47.2896
53.4304
137.985
45.1977
107.819
56.1587
84.5378
78.518
66.453
80.2812
47.5099
42.4465
42.2151
45.0649
109.1
44.1956
43.9153
45.0852
42.2551
43.2931
68.6327
83.9385
42.4556
48.775
42.629
43.9232
95.1642
43.2817
163.996
43.962
67.4535
132.748
63.0749
43.7513
92.7522
76.8427
61.5535
59.3886
199.394
498.551
782.71
60.1715
43.9011
47.0385
42.1137
42.3935
46.423
48.5613
48.0725
49.3511
52.2529
71.1097
105.911
48.9338
46.5968
74.6354
55.9217
95.6813
52.3419
145.717
43.586
48.2717
96.2985
49.9829
44.1647
65.1667
47.3665
53.7722
79.2058
42.0901
53.6087
62.6065
56.1322
45.6134
49.9017
48.5232
61.7826
43.5466
42.4085
42.2404
62.68
42.659
109.096
42.5211
77.4223
79.6022
76.5657
75.2096
47.0162
42.8362
42.7502
43.5232
64.4189
63.9179
52.4432
52.4646
41.9004
47.5595
79.5489
55.067
57.9905
53.7386
58.9101
42.9976
46.8698
74.3761
65.9557
46.3091
123.67
51.5326
86.4091
42.569
54.1956
75.9752
50.8149
106.895
46.1015
51.0209
60.5776
43.1467
58.9798
51.0767
42.5141
56.4605
42.821
44.7921
85.9482
56.225
42.5107
44.6512
58.4173
104.615
59.9603
47.804
46.8414
46.0756
53.1357
53.4437
80.004
54.9846
42.1159
47.4328
51.3769
43.7407
64.9393
51.0265
43.8446
42.2431
79.262
54.1021
42.8909
275.253
98.5425
43.0728
43.8599
89.9538
89.9271
67.0163
91.7812
43.0307
84.164
50.4323
57.342
43.3771
44.5429
379.091
44.612
45.7918
120.596
54.9232
44.9594
63.9158
66.9962
55.0171
55.6272
52.2722
54.4326
53.6057
88.3156
85.7659
45.0361
47.949
79.8721
54.193
101.843
44.3568
73.3044
50.8866
48.8485
58.3908
558.879
158.737
467.925
690.471
201.528
50.9669
46.1385
47.8691
941.262
455.857
43.497
53.8021
47.7955
723.607
60.9521
71.0244
42.9971
65.5613
43.872
69.7664
44.3632
49.6708
52.3281
42.9558
95.0448
51.1498
52.3333
43.1831
45.6519
70.4213
50.7941
56.4492
45.7014
48.6984
946.895
371.223
115.499
52.8829
47.0471
92.6157
51.9966
53.9543
43.8341
49.4231
98.0268
57.247
42.8171
44.5153
57.6077
44.608
81.6971
78.0011
71.1607
55.4014
44.8948
52.98
80.8465
44.1086
42.3944
44.4223
46.1617
64.6635
104.878
49.2735
51.3815
65.3367
46.5295
48.2085
49.2012
61.7242
45.4162
49.3868
49.7608
52.8842
51.3738
42.5135
48.9946
51.8099
66.229
93.8847
67.1798
48.2534
49.9185
52.0051
44.5202
60.3016
44.4317
42.5436
51.4663
45.3913
52.6141
51.1394
49.3134
50.5714
43.193
45.9002
41.9753
53.145
93.9893
49.7424
48.6174
66.4507
42.0308
54.0593
46.8171
42.4027
48.2456
44.2871
57.09
70.9832
70.4027
56.3522
96.5899
51.199
53.9243
69.9568
57.7622
53.4515
52.8298
46.8764
60.9209
42.5065
43.8831
43.6789
43.522
60.0639
43.9952
52.1891
48.5186
44.5259
54.2311
54.8535
61.8308
56.9696
53.9404
43.0443
42.6336
43.0121
42.874
47.6622
47.6526
48.9689
47.0166
44.368
45.6987
43.9372
47.6443
42.6499
49.5386
48.1207
53.0572
55.5263
58.3837
63.191
136.903
134.575
46.1953
45.9239
42.9198
96.2556
43.7661
43.3954
50.1142
50.4879
43.0497
43.0493
45.0902
54.041
58.7065
46.888
49.4609
50.6261
109.918
117.875
85.8303
79.7607
127.55
54.0391
43.3549
43.0931
42.6386
45.028
54.5071
52.4803
53.5588
50.8248
62.2436
87.2394
86.5077
83.6002
43.5632
43.5109
43.3049
56.4459
46.6473
58.084
63.5596
915.158
50.6183
43.1526
46.1988
46.0235
52.5361
43.6527
52.3081
78.6781
95.6306
52.0661
65.1956
42.8034
45.098
66.1618
51.2974
51.35
52.8274
101.808
118.3
51.9274
48.3494
62.9895
42.6838
87.0591
108.046
98.979
52.3023
45.3986
56.5923
47.6843
94.8511
75.5064
77.5513
43.9376
44.0752
48.8002
50.337
92.8663
47.1537
102.172
103.771
42.9404
44.6453
47.9139
53.4921
44.0419
47.4293
42.8818
67.2456
44.098
47.883
42.9307
47.291
42.5308
50.5768
45.1285
52.9159
48.9009
46.9264
51.3492
74.2838
44.1103
45.1219
52.0398
68.4949
54.2906
44.7417
61.3293
57.8774
62.1392
45.7097
43.784
43.0447
47.6388
48.0654
62.0038
66.2759
52.7039
61.9126
45.0142
45.7245
73.6156
63.2104
44.4893
47.7994
57.77
73.0036
45.6174
63.6379
47.806
50.1569
50.8387
46.5384
47.371
61.4519
65.7731
49.2169
51.8734
58.6046
45.2253
66.6191
94.6045
54.659
45.2226
88.3488
49.1984
70.4684
76.2749
55.8895
48.706
47.9884
62.7803
60.6032
47.2908
45.3753
70.5834
42.5568
43.6511
45.6024
43.5608
45.1133
43.88
54.9357
44.9642
56.5456
77.1309
44.8618
56.6762
51.386
50.7539
54.2169
42.8764
50.9337
47.4822
46.3645
47.0756
47.0509
48.875
48.2684
69.526
44.4202
113.594
73.4145
69.0792
51.6877
91.3936
109.532
47.8387
49.1977
101.042
94.416
76.855
46.0719
49.2119
114.561
109.178
109.633
69.8191
95.2669
67.7522
97.5689
55.7523
48.785
78.8343
46.7721
66.6989
46.0914
44.6528
88.0984
105.635
49.2199
54.5332
49.2815
47.5583
69.7419
43.1322
65.4882
49.318
69.6022
65.9488
77.9675
85.57
81.3972
68.2737
64.1212
49.5593
102.462
43.0705
49.1962
44.0007
48.5233
49.2971
77.015
43.7535
48.1956
60.075
44.6399
46.7976
105.825
57.9734
43.4858
79.161
80.3764
91.7846
51.4433
43.9454
61.5016
55.0792
60.9346
70.708
48.4184
42.7302
48.2721
45.5803
76.5768
50.9374
66.377
97.817
63.531
47.3423
43.8811
48.557
106.643
94.9725
100.966
78.4652
48.3949
75.4896
105.038
88.668
74.8262
44.0043
52.53
71.8863
45.7741
49.4852
51.0613
54.4111
54.0818
108.305
102.641
337.612
85.9634
110.825
672.244
49.0215
55.0339
60.3613
48.3166
62.2277
43.8416
63.8569
44.0739
51.9627
51.8576
105.707
50.0575
44.6791
45.5387
45.87
96.0307
68.0575
46.7784
49.6011
47.3059
48.5559
49.3436
44.6603
137.268
43.1568
46.0522
42.7937
50.134
50.2746
49.8745
48.766
60.271
48.8032
42.6056
42.5258
42.7161
49.5584
74.106
70.0065
66.8155
45.5823
54.3662
59.463
50.0394
50.8455
70.0467
42.6108
42.7429
42.6932
56.0083
43.0505
49.2203
42.6831
49.2068
48.8411
44.8964
44.522
43.3098
46.321
47.7567
44.111
42.9827
74.4365
49.9411
53.4558
43.706
42.747
43.2452
48.297
43.3097
42.8436
71.9913
84.8274
69.1528
43.8275
78.3657
43.6796
72.7129
53.01
67.8293
58.1615
43.1148
42.6546
754.831
601.013
747.344
571.492
948.499
168.659
45.1368
57.7539
70.516
44.2066
42.6973
49.1358
54.5799
49.1058
71.3174
113.202
64.3937
98.0257
51.0059
45.7961
54.2233
49.9614
175.49
47.7988
73.9229
100.792
44.3889
50.3941
42.5666
43.9284
42.2141
102.153
81.2206
72.2938
58.263
42.6685
55.1251
67.9036
62.797
51.1329
82.3921
112.335
57.9964
56.6506
42.9132
71.014
100.805
67.2523
85.4048
98.2248
56.9052
48.8856
79.1237
47.9693
233.675
44.8905
42.203
64.8027
72.0527
51.3775
93.9062
44.4485
53.3715
44.826
43.7321
123.425
60.0133
44.7532
82.5588
94.6894
83.3588
42.1032
134.456
52.0128
97.3348
51.4366
50.115
147.362
46.1729
277.953
275.096
44.2242
48.4431
43.3413
42.4736
43.2822
58.4508
45.538
51.5497
64.0088
108.162
48.9882
49.275
49.6963
61.0042
66.4437
51.7193
62.5021
152.775
42.8188
54.0614
100.302
98.6985
74.4274
75.3197
85.1823
65.2216
88.0513
42.7456
76.9694
52.1852
102.043
50.6897
63.3871
130.301
88.9201
51.5426
91.3617
46.5586
47.0805
83.5701
79.6886
71.6366
51.7541
52.3389
51.9586
78.0304
66.3688
43.6785
51.6658
55.4811
60.3751
84.5193
242.117
894.648
45.4037
58.2574
913.662
99.0095
59.1706
46.5271
55.3835
43.274
74.0917
114.79
54.154
92.3952
43.0717
96.4108
52.9114
59.8024
51.5841
82.557
42.8931
93.6807
102.259
45.9029
61.0855
88.7928
47.9795
46.9058
46.1781
71.0329
77.2015
93.3993
72.1632
131.733
200.345
95.5373
51.5961
63.2792
58.9225
102.91
84.7066
150.247
185.053
188.931
48.1284
49.5873
45.6654
72.9815
46.7402
43.2261
47.4895
49.3442
47.8199
129.237
260.687
71.626
83.8815
52.125
44.5878
43.9946
43.6598
108.262
44.1853
42.6095
44.4308
45.1162
538.86
46.408
119.873
90.0198
43.1261
45.5263
45.882
49.3126
54.6698
61.9829
64.2537
43.4369
71.4991
68.301
75.4247
45.594
79.5068
55.3681
61.9959
63.9421
46.886
68.7139
62.3702
61.885
53.3537
48.7327
48.8222
88.2773
64.4465
48.5307
79.551
70.5339
103.562
82.6484
82.8373
82.727
84.2906
42.4222
43.505
43.4442
44.8144
91.3299
52.4274
113.918
66.2872
67.6
145.291
43.5728
44.3603
47.2882
48.4408
43.0478
42.3373
58.6935
86.2787
71.6782
61.3397
68.3518
54.9938
62.8163
64.0694
58.8028
112.516
111.318
66.1588
80.348
42.9084
106.646
71.9054
107.362
77.7619
61.9873
59.2817
55.6091
107.929
92.015
82.8752
82.132
48.1572
45.7214
46.2862
63.9776
49.3911
49.3999
49.4034
48.5361
48.9606
48.6901
49.3479
48.6333
49.3007
49.4688
49.3354
49.3256
72.2877
120.577
118.432
76.8
79.457
151.647
61.5475
42.4733
54.1229
45.6811
93.8253
96.7376
47.041
54.7396
50.7694
47.0545
49.7187
49.458
49.7394
44.9119
44.8516
47.7825
53.6953
81.8293
49.2002
50.6639
48.3738
45.5335
51.3703
48.5347
47.4314
45.0101
44.3454
44.292
79.5019
52.955
50.6788
44.8136
77.8973
48.9479
63.1066
62.3743
58.971
67.6767
77.8858
42.8327
59.5444
46.8645
47.8626
50.4464
50.2132
49.4497
42.237
47.9108
51.0015
47.6257
44.7123
66.3369
123.78
58.8677
42.6397
49.1595
51.1407
75.2315
51.4879
45.3697
45.5414
44.0374
42.9828
46.0498
43.7566
46.931
63.0621
45.1536
68.7087
46.8094
50.064
48.0873
69.8642
44.5622
68.6432
48.4889
47.4559
46.1952
48.6145
47.9877
45.5221
45.3828
46.1927
45.2606
47.699
45.6191
45.7875
44.498
45.1288
94.064
111.515
52.0249
63.7466
51.7722
83.7178
47.1341
43.7702
45.8059
43.8728
59.5837
46.583
45.722
47.5609
98.4956
42.5249
42.4687
42.8986
60.9827
83.1785
128.021
45.0421
42.5658
42.7923
71.9267
51.7644
77.7825
43.4973
53.6451
82.6454
46.4017
43.0942
97.8693
46.8721
45.7143
56.5486
45.4029
64.3947
63.4421
90.0038
68.4937
89.6909
63.4319
68.1076
93.4646
47.0407
43.2264
63.3776
44.4637
44.2579
44.7799
44.9591
48.7632
49.1947
47.145
61.2042
48.5604
47.914
48.4047
43.1584
43.8978
44.7615
44.1476
54.0343
67.5745
55.0314
44.04
66.8906
95.766
88.46
108.849
73.3957
56.2854
44.9888
51.0259
45.9211
47.9002
45.3945
48.3501
42.6989
54.3863
55.5482
105.425
115.121
104.431
55.7793
75.2155
81.5319
68.937
149.509
41.9215
42.0695
42.5871
112.026
47.4029
64.7418
116.305
102.775
136.983
138.701
48.846
132.056
136.686
104.106
126.195
81.668
609.493
88.6513
79.313
74.2072
57.8013
57.1908
112.066
74.7782
47.4089
49.7253
48.8932
49.3311
123.059
49.7017
62.4067
63.6835
128.231
146.598
91.4532
86.8256
51.0398
44.9662
46.0314
69.767
167.324
123.286
124.196
45.9521
49.3088
80.9937
46.1666
52.3629
73.625
61.3007
62.8662
80.0695
42.8684
52.9147
70.4495
52.7518
43.268
52.9823
70.1211
51.5953
44.4124
46.3779
67.6434
42.9602
131.942
75.8916
92.6939
56.3975
57.1799
93.4251
47.4724
42.944
66.3152
59.5551
108.436
78.0222
110.342
108.066
62.15
92.2601
130.777
850.872
52.4167
75.0573
110.639
111.156
43.7079
153.543
108.182
61.066
48.7089
82.0299
77.9257
95.3546
81.1032
51.5484
115.144
58.5541
114.606
82.2499
96.127
101.582
87.4664
131.135
118.749
42.901
42.3217
42.8961
42.7842
48.35
44.7114
112.019
75.1149
43.618
64.2759
43.5049
44.209
64.8408
42.8176
43.1265
43.2617
49.3513
145.076
44.1385
46.0936
47.3144
44.9023
50.6587
44.8096
60.5255
55.1555
72.4914
109.891
43.4987
96.0412
53.9392
59.5174
152.531
62.7606
486.735
96.8975
43.7922
97.1819
82.7725
43.6805
75.0322
46.6623
48.6242
61.3518
46.4226
51.9204
43.1796
43.7862
46.6608
106.231
45.4954
69.1291
58.0426
51.521
48.2047
119.747
48.7133
48.4061
47.217
99.3649
44.5357
69.8581
43.8485
44.8635
45.1108
92.7993
44.1522
42.5927
42.4167
42.3547
42.7557
49.7075
47.3949
42.6376
62.0813
53.044
80.5989
91.8074
43.1625
46.4473
55.1861
42.6025
45.0946
50.5791
43.2426
70.0583
42.6573
44.3522
45.0872
57.3977
84.7816
42.8847
66.5545
44.8341
43.6617
49.3534
43.5418
50.2857
42.4746
50.4472
46.2034
42.4612
42.6554
45.0563
44.3164
49.7014
55.8721
49.0291
47.0561
47.3279
88.5487
57.0364
43.9005
83.8914
86.9132
66.4085
42.1126
43.7268
176.689
46.3907
589.469
46.4341
53.8017
53.1579
43.6259
48.5379
48.7965
52.0583
65.0113
115.92
60.2387
46.573
53.5589
73.6558
43.3159
42.3644
45.4941
125.824
48.9254
51.4238
54.7356
43.0952
41.9519
45.4272
66.3877
48.1594
42.9709
42.668
43.2274
58.8307
46.0014
43.2647
78.6262
50.1158
76.6376
48.0328
50.3064
42.79
50.8489
43.0256
42.5212
64.5397
44.7995
86.422
44.4018
43.5439
43.3047
47.8772
99.7371
122.657
45.1359
43.4611
50.0414
49.5013
43.2426
65.8539
78.009
47.8425
45.0586
43.5113
43.5293
47.4773
43.2041
44.8729
46.2986
47.6847
43.053
127.403
42.3721
42.5536
64.0586
45.3365
58.9583
42.5441
46.2813
45.7735
48.1862
65.3658
55.5121
45.1415
68.4657
61.2984
60.754
923.893
725.042
48.3455
43.4586
48.0116
43.1213
43.5314
44.9974
42.8361
53.5609
43.3763
42.9306
42.8513
62.1073
43.5452
42.5943
45.2136
45.7133
83.9629
44.8044
220.649
921.463
44.3955
78.7008
66.5276
44.2722
844.259
66.7934
474.924
42.6338
46.1875
42.8127
44.3753
107.419
60.7054
82.5788
62.3918
90.9368
56.12
51.5104
47.401
43.4358
126.454
56.917
52.7504
110.54
108.479
42.7051
42.6382
52.7704
44.463
49.9768
53.8541
47.1036
42.6625
42.8838
42.9465
53.6284
42.2525
46.9295
48.4072
76.1641
42.3682
45.5242
53.3624
93.7255
70.063
43.7595
42.2354
43.4775
67.0679
42.8346
86.4496
101.303
42.5505
42.679
52.9595
45.9652
51.6949
43.4016
42.6105
46.1245
75.9278
48.5413
45.6492
47.4849
42.8396
43.8822
64.4406
42.5835
42.8388
46.434
47.232
44.4077
43.8685
46.8302
47.5969
44.6048
44.821
45.0672
82.1172
44.9511
46.5468
45.6596
81.093
92.1665
106.743
60.0628
45.4449
44.3958
48.8015
41.9972
58.2945
43.2305
49.7027
50.6635
50.4568
43.8258
50.7522
52.2234
54.9905
44.2955
50.7767
774.26
700.422
47.2129
78.6467
241.648
65.6818
43.996
51.1055
46.7637
76.6979
54.3718
45.4672
85.7076
136.31
42.687
48.2014
43.9635
60.4902
44.5878
45.7401
47.3779
45.2852
43.1878
84.5746
42.5583
45.9876
51.5426
70.4158
52.2727
44.2239
45.0619
97.1058
47.3439
47.5881
46.189
77.5467
63.1666
48.6746
43.9732
45.8082
63.6432
58.1125
87.8208
69.7136
50.3834
43.715
42.571
61.6955
62.4935
45.2193
112.065
49.2365
49.6471
48.4682
101.804
88.233
64.8829
60.3313
46.6084
44.2092
57.9733
48.8863
47.9893
62.7302
44.0635
87.6554
45.8514
46.6055
69.1117
69.4403
46.175
44.3526
92.0952
47.9632
43.6388
44.4246
54.3568
82.58
46.1969
46.5987
47.9973
50.7531
46.6761
62.6331
60.4242
44.4331
48.6099
49.2494
48.3947
47.1542
46.6205
48.3449
49.2667
49.6735
99.7483
134.717
100.475
70.7957
43.7264
43.8314
44.5269
48.4187
63.8025
104.253
47.718
49.0209
49.3503
49.2856
49.6671
94.7704
49.4302
200.053
49.4215
42.4144
42.2526
42.3279
56.5651
61.5181
76.6715
49.3577
74.8502
115.592
48.6217
45.9252
47.2066
59.0591
42.9983
92.6024
43.4684
47.0844
66.0209
44.608
48.3331
91.9669
43.9013
55.394
43.9894
63.0591
44.0871
42.915
45.2526
44.5438
45.4437
46.0078
49.4205
44.6023
44.2611
45.6764
42.7199
43.2205
110.075
42.4758
59.9931
64.8019
68.3121
43.3642
140.134
66.0817
61.6195
52.8301
80.8391
139.335
52.4626
45.4957
43.8778
66.6985
116.992
59.1011
48.2793
78.2599
122.316
103.639
55.8881
54.338
53.6261
93.097
68.4771
80.9009
71.3158
42.1091
62.575
117.183
43.3022
63.0437
49.8999
49.8526
83.481
61.8115
51.7457
44.7672
45.542
80.6924
95.267
47.4357
102.281
103.76
51.1647
84.4742
92.019
43.8341
108.83
43.4382
47.6663
507.255
73.1434
59.3767
42.1149
52.4313
52.7576
52.4838
53.056
965.391
65.1717
99.6096
65.8279
93.1164
96.5084
93.2951
93.4774
45.9418
49.4413
43.3916
47.6672
59.2029
48.66
44.8547
42.595
63.4853
45.5125
56.4123
61.4158
46.4103
48.4797
49.3436
47.1181
48.3417
53.2682
48.432
65.2078
50.3245
53.1373
42.8242
44.2034
84.7544
47.7624
130.174
47.2255
145.959
80.2752
59.2537
190.758
129.682
63.9133
43.8105
57.8064
44.1043
112.577
61.3197
47.6696
44.6669
42.9141
66.7917
54.8383
53.3985
95.9016
69.7654
43.0198
43.7436
42.6035
87.6487
49.895
43.6485
65.6159
57.3826
44.4691
43.0507
119.284
42.9019
42.5452
42.5218
43.027
46.3495
42.9127
45.9331
44.0282
46.7129
47.2542
43.3585
43.5492
50.6114
93.0888
56.1878
57.521
44.5028
42.7716
46.592
45.1158
43.2318
42.9115
54.2401
46.826
43.1387
46.0725
43.4311
74.9129
47.0549
49.0141
52.4662
55.6753
43.0125
42.1439
42.8701
73.3233
49.0631
42.6115
42.6581
43.1147
51.3738
48.1105
44.889
47.0696
46.1752
46.8403
44.7973
45.8147
42.4661
45.6858
45.5783
43.4959
51.6252
65.0732
46.5165
45.6776
82.6713
53.3775
52.5217
47.7155
42.3282
45.7135
45.3075
43.1601
49.8969
42.6454
43.4528
48.1665
46.0623
43.1956
44.1863
42.544
50.981
49.3561
66.7018
44.4147
46.348
47.9528
44.3662
46.854
45.3932
45.5886
44.7352
57.6516
86.4976
56.0982
58.5937
46.0089
43.4517
76.2319
72.7766
44.365
99.5354
59.8682
59.1429
43.1755
42.8259
43.1298
42.6478
42.7105
43.0328
80.9655
43.8445
128.63
87.1633
47.0537
351.436
100.322
42.1289
57.5161
53.5971
42.3087
44.0329
43.0789
134.833
905.754
67.5147
51.3121
84.5703
218.403
42.9409
73.5929
44.2323
50.0775
204.079
141.317
62.2047
46.217
60.9492
45.5729
45.3325
44.881
47.8555
42.5522
44.5301
51.3103
73.7832
45.2117
77.6991
43.462
66.0877
53.7875
50.6005
214.308
70.1717
84.9451
953.844
953.064
42.98
43.207
121.463
55.2251
43.3678
55.9753
96.6732
58.464
50.5391
43.3667
51.9522
127.891
52.2155
77.985
51.6747
53.0396
67.6456
53.1953
43.2027
42.4921
69.9315
42.8423
43.4642
123.415
118.994
43.249
45.1945
58.3389
43.9047
43.3691
66.1499
78.3805
67.1961
82.4454
42.8806
70.3268
75.9171
643.784
48.4959
90.7056
64.5366
69.7956
78.3482
52.7974
59.9791
53.9504
49.5715
45.0935
45.0228
49.4922
54.6482
43.5683
54.5096
48.0564
46.9857
46.893
42.1048
43.5264
56.2418
117.658
52.5797
43.5341
62.071
59.9983
44.0978
88.9501
42.2166
47.3227
107.2
63.7438
53.5317
50.1621
62.4275
69.577
55.8251
64.236
64.7794
45.5175
43.2764
44.2327
43.3832
43.7203
43.8044
45.6216
44.7901
44.6341
44.1971
44.7748
43.1242
54.5842
45.3445
44.4639
46.0148
46.7076
43.5606
43.7288
43.1151
42.8633
42.9563
43.7326
53.833
44.6172
43.3762
43.5715
45.4251
57.132
57.8229
53.8623
43.7995
45.0686
42.8022
66.3063
63.0133
43.2935
87.8087
73.4338
45.069
47.5884
43.5298
63.5356
97.0285
44.0026
45.2829
46.7602
46.4966
47.6233
46.4295
43.6169
44.6524
44.5345
43.3813
52.5879
73.3619
42.5583
48.9725
46.0999
45.4909
45.5921
46.6971
44.7105
43.7953
44.4776
43.199
42.488
44.7645
46.3717
42.6666
53.9376
42.7634
47.2543
43.5032
43.017
50.8268
45.0764
51.9921
43.5163
976.32
44.1716
52.629
54.9805
56.9534
60.2919
79.2762
42.8379
86.8785
54.0331
61.0282
96.8152
65.7275
49.8612
43.5657
54.1181
46.0729
135.796
45.6901
119.199
62.1195
43.5851
59.5957
49.1511
47.0779
44.2133
43.2173
48.7891
45.1064
51.1651
42.9446
49.412
43.3541
46.028
42.5822
81.0069
45.4827
68.6778
829.223
73.4833
50.4158
549.198
43.7676
72.844
47.1256
42.616
75.551
96.6732
58.8622
42.4884
58.6843
42.3148
59.8952
85.9044
42.5217
43.5203
92.0755
100.961
77.5784
42.5932
42.632
43.0872
43.4075
77.5778
46.4138
43.0045
63.9569
43.9444
46.4038
43.4219
44.4558
42.9866
41.893
43.9844
42.4749
42.0644
42.761
44.605
64.1714
49.8576
57.298
66.0136
42.3701
54.8417
42.8044
70.1792
43.1561
64.1715
69.4243
48.2322
49.4585
64.834
48.381
43.5015
44.7189
44.0575
42.2323
86
48.6875
49.3512
48.6859
61.7077
57.1921
70.2454
97.6045
45.8632
49.9928
46.0476
85.4147
45.0926
47.0947
42.5177
74.8998
97.2004
105.989
43.4265
80.5434
54.0232
103.422
53.0315
61.1215
51.008
56.879
60.7542
93.4776
74.8212
101.125
122.821
55.6261
44.451
42.6402
47.6178
44.6166
44.1057
42.6494
165.3
58.6787
42.5653
44.3938
45.0594
42.5479
44.3983
42.9846
43.0693
52.6748
73.3701
43.4404
45.3252
59.8786
66.4568
69.3011
51.669
45.9818
76.973
84.5866
48.2968
49.2454
49.272
48.5786
91.2688
68.6619
45.9343
49.3236
49.6742
49.3196
50.9387
46.6354
85.5547
49.0042
49.7774
47.2926
92.3366
44.0275
65.7648
49.2587
43.3163
43.1024
80.6026
72.7884
108.926
43.1388
57.5852
49.5932
113.471
43.2262
45.1062
105.773
45.6671
49.3236
48.907
45.4256
45.6041
77.4364
43.8315
44.7029
75.4671
80.5645
46.8636
47.0663
73.3414
79.9258
104.482
45.6733
46.6339
42.7612
54.6142
64.3613
64.8447
45.0746
63.9113
56.1399
56.1583
44.1516
44.5738
70.0909
70.9774
58.5671
48.7543
69.6549
62.0615
45.2492
51.2143
54.9905
48.0522
64.282
89.5016
85.1023
52.4225
45.7439
46.0947
48.7402
49.3792
80.0933
52.9382
50.4018
47.5967
49.3035
49.8871
43.7623
46.5433
100.531
50.3767
101.584
58.465
66.1039
60.3179
49.4381
53.6024
43.8454
43.3354
44.1976
91.6653
44.3789
46.3881
44.4851
112.249
65.3775
44.5057
42.4378
51.108
66.8251
42.9618
43.2122
43.3361
43.4188
45.2015
50.869
81.9875
55.026
42.9838
42.8631
42.8227
42.6278
42.778
92.9285
43.2917
48.5706
58.8626
80.9115
81.3088
44.827
978.939
167.412
45.2094
50.9315
66.6944
42.3729
42.4902
42.907
42.7635
47.2455
46.5542
57.3908
56.6631
50.7935
49.7025
52.9908
63.7835
69.4197
695.656
56.3804
51.7706
57.0162
43.5888
60.7962
57.3552
72.0762
60.949
47.3269
49.071
45.8735
83.9713
45.6494
57.2302
46.5114
52.583
59.3084
48.095
46.2882
51.4389
93.1636
44.1496
92.44
46.8155
48.001
77.7945
43.6955
47.0066
42.4906
44.556
86.8238
44.2134
44.283
96.4612
50.481
121.725
49.4026
49.4058
48.3386
49.3559
44.2756
48.5706
49.343
47.8595
47.1893
47.7755
83.8749
66.2214
51.6316
55.5276
56.0996
52.0133
53.546
42.4866
42.1796
42.5837
52.6258
43.613
52.2023
47.5696
78.6129
65.565
50.6788
60.3169
75.3698
46.0493
58.2944
94.3208
46.6718
67.0508
60.4748
64.7735
46.3819
70.947
86.61
102.761
145.887
43.775
42.4868
47.9744
43.983
43.344
42.5832
45.4304
82.6222
72.9578
47.2094
44.6187
51.562
49.2815
55.3637
117.268
46.2095
52.2588
46.8373
44.7484
43.3399
53.2146
84.3848
89.7941
45.9771
46.9623
49.2789
67.2464
47.8838
43.7668
44.8106
43.3615
49.4112
58.5374
43.9436
53.8723
48.3609
71.6709
43.6826
42.6636
52.7885
81.2069
54.3967
56.1981
42.7529
42.7366
42.1017
107.115
48.1957
43.1375
47.2592
44.4005
50.6228
55.6525
43.724
50.341
104.702
48.3277
74.3436
51.9174
83.3655
83.0714
56.4209
59.1093
51.846
52.916
53.3415
43.1062
42.1371
47.245
49.7424
50.3288
51.5701
46.1313
44.6591
44.699
44.6872
49.5969
54.7188
61.6421
43.4272
58.8772
43.3829
43.3717
70.0077
44.7695
43.2586
43.91
42.7655
43.1681
42.8808
55.0165
72.0085
42.3361
47.0765
53.3222
87.9649
43.069
43.4784
52.7242
58.9181
50.9906
88.367
66.456
45.6773
43.4467
71.2386
152.37
42.9801
42.4988
45.3101
44.5241
84.9717
104.048
44.7061
43.5884
46.7618
46.2401
52.7283
43.0017
43.5943
45.0672
43.1064
556.813
143.777
166.468
45.0958
44.8434
58.3905
51.7493
43.7334
80.7876
93.6728
47.5965
45.4477
47.0891
59.4848
47.7269
47.1543
55.0357
108.691
50.0527
49.4242
43.1626
44.0385
42.8916
49.9714
71.7812
100.679
210.442
46.3996
56.5469
100.347
100.533
47.6703
42.0742
42.2088
110.34
45.5984
51.11
43.2414
42.6181
49.736
70.6951
56.2055
44.0044
45.6045
46.0837
56.9858
45.1771
45.782
43.1296
44.8501
57.5155
58.3161
87.9531
96.1551
54.6111
54.026
50.7356
42.6962
65.1107
49.2802
49.9161
66.7604
68.6697
55.8003
87.173
44.3509
134.284
60.6406
82.8312
87.9299
74.5067
150.863
103.651
102.481
56.2216
42.2947
98.6016
84.011
44.3023
98.153
47.7468
82.62
46.7971
69.4269
53.5992
118.111
86.5566
98.2206
97.4325
134.268
52.8749
54.2869
111.093
80.0457
149.62
47.1399
59.9822
114.367
83.2646
114.748
62.7535
43.4342
43.189
50.176
113.659
44.3547
49.4696
44.3968
51.3426
45.1856
48.8682
61.2219
48.084
109.169
44.2452
42.5222
43.546
135.193
50.5101
51.8073
44.1502
199.625
49.2613
48.903
45.6291
48.8947
48.7523
188.46
108.811
978.082
46.9175
46.6293
49.2275
53.0068
50.6727
47.9975
42.7406
43.1433
42.4218
108.381
42.2884
53.1544
49.686
44.4891
49.374
54.7314
47.2587
47.4529
48.9635
49.2366
49.189
85.0135
134.127
68.0282
83.7319
48.2157
59.387
50.5575
49.102
49.5107
77.1331
125.944
60.2126
123.69
85.5881
108.494
49.019
49.0972
83.697
46.9545
46.137
42.7371
42.6619
43.396
43.3978
43.6295
47.5755
43.0076
67.5438
46.6766
62.5671
92.4681
44.6362
50.5188
92.0691
71.4687
75.7575
44.9373
67.1076
49.083
46.5464
47.8742
76.0161
76.629
49.1679
94.2544
100.381
121.972
66.2708
68.423
51.2749
60.8432
45.8336
48.1324
60.6031
75.0056
43.3473
43.8884
60.2976
142.693
103.111
106.396
62.1586
46.0121
104.381
45.3754
93.9983
42.3907
64.7994
49.9966
44.051
44.9053
43.9883
45.6969
45.9241
45.1232
46.4322
44.2829
46.4084
122.269
44.4034
43.31
53.2741
45.0313
44.2562
47.0357
60.6757
43.8816
47.816
49.2
47.3297
48.4945
67.9482
46.6647
43.9679
44.5631
45.2327
92.2452
60.2098
69.8824
67.1573
59.9329
61.5747
56.6823
42.0485
43.1384
63.4856
97.0864
77.4098
59.3035
50.4582
48.1713
49.8325
46.8092
45.3159
46.107
44.8816
45.8828
45.5888
72.5928
81.1134