/*--------------------------------*- C++ -*----------------------------------*\
| =========                 |                                                 |
| \\      /  F ield         | OpenFOAM: The Open Source CFD Toolbox           |
|  \\    /   O peration     | Version:  2506                                  |
|   \\  /    A nd           | Website:  www.openfoam.com                      |
|    \\/     M anipulation  |                                                 |
\*---------------------------------------------------------------------------*/
FoamFile
{
    version     2.0;
    format      ascii;
    arch        "LSB;label=32;scalar=64";
    class       surfaceScalarField;
    location    "0.0501868";
    object      phi;
}
// * * * * * * * * * * * * * * * * * * * * * * * * * * * * * * * * * * * * * //

dimensions      [0 3 -1 0 0 0 0];

oriented        oriented;

internalField   nonuniform List<scalar> 
7371
(
0.00651648
-0.0128838
0.0127121
-0.00634479
-0.0077133
0.00199804
0.00345182
0.00226344
-0.000949141
0.00150075
0.000255491
-0.000807099
-0.00482518
0.0105671
4.00725e-05
-0.00578203
0.016282
-0.00577242
-0.00486338
-0.00564615
-0.00267157
-0.00103723
0.0039578
-0.000249004
0.000539163
0.00108034
-0.000372459
-0.00124705
0.0469371
0.0111255
0.00232242
-0.0603851
0.00505054
-0.0331642
0.0117722
0.000847546
-0.00982447
0.00965675
-0.000679818
-0.0249931
-0.0576851
-0.00895565
-0.0581912
-0.0868543
0.0570508
0.0879947
0.0285413
0.170456
-0.245257
0.0462598
0.00161146
-0.00143426
-0.00140163
0.00122443
0.0535136
-0.0527449
0.019052
-0.000518456
0.00135999
-0.000680441
-0.000161097
-0.00284556
-0.00559022
0.00166555
0.00677023
0.0612292
-0.0417075
0.0642437
-0.0837654
0.0572251
0.000971921
-0.058197
0.00118728
-0.000129721
-0.000247422
-0.000810139
-0.00013876
-0.00220838
0.00140539
0.000941752
-0.000154029
-7.28007e-05
-0.00140516
0.00163199
-0.0026527
-0.00117285
-0.00130452
0.00513007
-0.000818096
-0.0026756
0.00140134
0.00209236
-0.0557522
0.0557417
1.05335e-05
-0.00572941
-0.0425848
-0.00743807
0.045961
0.0136973
-0.0593783
-0.000279917
0.091698
-0.00259939
-0.0431377
-0.00078228
-0.000408258
-0.00101644
0.00220698
-0.000669422
0.00837924
-0.00841656
0.000706734
0.00787525
-0.015022
-0.000769833
0.0250089
-0.0148052
0.0169239
-0.0271276
-0.0664434
-0.0231782
0.0896216
0.0252031
-0.135815
0.126243
-0.0156313
-0.0552591
-0.0599485
0.115208
-0.0284223
0.0596987
0.0200969
-0.0513733
0.00315438
0.00373798
0.000836567
-0.00772893
-0.0341671
-0.0380249
0.09933
-0.027138
0.000960865
0.00228238
-0.00135427
-0.00188897
-0.0557621
0.0273398
0.058312
0.063339
-0.0619524
0.00273352
-0.00033955
0.0010231
-0.00341707
-0.0128963
0.00141298
-0.0118821
0.0233655
0.00365302
-0.00354579
0.000751065
-0.000858296
-0.00169689
0.00360915
0.00605334
-0.00796561
-0.00183379
-0.000652746
-0.00106486
0.0035514
-0.00335509
0.0108366
-0.00734691
-0.000134615
0.000514459
-0.000471089
0.00079921
-0.00084258
0.0106091
-0.0613254
0.132967
-0.0822506
0.0298992
0.0177032
-0.0476024
0.0341639
-0.0662501
0.0619854
-0.00182229
0.0033578
-0.00112045
-0.000415059
0.00121369
-0.00168882
0.000252911
0.000222219
0.0199625
-0.00221407
0.0144407
0.0156551
-0.021979
-0.0216601
0.00565436
0.0304464
-0.0110793
-0.000785132
0.0087067
0.00315771
0.000874173
0.000397718
-0.000649036
-0.000622855
0.00311811
0.00458521
-0.00224111
-0.00546221
0.0116526
0.00530261
-0.00288327
-0.014072
-0.00180274
0.00104078
0.000563504
0.000198458
-0.0349162
0.0528799
0.0418135
-0.0597773
0.00593868
-0.00896665
0.000782211
0.00224575
0.0206119
-0.055528
0.0266876
-0.0202019
0.0277859
-0.0342716
0.00911501
-0.047605
0.0651776
-0.0518088
0.130632
-0.0175936
0.034755
-0.0694507
0.00133026
0.000360056
-0.00255013
0.000859814
0.00677144
-0.0105219
-0.00181551
-0.0239087
0.0347553
0.0791472
-0.0899938
0.00316685
-0.00964778
0.0026474
0.00383353
-0.00624251
0.0161152
-0.00328415
-0.0065885
-0.00106688
-0.00457562
0.00170376
0.00393874
0.00114106
-0.00273165
0.00399596
-0.00240536
-0.000887961
0.000331567
0.00143057
-0.00165944
-0.00055043
0.00483246
-0.00262259
0.00670481
0.00729412
-0.0095713
-0.00442763
0.000928178
-0.00499441
0.010771
0.00804552
-0.00713781
0.00149355
-0.00240125
0.0186437
-0.0365772
0.00941674
-0.000511442
0.000531458
-0.000527119
0.000507104
-0.0861913
0.00308169
-0.0657037
0.0694057
-0.00370201
-0.00178283
-0.00185198
0.00771251
-0.0040777
0.0923786
-0.0522364
-0.100176
0.0600339
-0.0270397
-0.0635318
-0.0416124
0.000482878
0.00275034
-0.000310008
-0.00292321
-0.00032254
0.00357301
-0.00111332
-0.00213715
-0.00331379
0.00419314
0.000890734
-0.00177008
0.000433166
-0.000339705
2.16929e-05
-0.000115154
0.000471061
0.000667658
-0.00179955
0.000660828
0.00217731
-0.0139672
-0.00535724
0.0171471
-0.0254977
-0.0531918
0.0878046
-0.0599145
-0.0691804
-0.0171224
0.146217
-0.000193889
0.0010827
-0.00180003
0.000911211
0.000674571
-0.00209973
0.000476014
0.0300253
-0.0597889
-0.0201231
0.0298002
-0.0351748
0.00139105
-0.00365723
0.00138536
0.000880822
0.0050123
-0.00205129
-0.00181995
-0.00162108
0.000317221
0.000842937
0.000460925
0.00200748
-0.00461616
-0.000206501
0.00281518
0.000840828
-0.000166257
-0.016266
0.003465
0.0121771
0.000623867
0.0901096
-0.0277952
-0.0327185
-0.0295959
-0.0162187
-0.043502
0.152099
-0.00786597
-0.00750061
0.00880317
-0.000543857
0.0477554
-0.0616229
0.0161385
0.0676046
-0.0205996
-0.0631434
-0.000694184
0.000430972
-0.000325375
0.000588587
0.000874373
0.00164238
-0.00333485
-0.00802459
-0.0161921
0.016749
0.00746763
-0.00166652
-0.00283408
0.00284117
0.000414552
-7.22661e-05
-0.000805915
0.000463629
0.00344414
5.63203e-05
0.0385155
-0.0420159
0.0308777
0.000181009
-0.0276146
-0.00720177
0.00177442
-0.0495426
0.00668784
0.0375381
0.00531673
0.0351496
-0.0351666
1.70551e-05
-0.018928
-0.0435721
0.0129574
0.0402971
0.00154032
0.00356793
-0.00163655
0.000641061
-0.00257244
-0.00328267
0.0111618
-0.00119151
-0.00668765
0.00727187
-0.0115024
-0.00138688
0.00561744
0.00769563
-0.0109841
0.0105604
-0.0182084
0.0120105
-0.00510705
0.0113049
0.0162115
-0.0138157
-0.0206041
-0.0246691
0.0129202
0.0118121
-6.32102e-05
-0.0138273
-0.00314616
-0.00254942
0.000447542
0.00139175
0.000710121
-0.00105208
-1.78991e-05
-0.000490502
0.00156048
0.00111157
0.00160732
-7.61966e-05
-0.000568819
0.000645016
0.00809047
-0.00889815
-0.0181357
0.0189433
-0.00493203
0.0184935
-0.000156246
-0.0134052
-0.00317819
0.000934783
0.00205431
0.000189099
-0.000711739
0.000356403
-6.26458e-05
0.000417981
-0.00544724
0.00683827
0.00257372
-0.00396475
-0.00101087
-0.000117407
-0.00121571
0.000859778
-0.000654941
-0.0036421
0.00205302
0.00511015
0.00400892
-0.00231915
0.00330968
-0.00499945
-0.0377688
0.0657715
0.0385797
-0.0665824
-0.000308229
-0.00169636
0.000788884
0.00131129
-0.000451508
0.00119388
0.0234098
0.0161264
-0.0395361
0.0435066
-0.0559724
0.0428759
0.0428156
-0.0297191
0.0256437
-0.0225908
-0.0653455
0.0254995
-0.0222558
0.105278
-0.0573782
-0.000529625
0.00143688
0.0113677
-0.012275
-0.0325986
-0.0514808
0.0233067
0.0607727
-0.00109804
-0.00041123
0.00204801
-0.000538737
0.00939807
0.0141916
-0.0235897
-0.00352894
-0.00678201
0.00880646
0.00150449
-0.0194382
0.0390531
-0.00761171
-0.0120033
-0.025849
0.0258599
-1.0908e-05
0.0636831
0.0391833
-0.155103
-0.038207
-0.0070801
0.0359151
0.00319439
0.000297585
0.000135581
0.00174871
-0.00108501
-0.000684443
2.07473e-05
0.00171194
-0.0026486
-0.000953269
0.00188994
0.000443079
0.000704941
-0.000365832
-0.000782188
-0.0029222
0.00268177
-0.00131303
0.00155346
0.000733432
-0.00031054
-0.000611921
0.00018903
-0.00237988
0.00130165
0.00725482
-0.00617658
-0.00119095
5.28289e-05
0.000286549
0.000851573
-0.00397264
0.00212992
-0.000490424
0.00233314
-0.0012296
-0.00363507
0.00349361
0.00137105
0.00191733
-0.00165931
0.00149068
-0.0071106
0.00375489
0.00436278
-0.00467512
-0.00153051
0.00184284
0.00158728
-0.000355616
-0.000862078
-0.000369582
0.00663142
-0.00226864
0.0026002
0.0012837
-0.000729514
-0.0505055
0.0584734
-0.00202663
0.000531756
0.00249378
-0.000998905
-0.0354943
-0.00709051
0.00106746
-0.00152229
0.000454821
0.00110811
-0.00145771
-0.000806659
0.00115626
-0.00774647
0.00433675
0.00212778
0.00128194
0.0354907
0.0130912
-0.0466813
-0.00190059
0.000635631
-0.000657406
-0.000171599
0.000193374
0.000744717
-0.000217327
0.00110279
-0.00163018
-3.53088e-06
0.0451224
-0.0522129
0.00183795
0.0026582
-0.00126717
-0.00322899
-0.000555017
-0.000783796
0.000999109
-0.0728293
0.0505173
-0.0149802
0.0372922
-0.0217421
-0.0800785
0.0289913
-0.00147734
0.000810967
0.000666373
-0.00708522
0.00650593
0.00360371
-0.00302441
5.12699e-05
0.00278862
-0.00251755
-0.000322334
0.000567026
-0.000106131
-0.000460895
-0.0557644
0.0340223
-0.00541594
-0.000764177
0.00347797
0.00270215
-0.000831787
-0.00122547
-0.00282357
0.00488083
-0.00609818
0.0188502
-0.0564201
0.0436681
0.001133
0.000675598
0.000836067
-0.00264467
0.000115697
-0.00279466
-0.00400234
0.0066813
0.00349674
-0.00193358
-0.000906016
-0.000657145
-0.00185543
-0.0115682
0.00653039
0.00689326
-6.39369e-05
0.00241239
-0.00357805
0.00260179
-0.00240002
-0.0126677
0.012466
0.0070978
-0.00428363
-0.0105334
0.00771918
-0.00185476
0.00417138
-0.00210446
-0.000212157
0.000283097
0.00108193
-0.000369616
-0.000995406
0.00100812
-0.00182295
0.000187941
0.000626885
-0.00149263
-0.00102149
0.000287961
0.00222617
0.00280217
-0.0097835
0.00440041
0.00258092
0.00126425
0.00279653
-0.00661203
0.00255126
0.00696704
-0.0044713
-0.00509194
0.00259619
0.000561609
-0.000473986
-0.000297194
0.000209571
0.0143709
-0.000398651
-0.00700519
0.00212185
-0.0075069
-0.00271543
0.00810049
-0.00605099
-0.000260809
0.00441715
0.00189465
0.00486241
0.00031515
-0.00481567
-0.000361888
-0.00112213
0.00291327
-0.00287615
-0.000309572
-7.26034e-05
0.000382175
0.000464832
-0.000217408
0.000314184
-0.000161116
0.000563177
0.0023539
-0.00275597
-0.00240133
0.000162473
0.000416571
3.57246e-06
-0.00441912
0.00542326
-0.00100771
-0.00792427
0.00188173
-0.00557372
-0.00818991
-0.0242044
-0.0207976
-0.040325
-0.00582675
0.00689784
0.0483977
0.0598254
-0.0647396
0.0145261
0.0525359
0.000373878
-0.0607589
-0.00121546
0.000364174
0.00133826
-0.000486979
-0.113448
0.019378
0.0307792
0.063291
-0.0553262
0.0807302
-0.0229523
-0.00245165
0.00224738
-0.00189191
0.00449461
-0.00485007
0.000144971
-0.0554712
-0.00197507
0.00167218
-0.00153091
0.0015734
0.00178265
0.000379724
-0.00373577
-0.00199047
0.000710278
-0.00256017
-0.000694496
-0.00362354
6.31694e-05
0.00425486
-0.0559845
0.103449
-0.000518407
0.00344166
0.0035017
-0.00642495
0.0244345
0.017266
0.0248776
-0.0393333
0.0863378
-0.0363953
-0.00174018
0.000735876
0.000386923
0.0402971
-0.04047
0.000172909
0.0604914
-0.0209193
0.000725017
0.0696572
-0.108294
0.0761749
0.000172906
0.0696522
-0.0001679
0.00460803
-0.0120081
0.00877618
-0.00137607
-0.000323277
-0.0022122
0.00298845
-0.000452974
0.00334586
-0.000961702
-0.00270743
-0.00233652
-0.00405106
0.00249109
0.00389648
0.0236883
-0.047597
-9.36147e-05
0.00135877
0.00209264
0.0695102
0.00218437
-0.000889956
-0.00241486
0.00266506
0.00278816
-0.00210736
0.00223915
-0.00029586
0.000241076
-0.000686223
-0.000985792
0.00133169
0.000340322
-0.00124622
-0.000135483
0.000695481
-7.94023e-05
-0.000158695
0.129924
0.00134345
-0.0012035
-0.000219356
0.000649159
-0.000291499
0.0643657
-0.0606694
-0.00369634
0.00635124
0.00370699
-0.00689138
-0.00740568
-0.00565564
0.0143094
-0.00124807
-0.00627338
-0.00493441
0.00507917
0.00612863
0.00423442
0.00469016
-0.00490945
-0.00401513
-0.00832414
0.0223267
-0.0189959
0.00499336
0.000502953
0.00193491
-0.0092942
0.00685633
-0.00176337
0.0112373
0.000877672
-0.0103516
0.00888685
-0.0136548
-0.000438047
0.00133627
-0.00733015
0.00856395
-0.00257007
0.00265328
0.0150833
-0.0180564
0.000319882
0.0026547
-0.00140713
0.000968405
-0.00221598
-0.00191153
-0.00242175
0.00158652
0.00274675
-6.70719e-05
-0.000715894
0.000782965
0.00597696
0.000505147
-0.00362019
-0.00286192
-0.000615543
-0.000801256
0.000306418
0.00111038
-0.00309599
0.000374531
-0.00154778
0.00426924
0.0172992
-0.0231467
5.35299e-05
-0.000258028
0.000506515
-0.000302017
-0.00453716
0.00205217
-0.000611009
-0.00415922
-0.0046984
0.00510361
0.00375401
0.00928932
-0.0105592
0.000240843
0.00102907
0.000862344
0.00481037
0.0110334
-0.0167061
-0.017045
-0.00209079
0.0129049
0.0062309
6.26051e-05
0.000447907
-0.00154751
0.001037
0.000921367
0.00285969
-0.00307646
-0.000704601
-0.00114033
0.000969835
-0.000108872
0.000279369
-0.00181288
-0.00181244
0.0010759
-0.00135321
-0.00513275
0.00765127
-0.00116531
0.000235217
0.000687976
0.000206639
-0.00112983
-0.000676576
0.000186155
0.000490421
-0.00182146
-0.000909267
5.51335e-05
-0.00254429
-0.00998572
-0.00140042
0.0139304
-0.000935221
0.00132186
0.0046316
-0.00501824
-0.000688284
0.00057203
0.00276053
-0.00264428
-0.000606121
0.00196108
-0.00491713
0.00356217
-0.00114582
0.000528072
0.000573617
4.41302e-05
0.00325964
0.00212046
-0.00577565
0.000395554
-0.010917
0.000438478
0.00273202
0.000374946
-0.000740635
0.00157938
0.00684318
0.000621186
-0.000170249
-0.0101526
0.00502723
0.00982184
-0.00469644
0.0262132
0.060236
-0.124218
-0.00480912
-0.00170019
0.00315422
-0.00197704
-0.0148217
0.00794105
0.00370877
0.00253075
-0.00849688
0.00225736
-0.00484366
0.00911356
-0.014004
-0.0082557
0.0170225
-0.0047688
-0.003998
0.00160356
-0.00323849
0.00314496
-0.00151003
-0.00040389
0.000816469
-0.000412579
0.00515146
-0.00561508
0.000150915
0.000312702
0.00390539
-0.00666523
0.00095204
0.00180779
0.000416587
0.00275316
-0.000287289
-0.00288246
-0.000465446
-0.00940536
-0.000103666
0.00997448
0.00471438
-0.00437226
-0.00105816
-0.000486873
-0.0038709
-0.00152801
0.00094848
0.000385641
0.00170139
0.00234583
-0.0115281
0.00748092
0.00097356
-0.00153142
-0.000649351
0.00120721
0.0537734
-0.0785483
0.0247749
0.00122201
0.00153464
-0.00163473
-0.00112191
-0.00275958
-0.00121443
0.00397401
-0.0016095
0.000787446
0.000822059
-0.0574817
0.0891757
0.00434169
-0.0360357
0.00164527
-0.000935949
-0.000437514
-0.000271809
-0.000465874
0.00211115
0.0358555
0.00401843
0.0146488
-0.00422967
-0.0107912
0.00282943
0.0121914
0.0018819
-0.00263788
0.000290113
0.00123056
0.0101182
-0.00711435
0.00571698
-0.00383508
0.00385885
-0.0059997
0.0035327
-0.00139185
-0.00753709
0.00402281
-0.00497985
0.00849413
0.00115952
-0.00713433
0.00503959
-0.00445195
-0.00331345
-0.0020013
0.0097667
-0.00425675
0.0036093
-4.08305e-05
-0.00239427
-0.000638171
0.00233256
0.00069988
0.00122934
-0.000460539
-0.000768796
0.00794092
-0.00880073
0.00201932
-0.00766845
0.00180801
0.00549493
0.000365511
0.000506806
0.000173522
-0.000504396
-0.000175932
-0.00152602
0.000109521
0.00300405
-0.00158755
-0.0052588
-3.41658e-05
0.00661483
-0.00134654
-0.000134094
0.00603468
-0.00455405
-0.0211338
0.000694141
0.00262196
0.0178177
-0.000825445
0.00464965
-0.00135451
-0.00246969
0.00099866
0.000818104
-0.00111648
-0.000700288
-0.000648512
0.00870546
-0.0085733
0.000516354
0.00205225
0.000811804
0.00352776
-0.00639182
0.00386749
-0.00196732
0.000265773
-0.00216595
0.00022864
0.00204644
0.00941374
-0.0116888
0.00789587
-0.00410668
0.0119434
-0.0157325
0.00190171
0.000948716
0.000167132
-0.00301756
0.00022957
0.00148962
-0.000745634
-0.000539536
0.0021477
0.0035433
-0.000904845
0.000617198
-0.000410417
0.000698064
0.000727395
0.000951151
-0.00184839
0.00016984
-0.000416686
-0.00239355
0.00183212
0.000978118
0.00179442
0.00129957
-0.00309018
-3.81148e-06
0.00314298
-0.000757532
0.000279609
-0.00917939
-0.00514166
0.01613
-0.000233361
-0.000917666
-0.000651712
-0.0194623
-0.00855779
0.0112245
0.0167956
-0.00691208
0.0032481
-0.00590732
-0.000454995
0.00119538
-0.00366259
0.00336801
-0.00387011
0.0013353
-0.000833194
0.000750563
-0.000727995
-2.25676e-05
0.000412293
-0.0004848
0.000813749
-0.000741242
-0.0075494
0.00428689
-0.00139593
0.00465843
0.000656616
-0.000466685
-0.000271307
8.13769e-05
3.28596e-05
0.000239341
0.00072646
0.00697351
0.00278177
-0.00779243
-0.00196285
0.0299982
-0.0177273
0.00227655
0.00107666
0.000852737
0.00122206
0.000740258
-0.00281505
0.00048387
-0.000394021
-8.9849e-05
0.00775815
0.00644196
-0.0223485
0.00814838
0.000208129
-0.00113892
-0.00194964
-0.00159351
0.00136131
-0.00313081
0.00336301
-5.29444e-05
0.00192932
0.000925429
-0.0028018
0.0036269
-0.00192385
-0.00341405
0.00171099
-4.91225e-06
-0.00398065
0.0020105
0.000780215
-0.000758828
0.000712045
-0.00535026
0.00320653
0.00160419
1.55206e-05
-0.000466738
-0.000671077
0.00112229
-0.00231781
0.00101715
-0.00218484
-0.000192053
-0.0040944
0.00069804
0.00358841
0.00117153
-0.000693053
-0.00149506
0.00101658
0.000450778
-0.00018368
-0.00464223
0.00437513
-0.00121307
0.00183389
0.000149474
-0.000770287
-0.00334246
0.00379886
-0.0018262
0.0013698
-8.81261e-05
0.0019824
0.0011109
-0.00264576
0.00210098
-0.00249957
0.00809679
-0.00769819
0.0027384
0.00244868
0.00253394
-0.00772102
0.0235534
-0.00660859
0.0161281
-0.0330729
0.000866595
-0.00736719
0.00279271
0.00370789
0.00337302
-0.0027381
0.00047666
0.00205728
-0.00138667
0.00295629
0.000938009
0.00572342
-0.00424698
-0.00241445
-0.0167174
-0.00186433
0.0232844
-0.00234788
0.00146614
0.000793613
-0.0184446
-0.0126056
0.0257541
0.00529607
0.0690638
0.0436281
-0.0549269
0.00226032
-0.00214233
0.000455441
-0.000573432
0.00124193
-0.000857573
-0.000721976
0.000337616
-0.000126831
-0.00210929
-0.00173652
-0.000535814
-0.00280887
-0.00564786
0.00899254
-0.00222091
0.000688548
0.00201749
-0.000485132
-0.0481369
0.0460892
-0.00580501
0.00785274
0.00209165
-0.00261183
5.96028e-05
0.000460579
-1.97457e-05
-0.00241705
0.00285339
-0.00373955
0.0757713
-0.129513
0.000125153
-0.000147431
0.00301618
0.0131099
-0.00671832
-0.00679018
8.91385e-05
0.00121696
0.00103191
-0.00233801
-0.00774354
0.00396154
-0.00354586
0.00732786
0.000795511
0.00269949
-0.00137596
-0.00211904
0.00207167
-0.00185782
0.00144013
-0.00165398
-0.00116087
0.00137105
-0.00261013
0.00239995
0.000153324
0.00148986
-0.00118586
-0.000457323
0.000766488
0.00210983
-0.000784673
0.00260229
-0.00160623
-0.0030407
-0.00274981
0.0011729
-0.00462952
0.00555446
-0.00155677
-0.00546427
-0.0099101
2.04649e-05
-0.00188977
-0.00198466
0.00370542
0.00177598
-0.0418155
0.0100823
0.02039
-0.00321564
0.0143781
0.0125801
-0.0237426
0.00209127
-1.05352e-05
-0.00169861
-0.000382124
0.00190297
-0.00130218
0.00149047
-0.00756668
-0.0250614
0.00835722
0.0242709
-0.00113904
-0.00168227
0.000293575
0.00252774
0.0176615
-0.0058225
-0.00306712
-0.00877186
-0.00150251
0.000501226
-0.000776447
0.00292557
-0.00263863
-0.00566898
0.00538204
-0.00494243
-0.00268933
-8.15424e-05
-0.00418653
0.00397491
0.00347149
0.00427169
-0.00678911
-0.00095406
-0.00206965
-0.00174202
0.00141525
0.000198574
-0.00022384
-0.00065131
-0.000644866
-0.0032407
0.00171572
0.00216985
-0.0245379
-0.00441921
0.000842963
-0.0141313
0.00237142
0.0115627
-0.00689079
0.00230159
-0.0057512
0.00596738
0.00343684
-0.00651773
-0.00575614
0.00526868
0.0038539
0.00445328
-0.00584225
-0.00246493
-0.00210769
0.000810377
0.00694248
-0.00564517
-0.00125612
0.000297643
0.00413189
-0.00317341
-0.0330445
0.0113923
-0.00325126
-0.0022037
-0.000694549
-0.0022105
0.00350897
-0.00060392
-0.00726898
-0.000755678
-0.00119232
-0.000451712
-0.00118499
0.00141388
-0.000682814
-0.000508137
0.000707842
-0.000871017
0.000163176
0.000448222
-0.00130612
0.000620577
0.000237322
-0.00138335
-0.0105976
0.0147627
0.00131818
-0.00133106
-0.000851567
0.000864439
0.00202619
0.00400723
0.00214768
-0.00477817
-0.00137675
0.000564463
0.000493474
0.00250999
-0.00165438
0.00842582
0.00396553
-0.00493252
-0.0025788
0.042571
0.0210039
-0.0254767
0.00294599
0.00152689
0.0140865
-0.00215258
-0.00867507
-0.00325886
0.00499538
-0.0115352
0.00887979
-0.00234002
-0.0213997
0.0114295
-0.00847448
-0.00787762
0.00711385
0.00930501
-0.00854124
0.0844688
0.0135884
-0.0980572
-0.00414515
0.00911213
-0.00184886
-0.00121823
0.00125109
-0.000522746
0.00293803
0.00146044
0.000355747
-0.00165252
-0.000163665
-0.00188965
0.0100718
0.000638271
-0.00882045
-0.000607712
0.000145721
0.000874285
-0.063992
0.0619881
0.00200397
0.00877043
-0.00573456
-0.011411
0.00837511
0.0162011
-0.0177775
-0.00092485
0.00093785
-0.00290209
0.00171494
-0.00113772
0.000152289
0.00283103
-0.00118531
-0.000684856
0.00323308
-0.00493635
0.00128658
0.000423819
0.00109811
-0.000814084
-0.00208735
0.00150124
-0.00050699
0.00286392
0.000843566
-0.00147276
-0.00144608
-0.000305866
-0.000930386
0.00102782
0.00802549
-0.00958293
-0.000198015
0.000493018
-0.000483616
-0.0011774
-0.00370368
0.00289464
0.00278167
-0.00250011
-0.00317619
0.00124804
-8.4942e-05
0.00173154
-0.000862213
0.00132914
0.00231474
0.000417347
-0.00383861
0.000771521
0.000965688
0.0021014
0.00262232
7.46018e-05
-0.00385779
0.00722975
-0.00631715
0.00739699
-0.00830958
0.0079986
-0.00987553
0.00409746
0.00136652
-0.00131393
-0.00415005
0.000656329
-0.000191497
-0.0064511
-0.0135726
0.00427278
0.00414602
0.00515377
-0.00231457
-0.00125926
-0.00283991
-0.000255518
0.00130663
0.0017888
-0.000820724
0.00158982
-0.00331662
0.00106935
-0.000565534
-0.000128866
0.00105714
0.0056341
-0.00454354
-0.000105452
-0.000848934
-0.00203214
0.00298652
0.000691316
0.00301201
0.140479
0.00495097
-0.0943312
0.00162808
0.000856542
-0.00102418
0.00104353
-0.00578025
0.00135791
0.00337881
-0.00256174
-0.0056746
0.00492215
0.00331418
-0.000518155
0.00367706
-0.00307205
0.00303682
-0.00335027
0.00338551
-0.00175252
-0.00121925
-0.00039224
0.00336401
-0.00382436
0.0022231
0.000372842
0.00413908
-0.00725745
-0.00754151
0.00201705
-0.00314009
-0.000874269
0.0035817
0.000452514
0.00241853
-0.0015
-0.00419348
0.00166327
-0.000541839
-0.000282797
-0.0017648
-0.00342959
0.00203406
-0.000947233
2.19723e-06
-0.00248456
-0.00204452
0.00512553
-4.41921e-05
0.0020229
-0.00347999
-0.000527573
-0.00181493
-0.000678186
0.00164418
-0.000237376
8.69458e-05
0.00197492
-0.00182449
-0.00307916
0.00345683
-0.000615041
-0.0306528
-0.0251421
-0.000160341
-0.00191993
-0.000998892
0.00141223
-0.000176849
-0.000127264
0.000798401
0.000414951
0.000198875
0.126851
-0.0479459
-0.113072
0.0391457
-0.0318853
-0.00572016
0.000329781
-0.00207297
0.000285471
-0.00179798
0.000655049
0.000336268
4.21754e-05
-0.00243993
-0.0015519
-0.00491459
0.00425598
-0.00237194
0.00414209
-0.00272105
0.000950901
0.00455882
-0.00231573
-0.00256564
-0.000592088
0.00110707
0.00338781
0.0012758
-0.00348252
-0.00198775
-0.00123212
0.00355895
-0.000339072
-0.00270797
0.00206038
0.000594648
-0.000771801
-0.0018849
-0.00328414
-0.00165637
0.0032924
0.00164811
-0.00107407
0.00179953
0.000764169
-0.00201898
0.0413915
-0.000135121
-0.000281952
0.0165185
0.0171987
-0.0334353
0.0131128
-0.0272708
0.013876
0.00851849
-0.0187685
0.0101123
0.000137677
0.00940353
0.00988382
-0.0107688
-0.00742803
-0.0121651
0.000824614
-0.0253035
0.0287875
-0.0112929
0.0144204
-0.000525704
-0.00155808
0.000377505
0.0065998
-0.00156759
-0.0147736
0.00974134
0.00610328
-0.00675307
0.00564517
-0.0163895
0.0203639
0.00212887
-0.0163887
-0.000991723
0.0152771
0.00210334
-0.00764387
0.0118902
-0.00422282
0.00335333
-0.00785266
-0.000216678
0.000391334
-0.00148861
0.00131396
0.00216995
-0.00118352
-0.00111326
-0.000666721
0.000825843
-0.00253107
0.00565428
-0.00896162
-0.0110133
-0.0103667
0.00182209
0.000667012
0.00603726
-0.00770013
-0.0121644
0.00130247
-0.00818241
0.00947179
-0.0209486
0.0021478
-0.0080503
0.00621714
-0.00682056
0.00865373
0.0042426
-0.00108016
-0.00412414
0.00377882
-0.00312211
0.00257159
-0.0032283
-0.00273248
-0.00210449
0.00358085
-0.00191684
-0.00328562
0.00180237
0.00340009
-0.000214771
-0.00092853
5.58432e-06
0.00309788
-0.00225355
0.00229864
-0.00259669
0.00270346
-0.00133401
0.00122725
0.00350246
0.00105753
-0.00284805
-0.0055244
-0.00107756
0.00211252
0.00448944
-0.00113234
-0.000286199
0.000203083
0.00273451
-0.0045816
0.00289072
-0.00104362
0.00293267
-0.0037932
-0.00576163
0.00662216
0.00444895
-0.00292788
0.00121344
0.00825626
-0.000874638
0.00234722
-0.00497173
0.00316729
-0.000542788
0.00141665
0.00331687
-0.0023863
-0.00998171
0.0039466
-0.00462132
0.0106564
0.0143465
0.00357353
-0.0114035
-0.0069971
0.00587327
0.0066274
-0.00550357
-0.00141765
0.0117058
-0.00626529
0.140057
-0.06919
-0.0057542
0.0198999
-0.00966814
-0.0068784
-0.00593309
0.00968019
-0.00386576
0.000118655
-0.00125995
0.00123017
-0.00178515
0.00183207
0.00186117
0.00224545
0.00405584
-0.00668761
0.00446383
-0.00236647
0.000489225
0.00560473
-0.00116788
0.00524334
0.00231557
-0.00102943
-0.00274824
0.0014621
-0.00113602
0.00443378
-0.000982188
-0.00854517
0.0234022
0.00283077
-0.000521109
-0.00194549
0.00010315
0.00154542
0.0011822
0.00125801
-0.000516333
-0.00126279
0.00253139
-0.000835622
-0.000437754
-0.00186213
0.000599002
0.00136628
0.000771537
-0.000770878
0.000734901
-0.00291111
-0.000160303
-0.00151881
0.00498861
-0.00430159
0.00644229
0.00308154
-0.00908535
-0.00214412
0.00452291
0.00195797
-2.82486e-05
0.00432642
0.00229139
-0.00656043
0.00424079
-0.00775522
-0.000579556
0.00768626
-0.105358
-0.0323095
-0.0426747
0.180342
-0.00894207
-0.00234209
-0.00868548
-0.00344348
0.00534695
0.152968
-0.0623637
0.0834965
-0.174101
-0.0468464
-0.0787261
0.124489
0.00108356
-0.000191978
0.00833714
-0.00881458
0.00275407
-0.000974377
0.0130569
-0.0148365
-0.0002449
-0.0191952
0.00949009
0.00995
0.00537367
-0.0362865
-0.003765
0.0346779
0.0031745
-0.0148593
0.0119134
-0.00490657
-0.00989326
0.00565697
-0.00399725
0.0112337
0.0325032
0.0388391
-0.00217382
0.0619464
-0.0757319
0.00742862
0.00201671
-0.00221558
0.00396636
-0.00152448
-0.00366345
0.00122156
-0.000493989
0.00548665
-0.00102629
-0.000443092
0.00293504
-0.00195782
-0.000534123
0.00280403
-0.00155494
-0.00169219
0.00263
-0.00226383
-0.00949622
0.00913005
-0.000834661
0.00138466
-0.00153334
0.000983343
-0.00110101
-0.00135325
0.0020392
0.00062909
0.000882697
9.96688e-05
0.00166178
-0.00130036
-0.00128688
0.000925459
0.00238264
-0.000148828
-0.000525881
-0.00251512
-0.00050064
0.00354164
-0.0135435
0.0281845
-0.0304822
0.0158412
-0.00817161
-0.00762033
0.00338736
0.00985005
-0.00766477
-0.00557264
0.0247923
-0.0186984
-0.000720172
-0.0288574
0.00891959
0.0241746
-0.00423678
-0.0100529
-0.0314102
0.00455622
-0.00812631
0.00811143
-0.00454134
-0.0115256
2.5259e-05
0.0132138
-0.0176423
0.0088818
0.00851557
-0.00552713
-0.000947638
0.0141948
0.00742992
0.0041294
-0.0093092
0.0179769
-0.00253153
0.00172703
0.000802839
1.65372e-06
-0.00322047
0.0012904
-0.000471533
0.0024016
0.000686273
0.000318425
-0.00422517
-0.000236298
-0.000183211
-0.00211202
0.000894422
-0.000631367
0.00070826
-0.000971315
0.000115264
-0.00111222
-0.000298341
-2.14622e-05
0.000834262
0.00114728
0.000763308
-0.00113263
-0.000777962
-0.000283539
0.000342588
0.000522196
-0.000581244
0.000509058
0.000354685
0.00227116
-0.00173543
0.00356173
0.00037172
-0.00103792
0.00293736
-0.0101494
0.0072363
-0.00861246
-0.00296315
0.0116878
-0.00579909
-0.00896268
0.0104778
-0.00339928
0.0080139
-0.00449892
-0.00532362
-0.000292639
-0.00575192
0.00533647
0.00376344
-0.00302381
-0.0060761
-0.000185779
0.00531465
0.000207601
-0.00283026
-0.00778123
0.00806721
0.0087305
-0.00809577
-0.00791374
0.000595418
0.0109839
-0.00366559
-0.00172992
0.000714096
0.00188748
-0.000871649
0.00446367
-0.00327827
-0.00909913
-0.000739565
0.00354135
-0.00206688
-0.00240241
0.0561758
-0.000652741
-0.0327454
0.0199409
-0.00203141
0.00889026
0.00828423
-0.00781031
-0.00433968
0.0554402
-0.0287559
0.0566459
0.00506217
-0.000545551
-0.00491801
0.00040139
-0.00126324
0.0688594
-0.0675962
-0.0669075
-0.0811612
0.0819997
0.00643842
0.00258415
-0.00396041
-0.00228061
0.000265068
-0.00759128
0.00678066
0.0026044
-0.00631268
0.00513025
-0.00142197
0.000818726
-0.00924716
0.00264683
0.000932354
0.00155107
-0.00657373
0.0067121
-0.0100383
0.0169671
-0.00947635
-0.16301
-0.0539655
0.0417463
-0.027493
0.020766
-0.000912793
3.56353e-05
0.000877157
0.000873486
0.00444948
-0.00463669
0.00016162
-0.00325019
0.00396206
0.000314565
-0.00122736
-0.00332839
0.0042052
0.00321435
-0.00409116
0.00275861
-0.00526295
-0.00456684
0.00707118
-0.000466812
0.00471665
0.00162452
-0.00587436
0.0221048
-0.0228746
-0.00149285
0.00226271
-0.00730417
-0.00047771
0.00500699
0.0027749
-0.00287802
0.00162437
0.00192615
-0.000672498
0.00270625
-0.00702393
0.00240616
0.00216637
-0.00233815
-0.000612796
0.00266575
-0.000428585
0.00283372
-0.00126535
0.000598003
-0.00937703
0.0086781
-0.00076868
0.000458139
0.00832043
0.000161651
-0.0154792
0.00209683
-0.00235246
0.00251595
-0.00135628
0.00202993
0.000267257
-0.00109759
0.00275807
0.00104002
-0.0027005
-0.00489279
-0.00370289
-0.00121656
-0.00238472
0.000984102
-0.000763106
0.00340477
-0.0248563
0.0162804
-0.000679813
1.63822e-05
0.00138344
-0.000720005
-0.00484727
0.00206912
0.00382168
-0.00128084
-0.00158187
0.00217989
-0.000132405
-0.00111491
0.000351731
0.000895579
0.000599802
-0.000413647
0.00249246
-6.12907e-05
-0.0068947
-0.000269406
-0.00550611
0.0092025
-0.00342699
-0.00232638
0.00338731
-0.00175755
0.00069662
0.00165089
-0.00166179
0.00826716
-0.00304701
0.00723672
-0.00445912
0.000709141
-0.000202335
-0.00436589
0.0107021
-0.00357764
-0.00735845
0.00240945
-0.0039096
0.00596822
0.0017202
0.00207195
0.00171641
-0.0021292
-0.00384396
-0.00151526
0.00291794
6.48031e-05
-0.00146749
0.00498421
-0.000729454
-0.0031362
-0.00111856
-0.00355217
0.00526826
-0.0038595
0.00214341
-1.3542e-05
0.00116085
-0.00152783
0.00389591
-0.00352893
-0.000396445
0.000868471
9.5e-05
-0.000456745
-0.00549345
0.00381188
0.00213831
-0.000232606
0.00272808
-0.000185722
-0.00230975
-0.000476436
0.00227324
-0.00218531
0.000388503
0.000955605
0.000905377
0.00942027
-0.00515048
-0.00517517
-0.000352782
0.00584581
-0.000480731
0.00544401
0.00784199
-0.0102327
-0.00229874
0.00383907
0.000580125
0.0051196
0.00747746
-0.00798903
0.00177691
0.00291335
0.00330835
0.000192609
-0.000710916
0.000518307
0.00108401
-0.00167268
9.79033e-05
0.000490763
-0.000590797
0.000341009
0.00284611
-0.00259632
-0.00177548
0.00211084
-0.00351355
0.000975075
0.000689854
0.00120787
-0.00287279
-0.000984405
-0.000872889
0.00185729
0.00221179