/*--------------------------------*- C++ -*----------------------------------*\
| =========                 |                                                 |
| \\      /  F ield         | OpenFOAM: The Open Source CFD Toolbox           |
|  \\    /   O peration     | Version:  2506                                  |
|   \\  /    A nd           | Website:  www.openfoam.com                      |
|    \\/     M anipulation  |                                                 |
\*---------------------------------------------------------------------------*/
FoamFile
{
    version     2.0;
    format      ascii;
    arch        "LSB;label=32;scalar=64";
    class       volScalarField;
    location    "0.0533022";
    object      k;
}
// * * * * * * * * * * * * * * * * * * * * * * * * * * * * * * * * * * * * * //

dimensions      [0 2 -2 0 0 0 0];

internalField   nonuniform List<scalar> 
47425
(
0.314246
0.34669
0.321814
0.324849
0.483427
0.329767
0.439596
0.334852
0.366889
1.23276
0.342269
0.331578
0.375782
0.322578
0.318257
0.340307
0.320121
0.353801
1.10761
0.546046
0.3286
0.321741
0.333357
0.324589
0.321311
0.3144
0.312018
0.861299
0.310169
0.315334
0.328903
0.326905
0.35615
0.31458
0.314793
0.331019
0.320864
0.363347
0.320187
0.326994
0.368829
0.466383
0.863348
0.378403
1.37412
0.358779
0.337645
0.350816
0.317434
0.314145
0.816395
0.624873
0.312399
0.866075
0.375595
0.368111
0.315082
0.313515
0.443501
0.322508
0.954215
0.85336
0.88848
0.338501
0.364463
0.321032
0.342108
0.372026
0.814674
0.330695
0.317634
0.310325
0.315592
0.324451
0.917415
0.368709
0.9068
0.321424
0.86469
0.544219
0.935448
0.32432
0.324109
0.348813
0.319484
0.327616
0.312254
0.312332
0.542252
0.637786
0.325154
0.347375
0.319356
0.371977
0.38426
0.369079
0.316971
0.312505
0.317682
0.363149
0.336575
0.44707
0.324569
0.468104
0.317728
0.373529
0.315479
0.325466
0.356607
0.326927
1.14303
0.329169
0.429408
0.35543
0.341623
0.848276
0.337269
0.658984
0.346003
0.341165
0.32656
0.362702
0.34452
0.357497
0.355602
0.402314
0.331517
0.364888
0.35711
0.318819
0.325875
0.337656
0.52096
0.356936
0.46359
0.356609
0.326608
0.408749
0.320787
0.319442
0.354224
0.378229
0.340982
0.46694
0.340122
0.366224
0.448686
0.340976
0.367787
0.3617
0.468724
0.814399
0.36031
0.827347
0.346702
0.333813
0.357357
0.951027
0.36133
0.338692
0.347022
0.315719
0.314416
0.324491
0.757145
0.875105
0.339963
0.928722
0.342905
0.897643
0.955799
0.358574
0.353893
0.33458
0.358102
0.393895
0.868241
0.30956
0.313515
0.317651
0.866714
0.310797
0.310173
0.318599
0.315857
0.338201
0.320684
0.437549
0.357199
0.310567
0.357986
0.313454
0.441052
0.365298
0.319653
0.327512
0.360535
0.33466
0.340239
0.303658
0.341579
0.366313
0.335056
0.330531
0.349297
0.377605
0.309506
0.325813
0.352129
0.36191
0.313429
0.316927
0.352341
0.319073
0.318864
0.320909
0.312293
0.600714
0.352741
0.357355
0.56226
0.294716
0.580951
0.31251
0.400123
0.540672
0.318444
0.334112
0.364383
0.399047
0.312667
0.327892
0.354243
0.369372
0.372107
0.331198
0.585915
0.345457
0.548071
0.370248
0.341506
0.309204
0.315564
0.324035
0.318674
0.362585
0.318547
0.357638
0.314203
0.319106
0.317899
0.525463
0.323215
0.365695
0.326072
0.31531
0.321842
0.368726
0.317864
0.357624
0.384917
0.352477
0.322001
0.366052
0.386913
0.356734
0.317588
0.384202
0.314187
0.333899
0.32604
0.533402
0.58367
0.315383
0.523704
0.377983
0.525103
0.470896
0.568719
0.562506
1.02382
0.312341
0.968043
0.371859
0.325864
0.314367
0.360309
0.329162
0.3694
0.354331
0.797071
0.336674
0.371308
0.314456
0.318205
0.337008
0.338772
0.316458
0.326665
0.376225
0.344666
0.313619
0.338252
0.314364
0.882518
0.880608
0.836565
0.316884
0.312906
0.319471
0.333873
0.82623
0.329912
0.338119
0.595802
0.353322
0.349914
0.374382
0.327329
0.654994
0.570848
0.325629
0.319951
0.310473
0.346843
0.314135
0.322823
0.314049
0.312843
0.315568
0.31338
0.874413
0.340274
0.318885
0.383834
0.317045
0.852874
0.328644
0.313199
0.317775
0.325719
0.3256
0.313557
0.32241
0.311814
0.316249
0.315156
0.323716
0.32029
0.349599
0.32752
0.320549
0.330859
0.324641
0.328008
0.356206
0.333169
0.322399
0.325097
0.360324
0.368989
0.354403
0.337171
0.330814
0.315382
0.330743
0.373234
0.358466
0.334379
0.325322
0.36833
1.06632
0.314763
0.330345
0.385665
0.328312
0.431336
0.363472
0.364441
0.321041
0.357634
0.327114
0.31374
0.355273
0.355537
0.364516
0.332835
0.322065
0.34983
0.330602
0.327834
0.33177
0.337117
0.316355
0.321049
0.325759
0.326486
0.330077
0.407673
0.313585
0.673865
0.31542
0.866019
0.342018
0.371807
0.362275
0.315941
0.356827
0.312539
0.343555
0.328417
0.628309
0.880437
0.313416
0.348032
0.319108
0.318183
0.327753
0.326358
0.316037
0.363066
0.332777
0.315551
0.319876
0.325917
0.312637
0.453499
0.316381
0.326377
0.514764
0.58276
0.320702
0.650287
0.600606
0.361578
0.585477
0.783044
0.315891
0.316823
0.318254
0.316216
0.807111
0.342632
0.313642
0.317302
0.321763
0.322379
0.330728
0.318078
0.729355
0.790184
0.52475
0.356399
0.413651
0.501272
0.319002
0.323934
0.3641
0.32274
0.355232
0.363125
0.377802
0.32294
0.369613
0.321964
0.317221
0.346864
0.328056
0.324382
0.321528
0.348687
0.357675
0.372354
0.346405
0.318508
0.356165
0.324029
0.771936
0.363622
0.409243
0.345245
0.360726
0.829515
0.345203
0.315879
0.3479
0.350401
0.329894
0.344236
0.357779
0.308511
0.338763
0.312513
0.335919
0.46138
0.311927
0.361553
0.32426
0.373501
0.314621
0.315754
0.316519
0.321224
0.328262
0.340245
0.321219
0.313353
0.318041
0.334114
0.334706
0.3464
0.342745
0.315089
0.322862
0.307211
0.310288
0.322096
0.343498
0.321781
0.346883
0.363309
0.375395
0.792898
0.326833
0.32046
0.340804
0.365736
0.465364
0.468863
0.346842
0.317773
0.351174
0.441782
0.326422
0.477115
0.362389
0.743938
0.359672
0.361442
0.316234
0.468594
0.319028
0.32107
0.329334
0.323989
0.31349
0.309618
1.04058
0.318373
0.368955
0.318691
0.448602
0.312742
0.31576
0.4287
0.418067
0.327617
0.315089
0.287534
0.313226
0.32432
0.312671
0.314594
0.315779
0.389631
0.460325
0.333489
0.317211
0.329971
0.318417
0.541448
0.32573
0.322956
0.245197
0.325829
0.315829
0.342508
0.770831
0.326894
0.220253
0.238659
0.311978
0.347234
0.311973
0.320663
0.364972
0.351523
0.841132
0.323993
0.353625
0.314134
0.466071
0.384877
0.369661
0.328032
0.831917
2.33124
0.318946
0.333937
0.33405
0.328366
0.370619
0.382657
0.32635
0.336851
0.378951
0.304503
0.359861
0.485784
0.353906
0.319173
0.491816
0.347829
0.321253
0.336033
0.346127
0.313508
0.361932
0.380106
0.37279
0.344165
0.321578
0.317184
1.02876
0.331499
0.401773
0.844983
0.810967
0.317881
0.362944
0.768356
0.357591
0.434895
0.790659
0.376796
0.826908
0.316096
0.316183
0.354955
0.52321
0.38152
0.375571
0.312334
0.375114
0.318699
0.326963
0.315413
0.35103
0.334119
0.763251
0.722562
0.34964
0.353507
0.352586
0.330044
0.376464
0.351752
0.352472
0.360596
0.343244
0.336265
0.354009
0.354668
0.315259
0.404437
0.370079
0.866067
0.575671
0.35063
0.324691
0.362495
0.316151
0.867794
0.32306
0.947866
0.359231
0.447973
0.352345
0.333486
0.334121
0.308719
0.370212
0.322068
0.309493
0.395754
0.402722
0.368558
0.400652
0.359963
1.19498
0.352811
0.378423
0.3801
0.363679
0.314767
0.364588
0.332437
0.3987
0.341896
0.330823
0.366955
0.331317
0.338753
0.322786
0.319815
0.494765
0.571659
0.316641
0.456461
0.317453
0.336103
0.316064
0.314603
0.534205
0.307739
0.322666
0.326216
0.314948
0.69139
1.18166
0.328925
0.335686
0.316357
0.34788
0.31002
0.336967
0.33907
0.564284
0.336615
0.316794
0.330847
0.317706
0.323243
0.321988
0.313202
0.324719
0.317406
0.312674
0.342674
0.563899
0.315166
0.250993
0.626376
0.575005
0.247428
0.343516
0.963634
0.372503
0.348724
0.522645
0.289147
0.844331
0.344696
0.314118
0.47975
0.345864
0.578215
0.328614
0.352896
0.315293
0.321059
0.435941
0.355828
0.334079
0.351859
0.484249
0.390079
0.348477
0.378431
0.506571
0.482995
0.573561
0.910797
1.00998
0.639927
0.671714
0.363104
0.363626
0.319767
0.315688
0.350952
0.303725
0.340629
0.346181
0.356093
0.318596
0.307217
0.314637
0.316807
0.388344
0.335871
0.316898
0.372521
0.317123
0.321566
0.320157
0.352463
0.444668
0.316714
0.31677
0.316061
0.363845
0.355742
0.542461
0.455491
0.313457
0.351674
0.31083
0.318591
0.319317
0.355091
0.362335
0.527096
0.322756
0.318288
0.319482
0.411793
0.901133
0.333046
0.332871
0.417756
0.353164
0.343263
0.353301
0.341237
0.376801
1.42361
0.449955
0.870626
0.366858
0.41049
0.314909
0.404546
0.321245
0.342675
0.349488
0.323263
1.22767
0.452342
0.373764
0.492335
0.374049
0.311181
0.338571
0.416262
0.322731
0.356385
0.234189
0.319509
0.403516
0.37576
0.396775
0.738899
0.377709
0.37346
0.518695
0.320533
0.320713
0.452957
0.552515
0.33743
0.427605
0.46933
0.334601
0.332305
0.316361
0.340478
0.357617
0.355486
2.40229
0.703191
0.381157
0.550731
0.529139
1.47661
2.42572
0.536562
0.365997
0.360771
0.373545
0.374525
1.20717
0.319488
0.34506
0.372789
0.339105
0.342643
0.35336
0.361661
0.313934
0.386815
0.493318
0.363486
1.00945
0.316154
0.396275
0.376584
0.365706
0.357294
0.349973
0.374813
0.464954
0.364455
0.385204
0.482987
0.341306
0.321618
0.349309
0.437105
0.316164
0.417243
0.371419
0.375232
0.665951
1.09767
0.314398
0.363502
0.333539
0.361895
0.363782
0.69462
0.552774
1.56444
0.321268
0.382485
0.33942
0.906561
0.321961
1.52256
0.404017
0.384417
0.513237
0.612313
0.328808
0.314347
0.322224
0.336438
0.475872
0.333114
0.414652
0.895976
0.411914
0.314499
0.316056
0.704595
0.91562
0.523584
0.559595
0.946639
0.403503
0.362567
0.410391
0.320273
0.495873
0.374701
0.390011
1.33079
0.341363
0.315123
0.319119
0.357292
0.40254
0.376059
0.33889
0.332175
0.474058
0.31923
0.335878
0.316641
0.352886
0.37182
0.390325
0.358472
0.344801
0.327185
0.385845
0.31949
0.318994
0.330095
0.331981
0.391617
0.485059
0.346159
0.379532
0.31784
1.72568
0.383129
0.368212
0.339682
0.980392
0.683132
1.07914
0.33616
0.346753
0.347749
0.742889
0.381546
0.353544
0.391951
0.359663
0.360736
0.874342
0.368413
0.329041
0.366463
0.368231
0.313817
0.605408
1.01969
0.320524
1.00967
0.346842
0.682569
0.605544
0.318174
0.353959
0.374046
0.636897
0.346932
0.350397
0.348085
0.772647
0.495456
0.62504
0.321069
0.333447
0.315236
0.324918
1.16447
1.19193
0.353384
0.377641
0.393309
0.733082
0.323232
0.311939
1.50283
1.12126
0.356425
0.329724
0.908558
1.3405
0.928911
0.37397
0.700045
1.07217
0.784546
0.329328
0.464814
0.458214
0.339753
0.351606
1.20626
1.42256
0.374704
0.382034
0.346816
0.330184
0.35449
0.335458
0.506897
0.333492
0.366939
0.317792
0.357237
0.999321
0.972025
0.330376
0.597247
0.445495
0.326127
0.540223
0.311112
0.34324
0.32024
0.351371
0.391172
0.314713
0.772935
0.321701
0.88567
0.682121
0.779781
0.407225
0.416377
0.34498
0.361514
0.324155
0.566747
1.15089
0.357188
0.913877
0.538609
0.823312
0.488444
0.925903
0.727748
0.33539
0.323218
0.943085
0.337568
0.330444
0.323322
0.730128
0.716365
0.323001
0.345126
0.648608
0.428171
1.02516
0.819889
0.355736
0.475671
1.04832
0.349692
0.340036
0.771189
0.325929
0.804621
0.845968
0.324479
0.317273
0.331489
0.316509
0.374546
0.319576
0.323994
0.36559
0.374488
0.489814
0.357192
0.332859
0.519744
0.89401
0.842192
0.360949
0.354905
0.560035
0.329421
1.00094
0.340943
0.353215
0.361448
1.46752
0.347219
1.90405
0.386937
0.519999
0.357905
0.804408
0.646521
0.6563
0.437076
0.562042
0.384879
0.363529
0.40467
0.600344
0.461397
0.474529
0.815153
0.388161
0.468465
0.913089
0.362994
0.318305
0.770522
1.958
0.328748
0.34546
0.359369
0.379488
1.02307
0.995765
0.314616
0.333839
0.359152
0.777703
0.355973
0.617587
0.390828
0.347153
0.352715
0.489739
0.3721
0.637367
0.632405
0.356581
0.392183
0.451577
0.333962
0.935024
1.84351
0.347436
0.884273
0.853382
0.376773
0.729629
0.360623
0.377518
1.02505
0.378602
0.980859
1.6455
0.338536
0.38342
0.442982
0.365348
0.353305
0.405409
0.510623
0.424495
0.332764
0.405097
0.33689
0.895824
0.408843
0.364899
0.378073
0.564405
0.321615
0.858746
0.727149
0.375844
0.822745
0.909249
0.315966
0.489989
0.561437
0.362386
0.355666
0.529978
0.723003
0.517079
0.797397
0.322833
0.784035
0.462886
0.313393
0.397262
0.372967
0.510278
0.350967
0.400276
0.632339
0.313661
0.601132
0.363043
1.38074
0.385894
0.310555
0.37697
0.544557
0.37298
0.681771
0.452344
0.33628
0.811001
0.31821
0.343501
1.15875
0.314024
0.38254
0.733661
0.34977
0.759026
1.3846
0.373032
0.419145
0.317484
0.918831
0.665968
0.812306
0.764346
0.425107
0.352107
0.442398
0.918881
1.04525
0.827052
0.355052
0.35758
0.360026
0.329427
0.380171
0.738855
0.351481
0.334686
0.352119
0.314709
0.337015
0.357444
0.331583
0.349515
0.364581
0.450338
0.320597
0.367462
0.58819
0.334344
0.318251
0.379307
0.361764
0.359463
0.315057
0.346371
0.343578
0.330914
0.376072
0.682203
0.34351
0.336105
0.31989
0.317895
0.541587
0.323764
0.324084
0.690508
1.23445
0.737387
0.330948
0.670423
0.490321
0.330766
0.637647
0.443158
0.617604
0.361476
0.328352
0.351059
0.403234
0.323135
0.367959
0.381338
0.369518
0.322705
0.322139
0.365584
0.522768
0.356201
0.425106
0.873361
0.3472
0.683511
0.414289
0.88223
0.31284
0.366777
0.360637
0.315863
0.331249
0.366678
0.316622
1.50455
0.593776
0.861779
0.38056
1.04271
0.316793
0.34067
0.533227
0.322209
0.804465
0.428578
0.633501
0.314441
0.969576
0.955118
0.326204
0.314217
0.997546
0.333433
0.762339
0.323741
0.365324
0.322429
0.319301
0.32427
0.337242
0.342044
0.627777
0.40573
0.388832
0.347098
0.330524
0.319088
0.360268
1.22726
0.366848
1.83749
0.555502
0.32145
0.37707
0.34048
0.336492
0.336071
0.366128
0.349003
0.362909
0.336695
0.304849
0.357127
0.362755
1.32985
1.45405
0.361112
0.363927
1.15309
0.345126
0.315963
0.316533
0.315109
0.355248
0.376816
0.400073
0.378625
0.340858
0.317505
0.410873
0.313494
0.306018
0.330972
0.747276
0.39096
0.85424
0.775459
0.844099
0.332038
0.319783
0.31138
0.313173
0.316707
0.656552
0.334236
0.315221
0.336469
0.358949
0.317642
0.489164
0.315056
0.375425
0.460718
0.34499
0.316032
0.321603
0.340847
0.343677
0.320141
0.34847
0.329181
0.515761
0.327653
0.350302
0.393466
0.328433
0.331956
0.317846
0.341542
0.318426
0.370716
0.392575
0.31641
0.310928
0.321279
0.326824
0.32012
0.36188
0.315168
0.317931
0.315234
0.33313
0.846465
0.328377
0.438156
0.312066
0.317134
0.753653
0.331484
0.364595
0.312827
0.325278
0.354633
0.372091
0.767058
0.373966
1.98527
0.315603
0.323681
0.362339
0.317964
0.315397
0.3818
0.342255
0.315457
0.31642
0.99129
0.445247
0.685112
0.370992
0.575094
0.36945
0.312344
0.389171
0.974868
0.361808
0.322621
0.32287
0.807022
0.318099
0.328704
0.344852
0.338979
0.327886
0.80797
0.320975
0.337851
0.347768
0.337794
0.379129
0.935369
0.831578
0.322172
0.318466
0.317756
0.374031
0.3509
0.314347
0.818073
0.94967
0.316725
0.355526
0.803019
0.325196
0.630683
0.464986
0.315407
0.319029
0.320984
0.326415
0.638524
0.343782
0.339353
0.337099
0.376861
0.329745
0.361545
0.604864
0.362927
0.502673
0.517573
0.455528
0.601324
0.360667
0.387724
0.406061
0.379196
0.347412
0.337626
0.846917
0.609
0.377903
0.369147
0.360574
0.359755
0.346595
0.364536
0.319367
0.31385
0.357109
0.350106
0.509112
0.435971
0.897976
0.729243
0.347516
0.377902
0.329084
0.330864
0.365128
0.317036
0.335894
0.315376
0.316749
0.344716
0.309429
0.317475
0.326954
0.648821
1.07755
0.361174
0.313047
0.471306
0.517672
0.854868
0.330723
0.799638
1.9128
0.715515
0.849909
0.413634
0.316463
0.313875
0.360621
0.886097
0.312946
0.372719
0.345882
0.316154
0.715248
0.658957
0.634644
0.337704
1.51617
0.313342
0.321861
0.352538
0.353203
0.775902
0.845091
0.292015
0.45206
0.284874
0.38529
0.322439
0.930329
0.353707
0.891544
0.371951
0.88346
0.354698
0.502278
0.466576
0.557934
0.380215
0.382733
0.567606
0.352723
0.354242
0.412297
0.394322
0.360732
0.342405
1.28132
0.688273
0.340324
0.624769
0.822035
0.611858
0.325275
0.320536
0.843445
0.708998
0.797176
0.322076
1.07351
0.322046
0.873686
0.716837
0.640735
0.697207
0.314383
0.373017
0.321059
0.33338
0.335654
0.527746
0.428974
0.316653
0.314694
0.364299
0.335126
0.315563
0.318179
0.47532
0.316543
0.311086
0.345529
0.337814
0.440573
0.342006
0.376196
0.371755
0.318107
0.447632
0.456612
0.319649
0.322831
0.496156
0.658466
0.338448
1.46453
0.362416
0.441162
0.752017
0.412367
0.341242
0.316379
0.515369
0.334507
0.311127
0.372623
0.330901
0.321121
0.336193
0.321829
0.31679
0.328128
0.343892
0.331671
0.370525
0.710286
0.328136
0.333205
0.331116
0.339762
0.434426
0.855445
0.34122
0.323931
0.342309
0.59649
0.398168
0.339604
0.341273
0.873978
0.358525
0.386531
0.371159
0.417796
0.346824
0.357656
0.340452
0.53499
0.377494
0.364114
0.960803
0.33695
0.398282
0.352199
0.354771
0.35415
0.391347
0.334442
0.337362
0.321164
0.364179
0.331656
0.355625
1.51996
0.322591
0.430375
0.376155
0.345013
0.689603
0.374548
0.443969
0.365684
0.596895
0.665376
0.3479
0.322982
0.395487
0.401155
0.353681
0.321827
0.815042
0.476347
0.386716
1.55686
0.461295
0.32748
0.52548
0.564172
1.25161
0.705615
0.401886
0.575934
0.387329
0.574945
0.490459
0.891159
0.330895
0.419128
0.330688
0.630251
0.372007
0.407755
0.355548
0.363715
0.355842
0.389673
0.632807
0.341171
0.369233
0.404894
0.517229
0.79121
0.42895
0.764668
0.36566
1.06241
0.373358
0.374649
0.843983
0.562895
0.731866
0.651559
0.676921
0.57695
0.336113
0.329006
0.337211
0.39339
0.368546
0.807046
0.364351
0.383775
0.322174
0.489659
0.361287
0.32085
0.889232
0.424458
0.527491
0.263034
0.409886
0.348259
0.360521
0.363421
0.39274
0.324417
0.310111
0.350258
0.406267
0.237545
0.22781
0.504996
0.367342
0.360824
0.430565
0.467982
0.378902
0.363284
0.365589
0.20873
0.379335
0.408985
0.252596
0.37299
0.835329
0.602649
0.346238
1.06073
0.390708
0.492989
1.59189
0.39356
0.375996
0.325408
0.700457
0.319192
0.317411
0.370769
0.373195
0.398645
0.346799
0.565211
0.359065
0.498112
0.325196
0.379285
0.367252
0.312696
1.14628
0.527765
1.07309
0.541882
0.312324
0.916425
0.50051
0.318486
2.54594
0.319534
0.315625
0.47895
0.480573
0.984347
0.727679
0.360433
0.708725
1.45272
0.339321
0.601568
0.991745
0.522885
1.40092
0.392097
0.333922
0.611569
0.689022
0.388071
0.971163
0.372518
0.346007
0.541207
0.372119
0.325369
0.370109
0.795651
0.743783
0.31191
0.534201
0.326856
0.380387
0.349191
0.377624
0.5985
0.44061
0.770056
0.351492
0.360684
0.753592
0.318339
0.332315
0.470278
0.321717
0.357063
1.04754
0.347421
0.921338
0.832284
0.851467
0.808387
0.376379
0.407016
0.314391
0.312562
0.430522
0.320048
0.325054
0.395946
0.327635
0.424819
0.923172
0.319717
0.533631
0.327747
0.483198
0.374939
0.880686
0.363831
0.471663
0.325069
0.336267
0.407212
0.321598
0.342271
0.331205
0.315427
0.547989
0.324676
0.374299
0.370782
0.33221
0.363252
0.352507
0.373665
0.704963
0.345812
0.32381
0.332083
0.400659
0.229262
0.664201
0.493366
0.686978
1.02177
0.410169
0.436716
0.140227
0.306882
0.904134
0.414567
0.547913
0.407371
0.754096
0.720609
1.31729
0.373153
0.344091
0.547253
1.09344
0.357647
0.362165
0.462865
0.4014
0.422493
0.414326
0.871398
1.40317
0.279601
0.386938
0.206536
0.350018
1.15969
0.339678
0.356495
0.327954
0.321822
0.458459
0.328761
0.604485
0.482475
0.325146
0.382243
0.323787
0.561501
0.644058
0.33921
0.433238
0.372515
0.911151
0.456773
0.355105
0.543097
0.537392
0.314421
0.323079
0.357847
0.318413
0.666131
0.321456
0.445565
0.618243
0.331624
0.353219
0.325359
0.326163
0.599204
0.389536
0.532723
0.316315
0.317486
0.572148
0.770735
0.323307
0.342582
0.322705
0.321137
0.641624
0.449615
0.808699
0.353868
0.320784
0.458827
0.394339
0.35473
0.324792
0.384305
0.377149
0.557263
0.458678
1.63572
0.41527
0.426767
0.324002
0.373225
0.841158
0.993936
0.404212
0.892213
0.359946
0.972467
0.431202
0.740058
0.477049
0.527542
0.392765
0.336605
0.367103
0.422172
0.567596
0.357012
0.374108
0.987077
0.374532
1.5106
0.373269
0.347066
0.372909
0.584023
0.419362
0.322527
0.855389
0.317615
0.332432
0.316841
0.364025
0.84167
0.491035
0.333758
0.521973
0.346783
0.352373
0.323819
0.335124
0.424398
0.404795
0.414388
0.356334
0.331383
0.406304
0.347877
0.313078
0.411551
0.368605
1.82412
0.375149
0.465011
0.357258
0.409147
0.361299
0.428067
0.314099
0.362678
0.344422
0.34565
0.375342
0.839444
0.31416
0.644322
0.548648
0.39129
0.379798
0.359656
0.382519
0.44705
0.656026
0.324291
0.348805
0.355046
0.506881
0.388446
0.315059
1.23365
1.12119
0.656061
0.318029
0.323236
0.509456
0.353253
0.353725
0.508894
0.364429
0.337796
0.369666
1.14626
0.321933
0.580649
0.319374
0.338031
0.431139
0.336795
0.383345
0.463003
0.323051
0.594422
0.41063
0.406078
0.450781
0.941458
0.327716
0.35996
0.369332
0.39816
0.359804
0.363926
0.312724
0.312693
0.374469
0.587998
0.37609
0.364036
0.955312
0.374037
0.625565
0.358388
0.38303
0.399678
0.346502
0.767973
0.35495
0.510454
0.371692
0.355055
0.347841
0.394222
0.571136
0.456022
0.32803
0.629735
0.376937
0.734977
0.761133
1.07374
0.328854
0.459568
0.377697
0.240738
0.397147
0.262102
0.445076
0.232381
0.401308
0.744166
0.40679
0.628552
0.693777
0.366688
0.249158
0.451397
0.990682
0.52913
0.685117
1.4251
1.72866
0.691851
0.829019
0.328571
0.355602
0.752019
0.394544
0.928916
0.377747
0.776825
0.775166
0.341852
0.36897
0.335324
0.314712
0.358538
0.314191
0.731677
0.391008
0.366333
0.558117
0.331009
0.359015
0.313794
0.343595
0.356828
0.356281
0.395098
0.316107
0.414218
0.909443
0.317083
0.326296
0.35129
0.323185
0.746942
0.920564
0.397627
0.424639
0.551014
0.317224
0.307969
0.346537
0.368361
0.33309
0.340163
0.327852
0.321746
0.427635
0.320544
0.371081
0.337514
0.316379
0.32116
0.83327
0.332879
0.34873
0.319298
0.432772
0.35683
0.353083
0.708855
0.413445
0.345638
0.392192
0.346938
0.376272
0.389992
0.369977
0.329
0.378851
0.36544
0.334855
0.358186
0.356862
0.437237
0.458936
0.338409
0.342581
0.405785
0.43531
0.483158
0.573052
0.906794
0.933033
0.346031
0.323832
0.931681
0.535822
0.565004
0.329123
0.318224
0.339463
0.313043
0.337411
0.322174
0.326591
0.355546
0.319129
0.324845
0.321995
0.329703
0.322655
0.538193
0.380808
0.351432
0.326197
0.329339
0.630124
0.317151
0.323432
0.401511
1.05493
0.557489
0.374191
0.36225
0.333341
0.368525
0.473996
0.697057
0.408688
0.334546
0.366778
0.333646
0.331647
0.372194
0.436857
0.365572
0.32669
0.401702
0.404557
0.629423
0.398014
0.74891
0.583057
0.388533
0.394771
0.333969
0.345415
0.375675
0.313911
0.331493
0.610797
0.332231
0.350158
0.719375
0.352819
0.370069
0.523469
0.39925
0.324651
0.355097
0.326428
0.358452
0.734439
0.352332
0.432315
2.70161
0.584657
1.13606
0.846374
0.334647
0.344575
0.536376
0.319344
0.560728
0.49686
0.701596
0.369858
0.317921
0.78896
0.317334
0.550002
0.419344
0.326625
0.727239
0.855738
0.315879
0.326681
0.90427
0.315358
0.321236
0.320363
0.317533
0.349303
0.56721
0.584063
0.344552
0.810406
0.335081
0.34207
0.325781
0.875622
0.339522
0.91629
0.319083
0.358659
0.320438
0.43614
0.335701
0.513455
0.317866
0.66077
0.477425
0.479041
0.71147
0.338921
0.337556
0.873002
0.450788
0.34956
0.42176
0.648648
0.343233
0.430948
0.329789
0.598036
0.409494
0.324383
0.314698
0.46168
0.332872
0.387995
0.354988
0.316506
0.342305
0.321414
0.323541
0.338902
0.737033
0.329468
0.322356
0.320559
0.333127
0.322806
0.343857
0.317848
0.368703
0.4396
0.385156
0.382104
0.325334
0.379263
0.335521
0.384326
0.894787
0.43764
0.765385
0.331734
1.53504
0.368096
0.536419
0.378389
0.365989
0.384955
0.326792
0.316887
0.352675
0.35923
0.309955
0.331778
0.318319
0.677973
0.317665
0.334034
0.372976
0.815032
0.207814
0.343372
0.812773
0.912255
0.61859
0.563572
1.05654
0.166772
0.410915
0.319355
0.352293
0.433906
2.19434
0.565301
0.389478
0.318115
0.319058
0.764266
0.350126
0.566214
0.59566
0.379692
0.593107
0.370557
0.608502
0.323958
0.365063
0.3484
0.314729
0.390867
0.311982
0.352658
1.11294
1.08867
1.09454
0.456508
0.816832
0.336751
0.311387
0.318266
0.371777
0.318578
0.375237
0.325041
0.416148
0.38012
0.314898
0.318891
0.366381
0.315957
0.336651
0.363646
0.324933
0.361951
0.515913
0.339131
0.37767
0.826654
0.368891
0.71566
0.828045
0.356751
0.390755
0.317466
0.481328
0.361876
0.375232
0.667846
0.320438
0.386502
0.350922
0.37106
0.325723
0.329722
0.485925
0.524403
0.375502
0.358375
0.794128
0.386537
0.641111
0.587436
0.360513
1.00275
0.442415
0.380928
0.357112
0.35161
0.401531
0.358772
0.306705
0.331561
0.234942
0.591939
0.224659
0.332203
0.365188
0.432109
0.205402
0.814219
0.342073
0.368891
0.396252
0.258305
0.400249
0.706281
1.84828
0.370381
0.330388
0.366272
0.603373
0.325009
0.380187
0.37673
0.33049
0.355082
0.337462
0.6025
0.330062
1.54535
0.388675
0.97838
0.336896
1.25111
0.844416
1.12197
0.349592
0.34561
0.468321
0.370413
0.335257
0.375709
0.339493
0.82204
0.315776
0.473393
0.618906
0.31575
0.323055
0.326929
0.328258
0.357509
0.360502
0.393749
0.394988
0.371909
0.348951
0.40282
0.341422
0.447635
0.332287
0.370065
0.322148
1.9634
1.15847
0.377737
0.447785
0.314168
2.41896
0.31282
0.317325
0.360111
0.314736
0.378036
0.360608
0.315617
0.310441
0.343186
1.01608
0.617708
0.37089
0.817947
0.319201
0.361339
0.332551
0.359566
0.80668
0.387246
0.8466
0.313036
0.3353
0.798308
0.891546
0.342383
0.342806
0.63857
0.377043
0.363412
0.489603
0.388444
0.375076
0.417318
0.375944
0.309832
0.384156
0.356426
0.482644
0.318344
0.363953
0.316327
0.338379
0.801606
0.68974
0.333227
0.356036
0.341461
0.35893
0.33181
0.535885
0.33329
0.350573
0.374727
0.353601
0.442777
0.401258
0.487826
0.376263
0.310965
0.327729
0.318843
0.378295
0.310233
0.533384
0.442073
0.326385
0.662213
0.341492
0.317238
0.360303
0.319433
0.374323
0.638085
0.33919
0.43443
0.368255
0.94941
0.394768
0.375392
0.37322
0.724135
0.37499
0.535044
0.370684
0.403852
0.360037
0.412378
0.38664
0.727251
0.454478
0.363192
0.333384
0.328159
0.557429
0.34247
1.02382
1.69364
0.375891
0.423697
0.357445
0.475246
0.452252
0.387855
0.899094
0.480858
0.66184
0.319187
0.392856
1.01028
0.486103
0.355713
0.471206
0.333406
1.11985
0.389339
0.383633
0.330052
0.317935
0.321902
0.345053
0.31931
1.79961
0.32256
0.645991
0.319306
0.426137
0.392602
0.529355
0.344074
0.349143
0.336798
0.58978
0.465571
0.510178
0.320827
0.322566
0.453394
0.371401
0.358885
0.318441
0.316651
0.318023
0.338277
0.316724
0.37335
0.322983
0.557542
0.431448
0.992152
0.766816
0.61144
0.565495
0.388887
0.396389
0.314461
0.593314
0.329322
0.34242
0.32741
0.459968
0.498997
0.329637
0.423793
0.790757
0.48773
0.31983
0.319345
1.33914
0.824082
0.382861
0.869513
0.880006
0.645915
0.76134
0.578459
0.736519
0.404256
0.641542
0.778604
0.315744
0.323986
0.309898
0.471908
0.610717
0.33237
0.317345
0.400197
0.361987
0.385731
0.833303
0.48189
0.962903
0.350039
0.318402
0.336829
0.317196
0.360373
0.824107
0.761376
0.697471
0.776826
0.323403
1.02501
0.778145
0.319754
0.530616
0.473242
0.779265
0.372805
0.475854
0.776039
0.795149
0.473251
0.853894
0.504264
0.769289
0.370725
0.342325
0.383843
1.09266
0.771808
0.392623
0.336114
0.559258
0.443255
0.583456
0.355576
0.375441
1.11896
1.15279
0.241224
0.32395
0.254665
0.318459
0.237042
0.382136
0.462052
0.609907
0.218405
0.436088
0.496649
0.147522
0.460707
1.58583
0.415752
0.382275
0.735538
0.335774
0.499191
0.328632
0.313365
0.332816
0.345765
0.831342
0.706035
1.55955
0.39353
0.38899
0.619914
0.375529
0.46893
0.409609
0.361116
0.336237
0.596847
0.379923
0.408136
0.327594
0.423295
0.406812
0.764925
0.46866
0.813074
0.964096
0.782061
0.373716
0.403616
0.73489
0.320278
0.557568
0.35973
0.389024
0.324952
0.809834
0.613479
0.625206
0.930499
0.615524
0.317111
0.433497
0.874188
0.823973
0.389651
0.358203
0.46496
1.07837
0.355804
0.319134
0.363112
0.340429
0.814479
0.328231
0.623285
1.11091
0.877144
1.69175
0.545908
0.462732
0.804572
1.30846
0.874957
0.593329
0.750325
0.921271
0.536147
0.380367
0.449772
0.356485
0.308801
0.322495
0.423782
0.524002
1.63716
0.362986
0.391271
0.405248
0.377753
0.463903
0.570975
0.479667
0.372062
0.381132
1.02601
1.10356
0.219197
0.397226
0.336258
0.368265
1.50868
0.824207
0.371479
0.680014
0.33457
0.44048
0.516872
0.574773
0.34347
0.340962
0.328284
0.392167
0.906471
0.453598
0.356548
0.800531
0.318631
0.934187
0.70934
0.473242
0.700708
0.36652
0.319622
0.326057
0.324465
0.3597
0.402944
0.330064
0.344122
0.329916
0.324204
0.515365
0.696953
0.735558
0.32635
0.478367
0.36614
0.393196
0.348385
0.672185
0.360373
0.341926
0.339955
0.317718
0.332153
0.334017
0.459675
0.31358
0.358467
0.374238
0.620336
0.328792
0.396388
0.498557
0.806011
0.873709
0.388086
0.999702
0.560229
0.375392
0.350831
0.536736
0.332556
1.63306
0.428459
0.323008
0.429126
0.528976
0.409547
0.462844
0.734049
0.832723
0.458873
0.838503
0.344645
0.314791
0.398584
0.320687
0.320193
0.41353
0.324618
0.322547
0.58271
0.317921
0.292622
1.00977
0.60579
0.317809
0.320065
0.722214
0.33716
0.330597
0.588371
0.328474
0.742292
0.407397
0.778119
0.322797
0.549118
0.449486
0.681792
0.327384
0.443389
0.325311
1.13565
0.364329
0.320333
0.894722
0.428626
0.504261
0.358789
0.373606
0.37368
0.324953
0.504317
0.324214
0.325354
0.312195
0.448772
0.552249
0.324525
0.328839
0.324701
0.323035
0.336237
1.15998
0.320268
0.4559
0.31955
0.583362
0.354685
0.371514
0.361827
0.47326
0.338655
0.430421
0.310323
0.34019
0.340073
0.355697
0.321577
0.438545
0.413976
0.861038
0.932171
0.801891
0.397396
0.349335
0.345184
0.318736
0.320025
1.03643
0.645704
0.402533
0.373322
0.312298
0.339738
0.312671
0.325214
0.531505
0.512633
0.773572
0.898653
0.375411
0.349165
0.416473
0.320334
0.602158
0.355347
0.455532
0.364414
0.36538
1.0588
0.42172
0.312651
0.337249
0.404339
0.320568
0.482326
0.318361
0.703638
0.376669
0.914102
0.491657
0.78168
0.325247
0.342752
0.359844
0.374419
0.365438
0.358254
0.318711
0.318645
0.324245
0.333303
0.354922
0.593533
0.378071
0.870815
0.419467
0.326134
0.518789
0.38169
0.361465
0.30422
1.06151
0.897266
0.314632
0.32061
0.32629
0.85312
0.326054
0.428964
0.380923
0.368612
0.284863
0.364845
0.361374
0.31756
0.420677
0.55341
0.963377
0.537306
0.442778
0.312551
0.404676
0.651065
0.353519
0.321957
0.857399
0.817434
0.422048
0.731581
0.32387
0.316758
0.403233
0.324364
0.876897
0.320074
0.319151
0.323507
0.675538
0.319161
0.361654
0.46251
0.470505
0.319304
0.336613
0.342597
0.337459
0.317164
0.354079
0.373549
0.591483
0.437888
0.37099
0.590158
0.363305
0.6444
0.366123
0.90908
0.44929
0.351739
0.695182
0.282167
0.435135
0.536936
0.590493
0.405281
0.317997
0.321322
0.31474
0.364434
0.848428
0.375398
0.319064
0.356478
0.378067
0.315971
0.48927
0.346819
0.371301
0.465617
0.340001
0.323224
0.354477
0.345148
1.48466
0.906641
0.390646
0.359873
0.429924
0.357203
0.810845
1.10504
1.15548
0.787924
0.350309
0.338924