/*--------------------------------*- C++ -*----------------------------------*\
| =========                 |                                                 |
| \\      /  F ield         | OpenFOAM: The Open Source CFD Toolbox           |
|  \\    /   O peration     | Version:  2506                                  |
|   \\  /    A nd           | Website:  www.openfoam.com                      |
|    \\/     M anipulation  |                                                 |
\*---------------------------------------------------------------------------*/
FoamFile
{
    version     2.0;
    format      ascii;
    arch        "LSB;label=32;scalar=64";
    class       volScalarField;
    location    "0.0533022";
    object      nut;
}
// * * * * * * * * * * * * * * * * * * * * * * * * * * * * * * * * * * * * * //

dimensions      [0 2 -1 0 0 0 0];

internalField   nonuniform List<scalar> 
47425
(
0.00539306
0.00513472
0.00445089
0.00199152
0.00338849
0.00457651
0.00466133
0.0032598
0.00742778
0.00203319
0.00246265
0.00736645
0.00528432
0.00403033
0.00330769
0.00379839
0.00462751
0.00260733
0.000269882
0.00292722
0.00383495
0.00699861
0.00313674
0.00507768
0.006834
0.00703311
0.00396709
0.000508923
0.00437658
0.00563243
0.00737526
0.00711231
0.00745922
0.00464378
0.00573959
0.0048934
0.00708042
0.00537822
0.00488595
0.00435453
0.00508384
0.00482573
0.00509876
0.00260977
0.000858614
0.00338848
0.0034892
0.00452064
0.0040156
0.00654516
0.000667845
0.00271158
0.00622002
0.00102654
0.00329198
0.00297206
0.00703849
0.00539369
0.00239324
0.00521535
0.000909371
0.000740477
0.000988436
0.00322615
0.0073849
0.00702593
0.00555542
0.00433981
0.00108968
0.00532206
0.00404187
0.00596837
0.00647524
0.00355393
0.00134737
0.00746319
0.0010239
0.00392669
0.000252023
0.00206931
0.0013337
0.00497399
0.0073792
0.00742869
0.00676235
0.00395451
0.00579862
0.00611729
0.004622
0.00145939
0.00718694
0.00449285
0.00723554
0.00323772
0.00260139
0.00188761
0.00647421
0.0059386
0.0035961
0.00458539
0.00557233
0.00100107
0.00617389
0.00101263
0.00635908
0.00696707
0.00657667
0.00346974
0.00676408
0.00702853
0.00308756
0.00524076
0.00608561
0.00228207
0.00735873
0.000355197
0.00736551
0.00076557
0.00436875
0.00547833
0.00410091
0.00747142
0.00591278
0.00279235
0.00363983
0.0069336
0.00387139
0.00741791
0.00336836
0.00729814
0.00715425
0.00347682
0.00105295
0.00294149
0.00526271
0.0050919
0.00676759
0.00671992
0.00462653
0.00325447
0.0049914
0.00282866
0.00475424
0.00537434
0.00645247
0.00742415
0.00405659
0.00542925
0.00241952
0.00499751
0.00543783
0.0005528
0.00738996
0.000430528
0.00317936
0.00392194
0.00304427
0.000308021
0.00387287
0.00463781
0.00752369
0.00712451
0.00625182
0.00688255
0.0012358
0.00050073
0.00743616
0.00134687
0.00321232
0.000814272
0.00135979
0.00414031
0.00479118
0.00361266
0.00491359
0.00131622
0.000402031
0.00437468
0.0059351
0.00708089
0.000328212
0.00653615
0.00512104
0.00684357
0.0066801
0.00695588
0.00564404
0.00114665
0.00238477
0.00561279
0.00746959
0.00435418
0.00536193
0.00474278
0.00673824
0.00745092
0.00582732
0.00456475
0.00755666
0.0036606
0.00515976
0.00297671
0.00670874
0.00739716
0.0025388
0.00237177
0.00576281
0.00737018
0.00403599
0.00747109
0.00493977
0.00476582
0.00745933
0.00338234
0.00503737
0.00503826
0.00414838
0.0017118
0.00354385
0.00382315
0.00197637
0.00245908
0.00496064
0.00322876
0.0023902
0.00164922
0.00672283
0.00255028
0.00729604
0.00427692
0.00435738
0.00448458
0.00337804
0.0074889
0.00224372
0.00352937
0.00181515
0.0030282
0.002049
0.00203672
0.00406776
0.00520371
0.00724972
0.00313013
0.00710113
0.00733149
0.00462983
0.00590021
0.00714827
0.00408957
0.00731528
0.00239172
0.00479395
0.00742026
0.00354978
0.00720882
0.00682215
0.00305052
0.00332843
0.00739658
0.00306709
0.00746053
0.00409335
0.00269787
0.00546385
0.00394196
0.00705344
0.00500378
0.00499683
0.00404543
0.00407119
0.00227583
0.00186498
0.00651154
0.00238119
0.00210012
0.00237989
0.000554384
0.00191384
0.000630754
0.000926748
0.00547833
0.000930675
0.00298813
0.00405914
0.003633
0.00342191
0.00359223
0.00405176
0.00744612
0.00079135
0.00523377
0.00737543
0.00550262
0.00468027
0.00338877
0.00301051
0.00677587
0.00493157
0.00495356
0.00387699
0.00705922
0.0038812
0.00518846
0.00109033
0.000842946
0.000580097
0.00726021
0.00641716
0.0072369
0.00326913
0.00085174
0.00378375
0.00287358
0.00170379
0.00473219
0.00333396
0.00305193
0.00350293
0.00157681
0.00182371
0.0070912
0.00522572
0.0065696
0.00419982
0.00707019
0.00408926
0.0050457
0.00598014
0.00436343
0.00374931
0.00105225
0.00428649
0.00421907
0.00297244
0.00722509
0.000877356
0.00637814
0.00679961
0.00602258
0.00699556
0.00694662
0.00699774
0.00605405
0.00623108
0.00617788
0.00528034
0.00677492
0.00383668
0.00412114
0.00684358
0.00701214
0.00523124
0.00668657
0.0066774
0.00270875
0.00410223
0.00739146
0.00651897
0.0038574
0.00197688
0.00587818
0.0042506
0.00348875
0.00655486
0.00670993
0.00282763
0.00743428
0.0049326
0.00721318
0.00280896
0.00108561
0.00402264
0.00738231
0.00192609
0.00734975
0.00473507
0.00386899
0.00502328
0.00703508
0.00563159
0.00723358
0.00717719
0.00481554
0.00408925
0.00439942
0.00394113
0.00609426
0.00717463
0.00395008
0.00672717
0.00654257
0.00414083
0.00557153
0.00486381
0.00666965
0.00522266
0.00366791
0.00328814
0.00641502
0.000876297
0.0068393
0.00212754
0.0048148
0.0034984
0.00348619
0.00662411
0.00243208
0.00665974
0.00361137
0.00698928
0.00111115
0.0010559
0.00719536
0.00287794
0.00394116
0.00367236
0.00398195
0.004334
0.00387809
0.00404236
0.00490287
0.0069948
0.00312352
0.00457086
0.00635171
0.003444
0.00402459
0.00614882
0.00093917
0.000421668
0.00674298
0.000504081
0.000524727
0.0040086
0.000497539
0.000769317
0.00653424
0.00391582
0.00416774
0.00397935
0.000957784
0.00386791
0.00629321
0.00635145
0.0042689
0.00424666
0.00406571
0.00393726
0.000950376
0.000729965
0.00129832
0.00543762
0.0010597
0.00378129
0.00554945
0.00726817
0.00538093
0.00732581
0.00422982
0.00478994
0.00284693
0.00465828
0.00748961
0.00402819
0.00529801
0.0043983
0.00737931
0.00498704
0.00474663
0.00523116
0.00562934
0.00340799
0.00283818
0.00510554
0.00421428
0.00733338
0.00120378
0.0027889
0.00215545
0.00744294
0.00263045
0.00334167
0.00312729
0.00720657
0.00413196
0.00740285
0.00487887
0.00307765
0.00333633
0.00365669
0.00342249
0.00574834
0.00232276
0.000904143
0.00663794
0.00167493
0.00561282
0.00167746
0.00651167
0.00608409
0.00708283
0.00460943
0.00550164
0.00302659
0.00519035
0.00661056
0.00723117
0.00686616
0.00446481
0.00269396
0.00392734
0.00723373
0.00575671
0.00544466
0.00543526
0.00537554
0.00488109
0.00442425
0.00269872
0.00472299
0.00372039
0.000702595
0.00528188
0.00461912
0.00635183
0.0074118
0.00179881
0.00203686
0.00448882
0.00641488
0.00432822
0.00431997
0.00683624
0.00203412
0.00747833
0.00283575
0.00246344
0.0027914
0.00540322
0.00292809
0.00736457
0.00440363
0.00446148
0.00659089
0.00709744
0.00600542
0.000908579
0.00503723
0.00248188
0.00686578
0.00179416
0.00670147
0.00535236
0.00220766
0.00246118
0.00463208
0.00684394
0.000720575
0.00572232
0.00547543
0.00565385
0.00640788
0.00708927
0.00232917
0.00298525
0.00619755
0.00581209
0.00485693
0.00711158
0.00216563
0.00721567
0.00523226
0.00048237
0.00450304
0.00718223
0.000960692
0.00135923
0.00710565
0.000328674
0.000342553
0.00436877
0.00744581
0.00595676
0.00716237
0.00427774
0.00391349
0.00132623
0.00716615
0.00275347
0.00629064
0.00211128
0.00229567
0.0043322
0.00486566
0.00157027
0.00653498
0.00611522
0.0035162
0.00340503
0.00269099
0.00301838
0.00303122
0.00668781
0.00342571
0.00285126
0.00316782
0.00533058
0.00306766
0.00356278
0.00662959
0.00264809
0.00370612
0.00408828
0.00275668
0.00339954
0.00459582
0.0049301
0.00645123
0.00178553
0.00507851
0.00670074
0.00674493
0.000312647
0.00396583
0.00530989
0.000561181
0.000815803
0.00721124
0.00470035
0.000192033
0.00209163
0.000823099
0.00270433
0.0031541
0.000692919
0.00531989
0.00647698
0.00591071
0.00312777
0.00335457
0.00332831
0.00671285
0.00315353
0.00472844
0.00389521
0.00646917
0.00433493
0.00403836
0.00173047
0.000979458
0.00283841
0.00308659
0.00406367
0.00650491
0.00342962
0.0074162
0.00605413
0.00567859
0.00526834
0.00640191
0.00196746
0.00469503
0.00660557
0.00187905
0.00196257
0.000930515
0.00123689
0.00398217
0.00740557
0.00484328
0.0071162
0.00110931
0.00454927
0.00117455
0.00424529
0.00418137
0.00531301
0.00477967
0.00561718
0.00353391
0.00204621
0.00363705
0.00545217
0.00190255
0.00447446
0.00748588
0.00427176
0.00400661
0.0012607
0.00532579
0.00186038
0.00358956
0.00747322
0.00709715
0.00253606
0.0041524
0.00386261
0.00743152
0.00515635
0.00431002
0.00450497
0.00417929
0.00402093
0.00493308
0.000934761
0.000638979
0.00445001
0.000836891
0.00467112
0.00293844
0.00341877
0.00648983
0.00382897
0.00497805
0.00419587
0.00411449
0.00699818
0.000594023
0.00288281
0.0034167
0.00507754
0.00668314
0.00378984
0.0056387
0.00244746
0.00747339
0.00143886
0.00409689
0.00697177
0.00424014
0.00667686
0.00541855
0.00457266
0.00629083
0.00360644
0.00729332
0.00681995
0.00405951
0.00105367
0.0073351
0.000708313
0.00234125
0.00224074
0.000695385
0.00426808
0.00408896
0.0022302
0.00392928
0.000813609
0.000599015
0.000949108
0.00330934
0.0051226
0.00370342
0.00295954
0.000909352
0.00252598
0.00371106
0.0058725
0.00452338
0.00435993
0.00312457
0.00587857
0.00425761
0.00134294
0.00208453
0.00555807
0.00246468
0.00111537
0.000718875
0.00348681
0.000560542
0.0021029
0.000679599
0.000871564
0.00450034
0.00303477
0.0071432
0.00667288
0.00485121
0.000718123
0.00133505
0.00479777
0.00485462
0.00716151
0.000843741
0.000616876
0.00722064
0.00227642
0.0036953
0.00722391
0.00222951
0.00723285
0.00723269
0.0043848
0.00484315
0.00165105
0.00648508
0.00719921
0.00515516
0.00524289
0.00522593
0.00108298
0.00180815
0.0070879
0.00137013
0.00644372
0.00682734
0.00677724
0.00179826
0.004553
0.00203501
0.00267698
0.00579765
0.00726415
0.00132416
0.000683061
0.00456049
0.00395264
0.00194245
0.00538661
0.00561306
0.00303814
0.00280164
0.00294507
0.00510009
0.00238054
0.00110273
0.0074237
0.00114741
0.00563744
0.00392712
0.00706966
0.00203926
0.00274324
0.00721418
0.00334248
0.00132181
0.00350291
0.0019545
0.00483772
0.00573233
0.00470238
0.00354741
0.00462561
0.00316389
0.000626857
0.0047762
0.0026943
0.00179975
0.00178437
0.0011059
0.00174092
0.00415609
0.000562993
0.00707205
0.00664259
0.00433606
0.00269171
0.00388244
0.00150057
0.00137811
0.00322475
0.00517693
0.00461817
0.00322375
0.00358159
0.00392742
0.00709624
0.00135855
0.00402027
0.00449637
0.00242842
0.0020945
0.00591929
0.000566026
0.00393202
0.00537241
0.00386733
0.00399167
0.00587814
0.00693013
0.00343155
0.00386341
0.000790581
0.00281257
0.00482348
0.00368336
0.00575412
0.00352504
0.000808836
0.00462417
0.00205668
0.00585408
0.00193005
0.00286743
0.00376015
0.00546159
0.00529216
0.0035787
0.00189134
0.00396492
0.00168547
0.000752759
0.00531466
0.00708253
0.0052345
0.00110489
0.00544557
0.00274367
0.00691751
0.00170612
0.00190189
0.00406746
0.00316324
0.0043429
0.00719523
0.00514767
0.00316992
0.00112193
0.0023187
0.00115932
0.00704032
0.00236584
0.00268629
0.00279614
0.00362256
0.0047483
0.00169352
0.00165188
0.00378115
0.000963017
0.00361575
0.00362241
0.00438067
0.00505988
0.00383074
0.00490407
0.0013004
0.00374203
0.00370361
0.00464683
0.00618987
0.000827645
0.00226758
0.000729874
0.00162738
0.0011614
0.00209349
0.00392076
0.00132092
0.00356576
0.00132135
0.00201621
0.00205815
0.00139556
0.00315074
0.00540558
0.00437628
0.00746964
0.00152234
0.00370715
0.00348259
0.00438282
0.00142538
0.00601488
0.00433456
0.00608936
0.00746053
0.00295887
0.0019278
0.00301086
0.00330362
0.00565101
0.00235243
0.00668692
0.00319872
0.00311928
0.0072137
0.00246133
0.00221113
0.00434518
0.00218873
0.00395839
0.00306252
0.00206689
0.00294221
0.00313603
0.000230013
0.000671328
0.00165602
0.000607168
0.00335086
0.0033933
0.000616571
0.00088694
0.00540545
0.00108171
0.00334791
0.0041783
0.000546675
0.00264017
0.00708861
0.00320688
0.00157612
0.00636448
0.000718177
0.000348643
0.00228623
0.000846453
0.0022602
0.000983749
0.000862158
0.0055939
0.00454676
0.00277967
0.00206294
0.00371619
0.00736786
0.002198
0.000715509
0.00498937
0.00174146
0.00434618
0.00204422
0.00641832
0.00603999
0.00209884
0.00208596
0.00423532
0.00182118
0.00525327
0.00147035
0.00722002
0.00611201
0.00342283
0.0019607
0.00490443
0.00730756
0.000798262
0.00167417
0.00163692
0.00373065
0.00274483
0.00210068
0.00118368
0.00410493
0.00118881
0.00240449
0.00526096
0.00322802
0.00220668
0.000828995
0.00217269
0.00187171
0.00589057
0.0052999
0.00205496
0.00408587
0.00273065
0.00502985
0.00740451
0.0065583
0.00410947
0.00279319
0.0007897
0.00425438
0.00050673
0.00417327
0.00443186
0.00295607
0.00542898
0.00377963
0.00418212
0.00460915
0.00195382
0.0058836
0.0015164
0.00713702
0.000381395
0.00133731
0.00139287
0.00199356
0.00421325
0.00542343
0.00348448
0.0057866
0.00067164
0.000792771
0.0034111
0.00234241
0.000983238
0.000965104
0.00234874
0.00118371
0.00053939
0.00361915
0.00582638
0.000530335
0.00387894
0.00468979
0.00435562
0.000967147
0.000635066
0.0040067
0.00400748
0.00136848
0.00256253
0.0011454
0.000797229
0.00327849
0.00110162
0.00122213
0.00337512
0.00472918
0.00115271
0.00621349
0.00141126
0.000239448
0.00731695
0.00454656
0.0038989
0.00558453
0.00302549
0.00311144
0.00742651
0.0029891
0.00415727
0.000881323
0.0016568
0.00479702
0.00140892
0.00463803
0.000400706
0.00689591
0.00367394
0.00237602
0.00586091
0.00103548
0.003952
0.00309572
0.0023806
0.00278184
0.0039872
0.00446142
0.00212214
0.000729646
0.00627622
0.00136891
0.000749542
0.00188346
0.00392835
0.001067
0.00181398
0.00478128
0.00553085
0.00109712
0.001821
0.002303
0.000838686
0.002586
0.000989859
0.0031675
0.00286679
0.00219623
0.00100565
0.00558355
0.00622189
0.00218483
0.00428512
0.00255693
0.00336429
0.000965654
0.00538881
0.0038718
0.00575616
0.00141759
0.00560517
0.000608436
0.0022828
0.00557166
0.00739771
0.00194823
0.00174466
0.000938651
0.0019808
0.00226306
0.00117626
0.000908697
0.00411105
0.000944181
0.00469456
0.002966
0.000456533
0.00159333
0.00308877
0.00305128
0.00561339
0.00157307
0.000535319
0.0017177
0.00253751
0.00493853
0.00722248
0.00193127
0.00491339
0.00379507
0.00627881
0.00110242
0.0026693
0.00161712
0.00422204
0.00164562
0.00410201
0.00358631
0.00118149
0.00187416
0.00241638
0.00279906
0.00570176
0.000412336
0.00168598
0.00160379
0.00147583
0.00348592
0.00549888
0.00109551
0.000744433
0.00165227
0.00287492
0.00290185
0.00172949
0.00266969
0.00126785
0.00556788
0.00136907
0.00144651
0.00568978
0.0012809
0.00340656
0.0025805
0.00281887
0.00136962
0.00249753
0.00623044
0.000737265
0.00336092
0.000659923
0.0026603
0.0038432
0.00280202
0.00209809
0.00139537
0.00258306
0.00415718
0.00304675
0.00126344
0.00400032
0.00436144
0.00065444
0.00711548
0.00367343
0.000891046
0.00392416
0.00280706
0.00191772
0.0024432
0.00120372
0.00379458
0.000172568
0.0022246
0.00153332
0.0024359
0.00121002
0.00292858
0.000910211
0.00135916
0.00137954
0.00280593
0.00399406
0.00741045
0.00412815
0.00373793
0.0029113
0.000726857
0.00377831
0.00598862
0.00468095
0.00512246
0.00329271
0.00417907
0.0073779
0.0074555
0.00301172
0.00100611
0.0069452
0.00283135
0.00249645
0.00536628
0.0066522
0.00287665
0.00242126
0.00747101
0.00566675
0.00340086
0.00359163
0.00648229
0.00388039
0.00116721
0.00388977
0.00368958
0.00580557
0.00711178
0.00220968
0.00475434
0.00594097
0.000821996
0.00157752
0.000995277
0.00680063
0.000988274
0.000443236
0.00656096
0.000371854
0.00081263
0.000607097
0.00395753
0.00491899
0.0042744
0.00150413
0.00697305
0.00444083
0.00452079
0.00396481
0.00278862
0.00357836
0.00348872
0.00111342
0.00438599
0.00284332
0.000884583
0.00401042
0.000384717
0.0018141
0.00128399
0.00671326
0.00306585
0.00198639
0.00598616
0.00480861
0.00192967
0.00722546
0.00277703
0.00179926
0.000417511
0.00731465
0.00163005
0.00538752
0.00306245
0.00316143
0.00558004
0.00139681
0.00487936
0.00222277
0.00471517
0.00131902
0.000279544
0.00407288
0.00707155
0.00227028
0.00475396
0.000730072
0.00378054
0.00379106
0.0045476
0.00436738
0.00561218
0.00723878
0.00388648
0.00231529
0.00552237
0.00219344
0.0040842
0.00378569
0.0072562
0.00231645
0.00108816
0.00405368
0.00478161
0.00509824
0.0047413
0.00311633
0.00424601
0.00451975
0.00594525
0.00239343
0.00264635
0.00747211
0.00391668
0.00367941
0.00518706
0.00385194
0.00326326
0.00339649
0.00358056
0.00398598
0.00371562
0.0039182
0.00593204
0.0048592
0.00640409
0.00209899
0.00225379
0.00196177
0.00362235
0.00484961
0.00423589
0.00127847
0.00558349
0.00531329
0.00553324
0.00157665
0.00299637
0.00128489
0.00126619
0.00125925
0.0034584
0.00462062
0.00437033
0.00431298
0.00649473
0.00121557
0.0040753
0.00664112
0.00421106
0.00322172
0.00419011
0.00141454
0.00425682
0.00238048
0.00283039
0.00347187
0.00619639
0.00450555
0.00377683
0.00384401
0.00466249
0.00304644
0.00333806
0.00290544
0.00375259
0.0050827
0.00496906
0.00216274
0.00193405
0.00483641
0.00419472
0.00234851
0.00378614
0.00230072
0.00690681
0.00551684
0.00234323
0.00472005
0.00588217
0.004713
0.00692818
0.00679473
0.00358013
0.00439617
0.00199332
0.00451534
0.00247921
0.00625576
0.0044769
0.000986812
0.00410615
0.00425943
0.0051909
0.00523062
0.00400825
0.00430302
0.000335452
0.00348014
0.0041932
0.00613493
0.00533857
0.00503887
0.00725546
0.00639321
0.00351641
0.00415313
0.00649588
0.00687578
0.00312456
0.00099393
0.00135145
0.00305805
0.00181057
0.00352188
0.00396351
0.0035502
0.00170081
0.00197653
0.00340356
0.00404953
0.00085738
0.00488275
0.00405016
0.00391886
0.00404342
0.00683969
0.000318476
0.00472635
0.00366109
0.00742971
0.00269172
0.00279058
0.00041042
0.000243928
0.0047283
0.00593206
0.00708601
0.00405473
0.00370587
0.00523025
0.000222794
0.00116971
0.00484942
0.00255464
0.00141205
0.00501665
0.00460767
0.00326216
0.00707228
0.00508156
0.00681466
0.00435453
0.00289951
0.00395828
0.00429579
0.0052243
0.00200931
0.00434336
0.00743716
0.00132354
0.00571935
0.00362289
0.00321521
0.00105622
0.00152364
0.00349522
0.00287965
0.00529441
0.00284779
0.00289485
0.00607315
0.00059739
0.00165989
0.00287975
0.00395147
0.00340017
0.00392463
0.00388788
0.00119214
0.00728327
0.00680963
0.00574229
0.00538548
0.000921633
0.00133345
0.00134625
0.00185083
0.00315919
0.00287975
0.00732086
0.00721464
0.0045492
0.00509861
0.00518534
0.0057064
0.00724632
0.00111997
0.000617277
0.00717273
0.00681226
0.00309789
0.00199986
0.00314061
0.00718551
0.00535349
0.00168906
0.00092183
0.00349039
0.00205445
0.00495419
0.00153306
0.000563073
0.00302037
0.00637781
0.00717172
0.00617162
0.000922879
0.00554339
0.00435009
0.0042965
0.00723839
0.000967306
0.000340632
0.000519558
0.00168188
0.0034556
0.00624487
0.0070325
0.00241055
0.00416839
0.000971132
0.000816187
0.000756913
0.000468386
0.000756549
0.00176907
0.0065285
0.000847791
0.0073977
0.000363543
0.00390503
0.000742374
0.00445389
0.00180652
0.0059854
0.00301377
0.00224758
0.00225501
0.00488649
0.00559793
0.00398964
0.000924501
0.00113522
0.00500383
0.00517076
0.000482153
0.000403956
0.0037445
0.00181525
0.000680738
0.00124732
0.00472568
0.00688916
0.000862914
0.000614478
0.00158376
0.00710853
0.00132552
0.00639905
0.000742555
0.00110769
0.000521958
0.00245865
0.00580341
0.00162917
0.00680528
0.00464024
0.00391266
0.00228575
0.00635785
0.00372474
0.00499902
0.00382688
0.00423553
0.00697049
0.00651786
0.00357829
0.00677074
0.00597945
0.00436448
0.00390747
0.00165666
0.003865
0.00242615
0.00406763
0.00590567
0.00403539
0.00096069
0.00350935
0.00340524
0.00204464
0.000600445
0.00425267
0.00370029
0.00337071
0.00101487
0.0016864
0.00134326
0.0046837
0.00673504
0.00489646
0.00345836
0.00566256
0.00343185
0.00321991
0.00378598
0.00712495
0.00472804
0.00541527
0.00459171
0.00318851
0.00451197
0.00371787
0.000683992
0.00358423
0.00407514
0.00430043
0.00299135
0.0011435
0.00247806
0.00408896
0.00468435
0.00317785
0.00121897
0.00135458
0.00385668
0.00328739
0.0003829
0.00152631
0.00206073
0.00407581
0.00150611
0.0031362
0.00403079
0.00298529
0.00118251
0.00477637
0.00412012
0.002336
0.00652677
0.0023901
0.00272836
0.00316177
0.00333316
0.00194571
0.00422854
0.00585029
0.0071912
0.00194337
0.00330341
0.00437035
0.00310528
0.00509952
0.000864269
0.00294025
0.00332896
0.000453528
0.00187391
0.00552381
0.00346989
0.000912911
0.00172214
0.002343
0.00714285
0.00290892
0.00109328
0.00550189
0.00735797
0.000688504
0.00192662
0.00142365
0.00368879
0.0043823
0.00471716
0.00150332
0.000603492
0.000731843
0.00428368
0.00571064
0.000637796
0.00602682
0.00180714
0.00308083
0.00155301
0.00106741
0.00451677
0.0034541
0.00118073
0.00402879
0.00470529
0.00458324
0.00361315
0.00544249
0.000943384
0.000300289
0.00393207
0.00361257
0.00071667
0.000555439
0.000699553
0.00218276
0.00114959
0.00204374
0.00057162
0.00352569
0.00353178
0.000829664
0.00241937
0.00248823
0.000908204
0.00086887
0.000413785
0.00653975
0.00604323
0.000543287
0.00626187
0.00427618
0.000870859
0.00542319
0.00302637
0.00408799
0.00321757
0.0050619
0.0063524
0.000484814
0.000434884
0.00195831
0.000784175
0.00242474
0.00375346
0.00436909
0.00453096
0.003363
0.00481672
0.00542733
0.00409167
0.00476535
0.000757744
0.000701735
0.00391586
0.00181554
0.00392378
0.00418912
0.00273411
0.00355699
0.0036819
0.00466488
0.000639499
0.00116868
0.0043717
0.000722398
0.00281611
0.00144674
0.00289807
0.00348703
0.000960814
0.00281917
0.00112869
0.00399935
0.00291843
0.00291681
0.00644149
0.00122258
0.00716675
0.00555744
0.00249097
0.00430424
0.00149092
0.00338711
0.00210888
0.00340647
0.000904935
0.00395035
0.00341864
0.00366348
0.00710879
0.00313016
0.00348294
0.0018107
0.000425626
0.00288433
0.000682568
0.00353849
0.0044979
0.00436555
0.00459095
0.00514589
0.00496626
0.00327704
0.00128906
0.00175892
0.0013071
0.000647657
0.00392611
0.0041382
0.000162247
0.00100658
0.00431447
0.0037405
0.00132822
0.0037636
0.00075541
0.000462506
0.00265859
0.00103971
0.00135758
0.00284169
0.000793181
0.00177504
0.00639399
0.00348571
0.00108571
0.00120491
0.00666422
0.00100719
0.00713834
0.00263215
0.00490398
0.00262255
0.00190955
0.000892755
0.00105593
0.0058923
0.00568932
0.000251161
0.00705933
0.00452207
0.00119329
0.00601721
0.00283295
0.00377498
0.00348874
0.000531846
0.00151698
0.000729788
0.00174625
0.00315236
0.0011652
0.00585823
0.00502893
0.0010771
0.00671433
0.00372618
0.00264067
0.00515526
0.00134967
0.000588944
0.00692021
0.00236727
0.00717416
0.000783296
0.00430394
0.000604717
0.00282014
0.00269137
0.00620376
0.00253619
0.00267801
0.0065838
0.00505794
0.00329725
0.00723379
0.00136213
0.00332254
0.00353009
0.00614179
0.00427561
0.00352001
0.0026164
0.00290062
0.00186588
0.00315207
0.00377011
0.00402576
0.0015037
0.000596009
0.000826723
0.000729738
0.00123811
0.000851953
0.00104782
0.0028063
0.000263221
0.000742431
0.00127928
0.00189902
0.00272312
0.00111394
0.00101367
0.00240671
0.00142551
0.00213257
0.00611622
0.00276078
0.00133417
0.00389472
0.00073913
0.00317592
0.0004987
0.00193063
0.00119589
0.00143249
0.00139164
0.000796893
0.00190272
0.000693501
0.00265979
0.00212249
0.00422637
0.00172961
0.00504931
0.0056818
0.000979261
0.00338356
0.000957106
0.00176798
0.00506439
0.00235577
0.00402737
0.00139412
0.0011443
0.00738287
0.00574663
0.00159155
0.000984699
0.00367441
0.00269134
0.0011383
0.00112459
0.00439135
0.0071792
0.00388799
0.00413631
0.000809369
0.0072904
0.000928716
0.000361503
0.00504961
0.00268299
0.00415475
0.0037186
0.000867264
0.00279553
0.000762865
0.00325767
0.00429984
0.000545408
0.00100574
0.0053429
0.00235248
0.00531943
0.00657827
0.00122995
0.00285013
0.000772947
0.00366722
0.00624872
0.00246491
0.0069713
0.00475595
0.00527496
0.00500449
0.00274745
0.00238904
0.00144958
0.00338065
0.00113405
0.00497314
0.00684368
0.00217074
0.0013008
0.000861046
0.000887601
0.00177474
0.00197468
0.00106003
0.000973653
0.00081203
0.000871356
0.00320709
0.00301516
0.00402189
0.00139272
0.00511345
0.00281538
0.00315428
0.0014261
0.000536294
0.00348143
0.00291392
0.00347555
0.0045885
0.00339211
0.0042154
0.00613993
0.004683
0.00263684
0.00296142
0.00269411
0.00550577
0.00294205
0.00148827
0.000770669
0.00418221
0.000590507
0.00744484
0.00320362
0.00691702
0.00443352
0.000939388
0.00271641
0.00118803
0.00371184
0.0035052
0.0034601
0.00446017
0.00482893
0.00361318
0.00326096
0.00543839
0.00743463
0.000818724
0.00305275
0.00127709
0.0028721
0.00103959
0.00577968
0.0045505
0.00342492
0.0038886
0.00292746
0.000987111
0.00648064
0.00394343
0.000984987
0.0024673
0.00243078
0.00274733
0.00243947
0.00235511
0.0022001
0.00495458
0.00751936
0.0066038
0.00199629
0.00154725
0.00469427
0.000486798
0.00557918
0.00180705
0.00696787
0.00629142
0.00190721
0.00435318
0.00635634
0.0010043
0.00742106
0.00414465
0.00147259
0.00291191
0.00699815
0.00133912
0.00677068
0.00722906
0.00113914
0.00297088
0.00288028
0.000794884
0.00737276
0.0020151
0.00137741
0.00170968
0.000978092
0.00117059
0.00478428
0.00582465
0.00287622
0.00596208
0.00191976
0.00291635
0.00526524
0.00602124
0.00348114
0.0011899
0.00298349
0.00430268
0.00233121
0.00341334
0.00251356
0.00738835
0.00209994
0.00119379
0.00363703
0.00351023
0.00496178
0.00487937
0.00314677
0.00432415
0.00220366
0.00338777
0.000628452
0.00418827
0.00694557
0.00102561
0.00286878
0.000666042
0.000984492
0.00586202
0.00336928
0.00126919
0.00309256
0.00059345
0.00145537
0.000589647
0.00146898
0.000641638
0.00303887
0.00183924
0.00157694
0.000555901
0.00117412
0.00292733
0.000690086
0.000531773
0.00241922
0.000325522
0.00109512
0.00274663
0.00307752
0.001044
0.000952572
0.00740345
0.00368653
0.00100747
0.000769017
0.00108947
0.00133305
0.00159146
0.000812668
0.00282641
0.00365423
0.00435424
0.0070045
0.00311711
0.00649192
0.00105492
0.00295771
0.00434448
0.000692544
0.00386391
0.00230705
0.00431919
0.00629529
0.00316441
0.0044468
0.00178626
0.0066449
0.00180577
0.000603602
0.00481491
0.0068598
0.00331504
0.005071
0.00103612
0.00320928
0.00553153
0.00639518
0.000588477
0.00629904
0.00363113
0.00691548
0.00171519
0.00313334
0.00437867
0.00576729
0.0050853
0.00141764
0.0035852
0.00255159
0.00750044
0.00709704
0.00688873
0.00430996
0.00455306
0.00357745
0.00582042
0.00335151
0.00360565
0.0025124
0.00129943
0.00115782
0.00330414
0.00185589
0.00415599
0.00268658
0.00348777
0.00371936
0.00641243
0.00315885
0.00428541
0.0063043
0.00217109
0.00459559
0.00310983
0.00108817
0.00485525
0.00273833
0.00123124
0.00381097
0.00114227
0.00192951
0.00119967
0.00035174
0.00278397
0.0052782
0.0019505
0.000466046
0.00350118
0.00711237
0.00620807
0.00541362
0.00343329
0.00452529
0.00723477
0.00708707
0.0037615
0.00281808
0.00742529
0.00652248
0.00740173
0.00533007
0.00300491
0.001795
0.00303061
0.00616208
0.0033773
0.000941692
0.00523856
0.00592603
0.00372797
0.000561745
0.000620199
0.00374875
0.00539678
0.00486167
0.00315947
0.00502982
0.000664987
0.00180865
0.00488703
0.0040251
0.00600087
0.00346086
0.00184593
0.0041781
0.0032333
0.00354235
0.00133668
0.00196608
0.00160698
0.000966122
0.000304423
0.00244967
0.00192669
0.0037629
0.00386942
0.0034048
0.00324696
0.00578733
0.00434807
0.000476539
0.0065792
0.00179838
0.00118096
0.00331324
0.00296428
0.000711714
0.00203301
0.00400773
0.00382934
0.0074094
0.00299096
0.00104312
0.00380536
0.00156565
0.00595683
0.00272621
0.000758076
0.00087113
0.00334215
0.00318925
0.00109237
0.00462329
0.000695977
0.000625317
0.00124114
0.00741959
0.00691775
0.000337033
0.00601525
0.000509358
0.00202385
0.00312567
0.00110865
0.00100577
0.00617821
0.00735424
0.000965569
0.00624833
0.00589114
0.00485891
0.00660512
0.00426363
0.00375704
0.00222648
0.0055683
0.000363691
0.00315313
0.0041228
0.00376292
0.00031692
0.00417947
0.000571811
0.00481661
0.00326336
0.00367039
0.00112166
0.00559683
0.00462059
0.00486153
0.000974484
0.0019375
0.00195281
0.00136432
0.00272282
0.00620836
0.000806512
0.00326334
0.00324792
0.00325932
0.00421539
0.00313098
0.00384821
0.00716386
0.000380451
0.00133154
0.00441336
0.00483153
0.00260392
0.00404358
0.00273947
0.00293618
0.00476384
0.00228698
0.00449938
0.0048216
0.00415697
0.00153726
0.00446324
0.00456155
0.00470038
0.00350147
0.00673071
0.00537349
0.00500416
0.00277323
0.00420842
0.00271037
0.0025553
0.0035902
0.000606523
0.0048805
0.00285448
0.00136994
0.00110536
0.00151645
0.00366419
0.00463931
0.00187394
0.000600637
0.00396347
0.00106868
0.00399773
0.00723501
0.00272448
0.00174654
0.00382807
0.00445208
0.00741611
0.00498185
0.000348107
0.00495047
0.00654076
0.00247328
0.000453367
0.00059578
0.00367295
0.000293572
0.000957995
0.00114013
0.00210795
0.00103117
0.000558369
0.00508135
0.000941321
0.00392102
0.00519575
0.00539943
0.000545636
0.0020944
0.00689379
0.0057449
0.00101812
0.00433966
0.000546079
0.00527179
0.00292063
0.00470199
0.00292976
0.000645808
0.00738005
0.00314736
0.00281993
0.00563567
0.0036936
0.00583381
0.00287083
0.00048949
0.000480199
0.000704669
0.00148174
0.0012843
0.00578952
0.00628634
0.00504385
0.00366234
0.00709355
0.00151102
0.00729135
0.000964794
0.00419319
0.00667866
0.00583865
0.00474981
0.00677304
0.00332057
0.00298021
0.00717732
0.00311693
0.000914298
0.00548243
0.00107234
0.000930821
0.0065057
0.000296743
0.000563078
0.00278969
0.00291977
0.00376493
0.00126274
0.00450692
0.00203595
0.00128952
0.00546867
0.00165248
0.00724509
0.00206553
0.00411937
0.00231472
0.00197056
0.000841781
0.003328
0.00389986
0.000700683
0.00132864
0.0020479
0.00173201
0.00566127
0.00158036
0.00419767
0.00188616
0.0031989
0.00612331
0.00132184
0.00268047
0.00234582
0.0064783
0.000630089
0.000842957
0.000590971
0.00581003
0.00420058
0.000894467
0.000609816
0.00179554
0.00378328
0.00250347
0.00109489
0.000781739
0.00181247
0.00457526
0.00386263
0.00432406
0.00508209
0.00399433
0.000591908
0.00508164
0.00177765
0.00312394
0.00680263
0.00258093
0.00262691
0.00505715
0.0038829
0.00549032
0.00227967
0.0016898
0.00469667
0.0046166
0.0021266
0.00335768
0.00281009
0.0019545
0.00213504
0.00358538
0.00606369
0.00592363
0.0053492
0.000784768
0.00367391
0.000996074
0.0027011
0.00380523
0.00510884
0.00333467
0.00701926
0.00247055
0.00747138
0.00209477
0.00237194
0.00359009
0.00436016
0.00239536
0.00343402
0.00267337
0.00409241
0.00290646