/*--------------------------------*- C++ -*----------------------------------*\
| =========                 |                                                 |
| \\      /  F ield         | OpenFOAM: The Open Source CFD Toolbox           |
|  \\    /   O peration     | Version:  2506                                  |
|   \\  /    A nd           | Website:  www.openfoam.com                      |
|    \\/     M anipulation  |                                                 |
\*---------------------------------------------------------------------------*/
FoamFile
{
    version     2.0;
    format      ascii;
    arch        "LSB;label=32;scalar=64";
    class       volScalarField;
    location    "0.0533022";
    object      omega;
}
// * * * * * * * * * * * * * * * * * * * * * * * * * * * * * * * * * * * * * //

dimensions      [0 0 -1 0 0 0 0];

internalField   nonuniform List<scalar> 
47425
(
58.2686
67.5188
72.3032
163.116
140.045
72.0563
94.3069
102.721
49.3941
606.316
138.984
45.0119
71.1126
80.0376
96.2172
89.5924
69.1778
48.3368
1279.63
186.541
85.6856
45.972
106.275
63.9246
47.0166
44.7029
78.6518
687.239
70.8702
55.9855
44.5954
45.9633
47.7463
67.7423
54.8459
67.6459
45.317
67.5589
65.5321
75.0928
72.5493
96.645
169.325
144.995
1600.39
105.882
96.7687
77.6032
79.0501
47.9965
579.682
230.446
50.2248
768.726
114.094
123.857
44.7656
58.1263
82.4314
61.8382
1049.31
1152.45
898.874
45.0758
49.3524
45.6924
61.5811
85.7239
747.626
45.1619
78.5858
51.995
48.7383
91.2935
680.895
49.4037
885.634
81.8561
1358.52
262.995
701.393
65.2032
43.922
46.9548
47.2445
82.8462
53.8496
51.0573
117.32
411.197
45.2424
77.3172
44.1371
114.888
147.713
195.527
48.9591
52.6227
88.3408
79.197
60.401
91.8985
52.5713
97.5751
49.9645
53.6136
47.9694
93.8015
52.7206
46.5143
370.205
62.8093
70.5613
155.749
46.4242
904.244
45.7904
229.705
79.1994
62.2754
79.6311
48.5452
58.267
62.8642
97.6975
58.0239
85.6325
49.1901
106.019
43.685
45.5498
97.1161
128.01
121.345
88.0895
67.9586
48.2606
60.8265
69.3364
98.1549
70.9668
133.713
71.7217
86.8832
52.7119
49.3288
110.607
62.8035
152.008
72.376
86.1968
496.925
48.7567
701.818
46.9358
85.1143
59.4072
907.165
93.2979
73.0284
46.1239
44.3144
50.2919
47.1469
405.45
833.522
45.7175
689.541
106.747
718.033
702.901
86.6055
73.8635
45.965
72.8798
66.267
722.925
70.7618
52.8239
44.8603
1008.09
47.5505
60.5684
46.5545
47.2832
48.6209
56.8181
77.9103
149.784
55.332
47.9258
71.9893
82.2562
77.0219
47.4387
43.956
61.8697
73.314
45.0251
82.9531
66.2006
123.06
49.9433
44.6835
49.8899
159.208
53.7075
44.2069
87.2472
48.4413
63.4501
66.5
47.235
94.3349
63.2997
63.6944
75.2808
248.31
47.5984
93.4713
284.491
119.848
117.112
96.7897
167.401
239.163
47.3676
131.01
49.9425
59.9958
71.7559
73.1154
104.866
49.3226
165.844
93.8405
322.791
114.08
267.482
181.787
83.9543
59.4199
43.5277
103.521
44.8765
49.4559
68.803
60.6145
43.9551
78.0294
43.4568
217.755
67.4214
49.2833
91.8571
43.7394
47.176
120.873
95.4995
48.35
125.499
47.2455
78.6643
135.682
70.8133
90.4967
45.026
71.0137
62.8773
82.5375
80.0847
234.377
312.964
48.4344
219.934
179.981
220.642
113.747
297.162
182.239
1104.75
57.0139
1040.15
124.445
80.2791
86.531
105.295
91.6317
91.1703
47.5859
621.625
45.3215
50.3438
57.1465
67.9887
99.4487
112.53
46.7037
66.2396
56.6601
88.9002
44.4269
87.1514
60.5891
809.403
1044.68
677.008
43.6467
48.7608
44.1448
102.129
692.738
87.1919
117.665
247.594
74.6635
104.954
122.671
93.4444
415.391
218.303
45.9202
61.2261
47.259
82.5853
44.4309
78.9441
62.2409
52.3136
72.3212
83.5834
668.068
54.9925
75.5818
129.131
43.8812
685.444
51.5266
46.0613
52.7639
46.5608
46.8716
44.8083
53.2551
50.0417
51.1905
59.6848
47.7816
83.481
84.8306
47.858
45.7134
63.2468
48.5513
49.1222
48.0403
81.2166
43.6177
49.8693
93.411
55.6867
60.2912
79.3233
94.8231
48.1142
49.2916
131.995
48.2179
67.7895
45.1011
131.127
982.233
78.2479
44.7482
200.233
44.6698
91.0938
93.9449
72.5504
45.6343
63.5049
45.2215
43.7134
73.7764
86.9443
82.8555
84.4516
52.8473
48.7592
83.6949
48.7328
47.2631
81.413
56.7806
66.0077
48.842
62.5134
89.9906
65.3161
48.8829
489.211
46.1188
407.053
71.0348
106.279
103.917
47.6957
146.717
46.9296
95.1315
46.9887
565.459
362.242
43.5581
50.2729
80.9681
86.6426
82.3095
75.3017
81.4928
89.8155
67.874
45.1123
102.409
71.3034
49.2209
84.8777
78.612
53.0797
144.067
1382.03
47.5609
282.092
1144.61
90.2005
1176.75
839.901
48.344
80.9083
76.3612
79.4641
731.564
88.5834
49.8381
49.9574
75.3738
75.9137
81.3459
80.7868
472.859
803.646
151.377
65.5432
72.1145
132.566
57.4836
44.5689
67.6649
44.0552
83.9827
75.81
132.705
69.326
49.3502
79.9278
59.8756
78.8631
44.4561
65.0449
67.7381
66.6559
63.5376
109.259
122.052
62.3848
84.5139
44.1855
511.871
130.382
74.3155
46.3856
137.135
248.233
48.0955
43.8321
48.2339
47.3332
67.6168
49.9416
107.237
84.369
48.5876
54.3658
144.62
99.1528
46.9916
51.3841
57.7713
55.0168
48.3164
51.8983
44.6882
69.6884
58.6177
112.419
61.8877
47.4018
43.982
44.4547
74.9653
128.584
45.5222
43.5584
56.0844
56.4244
57.0879
59.9188
70.3731
72.7311
51.9961
76.9235
100.902
432.184
61.8782
69.3768
53.6544
49.3451
128.818
128.007
77.268
49.5369
81.136
102.265
47.7487
137.975
48.4585
262.343
48.9206
51.6363
58.5269
123.119
43.3193
72.9104
73.8173
49.1571
44.1694
51.5564
1145.28
63.204
148.66
46.4172
97.6998
46.6676
58.9946
82.8533
72.3254
70.7278
46.0392
399.034
54.7375
59.2319
55.3024
49.0949
44.5433
58.4142
115.578
48.5145
54.5777
67.9382
44.7744
250.019
45.142
61.7239
508.317
72.3576
43.9737
356.523
567.107
46.0048
670.127
696.705
71.411
46.6348
52.373
44.7705
85.319
89.8233
634.229
45.2117
128.429
49.9367
110.309
57.196
85.3288
67.4178
529.794
332.064
52.1561
94.9711
98.105
85.3322
122.787
126.239
48.7978
98.3304
132.907
96.124
67.5088
133
51.7356
48.1437
133.569
93.8528
78.5789
121.898
101.816
68.2159
73.4126
58.9199
53.9564
67.769
47.9914
47.0256
1331.05
62.2171
75.6649
1018.86
994.072
44.0814
77.2164
1655.73
170.963
92.128
292.368
119.462
771.758
59.4177
48.8164
60.0527
167.279
113.731
112.841
46.5278
118.951
67.4006
83.9398
48.7563
80.9772
57.8172
441.065
696.439
123.182
49.6202
86.7655
43.9909
109.768
47.4303
58.22
63.5011
65.1521
45.4808
179.932
75.5413
47.7262
68.3544
188.568
808.797
221.32
88.0498
43.8442
74.8449
44.4268
782.286
71.0135
621.441
84.6187
107.135
66.3174
69.7719
59.482
87.3588
54.3105
88.5518
56.7652
208.012
90.0047
49.2337
71.1459
89.8422
734.351
66.2457
203.412
68.475
48.6643
44.3511
143.762
80.059
71.0485
46.0062
64.1584
66.9968
73.5447
81.0551
80.2764
64.8306
125.847
194.811
71.155
97.8102
67.9608
114.381
92.4495
48.4763
139.516
61.8192
76.9008
79.2847
45.0043
296.858
409.899
96.2697
66.1119
47.3366
91.7926
54.9807
137.68
45.3703
250.1
82.1635
45.4396
78.0273
47.5832
59.6549
70.416
49.7871
90.0386
43.5201
45.8471
48.3693
165.498
42.9668
354.353
243.34
256.614
355.814
80.4847
235.667
58.5219
47.1888
146.633
331.861
384.478
104.159
61.32
123.262
116.864
162.686
130.094
95.0931
53.6897
70.9778
99.988
113.88
56.83
82.6425
360.59
58.3142
62.6975
153.542
121.035
116.578
164.495
752.965
480.281
227.984
251.842
80.6837
119.82
44.7652
47.3091
72.3431
422.944
179.33
72.1546
73.3515
44.4873
364.113
388.925
43.8752
170.594
90.8914
43.8679
167.086
43.8448
44.4601
73.0153
72.7755
84.9898
48.8374
44.0006
61.3096
69.3978
68.0725
138.586
106.096
44.2242
247.482
48.2376
46.664
47.1161
197.463
79.5815
259.014
120.567
54.8995
43.9806
68.6169
1319.26
73.0284
84.215
72.0543
65.5633
61.1544
116.288
121.799
127.943
279.135
93.9491
789.52
49.4171
66.7198
55.8602
62.1578
45.4399
168.039
127.4
44.8094
301.03
96.2869
71.4778
251.898
77.3192
54.2853
71.9999
67.1164
69.7704
112.641
334.145
66.896
73.5237
208.785
222.362
665.089
216.96
89.8585
175.98
45.3239
48.2813
104.463
170.983
86.9117
83.5426
94.153
103.76
47.984
68.5037
105.615
99.8488
90.5139
338.53
517.603
94.8089
122.484
153.149
704.995
409.8
207.295
93.0812
67.1526
96.5898
93.8266
205.366
46.1013
48.5271
96.4921
428.931
121.826
73.2582
98.1877
54.558
109.734
127.592
78.6057
490.814
54.0057
64.8334
131.331
97.2583
65.4194
66.1305
104.734
101.624
91.9199
58.829
127.219
45.9342
45.4101
46.5726
81.0023
58.0589
152.075
53.6926
219.932
291.248
269.866
99.3912
83.7004
46.3556
70.3027
114.761
491.207
238.398
905.28
45.6326
58.7899
54.7054
324.219
88.8765
320.654
238.566
232.716
135.736
224.22
90.9378
86.7786
73.5559
46.8009
124.225
67.926
74.192
239.436
75.4085
67.6804
51.0602
264.148
403.788
150.93
197.206
662.514
192.742
92.4737
69.3738
89.8188
107.459
185.845
189.496
585.418
46.8227
58.2958
72.9201
47.8325
63.6441
101.442
97.31
54.0664
117.079
53.0733
77.4885
51.9991
47.3004
125.663
66.289
119.06
45.5521
45.6858
164.02
47.7783
99.7256
105.824
45.5279
63.263
111.664
79.6649
67.8955
80.2954
563.485
185.365
125.148
108.316
1876.99
1017.58
651.647
444.791
103.482
49.8573
1112.15
418.951
54.5537
64.0386
107.429
86.3356
394.999
139.542
46.4183
114.274
58.2244
49.3076
205.795
950.662
140.198
1189.96
153.456
248.172
702.358
56.8786
77.8487
134.565
308.733
93.3569
47.5575
47.1969
830.673
99.3025
358.917
73.8739
163.117
49.1151
53.7945
554.815
571.403
83.4374
54.4052
74.8695
498.577
44.7689
51.037
439.061
571.866
72.674
45.121
1053.48
800.698
567.475
100.243
255.041
510.393
539.53
80.2273
89.9994
106.539
64.5801
108.923
546.642
1385.58
64.083
60.1264
58.8764
52.4032
48.7041
82.102
136.455
66.3026
49.5561
48.4564
86.9302
357.77
1150.55
51.7666
230.375
100.941
73.587
182.751
57.3058
90.8129
76.5737
47.2435
200.208
53.49
509.717
45.0749
792.619
510.069
559.836
204.27
98.8256
63.6091
103.75
56.0182
214.883
1451.72
104.713
390.144
185.117
464.188
158.387
782.207
622.213
92.6708
55.4749
1584.15
87.026
49.2201
74.2311
579.921
1072.2
80.6152
52.505
473.961
78.3455
850.094
766.578
108.506
116.614
857.775
103.609
45.7014
574.503
52.4551
570.143
1010.57
44.3463
69.7831
85.0213
56.676
123.797
102.71
43.6267
122.308
90.0802
117.25
57.771
44.0349
188.663
192.756
606.925
52.3425
96.6006
225.892
45.7585
835.195
86.2709
114.098
151.831
527.534
87.0835
426.781
182.334
145.181
57.0256
587.625
223.243
293.944
84.979
161.963
62.3302
76.0317
70.3732
339.061
253.376
108.386
727.211
150.101
108.149
288.268
126.62
144.932
766.19
350.673
52.8373
158.118
83.8645
148.415
304.097
955.552
58.3832
46.2287
62.3943
500.937
63.508
307.847
59.5494
62.3069
47.679
148.355
55.8449
208.49
312.131
54.1058
61.4438
92.6485
81.2353
990.301
392.69
117.14
746.185
356.606
121.981
239.122
64.2433
57.5833
1075.84
57.3085
386.544
333.196
46.8725
59.3912
90.1581
96.2691
56.2695
71.2493
138.614
76.704
78.816
67.0607
82.1281
249.79
67.214
194.7
156.463
201.64
56.4062
735.823
431.291
55.5961
557.478
238.329
57.4601
109.262
654.793
219.326
47.6915
182.635
418.045
193.685
470.879
57.9814
572.675
111.473
55.0799
68.7581
109.485
181.968
124.506
66.0484
253.185
50.3433
235.887
108.019
1261.14
145.057
80.8064
121.051
259.549
55.4256
263.94
108.81
110.374
641.899
79.5462
78.7585
1050.75
44.1325
104.137
375.722
62.2469
270.399
722.003
152.682
73.356
83.6677
960.734
299.365
393.721
313.783
77.9634
69.9181
101.619
676.066
757.686
294.751
88.895
48.2535
87.2125
88.1309
130.585
336.322
93.0261
55.887
62.4916
61.4371
45.7483
85.5319
44.9427
46.8802
121.054
84.6467
46.1609
129.783
235.611
62.3047
47.8414
131.857
64.0195
48.1144
55.5975
101.848
95.6606
50.5048
96.916
584.475
88.3112
48.807
55.1006
44.6997
242.43
68.0986
54.5507
696.542
782.528
286.244
48.6643
678.378
150.589
50.4142
1033.51
94.8438
1017.31
91.339
66.7518
82.1305
66.8777
46.3405
82.8583
84.352
93.1992
115.722
90.0242
104.79
159.282
81.2133
79.8396
429.83
86.5743
1330.32
70.8052
687.1
46.6003
119.633
181.554
52.7656
68.8867
190.021
43.8203
541.783
330.01
1251.01
52.0271
639.679
58.8012
111.241
168.667
57.7431
575.93
87.8348
285.005
66.6871
735.074
700.267
80.0918
44.434
439.394
70.1379
384.099
85.6336
96.3646
70.9009
73.1104
57.7796
46.5883
88.0085
271.144
73.4704
177.27
84.9856
87.3089
43.9745
155.526
619.8
90.4975
384.283
108.959
67.7978
120.998
80.1882
74.4492
56.5277
152.972
131.881
48.5685
85.9645
82.8526
68.8495
94.1745
407.521
428.103
82.3982
91.3016
310.337
88.0827
53.2638
65.1408
49.2044
169.247
167.192
203.935
104.525
70.2855
74.9561
66.259
56.1467
57.5948
59.8152
473.963
130.478
664.834
508.871
627.002
58.2178
69.2079
71.2485
72.6118
48.7637
319.433
82.0152
47.465
79.9012
111.415
75.8075
345.81
74.012
157.71
110.223
99.3671
51.0026
71.3793
90.2469
89.4058
68.6632
114.386
98.6144
177.515
87.3138
68.9206
79.1832
151.86
171.638
65.7194
81.4219
135.587
97.9138
170.631
45.8113
56.3598
137.109
69.2415
54.4221
76.7835
45.4907
46.7908
88.051
75.7773
411.617
72.7249
89.1327
49.8846
70.838
655.003
80.7287
85.597
60.2645
62.1874
88.4757
86.4721
948.68
107.457
473.449
51.4437
60.6307
71.9086
43.8241
49.3331
108.577
82.4089
48.5626
46.0196
317.258
107.488
506.944
121.317
255.455
104.901
78.8049
109.62
573.178
183.052
94.7895
79.7302
941.265
65.1475
81.1583
87.998
83.8348
47.9387
957.295
67.9119
92.2816
46.8078
125.494
56.1243
922.912
1022
68.1369
53.6856
44.8427
92.2457
94.6875
60.1018
1188.22
811.888
65.3119
139.169
447.154
64.8233
136.877
120.279
44.5976
62.7816
47.102
74.96
220.218
86.8515
78.9967
45.8413
56.8763
75.9193
48.6133
308.152
63.456
138.749
160.976
431.28
315.877
103.189
134.643
74.5587
133.155
120.01
45.0893
601.305
324.968
131.228
93.4201
106.046
91.666
89.1476
305.782
43.8494
46.0892
62.1893
65.0093
134.236
76.5776
365.718
394.008
46.5347
131.228
44.9516
44.1319
80.262
62.1809
64.7776
55.267
43.7117
307.789
377.082
44.2614
47.995
209.44
538.814
49.4984
43.5664
88.0371
173.667
927.359
94.7523
389.222
386.098
466.724
389.441
71.9571
49.6193
43.7656
58.4321
960.144
56.4538
85.6806
80.5031
43.6773
739.422
1244.38
1221.51
200.79
438.757
50.1759
45.7676
53.7039
84.7338
798.967
657.089
385.797
545.788
376.543
56.1411
49.3895
853.026
47.8131
918.384
95.2492
914.224
79.6379
144.025
77.9524
185.128
169.166
169.725
116.158
63.0095
88.7905
73.7594
65.6626
72.0913
66.2195
1241.05
841.559
90.8864
344.178
739.045
325.802
68.8313
46.5276
669.214
521.581
501.198
45.3083
809.875
50.3272
973.387
647.148
741.232
283.573
54.1722
61.346
47.178
71.8454
85.7865
164.49
67.4715
85.0133
62.9512
95.1948
79.1226
45.2713
48.8165
118.276
46.7516
52.0258
79.1684
86.4534
93.109
88.488
155.059
91.3936
53.8647
110.926
100.68
91.0851
94.8041
138.338
1096.63
59.231
337.997
69.1933
91.7807
445.93
67.5571
56.002
46.975
105.253
96.7241
54.9446
108.578
102.767
84.8185
47.1853
68.0682
58.4993
71.4608
106.756
73.5091
99.6605
285.853
91.5499
81.7651
76.9961
113.582
80.5236
345.207
45.4224
69.1518
107.717
306.288
293.942
88.0561
103.813
943.656
234.896
187.57
91.0638
72.9092
110.587
88.7308
53.4642
133.431
79.0336
88.3744
411.303
51.6259
166.638
129.088
112.207
106.251
201.133
79.0917
57.6658
44.6607
53.7905
100.398
81.3723
489.475
63.2591
91.6095
127.933
103.64
902.09
56.9954
80.3737
105.388
277.467
386.366
148.485
45.2175
135.957
66.4637
46.9557
43.7385
557.79
100.957
59.2023
422.05
105.263
69.423
154.672
804.445
1093.71
164.722
70.3749
903.007
64.2675
198.365
131.875
573.826
309.997
92.7936
95.7378
533.783
92.3373
62.4037
77.5758
100.664
54.3998
63.9753
354.263
45.6692
102.208
564.965
151.718
568.026
85.966
435.204
50.6351
1142.86
105.897
106.079
609.52
232.662
294.131
559.239
428.373
274.821
51.3955
54.4422
430.196
56.1366
86.1858
322.428
67.1838
59.5779
78.81
152.183
71.3737
50.5085
739.09
457.008
171.635
335.427
169.044
92.7836
82.5164
80.2083
116.783
67.3522
57.1387
85.6026
62.2432
313.49
324.639
128.962
54.7904
91.9584
78.7003
120.412
106.523
98.6676
78.3706
326.396
59.2237
65.069
349.663
132.449
577.387
207.949
99.2932
743.992
138.59
112.883
398.037
134.853
128.907
50.5174
572.934
44.5378
57.1147
52.2511
86.7041
68.0667
102.388
209.789
105.407
125.641
82.3207
110.946
100.247
43.9872
366.207
151.529
592.64
1130.19
108.283
396.662
124.338
70.8076
583.189
69.6009
61.3353
96.4408
112.753
686.357
413.708
54.0629
312.999
370.015
81.9973
1910.84
407.508
121.193
374.528
62.399
88.724
241.188
343.957
145.968
748.443
54.8105
52.4048
155.033
52.3634
48.2369
106.179
319.856
582.013
46.8037
140.57
44.508
144.516
64.0799
143.991
313.425
91.3116
286.155
59.6527
63.3967
792.952
45.0948
54.1373
110.216
53.4662
126.039
277.496
47.0374
953.023
548.645
891.456
462.927
119.396
67.8034
53.6664
62.1527
84.5937
47.6664
87.2351
149.941
63.5535
72.4967
661.508
46.2005
162.024
45.6844
133.848
71.151
730.823
129.012
102.794
45.8372
132.587
152.058
48.8469
61.2765
100.449
43.6046
204.252
97.7194
106.031
54.9066
45.9777
103.196
47.7482
128.823
377.818
45.8955
76.0894
49.4147
64.4669
384.661
223.09
127.052
441.857
837.34
380.591
80.9865
532.735
413.347
706.751
72.6812
201.208
365.703
330.561
299.416
924.08
55.633
45.9925
198.224
819.561
53.8479
417.117
113.189
439.025
79.2882
68.4727
608.308
579.542
350.864
57.9127
297.816
131.596
429.857
45.6687
206.113
64.9503
56.6409
95.8757
97.1643
298.246
111.876
64.2023
162.258
80.3967
260.809
369.873
45.105
70.8367
55.3017
925.309
87.4897
131.944
188.954
139.434
71.6
45.0021
92.0391
76.9801
447.935
44.0931
104.996
321.06
65.6732
50.6137
78.3103
74.6734
690.913
139.342
211.307
97.0985
73.8366
1049.03
766.336
60.5115
145.626
60.6653
48.8179
410.788
83.0496
528.796
56.6601
51.3359
98.0883
56.5661
47.9863
61.5724
70.5722
137.272
233.258
316.421
388.616
70.6608
75.3137
47.3433
171.934
591.948
932.477
69.5593
502.73
182.281
661.667
78.4352
370.211
111.033
164.493
130.263
83.6932
263.587
74.6065
185.869
113.183
59.8786
1037.62
107.58
518.409
107.399
75.6382
109.934
138.545
68.3008
68.8719
324.4
107.251
123.392
57.5472
123.732
565.534
128.425
79.8042
161.04
46.5803
63.1797
46.8148
75.5887
78.7919
149.018
71.5444
95.9993
94.5403
73.752
77.9965
64.8339
75.3241
60.089
335.416
50.4597
107.052
50.0334
68.7286
125.796
77.6946
54.3454
79.7008
100.563
88.888
128.214
355.077
48.4767
163.391
450.046
158.59
156.246
52.09
156.804
90.1147
298.18
65.4528
46.3875
53.764
162.932
57.4989
67.1156
871.908
200.959
363.056
45.6422
51.3773
183.743
81.1484
55.6491
133.741
49.1074
81.5015
55.0058
393.646
46.0026
156.282
47.1702
46.76
77.231
67.5061
133.093
106.071
43.8168
294.984
66.0241
68.4612
90.1379
804.259
66.0706
61.7995
128.409
61.4313
57.3261
124.788
59.3941
51.9317
107.571
206.77
126.057
84.6068
409.792
109.581
248.876
48.5071
182.401
64.9836
95.2707
218.782
50.2553
104.615
65.4873
82.1096
157.847
69.8069
585.541
108.881
47.2287
518.917
131.393
1103.5
301.943
183.17
87.639
94.5536
122.131
368.578
61.8953
444.506
91.7422
362.169
66.0866
384.129
65.1934
250.466
219.907
125.264
361.054
541.552
409.506
1152.15
545.22
518.852
451.736
468.144
330.739
44.3808
96.4599
320.595
69.6914
631.954
58.8037
488.122
624.264
120.949
100.971
77.0108
44.93
115.023
48.3972
249.876
132.2
84.3213
185.717
85.6668
155.617
72.651
54.3515
112.763
50.0738
221.187
47.5714
69.3346
706.093
65.8543
44.1895
105.968
63.7319
720.904
286.845
71.8838
66.3998
174.344
50.3607
84.8134
50.1104
52.5436
106.305
77.6864
56.8467
63.2698
301.652
89.4074
56.2128
44.9993
44.579
46.6211
193.336
73.1111
97.4799
54.8583
79.0875
98.9643
55.6556
242.7
72.4131
48.4312
60.2113
83.4792
140.056
111.817
99.4734
51.3066
119.933
85.2754
53.1153
52.6146
77.6531
82.7861
101.308
69.6996
125.106
66.4588
88.2674
116.102
296.993
754.217
1120.93
124.294
61.3527
477.662
170.291
161.375
46.2748
51.2597
45.1625
91.1787
74.5613
44.5314
46.0827
47.0816
113.243
43.7484
49.3669
44.5441
60.5349
179.105
54.4625
115.961
52.9362
97.5156
245.838
60.5416
54.5782
61.7208
1071.86
898.887
99.8175
67.1233
68.5651
59.3813
91.4285
498.191
65.2987
68.4561
91.1229
44.3664
95.8278
52.4334
86.1705
113.065
92.2241
63.4478
205.769
262.745
65.1161
2081.34
238.015
201.658
61.419
86.3098
101.45
115.7
54.2411
76.2392
305.062
46.3958
194.708
609.145
106.488
124.843
661.834
65.4748
81.0062
92.7307
44.0559
119.845
409.983
92.5883
90.3777
453.532
214.458
1130.86
619.993
100.129
49.5092
142.137
69.0729
185.016
148.29
565.283
49.8488
45.9572
645.906
52.7549
195.337
77.4184
104.498
655.971
850.829
51.128
44.4208
936.515
50.4707
54.5287
65.9331
48.0738
81.926
150.973
262.326
61.8775
574.897
106.27
52.0857
86.5767
712.027
81.2356
607.977
66.2463
61.4633
87.3035
85.0908
59.9806
111.123
65.3839
573.967
112.883
115.644
521.483
124.474
54.3712
634.131
110.48
107.626
82.1492
153.876
109.625
78.4237
46.0352
261.804
73.2529
73.5001
65.1342
120.354
82.3212
59.0808
47.7461
66.4393
149.675
71.4352
67.1025
81.5262
444.44
73.8181
70.6682
68.1985
95.139
47.9601
63.9915
63.5168
132.951
104.457
142.105
149.534
90.6173
439.288
63.0812
57.3102
455.314
395.926
504.723
90.534
330.877
53.6878
578.303
95.4693
342.467
96.2933
45.1681
116.311
201.928
93.841
69.6202
44.7375
63.8957
428.867
64.1687
51.0697
54.505
1570.19
348.811
46.1325
1506.17
582.685
334.685
214.215
1024.61
298.677
75.739
339.262
89.8472
83.5117
406.402
1036.04
63.3832
46.1451
55.5376
498.947
46.8664
1036.87
112.99
130.004
126.14
126.481
338.54
43.8964
115.99
123.549
55.8458
105.823
53.4782
122.842
1991.08
1936.05
819.851
97.3854
636.014
45.1787
49.5338
63.0998
101.514
44.9109
56.0215
44.579
73.647
90.6516
47.1498
54.6171
77.136
46.6492
101.383
122.02
45.2722
116.124
123.906
45.4805
55.1736
888.091
56.7028
835.471
606.778
127.882
133.831
84.3221
122.971
68.7218
54.0742
517.904
58.5954
59.3354
48.4359
52.5065
79.0709
142.446
120.873
177.995
112.831
48.7111
548.961
61.9137
313.058
339.164
63.6806
634.507
78.2183
55.7967
60.7635
57.4215
64.7964
48.8337
130.745
51.1803
372.872
217.425
380.152
57.1775
57.0164
83.2969
336.827
453.467
90.417
147.352
64.7911
330.423
64.3953
154.369
478.503
85.6559
56.532
91.6979
1019.37
63.9575
59.1779
120.594
48.5827
137.579
128.464
119.138
85.0039
281.469
170.496
578.991
71.7307
271.003
397.074
334.151
54.1919
176.828
96.7629
103.312
54.0811
63.4254
63.4662
479.159
85.9511
99.9195
229.131
82.9778
63.2344
98.0394
46.7653
144.708
48.2511
63.7637
166.525
103.593
80.0316
168.167
99.4235
90.6341
81.196
127.325
46.0903
319.244
271.244
108.551
103.896
46.0632
341.833
60.5357
46.079
86.0051
48.1121
108.482
89.8397
50.1484
54.8506
99.4447
283.002
239.828
49.6422
816.722
45.4877
97.5229
96.2721
48.1625
779.974
149.391
671.435
49.9914
68.7249
538.253
680.878
89.4269
103.137
187.232
127.984
51.0134
95.7595
63.6165
147.027
82.0024
134.972
49.8453
136.068
101.432
108.249
62.4498
88.8826
44.7028
61.2658
576.416
340.627
108.123
90.3769
102.958
87.0792
86.8653
159.852
44.8284
50.8169
60.05
87.4048
82.1193
66.7707
113.326
53.8271
58.055
52.4416
73.0231
58.1367
69.8491
189.152
82.3966
68.633
1047.99
79.101
65.3712
79.1773
44.9987
83.572
208.744
47.5439
77.3889
81.4059
675.398
64.3788
62.9931
95.026
1501.47
95.6887
156.995
121.872
65.9729
54.8931
76.7666
63.4008
842.15
94.5368
68.3214
64.887
45.5802
278.329
46.9878
465.515
439.992
112.12
74.0634
59.3176
114.582
89.5269
58.3932
436.237
118.856
303.696
44.1186
138.933
625.566
118.732
50.2438
100.9
55.0279
664.718
58.2828
54.1445
90.977
44.3901
61.1863
87.8797
52.5586
338.565
45.1575
372.518
46.6635
74.4949
66.8607
148.448
88.0853
127.882
112.909
552.514
108.145
120.341
75.7059
45.6877
103.479
58.801
53.7522
81.7888
77.3241
63.7063
125.385
47.0313
65.394
47.3497
288.377
87.2308
619.022
540.709
323.452
159.499
67.47
69.9777
61.4384
196.027
91.4985
45.777
43.8727
112.287
145.412
47.2882
72.7561
1062.58
118.498
67.3824
75.6421
629.978
849.645
59.6649
545.888
552.842
200.328
354.74
165.928
531.366
71.9816
225.388
739.562
75.5456
43.6859
61.9749
106.279
314.21
44.6462
44.9525
70.1884
146.176
154.17
1030.74
109.248
1027.63
119.782
70.5252
85.7404
77.7764
74.9
571.844
188.632
314.473
459.413
67.3708
440.138
1386.13
66.7115
153.393
113.162
413.571
151.566
126.445
708.348
1061.4
105.542
618.285
125.593
410.045
82.1096
45.5149
153.695
769.688
674.196
62.9936
104.126
150.486
98.2009
249.265
49.6783
71.2891
951.487
390.72
388.548
51.541
385.694
67.2142
385.162
57.3649
112.404
192.625
322.821
87.2724
118.743
297.342
103.337
940.451
72.7092
60.0352
376.581
47.2233
147.336
45.8217
55.1687
44.7943
82.4299
439.028
450.76
328.488
59.8473
63.0878
296.08
57.2929
553.301
71.7298
53.8446
81.8
218.231
153.844
632.716
51.4948
73.4119
64.7756
279.737
101.105
574.1
907.164
433.692
104.581
62.366
416.903
369.697
153.127
48.3522
62.3674
43.5253
708.603
264.79
466.031
1437.75
238.72
96.2917
80.6124
780.467
402.449
63.4664
87.7887
102.694
322.559
60.6806
47.941
88.3872
81.4424
769.292
304.777
226.479
262.583
315.31
337.484
162.523
92.6155
847.616
491.877
715.193
203.05
327.796
641.555
152.013
58.4336
107.308
58.1509
58.8734
77.3398
76.2939
138.831
287.929
85.4949
178.984
182.15
147.067
111.094
190.397
110.34
101.865
128.828
738.359
1127.79
474.279
68.7686
119.807
82.6797
289.58
559.463
156.315
628.421
80.7385
501.237
419.822
178.131
48.0202
45.0571
70.8046
63.5074
682.999
93.2281
58.5524
508.656
73.3132
844.057
445.286
106.17
450.724
63.1938
46.0999
47.4741
43.8514
98.4045
63.5997
92.4379
131.978
74.1648
46.6011
147.409
703.741
532.457
44.7959
106.462
50.2572
63.067
56.4067
705.43
49.9547
55.041
53.3207
104.479
46.9081
54.4142
98.1386
56.5222
58.5626
54.0703
237.658
44.885
59.0068
129.706
411.166
307.907
63.6211
586.987
747.214
55.033
53.4363
164.589
79.1271
299.076
76.5844
92.3529
82.4502
304.264
68.7072
92.8504
1045.88
468.5
91.4029
631.245
47.0576
46.3648
63.0141
46.2606
47.6653
71.5976
54.6503
80.7245
208.502
88.5459
374.991
236.949
229.236
82.0473
44.1925
603.951
132.096
84.533
558.875
102.872
680.439
64.8732
427.513
45.1957
180.932
87.3335
227.748
47.997
86.2042
78.5779
739.205
49.0447
43.9111
165.176
80.9553
132.77
60.6986
71.7267
91.5381
48.4566
138.401
49.4614
64.2081
148.15
92.3979
266.676
69.1569
46.2174
61.729
45.68
52.8221
275.444
43.8169
93.9321
44.291
224.013
117.133
51.3908
113.44
112.281
57.7257
75.1533
76.0892
130.223
152.146
51.8678
48.3218
90.959
69.2221
301.699
601.005
506.151
61.0899
46.7802
58.2125
65.2719
91.0473
908.582
237.484
63.9675
53.5976
78.1545
47.4127
48.7498
77.5071
151.193
192.648
502.923
378.089
57.3343
76.5853
76.7478
43.9702
232.406
73.0889
112.52
113.938
50.9098
987.453
77.817
58.2937
70.8353
72.0596
160.767
616.165
45.4957
480.979
55.3045
745.851
120.124
523.905
71.0862
45.4114
60.5024
104.679
50.2993
48.5116
126.318
45.2726
44.8867
54.6481
60.9121
231.459
54.8785
760.517
71.9337
60.7538
153.062
171.478
48.3952
434.225
963.865
748.157
550.526
441.551
55.3341
385.326
300.72
75.111
57.531
53.6662
675.018
90.9254
96.3851
48.8737
76.8146
313.453
762.868
159.226
85.8003
45.392
66.1682
246.833
47.1021
56.3645
593.436
451.766
268.579
765.676
75.7695
47.1239
69.2549
82.7
1143.06
50.5078
46.4506
44.1747
280.643
47.1232
51.1266
93.0855
101.073
45.336
114.026
46.882
146.698
86.667
142.371
52.2399
231.828
89.1276
112.579
168.814
111.407
260.222
50.0918
622.817
94.0709
332.143
328.423
399.161
85.5217
123.077
203.377
67.1631
45.3912
50.9395
54.2789
87.1825
570.33
116.907
46.6875
83.415
64.3859
49.1294
120.745
62.3408
135.07
101.078
47.3544
99.6374
49.7107
79.0428
283.243
568.636
71.2445
100.2
80.1453
104.316
528.301
369.344
504.258
857.882
142.547
47.0701
48.7518
44.6356
105.528
839.7
80.1798
780.493
126.006
45.8159
117.693
413.435
46.5633
46.8016
56.0242
75.975
60.1373
323.719
76.7027
92.2278
298.866
50.1911
97.5211
65.56
129.442
143.916
52.0515
673.371
82.4184
112.116
56.2158
125.344
46.4613
127.022
123.23
93.6747
92.804
80.3131
67.4142
69.2195
51.0491
227.976
61.8825
51.0563
116.166
202.954
231.918
142.563
98.6473
113.272
188.553
71.7869
309.34
114.905
136.197
102.414
97.2273
152.682
77.8587
119.767
455.271
100.617
53.908
48.9594
329.354
90.7935
103.175
50.7064
105.156
86.7822
48.3725
94.9537
410.167
94.3067
72.8886
87.3918
666.588
75.2298
91.9461
147.062
59.5869
157.315
48.8313
757.18
84.8233
79.9229
84.1108
55.84
115.452
55.8079
522.36
44.0153
77.7668
653.683
59.5199
111.558
201.46
101.157
49.0692
574.984
59.4134
45.7835
99.5464
132.608
59.985
320.547
45.5003
355.909
99.7144
44.5807
72.2951
117.655
735.508
184.675
71.9952
45.5303
131.957
405.19
302.029
117.333
124.252
999.867
213.079
331.181
128.565
83.3771
103.145
59.795
522.936
1044.87
152.997
165.706
100.199
998.386
467.856
528.083
412.513
181.66
64.3702
51.9447
152.802
73.7492
558.56
317.275
78.9911
834.898
108.077
96.0407
71.8188
50.7833
106.72
88.2577
91.5071
80.007
146.989
184.327
887.283
57.3926
119.107
645.768
618.035
182.268
180.436
63.0237
642.564
47.5521
65.8879
348.878
148.443
45.0186
337.441
439.417
71.9497
124.598
48.5705
95.9014
56.4841
80.9254
175.926
82.7819
618.129
44.375
51.5502
88.4195
481.872
171.319
123.944
165.826
334.3
122.505
78.9029
423.666
109.121
70.4546
246.913
797.204
283.27
59.9315
376.375
160.407
91.8051
65.955
129.004
47.4734
116.59
80.4391
74.916
65.9875
60.0866
87.6698
44.8092
44.049
49.4743
100.242
49.7087
160.569
395.051
738.642
96.9857
84.8505
59.6154
50.2377
103.666
661.329
52.5001
144.122
71.7312
222.534
66.9374
123.746
218.294
415.115
48.0699
57.3783
269.174
53.1297
71.5225
124.038
89.5865
388.731
85.3533
274.187
451.885
236.123
649.4
194.405
382.86
91.9074
148.147
146.646
54.2752
469.546
128.991
86.4991
167.272
95.7547
87.9029
44.4693
53.4365
50.3193
45.3769
87.09
334.16
43.9867
948.16
112.464
339.671
115.031
362.792
1422.19
54.8301
254.639
885.717
136.251
343.63
77.5362
69.864
787.337
1010.69
281.001
168.168
53.453
422.442
103.385
611.324
53.3642
54.9683
238.089
1024.08
60.9673
82.3356
51.6693
232.102
530.381
48.2402
496.56
208.989
540.06
718.103
50.0323
352.26
74.465
716.73
350.18
202.514
390.21
279.092
507.016
358.646
232.537
82.2492
77.358
75.6035
49.7258
54.0576
1369.53
73.1339
107.005
75.7898
82.7786
128.23
1100.51
142.136
254.286
302.027
148.827
304.566
127.639
45.002
78.2566
1005.76
631.14
313.908
193.298
244.208
87.1921
474.814
61.9548
258.045
305.743
58.2762
537.086
98.7336
291.048
327.038
153.537
214.507
219.036
143.466
51.4051
140.952
62.1774
544.438
72.9192
197.706
82.291
259.256
56.9213
67.5567
340.728
122.611
302.63
45.9441
1332.19
46.1945
59.9984
56.7036
55.9824
92.8366
514.499
163.488
90.6593
668.01
75.5547
49.079
58.6614
876.843
68.8021
97.6318
852.134
337.814
909.671
525.198
158.193
207.902
160.273
187.371
743.847
66.0686
441.421
130.624
66.3965
180.931
65.3874
143.858
73.8781
603.435
447.927
555.819
360.767
258.622
329.181
52.6196