/*--------------------------------*- C++ -*----------------------------------*\
| =========                 |                                                 |
| \\      /  F ield         | OpenFOAM: The Open Source CFD Toolbox           |
|  \\    /   O peration     | Version:  2506                                  |
|   \\  /    A nd           | Website:  www.openfoam.com                      |
|    \\/     M anipulation  |                                                 |
\*---------------------------------------------------------------------------*/
FoamFile
{
    version     2.0;
    format      ascii;
    arch        "LSB;label=32;scalar=64";
    class       volScalarField;
    location    "0.0533022";
    object      p;
}
// * * * * * * * * * * * * * * * * * * * * * * * * * * * * * * * * * * * * * //

dimensions      [0 2 -2 0 0 0 0];

internalField   nonuniform List<scalar> 
47425
(
1.26799
1.4215
-0.0207845
-5.58883
-21.4944
0.0866581
-19.3698
0.0356
12.9924
-37.7751
0.00786504
13.4928
-14.9275
-0.0117592
-1.98717
11.9734
0.0287345
24.2077
-112.836
-36.5509
2.87185
15.666
-0.0351494
1.08851
14.4082
1.10585
0.108012
-45.1366
0.00579961
0.235001
15.518
12.3663
13.6501
0.394955
-0.0324899
0.0247719
16.3892
13.4168
6.53442
1.32192
1.54058
0.119397
3.85936
13.3346
-39.9902
1.25409
0.168892
13.2218
1.26345
0.58345
44.7115
0.303802
0.211573
-31.6522
1.08635
8.48951
1.30888
0.0671948
-11.4371
0.0731609
-33.247
-33.5097
-66.6468
20.7018
12.8398
2.85191
13.7329
-1.93832
-47.9652
22.9005
3.32371
0.819056
1.02194
2.68553
-55.2094
12.6713
-66.0717
0.205731
-90.7822
-21.6255
-57.6284
10.1829
20.8394
12.5682
2.03027
1.28332
0.911925
1.55833
-4.41272
-27.34
14.8016
1.98606
0.528157
1.26626
1.29744
1.30986
0.447255
1.32802
1.44822
11.483
12.4082
20.7782
9.22114
45.3374
9.16228
0.905297
1.49781
1.3299
1.912
13.756
-38.3041
13.2832
0.43032
1.28331
-0.744383
34.2427
-0.366634
45.6701
7.85566
-3.15951
1.33614
13.673
13.1755
-9.02584
11.1758
-0.584497
1.29557
12.7333
1.12656
0.586417
21.7431
0.800913
55.064
7.89956
0.859364
-11.5633
2.16987
-0.597033
11.1809
-0.746476
13.7151
-5.81176
5.90186
-0.236506
11.2165
12.7926
-19.7864
12.9778
5.89754
13.6045
0.30163
36.6171
13.028
-9.11165
21.1588
1.22184
0.935139
-125.846
1.22966
0.333241
-2.08639
1.06601
0.749167
10.8576
-52.8784
-92.2217
13.0254
-55.1179
0.830385
-48.3445
-55.9681
0.57461
12.7764
18.3155
1.31914
13.1195
26.8802
0.0630266
0.0403259
0.379599
20.5626
1.34009
0.0727702
0.0764533
0.210537
12.4327
10.249
49.7642
0.40128
1.36341
13.5605
0.487628
-12.28
13.7809
0.403724
-1.69112
13.7628
1.00471
-2.39212
1.37438
0.341714
1.02688
2.00488
-1.298
8.71383
1.85252
0.017985
-0.891545
12.3447
12.6811
1.31682
-1.8379
12.7447
1.07923
1.20631
-2.89571
1.78076
-23.6234
21.2309
13.5669
-23.9353
-3.73811
4.0025
1.56081
2.19312
-21.7417
0.462133
-2.54999
-4.36899
-9.1294
2.21335
0.189169
1.12337
13.4028
0.132044
12.434
-26.6754
0.684168
-24.097
0.114138
0.149617
0.443757
0.579342
-6.85198
7.98593
12.6806
1.31205
12.5757
0.859586
-0.00388223
1.15653
-19.6398
0.050961
13.7413
0.254373
0.222567
14.9457
0.340142
7.26412
12.6119
0.278919
13.2626
9.77206
9.62601
-10.4876
1.27532
0.0765272
-10.4135
0.26315
9.86735
10.3215
-24.1426
-26.6317
10.2499
-21.6897
10.3287
-22.7862
32.585
-24.9679
32.339
-31.4177
1.43395
-36.6701
0.730305
0.715383
-3.26147
0.666254
0.0327088
1.6452
-0.56774
55.2687
19.6665
12.8647
0.0359949
0.10468
11.4342
-5.57901
10.4073
13.0911
-9.50793
1.41096
0.986578
0.243394
0.193921
-54.7464
-68.133
35.3141
0.454555
1.02451
11.2933
10.8597
47.5473
0.000894896
0.0724151
-14.9483
1.34875
0.53975
0.410542
0.150167
-36.2543
-14.6291
11.9779
11.6062
0.0785475
1.12356
0.0977931
11.8815
1.25015
0.729785
0.223914
-5.81071
-61.0104
5.32333
0.112949
13.5994
0.0630877
-60.1456
13.2702
0.785291
0.853468
11.9439
11.6785
1.34832
13.5576
0.651829
0.0202144
0.14425
16.0419
-0.0702726
0.162448
12.1867
7.44345
12.3837
13.1821
12.6718
-2.75069
0.436999
20.3562
13.0045
12.9546
19.3555
-3.98359
1.10064
0.155582
8.47996
0.95771
0.162863
13.0255
13.2839
9.8247
0.212932
-40.2457
0.941587
10.9032
12.8056
10.7569
-1.50811
12.3314
12.6754
16.0003
12.5964
10.7007
0.991893
13.1556
1.16646
13.1874
0.0650117
10.1601
13.6549
0.0978899
6.23106
7.54553
-0.0300973
6.93057
0.558161
6.81808
13.5768
0.0178494
-13.3505
0.350545
-28.8208
0.514819
-35.8663
0.204731
2.67646
0.278998
0.270203
0.0326078
0.155237
0.229137
7.61495
-64.9557
57.6583
1.03142
7.05146
4.67241
3.17009
0.983689
0.0479123
0.566497
0.168463
0.742793
1.52323
3.07846
0.0376084
0.101582
-6.08855
-4.56154
-1.44266
17.0292
-61.9071
0.933712
27.052
-60.968
1.70412
-64.2725
-32.1244
0.836234
0.253854
1.22555
-2.65915
-67.1247
1.22019
0.910705
0.545824
-3.18811
-0.932311
1.12982
1.29486
-23.3962
-64.153
-26.2132
13.4862
19.5328
-1.77528
1.09205
0.920581
-11.9807
1.17601
13.4576
13.7217
13.7402
7.10777
13.6569
0.880347
10.8133
0.193576
-0.771201
0.60362
0.529058
13.5206
13.644
12.553
8.33823
11.5817
1.1
0.120833
-23.2784
12.5975
-12.7994
13.6819
-0.964747
-2.23462
13.123
0.944244
11.5207
13.0081
12.6102
9.55642
0.597856
0.252858
11.7451
1.44438
7.63637
21.5392
0.933424
13.949
12.5238
15.5437
1.3382
0.381636
0.998036
0.164602
3.19617
0.0487347
0.149918
1.0334
1.30551
-0.26557
0.130729
0.0365125
24.1128
0.0269978
1.63882
1.44288
1.08571
0.000727306
0.169774
11.6845
7.95612
12.7644
12.7654
45.0575
0.0598693
0.0236894
13.0156
13.2225
-20.5223
-24.2924
0.343791
1.42215
1.34486
-8.89226
12.3694
-26.8097
13.6476
-31.5767
27.3922
20.1474
0.14126
-20.9457
0.239339
1.29292
0.40489
1.97836
0.165584
0.855843
-62.8882
0.288345
-0.0272236
0.344892
-19.2318
0.936586
0.112924
-19.3773
-15.3966
0.157297
0.237763
-28.5475
0.402367
0.112448
0.141553
0.432664
0.295755
-10.9474
-10.3088
19.8707
1.68609
1.33871
0.0710732
-27.7983
18.9424
1.61195
-28.3489
0.0729912
0.24827
-29.0965
-39.2602
14.3481
-28.2213
-28.1513
0.259344
13.5855
0.114351
17.4167
12.5939
0.119621
-45.9501
12.0409
0.0639135
0.768641
-17.0122
-10.2792
13.6415
6.98756
-55.4322
-27.8785
2.44609
0.662867
1.03592
3.16007
0.640042
0.560028
12.612
8.58507
13.6404
-1.00715
12.7777
-26.6857
6.16776
4.49807
-28.4435
11.2743
0.623266
7.62759
10.6926
0.661088
13.0381
-1.38628
30.072
12.7949
-0.243542
1.51235
-86.9977
9.29679
-10.1813
-40.7175
-42.1211
0.253451
1.55627
-43.5386
0.0360383
4.98586
-20.7267
13.0953
-38.3074
0.236111
0.206504
12.8918
-35.0624
13.7411
13.8131
0.382916
0.157827
0.988933
0.000558033
0.846825
1.07532
0.710225
-31.8401
-32.4139
2.47513
13.9487
0.270054
18.4704
12.0706
13.7207
13.7235
13.7814
13.7105
20.118
2.96547
13.6522
10.0593
-6.81468
0.111263
-68.0082
-27.5864
-0.0307418
19.0813
5.25547
0.19631
-70.3903
-0.00729519
-56.2091
0.288496
-11.8683
-13.0499
0.760698
14.0627
9.99158
26.8264
0.407147
0.676628
1.09097
-14.9386
13.5775
-15.8018
1.2109
-69.7187
-11.3823
1.08629
-13.8203
13.6742
1.0766
6.35266
1.16913
-15.1241
13.5439
12.3334
-14.4865
0.326369
1.1277
0.17585
0.877083
29.272
27.8111
16.6528
16.1631
0.14798
-0.00550745
2.9631
1.23437
0.0833209
0.170465
1.21421
0.106639
1.20698
31.3684
-12.0372
0.0824716
12.4712
1.1214
1.02939
1.377
0.0279403
-2.48391
-22.9328
1.25228
0.211349
0.125782
1.05637
15.661
0.0564738
0.995255
0.828495
0.793257
1.21154
19.0711
36.2647
0.984639
-27.4439
-7.26918
-31.6846
-27.184
1.1025
0.235018
5.78085
0.234597
43.2338
-28.5817
55.4544
-9.08261
1.84605
-16.606
0.441573
57.6789
2.61956
1.12767
1.3081
0.21974
-9.66691
1.62167
1.17787
1.03864
-30.5469
26.2926
12.9609
13.2308
45.5645
41.8226
-15.4933
-53.2956
-21.4591
47.1574
44.0688
13.1163
0.639213
18.6654
0.43343
7.07568
-28.3269
1.84169
6.22974
7.55516
0.283073
-29.4781
-29.6485
0.144595
6.34652
0.724268
0.451141
7.54693
0.314081
16.8227
0.0940648
0.674709
32.7577
0.253486
0.0102233
0.131015
0.486961
0.239636
52.6579
-19.3561
0.044002
5.70615
0.671438
16.512
16.8901
-14.9998
0.505198
-28.8082
-16.1085
6.76863
2.97317
24.6244
-49.842
0.0868131
0.126517
-8.47368
1.24091
13.2713
4.23735
-0.0279003
13.8156
-36.4486
-17.6235
-50.633
13.786
27.1507
0.17767
-10.4203
18.2018
-15.5299
0.0638443
19.7323
-40.4469
-10.4736
-16.9573
-30.2501
-14.9875
1.07282
0.0714822
-12.0599
0.119641
-16.8112
-26.9798
0.036737
-20.1299
1.1368
1.10829
-39.0199
1.18595
1.25072
15.4765
16.4724
12.78
-22.9984
-4.54758
1.1525
-12.3458
48.7081
0.345356
14.9718
1.39596
0.513488
1.18309
1.17151
-30.0258
-66.3173
-10.0907
1.35797
-17.0486
-16.1046
-23.441
4.01128
1.27387
13.3381
13.533
1.34951
-12.7217
17.2684
24.5224
13.3949
-27.6203
-16.3951
2.99106
1.2247
0.48729
1.15159
33.8381
13.1379
-14.6849
0.330227
4.30889
13.2447
13.2281
13.1222
12.9288
13.4525
-21.4969
-4.27904
23.876
26.3359
17.7939
7.75351
-1.39312
36.1625
0.987414
-8.01637
0.674874
-15.3411
-8.39885
-5.65323
0.224287
13.458
15.9503
13.2607
1.254
-41.8785
-29.4692
-43.5649
11.0045
-8.79934
6.59089
-26.7807
1.3705
-41.4556
1.28712
1.25207
-6.39216
10.4473
1.36491
10.575
0.384931
5.0768
-7.89549
0.963806
-1.79401
-26.3008
-7.64709
-0.392187
17.8612
50.6922
-59.3848
40.3863
-25.937
-58.9696
0.259768
1.08119
23.6104
0.537392
52.7779
0.547145
0.378787
-66.2948
15.1942
2.66662
0.303396
13.0338
22.8866
11.5327
0.955134
13.6396
-18.159
10.343
13.951
14.1816
13.6774
0.971079
-13.0527
-7.51442
29.7221
14.7681
1.10106
11.143
0.637857
0.665664
8.31888
-9.84507
-3.71709
-9.71313
-9.88882
11.2433
-41.7371
0.775945
0.688871
0.766628
-59.7322
-59.2734
-20.4905
-27.4388
1.00409
-1.00739
-38.2395
-29.1098
-5.18336
11.0391
0.90135
1.55296
-39.4074
4.61292
-0.924624
0.94865
10.1359
1.50976
32.8547
-111.186
-15.2434
-29.5801
0.994482
55.8251
-63.3061
1.59166
11.5311
3.02782
-34.4872
11.5772
-4.80189
18.0479
-26.0864
2.3526
-27.4025
2.88261
-10.2974
1.29607
7.769
-26.1671
-25.702
10.7225
18.8468
-10.7001
-48.5398
10.0434
1.4619
-27.1005
-37.3811
12.305
9.26731
-58.7645
-61.1137
-41.2658
10.9399
-6.88225
-18.4109
-41.2172
10.4226
26.3357
-21.6609
-8.38256
-6.40018
-23.3892
-39.1344
-5.5629
8.90717
12.8738
13.2576
13.7106
10.7758
-3.89578
13.6084
13.6077
14.4342
1.66692
-35.1096
-35.3793
11.4854
42.0122
-18.7687
11.9377
-18.8675
6.35497
10.8578
-8.74994
-2.88355
11.0192
9.77424
-50.1301
14.0128
-33.7263
-66.3261
-37.8301
10.512
-11.0534
12.5065
1.63956
1.70203
-17.4853
-38.5565
0.927238
-32.0468
-23.3571
61.3135
-21.8398
-53.8881
-27.9076
0.0660297
1.53136
-42.587
0.578205
15.4948
0.119002
-47.436
-39.3995
0.0431188
0.992092
-33.6662
-15.1852
-43.7428
46.3291
0.459337
-7.35309
-56.2304
0.0616783
23.0911
-28.3991
15.5203
-70.0117
-20.5859
11.5329
0.357964
0.471239
1.10008
0.434938
1.6154
0.235817
0.46077
7.95883
35.3917
15.2026
25.5593
-22.798
-12.4343
27.8231
-2.85699
4.24817
-10.6523
13.7472
-71.1241
0.910646
1.14721
0.987926
-37.5314
0.921902
-68.8356
1.0617
7.71193
7.46753
-65.7763
51.3649
-29.6399
-22.9366
35.2656
-3.85055
13.1105
-8.73678
-25.1066
-27.1443
-28.1586
44.8923
12.9684
-17.4314
-35.2172
-6.35117
-5.34923
-37.8173
-29.7407
2.45166
-14.0012
12.8368
13.1196
-32.5204
-51.6657
-0.96341
10.2148
12.996
-63.7057
13.1574
-15.1798
-12.8671
13.1291
13.3929
-20.5199
3.14356
51.2146
-18.1183
4.45992
30.5631
27.2601
10.3932
-89.3637
-40.4027
-14.6408
-114.798
62.6482
13.4635
-28.0693
13.4625
24.1521
-74.0426
3.07557
-66.9088
-40.4033
-2.71761
21.5276
-6.35932
13.3163
13.3538
16.1701
-21.3216
3.88991
0.15067
26.9148
0.347702
-3.5429
14.1921
-13.0093
-0.478939
-18.5377
16.4662
-60.939
-39.7891
5.46174
-35.8826
-32.3744
0.146625
49.6128
-40.1866
-3.6901
30.3066
-9.60328
-14.2604
-22.9715
-29.6491
7.99795
-43.7217
-20.7585
6.46603
-1.98046
0.528086
-23.2653
-4.74258
25.6348
-16.9168
1.2659
25.6556
0.790328
-57.1387
0.266297
0.257929
-7.66372
-22.4987
22.0962
-4.19056
-12.0462
-8.12098
-69.0414
0.161442
-12.6473
-62.7408
1.05197
-8.80735
58.8086
-6.42565
-23.1801
-59.3344
0.195911
10.6501
-0.0265976
-126.787
-31.8043
-36.7886
-31.6259
20.0752
-5.47406
-2.96228
-42.9268
-57.657
-13.1713
0.541104
13.1852
1.29944
0.554113
2.88867
54.594
13.6195
12.8643
-7.73092
0.57921
15.9743
13.7717
22.7701
13.3526
0.533777
23.18
14.15
10.9807
-14.249
1.56806
12.4726
10.4555
-10.1506
12.6974
0.530941
1.26504
11.2304
13.5214
13.4603
-66.0102
12.6796
18.317
1.10547
0.284572
-26.868
14.4182
13.8087
-61.8539
-56.2037
59.9791
15.3019
-64.5024
22.4038
1.68309
-57.755
8.39469
-61.1729
1.14556
1.23562
13.2306
19.9999
11.2879
1.20128
1.08421
1.51269
7.11666
9.51548
1.03176
-17.9875
0.919133
-12.0518
58.9344
12.6839
-45.7228
-13.2203
-71.9093
1.11258
11.5036
0.175599
14.1339
1.46118
12.7677
1.30925
-42.9259
-23.7794
-38.6517
-3.03407
-8.42127
1.40356
2.8649
-32.1326
1.64306
-52.7588
-0.688633
-47.3024
1.84553
-59.5059
-88.4414
0.857785
0.095454
-47.601
0.257289
-48.1122
12.4244
1.88105
0.997969
1.03392
0.0683825
-0.335994
-11.557
-28.4943
-6.76396
12.4718
1.36922
12.5038
0.919308
12.4272
-47.0763
10.2108
-38.3041
2.19582
1.33103
10.0047
0.638307
10.158
9.51109
0.182466
1.25078
13.2803
1.17093
-3.03795
1.18598
1.25999
-24.6682
-42.7395
-3.52332
0.998628
-33.495
1.0167
0.658345
0.503849
0.474677
0.0480859
1.16992
12.625
12.3423
1.04361
0.797962
42.2048
1.32144
1.12251
1.4612
-46.3213
1.09573
-54.6913
-39.0071
-48.7451
9.94287
0.300609
1.13248
0.152092
1.10198
-44.7735
-10.9366
0.937225
0.948794
1.14807
1.19811
-28.4269
1.19828
-0.0185991
-15.5596
0.712549
0.53466
0.340079
0.545982
0.338392
0.385653
0.590109
-11.0533
-15.1721
-0.019233
12.5221
-1.68141
-9.37819
-8.11629
0.684177
1.09399
-10.8388
1.44352
0.157773
1.53072
1.07339
-10.1456
0.0310273
1.3777
0.70067
0.678547
1.6587
-5.62105
0.0457905
-49.3796
0.736745
-16.0644
1.32004
-0.00110848
-51.4257
0.037282
0.761848
0.0477895
0.900195
0.919649
0.735777
51.0286
1.06641
-31.469
0.971264
0.260923
1.6243
0.871177
0.629397
1.10166
0.518057
0.859847
0.300582
-10.7154
-10.7382
-38.2324
10.969
-12.0807
1.07632
1.23641
0.96391
-27.0747
0.200196
0.243883
0.172676
-55.461
0.12589
1.42618
-0.0253271
0.253252
1.73145
-143.201
0.0977681
1.47845
12.6368
0.0107797
-7.46434
27.9404
26.4158
0.0420563
7.60898
0.160453
1.11683
0.591407
0.268515
-54.0492
-55.8128
0.0899645
1.08295
-46.5341
-0.0819341
-3.86476
-22.2845
0.0741736
0.984712
5.32731
-0.0801966
-6.80492
0.0527596
1.35104
19.9156
1.52816
0.0378301
12.6571
-23.4295
12.7051
-27.8839
-25.5996
-29.3591
-23.5402
0.515655
12.6315
-17.4407
12.7768
0.62887
16.6927
-36.2885
-25.2635
13.0869
-11.5292
13.0674
0.732682
1.42798
-28.9776
0.928268
0.493155
12.8958
12.9105
41.1367
44.6477
63.1191
-15.8142
28.5378
13.1034
15.1
23.2073
12.9644
0.703807
0.214459
0.501653
-0.075411
-29.0166
-28.3949
0.728031
2.05604
-2.04303
-63.4169
-2.28031
1.14511
0.570911
-25.7634
-55.2758
0.831225
-45.9274
-3.2904
-30.739
-40.7889
-14.7471
0.267549
0.780025
13.5838
-56.5482
0.262774
13.6886
0.608501
0.161251
-56.4629
-55.3013
-59.862
0.262515
-44.9989
16.6746
9.90622
2.32339
-15.7696
-64.5514
-63.3259
-26.8893
61.0368
-27.3409
34.5049
12.5831
-41.0594
13.228
-59.2572
12.6214
-55.0351
12.5099
-25.9761
2.97757
-24.9204
13.1262
13.0548
2.66482
12.9048
12.7853
33.47
2.89274
13.0287
12.7946
-67.598
-47.6389
-14.2995
-24.2909
-49.8864
-23.9056
1.26087
15.2266
-41.2238
-29.4342
-36.2748
14.1479
-59.9011
6.37195
-55.856
-65.1532
-40.6264
-14.8229
15.5139
4.15405
9.70946
12.9443
1.89437
-30.7869
-0.624236
0.308124
1.7724
0.183481
0.135674
1.30145
0.390982
-24.9465
0.306868
0.156278
0.530171
1.58735
-20.1845
1.18485
0.0436669
0.250949
1.79259
-11.1269
-9.89555
0.728169
13.7196
-30.102
-64.5822
-2.70372
-51.7175
-11.9298
-4.4354
-21.0055
37.4772
9.09097
8.7556
-7.21901
-0.0104555
0.159408
-1.79554
-0.0228977
-0.092695
-0.984407
-0.00145297
1.89225
1.88876
12.0872
-6.05843
1.36284
43.5003
-0.0766058
12.9326
0.118464
-0.00100328
43.9935
-50.3156
24.6529
-0.0435173
1.0852
-24.8318
-27.5832
-0.664128
1.38559
13.0627
-11.8454
0.333206
0.147574
-14.6091
12.8759
0.0604016
13.8614
55.2807
1.19982
0.681674
-13.7673
-1.15363
0.907926
0.833838
0.695929
12.7453
12.7574
11.011
12.8924
13.2173
4.71222
3.61615
-4.25092
-56.1248
5.50755
-6.91556
12.8052
12.6956
63.019
3.56329
1.00354
1.05107
-25.8731
-36.5859
5.32656
16.5381
0.90894
29.5263
-5.23373
15.2901
-33.7859
48.3703
30.1645
-14.1322
3.62092
4.98925
-24.3979
-61.8162
-81.6852
2.06374
-10.7195
-63.6409
2.51003
-13.2053
-6.66959
-38.1417
-27.5436
2.19008
16.2141
-66.2769
10.8996
-6.85968
2.82867
11.1378
-1.7845
15.467
-0.633561
14.6258
10.3046
-39.4282
5.06061
58.6991
-19.004
56.2874
32.8512
-71.4251
13.7989
13.8415
-56.8461
-12.344
-0.704919
-31.5079
-23.7475
-2.74151
2.34964
2.06405
-31.9992
-2.54899
7.2329
58.105
-7.79473
13.5484
-6.1276
-17.9286
8.03368
8.13704
-33.482
-30.7009
-28.4646
-28.9023
0.658612
-16.6958
1.14082
-17.4087
-11.2585
1.78517
0.963262
-15.5541
-3.95393
-28.5926
-28.4891
-0.674265
7.39358
0.738904
-11.5082
-21.6276
9.56703
9.2516
-16.3222
-28.1114
9.55422
-7.36633
-28.2914
1.94294
-37.8181
-0.516006
-3.99075
-50.9575
1.99823
53.199
-9.3664
1.09565
1.15836
0.268211
-65.0982
0.936416
0.958697
-4.3056
0.315323
11.3095
0.790278
-28.8925
11.8642
36.9086
12.203
12.0233
11.7949
1.02408
-13.8393
-4.77369
-8.35993
-62.7166
-1.30699
-42.8176
-10.1195
-0.0364711
-59.89
0.0445973
0.823065
0.71448
-7.67081
-55.3306
-24.1785
11.5865
38.9846
-10.1712
1.89442
-34.0203
-43.0398
-9.93523
-48.5413
34.3322
12.6185
-10.9004
42.4329
12.6965
-67.2429
19.8748
11.0453
49.5527
34.8294
12.5609
12.8413
61.4053
-44.169
1.22358
54.8499
7.46618
12.8107
-9.39377
12.6971
-29.743
9.05318
60.6802
12.8948
13.0441
38.1045
11.0367
18.773
-6.56222
-2.41837
15.8328
-37.1744
24.543
-21.6495
-55.4685
-69.9229
-23.6079
13.1317
37.2394
14.6511
5.10581
8.47031
12.356
12.5861
1.29767
1.26868
41.4192
-41.1477
13.0257
-27.1856
2.18963
8.2002
-17.3578
-67.9467
1.353
-15.2927
13.6713
5.9614
1.16974
10.9691
-7.89335
1.44682
1.31986
-28.732
3.01851
0.95563
-7.11045
10.9621
0.822513
22.4828
0.881138
-16.9178
28.2446
2.81222
16.5214
37.5643
-27.0756
57.6681
42.2258
-30.3236
-60.3321
-27.6077
-26.0657
-27.0351
-27.2116
-26.022
-22.4988
-32.6805
-27.8492
59.9649
-1.53092
-54.0636
11.1953
-0.370981
-36.4932
-57.6841
-5.10902
-28.174
-15.9522
-26.9299
-14.2926
42.3934
-43.0084
-36.5644
-27.0719
24.7058
-26.7183
1.22573
-60.2309
23.6537
6.50427
1.27509
-1.00695
46.3024
9.30599
-24.2709
-9.60991
13.5107
1.20431
-6.76127
-24.9808
-30.712
-1.53652
-4.05949
18.7996
-26.9497
-6.81066
1.31612
-21.5984
46.9828
-1.77822
5.89692
1.32687
3.01825
-38.398
10.7635
8.36288
-1.63129
1.46599
5.58003
-1.82819
-2.45377
63.3799
3.61911
-19.3278
-5.9766
2.52597
-64.5119
-63.4807
9.50298
9.796
8.94545
11.8551
-22.7899
-8.97342
57.7757
-8.42755
11.6267
-18.3706
-2.56366
-5.15152
9.36936
-11.5128
9.36835
-19.4062
-27.9098
-45.5203
32.1394
-15.3403
18.1596
9.61556
-56.1659
-67.3587
33.4309
-59.863
10.054
-60.8053
33.7076
-2.67731
19.5694
-15.8973
1.12207
0.380819
-7.16096
-12.833
-39.0462
0.87705
9.23884
-94.5644
13.6467
-32.7435
13.5021
-0.985776
10.976
2.28796
0.0278928
0.255231
-5.08491
8.25431
2.08631
16.0887
0.49509
-54.6599
34.9585
11.97
41.2094
12.8913
-0.00187275
11.8682
13.6978
31.1584
0.520956
31.0705
1.48192
0.486776
-20.3322
0.968412
0.335749
-16.1458
-9.21111
-34.0471
-3.07213
33.8816
6.71429
28.1128
0.928387
19.7676
15.5957
1.09434
0.974422
0.46668
1.0786
57.9146
0.396911
-9.25433
-27.8267
12.9765
13.335
15.6463
13.1849
-22.4381
-31.4037
-0.168925
-3.18977
-3.12968
-13.4203
34.5984
0.233204
-58.2852
-8.37181
-33.2787
0.548976
9.42268
-22.7088
13.0676
13.2192
-19.279
13.3277
1.27083
7.22013
-46.6464
18.1998
55.4347
0.677986
0.39868
34.7412
7.25844
1.47669
34.7076
8.44644
-12.9698
37.7386
-12.8497
39.5479
-53.2466
2.49542
13.7244
0.0799911
-7.40635
0.167301
1.04314
-0.542213
0.252096
13.7289
-34.8401
5.21192
1.30315
-34.9589
1.06563
10.0532
13.1833
13.3135
24.9479
4.81795
1.94043
-5.95533
0.347895
-11.9041
12.9816
1.39398
-20.548
60.0173
-19.3127
1.2483
58.5493
13.2158
-61.9006
54.2566
-1.2447
5.40323
35.4594
13.3474
-27.075
39.2938
-27.2023
-5.60142
-26.9671
-14.6567
-40.4242
34.3776
-5.70357
60.7971
0.912746
-27.4343
-26.846
-67.0206
-60.3857
-35.3455
-64.7334
-37.6843
-31.7316
57.3891
10.1928
11.1161
49.8455
24.1154
-45.043
7.72586
-47.4968
45.1256
1.10918
11.468
0.0519091
1.19886
0.919785
0.848188
58.8438
0.970186
0.965369
12.0193
1.10225
1.03418
11.5376
-5.41787
1.03603
-6.75212
1.04843
7.75662
26.9874
-46.0961
0.631539
2.34912
-5.43295
0.614419
-41.7623
-31.2593
-21.7928
1.08971
39.2471
14.3955
-1.63064
-4.78576
7.65125
4.75728
1.08966
12.4125
11.9114
-27.3473
1.05881
19.5126
-2.37234
3.42991
12.3715
-0.178223
8.65893
12.5177
12.2286
-12.6442
11.9551
9.61457
51.9058
25.7977
13.2487
23.0417
11.5999
-0.492573
12.1028
1.32744
-2.80825
1.23386
5.87736
-0.0430938
23.9648
11.628
-16.1
23.6103
0.210371
10.3919
28.493
-13.0483
33.9905
-24.436
-50.02
-44.6198
0.647808
0.0118219
-22.5797
35.3337
-7.89652
-1.5003
9.50692
1.92665
0.37459
0.0421987
10.1526
13.5902
29.8453
9.20763
1.99497
12.4042
12.0228
0.0803704
-35.2615
35.8667
-0.0593553
8.47619
-10.8433
41.9288
13.4348
10.9551
-9.19362
-46.4053
-61.0604
12.6535
12.5887
-4.36278
-8.55979
-7.95902
-28.3508
32.568
1.37667
1.18015
-0.672422
0.477959
19.1129
-17.1114
0.465618
0.416108
30.84
0.459081
-6.24593
25.9333
-33.4399
-24.3295
0.657097
-9.9694
14.452
0.0186305
0.819552
13.1247
9.90699
-3.92611
21.3825
4.58783
-48.765
0.911997
0.770758
-35.8642
-4.57737
14.2501
0.741511
8.41846
12.6726
60.8409
0.796434
-9.60581
-41.1236
-37.892
-87.287
-57.9241
0.812274
17.0211
47.0495
-0.0274989
8.91631
10.5369
-40.6205
13.8397
6.82822
-38.0778
13.4894
22.8687
-15.9855
9.79697
-38.8289
-63.0595
15.3402
19.4037
-47.3866
15.6167
11.511
3.26702
14.8617
13.1269
2.03344
-33.2467
-5.62689
7.56983
14.7191
12.4762
13.4868
3.20435
0.0421364
35.3662
0.0482794
-7.39631
0.903964
36.8333
13.2111
-11.5943
5.28609
57.9242
-22.496
-27.4886
-44.8436
3.7823
-4.66102
-50.3941
-17.5613
14.9938
-14.3918
-5.31652
0.039255
-7.98374
12.5638
6.54098
4.15
0.140039
0.322843
-18.1385
-3.80258
-10.8207
1.05241
0.801497
0.275439
0.492253
-4.96584
13.7871
-41.0116
14.114
0.446004
0.43891
12.0296
11.917
12.9214
1.55667
0.473444
-7.6888
4.60546
0.533593
0.246366
-25.6157
3.70597
-7.56004
-44.2812
-27.3343
-34.5111
14.9205
-36.2958
18.3968
-28.2418
1.27565
-27.617
1.02831
3.08105
0.646453
-4.15535
1.21279
3.87481
-1.36511
12.5801
6.80584
14.016
-4.13859
-6.51211
-60.3249
-27.6995
24.0145
34.9208
-37.0793
-28.1171
-30.5659
-61.1308
-27.3249
-7.36787
-27.7193
1.65201
1.66411
-54.1433
-65.1111
-6.2743
0.418551
12.4383
52.5091
-3.08685
-64.7926
1.68062
5.38339
-1.80347
0.408108
-30.2618
1.28456
1.33155
1.18518
2.69305
7.54047
1.0068
1.10215
-53.0409
-54.9822
-39.1952
22.6481
-36.3928
13.0854
0.95817
15.0309
7.04984
4.71251
21.9135
12.5473
22.9862
1.23654
4.32824
5.86478
1.02335
2.68856
-11.3114
9.486
14.0602
9.4213
42.8322
1.69319
23.388
-54.7817
-3.80232
-45.7456
39.9283
11.0725
9.9527
6.8575
-17.7194
-8.60073
11.966
-36.588
8.06843
7.85803
-3.6032
17.7696
10.1726
-4.47485
-14.2674
-18.0677
13.7166
-1.67573
-54.3869
0.300098
-44.5654
-33.255
13.5983
-66.5822
-5.16878
34.5709
-1.83738
13.5693
14.2723
17.5045
-5.42097
12.8278
-27.4033
-14.1951
-27.0044
-4.20266
-7.95326
17.1954
-26.8882
-20.1777
2.13767
1.28156
16.2148
-27.3552
7.46105
-0.79508
-44.6803
0.757425
0.672644
12.2721
-63.0924
-4.64514
-1.57224
1.10437
-1.03114
11.9049
11.4558
0.882438
11.9589
-18.594
11.9736
-68.3272
12.2685
-35.1734
-29.1593
-7.18197
11.2897
-7.26077
0.937783
11.6008
-2.27831
0.855888
-7.37075
52.2944
0.158358
34.6631
-7.25095
0.0788917
-2.84945
0.240787
13.1388
11.7354
12.9154
-8.3204
0.182256
12.479
-1.3841
0.0332995
0.735372
-22.7498
2.2503
0.336329
13.2404
-32.8481
-33.9588
0.116467
-3.00137
0.745688
-30.0675
0.472428
0.37867
1.0636
0.293224
1.18357
1.1135
0.0352267
0.717218
11.9152
-30.7758
-20.8005
13.2306
45.7261
16.5028
12.9796
-0.0577179
13.6718
38.1362
0.0557517
34.0836
1.13497
0.164771
0.0360676
25.9174
0.917328
0.104199
54.8352
13.7527
27.9991
-8.52378
-12.6418
0.185613
-3.15031
-0.0335518
1.05877
2.72741
0.658958
50.2893
1.10239
0.624095
0.676385
12.4868
-38.9766
-20.1799
-3.59578
2.78493
1.03696
0.518442
15.6487
-28.4576
26.1776
17.2668
2.75035
0.526627
42.9345
-13.0747
40.8121
32.5002
12.282
13.0811
0.36553
-5.58041
2.11112
-12.0653
-11.1025
13.0906
-61.1637
1.28981
1.38106
1.06271
11.3876
1.13306
48.3574
-3.51522
46.3292
1.23968
-63.6867
-9.40343
-12.9187
1.00165
-42.8735
1.17586
28.7773
12.7246
32.4727
1.43008
-16.3951
4.41839
-44.864
29.7757
12.6187
12.3028
-0.172202
-22.8834
12.1344
-69.7525
-24.9829
12.6817
34.1557
12.5435
-21.0867
43.727
6.61625
-4.42587
43.3529
36.6349
1.87722
3.42086
-62.887
43.1978
10.1331
40.1786
-4.17671
-58.5135
29.4699
-1.43464
-0.0718309
0.298658
-0.0671918
1.18163
14.4533
-42.3445
0.32532
-33.0215
16.8799
38.8394
-11.0348
36.7911
-0.0829813
-0.0466476
-12.5822
57.0219
-17.0876
48.1119
16.7792
4.72428
24.9597
5.05157
17.434
0.0421273
-0.0535684
0.0169054
-0.0166915
9.35529
-13.6747
13.8351
-31.3763
2.11106
-38.3121
10.7175
-20.2322
45.1365
-1.8771
-1.36736
0.178822
38.8471
0.0662824
23.2045
-1.23349
9.04101
-7.49375
0.822487
32.1314
36.4672
-12.5027
0.0963864
0.834779
-48.1231
-60.4688
-7.71485
51.9705
27.9551
54.9893
58.2484
44.598
-42.8581
-0.969234
44.3574
-43.4537
-0.0102628
5.79302
0.0633277
-26.2518
-18.4833
-1.04424
2.0873
-7.74283
-0.01802
11.9976
-36.3985
41.8168
-42.9664
11.9103
-1.18938
10.5147
1.99628
-4.91573
-69.6477
2.57074
-33.2195
-13.6074
12.2926
-67.6323
-58.3995
12.3302
-10.032
-11.949
21.4778
12.3751
-12.5781
26.4986
-61.3751
-29.7743
-41.1458
39.7897
-40.2385
5.41413
26.0567
4.82372
-54.3
-46.3274
0.958063
0.300948
49.9026
-1.97988
-35.7971
-1.30976
-15.389
-61.0843
-20.8117
-28.3247
2.01418
-28.7698
0.337909
-28.4398
14.4031
-20.6687
50.161
-27.0323
21.2274
-30.0069
-26.7568
-19.7034
-44.641
34.0176
31.7659
-37.1343
11.4354
24.1941
17.4122
6.59306
14.0386
-2.78181
-32.2278
-77.593
-36.3263
16.4798
20.4658
-38.8788
24.0997
-28.8916
-14.3131
6.65403
5.9353
-35.8202
13.3129
-29.6333
14.7323
31.0556
33.1596
61.0551
30.3722
-27.6552
-55.7213
44.0919
13.2952
37.5729
-47.4016
-28.0422
51.4019
31.132
-3.42113
22.7101
22.7396
-43.2025
-31.0317
-60.1791
16.4742
11.3626
36.6684
-54.4038
44.7687
29.4132
13.6072
37.8944
-33.872
2.65933
3.12606
13.5618
-11.3757
-57.9852
-27.6288
46.0495
-1.42121
-26.604
-53.1225
42.7858
47.1959
39.446
-42.1226
-93.8119
45.7904
-28.192
-56.1892
47.0692
-0.960625
-8.86672
13.1382
1.23902
1.35095
-7.0168
44.623
-26.7778
1.33978
1.64933
1.31881
1.88865
0.637671
5.65431
-32.6191
-3.85242
1.16419
-53.9006
-73.0128
-27.3031
-18.3015
-0.104415
-16.7649
-30.7077
-40.7018
1.18208
-36.3605
-1.13134
-34.9352
-27.1658
43.9119
19.7839
27.1275
-0.00850168
5.38566
-68.6261
-24.3541
-8.57514
-52.115
0.0106772
-57.9813
-40.8207
-24.483
-40.7085
-3.82872
16.7423
12.5633
15.8516
11.7748
43.5839
0.090054
-0.0331633
0.147094
15.4628
-12.3312
-57.1437
-52.1649
16.8095
37.9292
24.9614
30.073
0.812948
-57.9529
-4.76826
13.3618
4.90718
-0.0767726
19.7332
8.30167
-13.1512
15.4971
-9.92851
-8.58642
-5.77129
18.0145
36.8509
-30.2783
53.512
-30.443
19.8828
-70.3685
-52.4689
-9.2246
15.7195
34.5492
-8.03468
-41.4573
7.62241
15.249
-18.4138
-28.4315
16.6519
47.4857
60.0159
-57.95
-0.824436
-57.7354
15.262
1.81391
-9.4694
11.5955
7.98789
-15.9853
4.19373
8.94622
-40.3572
-7.87569
-27.0651
-15.2799
-30.0436
0.137875
12.869
-69.9984
-16.2778
0.0234005
61.1392
13.3211
46.3926
12.0284
-19.6969
17.7475
1.66483
34.2667
55.7184
16.2431
34.3413
-0.101588
-46.7226
13.3644
13.1859
-1.7554
6.85947
-35.1577
-3.68834
-7.26124
13.5241
4.48774
-21.5879
5.79229
10.4107
-6.12385
-12.0328
-26.8343
-0.0609573
14.5853
-0.013001
15.163
-0.0166006
-19.0142
13.2018
-22.2804
12.5548
-32.2527
-0.0531439
34.5113
-8.87309
35.8956
0.00527342
8.94069
-0.0455868
-0.0188308
-4.50436
7.63974
17.7286
34.3267
31.1107
-33.4698
-53.0183
42.3371
24.7243
22.0909
5.88274
-0.00724123
0.21481
-72.6937
43.8419
19.1627
15.0478
0.0770295
19.2528
0.161929
0.092713
-20.7024
-22.9548
-36.8043
-35.8701
7.72885
2.28184
-6.1067
13.1387
43.3176
11.5914
-13.5643
11.5639
-6.0773
-75.9523
-15.4321
0.324683
4.45716
-8.28807
-5.6201
-36.962
13.4194
-36.0044
23.7817
-73.31
-30.9021
-27.1178
0.304102
22.4587
3.01507
13.4418
35.5133
13.4991
-10.0417
11.4982
12.3371
9.26539
13.3966
-38.9339
19.1273
4.65122
43.4322
12.8259
-21.9794
13.5914
13.5094
-28.7984
-75.0534
-29.0434
-28.3257
-28.5286
10.2275
58.9964
-27.1494
-4.17697
12.1311
19.8499
-28.6648
0.644764
0.646602
11.4151
-22.737
-28.94
-46.2573
31.5567
-1.44766
1.2411
3.52201
-29.6971
28.4236
10.3811
-55.1956
-27.4833
-27.666
60.3637
14.6898
11.109
2.62206
14.7672
-58.2718
17.3118
11.7057
19.5624
-0.9095
17.9164
23.0858
44.7326
36.2008
11.1312
-16.1436
22.6687
-9.22007
0.715711
0.627813
31.4734
-30.4652
-14.0149
0.601326
55.8041
0.627337
-29.9235
31.159
20.8888
39.2513
-27.5022
-22.3232
-28.2427
31.7284
-11.3466
-30.5832
-7.65416
11.8745
1.99621
14.6359
0.92506
15.1766
0.735471
11.9382
0.906331
-11.7312
0.349332
34.9003
2.85921
4.8659
-25.9518
8.87521
1.36511
10.1105
-5.96511
-37.0958
-48.8242
-20.4951
5.15421
36.9413
1.34203
58.5792
-41.5221
58.9633
52.4155
1.18189
4.4546
6.12115
1.06673
1.23157
-88.859
10.7432
-30.3935
-12.1856
5.21451
1.22139
-26.4491
6.72857
6.67257
10.0201
7.26594
1.1232
-37.2844
-3.6553
1.31951
-11.9944
1.70629
1.07834
1.55452
1.281
-6.59223
7.24946
-55.6149
1.10985
1.33138
-10.9505
-6.81953
23.5592
-18.1965
12.7709
12.6583
-0.0611429
0.278317
-9.40593
-16.5803
9.00024
0.18125
-2.06419
10.0854
0.113332
57.1829
0.114016
2.69461
0.161246
0.00304359
-28.5443
0.0120351
-27.5458
-5.94778
52.4967
4.76184
-0.32271
-3.31937
0.114185
-4.43001
-41.63
1.97625
0.120847
7.48277
-27.5637
0.100574
8.09845
28.4074
42.5437
-10.4682
9.72387
9.50611
-44.3694
-23.8788
0.0505316
48.0771
-59.325
-21.5411
-7.80446
49.6052
-9.36796
-10.0055
32.2461
-65.8502
-2.41687
0.140654
0.043137
-0.0103541
0.00487464
-0.0031821
-31.3622
17.8376
-0.0111657
-54.6734
0.199816
0.125902
-9.40636
3.25196
15.7176
-47.7344
6.19054
16.1692
-26.1409
1.76807
15.8254
59.2625
15.3715
-45.9119
41.0998
17.8823
33.0875
0.349662
43.6978
0.630786
5.90845
24.279
0.156853
-44.7339
-23.8306
0.736626
0.746621
-138.944
18.4197
-28.1614
1.21286
-1.70635
1.20202
13.7255
20.8019
48.072
13.7343
55.0753
13.7028
-82.4996