/*--------------------------------*- C++ -*----------------------------------*\
| =========                 |                                                 |
| \\      /  F ield         | OpenFOAM: The Open Source CFD Toolbox           |
|  \\    /   O peration     | Version:  2506                                  |
|   \\  /    A nd           | Website:  www.openfoam.com                      |
|    \\/     M anipulation  |                                                 |
\*---------------------------------------------------------------------------*/
FoamFile
{
    version     2.0;
    format      ascii;
    arch        "LSB;label=32;scalar=64";
    class       surfaceScalarField;
    location    "0.0533022";
    object      phi;
}
// * * * * * * * * * * * * * * * * * * * * * * * * * * * * * * * * * * * * * //

dimensions      [0 3 -1 0 0 0 0];

oriented        oriented;

internalField   nonuniform List<scalar> 
92401
(
0.147568
-0.0962624
-0.00704902
-0.0442565
-0.0625371
0.060127
0.0378788
-0.0354687
0.0223809
-0.0398867
0.0431163
-0.0256104
0.00653047
-0.0129334
0.0127604
-0.00635749
0.00136799
-0.00049992
-0.00586619
0.00499812
0.0195172
0.00976306
-0.0254404
-0.00383992
0.00571766
-0.00471097
0.000361301
0.0324049
-0.0256643
0.0127767
0.0480845
-0.038644
0.0324525
-0.0418931
0.000380264
-0.000906996
-2.34028e-05
0.000550135
0.00468808
-0.0417618
0.0384285
0.0241378
0.0244195
-0.0869858
-0.0171372
0.0109291
-0.000151977
0.00636
-0.034529
-0.0402808
-0.0171706
-0.0179542
0.0588996
-0.0237748
0.00216866
-0.066409
0.0642404
-0.00238506
-0.00772249
0.00201497
0.00345559
0.00225192
-0.000953914
0.00151154
0.000249124
-0.000806747
-0.00484622
0.0106245
3.63229e-05
-0.00581456
0.0163213
-0.00577842
-0.00489958
-0.00564332
-0.04082
0.00834078
0.0370338
-0.00455457
-0.0393183
0.0108968
-0.0548191
-0.0543503
-0.00274057
0.055239
0.00185184
0.0907346
-0.0895014
0.0221176
-0.0233507
0.0500188
0.0601218
-0.0712573
-0.0388833
-0.0325459
0.0511843
-0.0579567
-0.00268802
-0.00103666
0.00397211
-0.000247423
0.0315691
-0.0636435
-0.000471493
0.0611427
-0.0605609
-0.0323092
0.0317274
0.0126248
-0.0173565
0.00127004
0.00346168
-0.0358119
0.106322
0.0615999
-0.13211
-0.0846936
0.107529
0.00897019
-0.0318059
-0.131155
0.0322474
0.0296278
0.0692795
0.0148294
-0.0618376
0.0371201
0.00988805
0.0599418
0.00930657
-0.054419
-0.0443091
0.0102844
0.00236606
0.0316586
-0.0504146
-0.0411772
0.0654839
0.0261079
-0.0332609
0.0404883
-0.0139745
0.00674708
-0.0198725
-0.101883
0.0649418
0.0568133
-0.0862191
0.0862315
-1.24438e-05
0.0346992
-0.00725989
-0.0767171
0.0492777
0.00471158
0.0236191
-0.0226542
-0.00567642
0.0268848
-0.0503988
0.023514
0.000139137
-5.58761e-05
-6.26602e-05
-2.06004e-05
0.000707399
-0.0585547
0.0578473
-0.0685708
0.0428428
0.0624553
-0.0367273
0.0901258
-0.0254366
-0.0127887
-0.0519005
-0.000124357
0.0703356
0.000199324
-0.0704105
-0.0476651
0.0731146
0.0397549
-0.0652044
0.00054068
0.00108744
-0.000372336
-0.00125579
-0.00227698
-0.00347739
0.000312801
0.00544157
-0.0381925
0.0839144
-0.0461785
0.000456498
0.00032274
-0.000797061
-0.000638993
0.00111331
-0.0546598
0.0543703
0.000289475
0.0753541
-0.00791491
-0.0184279
-0.0490114
-0.0981086
0.0908857
0.00497184
0.00225097
-0.0552042
0.0275832
0.0110772
0.0165438
-0.00291483
-0.0153478
0.00755856
0.0107041
-0.0124857
0.0258569
0.0374404
-0.0508115
0.000928923
-0.000325826
-0.000280357
9.85356e-05
-2.56967e-05
0.000722809
-0.000795648
0.000839831
0.0002177
-0.000659268
-0.000398263
0.00418608
-0.00924683
0.00513378
-7.30257e-05
0.0679081
0.00506204
-0.0172006
-0.0557695
-0.0150844
-0.00470077
0.0105097
0.00927543
-0.0410136
-0.0529186
-0.0547509
0.148683
0.00338904
-0.0339434
-0.00405656
0.0346109
-0.000396769
0.000561477
0.000599787
-0.000764496
0.00455671
0.00443814
-0.0282513
0.0192564
0.0187855
-0.00665883
-0.0095555
-0.00257113
0.0417128
-0.0763976
-0.0273641
0.062049
-0.0288722
-0.00323506
0.0103389
0.0217684
0.0122522
0.00809534
0.0130157
-0.0333632
-0.000608694
-0.000364049
-2.38199e-05
0.000996562
0.0252309
-0.00973255
0.0365643
-0.000943908
0.000597447
-0.00107681
0.00142328
0.0443228
-0.0330477
-0.0683366
0.0570615
0.000572812
-0.000313466
-0.000259346
-0.00110186
-2.23426e-05
0.0005653
0.000558903
0.00077944
-0.000240878
0.000568955
-0.00110752
0.0226056
-0.0226009
-0.0625825
0.0625778
0.00117903
-0.0127155
0.00275766
0.00877878
0.0430132
0.0585188
0.0185482
-0.12008
-0.115444
0.0267395
0.127607
-0.0389021
-0.00543868
-0.0442569
0.00376891
0.0459266
0.0540133
-0.0293028
0.0257028
-0.0504133
0.0250049
-0.0033979
-0.151963
0.130356
0.00743105
0.0174075
-0.0279709
0.00313231
0.000694127
-0.000226528
-0.000720433
0.000252835
0.0379436
0.0127268
-0.00144992
-0.0492205
-0.00246913
0.084096
-0.0854937
0.00386681
-0.018067
0.0497924
-0.116103
0.0843779
0.042188
0.00532703
-0.0529538
0.0422598
-7.17368e-05
-0.00233631
-0.0291094
0.0415011
-0.0100553
0.070876
0.0170779
-0.0314324
-0.0565215
0.12957
-0.142852
-0.0285353
0.0418173
-0.0151762
-0.0452962
0.0581361
-0.0822881
-0.000633054
0.0829211
0.00110822
-0.0979013
0.163336
-0.0665428
-0.00250862
0.00339143
-0.000602695
-0.000280112
0.0891344
-0.148327
0.0307836
0.0284086
0.00153305
-0.000376946
0.000869767
-0.00202587
-0.0868549
0.142909
-0.103949
0.0478951
0.0304211
0.00305301
-0.0406122
0.00713817
0.0865984
-0.0156728
-0.0810687
0.0101431
0.0057129
0.0313794
-0.0522685
0.029121
0.0266759
-0.127199
0.071402
0.0866762
0.112984
-0.0798687
-0.119791
0.00109955
0.000246628
-0.0021949
0.000848721
-0.0938296
-0.0292387
0.111497
0.0115714
0.00111396
-0.00605171
0.015922
-0.0109843
-0.0139359
-0.0336756
0.0576998
-0.0100882
-0.00549729
0.0170142
-0.0143885
0.00287158
0.000378551
-0.000686574
-0.000577514
0.000885537
0.0216932
-0.025982
-0.00120851
-0.00186257
-0.000704841
0.00152343
0.00104398
-0.0575549
0.0603565
-0.00280158
-0.00254645
-0.00625981
-0.00204372
0.01085
-0.0364506
0.0280602
-0.00554547
0.0183371
-0.0472343
-0.0557964
-0.0513263
0.0415936
0.0983333
-0.0886006
-0.00759517
-0.0017356
0.00503625
0.00429451
0.0469324
0.0110578
0.0023597
-0.06035
0.000402984
-0.00937755
0.00685461
0.00211996
-0.0397147
-0.0536519
0.0116608
0.0817057
0.0647068
-0.0388768
0.0266288
-0.0524589
-0.00973141
0.0599774
-0.0589019
0.00865595
-0.0588401
-0.0338552
0.00778086
0.0849145
0.0163028
0.00504176
-0.0331186
0.011774
0.060788
-0.0615312
0.000743276
0.00184709
0.00179481
-0.00147914
-0.00216276
0.0406665
-0.043436
0.00276941
-0.057253
-0.0342643
0.105329
-0.0138113
0.000849604
-0.00984918
0.00969358
-0.000694011
0.0029097
0.00595237
0.002667
-0.0115291
0.00183703
0.00636649
-0.00780054
-0.0248855
-0.0577925
-0.00890875
0.0915868
0.0259328
-0.00771288
0.0178424
-0.0360624
-0.0840062
0.0925273
-0.101267
0.0927456
0.079526
-0.0520222
-0.0275038
0.00153726
-0.0346104
-0.0101511
0.0432243
0.00829044
-0.00560205
-0.0093784
0.00669
0.0466923
-0.0703824
-0.0620369
0.0857271
0.07403
-0.0647097
0.0293601
-0.0386803
-0.0134354
-0.00819195
0.0319754
-0.0103481
-0.0581867
-0.0868218
0.0571106
0.0878979
-0.0416579
0.0543651
-0.0111699
0.0976982
-0.0482887
-0.0494095
-0.00446668
0.0152016
-0.00244447
0.0010003
0.000679319
-0.000713451
-0.000966163
0.0473489
-0.0158027
-0.00524893
-0.0262973
0.00365333
-0.00188306
-0.00048432
-0.00128595
0.00545127
-0.0101983
0.00875015
-0.00400308
0.0725269
-0.0422405
0.0256734
-0.0559599
0.00876104
-0.000366351
-0.00684907
-0.00154562
0.00167379
-0.000600949
-0.00107284
-0.065026
0.0646521
0.000373909
0.0122791
0.00540932
-0.0968431
0.0791546
-0.0115236
0.0142723
-0.0103091
0.00756043
-0.0726017
0.0161777
0.083291
-0.026867
0.0181501
-0.0972127
0.0756561
0.00340656
-0.0527105
0.0431157
-0.00833066
0.0179255
0.00884336
-0.00181016
-0.00300078
-0.00403242
8.14321e-05
-0.000891998
0.000810566
0.0285193
0.170541
-0.245373
0.0463132
0.000320302
-0.000149556
-0.0247355
0.0602756
-0.0527257
0.0171856
-2.48686e-05
0.00523591
-0.0044295
-0.000781549
0.00033022
0.00162885
-0.00219994
-0.0709026
0.000639919
0.0702627
-0.0323813
0.113788
-0.0477498
-0.0336566
0.000476186
0.000575143
0.00951257
-0.0105639
0.000609381
0.090673
-0.0912824
0.00238687
-0.00164047
-0.00120449
0.000458077
0.00136234
0.000680406
-0.000697609
-0.00134514
-0.0366044
-0.00163597
0.0323956
0.0189721
-0.0638534
-0.072458
-0.0164234
0.00665579
0.0822256
-0.000613176
0.00197552
-0.099939
-0.04208
0.112754
0.0292648
0.0273603
0.169962
-0.084807
-0.0575934
-0.0275611
-0.0180857
0.119068
-0.0434446
-0.0575373
0.0397587
0.0299956
0.0385062
-0.108261
0.104789
-0.24884
0.109385
0.0346665
0.00162005
-0.00144505
-0.00139682
0.00122182
-0.012281
-0.035513
0.055702
-0.00790796
0.0256809
0.0403412
-0.0260333
-0.0399887
-0.0353542
-0.0258076
-0.019766
0.0809277
-0.0533831
-0.0139156
0.0550177
0.000999351
-0.0121376
0.00892336
0.00221493
0.0553728
-0.0284447
-0.0508466
0.0239185
-0.0892316
0.105207
-0.0500865
0.0341107
0.0164121
-0.0232095
0.00698178
-0.000184339
0.0517864
-0.0600553
0.0636417
-0.057055
-0.00350795
-0.0137708
0.0743337
-0.00538718
-0.0129611
0.00237725
0.0159711
0.000274203
0.0581874
-0.0577229
-0.00073866
0.135434
-0.0536916
-0.00279331
-0.0789494
0.0594663
-0.00753497
-0.0483486
-0.00358271
0.0517502
-0.0211495
-0.0736056
0.0430049
-0.00983861
-0.00191394
0.0149647
-0.00321215
0.00535784
-0.00162549
-0.00478185
0.0010495
0.00250701
-0.0437555
0.0403629
0.000885663
-0.000834967
-0.0862377
0.00343877
0.0195454
-0.0129719
-0.0632444
0.0467079
0.0165365
-0.059548
-0.0170389
0.0109803
0.0656066
-0.0994139
-0.000876512
0.10335
-0.00306004
0.00369422
0.0235124
-0.0127062
-0.0145004
-0.0712623
0.149795
-0.0660083
-0.0125242
-0.00488146
0.0135081
0.0226029
-0.0312295
-0.0515842
0.0991298
0.0388062
-0.0863518
0.0287368
0.00184549
-0.0146774
-0.0159049
-0.0360893
0.0376946
0.000901709
-0.00467841
0.00729376
-0.00977797
0.00716262
-0.000328356
-0.00449984
0.0102795
0.0358952
0.0380362
-0.0739313
0.00110651
-0.00188963
4.93752e-05
0.000733744
0.0195059
0.00834425
-0.0188587
-0.00899144
0.0221128
0.0113832
-0.0021797
-0.0313163
-0.0520798
-0.00146403
0.00681797
0.0467259
-0.000132492
-0.0436231
-0.000959974
0.000567156
0.00149933
-0.0517604
0.0368921
0.0520253
-0.037157
-0.0448558
0.0302116
0.0182969
-0.00365271
0.00132995
-0.00341232
-0.00988392
0.0119663
-0.00933905
-0.00506737
-0.00329429
0.0177007
-0.0434098
-0.004818
0.0121384
0.0724134
0.0396647
-0.072004
-0.0400741
-0.0446551
-0.000431872
0.045087
0.0862041
-0.0486759
0.059572
0.00361918
-0.00771989
-0.0373437
0.0414444
0.0359178
0.0114237
-0.0055147
-0.0418268
-0.00048063
0.000314615
0.00100955
-0.000843538
-0.0168461
-0.0449312
0.0617774
-0.000256949
-0.00132554
-0.00427352
0.0309281
-0.0230354
0.00614864
0.0279
-0.0417685
0.0979195
-0.0907299
-0.00201768
-0.00517195
-0.0213519
0.101222
-0.0186687
-0.061201
-0.0323294
0.00681262
0.0146782
0.0108386
-0.039344
0.0360671
0.0141874
-0.0109105
0.0325665
-0.0251264
0.00134415
-0.00878426
0.0188581
0.0720187
-0.1215
0.0306234
0.0762894
-0.0752566
-0.0243092
0.0232764
-0.14327
0.00212962
0.00366028
0.13748
0.0305393
0.0123202
-0.0412134
-0.00164616
0.0398214
-0.0578785
0.0204059
-0.00234881
0.00212172
-0.00123533
0.000241158
-0.00112755
-0.0145956
-0.00118506
0.073396
-0.0416421
0.0188081
-0.050562
-0.0118008
0.0477559
0.000414028
-0.0363691
0.00526702
0.0955327
-0.0929222
-0.00787759
0.0494365
-0.0989863
0.0582071
-0.00865725
-0.0483793
-0.000365534
0.0369441
0.0151665
-0.00368106
0.00864351
-0.020129
-0.0234232
0.0477944
-0.0133132
-0.0110581
-0.0483848
5.42826e-06
-0.00546804
-0.12286
0.175852
-0.047524
0.0101819
0.00971159
-0.0635309
0.0436374
0.0495381
0.00550745
-0.0448637
-0.012771
0.00673575
-0.00361089
0.00964616
-0.0561298
-0.00071866
0.0568484
0.110344
0.0444623
-0.136599
-0.0182072
-0.00919651
0.000365191
-0.00393971
0.0185265
-0.116106
-0.0224216
0.120001
0.0126085
0.0665655
-0.0694623
0.00287845
-0.0557697
-0.0106396
0.000495956
0.00189353
-0.00264643
0.00200836
-0.00180848
0.00029607
-0.0506576
0.0258612
0.0739709
-0.0491745
-0.00194093
0.000978177
0.000940413
-0.0342598
-0.00770761
0.0448459
0.000256988
-0.000304393
0.000346842
-0.000903819
0.000117863
0.000439115
0.000155982
0.00210937
-0.00177344
0.00142043
0.00011889
0.000234123
0.000436018
-0.000261289
0.000754194
0.10571
0.121255
-0.0793972
0.000118617
-0.000821855
0.00113926
-0.0529276
0.0528912
3.63024e-05
-0.0106364
0.0760805
-0.071393
0.00594886
0.00180172
-0.0195808
0.0052141
0.012565
-0.0603684
-0.00319554
-0.017199
0.00398385
0.0476034
-0.0343883
-0.0637523
-0.00258325
0.0663356
-0.00657233
-0.0167168
-0.0128122
0.0361013
0.000308536
-0.000372725
-0.000512877
0.000577067
-0.00399775
-0.00737895
0.00903403
0.00234267
0.0549848
0.0439062
-0.017508
0.0480919
0.0894469
-0.0381082
-0.0994306
-0.0126814
-0.0444043
-0.0196568
0.0190743
-0.0547404
0.0553229
-0.0108464
0.0292351
-0.00652503
-0.0118636
-0.0150911
-0.0135605
0.0136069
0.0150448
0.0971528
-0.0952354
0.0189839
-0.0209014
0.00112367
-0.00436561
-0.000372695
0.00361464
0.00109337
-0.0662079
0.0651146
-0.0725141
0.00341854
0.0666432
0.00245243
0.0390416
0.0383374
-0.077379
0.0190378
-0.0601314
0.0284123
0.00208093
-0.00119777
0.000559946
-0.0014431
0.000202049
-0.000308703
0.00131905
-0.0012124
-7.85753e-05
0.000428336
-0.000989568
0.000639807
0.0635551
0.0564465
-0.0389695
-0.0810321
0.0057226
-0.0869433
0.0824277
-0.00120699
-0.0136148
0.000411308
0.0265973
-0.0133938
0.0535558
-0.0527454
0.0190193
-0.0198296
-0.000520186
0.00136813
-0.000684414
-0.000163535
0.0203529
0.047847
-0.0491621
-0.0470188
-0.00174145
0.000926082
0.00154545
-0.000730087
0.00115798
0.0801156
-0.0812736
-0.0499402
-0.0152833
-0.0221727
0.0873962
-0.0499995
5.93231e-05
0.0116621
0.0167738
0.0167661
-0.045202
0.000527027
-0.00278524
0.000360883
0.00189733
-0.0017253
-0.00063009
0.000613946
-0.106144
-0.00893349
-0.0429639
0.158041
-0.00980075
0.00705337
0.13729
-0.134543
-0.0384367
0.0419718
-0.0648013
0.0612662
-0.0790273
0.0788504
0.000176836
0.00132933
-0.0500509
-0.0305013
0.0669533
0.0194239
-0.00593617
-0.080441
0.0504139
0.0945605
-0.1567
0.0117255
0.0414808
0.0159865
0.0332012
-0.0906684
0.104185
-0.108491
0.0433477
-0.00353413
0.0131294
-0.0118804
0.00228516
-0.00173836
-3.937e-05
-0.0006544
0.00243214
-0.00285842
-0.00560608
0.00168203
0.00678247
0.0607173
-0.00607686
-0.0182778
-0.0363627
-0.0567454
0.0282212
0.0285242
-0.0926388
-0.00783797
0.012208
0.000555126
-0.00052251
-0.00177098
-0.117813
0.0265588
0.00496809
0.0862864
0.00132561
-0.0537041
-0.0100935
0.062472
0.0454535
0.0291834
-0.101371
0.026734
0.0382139
-0.0437051
-0.0188963
0.0243875
0.0481546
-0.0602376
0.050297
0.0311842
-0.0559688
0.0496062
-0.0248216
0.0346336
-0.0360015
0.000208335
0.0011596
0.0161938
-0.141975
0.0910667
0.0347143
0.00139494
-0.061571
-0.00377845
0.0523151
0.000375637
-0.107895
-0.0338299
-0.00881275
0.00671195
0.0359307
-0.0487203
0.0444196
0.050153
-0.0458522
-0.042558
0.0823696
-0.0398116
0.0105272
-0.102198
0.0479653
-0.016942
0.00756246
0.0244797
-0.0151001
-0.0885124
0.0937614
0.036459
-0.041708
0.0585054
0.0328057
-0.0828996
-0.00841147
-0.0466219
0.141678
0.00416241
-0.0992186
-0.000543973
0.00298034
0.00359737
-0.00603374
0.0537072
-0.0720267
0.0829279
-0.0646084
0.0081586
-0.0394183
-0.00827194
0.0395316
-0.0435168
0.0315718
0.103021
-0.0910759
-0.0499941
-0.0264481
0.0528909
0.0235513
-0.0097748
-0.000357615
0.00624524
0.00388718
-0.0105821
0.0226277
-0.0182543
0.00620869
0.000179096
0.0737886
-0.0739677
0.0149084
-0.0441592
-0.0194695
0.0483284
-0.0340997
-0.000905948
-0.0133228
0.00143434
-0.0259674
-0.0204921
0.0450251
0.0346716
-0.0346122
-5.94211e-05
0.0612096
-0.041711
0.0642692
-0.0837678
-0.0995656
0.0977245
0.098994
6.93699e-05
-0.0108441
-0.00178435
0.012559
0.04958
-0.000236367
5.45983e-05
0.00011936
6.24091e-05
-0.00035302
0.0478001
-0.110631
0.0631839
-0.00859073
-0.000603158
0.00497785
0.00421603
0.0268859
0.00996071
-0.0368466
0.00120125
-0.000957211
-0.00883476
-0.0333961
-0.0341864
0.0103295
0.0572357
0.00098577
-0.0582215
0.0728443
-0.0441345
-0.0511886
0.0224788
0.0016219
-0.0251013
-0.0208297
0.0693881
0.0430285
-0.0395723
-0.00802597
0.00929659
0.133692
-0.11955
0.0362268
-0.0503689
-0.0450173
0.0364971
0.0218925
-0.0133723
-0.0525077
0.052575
-6.7307e-05
-0.0477796
0.0296471
0.0107713
-0.0469435
-0.0108528
0.047025
-0.00241123
0.16083
-0.160541
0.00212272
0.107643
0.0159463
-0.0160596
0.0508171
0.00862549
-0.0512577
-0.00818489
-0.0144632
0.00467349
0.0106521
-0.000862445
-0.00955115
-0.00535127
0.00470634
0.0101961
0.0659346
-0.0375425
-0.0526354
0.0242433
0.0296742
-0.0155816
0.0239873
-0.03808
0.0266927
-0.0933686
0.0894464
-0.0227705
-0.00585389
0.000431282
-0.00904055
-0.0943579
0.107084
-0.0232008
0.0104745
-0.011405
0.0479869
0.0139113
-0.0504933
-0.0042543
-0.000421051
0.00324181
0.00143354
0.083822
-0.00479327
0.0507327
-0.129761
4.6301e-05
-0.000704616
-7.60179e-06
0.000665917
-0.0667203
0.0587063
0.0740438
-0.0660298
0.00345288
0.00096379
-0.00229221
-0.00212446
-0.0780724
0.075798
0.00227438
0.0627862
-0.0595526
-0.00323364
0.0605466
-0.000702156
-0.0598444
-0.0108461
0.123564
-0.000625573
-0.112093
0.00992533
-0.0311594
0.0328962
-0.0238954
-2.78392e-06
-0.0562004
-0.0676221
0.0116487
0.0664757
-0.0105024
-0.013246
-0.00215902
0.000250545
-0.000563961
-9.61398e-05
0.000409556
0.00119579
-0.000120421
-0.000252879
-0.000822488
-0.063431
0.00764897
-0.0013989
0.0571809
0.000403339
-0.00545393
0.00190061
0.00314998
0.0121417
-0.0146502
-1.62856e-05
0.00252483
0.00819048
-0.00675294
0.0107042
0.0556481
-0.00928765
-0.0227877
-0.0235727
0.0360796
-0.00530803
-0.0363159
0.00554427
0.000131057
0.066996
-0.000315425
-0.0668117
0.00768817
-0.0717885
0.0192476
0.0448527
-0.0430065
-0.0318833
0.0417806
0.0331092
-0.0353748
0.0212052
-0.0907377
0.104907
-0.000915182
0.0151912
-0.00782154
-0.00645444
0.0491108
-0.0589937
0.0474313
-0.0375485
-0.0625078
-0.00681403
-0.00815328
0.000827799
-0.000223633
0.00433705
-0.00494121
-0.0120105
-0.0027748
0.0017542
0.0130312
-0.00810635
-0.00925602
0.0107966
0.00656582
-0.000138074
-0.0022171
0.00141805
0.000937124
-0.000372704
0.000465548
-9.28434e-05
0.00171533
-0.0730631
-0.0270496
0.0983974
-0.000151132
-6.24106e-05
-0.00142039
0.00163394
0.000122647
-0.00038035
-0.000115001
0.00225311
-0.0660054
-8.77052e-05
-9.73447e-05
0.000650598
0.000624266
0.000129668
-0.000399368
-0.000354566
-0.0281735
0.0636402
0.0780736
-0.11354
-0.009124
-0.00223149
0.00724272
0.00411277
-0.014554
-0.000271366
0.00570139
-0.00526794
0.00548841
0.0130993
-0.0133198
-0.000511191
0.000733581
-0.000310096
-0.0659392
0.0666531
-0.000713895
0.0303764
0.0470609
-0.0600116
-0.0174257
0.0115021
-0.0755078
-0.0212109
0.0852166
-0.0134942
0.00276959
0.00545662
-0.00456114
-0.00639679
-0.00253622
-0.0165589
0.0582885
0.0129339
-0.0546636
0.0690613
0.00475144
-0.0536701
-0.0201427
0.000182096
0.000424556
-0.000767161
0.000160509
-0.000125088
-0.000263456
-0.00265774
-0.00117562
-0.00131607
0.00514943
0.0651017
-0.0459334
0.0120445
-0.0312128
-0.000824308
-0.00267971
0.00139767
0.00210634
-0.0163797
0.00997364
-0.00347982
0.00988585
0.00169774
-0.101463
0.101073
-0.00130777
0.00310444
0.000775318
-0.0105372
0.00665744
0.0101286
-0.0106993
0.00160871
-0.001038
0.00988802
0.0039538
-0.0107374
0.0368022
0.0562531
-0.0279536
-0.0272772
0.0548042
0.0281926
-0.0557195
0.0277536
-0.0550309
-0.00052934
0.000407161
-0.0331387
0.0124729
-0.0100464
0.0792163
0.0232327
0.00767978
0.069407
-0.0542535
0.098088
-0.113241
0.00480537
0.09266
-0.0974654
-0.00693621
-0.00708864
0.013456
0.000568794
-0.034285
-0.0868929
0.0275044
0.0936734
0.0219929
0.0615958
-0.0243006
-0.059288
-0.0235209
0.11327
-0.0529473
-0.04185
0.0448966
0.0517576
-0.0557596
0.0557662
-6.62063e-06
-0.0390477
0.0367156
0.00233212
0.0397419
-0.0782791
0.0729228
-0.0343856
0.0673922
-0.0839511
-0.00979468
-0.00810889
0.0109674
0.000850991
0.000640722
-0.000572619
-0.000919094
-0.0057312
-0.0426004
-0.00742801
0.00125887
0.00145319
-0.00257941
-0.000132649
-0.0574151
0.0518709
0.0855329
-0.0799887
0.0354314
-0.0333694
-0.00206199
0.0113168
0.0172397
-0.0115577
-0.0169988
0.00420425
-0.000442235
0.0022002
-0.00596221
-0.0643551
-0.000539148
0.0200317
0.0448626
-0.00292286
0.0066874
0.000439711
0.0390735
-0.109411
0.104634
-0.0342968
0.045986
0.0136137
-0.0593734
-0.000226246
-0.00363895
0.00696792
0.00164938
-0.00497835
0.000157379
0.0606262
-0.0607836
0.0378262
0.00637169
0.0151652
-0.0593631
0.00426471
-0.00732145
0.0026145
-0.183068
0.0278911
0.162629
-0.00745286
0.0395585
-0.0110356
-0.0285229
-0.0012308
-0.00152577
-0.00116229
0.00391886
-0.0419763
0.0456169
0.124699
-0.12834
-0.00188438
0.000679707
-0.00196606
0.00317073
0.0916822
-0.00252186
-0.0431744
0.0004932
-0.00123192
0.00205007
-0.00131135
-0.0186853
-0.116332
0.0163209
0.118696
0.00384921
0.0523261
-0.00409032
-0.052085
0.0487295
-0.0703103
0.0604925
-0.0389117
0.0319662
-0.0364978
0.0485738
-0.0440422
0.00844849
-0.00172505
0.00582797
-0.0125514
0.00130523
-0.0443784
0.0532517
-0.0536931
-0.0360564
0.0973535
0.0176667
-0.0244681
-0.090552
0.0472457
0.0181486
-0.134374
0.0689794
-0.00179587
-0.00864757
0.00634331
0.00410013
0.027908
-0.0501011
-0.00324724
0.0289626
-0.0267189
0.00736411
-0.00585544
9.50286e-05
-0.00160371
-0.086336
0.00278146
-0.000450011
0.0719963
-0.150022
0.0784757
-0.0270817
-0.0875519
0.041237
0.0733966
-0.072615
0.02063
0.00294812
0.0490369
-0.0433995
0.0291012
0.0104583
-0.0828202
0.0957789
-0.0129587
-0.0210889
-0.00950892
0.118007
-0.0874096
-0.0035855
-0.00388448
0.00610392
0.00136606
-0.0258029
0.0591837
0.0406491
-0.0721688
0.0280343
-0.000788356
-0.000411184
-0.00102247
0.00222201
0.0467724
-0.0493021
0.0548448
-0.0377086
-0.00713496
-0.0450273
-0.124054
0.0478848
0.0761692
-0.0429213
-0.0325205
0.0276622
0.00307267
-0.0021831
0.000781178
-0.00167074
0.00279381
-0.000375922
0.00065478
-0.0863303
0.00356715
0.0827632
0.0614153
0.0131122
-0.123063
0.0485358
-0.0710629
0.00036218
0.0707007
0.00139048
-0.00176103
0.00833975
-0.00796921
0.0483434
0.156173
-0.226309
0.0217923
0.00183626
-0.00231425
0.00143517
-0.000957188
-0.0916424
0.0649399
0.0265325
0.000170037
-0.00154504
-0.000677164
0.0027194
-0.000497192
-0.00065018
0.00837454
-0.00844606
0.0007217
0.00786799
0.00788336
-0.0149772
-0.000774188
0.0409251
0.012515
0.00303704
-0.00275383
0.00155305
-0.09857
0.105292
0.00748157
-0.014204
0.0120838
-0.066745
-0.0231826
0.0778438
0.00217598
-0.00486717
0.0879386
-0.0852474
-0.0413581
-0.0368819
0.0871025
-0.00886246
-0.0407089
0.0246466
0.0405297
-0.0244674
0.0536602
0.0206311
-0.0721686
-0.00212274
-0.00144603
0.000161463
0.00159922
-0.000314651
-0.123723
-0.0430776
0.0395761
0.127224
0.0484788
-0.0377074
-0.0317696
-0.0376401
-0.0309293
0.100339
-0.00188362
0.00428427
0.000405237
-0.00280589
-0.0310989
-0.0802876
0.0284723
0.0829141
-0.0296621
-0.0286735
0.020627
-0.000781653
-0.00328507
-0.00166422
0.00322642
-0.00376911
0.00220691
-0.00579797
0.00562684
0.0253825
-0.077225
-0.0852804
0.137123
-0.000479676
-0.00022284
0.000375194
0.000327322
0.057283
-0.0603029
0.0479297
-0.0449098
-0.0150393
0.0440534
-0.00760027
-0.0214138
0.0865919
-0.0861525
-0.0186545
0.0182152
0.0265204
0.0224117
-0.0636123
0.0146802
-0.127287
0.0739362
0.0182822
0.0350689
-0.00529505
0.003109
0.000102794
0.00208325
-0.00799715
0.00960116
-0.000213536
-0.0134601
-0.00372794
0.0181021
-0.000914021
-0.0623028
-0.00482121
0.0144715
0.0526525
-0.00865668
0.103017
-0.0050855
-0.0892749
0.00909411
-0.0472389
0.0805709
-0.0424262
-0.00155361
0.00418527
-0.00160418
-0.00102748
-0.0150363
0.000292485
-0.00217975
0.0169235
-0.106794
0.00416376
0.0132992
0.0893308
-9.01186e-06
-0.000314045
0.000611513
-0.000288456
0.0373205
0.00801147
0.0270814
-0.00485986
0.0460936
0.052747
-0.0939808
-0.000144606
0.000546133
-0.000410539
-0.000550096
0.00217079
-0.00146994
-0.000150756
0.0174654
0.110858
-0.0476718
-0.0806517
-0.00023748
-7.65646e-05
0.00017564
-0.00041312
0.0618637
0.0169873
-0.0921722
0.0133212
-0.157177
0.0861033
0.0771292
-0.00605588
-0.0181368
0.000216943
-0.0516938
0.0696137
0.0249735
-0.0147541
0.0168838
-0.0271032
-0.0664538
-0.0231593
0.0896131
-0.0780323
0.0385508
0.0394815
-0.00199802
-0.000327788
0.00053274
0.00179306
-0.0380952
0.0411504
0.00769864
-0.0107538
0.0466143
-0.0545416
0.00792721
-0.0607137
0.0337441
0.0450907
-0.0181211
0.00452591
-0.00265581
-0.00169256
-0.000177547
-0.00323759
-0.00251987
0.000462408
-0.0421964
-0.0418097
0.0465794
0.0141251
0.00255603
-0.0632605
0.00233151
-0.000133313
-0.00191133
-0.000286867
0.00413611
0.00377225
-0.000749386
-0.00715897
0.00711254
0.0223949
-0.0404545
0.0109471
-0.0191318
-0.0154456
-0.00923408
0.0438116
-0.0756306
-0.0101793
0.0298308
0.055979
-0.00177823
0.0150618
-0.00831331
-0.0049703
-0.0530025
0.000512572
0.0333581
-0.000111277
0.0252337
-0.135824
0.126262
-0.0156717
0.0286309
-0.034472
-0.0517138
-0.0271131
0.0548667
4.36113e-05
0.040217
0.00325976
-0.0435203
-0.0552159
-0.059957
0.115173
-0.00316909
-0.0010345
-0.00176753
0.00597111
0.00318364
-0.00475579
0.00170599
-0.000133839
0.0365895
-0.00614787
-0.0280927
-0.00234897
-0.0032459
-0.00229286
0.00236967
0.00383785
-0.0111642
0.0660191
-0.0586927
0.0761805
-0.000211254
0.0276952
0.00952142
-0.00661946
-0.0305972
0.0585771
-0.00079646
-0.0577806
-0.0530067
0.113742
-0.0284227
0.0596955
0.0200959
-0.0513687
-0.0161288
-0.0257419
0.0173615
0.0245092
0.00313996
0.00374941
0.00084251
-0.00773188
-0.0341928
-0.0380022
0.0993353
-0.0271404
0.0444352
-0.0361406
-0.000306044
-0.00798856
-0.0505622
0.115564
-0.0505352
-0.0144665
-0.00140524
0.00168911
-0.000127893
-0.000155976
-0.000728036
0.0216519
-0.00472951
-0.0161944
0.0029933
0.00377445
0.000161311
-0.00692906
-0.00027116
-3.86824e-05
-5.18946e-06
0.000315032
3.77543e-05
2.79133e-05
-0.000336828
-0.00900042
0.0229773
0.0702506
-0.0842275
0.0802712
-0.0803194
4.82275e-05
0.000307042
-0.000331645
2.46037e-05
-0.0127992
0.000966085
0.00228967
-0.00134984
-0.00190591
-0.00840701
-0.00537858
0.00631304
0.00747255
-0.0557607
0.0273379
0.000258953
0.000262475
-0.000800192
0.000278763
0.0337534
0.054795
-0.0348923
-0.0536561
0.0120269
0.159014
-0.179692
0.00865176
0.0583082
0.0633259
-0.0619386
0.00198563
-0.0134374
-0.00178115
0.013233
-0.0334044
-0.030113
0.0635174
0.0311188
-0.0645232
-0.0542804
-0.0447156
-0.0654891
0.164485
0.0499986
-0.0558933
0.00589471
-0.0725381
0.134475
-0.0712251
0.033005
-0.0301694
0.0857485
-0.00366464
-0.0688839
-0.0132
0.0700534
-0.0705356
0.01131
-0.0108277
4.0358e-05
-0.00620874
0.00731093
-0.00114254
0.00139384
-0.00508342
0.00669597
-0.0030064
-0.000223861
0.000183484
0.000698882
-0.000658505
0.022328
0.0231779
-0.0339462
-0.0115597
-0.00532418
-0.00506366
0.00622542
0.00416242
-0.0107322
0.0320705
-0.0430099
0.0216715
0.00108932
-0.00860738
0.0108593
-0.00334122
0.0486608
-0.0041636
-0.0444972
0.0380595
0.0357072
-0.126565
0.0527983
-0.097899
0.0599742
0.0759843
0.0329865
-0.0997667
-0.0468958
0.107904
-0.0371059
-0.0239019
0.00166816
0.00905043
-0.0123846
0.00166601
0.0277749
-0.00274216
-0.0250327
-0.0305195
0.0435979
-0.00371484
0.0201637
-0.03154
0.00102153
-0.000155203
0.00105714
-0.00192347
0.0117254
-0.0384443
-0.000863743
0.000201448
0.00041186
0.000250435
0.0027489
-0.000354765
0.00103303
-0.00342716
-0.000880259
-0.00232107
-0.0782315
-0.0128475
0.00141474
-0.011883
0.0233158
0.0202447
-0.0903984
0.0205159
0.0496379
-0.00327952
0.0580114
-0.0819487
0.0272168
0.000921717
-0.00059947
0.00061362
-0.000935868
0.0791839
0.0125999
0.00226898
-0.0940528
-0.000631015
-0.000796356
0.00167086
-0.000243484
0.00491516
-0.00099148
-0.0692881
0.0653644
0.00655071
-0.00102426
-0.0049112
-0.000615255
0.00642149
0.00454795
-0.00360057
-0.00736888
-0.110433
0.0964649
-0.0875716
0.101539
-0.0544638
0.109725
-0.0552611
0.00222657
-0.0438698
0.00890904
0.0327342
0.00367017
-0.00353842
0.000734953
-0.000866695
0.0493832
-0.00294164
0.00131432
-0.129695
0.00270857
0.0739794
-0.033731
5.53462e-05
0.00111534
0.03135
-0.0251907
-0.00727457
0.0781826
-0.0307745
0.0342089
0.00408034
-0.00504234
0.00015192
0.000810084
0.0339488
0.0234955
-0.0750931
0.0176489
-1.33247e-05
-0.000121502
7.92433e-05
5.55836e-05
-0.000435893
0.00149856
0.00535882
0.000217856
-0.00796735
0.00640518
0.00564251
0.0746222
0.0407512
-0.0370574
-0.0783159
-0.131342
0.141142
-0.00870379
-0.00109625
0.0315634
-0.0325241
0.000960732
-0.0363784
-1.68745e-05
0.000330681
-0.0031453
-0.00222772
0.0147134
0.206712
-0.158944
-0.0624808
0.0292504
-0.0609711
-0.0178363
0.049557
-0.00308872
0.039164
-0.000868271
-0.0855999
0.0473042
-0.022968
0.0100851
-0.0380509
0.0475973
0.046376
-0.0559224
-0.0667317
0.0889053
-0.151446
0.129272
-0.000192057
6.38514e-05
-0.00145298
0.00158118
0.000199672
0.00228315
-0.000632312
-0.00185051
0.0437214
-0.0149725
0.0385537
-0.0673026
-0.00354194
0.000338152
0.00339783
-0.000194045
-0.0119281
0.010746
-0.0368688
0.0120905
-0.0463422
0.00593144
-0.00321733
0.0184001
-0.0211142
-0.135643
0.0182489
0.12795
-0.0105564
0.0347705
-0.0236004
-0.0166003
0.00543017
0.034442
-0.0530904
0.00672035
0.00460732
0.00752934
0.0518967
-0.0640334
0.0246884
-0.00707139
-0.0250571
0.00744012
-0.0791956
-0.00860262
0.0151965
0.00124177
-0.00109578
5.36771e-05
-4.21094e-05
0.00222266
0.00150784
-0.00368839
0.0183718
-0.0320027
0.0383192
0.0179761
-0.143383
-0.0228933
0.1483
-0.112729
-0.0150209
0.0257604
0.101989
0.0571579
-0.0354934
0.029114
-0.0507785
0.110885
-0.00610962
0.00349081
-0.108266
-0.016952
-0.0369502
-0.00414495
-0.0161661
0.0080077
0.0123033
-0.00135052
0.00049226
6.44977e-05
0.000793762
0.0152997
-0.0774468
0.0621471
0.108767
-0.00720652
-0.112406
-0.0263355
0.0556483
-0.0462648
0.0398606
-0.122188
0.0148816
0.0674459
-0.00401078
-0.0123312
-0.0269931
0.0433351
0.0039136
0.0495838
0.0848636
-0.13246
-0.00198763
0.0491729
-0.0829464
0.0891936
-0.0554201
-0.0961838
0.0957235
-0.00701394
0.00747424
0.00205518
0.00445823
-0.0944365
0.0879231
-0.00171536
0.00361616
0.00606833
-0.00796913
0.000235957
-0.000949027
-0.000288973
0.00100204
0.0887701
0.000803338
-0.0175496
-0.0720239
-0.000772752
0.000751233
-9.56092e-05
0.000117129
0.000863652
0.0033161
-0.00233795