/*--------------------------------*- C++ -*----------------------------------*\
| =========                 |                                                 |
| \\      /  F ield         | OpenFOAM: The Open Source CFD Toolbox           |
|  \\    /   O peration     | Version:  2506                                  |
|   \\  /    A nd           | Website:  www.openfoam.com                      |
|    \\/     M anipulation  |                                                 |
\*---------------------------------------------------------------------------*/
FoamFile
{
    version     2.0;
    format      ascii;
    arch        "LSB;label=32;scalar=64";
    class       volVectorField;
    location    "0.0533022";
    object      U;
}
// * * * * * * * * * * * * * * * * * * * * * * * * * * * * * * * * * * * * * //

dimensions      [0 1 -1 0 0 0 0];

internalField   nonuniform List<vector> 
47425
(
(10.165 0.147047 -0.00897286)
(10.0319 -0.132877 0.00783906)
(10.0439 -0.0233415 -0.00784332)
(11.4344 -0.519409 -0.208104)
(12.3954 0.489598 0.71644)
(10.0916 0.0123708 0.00893825)
(12.2922 0.33496 0.689037)
(10.0773 0.0115344 0.00276977)
(10.0051 0.00865124 0.00543121)
(2.84191 5.30331 -0.894051)
(10.054 0.00933414 -0.000869502)
(9.9574 0.0600608 0.0039265)
(12.0902 0.403306 0.2424)
(10.0562 -0.0126111 -0.00235775)
(10.9844 0.344982 -0.130864)
(10.0922 -0.201145 -0.0357929)
(10.067 -0.0123339 -0.00180442)
(8.73815 -0.508804 -1.45766)
(8.64968 1.25404 -4.95369)
(13.3903 -0.471837 -0.993576)
(10.8498 -0.712051 -0.573748)
(9.81146 -0.0495791 -0.0191737)
(9.96694 0.0331432 0.00441781)
(10.0102 0.0163533 0.0107625)
(9.91111 -0.0945586 -0.0153926)
(9.98937 0.042917 -0.0191508)
(9.99214 0.0248011 0.00893935)
(11.4329 -0.326107 -8.70831)
(10.0069 0.0269627 0.00960066)
(10.0404 0.0103521 -0.0104143)
(9.73358 0.726909 0.0777894)
(10.0152 0.10387 -9.07505e-05)
(10.0015 0.00626883 0.0060196)
(10.0025 -0.00378623 -0.00176446)
(9.96301 0.0112259 -0.00581219)
(9.92446 -0.0014697 0.00573366)
(9.75017 -0.0376298 -0.0544963)
(10.0016 0.0166441 0.00771836)
(10.5483 0.365919 0.0176192)
(10.0202 0.0302936 -0.00515189)
(9.87016 0.0837149 0.00995104)
(9.37726 0.285699 -1.09979)
(6.395 -2.11423 -1.46366)
(9.9835 0.013267 0.0051938)
(-0.161432 -0.789532 1.18264)
(10.0004 0.0700334 0.0222602)
(9.97023 -0.0129132 -0.0263724)
(9.99632 0.0309106 0.00493936)
(10.0588 -0.0180746 -0.0113675)
(10.0549 0.0167641 -0.0105583)
(2.1224 -0.573299 -5.76374)
(9.04823 1.02203 1.50248)
(10.0324 0.000985833 0.00448215)
(6.90662 -5.71959 2.64697)
(10.0055 0.0150423 -0.0122086)
(10.1811 0.0148803 0.0470708)
(10.1761 -0.114477 0.0373302)
(10.0647 -0.0116113 0.0256357)
(12.2998 1.27244 1.59223)
(9.99379 0.00782999 0.0204908)
(5.30102 -5.66085 2.07577)
(5.0159 -0.244366 2.44823)
(5.38651 -4.56387 1.06556)
(9.14669 -1.1494 -0.0349382)
(10.0074 0.010421 -0.00683681)
(10.7957 -0.294057 0.028867)
(9.99174 -0.0162727 -0.0067504)
(10.6617 0.0230228 0.454125)
(8.57752 -5.47447 2.77834)
(9.05705 0.537791 0.357248)
(10.8302 -0.530853 0.167113)
(10.0339 0.00417976 0.0194894)
(10.8867 -0.08473 -0.0191524)
(10.7864 0.239185 -0.62025)
(5.10695 2.86898 0.973841)
(9.99891 -0.00377283 0.000667241)
(5.71966 -4.24278 1.84772)
(9.99353 -0.00902075 0.00751383)
(8.04284 -4.30589 2.11605)
(11.7869 0.184628 1.6403)
(5.37337 2.13604 1.04223)
(10.2151 0.300604 0.00962985)
(9.18933 0.0925975 -0.256839)
(10.0114 0.0172205 -0.0071364)
(9.85079 -0.00423144 0.0842701)
(10.2142 -0.0689408 0.0181207)
(10.6779 -0.181871 -0.01773)
(10.1365 0.070456 -0.0218195)
(10.9529 0.632195 -1.75949)
(10.8929 -0.326219 2.35089)
(9.80112 0.394323 -0.0210546)
(10.6397 -0.00304479 -0.0122363)
(10.0486 0.0304615 0.00241994)
(10.1049 -0.0595781 0.0083777)
(10.0449 -0.0490378 0.0117973)
(10.0193 -0.00594868 0.0108186)
(10.0397 -0.0273757 -0.0322298)
(10.2337 -0.254537 -0.00789218)
(10.1526 -0.0190099 0.0101161)
(10.0144 0.0153356 0.0254003)
(10.0405 0.0327078 -0.0103916)
(8.75864 0.113544 -4.01678)
(10.267 0.187728 0.0391963)
(5.31203 1.96673 -0.63046)
(10.2868 0.115761 -0.0278763)
(10.5112 -0.765451 0.153272)
(10.0841 0.165834 0.0380031)
(10.1018 -0.0473077 0.00664244)
(9.38386 -0.0635425 -0.000965101)
(9.92154 0.0771296 0.0273596)
(-2.10825 -2.149 -0.278125)
(10.0531 -0.0972753 0.0318705)
(10.4612 -0.956705 0.253929)
(10.2152 -0.0186184 0.00466085)
(10.821 -0.464421 0.125163)
(1.79142 -4.27302 -5.75887)
(10.8189 -0.43337 0.0991798)
(4.09489 0.0204898 -4.3113)
(10.3474 0.182773 -0.00768212)
(11.0208 0.338951 0.474723)
(10.2932 -0.0454999 0.00184662)
(10.0002 0.00386921 0.00580174)
(10.0036 0.0505071 0.00130314)
(11.7212 0.795786 -0.640907)
(10.0952 -0.0486499 0.00732562)
(10.7381 -0.864159 0.236476)
(10.1407 -0.0818447 0.000400494)
(10.0072 0.00375785 -0.00686792)
(9.97462 -0.00661378 0.0085454)
(9.98822 0.0182626 -0.0193307)
(9.24823 -0.306724 0.349875)
(10.3333 0.46817 -0.0350934)
(4.29515 0.0386248 0.604363)
(10.3359 -0.424314 0.0425282)
(9.76301 -0.340839 -1.08433)
(11.9585 -0.514961 -0.851556)
(10.98 0.751517 0.254015)
(10.7624 -0.862103 0.373891)
(10.1478 -0.0920232 0.0234025)
(11.0599 0.0968526 -0.0361511)
(9.98383 0.00263162 0.00224291)
(12.409 0.126614 0.214008)
(10.5138 0.0427075 -0.0549605)
(10.5301 -1.22349 0.368292)
(10.1984 0.223742 0.0214053)
(10.005 0.00514019 0.00574733)
(11.9403 0.113662 0.993713)
(10.0255 -0.0236554 -0.0064758)
(10.4865 0.0212349 -0.0296721)
(9.97593 -0.0153489 0.00626855)
(10.4501 -1.27627 0.226451)
(2.95487 -0.376651 -6.8152)
(10.0082 0.0150759 -0.00869047)
(5.69114 0.0792442 -11.4051)
(9.025 -1.15783 -0.70416)
(9.97329 0.0416841 -0.000683714)
(10.8871 0.417271 -1.6417)
(7.53199 -3.82743 -2.59889)
(10.0313 -0.0332506 0.0264291)
(10.0034 -0.0362555 -0.00927413)
(11.0961 -0.353742 0.0918611)
(9.99276 0.0372797 -0.0186884)
(10.0064 0.00234086 0.0506619)
(10.1657 0.285707 0.0385685)
(12.2011 0.144208 -0.337985)
(0.456099 -1.80418 -2.05847)
(10.0017 -0.0262036 0.00387025)
(5.5029 2.65504 0.920856)
(9.93598 -0.00840256 0.0191054)
(12.1946 0.680285 -4.18877)
(6.46908 2.05514 0.536181)
(9.97747 0.00556355 -0.00401746)
(10.0028 0.0238328 -0.00283634)
(9.486 -0.968388 -0.623541)
(10.1861 -0.0305362 0.0407351)
(9.30264 -3.05157 -1.26511)
(2.765 0.982757 -7.53927)
(10.0053 0.0243849 0.0135663)
(10.0211 0.0177761 0.018681)
(10.0561 0.00755153 0.0120841)
(2.59269 0.438216 -10.8652)
(10.0364 -0.0921254 0.0106709)
(10.0107 0.019594 0.0105646)
(9.99649 0.0179577 0.0150595)
(10.042 -0.0281319 0.00188616)
(10.0297 0.0113422 0.00149926)
(10.2119 0.0780117 -0.0220413)
(5.66737 -0.452533 -0.565725)
(9.8676 0.00159056 -0.0222776)
(10.0872 0.122052 0.0385744)
(10.0009 -0.00927361 -0.00274187)
(9.97866 0.00210534 0.0145648)
(12.1949 -0.29506 -0.894157)
(9.99708 0.00173958 0.00383285)
(9.99576 0.0137586 0.0326216)
(11.0522 -0.098579 -0.000989932)
(10.0019 0.000971787 0.00749931)
(9.98343 -0.0032722 0.000720218)
(11.2295 -0.0532692 0.0158672)
(10.2358 -0.241874 0.0575208)
(9.97795 -0.00947705 0.0164776)
(10.3197 -0.0269178 0.00482001)
(9.72062 0.130426 0.111977)
(10.9941 -0.242507 0.0141135)
(10.2239 -1.50314 -0.868145)
(10.5646 -0.00976031 -0.0255699)
(10.01 0.000707014 0.0128567)
(10.9816 -0.145436 0.00102984)
(10.0183 0.106599 -0.00950104)
(10.0021 0.0128049 -0.00358968)
(10.207 -0.139544 0.0213108)
(11.0025 0.0985416 -0.0127648)
(10.0069 0.031555 -0.00192448)
(10.0217 -0.0240952 0.0342008)
(10.6226 -0.0587458 0.0304994)
(11.2621 -0.079547 -0.166811)
(10.728 0.016138 -0.0582091)
(10.7426 0.338792 1.66369)
(8.77339 -1.26694 -0.61806)
(9.96154 -0.0165738 0.0101101)
(11.709 -0.262665 1.84942)
(11.0198 0.123713 0.167039)
(9.92754 -1.57052 -0.88868)
(10.778 0.0909296 -0.003568)
(10.5634 -0.00684382 -0.0225465)
(11.78 -0.527488 1.78677)
(10.0353 0.0183238 -0.00241309)
(11.1792 -0.066401 -0.076837)
(11.362 0.336755 0.224391)
(11.8789 0.322755 -0.268718)
(10.7342 0.00976761 -0.0697317)
(10.0174 -0.0328792 -0.0167224)
(10.3711 -0.104965 -0.00860662)
(10.0012 -0.00393048 -0.000238274)
(9.81793 -0.00191141 0.00579649)
(10.0022 0.21535 -0.0168594)
(11.6017 0.289548 1.71122)
(9.97071 0.0360119 -0.00657825)
(11.927 0.298092 1.52284)
(9.7762 -0.00346666 -0.00670999)
(9.87007 -0.0147432 0.0205028)
(10.0097 0.00860888 0.00463743)
(10.0374 -0.019653 0.0169124)
(11.837 0.543234 0.020501)
(10.4536 0.38018 0.0606064)
(10.0074 -0.00311054 0.0122072)
(10.2557 -0.0510439 0.0116569)
(10.0098 -0.00161638 0.00448417)
(10.0196 -0.0148569 0.000133573)
(9.96451 -0.00236861 -0.00571283)
(10.0057 0.0313463 -0.00649585)
(11.7632 -0.144829 1.69902)
(9.92308 -0.00474779 -0.00333822)
(10.0031 0.0042836 0.00590389)
(9.93605 -0.0196697 0.00502403)
(9.93607 -0.00697937 0.0112172)
(9.85143 0.10746 -0.00535252)
(9.76633 -0.00707367 0.00400748)
(10.4412 -0.597327 0.146932)
(10.01 0.00132504 -0.00683549)
(9.75588 -0.00253228 -0.00147388)
(9.9971 0.0197751 -0.00105545)
(10.2246 0.0723129 -0.0167558)
(10.144 0.0227612 0.0208693)
(11.6578 0.185975 0.752834)
(10.0665 -0.470692 -0.0795852)
(10.004 0.0125201 -0.0319867)
(11.7374 0.192912 0.594035)
(10.0011 -0.00486749 -0.0178787)
(10.2475 0.0676922 -0.0274653)
(10.1973 0.0667872 -0.00540526)
(11.992 0.410076 1.2319)
(11.4529 0.412449 1.45238)
(10.1727 -0.145731 -0.00480755)
(11.8394 0.116394 1.59182)
(10.0723 0.00893784 0.0229348)
(11.9118 0.269953 1.42095)
(6.7382 3.34929 2.34656)
(11.414 0.301526 1.53528)
(5.8716 1.25428 -5.0843)
(4.36384 -5.59871 1.91064)
(10.1727 0.134222 -0.017377)
(3.93119 -5.79459 1.2338)
(9.89658 -0.0054754 0.00352607)
(9.99619 0.00202397 0.003066)
(11.2377 -0.134512 0.0758943)
(9.90645 -0.00310972 0.0199192)
(9.989 -0.0284442 -0.00799967)
(9.88772 -0.162913 0.0118155)
(10.8378 -0.608648 0.0139213)
(1.41053 1.74583 -3.4454)
(9.22717 0.803451 0.0814428)
(10.0029 -0.00158162 -0.00212347)
(9.98669 0.0126105 0.00394541)
(10.0305 -0.0332046 -0.0147069)
(10.411 0.326825 0.453578)
(11.8475 0.650492 0.197304)
(10.2226 -0.647741 0.168634)
(10.0682 -0.147633 0.019023)
(11.7894 -0.0992722 0.302752)
(10.0284 0.146353 0.0167501)
(10.0699 0.0179882 0.0423486)
(9.97961 -0.0130425 -0.00638392)
(10.0352 -0.0368332 -0.0085351)
(11.0117 4.01835 -0.311794)
(6.43707 1.81858 0.12841)
(1.48917 1.17661 -6.16175)
(9.97411 0.00356594 -0.0202063)
(10.0721 -0.063805 0.016545)
(10.0679 -0.616767 0.0188844)
(10.1668 -0.532779 -0.158604)
(1.22491 -0.713029 -5.76005)
(9.98959 -0.0160014 -0.0340586)
(9.96749 -0.0186698 -0.0388247)
(10.8426 2.52619 1.32353)
(10.1467 -0.126337 0.0197781)
(9.87446 0.0123051 0.00252405)
(9.81477 0.00250031 0.0159503)
(9.92737 -0.00489307 0.0189991)
(13.0074 2.05264 -0.720976)
(11.1575 2.22503 1.21271)
(9.98377 0.166053 0.0229714)
(10.1245 0.141316 -0.0338321)
(10.012 -0.00994559 -0.0332896)
(10.1999 -0.0242411 0.0117479)
(10.045 0.00946135 -0.00677324)
(10.0677 0.243423 -0.0212225)
(10.0869 0.0654966 0.00511212)
(10.0462 -0.00152251 -0.00688313)
(10.0073 -0.0118643 -0.00203193)
(11.3109 0.0135136 0.272711)
(10.6312 -0.467473 0.286084)
(10.5133 -0.73539 -1.3122)
(9.98714 0.0265379 -0.00584329)
(9.96587 -0.00636838 0.00754399)
(9.98992 0.0214449 0.0407847)
(10.5376 0.0516431 0.29299)
(9.94239 0.131199 0.00187448)
(10.0572 -0.00764391 0.020258)
(10.0088 -0.0109493 -0.0130379)
(10.0165 0.252155 0.00237152)
(10.0297 0.282256 0.00811279)
(10.0892 0.0530143 0.000262338)
(9.92135 0.280239 -0.0153522)
(10.0249 -0.0165526 0.00777155)
(9.99395 0.00881492 -0.0142611)
(10.0539 -0.00374761 0.0216794)
(9.6528 0.403069 -0.165717)
(9.97368 -0.000106697 -0.0145849)
(9.99612 -0.018826 -0.00862066)
(10.0008 0.238244 -0.00069551)
(10.4087 -0.438175 -0.0349843)
(10.1044 0.242045 0.0139918)
(9.93592 0.234545 0.00276547)
(9.99916 0.186597 -0.000349137)
(11.202 -1.2698 -0.0919801)
(9.94848 0.00829085 0.00244084)
(9.2399 0.220176 0.119828)
(9.95796 0.16635 -0.00189407)
(9.99783 0.0227768 -0.00715933)
(9.66246 0.280008 2.0506)
(11.3612 -0.346529 -0.520201)
(10.0639 -0.00624448 -0.0104416)
(9.97195 -0.00962855 -0.0190518)
(10.3609 -0.389114 0.0579356)
(10.5124 0.486483 -0.0291313)
(9.83253 -0.00432871 -0.00940128)
(10.0118 -0.00597611 -0.00535347)
(10.0581 -0.142676 0.0161928)
(10.2334 0.70642 -0.107012)
(9.86547 -0.0124067 -0.01237)
(-0.210987 -0.475743 0.0904558)
(10.6097 -0.07273 0.0357854)
(10.0786 0.942769 -0.0747207)
(9.97933 -0.0016578 0.00749984)
(10.074 0.830205 -0.0481657)
(10.427 -0.257531 -1.05077)
(10.0061 -0.012429 0.00218799)
(10.0033 0.00573185 0.00422005)
(9.78796 -0.0251294 -0.0414471)
(10.0112 0.00294891 0.00477726)
(10.0676 0.837825 -0.107354)
(10.1159 -0.0582933 -0.0297719)
(10.0065 0.0231304 0.00432217)
(9.94777 -0.0111958 0.0100758)
(10.0023 0.0182333 0.00560441)
(10.0251 -0.00992562 0.0124602)
(10.2005 0.185007 0.0329123)
(10.0012 0.00448209 0.00799437)
(9.98554 0.00635043 0.00916292)
(10.4923 0.881628 -0.324339)
(10.3224 1.08514 -0.371591)
(9.9642 0.0133125 0.0113106)
(10.5141 -0.455017 0.0676692)
(9.95629 -0.0340568 0.0222378)
(10.4197 0.823685 -0.288296)
(9.97581 -0.0636428 0.0268909)
(9.94273 0.0194452 0.00862093)
(12.1863 0.12925 -0.600233)
(10.0072 0.0120009 -0.0162696)
(10.457 -0.60953 1.53634)
(10.0282 -0.0111584 -0.0155331)
(10.6719 0.668735 -2.90915)
(9.99079 -0.00486828 -0.0131638)
(10.6024 0.117811 0.0103236)
(9.9723 -0.00721601 -0.0222628)
(10.0186 0.0134447 -0.0193554)
(9.84221 0.0105894 0.00690948)
(10.0433 0.00245884 0.020784)
(9.99047 0.00467325 -0.0178872)
(10.3168 0.964317 -0.288039)
(1.63889 -2.05636 1.61349)
(2.06524 -0.627265 -2.5183)
(10.0538 0.0490956 0.0201563)
(10.3445 1.49087 -0.86929)
(10.682 0.72615 -0.301582)
(10.776 0.68278 -0.294293)
(9.99138 -0.0316222 0.0125701)
(9.97109 0.0120839 -0.00365043)
(9.99126 0.016829 0.0126551)
(9.94265 -0.00938704 -0.00976254)
(9.95259 -0.0226899 0.00854613)
(10.1365 -0.207257 -0.016037)
(10.7795 0.615848 -0.205116)
(9.98149 -0.0167049 0.0123537)
(10.0398 -0.0034445 0.0130845)
(11.3186 -1.26814 0.384814)
(11.4462 0.524 -0.187458)
(11.0745 0.553654 -0.139893)
(8.1164 -1.31054 -5.03464)
(-0.0444559 4.80086 0.748608)
(10.5136 -0.288337 0.0608116)
(7.46419 -0.966011 -5.56326)
(-0.0921765 4.54952 1.09115)
(9.87776 -0.175153 0.0109888)
(-0.165597 4.73955 0.940351)
(8.91772 -1.4432 1.37272)
(10.0264 -0.0138694 0.0049499)
(11.0085 0.639963 -0.309492)
(10.9594 0.692089 -0.335244)
(11.2341 0.610144 -0.302568)
(-1.29421 3.8291 1.29559)
(10.1029 0.117344 0.00485705)
(10.0052 0.0201228 -0.0103891)
(10.0077 -0.00613018 -0.0216187)
(11.3061 0.652569 -0.400436)
(11.1843 0.688518 -0.461766)
(10.0537 0.00405172 0.0219782)
(10.0765 0.100016 0.00854909)
(9.84573 3.61547 2.90506)
(-1.18841 3.78332 1.28291)
(12.8851 -0.408842 -3.00105)
(10.007 -0.0134886 0.00784595)
(8.77157 -0.712994 -3.26196)
(10.0491 0.0826473 1.1473)
(9.98504 -0.0282025 -0.00989099)
(10.9208 0.420018 -0.0469427)
(11.9115 0.326089 0.262101)
(10.9094 0.331497 -0.0383509)
(9.9958 -0.0158445 0.00462007)
(9.99863 -0.00471805 0.00698943)
(9.9829 -0.00662426 0.000695809)
(10.4601 0.354094 0.0160329)
(9.9992 0.0020425 -0.000305166)
(9.99325 -0.0240261 0.0213825)
(10.1511 0.0883693 -0.0354114)
(9.96607 -0.00427894 0.00825068)
(11.0618 0.171595 -0.0431279)
(10.0281 0.00520675 -0.00642889)
(9.99342 0.0414325 0.0252726)
(9.99781 -0.0170745 0.00113972)
(10.0057 -0.0070328 0.00868479)
(9.94797 0.00298547 0.0109317)
(10.3905 0.315127 0.00409233)
(10.1507 0.0551415 0.00388815)
(10.0579 -0.000236456 0.0424156)
(10.9885 0.18937 -0.0475906)
(9.18362 4.27791 2.41027)
(9.96504 0.00672326 0.00546192)
(11.9537 1.58274 -1.34944)
(9.99778 -0.00853528 -0.00148052)
(10.8275 -0.187328 -0.0451611)
(6.56355 -0.937429 1.81522)
(9.75595 1.41096 -0.58606)
(9.98208 0.0542955 -0.0210569)
(9.83223 1.49308 -0.655234)
(10.0079 0.0258826 -0.00233953)
(10.0553 0.00957209 0.019205)
(10.061 1.27734 -0.874525)
(9.98452 0.000380073 0.0138783)
(10.6676 -0.182457 0.0605826)
(9.93497 1.16762 -0.611704)
(10.2492 -0.0565298 0.0431097)
(10.5617 0.026855 -0.263219)
(8.19427 0.277688 -4.13015)
(10.0465 -0.0275204 -0.00864221)
(9.64147 1.88672 -0.59765)
(10.0524 0.0114376 0.0329499)
(9.04684 2.02666 -1.00301)
(10.0707 -0.0823675 0.0185835)
(10.0126 -0.0296176 -0.00395593)
(9.99604 0.0197785 0.00714332)
(9.98142 0.0166865 0.00725554)
(10.8693 0.967111 0.861808)
(9.96375 0.00791655 0.0024596)
(9.98628 0.0215767 0.00609487)
(10.0422 -0.0279335 0.000807023)
(9.98167 0.0377185 0.00197323)
(11.1375 0.566412 0.000294755)
(10.0721 0.0174026 -0.000791605)
(10.0502 0.021568 -0.000760413)
(8.63806 0.249798 -0.587067)
(9.95982 -0.0125072 0.040379)
(9.88078 0.081533 0.000980781)
(10.0637 -0.12433 0.0294667)
(10.0549 -0.00962983 -0.0135041)
(10.106 0.0204827 0.0254139)
(9.9739 0.0219248 0.00856762)
(10.1226 0.0365093 0.00175856)
(10.3369 1.32333 -1.01424)
(10.0043 0.00970975 0.00685347)
(9.98888 0.00461128 0.00270426)
(2.98456 -0.476472 -5.7633)
(10.0424 -0.0108245 0.0167795)
(10.0342 0.00134386 0.00656456)
(10.0335 0.126385 -0.032724)
(10.0043 0.011153 0.00667616)
(12.6441 1.2906 -0.496713)
(12.7524 0.952957 -0.221184)
(9.95592 -0.0187927 -0.00980329)
(9.96733 -0.0890982 0.0156856)
(9.90773 -0.00636378 0.0195042)
(11.2995 -0.0808845 1.23903)
(10.0453 0.0613698 -0.0312408)
(12.7202 1.33402 -0.433287)
(9.99916 0.00641524 -0.0034522)
(-0.957394 -1.1601 2.56932)
(8.16785 -0.522707 -0.67731)
(9.22432 -0.885589 1.90625)
(10.0382 -0.00837004 0.0102792)
(12.6639 1.25028 -0.364221)
(10.0695 0.0363786 -0.0256159)
(10.0871 0.115368 0.0110474)
(10.0212 0.0124462 -0.0643974)
(9.81093 0.0667158 0.143742)
(10.0242 -0.00727357 -0.0017821)
(10.0355 0.0378772 -0.0144154)
(6.95584 -1.08925 -0.193245)
(10.0051 0.00599013 -0.0189338)
(9.9633 0.00029826 0.00482934)
(9.99193 -0.00776513 0.016819)
(12.5429 1.35045 -0.43912)
(10.0537 0.0127707 0.0257308)
(10.0313 -0.0027226 0.00350705)
(12.3697 1.34168 -0.502221)
(12.2745 0.738392 -0.107177)
(10.0395 -0.0108887 0.0182916)
(10.014 -0.0065508 -0.00130542)
(-0.27106 2.00936 0.810065)
(10.0436 0.00137574 -0.00434023)
(10.5967 -0.34179 0.175463)
(9.97858 0.00422976 0.0141289)
(10.0665 0.0182056 0.0362348)
(10.0413 -0.00978121 0.00858794)
(11.9274 0.868382 -0.26688)
(11.149 0.0240905 1.40479)
(9.28536 0.691344 0.841489)
(9.93276 0.0663951 0.11089)
(10.0176 -0.0398561 0.0225645)
(10.008 0.00933198 -0.0184487)
(12.6286 -0.453703 0.409709)
(9.29795 0.167547 -0.402736)
(9.83526 0.0593309 -0.0288893)
(-0.153662 1.84041 0.544976)
(10.0133 -0.0289207 -0.0199091)
(10.0191 0.012806 0.00236696)
(-0.818559 1.72869 0.839107)
(12.0629 1.88323 -1.14992)
(9.86229 0.0976469 0.0239951)
(0.0337915 1.93263 0.505396)
(0.00730318 1.96165 0.775899)
(10.0054 0.0275487 -0.00466489)
(9.99862 0.00982104 0.00160918)
(10.0432 -0.00191385 -0.0125664)
(9.64481 -0.384216 0.0419422)
(9.99672 0.0105136 -0.00268173)
(9.97273 0.00042024 -0.00389971)
(11.2389 0.906671 0.131546)
(10.0163 0.253308 0.045859)
(9.94929 0.0393413 -0.00193171)
(10.0604 0.00623059 0.0235679)
(12.614 0.907435 -0.122837)
(11.8443 1.17627 -0.271285)
(9.96982 0.00669173 -0.000670883)
(10.3874 0.37378 -0.0416499)
(-4.45068 -2.69482 -0.369682)
(-0.546596 -2.31407 0.148388)
(10.736 0.376845 -0.154062)
(9.95898 -0.00309103 0.0082969)
(10.3351 -0.138012 0.136299)
(10.9196 -0.128543 -0.724346)
(9.88622 -0.000940721 -0.0143346)
(9.88567 0.00162463 -0.0120871)
(10.044 -0.0071167 0.0252257)
(10.3181 0.155623 -0.00698861)
(9.97971 -0.0128772 0.00689738)
(10.7463 0.183056 0.262568)
(10.0056 -0.00098461 0.00734043)
(12.9368 0.87105 -0.604554)
(10.3211 1.51081 -1.10482)
(10.6692 0.363131 -0.0856914)
(12.9702 1.05766 -0.9269)
(10.094 0.0617163 -0.0157324)
(10.0002 -0.000539911 -0.00406424)
(10.5134 0.701749 0.149672)
(10.1679 -0.101724 0.0269362)
(10.0179 0.0024047 -0.00220537)
(10.006 0.00639208 -0.00284707)
(10.9878 0.749353 -0.496494)
(7.97704 -0.756489 -1.43644)
(10.0203 -0.00629374 -1.20901e-05)
(10.8209 0.179727 0.0472911)
(9.98398 0.128144 0.0328941)
(11.9145 -5.42562 -2.06522)
(10.5435 -0.840915 0.929608)
(11.5244 -0.121444 0.889708)
(6.36642 0.90496 0.324274)
(6.17139 0.874246 0.168586)
(10.0623 -0.00578076 0.0157405)
(9.89356 0.150282 -0.0106321)
(4.94616 0.748577 -0.17433)
(10.0259 0.00999242 -0.00288119)
(9.97334 -1.74773 -3.44487)
(7.11865 0.557533 2.06672)
(9.98477 0.000855336 -0.00234034)
(9.95585 1.15748 0.634975)
(10.0141 -0.0327954 0.00254567)
(10.0225 0.00232627 0.0195018)
(10.0199 -0.00117116 0.000715016)
(13.132 0.425812 -0.0851955)
(9.97676 0.0104803 -0.00394419)
(9.98479 0.00442441 -0.00114374)
(10.0333 -0.0236129 0.00631496)
(9.87961 -0.00205436 -0.0415779)
(10.0255 -0.0142058 0.0129647)
(10.0414 -0.0117755 -0.00317309)
(10.0398 0.00292748 0.0348646)
(9.96216 -0.00374359 -0.00607892)
(11.1515 0.999565 0.657499)
(9.88453 0.150147 -3.02462)
(12.988 3.39864 1.47304)
(10.7953 0.440454 0.0248393)
(9.75496 1.40442 1.37701)
(10.0289 0.0319975 0.00132981)
(9.38756 -0.967092 0.0934367)
(10.0032 0.0171488 0.00890227)
(10.0004 9.27456e-05 -0.00913437)
(10.0029 0.00257289 -0.00728849)
(9.99971 0.00116576 -0.0070221)
(9.98527 0.0157131 -0.00144489)
(9.14314 0.347763 -0.879855)
(11.3469 0.611931 0.230517)
(9.98581 0.0125835 -0.00467397)
(10.2248 -0.524897 0.126888)
(11.4821 1.47377 1.94633)
(10.0104 0.0269129 2.64217e-05)
(3.8912 0.0576893 1.84741)
(13.1065 -0.995101 -2.86644)
(9.95662 0.0184015 -0.00702957)
(9.3829 -0.582389 0.0434104)
(10.429 0.0334162 0.00282822)
(10.0253 -0.00242187 -0.0276544)
(4.34579 1.08539 1.42369)
(10.0037 -0.00423774 -0.00106657)
(7.79556 -3.29563 0.725114)
(10.0286 -0.00373002 -0.00602316)
(11.5015 -0.191055 1.10395)
(11.9644 0.462247 -0.00187231)
(9.97652 -0.0287778 -0.00324102)
(9.96424 0.00885464 -0.00702232)
(10.2215 0.552048 0.0612959)
(8.58949 -0.587427 -2.2741)
(9.94542 -0.0211793 0.0121817)
(10.0316 0.0105633 0.0249787)
(10.2179 0.00258736 0.00769493)
(11.8883 -0.0860118 0.744248)
(10.0013 0.00406249 0.00215956)
(12.1966 0.442847 0.290393)
(10.3634 -0.0199848 0.014901)
(1.00051 -0.764184 0.313816)
(11.9088 0.394368 0.0997011)
(10.2957 -0.00957287 0.0103986)
(12.0201 0.417394 0.214781)
(10.0007 -0.00353657 -0.0031783)
(10.1136 -0.083187 -0.0165693)
(10.5328 0.373311 0.0235773)
(10.3283 -0.0397512 0.00097209)
(12.2157 0.508207 0.119981)
(9.99832 -0.0186015 0.00179697)
(10.0499 -0.215727 0.0139129)
(12.057 0.465497 0.0555067)
(9.99292 -0.00696745 -0.000463076)
(10.3686 -0.0496261 0.0063463)
(10.0017 0.00889852 -0.00391297)
(10.0194 0.00446929 -0.000808672)
(6.88536 0.362167 -5.14668)
(6.70552 -0.134477 -5.73221)
(9.77608 0.0766785 0.39219)
(8.80778 0.331835 -4.18843)
(10.0072 0.00929472 -0.00432766)
(9.98293 0.0043603 -0.000807022)
(10.774 0.648049 -0.232073)
(10.3543 -0.148696 0.0314069)
(8.60474 0.145492 0.296065)
(10.0252 -0.0102173 -0.00858411)
(10.0517 0.0235584 -0.0111478)
(9.9595 -0.0181787 0.00338497)
(9.9923 0.0337786 -0.0174684)
(5.28284 0.234743 -6.38566)
(2.8132 -0.578732 1.14488)
(9.95256 -0.0139001 0.0044013)
(10.0184 0.0501869 0.000445713)
(9.96598 -0.0574053 -0.0184885)
(9.94179 0.00794626 -0.0031947)
(10.1248 -0.123903 0.0348189)
(9.94242 -0.0207142 0.00280456)
(11.1602 -0.108854 0.0284941)
(11.718 -1.39682 1.79145)
(10.0889 -0.00284664 0.0133671)
(10.0522 0.0243635 -0.0243174)
(9.97275 -0.0293041 -0.00943369)
(10.0096 0.0232705 0.00527594)
(9.75033 0.215873 0.0377467)
(9.9959 -0.0275515 -0.0182554)
(10.5847 -0.195382 0.0112024)
(9.96322 -0.0152781 -0.0304596)
(10.0178 -0.00751805 -0.01997)
(10.0539 0.0188759 0.000829414)
(9.25786 -0.862853 -1.24863)
(5.16404 0.719496 -4.81049)
(10.0327 -0.0641213 -0.00559367)
(-0.195701 -1.87046 0.58843)
(10.1182 -2.64719 1.20156)
(13.0336 -1.30628 -1.05377)
(-0.134181 -2.00371 0.452828)
(10.2478 0.0471144 0.0231448)
(5.55805 -0.239691 0.886149)
(10.464 -0.473945 -2.57036)
(10.9866 -1.47685 0.419745)
(5.6999 0.305187 -3.77843)
(-0.398194 1.84098 1.3802)
(1.50746 0.608133 -3.5762)
(11.2858 -0.0351307 0.519332)
(10.7007 -0.0322254 -0.0358663)
(10.8832 -0.0184833 1.18126)
(9.92424 0.00591446 -0.00278302)
(3.75883 -0.213693 -0.282576)
(10.7641 -0.00150188 -0.329591)
(10.6281 -0.0253148 0.0221114)
(10.0011 -0.0209121 0.0168666)
(10.0132 0.0171458 -0.0309447)
(11.309 -0.108699 1.12533)
(9.92471 0.111598 0.0431154)
(10.1496 -0.0371927 0.0162269)
(9.96442 0.058216 -0.0116179)
(-1.28845 1.11162 0.377685)
(8.11174 0.255815 -2.49429)
(10.0185 -0.00494602 0.0032177)
(9.98467 -0.00482046 0.00422176)
(5.0552 0.286498 -2.39823)
(5.95371 0.146864 -3.05965)
(10.9651 -0.527463 -1.71356)
(-3.135 -3.3973 -1.10689)
(3.79604 0.510356 1.70085)
(4.08662 -0.005575 -3.88766)
(3.81585 -0.0753706 -4.75442)
(10.006 -0.00402738 0.00911933)
(9.769 0.00180859 0.0062212)
(9.46098 -0.0340031 0.0899379)
(10.0053 -0.0349412 0.0115832)
(10.42 0.0414914 -0.0414415)
(-0.44182 2.01074 0.760378)
(10.8915 -0.0943051 -0.254549)
(10.4744 0.0367013 -0.0434841)
(10.3583 0.0409603 -0.0337068)
(10.0608 0.0271234 0.00367187)
(-0.35098 1.94792 1.59652)
(-0.462553 2.19652 1.56921)
(10.0406 0.00730638 -0.0250128)
(10.4439 0.00324973 -0.0528499)
(9.93017 0.0455042 0.0119859)
(10.0012 0.00903039 -0.0153097)
(10.3914 0.0192169 -0.0344784)
(10.0224 0.0169907 -0.0297333)
(9.6967 -0.0236271 -0.0298808)
(10.0352 0.0112513 -0.0386368)
(9.99992 0.00476584 -0.0153592)
(6.94785 -0.685332 -3.12933)
(10.0312 0.00803627 0.00232948)
(9.99655 0.0222379 0.0344219)
(10.0284 -0.0264972 -0.0142111)
(9.88246 0.0258545 -0.00639721)
(9.9022 0.0242502 -0.00805063)
(4.25389 -0.503135 -2.40428)
(12.5499 -1.3387 -0.443726)
(10.0134 -0.00711232 -0.00182044)
(10.77 0.4039 -0.208935)
(10.0338 0.0298009 -0.0107247)
(9.74379 -0.351321 0.12474)
(9.72524 -0.429782 0.181078)
(12.064 -0.065876 -0.0528083)
(9.90975 0.00390166 -0.00690765)
(-0.306191 -1.07188 2.02423)
(12.1614 -0.138081 -0.0632287)
(10.4542 0.0769555 0.0154127)
(10.7785 0.355301 -0.0396037)
(8.12305 0.297352 -3.42756)
(11.9195 2.7804 1.15495)
(9.98917 -0.0313131 -0.00173808)
(9.99409 -0.0295387 0.000323265)
(11.7911 1.61679 2.07482)
(10.0339 -0.00639904 -0.0214313)
(10.002 0.0310222 0.00190788)
(11.0422 0.616213 0.359237)
(9.98514 -0.0312294 -0.00363823)
(9.98356 -0.00291991 0.00159086)
(-1.96046 0.477123 2.50621)
(12.514 0.302591 0.0489137)
(11.2945 3.28994 -0.174999)
(10.0019 0.000727681 0.004928)
(7.66698 0.53078 -2.66596)
(9.96776 0.00933827 -0.00414277)
(11.9259 -0.328174 -0.278046)
(9.57179 -0.419676 0.289019)
(12.1102 -0.0813572 -0.0247062)
(9.90162 0.00697946 -0.000685004)
(9.38282 -0.456236 0.253014)
(-1.20908 0.292612 2.66784)
(11.8116 1.7225 2.53944)
(12.3471 -0.378174 -0.8372)
(-0.946813 1.74287 1.66398)
(12.0623 0.325639 0.219882)
(10.4259 0.173828 0.0586008)
(9.92521 -0.0120304 0.0104439)
(12.1233 0.204872 -0.21702)
(9.97134 0.0101108 0.000320733)
(12.2422 -0.0912811 0.150867)
(-0.161824 -1.18919 1.24387)
(9.98278 0.00991664 -0.000895435)
(12.7344 0.0460923 -1.18983)
(9.9642 0.00429362 0.0260211)
(9.94683 0.00423629 0.0174078)
(11.3414 -1.72631 0.588786)
(9.96109 -0.000399479 0.0140362)
(10.145 0.111919 -0.024189)
(8.22131 -5.82894 0.154314)
(9.57295 0.41119 0.0694542)
(9.99999 -0.247809 -0.00243265)
(12.5408 -0.775148 0.157955)
(10.4989 1.42822 1.40087)
(10.0351 -0.00193241 0.0379643)
(11.8185 -2.54777 -0.810277)
(5.25545 -0.846696 -0.124147)
(10.6738 0.0401304 0.0479084)
(9.62324 -0.728995 -0.868403)
(9.99559 0.0895683 0.011848)
(10.4389 0.18277 0.0152143)
(9.98215 -0.00999225 0.0161569)
(9.983 -0.0118198 0.0067897)
(1.4917 1.81133 -0.797847)
(1.07211 -4.15056 1.78838)
(12.3431 -0.492399 0.0538078)
(10.1052 -1.65579 -0.370898)
(12.2287 -1.42373 -0.26933)
(1.44609 4.55481 1.15512)
(-1.73401 0.557778 1.21417)
(9.61595 -3.60474 4.34499)
(9.97362 -0.0085091 -0.000355482)
(10.0035 0.0119697 -0.00898642)
(9.98902 0.0136221 -0.003726)
(9.85232 -0.0600619 -0.0497727)
(5.13179 0.783681 -1.66286)
(9.67261 -0.553247 0.173502)
(9.03147 -0.644592 1.09963)
(9.98811 0.0200991 -0.00858764)
(-0.769145 -1.5556 0.370996)
(12.1888 -0.0782636 0.0114417)
(10.0008 0.211671 -0.212952)
(10.0792 0.0420106 0.0146674)
(10.011 -0.0398666 0.0226009)
(10.0809 0.0389741 0.0112225)
(6.27863 -1.84499 -3.18112)
(10.0048 -0.00307413 -0.00641794)
(5.60825 5.25157 0.0445428)
(10.0244 -0.000794735 -0.000468487)
(10.1972 -0.574894 -3.06411)
(9.9883 -0.00377907 -0.00272238)
(9.99953 -0.00634911 -0.0059806)
(10.0112 -0.00953148 -0.00430852)
(10.019 -0.00869248 -0.00819287)
(9.98808 -0.0119682 0.0030967)
(12.8224 1.09311 0.246423)
(12.0656 0.242341 0.757812)
(9.01927 1.4661 2.48065)
(7.10819 4.07154 2.49363)
(9.40447 1.19291 0.517572)
(10.3933 0.523817 -0.0616491)
(11.2313 1.07972 0.0411886)
(6.59804 -0.37743 -2.90496)
(10.5384 -0.130688 0.0459478)
(12.3 -0.161071 -0.0151768)
(10.4732 -0.746369 0.138159)
(11.9665 0.0278405 -0.0448423)
(8.14326 -0.12589 4.58662)
(5.39729 -1.45904 1.61938)
(10.5559 -0.240331 0.206679)
(9.99937 -0.00934636 0.00494649)
(9.53798 0.899927 -0.292524)
(10.0052 -0.00550571 0.009733)
(10.1271 -0.00682317 0.00123281)
(13.4566 -2.37407 2.76091)
(12.2422 -0.541357 0.795488)
(-1.75324 2.96597 0.403953)
(10.1591 -0.892919 0.262556)
(11.7698 -1.03276 -0.377344)
(10.4441 -1.09154 -1.131)
(10.5939 -0.215722 1.68894)
(10.175 -0.0092803 0.00890296)
(-4.01302 -2.99587 1.43443)
(10.0131 0.000265724 0.00645184)
(10.0668 -0.00548398 0.00248349)
(10.4199 -0.0663818 0.81892)
(9.74152 -0.0788362 4.89751)
(10.1916 -0.0193947 0.0147715)
(10.2459 0.545094 -0.3989)
(9.98862 -0.00489584 0.00170545)
(10.6071 -1.29258 0.624765)
(10.5995 0.094962 1.11696)
(9.96168 -0.0203068 0.00122884)
(11.0173 -0.393641 -3.02693)
(10.2607 0.893863 -2.33156)
(12.4598 0.399447 1.47255)
(10.6949 0.514226 -0.129691)
(9.55294 0.121176 0.29859)
(3.14094 0.969341 -3.75222)
(0.482305 3.10962 3.2379)
(5.3207 3.20376 0.793087)
(13.1094 -0.82832 -2.72691)
(5.31876 -0.572266 -0.122146)
(9.81491 -0.00208295 -0.0580184)
(9.89185 -0.0194805 -0.00292808)
(8.39785 1.72127 2.80437)
(9.96023 -0.0105455 -0.0013897)
(4.49916 -0.77306 -0.193723)
(9.85152 -0.00410666 -0.0391014)
(9.83875 -0.00989638 -0.041299)
(-0.262423 -0.703934 0.571455)
(9.62344 -1.26848 0.874331)
(10.8947 -0.480719 0.139692)
(9.97842 0.00840489 0.00457061)
(9.99467 0.0194662 0.00561554)
(8.27789 0.296662 -2.83442)
(10.0272 0.0174595 0.0230257)
(9.94966 0.00132693 -0.0120023)
(10.0353 0.930749 0.986949)
(12.3131 -0.718481 -2.83279)
(10.2513 0.336014 0.0588805)
(9.89162 0.0743568 0.00562655)
(9.91021 -0.109635 -0.00136264)