/*--------------------------------*- C++ -*----------------------------------*\
| =========                 |                                                 |
| \\      /  F ield         | OpenFOAM: The Open Source CFD Toolbox           |
|  \\    /   O peration     | Version:  2506                                  |
|   \\  /    A nd           | Website:  www.openfoam.com                      |
|    \\/     M anipulation  |                                                 |
\*---------------------------------------------------------------------------*/
FoamFile
{
    version     2.0;
    format      ascii;
    arch        "LSB;label=32;scalar=64";
    class       volScalarField;
    location    "0.0380695";
    object      k;
}
// * * * * * * * * * * * * * * * * * * * * * * * * * * * * * * * * * * * * * //

dimensions      [0 2 -2 0 0 0 0];

internalField   nonuniform List<scalar> 
3927
(
0.335478
0.373989
1.08537
0.552835
0.341286
0.864878
0.823475
0.365955
0.345054
0.375089
0.337947
0.346838
0.348095
0.464676
0.348532
0.820792
0.357749
0.358886
0.37703
0.860379
0.531746
0.668283
0.549299
0.437332
0.38151
0.372208
0.340341
0.339923
0.803323
0.381072
0.380266
0.339518
0.375337
0.343161
0.364386
0.362156
0.395653
0.349463
0.451131
0.376863
0.35615
0.580012
0.345764
0.392334
0.361551
0.583581
0.392744
0.598982
0.350105
0.378451
0.363199
0.471461
0.574217
0.336905
0.339608
0.342377
0.392878
0.492163
0.350423
0.365069
0.514364
0.363574
0.418768
0.376601
0.36577
0.35777
0.351434
0.374905
0.464545
0.68462
0.361981
0.357501
0.640787
0.43532
0.567283
0.518605
0.487678
0.408154
0.397429
0.38531
0.336049
0.698403
0.370039
0.362317
0.403885
0.354518
0.340418
0.764681
0.894123
0.580707
0.848016
0.517924
0.335058
0.356527
0.349879
0.66182
0.892133
0.376798
0.365414
0.514343
0.474847
1.32336
0.395545
0.919606
0.372082
0.358082
0.34651
0.352387
0.377686
0.358278
0.356261
0.741864
0.427044
0.33701
0.535308
0.87801
0.351958
0.371688
0.533262
0.336183
0.397321
0.341341
0.369348
0.751915
0.349321
0.351722
0.344583
0.344224
0.34722
0.331508
0.334313
0.692779
0.809675
0.818813
0.824867
0.505382
0.421219
0.461887
0.883327
0.369132
0.856209
0.887654
0.371704
0.408822
0.340637
0.931001
0.892299
0.883644
0.380301
0.383324
0.354297
0.357053
0.360947
0.349048
0.39146
0.335925
0.878442
0.375158
0.358071
0.358702
0.395186
0.342783
0.378121
0.351065
0.693193
0.497633
0.53941
0.794859
0.444875
0.767711
0.38852
1.03215
0.831059
0.900356
0.514525
0.862385
0.950323
0.72673
0.947804
0.414922
0.345095
0.637554
0.39509
0.9596
0.560329
0.39719
0.373038
0.796779
0.558449
0.385364
0.384382
0.461876
0.74891
0.352759
0.360853
0.734548
0.369659
0.923624
0.830055
0.376424
0.42951
0.45389
0.339085
0.450341
0.543904
0.500059
0.393639
0.887797
0.340337
0.350989
0.424468
0.684893
0.51897
1.0016
0.452747
0.431987
0.552647
0.764998
0.551994
0.437641
0.838045
0.40913
0.48179
0.538299
0.817084
0.964852
0.458431
0.588959
0.451211
0.358831
0.383074
0.35573
0.37712
0.377904
0.366212
0.380146
0.57342
0.33811
0.363635
0.436854
0.396511
0.592346
0.841688
0.72209
0.371496
0.799594
0.342754
0.460984
0.370893
0.362635
0.607682
0.394648
0.361371
0.338846
0.336249
0.382152
0.362594
0.439797
0.405628
0.412024
0.379952
0.496517
0.374073
0.457652
0.413499
0.488525
0.646612
0.614676
0.557607
0.35694
0.548447
0.598099
0.370627
0.358422
0.351028
0.435722
0.365776
0.335635
0.382152
0.362238
0.714744
0.388445
0.357857
0.564945
0.435437
0.672666
0.434794
0.820848
0.654398
0.380616
0.824488
0.620125
0.405973
0.356533
0.367587
0.420759
0.6426
0.792185
0.574373
0.695932
0.407794
0.6633
0.688832
0.426419
0.383929
0.395361
0.473881
0.452748
0.811208
0.376081
0.384392
0.618646
0.413457
0.390278
0.339917
0.404766
0.591456
0.383449
0.335833
0.425374
0.576725
0.868981
0.389261
0.464368
0.433727
0.34412
0.5356
0.422122
0.618921
0.404295
0.445719
0.367414
1.02088
0.777243
0.805285
0.343411
0.78008
0.688686
0.334197
0.356878
0.831187
0.379568
0.732682
0.488192
0.346925
0.391851
0.388531
0.465528
0.588213
0.686499
0.382905
0.437742
1.17968
0.670194
0.390381
0.43667
0.340378
0.790488
0.823557
0.369411
0.456046
0.564413
0.718221
0.366315
0.479234
0.490457
0.392275
0.605745
0.956181
0.792263
0.673058
0.42316
0.345049
0.496961
0.379845
0.397184
0.42942
0.41124
0.735575
0.756464
0.427806
0.732513
0.895028
0.468479
0.385927
0.42201
0.440891
0.5753
0.339961
0.694661
0.448558
0.587968
0.432455
0.553318
0.78836
0.394366
0.733374
0.383111
0.457839
0.845177
0.500202
0.628571
0.790834
0.435447
0.577333
0.370744
0.575434
0.342448
0.426972
0.862602
0.453625
0.403447
0.339278
0.464395
0.336622
0.337265
1.12958
0.588504
0.792231
0.384085
0.546456
0.33158
0.447727
0.439729
0.343518
0.449746
0.758633
0.46484
0.403485
0.888804
0.490556
0.473708
0.588077
0.470551
0.45784
0.566872
0.702905
0.440505
0.344663
0.495778
0.341304
0.347748
0.697474
0.822103
0.344359
0.715928
0.343391
0.487705
0.354078
0.36857
0.715517
0.366833
0.486482
0.769039
0.523253
0.480513
0.375643
0.600267
0.389118
0.541642
0.810658
0.425167
0.647745
0.354286
0.695884
0.538165
0.417087
0.832242
0.987234
0.694227
0.622006
0.43881
0.916571
0.400266
0.559076
0.742035
0.683715
0.380057
0.386185
0.34469
0.354407
0.361647
0.338248
0.364276
0.368659
0.354364
0.816439
0.410794
0.498348
0.365752
0.678364
0.358343
0.352918
0.356571
0.400907
0.596921
0.651957
0.482934
0.679184
0.7944
0.491698
0.6283
0.846882
1.0237
0.403404
0.886228
0.713724
0.413709
0.419995
0.414792
0.480644
0.409471
0.483999
0.365153
0.382202
0.428947
0.711689
0.378067
0.35546
0.666876
0.947601
0.739415
0.492906
0.740813
0.379312
0.496344
0.850534
0.353277
0.533582
0.412605
0.396263
0.390446
0.535263
0.412578
0.444247
0.44054
0.35639
0.372892
0.430946
0.458777
0.48664
0.415552
0.525625
0.52537
0.64689
0.46724
0.500599
0.594138
0.526353
0.36021
0.513352
0.636121
0.66787
0.349686
0.372076
0.506394
0.575446
0.525911
0.482965
0.451556
0.718775
0.555375
0.784329
0.59553
0.50189
0.908986
0.867013
0.447797
0.545142
0.590604
0.387513
0.482176
0.337416
0.340584
0.340014
0.341457
0.340045
0.348106
0.340804
0.338274
0.357796
0.352323
0.34356
0.337507
0.339087
0.340325
0.339914
0.659408
0.922037
0.448773
0.351419
0.374242
0.331158
0.422797
0.327911
0.419792
0.392524
0.519617
0.67422
0.508579
0.611589
0.438377
0.648917
0.725709
0.519616
0.513265
0.588832
0.554205
0.553064
0.543466
0.806235
0.727254
0.356616
0.339451
0.334612
0.356204
0.347129
0.359804
0.341199
0.409689
0.509232
0.428664
0.409485
0.414279
0.422148
0.54077
0.518617
0.340893
0.55308
0.586067
0.579337
0.65623
0.667602
0.476272
0.411455
0.44134
0.39072
0.417681
0.402493
0.409903
0.359283
0.352886
0.353782
0.352632
0.352561
0.338082
0.367978
0.359144
0.341854
0.33656
0.551904
0.421937
0.751012
0.366624
0.360874
0.364352
0.560018
0.567149
0.773177
0.957811
0.358385
0.668456
0.508299
0.49128
0.503181
0.522444
0.792384
0.334555
0.367986
0.369806
0.329335
0.334628
0.332442
0.356054
0.342645
0.347046
0.351752
0.339216
0.341557
1.23224
1.26333
1.04748
1.17964
0.732931
0.576789
0.693505
0.555165
0.676554
0.596816
0.45434
0.493392
0.343697
0.36168
0.358292
0.448221
0.530139
0.444765
0.409499
0.415992
0.3915
0.383094
0.387885
0.514481
0.385109
0.421221
0.381115
0.345531
0.380351
0.392909
0.349117
0.355637
0.384324
0.371893
0.352992
0.390602
0.394718
0.374571
0.374329
0.383116
0.368172
0.379831
0.376466
0.343817
0.335674
0.336708
0.92936
0.749169
0.679447
0.991548
0.773385
0.552761
0.617015
0.357396
0.597136
0.476678
0.428488
0.445318
0.516605
0.494584
0.354692
0.653779
0.339433
0.967714
0.95324
0.79884
0.847242
0.696833
0.604442
0.571134
0.354139
0.815636
0.413716
1.05586
0.778128
0.694684
0.461393
0.398558
0.583934
0.545505
0.443544
1.08698
0.526236
0.605727
0.509798
0.432132
0.45547
0.905908
0.414471
0.421892
0.511788
0.777256
1.03801
0.626485
0.77612
0.457201
0.425912
0.375489
0.481869
0.360326
0.396081
0.370514
0.3916
0.727078
0.550037
0.516524
0.445696
0.561121
0.80852
0.987062
0.515544
0.49579
0.517921
1.08066
0.715699
0.395672
0.46951
0.643125
0.48479
0.581831
0.851015
0.962831
0.608329
0.344764
0.758452
0.681678
0.59413
1.17212
0.938768
0.347783
0.768678
0.587367
0.586983
0.786607
0.362478
0.743738
0.732427
0.772981
0.601708
0.414634
0.495231
0.374867
0.351186
0.333367
0.359672
0.358797
0.346689
0.373936
0.341383
0.341629
0.36899
0.764508
0.955
0.364504
0.884956
0.407946
0.34046
0.38423
0.41842
0.407215
0.435006
0.419198
0.400561
0.920702
0.366415
0.33687
0.405233
0.437562
0.349678
0.76339
0.492272
0.7942
0.336951
0.572663
0.709938
0.547184
0.375044
0.546598
0.354628
0.501486
0.631011
0.579754
0.428581
0.433862
0.414562
0.391405
0.565256
0.39971
0.423914
0.46848
0.449049
0.352123
0.457571
0.947464
0.365332
0.460011
0.405233
0.544542
0.414427
0.477794
0.758542
0.62294
0.391667
0.330194
0.405598
0.346911
0.403178
0.519489
0.79656
0.820474
0.82851
0.510649
0.727417
0.526163
0.880741
0.574228
0.58328
0.340013
0.534794
0.37159
0.357528
0.748662
0.374631
0.369826
0.373939
0.673343
0.529944
0.344211
0.343851
0.459476
0.902573
0.34236
0.598366
0.578603
0.380023
0.401344
0.383796
0.926316
0.737349
0.361436
0.373739
0.406298
0.54301
0.340016
0.352077
0.515425
0.416434
0.382874
0.395689
0.505705
0.511431
0.355446
0.378032
0.367001
0.329113
0.688062
0.351416
0.521634
0.540042
0.713168
0.550834
0.430463
0.489372
0.528345
0.366798
0.337928
0.356838
0.617853
0.526926
0.624459
0.434747
0.643726
0.582895
0.756926
0.48198
0.342452
0.359059
0.364649
0.390234
0.966815
0.342284
0.404029
0.367951
0.365656
0.356253
0.504614
0.845039
0.344465
0.943791
0.339221
0.386647
0.360225
0.355773
0.428047
0.34705
0.424159
0.404121
0.361482
0.328798
0.835225
0.336734
0.97263
1.06374
0.376355
0.369788
0.446541
0.449552
0.533846
0.472707
0.363844
0.333943
0.354516
0.525227
0.500683
0.56192
0.441304
0.932242
0.604009
0.812458
0.841201
0.34143
0.963319
1.13709
0.770745
0.531483
0.35443
0.557508
0.376817
0.819577
0.528988
0.351355
0.453075
0.588906
0.473303
0.423035
0.503882
0.346927
0.470288
0.438387
0.934346
0.541452
0.459431
0.60002
0.368047
0.353621
0.358175
0.513453
0.350835
0.363152
0.688755
0.600471
0.451103
0.510239
0.411723
0.842773
0.398305
1.1961
0.782179
0.496382
0.364812
0.363023
0.35708
0.844938
0.488012
1.04119
0.507341
0.35638
1.0279
0.460888
0.790603
0.952712
0.323748
0.37535
0.385017
0.35281
0.545185
0.912701
0.376708
0.796406
0.516063
0.799703
0.556172
0.808937
0.391606
0.340088
0.534211
0.876744
0.758179
0.396675
0.612867
0.606671
0.357718
0.558351
0.793604
0.609316
0.340043
0.482675
0.787336
0.726778
0.444232
0.407735
0.351862
0.349874
0.866857
0.814595
1.16766
0.375957
0.619312
0.969467
0.360552
0.936732
0.719912
0.794352
0.394748
0.344375
0.345474
0.356733
0.964704
0.87137
0.834283
0.875594
0.483719
0.90786
0.356221
0.397702
0.36092
0.836391
1.15443
0.758248
0.570779
1.04401
0.341064
0.375039
0.370974
0.379055
0.673649
0.395155
0.362371
0.414421
0.535539
0.353689
0.396611
0.329169
0.423144
0.355276
0.498089
0.354815
0.400875
0.831053
0.586986
0.481367
0.792582
0.351662
0.741592
0.382505
1.02197
0.41027
0.335006
0.84756
0.542198
0.735992
0.330642
0.349538
0.654776
0.627366
0.52433
0.539156
0.693022
0.716922
0.540736
0.577844
0.378498
0.362255
0.421861
0.369959
0.452656
0.333186
0.3662
0.374894
0.391217
0.387955
0.368327
0.384823
0.595508
0.591969
0.357856
0.501652
0.513192
1.01903
0.874835
0.698203
0.608071
0.347602
0.704964
0.351792
0.364179
0.354541
0.479948
0.376111
0.373507
0.355318
0.485601
0.70077
0.692813
0.459594
0.390198
0.608208
0.415942
0.39575
0.339703
0.483372
0.40099
0.428032
0.659401
0.492629
0.675976
0.540891
0.754842
0.434765
0.366323
0.870072
0.358515
0.823792
0.383573
0.660763
0.561722
0.44807
0.393195
0.659748
0.849588
0.782497
0.395454
0.419111
0.359995
0.380955
0.365082
0.350358
0.375637
0.386024
0.542468
0.591885
0.680453
0.385522
0.483666
0.438798
0.375748
0.454345
0.384868
0.391409
0.504338
0.524412
0.574417
0.844492
0.59084
0.820942
0.409271
0.814124
0.56137
0.450209
0.778383
0.541899
0.502673
0.344972
0.408363
0.345052
0.345089
0.342114
0.341431
0.34071
0.398727
0.371086
0.703395
0.774632
0.752558
0.689403
0.454888
0.34703
0.64618
1.38714
0.379416
0.349528
0.446267
0.759027
0.472389
0.846891
0.383647
0.35302
0.343912
0.94624
0.493288
0.819526
0.401826
0.388246
0.407601
0.44537
0.456326
0.625266
0.414976
0.692535
0.632085
0.595465
0.343632
0.367501
0.525945
0.360001
0.353146
0.360333
0.355303
0.339873
0.431524
0.346093
0.352222
0.346145
0.455252
0.378999
0.415546
0.339351
0.65062
0.636728
0.762961
0.825792
1.02098
0.346988
0.44367
0.400399
0.427658
0.384159
0.558322
0.608125
0.386916
0.760764
0.766497
0.566869
0.34274
0.43768
0.549749
0.867386
0.726046
0.354829
0.36252
0.343041
0.384698
0.348311
0.348915
0.339297
0.343051
0.340108
0.342717
0.339949
0.35465
0.364528
0.400302
0.349133
0.354173
0.341726
0.40378
0.345324
0.359635
0.339468
0.353493
0.363357
0.345335
0.347692
0.344733
0.346368
0.416522
0.329964
0.344721
0.358105
0.363552
0.347268
0.337052
0.342921
0.33958
0.48871
0.375217
0.337617
0.395642
0.341682
0.340782
0.341384
0.426025
0.438439
0.345433
0.368199
0.338183
0.343868
0.351317
0.363737
0.340682
0.368553
0.752769
0.514579
0.555279
0.350427
0.354442
0.346482
0.359273
0.607067
0.379936
0.903893
0.83969
0.373081
0.342483
0.352728
0.742185
0.335664
0.376306
0.348574
0.384386
0.936155
0.714757
0.336915
0.469918
0.75626
1.10085
0.650253
0.819233
0.554386
0.980234
0.786984
0.60053
0.626785
0.53983
0.427193
0.86316
0.348116
0.973156
0.758136
0.74329
0.773545
0.85007
0.536546
1.00736
0.486555
0.400221
0.600863
0.890699
0.375416
0.786509
0.901771
0.547791
0.358444
0.453349
0.827202
0.736723
0.719213
0.767934
0.744448
0.662029
0.773144
0.716022
0.661564
0.647182
0.58658
0.611119
0.476564
0.84766
0.360512
0.861122
0.353531
0.35162
0.356762
0.773917
0.681777
0.830112
0.870531
0.459149
0.35268
0.345105
0.358437
0.32492
1.59058
0.580093
0.949973
1.13222
0.566121
0.914526
0.795431
0.906193
0.359009
0.353074
0.368815
0.773412
0.892738
0.340149
0.334891
0.62464
0.365607
0.40891
0.368889
0.47631
0.36377
0.756463
0.789094
0.513958
0.36195
0.830319
0.425018
0.492738
0.348394
0.352337
0.327818
0.920985
0.904437
0.921387
0.763815
0.333036
1.07001
0.745622
0.497054
1.02125
0.975421
0.813085
0.563302
0.843939
0.510723
0.599949
0.409362
0.373873
0.469856
0.508412
0.598577
0.422522
0.87385
0.408995
0.409628
0.355252
0.332433
0.348744
0.339546
0.33104
0.33031
0.371278
0.599642
0.67591
0.835454
0.754083
0.448317
0.359088
0.347319
0.343223
0.353411
0.399597
0.333743
0.418232
0.382153
0.334071
0.360551
0.683824
0.556988
0.475288
0.456006
0.498224
0.396475
0.432796
0.773334
0.402414
0.400674
0.439337
0.369512
0.395825
0.33315
0.642489
0.739379
0.335346
0.395611
0.34215
0.339271
0.366794
0.375942
0.368783
0.343538
0.337601
0.393358
0.390043
0.721426
0.344205
0.413225
0.343496
0.352478
0.347465
0.348683
0.339995
0.446735
0.676565
0.415838
0.381785
0.367362
0.473075
0.370408
0.358315
0.407361
0.700375
0.449138
0.443116
0.371486
0.389944
0.475111
0.660273
1.00576
0.395836
0.641514
0.645766
0.371316
0.39912
0.332237
0.785916
0.49691
0.57075
0.365907
0.359816
0.375026
0.889633
0.95196
0.962392
0.336895
0.339114
0.355079
0.630374
0.346519
0.506658
0.374698
0.515173
0.336689
0.576837
0.844691
0.84641
0.761189
0.371552
0.625899
0.730204
0.670185
0.402194
0.396977
0.363458
0.594627
0.392665
0.58566
0.505222
0.366573
0.355693
0.410569
0.365297
0.352066
0.399475
0.737484
0.393893
0.965223
0.832034
0.465242
0.843306
0.530578
0.895861
0.37492
0.427676
0.503579
0.828629
0.346878
0.793951
0.568885
0.46454
0.908391
0.888126
0.473123
0.667443
0.70898
0.894448
0.740302
0.422495
0.951629
0.356304
0.341822
0.705392
0.608597
0.780062
0.629389
0.576804
0.762496
1.00153
0.765469
0.90278
0.567805
1.02924
0.350157
0.375027
0.817617
0.488583
0.461871
1.01572
0.454007
0.334887
0.354468
0.362484
0.78138
0.401544
0.374383
0.408657
0.704514
0.90015
0.936792
0.895334
0.579884
0.368381
0.361463
0.420513
0.927468
0.405229
0.408963
0.342937
0.353356
0.468039
0.641456
0.418104
0.387629
0.926008
0.562318
0.337234
0.902801
0.56285
0.784548
0.472393
0.601208
0.345331
0.43215
0.533084
0.384952
0.337105
0.349024
0.38189
0.348957
0.383548
0.346731
0.488314
0.725124
0.730745
0.778103
0.850115
0.383603
0.34259
0.362465
0.396542
0.340576
0.410449
0.403457
0.857498
0.38282
0.402759
0.432922
0.680377
0.38517
0.386909
0.790249
0.867751
0.700043
0.890504
0.827224
0.734665
0.803012
0.801072
0.713765
0.789086
0.407622
1.12136
0.375046
0.747278
0.386744
0.407111
0.38582
0.369685
0.332084
0.340903
0.354619
0.349981
0.367284
0.751484
0.883715
0.835696
1.27261
0.634113
0.447975
0.439615
0.45692
0.623638
0.423563
0.572746
0.562094
0.686806
0.574968
0.513593
0.343156
0.729308
0.341571
0.347162
0.345801
0.46099
0.929374
0.893792
0.8462
0.441601
0.797235
0.658392
0.331892
0.329431
0.357214
0.917807
1.03207
0.692151
0.333198
0.465188
0.628471
0.450367
0.699128
0.785721
0.942088
0.759629
0.397098
0.368169
0.427905
0.371472
0.493925
0.503514
1.01448
0.395013
0.353244
0.333897
0.369929
0.414831
0.84454
0.917425
1.04882
0.650503
0.350208
0.363799
0.345245
0.423073
0.716846
0.825315
0.35632
0.348551
0.381089
0.336673
0.351367
0.34353
0.342985
0.361566
0.34608
0.350169
0.391971
0.397481
0.372083
0.421738
0.354133
0.353671
0.35829
0.353465
0.336109
0.480224
0.680629
0.749184
0.509021
0.418545
0.392747
0.683614
0.413539
0.464293
0.620956
0.386606
0.454537
0.512724
0.559284
0.567439
0.525482
0.927446
0.835081
0.539942
0.361384
0.344953
0.368665
0.381311
0.417841
0.477013
0.382978
0.475169
0.472564
0.411458
0.360683
0.484564
0.44842
0.399217
0.46508
0.431998
0.654965
0.434369
0.82076
0.974187
1.02123
1.13527
0.758027
0.849691
0.369327
0.346521
0.361609
0.386592
0.343689
0.341049
0.338224
0.436403
0.357245
0.677192
0.446434
0.423888
0.543803
0.758092
0.480787
0.478807
0.430654
0.572027
0.436002
0.67255
0.570476
0.393195
0.49477
0.493141
0.506205
0.38753
0.686498
0.543833
0.482924
0.493593
0.722185
0.370116
0.357788
0.381778
0.369911
0.36538
0.369324
0.367358
0.338005
0.368788
0.363876
0.366832
0.379567
0.36381
0.352457
0.555149
0.356195
0.389628
0.353679
0.398051
0.34211
0.366295
0.868886
0.34782
0.364474
0.327503
0.360203
0.365656
0.57832
0.657451
0.338306
0.373717
0.355761
0.880164
0.342445
0.34487
0.721943
0.362777
0.407289
0.755166
0.40649
0.576568
0.482263
0.427211
0.397982
0.384635
0.382197
0.335227
0.775472
0.377153
0.376849
0.358525
0.553382
0.340312
0.424532
0.382937
0.369264
0.581324
0.347185
0.331561
0.343778
0.357496
0.35
0.680053
0.383581
0.35113
0.360712
0.369655
0.494059
0.331289
0.341433
0.344422
0.346849
0.374214
0.525148
0.622728
0.889758
0.848239
0.864742
0.866204
0.811319
0.555343
0.835813
0.674648
1.03481
1.29256
0.863431
0.435514
0.718609
0.865118
0.632331
0.698228
0.386756
0.584037
1.09104
1.02146
0.826011
0.748834
0.382569
0.770199
0.451143
0.52924
0.690348
0.969539
0.672722
0.912341
0.517275
0.952347
0.681927
0.701035
0.573216
0.603978
0.859598
0.516045
0.517162
0.526936
0.794707
0.765531
0.386098
0.481393
0.66012
0.832395
0.487108
0.468492
0.448874
0.616696
0.472699
1.06465
0.413681
0.94671
0.910748
1.02262
0.910203
0.87617
0.727544
0.936306
0.466257
0.90545
0.452577
0.459508
0.481625
0.552796
0.944192
0.944282
0.931397
0.967558
0.460224
0.872338
0.957122
0.790046
0.835718
0.949026
0.8478
0.799282
0.612657
1.02054
0.345229
0.370885
0.366449
0.36213
0.349997
0.375952
0.341977
0.623923
0.523484
0.558862
0.401467
0.340568
0.558009
0.375916
0.343146
0.363916
0.339697
0.671287
0.345798
0.339989
0.522527
0.735077
0.902864
0.539412
0.564993
0.482822
0.623143
0.676203
0.766374
0.738239
0.69727
0.736714
0.893623
0.484204
0.749058
0.520591
0.353119
0.348124
0.370468
0.341589
0.63291
0.409746
0.359909
0.749181
0.342003
0.537324
0.466092
0.325794
0.352583
0.337199
0.365697
0.348484
0.782711
0.358353
0.356731
0.554426
0.374358
0.405532
0.441196
0.333686
0.503299
0.344407
0.337683
0.378739
0.375433
0.405136
0.436003
0.420147
0.499326
0.442573
0.403779
0.373932
0.376469
0.462761
0.415846
0.3935
0.647186
0.364346
0.715108
0.79027
0.468425
0.437716
0.512798
0.751831
0.504301
0.457976
0.747538
0.64638
0.529818
0.595843
0.590374
0.512088
0.716816
0.94957
0.613412
0.82206
0.826949
0.989828
0.490141
0.438333
0.442738
0.393984
0.358307
0.810265
0.45758
0.384053
0.827399
0.457231
1.22152
0.465539
0.467294
0.429462
0.559579
0.585302
1.41733
0.632927
0.51993
0.40563
0.883771
0.747978
0.442881
0.538452
0.425669
0.747953
0.772334
0.756917
0.353209
0.648724
0.361568
0.746495
0.721448
0.344204
0.437289
0.363887
0.521432
0.476539
0.889821
0.781536
0.664525
0.411932
0.429401
0.383925
0.425799
0.387677
0.348997
0.338013
0.461589
0.928376
0.742095
0.576628
0.455995
0.403866
0.476916
0.80948
0.414325
0.565151
0.368771
0.37602
0.495517
0.409503
0.373566
0.391019
0.69536
0.715009
0.365837
0.398909
0.938756
0.450119
0.867922
0.682087
0.755035
0.377798
0.383531
0.326954
0.352497
0.883282
1.00739
0.891635
0.798952
0.427818
0.344955
0.338682
0.375607
0.742044
0.494116
0.526107
0.342456
0.350095
0.367104
0.367572
0.683511
0.824449
0.749322
0.847919
0.592689
0.785167
0.86692
0.364213
0.365165
0.36113
0.359106
0.850799
0.361959
0.805208
0.77721
0.905302
0.547732
1.01849
0.622883
0.45645
0.539235
0.358216
0.358337
0.876178
0.580598
0.524318
0.482796
0.430854
0.336473
1.1212
0.357912
0.360353
0.341992
0.647326
0.362743
0.897145
0.612118
0.749717
0.633165
0.466948
0.460548
0.624233
1.07744
0.330215
0.346093
0.326681
0.343163
0.343496
0.692132
0.351514
0.398619
0.994714
0.369764
0.498921
0.421267
0.777378
0.470135
0.421665
0.470068
0.43476
0.449364
0.384768
0.521846
0.870929
0.477234
0.470026
0.735029
0.409619
0.344189
0.34826
0.422551
0.345784
0.345044
0.348484
0.341092
0.416661
0.35891
0.390197
0.386686
0.34638
0.397231
1.24057
0.345476
0.675698
0.393266
0.677624
0.418861
0.380926
0.481163
0.576939
0.447424
0.799725
0.721957
0.764387
0.841812
0.725232
0.408811
0.953087
0.37102
0.415956
0.449188
0.876475
0.489623
0.458028
0.349958
0.921487
0.694232
0.348582
0.484498
0.356235
0.478577
0.395326
0.401193
0.338689
0.338866
0.378298
0.397045
0.869832
0.817182
0.345049
0.484126
0.343146
0.736914
0.814235
1.2479
0.923425
0.69013
0.964203
0.377732
0.348676
0.8411
0.368152
0.368976
0.367579
0.333108
0.45627
1.06849
0.354794
0.341898
0.404166
0.493292
0.446616
0.350441
0.440378
0.356772
0.350724
0.425512
0.455621
0.442023
0.40581
0.344077
0.494508
0.401843
0.464148
0.355002
0.356852
0.455569
0.53631
0.656777
0.865068
0.346667
0.449852
0.535012
0.35669
0.78275
0.535087
0.347106
0.981419
0.537802
0.435654
0.664351
0.62302
0.659338
0.440476
0.337637
0.51268
1.22056
0.379588
0.350156
0.422151
0.493802
0.405013
0.384529
0.859115
0.476921
0.849975
0.342603
0.397433
0.367545
0.374926
0.362072
0.462317
0.959143
0.555624
0.590999
0.453515
0.434112
0.35615
0.425984
0.416825
0.33639
0.352391
0.402128
0.620354
0.457443
0.820853
0.378479
0.579537
0.717925
0.525048
0.696816
0.596477
0.80622
0.337397
0.684934
0.506903
0.45196
0.928587
0.436338
0.766659
0.424918
0.91904
0.60532
0.365894
0.340333
0.834429
0.806199
0.341757
0.492183
0.353295
0.825136
0.860742
0.501929
0.384706
0.33739
0.571467
0.349638
0.445376
0.370147
0.360832
0.368667
0.419947
0.412255
0.649473
0.387316
0.730981
0.483227
0.386193
0.685699
0.408842
0.382142
0.715316
0.420674
0.501109
0.421865
0.366066
0.650168
0.461053
0.659128
0.727918
0.410914
1.00035
0.401417
0.346751
0.768411
0.481836
0.438564
0.535449
0.71096
0.657215
0.72665
0.597495
0.633212
0.360218
0.775777
0.754294
0.584917
0.895688
0.680421
0.579937
0.692859
0.561057
0.473731
0.58688
0.500769
0.789562
0.350473
0.429777
0.84958
0.439426
0.568027
0.746881
0.93776
0.532513
0.371282
0.428594
0.451594
0.350456
0.400712
0.34377
0.333491
0.357538
0.393664
0.350712
0.333285
0.458055
0.505154
0.71331
0.354735
0.340281
0.340739
0.371369
0.946111
0.3652
0.3416
0.362141
0.344198
0.371866
0.337709
0.367416
0.339338
0.4535
0.514217
0.410942
0.879366
0.374818
0.364194
0.561412
0.660367
0.559292
0.510955
0.506083
0.844769
0.430764
0.848359
0.781138
0.347109
0.352135
0.340748
0.391497
0.72801
0.913019
0.836453
0.335469
0.345658
0.358068
0.339775
0.495618
0.483428
0.507627
0.433283
0.492808
0.356783
0.375823
0.365202
0.357284
0.342855
0.333421
0.339241
0.362393
0.348081
0.500233
0.44147
0.517222
0.73866
0.427149
0.546428
0.836652
0.566506
0.496506
0.370472
0.360711
0.346001
0.344328
0.342232
0.726629
0.467367
0.947545
0.358885
0.354195
0.357555
0.336005
0.338429
0.335948
0.334605
0.331136
0.340072
0.36716
0.343687
0.370572
0.345896
0.364489
0.389122
0.396219
0.390757
0.333283
0.793097
0.358684
0.693268
0.554822
0.363013
0.365461
0.366899
0.446124
0.453386
0.632764
0.390621
0.355131
0.370997
0.345265
0.525923
0.481412
0.511606
0.346023
0.375828
0.42901
0.394422
0.461454
0.341625
0.357208
0.340139
1.01426
0.853138
0.767487
0.791327
0.350277
0.3702
0.368503
0.53786
0.537885
0.494382
0.774829
0.848818
0.512072
0.59133
0.472725
0.763863
0.942205
0.928124
0.95816
0.376738
0.342587
0.385259
0.331575
0.351404
0.38801
0.374896
0.355601
0.356537
0.346082
0.344785
0.359659
0.368633
0.649315
0.568608
0.74706
0.385139
0.373173
0.346465
0.359024
0.332653
0.341012
0.359052
0.339538
0.334902
0.337353
0.356552
0.355086
0.340068
0.341296
0.91427
0.640072
0.923716
0.892924
0.974534
0.55632
0.964538
1.23433
1.00253
0.345003
0.34917
0.932769
0.343276
0.339632
0.587048
0.514839
0.370832
0.753621
0.45638
0.491844
0.746688
0.815154
0.751899
0.886053
0.984055
1.43433
0.725931
0.672123
0.480508
0.805075
0.796591
0.807291
0.724481
0.568545
0.379709
0.741948
0.451032
0.784904
0.794985
0.596751
0.582096
0.435608
0.439343
1.12456
0.550686
1.00031
0.653682
1.03844
1.07082
2.23521
0.907601
0.773881
0.772109
0.784268
0.336622
0.336105
0.361812
0.342197
0.344061
0.739813
0.366999
0.34515
0.37049
0.33594
0.35983
0.356596
0.370755
0.364082
0.352246
0.354287
0.404218
0.420617
0.363866
0.368783
0.387207
0.355674
0.409467
0.437255
0.411488
0.432664
0.355876
0.327697
0.343774
0.373495
0.374803
0.502711
0.498175
0.430018
0.377913
0.375272
0.411339
0.593077
0.390772
0.695848
0.338202
0.325761
0.340864
0.35234
0.34089
0.913307
0.884806
0.419389
0.597751
0.391533
0.428965
0.372693
0.6834
0.400409
0.439249
0.438925
0.418495
0.407012
0.667076
0.809098
0.420707
0.545959
0.720682
0.354116
0.353596
0.368299
0.35668
0.349807
0.402919
0.457572
0.342592
0.354364
0.34207
0.335288
0.352639
0.353758
0.36037
0.376092
0.373241
0.350237
0.335998
0.492581
0.7125
1.15169
0.384708
0.359918
0.347574
0.339264
0.34741
0.39891
0.429481
0.441854
0.334311
0.356062
0.352701
0.340582
0.375145
0.360764
0.446161
0.40332
0.473943
0.393568
0.674378
0.738913
0.438298
0.872728
0.345278
0.34664
0.408672
0.34287
0.402961
0.374864
0.343174
0.341367
0.347489
0.351299
0.347607
0.414268
0.379338
0.386475
0.439595
0.4771
0.445316
0.520855
0.387331
0.376058
0.74422
0.445115
0.848374
0.613935
0.451154
0.585277
0.75663
0.419905
0.477157
0.431345
0.730698
0.408669
0.954275
1.18268
1.24019
0.41723
0.541421
0.990796
0.580673
0.73907
0.433354
0.569542
0.652709
0.448263
0.40194
1.52225
0.375069
0.523658
0.406799
0.415611
0.340904
0.858214
0.630542
0.819023
1.02299
0.429882
0.665972
0.844272
0.620351
0.621075
0.446297
0.369337
0.427425
0.392881
0.934321
1.12424
0.907465
0.487197
1.13028
0.847938
0.328066
0.495959
0.328783
0.571468
0.467993
0.357925
0.512049
0.486971
0.331482
0.349226
0.328758
0.582542
0.5276
0.384335
0.375016
0.550688
0.505384
0.424059
0.346315
0.693032
0.510459
0.831464
0.540887
0.357286
0.837326
0.344739
0.587497
0.877451
0.84654
0.933794
0.823724
0.80325
0.795809
0.53992
0.721881
0.360352
0.336373
0.335943
0.421963
0.582897
0.720617
0.524735
0.88668
1.00318
0.533784
0.566528
0.513642
0.760023
0.433469
0.425093
0.499215
0.910651
0.620147
0.343004
0.347228
0.747823
0.500852
0.496451
0.371303
0.489632
0.460094
0.3997
0.356447
0.434502
0.536907
0.336998
0.536138
0.394986
0.385797
0.381247
0.347091
0.455726
0.365235
1.06501
0.361839
0.32935
0.335909
0.84109
0.420228
0.493488
0.556691
1.06392
0.820065
0.425827
0.774899
0.404833
0.489838
0.340359
0.37735
0.730269
0.53087
0.356642
0.59055
0.548669
0.512034
0.349824
0.35229
0.389323
0.342665
0.351398
0.368789
0.36595
0.831143
0.758062
0.501229
0.953581
0.698844
1.01616
0.356018
0.34296
0.357557
0.40884
0.502262
0.48626
0.692901
0.720352
0.644296
0.738624
0.390624
0.710791
0.881688
0.364036
1.0245
0.693059
0.841073
0.422014
0.381052
0.644824
0.337097
0.334121
0.955941
0.359796
0.587223
0.509645
0.371708
0.404747
0.962925
1.07256
0.588561
0.923271
0.347832
0.830842
0.598291
0.738245
0.629633
0.847999
0.789264
0.496668
0.881385
0.343482
0.344137
0.496353
0.727108
0.786449
0.552572
0.383444
0.339294
0.359815
0.37375
0.495865
0.499876
0.423913
0.422255
0.389032
0.347664
0.350728
0.351158
0.76439
0.374778
0.403408
0.367517
0.361057
0.338197
0.334703
0.362899
0.348426
0.364747
0.418205
0.456709
0.370324
0.365703
0.432262
0.389909
0.614782
0.354075
0.608197
0.363407
0.411395
0.41207
0.463405
0.430114
0.56471
0.429991
0.357644
0.540848
0.659432
0.767687
0.437689
0.578625
0.761355
0.392351
0.349533
0.379472
0.369427
0.351717
0.405052
0.376818
0.458646
0.604461
0.615738
0.868003
0.623067
0.643715
0.410227
0.340726
0.520471
0.472596
0.371493
0.42133
0.348751
0.345154
0.340938
0.715504
0.389566
0.3497
0.554724
0.670229
0.704287
0.373919
0.342134
0.340454
0.373481
0.480821
0.361786
0.420115
0.43614
0.456449
0.438167
0.547217
0.466118
0.948884
0.456706
0.339237
0.372915
0.357983
0.35308
0.364811
0.340807
0.515271
0.365426
0.415859
0.705975
0.35678
0.336815
0.360915
0.369909
0.38359
0.337245
0.347134
0.390434
0.393036
0.374756
0.492925
0.412315
0.354671
0.375549
0.371671
0.397283
0.51369
0.460961
0.451544
0.716674
0.478123
0.684502
0.365104
0.439839
0.565507
0.683349
1.26337
0.339835
0.724963
0.672036
0.361483
0.367962
0.335515
0.364072
0.358
0.369105
0.351113
0.344842
0.349227
0.339438
0.341232
0.328414
0.446288
0.361782
1.16026
0.479967
0.950481
0.751487
0.747175
0.602581
0.782459
0.574502
0.723577
0.681881
0.7124
0.432398
0.799238
0.899714
0.39472
0.359057
0.839208
0.959152
1.04387
0.412824
0.344871
0.930926
1.05242
0.804198
0.516189
0.343607
0.513325
0.532822
0.500314
0.498443
0.48182
0.492193
0.867647