/*--------------------------------*- C++ -*----------------------------------*\
| =========                 |                                                 |
| \\      /  F ield         | OpenFOAM: The Open Source CFD Toolbox           |
|  \\    /   O peration     | Version:  2506                                  |
|   \\  /    A nd           | Website:  www.openfoam.com                      |
|    \\/     M anipulation  |                                                 |
\*---------------------------------------------------------------------------*/
FoamFile
{
    version     2.0;
    format      ascii;
    arch        "LSB;label=32;scalar=64";
    class       volScalarField;
    location    "0.0380695";
    object      omega;
}
// * * * * * * * * * * * * * * * * * * * * * * * * * * * * * * * * * * * * * //

dimensions      [0 0 -1 0 0 0 0];

internalField   nonuniform List<scalar> 
3927
(
164.531
50.2261
1198.66
177.1
87.0092
672.865
582.568
99.0749
46.6478
65.6838
68.864
63.472
46.7458
82.1197
104.103
685.613
55.0101
48.276
95.6832
350.002
142.134
280.267
148.816
73.8932
110.595
131.607
68.6221
59.1649
429.017
51.1561
52.9317
45.8641
86.5264
51.0508
67.9346
73.4397
56.1514
68.7231
90.9505
119.473
60.2112
205.893
45.7069
56.2586
49.7759
243.923
59.0568
161.652
62.898
153.546
80.6539
88.282
144.018
46.6436
46.1423
45.8709
69.4929
95.7925
49.2848
49.8702
128.906
78.5974
66.1075
131.334
97.2795
65.4496
66.2275
104.747
85.0282
297.079
70.297
55.9081
239.831
74.1476
186.071
108.97
112.077
64.9648
66.117
58.5908
141.339
247.352
79.5957
95.4032
61.1323
59.6794
74.1365
486.11
785.874
206.373
442.11
120.033
147.379
63.5125
62.5491
211.71
728.054
121.985
96.23
111.835
105.496
1209.43
57.498
961.061
69.281
48.3411
57.0271
46.9554
131.575
97.5903
89.9895
280.871
68.8261
116.962
152.353
432.711
87.2116
191.114
162.406
85.9864
179.198
88.0863
156.654
455.236
58.5056
79.5349
96.9302
153.868
174.99
135.363
137.127
486.665
929.582
963.599
1193.03
132.965
71.8001
79.9124
371.334
48.6192
917.05
948.049
54.8984
58.9024
50.5412
837.064
918.715
914.265
169.186
169.858
63.2056
89.3873
72.0758
67.2742
61.0375
96.1
939.114
240.274
53.8204
106.864
202.123
58.395
128.223
104.374
904.295
102.169
149.308
562.282
83.5455
420.85
53.0519
1104.29
576.277
732.362
113.915
384.725
667.385
312.435
398.315
64.2521
89.8187
240.702
147.288
743.926
154.008
55.1184
106.526
314.833
144.441
145.463
145.28
90.9164
268.097
59.9456
63.4408
782.825
49.2455
944.694
880.122
119.403
69.7671
85.3328
88.815
75.3442
154.045
131.734
68.7376
722.314
74.7012
49.9326
66.2843
226.846
131.34
812.635
78.6514
70.9272
192.2
314.634
190.403
71.8833
576.258
60.0965
97.5631
654.789
516.336
906.53
82.4013
182.399
80.7916
48.5627
182.411
82.0978
131.425
122.165
97.8378
102.488
173.674
55.294
99.1872
74.3989
112.743
249.546
585.328
422.051
130.496
531.084
52.8265
87.214
49.6426
97.6435
170.142
155.94
120.357
68.0464
66.622
153.454
47.4744
75.0189
61.9969
64.792
153.85
104.453
104.631
82.3319
65.3792
103.016
228.943
204.663
153.594
58.2074
142.7
180.855
99.8874
54.5822
54.7838
71.7731
58.0513
127.069
50.9173
50.1694
366.608
53.5174
46.8751
169.151
68.9428
662.115
73.1897
386.456
325.23
260.285
340.028
269.489
61.9312
71.9916
80.034
74.8197
192.328
459.272
144.686
494.137
60.7973
193.277
732.33
68.2183
63.0523
55.0937
92.166
82.0955
334.032
50.9578
51.2083
179.182
66.1509
66.0636
54.4438
62.4528
186.069
63.5564
103.116
70.1001
182.944
998.5
59.6303
86.0322
77.484
47.5145
177.233
66.2068
182.628
58.6523
82.4899
114.458
809.86
553.199
656.035
53.7425
446.124
529.515
85.249
46.989
322.226
57.1021
322.16
106.652
79.2631
54.3729
54.0538
89.0467
223.785
763.875
52.9238
73.6234
1398.99
337.174
54.2539
74.2979
59.8287
454.036
572.916
52.4656
88.5437
162.816
386.531
48.4853
88.1811
119.049
59.9801
186.12
984.414
537.601
239.437
69.1421
70.1439
115.978
52.9753
62.3398
74.6324
62.8456
569.75
362.757
71.6888
463.594
676.604
83.1533
56.1346
68.1287
73.9304
593.522
126.607
405.965
88.9404
206.521
75.0165
189.258
407.062
59.6832
381.062
60.5584
86.4295
899.63
116.869
254.012
518.36
74.5736
225.671
48.8496
194.147
46.247
66.4631
848.408
86.6543
64.553
54.7562
94.1982
52.0752
87.3492
868.342
167.358
532.404
68.8111
146.296
92.7567
84.4798
81.3686
58.1608
84.0768
473.848
96.0117
61.8899
620.498
110.591
104.395
165.704
101.625
95.3453
220.156
333.69
82.0172
73.3196
126.284
46.3887
46.3614
339.436
613.212
46.2716
363.364
48.0638
123.698
46.8953
49.1115
407.493
57.5709
105.219
359.8
134.545
102.155
49.4364
233.029
54.8739
170.494
535.045
68.2082
257.053
200.697
314.928
173.15
72.2427
947.915
1065.25
830.5
227.746
73.4677
724.87
60.945
170.968
446.763
289.002
52.8228
132.996
46.3464
50.2963
59.0125
47.903
78.3076
75.9055
49.2968
1038.61
68.2327
110.242
49.222
632.542
95.2886
46.5432
46.882
58.4202
304.822
219.736
113.269
354.537
713.589
124.518
305.53
565.947
808.82
61.5417
1094.81
401.765
67.0031
69.2729
67.0913
114.361
64.7623
116.645
60.7695
51.0093
67.7956
926.924
51.1107
52.5496
202.84
814.397
785.408
111.067
262.851
61.3568
125.091
580.734
47.5298
132.107
66.8707
60.289
57.6013
168.413
66.2591
81.0697
80.0047
63.8936
61.9736
75.2656
91.8598
119.861
68.1586
159.413
160.308
327.791
102.701
129.581
190.723
130.602
48.6528
122.684
226.459
250.804
47.3223
166.746
116.476
158.904
131.372
110.219
85.7504
416.914
196.451
527.096
231.008
123.152
715.09
656.997
81.1013
166.831
188.882
155.372
116.843
54.0004
49.8484
87.6947
97.4502
88.6178
107.087
81.8673
85.4391
46.8552
74.8238
79.2851
91.6057
90.4243
86.4818
81.8295
271.148
830.272
84.8152
84.5534
72.3826
147.667
73.386
164.015
70.6968
55.1592
124.761
313.491
115.314
190.262
78.1928
250.378
390.559
129.447
119.354
204.775
166.775
160.334
152.378
550.869
413.291
70.389
118.412
102.125
68.7294
47.1656
66.9053
157.996
64.1431
140.218
69.5573
63.0885
65.1145
68.6946
144.021
126.609
47.0059
150.969
182.182
172.706
236.285
253.216
91.6321
65.6323
79.1375
53.4337
62.5871
56.2207
59.6843
53.9974
47.328
52.9051
53.4807
47.2712
62.4587
48.473
46.9324
46.8168
104.397
189.943
73.5007
435.731
48.9974
92.1385
62.1412
160.604
162.958
416.577
777.238
60.0772
274.683
109.133
95.2813
116.7
128.922
460.335
97.2766
68.9246
55.8573
83.3492
57.1859
58.6321
47.1061
80.1295
46.414
52.2499
52.0122
55.1383
1079.8
1118.53
905.474
1069.44
282.464
149.341
230.029
132.676
218.725
161.01
78.7983
97.4414
81.0326
47.494
47.0888
81.4813
142.299
75.6479
64.0122
65.6062
61.1012
64.1686
60.8191
130.905
59.9851
68.5416
116.573
185.254
58.3663
60.6287
46.9484
76.6676
56.1013
85.4998
73.3824
57.5463
58.5369
53.5247
51.5148
53.242
49.7101
52.5844
51.4726
48.9269
51.026
49.9399
722.007
400.694
290.569
745.728
449.156
154.928
214.517
237.872
238.497
90.5234
65.9878
73.6464
111.07
100.023
46.7684
638.16
86.3309
642.75
630.738
448.306
522.871
308.25
240.464
142.42
47.7987
709.289
66.5975
1065.94
281.765
735.436
82.5252
65.2105
190.888
155.273
74.877
999.975
127.603
264.258
116.347
72.1638
85.1953
938.953
63.9185
67.6669
577.971
454.449
914.606
293.324
477.996
83.7099
69.1894
50.2863
109.684
47.8759
56.6655
48.6512
53.3134
827.854
134.883
133.293
72.9027
158.59
756.857
884.467
150.093
126.149
151.393
758.087
269.724
69.4532
101.256
871.213
102.074
167.509
328.916
940.957
178.1
107.503
396.578
265.209
195.111
1188.07
828.704
47.1817
501.558
161.034
177.054
722.824
47.6306
985.028
459.149
509.417
189.874
65.0037
102.23
66.1374
46.6191
84.9135
47.8275
47.1148
82.0938
265.853
54.8519
46.1471
48.6358
285.589
888.008
48.0825
521.053
65.3234
46.5769
51.4883
62.4046
58.0274
68.4535
61.9999
56.1328
627.002
192.174
59.8193
57.7308
76.4171
55.2114
497.383
108.165
555.767
155.617
176.257
811.931
154.553
49.6294
168.216
47.2737
111.237
238.941
179.813
69.3012
75.9944
64.9014
58.7376
179.058
60.3765
69.2802
85.9512
90.6753
49.1285
90.5738
829.419
61.5032
95.1531
64.6035
140.109
66.6994
97.5297
994.71
189.277
63.493
81.4923
63.8402
45.8289
62.8561
174.791
548.365
525.48
412.538
129.58
705.227
120.141
754.661
157.123
194.784
78.0478
151.634
86.0921
71.8891
476.095
109.226
49.508
96.9205
352.956
143.169
55.4348
54.8259
83.8909
765.302
55.3838
236.146
198.344
105.461
68.3238
64.9954
778.854
448.91
78.666
79.9902
60.343
172.76
48.8523
47.5168
123.42
67.6668
107.101
59.9251
107.838
148.307
47.8131
61.4034
49.5523
81.4486
289.552
118.731
127.666
147.866
368.973
160.258
65.4327
103.72
129.335
233.033
48.4175
48.1146
182.502
138.126
224.619
72.5283
230.447
208.596
394.696
93.4565
46.3351
79.5557
49.1554
54.0028
942.927
46.3351
58.8283
48.9223
70.4669
47.3097
112.808
446.972
60.5578
1234.87
47.3737
52.6865
77.9652
88.4995
68.7182
95.6868
64.5261
58.1837
47.2045
79.7291
602.872
49.8242
882.123
983.756
49.9716
59.0797
81.7306
77.9924
149.719
90.7288
72.7941
90.105
77.9789
133.717
107.319
166.796
74.8231
782.528
196.424
602.472
513.009
60.5928
851.624
955.411
288.408
133.444
224.948
134.359
51.8296
311.987
128.43
47.3102
75.9227
152.087
99.6246
68.2319
117.823
52.8251
93.9818
74.1562
831.627
130.333
87.8786
199.736
50.2083
71.0699
196.302
121.713
59.8403
48.0894
218.693
170.239
75.7543
116.981
61.2447
884.304
58.4283
1014.45
513.723
114.314
48.7549
50.3819
49.25
571.747
108.089
1060.05
121.247
62.8082
1174.33
97.0499
727.803
733.464
156.596
53.4953
52.6928
56.3625
141.802
701.632
55.1989
527.425
110.676
471.425
153.359
556.221
58.8158
47.5213
125.426
678.625
260.9
60.3622
268.292
206.589
55.1758
168.391
497.993
247.204
161.864
102.832
658.302
579.912
81.7372
65.3794
48.5912
48.6435
997.31
549.862
1189.61
61.9443
187.877
931.493
55.2514
806.228
404.272
583.235
60.7028
46.9467
48.4996
46.8349
918.543
907.916
1039.9
852.559
101.955
1208.69
63.6873
57.6493
51.4191
1201.28
1188.85
489.347
194.5
1116.87
132.984
53.013
51.835
52.9129
470.455
59.024
55.188
67.2524
160.727
47.383
56.1908
159.276
68.0789
46.932
118.948
61.0601
62.721
763.229
201.26
116.138
841.332
222.143
412.541
64.5414
980.229
73.1638
131.664
748.513
177.698
462.135
127.622
84.8858
210.738
215.024
113.333
124.715
268.946
251.221
124.773
146.744
58.1956
74.8213
69.5746
56.9647
83.2909
158.291
49.9228
50.8275
58.4435
54.4263
50.5916
55.8134
187.39
181.848
62.7015
116.796
125.27
804.799
540.725
305.258
229.831
65.511
297.703
83.9379
63.6126
98.2395
96.3392
49.5172
133.201
66.8528
99.2422
534.134
271.219
81.5601
53.0744
207.5
67.193
61.7444
99.7281
103.593
63.0908
69.5786
341.241
95.6807
300.48
141.939
433.121
75.7017
61.5057
817.235
55.7401
501.399
68.2962
410.515
162.032
77.2719
56.014
200.838
665.918
326.224
61.417
70.0685
96.7153
57.7889
115.568
88.7205
56.8619
59.6574
128.753
159.615
242.908
58.128
102.533
71.3341
49.6281
82.5385
59.8377
52.9894
126.983
150.879
199.915
859.59
234.075
749.054
65.3203
589.165
201.187
78.9544
287.492
141.277
108.842
53.5789
60.1166
46.6448
46.6577
45.8319
46.6105
45.7324
57.1263
49.1441
835.952
319.803
433.234
269.813
84.8354
173.838
211.547
1117.69
50.5135
46.3026
74.9336
343.666
111.271
1383.22
60.2659
46.8328
46.9416
802.965
111.289
720.315
61.1871
53.9987
64.8683
74.1378
77.7613
220.473
60.9793
796.121
850.733
166.282
47.1032
102.85
140.728
48.2512
46.5974
47.4649
48.5157
50.2802
75.5661
90.4503
95.1822
46.3724
76.6697
96.4989
61.2643
56.4362
237.393
217.813
947.301
325.888
1285.53
46.7441
72.5502
55.9835
66.261
52.3017
135.378
171.66
53.3545
486.538
484.749
157.545
72.76
80.5193
163.034
909.252
396.217
87.1934
48.5555
56.0126
123.258
55.9861
74.1143
56.1643
47.0729
48.6619
46.8833
47.7526
58.3484
49.3045
57.9592
48.9587
48.7092
75.5418
66.5008
47.1282
80.1259
56.6855
84.8218
107.936
76.924
71.6791
69.9129
47.6399
67.6081
81.055
65.6343
228.498
53.3349
62.9826
52.8338
48.9275
57.8196
100.781
50.2858
54.0982
114.953
103.848
46.5247
48.2568
69.7873
76.2551
56.6904
116.06
66.2592
69.1077
73.1181
72.3028
53.1174
74.9476
299.275
143.555
165.679
62.0813
54.3403
46.6026
121.103
194.873
101.134
788.118
807.964
95.3281
45.5883
110.894
429.712
57.0698
240.641
59.3653
66.1465
818.719
250.852
138.297
100.989
492.675
916.392
271.534
965.275
172.64
1042.22
555.675
198.842
282.544
170.832
73.7666
600.289
49.0491
1011.58
732.959
308.828
669.946
393.481
126.223
928.929
95.6164
57.1425
176.703
937.451
50.215
453.016
803.951
159.018
92.4648
83.9953
462.538
276.449
545.164
400.513
502.961
629.6
376.191
284.11
233.678
220.553
153.678
166.164
540.363
903.191
48.3033
498.98
74.3732
47.5522
47.928
375.388
789.919
832.02
573.555
82.2686
73.6541
74.6788
85.7348
86.6424
2003.13
207.027
841.219
1132.79
171.4
851.983
618.296
1250.03
47.1012
48.3785
48.4055
305.967
797.455
46.8867
77.3214
252.587
47.9659
59.906
48.2277
98.5562
48.2638
332.188
355.779
128.561
47.4811
703.721
64.3524
121.399
46.6773
46.724
79.0953
1028.94
1019.8
1029.26
382.542
126.536
911.797
447.285
113.204
1056.59
1029.56
577.53
167.022
425.611
114.787
173.593
60.8066
56.4014
95.2941
133.992
219.073
70.2852
786.592
64.9626
65.5854
47.9302
53.4876
96.3275
108.73
76.9327
77.7058
84.5049
199.825
546.189
392.242
345.651
76.9604
114.437
87.4937
63.4213
67.0119
63.3273
78.0492
62.4796
55.4867
63.0195
76.9889
232.391
143.869
93.948
77.6235
98.5879
62.1935
72.9481
384.021
63.3191
63.987
71.5304
50.5119
63.7009
55.2395
180.917
274.908
61.9952
155.774
86.007
82.0116
225.676
95.545
85.1439
102.705
52.0934
55.5523
55.0849
311.435
103.606
59.5029
48.5702
49.4899
48.4892
49.2194
46.1628
77.228
286.436
62.8992
55.3379
52.5537
88.5958
218.165
113.223
59.0803
236.021
78.227
76.2474
49.2425
65.6121
97.7192
267.207
961.646
54.5633
253.346
245.184
49.8399
58.797
80.8296
387.133
114.674
180.701
48.0454
47.2171
51.9471
581.097
618.196
612.219
48.1352
47.8183
207.926
215.633
79.4359
123.738
70.4151
108.408
127.04
151.077
684.271
602.35
470.344
71.6256
698.205
601.405
258.079
57.7798
54.4697
83.7214
193.458
53.088
179.753
110.921
48.2576
51.6648
61.5385
51.6346
48.3842
57.8069
341.235
54.0057
1250.14
1066.11
82.7742
419.187
131.266
697.496
60.9672
70.8151
117.511
588.928
75.4491
513.279
184.485
85.8487
826.761
796.673
84.6951
206.644
728.926
795.783
432.194
68.3845
711.536
68.4833
108.808
346.884
286.066
511.903
234.512
198.542
489.406
852.524
487.609
767.79
181.354
1080.39
52.0169
62.5395
621.478
116.196
86.8108
853.368
86.9379
115.719
55.3607
49.9447
880.866
60.7795
52.7851
63.3842
662.391
918.038
913.747
739.045
181.403
61.9162
48.0842
68.6926
756.07
63.4473
64.8159
101.39
188.357
97.5896
320.278
69.0147
58.0698
823.659
186.687
131.545
801.926
163.915
619.422
101.549
307.687
60.2876
73.5039
163.682
188.322
99.491
94.6582
175.686
166.833
153.384
85.9142
111.79
440.548
440.645
507.517
577.876
58.0947
75.3173
238.059
63.795
109.711
65.6498
62.6547
604.141
54.2311
62.131
74.8611
352.022
55.3438
57.1876
511.913
624.132
390.369
674.388
564.25
430.363
526.972
518.999
386.364
510.809
66.7112
1137.21
56.3595
462.608
106.391
66.9051
135.378
50.0041
166.605
89.4156
88.5557
85.3707
76.8122
460.9
747.952
545.986
1103.49
294.902
82.5788
74.1416
84.9177
185.208
66.7205
148.065
139.724
228.496
160.96
108.463
50.0022
400.775
48.7497
46.5604
46.5368
91.9496
703.569
668.882
577.95
76.6974
503.829
290.299
86.2073
81.8904
56.5112
605.171
673.214
306.214
84.0719
88.9278
234.213
79.1623
279.461
325.855
858.024
657.573
62.791
53.84
76.5585
68.6705
114.45
113.885
935.479
61.0564
62.4203
142.613
65.6076
66.6233
699.671
776.303
814.769
257.709
53.3589
51.0382
48.4581
72.5174
299.766
377.592
47.6604
47.4189
51.8514
55.8678
47.1263
52.5313
52.2191
48.451
64.1894
67.8976
53.6106
55.3282
68.6496
66.2164
66.4503
47.5021
47.9548
47.3036
48.4477
102.656
268.389
359.691
145.402
68.2308
59.5766
762.269
61.5999
90.9001
196.669
54.1283
82.0483
126.071
146.948
168.38
121.726
409.341
431.647
126.528
47.3661
46.2674
48.3152
51.8438
63.4079
90.2992
53.3819
85.8967
87.0932
61.0956
47.2223
92.538
80.4483
56.5664
90.5328
66.9414
345.483
75.581
548.323
946.836
955.669
927.06
403.384
1210.72
49.3449
46.8412
48.4379
113.632
50.6319
48.9795
50.2466
82.5444
88.0519
218.68
77.93
63.5736
138.527
340.553
97.6011
89.8122
69.5894
147.79
69.3507
266.822
157.154
54.454
99.1916
101.655
104.563
52.9955
240.307
129.009
94.1454
97.2085
288.014
49.4428
81.8767
110.264
49.8235
49.1873
49.3988
49.5754
135.668
49.2926
49.0655
49.0426
122.78
72.3096
95.0842
188.288
96.1027
111.763
98.1733
58.3352
88.2064
73.0751
589.797
102.389
76.404
126.437
99.7671
96.2567
158.633
218.259
55.5885
116.925
97.0663
779.464
46.2377
46.5834
266.833
47.5636
59.1751
296.753
74.8713
146.442
94.1427
66.564
157.457
96.6425
86.675
53.8456
370.585
49.9272
51.7048
46.9223
132.701
105.346
67.8778
50.9856
48.837
153.01
71.3091
174.874
78.6725
72.7786
80.2422
231.536
53.0841
47.4538
48.8325
57.6383
96.8633
124.989
130.815
107.433
90.4174
69.133
119.837
178.553
620.839
543.66
724.495
700.156
689.309
158.543
499.64
292.303
1048.47
998.715
474.639
71.8348
920.616
392.831
203.781
790.377
69.2545
182.794
984.025
750.667
1115.67
436.69
50.8942
939.925
88.5683
130.287
850.934
1026.48
878.888
957.276
109.308
799.36
518.24
239.154
175.292
187.907
784.645
126.668
110.751
118.407
319.462
827.447
52.7559
95.9362
221.597
935.122
100.816
89.4006
74.2213
170.947
87.4344
1352.53
59.8766
787.225
1023.52
1309.32
1002.23
886.502
372.726
771.537
87.9302
720.176
75.3666
83.9834
96.728
136.258
799.644
799.685
825.446
797.231
79.3131
393.61
908.958
830.08
853.646
838.728
855.71
532.791
207.516
831.285
46.6
101.232
94.4088
60.8591
61.5656
85.9647
56.4171
235.69
118.063
143.267
192.314
81.0007
139.469
106.122
49.8789
68.6291
48.5759
225.878
47.2563
93.2066
127.824
836.513
752.596
140.045
150.431
99.3019
212.458
271.235
656.765
554.365
1006.98
1034.87
943.022
94.4539
1043.44
159.998
76.6109
70.532
49.5554
57.9151
237.843
58.802
47.1925
278.595
46.4922
139.74
90.4325
80.2333
54.843
55.3856
48.0371
76.0791
529.173
281.952
58.978
190.802
73.0037
63.8944
77.6069
126.257
114.077
66.2703
54.2933
53.4437
49.493
59.2535
71.8716
64.1811
125.223
80.0877
57.3447
51.7093
51.2965
85.4756
66.338
56.2252
341.465
51.7288
403.152
490.929
93.2728
71.5332
110.289
395.981
114.918
82.9929
275.77
192.894
172.778
196.142
253.41
147.002
755.294
994.53
197.483
315.528
487.13
532.651
577.299
74.5083
75.0165
77.9745
87.9551
864.152
93.153
61.9715
595.61
77.7863
1161.02
100.298
81.5595
75.888
207.958
231.977
1346.43
258.495
111.372
59.6515
811.144
446.865
76.9654
132.288
68.7088
283.59
421.05
286.992
109.338
251.033
91.2499
513.368
783.011
55.7221
72.9876
62.5259
130.22
100.094
722.249
282.19
202.069
60.0839
67.0997
51.0488
67.1694
52.4774
46.3979
49.0289
85.7274
639.701
379.927
167.514
83.4054
64.472
94.2713
316.173
61.9096
170.305
50.2882
85.1445
103.646
63.5413
135.475
59.7071
933.339
363.019
76.3366
72.6074
1010.89
78.9274
686.052
276.355
942.383
50.6167
53.1357
89.6876
48.1854
406.854
745.474
395.407
470.241
68.3628
45.7099
48.7426
50.5763
670.314
104.334
125.654
47.108
46.2703
48.7286
49.3921
245.036
444.044
267.542
766.629
189.362
461.66
599.727
47.5263
52.5783
50.4009
47.5724
589.156
49.9931
336.321
864.991
1020.1
126.842
985.097
177.154
80.8045
142.714
80.6256
88.5795
597.93
172.904
135.712
125.059
71.8943
100.493
1119.18
46.9671
47.6402
47.5392
232.835
47.567
666.735
167.372
265.109
186.276
80.3197
84.11
232.106
1003.36
102.732
50.0657
76.9598
60.4583
128.26
327.557
196.745
56.9798
919.096
48.7361
113.128
64.792
718.592
88.3119
67.2423
88.2269
72.5343
79.5882
58.5
119.18
679.181
94.9089
87.6328
399.843
64.5568
52.7285
47.7672
65.3313
65.2018
54.9236
49.5261
46.8378
64.4563
48.4171
60.3927
72.5029
59.8593
62.1483
989.786
63.1198
270.665
58.6817
345.622
70.9038
63.5371
110.621
178.291
77.9648
513.02
426.695
484.149
578.211
972.758
61.114
1098.23
65.5794
66.1586
79.9883
1108.02
102.516
83.932
48.7864
961.997
392.026
96.2501
106.51
73.4094
108.493
56.1705
62.624
98.8938
75.2434
289.674
58.5621
522.73
580.459
46.311
100.591
47.8382
362.325
551.31
991.392
833.689
401.977
1083.81
49.8084
46.1573
507.374
49.5227
251.571
56.4866
78.8067
92.24
897.095
59.1957
46.4821
63.6877
123.277
74.4634
74.6477
77.3257
174.531
89.9717
75.3354
89.5912
79.4799
58.915
48.237
130.037
59.3031
93.2969
53.6631
72.9913
89.4939
173.003
346.81
1026.85
65.4186
79.3891
139.462
89.634
494.352
122.344
103.693
786.92
135.545
81.9445
212.137
172.661
217.787
79.9577
134.971
140.511
875.918
50.8175
46.6377
66.2625
103.674
60.2136
53.5821
663.004
106.405
635.089
53.6833
60.3227
61.8714
60.3468
62.3205
91.0287
820.834
169.802
216.458
89.5701
78.6587
49.0643
73.3718
71.8133
94.8118
62.4618
62.1338
228.186
82.4526
482.837
62.2569
232.201
343.756
123.484
331.693
215.696
550.001
131.172
298.714
115.702
80.0084
846.933
71.3166
329.054
70.9894
914.094
320.009
62.2966
55.323
900.339
617.5
48.495
120.672
46.5014
560.343
605.559
135.104
52.798
56.1572
192.654
47.4486
83.4479
49.9513
49.6293
48.8011
70.4807
67.7127
196.186
57.8093
484.351
99.0094
51.9923
307.216
62.4633
53.5628
525.452
72.1598
98.4217
64.7014
49.1126
666.831
87.3819
669.018
310.974
63.2434
1001.24
57.8177
48.0419
440.436
93.1139
71.5821
191.664
242.531
336.189
414.286
165.765
190.797
48.6889
376.917
267.173
211.315
1079.59
720.896
209.345
391.344
172.504
105.365
207.078
129.132
898.577
46.7111
70.783
640.837
78.6121
189.561
441.501
827.654
150.499
50.6603
73.4571
83.4886
51.5625
63.5499
188.678
144.087
62.0455
61.5693
192.078
117.529
90.656
121.471
404.377
71.322
166.378
97.1198
69.3603
432.821
49.3642
49.6888
48.4695
56.4277
50.1675
48.9371
77.2191
47.0925
82.6622
123.089
65.8728
589.641
59.7524
54.4881
160.785
314.024
181.505
123.807
119.176
442.607
69.1388
570.25
427.897
71.6652
79.1001
202.941
65.1685
374.258
1237.7
588.503
77.4454
106.498
69.8995
176.139
101.717
95.6103
112.973
68.8228
107.423
58.681
62.1572
59.3104
56.6169
48.2543
62.2749
52.4148
48.7309
47.1589
112.379
74.6012
119.028
440.746
68.752
172.845
517.865
204.599
115.827
49.4919
81.2844
46.9358
46.697
50.1309
353.086
90.2802
807.826
68.7748
55.6491
55.8954
49.0899
51.6908
51.5717
129.639
117.34
163.355
61.2813
96.652
50.0026
142.608
48.8613
54.1766
59.7105
54.0899
74.1931
294.051
48.038
225.047
164.843
48.6956
48.8496
49.0437
78.0079
79.1966
186.055
121.634
84.4759
50.0451
47.3486
116.108
89.3216
104.467
49.7934
49.6816
64.4136
53.9036
85.7605
102.417
75.5749
98.9521
917.283
594.275
457.332
471.166
73.0698
49.8075
102.99
167.555
170.327
117.104
387.331
361.768
116.41
181.667
92.8965
428.768
1011.21
978.87
1030.74
59.9867
87.1887
57.4272
104.116
64.7633
53.8375
51.1095
48.2387
47.6182
47.9294
47.2953
48.5964
228.588
258.025
152.144
408.412
110.751
107.391
58.9345
89.6828
161.361
137.234
81.0404
49.9226
53.4123
165.087
85.4585
72.4054
95.8888
49.1174
1238.54
231.313
952.459
897.268
898.701
176.169
894.203
1204.99
948.781
49.571
78.249
815.975
46.6268
46.8258
157.739
130.599
56.7882
1046.61
87.2186
118.873
618.191
448.255
389.212
657.319
1005.84
1229.52
408.459
349.206
96.0995
791.423
447.454
301.333
387.937
608.903
68.5184
486.852
79.3362
731.632
682.341
200.444
156.417
71.5725
70.6804
979.532
158.192
868.079
256.298
825.773
683.691
2239.69
715.936
493.204
507.521
291.165
49.5734
49.2703
133.328
46.577
105.306
617.622
48.3896
72.3737
101.181
57.829
47.2966
46.8483
49.6422
48.6892
46.5034
46.8223
60.1611
75.3756
47.5967
48.6004
52.2561
48.8373
69.0421
81.9268
73.6446
75.7371
47.7612
88.4148
63.163
49.4791
49.8242
107.617
96.9422
67.5104
67.3801
69.7727
70.0688
216.686
53.5269
429.714
48.1524
79.3333
136.927
46.7165
46.2673
678.463
1038.44
67.6742
174.761
55.5909
67.9295
49.0827
279.18
61.8173
72.2682
80.8116
69.8631
64.6348
638.917
565.918
72.2857
183.65
846.125
46.6798
46.9243
229.298
47.2856
46.96
59.8707
86.7103
45.8767
220.165
52.5239
50.0633
47.6936
81.052
48.0308
50.7053
49.9336
46.7579
56.1242
103.861
356.534
1063.13
51.3473
48.4443
46.0916
60.9735
46.8258
55.4389
73.5492
75.5038
50.0508
47.0644
46.8649
106.242
51.2281
48.9204
78.0726
74.4197
95.7496
68.9321
797.444
648.342
73.4238
563.503
145.444
203.074
61.3763
92.9504
66.1244
284.952
170.214
131.046
46.2129
46.7158
46.4994
60.5417
50.8271
52.288
70.7768
97.9396
81.9373
130.823
52.5804
50.9736
304.573
74.3153
494.716
212.842
77.3248
185.565
415.798
66.9974
95.722
67.4333
381.618
62.1482
819.095
1147.91
1017.68
66.1713
127.712
881.601
178.774
392.008
72.0926
174.853
256.725
79.3508
69.5318
982.996
51.6204
136.326
74.2051
73.1569
143.811
599.664
230.93
483.121
977.822
70.3818
272.803
614.853
219.817
205.209
78.1382
52.7388
70.0159
57.5243
845.418
1168.93
794.311
109.001
992.905
599.037
78.7088
104.22
79.4943
162.326
91.3248
49.4513
118.677
100.172
131.255
88.2871
154.046
153.789
699.039
51.9764
49.9242
149.966
141.56
71.1426
77.6701
378.668
143.161
578.357
170.874
73.2521
586.999
59.8745
232.57
805.012
493.807
900.186
386.133
363.114
559.655
195.677
431.099
62.5452
98.8712
118.441
67.5991
207.653
550.929
145.118
910.336
816.369
158.198
184.051
116.252
490.95
75.997
66.8558
123.654
881.732
295.222
48.4809
51.7909
322.786
126.69
130.204
61.98
112.148
97.8388
64.8078
95.9087
75.3479
163.723
90.083
142.621
56.0663
58.0563
61.7514
77.4306
95.0624
77.7861
931.671
64.1914
79.9428
89.7939
366.777
69.4745
111.913
230.596
793.707
556.557
65.3535
832.485
69.4863
105.416
86.7858
69.5748
337.62
133.719
71.9225
214.888
144.335
116.637
88.9573
189.639
58.2456
79.0624
71.5105
56.4015
48.8494
474.196
415.467
131.277
944.227
333.997
671.228
225.872
186.788
230.085
61.5492
107.655
92.9102
303.483
398.308
239.997
844.115
58.1268
407.778
799.623
104.734
972.131
330.798
518.346
550.903
118.066
217.929
70.6812
64.8564
884.374
84.1012
164.534
107.371
56.7528
68.2521
917.698
962.226
209.057
958.266
74.0352
362.097
188.563
404.317
205.063
426.113
866.691
122.31
641.814
46.8622
46.5091
104.02
272.708
379.455
155.657
62.1187
53.917
47.915
49.5656
125.553
114.244
69.7836
64.258
53.6565
49.2162
112.02
124.535
506.151
84.0526
75.9073
52.8508
55.6518
104.496
123.826
62.063
79.2849
69.5327
70.846
82.2405
48.7541
48.325
70.8775
55.2824
218.096
47.5624
176.597
47.4637
61.5994
60.925
83.8825
67.9805
163.559
70.2491
76.3968
126.29
206.766
316.326
70.1526
140.136
361.507
54.7783
46.4886
51.251
49.3682
46.6192
56.9645
58.3136
82.2206
163.061
179.858
463.839
172.789
229.711
65.3636
78.4557
127.491
92.1786
66.0425
68.0428
48.2155
48.2648
54.6471
269.756
56.4894
59.8656
146.755
263.471
375.178
183.9
52.4483
51.2113
116.889
91.7718
72.966
65.4918
73.0564
82.1956
71.8697
154.788
92.64
906.66
84.9543
47.7209
57.8016
83.5586
48.1052
95.7312
81.2155
128.357
48.8316
66.007
400.14
48.3178
79.4399
48.3952
49.7428
120.534
56.7487
58.508
136.188
136.638
105.503
113.744
61.2599
70.951
89.2147
108.795
57.4318
123.67
82.7608
78.2857
369.566
92.5356
253.142
48.6304
76.8994
156.728
269.6
1096.63
49.1146
431.282
319.98
123.444
94.5261
65.6577
78.3336
48.4634
49.4218
118.117
48.5425
87.6767
78.7912
181.718
155.601
78.2915
51.8177
1058.98
100.196
872.063
387.47
399.561
169.663
395.365
165.843
883.073
235.543
320.26
76.9538
1100.07
867.273
56.396
63.5252
597.474
826.389
933.737
64.2731
46.7382
814.169
1054.04
730.846
151.253
46.7625
147.429
172.243
130.738
129.071
110.152
120.549
557.407
93.0909
302.928
79.8328
555.58
64.8828
235.678
382.874
59.8359
399.642
128.541
92.1754
52.421
52.7463
139.969
65.967
191.95
310.038
382.65
881.438
65.1833
56.8143
503.643
71.4751
947.985
60.5996
859.519
851.395
773.825
337.622
48.3272
213.078
49.1004
172.725
94.4228
99.5753
48.7564
76.7753
48.205
49.0275
49.764
49.3927
49.3242
49.0833
109.564
48.1019
47.396
49.5021
1226.33
941.461
793.44
785.911
673.234
47.2502
48.4645
472.324
451.71
338.253
90.2808
47.9418
46.3348
46.4032
47.0802
47.0813
63.3429
144.05
173.207
48.0753
519.428
209.42
868.1
480.574
58.0875
54.7032
127.892
126.09
84.5444
210.265
77.3771
481.346
221.061
110.59
210.314
199.414
404.167
64.8905
752.001
159.221
980.779
72.0956
72.6008
966.247
232.294
170.01
140.822
228.237
98.2096
65.2424
104.631
54.8815
1065.83
1112.19
877.102
57.3347
62.4577
828.023
524.277
52.7577
823.169
975.394
910.343
844.57
882.077
825.117
865.406
287.792
137.685
581.615
51.3372
695.606
242.653
131.494
58.799
709.942
100.193
67.6221
327.1
87.5605
154.476
631.597
128.181
134.539
76.6106
85.8489
72.5562
50.1482
47.563
46.775
68.2213
51.1361
109.12
46.4843
46.6707
46.681
47.5528
46.0242
77.2785
48.5743
148.882
48.1739
77.5782
49.0391
87.2403
47.9581
46.0164
202.308
118.697
703.394
71.8828
163.604
53.7533
257.256
76.6017
78.7511
131.428
181.918
69.7009
57.7235
231.449
123.817
113.905
169.497
52.6188
996.963
617.051
125.39
70.1001
50.5473
525.677
138.419
77.2564
86.882
141.822
50.2915
56.4493
63.747
65.1115
47.3487
50.673
78.201
54.2555
51.9063
78.5894
207.445
71.244
103.355
93.1742
69.9413
75.4468
209.127
73.1763
63.126
147.28
58.9763
331.58
61.7158
71.2576
66.3838
189.925
671.564
88.905
91.3178
212.266
207.363
151.033
92.2261
237.041
63.6049
79.1429
70.5128
56.0619
60.9117
102.128
919.132
656.279
224.487
911.763
467.195
209.992
83.2158
96.2514
52.7467
276.993
73.2319
91.4277
56.3033
58.2518
616.331
88.2284
597.45
135.612
101.769
236.908
647.066
219.339
697.867
548.423
515.466
149.126
509.027
912.904
587.561
47.4434
51.4896
47.6824
58.7647
65.3055
76.1526
46.4906
56.9502
47.5136
53.6245
60.1459
56.5176
62.7031
55.5098
207.244
95.428
68.6807
76.1358
66.4742
130.013
54.3967
153.843
60.0311
132.208
530.596
844.393
287.781
405.719
1667.62
747.555
192.66
79.7553
85.2794
183.442
730.658
887.362
868.013
53.1691
48.7998
189.457
680.247
849.787
45.905
276.77
52.5341
65.1753
123.543
46.6459
46.4049
141.588
600.241
367.646
47.0941
976.952
180.136
621.86
72.3929
80.6558
97.4569
419.06
861.25
568.126
309.137
567.398
53.748
62.1373
73.6462
67.6078
88.2029
64.2507
602.298
79.4582
54.4532
53.4451
94.0602
374.537
74.9778
61.2218
61.613
813.372
72.9654
66.6353
74.1764
93.3041
76.1586
64.5839
60.3161
665.686
241.176
139.916
47.3378
95.5748
79.6505
49.7737
55.6142
54.413
76.9979
107.558
75.8094
119.176
75.5792
48.7455
89.0624
67.1181
83.7229
52.1667
50.5004
262.501
67.2123
379.72
295.965
56.2906
157.201
254.746
386.273
489.499
98.0226
65.8399
54.4691
228.971
112.274
123.548
185.189
111.486
93.987
486.891
58.887
78.8551
767.66
54.8491
55.2868
56.0592
54.9061
79.9204
260.876
204.4
52.0847
106.963
113.417
47.3429
46.7433
50.3407
48.9878
49.4158
89.7084
55.4712
69.2676
49.3893
84.3777