/*--------------------------------*- C++ -*----------------------------------*\
| =========                 |                                                 |
| \\      /  F ield         | OpenFOAM: The Open Source CFD Toolbox           |
|  \\    /   O peration     | Version:  2506                                  |
|   \\  /    A nd           | Website:  www.openfoam.com                      |
|    \\/     M anipulation  |                                                 |
\*---------------------------------------------------------------------------*/
FoamFile
{
    version     2.0;
    format      ascii;
    arch        "LSB;label=32;scalar=64";
    class       surfaceScalarField;
    location    "0.0380695";
    object      phi;
}
// * * * * * * * * * * * * * * * * * * * * * * * * * * * * * * * * * * * * * //

dimensions      [0 3 -1 0 0 0 0];

oriented        oriented;

internalField   nonuniform List<scalar> 
7371
(
0.00644076
-0.0126618
0.0125055
-0.00628452
-0.00767817
0.00193792
0.00341975
0.0023205
-0.000933257
0.0014604
0.000280095
-0.000807242
-0.0047547
0.0103704
4.22746e-05
-0.00565794
0.0161099
-0.00573164
-0.00469236
-0.00568593
-0.00259791
-0.00104283
0.00389782
-0.000257075
0.000528558
0.0010417
-0.00036905
-0.00120121
0.0469393
0.0114618
0.00204779
-0.0604489
0.00509355
-0.0333201
0.011703
0.000841965
-0.0097277
0.00951676
-0.000631028
-0.0251477
-0.0573908
-0.0091835
-0.058295
-0.0870745
0.0567233
0.0886462
0.0281645
0.170285
-0.244314
0.0458645
0.00157025
-0.00137507
-0.00142234
0.00122716
0.0530121
-0.0524775
0.0192682
-0.000497618
0.00131184
-0.000655214
-0.000159012
-0.00278597
-0.0055222
0.00158193
0.00672624
0.0614418
-0.0416749
0.063992
-0.0837588
0.057175
0.000829673
-0.0580047
0.00114539
-0.000173208
-0.000235348
-0.000736831
-0.000138187
-0.00216496
0.00134502
0.000958125
-0.000163553
-0.000126741
-0.00133194
0.00162224
-0.00261528
-0.00115291
-0.00126107
0.00502926
-0.000800159
-0.00264989
0.00142601
0.00202404
-0.0558756
0.0556018
0.00027381
-0.00593555
-0.0425568
-0.00738322
0.0457752
0.0140708
-0.0594035
-0.000442484
0.0913233
-0.00262905
-0.0429191
-0.000740426
-0.000404724
-0.000990204
0.00213535
-0.000751127
0.00838708
-0.00823021
0.00059426
0.00787135
-0.0152487
-0.000706101
0.0251471
-0.0149433
0.0170833
-0.0272871
-0.0663039
-0.0233575
0.0896614
0.0251021
-0.135392
0.126185
-0.0158951
-0.0556656
-0.0598854
0.115551
-0.0284378
0.0597476
0.0201149
-0.0514247
0.00322097
0.00368237
0.000786501
-0.00768984
-0.0339016
-0.0382272
0.0993048
-0.0271761
0.000948919
0.00224488
-0.00138116
-0.00181264
-0.0557712
0.0273334
0.0583403
0.0634754
-0.0620681
0.00268026
-0.000291941
0.000985413
-0.00337373
-0.0132762
0.00149308
-0.0117898
0.0235729
0.00356704
-0.0035939
0.000813619
-0.000786762
-0.00159007
0.00357906
0.00596151
-0.00795049
-0.00183153
-0.00064278
-0.00101816
0.00349247
-0.00319099
0.0106792
-0.00734418
-0.00014403
0.000510238
-0.000553255
0.000812398
-0.000769382
0.0107918
-0.061353
0.133046
-0.0824852
0.0299021
0.0177148
-0.0476169
0.0342021
-0.0663433
0.0620433
-0.00180761
0.00327423
-0.00107852
-0.0003881
0.00116819
-0.00166057
0.000222222
0.000270165
0.0200428
-0.00232828
0.0143107
0.0158912
-0.0221451
-0.0217907
0.00552886
0.0305726
-0.010958
-0.000742308
0.00858266
0.00311769
0.000864241
0.000427117
-0.000693793
-0.000597565
0.00313726
0.00448343
-0.00216486
-0.00545582
0.0115972
0.0056125
-0.0031652
-0.0140445
-0.00177137
0.00104046
0.000560655
0.000170256
-0.0349105
0.0529188
0.0417964
-0.0598047
0.00583317
-0.00886385
0.000782681
0.002248
0.020628
-0.0555385
0.0266892
-0.020218
0.0278194
-0.0342906
0.00910428
-0.0477421
0.065327
-0.0519178
0.130845
-0.0174854
0.034763
-0.0694581
0.00132723
0.000305266
-0.00251259
0.000880087
0.00703527
-0.0109448
-0.00200939
-0.0239146
0.0347869
0.0791972
-0.0900694
0.00311162
-0.00949873
0.00255756
0.00382955
-0.00656819
0.0167813
-0.00339314
-0.00681994
-0.0011367
-0.00447051
0.00168485
0.00392236
0.00108202
-0.00265899
0.00393127
-0.0023543
-0.000863813
0.000280917
0.00144714
-0.00159543
-0.000519579
0.00473583
-0.00262082
0.00653423
0.00716562
-0.00940796
-0.00429189
0.000916273
-0.00498145
0.0105994
0.00782876
-0.00712617
0.00157378
-0.00227637
0.0184198
-0.0361579
0.00929767
-0.000513147
0.000482835
-0.000475657
0.00050597
-0.0863846
0.00307888
-0.0657727
0.0696329
-0.00386022
-0.00170592
-0.00179886
0.0076233
-0.00411852
0.0930135
-0.0529732
-0.100783
0.0607428
-0.0263257
-0.0633719
-0.0420966
0.000465185
0.00269429
-0.000268006
-0.00289147
-0.000328358
0.00349915
-0.00109627
-0.00207452
-0.00325036
0.00409745
0.000924753
-0.00177184
0.000417527
-0.000359636
4.15932e-06
-6.20502e-05
0.000442536
0.000637046
-0.00175102
0.000671435
0.0021796
-0.013859
-0.00528824
0.0169676
-0.0255022
-0.0533844
0.0879909
-0.0598208
-0.0697668
-0.0171802
0.146768
-0.000201462
0.0010648
-0.00172225
0.000858914
0.000719871
-0.00208216
0.000429031
0.0300382
-0.0598036
-0.0201127
0.0298061
-0.0351957
0.00141311
-0.00374054
0.00133862
0.000988807
0.00493395
-0.00203805
-0.00181389
-0.00165438
0.000296633
0.000871914
0.000485828
0.00204718
-0.00458442
-0.000272411
0.00280966
0.000868969
-0.000149097
-0.0161039
0.00346157
0.0120459
0.000596461
0.0903077
-0.0279734
-0.0326499
-0.0296844
-0.0167229
-0.0435378
0.153274
-0.00795126
-0.00736013
0.00872243
-0.000358121
0.047698
-0.0613838
0.0163124
0.0683288
-0.0206514
-0.0639899
-0.000702288
0.000497884
-0.000332021
0.000536426
0.000905971
0.00158465
-0.00329078
-0.00803478
-0.0159766
0.0166232
0.00738821
-0.00158937
-0.00280512
0.00279906
0.000391529
-7.72652e-05
-0.000753747
0.000439483
0.00347775
0.000122237
0.0383858
-0.0419858
0.0308776
0.000174397
-0.0275742
-0.00705369
0.00169536
-0.0497621
0.00693464
0.0373644
0.00546311
0.035187
-0.035335
0.000148033
-0.018833
-0.0435369
0.0126078
0.0404451
0.0016765
0.00349694
-0.00160891
0.000665946
-0.00255397
-0.00318725
0.0110913
-0.00133654
-0.00656747
0.00716253
-0.0113529
-0.00137852
0.00556892
0.00757353
-0.010845
0.010434
-0.0180083
0.0118838
-0.00502948
0.0111539
0.0160083
-0.0136413
-0.0203752
-0.0243121
0.012752
0.0116247
-6.453e-05
-0.0136433
-0.00309532
-0.00248554
0.000400828
0.00136664
0.00071807
-0.00107625
-2.78843e-05
-0.000477571
0.0015817
0.00107487
0.00158595
-9.00498e-05
-0.000570789
0.000660838
0.00786351
-0.00873767
-0.017827
0.0187012
-0.0049032
0.0182668
-8.48249e-05
-0.0132788
-0.00309474
0.00093561
0.00204149
0.000117644
-0.000776073
0.000488722
-2.21508e-05
0.000309502
-0.00538362
0.00677199
0.00268517
-0.00407354
-0.0010299
-0.000136394
-0.00123295
0.000850778
-0.000647732
-0.00364913
0.002094
0.00499847
0.00388549
-0.00233009
0.00334288
-0.00489828
-0.0388771
0.0659447
0.0386818
-0.0657494
-0.000336504
-0.00166662
0.000770174
0.00132972
-0.000478939
0.00119332
0.0234537
0.016104
-0.0395577
0.0435687
-0.0559884
0.0429186
0.0428884
-0.0298186
0.0253459
-0.0226712
-0.0653857
0.0255013
-0.0222229
0.104993
-0.0574247
-0.000396576
0.0012912
0.0111865
-0.0120811
-0.0326434
-0.0513724
0.0234155
0.0606003
-0.00106147
-0.000397392
0.00200508
-0.000546213
0.00926493
0.0140783
-0.0233433
-0.00348988
-0.00681479
0.00868201
0.00162265
-0.0194529
0.0390843
-0.0075566
-0.0120748
-0.0258334
0.0258509
-1.74682e-05
0.0636256
0.0393172
-0.155916
-0.0381615
-0.00712487
0.0359584
0.00324818
0.000277808
0.000139719
0.00176343
-0.00100443
-0.000790809
3.18047e-05
0.00170505
-0.00257942
-0.000953821
0.00182819
0.000407935
0.000678787
-0.000345908
-0.000740814
-0.00290091
0.00265937
-0.00127387
0.00151541
0.000678402
-0.000262626
-0.000620111
0.000204335
-0.00246335
0.00142367
0.00723687
-0.00619719
-0.00116565
3.73181e-05
0.000291441
0.000836889
-0.00392745
0.00211217
-0.00046541
0.00228069
-0.001202
-0.00354444
0.00345518
0.00129126
0.00188092
-0.00162989
0.0015124
-0.00711228
0.00374581
0.0043615
-0.00460815
-0.00157236
0.00181901
0.00155389
-0.0003511
-0.00080065
-0.000402145
0.00663949
-0.00227799
0.00260894
0.00121141
-0.000599371
-0.0505912
0.0587265
-0.00199306
0.000532802
0.00243276
-0.0009725
-0.0354183
-0.00713853
0.00109046
-0.00155847
0.000468011
0.00107638
-0.00147371
-0.000734316
0.00113164
-0.00786156
0.00437568
0.00203139
0.00145449
0.0354238
0.0132007
-0.0466068
-0.00201761
0.000606785
-0.000665002
-0.000185418
0.000243634
0.000842909
-0.000239477
0.00107907
-0.0016825
5.45434e-06
0.0452265
-0.052365
0.00183292
0.00259793
-0.00119668
-0.00323417
-0.000468689
-0.000833305
0.000942358
-0.0728823
0.0504651
-0.0148591
0.0372762
-0.0217522
-0.0800718
0.0289417
-0.00142283
0.00077383
0.000649003
-0.00715081
0.00641757
0.00354619
-0.00281296
4.46491e-05
0.00274551
-0.0024446
-0.000345562
0.000614776
-0.00012313
-0.000491646
-0.0557734
0.0340211
-0.00534812
-0.000768195
0.00338202
0.0027343
-0.000831542
-0.00115982
-0.00280373
0.00479509
-0.00588973
0.0187713
-0.0565127
0.0436311
0.00107053
0.000657905
0.000882788
-0.00261122
8.47486e-05
-0.00276815
-0.00389056
0.00657396
0.00341249
-0.00191083
-0.000855897
-0.000645759
-0.00183017
-0.0114117
0.00644708
0.00679483
-9.46979e-05
0.00238196
-0.00348926
0.00256355
-0.00229772
-0.0125915
0.0123257
0.00695736
-0.00419608
-0.0104796
0.00771829
-0.00172421
0.00431629
-0.0022053
-0.00038679
0.000241776
0.00104706
-0.000305094
-0.000983744
0.00101254
-0.00178906
0.000130265
0.000646255
-0.00152595
-0.00100861
0.000290931
0.00224363
0.00276786
-0.0096297
0.00431053
0.0025513
0.00129221
0.00277148
-0.00653875
0.00247507
0.00683253
-0.0044005
-0.00498223
0.00255019
0.000531773
-0.000481021
-0.000261059
0.000210307
0.014097
-0.000430316
-0.00683416
0.00195431
-0.00747927
-0.00287722
0.00840218
-0.0060094
-0.000219757
0.00433025
0.0018989
0.00489098
0.000204704
-0.00469555
-0.00040013
-0.000993834
0.00296201
-0.00297261
-0.000287689
-4.79043e-05
0.000335593
0.000444575
-0.000195394
0.000282591
-0.000171586
0.000588375
0.00231555
-0.00273234
-0.00234048
8.76332e-05
0.000445237
4.9604e-06
-0.00433815
0.00531702
-0.000983833
-0.00800591
0.00189934
-0.00579101
-0.00818169
-0.0241912
-0.0210115
-0.0403307
-0.00578102
0.00678205
0.0484474
0.0598443
-0.0646955
0.0142534
0.05249
0.000157852
-0.0606068
-0.0012099
0.000333998
0.00131876
-0.000442859
-0.11313
0.0197765
0.0303994
0.0629543
-0.0551806
0.0807152
-0.0232382
-0.00229632
0.00220998
-0.00180693
0.00440102
-0.00480407
0.000355537
-0.0555362
-0.00196712
0.00161498
-0.00147939
0.00155509
0.00174645
0.000395424
-0.00369696
-0.00197277
0.000660263
-0.00250216
-0.000690592
-0.00355139
5.12197e-05
0.00419076
-0.0563166
0.103219
-0.000534808
0.00338202
0.00345942
-0.00630663
0.0244129
0.0172737
0.0248915
-0.039394
0.0866376
-0.0364518
-0.00167499
0.000686399
0.00039609
0.0404773
-0.0407058
0.000228444
0.0605509
-0.020844
0.000770424
0.0695517
-0.10876
0.0765726
0.00026069
0.0698167
-0.000525655
0.00477959
-0.0120211
0.0087133
-0.0014718
-0.00040885
-0.00215731
0.0029534
-0.000387244
0.00326685
-0.000988401
-0.0026873
-0.00229287
-0.00401906
0.00249775
0.00381418
0.0236956
-0.0476103
-6.82605e-05
0.00128493
0.00205756
0.0695498
0.00214128
-0.000840424
-0.00237937
0.00256485
0.00279641
-0.00209441
0.00217605
-0.000257616
0.000222849
-0.000674815
-0.000950499
0.00127452
0.000350797
-0.00120829
-0.000116496
0.000649975
-6.73386e-05
-0.000128418
0.130111
0.00131316
-0.00120577
-0.00017473
0.000609562
-0.0002469
0.0645377
-0.060905
-0.00363265
0.0062898
0.00361076
-0.00678894
-0.00742995
-0.00547659
0.0141169
-0.00121034
-0.006339
-0.00511483
0.00507955
0.00637429
0.00420338
0.00466181
-0.00492584
-0.00393935
-0.00822188
0.0220925
-0.0188113
0.00494063
0.000422452
0.00207203
-0.00933298
0.0068385
-0.00164351
0.0111287
0.000842368
-0.0103276
0.00915951
-0.0141135
-0.000349364
0.00152778
-0.00735502
0.00857508
-0.00274784
0.00257967
0.0151192
-0.0182945
0.000595602
0.0025745
-0.00145221
0.00100346
-0.00212576
-0.00187652
-0.00248161
0.00154303
0.0028151
-7.5768e-05
-0.000808018
0.000883786
0.0058752
0.000520343
-0.00354217
-0.00285337
-0.000600791
-0.000755676
0.00028063
0.00107584
-0.00306658
0.000387796
-0.00150567
0.00418446
0.017099
-0.0228963
0.000100346
-0.000226194
0.000451473
-0.000325626
-0.00444254
0.00197718
-0.000601226
-0.00408897
-0.00468336
0.0050074
0.00376493
0.00913137
-0.0104154
0.000225044
0.00105897
0.000858905
0.00473213
0.0109131
-0.0165041
-0.0168187
-0.00199403
0.0127803
0.00603243
8.42652e-06
0.000534731
-0.00157782
0.00103466
0.000903735
0.00280515
-0.00301278
-0.00069611
-0.00118536
0.0009395
-3.21821e-05
0.000278043
-0.00182029
-0.00174686
0.0010816
-0.00154734
-0.00511508
0.00776875
-0.00110633
0.000202742
0.000680321
0.000169691
-0.00105275
-0.000632085
0.000153909
0.000478176
-0.00178488
-0.000851806
-1.3205e-05
-0.00247893
-0.00987989
-0.00143467
0.0137935
-0.000919007
0.00122937
0.00463391
-0.00494426
-0.000668919
0.000574514
0.00269252
-0.00259811
-0.00054607
0.00185796
-0.00482077
0.00350888
-0.00109357
0.000496829
0.000609722
-1.29832e-05
0.00316071
0.00210093
-0.00575724
0.000495595
-0.0108599
0.000412435
0.0025859
0.000392611
-0.00073322
0.0015088
0.00675871
0.000609267
-0.000202361
-0.00999791
0.00498028
0.00966994
-0.00465231
0.0252151
0.0613697
-0.125462
-0.00476271
-0.00162072
0.00319244
-0.00199286
-0.0154803
0.00818432
0.00367409
0.00248205
-0.00837868
0.00222255
-0.00483251
0.00908172
-0.0138907
-0.0082552
0.0175461
-0.00505445
-0.00423641
0.00154596
-0.00316385
0.00307562
-0.00145773
-0.000427354
0.000884959
-0.000457605
0.00508959
-0.00554033
0.000182953
0.000267789
0.00382882
-0.00656156
0.000924341
0.0018084
0.000412112
0.00271842
-0.000332999
-0.00279753
-0.000372441
-0.00945522
-0.000124295
0.00995195
0.00465707
-0.00419009
-0.000929865
-0.000559878
-0.00385838
-0.00146143
0.00091551
0.000344459
0.00160468
0.00235382
-0.0114955
0.00753698
0.000957664
-0.00147556
-0.000673108
0.001191
0.0541511
-0.0790868
0.0249356
0.00123266
0.0015398
-0.00164711
-0.00112536
-0.00282508
-0.001356
0.00418109
-0.00165772
0.000812865
0.000844858
-0.0570057
0.0888979
0.00435164
-0.0362438
0.00178494
-0.000854056
-0.000488835
-0.000442048
-0.000454498
0.00223944
0.0355506
0.00387921
0.0146764
-0.00442177
-0.0108022
0.0031144
0.0121096
0.00201027
-0.00287011
0.000405345
0.00117127
0.0100349
-0.00700279
0.00608466
-0.00407439
0.00375307
-0.0059158
0.00351055
-0.00134782
-0.00755456
0.0040717
-0.0048108
0.00829366
0.00105141
-0.00701659
0.00504617
-0.00439186
-0.00337802
-0.0019094
0.00967928
-0.00417774
0.00351443
-5.61295e-06
-0.00237763
-0.000563023
0.00224284
0.00069781
0.00118673
-0.000457854
-0.000728872
0.00781029
-0.00867451
0.00191563
-0.00757345
0.00179417
0.005399
0.000380285
0.000510121
0.000158321
-0.000504041
-0.000164402
-0.00149538
0.000131105
0.00294519
-0.00158092
-0.00525234
-7.33079e-05
0.00655501
-0.00129099
-0.000141378
0.00595269
-0.00452032
-0.0209605
0.00051302
0.00274532
0.0177022
-0.000810006
0.00455406
-0.00132577
-0.00241828
0.000952323
0.000808725
-0.00106832
-0.000692723
-0.000730091
0.00866633
-0.00845644
0.0005202
0.0019815
0.000842786
0.00345603
-0.00628031
0.00403741
-0.00205125
0.000179568
-0.00216573
0.000295913
0.00197175
0.00928579
-0.0115534
0.00784599
-0.00429853
0.0121655
-0.015713
0.00184287
0.00104347
0.000123638
-0.00300998
0.000198309
0.00146774
-0.000708382
-0.000528262
0.00209109
0.00352676
-0.000831127
0.000609611
-0.000467126
0.000688642
0.000829151
0.000888014
-0.00185099
0.000133826
-0.000417308
-0.00233668
0.00181625
0.000937739
0.00173129
0.00127129
-0.00299659
-5.98836e-06
0.0031385
-0.000779985
0.00020634
-0.0091392
-0.00516716
0.0160305
-0.000268333
-0.00089468
-0.000608357
-0.019792
-0.00845931
0.0113323
0.016919
-0.00685977
0.00325307
-0.00580126
-0.000460656
0.00115702
-0.00359727
0.003315
-0.00379471
0.00126546
-0.000785754
0.000691022
-0.000652594
-3.84279e-05
0.000421607
-0.000460901
0.000758519
-0.000719225
-0.00741889
0.00423797
-0.0013164
0.00449732
0.000633291
-0.000441347
-0.000254842
6.2898e-05
4.18507e-05
0.000220755
0.000689717
0.00709608
0.00301375
-0.00802495
-0.00208489
0.0308633
-0.0182267
0.00226569
0.00101615
0.000860579
0.00115006
0.000828583
-0.00283922
0.000473528
-0.000338625
-0.000134902
0.00766671
0.00638574
-0.0220882
0.0080358
0.000211214
-0.00116774
-0.00190362
-0.00152617
0.0013488
-0.00313294
0.00331031
-2.3045e-05
0.00187077
0.000907153
-0.00275488
0.00358146
-0.00195991
-0.0033134
0.00169185
-6.20519e-06
-0.00390944
0.00194852
0.00074112
-0.000755965
0.000693247
-0.00528504
0.00320143
0.00155534
5.2017e-05
-0.000457538
-0.000662906
0.00106843
-0.0023253
0.00101977
-0.00215091
-0.000166141
-0.00403824
0.000664523
0.00353986
0.0011779
-0.000709862
-0.00144835
0.000980315
0.000524093
-0.000218452
-0.00452661
0.00422097
-0.00117226
0.00181111
0.00015281
-0.000791657
-0.00328557
0.00375109
-0.0018
0.00133448
-5.5471e-05
0.00196287
0.00107145
-0.00263349
0.00225851
-0.00256474
0.00795071
-0.00764447
0.00271987
0.00234165
0.00251481
-0.00757633
0.0235239
-0.00653626
0.0161479
-0.0331355
0.000964035
-0.00743609
0.00271242
0.00375963
0.00331013
-0.00270401
0.000468753
0.00199434
-0.00132124
0.00290837
0.000928062
0.00562117
-0.00420152
-0.00234771
-0.0166914
-0.00173637
0.0231497
-0.0023082
0.00142606
0.000826663
-0.0182727
-0.0125558
0.0257126
0.00511592
0.0689241
0.0435984
-0.0547996
0.00223383
-0.00211619
0.000440655
-0.0005583
0.00121669
-0.000898276
-0.000641581
0.000323172
-0.000104306
-0.00208166
-0.00174149
-0.000515698
-0.00275595
-0.00559803
0.00886968
-0.00214225
0.000703702
0.00194309
-0.000504547
-0.0478707
0.0459596
-0.00586287
0.007774
0.00206388
-0.00259918
0.000106017
0.000429277
-6.6334e-05
-0.00233968
0.00281813
-0.00351001
0.076282
-0.129778
6.42481e-05
-8.69768e-05
0.00299773
0.0128769
-0.00659043
-0.00671681
3.47293e-05
0.00122163
0.00102906
-0.00228543
-0.0076239
0.00382095
-0.0034892
0.00729215
0.000779361
0.00266273
-0.00133416
-0.00210793
0.00202663
-0.00187931
0.00141315
-0.00156048
-0.00113926
0.00131861
-0.00257521
0.00239586
8.33632e-05
0.00144738
-0.00117476
-0.000355986
0.000742852
0.00206534
-0.000744308
0.00255079
-0.00160963
-0.00300958
-0.00268521
0.00115957
-0.00453249
0.00544118
-0.00150988
-0.00542989
-0.00984173
4.85712e-05
-0.00183763
-0.0019428
0.00365357
0.00170172
-0.0419087
0.0100642
0.0206235
-0.00316501
0.014292
0.0127072
-0.0238341
0.00206068
-4.022e-06
-0.00163991
-0.000416744
0.00187795
-0.00124936
0.00143209
-0.0077401
-0.0250322
0.00845183
0.0243205
-0.00110947
-0.00166477
0.00030478
0.00246946
0.0176802
-0.00595662
-0.00289336
-0.00883023
-0.00149296
0.000496601
-0.000745683
0.00306617
-0.00269085
-0.00564465
0.00526932
-0.00484028
-0.00275167
-8.62286e-05
-0.00411226
0.00388685
0.00346129
0.00421297
-0.00678238
-0.000891885
-0.00199731
-0.00174543
0.00140384
0.000137497
-0.000158204
-0.000611378
-0.000627264
-0.00318336
0.00170865
0.00210197
-0.0255211
-0.00452523
0.000663968
-0.0140796
0.00255574
0.0120383
-0.00711873
0.00217651
-0.00570915
0.00588234
0.00339386
-0.00638975
-0.00566857
0.00522416
0.00382487
0.00438926
-0.00574384
-0.00247029
-0.00203948
0.000797197
0.00683665
-0.00559437
-0.0012307
0.000312375
0.00405192
-0.00313359
-0.0327043
0.011232
-0.00317926
-0.00216323
-0.000640675
-0.00219111
0.0034408
-0.000609008
-0.00718978
-0.000800179
-0.00114495
-0.000464972
-0.00118479
0.00141126
-0.000634709
-0.000530939
0.000684436
-0.000828733
0.000144297
0.000442501
-0.00126882
0.000587606
0.000238712
-0.00143075
-0.0107093
0.0151538
0.00127604
-0.00131472
-0.000804463
0.000843141
0.0019186
0.00393513
0.00211303
-0.00474733
-0.00130082
0.00052021
0.00052168
0.00245505
-0.00176488
0.00880015
0.0038469
-0.00491315
-0.00252765
0.0426664
0.0210542
-0.0253948
0.00286371
0.00147692
0.0140434
-0.00225424
-0.00860093
-0.0031882
0.0048608
-0.0113621
0.00872659
-0.00222533
-0.0212044
0.0114664
-0.00853473
-0.00776662
0.00704114
0.00914948
-0.008424
0.0848948
0.01364
-0.0985348
-0.00413563
0.00904901
-0.00177612
-0.00117364
0.00121549
-0.000556177
0.00289228
0.00146531
0.000351409
-0.00158546
-0.00023126
-0.00178586
0.0100716
0.000427435
-0.00871319
-0.000593627
0.000165773
0.000849461
-0.0640475
0.0621246
0.00192294
0.00896766
-0.00565246
-0.011665
0.00834984
0.0161565
-0.0179986
-0.000870008
0.000941473
-0.00287369
0.0016635
-0.00110159
0.00010742
0.00278687
-0.00111937
-0.000718582
0.00318527
-0.00481003
0.00120746
0.000382934
0.00106926
-0.000767762
-0.00205363
0.00142742
-0.000463587
0.00281426
0.000803739
-0.00147106
-0.0014023
-0.00039944
-0.000832754
0.00105369
0.00800265
-0.00945292
-0.000209276
0.000479492
-0.000475827
-0.00114545
-0.00360748
0.00287678
0.00274078
-0.00246718
-0.00315038
0.00124079
-6.55508e-05
0.00170154
-0.000857855
0.00129163
0.00230701
0.000425832
-0.00377601
0.000710011
0.00097531
0.00209068
0.00260538
4.78629e-05
-0.0037925
0.0070637
-0.00621516
0.00736337
-0.00821191
0.00788311
-0.00992401
0.00394533
0.0014657
-0.0011457
-0.00426533
0.000624008
-0.000179433
-0.00648348
-0.0135035
0.00415348
0.00414999
0.00520003
-0.00237969
-0.00134448
-0.0027692
-0.000255617
0.00126415
0.00176067
-0.000789541
0.0015789
-0.003269
0.00103311
-0.000516885
-0.000123618
0.00101662
0.0055941
-0.00451963
-0.000125714
-0.00081658
-0.00199681
0.0029391
0.000700845
0.00296641
0.14063
0.00459887
-0.0942268
0.00163643
0.000928176
-0.00109929
0.00104434
-0.00571565
0.00136324
0.00330806
-0.00245121
-0.00570018
0.00486248
0.00328892
-0.000521364
0.00360703
-0.00306921
0.00298759
-0.00323453
0.00331616
-0.00179396
-0.00117025
-0.000362167
0.00332638
-0.00377445
0.00217849
0.000386926
0.00417781
-0.00722254
-0.00749137
0.00202353
-0.00312956
-0.000819701
0.00351925
0.000421882
0.00239809
-0.00150137
-0.00412571
0.00163623
-0.00057973
-0.000293788
-0.00175151
-0.00335153
0.00195708
-0.000954762
4.50285e-05
-0.0024418
-0.00196367
0.00502533
-7.40679e-05
0.00201357
-0.00339764
-0.000558729
-0.0017734
-0.000674932
0.00163176
-0.000262049
6.53139e-05
0.00194582
-0.00174909
-0.0029792
0.00339996
-0.000682808
-0.0307929
-0.0251309
-9.60734e-05
-0.00196573
-0.000917396
0.00138489
-0.000224753
-8.37583e-05
0.000754231
0.000413415
0.000217245
0.126651
-0.0474429
-0.11311
0.0394188
-0.032028
-0.00571434
0.000294235
-0.00199063
0.000222692
-0.001764
0.000674968
0.000354716
3.87462e-05
-0.00240575
-0.00156215
-0.00479533
0.00416636
-0.00230835
0.00411055
-0.00271098
0.000908782
0.00444523
-0.00229132
-0.00248227
-0.000535722
0.00102848
0.00332204
0.00123582
-0.0034577
-0.00198598
-0.00117296
0.00348402
-0.000325072
-0.00265956
0.00202741
0.000609105
-0.000794573
-0.00182033
-0.00316498
-0.00163001
0.00327667
0.00151832
-0.00103372
0.00177499
0.00072647
-0.00193078
0.0414104
-0.000179114
-0.000147186
0.0164205
0.0170263
-0.0332996
0.0132055
-0.0272203
0.0138677
0.0082972
-0.0185511
0.0100044
0.000249424
0.00924783
0.00980091
-0.0107515
-0.00752219
-0.0120081
0.000979266
-0.025068
0.0285129
-0.0112475
0.0142411
-0.000429995
-0.00152054
0.000277427
0.00651579
-0.00129204
-0.0149715
0.00974776
0.0060031
-0.0067327
0.0055904
-0.0162488
0.020103
0.00214884
-0.016131
-0.00100843
0.0151419
0.00199745
-0.00757558
0.0117477
-0.00423926
0.00325734
-0.00775845
-0.000251186
0.00039604
-0.0014416
0.00129675
0.00216563
-0.00118633
-0.0010836
-0.000662814
0.000859287
-0.00250483
0.00558119
-0.00883896
-0.0108761
-0.0102206
0.00178663
0.000667362
0.00590897
-0.00757194
-0.0119803
0.00125428
-0.00805997
0.00935162
-0.0206449
0.00209077
-0.00793289
0.00615566
-0.00669321
0.00847044
0.00416672
-0.00103166
-0.00412346
0.00370493
-0.00308881
0.00253061
-0.00314672
-0.00270531
-0.00203707
0.00351168
-0.00189409
-0.00322493
0.00180545
0.00331356
-0.000259516
-0.000877964
3.58918e-05
0.0030282
-0.00215818
0.00226848
-0.00254922
0.00262189
-0.00130084
0.00122817
0.0034258
0.00104357
-0.00276432
-0.00542934
-0.00103463
0.0020463
0.00441767
-0.00113408
-0.000243681
0.000167857
0.00265854
-0.00449952
0.00283718
-0.000996201
0.00283567
-0.00371805
-0.0056274
0.00650978
0.00437421
-0.00291248
0.00119682
0.00811028
-0.000900404
0.00230577
-0.00489478
0.00310993
-0.000520933
0.00140547
0.00325395
-0.00235365
-0.00984306
0.00394137
-0.00457716
0.0104789
0.0141401
0.00352625
-0.0112256
-0.00689258
0.00584748
0.00649412
-0.00544902
-0.00135591
0.0115344
-0.00610675
0.1391
-0.0687657
-0.00560858
0.0196389
-0.00958565
-0.00679588
-0.00581453
0.00955632
-0.00382503
8.32394e-05
-0.00124926
0.00123208
-0.00175622
0.00173761
0.00187988
0.00221568
0.00401145
-0.00663687
0.00436303
-0.00235364
0.000550564
0.00548635
-0.00110419
0.00517415
0.00227268
-0.00103245
-0.00269206
0.00145182
-0.00110847
0.00437224
-0.000991083
-0.00849421
0.0234175
0.00275802
-0.000495217
-0.00192881
0.000117531
0.00147667
0.00116382
0.0012411
-0.000477155
-0.00125916
0.00246742
-0.000780562
-0.000445762
-0.00180612
0.000605323
0.00131833
0.000754863
-0.000818414
0.00071903
-0.00290402
-0.000107884
-0.00144876
0.00488903
-0.00427181
0.00652068
0.00293511
-0.00904335
-0.00223538
0.00445068
0.00216038
7.56512e-05
0.00420964
0.00249832
-0.00653061
0.00410794
-0.00767539
-0.000652843
0.00759814
-0.104832
-0.0320788
-0.0425693
0.17948
-0.00896291
-0.00220236
-0.00865682
-0.00334902
0.00519105
0.152489
-0.0621683
0.0830625
-0.173384
-0.046627
-0.0790934
0.12437
0.00135019
-0.000341974
0.00829235
-0.0087015
0.00294491
-0.000888238
0.0130912
-0.0151479
-0.000204019
-0.0191414
0.00938998
0.00995547
0.00540718
-0.0361893
-0.00367832
0.0344605
0.00314138
-0.0145543
0.0117088
-0.00476478
-0.00980114
0.00557671
-0.00397077
0.0113476
0.0325957
0.0386327
-0.0025427
0.0624258
-0.0761292
0.00736622
0.0019461
-0.00224862
0.00387923
-0.00150321
-0.00358851
0.00121249
-0.000498222
0.00538745
-0.00101
-0.000416365
0.00286187
-0.00191262
-0.000532879
0.00274959
-0.00150453
-0.00166143
0.00260566
-0.00217025
-0.00942906
0.00899365
-0.000804148
0.00133821
-0.00150479
0.00097073
-0.00104877
-0.00134298
0.00200365
0.000641254
0.000885863
4.3129e-05
0.00162912
-0.00126227
-0.00127957
0.000912727
0.0023387
-0.00013506
-0.000494454
-0.00247079
-0.00049073
0.00345598
-0.0134456
0.027998
-0.0303346
0.0157823
-0.00804975
-0.00758427
0.00338148
0.00975738
-0.00765919
-0.00547967
0.0246297
-0.0186031
-0.000619481
-0.0288079
0.00873215
0.0241453
-0.00406961
-0.0102082
-0.0311555
0.0044629
-0.00808361
0.00813247
-0.00451176
-0.0113467
1.53033e-06
0.0130854
-0.0176697
0.00896639
0.00849926
-0.00562838
-0.000917759
0.0140482
0.00753369
0.00413072
-0.00939306
0.0178129
-0.00252507
0.00171925
0.000791985
1.38351e-05
-0.00317331
0.00126011
-0.000462582
0.00237578
0.00065804
0.000304978
-0.00413632
-0.000248436
-0.000191599
-0.00208503
0.000842412
-0.00060368
0.000697694
-0.000936426
0.000141604
-0.00110612
-0.000384806
3.41844e-05
0.00086086
0.00109253
0.000753711
-0.00114032
-0.00070592
-0.000284122
0.000345698
0.000466169
-0.000527744
0.000453996
0.000354411
0.00226546
-0.00187177
0.00355164
0.00048399
-0.00115798
0.00293945
-0.0100373
0.00720672
-0.00851612
-0.00272623
0.0117753
-0.00598285
-0.00884052
0.0105825
-0.00340411
0.00789396
-0.0044051
-0.00519399
-0.000312176
-0.00566703
0.0052457
0.00376128
-0.00304465
-0.00596233
-0.000224711
0.00525902
0.000211386
-0.00279544
-0.0076692
0.00798572
0.00864523
-0.0079791
-0.00777607
0.00055292
0.0108846
-0.00366148
-0.00168507
0.000734634
0.00182029
-0.000869853
0.00446177
-0.003253
-0.00898484
-0.000676892
0.00346594
-0.00207002
-0.00253356
0.0566847
-0.000611542
-0.0324447
0.0197426
-0.0019561
0.00879888
0.00817915
-0.00764949
-0.00435469
0.0557216
-0.0287806
0.0569508
0.00501387
-0.000601317
-0.00486751
0.000454954
-0.00112232
0.0689149
-0.0677926
-0.0674551
-0.0808594
0.0817482
0.00630541
0.00261699
-0.00390853
-0.00228756
0.000269419
-0.00755337
0.00668263
0.00264094
-0.00620673
0.00506121
-0.00149542
0.000778687
-0.00918195
0.00264974
0.000931816
0.00147965
-0.00655152
0.00659325
-0.0101232
0.0169081
-0.00937929
-0.162998
-0.0535385
0.0414307
-0.0274131
0.0206195
-0.000915965
2.56889e-05
0.000890276
0.00085575
0.00434649
-0.0045442
0.000169311
-0.00318887
0.0038753
0.000297119
-0.00121308
-0.00327476
0.00411952
0.00316861
-0.00401337
0.0026859
-0.00515111
-0.00447805
0.00694327
-0.000441788
0.00462708
0.00158234
-0.00576763
0.0218391
-0.0226413
-0.00141382
0.00221604
-0.00717386
-0.000472034
0.00491027
0.00273563
-0.002819
0.00158927
0.00199702
-0.000767296
0.00282558
-0.00704364
0.00234153
0.00213801
-0.00213142
-0.000598778
0.00268265
-0.0004946
0.00277042
-0.00140434
0.00077192
-0.00949187
0.00884819
-0.000752997
0.000490371
0.00828902
0.000115703
-0.0152973
0.0020472
-0.00229875
0.00248539
-0.00132829
0.00199243
0.000262875
-0.00107862
0.00270667
0.00101839
-0.00264645
-0.00479517
-0.00364929
-0.00118702
-0.00233754
0.000918778
-0.000778169
0.00321511
-0.0249028
0.0164095
-0.000666314
2.35771e-05
0.00132501
-0.000682269
-0.00480271
0.00207852
0.00376854
-0.00118494
-0.00159301
0.00214324
-0.000124564
-0.00113426
0.000261834
0.000996993
0.000566557
-0.000412648
0.00243923
-4.57329e-05
-0.00679353
-0.00024155
-0.00544297
0.00907801
-0.00339349
-0.00225625
0.00331857
-0.00175406
0.00069174
0.00162003
-0.00160924
0.00809949
-0.00299714
0.0071438
-0.00438821
0.000702931
-0.00019281
-0.00429388
0.0105106
-0.00353078
-0.00722645
0.00235391
-0.003809
0.00586549
0.00164843
0.00206303
0.00170894
-0.00210985
-0.00377683
-0.00149214
0.00284729
7.10436e-05
-0.0014262
0.00490412
-0.00068349
-0.00315659
-0.00106404
-0.00343161
0.00516338
-0.00388612
0.00215434
2.45782e-05
0.00114805
-0.00150819
0.003829
-0.00346886
-0.000388465
0.000920555
8.26867e-05
-0.000417055
-0.00539408
0.00374316
0.00206798
-0.000220724
0.00266721
-0.000175076
-0.00227141
-0.000498371
0.00222548
-0.00212557
0.000398466
0.000974142
0.000886567
0.0092772
-0.00489084
-0.00527292
-0.000317015
0.0057328
-0.000481831
0.00553564
0.00766208
-0.0101994
-0.00229344
0.00372281
0.000671559
0.00531822
0.00730591
-0.00784454
0.00186872
0.00270265
0.00331175
0.000187876
-0.000666928
0.000479052
0.00107336
-0.00163346
0.000118431
0.00044167
-0.000557862
0.000371642
0.00276778
-0.00258156
-0.00168518
0.00215337
-0.00356292
0.000938606
0.000665337
0.00120559
-0.00280953
-0.00094901
-0.000845885
0.00179489
0.00218534
-0.000536826
-0.000869154
0.00259969