/*--------------------------------*- C++ -*----------------------------------*\
| =========                 |                                                 |
| \\      /  F ield         | OpenFOAM: The Open Source CFD Toolbox           |
|  \\    /   O peration     | Version:  2506                                  |
|   \\  /    A nd           | Website:  www.openfoam.com                      |
|    \\/     M anipulation  |                                                 |
\*---------------------------------------------------------------------------*/
FoamFile
{
    version     2.0;
    format      ascii;
    arch        "LSB;label=32;scalar=64";
    class       volScalarField;
    location    "0.00481384";
    object      nut;
}
// * * * * * * * * * * * * * * * * * * * * * * * * * * * * * * * * * * * * * //

dimensions      [0 2 -1 0 0 0 0];

internalField   nonuniform List<scalar> 
3927
(
0.00336771
0.00345218
0.00030673
0.00219454
0.00487365
0.000308166
0.000378051
0.00200777
0.00739846
0.00434981
0.00473077
0.00700064
0.00750783
0.00121261
0.0041569
0.000418656
0.00613712
0.00400395
0.00226469
0.000560659
0.000879761
0.000383482
0.00117653
0.00123104
0.0011604
0.00358731
0.00445319
0.00725261
0.000429369
0.00548005
0.00404344
0.00741861
0.00126441
0.00664226
0.00549746
0.00241442
0.00184638
0.00392243
0.000875056
0.000562949
0.00537889
0.000851222
0.00726271
0.00177318
0.00660183
0.00171171
0.00260792
0.000763099
0.00610948
0.000706262
0.00267181
0.00165664
0.000957347
0.00747645
0.00730404
0.00731161
0.00516507
0.00113347
0.00472708
0.0041732
0.000750719
0.00231774
0.00194314
0.00102484
0.003503
0.00465672
0.00651442
0.000656884
0.000927776
0.000393266
0.00447236
0.00448361
0.000394035
0.00145282
0.00152272
0.00115935
0.00120218
0.00285543
0.00281679
0.00230228
0.00478113
0.000621039
0.00248373
0.00207003
0.0024101
0.00675452
0.00651334
0.00114265
0.000236413
0.000518658
0.000510149
0.000818599
0.00370447
0.00555932
0.00677308
0.000713068
0.000344877
0.000583751
0.00372121
0.000817992
0.00146537
0.000576082
0.00160683
0.00013386
0.00573426
0.00344389
0.00730108
0.00677776
0.000849713
0.00405339
0.00461218
0.000611686
0.00158329
0.00377625
0.000908462
0.000490108
0.00562045
0.00228459
0.00517685
0.00625537
0.00219643
0.00677874
0.00300984
0.00135208
0.00456312
0.00564999
0.00543967
0.00292394
0.00236578
0.00502673
0.00452822
0.00135865
0.000722631
0.000224985
0.000171471
0.00551003
0.006214
0.00153704
0.000564945
0.00454092
0.000712089
0.000715884
0.00389405
0.00225559
0.00430207
0.000593976
0.000168856
0.00065559
0.000383777
0.00175389
0.00604413
0.00395734
0.00412203
0.00663076
0.00207124
0.00444845
0.000221039
0.00149619
0.00410786
0.00295717
0.0019358
0.00732556
0.00333618
0.00338947
0.000278071
0.00163488
0.000494096
0.000443395
0.00229072
0.000593567
0.00342498
0.000381799
0.000861075
0.000279149
0.00100399
0.000619022
0.00124017
0.000453726
0.000924308
0.00160124
0.00570482
0.000594479
0.0026472
0.000673856
0.000683303
0.0024634
0.00375639
0.000633879
0.00086176
0.00119164
0.000926198
0.000966874
0.000613472
0.00551995
0.00450183
0.000134397
0.00218373
0.000284106
0.000102493
0.00100192
0.00142448
0.0010774
0.00446497
0.00139202
0.00167254
0.000728269
0.00570617
0.000349133
0.00600376
0.00521894
0.00158376
0.000535744
0.000615708
0.0007733
0.00316378
0.00315824
0.00384582
0.00069696
0.0043313
0.000924191
0.00250578
0.00204274
0.000854542
0.00062346
0.000467089
0.000758431
0.00099162
0.00151882
0.00106433
0.00362791
0.0021082
0.0045062
0.00290486
0.00249483
0.00196324
0.00373019
0.000482992
0.00747779
0.00479859
0.00120781
0.00302668
0.00158942
0.00141698
0.00289423
0.000912366
0.000718456
0.00741892
0.00361817
0.00389768
0.00445119
0.000679554
0.00163283
0.00377412
0.00459207
0.00647084
0.00247126
0.00492034
0.00121945
0.00127675
0.00130248
0.000551265
0.000846883
0.00134714
0.00105684
0.00105326
0.000940417
0.000525459
0.000493883
0.0010319
0.00649376
0.00108797
0.000662538
0.00206145
0.0029658
0.00652731
0.00118925
0.00273057
0.00460331
0.00445682
0.00622166
0.000563315
0.00307949
0.0064344
0.00053439
0.00146144
0.000398284
0.00125971
0.000525112
0.0014116
0.0015001
0.00079119
0.00105664
0.00230472
0.00588354
0.00613364
0.00434326
0.000729063
0.00173067
0.000885824
0.00101412
0.00168234
0.000844784
0.000359872
0.00136873
0.00354993
0.00267514
0.00166392
0.00081453
0.000744803
0.00254639
0.00337547
0.000726344
0.00572632
0.00596133
0.00420342
0.00191773
0.000442965
0.00591791
0.005012
0.00157892
0.000437141
0.000111862
0.00242236
0.00184358
0.00116561
0.00611872
0.00448761
0.00146745
0.000620125
0.00228008
0.000924741
0.00097413
0.00097882
0.00107902
0.000398149
0.00739844
0.000419981
0.000287255
0.00575466
0.00715413
0.000537431
0.00269098
0.000249699
0.000971409
0.00315647
0.00232013
0.00332925
0.00119813
0.00064202
0.000196376
0.00287001
0.00243144
0.000326713
0.00113846
0.00236853
0.00134132
0.00649916
0.00186753
0.00030122
0.00436444
0.00113298
0.00044434
0.00286948
0.00318695
0.000988197
0.000608529
0.00384803
0.000614704
0.000271793
0.000828061
0.00049792
0.00134796
0.00447821
0.000763642
0.00308743
0.00252027
0.00307664
0.00168205
0.000335652
0.000710942
0.00114299
0.000648817
0.000297914
0.00111096
0.00173878
0.00128007
0.00133795
0.000598357
0.00467862
0.000878588
0.00143087
0.000468754
0.00185161
0.00202638
0.000839597
0.00375582
0.000524719
0.00602954
0.00244218
0.000479127
0.000747898
0.000650916
0.00184298
0.00119913
0.00125125
0.00345962
0.000935977
0.00729157
0.00154434
0.000273284
0.00210346
0.00335527
0.00663554
0.00090555
0.00672671
0.00560071
0.000834054
0.000788776
0.000825556
0.00656905
0.000684457
0.00581986
0.000891098
0.00112299
0.00654479
0.000889111
0.00281218
0.000894145
0.00427388
0.00111679
0.000730064
0.00107923
0.000706285
0.000809125
0.000851739
0.00242077
0.00128047
0.00338879
0.00682033
0.000887087
0.0074396
0.00733614
0.00033181
0.000244614
0.00730341
0.00046677
0.00720338
0.00224666
0.00428298
0.00233636
0.00164661
0.00351064
0.000796192
0.000640909
0.000835009
0.00111542
0.00616601
0.0003006
0.00403088
0.00364766
0.00127979
0.00211073
0.0010351
0.00220475
0.000925975
0.000901767
0.00367908
0.000359484
0.000124311
0.000212104
0.000439499
0.00106398
0.000247411
0.0028214
0.000820715
0.00128327
0.000405028
0.00142682
0.00290225
0.00700292
0.00649179
0.00326873
0.00440189
0.00641013
0.0039208
0.00550676
0.000125199
0.00119168
0.000810636
0.00248998
0.000647924
0.00198437
0.00573518
0.00400187
0.00228552
0.00187663
0.000583812
0.000832864
0.000955261
0.000291695
0.000771971
0.00117211
0.00174322
0.0010707
0.00282232
0.00046012
0.000970934
0.00284366
0.00231394
0.00239643
0.0010149
0.00214087
0.00174452
0.00480998
0.0049736
0.00118905
0.00022817
0.00416533
0.00424482
0.000652341
0.000345042
0.000159106
0.000621886
0.00062731
0.0044573
0.00192755
0.000841877
0.00722442
0.000831482
0.00241375
0.00190805
0.00238342
0.000767089
0.00184304
0.00252263
0.00231592
0.00680278
0.00611802
0.00181801
0.00124597
0.000720632
0.00343062
0.00140294
0.000691654
0.000612314
0.000962695
0.00182783
0.000510068
0.000872333
0.00389061
0.000851322
0.000482912
0.000636311
0.00427372
0.00286141
0.000945317
0.000826103
0.000758597
0.00193565
0.00171572
0.00028852
0.00057272
0.000268529
0.000566061
0.000773699
0.000273987
0.00022626
0.00136608
0.00044792
0.000570908
0.00135865
0.000647335
0.00675794
0.00727875
0.00509788
0.00364168
0.00444663
0.00415314
0.00557198
0.00585946
0.00354992
0.00330471
0.00455504
0.00665893
0.00664025
0.00455856
0.00459061
0.000487932
0.000915837
0.00148324
0.00657652
0.00624098
0.00438581
0.00629005
0.00415729
0.00450461
0.00211982
0.00173303
0.000666441
0.00151287
0.000552723
0.0012367
0.000596386
0.000401184
0.000821022
0.000728639
0.00100099
0.00210499
0.00207848
0.001771
0.00109202
0.00104133
0.00563405
0.00311929
0.00618156
0.00401652
0.00669059
0.00563821
0.00294462
0.00257171
0.00152707
0.0017314
0.00209349
0.00169939
0.00192333
0.00066596
0.00107539
0.00462327
0.000683707
0.000502843
0.0005221
0.000490338
0.000477597
0.00118591
0.00112814
0.00150181
0.0022353
0.00178648
0.00341788
0.0022721
0.00391478
0.00709567
0.00340059
0.00345715
0.00447895
0.00275614
0.00214619
0.00652184
0.00734832
0.00285663
0.00305911
0.00627704
0.00240225
0.00274534
0.00465519
0.0040788
0.000624907
0.000998438
0.000483142
0.000247899
0.00589351
0.000297325
0.000773734
0.00118699
0.000742129
0.000871176
0.000353309
0.00357871
0.00592588
0.00433265
0.00626824
0.00735653
0.00734952
0.00408691
0.00638927
0.00743792
0.00715536
0.00694847
0.00426859
0.000553202
0.000378364
0.000432994
0.000759093
0.000431528
0.00070354
0.000570849
0.000845285
0.000549463
0.000614435
0.00111765
0.00117468
0.00633252
0.00667821
0.00385972
0.00222173
0.00158797
0.00152635
0.00240088
0.00315289
0.00625956
0.00399016
0.00503856
0.000739535
0.00292238
0.00123801
0.00328327
0.00241863
0.00266365
0.00217553
0.00690178
0.00557361
0.00226083
0.00167333
0.00570146
0.00251238
0.00282719
0.00350151
0.00383212
0.00326121
0.00445174
0.00580452
0.00351311
0.00401426
0.00337472
0.00727876
0.000153001
0.00114095
0.000765623
0.000156241
0.00101223
0.00252147
0.00120935
0.0016077
0.00336453
0.00102743
0.00177108
0.00100396
0.00106778
0.000902138
0.00503025
0.000530479
0.00642776
0.00141234
0.000913475
0.00232208
0.00149758
0.00144984
0.00201259
0.000883882
0.00394972
0.000453058
0.0024496
0.00022085
0.000676898
0.000340858
0.00230697
0.00481172
0.000798405
0.00277363
0.00259832
0.000130588
0.00278663
0.00279622
0.00137743
0.00189296
0.00095512
0.000237367
0.0014546
0.00148732
0.000461586
0.0015624
0.000645724
0.00206246
0.000856808
0.00117619
0.00122655
0.00333851
0.0015716
0.00410585
0.00190909
0.0036489
0.00179059
0.000291203
0.000752669
0.000597904
0.00162561
0.000695099
0.000174057
0.000683789
0.00107551
0.00157806
0.00193153
0.000379086
0.000517344
0.00527687
0.00120929
0.000338205
0.00110257
0.000618996
0.000693674
0.000154372
0.000630843
0.0056355
0.00109101
0.000358593
0.000429794
0.000454915
0.000828704
0.00722461
0.000447131
0.000757947
0.000557482
0.000124249
0.00445476
0.00021169
0.0017585
0.00120782
0.000689567
0.00259088
0.00275914
0.00676092
0.00707737
0.00624675
0.00674159
0.00711529
0.00630742
0.00143786
0.00546651
0.00737107
0.00356578
0.000643138
0.00070234
0.00294918
0.000412599
0.00232181
0.00738346
0.00360328
0.00153947
0.00169809
0.00153595
0.00207307
0.00188916
0.000277185
0.00194253
0.00438303
0.00191685
0.0022302
0.00450039
0.000822242
0.0011865
0.00047752
0.00333025
0.000748418
0.000261647
0.000759686
0.00296721
0.00056938
0.0070945
0.00455899
0.000347601
0.000562862
0.00121422
0.000962501
0.00180708
0.00311159
0.0029531
0.00153236
0.00152201
0.00123887
0.00134577
0.00362586
0.00108547
0.000849549
0.00255674
0.000895896
0.00331735
0.000744789
0.00190652
0.00120698
8.75778e-05
0.000565102
0.0039164
0.00236467
0.00242811
0.00721082
0.00193833
0.00166779
0.000371131
0.000456978
0.000446299
0.000599857
0.000397796
0.000757333
0.000267189
0.000938744
0.000535511
0.00360647
0.000580587
0.00440681
0.00278426
0.000476726
0.000736115
0.00278069
0.00104435
0.000794386
0.000823413
0.00715251
0.00661664
0.00136804
0.000395409
0.00613689
0.00153651
0.00138097
0.00361623
0.0049363
0.00491816
0.000428205
0.0010421
0.00470674
0.00474156
0.00228783
0.000672843
0.007469
0.00354541
0.000621902
0.00127729
0.00357472
0.00199259
0.000960554
0.00347297
0.00343502
0.00296346
0.00253207
0.00691224
0.000858447
0.0037599
0.000910347
0.000720117
0.000406704
0.000906594
0.00170592
0.00209517
0.000716806
0.00164141
0.00418027
0.00534605
0.000785211
0.000696721
0.00056627
0.00593922
0.000506571
0.00425565
0.00201035
0.00236345
0.00494973
0.00409229
0.00357918
0.00237204
0.000142908
0.00723703
0.00182606
0.00536038
0.00638423
0.00680911
0.00180618
0.00237086
0.00433047
0.000199354
0.00736589
0.00292754
0.00359236
0.00491867
0.00183522
0.00568097
0.00166497
0.00183274
0.00350356
0.00706625
0.000289145
0.00725778
0.00013247
0.000460772
0.00628655
0.0020954
0.00107245
0.00219738
0.000563963
0.00155269
0.00525973
0.00359981
0.00621002
0.00136708
0.00101567
0.000677421
0.00154752
0.00029937
0.00113015
0.000215337
0.000627542
0.00476564
0.000597224
0.000569253
0.000588448
0.000789715
0.000866371
0.000759517
0.003142
0.000589268
0.000646417
0.0050517
0.0014282
0.000778089
0.000990334
0.00429669
0.000845201
0.00720575
0.00148742
0.00307332
0.00091285
0.000800125
0.00110044
0.00147124
0.00338077
0.00294486
0.00192748
0.00128403
0.00351622
0.00490818
0.000574371
0.000626107
0.00121522
0.000487542
0.00176513
0.000394843
0.00232497
0.000972542
0.000717496
0.000806949
0.00380563
0.00422329
0.00564084
0.000804032
0.000995889
0.000188063
0.000820034
0.00365663
0.000355071
0.0014472
0.000244238
0.000185017
0.00515002
0.00378492
0.00269338
0.00487986
0.00174383
0.00106299
0.00251512
0.000456596
0.000836121
0.00253479
0.000667544
0.00133012
0.00171608
0.00712468
0.000832783
0.000813574
0.000674957
0.00157387
0.00181
0.0007718
0.00388442
0.000577923
0.00239655
0.000823678
0.00317822
0.00110449
0.000359387
0.000900205
0.000988014
0.00318046
0.00447653
0.00715032
0.000110559
0.000264199
0.000638817
0.00343708
0.000620788
0.000293757
0.0071937
0.000292117
0.000543929
0.000400801
0.00328763
0.00732161
0.00712879
0.00708333
0.000113952
0.000381957
0.000640009
0.000467129
0.0007118
0.00015178
0.00308883
0.00150307
0.00328751
9.40448e-05
0.00057129
0.00112268
0.00151258
0.000474239
0.00429254
0.00408353
0.00358688
0.00177165
0.00120737
0.00216457
0.00444933
0.00348921
0.003057
0.00685308
0.00239145
0.00377517
0.00404792
0.00408103
0.000745347
0.00597738
0.00345568
0.000743157
0.000807856
0.000914842
0.000835298
0.00195505
0.000797514
0.00468142
0.000357317
0.00642444
0.00424039
0.000340715
0.00201119
0.00135478
0.00509724
0.00570066
0.000514886
0.000446577
0.000880477
0.000947695
0.000463727
0.000817654
0.000923153
0.000796574
0.00436323
0.00646929
0.00614088
0.00437107
0.00571252
0.00373482
0.00341494
0.00263828
0.00151188
0.0028392
0.00524036
0.00231167
0.000606433
0.000586773
0.00583152
0.000624004
0.000717648
0.000179323
0.000325877
0.000462393
0.000451377
0.00684786
0.000557697
0.00537145
0.00585118
0.0047059
0.000841677
0.00322049
0.00141387
0.00610997
0.00132856
0.00022779
0.000495678
0.000933536
0.00229007
0.000514209
0.00240577
0.00294607
0.00597823
0.000742302
0.00604512
0.00166934
0.00183128
0.000770171
0.00113882
0.00127111
0.00106249
0.00111606
0.00456557
0.000252373
0.00289473
0.00194914
0.00474275
0.00258185
0.000975914
0.00394761
0.00257709
0.000583662
0.000250086
0.000615912
0.00416718
0.00239564
0.00296127
0.00600575
0.00324001
0.00471826
0.0030168
0.00252533
0.00101622
0.000742458
0.000624827
0.00326101
0.000922296
0.00121295
0.00331748
0.00114739
0.00277979
0.0035847
0.00149378
0.00229772
0.00157737
0.000153933
0.00122613
0.000415556
0.00155031
0.00137571
0.00137285
0.00119119
0.000730745
0.000705781
0.000829939
0.00592501
0.00148926
0.00745227
0.00577019
0.0064286
0.00685099
0.00742096
0.00212594
0.00400691
0.000172879
0.0006843
0.000473302
0.000540208
0.00102338
0.00238841
0.000589995
0.00071471
0.00418023
0.00385549
0.00205886
0.000610129
0.000605365
0.000210097
0.00299442
0.00310806
0.00666434
0.000546246
0.000849836
0.00080128
0.00246549
0.00253524
0.00262723
0.00112349
0.00128433
0.000692952
0.00192405
0.000212511
0.000537556
0.000591876
0.00300007
0.0021433
0.000943022
0.00664565
0.00612474
0.00316785
0.0052282
0.00423118
0.00189501
0.00576059
0.00484057
0.00735811
0.0009148
0.00175312
0.00169802
0.00732804
0.000482696
0.000514708
0.00016365
0.000737382
0.000149111
0.0074619
0.00153261
0.002606
0.00169337
0.00265924
0.000796561
0.000681063
0.00253414
0.00175678
0.000852989
0.000702978
0.00642251
0.000905072
0.0012152
0.00013045
0.00146744
0.00607996
0.00231771
0.00576609
0.0031241
0.0041621
0.00357333
0.0067285
0.00721491
0.00743198
0.00590806
0.00721756
0.00354172
0.00524046
0.00192656
0.00692023
0.00342596
0.00510986
0.0041679
0.00751348
0.00537301
0.00565405
0.00528865
0.00110319
0.00644207
0.00324292
0.00422935
0.00377375
0.00440223
0.00399869
0.00398359
0.00176701
0.00638286
0.00687115
0.0073962
0.00755005
0.00740338
0.00083115
0.00247309
0.00634543
0.0026824
0.00549278
0.00740212
0.00745455
0.00166645
0.0038794
0.00723673
0.00263665
0.00696772
0.00706746
0.00619666
0.00267831
0.00747296
0.00502664
0.000497014
0.00194403
0.000913235
0.00692968
0.00333457
0.00441375
0.00307513
0.000532987
0.00377919
0.000620247
0.000868828
0.0039493
0.00719679
0.00348515
0.000991271
0.00498808
0.00159632
0.00689585
0.00526691
0.000290815
0.000624
0.00383028
0.00161969
0.0015992
0.000892072
0.000493055
0.000504118
0.000587756
0.000248558
0.000706937
0.000394824
0.000910247
0.000433172
0.00426076
0.000353419
0.0071183
0.000717114
0.000148559
0.000401313
0.000425313
0.000365327
0.000764273
0.000438605
0.000947956
0.00170238
0.000672381
0.000216862
0.00318784
0.00352096
0.000701358
0.00147815
0.0064189
0.00362973
0.00194134
0.000877121
0.00073232
0.000643743
0.000574108
0.000389046
0.000564156
0.000467564
0.000592476
0.000658636
0.000936448
0.000942975
0.000514737
0.000115158
0.00203931
0.000374722
0.00615644
0.00601798
0.00468283
0.000561815
0.000279712
0.000143329
0.000241634
0.00104757
0.00408178
0.00587087
0.00518927
0.00660071
0.000204196
0.00130513
0.000793993
0.000247586
0.000608761
0.000328578
0.000647146
0.000475007
0.00566903
0.00709642
0.00357572
0.000643333
0.000142867
0.00737616
0.00513837
0.000709054
0.00307401
0.00164592
0.00315777
0.000755408
0.00324522
0.00097959
0.00116053
0.000674449
0.00498089
0.000223904
0.00213945
0.00061697
0.00730793
0.00603288
0.00600644
0.000338356
0.00013404
0.000106641
0.000416623
0.00513161
0.000803272
0.000973476
0.000757582
0.000442645
0.000114266
0.000630476
0.000580316
0.000423271
0.000908041
0.000690699
0.00168074
0.0029506
0.000956507
0.000849047
0.000587223
0.0011392
0.000193319
0.00264839
0.00283358
0.00492769
0.00577416
0.00490509
0.00362039
0.00634754
0.00275959
0.00448296
0.000546175
0.000552848
0.000542743
0.000479114
0.00118622
0.00322236
0.00312099
0.00518916
0.00610499
0.00467215
0.00339263
0.00185305
0.003383
0.00631991
0.00479817
0.000602221
0.00072937
0.00100096
0.0014551
0.00102777
0.00613212
0.00241315
0.000315279
0.00647859
0.00425828
0.00188638
0.00307526
0.00339626
0.00683259
0.000707032
0.000511054
0.00549861
0.00252805
0.00549268
0.00635402
0.000615761
0.00155087
0.00136501
0.005431
0.00556182
0.00209175
0.00220824
0.00038307
0.00607849
0.00189773
0.00499355
0.00420116
0.00719923
0.00447441
0.00745176
0.00160863
0.000690161
0.00140873
0.0017362
0.00480802
0.000942853
0.00175822
0.00137767
0.00211127
0.000591193
0.0011153
0.000978292
0.00562909
0.00563076
0.000723479
0.00115819
0.000122695
0.00365295
0.000483825
0.00080715
0.00681628
0.00161063
0.00672398
0.000406173
0.00134361
0.000454843
0.00660212
0.0063811
0.00313931
0.00101082
0.00083527
0.00118854
0.00729864
0.00716431
0.00185994
0.000519988
0.00443091
0.00100652
0.00634121
0.000945336
0.00350888
0.000831514
0.000216758
0.00138213
0.00104928
0.00562162
0.000235458
0.000535976
0.000488519
0.00246551
0.00385207
0.00623863
0.00114188
0.00213651
0.00161454
0.0036533
0.00674343
0.00688896
0.00150845
0.00433558
0.00711423
0.00182502
0.000239423
0.00287802
9.4263e-05
0.000140058
0.00101302
0.000376026
0.00113432
0.000359911
0.00333493
0.00481973
0.00526587
0.000858491
0.00295071
0.00086935
0.00163212
0.00465148
0.000896165
0.000901083
0.00118423
0.000781644
0.000388572
0.000215323
0.00167873
0.00289263
0.000580003
0.00486151
0.00618296
0.000382454
0.00299019
0.000718342
0.000442709
0.00173475
0.00100352
0.000397075
0.00131522
0.000179077
0.0015312
0.000123698
0.00447181
0.00329452
0.00121112
0.000648447
0.00112109
0.000634173
0.00101052
0.00272551
0.00382173
0.00239852
0.000197318
0.00657069
0.00248281
0.00133201
0.000389718
0.000372951
0.000128425
0.000960437
0.000582583
0.00353083
0.0066288
0.00107149
0.000400922
0.00139136
0.00154221
0.00523584
0.00216162
0.00162258
0.00140445
0.00160344
0.00313198
0.000336932
0.00068423
0.00295084
0.000158022
0.00185209
0.000896862
0.00198759
0.000972873
0.00704148
0.00143737
0.00233549
0.00157053
0.00589543
0.00314294
0.00127919
0.00260973
0.00154806
0.00397366
0.00180586
0.00157847
0.00130569
0.00144469
0.00237513
0.00349723
0.00674502
0.00158193
0.00353546
0.00430806
0.00329676
0.00205648
0.00148738
0.00194558
0.00151366
0.00132863
0.00384537
0.00210055
0.00202432
0.00122429
0.000788513
0.00216788
0.000645591
0.00117025
0.00107068
0.00165299
0.00129441
0.00125581
0.00106567
0.00453867
0.000293656
0.00518497
0.00172026
0.00140817
0.00593496
0.000791015
0.001708
0.00359228
0.00624184
0.00541045
0.00555535
0.00543552
0.00264616
0.000750752
0.00111534
0.0006155
0.0018695
0.000972758
0.00177191
0.000873855
0.000654084
0.00186355
0.000699225
0.000766474
0.000719661
0.000660972
0.000835311
0.00563475
0.000257974
0.00645521
0.00736983
0.00641191
0.000782847
0.000838135
0.000512972
0.0010911
0.00140688
0.000277816
0.000938361
0.00220193
0.00339968
0.00551932
0.0011549
0.00133425
0.000901514
0.00617128
0.000965819
0.000644933
0.00146362
0.000478068
0.000574882
0.000804713
0.000473476
0.00430983
0.00446465
0.00666085
0.00627507
0.00152512
0.00112165
0.000322473
0.00215252
0.00509421
0.00383892
0.00365576
0.00139837
0.00106287
0.000363893
0.00115699
0.0010522
0.00444253
0.00675907
0.00417446
0.00189736
0.000441846
0.000612612
0.00384356
0.00639482
0.00215276
0.00706107
0.00750866
0.00747172
0.00749322
0.00211046
0.00358013
0.00478908
0.00243963
0.00192956
0.00205158
0.00134546
0.0065675
0.0028108
0.00331924
0.00642955
0.00694578
0.000869832
0.000937175
0.000519873
0.00199624
0.00358203
0.00361597
0.000236034
0.00190579
0.00155515
0.000588492
0.00383574
0.00087504
0.000744323
0.000800917
0.000533036
0.000614712
0.000596732
0.000501392
0.000760035
0.00519815
0.0073919
0.00495211
0.00237084
0.00256976
0.000926099
0.0017821
0.00131667
0.000984064
0.0014401
0.00709723
0.000968023
0.00108182
0.00297629
0.000905588
0.00185639
0.00188145
0.00218974
0.000784035
0.000115463
0.000504868
0.000475355
0.000409505
0.000203981
0.0025284
0.00753275
0.00255675
0.00340294
0.00489124
0.00733186
0.0073147
0.00386718
0.00642844
0.000813828
0.00135095
0.00149074
0.000568717
0.000681301
0.000689809
0.000921849
0.00146284
0.000958777
0.00142926
0.000500926
0.000658139
0.00236851
0.00096631
0.00081615
0.00122636
0.00290948
0.000470039
0.000812383
0.000981249
0.00101018
0.00044238
0.00402206
0.00499502
0.000868844
0.00196914
0.00300723
0.00443255
0.00230306
0.0038732
0.00185846
0.00305495
0.00205333
0.00138886
0.00138117
0.00595808
0.00390499
0.00407762
0.00345234
0.00587144
0.00187109
0.00623898
0.00470936
0.00130104
0.00598006
0.00538493
0.00552056
0.00218624
0.00119833
0.000571305
0.000593713
0.00747779
0.00324157
0.00451887
0.000239656
0.00746312
0.00746708
0.000654183
0.00445667
0.00187003
0.000574589
0.0060861
0.000693466
0.000893623
0.00143354
0.00249937
0.00396562
0.00114731
0.00743347
0.00182728
0.0029694
0.00204085
0.00668642
0.000727818
0.00462634
0.00137275
0.0027313
0.00532961
0.000714383
0.00547536
0.00332525
0.0058048
0.00659803
0.00644546
0.000516768
0.00343878
0.00614187
0.00464547
0.00315901
0.000890808
0.00564619
0.00441432
0.00515798
0.0037294
0.00457797
0.000720931
0.000697628
0.000225158
0.000258506
0.000226654
0.00025208
0.000144195
0.000853098
0.000267856
0.000726105
0.000380424
0.000640936
0.00034057
0.00124679
0.000220388
0.000440249
0.000558806
0.00027355
0.00528989
0.000721862
0.000917323
0.000185414
0.000611583
0.00303327
0.00326391
0.00015198
0.000789769
0.000648566
0.000234844
0.000129745
0.000170443
0.000116009
0.00113508
0.000245917
0.000211244
0.00084989
0.000434142
0.000605973
0.000312543
0.000532183
0.00108716
0.000905392
0.000527861
0.000336812
0.00228521
0.00103445
0.000664252
0.00019643
0.00177369
0.000933202
0.00175769
0.00083588
0.000958693
0.000238079
0.00166635
0.000345431
0.000272318
0.00023107
0.000328629
0.000237685
0.000557878
0.000165087
0.00100379
0.000233645
0.00141058
0.00128373
0.000967021
0.000622986
0.0005439
0.000340479
0.000227104
0.00104577
0.0012818
0.000458623
0.00015568
0.00028706
0.000301603
0.000929416
0.000302352
0.0011102
0.000615763
0.000168497
0.00687723
0.00240881
0.00475559
0.00572583
0.00467634
0.00371832
0.00616447
0.000487068
0.00106879
0.000756531
0.00205925
0.00318386
0.000807372
0.000620552
0.00749763
0.0064403
0.00713395
0.000682496
0.00558164
0.00623148
0.000937162
0.00020264
0.000196479
0.000646379
0.000639461
0.00112732
0.000605808
0.000629267
0.000407235
0.000670075
0.000182519
0.00017235
0.000192816
0.00154283
0.000102035
0.00524306
0.00541626
0.00676542
0.00747544
0.00719005
0.000855601
0.00163631
0.00724223
0.000679311
0.00737571
0.000799621
0.00100461
0.00531283
0.00691424
0.00696014
0.00323444
0.00605758
0.000722466
0.00134115
0.00402836
0.00101819
0.00401749
0.00202048
0.00657442
0.00478581
0.000639633
0.00625173
0.0060528
0.00265922
0.00630027
0.00172364
0.00153854
0.00170723
0.00120622
0.00127227
0.00303371
0.00343462
0.00315576
0.00113004
0.00193914
0.0015342
0.0024721
0.00313919
0.000881259
0.00264003
0.000846129
0.00106091
0.000957959
0.000488533
0.000675199
0.00092884
0.000562287
0.000704386
0.00217401
0.000659759
0.00213334
0.00224242
0.000470689
0.000271862
0.000521134
0.000678531
0.00027336
0.000499938
0.00037267
0.000952836
0.00285006
0.00493172
0.00459326
0.000682599
0.00129497
0.00444991
0.000611624
0.00152373
0.000592236
0.00355968
0.00142241
0.00379579
0.00252384
0.00216148
0.000401166
0.000332756
0.00090403
0.00165555
0.000860723
0.00104465
0.00237028
0.0015599
0.00268108
0.000713416
0.000427133
0.000502783
0.00374679
0.000459177
0.00498634
0.000509238
0.000205178
0.00686024
0.00106728
0.00647516
0.000604095
0.000752116
0.000393083
0.000614249
0.000914665
0.00151093
0.0020613
0.00308723
0.00115122
0.00384732
0.00452363
0.00599019
0.00158166
0.00110081
0.00101649
0.00119158
0.00152565
0.00206942
0.00157762
0.000591283
0.00141366
0.000882941
0.00682006
0.00597123
0.00133475
0.00225914
0.00149058
0.00442712
0.000209856
0.0013741
0.0055497
0.00586213
0.000114744
0.00438779
0.000252285
0.000368128
0.000119226
0.00258461
0.00322085
0.00639631
0.0044189
0.000655901
0.000268374
0.00165178
0.000566086
0.00149846
0.00720252
0.00729148
0.00311896
0.000600664
0.000921074
0.000689517
0.00750925
0.00302186
0.00363469
0.00475572
0.00055964
0.000566384
0.000605299
0.000232988
0.000817707
0.0013689
0.00134099
0.00585035
0.00468452
0.00557437
0.00376094
0.00033984
0.00675064
0.000809737
0.000151569
0.000162995
0.00103132
0.000127475
0.000704363
0.00210334
0.00108079
0.00354322
0.00572185
0.000279075
0.00165973
0.000894203
0.00455388
0.00128468
0.00313775
0.000364167
0.00705599
0.00679233
0.00731772
0.000432251
0.00579934
0.00110167
0.000761177
0.000685434
0.000719983
0.00113115
0.00136164
0.00140285
0.000395916
0.00522458
0.00449086
0.00701988
0.00274473
0.00404429
0.00141564
0.00188175
0.00283433
0.000246555
0.00337942
0.000933888
0.00148609
0.000170789
0.00102681
0.00157041
0.00130138
0.00116238
0.00101772
0.00295177
0.000782387
0.000362218
0.000947124
0.0019819
0.00121609
0.00395939
0.00726415
0.00348517
0.00190468
0.00524781
0.00527421
0.00553665
0.00735154
0.00209858
0.00589888
0.00600446
0.00280924
0.00272022
0.00285575
0.000554969
0.00680097
0.000371655
0.00266541
0.00170841
0.00130911
0.00350322
0.00247342
0.00178578
0.00621559
0.00208213
0.00170186
0.00051984
0.000816477
0.000156392
0.00137688
0.000208822
0.00266423
0.00179687
0.00110657
0.000198811
0.000925606
0.00131025
0.0047725
0.000129494
0.00181258
0.00637308
0.00130686
0.0061487
0.00166913
0.00182376
0.00191342
0.00625662
0.0059022
0.00135152
0.00126542
0.000350406
0.000238875
0.0074504
0.00126642
0.00711866
0.000447079
0.00203552
0.000946102
0.000471756
0.00198277
0.000123142
0.00679059
0.0054205
0.00038259
0.00313718
0.00128598
0.00302092
0.00392059
0.000949313
0.000522264
0.00369527
0.00752146
0.00142824
0.000820609
0.00154672
0.00651002
0.00141672
0.00226003
0.00412417
0.00369019
0.00355239
0.00401836
0.00136821
0.00725988
0.00304692
0.00188816
0.00077499
0.00544272
0.00634298
0.00131707
0.00293
0.00193176
0.000249829
0.00692299
0.00189696
0.00384309
0.00630726
0.000470338
0.000653314
0.0062722
0.00100569
0.000692354
0.00344454
0.000617205
0.000824104
0.000565883
0.00252882
0.00373592
0.00419418
0.000818874
0.00466274
0.00332535
0.00177504
0.000997199
0.00172729
0.00336092
0.000272792
0.000903953
0.000317927
0.00717768
0.00201777
0.00673263
0.00286705
0.00675101
0.000803065
0.000863269
0.00195488
0.000619959
0.000919971
0.00128619
0.00396535
0.0010742
0.00579039
0.00642082
0.00502771
0.0019829
0.00160716
0.00226559
0.00099945
0.00617894
0.00164186
0.000659092
0.000729892
0.00205688
0.00210685
0.00205777
0.00327958
0.000600143
0.0015034
0.00085599
0.000754443
0.00114786
0.00043274
0.0019212
0.000268241
0.00195935
0.00642367
0.00478497
0.000788183
0.00036374
0.00724753
0.00231121
0.00387311
0.00232533
0.000536505
0.000500241
0.00195104
0.00548421
0.000550637
0.00472413
0.00127933
0.00222633
0.00333758
0.00549735
0.00196984
0.00149826
0.000745331
0.00310742
0.00062301
0.00111523
0.0026463
0.000257761
0.00139251
0.00156575
0.00175058
0.00120815
0.00136036
0.00137857
0.00409955
0.000274345
0.000723472
0.000431781
0.000471478
0.00144498
0.000118616
0.00198726
0.00464002
0.000292584
0.00127937
0.00129492
0.00165493
0.000777692
0.00141504
0.000605148
0.00080077
0.000704192
0.00535907
0.000768332
0.000815912
0.000764809
0.000237409
0.000295938
0.000421829
0.000323492
0.00527454
0.00101166
0.000544833
0.000555156
9.90885e-05
0.00407245
0.00116635
0.00122816
0.00197236
0.000891729
0.000831901
0.000381182
0.000712359
0.0045266
0.00326523
0.00232037
0.00506019
0.00223834
0.00252058
0.00396855
0.00546431
0.00189263
0.00227622
0.005731
0.000928805
0.00091941
0.000587566
0.00232953
0.00284217
0.00477186
0.00625179
0.000529195
0.00299949
0.00684861
0.00710546
0.00649283
0.00280189
0.00484788
0.00652068
0.00359882
0.00214031
0.000982223
0.0026239
0.00153769
0.00522608
0.00452593
0.000823313