/*--------------------------------*- C++ -*----------------------------------*\
| =========                 |                                                 |
| \\      /  F ield         | OpenFOAM: The Open Source CFD Toolbox           |
|  \\    /   O peration     | Version:  2506                                  |
|   \\  /    A nd           | Website:  www.openfoam.com                      |
|    \\/     M anipulation  |                                                 |
\*---------------------------------------------------------------------------*/
FoamFile
{
    version     2.0;
    format      ascii;
    arch        "LSB;label=32;scalar=64";
    class       volScalarField;
    location    "0.00481384";
    object      p;
}
// * * * * * * * * * * * * * * * * * * * * * * * * * * * * * * * * * * * * * //

dimensions      [0 2 -2 0 0 0 0];

internalField   nonuniform List<scalar> 
3927
(
175.12
207.923
73.3096
155.078
184.464
146.273
234.656
231.526
204.903
173.084
222.062
261.52
258.966
233.749
196.802
236.98
188.528
268.065
241.331
245.198
200.897
210.669
165.049
203.683
250.457
246.205
249.834
250.73
234.136
210.722
193.593
207.308
242.843
237.75
254.354
270.499
213.068
252.659
187.948
277.545
259.811
160.555
204.341
210.259
202.068
158.399
189.643
243.734
261.992
276.738
270.576
218.241
239.662
208.989
203.067
205.493
167.717
230.005
198.374
202.845
216.518
265.956
189.707
277.369
263.399
260.071
248.121
281.277
221.325
98.552
271.753
188.873
161.433
183.582
162.599
235.867
168.615
172.244
173.981
191.977
167.27
240.718
224.24
223.671
194.102
250.953
228.466
144.656
150.892
168.917
246.15
222.947
178.061
260.855
249.02
238.18
56.0208
278.182
267.275
229.516
166.452
139.91
205.926
32.2415
179.997
263.405
243.746
206.837
228.064
231.859
234.479
242.685
204.632
189.903
169.442
247.708
254.06
259.283
157.251
243.816
252.595
251.407
246.242
141.372
194.135
171.116
170.68
172.518
174.235
170.67
171.607
149.006
131.295
51.39
133.51
159.806
164.4
228.406
248.795
210.936
131.185
131.446
183.449
217.423
238.466
149.143
132.831
136.24
291.44
280.025
265.128
262.809
279.963
256.384
187.257
201.228
197.515
172.328
197.094
261.718
257.094
253.977
255.904
255.708
246.866
232.133
191.351
244.097
167.06
240.208
212.882
114.581
139.515
157.158
237.62
151.62
142.511
225.64
149.034
216.862
243.533
177.381
250.966
126.745
232.749
216.646
248.301
247.892
238.26
254.386
242.774
194.258
244.526
254.651
271.125
225.382
204.625
158.428
133.906
282.506
219.587
194.377
199.988
225.385
161.315
191.786
166.31
117.466
185.805
200.424
218.669
242.876
224.727
135.624
161.571
164.178
158.413
245.563
157.178
222.136
151.386
208.007
228.781
250.605
243.969
123.505
218.543
154.322
187.843
262.916
276.197
251.015
262.44
267.349
230.904
232.503
226.204
230.533
233.988
211.253
234.866
157.983
146.465
155.716
227.382
140.884
251.563
164.515
290.627
259.324
234.052
235.6
242.764
235.022
243.149
240.481
209.939
219.304
216.844
205.614
278.771
216.153
273.888
221.281
213.933
223
229.928
229.923
230.494
263.91
227.903
227.47
233.879
186.435
191.763
203.712
190.779
171.826
213.178
200.491
35.3572
211.036
205.681
222.463
227.569
249.593
186.757
242.666
150.047
173.981
250.171
160.47
184.798
174.531
167.431
162.403
242.439
141.876
238.753
157.025
207.612
246.122
249.212
205.488
178.475
213.625
185.899
216.119
243.802
210.734
212.707
238.805
168.755
167.911
237.532
194.871
167.897
169.147
189.835
200.494
191.414
7.34843
176.706
169.897
195.172
204.067
159.28
216.663
232.38
213.412
209.162
253.571
132.982
230.319
142.873
254.634
247.742
243.736
207.512
203.889
237.549
187.491
232.444
181.403
181.581
213.867
207.258
187.479
192.469
235.773
205.959
177.598
99.5612
142.829
208.614
197.577
198.719
145.898
222.551
196.311
169.999
232.914
151.658
210.358
234.822
209.744
174.892
234.143
71.1786
144.426
217.765
210.278
194.247
216.744
199.083
176.129
169.827
207.266
247.487
239.217
199.768
238.738
214.019
208.855
193.808
208.141
222.567
245.932
170.444
151.157
173.686
177.832
171.576
162.216
239.196
175.008
233.655
171.466
165.492
142.597
201.11
196.147
149.151
212.597
154.593
211.266
157.266
205.35
220.209
129.858
169.257
177.877
199.192
217.409
201.627
203.012
130.654
235.954
135.124
169.193
221.231
205.789
207.146
195.153
255.752
220.452
151.767
197.452
179.78
152.832
209.365
167.354
232.209
203.731
203.692
158.808
148.994
165.975
177.735
182.621
204.413
206.106
213.179
204.072
203.97
160.993
209.194
164.739
207.684
207.665
146.996
189.585
192.839
248.337
176.019
168.57
209.867
211.207
207.61
160.06
146.29
176.623
138.935
166.467
148.31
162.554
166.518
139.986
69.7446
222.953
217.999
200.446
210.387
185.168
163.209
146.955
34.5129
205.98
256.108
206.196
202.533
182.492
200.237
168.453
251.674
199.448
225.117
194.494
227.377
201.432
240.659
230.488
203.921
204.078
207.138
157.868
244.019
187.576
154.791
225.942
190.807
148.555
156.385
153.746
190.424
134.866
156.056
169.411
166.481
170.562
170.681
178.112
165.952
179.498
213.534
223.081
243.851
208.082
198.161
243.505
141.313
239.113
201.22
241.125
175.217
163.595
148.437
265.437
233.751
171.608
195.245
191.289
168.874
202.896
165.564
165.157
175.427
172.563
173.503
169.143
174.432
170.732
166.901
177.824
161.079
187.744
163.947
214.761
216.464
264.176
220.315
235.293
234.388
259.817
246.604
228.957
235.405
226.022
165.957
173.31
181.169
179.023
168.875
178.85
186.253
157.916
184.943
196.051
207.289
202.891
274.923
183.546
199.193
202.217
188.27
186.411
192.28
189.893
186.02
185.096
204.034
181.298
180.839
181.184
182.108
181.905
181.794
217.262
129.388
178.518
169.568
168.516
172.878
166.222
168.688
164.555
212.939
164.894
143.143
165.846
242.817
210.193
174.74
176.705
168.852
226.521
156.617
158.37
157.799
160.426
130.159
136.891
176.019
174.959
176.612
180.339
246.101
180.371
177.793
176.739
161.351
185.741
186.412
182.62
172.697
177.646
174.027
209.456
219.953
214.677
227.056
225.974
217.309
223.799
209.086
195.606
212.354
220.513
217.704
219.06
194.663
246.917
197.602
196.776
260.975
229.558
208.921
207.481
203.027
192.022
157.582
163.376
151.421
284.117
249.007
180.186
169.757
166.158
174.807
152.562
182.405
210.712
225.035
234.753
189.392
183.957
201.116
195.503
181.857
189.866
193.987
197.031
200.494
206.752
175.054
204.059
199.471
201.28
199.627
123.598
123.914
123.183
114.115
234.353
236.546
245.5
242.116
243.166
242.407
227.625
229.191
175.85
208.709
208.983
163.269
161.677
192.903
183.668
180.47
178.677
178.828
178.159
218.696
180.314
206.15
252.024
179.439
188.14
181.76
248.783
254.553
196.811
236.467
232.537
192.373
189.198
195.025
203.078
204.951
205.976
204.076
204.914
204.683
230.112
202.879
103.729
142.781
146.748
109.671
142.272
158.011
155.716
180.402
154.391
230.382
224.689
227.463
235.688
229.228
210.082
243.002
177.345
137.855
139.121
146.832
138.83
144.108
153.482
243.897
198.031
236.218
170.641
82.0875
245.9
248.643
165.202
173.545
170.833
157.274
170.404
103.746
159.724
154.676
167.604
181.764
193.307
188.378
208.67
199.433
251.968
149.445
137.46
151.603
129.32
207.458
206.473
211.387
164.077
209.205
212.505
211.084
215.905
251.127
235.976
199.673
227.639
198.117
222.229
145.235
162.008
161.182
160.153
144.473
245.085
169.75
164.184
242.196
179.064
234.808
245.614
95.2607
224.999
176.971
135.151
212.141
181.339
131.934
132.871
205.208
149.668
237.357
218.759
220.398
208.624
241.955
150.382
140.988
228.439
191.674
161.843
170.811
207.021
205.758
203.991
206.782
252.192
175.086
195.3
201.607
208.264
242.181
135.612
199.868
245.697
177.196
205.637
216.275
220.467
219.473
227.387
223.9
219.984
224.021
191.214
198.546
217.111
166.881
193.728
146.715
174.254
160.622
175.333
216.625
150.086
219.466
211.604
209.169
202.741
160.865
223.104
222.175
210.149
208.444
205.728
190.608
154.031
206.45
179.725
226.951
173.998
200.186
218.715
103.392
182.498
213.221
171.834
229.75
177.921
171.666
219.271
233.5
172.502
187.389
186.064
203.894
182.273
163.353
235.719
245.742
239.766
208.019
244.511
226.306
96.2694
235.134
191.687
188.136
195.397
252.738
258.628
172.365
280.09
284.138
223.615
163.18
173.117
192.443
193.171
203.64
111.469
192.557
157.432
160.528
265.874
168.351
171.034
146.419
145.79
225.298
223.136
206.908
169.098
243.656
267.292
226.331
203.08
268.829
186.855
230.832
158.769
256.875
184.528
273.844
190.155
136.017
202.528
175.181
178.315
157.815
157.908
217.836
164.995
232.234
174.186
202.634
201.015
237.13
203.312
198.258
165.014
226.773
155.292
150.354
163.809
204.74
248.062
280.35
211.773
-18.665
206.424
217.535
208.431
171.48
204.823
165.404
152.266
189.965
104.018
204.287
212.417
171.609
171.37
194.83
173.518
216.373
216.73
208.992
198.22
203.822
203.782
60.6166
123.481
211.68
188.014
207.613
170.198
194.144
183.048
172.612
210.831
179.573
164.894
170.042
188.27
177.277
144.622
152.028
219.911
147.127
195.228
132.926
125.108
248.184
224.892
195.614
239.73
199.119
248.556
223.093
202.635
229.212
240.248
201.927
165.162
169.278
195.545
182.997
164.777
132.284
235.718
183.248
154.015
204.009
181.938
177.424
171.339
190.526
208.235
244.363
237.454
227.248
215.231
217.421
140.353
198.824
133.555
125.434
207.128
277.096
197.973
200.135
138.304
173.69
64.6875
195.824
187.648
126.095
167.693
211.756
133.179
167.749
196.182
211.012
192.61
158.148
128.13
190.77
181.994
230.058
151.421
189.547
149.37
185.501
203.974
235.936
138.134
246.194
202.391
152.868
155.706
190.628
211.237
150.891
153.067
170.57
173.708
236.964
148.79
217.193
175.529
202.204
199.438
76.0407
224.527
122.342
174.538
236.579
87.1458
188.199
90.5831
145.974
235.29
188.182
204.607
202.082
205.721
22.8425
141.249
119.648
148.433
223.774
202.241
186.455
203.799
201.501
132.335
128.161
147.563
158.692
119.48
187.232
199.528
201.871
204.454
151.433
187.185
184.458
167.526
157.329
205.6
211.347
174.202
169.404
205.428
215.843
184.262
173.443
146.38
169.248
170.598
144.659
171.293
137
172.948
115.235
164.226
181.817
159.579
159.131
151.371
172.754
172.489
239.015
231.391
235.943
237.546
232.322
240.515
234.79
238.903
180.591
171.078
164.474
187.317
163.333
169.28
205.489
208.433
203.695
205.137
203.307
199.486
187.653
204.761
255.433
205.65
194.403
4.01336
171.516
185.044
171.631
265.108
101.774
225.843
259.766
245.44
229.279
211.522
272.008
264.765
170.945
233.791
219.373
229.294
218.459
209.878
176.669
177.597
184.586
226.529
171.655
191.62
151.69
238.81
148.538
163.553
143.246
215.175
179.458
191.156
188.264
136.642
167.232
155.16
175.347
165.098
212.391
242.763
122.98
247.466
180.242
179.284
227.925
179.978
241.527
224.375
182.901
184.516
235.428
235.96
236.315
183.413
221.767
221.869
211.726
219.375
179.147
215.167
161.414
159.632
158.352
137.094
155.835
226.931
188.955
139.947
159.977
227.176
241.648
229.779
229.082
196.718
214.597
208.575
207.721
206.315
204.251
203.994
211.253
205.553
236.431
242.154
235.251
231.576
208.301
176.335
237.238
140.109
207.61
202.638
222.237
236.724
196.498
68.591
177.448
206.612
209.828
131.901
190.974
153.4
185.729
208.33
172.866
222.832
213.077
199.996
218.09
246.73
242.462
240.493
251.101
244.976
165.595
203.394
206.052
206.735
204.589
229.581
169.179
239.346
240.449
202.524
211.494
232.277
223.507
232.577
234.101
214.647
240.347
247.811
52.7392
209.539
225.221
208.201
221.462
204.099
241.862
239.682
209.003
148.002
135.584
232.372
252.386
216.757
158.593
90.6682
152.44
170.573
275.673
245.639
258.62
192.682
231.516
196.005
243.928
232.881
234.601
224.501
190.767
205.399
210.593
201.65
202.519
243.939
168.298
264.311
255.699
240.201
229.546
237.077
231.376
245.05
247.838
259.432
166.16
186.812
255.171
180.704
193.723
185.258
224.881
239.752
250.142
223.215
207.268
203.438
235.517
186.274
206.498
235.593
178.823
165.061
249.282
240.664
219.658
225.597
228.119
221.848
226.884
224.176
236.126
161.697
163.965
184.256
194.66
258.029
195.956
220.714
233.317
137.178
133.072
248.823
202.194
190.989
131.895
197.681
167.849
187.138
173.601
140.57
237.53
179.472
166.365
149.44
150.844
211.988
129.889
165.232
87.1955
143.577
215.79
153.317
211.803
163.294
235.21
202.312
111.993
230.785
1.30644
235.553
240.414
236.064
112.573
222.774
214.285
237.953
218.381
206.708
151.914
146.308
161.553
173.6
164.382
148
239.084
239.031
238.697
242.585
246.979
239.214
231.863
234.656
232.093
240.139
243.99
246.263
216.527
272.63
240.858
251.801
255.315
275.396
243.951
243.162
215.997
215.18
226.743
228.695
237.646
238.365
201.929
106.076
154.966
125.814
119.451
201.228
128.608
141.221
103.098
207.264
199.975
206.769
240.225
69.9765
204.8
185.272
160.261
203.999
217.39
209.962
186.807
209.237
151.299
152.081
219.635
203.465
227.351
221.519
197.774
203.348
206.178
191.541
119.987
76.0481
14.894
215.716
169.468
146.999
131.715
217.972
112.216
-17.0985
155.072
212.176
240.703
233.693
238.008
214.927
186.662
190.066
169.147
161.359
208.966
109.433
170.37
170.926
272.149
210.467
236.093
192.373
193.898
196.411
254.617
186.918
243.807
245.997
235.322
224.489
194.477
237.253
249.677
253.992
171.7
193.973
212.076
198.748
203.186
228.952
236.534
239.808
228.994
223.668
231.23
174.358
166.832
189.486
169.177
169.151
222.065
204.612
171.888
209.874
241.235
233.856
237.354
235.689
230.046
234.967
192.676
235.32
246.627
170.869
243.526
211.114
207.292
196.035
174.857
215.09
202.321
197.035
199.84
200.147
206.283
184.724
153.917
208.904
201.695
196.228
226.283
174.74
197.122
215.802
240.28
217.947
218.415
211.894
169.127
194.853
152.629
54.8242
214.63
194.619
154.497
206.806
197.664
203.213
231.748
191.289
220.983
210.821
208.126
204.008
136.72
132.9
142.64
206.355
206.251
184.2
223.181
175.365
185.785
168.598
235.788
188.219
240.595
207.311
141.069
137.697
169.165
245.335
249.065
107.151
212.255
215.121
168.501
155.728
215.883
158.908
162.455
207.037
198.415
213.105
199.593
198.806
215.712
228.49
216.595
-40.7915
194.506
224.69
219.506
168.321
110.218
180.991
166.435
160.107
140.087
179.565
150.157
155.285
161.278
117.254
133.73
229.578
244.171
238.911
80.3102
149.759
170.681
149.323
175.924
167.304
185.587
157.412
136.151
169.018
157.184
152.461
132.296
149.019
3.8753
155.818
131.26
198.589
176.689
147.663
217.269
221.448
133.106
220.296
186.655
192.157
202.867
239.197
190.248
203.814
211.328
246.036
85.4892
-4.58769
134
223.428
180.957
207.579
212.972
118.398
200.769
185.755
185.799
184.303
166.596
154.166
176.685
172.898
102.139
176.985
187.018
23.41
157.339
138.315
165.8
160.896
187.975
200.296
159.712
252.986
182.924
253.33
250.826
184.034
241.332
250.847
166.427
144.893
152.609
154.305
152.686
178.824
179.01
172.882
170.979
172.543
174.666
184.893
148.835
200.369
203.524
206.536
154.617
199.005
195.386
140.659
126.009
147.682
134.574
138.961
144.848
141.425
137.029
143.097
132.521
167.151
111.52
181.601
154.298
254.552
165.456
289.466
291.139
169.541
175.517
164.412
175.256
170.554
149.703
152.182
145.12
137.661
151.025
194.156
206.849
202.913
241.873
187.335
236.616
240.198
243.276
236.085
238.384
198.178
16.2819
198.361
205.953
204.536
189.306
134.202
128.926
132.195
192.134
178.245
151.436
183.962
185.964
190.462
136.332
141.697
155.327
197.422
190.019
175.006
214.256
231.728
244.498
130.665
236.195
174.172
191.151
163.082
168.535
163.123
172.179
124.347
180.023
181.78
173.125
173.355
194.73
142.438
146.514
141.825
145.937
194.839
199.648
203.115
177.145
222.767
251.28
267.28
261.89
209.146
196.253
269.03
250.034
241.988
276.788
250.161
249.251
210.37
217.58
251.684
206.979
252.904
267.995
271.801
203.135
205.503
202.422
140.068
47.3153
162.806
168.07
177.452
224.998
216
215.778
234.299
205.292
224.655
197.723
232.467
207.014
231.413
250.223
247.73
235.553
211.069
205.059
208.681
206.272
220.285
227.987
200.222
228.335
230.483
216.996
204.598
229.041
219.589
204.245
220.595
220.713
151.52
169.721
129.123
115.55
117.805
127.64
242.501
114.089
280.953
251.067
275.091
241.934
242.047
202.187
204.149
163.823
166.234
235.133
223.432
213.721
232.347
239.133
206.156
230.571
213.891
236.744
220.674
225.779
234.704
216.421
233.484
230.211
232.691
214.142
235.059
221.866
231.141
231.648
226.199
287.375
252.867
282.931
284.777
278.496
280.641
271.493
179.988
275.979
269.481
283.682
252.866
218.993
169.041
158.52
266.566
243.161
168.294
193.166
174.055
170.877
148.234
167.528
170.646
171.242
243.191
229.963
234.483
236.057
246.891
239.972
234.725
197.544
205.201
209.976
245.753
206.116
219.925
246.041
163.968
234.078
225.843
205.324
264.631
235.607
226.104
228.696
152.072
207.066
205.296
206.417
237.003
185.31
206.533
211.641
204.314
240.117
235.44
173.061
177.343
172.386
172.858
233.674
202.673
205.166
204.661
187.632
234.39
170.044
167.825
178.076
183.42
176.567
225.649
237.283
215.473
199.675
196.887
191.466
221.894
165.378
222.679
159.6
100.06
137.89
227.756
219.234
243.134
241.415
224.078
247.018
170.288
172.067
117.731
122.92
134.566
151.209
213.817
122.885
203.321
230.942
246.457
69.1928
100.142
65.7276
233.631
117.234
242.311
241.346
212.186
232.697
137.506
199.13
236.386
235.98
249.506
251.093
213.992
223.872
236.066
118.961
166.816
225.014
223.615
241.297
226.331
104.239
219.883
58.8693
83.6807
47.224
120.846
132.675
163.045
3.9849
222.697
159.449
225.431
228.814
230.195
238.069
113.486
115.003
132.773
152.976
225.261
247.076
123.785
143.26
139.738
131.823
134.533
137.272
224.092
114.843
252.659
238.206
258.211
253.323
249.72
226.983
259.933
163.263
234.467
235.263
252.633
244.584
234.757
290.688
229.745
174.362
236.535
233.23
245.448
180.87
208.113
228.621
218.483
208.957
225.484
210.126
181.521
171.982
234.474
241.25
241.735
230.199
205.277
223.235
220.669
162.038
227.003
228.101
274.94
228.072
160.197
216.828
207.261
244.08
207.1
189.763
214.283
198.85
188.904
198.44
210.132
188.265
132.867
177.017
183.937
166.904
169.194
180.406
162.29
173.603
209.809
249.531
202.273
199.954
208.866
210.094
189.734
212.802
162.992
206.021
214.362
196.703
204.907
174.467
189.795
209.829
154.85
198.798
153.62
151.855
220.082
226.189
235.21
154.097
229.652
227.832
244.951
244.153
161.953
177.212
156.941
163.487
251.033
116.924
232.629
246.954
198.82
251.067
251.04
192.163
173.788
162.9
164.562
143.214
171.114
173.973
128.205
227.317
134.342
165.73
229.604
167.908
158.464
155.851
124.399
223.32
236.62
216.895
134.993
143.769
170.304
157.031
171.019
238.918
232.198
241.839
209.147
192.891
176.674
241.923
242.911
196.76
211.399
189.628
216.306
206.902
122.835
249.365
243.614
218.504
217.637
214.413
216.105
213.898
205.654
210.901
183.249
137.482
149.152
158.225
179.288
178.106
169.909
248.453
213.807
172.401
198.26
165.101
171.265
177.332
200.477
181.217
249.283
144.756
166.871
165.792
115.758
164.025
214.904
207.513
226.262
212.019
203.386
201.265
203.126
249.453
131.962
149.237
168.563
207.638
203.509
201.449
209.858
241.243
226.657
234.84
210.778
204.338
209.479
206.502
225.257
249.573
245.24
225.049
171.848
151.158
143.535
208.578
197.165
199.076
208.323
170.498
200.312
249.716
225.945
200.965
239.498
102.177
244.414
170.559
169.205
174.361
165.685
223.926
155.347
176.088
161.136
189.423
184.201
131.525
202.927
207.129
203.336
237.01
207.089
133.459
242.739
243.789
242.017
234.894
178.595
155.529
101.438
188.775
201.504
199.2
194.114
171.801
149.671
184.693
210
140.593
210.194
205.978
214.456
230.676
220.051
195.976
174.493
200.21
211.147
183.538
232.692
95.221
201.575
168.337
145.9
173.65
198.474
205.063
209.258
186.412
195.069
201.202
205.088
197.025
204.27
180.687
172.702
195.41
180.819
123.267
190.26
208.88
185.141
150.457
181.169
172.844
161.775
153.578
164.09
151.127
145.768
167.317
150.442
228.068
206.861
91.1607
175.982
187.961
210.556
107.178
228.227
180.996
199.562
64.001
148.821
163.705
175.62
173.985
169.131
209.716
181.992
170.71
181.305
173.733
211.512
239.004
191.156
204.58
218.028
202.241
239.416
152.323
149.911
122.238
153.648
123.123
212.368
201.907
235.972
205.093
184.133
186.203
195.325
193.15
141.852
186.98
209.501
193.033
184.05
227.09
177.262
195.777
186.998
250.353
168.592
165.69
165.547
210.595
200.83
163.153
206.385
193.124
191.373
172.489
170.594
160.116
153.589
133.513
254.539
175.205
157.488
166.126
148.719
235.786
167.024
141.694
220.754
170.003
238.974
242.99
237.219
168.029
188.997
159.612
138.546
208.555
201.887
212.088
200.748
195.556
196.992
157.031
212.629
144.591
197.666
193.8
181.033
178.597
184.258
218.756
122.202
153.443
163.058
180.205
187.663
197.969
198.627
170.184
183.17
185.984
172.309
154.14
172.765
132.891
173.553
156.91
146.583
219.118
153.966
155.565
146.342
191.798
163.73
167.303
221.183
130.646
222.159
238.551
169.027
112.105
157.971
177.073
195.076
148.132
233.526
201.167
162.839
203.94
155.316
247.263
205.908
212.898
198.666
205.118
203.616
179.971
202.436
197.367
207.416
176.911
180.746
241.013
192.382
246.755
227.934
210.75
8.08204
200.583
198.881
153.599
194.478
220.926
218.693
206.432
248.272
205.394
251.623
78.5087
201.989
-32.203
207.742
202.315
206.252
222.355
224.152
160.35
245.763
154.008
244.432
239.582
238.43
205.305
244.184
243.149
163.706
135.175
243.502
193.069
176.441
158.671
199.259
173.134
178.391
215.319
201.509
215.82
125.743
169.474
166.075
150.252
88.0705
178.477
205.406
169.164
169.347
196.331
176.929
175.817
177.399
180.879
183.312
178.458
180.647
191.014
179.387
151.364
181.982
173.795
173.921
170.92
250.486
278.443
230.933
272.49
236.64
280.751
225.749
165.348
231.025
166.003
165.354
173.301
154.426
183.088
192.85
162.042
167.058
178.229
177.913
181.789
235.364
223.272
224.479
239.793
181.079
173.905
170.391
171.928
154.383
-30.7371
190.678
189.02
187.229
175.675
178.008
230.463
224.62
221.308
223.31
209.812
188.898
177.541
181.488
191.825
200.804
199.843
200.113
207.141
204.056
161.685
165.682
160.238
148.987
166.471
159.113
150.063
157.564
178.146
283.723
245.179
239.342
235.754
236.19
143.295
205.08
133.437
180.779
195.712
191.909
214.143
227.941
220.986
180.786
185.364
185.095
250.026
186.858
281.579
197.814
271.275
209.5
194.563
210.543
236.646
248.729
273.31
244.267
182.512
280.284
282.3
286.942
204.85
222.059
244.427
265.713
265.054
280.157
228.578
242.26
232.628
236.34
251.504
212.971
210.161
216.071
206.086
176.666
176.397
177.949
127.461
137.404
143.837
140.112
227.539
280.706
238.478
158.529
158.356
160.207
153.262
151.645
225.391
225.777
217.076
167.576
132.371
103.367
101.044
179.922
189.357
191.063
195.722
190.091
206.082
207.248
202.01
208.83
206.513
204.513
206.644
181.647
152.26
226.13
144.296
252.044
250.443
249.872
251.691
175.045
182.523
269.605
204.041
209.206
179.474
169.581
176.836
184.517
244.762
-27.7056
189.246
79.0415
133.008
118.116
164.281
120.46
138.341
125.466
200.67
175.324
129.265
206.514
205.784
236.059
207.153
181.735
239.718
167.623
169.296
140.014
151.718
150.734
215.257
71.0586
138.703
149.504
150.844
224.55
246.321
218.299
242.588
237.535
243.941
174.084
237.635
222.213
236.026
230.114
167.374
234.554
217.643
215.709
130.229
158.413
138.995
157.536
142.524
134.577
116.188
138.115
139.161
145.309
249.165
210.212
207.93
204.943
209.505
198.825
157.499
200.468
235.27
235.757
229.959
202.289
204.481
209.638
208.51
206.465
206.305
204.106
164.536
210.188
210.441
212.577
199.424
165.931
163.668
165.199
163.963
205.796
201.847
191.384
207.102
207.082
228.816
233.771
219.923
173.332
169.666
166.75
157.421
205.743
152.095
203.494
196.103
192.431
206.009
201.006
203.601
123.075
171.167
233.624
203.729
221.688
210.731
235.257
201.524
215.518
176.83
180.356
172.268
245.69
144.963
167.385
160.911
239.747
205.569
208.466
190.608
205.828
207.682
194.166
199.071
206.069
185.983
198.371
205.669
203.887
176.91
208.456
208.618
210.133
206.88
198.601
162.813
150.422
97.0747
213.728
209.262
204.342
194.822
207.072
213.643
164.743
163.161
204.429
209.199
205.675
200.796
204.546
205.19
207.697
164.289
206.918
166.432
247.419
240.566
203.844
144.51
167.042
170.834
188.982
172.943
173.905
185.677
182.664
166.189
205.293
206.349
207.046
219.051
212.326
212.212
226.243
203.502
191.371
229.052
208.246
209.141
236.45
227.304
189.777
162.326
167.097
175.509
132.015
213.302
176.982
218.54
141.664
187.664
161.036
102.748
127.721
197.397
235.245
125.182
156.981
147.914
187.614
203.877
160.478
166.757
164.174
62.9952
202.299
159.767
163.356
164.315
170.457
140.262
153.857
146.163
117.971
174.974
180.984
149.787
165.909
226.198
217.547
195.689
196.801
213.385
126.517
98.3973
137.418
182.15
116.811
129.026
188.175
160.751
192.399
213.062
181.964
202.868
215.701
174.825
177.852
173.861
170.734
240.678
247.444
205.608
202.984
227.59
159.857
162.75
173.062
148.249
157.252
132.1
185.849
174.337
140.585
191.011
156.418
206.83
222.224
66.2069
239.339
240.338
178.264
157.626
149.052
185.778
181.188
182.396
170.904
155.023
149.791
194.902
140.733
170.028
198.737
187.214
226.113
206.071
216.65
215.392
161.849
135.402
153.159
201.785
198.339
226.534
192.304
162.174
174.454
165.514
191.596
171.618
169.166
165.891
160.173
179.48
157.129
210.588
174.495
176.401
179.29
168.873
166.061
133.921
227.489
197.373
178.352
242.68
176.516
207.264
160.826
148.196
242.442
222.434
250.25
166.654
198.275
179.713
169.072
153.317
200.607
181.25
154.137
161.653
229.675
179.693
182.299
186.322
185.876
186.074
187.162
208.574
149.895
135.838
159.629
117.919
148.698
145.713
171.081
178.943
180.08
212.298
192.762
231.211
163.173
-44.231
150.73
228.543
198.683
153.602
142.014
248.085
138.103
240.704
219.366
248.346
237.029
237.447
246.797
238.578
133.076
243.797
230.276
229.446
184.944
165.603
76.5128
136.702
199.756
140.088
251.187
242.017
156.94
155.23
222.449
233.398
243.721
211.004
221.704
203.396
226.757
229.225
242.133
237.899
229.594
171.738
199.38
200.793
202.316
161.989
222.75
213.77
216.339
210.161
199.768
164.276
165.564
168.966
163.256
163.852
193.436
186.539
183.443
182.002
182.3
178.031
173.806
165.391
181.045
209.277
204.395
195.637
194.093
154.325
203.159
240.997
207.876
215.04
219.204
220.275
221.253
187.889
172.461
178.11
239.488
245.864
231.957
220.494
242.515
245.627
203.409
205.654
212.297
207.681
206.592
208.165
182.552
207.442
239.092
242.569
243.389
244.119
231.038
177.669
182.184
223.019
223.614
174.353
174.849
200.109
199.893
197.365
219.618
194.306
191.431
230.798
124.864
149.018
257.01
236.299
230.616
239.849
161.602
173.502
214.426
215.75
225.165
218.92
230.354
221.745
188.485
211.787
205.259
183.836
256.268
272.69
220.618
230.036
175.92
278.792
171.02
182.636
261.35
239.263
277.92
282.072
276.33
232.868
256.27
259.662
267.553
258.225
189.293
199.628
228.713
285.468
271.039
207.047
188.427
183.486
187.962
168.178
234.001
228.616
203.858
168.911
161.785
100.436
102.264
206.454
146.977
153.62
236.827
246.13
235.274
168.998
267.671
292.298
195.905
202.342
172.594
187.081
170.783
168.105
214.049
198.917
126.271
203.654
-20.6869
182.164
152.778
238.181
232.591
227.506
244.169
235.334
222.915
187.016
143.028
140.616
205.071
182.937
145.897
115.971
111.664
181.692
210.407
126.187
117.23
228.855
159.727
207.804
161.539
159.783
162.285
160.138
162.031
161.765
225.38
228.494
133.292
226.943
249.719
175.394
182.12
105.933
195.08
236.035
235.819
220.136
196.749
198.09
224.549
207.603
238.574
213.041
142.981
146.103
183.528
208.409
210.781
175.411
143.882
235.003
106.779
89.3408
126.354
247.007
272.795
255.397
287.218
267.381
242.419
230.37
284.177
184.634
208.499
286.936
286.093
283.195
275.391
208.785
257.387
280.37
256.801
278.751
144.154
147.758
220.744
231.553
103.66
207.631
201.006
148.293
142.81
151.312
197.28
205.72
207.86
205.673
206.057
203.968
209.363
163.075
162.593
204.938
216.471
242.689
223.244
231.862
205.572
213.746
160.976
232.818
166.188
239.075
172.855
242.117
241.835
227.613
174.434
173.303
144.633
179.434
224.515
179.633
239.202
169.461
203.021
246.241
218.877
221.443
205.388
169.944
167.062
172.3
165.986
212.898
134.372
139.77
144.241
213.981
209.885
151.639
148.815
205.762
153.376
121.238
121.028
127.197
122.316
122.256
123.47
245.217
158.985
125.824
213.606
228.339
225.172
177.655
199.744
117.19
167.046
171.597
158.455
164.962
161.842
135.139
163.602
162.645
215.63
233.498
230.693
208.529
210.855
206.315
218.833
214.061
230.021
205.946
206.786
206.906
211.59
206.261
226.256
211.095
231.793
207.54
228.011
204.807
201.634
205.588
205.017
171.547
166.489
151.552
167.381
157.164
199.427
248.527
170.519
166.57
159.881
159.098
168.742
216.105
238.42
240.058
230.395
159.453
200.859
38.6114
216.626
165.891
183.421
203.27
148.681
160.351
230.007
165.294
163.889
209.794
203.378
223.883
216.895
207.567
200.41
214.115
200.007
198.698
187.447
191.042
176.579
209.946
192.158
191.689
217.721
210.744
196.722
195.106
183.557
190.58
148.103
182.358
164.026
166.427
154.404
141.403
163.336
177.815
157.657
159.189
160.027
221.521
240.716
196.697
209.991
215.585
206.62
197.439
209.829
67.3753
125.543
202.961
124.39
124.92
161.998
196.713
209.163
203.552
231.46
197.122
179.821
189.016
190.238
239.183
185.335
177.666
185.616
165.311
152.758
146.326
158.811
142.493
150.898
150.744
156.696
145.693
139.797
145.252
208.351
212.618
209.762
219.036
221.311
211.786
204.666
217.392
205.579
199.622
190.457
191.824
174.335
197.16
234.902
219.062
167.222
164.585
164.264
178.269
193.212
175.51
189.137
163.746
115.474
0.797821
144.871
152.321
121.788
176.026
155.402
231.357
175.501
178.789
125.683
104.433
147.204
199.111
201.64
161.811
145.141
112.225
204.351
210.208
197.413
170.813
176.582
203.301
203.054
211.949
208.152
231.836
206.703
147.283
161.87
146.498
218.206
224.287
229.166
246.078
247.247
244.016
157.482
156.019
189.789
172.881
189.677
211.325
202.011
203.977
173.679
182.58
192.937
199.698
175.839
138.303
171.31
177.333
175.394
118.527
200.093
171.782
169.105
164.778
170.861
170.722
181.724
245.634
159.489
182.471
229.552
228.741
208.406
201.448
231.014
217.431
226.744
230.102
252.79
235.723
245.639
265.476
285.438
208.527
266.65
209.05
265.36
152.936
170.735
149.583
153.148
216.706
226.086
245.01
235.824
248.957
220.59
195.783
204.598
153.297
251.674
251.279
157.545
244.13
181.711
155.397
185.757
163.384
249.648
188.197
192.795
191.52
197.502
169.552
246.055
241.519
195.065
234.857
216.277
201.224
201.638
209.372
289.095
280.043
262.615
193.354
192.792
204.693
183.559
194.752
225.376