/*--------------------------------*- C++ -*----------------------------------*\
| =========                 |                                                 |
| \\      /  F ield         | OpenFOAM: The Open Source CFD Toolbox           |
|  \\    /   O peration     | Version:  2506                                  |
|   \\  /    A nd           | Website:  www.openfoam.com                      |
|    \\/     M anipulation  |                                                 |
\*---------------------------------------------------------------------------*/
FoamFile
{
    version     2.0;
    format      ascii;
    arch        "LSB;label=32;scalar=64";
    class       volScalarField;
    location    "0.00481384";
    object      nut;
}
// * * * * * * * * * * * * * * * * * * * * * * * * * * * * * * * * * * * * * //

dimensions      [0 2 -1 0 0 0 0];

internalField   nonuniform List<scalar> 
3991
(
0.00659233
0.00560507
0.00636396
0.000644078
0.00427194
0.00176314
0.00497146
0.00594381
0.000787571
0.00496638
0.000408645
0.000507194
0.00652289
0.0010572
0.00649585
0.00021108
0.00594516
0.00125598
0.000217309
0.00225919
0.000349083
0.00617886
0.000359794
0.00110034
0.000583579
0.000644237
0.000863261
0.000240995
0.00681111
0.000661905
0.000344476
0.000991007
0.000907538
0.000793509
0.00104865
0.000887857
0.000788502
0.000501818
0.000973931
0.000602073
0.000392126
0.000371295
0.00067229
0.000246311
0.00225233
0.00150185
0.000797792
0.0014834
0.00182604
0.00246995
0.00180784
0.00259503
0.00581146
0.00104222
0.00384568
0.000475073
0.000908912
0.000362508
0.00027057
0.000640919
0.00425602
0.00121471
0.000220089
0.000670471
0.000254454
0.000388477
0.000292757
0.000294319
0.00136453
0.00291129
0.00150898
0.000822193
0.00283382
0.000893679
0.00677793
0.000828574
0.00199013
0.000804375
0.00516304
0.00521654
0.000538257
0.00125987
0.000936235
0.000231658
0.000589149
0.00014703
0.00057971
0.00429943
0.00226033
0.0032821
0.000823069
0.000530181
0.000463673
0.000162837
0.000255641
0.00188396
0.000230471
0.000402012
0.00518725
0.00240236
0.000493479
0.000917692
0.00041761
0.000600489
0.00381125
0.0026242
0.000920707
0.00631966
0.00253422
0.00646023
0.00397542
0.006499
0.00603427
0.00272083
0.00352911
0.00310395
0.00330136
0.00617471
0.0049341
0.00409687
0.00489668
0.000261231
0.00404131
0.000416436
0.000216371
0.000409107
0.00241009
0.00621502
0.00586053
0.00319645
0.00423058
0.00451525
0.00260776
0.000501014
0.00053475
0.00213223
0.00509943
0.0063516
0.005895
0.00644196
0.00413785
0.000821609
0.000574056
0.000416027
0.00137659
0.00139537
0.00327718
0.00255854
0.000709442
0.00692724
0.0066402
0.00633104
0.00637317
0.00115795
0.000889753
0.000951829
0.00175097
0.000822728
0.000794261
0.00114007
0.00595408
0.00685781
0.00676285
0.000467879
0.00103917
8.04266e-05
0.000516554
0.00101843
0.000798543
0.00138823
0.00409606
0.000754579
0.000946663
0.00128073
0.00653427
0.00210277
0.000347582
0.000852744
0.00348182
0.00655122
0.00139709
0.000561218
0.000229741
0.00594949
0.00247437
0.00636756
0.0022518
0.000460115
0.000751387
0.00365272
0.00153743
0.000927761
0.000339645
0.00084939
0.000923441
0.000910809
0.00211493
0.000308371
0.00673303
0.00240608
0.0023062
0.000750518
0.000384197
0.000635755
0.000467535
0.000728246
0.000650192
0.000435215
0.000173342
0.00461277
0.000283781
0.000392342
0.00055281
0.000550606
0.000584891
0.00120994
0.000796359
0.000359131
0.000366017
0.000782227
0.000626066
0.000506184
0.00142811
0.000675173
0.00113988
0.000255534
0.000821467
0.000728641
0.000451415
0.00615813
0.000395255
0.00583296
0.000880858
0.00321126
0.000806026
0.000498789
0.00196681
0.000922174
0.00047084
0.00500895
0.00120165
0.00341309
0.00109342
0.0068811
0.0013357
0.000965678
0.00691404
0.00060583
0.00475125
0.00131782
0.000293555
0.000481183
0.00147272
0.00130175
0.000760541
0.000194624
0.00423812
0.000560387
0.000757418
0.0021845
0.000448021
0.00135487
0.000765941
0.00121157
0.00125764
0.000584998
0.000818926
0.000321245
0.000131388
0.000584899
0.000939468
0.000967347
0.000917514
0.000688833
0.000820878
0.000601088
0.000987442
0.000944079
0.00385963
0.00299949
0.00295719
0.00120643
0.00158994
0.00134427
0.000761545
0.00124323
0.00129336
0.00237238
0.00263212
0.00273728
0.00215175
0.00346248
0.000738347
0.00101578
0.00232239
0.00113165
0.000678425
0.00517146
0.000744953
0.00678203
0.000792509
0.00124857
0.0049861
0.000112278
0.000313765
0.000378117
0.000110858
0.00621902
0.0062857
0.000563235
0.00578063
0.00572318
0.000328459
0.00397773
0.00310879
0.00708136
0.000709052
0.000951696
0.00692397
0.00139594
0.000760484
0.00665453
0.000536314
0.00052597
0.00210321
0.00175188
0.00125629
0.00448406
0.000840008
0.00412437
0.0014096
0.00154816
0.0030001
0.00633523
0.000780853
0.00045563
0.001503
0.00161114
0.00451547
0.00053698
0.00322671
0.00442994
0.00626545
0.00658176
0.00213588
0.00322464
0.00728926
0.0019144
0.00230264
0.000861263
0.000667777
0.00270317
0.000280356
0.000786125
0.00676065
0.00121763
0.000376247
0.00146049
0.000744595
0.00627233
0.00644708
0.000828415
0.000791344
0.00478715
0.00122071
0.00226936
0.000292848
0.000540463
0.000547357
0.00132522
0.00117366
0.00105218
0.000572371
0.000205204
0.000392642
0.00617645
0.00168424
0.000372152
0.00211298
0.00199689
0.00549157
0.00643101
0.000974237
0.0042518
0.00284371
0.0061528
0.000486687
0.00723838
0.00721534
0.000582409
0.00206443
0.000142166
0.00701067
0.00254852
0.000810917
0.00411191
0.000228393
0.000146321
0.00112026
0.000746356
0.00218888
0.000927594
0.000297632
0.000431736
0.000952128
0.00090236
0.00666911
0.000179391
0.00131045
0.00122278
0.00278005
0.000958702
0.003503
0.00288735
0.00223245
0.00138666
0.00138269
0.00370657
0.000476834
0.00305614
0.00666619
0.00198478
0.00239006
0.0013228
0.00164805
0.000395751
0.00404683
0.00166744
0.000783828
0.00579702
0.000923453
0.00130966
0.0008108
0.00361951
0.000667069
0.00202976
0.000725371
0.000305334
0.000786322
0.00580854
0.00110238
0.00715633
0.00629362
0.000632917
0.000530243
0.000332486
0.000654637
0.000654769
0.000380229
0.000315117
0.000301538
0.00035937
0.00382258
0.00139242
0.000425122
0.00201855
0.00174614
0.000321634
0.000417943
0.00319029
0.000700335
0.00429658
0.00634012
0.000595594
0.00103652
0.000297533
0.000199425
0.00365608
0.0035387
0.00448701
0.000647731
0.00319469
0.00135282
0.000545111
0.00362243
0.00071988
0.00137844
0.00125188
0.00595153
0.0039815
0.00612476
0.00104245
0.00425164
0.000164004
0.000665028
0.00199267
0.00377403
0.0066592
0.00695
0.00488355
0.0064691
0.00390987
0.00218336
0.00264319
0.00165498
0.00261888
0.000457114
0.00229853
0.000949616
0.00216732
0.00709732
0.000325732
0.0017203
0.000251674
0.00685893
0.00147417
0.00711058
0.00071988
0.00618516
0.00413945
0.00659905
0.000221683
0.000440333
0.000979415
0.000264608
0.00119901
0.00108716
0.00512605
0.00149961
0.000401411
0.00182274
6.36266e-05
0.000509004
0.000372904
0.0023903
0.000448144
0.00102977
0.00486881
0.00610318
0.00439344
0.00553222
0.00215738
0.000656406
9.70628e-05
0.000198409
0.00132251
0.000472188
0.00705454
0.00235854
0.00119913
0.00316019
0.000456934
0.000756592
0.00169591
0.00551032
0.00556893
0.000368014
0.000680095
0.000697899
0.000333774
0.00114935
0.000459259
0.000365636
0.000284458
0.000428495
0.000803169
0.00376464
0.000477905
0.000352539
0.000724873
0.000479012
0.000718764
0.000818006
0.00102547
0.000188548
0.000785745
0.000329563
0.00036404
0.00138982
0.000665155
0.000745122
0.00419785
0.00401375
0.00417976
0.00372412
0.00243798
0.000129521
0.000505266
0.000816166
0.000799228
0.000552477
0.00063609
0.000253069
0.000947385
0.000717439
0.000753589
0.0010269
0.0031621
0.00287002
0.00707747
0.00541877
0.00156396
0.00714721
0.00502439
0.00239128
0.00594359
0.00656397
0.00556335
0.00619623
0.00405361
0.00518988
0.00521791
0.000532336
0.000461244
0.00100553
0.00181643
0.00193827
0.00150114
0.000511799
0.0015017
0.00416738
0.000996164
0.00145864
0.000970918
0.000597671
0.000764046
0.00250637
0.0043105
0.00512434
0.00582353
0.00502578
0.00210724
0.0019376
0.00255899
0.00210889
0.000950666
0.000754678
0.00138234
0.000249257
0.000720831
0.000821752
0.00243197
0.000734068
0.000516435
0.00101738
0.00522851
0.0031411
0.0039417
0.00499261
0.00294725
0.00256714
0.00276011
0.0031526
0.00430984
0.00252613
0.00218122
0.000991582
0.00671569
0.00158102
0.000542316
0.00337065
0.00437846
0.000868717
0.00662237
0.00691459
0.00655145
0.00233203
0.000937768
0.000180803
0.000102846
0.000178949
0.000109736
0.000161036
0.000165542
0.000386653
0.00145565
0.00216412
0.00083522
0.00114468
0.00106737
0.00216376
0.0050937
0.00302582
0.000318683
0.00309436
0.00117071
0.00045274
0.000468398
0.000709214
0.000580661
0.000969709
0.00415784
0.00226245
0.00237038
0.000690515
0.00394941
0.00387429
0.00195867
0.00283538
0.000927442
0.0054517
0.00438958
0.00189874
0.00721528
0.00383912
0.00714578
0.000642478
0.00308623
0.000800693
0.000458014
0.000709136
0.00710281
0.0013121
0.006809
0.00563083
0.000863606
0.000277922
0.000427724
0.000353971
0.00171422
0.00645592
0.00166787
0.000903666
0.00390731
0.00641164
0.00197178
0.00276978
0.00167263
0.000777769
0.000198443
0.0013217
0.000750459
0.00245685
0.000932981
0.00169881
0.000157449
0.00416142
0.00167616
0.000470068
0.000587355
0.0034637
0.00206449
0.0066976
0.000732464
0.000710591
0.000106598
0.00369949
0.00304589
0.00407693
0.000365509
0.00440514
0.00172161
0.0039062
0.00222864
0.000787402
0.000206167
0.000524348
0.000492092
0.000423004
0.00110285
0.00635956
0.00594616
0.00330308
0.00683097
0.00327696
0.00116206
0.000943624
0.000661018
0.000717885
0.000820752
0.00029284
0.00166546
0.000660253
0.00540657
0.000579639
0.000163936
0.000421169
0.000126437
0.000639514
0.000475066
0.000318157
0.000268884
0.000421929
0.000812815
0.00137583
0.0034067
0.00114573
0.00431553
0.00285047
0.00244641
0.00370038
0.00446139
0.000613693
0.00114225
0.00126335
0.00509843
0.00212733
0.00206325
0.0017112
0.00137824
0.00171381
0.00184001
0.00160652
0.00502349
0.00669388
0.00426431
0.000894988
0.00237095
0.00301247
0.00104062
0.00666978
0.000724928
0.00211368
0.00291117
0.00105405
0.000913564
0.00174524
0.00119563
0.000921632
0.00123074
0.00298801
0.000236974
0.00378315
0.000354508
0.000424321
0.00267811
0.00663463
0.000935804
0.00656727
0.000646959
0.00277363
0.000873949
0.00063499
0.000665256
0.00406703
0.006608
0.000508983
0.00136988
0.00327696
0.000727299
0.00210813
0.00123793
0.00159169
0.000377324
0.00576587
0.00476627
0.000777983
0.000927124
0.00132214
0.00276458
0.00681365
0.00668362
0.000963474
0.00299656
0.00655379
0.0059791
0.00099281
0.00633116
0.00671793
0.00642455
0.00300261
0.00681709
0.00655682
0.00634391
0.00102522
0.00101153
0.000876158
0.000938013
0.000718441
0.000614561
0.00063846
0.000590654
0.000681919
0.000373812
0.00079246
0.00246176
0.00387915
0.00182498
0.00273425
0.00208743
0.00718397
0.00367635
0.00321113
0.00120267
0.00142352
0.00111139
0.00170781
0.0015124
0.00118269
0.000398401
0.000797808
9.66777e-05
0.000771399
0.00038628
0.000299271
0.000890111
0.00691711
0.00644621
0.000406895
0.000577809
0.00651458
0.00513226
0.00150875
0.00160649
0.00151195
0.0026973
0.00103184
0.00237829
0.00295475
0.000321139
0.00337111
0.00573366
0.00423996
0.00125523
0.000989472
0.0028853
0.00349106
0.000527029
0.000423715
0.000758169
0.000832176
0.000365445
0.0010859
0.00209391
0.000583542
0.00147321
0.000939406
0.00684632
0.00344259
0.00439737
0.00293435
0.00668777
0.00643043
0.00627192
0.00230785
0.000639322
0.00406263
0.00115961
0.00114996
0.0020859
0.0014205
0.00125867
0.000776037
0.00248177
0.000634423
0.000305753
0.00062773
0.00161826
0.00100753
0.0066058
0.00153194
0.000451826
0.00107699
0.00396019
0.000606748
0.00087632
0.000597614
0.000149518
0.00159149
0.000533232
0.000649856
0.00128356
0.000675614
0.00481117
0.00719708
0.00140124
0.00678704
0.00190158
0.00302175
0.00170991
0.00130389
0.000884347
0.000593982
0.000845632
0.000117005
0.00061929
0.000430422
0.000195812
0.000314133
0.00056599
0.000661987
0.000558942
0.00178341
0.00252175
0.00109871
0.0037743
0.00410904
0.00301008
0.00364247
0.00387271
0.00529046
0.000593517
0.00275505
0.00723647
0.00121289
0.000376329
0.00683101
0.00155958
0.00283441
0.000280834
0.00543644
0.00243132
0.00651386
0.00114533
0.00590752
0.00243307
0.00214841
0.0006284
0.00199933
0.000241084
0.000785959
0.000784607
0.000862499
0.00121765
0.000961904
0.000687181
0.00169413
0.00183408
0.00245168
0.000716644
0.00130389
0.0011318
0.0005439
0.00182139
0.00132456
0.00171748
0.00129557
0.00191463
0.00313905
0.00195417
0.00170699
0.000549752
0.00674836
0.000196211
0.000263039
0.000889952
0.000190352
0.00323582
0.00583823
0.000784854
0.00167773
0.00111937
0.000178432
0.000302654
0.000260931
0.00340384
0.000286718
0.000418584
0.00139156
0.000479602
0.00081189
0.000389739
0.000535054
0.000782126
0.000548114
0.000233453
0.000732877
0.000598111
0.000492329
0.00183023
0.000683813
0.000493852
0.000898031
0.000855319
0.00045493
0.000563701
0.000704138
0.00146429
0.00160776
0.000924822
0.000651353
0.000945736
0.000971473
0.000883383
0.000669559
0.000367456
0.00152264
0.00330907
0.000397476
0.00227995
0.000281069
0.00184133
0.00248656
0.00217013
0.00198166
0.00432824
0.000498831
0.000660684
0.00665593
0.00538552
0.000869845
0.00130926
0.0018319
0.00321745
0.000739548
0.00348072
0.00328371
0.000653112
0.00172289
0.00139128
0.000223045
0.00619581
0.00597035
0.000511617
0.0062333
0.00467727
0.00146171
0.0011792
0.00331939
0.00113784
0.00202777
0.00430388
0.00672297
0.000858402
0.00137791
0.000531293
0.000712788
0.00156157
0.00105273
0.00615029
0.000866664
0.000983446
0.00127478
0.000673792
0.000714283
0.000820226
0.00409341
0.000816957
0.000788216
0.000902566
0.00072512
0.000650689
0.000308422
0.000441253
0.000230577
0.000637163
0.000240208
0.000652538
0.00293808
0.00387199
0.0013156
0.00594232
0.00247065
0.0027498
0.00688108
0.00189422
0.00367791
0.000775648
0.00354116
0.00104657
0.00160357
0.00671107
0.00517712
0.000874748
0.00253377
0.00442025
0.00127977
0.000528151
0.00145328
0.00159039
0.00105454
0.000264096
0.000734298
0.000743181
0.00106134
0.000768801
0.00243786
0.0032728
0.00233869
0.00191889
0.0020993
0.00166252
0.00137553
0.000133551
0.000630793
0.00127903
0.000356214
0.000924917
0.000539639
0.0066518
0.00374309
0.00481854
0.000526865
0.00372218
0.00689059
0.00515678
0.00071043
0.000636501
0.000806138
0.00687745
0.000673902
0.00102496
0.00626271
0.00669442
0.00645301
0.00307366
0.00720783
0.0014821
0.00225669
0.00566174
0.000633508
0.000731581
0.000852817
0.000614533
0.000677993
0.000974149
0.000314684
0.000236154
0.00149955
0.000829479
0.00150483
0.000487899
0.000196239
0.00127182
0.000427165
0.00075146
0.0037008
0.00247349
0.00361837
0.00303564
0.00487496
0.0049594
0.00454507
0.00383145
0.00383287
0.00455392
0.00128503
0.00493161
0.00257592
0.000359285
0.000613253
0.000732355
0.000549666
0.000605417
0.000254712
0.000342843
0.0043081
0.00258021
0.00188292
0.00188739
0.0012833
0.00287582
0.0003872
0.000705823
0.0005961
0.000867734
8.49028e-05
0.000623912
0.000579088
0.000148728
0.0012552
0.00012397
0.000435508
0.000183368
0.000379639
0.000536428
0.000141053
0.00152656
0.000197356
0.00069225
7.96216e-05
0.000357988
0.000670174
0.000420886
0.00127896
0.000207387
0.000280183
0.000644275
0.000458864
0.000679819
0.000774555
0.00144873
0.000748519
0.000767212
0.000243762
0.000213105
0.00103005
0.000704888
0.000584386
0.00101083
0.0003286
0.000896664
0.00101623
0.000327888
0.000234367
0.00133892
0.00134003
0.000448554
0.00112266
0.000454105
0.000142546
0.000549561
0.000509529
0.0017598
0.000724174
0.00058065
0.00074758
0.000548119
0.000558769
0.000522689
0.00714382
0.00593916
0.00711844
0.000264492
0.0070796
0.000730807
0.000476007
0.000474272
0.000504803
0.00557266
0.00736797
0.00231653
0.000677477
0.000826849
0.00133412
0.00712562
0.000740398
0.00535604
0.000299302
0.000134006
0.00100553
0.00047896
0.000249398
0.00265183
0.00171106
0.00709717
0.000470583
0.000107678
0.000344377
0.000158513
0.000287372
0.000287759
0.00715171
0.00419268
0.00374292
0.00623825
0.00716318
0.00352572
0.00476043
0.00207649
0.00352831
0.00151953
0.000149132
0.000477955
0.00102227
0.00248885
0.00484387
0.001644
0.00161455
0.00380333
0.0038101
0.00181854
0.00619446
0.00135545
0.00160376
0.00246595
0.000335388
0.00199751
0.000651597
0.0002733
0.000796171
0.00296084
0.00192405
0.000782655
0.00276572
0.00250668
0.00225538
0.00194496
0.00217654
0.000253193
0.000801387
0.00201476
0.0068893
0.00118111
0.00235011
0.00129157
0.00663476
0.00470965
0.000985775
0.00517342
0.00035232
0.000591652
0.0016898
0.00101685
0.00325976
0.00293679
0.0018356
0.000891778
0.00126998
0.000655997
0.000609079
0.000578973
0.000803045
0.000803007
0.000799011
0.000529518
0.00020892
0.00242419
0.00657988
0.000727459
0.000544743
0.00118465
0.000277619
0.000248317
0.000830363
0.000727418
0.00301024
0.000883347
0.00683445
0.00591026
0.00520852
0.00451772
0.00507604
0.00573149
0.000788412
0.00026642
0.00127269
0.00100338
0.00122991
0.000701344
0.000866545
0.000436027
0.000344785
0.000779376
0.00087726
0.00304072
0.0011696
0.00210686
0.0033793
0.000572269
0.000292891
0.00246387
0.00230163
0.00549743
0.000616581
0.00194735
0.000460574
0.000429865
0.00164527
0.000919812
0.000455554
0.000423759
0.000394532
0.00051224
0.000381958
0.00069681
0.000687119
0.0015917
0.00379839
0.00107615
0.000866561
0.000942614
0.000964769
0.000510426
0.000951297
0.000469701
0.00045289
0.000644276
0.00234979
0.000228755
0.000741694
0.00159996
0.000746464
0.000714424
0.00157209
0.000945685
0.000992021
0.00479046
0.0027431
0.00226084
0.0018285
0.0043527
0.00489841
0.00380764
0.000324784
0.000725284
0.00734442
0.00642809
0.00711693
0.00711467
0.000773644
0.000791267
0.00074656
0.00129902
0.00591231
0.00498146
0.00319553
0.00421337
0.00317305
0.00561288
0.00693495
0.00514273
0.00234476
0.00585834
0.000522535
0.00143658
0.000865015
0.00520441
0.00101779
0.00573445
0.000920699
0.00317087
0.000470864
0.00128554
0.00158833
0.000522879
0.00703772
0.00219409
0.000109748
0.00130113
0.00074118
0.00624582
0.000347392
0.00314458
0.00194002
0.000589579
0.000658408
0.000409788
0.000932483
0.000928387
0.0012819
0.00102715
0.000995126
0.00281348
0.00694884
0.00580393
0.00310798
0.00478489
0.00107951
0.000742568
0.00664268
0.000664409
0.000285355
0.00252505
0.000751651
0.0014446
0.00453617
0.00455923
0.0053343
0.00258533
0.000701404
0.00276879
0.000757791
0.00671303
0.0016943
0.00211522
0.0018326
0.00142114
0.00215901
0.000803213
0.0010136
0.000445643
0.000432668
0.00123923
0.000627624
0.00115524
0.00171984
0.00100673
0.00104509
0.000818631
0.000955036
0.00219991
0.00357722
0.00172762
0.00235744
0.000415764
0.00142988
0.00343318
0.00330798
0.0026993
0.00257264
0.00103052
0.000643017
0.00438408
0.00374321
0.00138946
0.0063816
0.00233338
0.00699799
0.00711389
0.00299786
0.00654221
0.00300222
0.00662321
0.00110689
0.00078178
0.000621651
0.000936186
0.00600197
0.0027898
0.00449259
0.00433243
0.00446332
0.0012469
0.0066527
0.0034482
0.00258093
0.00449634
0.00648001
0.000505875
0.00142243
0.000988558
0.00327198
0.00580258
0.00532777
0.00476048
0.00312186
0.000781012
0.00468939
0.000791779
0.00714948
0.00414754
0.00698788
0.00101208
0.000456717
0.00179749
0.0009014
0.00672494
8.05042e-05
0.00050556
0.000944419
0.000452825
0.000747109
0.000173106
0.00341371
0.00174101
0.000598972
0.00106991
0.00615944
0.000597793
0.000489108
0.000994139
0.000325601
0.00414347
0.00281134
0.00341943
0.00280454
0.000311875
0.00109916
0.00110897
0.0064586
0.00245617
0.00376692
0.00638006
0.00106804
0.000471495
0.000294752
0.00667056
0.00123775
0.000853143
0.00214702
0.00635461
0.00235916
0.00636208
0.00651591
0.00106075
0.00658338
0.00662145
0.00156291
0.00233155
0.00514104
0.00269881
0.00507058
0.00230891
0.00174235
0.00644468
0.00324899
0.00403397
0.000990596
0.00253933
0.00668942
0.000872913
0.000493763
0.00106535
0.000270663
0.0032162
0.000289189
0.00684987
0.00110578
0.00104159
0.0048681
0.000814317
0.00425512
0.00136964
0.0065797
0.00121629
0.0014813
0.000715753
0.000384625
6.58342e-05
0.000224248
0.000569442
7.48973e-05
0.000240303
0.00068168
0.00256135
0.000123056
0.00474009
0.00664585
0.000144538
0.000109781
0.000474514
0.000656578
0.00417157
0.000831467
0.00287422
0.00112085
0.000754107
0.000906578
0.000876218
0.000426076
0.000670964
0.000457732
0.00058223
6.52025e-05
0.000681042
0.000669971
0.00452515
0.000136222
0.00434781
0.00642555
0.00607595
0.00352252
0.00253273
0.00679057
0.00671045
0.00275694
0.00156998
0.000149808
0.000955174
0.000476487
0.00204612
0.000572774
0.00121524
0.00120201
0.00127593
0.00202204
0.000333589
0.000792116
0.00237493
0.00144449
0.000352012
0.000123951
0.000774727
0.000329536
0.000284934
0.000458892
0.000639165
0.000640069
0.000585909
0.000827844
0.00151314
0.0010909
0.000607481
0.000899138
0.000472235
0.000532576
0.000307925
0.00125879
0.00206177
0.000932819
0.000900256
0.00132883
0.00149655
0.000888268
0.00155479
0.00657192
0.00367818
0.000268768
8.81589e-05
0.000172677
0.00148478
0.001851
0.000516525
0.00218302
0.0062145
0.000153676
0.000422326
0.000681288
0.000260386
0.00100598
0.00392608
0.00258414
0.00150235
0.00149566
0.000543932
0.00551
0.00102142
0.000657647
0.00166578
0.00134824
0.00657415
0.00465759
0.00251455
0.00100478
0.00249564
0.00147297
0.00337226
0.00148406
0.0020071
0.00192988
0.00484991
0.000219045
0.000943174
0.000677465
0.000417691
0.000935491
0.000359304
0.000872445
0.000344773
0.000416619
0.000442675
0.000278017
0.00039195
0.000614643
0.000691733
0.00448829
0.00146899
0.00235355
0.00469434
0.00624511
0.00239034
0.00230419
0.00548361
0.00227784
0.00520665
0.00208067
0.00391689
0.000585919
0.000485009
0.00049371
0.00071295
0.00243347
0.00388962
0.00482191
0.00246529
0.00288001
0.00594387
0.00101982
0.00638603
0.00618311
0.00585157
0.00041201
0.00486126
0.00481464
0.00681614
0.00277689
0.000937402
0.00128385
0.00683382
0.000760981
0.00144476
0.000811537
0.00106775
0.000985396
0.00151087
0.00126575
0.00101772
0.000731005
0.000718986
0.000748374
0.000663074
0.000463162
0.000871749
0.00040382
0.000956919
0.000506717
0.000319541
0.000345826
0.000178859
0.00287778
0.000160473
0.000315281
0.000867151
0.00054117
0.00107792
0.000365989
0.00309006
0.00024076
0.000836622
0.00112632
0.00061362
0.00530401
0.00501075
0.00204291
0.00616015
0.00197658
0.00100899
0.000811352
0.000953411
0.00332632
0.000883405
0.00250421
0.000752993
0.000847111
0.00713976
0.00108888
0.00459365
0.00369755
0.00707929
0.00392438
0.000706061
0.000174953
0.00232259
0.000456078
0.000694986
0.000978207
0.00179719
0.00180931
0.00542363
0.00108815
0.00132948
0.00115168
0.00033832
0.000783947
0.000364576
0.00683759
0.00671351
0.0017126
0.00190124
0.00026081
0.000710091
0.00147338
0.000507023
0.00157802
0.000805964
0.00471868
0.0059583
0.00359254
0.00537616
0.00415218
0.00354605
0.000234177
0.00018652
0.000360135
0.000602576
0.00626081
0.00645352
0.000685305
0.000252069
0.000157411
0.000514938
0.000506188
0.00017628
0.000402616
0.000779424
0.000423251
0.000405055
0.000293165
0.000324418
0.000251288
0.000580814
0.000628623
0.000206852
0.000438779
0.00116539
0.000270282
0.000494507
0.000540723
0.00207908
0.0021672
0.00591286
0.00595056
0.000361629
0.000604864
0.00672372
0.000978464
0.000787089
0.00246307
0.00161597
0.00256083
0.00103212
0.00165026
0.00124181
0.00143788
0.00126444
0.000552564
0.000451401
0.006675
0.00109603
0.0056529
0.000342202
0.00623005
0.000722173
0.00189301
0.00142451
0.00105356
0.000143248
0.000821157
0.000189156
0.000467139
0.000681364
0.000539498
0.000929118
0.000318746
0.00147367
0.000960117
0.000982341
0.000395527
0.00130597
0.000781234
0.000508176
0.000920798
0.000197913
0.000521097
0.000363986
0.000624616
0.000771133
0.000813904
0.000644002
0.0062162
0.000223405
0.000176866
0.00214252
0.00312189
0.00442584
0.0018996
0.000153885
0.000147352
0.00047873
0.00082925
0.0018088
0.00150081
0.00200578
0.000564834
0.000713045
0.000372847
0.00126114
0.00173784
0.000754718
0.000626248
0.00114268
0.000421431
0.00674306
0.000116776
0.000369222
0.000327589
0.000408248
0.000228365
0.000167791
0.000277045
0.000320469
0.00572707
0.00355623
0.000336091
0.00180295
0.00398954
0.000544841
0.00103552
0.000736565
0.000738566
0.000323633
0.000757504
0.000803262
0.00165609
0.000195836
0.0021672
0.00682569
0.00669393
0.00685839
0.00311793
0.00422177
0.00247931
0.00287606
0.00661921
0.00286723
0.00210992
0.00189239
0.00126494
0.00310309
0.00385953
0.00249002
0.00108179
0.00429684
0.000831008
0.00496875
0.000730518
0.00217345
0.00704276
0.00293292
0.00133523
0.000734792
0.000667569
0.00176175
0.00398131
0.00110123
0.00159348
0.00131394
0.00127393
0.00140046
0.00106928
0.000658331
0.000597301
0.00238594
0.00135755
0.000626892
0.000385377
0.000502819
0.000634309
0.000168792
0.000258563
0.000331594
0.00153807
0.00172976
0.00125154
0.00189422
0.00151454
0.00162428
0.000407002
0.00277292
0.000767328
0.00126899
0.00113857
0.00109215
0.00397003
0.00118999
0.000857724
0.000771694
0.000611128
0.000932624
0.0011105
0.00132981
0.00260256
0.000820081
0.000754605
0.000745215
0.00129724
0.00165996
0.00628262
0.00659903
0.00628369
0.00586066
0.00479657
0.00614987
0.000959515
0.00107427
0.000781271
0.000875846
0.00244355
0.00340399
0.00347293
0.00675923
0.00585207
0.00487918
0.000882382
0.00154827
0.000231426
0.00634025
0.00245851
0.0044388
0.00025702
0.0012468
0.00673065
0.0048796
0.000239429
0.000640547
0.000383121
0.00213035
0.00666248
0.00120197
0.0042102
0.00368083
0.00715876
0.00293525
0.00436779
0.00677695
0.00403609
0.000784044
0.00600423
0.00100399
0.00196926
0.00633771
0.00526867
0.000127795
0.00130933
0.00175709
0.000103236
0.0014628
0.00166458
0.00209869
0.00324188
0.00192386
0.000658755
0.000341638
0.000368545
0.000321349
6.24326e-05
0.000418266
0.00031649
0.000582557
0.00101908
0.00142861
0.000302522
0.000546457
0.003323
0.004137
0.00613626
0.000353706
0.000400033
0.00261122
0.000619084
0.00471263
0.00440299
0.00635597
0.00315787
0.00332532
0.000531073
0.000185451
0.000645179
0.000620007
5.56061e-05
0.000319181
0.000324948
0.000593433
0.00319
0.00066393
0.00173157
0.00136271
0.00113147
0.000751512
0.000717511
0.00192545
0.0009346
0.00159443
0.00611628
0.00719455
0.000919189
0.00101313
0.00121677
0.000414049
0.000444313
0.000594123
0.00082737
0.000938044
0.00272298
0.00202579
0.00155213
0.00219817
0.00273821
0.00635653
0.0020354
0.00150412
0.000521283
0.00110977
0.000230538
0.000167002
0.000260314
0.000890408
0.00283166
0.000919076
0.000738399
0.00136467
0.00073335
0.000865192
0.000853857
0.00506471
0.00171145
0.00063951
0.000195688
0.000466015
0.000301723
0.00219248
0.00078627
0.000729344
0.00452533
0.00136437
0.00433586
0.000766196
0.00101393
0.00462518
0.00149511
0.00438809
0.00669081
0.00128873
0.000755761
0.000598757
0.00675057
0.00344588
0.00665502
0.0071574
0.00626842
0.00504847
0.00700833
0.0062993
0.00654364
0.000197403
0.000644977
0.00121903
0.0022819
0.000912987
0.00300506
0.00501816
0.000968016
0.000916253
0.000723534
0.000393221
0.000823258
0.000311998
0.000711963
0.000727781
0.000256108
0.00111894
0.0013805
0.00105894
0.000780251
0.00136374
0.0025924
0.00386852
0.00453486
0.000865404
0.000106565
0.00245744
0.00687358
0.00614514
0.000481804
0.00255627
0.00363597
0.000451239
0.000438058
0.000518952
0.000713837
0.000367672
0.0014557
0.000866812
0.000319791
0.00235445
0.00210914
0.000253283
0.00235201
0.00238071
0.00138015
0.00465513
0.000663359
0.00568236
0.00384124
0.00472667
0.00670265
0.00149438
0.000553729
0.00105208
0.000739782
0.0018506
0.00114096
0.000409257
0.000836073
0.0032176
0.000365113
0.000398533
0.00396195
0.00138556
0.000487491
0.000569155
0.000255305
0.000303891
0.000250056
0.00126467
0.00156849
0.00553799
0.00237729
0.00103787
0.000233544
0.000383226
0.000674353
0.00285647
0.000500155
0.000405446
0.000184041
0.000215274
0.000467683
0.000106439
0.000406675
0.00209726
0.00194645
9.56634e-05
0.000696252
0.00384636
0.00264088
0.00154284
0.000974647
0.000758556
0.00191889
0.000888672
0.00124211
0.00049836
0.000616229
0.0048975
0.00420545
0.00513982
0.00519805
0.00469346
0.00691987
0.00457493
0.00674519
0.00666008
0.00122761
0.00670753
0.00353036
0.00341346
0.00195759
0.002851
0.00165862
0.000646027
0.000896685
0.000954453
0.000483787
0.00178838
0.000170483
0.000608368
0.000530966
0.00148225
0.00100409
0.000570865
0.000463794
0.000446083
0.00586897
0.00518746
0.00251671
0.000380345
0.000666568
0.00061015
0.00140438
0.000397486
0.000240187
0.000488901
0.00142204
0.00620164
0.000302339
0.000710611
0.000815732
7.35287e-05
0.00630145
0.00084818
0.00147656
0.000371034
0.00224043
0.00139354
0.00234831
0.000928163
0.000120757
0.000266697
0.00131887
0.000923663
0.000286662
0.000589203
0.000165998
0.000606426
0.000702653
0.000262334
0.00041914
0.00514697
0.000896672
0.000150758
0.00290223
0.000263198
0.000316308
0.000798508
0.000203593
0.000462869
0.000316321
0.000975525
0.00405266
0.00110029
0.00687206
0.00202035
0.000969247
0.00122275
0.00141107
0.00475148
0.00243926
0.000289224
0.000472102
0.000750606
0.00182843
0.00277937
0.00133032
0.000332508
0.000434924
0.000516274
0.000496168
0.000242615
0.000210874
0.00249028
0.00107077
0.000380056
0.000235103
0.000407219
0.00371571
0.001195
0.00301677
0.00566788
0.00398809
0.00150098
0.000445193
0.000768946
0.0011095
0.000338014
0.000498859
0.00526914
0.000103333
0.000301768
0.000813068
0.00151128
0.000379841
0.000689341
0.00542544
0.00659712
0.000706299
0.00134532
0.00106028
0.0012971
6.05534e-05
0.000552708
0.000202792
0.000638416
0.000701246
0.000574077
0.00192918
0.000959311
0.00109624
0.000375404
0.000466278
0.0039091
0.0013666
0.00700476
0.00205837
0.00149489
0.00083418
0.00115407
0.00132793
0.00343631
0.00116707
0.00173565
0.00174999
0.000358472
0.000306284
0.000713021
0.000125719
0.000829968
0.00046443
0.000474191
0.00519708
0.000959585
9.42335e-05
0.00545227
0.000745139
0.00143012
0.00123463
0.00398439
0.00128491
0.00451925
0.000861673
0.000190003
0.000148216
0.000202313
0.000575883
0.00625978
0.00215013
0.00251686
0.00168139
0.00170384
0.0057722
0.00117371
0.00144718
0.000686593
0.000441438
0.000226356
0.000372467
0.00221772
0.00077362
0.000613654
0.0036391
0.00566216
0.000638267