/*--------------------------------*- C++ -*----------------------------------*\
| =========                 |                                                 |
| \\      /  F ield         | OpenFOAM: The Open Source CFD Toolbox           |
|  \\    /   O peration     | Version:  2506                                  |
|   \\  /    A nd           | Website:  www.openfoam.com                      |
|    \\/     M anipulation  |                                                 |
\*---------------------------------------------------------------------------*/
FoamFile
{
    version     2.0;
    format      ascii;
    arch        "LSB;label=32;scalar=64";
    class       volScalarField;
    location    "0.0689058";
    object      nut;
}
// * * * * * * * * * * * * * * * * * * * * * * * * * * * * * * * * * * * * * //

dimensions      [0 2 -1 0 0 0 0];

internalField   nonuniform List<scalar> 
3919
(
0.00430917
0.00442585
0.00316609
0.00240576
0.00390183
0.00446319
0.00304296
0.00492843
0.00675693
0.00380805
0.00419209
0.00540503
0.00434827
0.00528295
0.00468085
0.00342223
0.00630576
0.00596095
0.00509672
0.00500571
0.00556343
0.00378464
0.00710244
0.00625959
0.00711429
0.00452367
0.00685731
0.00589837
0.00314229
0.00405804
0.00417372
0.0056149
0.00688266
0.00486096
0.00650882
0.0064036
0.00234236
0.00414061
0.00648768
0.00443339
0.00500377
0.005486
0.00651054
0.0043205
0.00222162
0.00295644
0.00201566
0.00401449
0.0048602
0.00704683
0.00688284
0.00393473
0.00710719
0.00456084
0.00340105
0.00702309
0.00301297
0.00303462
0.00681418
0.00472327
0.00294153
0.00390696
0.00336693
0.00351454
0.0052623
0.00451809
0.00676346
0.0037881
0.00497329
0.00705725
0.00612785
0.00368789
0.00281697
0.00328045
0.00302724
0.00337071
0.00620805
0.00683437
0.0056258
0.00417067
0.00406339
0.00702739
0.00645554
0.00568524
0.00567917
0.00593815
0.00502743
0.00365246
0.00401649
0.00397791
0.00335
0.00279057
0.00276453
0.00699311
0.00380863
0.00383016
0.00402571
0.00461878
0.00356093
0.0060424
0.00657416
0.00468526
0.00341992
0.00635771
0.00238595
0.0064108
0.00352448
0.00382084
0.00414743
0.00375899
0.00399558
0.00477814
0.00444527
0.00612096
0.00629222
0.00594001
0.00613865
0.00518324
0.00384411
0.00428429
0.00479692
0.00456995
0.00695643
0.00325203
0.00628749
0.00577065
0.00684166
0.00440357
0.00293808
0.00493775
0.00643937
0.00432733
0.00262643
0.0070485
0.0051097
0.00514658
0.0047705
0.00508148
0.00440611
0.0043876
0.00511487
0.00720605
0.00425088
0.00688746
0.00564371
0.00477465
0.00242412
0.00658146
0.0062786
0.00507311
0.0044657
0.00657323
0.0053738
0.00527875
0.00613501
0.00673958
0.00687713
0.0043314
0.00700453
0.00419517
0.00563878
0.00381769
0.00268794
0.00600258
0.00341118
0.00297091
0.00298363
0.00392903
0.00436885
0.00700878
0.00205086
0.00499675
0.00612165
0.0063408
0.00311896
0.0044617
0.00378679
0.00609107
0.00425481
0.00398526
0.00192471
0.00388766
0.00685904
0.00437957
0.00417018
0.00464751
0.00347277
0.00513196
0.00438195
0.00386729
0.00468481
0.00446252
0.00285285
0.00471853
0.00398211
0.00670455
0.0033165
0.00640457
0.00372579
0.00237908
0.00673598
0.00408873
0.00646104
0.00438362
0.0035102
0.00710175
0.00714681
0.002898
0.00429599
0.0041578
0.00300362
0.0064179
0.006986
0.00703485
0.00360662
0.00702598
0.00705288
0.00421454
0.00473984
0.00628142
0.00699816
0.00495573
0.00516338
0.00514135
0.00687678
0.00608273
0.00448317
0.00439935
0.0038187
0.00525868
0.00271704
0.0052002
0.00265923
0.0045388
0.00441057
0.00454606
0.00551328
0.00546768
0.00420738
0.00470658
0.00207397
0.00384163
0.00343907
0.00198876
0.00203533
0.00419441
0.00339523
0.00290683
0.00231569
0.0031364
0.00306699
0.0020487
0.00291266
0.00307925
0.00331007
0.00316442
0.00352495
0.00419615
0.00388114
0.00324974
0.00430253
0.00377678
0.00299674
0.00296306
0.00389525
0.00236364
0.00393088
0.00211181
0.00411871
0.00400418
0.0052773
0.00335443
0.00331067
0.00261826
0.0036465
0.0038463
0.00682814
0.0023984
0.0036241
0.00396631
0.00361225
0.00486572
0.00299033
0.00543957
0.00332913
0.00555424
0.00685788
0.00343713
0.00431803
0.00194045
0.00683195
0.0046273
0.0044067
0.00708866
0.0041533
0.00234456
0.00571538
0.00466033
0.00618873
0.00204781
0.00470979
0.00407103
0.00444948
0.00414209
0.0063051
0.00407108
0.00236197
0.00337999
0.00602157
0.00435084
0.00369133
0.0037527
0.00448929
0.0029841
0.00366942
0.0046461
0.00410046
0.0022806
0.00516101
0.00458222
0.00463571
0.00671945
0.00426985
0.00436294
0.00428255
0.0039736
0.00492543
0.00503832
0.00394515
0.0058469
0.00511781
0.00705224
0.00608413
0.00406119
0.00611145
0.00655118
0.00194465
0.00325245
0.00393889
0.00472125
0.00381743
0.00395633
0.00457966
0.00262473
0.00456113
0.0068478
0.00395785
0.00362254
0.0048723
0.00466908
0.00251514
0.00482072
0.00681039
0.00491476
0.0042084
0.00385507
0.00421062
0.00343541
0.00383706
0.00707992
0.00655207
0.00485188
0.00503863
0.00548646
0.0070373
0.00697675
0.00699319
0.00340632
0.00606458
0.00689623
0.00521458
0.00418408
0.00706482
0.00459475
0.00377442
0.00412577
0.0062029
0.00657301
0.00564397
0.00420888
0.00378449
0.00237834
0.00401837
0.00342372
0.00336205
0.00537601
0.0031268
0.00364211
0.00450753
0.00344493
0.00413797
0.00289402
0.00447645
0.00204098
0.00403468
0.00398548
0.00235845
0.00269039
0.00239999
0.00697136
0.00531806
0.00425474
0.00330562
0.00691988
0.0043112
0.00442487
0.00489157
0.00348059
0.00347133
0.00286597
0.00392421
0.00446873
0.00435152
0.00462809
0.00280335
0.0044728
0.00334779
0.00380426
0.00287548
0.00623829
0.00450734
0.00286268
0.00563869
0.00285905
0.00276012
0.00424395
0.00676737
0.00624992
0.00428098
0.00427439
0.00609632
0.00471712
0.00501269
0.00436939
0.00505394
0.00294759
0.0033643
0.00318489
0.00342958
0.00193951
0.00189858
0.00330411
0.0032078
0.0032649
0.00293272
0.00377176
0.00376577
0.00319943
0.00443596
0.00407129
0.00460108
0.00304227
0.00425693
0.0046382
0.00223089
0.00281599
0.00595798
0.0042536
0.00350085
0.0036221
0.00322619
0.00233769
0.00235843
0.00336665
0.00287008
0.00340866
0.00655012
0.00494203
0.00669586
0.00629831
0.00584656
0.00526804
0.00337807
0.00256173
0.0047182
0.00373725
0.0032558
0.00251875
0.00275505
0.00583648
0.00347098
0.00492127
0.00404869
0.00686763
0.00407163
0.00398401
0.00417654
0.00447849
0.00390551
0.00351097
0.00696788
0.00503448
0.00382855
0.00267886
0.00375313
0.00393346
0.004737
0.00261968
0.00486902
0.00348266
0.00456993
0.0039976
0.00473947
0.0024204
0.00453403
0.00450036
0.00421162
0.00348618
0.00254831
0.00432453
0.00371112
0.00378508
0.00399749
0.00454507
0.0050636
0.00614828
0.00296089
0.00568959
0.00385861
0.00253946
0.00464458
0.00339839
0.00379029
0.00608735
0.00403163
0.00513078
0.00443714
0.00398312
0.00372353
0.00356315
0.0024507
0.00326716
0.00323154
0.00605205
0.00670531
0.00492581
0.00368743
0.00382465
0.00166862
0.00310226
0.00169775
0.00317725
0.0029337
0.00423049
0.00552558
0.00354561
0.00421755
0.00391903
0.00385815
0.00545203
0.00288039
0.00544791
0.00410213
0.0029484
0.00308353
0.0022327
0.0026069
0.00301354
0.00300683
0.00341291
0.00336727
0.00403019
0.00654937
0.00641036
0.00381812
0.00554691
0.00707989
0.00380277
0.00238812
0.00372276
0.0066512
0.00559295
0.0042224
0.00404012
0.00213153
0.0040922
0.00394967
0.00398149
0.00536562
0.00507707
0.00721064
0.00688828
0.00352663
0.00449065
0.00363616
0.00558725
0.00452613
0.00498721
0.00390692
0.00459564
0.00347339
0.00390727
0.00351195
0.00319165
0.00339629
0.00365501
0.00369003
0.00361665
0.00358383
0.0061599
0.00493079
0.00436963
0.00630825
0.00612056
0.0069331
0.00522821
0.00625859
0.00345739
0.00460426
0.00400082
0.00623901
0.00377862
0.0066134
0.00427729
0.0061475
0.00412958
0.00429201
0.00509089
0.00689078
0.00673871
0.00353502
0.00454339
0.00399887
0.00506115
0.00468306
0.0052697
0.00545293
0.00699928
0.00394366
0.00259002
0.00714979
0.00498442
0.00399666
0.0048818
0.00483213
0.00385907
0.00290597
0.00290067
0.0037914
0.0021457
0.00701749
0.00455019
0.00441551
0.00594408
0.00690681
0.00192549
0.00500726
0.0038974
0.00505061
0.00704877
0.00699811
0.00556298
0.00319582
0.00668631
0.00517229
0.0064711
0.00655695
0.00630689
0.0070967
0.00367586
0.00463578
0.00329456
0.00646207
0.00540233
0.00353768
0.00618837
0.00460438
0.00381101
0.00509322
0.00379209
0.00681333
0.00496644
0.00614503
0.00707836
0.00611702
0.00677223
0.00539745
0.0058906
0.00624642
0.00527635
0.00320291
0.005693
0.00328902
0.00520164
0.00674226
0.00408533
0.00374848
0.00428281
0.00607449
0.00661755
0.00375261
0.0061746
0.00670222
0.00412031
0.00254839
0.00492621
0.00708954
0.00702193
0.00463463
0.00347558
0.00367055
0.00705776
0.00552164
0.00661314
0.00338746
0.00272405
0.00345852
0.0035124
0.0038214
0.00392697
0.0032113
0.00510901
0.00572982
0.00437604
0.00494755
0.00666312
0.00323904
0.00657319
0.0066028
0.00611837
0.00592356
0.00640724
0.00397003
0.00646749
0.00707354
0.00442611
0.00466129
0.00402479
0.003774
0.00268777
0.00395124
0.00384264
0.00239224
0.00423942
0.00714997
0.00608259
0.00688672
0.00400801
0.00535383
0.00357253
0.00427451
0.00377451
0.00397275
0.005065
0.00557321
0.00538447
0.00549933
0.0033168
0.00518764
0.00486093
0.00653286
0.00357168
0.00596336
0.00709713
0.00544859
0.00491523
0.00324065
0.00702692
0.00508159
0.00541167
0.0029789
0.00700386
0.00409133
0.00290351
0.0046846
0.00251353
0.00667168
0.00552327
0.00407327
0.00324352
0.0047789
0.00619147
0.00588771
0.00555629
0.00341591
0.00710577
0.00423354
0.00596263
0.00465761
0.00460452
0.00532797
0.00423577
0.00462466
0.00374822
0.00467501
0.00428499
0.00373948
0.00673378
0.00418289
0.00215646
0.00395412
0.00415986
0.00623325
0.00470972
0.00629145
0.00631482
0.00700249
0.00545278
0.0040761
0.00513412
0.00369896
0.00593034
0.00717498
0.00498552
0.00668263
0.00399912
0.00545376
0.00400387
0.00406247
0.00568179
0.00535828
0.00592812
0.00356192
0.00379739
0.00570284
0.00700506
0.00330621
0.0069061
0.00337433
0.00541608
0.00496098
0.00525245
0.00469005
0.00382782
0.00644194
0.00680329
0.00379352
0.00546791
0.00653908
0.00643059
0.00585124
0.00657053
0.00349365
0.00703853
0.00489578
0.00589066
0.00329519
0.00708333
0.00477248
0.00387494
0.00639872
0.00547567
0.00563834
0.0039186
0.00280417
0.00578936
0.00484056
0.00724676
0.00704737
0.00238668
0.00469182
0.00694916
0.00473568
0.00614384
0.00667863
0.00424133
0.00419262
0.00290465
0.0046163
0.00535626
0.00539011
0.00296872
0.00556884
0.00351732
0.00438515
0.0047393
0.00453619
0.00424571
0.00370522
0.00407784
0.00615352
0.00708852
0.00711225
0.00714103
0.00613859
0.00648571
0.00706393
0.00505745
0.00660708
0.00421779
0.00402262
0.00271589
0.00453018
0.0068012
0.00331691
0.0056772
0.00696455
0.00582909
0.00463725
0.00427674
0.00464354
0.00579315
0.00746291
0.0066114
0.00369664
0.00546795
0.00379353
0.00326239
0.00520578
0.00585733
0.00410404
0.00259906
0.00346917
0.0044075
0.00344673
0.00680286
0.00606603
0.00366682
0.00486735
0.00673498
0.0040262
0.00576158
0.0062296
0.00450198
0.00414639
0.00344628
0.00601698
0.0050361
0.0063511
0.00630315
0.00276656
0.00447226
0.00382856
0.0027888
0.0059473
0.00405848
0.00716668
0.00418036
0.00670923
0.00362923
0.00695419
0.00432613
0.00426539
0.00426712
0.0069182
0.00704135
0.00709677
0.00706548
0.00708459
0.00720121
0.00487563
0.00398284
0.00657341
0.00641723
0.00459579
0.00233216
0.00413924
0.00219267
0.00669189
0.00574259
0.00372292
0.00560842
0.00593242
0.00217063
0.00665214
0.00564044
0.00598242
0.0071051
0.00420955
0.00442849
0.00406416
0.00450768
0.00354677
0.00407654
0.00628723
0.00674276
0.0069995
0.00499352
0.00536957
0.00605223
0.00536476
0.00309612
0.00397669
0.00476515
0.00691538
0.00706853
0.00498807
0.00698213
0.00689863
0.00540418
0.00398545
0.00496466
0.00492842
0.00698396
0.00649433
0.00405766
0.00370919
0.0033315
0.00267981
0.00601374
0.00345255
0.00430488
0.00357882
0.00579276
0.00687173
0.00506368
0.0062815
0.00452467
0.00549732
0.00597134
0.0051121
0.00653305
0.00517305
0.00466069
0.00402696
0.00553451
0.00702476
0.00680582
0.00611501
0.00455666
0.00687267
0.00494286
0.00514544
0.00433789
0.00494535
0.00401349
0.00660113
0.00621447
0.00635212
0.00605057
0.00627466
0.00658773
0.00625477
0.00628831
0.00682344
0.00648925
0.00635778
0.00684333
0.00360908
0.00401045
0.00531112
0.00439891
0.00379279
0.00687113
0.00597121
0.00353735
0.00616485
0.00427187
0.00360004
0.00459391
0.00467513
0.00450727
0.0065243
0.0046787
0.00617254
0.00675071
0.00349403
0.00564467
0.00371134
0.00460814
0.00498267
0.00699158
0.00481981
0.00636367
0.00411604
0.00474025
0.00586797
0.00694758
0.00414259
0.00714772
0.00706522
0.0041042
0.00668904
0.00636888
0.00551586
0.00434775
0.00650795
0.00508672
0.00380305
0.0060794
0.00404616
0.00348461
0.00344079
0.00456686
0.00594285
0.00565674
0.00557813
0.00646681
0.00629205
0.00393967
0.00398943
0.00466054
0.00462071
0.00462871
0.00405712
0.00336405
0.00518633
0.00694808
0.0050684
0.00472446
0.00442029
0.00667612
0.00457263
0.00353034
0.00572592
0.00383831
0.00460198
0.00407511
0.00478893
0.00468177
0.00336496
0.00470111
0.00426351
0.0047251
0.00485557
0.00480625
0.00539288
0.00636766
0.00594105
0.002908
0.00503155
0.00657001
0.00667954
0.00635571
0.00696943
0.00583313
0.00548975
0.00449985
0.00460511
0.00694867
0.00673001
0.00256971
0.00477461
0.0065167
0.00468301
0.00537436
0.00504125
0.00690951
0.00538464
0.0026973
0.00360303
0.00397017
0.00620779
0.00626569
0.00457522
0.00592083
0.00711248
0.00440359
0.00530844
0.00519875
0.0062929
0.00379996
0.00698253
0.00706878
0.00402341
0.00430867
0.00684561
0.00515069
0.00609808
0.00435537
0.00679559
0.0022605
0.00605047
0.00559732
0.00580934
0.00575244
0.00383205
0.00511434
0.00646177
0.00714833
0.00674108
0.00702201
0.00601072
0.00442088
0.00379891
0.00509942
0.00352465
0.00690096
0.00671193
0.00283001
0.00482669
0.00654972
0.00707674
0.0060494
0.00621325
0.00545603
0.00601471
0.00382186
0.00704288
0.00523178
0.00705731
0.00633198
0.00535452
0.00376796
0.0047768
0.00676588
0.00442779
0.00691902
0.00510282
0.00462345
0.00713862
0.00680211
0.00424896
0.00387378
0.00488144
0.00656721
0.00660088
0.00224469
0.00702162
0.00708038
0.00488208
0.0021977
0.00486221
0.00425211
0.00598005
0.00713629
0.00689345
0.00435024
0.00676293
0.00678293
0.00651491
0.00568507
0.00434966
0.00695195
0.00411983
0.00408222
0.00483102
0.00683269
0.00671853
0.00705226
0.00483303
0.00475128
0.00600165
0.00527317
0.00324885
0.00285187
0.00569721
0.00717248
0.00443369
0.00352006
0.0067692
0.00675289
0.00645739
0.00647615
0.00703883
0.00640679
0.0071667
0.00535218
0.0045471
0.00477024
0.00644258
0.00673419
0.0068121
0.00669732
0.00648231
0.00700652
0.00642336
0.00706768
0.0039263
0.00709539
0.00710236
0.00339713
0.00411003
0.00387963
0.00591721
0.0031392
0.00617101
0.00433874
0.00513044
0.00381806
0.00384609
0.00539718
0.00432301
0.00535632
0.0021145
0.0069974
0.00673493
0.00669747
0.00684257
0.00667977
0.0060261
0.00692921
0.00686614
0.00664714
0.00360598
0.00345956
0.00324865
0.00711485
0.00460146
0.00373257
0.00680695
0.00452353
0.00624339
0.00721462
0.00683024
0.00720314
0.0071219
0.00208614
0.00464085
0.00574308
0.00693825
0.00678684
0.0044421
0.00640062
0.00410645
0.00354525
0.00685613
0.00566825
0.00328749
0.00422257
0.00621083
0.00683367
0.007052
0.00573842
0.00621526
0.00714707
0.00356093
0.00331386
0.00708714
0.00670697
0.00391097
0.00343131
0.00420632
0.00643043
0.00650363
0.00420967
0.0058586
0.00521956
0.00649881
0.0064766
0.00441519
0.00481941
0.00699308
0.00658793
0.0050438
0.00457722
0.00340761
0.00616553
0.00387736
0.00490697
0.00384678
0.00541498
0.00649503
0.00542593
0.00515091
0.00331106
0.00670056
0.00346915
0.00684907
0.00671262
0.00635752
0.0034177
0.00497975
0.00405964
0.00670249
0.00624888
0.00637913
0.00698628
0.00627823
0.00634766
0.00434398
0.00710916
0.00628367
0.00707522
0.00708257
0.00631085
0.00689408
0.00414216
0.00423602
0.0023447
0.00626378
0.00627283
0.00397587
0.00588629
0.00404051
0.00447783
0.00329637
0.00409198
0.00465299
0.00655595
0.00545058
0.00502271
0.00683059
0.00619245
0.00623779
0.0069094
0.00356494
0.00474293
0.00416034
0.00448897
0.0065147
0.0052649
0.00616842
0.00658043
0.00621864
0.00679436
0.00713678
0.00626298
0.00481229
0.00653756
0.00607614
0.00618024
0.00425672
0.00556642
0.00530161
0.00679032
0.00411392
0.00595266
0.00638137
0.0062403
0.00707162
0.00395988
0.006927
0.00622239
0.00590727
0.0067691
0.00686701
0.00624661
0.00681295
0.00418723
0.00338679
0.00561553
0.00692249
0.00609796
0.00704308
0.00650879
0.00702754
0.00709863
0.00705636
0.00703685
0.00628534
0.00704971
0.00347103
0.00430438
0.00592829
0.00693745
0.00683835
0.00686011
0.00401912
0.00636737
0.00396321
0.00324966
0.00715633
0.00709525
0.00706533
0.00705714
0.0071583
0.00435744
0.00671534
0.00547406
0.00459752
0.00472105
0.00522212
0.00591563
0.0072028
0.00494445
0.00667816
0.00390211
0.0033068
0.0031411
0.00677758
0.00602261
0.00463022
0.00491716
0.00494055
0.00531352
0.00475971
0.0052891
0.00718852
0.0034998
0.00461629
0.0031229
0.00329047
0.00400241
0.00668061
0.00415099
0.00189921
0.00435527
0.00592012
0.00493214
0.00434131
0.00394231
0.00500501
0.00600067
0.00698006
0.00703066
0.00312725
0.00466763
0.00564786
0.00629155
0.00707301
0.00349657
0.00632726
0.00352961
0.00382182
0.00445884
0.00315062
0.00608391
0.00464309
0.00668288
0.00350405
0.00383549
0.00518567
0.00667385
0.00428264
0.00689498
0.00490629
0.00480761
0.0043869
0.00596128
0.00641634
0.00403854
0.00380487
0.0033628
0.00343261
0.00690463
0.004733
0.00351914
0.00352705
0.00477858
0.00446924
0.00612653
0.00418435
0.00696713
0.00683973
0.0046559
0.00704861
0.00702882
0.00698003
0.00420436
0.00700301
0.00556736
0.00419419
0.00496983
0.00542774
0.00495181
0.00381022
0.00420317
0.00316335
0.00694981
0.00679821
0.00719058
0.00711944
0.00669992
0.00723109
0.00387138
0.00201018
0.00708097
0.00605823
0.00593561
0.0035607
0.00700592
0.00686698
0.00425788
0.00638345
0.00474935
0.00525674
0.00626827
0.0064081
0.00470349
0.00717347
0.00563921
0.00688006
0.00511349
0.00558158
0.00653714
0.00668273
0.00497108
0.00408928
0.00704883
0.00599002
0.002264
0.0048695
0.00694639
0.002538
0.00397443
0.00587429
0.00466268
0.0055892
0.00276024
0.00449879
0.00662734
0.00645778
0.00638681
0.00643852
0.00334268
0.0054088
0.00671722
0.0046761
0.00626654
0.00447036
0.00476836
0.00607335
0.00712356
0.00415706
0.00315312
0.0040483
0.0063979
0.00580221
0.00412233
0.00452268
0.00702881
0.0071368
0.00622965
0.00704236
0.0038415
0.00489057
0.00339717
0.00318954
0.0067861
0.00698121
0.00702887
0.00718522
0.00621166
0.0047083
0.00617522
0.00281514
0.00543024
0.00285227
0.00695663
0.00710543
0.0065389
0.00700766
0.00378852
0.00432103
0.00684888
0.00604071
0.00680961
0.00658667
0.00306566
0.00337437
0.00421223
0.00570068
0.00630545
0.00564917
0.00386687
0.00646013
0.00657038
0.00659351
0.00383084
0.00516574
0.0057927
0.00556697
0.00582782
0.00607561
0.00694693
0.00649072
0.00317788
0.0032853
0.00478079
0.00337591
0.00453456
0.00487289
0.00363719
0.00475374
0.00484461
0.00683342
0.00376738
0.00626289
0.00714981
0.00372136
0.00356805
0.00337765
0.00547102
0.0059153
0.00307293
0.00339752
0.00310462
0.00334308
0.00386934
0.00669113
0.00369873
0.00350436
0.00495407
0.00645794
0.00339476
0.00342561
0.00311304
0.00635034
0.00650998
0.00393611
0.00433447
0.00689446
0.00716561
0.0072108
0.00683683
0.00500913
0.00667541
0.00691002
0.00406037
0.00407611
0.00508505
0.0047184
0.00503964
0.00382453
0.00381293
0.00495017
0.00397273
0.00280233
0.00426517
0.00426106
0.00551139
0.00434743
0.00442759
0.00445107
0.00254134
0.00490338
0.00253267
0.00332649
0.00365672
0.00316937
0.00350389
0.00383238
0.00430559
0.00435699
0.00423794
0.00428823
0.00551018
0.00373907
0.00378266
0.0045846
0.00432095
0.00423771
0.0044787
0.00294029
0.0047991
0.00282051
0.00355673
0.00512157
0.00313432
0.005836
0.00341041
0.00436159
0.00485151
0.00489304
0.00362263
0.00369116
0.00466936
0.00605453
0.0036769
0.00465639
0.00415113
0.00331722
0.0033919
0.00326367
0.00283409
0.00298197
0.00508801
0.00337744
0.0055713
0.00279589
0.00452727
0.00329876
0.00393791
0.00392632
0.00274964
0.00370484
0.00423734
0.00345048
0.00294113
0.00571548
0.00503717
0.00606707
0.0052896
0.00348863
0.00336941
0.00447964
0.00376802
0.00673983
0.00703113
0.00565175
0.00335553
0.00600741
0.00465669
0.00516437
0.00431961
0.00618853
0.00185677
0.0038979
0.00402172
0.00493827
0.00364093
0.00428038
0.00355384
0.00653871
0.00504621
0.00283525
0.00721605
0.00695935
0.00694991
0.00718956
0.0070721
0.00660952
0.00706496
0.00644938
0.00660081
0.00614279
0.00711247
0.00499019
0.00461681
0.00372361
0.00707535
0.00690189
0.00613212
0.00595436
0.00398474
0.00373675
0.00378294
0.00494001
0.00572026
0.00459906
0.00456735
0.00711594
0.0065951
0.00631937
0.00356739
0.00608417
0.00380425
0.00408504
0.00361681
0.0029879
0.00692904
0.0052069
0.00520585
0.00674279
0.0051248
0.00673496
0.00661642
0.00687446
0.0065774
0.00643632
0.00464058
0.00445856
0.00673866
0.00685156
0.00485898
0.00490617
0.00528805
0.0070226
0.0065145
0.00663832
0.00653337
0.00670516
0.00687484
0.00712386
0.00706109
0.00624745
0.00495109
0.00715971
0.00496195
0.00642756
0.00543185
0.00692174
0.00599448
0.00431909
0.00693684
0.00675488
0.00682561
0.00700822
0.00573569
0.00419942
0.00715584
0.0071534
0.00642045
0.00644636
0.00531479
0.00373182
0.00628206
0.00595201
0.00551744
0.0046691
0.00413721
0.00396409
0.00464836
0.00379606
0.00381008
0.00345422
0.00687143
0.00350597
0.00418312
0.00422496
0.00317866
0.00607022
0.00659157
0.00326882
0.00628393
0.00312438
0.00469306
0.00334185
0.00565315
0.0042805
0.00396881
0.00623227
0.00402688
0.00341246
0.00432119
0.00370645
0.00506647
0.00659633
0.00585294
0.00467831
0.00706642
0.00439037
0.00646671
0.00397066
0.00686366
0.00343958
0.00450249
0.00417205
0.00434774
0.00703188
0.00389221
0.00394705
0.00341011
0.00360866
0.0070133
0.00572969
0.00703774
0.00376096
0.00482706
0.00429188
0.00717328
0.00354046
0.00640465
0.00693852
0.00500755
0.00353995
0.00694674
0.00545284
0.00716381
0.00331531
0.00600359
0.00605532
0.00695401
0.00522005
0.0067217
0.00350553
0.00319303
0.00382401
0.00517439
0.00334365
0.00249063
0.00700281
0.0070517
0.00511844
0.00474648
0.00582274
0.00493439
0.00391409
0.00343946
0.00302472
0.00518965
0.00698804
0.00361869
0.00379024
0.00695211
0.00716653
0.00367717
0.00408169
0.00692525
0.00695279
0.00688862
0.00636973
0.0044346
0.00614282
0.0071156
0.0070696
0.00652208
0.0071824
0.00443078
0.0045073
0.00708737
0.00672229
0.00682003
0.00696241
0.00494816
0.00485522
0.00358019
0.00363674
0.00580012
0.00344655
0.00578195
0.00442147
0.00340609
0.006749
0.00330001
0.00605792
0.00372065
0.00578801
0.00490453
0.00708727
0.00346297
0.00391681
0.00657616
0.0039385
0.00262796
0.0033399
0.00631455
0.00332676
0.00418829
0.00497597
0.00288971
0.0029869
0.0021535
0.00292006
0.00437573
0.0068883
0.00489368
0.00237054
0.00215216
0.00232847
0.00221707
0.0037023
0.00678795
0.00366603
0.00443523
0.00362542
0.00397503
0.00463802
0.00600461
0.005138
0.00341526
0.00414562
0.00207289
0.00643657
0.00679631
0.00392304
0.00399383
0.00398975
0.00516951
0.00442897
0.00488568
0.00403588
0.00451346
0.00674249
0.00641275
0.00575486
0.00404782
0.00515687
0.00526116
0.00342691
0.00683835
0.005024
0.00344266
0.00401425
0.00675706
0.0037598
0.00431417
0.00435256
0.00655378
0.00608084
0.00450288
0.0039785
0.00401454
0.00700848
0.00497569
0.00601536
0.00641711
0.00455422
0.00634826
0.00243273
0.00353135
0.00545185
0.00353714
0.00439783
0.00354934
0.00464167
0.00448573
0.00671432
0.00716043
0.00468158
0.00445415
0.00447734
0.00658365
0.00285479
0.0037149
0.00417698
0.00460623
0.0063431
0.0037171
0.00597538
0.00698398
0.00517642
0.00524004
0.00499076
0.00676071
0.00452795
0.00524627
0.00466797
0.00707548
0.00576946
0.00619828
0.00430248
0.00278811
0.00391722
0.00396303
0.00320331
0.00464439
0.00377572
0.00358531
0.0049749
0.00510516
0.00354179
0.00647589
0.00696946
0.00242107
0.00359154
0.00212275
0.00628829
0.00667594
0.00596915
0.00621552
0.00609894
0.00654206
0.00433498
0.0056867
0.00529069
0.00416682
0.00364046
0.00364775
0.00411705
0.00519687
0.00625565
0.00453677
0.00492781
0.00687985
0.00382523
0.00660022
0.00582457
0.00621813
0.00681772
0.00703668
0.00223914
0.00374113
0.00313823
0.00250109
0.00202156
0.0054653
0.0041906
0.0022626
0.00608942
0.00657062
0.00560412
0.00531953
0.00643102
0.00652166
0.00563151
0.00374345
0.00452014
0.00280897
0.00670374
0.00665388
0.00629473
0.00612325
0.00710905
0.0068169
0.00697362
0.00188203
0.004259
0.00281671
0.00660253
0.00389663
0.00197244
0.00347391
0.00306736
0.00305223
0.00526145
0.00312832
0.00302789
0.00582239
0.00620416
0.00555629
0.00310691
0.00615101
0.00693967
0.00667169
0.00695172
0.00704395
0.00652995
0.00701509
0.00340989
0.00381485
0.00423334
0.00337003
0.00601156
0.00423441
0.00473062
0.00247449
0.00469685
0.0066201
0.00704391
0.00397611
0.00436067
0.00451129
0.0071326
0.00342243
0.00649555
0.00429776
0.00462494
0.00615805
0.00229698
0.00419206
0.00707296
0.00422169
0.00643103
0.00425184
0.00409226
0.00406879
0.00470735
0.00574416
0.007108
0.00384159
0.00394029
0.00420323
0.00696803
0.00353708
0.00558999
0.00708985
0.0051459
0.00491203
0.00454338
0.00564818
0.00633577
0.00350168
0.00477437
0.0062178
0.00522468
0.00628826
0.00310522
0.00416004
0.006893
0.00651583
0.00554881
0.00472664
0.00483182
0.00700875
0.00636832
0.00305967
0.00473093
0.00361459
0.00669731
0.00481943
0.0041289
0.00712767
0.00276991
0.00664618
0.00676079
0.0069042
0.00618674
0.006401
0.00701534
0.00508373
0.00306111
0.00353344
0.00420955
0.00688949
0.00707046
0.00656176
0.00605031
0.00501994
0.00688462
0.00248375
0.00697097
0.00317554
0.0044894
0.0041526
0.00562734
0.00506182
0.00629947
0.00558838
0.00488258
0.00460056
0.00455066
0.00710244
0.00304227
0.00231383
0.00367142
0.00706814
0.00642806
0.00554384
0.00701729
0.00592891
0.0069502
0.00627385
0.00353394
0.00523191
0.0071295
0.00532843
0.00626408
0.00575204
0.00445115
0.00374556
0.0065451
0.00698863
0.00417961
0.00625941
0.00635146
0.00695164
0.00649491
0.00706578
0.00499516
0.00646147
0.00334316
0.00405537
0.00407167
0.00451332
0.00683423
0.00685497
0.00682794
0.0069595
0.00417569
0.00255356
0.0067387
0.00283561
0.00556858
0.00556153
0.00367591
0.00262944
0.00384878
0.0045706
0.00666671
0.0069886
0.00405082
0.00581509
0.00494529
0.00638317
0.00353255
0.00442653
0.00328954
0.00566454
0.00701653
0.00285145
0.00486118
0.00676964
0.00562917
0.00421542
0.00669526
0.00689818
0.00695174
0.00547195
0.00625766
0.006914
0.00602164
0.00464706
0.00568129
0.00445483
0.00245871
0.00250546
0.0067267
0.00330103
0.00542721
0.00392317
0.00653017
0.00676777
0.00563155
0.00565961
0.00685017
0.00684137
0.00567459
0.00511062
0.00638061
0.00377319
0.00453466
0.00667416
0.00481506
0.00685312
0.00695785
0.00396978
0.00660342
0.00312205
0.00660973
0.00646406
0.00503398
0.00425666
0.00702613
0.00691661
0.00574655
0.00582481
0.00608418
0.00400835
0.00315866
0.00654719
0.00353787
0.00667246
0.003966
0.00562376
0.00600881
0.0049934
0.00688067
0.00695388
0.00653754
0.00608414
0.00675952
0.00375063
0.00405896
0.00569928
0.00422985
0.00696506
0.00420178
0.00662478
0.00704618
0.00617861
0.00685234
0.00435241
0.00638295
0.0064671
0.00704939
0.00680582
0.00568461
0.00376428
0.00338746
0.00692493
0.005775
0.00668971
0.00516614
0.00367364
0.00639213
0.00697815
0.00584869
0.00627468
0.00682105
0.0069723
0.0038562
0.0069977
0.0053779
0.00542171
0.0033593
0.00382863
0.00347329
0.0066218
0.00402897
0.00608863
0.00416774
0.00405464
0.00308027
0.00379736
0.00336574
0.00504941
0.00422447
0.00610219
0.00703451
0.00552851
0.00409442
0.00467712
0.00477025
0.00413717
0.00706129
0.00357756
0.00355949
0.00373955
0.00404488
0.00283477
0.00353846
0.00703979
0.00679554
0.00706401
0.00690789
0.00580379
0.00683781
0.00652296
0.00350841
0.00346844
0.0031124
0.00656086
0.00401179
0.00303068
0.00375692
0.0032599
0.00435653
0.00381495
0.00702631
0.00669501
0.00687773
0.00707212
0.00573875
0.00674879
0.00509554
0.00706068
0.00432112
0.0065315
0.00224652
0.00229254
0.0047973
0.00277306
0.00380184
0.00411384
0.00561011
0.0067722
0.00498786
0.00250423
0.00340495
0.00549287
0.00363687
0.00438554
0.00437926
0.00364355
0.00390029
0.00378709
0.00372494
0.00473964
0.0059369
0.00423687
0.00404309
0.00396856
0.00374496
0.00443333
0.00495097
0.00624994
0.00589984
0.00619215
0.00678354
0.00542436
0.00358651
0.0061719
0.00471509
0.00567692
0.00511831
0.00614152
0.00527912
0.0051987
0.0050438
0.00435108
0.00414822
0.00588359
0.00413151
0.00463074
0.00463048
0.00440638
0.00596197
0.00613078
0.00418639
0.00672645
0.00626836
0.00525583
0.00309392
0.00530342
0.00345269
0.00401569
0.00496794
0.00467951
0.00478046
0.00358245
0.00656683
0.00443293
0.00473394
0.00345539
0.00357008
0.00434872
0.00703236
0.00360501
0.00395639
0.0071534
0.00386913
0.0038324
0.00472563
0.00422033
0.00439647
0.00413265
0.00429695
0.00426317
0.00338259
0.00337302
0.00456602
0.00711266
0.00404554
0.00252467
0.00666157
0.00382188
0.0043206
0.00714832
0.00426903
0.0044154
0.00638428
0.00457114
0.00508758
0.00503394
0.00617047
0.00674479
0.00378993
0.00674819
0.00307036
0.00476455
0.0044349
0.00698191
0.00445038
0.00578676
0.00569638
0.00405554
0.00470206
0.0048307
0.00636836
0.00681968
0.0036397
0.00488606
0.00356445
0.00608903
0.00537803
0.00629533
0.00545898
0.00349398
0.00602878
0.00670517
0.00573655
0.00494703
0.00490113
0.00265108
0.00665105
0.0048171
0.00619818
0.00677015
0.00394109
0.0025587
0.00245087
0.00439102
0.00397644
0.00705776
0.00314242
0.00460253
0.0022974
0.00723308
0.00708109
0.00711446
0.00547297
0.00730842
0.00708575
0.00353151
0.00653606
0.00496947
0.00667796
0.00439559
0.00648077
0.0042802
0.00330115
0.00465321
0.00648396
0.0042421
0.00430037
0.00392058
0.00397591
0.00655748
0.00447786
0.00685509
0.00418298
0.00654472
0.00320524
0.00393357
0.00645232
0.00613397
0.00596529
0.00705539
0.00442075
0.00683638
0.00499274
0.00704318
0.00447623
0.00469703
0.00349564
0.00475866
0.00496446
0.00703002
0.00411118
0.00637011
0.0046244
0.00482828
0.00408797
0.0037818
0.00607411
0.00662292
0.00708256
0.00338045
0.00425968
0.00410969
0.00720006
0.00680555
0.00611538
0.00639235
0.00415694
0.00562442
0.00670632
0.00644702
0.00525966
0.00428456
0.00496199