/*--------------------------------*- C++ -*----------------------------------*\
| =========                 |                                                 |
| \\      /  F ield         | OpenFOAM: The Open Source CFD Toolbox           |
|  \\    /   O peration     | Version:  2506                                  |
|   \\  /    A nd           | Website:  www.openfoam.com                      |
|    \\/     M anipulation  |                                                 |
\*---------------------------------------------------------------------------*/
FoamFile
{
    version     2.0;
    format      ascii;
    arch        "LSB;label=32;scalar=64";
    class       volScalarField;
    location    "0.0689058";
    object      omega;
}
// * * * * * * * * * * * * * * * * * * * * * * * * * * * * * * * * * * * * * //

dimensions      [0 0 -1 0 0 0 0];

internalField   nonuniform List<scalar> 
3919
(
71.5253
70.8109
100.965
136.449
79.1751
68.3796
104.076
62.8457
43.7648
77.5156
69.9388
55.1116
68.2479
55.4453
66.5965
95.4325
46.9111
49.4386
58.1739
61.0421
52.1703
80.8692
41.9924
47.596
42.0472
71.2815
43.1914
49.6382
106.037
84.8873
69.9901
52.541
43.4097
60.0831
45.6488
46.3911
148.803
71.8112
46.0155
71.7814
65.6748
53.2083
45.807
71.9494
164.391
111.379
180.711
83.1544
59.8098
42.0101
42.9305
77.1966
42.0175
66.8401
91.3448
42.3168
119.457
124.168
43.7969
62.8211
122.505
79.3049
103.707
90.6386
56.4712
67.3709
43.4313
85.0612
60.1277
42.1354
48.0757
85.9624
115.81
103.943
121.676
93.0346
47.0116
43.3335
52.3937
71.6836
74.3224
42.3692
45.4207
52.8426
51.0633
50.3365
59.4065
83.2465
82.6768
80.237
94.2517
130.266
129.055
42.4389
83.1981
82.0371
79.8393
65.3896
88.0931
48.7407
44.9415
69.1232
101.946
46.7535
145.052
46.0152
93.3078
82.2154
74.0925
80.6981
88.7905
66.6836
70.7353
48.3045
47.287
49.4109
48.5996
57.6522
80.1282
76.8216
64.5534
67.1286
42.6282
104.53
46.6977
51.3961
43.4538
69.1859
110.535
61.5664
46.0208
73.5704
126.229
42.1282
57.5848
59.1083
68.7792
61.119
68.8811
75.5254
58.3508
41.52
73.1235
42.9757
51.4835
62.7203
145.202
45.4015
46.3552
58.7994
69.7448
44.9808
54.7583
55.6939
48.0978
43.7305
43.3495
71.259
42.5186
70.3985
51.8667
87.6272
125.375
49.1357
93.9752
120.911
124.257
77.7195
67.9315
42.6805
167.638
59.4595
48.1849
46.1627
117.649
67.4095
83.0104
48.1244
79.3836
85.4321
184.939
86.0848
43.268
69.9985
83.2512
68.4448
88.0964
56.9025
71.8976
79.3719
64.707
67.474
112.294
61.6237
77.7803
44.0673
94.3018
46.4741
90.5402
134.61
44.1593
76.5859
46.3562
69.4692
88.6338
41.9127
41.4252
114.435
70.3042
80.7031
118.593
46.2029
42.8421
42.4551
89.2134
42.3296
42.2494
72.3639
71.7604
47.7036
42.5343
60.7691
68.3436
66.989
43.0419
47.9709
78.3589
71.2791
82.124
64.5274
118.62
56.3747
124.635
70.3492
68.8378
66.1288
53.7278
53.944
72.8017
67.1951
190.956
90.6087
89.34
183.591
187.407
72.2734
95.5371
123.509
161.467
98.6066
104.32
183.74
123.916
106.779
106.259
112.765
91.1338
73.4287
79.535
107.61
69.8397
84.0957
122.619
121.242
85.7443
151.107
86.4804
181.451
77.9363
80.8373
56.9958
107.809
106.403
142.768
80.5139
78.8155
43.2431
150.56
83.2505
88.2976
86.8435
61.2908
120.194
54.7687
99.7026
54.4457
43.5448
103.242
80.0054
177.369
43.3417
68.2679
69.7737
41.8376
78.4376
149.855
52.3244
64.274
48.0274
165.128
69.4929
74.402
68.1017
71.545
46.6508
78.1212
156.476
96.7426
49.7186
70.2803
88.6304
87.2814
67.8726
112.048
86.603
65.0621
79.59
169.143
56.5456
68.6334
75.5257
44.2405
73.9655
71.7363
69.985
79.0092
59.9717
60.6546
87.0844
51.1016
59.777
42.2817
48.5328
80.5862
48.0784
45.0834
181.188
94.7324
78.2768
64.176
85.7207
82.0306
66.8502
122.878
67.0037
43.5746
90.0473
92.5588
60.4225
64.4428
137.02
64.3277
43.5341
61.7377
73.7604
85.0203
74.5526
101.425
89.6235
41.9527
45.1508
61.5521
63.4177
54.3893
42.2805
42.623
42.3689
93.1787
49.0849
42.6735
56.5249
79.8941
42.1416
67.3938
94.0067
78.1911
47.9305
45.3728
51.877
78.1071
86.6461
152.01
90.2897
89.9521
94.9757
54.4282
100.848
83.5014
67.0459
89.7801
75.4197
110.848
67.9321
185.776
90.156
87.8007
164.443
128.098
167.333
42.8363
56.6929
85.7082
100.51
42.775
69.7976
68.4417
61.0141
104.547
101.891
127.289
81.6597
68.1675
76.1169
64.0691
122.787
78.3584
99.3363
86.9583
125.935
47.4973
66.2227
122.495
51.7374
122.343
118.114
75.8586
43.8577
47.5059
83.0875
76.2125
52.0135
68.233
60.5113
72.6615
59.8005
113.181
94.8414
111.452
91.4151
202.999
198.723
99.4011
114.309
104.933
123.516
91.3916
91.6346
99.8348
68.3237
79.4413
65.5369
107.403
72.2474
64.3456
146.01
120.5
49.3299
84.2599
85.5308
82.4967
96.7396
164.117
165.574
97.7244
125.776
106.336
45.086
59.8901
44.5216
47.0029
50.3077
55.3257
95.2945
147.641
68.0651
87.2936
101.776
145.168
133.508
49.8396
100.471
61.1967
87.8823
43.422
86.0612
86.0972
72.3858
78.1518
94.5029
89.6667
42.9839
60.4477
86.6034
125.641
80.4935
76.1456
63.1325
122.682
61.0285
89.8218
66.3327
74.8062
61.7724
142.877
66.5308
69.9158
72.1865
90.5253
129.662
73.156
81.0736
82.8705
77.0722
68.5816
61.1401
51.7463
114.759
56.5254
75.9866
128.027
65.0971
89.6745
77.8253
48.2373
76.507
57.6646
69.7577
90.2616
95.7645
86.0244
141.276
111.616
110.4
48.6218
43.7928
59.9281
91.0198
80.3528
225.594
114.935
229.52
98.4519
110.919
71.1321
53.3845
89.3282
71.7547
78.4366
82.2886
54.837
112.948
54.8592
76.4115
109.077
116.315
183.177
131.122
116.332
123.272
106.463
105.04
74.5051
45.3694
46.1039
88.4128
60.4944
41.9639
86.9238
140.976
90.8576
44.1915
52.3367
73.8332
73.6961
174.427
81.3151
81.1644
77.9786
57.799
68.4688
41.1179
43.1176
98.4375
68.6954
89.937
55.0079
79.1101
59.0695
88.8904
71.5252
88.2091
77.8548
96.9558
104.359
101.244
99.6046
100.557
98.5608
97.6711
48.6675
61.6241
79.0475
46.5822
48.6481
42.9756
57.6853
47.5122
98.6461
73.644
76.7545
47.8428
85.535
44.9587
70.1008
47.4331
79.4147
71.0447
57.829
43.3859
44.0745
94.7959
70.0181
90.4783
61.7039
69.2797
56.7517
53.4105
42.7343
76.1225
141.085
41.4572
59.7232
85.9101
63.3094
61.6139
84.18
129.063
110.889
91.9004
161.518
42.423
68.293
69.4083
49.5295
43.1862
185.011
59.1481
79.6859
65.742
42.0493
42.4463
54.6181
102.724
44.2201
56.5865
45.8749
44.7571
46.9403
41.8481
89.5225
71.8182
105.035
46.2621
56.1107
92.9298
48.0596
70.0532
87.8295
64.2123
81.7504
43.3732
61.7296
47.9328
42.1508
48.866
43.5147
59.0777
50.203
47.1025
62.7105
107.809
52.8276
97.9456
59.3124
43.9191
77.6167
91.4853
72.1561
49.5538
44.5345
97.4683
48.1935
44.1908
78.286
141.485
63.801
41.7497
42.2901
70.5142
93.047
88.0913
41.8693
53.056
44.6835
94.1835
122.088
103.095
92.422
83.7696
95.8876
106.545
68.0384
51.9473
69.9948
61.7481
44.3879
105.934
45.3842
45.081
48.6483
49.7646
46.6061
76.5371
45.9163
42.0293
77.3653
70.1787
85.7167
80.8902
132.787
86.0168
77.5143
142.077
71.3763
41.5316
48.2611
43.0145
81.965
55.0459
99.7175
71.1266
81.1872
80.9169
66.1942
54.8029
58.7105
53.4804
101.541
56.8104
60.8
45.6151
98.6036
50.0771
42.1168
56.1814
60.7098
106.437
42.1652
66.2085
54.4332
125.544
42.1427
85.2856
116.72
69.1524
140.454
44.5532
63.0482
76.1107
99.6642
63.1404
47.8952
50.6095
52.5093
97.4638
42.0693
82.5854
49.7122
70.8629
64.5418
54.797
68.9213
63.7411
90.8545
64.0437
78.4126
86.7406
44.0395
78.7651
172.819
89.4673
76.3337
47.8559
62.8621
47.3165
47.0556
42.5608
56.6612
75.4064
59.4215
89.4435
49.7963
41.1778
59.3878
44.4467
88.8974
53.8512
83.3164
83.6223
51.5678
59.1899
49.455
90.537
81.8566
56.025
42.4776
113.331
43.0354
101.418
54.874
61.0296
55.6783
66.8174
87.6372
45.7586
43.6482
89.3052
53.9667
45.5703
46.4893
51.5237
44.9747
104.622
42.4395
67.0714
50.8918
99.2984
41.92
62.5634
79.4996
46.1434
53.4386
52.4059
85.4616
127.659
51.5957
64.4198
41.3834
42.4472
142.961
64.7827
42.8144
63.9888
48.6968
46.4925
84.294
83.3265
119.096
69.4994
57.3591
56.719
121.711
54.1755
96.3703
68.5805
62.6581
66.3514
76.0261
89.013
81.0261
47.4622
42.252
41.8022
41.914
47.5956
45.488
42.2721
58.9864
45.2604
76.3777
82.5831
130.49
69.9234
43.8859
100.535
51.7319
42.7001
50.8828
73.0823
83.8197
73.6209
50.6365
44.7318
44.7961
89.6054
54.4773
81.0912
101.211
59.6916
50.556
78.0559
128.41
88.1972
69.8426
89.4934
43.5106
49.3602
84.7733
65.4246
43.8924
79.5673
51.2397
46.7592
76.2938
82.4085
98.6429
48.4675
61.3247
46.656
46.9819
121.946
67.9646
82.5499
115.059
50.2802
86.2753
41.2275
77.1196
44.2978
91.755
43.0007
76.1284
75.06
71.0428
42.8249
42.198
41.97
42.4159
42.1116
41.6096
69.956
84.8235
45.2073
45.9895
72.8643
151.051
85.053
169.905
44.0782
52.4188
89.3477
54.607
48.8691
177.62
44.727
52.1178
48.9442
42.0368
81.7078
69.1792
79.2184
72.7883
97.0352
79.3196
46.5564
44.0912
42.6595
61.7294
54.758
49.4554
54.3334
113.788
87.396
61.8663
43.0481
42.1422
61.2421
42.7715
43.4216
57.7521
82.0374
62.2514
61.9187
42.902
45.9858
91.8027
87.2697
110.295
121.598
48.936
94.045
70.9705
97.9114
51.1251
43.1618
59.0819
47.2232
66.5802
53.6911
49.5368
58.0013
44.8749
57.0747
64.6884
79.9092
53.8863
42.5456
43.6878
48.265
64.2912
43.1258
64.6901
66.2916
77.7637
60.9212
87.3694
44.7751
47.2689
46.3546
48.4994
46.8363
44.8765
47.5521
47.2846
43.5977
45.6711
46.7348
43.4783
90.5741
80.6499
63.7023
69.3815
89.4575
43.0233
49.1531
93.499
47.7345
68.8877
92.2528
73.5361
65.1498
68.5381
45.0018
64.755
47.4754
43.6648
97.6679
52.974
95.102
70.2174
60.5847
42.4258
65.6745
46.3327
81.6743
66.7975
50.6475
42.5848
79.9279
41.6158
41.9391
81.4391
44.5234
46.9328
54.6066
71.528
45.346
64.3912
88.7526
48.8252
80.1587
99.7318
98.4789
67.5063
49.4696
52.447
53.2095
45.3729
47.4228
88.5376
89.6544
67.7105
66.1106
66.5704
78.8464
99.323
66.8177
42.4487
57.9906
61.5867
68.1068
44.3629
66.1059
86.2403
50.9883
89.3484
63.0105
78.079
65.1818
68.1102
97.2066
65.8649
71.5867
67.766
60.4939
61.4868
55.744
46.1991
50.7919
124.432
63.8978
45.3796
44.3439
47.2998
42.4093
51.9727
53.7805
76.2564
68.323
42.943
44.1071
137.161
63.7021
45.9058
67.0635
57.0197
58.1153
42.8926
54.5408
131.418
94.5219
81.4594
47.7872
47.4553
65.5678
49.5759
41.7622
72.8117
55.6919
62.3332
47.0599
87.2199
42.5776
42.2542
82.2798
82.6978
42.9705
68.593
48.4217
78.2917
44.1202
164.83
48.828
54.31
49.8112
50.4019
91.7798
59.7711
45.6804
41.5768
44.1169
42.411
48.3858
70.9095
83.5102
59.1943
93.1146
43.1722
44.3811
117.716
71.4017
45.4171
41.9903
48.562
48.4759
54.3664
48.5813
77.6035
42.4819
59.6359
42.3377
46.9945
59.8233
84.0115
65.9359
43.9458
68.9786
42.7979
61.2525
66.4256
41.6935
43.6476
71.6612
88.5468
60.8594
45.3767
45.1416
159.04
42.4233
42.1909
62.7916
176.12
61.6417
73.2095
50.075
41.4701
43.1243
71.485
43.7346
43.7149
45.3067
51.9431
75.0541
42.9631
74.7619
76.5705
64.5023
43.3139
44.0578
42.3117
60.9373
62.8546
48.2859
56.1904
95.3535
119.214
51.4887
41.5303
67.244
86.9096
43.8788
43.8798
45.6397
45.8356
42.283
46.6729
41.5377
55.5617
77.0579
70.262
46.3883
44.1588
43.4675
43.9314
45.7909
42.7042
46.2369
42.2622
84.4352
41.7509
42.0158
97.2319
76.6649
86.6788
49.7516
100.906
48.5345
74.6846
59.3091
85.7345
92.2952
53.8077
67.8724
58.338
181.286
42.6451
44.2387
44.5079
43.4381
44.2173
49.2893
42.9706
43.4231
44.836
91.873
99.1684
111.367
41.8544
64.6048
88.6945
43.8106
67.184
47.1977
41.4525
43.4674
41.482
41.7669
187.091
63.2961
51.5706
42.6958
43.9827
72.6807
46.2108
75.7569
84.4805
43.073
51.4745
93.2549
71.025
47.3946
43.5713
42.2083
51.02
47.1402
41.6231
99.397
101.862
42.1563
44.1439
77.8297
85.9697
74.6493
46.2447
45.6429
70.8484
51.3353
57.8552
46.0037
46.1905
71.1151
65.5636
42.7573
44.751
58.0341
70.9113
102.283
48.4385
82.6786
60.9849
83.6317
55.4322
45.4637
53.9925
59.702
102.219
44.1685
95.7754
43.2892
44.14
46.2911
104.627
65.6095
81.3788
44.3639
47.063
45.7924
42.4116
46.4048
46.1288
70.1987
41.6056
47.1066
41.7688
41.7407
47.0072
43.1587
74.558
75.7775
151.864
47.2229
47.3323
89.2871
50.1486
75.5216
78.2692
102.265
72.8514
62.0024
45.4677
53.8559
60.0085
43.061
48.0788
47.6547
43.3555
94.1787
70.1942
73.8563
66.8276
45.805
55.1693
48.2594
45.2378
47.9759
43.7374
41.8537
47.3911
63.9507
45.6164
49.0021
47.465
70.7814
53.3991
55.2228
43.5508
78.0447
49.2821
46.7235
47.8848
42.1172
82.5469
42.9045
47.6204
51.2516
43.5258
43.0982
47.689
43.2865
77.6073
98.3017
53.5614
42.672
48.9063
42.2677
45.6605
42.2792
41.872
41.8909
42.314
46.967
42.2034
100.745
73.3402
51.135
42.9838
43.378
43.393
80.1138
46.7787
86.2766
106.856
41.3159
41.6562
41.7543
41.9203
41.5424
76.1672
44.1099
55.4765
76.3897
75.565
56.5917
49.8867
41.25
62.7855
44.4045
92.2398
102.09
113.55
43.6281
49.0216
63.8426
68.2241
66.0647
54.9647
65.8785
63.0832
41.6863
93.9519
74.8846
111.989
101.754
82.9854
44.5115
78.7472
188.331
70.8333
49.6619
64.8319
79.705
89.3388
61.2029
48.8049
42.5104
42.5758
107.264
64.8655
52.1728
46.5992
41.9319
89.1527
46.5261
83.5971
81.0439
70.3068
107.009
49.2388
66.5216
44.388
96.7382
85.2551
62.7225
44.3475
78.612
42.7617
67.2156
62.6621
71.7403
50.1594
46.6137
75.0618
90.5876
102.142
93.9171
42.9571
69.3151
94.5743
98.5901
68.5663
67.8805
48.2186
73.114
42.7094
43.6147
63.0956
42.1504
42.3981
42.8663
73.4604
42.7567
52.764
72.8377
62.8682
53.6466
59.8296
84.7433
72.2566
109.331
42.804
43.7383
41.301
41.9723
44.173
41.0739
85.0847
189.13
42.316
48.4331
49.7726
93.4834
42.7027
43.1279
76.1866
46.0882
63.8207
56.4653
47.0672
46.8069
71.2355
41.7544
51.9756
43.4266
58.8306
52.6064
44.8549
44.453
60.7503
88.7631
42.1801
48.6728
148.174
60.7943
42.772
134.472
93.9476
50.2195
70.5742
53.4713
134.157
70.4982
44.793
45.6191
46.4596
45.6661
102.332
54.153
44.5559
68.908
47.0333
69.6699
62.1259
49.0264
41.9876
78.278
106.135
82.7883
45.84
56.702
74.8627
69.7736
42.1715
41.7387
47.4329
42.4304
88.2764
61.5607
103.999
107.357
43.7622
42.5472
42.3793
41.3126
47.6858
69.8722
48.1369
127.719
53.9297
118.641
43.0616
41.9783
45.2427
42.5149
88.4906
68.9881
43.3136
48.6389
43.5746
44.8309
106.705
97.3271
84.8521
51.1151
46.4768
52.4878
84.9859
45.5423
44.7116
44.6192
90.122
61.4997
50.9606
52.4125
50.2569
48.5251
42.5365
45.6869
107.931
97.9394
63.6264
98.0914
66.1652
72.0844
87.1439
68.7053
68.3217
43.2744
96.5343
47.4434
41.7002
95.3567
95.8879
98.5449
53.3877
50.5082
106.142
93.7816
107.236
95.4469
82.9892
44.2659
95.561
90.5439
65.437
45.9425
97.1631
91.7097
101.833
46.4257
45.5238
77.7885
74.4522
42.8857
41.6743
41.5467
43.2644
59.4405
44.2066
43.2896
76.2807
85.548
65.5135
64.7636
58.4754
79.8241
88.9826
60.4294
74.2666
136.201
77.7761
79.0324
54.2517
73.6606
69.3445
68.9931
137.061
61.2224
136.594
102.867
84.5138
113.655
87.7132
78.5166
81.9242
82.9007
82.4711
78.0369
56.7863
92.1143
93.1872
66.6393
75.3367
80.1993
70.3981
110.402
63.4049
119.837
93.3086
59.6032
101.86
51.5796
90.1969
75.077
61.7382
60.7461
90.285
89.2744
65.3739
49.2697
91.6367
75.8624
71.0606
98.2799
92.5055
104.051
116.926
112.286
57.7775
94.686
52.9439
118.792
66.3662
95.5214
87.9793
87.7211
116.829
83.8835
76.3674
94.5406
124.476
58.2368
58.6647
51.9515
63.5111
95.5854
92.9336
66.9306
86.4881
44.1165
42.4886
51.9017
92.039
49.1554
68.7816
59.0022
69.8769
48.0845
204.823
93.0285
90.9901
60.1974
97.467
70.2981
95.1372
45.5228
58.7891
116.086
41.1313
42.4781
42.6044
41.2173
41.7694
44.9389
42.0873
46.4818
45.0075
47.8853
41.8636
60.8068
66.5518
86.5014
41.9685
43.3452
48.6205
49.8056
91.8259
96.541
97.7321
61.3035
52.1054
65.8086
66.8568
41.5863
44.6963
46.7091
86.0822
48.3796
79.4891
73.0211
82.7673
107.531
43.0059
57.8353
57.3903
44.1066
60.5523
43.8114
45.0218
43.2647
45.1545
46.1158
64.1605
67.8333
44.1916
43.1909
62.4749
62.6704
56.5642
42.5814
45.4993
44.4679
45.1448
44.3915
43.2448
42.0585
42.3967
47.0522
64.2119
41.8652
63.5702
45.9675
54.8587
43.0402
50.0302
68.0125
42.9519
43.9692
43.4845
42.653
51.1343
73.4837
41.9367
41.9246
46.4033
45.9533
54.8934
85.2621
46.7841
49.6874
53.6237
62.6347
79.4356
80.4591
67.6092
87.2326
87.5552
96.4208
43.3561
97.8642
81.7013
77.6077
110.234
48.1734
44.9639
107.488
47.1797
113.871
65.2277
96.0634
51.961
76.2527
92.7937
47.9323
79.0391
97.3677
73.3564
96.2713
58.2696
45.3372
50.9801
71.1358
42.2801
73.6114
45.7409
77.735
43.5329
94.033
67.6351
72.257
71.3393
42.3477
86.6892
84.4319
98.9762
88.4177
42.4652
51.1338
42.2689
84.6461
66.9737
71.2484
41.5334
98.9669
46.5921
42.8278
60.8328
98.9539
43.1278
57.2617
41.5132
107.613
48.8566
48.6093
42.6472
62.5881
44.4776
92.3937
101.007
87.4088
63.8543
99.5694
134.329
42.5946
42.0175
61.1615
61.9967
50.3511
63.7153
80.2464
94.2392
113.572
57.5283
42.2217
93.4944
86.236
42.3602
41.7603
89.5544
81.1035
43.1879
43.0616
43.1922
46.0734
74.2145
47.6316
41.7966
42.1625
45.7958
41.4711
65.456
66.3063
41.885
44.1332
43.6078
42.4406
63.1305
62.9886
95.3368
96.8412
52.4591
97.9314
53.7203
71.0708
96.7801
43.8264
108.51
48.3935
87.2753
51.5424
60.4612
42.1161
93.0654
94.6984
45.2725
85.5003
143.149
95.6002
46.8412
109.765
75.5312
62.8358
131.1
112.473
176.691
127.886
76.4846
42.9539
62.6628
160.495
166.339
157.652
161.674
84.4878
43.6004
99.9081
73.1529
98.8027
81.8256
67.4556
49.0596
57.1454
88.145
78.19
167.145
45.5243
43.9869
82.0275
79.7196
83.0232
57.4569
69.5743
65.6749
83.983
68.1538
44.2039
45.6585
50.5742
83.7195
58.7224
55.7806
93.7626
43.1
67.7539
98.5332
82.63
43.8794
86.2992
74.2836
74.9446
45.2488
48.929
69.9606
82.4909
83.2371
42.456
62.5755
49.3801
45.9016
79.706
45.8904
135.071
100.258
53.2608
96.6968
68.4111
97.0306
65.6856
68.355
46.1939
41.8777
67.3485
68.2496
67.6541
44.7128
117.778
90.4733
75.6368
72.525
47.1444
92.0908
50.4164
42.6132
65.1253
67.5091
60.6864
43.7718
68.458
58.3023
70.6974
41.9538
51.4824
48.2292
76.3273
131.008
90.2759
76.5003
114.034
77.1675
85.5732
90.357
66.7118
60.1542
97.7794
45.5767
42.9075
142.917
86.7641
159.794
47.1415
44.4013
49.3056
47.6538
48.4907
45.1785
75.4612
51.6919
55.8497
76.3033
90.2471
98.4018
74.9971
57.3862
47.1836
66.0916
61.8796
43.0488
81.1486
44.9544
50.7883
48.2633
43.2462
42.2718
154.688
88.0734
102.541
133.503
169.554
54.1818
73.5489
146.557
48.1242
44.9237
51.9896
55.3707
45.9635
45.6918
51.7053
91.4418
66.275
120.202
44.0609
44.7693
47.2473
48.4215
41.6854
43.4806
42.6561
186.631
71.8404
117.746
45.1615
80.3353
180.285
93.2575
114.124
113.562
63.1064
108.121
113.69
49.8961
48.0404
53.3268
106.567
48.168
42.9312
44.7007
43.0188
41.9481
45.4603
42.1961
98.3507
82.7297
70.9985
97.2033
49.53
75.9276
67.4507
152.017
68.3116
44.8568
42.4949
84.6804
70.3388
68.9966
41.6032
99.3352
46.1043
71.1856
65.5923
48.425
150.329
80.8817
41.7671
70.746
46.2034
80.903
84.0884
83.6107
65.2106
52.1317
41.9081
81.4725
80.6345
80.2302
42.4262
90.3764
53.053
41.9545
60.3601
60.5659
79.5167
52.6037
46.5577
99.4956
64.6822
47.6384
55.9164
47.5658
104.525
76.7451
43.1703
45.3273
53.1292
64.8444
61.8573
42.2158
46.0637
118.708
68.5992
93.8879
44.802
66.3678
73.6835
41.8912
124.14
45.0569
43.9057
43.2674
48.3421
46.3386
42.4477
61.5848
117.408
105.812
79.6654
43.3112
41.9635
45.0884
49.4558
60.4301
43.0768
143.154
42.7864
113.171
67.061
79.0163
53.6247
58.348
47.4097
55.7167
59.7337
71.8354
64.0611
41.6781
120.117
150.309
90.9602
42.338
45.9061
53.1643
42.2668
49.7925
42.7757
46.5193
94.7711
56.6752
42.0426
58.2663
47.0225
52.0298
71.5989
83.9461
45.546
42.607
71.5633
47.0659
46.369
43.0247
45.5207
42.2866
59.3061
45.9281
101.545
76.5325
75.3722
65.4684
43.7876
43.7507
43.8832
43.0725
71.4249
135.787
44.0124
111.978
53.1039
52.9669
82.9322
126.122
80.7066
66.2509
44.4786
42.4798
79.8474
50.304
59.0676
46.1531
86.2143
70.1252
108.908
51.3089
42.4704
129.365
61.7683
43.7849
53.5691
74.9007
44.4487
43.2868
42.8068
55.2675
47.44
42.9128
49.0613
64.134
51.0765
70.0855
136.514
139.105
44.3065
100.167
53.7209
84.1426
45.7322
43.6812
52.4772
51.8134
43.2194
43.4057
52.2062
61.7232
46.5408
86.2483
68.9477
44.4078
62.4392
43.0729
42.4817
81.7597
44.703
111.267
44.8146
45.6574
61.5479
81.7009
42.0873
42.7131
51.5016
50.7767
48.4441
82.3696
112.445
44.923
96.9336
44.09
82.9681
52.8458
49.1571
61.3286
43.2237
42.6771
45.0829
48.6469
43.5856
93.4728
81.8913
52.8476
72.8615
42.799
80.2014
44.8264
42.3331
47.798
43.212
67.5887
46.8316
45.8456
42.2077
43.4966
52.3987
85.7551
96.2543
42.8271
50.5562
44.4002
56.9398
97.8186
46.6807
42.6259
51.8149
47.8021
43.6393
42.7621
82.7035
42.5519
54.2068
55.0776
95.3856
81.154
96.5672
45.0561
80.0551
48.7277
84.6585
88.2647
109.663
85.2695
94.6998
68.4718
73.6158
48.6299
42.5812
54.1496
85.932
66.5031
64.8896
78.3007
42.0708
87.2178
86.2721
80.21
77.0322
116.008
86.5233
42.432
43.8122
42.2505
43.141
51.2662
43.4236
45.4303
94.2849
96.4315
102.226
45.5631
83.7217
115.256
89.447
101.923
71.7657
84.8135
42.5434
44.7424
43.4452
42.3493
50.8435
44.207
59.1974
42.0192
74.3944
45.6729
156.396
159.595
63.7754
122.231
91.2333
76.7475
52.5199
43.9418
59.0389
139.037
89.1788
53.7304
85.622
67.9319
67.7976
84.3286
85.5099
88.0819
86.6377
64.3242
50.1766
73.0364
84.2805
82.7272
90.7754
69.9987
61.2526
47.7838
49.7887
47.5599
43.8374
54.5384
86.5929
47.8801
66.1903
52.6744
67.7466
48.3464
57.1996
58.7026
60.7678
83.5107
79.6219
50.8616
75.1566
64.6287
70.4096
71.9654
49.9656
48.4219
86.0212
43.6898
46.8547
56.4383
118.665
55.5139
90.9307
74.2746
58.476
65.526
62.9447
91.5347
45.1427
70.8198
65.4159
106.201
101.357
73.9954
42.3831
94.5805
87.9474
41.4816
81.1414
83.0554
63.6036
76.6239
70.2448
72.8026
74.1824
72.6401
90.4619
100.549
69.9786
41.8542
83.2221
134.76
44.3722
88.4754
72.3895
41.6766
69.2858
70.5339
47.0407
68.0475
59.5102
67.5032
48.0042
44.3593
83.7867
44.4426
105.314
62.0117
71.6148
42.5473
80.5843
51.2054
51.8886
84.0862
63.2618
62.3068
46.5216
43.5534
94.0218
62.2632
99.6346
48.1344
54.9422
46.8153
54.2428
95.5178
49.2135
44.3812
51.6821
61.5238
62.4202
129.169
44.5616
61.5406
47.5766
43.849
81.8033
136.574
144.673
72.528
76.1699
42.073
107.903
65.8627
150.356
41.2484
41.992
41.7939
53.2901
40.8958
42.1922
93.4505
45.679
59.9289
44.4363
70.8002
45.8009
75.6414
101.062
66.7628
45.3689
81.4478
69.3762
77.0527
80.3489
44.7697
68.8196
43.7567
72.1518
45.2129
108.679
76.5913
46.3586
48.746
49.7279
41.8999
71.7188
43.6292
60.0809
42.1897
67.6576
68.0682
97.1075
68.8243
60.1021
42.3495
74.6625
46.7231
65.8342
61.4987
78.8751
86.4442
48.8573
44.6284
42.0491
100.664
74.9585
85.9668
41.4069
43.5968
48.5574
46.2079
86.9541
53.6645
43.9335
45.877
58.0494
82.2371
64.488
50.3975
49.9795
56.2228
50.8457
52.2022
44.3165
42.5169
43.3123
43.6089
42.6955
64.9326
72.863
89.6047
77.8759
101.403
65.3821
54.887
72.736
63.7731
67.075
63.9572
62.2
44.1745
43.9095
41.8298
92.2093
54.9139
47.8694
94.2277
42.7165
41.2674
45.2004
44.8359
67.3344
41.7825
45.5924
52.5801
105.145
42.2933
50.1951
97.5048
42.9782
43.573
90.5477
93.1602
70.4219
73.8026
88.5671
44.0716
50.7004
50.0695
71.3327
59.9704
46.2307
45.5384
124.331
71.6619
78.0549
101.478
41.9682
42.8754
44.7602
45.0542
44.8925
44.6714
115.229
56.7449
43.1963
66.6843
69.8479
79.0024
42.0898
42.0922
44.5295
41.67
109.017
43.3674
43.2074
46.9448
66.7351
72.122
45.8695
43.2903
108.239
47.4794
60.3373
49.8654
75.4885
46.2911
76.0321
102.854
92.3837
78.2372
59.2091
57.0204
67.561
66.1749
50.41
44.4076
45.4333
86.3682
56.0219
42.7446
63.3875
44.0463
43.6307
82.0042
125.933
46.5393
50.6073
48.5328
48.188
48.9139
80.487
41.5277
44.0394
45.1296
73.3325
43.492
84.1114
79.4753
72.775
83.5899
60.7928
43.1647
48.8744
41.8907
47.9758
43.9325
46.6524
62.1391
42.4697
80.4184
76.9846
74.106
44.2281
43.3746
64.5182
123.69
63.8749
75.3187
87.8187
68.5892
43.6169
65.9411
51.7996
42.295
43.9076
70.0521
76.5052
43.7385
43.7802
87.4387
69.6363
44.2068
65.6634
42.2115
64.5792
62.7629
43.894
50.8355
41.4019
92.5866
49.5239
46.3323
79.7513
87.5002
42.0871
41.3976
44.5477
43.4533
50.4527
76.5852
43.1589
61.8758
92.7015
106.092
71.2376
42.0839
75.1549
93.194
43.9906
74.5513
42.1685
61.0284
65.652
81.5716
68.2266
71.5412
42.4243
63.0334
70.8037
44.2266
46.8896
52.8237
45.2322
44.9817
107.068
44.3432
59.5169
65.7212
66.0722
49.1496
49.8385
96.9163
45.3563
50.1813
83.4453
65.0559
88.2215
82.2517
49.6448
62.5845
73.492
91.1736
95.8657
87.7333
63.4446
84.3529
188.254
78.7217
71.2162
76.5922
82.6946
47.5612
47.1447
103.638
77.912
51.9809
82.0466
42.8208
47.9244
85.9257
43.4853
43.0214
75.651
72.0392
86.2453
73.5374
150.269
79.811
114.029
111.112
109.851
103.799
208.072
43.7185
43.5037
108.115
90.7303
45.474
51.0678
47.9065
81.7772
69.11
66.2062
100.922
132.019
75.5246
81.9559
53.0061
46.7592
82.5215
177.552
78.0772
169.486
68.274
74.6951
93.755
85.1496
86.5104
46.4328
100.124
43.6348
45.0062
85.4753
67.7993
85.7509
44.4604
59.8197
58.8474
85.4533
46.4317
60.4041
44.1492
43.3067
43.2547
82.7688
84.6573
62.4989
66.9407
79.8791
77.6258
70.159
67.9001
80.1892
74.7796
42.2794
66.8344
69.2743
90.2372
76.1189
81.2302
69.9327
41.6268
42.2952
41.3097
47.7898
43.8685
48.0492
63.7327
41.8704
47.4915
93.5193
115.12
47.9869
51.6453
91.9565
51.9996
52.6462
61.976
42.0272
131.968
70.0309
86.5542
99.6873
136.081
42.5895
80.5188
98.9312
46.8577
83.4218
47.2717
71.611
51.7128
65.234
81.9694
45.915
80.132
54.5211
51.5413
94.2618
106.796
68.6826
45.9855
70.911
111.805
75.2903
87.5537
41.275
84.2313
77.5623
42.8459
70.877
48.054
90.4374
54.2819
81.8305
54.4133
41.5266
61.4868
75.2922
46.2094
60.5649
48.4395
60.3173
83.4578
68.6924
94.8127
51.1744
76.7087
41.8613
90.8194
77.911
49.7605
65.7443
86.1519
88.8613
56.0241
120.722
62.0867
80.3666
49.0183
49.3348
50.1863
41.7019
57.9565
68.0974
56.8052
48.8043
100.904
42.1714
45.7593
73.1277
42.8171
45.8618
143.493
47.2554
156.404
87.2624
124.792
71.8269
64.4739
82.7449
43.5224
83.8447
41.69
116.673
43.0082
74.9624
124.428
103.386
63.2657
75.4873
46.9173
72.8821
141.576
42.8204
66.1844
79.8434
51.6147
108.259
45.894
50.7099
86.3447
88.7137
74.3667
90.617
67.2803
90.1342
43.5679
43.0268
73.0995
65.2813
44.3576
44.7328
69.5199
45.9514
41.8522
45.9592
46.8836
49.2678
51.1493
47.3466
57.8049
80.6324
93.9114
82.6131
78.0256
95.9921
66.3172
73.8229
43.5161
45.6864
47.6903
45.923
42.1223
45.8737
45.3419
45.4278
47.4412
47.4453
78.6445
111.094
45.4164
66.4672
66.1547
90.4885
73.2696
77.179
61.5802
83.3798
78.2686
52.6193
75.2362
45.55
151.436
51.7365
45.2311
47.4482
71.8487
44.6404
66.1341
64.1201
67.0005
78.1002
43.9326
48.2019
44.4816
47.4104
41.8716
46.9565
41.6884
78.4231
68.713
71.6532
48.6949
45.5994
47.5685
46.2143
44.0739
43.5929
45.0956
44.8375
44.3077
47.4586
54.2333
43.1889
45.6025
41.7284
57.174
55.7717
141.264
70.3755
70.5045
74.9227
41.8214
41.5218
52.0855
42.4316
77.6947
47.0426
69.7148
69.281
74.2738
43.9604
74.9046
86.2035
117.038
112.187
43.1254
44.0166
70.4232
56.444
66.0483
75.634
95.1575
42.8484
123.936
42.1797
44.0936
50.3188
69.6758
49.2948
41.4493
41.9085
56.0132
65.6256
43.3522
42.4312
123.68
73.8131
42.0398
181.525
61.0974
122.327
61.7688
47.1233
42.7515
61.5378
54.3485
65.2182
77.1131
56.4971
57.5719
45.2849
101.483
112.517
89.8781
43.4603
69.6997
46.1724
113.407
83.1493
42.8655
42.8089
80.4369
82.6086
43.4822
92.4187
70.1675
43.392
69.1426
42.7728
43.3257
61.4236
42.5246
42.2459
50.1177
48.1135
51.0173
45.3838
44.7545
50.0284
48.2716
45.1097
77.5853
168.144
49.4319
43.7727
107.422
53.2756
77.9539
67.2632
41.8955
46.7377
72.2257
112.309
85.9328
47.7786
78.8119
103.17
116.403
64.9637
137.88
68.4824
90.3525
44.7152
108.394
74.8269
83.7988
92.7031
66.8564
88.5007
95.5378
73.7877
64.611
58.2111
79.567
75.2144
68.2261
110.201
116.623
97.1723
69.1363
65.8137
134.135
79.5914
78.8448
77.431
107.723
78.6471
44.3983
71.8949
67.0027
41.9101
63.863
60.1765
47.6496
102.966
79.7863
107.633
80.7865
65.5176
81.54
101.65
45.5076
59.8086
93.74
67.3549
79.9526
42.7949
62.581
42.3226
50.6474
75.5137
79.8631
86.3335
79.9047
65.6591
68.5603
102.429
60.6224
70.6016
72.6017
81.3939
41.6936
93.1112
164.733
161.808
72.3313
78.8661
68.9472
95.8028
74.2934
117.259
81.8624
61.7824
53.3791
58.4872
74.1032
78.5548
110.7
110.946
86.4063
186.151
140.16
82.7806
105.014
64.1381
72.2941
82.2958
91.9794
104.584
89.2253
73.6638
97.2029
151.355
167.583
114.948
165.893
67.6605
101.518
112.001
54.1261
112.725
67.7861
72.2005
96.5122
44.0715
43.6274
50.7903
47.6786
42.9261
41.6418
44.0114
42.1661
81.2347
43.6915
45.1782
43.6647
44.9125
106.108
104.995
51.7003
41.9161
42.5718
47.0357
43.4357
44.9946
50.7679
44.7593
42.2212
50.0236
112.449
47.8404
44.1841
70.0648
53.1687
53.3536
43.4076
42.7562
53.0706
84.4521
66.2587
42.6947
89.5505
46.0303
42.2548
46.2376
41.9335
44.733
63.798
47.3226
70.0171
42.7938
56.5174
43.3749
50.5702
42.1334
87.8275
43.9579
42.7909
57.324
55.4094
42.4324
77.3374
49.7283
43.8984
42.12
69.39
41.8705
42.9006
41.9333
45.9324
42.3924
41.3342
51.5516
41.537
43.0685
46.6154
81.3229
50.2641
42.4275
41.8933
41.839
46.5385
45.0099
43.3011
42.95
52.2081
59.296
51.8469
47.5466
49.1431
47.7201
47.2041
46.0338
52.7397
43.0568
44.9292
76.5697
51.3889
106.229
46.9744
43.7456
44.2722
53.6956
51.4318
42.5834
52.5839
43.0983
64.9443
42.0832
50.6135
103.324
50.987
43.0748
42.8204
43.8472
101.16
67.3906
47.8923
46.5299
124.203
46.3058
94.5041
100.83
76.1265
42.5496
42.532
42.6812
43.2023
42.5066
57.3126
59.7237
41.9063
75.3567
62.7161
57.4024
43.3723
45.5289
43.7521
49.0559
89.1893
43.7451
42.7457
48.2983
72.4505
106.756
49.0014
48.2027
45.8404
63.5555
66.9772
88.6602
43.3883
62.2051
41.9558
41.477
100.111
44.0513
45.8221
70.4154
102.321
47.4927
101.93
43.5171
55.1486
75.4404
52.2528
62.4688
59.9239
68.6155
62.4119
47.4285
43.1126
59.9873
101.395
46.8898
83.3299
77.8837
86.3791
79.8579
64.4524
44.7254
43.786
72.1713
60.5544
59.6953
45.6757
47.343
68.438
48.7428
42.5116
44.8482
97.2644
42.7369
43.3844
44.6794
52.3088
74.4137
44.5
44.7545
75.1974
52.7827
47.5981
41.5426
67.4242
45.0968
43.5938
41.5917
46.6703
95.6797
58.3991
62.9616
81.1661
44.6364
98.1739
87.9418
72.4208
96.5696
89.5915
92.7215
92.5509
60.6006
47.0049
44.231
56.554
58.0925
167.832
45.118
81.4304
69.6387
81.1183
95.5223
107.235
80.427
71.7888
104.806
91.7188
86.4835
66.1911
130.324
53.2013
83.1882
71.1835
79.1027
71.0205
101.847
63.5005
126.019
64.6907
55.4179
55.6988
104.438
96.2242
98.5493
132.642
87.2454
65.1065
51.2619
87.3812
88.4598
89.2899
67.6518
75.9964
81.226
41.9032
41.7478
41.8903
65.8597
42.6076
56.0505
48.926
44.3649
108.617
41.6536
52.1372
42.2176
95.7645
59.5064
79.6074
90.8965
70.5336
85.7759
44.1822
47.4318
71.5639
43.8517
43.346
66.5279
51.8053
71.1488
79.8441
54.6503
64.6513
161.182
162.735
72.0701
144.904