/*--------------------------------*- C++ -*----------------------------------*\
| =========                 |                                                 |
| \\      /  F ield         | OpenFOAM: The Open Source CFD Toolbox           |
|  \\    /   O peration     | Version:  2506                                  |
|   \\  /    A nd           | Website:  www.openfoam.com                      |
|    \\/     M anipulation  |                                                 |
\*---------------------------------------------------------------------------*/
FoamFile
{
    version     2.0;
    format      ascii;
    arch        "LSB;label=32;scalar=64";
    class       surfaceScalarField;
    location    "0.0563953";
    object      phi;
}
// * * * * * * * * * * * * * * * * * * * * * * * * * * * * * * * * * * * * * //

dimensions      [0 3 -1 0 0 0 0];

oriented        oriented;

internalField   nonuniform List<scalar> 
92401
(
0.14764
-0.0964414
-0.0070379
-0.0441604
-0.0626761
0.0601877
0.0381076
-0.0356192
0.022339
-0.0398496
0.0430907
-0.0255801
0.00654385
-0.0129793
0.0128072
-0.00637173
0.00135652
-0.000505606
-0.00587502
0.00502411
0.019494
0.00975857
-0.0254031
-0.00384948
0.00575437
-0.00474408
0.000346224
0.0323828
-0.0256404
0.0127517
0.048082
-0.0386434
0.0324547
-0.0418933
0.000368302
-0.000870356
2.52915e-06
0.000499524
0.00469478
-0.0417293
0.0384956
0.0241416
0.0244154
-0.0870525
-0.017188
0.0109479
-0.00016698
0.00640707
-0.0345119
-0.0402325
-0.0170956
-0.0182831
0.0590996
-0.023721
0.00218469
-0.0665356
0.0643509
-0.00241435
-0.00773048
0.0020284
0.00345923
0.00224285
-0.000958119
0.00152191
0.000242462
-0.000806253
-0.00486975
0.0106821
3.09405e-05
-0.00584332
0.0163579
-0.00578176
-0.0049298
-0.00564635
-0.0408454
0.00836756
0.0370299
-0.00455202
-0.0393263
0.0109019
-0.0548007
-0.0542954
-0.00273403
0.055177
0.00185236
0.0907564
-0.0894763
0.0220672
-0.0233473
0.0500783
0.0601327
-0.0712681
-0.0389429
-0.0325639
0.0511737
-0.0579362
-0.00270372
-0.00103492
0.00398581
-0.000247167
0.0315479
-0.0636175
-0.000494228
0.0611887
-0.0604677
-0.0323569
0.0316359
0.0126102
-0.0173621
0.00127711
0.00347485
-0.0358464
0.106388
0.0616647
-0.132207
-0.0846931
0.107526
0.00897294
-0.031806
-0.131149
0.0322735
0.029627
0.0692487
0.0148399
-0.0619057
0.0371833
0.00988251
0.0600203
0.00929291
-0.0544733
-0.0443338
0.0102492
0.00241767
0.031667
-0.0504144
-0.0411776
0.0654842
0.0261078
-0.0332473
0.0405071
-0.0139487
0.00668892
-0.0199694
-0.101931
0.0650962
0.0568046
-0.0861436
0.0862432
-9.95513e-05
0.034933
-0.00747328
-0.0770809
0.0496212
0.00457817
0.0239811
-0.0222169
-0.00634236
0.0268849
-0.0503986
0.0235137
0.000148591
-4.5416e-05
-7.63415e-05
-2.6834e-05
0.000717698
-0.0585091
0.0577914
-0.0685756
0.042871
0.0624341
-0.0367295
0.090127
-0.0254323
-0.0127958
-0.0518989
-0.000176987
0.0703918
0.000292731
-0.0705075
-0.0476847
0.0731108
0.0398124
-0.0652385
0.000543084
0.00109503
-0.000373678
-0.00126444
-0.00225782
-0.00347625
0.000292883
0.00544118
-0.0382001
0.0839109
-0.0461944
0.000483557
0.000326286
-0.000802827
-0.000627559
0.0011041
-0.0546452
0.0543293
0.000315953
0.0754377
-0.00791544
-0.0184407
-0.0490816
-0.098261
0.0909954
0.00492238
0.00234315
-0.0551481
0.0275318
0.0110869
0.0165293
-0.00293113
-0.0152765
0.00760176
0.0106058
-0.0125195
0.0258783
0.0374414
-0.0508001
0.000935495
-0.000339371
-0.000269838
9.84643e-05
-3.48319e-05
0.000732015
-0.000795648
0.000779007
0.000213093
-0.000622396
-0.000369703
0.00418263
-0.00924324
0.00511937
-5.87595e-05
0.0679084
0.00506157
-0.0172001
-0.0557698
-0.0150916
-0.00470515
0.0105401
0.00925665
-0.0409998
-0.0529082
-0.0547553
0.148663
0.00336704
-0.0339953
-0.00392436
0.0345526
-0.000386357
0.000561153
0.000576291
-0.000751087
0.00451816
0.00445133
-0.0282094
0.0192399
0.0187877
-0.00663145
-0.00955824
-0.00259806
0.0416914
-0.0764281
-0.02736
0.0620967
-0.0289538
-0.00321318
0.0103368
0.0218302
0.0122729
0.00811894
0.0130345
-0.0334263
-0.000563014
-0.000357419
-1.41564e-05
0.000934589
0.0252309
-0.00973253
0.0365642
-0.000886028
0.000552602
-0.00100235
0.00133578
0.0442799
-0.033063
-0.0683005
0.0570836
0.000553851
-0.000310558
-0.000243293
-0.00110588
-1.56263e-05
0.000566
0.000555506
0.000757146
-0.00022563
0.000512403
-0.00104392
0.0226443
-0.022715
-0.0625319
0.0626026
0.00115959
-0.0127082
0.00278105
0.00876759
0.0430121
0.0585453
0.0185334
-0.120091
-0.115166
0.0267992
0.127236
-0.03887
-0.0054664
-0.0443068
0.00375946
0.0460137
0.0541697
-0.0294587
0.025768
-0.050479
0.0251836
-0.00336915
-0.152162
0.130348
0.00762856
0.0172504
-0.02814
0.00326113
0.000693332
-0.000222903
-0.000726182
0.000255752
0.0379868
0.0126476
-0.00141976
-0.0492146
-0.0025191
0.0840858
-0.0854741
0.00390737
-0.0180985
0.0497655
-0.116089
0.0844219
0.0422531
0.00531376
-0.0530332
0.0423445
-9.14508e-05
-0.00233613
-0.0291246
0.0415307
-0.0100699
0.0708816
0.017104
-0.031458
-0.0565277
0.129804
-0.143127
-0.0287345
0.0420575
-0.0151754
-0.0453495
0.0581887
-0.0823664
-0.000604368
0.0829707
0.00110296
-0.0978866
0.163266
-0.066482
-0.00251893
0.00339611
-0.000609143
-0.000268039
0.0892753
-0.148484
0.0307274
0.0284817
0.00153302
-0.000387743
0.000878848
-0.00202413
-0.086968
0.142902
-0.10397
0.048036
0.0305366
0.00303554
-0.0407525
0.00718029
0.0865243
-0.0155577
-0.0813199
0.0103533
0.00571946
0.0314375
-0.0523323
0.0284332
0.0266757
-0.125938
0.0708294
0.0868457
0.113016
-0.0799448
-0.119917
0.00117763
0.000155929
-0.00201954
0.000685973
-0.0937793
-0.0291256
0.111353
0.0115524
0.00112584
-0.00605248
0.0159725
-0.0110459
-0.0139587
-0.0337434
0.057794
-0.0100919
-0.00553281
0.0170839
-0.0144167
0.0028656
0.000384688
-0.00068564
-0.000585264
0.000886216
0.0217707
-0.026049
-0.00125449
-0.00187162
-0.000703671
0.0015317
0.00104359
-0.0576052
0.0603605
-0.0027553
-0.00256374
-0.00627032
-0.00205226
0.0108863
-0.0365289
0.0281091
-0.0055389
0.0183373
-0.0472339
-0.0557965
-0.0513282
0.0415922
0.0983363
-0.0886003
-0.00760769
-0.0017473
0.00504562
0.00430937
0.0469279
0.0110143
0.00237338
-0.0603156
0.000424442
-0.00941362
0.00688388
0.0021053
-0.0397816
-0.0537075
0.0116365
0.0818525
0.0647072
-0.0388768
0.0266291
-0.0524595
-0.00972277
0.0599561
-0.0588579
0.0086246
-0.0588331
-0.0338765
0.00777552
0.0849341
0.0162739
0.00503234
-0.0330813
0.0117751
0.0610597
-0.0618353
0.000775665
0.00184954
0.00178905
-0.00150508
-0.0021335
0.0406318
-0.0434856
0.00285386
-0.0577907
-0.0343696
0.105777
-0.0136163
0.000850583
-0.00987265
0.00972943
-0.000707364
0.00288613
0.00595303
0.00267887
-0.011518
0.00182598
0.00641588
-0.00781741
-0.0247907
-0.0578673
-0.00888707
0.0915451
0.0259354
-0.00776204
0.0179557
-0.0361291
-0.0840021
0.092538
-0.101268
0.0927321
0.0794334
-0.0518482
-0.0275852
0.00154634
-0.0346145
-0.0101555
0.0432236
0.00829193
-0.0056114
-0.00941631
0.00673578
0.0466914
-0.0703949
-0.0620962
0.0857997
0.0740277
-0.0647096
0.0293623
-0.0386805
-0.0134978
-0.00824255
0.0321585
-0.0104181
-0.0581808
-0.0868013
0.0571604
0.0878218
-0.0416432
0.0543633
-0.0111738
0.0976974
-0.0482839
-0.0494135
-0.00450318
0.015264
-0.00246885
0.00100502
0.000681918
-0.000714471
-0.000972468
0.0473452
-0.0157995
-0.00524783
-0.0262979
0.00366181
-0.00189136
-0.000479868
-0.00129058
0.00543909
-0.0102076
0.00875539
-0.00398685
0.0724644
-0.0422581
0.0257107
-0.055917
0.0087912
-0.000372386
-0.00685786
-0.00156096
0.00167445
-0.000602265
-0.00107219
-0.0651769
0.0647492
0.000427715
0.0122423
0.00540517
-0.0968207
0.0791733
-0.0115855
0.0142814
-0.0103057
0.00760992
-0.0726518
0.0161472
0.0833492
-0.0268446
0.0182158
-0.0972539
0.0756349
0.00340319
-0.0527054
0.0431058
-0.00833982
0.0179394
0.00885607
-0.00181368
-0.00300917
-0.00403322
8.22575e-05
-0.000877242
0.000794985
0.0284922
0.170604
-0.245446
0.0463499
0.000319934
-0.000125802
-0.0247383
0.0602838
-0.0527585
0.017213
-2.23455e-05
0.00524389
-0.00444685
-0.000774692
0.000272519
0.0015992
-0.00209735
-0.0708926
0.000658279
0.0702343
-0.0323786
0.113779
-0.0477466
-0.0336542
0.000490244
0.000555182
0.00951111
-0.0105565
0.000618291
0.0908167
-0.0914349
0.00239245
-0.00163954
-0.00120906
0.000456146
0.0013693
0.000686929
-0.000703006
-0.00135322
-0.0366298
-0.0016198
0.0324004
0.0189209
-0.0638408
-0.0724628
-0.0163764
0.00665218
0.0821871
-0.000616855
0.00198615
-0.100044
-0.0420719
0.112803
0.0293134
0.0273185
0.170048
-0.0848426
-0.0576568
-0.0275491
-0.0181367
0.119097
-0.0434558
-0.0575043
0.0397472
0.0299726
0.0385425
-0.108262
0.104765
-0.248875
0.109426
0.0346835
0.00162823
-0.00145353
-0.00139287
0.00121817
-0.0122803
-0.0354916
0.0556609
-0.00788908
0.0257521
0.0403431
-0.0260776
-0.0400176
-0.0353556
-0.0258042
-0.0197667
0.0809264
-0.053369
-0.013931
0.0550197
0.0010402
-0.0121359
0.00899198
0.00210376
0.0553724
-0.0284443
-0.0508466
0.0239186
-0.0892916
0.105264
-0.0501026
0.0341299
0.0164818
-0.0232447
0.00695684
-0.000193867
0.0517863
-0.0600548
0.0636408
-0.0570853
-0.00349192
-0.0137611
0.0743383
-0.0053787
-0.0130134
0.00240743
0.0159846
0.000285584
0.0583159
-0.0578248
-0.000776609
0.135329
-0.053727
-0.00269053
-0.0789111
0.0594752
-0.00751732
-0.0484071
-0.00355073
0.0515985
-0.0212616
-0.0731765
0.0428396
-0.00987601
-0.00187758
0.0149819
-0.00322833
0.00537064
-0.0016398
-0.00478328
0.00105245
0.00253966
-0.0438411
0.0404381
0.00086333
-0.000823486
-0.0862272
0.00343693
0.0195623
-0.0129565
-0.0632177
0.0466601
0.0165576
-0.0595481
-0.0170396
0.0109807
0.0656069
-0.0996342
-0.000831499
0.103463
-0.00299726
0.00369522
0.023556
-0.0127266
-0.0145247
-0.0712843
0.149783
-0.0660012
-0.0124975
-0.00483607
0.0134287
0.0226024
-0.0311951
-0.0516772
0.0993321
0.0388613
-0.0865161
0.0288436
0.00178363
-0.0146453
-0.0159819
-0.0361301
0.0377622
0.000907573
-0.00476677
0.00734639
-0.009879
0.00729938
-0.000316087
-0.00452081
0.010276
0.035914
0.0379857
-0.0738996
0.00110365
-0.00189433
4.79162e-05
0.000742765
0.019602
0.00833127
-0.0189324
-0.00900094
0.0222112
0.0113914
-0.00213736
-0.0314653
-0.0521951
-0.00155678
0.00688166
0.0468702
-0.000148154
-0.0436929
-0.000966296
0.00056312
0.00150683
-0.0517621
0.0368843
0.0520209
-0.0371432
-0.0448869
0.0302408
0.0182066
-0.00356054
0.00133554
-0.00344524
-0.00989504
0.0120047
-0.00941803
-0.00507363
-0.00324359
0.0177353
-0.0434621
-0.00482738
0.0121593
0.072451
0.0396883
-0.0720452
-0.0400941
-0.0447715
-0.000412923
0.0451844
0.0861993
-0.0486777
0.0595787
0.00363047
-0.00770611
-0.0372932
0.0413688
0.0359565
0.0114034
-0.005467
-0.0418929
-0.000480782
0.000320258
0.0010124
-0.000851873
-0.0168337
-0.0449597
0.0617934
-0.000250767
-0.00133589
-0.00423212
0.0308751
-0.0230125
0.00615573
0.02788
-0.0417419
0.0979081
-0.0907011
-0.00201581
-0.00519123
-0.0214005
0.10127
-0.0186465
-0.0612226
-0.0323184
0.00681638
0.0145596
0.0109424
-0.0393165
0.0360587
0.0141408
-0.010883
0.0325682
-0.0251263
0.00134359
-0.00878548
0.0189331
0.0720571
-0.121683
0.030693
0.0762936
-0.0752647
-0.0243116
0.0232827
-0.143319
0.00211292
0.00367406
0.137532
0.0305604
0.0123297
-0.0412428
-0.00164727
0.039818
-0.0578581
0.0204085
-0.00236847
0.00212739
-0.00123356
0.000243086
-0.00113691
-0.0145858
-0.00116324
0.073397
-0.0416422
0.0188075
-0.0505623
-0.0118189
0.0477602
0.000406429
-0.0363478
0.00523288
0.0955672
-0.0929576
-0.00784248
0.0494257
-0.0989777
0.0581586
-0.00860665
-0.0483532
-0.000360984
0.0368953
0.0151434
-0.00364343
0.00864253
-0.0201425
-0.0234226
0.0477935
-0.0133123
-0.0110585
-0.048358
4.71036e-06
-0.00549748
-0.122865
0.175862
-0.0475004
0.0101666
0.00972696
-0.0635541
0.0436605
0.0495116
0.00550447
-0.0448494
-0.0128194
0.00673539
-0.00361317
0.00969722
-0.0563082
-0.000803475
0.0571117
0.110386
0.0444745
-0.136667
-0.0181929
-0.00922177
0.000346475
-0.00394415
0.0185296
-0.116133
-0.0224423
0.120045
0.0126183
0.0666084
-0.0694997
0.00286047
-0.0557852
-0.0106293
0.000504468
0.00190097
-0.00265621
0.00201843
-0.00180316
0.000289192
-0.0506594
0.0259382
0.0738987
-0.0491775
-0.00194045
0.000976979
0.000947849
-0.0342448
-0.00771558
0.0448208
0.000266262
-0.000305745
0.000349296
-0.000904935
0.000120405
0.000435234
0.000175027
0.00210967
-0.00178338
0.00142867
0.000124343
0.000230358
0.000420777
-0.000244242
0.00075896
0.10573
0.121403
-0.0794926
0.000121996
-0.000815631
0.00111441
-0.0529087
0.0528418
6.69311e-05
-0.0106117
0.0760822
-0.0713883
0.0059178
0.00178212
-0.0196056
0.00522918
0.0125943
-0.0603464
-0.003174
-0.0172155
0.00399011
0.0475854
-0.03436
-0.0636148
-0.00263021
0.066245
-0.00664907
-0.0167141
-0.0128078
0.0361709
0.00031509
-0.000376013
-0.00052027
0.000581194
-0.00397645
-0.00739999
0.00905463
0.00232182
0.0549849
0.0439061
-0.0175079
0.0481582
0.0894791
-0.0380941
-0.0995432
-0.0126932
-0.044372
-0.0195118
0.0189527
-0.0545605
0.0551196
-0.0109143
0.0291805
-0.00640597
-0.0118603
-0.0150812
-0.0135519
0.0135674
0.0150658
0.0970821
-0.0951136
0.0189761
-0.0209447
0.00113875
-0.00436839
-0.000389297
0.00361894
0.00111734
-0.0663143
0.065197
-0.0724833
0.00340422
0.0666229
0.00245615
0.0389974
0.0383487
-0.0773461
0.0190604
-0.0600962
0.0283426
0.00206257
-0.00118388
0.000541213
-0.0014199
0.000209222
-0.000285119
0.00128194
-0.00120605
-8.11404e-05
0.000431906
-0.000995745
0.000644979
0.0636285
0.0564937
-0.0389978
-0.0811244
0.00577715
-0.0869581
0.0824155
-0.00123458
-0.0136445
0.00046305
0.0265875
-0.0134061
0.0535729
-0.0527337
0.0190059
-0.0198451
-0.000522431
0.00137663
-0.000688718
-0.000165477
0.020345
0.0478583
-0.0491429
-0.0469957
-0.00173651
0.000940861
0.00153772
-0.000742074
0.00119237
0.0802143
-0.0814067
-0.0499518
-0.0152426
-0.0221808
0.0873752
-0.0499979
4.61403e-05
0.0116637
0.0167651
0.0167573
-0.0451861
0.000530705
-0.0027789
0.000376819
0.00187137
-0.00173618
-0.000611485
0.000611159
-0.1061
-0.00900638
-0.0429366
0.158043
-0.00973869
0.00708429
0.137239
-0.134585
-0.038504
0.0419543
-0.0647543
0.0613041
-0.0791345
0.0789412
0.000193358
0.00130805
-0.0500306
-0.0305138
0.0670643
0.0193955
-0.00597108
-0.0804887
0.0504847
0.0946266
-0.156777
0.0116655
0.041497
0.0159747
0.0331983
-0.09067
0.104147
-0.108496
0.0433461
-0.00355231
0.0131615
-0.0119198
0.00231069
-0.00168507
-5.86803e-05
-0.000640056
0.00238381
-0.00286829
-0.00562107
0.00169652
0.00679284
0.0607128
-0.00608881
-0.0182723
-0.0363517
-0.0567452
0.0282191
0.028526
-0.0926861
-0.00780728
0.0121634
0.000581055
-0.000530476
-0.00173565
-0.117898
0.0265786
0.00503389
0.0862856
0.00133983
-0.0536527
-0.0101307
0.0624436
0.0454697
0.0292288
-0.101381
0.0266829
0.0382478
-0.0436189
-0.0189334
0.0243046
0.0481837
-0.0601848
0.0502489
0.0312571
-0.0560221
0.0496033
-0.0248383
0.0346559
-0.0360123
0.000202273
0.00115419
0.0161592
-0.142007
0.0911183
0.0347291
0.0014102
-0.0616249
-0.0038057
0.052299
0.000344198
-0.107791
-0.0338518
-0.00878074
0.0067441
0.0358884
-0.0487064
0.0444112
0.0501131
-0.045818
-0.0425303
0.0823286
-0.0397983
0.0104835
-0.102095
0.0479929
-0.0169638
0.00754834
0.0245085
-0.0150931
-0.0884722
0.0937844
0.0364175
-0.0417297
0.0585327
0.0328084
-0.0828665
-0.0084746
-0.0464678
0.141596
0.00415116
-0.0992797
-0.000545123
0.00296852
0.00360745
-0.00603085
0.0536772
-0.0719933
0.0829303
-0.0646143
0.00808814
-0.0393184
-0.00827277
0.039503
-0.0434569
0.0314905
0.103086
-0.09112
-0.0499919
-0.0264457
0.0528794
0.0235583
-0.00972627
-0.000371305
0.0062301
0.00386747
-0.0106927
0.0228474
-0.0182874
0.00613276
0.000139316
0.0738387
-0.073978
0.0149066
-0.0441301
-0.0194829
0.0482754
-0.0341323
-0.000843544
-0.0132996
0.00145321
-0.0260818
-0.0205607
0.0451893
0.034657
-0.0345931
-6.39384e-05
0.061197
-0.0417131
0.0642855
-0.0837694
-0.0994814
0.0976805
0.098883
6.30103e-05
-0.0108602
-0.00177728
0.0125744
0.0495637
-0.00022276
3.12261e-05
0.000149255
4.22795e-05
-0.000381634
0.0479497
-0.110867
0.0632993
-0.00859259
-0.000609764
0.00497833
0.00422403
0.0268862
0.00996047
-0.0368467
0.00119999
-0.000949872
-0.00884271
-0.0334476
-0.0348917
0.0105486
0.0572414
0.000997193
-0.0582386
0.0728442
-0.0441346
-0.0511888
0.0224791
0.00160822
-0.0251494
-0.0207926
0.0693866
0.0430299
-0.0395722
-0.00803954
0.00930254
0.133655
-0.119542
0.0363034
-0.0504163
-0.0450175
0.0364929
0.0218911
-0.0133665
-0.0524878
0.0525582
-7.04222e-05
-0.0477786
0.029646
0.0107684
-0.0469352
-0.0108599
0.0470266
-0.0023665
0.160934
-0.1607
0.00213297
0.107646
0.0159426
-0.0160626
0.0507976
0.00861468
-0.0512448
-0.00816748
-0.014481
0.00468538
0.0106672
-0.000871548
-0.00955693
-0.00536205
0.00470689
0.0102121
0.0659198
-0.0375584
-0.0526109
0.0242494
0.0296459
-0.0155402
0.0240042
-0.0381099
0.026689
-0.0933942
0.0894594
-0.0227542
-0.00586687
0.000436833
-0.00905099
-0.0943696
0.107048
-0.0231295
0.0104506
-0.0114121
0.0480051
0.0139303
-0.0505233
-0.00422992
-0.000468716
0.00324564
0.001453
0.0838947
-0.00477236
0.0507142
-0.129837
4.51454e-05
-0.000700397
-1.39303e-05
0.000669182
-0.066792
0.0587405
0.0740821
-0.0660306
0.00341505
0.00092438
-0.0022864
-0.00205303
-0.0780132
0.0757393
0.00227391
0.0628892
-0.059655
-0.00323421
0.0605637
-0.000719059
-0.0598447
-0.010788
0.123554
-0.000617344
-0.112149
0.00992093
-0.0311542
0.032897
-0.023869
2.27233e-06
-0.0561965
-0.0676038
0.0116114
0.0664717
-0.0104793
-0.0132649
-0.00215893
0.000223865
-0.000537229
-7.71679e-05
0.000390532
0.00120459
-0.000111745
-0.000258229
-0.000834617
-0.0634403
0.00768775
-0.00142585
0.0571784
0.000394306
-0.00545877
0.0019082
0.00315626
0.0121679
-0.0146655
-2.29259e-05
0.00252048
0.0081981
-0.00675043
0.0107203
0.0556743
-0.00935241
-0.0227792
-0.0235426
0.0360821
-0.00530347
-0.0363207
0.0055421
0.000105134
0.0669822
-0.000307918
-0.0667794
0.00767275
-0.0717185
0.0192277
0.044818
-0.0430807
-0.0318108
0.0417281
0.0331634
-0.0353359
0.0212559
-0.0907745
0.104855
-0.000926627
0.0152158
-0.00782694
-0.00646227
0.0490961
-0.0589557
0.0473981
-0.0375385
-0.062525
-0.00680966
-0.00812833
0.000855677
-0.000241526
0.00434332
-0.00495747
-0.0120366
-0.00277295
0.00175196
0.0130576
-0.00812864
-0.0092724
0.0108095
0.00659151
-0.000138287
-0.00222453
0.00142904
0.000933775
-0.000355573
0.000445418
-8.98443e-05
0.00174966
-0.0732507
-0.027148
0.098649
-0.000149587
-5.24967e-05
-0.00143351
0.00163559
0.000117679
-0.000361352
-0.0001119
0.00228381
-0.0658986
-8.2148e-05
-9.51029e-05
0.000622669
0.0006185
0.000139722
-0.000395297
-0.000362926
-0.0281992
0.0635433
0.0781921
-0.113536
-0.00914343
-0.00222907
0.00725024
0.00412226
-0.0145742
-0.000283417
0.00571418
-0.00528075
0.00549324
0.0131313
-0.0133438
-0.000481576
0.000699471
-0.000300043
-0.0660361
0.0667375
-0.000701437
0.0303952
0.0470932
-0.0600292
-0.0174592
0.0114438
-0.0754764
-0.0212071
0.0852397
-0.0135225
0.00276792
0.00547382
-0.00456411
-0.00640736
-0.00255102
-0.0165694
0.058353
0.0129207
-0.0547043
0.0690583
0.00477275
-0.0537094
-0.0201217
0.000191664
0.00042288
-0.000760596
0.000146052
-0.000109183
-0.000254713
-0.00266343
-0.001177
-0.00132929
0.00516972
0.0650977
-0.0459317
0.0120468
-0.0312128
-0.000830674
-0.00268293
0.00139484
0.00211876
-0.0165019
0.00997712
-0.00334073
0.00986554
0.00162997
-0.101465
0.101112
-0.00127707
0.00311856
0.000780454
-0.0105591
0.00666006
0.0101826
-0.0107294
0.00159631
-0.00104957
0.00989482
0.00397371
-0.01075
0.036791
0.0562624
-0.0279557
-0.0272769
0.0548041
0.028192
-0.0557193
0.027754
-0.0550309
-0.000587006
0.000450868
-0.0331111
0.0124732
-0.0100468
0.0792165
0.0232888
0.00764726
0.0694702
-0.0542535
0.0980623
-0.113279
0.00481815
0.0926774
-0.0974956
-0.00694244
-0.00711998
0.0134861
0.000576356
-0.0343034
-0.0868668
0.0275162
0.093654
0.0219398
0.0616136
-0.0242586
-0.0592948
-0.0235239
0.113258
-0.0529433
-0.0418494
0.0448969
0.0517566
-0.0557733
0.055786
-1.26979e-05
-0.039058
0.0367181
0.00233985
0.0396971
-0.0781916
0.0728766
-0.0343821
0.0674268
-0.0839963
-0.00983765
-0.00810878
0.011004
0.000837886
0.000639095
-0.000562159
-0.000914822
-0.00574198
-0.0426144
-0.00741701
0.00125384
0.00146123
-0.0025884
-0.000126677
-0.0574132
0.0518748
0.0855292
-0.0799908
0.0356105
-0.0334302
-0.00218027
0.0118038
0.0172673
-0.0118553
-0.0172157
0.00420372
-0.000433822
0.00219837
-0.00596827
-0.0643724
-0.000569092
0.0200449
0.0448966
-0.00293031
0.00668332
0.000450703
0.0390379
-0.109401
0.10467
-0.0343067
0.0460062
0.0135456
-0.0593715
-0.000180326
-0.00364329
0.00696768
0.00166257
-0.00498695
0.000151902
0.0606118
-0.0607637
0.0379164
0.00638767
0.0151703
-0.0594744
0.00427304
-0.00732294
0.00261608
-0.183207
0.0279305
0.16274
-0.00746392
0.0396388
-0.0110234
-0.0286154
-0.00124243
-0.00152497
-0.00116051
0.00392791
-0.041985
0.0457164
0.124748
-0.12848
-0.00189176
0.000682706
-0.00195719
0.00316624
0.0916498
-0.00243956
-0.0432041
0.000495186
-0.00123774
0.00204936
-0.0013068
-0.0187435
-0.116379
0.0163052
0.118817
0.00380679
0.0523588
-0.0040925
-0.052073
0.0487338
-0.0703517
0.0605203
-0.0389024
0.0319751
-0.0365116
0.0485883
-0.0440518
0.00842406
-0.00167678
0.00579014
-0.0125374
0.00131625
-0.0443799
0.0532713
-0.0537033
-0.0360796
0.097335
0.0176832
-0.0244556
-0.0905626
0.0471153
0.0182353
-0.134258
0.0689071
-0.00181341
-0.0086507
0.00633985
0.00412426
0.0278769
-0.0500368
-0.00324312
0.0289451
-0.0267086
0.00736445
-0.00586131
8.36892e-05
-0.00158683
-0.0862947
0.00274608
-0.000343121
0.0719477
-0.149974
0.0783691
-0.0271608
-0.0875417
0.041217
0.0734855
-0.0726613
0.0205603
0.00301175
0.0490892
-0.04336
0.0290784
0.0104322
-0.0828089
0.09574
-0.0129311
-0.0210917
-0.00950058
0.117961
-0.0873691
-0.00359861
-0.00386966
0.00610232
0.00136594
-0.0258026
0.0591828
0.0406475
-0.0721686
0.028034
-0.000794855
-0.000414008
-0.00102762
0.00223649
0.046756
-0.0492653
0.0548083
-0.0377169
-0.00714605
-0.045016
-0.123934
0.0478503
0.0760837
-0.042921
-0.0325208
0.0276633
0.00306892
-0.00219136
0.000795036
-0.0016726
0.00281436
-0.000391446
0.000646006
-0.0863487
0.00357084
0.0827779
0.0614466
0.0130124
-0.122976
0.0485168
-0.071041
0.00037296
0.070668
0.00138312
-0.00173708
0.00834743
-0.00799347
0.048382
0.156266
-0.226363
0.021715
0.00184393
-0.00232023
0.00142687
-0.000950568
-0.0916429
0.0649401
0.0265328
0.000169957
-0.0013356
-0.000579615
0.00260881
-0.000693598
-0.000636542
0.00837102
-0.00847041
0.000735941
0.00781918
0.00789011
-0.0149354
-0.000773879
0.0408981
0.012512
0.00303964
-0.00276229
0.00156658
-0.0985482
0.10525
0.00747524
-0.0141768
0.012121
-0.0668055
-0.0231927
0.0778773
0.00216079
-0.00486239
0.0879133
-0.0852117
-0.0411478
-0.0369182
0.0869863
-0.00892027
-0.0407089
0.0246204
0.0405488
-0.0244604
0.053635
0.0206188
-0.0721323
-0.00212158
-0.00140548
0.000162252
0.00156715
-0.000323916
-0.123681
-0.0431132
0.0395496
0.127245
0.048469
-0.0377006
-0.0318135
-0.037624
-0.0309399
0.100377
-0.00187352
0.00428179
0.000413137
-0.0028214
-0.0310817
-0.0803096
0.0285098
0.0828816
-0.0296751
-0.0286527
0.0206109
-0.000772444
-0.00329244
-0.0016582
0.00320547
-0.00377858
0.00223131
-0.00579287
0.0056137
0.0253849
-0.0772507
-0.085279
0.137145
-0.000496621
-0.00020073
0.000366868
0.000330483
0.0572819
-0.0603113
0.0479781
-0.0449487
-0.0150526
0.0441591
-0.00763159
-0.0214749
0.0866786
-0.086178
-0.0186877
0.0181871
0.0265253
0.0224184
-0.0636003
0.0146566
-0.127283
0.0739153
0.0183131
0.0350548
-0.00530007
0.00313276
9.68852e-05
0.00207042
-0.00802015
0.00959553
-0.000192269
-0.0134638
-0.00372866
0.0180808
-0.000888319
-0.0622413
-0.00487288
0.0144202
0.052694
-0.00856232
0.103016
-0.00511082
-0.089343
0.0090764
-0.0472457
0.0806094
-0.0424401
-0.00153774
0.00418624
-0.00158346
-0.00106505
-0.015076
0.000306679
-0.0021627
0.016932
-0.106597
0.00409031
0.0133276
0.0891792
-1.72649e-05
-0.000312809
0.000595352
-0.000265279
0.0373423
0.00800479
0.027104
-0.00490752
0.0461754
0.052731
-0.093999
-0.000161744
0.000516729
-0.000372249
-0.000543506
0.00217708
-0.00147489
-0.000158686
0.0174534
0.110962
-0.0477606
-0.0806544
-0.000242166
-7.06427e-05
0.000167826
-0.000409992
0.0618534
0.0169664
-0.0921517
0.0133319
-0.157175
0.0860724
0.0771585
-0.00605633
-0.0181095
0.000201102
-0.0516779
0.0695864
0.0249476
-0.0147049
0.0168425
-0.0270852
-0.0664583
-0.0231453
0.0896037
-0.0780467
0.0385855
0.0394613
-0.00197094
-0.000341927
0.000575773
0.00173709
-0.0380331
0.0410911
0.0077134
-0.0107713
0.0465859
-0.0545231
0.00793724
-0.0606961
0.0337335
0.0450677
-0.018105
0.00452706
-0.00268122
-0.00167349
-0.000172349
-0.00324462
-0.00250921
0.000453769
-0.0422022
-0.0418
0.0466535
0.0141285
0.00258312
-0.0633652
0.00229878
-9.40773e-05
-0.00189766
-0.000307038
0.0041965
0.00386227
0.000193124
-0.0082519
0.00710093
0.0224857
-0.0405344
0.0109478
-0.0191042
-0.0154662
-0.00923684
0.0438073
-0.0755054
-0.0100166
0.0295871
0.0559349
-0.00178977
0.0150893
-0.00831356
-0.00498598
-0.0529956
0.000536185
0.0333552
-0.000153785
0.0252643
-0.135816
0.126276
-0.0157247
0.0286055
-0.0344956
-0.0517152
-0.0271126
0.0548666
-3.29838e-05
0.0402489
0.00333539
-0.0435513
-0.0551843
-0.0599605
0.115145
-0.00318039
-0.00102873
-0.00177278
0.00598191
0.0031796
-0.00476117
0.001704
-0.000122425
0.0366472
-0.00620615
-0.0280972
-0.0023438
-0.00325461
-0.00229311
0.00236733
0.00377107
-0.0110776
0.0660143
-0.0587078
0.0761608
-0.000232307
0.0276076
0.00958769
-0.00668997
-0.0305053
0.0585892
-0.000812373
-0.0577768
-0.0530381
0.113733
-0.0284231
0.0596925
0.020095
-0.0513644
-0.0162559
-0.0257529
0.0174596
0.0245492
0.00312683
0.00375816
0.000846927
-0.00773191
-0.0342068
-0.0379874
0.0993372
-0.027143
0.0445725
-0.0362511
-0.000355574
-0.00796585
-0.0503991
0.115637
-0.0506828
-0.0145554
-0.00139265
0.00167416
-0.000118124
-0.000163389
-0.000686409
0.0216141
-0.00476228
-0.0161654
0.00301061
0.00375776
0.000188386
-0.00695675
-0.000275465
-3.93577e-05
4.72456e-07
0.00031435
3.79859e-05
2.14973e-05
-0.000334948
-0.00907175
0.0230304
0.0702618
-0.0842205
0.0801905
-0.0804119
0.000221453
0.000304515
-0.00032361
1.90949e-05
-0.0127842
0.000970455
0.00229578
-0.00134563
-0.0019206
-0.0084927
-0.00548529
0.00646034
0.00751765
-0.0557595
0.0273364
0.000266315
0.000256081
-0.000798729
0.000276333
0.0336927
0.0548826
-0.0349746
-0.0536006
0.0119666
0.159108
-0.179732
0.00865685
0.0583044
0.0633158
-0.0619277
0.00198508
-0.0134901
-0.00178984
0.0132948
-0.0334043
-0.0301127
0.063517
0.0311187
-0.064523
-0.0542904
-0.0447665
-0.0654872
0.164544
0.0499488
-0.0558176
0.00586884
-0.0725715
0.134498
-0.0712786
0.0329976
-0.0301395
0.0858194
-0.00363037
-0.068926
-0.0132631
0.0699869
-0.0704565
0.0113729
-0.0109034
6.23472e-05
-0.0062206
0.00728921
-0.00113096
0.00125528
-0.00498143
0.00672181
-0.00299565
-0.000226617
0.00019151
0.000690082
-0.000654975
0.0223181
0.0232133
-0.0339277
-0.0116036
-0.00534637
-0.00503411
0.0062331
0.00414737
-0.0107584
0.032091
-0.0429991
0.0216665
0.00110206
-0.00860736
0.0108262
-0.00332093
0.0486094
-0.00415718
-0.0444522
0.0380559
0.0357193
-0.126565
0.0527899
-0.0978994
0.059978
0.0759773
0.0329842
-0.0997649
-0.0469057
0.107896
-0.0370933
-0.0238966
0.00166449
0.00908586
-0.0124028
0.00165243
0.0276885
-0.00265661
-0.0250319
-0.0305188
0.043591
-0.00374655
0.0201857
-0.0315204
0.00100517
-0.000166894
0.00106996
-0.00190823
0.0117254
-0.038434
-0.000818468
0.000197969
0.000410792
0.000209708
0.0027617
-0.000367543
0.00104245
-0.0034366
-0.000850946
-0.00236218
-0.0782599
-0.0128072
0.00142793
-0.011892
0.0232713
0.0201897
-0.090367
0.0205877
0.0495895
-0.00331086
0.0580071
-0.0819059
0.0272096
0.000890392
-0.000572899
0.000566087
-0.00088358
0.0792155
0.0125897
0.00228399
-0.0940892
-0.000587651
-0.000798098
0.00161324
-0.000227486
0.00490379
-0.000973048
-0.069205
0.0652743
0.0065768
-0.00104809
-0.00493332
-0.000595399
0.0064308
0.00457113
-0.00361682
-0.0073851
-0.110405
0.0964356
-0.0875549
0.101524
-0.0543719
0.10966
-0.0552883
0.00223094
-0.0438024
0.00885098
0.0327205
0.00368551
-0.00353286
0.000721035
-0.000873692
0.0493777
-0.00291095
0.00129348
-0.129657
0.00265106
0.0739679
-0.0337999
5.65856e-05
0.00106636
0.0315587
-0.0253208
-0.00730425
0.0781823
-0.0307743
0.034209
0.00409206
-0.0050556
0.00014146
0.000822081
0.0340219
0.0235443
-0.0752489
0.0176828
-7.92709e-06
-0.0001046
5.0381e-05
6.21462e-05
-0.000444293
0.00149645
0.00537864
0.000221979
-0.00798893
0.00643905
0.00564194
0.0746237
0.0407489
-0.0370568
-0.0783158
-0.131249
0.141255
-0.00882987
-0.00117676
0.0315561
-0.0325605
0.00100438
-0.0364507
-2.16363e-05
0.000332384
-0.00316242
-0.00222557
0.0146976
0.206727
-0.158941
-0.0624835
0.0292819
-0.061008
-0.0178882
0.0496142
-0.00308543
0.0391261
-0.000925827
-0.0855112
0.0473109
-0.0230245
0.0101181
-0.0380579
0.0476001
0.0463599
-0.055902
-0.0667501
0.0889707
-0.151463
0.129243
-0.000194609
5.62102e-05
-0.00145293
0.00159133
0.000193429
0.00229495
-0.000630108
-0.00185827
0.0436205
-0.0148581
0.0384115
-0.067174
-0.0035487
0.000333496
0.00341413
-0.000198926
-0.011912
0.0106901
-0.036836
0.0120913
-0.0463338
0.0059338
-0.00322656
0.0184377
-0.021145
-0.135931
0.0183618
0.128169
-0.0105999
0.0339651
-0.0231453
-0.0161991
0.00537927
0.0344664
-0.0530437
0.00666531
0.00459288
0.00753691
0.051903
-0.0640328
0.0246882
-0.00707007
-0.0250846
0.00746643
-0.079224
-0.00860842
0.0151806
0.00124463
-0.00110511
5.39053e-05
7.89681e-05
0.00235643
0.0015027
-0.0039381
0.0183805
-0.0320262
0.038334
0.0179797
-0.143365
-0.0229295
0.148315
-0.112851
-0.0150116
0.0257801
0.102082
0.0571731
-0.0354392
0.0290361
-0.0507699
0.110984
-0.00608895
0.00341283
-0.108308
-0.0169547
-0.0369769
-0.00415405
-0.0162034
0.00805539
0.0123021
-0.00134638
0.000487086
5.49123e-05
0.000804381
0.0152934
-0.0774776
0.0621842
0.108774
-0.00718965
-0.112373
-0.0263557
0.0557223
-0.0463213
0.0398634
-0.122196
0.0149066
0.0674257
-0.00398889
-0.0123108
-0.0269792
0.0432788
0.00391656
0.0496692
0.0850872
-0.132766
-0.00199048
0.0491884
-0.0829551
0.0891444
-0.0553777
-0.0961113
0.095775
-0.00712122
0.00745747
0.00212272
0.0045001
-0.0945113
0.0878885
-0.0017312
0.00362059
0.00608149
-0.00797087
0.000241774
-0.000955811
-0.000289225
0.00100326
0.0888459
0.000809854
-0.0175539
-0.0721018
-0.000790777
0.000751559
-5.81462e-05
9.73637e-05
0.000844901
0.00331878