/*--------------------------------*- C++ -*----------------------------------*\
| =========                 |                                                 |
| \\      /  F ield         | OpenFOAM: The Open Source CFD Toolbox           |
|  \\    /   O peration     | Version:  2506                                  |
|   \\  /    A nd           | Website:  www.openfoam.com                      |
|    \\/     M anipulation  |                                                 |
\*---------------------------------------------------------------------------*/
FoamFile
{
    version     2.0;
    format      ascii;
    arch        "LSB;label=32;scalar=64";
    class       volScalarField;
    location    "0.0817875";
    object      k;
}
// * * * * * * * * * * * * * * * * * * * * * * * * * * * * * * * * * * * * * //

dimensions      [0 2 -2 0 0 0 0];

internalField   nonuniform List<scalar> 
47425
(
0.280765
0.312998
0.298016
0.30498
0.448802
0.301068
0.406245
0.307891
0.366887
1.49185
0.317098
0.322513
0.3479
0.298613
0.291079
0.317043
0.294151
0.319422
1.06626
0.508025
0.303587
0.29017
0.30433
0.29848
0.29483
0.280978
0.282948
0.796367
0.280946
0.285481
0.296149
0.316263
0.356124
0.284685
0.277183
0.296759
0.288196
0.363339
0.291139
0.300365
0.34749
0.661211
1.057
0.3784
1.66286
0.327986
0.316949
0.350647
0.28877
0.282094
0.750569
0.592494
0.280798
0.845542
0.354604
0.353664
0.283083
0.283591
0.386437
0.29348
0.816159
0.838927
0.906643
0.306085
0.364462
0.285749
0.341103
0.347988
0.833446
0.297949
0.290872
0.277046
0.280182
0.296703
0.944461
0.368709
0.971119
0.294631
0.836519
0.504163
0.928377
0.298043
0.293121
0.348596
0.333724
0.302773
0.277355
0.275128
0.500276
0.561931
0.292426
0.324943
0.283462
0.364392
0.375726
0.358584
0.282925
0.284066
0.298324
0.347403
0.334384
0.408353
0.293585
0.426075
0.28671
0.353838
0.297308
0.308575
0.455583
0.307909
1.35278
0.318819
0.409255
0.34341
0.310271
0.781516
0.305837
0.604548
0.322568
0.3163
0.309289
0.362698
0.342907
0.329265
0.338665
0.374189
0.306099
0.364887
0.344368
0.284032
0.292457
0.311045
0.474076
0.333661
0.543744
0.328472
0.293785
0.379822
0.295636
0.294146
0.354005
0.341802
0.31744
0.439885
0.313479
0.366223
0.415825
0.339863
0.348726
0.361577
0.443696
0.766725
0.360297
0.769944
0.311964
0.306483
0.320643
0.893131
0.333151
0.310863
0.317089
0.281518
0.276436
0.29439
0.735846
0.809642
0.337779
0.934071
0.32533
0.850992
1.11776
0.332949
0.353841
0.300009
0.329522
0.357586
0.815167
0.279581
0.281999
0.284006
0.817928
0.275868
0.279264
0.281653
0.282715
0.336724
0.294968
0.394256
0.340319
0.282578
0.357975
0.285661
0.393296
0.365297
0.283004
0.298798
0.360532
0.305943
0.311817
0.276852
0.317838
0.361157
0.401887
0.300329
0.314937
0.371096
0.278817
0.296087
0.346669
0.361897
0.283069
0.289724
0.352101
0.302671
0.289224
0.286971
0.294395
0.573656
0.318014
0.353024
0.506493
0.279391
0.586326
0.288631
0.391347
0.487904
0.28347
0.303412
0.331931
0.36536
0.294823
0.298938
0.325158
0.36937
0.359501
0.307586
0.54507
0.316429
0.508307
0.357948
0.327043
0.277587
0.281706
0.289972
0.286824
0.362565
0.292716
0.35755
0.281173
0.291464
0.283992
0.479326
0.290357
0.365695
0.30066
0.283019
0.29274
0.354777
0.2943
0.357613
0.37158
0.352132
0.302531
0.35297
0.356107
0.339044
0.284044
0.353998
0.284063
0.315088
0.307132
0.497036
0.546612
0.285029
0.486389
0.365357
0.488367
0.426162
0.531642
0.51251
0.822524
0.277775
0.872212
0.35208
0.297666
0.290508
0.341236
0.310319
0.352294
0.326015
0.74168
0.300483
0.371308
0.284227
0.294161
0.309721
0.302969
0.287642
0.309926
0.340993
0.315496
0.279011
0.310209
0.287914
0.862657
0.802711
0.752924
0.282727
0.280956
0.288489
0.304756
0.76114
0.307213
0.317211
0.557126
0.323063
0.334991
0.363442
0.303938
0.637945
0.526114
0.296494
0.300214
0.277845
0.319645
0.282566
0.301979
0.280895
0.281441
0.286869
0.289837
0.972246
0.307236
0.289735
0.383804
0.283319
0.900417
0.311497
0.278885
0.287176
0.294972
0.295109
0.27887
0.292863
0.275549
0.286303
0.285545
0.290839
0.292548
0.319356
0.297031
0.285029
0.305446
0.295479
0.299271
0.319474
0.30727
0.293319
0.300213
0.360265
0.329344
0.317717
0.303622
0.304931
0.285963
0.304639
0.356147
0.358444
0.316703
0.294521
0.34819
1.12105
0.28942
0.297322
0.385664
0.295774
0.43753
0.355974
0.364436
0.288564
0.357607
0.295877
0.282821
0.355244
0.330944
0.364513
0.30402
0.292339
0.349718
0.30248
0.298865
0.300276
0.30953
0.2886
0.288993
0.297076
0.316983
0.300983
0.376875
0.280108
0.606885
0.281161
0.98427
0.311397
0.350378
0.337242
0.283063
0.338161
0.281934
0.3165
0.297648
0.544192
0.809354
0.280771
0.315397
0.296186
0.296027
0.303739
0.293242
0.292976
0.346785
0.308192
0.284211
0.298636
0.304614
0.282963
0.426762
0.294417
0.298382
0.468749
0.410168
0.291278
0.589972
0.43107
0.346096
0.41994
0.692021
0.283234
0.294542
0.295485
0.294431
0.638751
0.311958
0.279345
0.284541
0.299728
0.300259
0.306302
0.286918
0.673556
0.620464
0.480969
0.35638
0.375184
0.463201
0.28301
0.295746
0.335993
0.295133
0.355173
0.363124
0.377802
0.29464
0.369613
0.297705
0.295038
0.315166
0.29964
0.29822
0.294665
0.348576
0.357669
0.367489
0.316579
0.306739
0.327954
0.295949
0.792398
0.360587
0.375411
0.34493
0.32932
0.713051
0.311195
0.281665
0.313932
0.350142
0.327018
0.311567
0.326168
0.285504
0.306148
0.281808
0.308541
0.419541
0.279212
0.326346
0.316943
0.33765
0.280799
0.282273
0.283038
0.290918
0.291711
0.311238
0.290031
0.283547
0.287575
0.305873
0.306015
0.319871
0.309159
0.282987
0.301979
0.27437
0.281635
0.291288
0.315677
0.310515
0.31504
0.363305
0.375393
0.72235
0.297389
0.290867
0.324924
0.365735
0.433031
0.434912
0.319896
0.287177
0.325776
0.415552
0.316462
0.441645
0.362381
1.36137
0.323349
0.324965
0.285899
0.434021
0.284316
0.291305
0.296775
0.353218
0.282541
0.277021
1.01207
0.285949
0.339372
0.283242
0.415071
0.276233
0.285321
0.397027
0.385294
0.298446
0.280882
0.270407
0.280684
0.297516
0.280492
0.28064
0.279056
0.356901
0.431672
0.299305
0.31244
0.298232
0.28314
0.502412
0.293285
0.319368
0.187409
0.296658
0.28354
0.250288
0.732539
0.298896
0.197109
0.217925
0.28307
0.346965
0.278645
0.287138
0.361989
0.320924
0.931488
0.292918
0.324452
0.280872
0.437773
0.352069
0.369484
0.303325
0.729237
1.98529
0.292193
0.310546
0.33263
0.30115
0.350704
0.362074
0.318113
0.315018
0.378947
0.283832
0.359122
0.450823
0.320956
0.291317
0.455973
0.33099
0.293319
0.307502
0.326277
0.284361
0.361918
0.346641
0.336233
0.343291
0.287256
0.296424
0.936766
0.299607
0.380069
0.818862
0.780227
0.284545
0.351456
0.69412
0.332693
0.397028
0.773847
0.376793
0.751055
0.282211
0.28015
0.354827
0.489532
0.381506
0.375568
0.278745
0.359286
0.28688
0.304607
0.277316
0.326131
0.297062
0.787026
0.673217
0.321947
0.315926
0.3303
0.29877
0.374376
0.351686
0.352409
0.360588
0.342624
0.300547
0.320527
0.354473
0.286846
0.3613
0.344522
0.917562
0.541258
0.321438
0.292969
0.35385
0.28248
0.884348
0.293424
1.28975
0.336562
0.423671
0.325936
0.305821
0.315578
0.28322
0.334777
0.295541
0.278971
0.384523
0.363319
0.368556
0.369148
0.348594
0.943781
0.326272
0.367011
0.350696
0.363677
0.283227
0.333582
0.314387
0.36773
0.341382
0.305765
0.338946
0.302977
0.320417
0.294712
0.290132
0.451706
0.522057
0.289938
0.416411
0.288787
0.307997
0.29537
0.282786
0.658298
0.278403
0.301121
0.297778
0.280914
0.631738
0.909601
0.300902
0.333952
0.283746
0.327858
0.279838
0.307905
0.309091
0.518718
0.307484
0.282646
0.30044
0.285192
0.298093
0.292297
0.277764
0.301192
0.283086
0.278591
0.307278
0.514783
0.281846
0.261368
0.599498
0.534116
0.284532
0.310973
0.80564
0.337458
0.315758
0.477062
0.250188
0.782282
0.32102
0.287096
0.43961
0.319995
0.532566
0.301297
0.330842
0.286081
0.287486
0.413804
0.341897
0.300826
0.324564
0.349863
0.354318
0.34833
0.37843
0.462925
0.441568
0.746747
0.8693
0.821599
0.580982
0.609299
0.363099
0.349185
0.288975
0.282221
0.325939
0.304558
0.312227
0.32159
0.336711
0.284155
0.327625
0.366965
0.284098
0.367817
0.310913
0.282903
0.352474
0.283435
0.289072
0.293191
0.329722
0.400834
0.2861
0.283181
0.28997
0.346236
0.337055
0.490882
0.412478
0.282438
0.326989
0.278023
0.285397
0.287892
0.330562
0.344726
0.424244
0.299702
0.28815
0.29145
0.375297
0.886047
0.299718
0.299681
0.372612
0.326811
0.342931
0.321891
0.308093
0.3768
2.23162
0.418859
0.856405
0.366857
0.370676
0.277867
0.379059
0.288311
0.318168
0.316615
0.290097
1.58765
0.405398
0.342708
0.59341
0.347183
0.27583
0.304629
0.38027
0.289316
0.326384
0.204592
0.286332
0.366591
0.359286
0.379544
0.690242
0.361325
0.346682
0.465436
0.290396
0.291105
0.414238
0.502067
0.316486
0.386299
0.42008
0.32009
0.297125
0.287292
0.311096
0.342156
0.340688
4.04221
0.649683
0.344949
0.521677
0.49637
1.08384
1.99644
0.481142
0.351304
0.360762
0.373541
0.350188
2.62572
0.288884
0.310843
0.372763
0.237947
0.313881
0.368848
0.345933
0.283408
0.372514
0.444933
0.363484
1.30837
0.279382
0.360079
0.376584
0.365703
0.357266
0.349851
0.37481
0.426266
0.325744
0.342982
0.436771
0.305236
0.292155
0.317641
0.394459
0.285211
0.390446
0.355503
0.346834
0.614569
0.848336
0.286245
0.3635
0.299768
0.36189
0.352627
0.629808
0.527602
1.22895
0.291432
0.344388
0.306595
0.886811
0.301497
1.76028
0.393237
0.37353
0.462296
0.552264
0.307818
0.291347
0.294518
0.304068
0.435066
0.30354
0.377728
1.22815
0.360379
0.283936
0.288812
0.644458
1.08473
0.480276
0.521082
0.906115
0.387803
0.336824
0.367331
0.297386
0.443028
0.356556
0.372912
0.993791
0.308409
0.285708
0.291305
0.35711
0.363967
0.366634
0.31313
0.29657
0.436905
0.289524
0.317914
0.289076
0.352838
0.350182
0.356842
0.322704
0.313911
0.296241
0.364557
0.295941
0.300684
0.310821
0.297934
0.353295
0.422086
0.3266
0.348262
0.290837
1.58586
0.36943
0.353559
0.318999
0.89098
0.685162
1.1646
0.331897
0.322794
0.313388
0.718797
0.360033
0.31791
0.355318
0.344121
0.363579
0.880775
0.352009
0.296477
0.348499
0.333987
0.279956
0.548008
0.976964
0.298505
0.971085
0.328701
0.623263
0.53877
0.299959
0.332685
0.361381
0.597639
0.326989
0.316189
0.315701
0.699356
0.4785
0.591013
0.303176
0.315028
0.286341
0.297838
1.46671
1.41525
0.330868
0.339337
0.368448
0.824796
0.290771
0.281746
2.26392
1.3014
0.355633
0.295473
0.847396
1.42462
1.1421
0.361875
0.762199
1.36692
0.906598
0.310581
0.417399
0.415144
0.313114
0.319123
1.48118
1.25204
0.335849
0.345812
0.345104
0.29838
0.317056
0.317754
0.445761
0.327115
0.366938
0.288356
0.368759
1.35477
0.957055
0.299884
0.539039
0.414414
0.309358
0.475493
0.281834
0.327389
0.297373
0.31749
0.378226
0.287948
0.73526
0.293561
0.818141
0.56817
0.951134
0.394099
0.422354
0.325248
0.348488
0.338463
0.519418
1.05466
0.347551
1.02882
0.47973
0.722763
0.445535
0.840355
0.657007
0.310049
0.346717
0.949676
0.336096
0.292219
0.296131
0.773242
0.685356
0.298255
0.314023
0.608573
0.377762
0.972061
0.76832
0.344292
0.427345
1.01206
0.341129
0.304237
0.850387
0.294946
0.819197
0.778782
0.293192
0.288511
0.306816
0.284314
0.362278
0.298069
0.296782
0.35406
0.361777
0.444925
0.31592
0.302457
0.48208
1.62993
0.764656
0.332098
0.317673
0.527376
0.296853
0.96058
0.32778
0.329233
0.352926
1.96195
0.333514
1.98252
0.379277
0.473686
0.317547
0.73094
0.589134
0.61872
0.405129
0.510751
0.347954
0.363526
0.363922
0.561002
0.346912
0.433545
0.766685
0.388158
0.426008
0.878668
0.326923
0.297065
0.671303
1.44542
0.361855
0.317171
0.359331
0.379488
1.22939
0.99338
0.284161
0.302396
0.359141
0.786094
0.355932
0.551629
0.350653
0.346819
0.352533
0.451841
0.333019
0.571908
0.587199
0.324565
0.355786
0.411611
0.31004
0.870723
2.06378
0.318272
0.816722
0.832871
0.376772
0.778542
0.360611
0.341778
1.01477
0.344044
1.09016
3.14331
0.306308
0.347854
0.409488
0.365346
0.353175
0.368913
0.474665
0.374197
0.311277
0.367425
0.313109
0.674278
0.369741
0.336029
0.35817
0.557335
0.292934
0.798371
0.712031
0.339467
0.827726
1.8277
0.289208
0.436185
0.471094
0.345809
0.322423
0.489776
0.814123
0.468904
1.00239
0.294242
0.732575
0.429819
0.282179
0.35846
0.353513
0.463145
0.315995
0.36285
0.548918
0.282426
0.543567
0.344343
1.39616
0.365255
0.281763
0.346413
0.49463
0.33766
0.700479
0.41892
0.303232
0.647832
0.291105
0.320625
1.24393
0.281055
0.361972
0.6797
0.322004
0.86633
1.20502
0.35332
0.374153
0.289826
0.862121
0.506584
0.942858
0.757217
0.387522
0.320587
0.399389
0.953875
0.947338
1.11195
0.343846
0.357545
0.33503
0.301801
0.370049
0.691426
0.347281
0.330093
0.32399
0.285821
0.305804
0.353168
0.297591
0.348875
0.353862
0.39777
0.290479
0.349528
0.539647
0.30581
0.288308
0.360865
0.333165
0.3594
0.28532
0.319543
0.321247
0.299397
0.375959
0.568582
0.337117
0.301434
0.288625
0.283709
0.497647
0.303907
0.301648
0.538938
1.04551
0.680955
0.298671
0.525614
0.442223
0.365324
0.480978
0.396145
0.460571
0.350039
0.29904
0.345127
0.365729
0.294027
0.356674
0.368946
0.34121
0.297172
0.298201
0.347085
0.481017
0.338135
0.388281
0.795678
0.346487
0.65152
0.376713
0.843948
0.279136
0.350166
0.3301
0.286009
0.301339
0.365889
0.283609
1.32616
0.533442
0.769635
0.349353
0.873763
0.289639
0.31503
0.500893
0.297021
0.770979
0.395699
0.595756
0.328606
0.9605
0.926728
0.296269
0.282266
1.01718
0.304086
1.03506
0.318254
0.348595
0.295347
0.289368
0.290888
0.308578
0.322836
0.646244
0.376277
0.385346
0.315869
0.326708
0.28127
0.3552
1.37906
0.351343
1.48137
0.559808
0.293673
0.361574
0.313969
0.313948
0.309209
0.339198
0.334793
0.362906
0.319674
0.284908
0.324317
0.347759
1.29901
1.55567
0.322651
0.335024
2.04094
0.327241
0.28625
0.286518
0.283355
0.324886
0.362307
0.400062
0.377939
0.315098
0.2931
0.370936
0.280547
0.277429
0.300066
0.693146
0.385955
0.794983
0.72758
0.788975
0.29934
0.289613
0.285454
0.284136
0.285131
0.610478
0.310995
0.279264
0.304625
0.348301
0.29628
0.418928
0.29216
0.363837
0.424288
0.312483
0.28643
0.294088
0.314408
0.315892
0.293229
0.323033
0.308037
0.477535
0.308758
0.350194
0.385746
0.307597
0.311101
0.290412
0.315815
0.300124
0.349186
0.379924
0.288214
0.277505
0.302443
0.304131
0.293403
0.339523
0.283604
0.307315
0.290985
0.3028
0.812465
0.300509
0.39611
0.276647
0.287206
0.640098
0.301242
0.349023
0.282173
0.292314
0.33392
0.356391
0.717545
0.369028
1.56119
0.285694
0.293137
0.342704
0.283298
0.279442
0.376976
0.3155
0.27859
0.280555
0.838866
0.403381
0.631965
0.345899
0.510981
0.364168
0.291877
0.384271
1.3739
0.345139
0.298116
0.297171
0.753575
0.291482
0.302067
0.31435
0.312918
0.372844
0.743882
0.294804
0.308309
0.347459
0.310666
0.340202
0.864048
0.770138
0.292857
0.28656
0.283971
0.34063
0.323975
0.281046
0.760222
1.11969
0.288778
0.336153
0.808076
0.297807
1.35231
0.422835
0.282464
0.291533
0.288876
0.297976
0.551776
0.315132
0.313205
0.301081
0.337659
0.301966
0.361543
0.570733
0.362926
0.461905
0.471841
0.445525
0.545021
0.338147
0.38772
0.376389
0.379196
0.324978
0.302185
0.781547
0.547831
0.377901
0.337557
0.36054
0.331151
0.319141
0.250564
0.281549
0.281657
0.357061
0.349905
0.467642
0.391118
0.82079
0.679823
0.311789
0.377891
0.296457
0.298527
0.365123
0.286086
0.30675
0.285906
0.282701
0.240299
0.240703
0.282966
0.369346
0.632717
0.972446
0.324507
0.282225
0.446463
0.471789
0.795608
0.306397
0.78501
0.95734
0.910122
0.858976
0.375523
0.283639
0.280147
0.360613
0.822936
0.281316
0.372716
0.325009
0.283225
0.524324
0.479791
0.459943
0.313541
1.22618
0.282825
0.291869
0.319042
0.321136
0.594019
0.678559
0.347046
0.429765
0.323522
0.34668
0.307229
0.863885
0.353672
0.832458
0.371897
0.827181
0.352764
0.465632
0.587616
0.507647
0.380212
0.382691
0.659865
0.352514
0.353867
0.370153
0.359159
0.360715
0.340991
1.24537
0.525814
0.314595
0.554463
0.607813
0.54862
0.297056
0.289711
0.68187
0.621132
0.777019
0.300226
1.0754
0.294451
0.930487
0.617087
0.538837
0.664562
0.286367
0.338383
0.288493
0.326968
0.321483
0.490236
0.404501
0.287605
0.293552
0.346268
0.312279
0.283693
0.281941
0.44026
0.28444
0.279003
0.316804
0.390234
0.406465
0.316205
0.3494
0.354376
0.324314
0.511664
0.409713
0.297543
0.297119
0.460785
0.535124
0.302312
1.84926
0.326951
0.397118
0.880485
0.365621
0.302029
0.284166
0.467515
0.307475
0.27931
0.356428
0.303419
0.29154
0.304281
0.288271
0.322963
0.306088
0.315364
0.293942
0.345388
0.643964
0.295289
0.305773
0.298432
0.306878
0.394156
1.07877
0.306802
0.290522
0.313692
0.534484
0.26202
0.327629
0.313064
0.810565
0.335948
0.373064
0.357454
0.377465
0.331865
0.343207
0.306137
0.484377
0.36028
0.345971
1.1653
0.309582
0.378229
0.335814
0.325816
0.353479
0.390785
0.304522
0.336528
0.28878
0.328826
0.312983
0.334805
3.23979
0.29383
0.39079
0.375973
0.343909
0.620394
0.338684
0.628618
0.356962
0.537463
0.637962
0.318237
0.287113
0.390564
0.36407
0.320495
0.289755
0.750064
0.429985
0.34868
0.988495
0.609816
0.298985
0.465151
0.414536
1.25485
0.897598
0.369481
0.433184
0.459316
0.551581
0.449836
0.884034
0.222229
0.569995
0.307138
0.579397
0.357298
0.376027
0.371736
0.350306
0.317073
0.352493
0.567902
0.309322
0.352452
0.372606
0.471289
0.730822
0.39323
0.705759
0.327946
1.01556
0.373325
0.374643
0.814515
0.535983
0.672019
0.610904
0.604955
0.517846
0.406399
0.378444
0.318566
0.362895
0.355145
0.737814
0.33856
0.340747
0.300605
0.466165
0.347574
0.29445
0.818432
0.472434
0.482309
0.175116
0.39213
0.320573
0.340887
0.335686
0.358932
0.320764
0.276001
0.32385
0.374926
0.174456
0.167863
0.494419
0.332358
0.407253
0.391329
0.430252
0.365507
0.349273
0.337695
0.142488
0.343519
0.375228
0.148851
0.364442
0.818329
0.570126
0.325853
1.42087
0.3816
0.445324
1.12158
0.386144
0.369585
0.294099
0.572057
0.283663
0.289538
0.333571
0.357909
0.361558
0.32064
0.563439
0.353838
0.443638
0.299606
0.376462
0.359962
0.2822
1.88517
0.488934
1.00442
0.442622
0.291825
0.893105
0.458321
0.288214
2.29414
0.29019
0.285729
0.453531
0.436982
0.949719
0.922181
0.326163
0.649516
1.08471
0.375994
0.613106
0.95677
0.887634
2.00239
0.354135
0.330374
0.555661
0.62098
0.386447
0.92067
0.335814
0.309573
0.488921
0.335162
0.292148
0.369793
0.729313
0.669665
0.278962
0.480863
0.296095
0.379552
0.319942
0.376402
0.566454
0.401385
0.752831
0.351378
0.360678
0.706386
0.287811
0.298199
0.418116
0.290508
0.330563
1.07657
0.312481
0.856183
0.779946
0.788593
0.792326
0.376377
0.367111
0.284092
0.282154
0.39162
0.290212
0.300724
0.386502
0.299991
0.380805
0.901053
0.290195
0.493725
0.290468
0.440623
0.34419
0.813806
0.349773
0.433209
0.294685
0.31299
0.397336
0.288555
0.312048
0.303844
0.28588
0.490669
0.305921
0.355761
0.333751
0.298631
0.345665
0.319415
0.35673
0.869084
0.313477
0.298028
0.297345
0.360744
0.145279
0.593897
0.441502
0.645337
0.995499
0.239511
0.400244
0.0773498
0.205806
1.03303
0.379675
0.510607
0.269007
0.691008
0.656775
1.17214
0.333703
0.310229
0.512519
1.27809
0.31921
0.379068
0.42112
0.410476
0.383317
0.371926
0.90742
1.3895
0.191254
0.348839
0.156145
0.336297
1.2683
0.305477
0.333266
0.305702
0.295202
0.413455
0.304136
0.543718
0.422939
0.318308
0.371538
0.303161
0.506733
0.598784
0.305425
0.400508
0.33701
0.773383
0.420776
0.344699
0.497502
0.484277
0.2837
0.287063
0.343678
0.295425
0.651871
0.290257
0.404187
0.558822
0.309107
0.318258
0.304821
0.304053
0.57666
0.374738
0.483729
0.294949
0.300256
0.458153
0.592426
0.29763
0.323384
0.296422
0.293111
0.576875
0.41272
0.73756
0.316742
0.29378
0.407069
0.363557
0.320688
0.299434
0.357084
0.364024
0.503627
0.322964
1.9995
0.377585
0.377674
0.2926
0.360813
0.819979
0.954985
0.362379
0.795625
0.340268
0.972853
0.388297
0.66041
0.435316
0.50185
0.383901
0.309413
0.341887
0.383075
0.522385
0.344404
0.336867
0.914221
0.374529
1.67071
0.373238
0.319535
0.361425
0.551756
0.392284
0.291914
0.972376
0.289956
0.312925
0.291438
0.347758
0.710536
0.445684
0.326897
0.47291
0.345911
0.316262
0.300292
0.325639
0.384396
0.391663
0.374372
0.32604
0.318211
0.369233
0.318829
0.284653
0.359658
0.327679
5.89797
0.346872
0.423273
0.319423
0.368566
0.331521
0.38049
0.285441
0.343124
0.322342
0.320163
0.354132
0.780035
0.282547
0.785808
0.490862
0.391245
0.379798
0.323353
0.382509
0.411832
0.698125
0.299689
0.319208
0.323615
0.459006
0.346875
0.286683
1.20889
1.52642
0.629365
0.286576
0.292073
0.473338
0.352974
0.353595
0.462821
0.364427
0.310576
0.333743
1.5509
0.288894
0.524223
0.285606
0.30949
0.386487
0.30506
0.375227
0.419702
0.291627
0.550404
0.368121
0.36241
0.406742
0.904922
0.302532
0.35995
0.340956
0.364274
0.328616
0.33893
0.28442
0.276697
0.374465
0.547424
0.364158
0.33815
1.32228
0.3659
0.565787
0.358353
0.383028
0.362129
0.331971
0.760974
0.322292
0.482384
0.342464
0.355007
0.325277
0.360319
0.530549
0.421431
0.306286
0.584369
0.376929
0.614837
0.714154
1.46658
0.29622
0.41779
0.377687
0.243939
0.358344
0.249445
0.406439
0.222899
0.359144
0.804298
0.368442
0.580041
0.63107
0.337317
0.203673
0.418154
0.977275
0.478139
0.615498
2.07856
1.3921
0.69897
0.757854
0.295738
0.339447
0.711847
0.358294
0.916376
0.343574
0.758453
0.725675
0.313945
0.352533
0.311207
0.282053
0.341876
0.2836
0.670888
0.377943
0.348651
0.51378
0.309795
0.343927
0.291187
0.308994
0.338483
0.324751
0.377923
0.28339
0.377291
0.856982
0.29225
0.296623
0.322833
0.293123
0.81545
1.20445
0.366833
0.402768
0.49541
0.288485
0.277585
0.314944
0.329823
0.307695
0.313847
0.305182
0.29588
0.499271
0.299991
0.331615
0.30906
0.287626
0.289611
0.967086
0.304217
0.321228
0.305844
0.405071
0.345405
0.321597
0.625074
0.375331
0.309106
0.356607
0.336759
0.344083
0.381105
0.361622
0.299298
0.370985
0.352886
0.303897
0.320913
0.333617
0.408345
0.420653
0.309065
0.320367
0.36938
0.398196
0.440193
0.539486
0.905529
0.871481
0.322308
0.289528
1.09278
0.488806
0.520327
0.297836
0.28841
0.307981
0.282876
0.303915
0.290215
0.294299
0.317447
0.29264
0.297276
0.298541
0.296495
0.288027
0.508736
0.341173
0.320035
0.298521
0.307022
0.569493
0.290855
0.297845
0.374995
1.0266
0.492423
0.374181
0.362234
0.295329
0.327916
0.43839
0.615794
0.364853
0.305822
0.355484
0.305981
0.309218
0.33362
0.398864
0.346673
0.303545
0.364493
0.384611
0.568858
0.359001
0.727984
0.552403
0.368456
0.362712
0.310811
0.315791
0.358266
0.281615
0.308139
0.559274
0.298323
0.328274
0.686288
0.334719
0.354872
0.428539
0.356417
0.301746
0.335372
0.294336
0.330351
0.690404
0.338331
0.396735
4.42532
0.544943
0.956279
0.787561
0.308287
0.311226
0.484531
0.290109
0.51161
0.456151
0.649058
0.369858
0.2858
0.771926
0.285483
0.500931
0.382222
0.303157
0.675432
0.891184
0.287155
0.293698
0.835969
0.286277
0.295316
0.294478
0.287884
0.34047
0.541366
0.542477
0.315813
0.756268
0.309789
0.307526
0.305102
0.814593
0.31032
0.852581
0.289324
0.328034
0.292539
0.395688
0.334779
0.462258
0.29283
0.642498
0.440394
0.443076
0.658429
0.314205
0.308214
0.916376
0.414068
0.322732
0.388166
0.836166
0.314468
0.394715
0.319285
0.549748
0.371612
0.295701
0.286928
0.423541
0.304035
0.355956
0.320395
0.288284
0.313209
0.295516
0.297805
0.326156
0.750995
0.311552
0.297181
0.296248
0.307493
0.310749
0.343424
0.283286
0.356617
0.408358
0.377208
0.36992
0.30313
0.392804
0.298002
0.351698
0.906927
0.419747
0.69548
0.307544
3.08421
0.333352
0.469596
0.364948
0.290097
0.372198
0.295932
0.296478
0.333126
0.34669
0.277725
0.303318
0.286433
0.616602
0.286078
0.303056
0.338009
0.690136
0.12691
0.307333
0.752253
0.83978
0.559447
0.530448
0.808419
0.128572
0.375288
0.178415
0.332749
0.462603
3.51734
0.402596
0.347198
0.28436
0.289236
0.720562
0.318877
0.401526
0.734575
0.360959
0.577353
0.349782
0.553125
0.295241
0.353241
0.336463
0.283345
0.372553
0.279393
0.327401
1.04008
0.951837
1.08474
0.417973
0.886879
0.302334
0.280522
0.292267
0.353359
0.287011
0.339389
0.29451
0.379772
0.366881
0.286461
0.292377
0.350809
0.287272
0.3149
0.34533
0.310974
0.343021
0.460995
0.307049
0.339352
0.782522
0.337715
0.738251
0.759302
0.332927
0.371979
0.289597
0.437844
0.323027
0.337616
0.710241
0.290388
0.346656
0.321366
0.3322
0.301272
0.298833
0.451944
0.476425
0.3755
0.325411
0.756658
0.348538
0.606947
0.558915
0.360507
0.894493
0.414075
0.343055
0.315593
0.351536
0.357695
0.320968
0.289859
0.328299
0.167084
0.546488
0.176602
0.298108
0.326915
0.394563
0.144476
1.0277
0.335552
0.36261
0.359824
0.159852
0.364207
0.941031
2.53686
0.34964
0.295286
0.365539
0.477071
0.299576
0.342987
0.3661
0.301786
0.349795
0.309807
0.723718
0.324648
1.59364
0.386097
0.841636
0.334596
1.70878
0.968405
0.866517
0.314647
0.32881
0.410289
0.360675
0.300251
0.354826
0.312913
0.773905
0.288614
0.425826
0.630527
0.287335
0.288951
0.302185
0.317759
0.33766
0.360466
0.356591
0.377252
0.371666
0.31366
0.383151
0.31866
0.415603
0.312147
0.355372
0.291655
2.61539
1.32884
0.349427
0.41476
0.281667
1.76816
0.282772
0.284125
0.344962
0.282161
0.363457
0.347079
0.277887
0.278885
0.334873
1.82708
0.547938
0.370891
0.76605
0.288904
0.361219
0.313581
0.35956
0.759451
0.36995
0.778551
0.278599
0.309471
0.736673
0.825171
0.314117
0.321897
0.581826
0.377036
0.327823
0.445221
0.353127
0.357146
0.378415
0.360355
0.277283
0.371526
0.34295
0.437931
0.28862
0.349811
0.283262
0.320944
0.802016
0.780279
0.301578
0.431907
0.313806
0.344204
0.304352
0.491417
0.30277
0.315638
0.330712
0.336377
0.403941
0.363122
0.444799
0.337065
0.281928
0.3226
0.290127
0.34503
0.288483
0.480332
0.413231
0.318406
0.564751
0.317657
0.285928
0.343153
0.29031
0.36271
0.584866
0.307998
0.392383
0.359121
1.06422
0.361679
0.344298
0.365092
0.671486
0.36605
0.490423
0.341211
0.368454
0.452752
0.379772
0.349348
0.753735
0.41381
0.363187
0.308627
0.295462
0.50294
0.30946
0.897978
1.40167
0.375887
0.386776
0.357432
0.438313
0.408345
0.349517
0.789506
0.438297
0.598621
0.291225
0.383025
1.13026
0.444378
0.321449
0.429956
0.30262
1.14349
0.350502
0.356531
0.303289
0.284621
0.291477
0.323115
0.292272
4.66016
0.289035
0.61716
0.285087
0.388497
0.349134
0.483339
0.321652
0.326647
0.313333
0.641683
0.427563
0.463285
0.295702
0.294048
0.414478
0.338562
0.325463
0.289786
0.286926
0.284872
0.308418
0.284806
0.344046
0.289232
0.521095
0.393633
1.24583
0.711331
0.535465
0.512614
0.355083
0.362614
0.283907
0.538042
0.30016
0.30547
0.299939
0.420244
0.453719
0.301041
0.383246
0.729512
0.451606
0.290464
0.292561
1.68668
0.760979
0.349747
0.80419
0.806294
0.586201
0.718484
0.521827
0.701501
0.368847
0.577696
0.708978
0.286599
0.294392
0.280207
0.434159
0.563816
0.303178
0.286447
0.366482
0.332493
0.376507
0.720349
0.439181
0.924685
0.337633
0.294682
0.31139
0.294814
0.330306
0.697646
1.00481
0.835206
0.72852
0.31435
1.26691
0.558996
0.307743
0.499462
0.434528
0.717372
0.365747
0.438986
0.71579
0.714545
0.436002
0.82308
0.459959
0.792112
0.353501
0.307252
0.368073
1.115
0.730303
0.355183
0.310526
0.504628
0.405869
0.541587
0.327192
0.347571
1.09222
1.17327
0.180989
0.360255
0.173472
0.288581
0.176595
0.339498
0.428633
0.549157
0.158465
0.396356
0.45746
0.122705
0.423596
1.28915
0.374508
0.345203
0.790717
0.302881
0.452585
0.294507
0.283007
0.299334
0.307482
0.821027
0.649854
2.1407
0.353839
0.352992
0.594359
0.340024
0.394004
0.371855
0.32792
0.306642
0.540643
0.379922
0.388995
0.296376
0.382793
0.367562
0.693366
0.422133
0.751904
0.930631
0.718907
0.373698
0.364582
0.702579
0.237385
0.500866
0.327293
0.351167
0.295596
0.752758
0.585094
0.642304
0.681203
0.56313
0.2901
0.390573
0.836442
0.760902
0.352041
0.355761
0.418701
1.72846
0.318769
0.291091
0.361704
0.318394
0.813931
0.330045
0.559089
0.683769
1.05975
2.03377
0.495166
0.413503
0.758282
1.18798
0.818694
0.534977
0.811778
0.90603
0.48264
0.343035
0.408422
0.356454
0.278926
0.302568
0.388231
0.468612
1.84087
0.343023
0.386367
0.40184
0.371377
0.432498
0.518928
0.445426
0.359588
0.375937
1.04522
1.02843
0.155785
0.361946
0.316311
0.33673
1.53526
0.831694
0.366048
0.58187
0.306884
0.396124
0.47948
0.514366
0.307463
0.306671
0.303882
0.356692
0.876726
0.418583
0.326775
0.706399
0.292976
0.913352
0.682463
0.432469
0.66544
0.335809
0.289301
0.311746
0.292678
0.346288
0.359164
0.304358
0.319831
0.30588
0.29079
0.460635
0.545411
0.686671
0.295609
0.433709
0.328095
0.358194
0.315323
0.5249
0.321804
0.311052
0.307125
0.291619
0.297735
0.300546
0.419446
0.285717
0.328365
0.335226
0.566965
0.297603
0.353367
0.464308
0.747098
0.927618
0.352149
0.78942
0.441035
0.338451
0.313753
0.492664
0.312136
3.96049
0.378652
0.297929
0.388495
0.395109
0.372088
0.414911
0.675461
0.966613
0.40358
0.817958
0.311667
0.283923
0.357615
0.290466
0.288178
0.372527
0.289474
0.29478
0.54083
0.294616
0.2085
1.8682
0.51395
0.288499
0.289044
0.560401
0.308412
0.30115
0.530447
0.302762
0.709328
0.361684
0.745871
0.289639
0.503665
0.403781
0.620373
0.293938
0.400819
0.295415
0.928116
0.364327
0.288572
1.29997
0.391735
0.468132
0.322643
0.342428
0.373675
0.287907
0.465053
0.287739
0.29635
0.293495
0.412192
0.545017
0.300943
0.295071
0.297316
0.292197
0.305037
2.77816
0.288773
0.418634
0.288193
0.526414
0.32766
0.335701
0.331935
0.430422
0.308761
0.380466
0.280624
0.312266
0.306224
0.317847
0.289616
0.400358
0.370819
0.951547
0.947688
0.745507
0.361124
0.31169
0.311598
0.288687
0.293075
1.00574
0.591463
0.363985
0.337254
0.282478
0.305029
0.279733
0.294607
0.486731
0.478179
0.719007
0.932913
0.336598
0.361629
0.365747
0.288728
0.526693
0.342526
0.420927
0.35159
0.326907
1.03782
0.379982
0.282827
0.309397
0.369331
0.299405
0.466529
0.28906
0.611159
0.341218
0.860496
0.457418
0.722485
0.297027
0.306982
0.323021
0.374405
0.330748
0.358235
0.297252
0.288604
0.293811
0.30047
0.354884
0.55105
0.338025
0.807262
0.383674
0.315426
0.478641
0.381689
0.36145
0.242214
1.00845
0.82623
0.219809
0.300575
0.294718
0.800546
0.298687
0.378207
0.345935
0.333803
0.263459
0.352131
0.351801
0.289566
0.385628
0.344716
0.932066
0.491247
0.403284
0.278067
0.364737
0.422652
0.318313
0.292609
0.843236
0.788484
0.308446
0.726517
0.299161
0.287999
0.36455
0.297862
0.846064
0.285544
0.286669
0.291678
0.612727
0.287845
0.326739
0.418886
0.423897
0.286922
0.305831
0.309073
0.3104
0.297371
0.338885
0.333284
0.549558
0.394537
0.358658
0.535239
0.35045
0.551934
0.331271
0.835468
0.410835
0.237967
0.604916
0.136119
0.397948
0.486276
0.542878
0.36189
0.288215
0.290349
0.286095
0.347778
0.778484
0.363367
0.286806
0.3396
0.342563
0.278972
0.445682
0.310929
0.360633
0.426967
0.307222
0.295852
0.320838
0.311269
2.57826
0.908065
0.35176
0.348368
0.389925
0.343576
0.758395
0.851792
0.934666
0.732212
0.33505
0.306252
0.312733
0.27889
0.352579