/*--------------------------------*- C++ -*----------------------------------*\
| =========                 |                                                 |
| \\      /  F ield         | OpenFOAM: The Open Source CFD Toolbox           |
|  \\    /   O peration     | Version:  2506                                  |
|   \\  /    A nd           | Website:  www.openfoam.com                      |
|    \\/     M anipulation  |                                                 |
\*---------------------------------------------------------------------------*/
FoamFile
{
    version     2.0;
    format      ascii;
    arch        "LSB;label=32;scalar=64";
    class       volScalarField;
    location    "0.0817875";
    object      nut;
}
// * * * * * * * * * * * * * * * * * * * * * * * * * * * * * * * * * * * * * //

dimensions      [0 2 -1 0 0 0 0];

internalField   nonuniform List<scalar> 
47425
(
0.00473107
0.00469174
0.00421294
0.00192693
0.00304619
0.00431172
0.00413919
0.00309627
0.00742777
0.00265737
0.002361
0.00738765
0.00480674
0.00381724
0.00307165
0.00366626
0.00435315
0.00228309
0.000237577
0.00256183
0.0036491
0.00666178
0.00297557
0.00482468
0.00662508
0.00651559
0.00370157
0.000467229
0.00407028
0.00525708
0.00695852
0.00714128
0.00745915
0.00420464
0.00499067
0.0045286
0.00667139
0.00537821
0.00445552
0.00408881
0.00493464
0.005045
0.00495598
0.00260976
0.000913783
0.00323973
0.00336743
0.0045186
0.00371714
0.00609044
0.000613871
0.00249889
0.00578223
0.001242
0.0031986
0.00290844
0.00639068
0.00493188
0.00247982
0.00487195
0.000962175
0.000685009
0.00115229
0.00277113
0.0073849
0.00646495
0.00555495
0.00397879
0.00110303
0.00499826
0.00375196
0.00532618
0.00575585
0.00332514
0.00163234
0.00746319
0.00120572
0.0036963
0.000188378
0.00179107
0.00155495
0.00463868
0.00689893
0.00742905
0.00543527
0.00376555
0.00513047
0.00509454
0.00386247
0.00139466
0.00676753
0.00433705
0.00698516
0.00320317
0.00257238
0.00185697
0.00606611
0.00540722
0.00342075
0.00448515
0.00556499
0.000905482
0.00569216
0.000926002
0.00581026
0.00679711
0.00565521
0.00333033
0.00573123
0.00704302
0.00375962
0.00515904
0.00541322
0.00223286
0.00722391
0.000324974
0.00724682
0.000705101
0.00421829
0.00513861
0.00391759
0.0074714
0.00590256
0.00238202
0.00355093
0.00640651
0.00364942
0.0074179
0.00330645
0.00694285
0.00659499
0.003337
0.000963996
0.00284397
0.00464777
0.00416958
0.00620642
0.00614389
0.00434918
0.00308326
0.00499002
0.00217117
0.00458333
0.00459138
0.00616254
0.00742414
0.00345679
0.00542166
0.002356
0.00499667
0.00458588
0.000529854
0.00738984
0.000404003
0.00273937
0.00370825
0.00270679
0.000293099
0.00371873
0.00444067
0.00731777
0.00660581
0.00561883
0.0064809
0.00115131
0.000400269
0.00743205
0.00158893
0.00309492
0.000764657
0.00170539
0.00398956
0.00479061
0.00305754
0.00471342
0.00118188
0.000376558
0.00404518
0.00542394
0.00673628
0.000305731
0.00562242
0.00469987
0.00626142
0.00622146
0.00696036
0.00527417
0.00104047
0.00230899
0.00491966
0.00746955
0.0040213
0.00479905
0.0047428
0.00630715
0.00718251
0.00582736
0.00433981
0.00732452
0.00334521
0.00487382
0.00294342
0.00528609
0.00715226
0.0022795
0.00234952
0.00531542
0.0070811
0.00400475
0.00747105
0.00453407
0.00443921
0.00745916
0.00327073
0.00454435
0.00454548
0.00387276
0.00198284
0.00308885
0.00380005
0.00171845
0.0023474
0.00414415
0.00302669
0.00236374
0.0015946
0.00636495
0.0023793
0.00699664
0.00374113
0.00412411
0.00421807
0.00323643
0.00748889
0.00220258
0.00339176
0.00159294
0.00289812
0.00177852
0.00199639
0.00396638
0.00468514
0.00685669
0.00289194
0.00649682
0.00733162
0.00432143
0.00590006
0.00662247
0.00383244
0.00687314
0.0020169
0.00440098
0.00742026
0.00331816
0.00686234
0.00662632
0.00299061
0.00316281
0.00739659
0.00301351
0.00745956
0.00388256
0.00263818
0.00490279
0.00384302
0.00661535
0.00414403
0.00455412
0.00389118
0.0038819
0.00198643
0.0016719
0.00590894
0.00206799
0.00206053
0.00207021
0.000520228
0.00171549
0.00056503
0.000943945
0.00472228
0.000888804
0.00290757
0.00379637
0.00348253
0.00332728
0.00345908
0.00395689
0.00734854
0.000713966
0.0047864
0.00737543
0.00509913
0.0044087
0.00323568
0.00277459
0.00625661
0.00478699
0.00471939
0.00370934
0.00646944
0.00371681
0.00483205
0.000918112
0.000796412
0.000520571
0.00688008
0.00591622
0.00675826
0.00311645
0.000787128
0.00361964
0.0027746
0.00188311
0.00452499
0.00324496
0.00300699
0.00329169
0.00139898
0.00201492
0.00692994
0.00505431
0.00595522
0.00403172
0.00666125
0.00392663
0.0044646
0.00537877
0.00405116
0.00350843
0.000962032
0.0035696
0.00395823
0.00297232
0.00685173
0.000811838
0.00631195
0.00619039
0.00550599
0.00672835
0.00666993
0.00612111
0.00569755
0.00537116
0.00578142
0.00487562
0.00631841
0.00354289
0.00393885
0.00663602
0.00639818
0.00500195
0.00643931
0.00652056
0.00243537
0.0038907
0.00691749
0.00636869
0.00385726
0.00188196
0.00527881
0.00403354
0.0032679
0.00599318
0.00634665
0.00276212
0.00743424
0.00478767
0.00676117
0.00273106
0.00128004
0.0037515
0.00698572
0.00192608
0.00694257
0.00399564
0.00382906
0.00502325
0.00665557
0.00563155
0.00681138
0.00675035
0.00481454
0.00394526
0.00439932
0.00371724
0.00563894
0.00717398
0.00374512
0.00565738
0.00570924
0.00394252
0.0050989
0.00448305
0.00620574
0.00515658
0.00348061
0.00325458
0.00578987
0.00105627
0.00638032
0.00223165
0.00459426
0.00339596
0.00336351
0.00616794
0.00235355
0.00624476
0.00345315
0.00620064
0.00114669
0.000957128
0.00662364
0.00245565
0.00376107
0.00351027
0.00372332
0.0040114
0.00367959
0.00395009
0.00469495
0.0061343
0.00300815
0.00434504
0.0059701
0.00367325
0.0038322
0.00577391
0.000843561
0.000352221
0.00654233
0.000460761
0.000447641
0.00392197
0.000425711
0.00100277
0.006078
0.00374113
0.0039681
0.0037919
0.0010142
0.00369069
0.00569321
0.00596295
0.00406697
0.00393099
0.00389924
0.00362759
0.00120335
0.000736959
0.00117939
0.00543752
0.000924754
0.00369083
0.00493504
0.00688863
0.00492223
0.00694946
0.00422913
0.00478995
0.00284693
0.00427212
0.0074896
0.00373836
0.00500349
0.00419245
0.00704606
0.00465208
0.00444941
0.00523086
0.00562933
0.00338576
0.00271322
0.00499763
0.00404379
0.00696736
0.00138841
0.00277648
0.00187586
0.00744304
0.0025133
0.00289964
0.00276017
0.00673004
0.00365796
0.00740266
0.0048607
0.00266697
0.00318548
0.0034195
0.00297763
0.00512376
0.00222608
0.000819166
0.00602212
0.00148271
0.00558315
0.0014806
0.00572155
0.00557556
0.00659791
0.00426545
0.00492384
0.00286717
0.00476877
0.0062912
0.00664336
0.005647
0.00422144
0.00257493
0.00338412
0.00689163
0.0053585
0.00455431
0.00487682
0.00497509
0.0046792
0.00434124
0.00233098
0.00472287
0.00372038
0.000635638
0.00494836
0.00427442
0.00620249
0.0074118
0.0016486
0.00214949
0.00431093
0.00563439
0.00416869
0.00385397
0.00683768
0.00203406
0.00747828
0.00520886
0.00223613
0.00263643
0.00495025
0.00272285
0.00706163
0.00407877
0.00411385
0.00508064
0.00671983
0.00541793
0.000911917
0.00460728
0.00238026
0.00637371
0.00188224
0.00597831
0.00490072
0.00194259
0.00229848
0.00435392
0.00637251
0.000703205
0.0051626
0.0051231
0.00505335
0.00592528
0.00643334
0.00210232
0.0028639
0.00585712
0.00453866
0.00446502
0.00668797
0.00181841
0.00669788
0.00490345
0.000403434
0.00422512
0.00684454
0.000763359
0.0012303
0.00704782
0.000310348
0.000326877
0.00407931
0.00744586
0.00542855
0.00661903
0.00426033
0.00373921
0.00131306
0.00684503
0.00263739
0.00578666
0.00192041
0.00217898
0.00433117
0.00461922
0.00156944
0.00660775
0.0057054
0.0033377
0.00331059
0.00234283
0.00293503
0.00294856
0.00667514
0.00327867
0.00285124
0.00288887
0.00532515
0.00282409
0.00307951
0.0061584
0.00239996
0.00360054
0.0038147
0.00263671
0.00330061
0.00421604
0.00492959
0.00561412
0.00155644
0.00507662
0.00621013
0.005942
0.000281177
0.00382292
0.00454815
0.000494067
0.000772601
0.00685375
0.00462576
0.000140713
0.00201742
0.000730941
0.00249203
0.00315409
0.000790082
0.00478178
0.00588068
0.00590928
0.00277333
0.00335451
0.0033283
0.00610132
0.00308621
0.00429375
0.00371243
0.0057983
0.00417842
0.00364625
0.00169708
0.000942049
0.00270456
0.00272893
0.00391865
0.00541791
0.00342016
0.00741649
0.00605402
0.00567848
0.00526682
0.00523769
0.00187205
0.00469474
0.00609389
0.00177701
0.00189351
0.00111087
0.00111737
0.00380882
0.0069455
0.00478418
0.0066641
0.00131139
0.00426404
0.00133186
0.00410259
0.0036984
0.00475587
0.00453908
0.00545947
0.00326329
0.00175205
0.00337887
0.00491573
0.00187534
0.00399156
0.00748587
0.00408137
0.00394203
0.00182412
0.00469803
0.0018321
0.0032305
0.00747321
0.00654705
0.00242577
0.00396098
0.00339331
0.00743285
0.00494253
0.00390768
0.00429084
0.00400375
0.00376669
0.00452492
0.000834594
0.000574199
0.00413847
0.000746662
0.00433484
0.0027909
0.00330469
0.00595543
0.00440797
0.0045661
0.00390757
0.00389235
0.00643605
0.00053973
0.00224342
0.00324659
0.00506658
0.00620946
0.00366577
0.00503485
0.00232974
0.00720539
0.00179012
0.00391552
0.00654975
0.00398832
0.00625035
0.00511707
0.00426652
0.00562279
0.00344066
0.00691542
0.00613922
0.00348714
0.00095783
0.00694849
0.000759937
0.00214593
0.00198281
0.000745943
0.00405701
0.00359489
0.00198298
0.00318846
0.000763088
0.000810293
0.000885995
0.00308169
0.00460677
0.00325343
0.00284664
0.000807718
0.0024061
0.00356384
0.00524945
0.00414596
0.00390719
0.0030631
0.00545569
0.0040892
0.00121241
0.00183599
0.00555484
0.00246468
0.00102089
0.000660347
0.00400866
0.000578332
0.0017747
0.000631125
0.000807157
0.00449994
0.00297382
0.00663444
0.00623341
0.00467318
0.000718862
0.00116173
0.0046237
0.00472008
0.00684948
0.000890867
0.000873645
0.00687193
0.0022154
0.00354147
0.00685707
0.00216866
0.00689212
0.00682814
0.00410274
0.00465606
0.00147799
0.00611467
0.00681753
0.00481755
0.00511454
0.00508565
0.000960031
0.00186734
0.00670187
0.0011648
0.00584475
0.00617042
0.00613684
0.00173501
0.00444108
0.00211611
0.00253932
0.00534323
0.00681357
0.00118839
0.000620923
0.00428801
0.00372342
0.00189845
0.00515201
0.00560959
0.00289994
0.00265387
0.00294507
0.00743254
0.00246411
0.00104827
0.0074237
0.00102351
0.00492761
0.00393144
0.00644771
0.00195791
0.0025921
0.00661916
0.00466801
0.00117715
0.00305951
0.00186777
0.00441744
0.00505993
0.00441976
0.00358385
0.00425256
0.00295724
0.000654672
0.00437672
0.0024722
0.00175923
0.00174517
0.00102213
0.00170272
0.00400422
0.000526148
0.00657259
0.00627958
0.00381123
0.00266383
0.00370671
0.00131503
0.00125769
0.00313953
0.004286
0.00423273
0.00308155
0.00350279
0.00384031
0.0106088
0.00141056
0.00382217
0.00341238
0.00258628
0.00172752
0.00632718
0.000532676
0.0038523
0.00537197
0.00386731
0.00385967
0.0103525
0.00635889
0.00318326
0.00386328
0.000654188
0.00265195
0.00470969
0.0035846
0.00534397
0.00345923
0.000732079
0.00462405
0.00245576
0.00521428
0.00170612
0.00286743
0.00376017
0.00546094
0.00528979
0.00357869
0.00228001
0.0037133
0.00155382
0.00072029
0.00510467
0.00662301
0.00460797
0.000987019
0.00499833
0.00265377
0.00681035
0.00164024
0.00149541
0.00331381
0.00289528
0.00434283
0.00670744
0.00514754
0.00311996
0.001249
0.00206487
0.00111035
0.00620566
0.002105
0.00230191
0.0029107
0.00344622
0.00553953
0.00167075
0.00162829
0.00349498
0.000853811
0.00345131
0.00343747
0.00409917
0.00463236
0.00340906
0.0045506
0.00115036
0.00465154
0.00443883
0.00413213
0.00570302
0.000745067
0.0028166
0.000666908
0.00147504
0.000727957
0.00205226
0.00377896
0.00121544
0.00336163
0.00119383
0.00196485
0.00201244
0.00181167
0.00280575
0.00491034
0.00408673
0.00746825
0.00135011
0.00366053
0.00333033
0.00418088
0.00125927
0.00552349
0.00422071
0.00575998
0.00746033
0.00287015
0.00170556
0.00288849
0.00298066
0.00494363
0.00228655
0.00648911
0.00308524
0.00301579
0.00630512
0.00220248
0.00223155
0.00413672
0.00192585
0.00367345
0.00335959
0.00202953
0.00288248
0.003027
0.000210483
0.000672568
0.00192515
0.000750633
0.00323301
0.00314979
0.000569965
0.000901367
0.0045481
0.000975639
0.00327406
0.00419495
0.00055942
0.0025793
0.00669726
0.00312722
0.00136243
0.00563312
0.000653099
0.000331183
0.00218211
0.000790162
0.00219062
0.000899
0.000826785
0.00520935
0.00440824
0.002731
0.00173004
0.00360796
0.00706182
0.00195804
0.00066895
0.00399858
0.00157314
0.00418031
0.0019814
0.0060157
0.00566832
0.00288092
0.00266592
0.00409832
0.00167168
0.00462464
0.00143903
0.00673621
0.00547227
0.00539935
0.00254742
0.00489904
0.00686049
0.000753107
0.00214016
0.00196592
0.00366923
0.00248298
0.0026591
0.00121941
0.00392712
0.00107541
0.00305057
0.00490593
0.00302524
0.00292292
0.000881544
0.00187645
0.00166204
0.00587686
0.00456714
0.00191661
0.00393648
0.00291001
0.00499144
0.00740451
0.00601586
0.00377847
0.00334739
0.000783141
0.00371025
0.00048586
0.00366557
0.00431713
0.00296566
0.00493186
0.00366202
0.00393674
0.00429512
0.00192122
0.00541999
0.00137345
0.00687811
0.000354578
0.00136669
0.00145575
0.00196115
0.0041152
0.00526623
0.0034214
0.00464006
0.000607491
0.000722933
0.00336484
0.00212693
0.000986749
0.000889235
0.00228974
0.00112749
0.000651469
0.00345499
0.00437412
0.000549222
0.00380402
0.00432394
0.0040872
0.00113424
0.000481516
0.0037957
0.00344447
0.00124915
0.00249524
0.00165887
0.000731818
0.00322397
0.00105803
0.00115115
0.00333357
0.00433296
0.00120253
0.00559076
0.00193773
0.000229304
0.00689864
0.00417604
0.00370138
0.00503347
0.00297554
0.00297274
0.0070947
0.00294157
0.00408594
0.000781236
0.00153175
0.00431988
0.00139541
0.00705652
0.000379354
0.006627
0.00342867
0.00221842
0.00497726
0.00095905
0.00384743
0.00298874
0.00234666
0.0044826
0.00388223
0.00602779
0.00210098
0.000656029
0.00559341
0.00155548
0.000681736
0.00243994
0.0034271
0.000958496
0.00161081
0.00478129
0.00492593
0.000992188
0.00171266
0.00231425
0.00080088
0.00258599
0.000878471
0.00327772
0.00272058
0.00210909
0.000981157
0.00579959
0.00506655
0.00207334
0.00428466
0.00255693
0.00397265
0.0015923
0.00488703
0.00343042
0.00575595
0.00145486
0.00560387
0.000599989
0.00215487
0.00556573
0.00739774
0.00184772
0.00157417
0.000839088
0.0018494
0.00193065
0.00105733
0.000834638
0.00393145
0.000910296
0.00507291
0.00277093
0.00039405
0.00146931
0.00308877
0.00344663
0.00561303
0.0013988
0.000970956
0.00150284
0.00314727
0.008337
0.00689057
0.00170245
0.00353136
0.0037948
0.00627769
0.000985597
0.00286934
0.00157684
0.00403644
0.00147605
0.00392726
0.00277454
0.00105586
0.00179843
0.00235185
0.00233252
0.00532429
0.000392718
0.00161001
0.00147244
0.00139487
0.00710259
0.0051211
0.0010033
0.000784934
0.00161399
0.00259133
0.00267627
0.00163566
0.00227252
0.00161096
0.00519947
0.00125584
0.00127626
0.00518034
0.00112828
0.00331653
0.00243455
0.0026747
0.00121469
0.00244002
0.00551477
0.000656718
0.00327321
0.00064707
0.00258816
0.00352297
0.00298509
0.00182637
0.00122369
0.00231782
0.00372754
0.00285123
0.0011495
0.00374645
0.00410607
0.000693155
0.00655796
0.00356058
0.000824055
0.00333749
0.00272798
0.00271002
0.00236831
0.00113731
0.00351766
0.000150943
0.00229755
0.000746002
0.00323392
0.00108166
0.00258238
0.000863576
0.00138867
0.00143427
0.00357644
0.00392966
0.00741052
0.00396041
0.00352272
0.00287222
0.00069679
0.0037558
0.00595337
0.00399636
0.00469668
0.00286033
0.00415416
0.00689662
0.00745242
0.00296706
0.000932304
0.0064302
0.0027614
0.00225715
0.00513224
0.00613087
0.00280583
0.00208881
0.00747109
0.0052713
0.00326641
0.00347039
0.00542876
0.00387981
0.00114094
0.0038516
0.00317823
0.00533541
0.00665061
0.00197257
0.004595
0.00576298
0.000842247
0.00230955
0.000935454
0.00620012
0.000890152
0.000412588
0.00522129
0.000388183
0.00075718
0.000523257
0.00388809
0.00449931
0.00423833
0.00133674
0.00674388
0.00437216
0.00444677
0.00380985
0.00264966
0.00339215
0.0033993
0.000998226
0.00427104
0.00262738
0.000793778
0.004005
0.000304232
0.00159427
0.00121024
0.006053
0.00299565
0.00190032
0.00558677
0.00448632
0.00192713
0.0067065
0.00284207
0.00159727
0.000467647
0.00695926
0.00143125
0.004872
0.00294328
0.00253551
0.00496569
0.00130511
0.00442326
0.00202524
0.00434307
0.00127697
0.000276219
0.00376333
0.00665108
0.00229086
0.00454001
0.00107868
0.00374202
0.00370313
0.00427872
0.00403097
0.00523718
0.00711223
0.0036677
0.00212822
0.00499198
0.00218364
0.00389598
0.00376072
0.00689112
0.00229635
0.00371427
0.00396428
0.0052224
0.00424169
0.00432605
0.00305158
0.00407731
0.00430121
0.00564737
0.00230365
0.00258215
0.0074721
0.00378874
0.00348575
0.00494288
0.00377068
0.00365361
0.00408493
0.0038386
0.00382441
0.00608428
0.00379252
0.00552794
0.00451453
0.00604012
0.00200721
0.00220992
0.00196174
0.0036191
0.0045989
0.00397286
0.0011542
0.00494162
0.00476856
0.00521919
0.00142844
0.00297712
0.00120672
0.00121963
0.00125225
0.00302349
0.00432789
0.00389809
0.00402863
0.00601785
0.0011813
0.00384286
0.00605864
0.00397082
0.00311992
0.00383957
0.00153257
0.00383821
0.00234328
0.00266196
0.00330416
0.00587178
0.00424788
0.00361279
0.00368536
0.00437788
0.00293308
0.00318713
0.00262558
0.00359874
0.00508199
0.00491994
0.00208595
0.00186984
0.00450496
0.00403369
0.0022715
0.00367446
0.0022633
0.00599077
0.00491453
0.00226395
0.00447059
0.00548443
0.00456498
0.00653693
0.00598641
0.00331262
0.00417619
0.00220179
0.00425959
0.00221507
0.00553321
0.00415757
0.000981911
0.00388066
0.00416748
0.00474865
0.00490335
0.00388936
0.00421125
0.000308235
0.00345707
0.00438023
0.00565396
0.00494754
0.00490061
0.00686575
0.00584027
0.00349411
0.00398744
0.00583691
0.00631859
0.00267763
0.00096559
0.00123261
0.00295277
0.00172931
0.00349472
0.00374142
0.00352777
0.00271013
0.00192173
0.00316856
0.00385721
0.000811896
0.00461101
0.00385254
0.00374153
0.00388481
0.00544946
0.000288716
0.00447761
0.00349734
0.00743039
0.00257368
0.00237276
0.000402094
0.00022006
0.00444387
0.0054252
0.00664884
0.00386929
0.00356085
0.0046757
0.000198931
0.0016892
0.00454917
0.00248402
0.00120073
0.00467237
0.00678312
0.00341787
0.00661393
0.00479498
0.00623303
0.00410635
0.00265884
0.00377547
0.00411621
0.00492763
0.00178907
0.00411492
0.00743716
0.00163777
0.00571909
0.00319558
0.00272092
0.00102045
0.00159139
0.00338426
0.00287963
0.00485996
0.00284779
0.0027998
0.00572323
0.000574929
0.0015801
0.00287974
0.00378428
0.00339963
0.0037653
0.00373074
0.00107367
0.00686953
0.00631159
0.00574166
0.00538213
0.000819716
0.00121457
0.00121921
0.00176542
0.00285674
0.00287971
0.00691748
0.00649177
0.00454909
0.00471841
0.00491992
0.0053206
0.0068453
0.00103438
0.000723121
0.00679254
0.00530438
0.00241504
0.00258516
0.00273899
0.00677226
0.0044919
0.00182705
0.00087374
0.00333937
0.00198535
0.00297947
0.00154455
0.000537188
0.00309288
0.00582774
0.00667721
0.00617169
0.000873407
0.00500505
0.00435008
0.00409814
0.00690053
0.000825865
0.000404958
0.000441106
0.0016205
0.00480166
0.00566605
0.00650418
0.00205889
0.00357048
0.000875736
0.000834913
0.000824752
0.000527067
0.000815398
0.00160323
0.00645579
0.000751654
0.00739759
0.000319519
0.00390475
0.000760732
0.00444182
0.00161445
0.00523046
0.00286097
0.00224757
0.00225489
0.00426587
0.00559504
0.00398874
0.000852989
0.000999125
0.00500266
0.00516291
0.000461429
0.000480048
0.00347948
0.00156451
0.00077706
0.00158446
0.00445694
0.00643483
0.000906964
0.00079513
0.00147124
0.00703226
0.00138136
0.00594121
0.000810369
0.00109338
0.000614362
0.00227962
0.00541994
0.00141758
0.00630462
0.00459827
0.0036659
0.00207022
0.00534132
0.00342101
0.00407859
0.00372714
0.00403777
0.00612463
0.00599961
0.00315372
0.00640343
0.00543869
0.00411053
0.00385303
0.00144787
0.00371628
0.00233806
0.00397132
0.00451206
0.00400997
0.000916041
0.00335515
0.00324544
0.00179634
0.000540737
0.00407479
0.00450626
0.00291955
0.000921742
0.00175093
0.00122084
0.00439326
0.00607666
0.00411523
0.00329125
0.00518849
0.00330633
0.00305875
0.0035422
0.00660629
0.00437457
0.00417975
0.00429434
0.0030848
0.00406226
0.00358945
0.000625783
0.00335222
0.00388684
0.00403262
0.00282552
0.00104947
0.00306493
0.00354671
0.00435417
0.00302431
0.00121957
0.00104674
0.00370837
0.00314857
0.000357909
0.00147744
0.00202447
0.00399919
0.00145806
0.00306802
0.00394553
0.00251907
0.00107482
0.00466611
0.0040092
0.00271108
0.00620382
0.00232906
0.00265162
0.00303011
0.00332899
0.00194433
0.00395766
0.00584174
0.00664622
0.00168529
0.00318207
0.00383112
0.00596306
0.00474645
0.00076855
0.00293936
0.00332178
0.000427755
0.00165891
0.00540706
0.00339818
0.00093842
0.00157173
0.00224086
0.00668201
0.00289072
0.000980842
0.00461008
0.00686574
0.000649958
0.00171658
0.0012745
0.00236505
0.00468505
0.00440409
0.0014964
0.000598723
0.000746499
0.00494853
0.00508794
0.000583175
0.004784
0.0017747
0.0030754
0.00147384
0.000907463
0.0046472
0.00330207
0.00113786
0.0039484
0.0050196
0.00440586
0.0035427
0.0053248
0.000841499
0.000280797
0.00325911
0.00352642
0.000687066
0.000496933
0.000654274
0.00193426
0.00103994
0.00187847
0.000514633
0.00352553
0.00353175
0.000849752
0.00217124
0.0022003
0.00113696
0.000968706
0.000426956
0.00523178
0.00482521
0.000736722
0.00655083
0.00419766
0.000778593
0.00509136
0.00325175
0.00391811
0.0028051
0.00496448
0.00592845
0.000446118
0.000616364
0.00245284
0.000650888
0.0023715
0.00348095
0.00424641
0.00416713
0.00321841
0.00414444
0.00484545
0.00378705
0.00426754
0.000648478
0.000601495
0.00396486
0.0016067
0.00386872
0.00415764
0.00249779
0.00349353
0.00360704
0.00429692
0.00041208
0.00103402
0.00415393
0.000577119
0.00278408
0.00138
0.00280483
0.00332664
0.00114232
0.0027861
0.00101913
0.00305205
0.00289077
0.00289086
0.00595292
0.00111822
0.00679481
0.00516763
0.00223742
0.00421514
0.00139947
0.00323986
0.00233661
0.00338075
0.000816375
0.00377127
0.00340598
0.00362707
0.00671357
0.00506636
0.00314007
0.00176422
0.000432626
0.00270531
0.000747647
0.00309998
0.00418889
0.00510686
0.00431222
0.00471365
0.00426334
0.00329822
0.00115823
0.00186872
0.00114068
0.000587522
0.003126
0.00393806
0.000157649
0.000803235
0.00554388
0.00568124
0.00116886
0.00373785
0.000675824
0.00043259
0.00265307
0.00072459
0.00124646
0.00267259
0.000706573
0.00158867
0.00534102
0.00348347
0.000977283
0.00122586
0.00575648
0.000908933
0.00595272
0.00262928
0.00408965
0.00261834
0.0017366
0.000784137
0.000953987
0.00589212
0.00568906
0.000228596
0.00658276
0.00447563
0.00112432
0.0054468
0.00272573
0.00424936
0.00300541
0.00051421
0.00137633
0.000918959
0.00162774
0.00315235
0.00104339
0.00540451
0.00458432
0.000954672
0.00631821
0.00357585
0.00260903
0.00489478
0.0012163
0.000622116
0.0064065
0.00216228
0.00667418
0.000699947
0.00372719
0.000553499
0.00275425
0.00313292
0.00518825
0.0024462
0.00264536
0.00592853
0.00401967
0.00314559
0.00668581
0.00138034
0.00318735
0.00344153
0.00609384
0.00368743
0.00343111
0.0022986
0.00283405
0.00188628
0.00295495
0.00325437
0.00351455
0.00135076
0.000542448
0.00075549
0.000673529
0.00108669
0.000797144
0.000875169
0.00248025
0.000191767
0.000675968
0.00161516
0.00165209
0.00240567
0.000959641
0.00094219
0.00211035
0.00145778
0.00201794
0.00593917
0.00242406
0.00186886
0.00370145
0.000887878
0.00334855
0.000644135
0.00177993
0.00110938
0.00135727
0.0013549
0.000697602
0.00172492
0.000602057
0.00259122
0.00304917
0.00371778
0.00154291
0.00482678
0.00526494
0.000879568
0.00321563
0.000929165
0.00177894
0.00502358
0.00232254
0.00384752
0.00145992
0.0011721
0.00614533
0.00499526
0.00154351
0.000913356
0.00359838
0.00264502
0.00122744
0.00103282
0.00400881
0.00663817
0.00381025
0.00393727
0.00071169
0.00681817
0.000845852
0.000352501
0.00483412
0.00233295
0.00398522
0.00312106
0.000850562
0.00274181
0.000759521
0.00313134
0.00411928
0.000487289
0.00102362
0.00501163
0.00228243
0.00497718
0.00620552
0.00125098
0.00334471
0.000719738
0.00349531
0.00589819
0.00262404
0.00616389
0.00460267
0.00496405
0.00442486
0.00269919
0.00191623
0.00136583
0.00466325
0.00102135
0.00509486
0.00626804
0.00213189
0.00120066
0.000780705
0.000819424
0.00187095
0.00191993
0.00101146
0.000866648
0.000821188
0.000801602
0.00281942
0.00298087
0.00385606
0.00134397
0.00495995
0.00256237
0.00305755
0.00125217
0.0004944
0.00348142
0.00279519
0.00347541
0.00411625
0.00333822
0.00330515
0.0055642
0.00433546
0.00249665
0.00279641
0.00261113
0.00512212
0.00284112
0.00151587
0.000719289
0.00414037
0.000543217
0.0074438
0.00269053
0.00684114
0.0043813
0.000843709
0.002672
0.00107808
0.00355043
0.00334036
0.00313373
0.00426915
0.00450077
0.00410707
0.00307634
0.0137593
0.00713894
0.000733708
0.0027793
0.00114177
0.00275116
0.00106843
0.00536934
0.0044252
0.00329006
0.00374251
0.0028436
0.00091531
0.00608049
0.00424606
0.00115188
0.00246716
0.00243077
0.00241616
0.00243944
0.00218471
0.00202666
0.00460835
0.00729036
0.00621231
0.00189904
0.00138489
0.0043882
0.000479484
0.00684437
0.00165978
0.00648067
0.00580907
0.00172136
0.00435078
0.00635551
0.000888665
0.00742105
0.00397409
0.00130777
0.00395118
0.00648164
0.00120073
0.00640075
0.00718362
0.00101191
0.00261011
0.00284959
0.00070816
0.0069312
0.00178895
0.00123228
0.00158431
0.000876403
0.00112213
0.00410758
0.0058248
0.00276344
0.00560507
0.0016984
0.00281432
0.00476492
0.0053854
0.00348112
0.00113596
0.00293572
0.00414686
0.00342113
0.00337596
0.00235607
0.00738817
0.00209993
0.00103808
0.00354283
0.00313953
0.00433313
0.0038076
0.00270265
0.00432331
0.00213094
0.00310288
0.000579556
0.00372654
0.00701266
0.000921868
0.00286875
0.000642773
0.0009384
0.00647247
0.0032595
0.00113742
0.00309252
0.000657682
0.00133998
0.000562127
0.00133634
0.000628452
0.00301018
0.00137618
0.00151969
0.000508682
0.00107599
0.00280762
0.000620309
0.000677485
0.0027214
0.000320087
0.00114129
0.00459778
0.0030617
0.00136037
0.000877004
0.00698979
0.00360052
0.00091294
0.000688137
0.00103438
0.00119771
0.00147377
0.000758513
0.00270854
0.003572
0.00416395
0.0064897
0.00302139
0.00607054
0.000939783
0.00290788
0.00423839
0.000632859
0.00368092
0.00225757
0.00407311
0.00573321
0.00308195
0.00401325
0.00174697
0.00596893
0.00163751
0.000577862
0.00448233
0.0058717
0.0031646
0.00461018
0.000980823
0.00410968
0.00498561
0.00556021
0.000528314
0.00582674
0.00326851
0.00614965
0.00156394
0.00297524
0.00418932
0.00559582
0.0048058
0.00153228
0.00342098
0.00246484
0.00722501
0.00657371
0.00634014
0.00474781
0.00431023
0.00342996
0.00573973
0.00324791
0.00353948
0.0022057
0.00116553
0.00103046
0.0029896
0.00164361
0.0040961
0.00256905
0.00344792
0.00367658
0.00602986
0.00312585
0.00421024
0.00592928
0.00203006
0.00444349
0.00294496
0.000988065
0.00460975
0.00264806
0.00109072
0.00341458
0.00105711
0.00173175
0.00112113
0.000314547
0.00268681
0.00485231
0.00211167
0.000423387
0.00239067
0.00669804
0.00571347
0.0046685
0.00317702
0.00426556
0.00675031
0.00679972
0.00339467
0.00268177
0.00709474
0.00634454
0.00699943
0.00488233
0.00266397
0.00161835
0.00288325
0.00578218
0.00318482
0.000878403
0.00494655
0.00560115
0.00385176
0.000578018
0.000580218
0.0037487
0.005397
0.00432591
0.00274637
0.00399935
0.000998729
0.0016005
0.00458704
0.00396268
0.00530177
0.00329747
0.00168717
0.00454054
0.0031468
0.00335492
0.00120368
0.00191693
0.00145968
0.000876262
0.000208027
0.0020037
0.0018762
0.00389345
0.00371364
0.00323059
0.00317076
0.00522123
0.00415518
0.000456303
0.00596297
0.00174121
0.00058666
0.00322712
0.00290272
0.000715015
0.00194021
0.00384737
0.00371967
0.00699268
0.00287137
0.00102907
0.00372862
0.00139527
0.00776577
0.00243653
0.00071006
0.000798661
0.00311685
0.00282194
0.000993184
0.00431346
0.000634867
0.000553262
0.00114878
0.00741959
0.00627091
0.000306793
0.00539118
0.000491491
0.00182685
0.00296775
0.00102401
0.00124663
0.0057691
0.00685179
0.000914108
0.0057912
0.00557857
0.00449793
0.00603393
0.00420962
0.00335307
0.00197465
0.00519964
0.000341981
0.0030206
0.00345847
0.00363885
0.000292721
0.00398455
0.000532189
0.00446856
0.00280617
0.00344306
0.00102757
0.00559049
0.00394951
0.00455972
0.000947495
0.00174483
0.00171749
0.0012485
0.00260181
0.00581024
0.000760573
0.00324743
0.00312077
0.00328589
0.00463606
0.00297846
0.00377605
0.0071796
0.000348102
0.00118036
0.00415216
0.0045175
0.0033118
0.00360604
0.00261868
0.00258005
0.00426209
0.00218756
0.00409137
0.00455217
0.00408566
0.00152051
0.00433142
0.00415732
0.00426155
0.00335531
0.00675368
0.00536794
0.00445713
0.00272577
0.00387766
0.00268224
0.00251421
0.00341563
0.000816117
0.0045867
0.00248854
0.00167913
0.00112176
0.00144511
0.00350704
0.00801891
0.00170638
0.000864472
0.00389238
0.000990385
0.00393087
0.00676829
0.00262033
0.00169741
0.00374523
0.00397579
0.00675256
0.00452686
0.000333669
0.00450597
0.00616054
0.00224832
0.000493688
0.000463973
0.00325603
0.000284935
0.00150179
0.00111817
0.00211242
0.00128299
0.000489407
0.00439478
0.000703581
0.00381083
0.00463708
0.00773369
0.000459262
0.00194924
0.0064595
0.00535252
0.000963102
0.003669
0.000458638
0.00500139
0.0028476
0.00380068
0.00284639
0.000607771
0.00701369
0.00309596
0.00276659
0.00507158
0.00360597
0.00524782
0.00276601
0.000436885
0.000445055
0.000773979
0.0013313
0.0012342
0.00545446
0.00574092
0.00475915
0.00356674
0.00650582
0.00132738
0.0069115
0.000819835
0.00411941
0.0060873
0.00538789
0.00464611
0.00618191
0.00315798
0.00289981
0.00720263
0.00302496
0.000826189
0.00482935
0.00095439
0.000904946
0.00607416
0.00031633
0.00052779
0.00269495
0.00284872
0.00347448
0.00115992
0.00468772
0.0018536
0.00112819
0.00498574
0.00152095
0.00681132
0.00189649
0.00388895
0.00218874
0.00217724
0.000860675
0.00332799
0.00362696
0.000613353
0.00119679
0.00184652
0.001385
0.00566128
0.00235482
0.00386994
0.00172891
0.00312559
0.00612339
0.00121608
0.00252414
0.00227529
0.00646459
0.00054279
0.000781421
0.000523284
0.00526423
0.00371845
0.000808885
0.000510369
0.00203587
0.00357188
0.00248019
0.00097589
0.000602586
0.00162571
0.00505742
0.00624152
0.00420125
0.00451313
0.00399031
0.000524313
0.00483244
0.00157332
0.00307951
0.00641473
0.00255847
0.00251696
0.00482847
0.00385188
0.00527326
0.00227214
0.00219271
0.00468813
0.00625627
0.00222883
0.00278963
0.00269222
0.00190632
0.00208212
0.00353807
0.00561229
0.00543749
0.00499428
0.000711755
0.00339751
0.00087648
0.00197295
0.00350854
0.00464793
0.00315829
0.00703597
0.00240046
0.0074711
0.00191369
0.00231811
0.00358893
0.00401423