/*--------------------------------*- C++ -*----------------------------------*\
| =========                 |                                                 |
| \\      /  F ield         | OpenFOAM: The Open Source CFD Toolbox           |
|  \\    /   O peration     | Version:  2506                                  |
|   \\  /    A nd           | Website:  www.openfoam.com                      |
|    \\/     M anipulation  |                                                 |
\*---------------------------------------------------------------------------*/
FoamFile
{
    version     2.0;
    format      ascii;
    arch        "LSB;label=32;scalar=64";
    class       volScalarField;
    location    "0.0817875";
    object      omega;
}
// * * * * * * * * * * * * * * * * * * * * * * * * * * * * * * * * * * * * * //

dimensions      [0 0 -1 0 0 0 0];

internalField   nonuniform List<scalar> 
47425
(
59.3449
66.7127
70.7384
158.272
147.332
69.8255
98.146
99.4393
49.394
561.401
134.306
43.6557
72.3776
78.2276
94.7632
86.4756
67.5721
47.1593
1368.65
198.305
83.1948
43.5574
102.276
61.8653
44.502
43.124
76.4401
686.529
69.0237
54.3042
42.5591
44.2866
47.7433
67.7074
55.5403
65.5299
43.1987
67.5577
65.3435
73.4602
70.4186
131.063
213.277
144.994
1819.76
101.239
94.1219
77.6008
77.6861
46.3176
568.102
237.103
48.5622
680.793
110.862
121.599
44.2963
57.5018
77.5686
60.2387
848.244
1224.69
786.817
43.3566
49.3523
44.1997
61.4053
87.4607
755.597
43.887
77.5254
52.016
48.6777
89.2302
578.595
49.4036
805.424
79.7098
1336.27
281.487
597.048
64.2516
42.4879
46.9234
61.3997
80.4059
54.0604
54.0044
129.522
402.915
43.2102
74.9227
40.5805
113.76
146.062
193.101
46.6403
52.5345
87.2102
77.4564
60.0871
91.5842
51.577
95.8092
49.3455
52.0571
52.5724
92.656
79.4912
43.7183
326.616
61.7981
75.6028
153.798
42.9506
871.002
42.2029
226.254
76.4691
61.5536
78.9489
48.5449
58.0946
62.627
95.3736
58.4076
83.8761
49.1901
104.15
40.91
44.3453
93.2111
123.731
117.322
116.99
68.0253
47.3356
61.8211
67.9751
95.4009
70.9426
127.119
69.2598
95.8067
50.8684
49.3287
120.292
62.6862
148.016
72.3636
96.7527
501.425
48.7557
687.17
45.8796
82.6489
58.9002
879.275
89.5874
70.0036
43.3314
42.6167
49.1981
45.4242
430.292
801.899
45.449
587.863
105.117
723.923
655.427
83.4551
73.8613
45.3487
69.9115
65.6077
722.517
69.1146
51.9914
42.1607
979.527
49.0657
59.4196
44.9823
45.4418
48.3774
55.9269
74.6771
147.389
57.4386
47.9245
71.0371
81.9529
77.0212
44.8703
41.6009
61.8688
70.4967
42.5717
82.7607
65.2133
122.7
76.0273
41.9907
48.8229
157.946
52.4542
41.8137
86.5645
48.4399
62.4316
65.2648
47.2039
92.5393
63.6447
63.1333
76.0168
260.534
46.1374
92.8999
294.738
119.021
141.483
95.3619
165.562
248.729
44.5361
127.521
47.4415
61.2669
71.4878
70.8707
100.468
49.3224
163.218
90.686
342.179
109.184
285.804
179.298
82.4537
59.2485
41.0849
100.269
44.1484
49.4523
67.7359
60.6011
42.4574
76.0517
41.3191
230.077
65.9756
49.2833
90.6105
41.2423
44.1784
118.63
93.05
48.3484
123.305
47.2055
77.9205
133.793
72.6334
88.2233
42.9371
72.7498
62.3748
80.975
79.119
250.216
326.94
48.2369
235.199
177.312
235.902
109.243
309.906
181.557
871.369
58.8222
845.267
121.091
78.4079
83.4187
102.557
89.7113
89.0331
44.3646
626.757
42.9232
50.3438
55.7404
66.7228
95.7205
109.194
45.9741
64.7432
55.0412
85.0546
43.1276
83.461
59.5843
836.084
1007.91
652.623
41.0935
47.4892
42.6869
97.7894
677.622
84.8738
114.327
295.855
71.3953
103.234
120.866
92.3349
456.006
256.701
42.7844
59.3977
46.6557
79.2826
42.4194
76.9055
62.9161
52.3245
70.8115
82.6117
736.156
55.251
73.1981
129.126
41.35
731.871
49.3504
45.0514
52.157
43.8402
44.2447
45.5587
51.4015
51.3015
49.5213
58.5659
46.0304
82.5733
81.0784
44.7604
44.5484
61.0653
45.8867
45.8965
45.6958
78.9754
42.4025
47.1389
93.3991
53.4477
60.1872
75.2743
93.3109
47.7148
48
128.939
48.2153
66.1498
43.5607
127.493
875.799
77.1478
42.5614
200.232
42.603
109.502
92.9664
72.5499
43.3568
63.5005
43.4386
41.8972
73.7857
83.884
82.8567
81.7866
51.8428
48.7482
80.7665
47.7462
45.9733
78.5108
56.6003
64.4635
47.8711
61.4716
86.4743
68.9123
48.3791
483.756
44.0669
441.049
67.7797
103.175
100.265
45.8927
143.681
45.1472
91.6556
45.7321
474.575
362.377
42.3893
49.2019
78.7505
84.3317
81.5775
73.1022
79.6219
87.7916
65.6432
46.3315
99.2756
70.1062
47.3966
95.0409
76.8271
51.6776
146.26
1164.52
44.5221
281.935
962.982
88.2453
986.445
690.108
46.6
78.7307
74.465
77.6473
619.865
84.5256
49.0664
47.7182
73.6982
74.0922
78.5543
79.0933
505.811
685.203
155.276
65.5408
72.233
125.501
57.3471
42.9324
68.2603
42.4685
83.9824
75.8095
132.705
68.9682
49.3502
79.6352
58.9665
75.1746
42.5259
64.1046
66.2256
66.6383
63.5366
108.539
116.68
61.377
81.1006
42.4765
570.725
129.872
75.3299
46.3426
131.031
245.91
46.1703
41.8519
46.2983
47.2995
67.278
48.608
102.392
83.493
47.0615
55.0002
138.602
98.2696
46.3644
49.2078
56.7679
53.0871
49.0775
50.6268
42.8981
68.2034
59.2447
108.552
60.8188
45.0705
43.2876
42.3287
72.4905
124.225
43.6299
41.0624
56.3551
60.244
57.7498
58.5493
67.4639
71.5268
51.0568
76.9246
100.902
426.87
60.0986
68.0483
52.3861
49.345
136.713
134.409
74.2059
50.9686
78.1484
107.824
46.2821
145.884
48.4578
261.357
46.733
50.0081
57.7546
130.321
40.2621
71.4198
72.1404
69.5223
42.0458
51.1304
1109.83
62.0647
142.578
44.4391
101.211
46.2059
58.2202
86.1797
72.6112
68.5465
44.0772
384.534
54.3687
58.0734
55.5061
47.3632
43.3766
57.1556
121.302
48.2604
68.8398
66.7931
42.3357
276.291
43.7878
65.1313
464.534
70.213
41.4257
327.877
595.413
42.4097
635.123
666.687
69.3916
46.5984
51.3296
43.3807
84.9672
85.8267
709.4
42.7928
123.02
48.5378
119.167
55.8701
85.3081
65.6659
464.648
300.449
51.2134
93.042
100.475
83.595
119.489
122.797
47.6564
96.0813
132.906
98.2502
67.4389
140.123
50.6229
47.304
140.658
91.9279
76.892
116.623
98.8533
67.4474
73.4174
61.7446
52.967
67.6219
46.2561
49.8862
1292.32
61.8307
78.9517
1032.55
1009.87
41.5167
75.978
1575.11
164.91
94.5231
310.528
119.462
762.219
59.018
47.6391
60.0458
176.514
113.729
112.841
45.686
116.417
66.8133
82.0506
47.8272
78.0514
57.8832
463.754
714.631
119.038
48.4043
84.2893
42.2241
109.462
47.4195
58.2109
63.5008
65.0533
43.8041
171.217
75.5042
47.071
66.0009
181.948
634.652
239.411
84.3932
42.1811
73.9625
42.3883
674.36
68.8137
672.791
82.0365
114.555
66.2793
67.3751
57.8038
86.7895
53.8421
87.4673
56.7506
205.041
91.022
49.2336
72.7613
88.4301
429.568
66.2939
200.323
69.5053
48.664
43.2602
137.516
79.3709
72.6515
45.9288
61.8642
67.6072
70.6102
80.0293
78.2415
64.1186
125.529
195.96
70.059
97.897
66.6201
110.357
89.3791
47.4838
149.343
60.9718
77.0609
76.5033
43.647
295.587
405.453
92.6826
65.9127
45.6959
89.4374
55.5803
132.163
42.8972
277.991
78.5295
43.1537
75.3301
45.6281
58.2546
68.5094
49.3997
87.5389
40.9355
45.3788
48.269
164.314
40.5622
343.933
279.365
269.373
381.439
76.6508
224.107
59.0355
45.5758
142.763
308.763
405.237
104.17
62.3206
135.122
112.411
166.508
125.222
92.833
54.4972
69.3412
105.908
111.618
55.1398
79.3711
288.568
56.5162
62.7076
153.542
118.275
114.342
186.283
735.513
462.952
218.539
241.239
80.6899
117.42
43.5568
45.2755
69.7469
423.667
171.693
69.5525
71.3359
41.4856
367.76
420.039
41.3418
166.028
87.7922
41.2571
162.53
41.1246
42.3354
71.4623
70.8156
82.6899
46.789
41.5372
60.1904
67.6964
66.2757
135.944
107.16
42.1431
238.653
47.5679
46.2524
46.912
190.525
77.6222
200.483
118.025
53.928
42.775
67.32
1426.98
69.8968
80.4855
69.1372
63.4337
61.133
110.999
116.092
127.943
300.25
98.4991
816.973
49.4171
64.6977
56.3898
65.1474
44.7152
162.504
122.146
43.8268
280.614
92.4727
71.6286
233.075
78.5936
54.5126
68.9243
69.2907
68.0333
110.368
312.51
65.4216
74.0569
204.23
217.482
675.295
212.205
86.5792
168.18
44.1829
46.3574
108.689
188.476
85.3817
82.1138
89.8552
101.955
47.9137
67.874
100.954
97.6812
88.7138
352.793
460.584
90.2495
152.878
191.925
627.396
315.534
198.474
91.1933
67.1564
96.5893
90.7301
253.631
45.43
47.3727
96.4887
363.729
118.359
78.3168
96.5053
53.0332
107.687
125.384
78.6073
532.777
53.5802
65.1691
131.331
97.257
65.4221
66.137
104.734
106.47
87.7234
56.7137
121.483
44.0102
44.1121
44.1491
78.3405
57.0612
147.129
52.2003
211.453
281.065
256
98.8661
83.7013
44.3191
70.3035
113.023
486.414
255.514
790.817
44.659
57.6981
54.4717
304.672
87.4862
317.767
235.365
229.4
132.274
213.532
89.1889
84.7562
71.8481
45.8183
127.62
66.7032
75.4489
264.031
69.4794
68.7141
50.6419
266.004
385.12
151.322
209.378
648.256
188.964
89.1313
66.6693
88.4647
102.193
181.467
185.304
364.503
45.5191
58.185
71.2806
47.817
61.8207
100.159
94.0237
54.3453
123.229
52.4169
75.3224
50.187
47.2952
122.008
67.6549
111.721
43.6782
44.62
159.435
45.6058
97.4587
103.064
43.4719
62.4621
96.1353
78.9514
68.7333
79.1727
472.038
182.027
122.658
105.384
1846.56
1018.72
604.939
442.156
99.8434
49.1629
1261.12
399.43
53.0923
62.6213
105.105
86.6708
396.478
136.474
44.2684
111.44
58.8829
49.6982
200.187
956.16
136.797
1228.97
150.049
249.866
651.644
57.581
75.4689
132.325
345.448
90.6298
44.7745
45.36
739.812
119.667
375.689
72.5248
158.993
47.599
52.5443
509.113
530.868
80.7326
51.3773
76.5974
573.162
43.1654
51.4861
419.294
510.872
72.5923
43.0688
1034.77
665.66
580.948
98.6241
306.97
514.052
627.736
79.0862
85.9602
109.638
63.8236
105.487
506.748
1324.08
64.2051
60.3523
58.7225
51.5611
46.1654
80.7202
121.19
65.5352
49.5561
47.9326
97.5946
404.725
1222.07
50.5086
225.416
106.216
71.6583
160.333
57.1456
89.401
75.5378
45.4726
196.868
53.1271
535.337
42.6804
780.573
415.725
653.364
200.953
102.633
61.7611
101.855
72.9438
221.78
1458.86
103.289
396.102
174.661
505.849
162.41
745.332
621.88
89.7394
79.2656
1723.12
88.353
48.8019
72.4532
667.198
1127.17
78.5771
51.9188
487.188
75.5866
585.979
760.758
106.791
111.104
828.382
102.331
43.7399
624.132
50.809
422.762
979.096
42.5
69.0871
82.8924
56.4847
121.752
100.267
41.8314
120.364
88.5417
116.64
57.5589
42.3092
206.472
230.983
577.309
50.1128
92.6519
237.726
44.8026
849.065
85.1946
110.158
150.395
437.682
85.9076
328.896
180.524
145.949
56.7717
469.914
222.482
253.58
88.8425
162.227
62.2423
76.0311
73.8787
353.717
202.558
112.396
713.083
150.1
108.999
245.289
120.167
140.85
684.195
249.227
71.4204
152.976
83.8645
148.415
309.463
623.863
58.146
45.0623
62.3947
453.255
63.5153
290.748
57.7587
62.3133
47.6542
158.364
54.0887
202.941
317.509
53.5099
59.6542
90.8843
78.8613
956.527
406.824
114.861
751.863
352.85
121.981
225.885
64.2454
56.0472
796.212
56.0752
346.381
377.031
44.4533
58.0856
115.958
96.2754
56.2587
70.5529
165.427
70.9894
77.1166
65.6335
79.7272
243.023
65.7687
186.845
152.293
238.941
55.0183
721.837
442.252
53.5354
593.409
257.329
56.4739
103.315
600.17
214.257
45.6434
183.007
497.734
206.337
566.607
56.5908
583.336
118.924
54.4712
68.9785
106.591
190.238
118.142
64.6856
224.965
51.2127
230.709
105.2
1316.35
141.125
79.9787
116.048
270.827
55.042
302.215
112.385
106.351
563.579
77.7016
78.0855
1163.64
42.857
101.661
370.907
61.6639
317.572
444.653
149.186
69.0026
82.3919
930.781
220.488
516.032
234.148
77.0915
69.784
98.8566
686.898
660.502
310.91
87.5001
48.2483
84.5948
85.6728
128.837
325.374
92.4653
55.4463
61.9805
60.856
44.2548
85.0155
43.1502
46.8137
119.263
78.4708
45.1742
126.576
239.084
59.586
47.0257
128.612
63.9834
48.1054
54.1271
97.8269
92.5681
48.9186
96.9014
498.347
87.5266
48.4727
54.096
42.6592
252.283
66.1385
52.3423
606.639
452.69
289.251
46.933
590.477
146.927
69.9682
899.229
89.9761
880.201
90.0285
66.4636
81.4299
66.715
43.5991
81.5783
82.9694
89.5599
112.155
87.9092
102.105
166.26
79.1693
82.4356
434.864
86.5135
1450.27
70.8257
697.337
46.1152
116.891
173.708
51.194
67.1685
189.862
42.2887
466.618
333.97
1110.81
50.1998
610.49
59.4498
107.034
182.147
59.8146
590.74
89.4588
294.166
75.6621
752.173
689.863
78.7252
42.4391
444.017
66.9792
447.867
85.0486
94.1352
69.0271
71.7861
55.5428
43.3869
88.0213
303.655
75.3763
176.47
81.0756
86.8739
40.8164
154.68
335.481
88.6271
283.658
131.977
67.8849
118.487
77.004
72.9907
54.7527
147.244
129.657
48.5681
84.3745
81.7352
65.613
92.2272
355.542
326.759
78.8926
87.6014
335.444
86.2859
51.7824
63.4658
46.9122
161.859
163.946
203.932
104.429
68.5159
73.7756
63.4926
56.7723
58.1788
57.4929
485.248
129.64
658.796
515.51
630.046
58.0844
66.9177
73.2294
70.5291
47.3808
327.181
80.9279
46.0936
76.716
111.638
77.1648
273.35
76.1188
155.268
117.038
94.5725
48.7808
69.2317
87.0265
85.7155
66.9797
110.134
96.6504
181.878
85.796
68.9088
78.4047
147.461
166.378
64.4648
78.2943
132.126
95.0305
167.863
48.1097
56.4663
133.591
68.0292
53.4975
74.3756
43.385
51.3355
87.8415
72.5062
369.003
70.5488
88.7127
49.9976
69.0802
603.832
77.6264
83.7491
59.4217
59.6151
85.8547
84.6284
917.791
106.746
356.418
50.5298
59.2491
69.931
41.2625
47.8474
107.889
79.1234
47.7291
44.4016
313.287
106.714
512.704
117.144
258.773
104.205
78.0125
108.927
506.95
179.598
94.0856
77.0431
928.168
63.2143
78.4072
84.0165
80.549
68.4186
918.781
65.8395
88.1554
46.7619
120.709
54.3634
888.887
983.756
65.9015
52.8201
42.7099
88.0344
90.9825
60.1077
1145.82
662.853
63.4792
135.326
479.075
63.738
199.364
123.713
42.7075
60.7997
46.3459
72.5647
207.525
83.4683
76.0906
44.1347
55.1128
73.3833
48.613
341.363
63.4587
144.545
173.412
436.597
342.482
99.9174
134.642
76.845
133.155
116.072
42.7314
595.964
346.706
131.227
89.1997
106.053
87.948
85.5435
233.372
40.9852
44.6254
62.1878
65.0123
135.877
72.8511
351.222
385.076
44.6452
131.226
42.8562
42.371
80.2629
60.6318
62.3486
53.7356
41.2986
232.313
332.866
41.6584
69.6305
261.99
376.164
47.3658
41.6737
99.3929
181.147
910.578
91.753
395.401
321.312
589.247
391.545
71.8851
48.6705
41.9557
58.4302
942.214
56.2066
85.6803
79.3064
41.044
634.878
1064.56
1042.7
193.483
255.365
49.9157
44.874
53.316
83.2658
678.308
555.67
420.788
532.179
396.765
53.6847
47.5897
842.719
47.8091
887.604
95.2421
884.797
79.4188
150.969
112.345
177.439
169.166
169.716
154.685
63.0047
88.7165
69.2592
64.9012
72.1047
66.0462
1282.09
736.307
90.4143
354.401
609.931
346.25
66.6501
45.0224
577.099
488.516
521.214
42.6927
778.504
49.5608
1013.79
564.383
680.165
291.524
52.8359
62.1162
45.759
71.1068
87.6955
172.935
75.7305
84.0701
71.9738
92.9044
77.3394
46.3201
46.9932
124.213
44.4199
51.2997
77.0715
101.28
96.9458
85.0865
149.44
89.2338
71.877
127.598
96.4029
88.6825
91.5497
147.088
989.619
58.9298
325.561
68.8489
88.359
502.867
63.332
57.179
46.7636
113.606
93.4219
53.8325
107.802
99.1971
82.3048
45.7848
65.8969
77.2683
71.2771
102.232
72.359
96.2232
275.028
88.0874
78.6686
74.0045
108.609
76.9014
351.972
43.4885
66.7226
103.723
320.578
250.32
88.3485
99.4306
925.454
227.386
184.277
89.3816
71.4921
108.169
86.9864
53.8648
127.631
77.212
86.2943
429.83
49.9018
162.395
126.645
107.526
106.182
200.987
76.945
57.6074
43.4504
52.9259
98.3581
78.9547
426.065
61.9052
92.0262
127.91
103.531
855.989
56.2388
116.259
105.045
268.44
405.897
142.015
42.9681
135.109
64.8967
45.0148
42.2031
557.428
99.5661
57.1432
417.96
130.162
67.8882
143.69
690.611
1110.23
181.387
71.5836
742.802
96.0108
257.164
142.009
599.815
244.891
122.654
93.0139
509.2
90.4918
68.1781
84.3731
98.8811
53.6473
62.0948
341.401
43.9799
99.946
542.314
155.21
565.058
88.4815
439.495
48.3073
1140.23
105.892
106.079
655.371
246.856
305.421
497.783
442.436
260.362
77.6791
78.4306
418.187
55.3968
84.6055
321.257
66.4971
56.4975
76.7218
166.185
70.0121
49.6673
731.763
482.294
189.254
269.041
165.351
92.0937
80.2765
80.5557
111.525
77.3962
56.9607
85.5152
63.2937
269.024
279.075
124.7
54.1181
105.268
81.5791
127.198
104.624
96.8309
78.59
270.215
58.3398
67.0724
257.921
130.902
592.99
203.266
97.9524
709.343
136.966
111.743
367.484
133.578
127.846
49.4042
511.577
41.747
56.0292
50.1643
84.9104
67.2104
98.9671
241.135
104.663
119.331
79.4441
110.53
99.2431
42.0342
372.096
155.708
569.328
1023.11
107.871
391.628
147.846
68.8044
414.584
67.2948
60.6173
106.379
125.867
696.14
493.483
53.6887
316.87
346.996
95.4769
1928.61
400.298
160.111
352.456
61.607
88.3862
242.126
335.786
145.66
728.82
53.0769
51.7124
154.271
50.3365
48.0413
106.157
323.485
546.282
48.4605
137.458
43.0003
144.356
62.4515
143.756
326.186
93.3907
319.634
59.6352
63.3984
767.898
43.722
53.4314
103.364
53.3355
121.275
253.348
45.9193
933.743
551.506
858.138
486.766
119.396
66.3308
52.5657
61.5475
85.5346
45.9326
84.0988
148.14
61.2879
69.4368
653.611
45.2969
170.296
43.5211
136.52
71.409
725.075
126.994
117.551
44.8184
127.949
150.201
48.6722
59.6295
96.5938
42.7593
195.377
95.9797
103.373
54.7685
44.6386
100.744
45.8678
125.873
460.741
43.724
74.9905
50.2015
62.4287
267.821
214.303
122.258
459.057
860.44
273.674
83.0042
403.352
304.46
639.587
74.3539
212.251
280.32
341.317
311.217
804.061
53.9314
44.1174
211.43
683.887
53.1015
426.937
121.448
444.199
79.8737
64.7889
668.563
604.461
274.16
56.701
259.353
129.783
354.377
43.8901
199.296
63.3345
56.0693
94.1739
94.5805
286.908
100.152
63.3627
159.971
78.794
276.79
419.069
42.9768
80.1776
53.16
846.749
96.9161
130.32
221.967
136.479
70.769
43.2443
90.1983
75.0331
507.251
42.5711
104.25
311.03
63.9429
49.4948
76.4878
72.9815
677.976
136.676
209.702
94.1926
72.8904
940.209
549.309
59.3879
141.684
59.5561
47.2339
411.357
94.949
537.455
56.282
49.8085
93.1012
58.9818
46.4654
60.3204
70.966
134.864
262.822
236.46
362.607
68.8821
70.2507
46.6812
169.246
614.289
939.65
66.5869
386.234
177.229
688.636
75.9594
343.359
109.009
177.998
128.788
80.2409
254.386
77.2335
192.311
112.64
59.4763
1012.17
107.579
477.336
107.394
77.6278
108.269
166.938
70.5015
67.3317
389.473
103.689
119.843
56.8979
122.402
468.731
124.528
78.9536
155.998
46.4697
62.8334
43.895
74.3248
76.5441
146.58
68.8122
91.8311
95.2624
74.3627
74.6821
63.2454
72.5876
59.7858
428.652
48.5887
106.472
47.9431
66.6454
120.502
71.8575
53.1612
77.5385
97.9744
85.5477
124.537
344.815
46.4677
185.067
426.14
158.581
156.246
50.397
156.802
92.5017
344.472
64.0917
43.785
52.0926
173.416
54.4726
65.3305
863.247
223.018
379.186
44.2202
50.2787
192.746
81.129
55.6359
134.844
49.1072
78.1502
53.7954
392.517
44.5711
153.616
44.6207
43.0827
74.6145
66.5236
131.677
106.085
42.0746
307.668
63.1266
66.3521
87.9853
806.433
64.4928
61.7961
123.381
62.9127
56.9723
120.43
59.6903
51.379
107.57
212.403
124.044
81.5436
386.502
108.384
240.14
48.5037
182.4
63.2146
93.7023
242.385
49.112
126.69
65.928
82.1146
152.645
70.7695
564.461
113.089
43.6761
517.421
131.392
956.538
307.106
226.588
85.2815
92.371
122.129
370.908
59.0612
443.751
92.1327
354.679
64.945
426.655
62.4531
252.077
217.901
120.143
328.341
521.586
359.108
1096.37
539.301
350.436
454.684
445.222
323.767
42.31
94.2771
338.906
68.5078
657.378
57.8033
514.635
616.556
115.909
98.6935
74.7384
43.4617
113.152
46.7175
249.451
129.972
82.2602
186.593
84.1624
152.344
71.4902
53.723
109.828
48.2468
216.331
47.4776
68.0184
700.199
65.2003
42.4841
102.014
63.5817
831.394
293.077
73.5783
72.4374
171.427
49.5105
84.9272
49.1314
49.9638
103.418
74.916
54.5375
61.5672
325.836
87.6915
53.751
42.7765
43.7539
45.6789
203.691
70.5803
93.6536
53.2854
83.5561
97.5864
54.7508
218.456
71.663
47.5233
58.9036
82.2145
133.934
110.532
98.3583
49.636
118.683
83.8161
51.2536
50.8775
75.0799
87.1179
101.557
67.0459
120.982
65.292
91.2238
114.714
311.526
775.62
1111.58
119.959
59.6681
517.493
168.115
217.649
44.4661
50.479
42.7717
89.0382
71.2485
42.9929
43.2811
44.3806
109.122
41.9009
47.0549
42.36
58.9939
190.969
51.5373
110.998
51.6279
96.4016
235.993
58.7997
53.1757
65.9913
1087.41
848.687
99.8161
67.1176
68.2698
58.8989
109.615
470.694
62.2926
66.6708
89.708
42.2743
93.7742
49.4471
87.8452
110.167
90.4775
61.5574
200.639
269.354
62.7095
2052.98
275.691
196.384
61.6077
83.6946
97.7505
112.991
53.9364
74.1578
296.707
45.1653
188.532
643.055
103.721
122.255
599.342
63.4433
78.4291
90.1618
42.092
115.05
404.086
90.7389
91.8185
449.93
223.656
1026.45
624.742
98.9098
47.7909
137.999
67.2567
185.557
151.256
564.997
49.8488
45.5756
638.959
52.9537
189.586
78.5783
102.15
659.592
714.875
49.7748
42.8643
914.519
49.433
52.9376
65.4696
47.7108
80.879
161.454
274.721
60.7374
575.713
102.559
51.4193
83.8457
720.587
77.8808
601.324
64.7466
61.384
84.9648
83.6236
59.8836
117.042
64.2209
558.304
116.819
121.211
527.375
120.764
53.0467
736.644
117.06
103.414
85.4662
180.361
105.581
80.6462
44.4711
265.306
72.5939
71.2162
63.5147
127.888
84.3127
58.7908
45.1007
67.639
143.177
72.2291
65.4204
79.8297
493.909
71.9282
71.4836
69.5165
91.6436
46.0118
63.9769
63.558
130.832
105.31
140.632
147.132
88.748
447.565
63.4379
56.0891
421.99
374.187
481.265
87.6933
332.854
51.8665
541.512
93.7595
292.913
94.6861
43.7233
113.145
196.256
92.5684
69.854
42.7301
63.274
413.146
63.4888
49.1931
53.3217
1397.92
273.529
44.2473
1449.74
559.187
323.237
251.109
630.104
262.71
77.3774
253.581
87.3166
99.7617
388.269
876.616
62.0737
44.022
54.0374
485.328
44.615
875.476
146.874
126.759
151.908
122.886
330.659
42.095
114.097
121.617
55.8693
103.316
53.2398
118.366
1989.07
1791.32
819.82
96.9216
718.584
42.7676
48.8636
61.4117
99.0707
44.116
55.0252
42.6116
73.6929
89.0617
47.0588
54.2656
75.5059
46.4697
99.7156
119.087
43.175
113.397
118.701
43.1507
52.5027
864.716
55.5986
848.506
594.049
123.537
130.577
83.3497
121.648
68.2093
51.3419
629.542
58.2437
56.6525
47.1812
49.7588
77.4687
136.532
136.501
173.339
112.831
46.3461
573.715
60.6866
328.697
403.549
63.6793
379.856
84.6661
53.1722
60.758
57.4087
62.0278
46.0075
127.395
50.7842
307.824
219.043
337.488
56.629
56.4476
82.3604
283.081
504.799
93.9426
146.202
64.0607
265.278
63.8005
186.069
406.448
83.2229
56.1968
91.6066
909.897
61.9927
59.0558
118.883
47.0459
136.72
123.088
149.886
84.2831
302.211
169.926
383.834
71.3709
273.131
434.491
310.621
53.2877
172.484
87.5363
101.941
53.4988
65.2555
62.6542
491.251
84.9486
97.425
319.586
81.8961
62.1677
95.6797
45.162
140.664
48.2481
63.8982
162.741
103.559
78.137
164.008
96.251
95.8161
79.8939
124.816
43.5806
284.661
233.781
104.407
104.081
44.3913
250.445
59.2694
43.4362
84.2231
46.1528
106.37
88.1894
50.1829
55.1659
98.2278
295.893
215.541
49.6423
804.32
43.7621
97.5322
94.3107
48.1617
756.946
146.021
658.655
50.0113
67.4627
535.357
673.351
85.6567
100.496
185.887
127.983
48.7716
104.206
63.2022
143.474
81.909
132.149
49.8227
133.818
99.7133
105.051
60.0812
87.1385
42.5024
59.7657
599.012
427.399
104.355
108.333
98.6992
85.31
84.722
162.872
43.5731
49.2582
59.3687
85.27
79.7666
66.4601
110.45
51.1777
57.8701
51.8117
71.5172
57.612
68.8988
199.804
89.2422
67.7317
941.9
76.702
64.0059
77.5219
43.225
82.2655
204.787
45.3775
74.2082
80.5508
365.158
64.2796
63.2734
93.9945
1423.31
94.5418
156.139
116.926
64.7641
84.4974
79.36
62.1913
857.315
93.1449
68.3198
62.5686
42.3445
284.064
45.7775
322.571
416.389
112.119
72.3678
59.315
118.533
86.7083
55.6966
439.856
118.302
291.734
42.9878
137.185
470.828
118.605
48.4069
98.44
53.2122
456.59
55.4032
55.0265
88.442
41.8512
59.7726
87.3025
50.9497
415.733
42.1545
390.161
45.4795
72.0677
66.4672
146.634
85.371
123.818
111.981
576.239
111.07
117.101
74.1185
44.345
104.207
58.2071
52.3857
79.2843
75.0249
62.5193
120.475
46.6588
65.9677
47.21
300.639
86.3474
549.635
550.688
319.468
154.61
67.6771
70.2975
60.3978
190.648
88.3646
43.1957
41.7422
111.744
149.688
45.871
70.3415
1020.9
133.097
65.3599
74.0437
407.913
832.131
58.9999
552.852
542.991
199.457
371.826
159.621
549.059
71.5567
215.225
737.986
73.8712
41.8321
61.1292
109.498
313.566
42.6827
44.0048
70.454
140.1
152.311
836.487
107.512
1057.71
118.251
68.8345
82.672
75.8817
76.8305
480.676
203.489
419.294
474.689
66.4276
343.046
1072.9
65.5712
182.099
121.901
404.701
150.12
130.586
690.501
1019.23
108.973
633.157
123.841
443.509
80.1979
43.4859
150.511
807.759
698.346
62.2505
100.083
143.984
99.1188
259.64
48.4448
72.4324
966.046
358.868
337.037
79.1769
314.793
65.7959
332.984
55.3192
118.424
183.571
275.417
86.4893
122.799
271.604
105.544
819.629
70.7314
59.194
406.841
46.2263
143.013
44.7486
54.4973
42.5336
80.4019
425.235
432.486
319.918
57.8324
63.2154
314.971
56.7798
507.61
72.203
52.8637
79.3921
205.008
153.844
618.094
49.8751
71.5637
62.699
268.905
98.5831
574.948
909.894
420.592
104.579
59.6003
433.922
318.468
147.942
46.2141
61.3048
42.1451
678.244
284.08
418.77
1131.49
239.731
93.1062
78.3185
763.531
409.682
62.676
87.4868
100.213
388.075
60.4244
47.0874
88.2143
80.283
769.678
254.261
221.301
215.135
319.446
317.027
160.176
88.2973
822.987
384.726
709.557
199.98
372.198
670.753
149.265
57.3266
108.005
58.1491
59.0713
78.7061
78.1746
133.651
278.111
83.6635
177.864
181.387
145.85
113.016
190.289
115.164
103.449
127.948
774.139
1115.92
401.183
69.1441
116.621
82.0996
240.694
595.396
156.275
553.635
79.6303
475.558
395.211
172.693
46.9523
42.9259
68.942
63.4396
711.004
95.625
57.8217
447.695
71.1212
866.59
471.443
107.883
471.555
63.2923
44.5866
45.7466
42.3309
96.5489
59.8921
89.0276
127.705
72.1415
44.659
140.118
602.1
545.067
43.5043
104.899
47.439
61.8452
56.4632
623.905
47.617
53.9799
52.932
103.16
45.0048
54.7002
99.3866
55.308
57.868
52.1691
238.549
43.5417
55.6554
135.079
406.806
350
63.6881
458.533
663.679
53.3864
52.0561
164.155
77.9558
337.471
70.8895
89.2888
82.6668
229.412
67.3249
89.6346
1003.68
504.987
82.3985
622.62
45.8203
46.0521
60.779
44.6819
46.8354
69.9858
52.7223
79.3813
216.335
87.9676
316.993
239.341
192.391
79.9904
42.5628
519.126
127.654
81.4599
530.749
100.228
684.393
60.374
421.952
44.0031
183.409
84.9143
222.267
46.1168
84.2167
75.7984
546.086
49.0445
42.3531
194.81
80.6173
139.659
60.2801
73.5001
91.5375
46.7527
140.964
47.895
62.7453
144.873
93.6156
373.884
67.9198
45.1491
60.538
43.4605
51.0205
315.87
42.2127
96.0059
42.8658
217.255
112.832
48.7539
108.529
110.438
55.6607
69.7768
75.3555
125.744
145.014
50.8173
48.2487
90.2881
65.92
289.947
632.271
504.317
59.2373
44.0839
58.6477
64.3125
88.3338
932.51
235.667
62.5138
52.3387
77.2112
45.4181
47.6706
75.2256
152.659
205.723
511.825
340.325
56.2967
78.7361
70.8561
42.3361
218.98
71.7695
119.775
111.916
48.5936
986.522
76.741
56.8916
69.796
73.1088
157.062
606.339
44.4192
440.031
53.9222
723.745
125.204
532.068
68.5838
43.1359
60.2111
104.677
48.0032
48.5082
123.188
43.8407
43.0469
54.222
60.9066
236.785
51.9618
745.581
69.9821
59.9146
156.407
171.477
48.3928
385.994
950.656
736.197
461.204
425.124
54.7344
382.506
287.782
71.5941
56.7605
52.5407
649.731
89.3308
95.1344
47.701
78.1972
263.894
781.374
159.143
85.4422
46.0706
64.7308
200.739
44.8489
55.2931
619.651
453.461
223.175
763.162
72.953
46.0732
69.7636
80.0669
1123.01
50.5449
45.3896
42.7578
263.58
46.0012
49.624
89.567
99.5379
44.1707
111.077
45.4244
141.36
85.0354
139.925
49.0654
236.957
86.4557
110.694
159.685
109.421
192.574
47.7397
620.864
93.5492
266.258
296.334
287.436
85.1123
128.643
207.182
65.0184
44.0661
50.8916
52.9187
85.1677
568.587
115.018
45.6069
81.5578
64.5746
48.1721
119.109
61.8413
133.118
102.609
46.2688
96.1327
48.1204
78.1209
298.18
598.682
71.477
98.6887
79.2863
102.309
516.257
256.013
415.63
827.17
140.004
46.1071
47.682
43.5931
103.64
815.118
78.8329
747.789
110.861
44.0588
116.774
434.46
45.5037
45.9011
54.9428
73.5628
59.7019
217.88
74.921
89.4057
322.561
53.2785
96.0352
65.591
128.051
207.73
50.5172
694.343
81.1601
107.656
54.5089
129.187
45.4527
136.581
123.23
93.6679
89.4595
79.7611
65.9333
69.6423
49.5985
223.513
61.6571
49.7439
113.797
198.967
227.503
169.866
97.6991
108.863
193.493
70.1878
253.136
134.336
130.984
99.1154
103.588
134.359
71.6463
169.458
312.07
97.4264
52.6596
48.6559
259.794
87.8747
99.6632
48.8978
97.9034
87.3956
47.8933
92.1307
410.77
98.6555
70.5982
84.5364
661.973
76.8577
87.8878
146.633
58.0427
152.687
46.4374
786.25
85.1305
77.0733
80.851
54.058
110.967
54.1174
446.188
42.7062
75.1938
661.341
59.3737
107.117
194.817
97.9244
49.226
599.961
58.889
43.6965
102.379
127.854
61.1484
339.091
44.0933
343.619
96.4559
43.0653
68.9796
115.021
721.979
181.443
71.3665
43.4088
129.915
408.309
401.187
115.566
122.541
963.767
211.425
242.237
126.497
79.7187
101.483
59.7944
511.9
1049.74
152.996
158.74
100.196
1179.29
441.263
539.869
388.128
184.585
64.6098
49.7087
152.802
73.749
546.242
304.125
72.6235
949.046
105.211
125.077
70.5903
50.468
103.847
86.3446
89.6791
80.1517
148.513
184.326
867.766
57.3936
119.107
636.277
611.013
182.268
175.097
60.9271
608.01
47.2747
65.8894
340.256
148.443
42.7616
328.289
422.591
72.4301
122.103
48.1411
92.2527
54.5054
80.9268
172.179
80.5774
604.753
44.6286
49.857
85.0387
471.344
172.77
121.725
160.322
257.207
120.082
77.8646
434.937
106.738
67.916
203.398
790.443
219.866
59.4362
341.767
160.407
93.845
65.361
127.242
46.8199
107.844
79.3118
72.896
63.1569
60.0818
84.9065
43.2135
42.9099
49.4743
100.246
49.7179
160.565
388.823
726.511
94.1352
89.3218
59.1458
48.0285
101.996
639.263
51.5742
141.777
71.9889
242.009
66.5103
146.108
215.858
442.567
47.8785
57.1765
279.315
52.8094
68.8188
146.514
97.0452
408.267
86.7698
227.803
477.782
188.621
633.673
196.85
379.603
100.421
174.968
145.933
53.4182
495.588
145.935
83.0089
177.516
105.248
94.7528
43.1271
51.2376
49.0826
44.112
87.6175
350.678
41.8584
950.731
108.536
351.699
112.724
383.365
1053.35
54.8533
246.828
797.784
162.026
353.52
76.3631
69.688
754.881
989.085
290.092
167.606
51.3732
472.728
102.412
639.118
52.7931
52.7608
242.891
1006.79
61.0951
84.9199
50.6064
245.84
518.455
47.6505
431.46
200.721
533.893
716.439
49.4869
341.467
73.8168
629.12
292.733
199.39
437.798
253.391
503.429
350.102
228.308
81.7926
78.4507
73.3687
48.4556
53.5476
1426.14
74.3743
112.197
79.9504
79.5705
145.565
1190.11
156.824
202.347
290.084
161.078
226.952
123.595
42.9497
78.5668
1067.54
645.149
295.985
190.631
253.186
88.8426
493.752
60.2543
262.519
370.484
58.0837
550.185
88.8594
323.707
306.963
185.619
274.046
277.164
169.644
49.1478
132.216
60.0444
566.149
71.9622
194.167
84.203
270.738
54.3312
67.0279
322.32
118.425
272.44
44.4325
1384.39
46.133
58.9506
57.4173
53.8749
102.352
519.78
193.143
105.717
654.321
73.0912
49.6842
56.0551
870.36
94.0638
99.8352
842.877
362.649
909.505
543.663
187.866
269.071
156.895
184.695
721.737
65.7663
432.395
145.664
65.9374
179.648
64.0728
164.741
80.3257
639.318
473.516
580.409
377.794
310.191
273.328
52.6695