/*--------------------------------*- C++ -*----------------------------------*\
| =========                 |                                                 |
| \\      /  F ield         | OpenFOAM: The Open Source CFD Toolbox           |
|  \\    /   O peration     | Version:  2506                                  |
|   \\  /    A nd           | Website:  www.openfoam.com                      |
|    \\/     M anipulation  |                                                 |
\*---------------------------------------------------------------------------*/
FoamFile
{
    version     2.0;
    format      ascii;
    arch        "LSB;label=32;scalar=64";
    class       volScalarField;
    location    "0.0817875";
    object      p;
}
// * * * * * * * * * * * * * * * * * * * * * * * * * * * * * * * * * * * * * //

dimensions      [0 2 -2 0 0 0 0];

internalField   nonuniform List<scalar> 
47425
(
-0.025998
0.275221
0.0983359
-8.63319
-25.7863
0.0488631
-23.6735
0.0332633
10.7372
-41.4756
0.0239234
11.1872
-18.8586
0.03388
-4.50016
10.0527
0.0741731
21.8887
-119.347
-41.4022
0.335629
13.3716
-0.039928
0.435079
12.1641
0.355314
-0.000394594
-49.9318
0.0383483
0.139909
13.4302
10.1278
11.3701
0.249323
0.11006
0.0221365
14.1329
11.1592
4.51093
0.295233
0.576624
-4.78794
-1.00054
11.0766
-42.9071
0.522647
0.0146183
10.9768
0.312506
0.255293
42.2077
-2.79512
0.197413
-38.3911
0.116529
6.28584
0.164565
0.146296
-11.318
0.102369
-40.2353
-37.8869
-55.5996
18.7016
10.5747
0.757252
11.4563
-5.04833
-46.8449
20.5993
1.39326
0.351875
-1.26994
0.598404
-49.3821
10.4173
-54.9288
0.11451
-61.8792
-25.9994
-51.2562
8.15369
18.5651
10.2923
0.821225
-0.380148
-1.41193
0.259987
-7.24572
-31.6431
12.6788
-0.315285
0.299656
-0.351282
-0.303728
-0.0510766
0.156551
-0.30306
-0.0574714
9.2504
10.1808
19.0379
6.96841
43.5888
7.02093
-1.76109
0.500487
-0.0610065
0.461022
11.4613
-34.311
11.0743
-2.15712
-0.458201
-3.52996
31.3689
-3.117
43.5198
5.87133
-6.30354
-0.521554
11.3941
10.9657
-12.0382
8.9644
-3.81372
-0.293465
10.4728
0.274869
0.437469
19.3511
-1.49458
52.3212
5.81922
-4.68652
-14.821
0.487961
-3.70101
8.9407
-3.13653
11.4379
-6.04364
3.73983
-3.57576
8.94381
10.5385
-24.6023
10.7226
3.75267
11.3224
-3.00181
34.9124
10.7705
-10.0738
19.0485
0.560284
-1.28954
-126.358
0.00436334
0.0768327
-5.05593
0.526688
0.264912
8.6626
-53.0071
-95.2327
10.7598
-50.2638
0.494891
-49.7584
-50.398
0.40169
10.5306
16.2391
-0.113731
11.5966
24.3393
-0.0135464
0.157159
0.183705
17.7
0.451828
0.0197126
0.22838
0.26781
10.1476
7.90337
47.075
0.21689
0.296826
11.2784
0.211355
-14.5985
11.4958
0.281839
-4.30146
11.4756
0.30463
-5.03314
-0.157281
0.160764
-1.09258
1.02935
-4.01544
6.64476
-0.338618
0.0244281
-3.51828
10.0534
10.4164
-0.0633613
-4.41492
10.4994
0.46531
-0.996423
-5.40749
-0.420964
-30.4398
19.188
11.2796
-28.4976
-7.02886
1.31871
-0.760796
0.0311703
-26.3374
0.261968
-5.14665
-7.59123
-12.0233
-0.105836
0.0740525
-0.960742
11.1048
0.0741482
10.2847
-31.2009
0.352348
-28.2824
0.0737617
-0.0202241
0.232072
0.267024
-8.52526
6.0568
10.4306
-0.125851
10.3158
0.348343
0.109758
0.446177
-24.3104
0.000746598
11.4601
0.217399
0.0164095
12.709
0.077974
5.41464
10.3517
0.125408
11.01
7.65615
7.56637
-14.7407
-0.844355
0.0560225
-14.4699
0.343498
7.61159
8.07706
-28.3856
-30.8963
8.0242
-26.0343
8.242
-27.2359
32.0272
-29.4375
29.8429
-37.1723
0.122397
-41.7454
0.366321
0.266928
-6.04741
0.326695
0.0415401
0.644288
-3.29254
52.8518
17.5905
10.611
0.141857
0.0546171
9.15879
-6.97093
8.45412
10.8532
-12.3243
0.171144
0.383751
0.0421375
-0.0406075
-47.0861
-59.806
32.1644
0.223454
0.202072
9.24105
8.61312
44.8824
0.00558318
-0.0358325
-21.3697
-0.021647
0.296224
0.0358167
0.118824
-34.1665
-20.2045
9.83113
9.4164
0.0312278
-0.180316
-0.0645505
9.67887
0.22615
0.240243
0.0504713
-9.17298
-54.1639
2.88093
0.0687346
11.3229
-0.0323722
-53.3229
11.0839
0.27662
0.495611
9.75313
9.53282
0.516609
11.352
0.285558
-0.00124996
0.158072
13.9098
0.0668129
0.207174
10.0464
5.31275
10.1514
11.004
10.3935
-4.09953
0.267568
18.0284
10.8292
10.7155
16.3633
-6.77587
0.406516
0.0518646
6.43172
-1.35666
0.0521253
10.7488
11.0422
7.82578
0.00652899
-44.6307
-1.51553
8.9598
10.5543
8.80226
-5.83547
10.0747
10.4215
13.7367
10.3392
8.73326
0.49209
10.9068
0.54206
10.9312
0.0595524
8.10457
11.3884
0.0633528
4.23204
5.66682
0.0791114
4.95463
0.319079
4.81598
11.3657
0.0363112
-15.4452
0.118032
-33.1303
0.208036
-37.3385
0.181213
0.383597
0.155536
0.0235023
0.209918
-0.0722401
0.0237227
5.62683
-54.0333
54.9028
0.368705
5.19773
2.37789
0.839517
0.284363
0.0498753
0.23475
0.131676
0.356355
0.372725
0.762518
0.0189073
-0.00610381
-10.5213
-7.38448
-3.84984
14.2644
-53.4749
-1.16216
24.4203
-52.8991
0.765077
-54.7705
-35.5925
0.464464
-2.24813
-1.20602
-5.26364
-55.8915
-0.0670624
0.419206
0.266306
-5.87717
-3.51626
0.25768
0.409936
-29.7566
-54.1839
-28.7434
11.2253
16.9073
-5.40115
0.346386
-1.24587
-15.6837
-1.04381
11.1948
11.4418
11.4653
5.11482
11.3783
0.473349
8.69734
0.14438
-3.20946
0.413458
0.279056
11.2588
11.3718
10.2587
6.16557
9.41289
0.22091
-2.25416
-29.8153
10.332
-15.4748
11.4035
-3.50052
-13.6942
11.2373
0.330948
9.70305
10.741
10.3489
7.53389
0.337773
-2.36049
9.81982
0.0900797
5.85311
19.3394
0.415058
12.3379
10.2616
13.83
0.26388
0.160803
0.676584
-0.0195858
1.97957
-0.00138026
-0.0340501
0.3145
0.476704
-2.2028
0.0564232
0.0637037
21.8421
-0.0141191
0.78207
0.522273
0.364697
0.118781
0.198072
9.40149
5.88894
10.5093
10.5123
42.2995
0.150357
0.0260364
10.7463
10.9633
-22.3073
-26.0397
0.222459
0.516151
0.522578
-12.9555
10.0426
-29.4879
11.366
-32.1079
25.0264
17.7791
0.0584918
-23.4054
0.241781
0.253845
0.197644
1.16143
-0.0544671
0.329516
-54.0348
0.157959
-0.0204613
0.23078
-20.5113
0.30415
0.0734025
-20.9179
-17.2533
0.168722
0.145696
-31.0843
0.262828
-2.31699
0.0684268
0.338813
0.350009
-12.6163
-14.7901
17.674
0.659116
0.398754
0.0117421
-29.47
16.7826
1.40789
-30.8429
0.117256
0.162221
-31.0432
-43.1858
12.0578
-30.8427
-30.8529
0.0410213
11.3242
0.100133
15.2359
10.2964
-0.0483351
-44.9742
9.8106
-0.0122879
0.230118
-18.4231
-11.7614
11.3619
4.88491
-50.4343
-27.5138
0.177065
0.177646
-0.79214
1.31592
0.281984
0.37283
10.2956
6.40801
11.3698
-3.85477
10.5193
-30.7751
4.22911
2.27752
-32.5856
9.01597
0.286964
5.76329
8.55057
0.319995
10.782
-4.68816
27.6199
10.5417
-2.75401
0.624619
-77.296
7.68744
-14.612
-45.0148
-45.7371
0.183293
0.312564
-48.0926
0.00195501
2.19481
-31.2374
10.8407
-41.6707
-0.0375367
0.154496
10.6585
-38.0405
11.4741
11.5402
0.415144
0.170995
0.398638
-0.0120294
0.285702
0.654377
-0.541822
-34.8192
-27.6397
0.353904
12.7408
0.0999021
16.4692
9.83572
11.4328
11.447
11.5004
11.4306
17.9086
1.38128
11.3846
8.10417
-6.21148
0.0407726
-57.1994
-31.9611
-0.00215563
16.8039
3.04
0.0780691
-57.8337
0.014672
-51.8398
0.308823
-16.4965
-16.6
0.434127
11.9138
7.94884
24.4141
0.0227616
0.297511
-0.549569
-20.7352
11.3072
-19.5239
-0.714799
-54.7986
-14.8713
-0.698643
-17.525
11.3848
0.414361
4.20487
-0.491346
-18.6746
11.2799
9.95902
-18.0188
0.0705379
-0.749949
-0.0958606
0.278597
27.046
25.558
14.2189
14.1013
-0.00752582
-0.0581626
0.572409
-0.380897
-3.37955
-0.00933007
0.26377
-0.00304967
0.392398
29.153
-15.363
-0.086941
10.2262
0.266611
0.366985
0.192984
-0.027602
-5.23083
-27.8502
0.268024
0.145411
-0.0429627
0.455228
13.4356
0.0694022
-1.1511
0.34794
0.331159
0.391395
16.7627
33.925
0.434774
-30.4217
-13.8466
-36.33
-30.3572
-0.541805
-9.77123
3.04595
-0.732618
40.7973
-30.9383
53.0182
-14.321
-0.563803
-23.7914
0.20419
55.1585
0.740902
-1.25343
0.620744
0.131865
-14.263
0.509643
0.429227
0.325575
-30.878
24.1594
10.6992
10.9715
43.0715
39.407
-18.2106
-46.0981
-31.6342
44.547
41.5595
10.8557
0.295171
16.3235
0.260509
4.89913
-31.031
0.0763402
4.14685
5.39758
0.291084
-31.6386
-31.4574
0.0794806
4.25072
0.50461
0.306472
5.47241
0.269876
14.5056
-0.0204291
0.40316
30.0784
0.00381859
0.0486946
0.0682296
0.188814
0.231453
50.0478
-21.7447
0.0746103
3.59094
0.384871
14.2097
14.674
-17.7919
0.218432
-30.06
-19.3532
4.61691
0.800173
22.5209
-44.1116
-0.0235117
-0.0526454
-8.02368
0.317324
11.03
2.55417
0.00202957
11.5335
-33.6455
-20.0046
-44.9613
11.5013
24.9057
0.0765105
-13.6107
15.9115
-18.7164
-0.0754176
17.4247
-36.5836
-9.37284
-20.1874
-31.0428
-19.0812
-0.880113
0.0349544
-15.0382
-0.0462665
-20.1521
-29.7436
-0.0237865
-21.5931
0.32435
0.434186
-39.7587
0.315945
-0.0525584
15.0081
14.2173
10.5085
-26.6685
-9.28948
0.485078
-13.0676
45.8709
-1.93141
12.7072
0.549157
-1.56371
0.364408
0.316209
-31.6723
-55.2391
-11.3982
-1.97874
-21.163
-23.0171
-32.7688
5.5891
0.227593
11.0865
11.2837
0.383052
-13.9327
15.0409
22.0044
11.1512
-30.1714
-19.5065
1.5374
0.0811487
0.286267
-0.222592
31.109
10.8568
-23.7049
0.000759306
1.59601
10.9637
10.9477
10.8468
10.6634
11.1924
-21.6234
-4.9988
22.2315
26.1128
15.9785
5.61989
-2.97336
33.7371
-1.0421
-9.33421
-2.05673
-18.4563
-13.4666
-15.3046
-2.17904
11.1968
13.9227
10.9979
-0.198282
-36.0285
-33.767
-44.7856
9.18986
-11.2086
4.1554
-22.8602
-0.0385957
-39.3171
-0.0919013
-0.351827
-13.2836
7.15151
-0.187885
8.31103
0.226358
3.80451
-14.4103
0.393072
-4.67228
-27.2131
-7.86128
-3.07304
15.4242
48.4867
-53.026
39.1815
-30.3125
-59.5116
0.271739
0.258253
22.7172
0.188512
49.892
0.232368
0.217207
-54.0922
13.5835
0.734898
0.395125
10.7759
20.7023
9.36315
0.216721
11.903
-21.8198
8.31009
11.6971
11.9073
11.3917
0.278093
-16.4806
-9.11677
27.2893
12.9717
0.261187
8.97191
0.278601
0.289097
6.67178
-12.4128
-6.16817
-13.5801
-13.083
9.17858
-44.4221
0.281047
0.297381
0.215025
-47.3697
-48.7035
-29.9587
-30.7149
-0.993609
-2.02402
-41.5647
-31.5847
-7.73074
10.4609
0.24343
-1.05447
-42.9128
2.47304
-3.59714
0.406313
7.64625
-0.868986
30.5052
-112.923
-18.4927
-34.153
0.462793
52.7588
-53.209
0.742165
9.26025
0.813632
-34.922
9.3449
-7.58945
16.3604
-29.786
-0.397525
-31.5351
0.769068
-13.4468
-0.425633
5.58438
-35.0936
-33.2188
8.71645
17.54
-14.6521
-47.099
8.12271
0.00435622
-34.8108
-41.7878
10.0307
7.46212
-63.0876
-53.4563
-44.2041
8.86896
-12.454
-26.4721
-43.9186
8.27679
23.1965
-23.1795
-11.5783
-9.25182
-32.5199
-42.0868
-7.16277
6.60641
10.6231
11.0212
12.4613
8.63059
-5.51258
11.3785
11.3382
12.2884
-1.54131
-29.8073
-39.6436
9.4154
40.2578
-22.7027
9.79826
-19.6843
4.2112
8.64717
-11.9876
-4.38512
8.82284
7.82513
-56.741
11.7617
-37.4796
-54.7507
-37.272
8.39578
-13.3298
10.305
0.637323
1.21151
-20.9783
-42.3537
-0.298267
-31.8162
-20.9342
57.7074
-24.8548
-47.6199
-32.9676
-0.0903308
-0.286245
-44.4042
-1.41892
13.3421
-0.0435572
-46.0216
-43.0395
-0.0261509
-1.2294
-36.7209
-14.7341
-44.4837
43.7247
0.14364
-5.94602
-47.1009
-1.93687
20.8846
-35.147
13.4405
-57.3712
-19.8895
9.48026
0.238415
0.0733779
-0.94144
0.184786
-0.851793
-2.00964
0.168813
5.7274
33.0446
13.6439
23.1918
-21.4058
-11.3527
27.7999
-6.16594
2.55907
-15.5571
11.6917
-70.6242
0.434364
-0.32989
0.51328
-41.2117
0.285108
-59.7831
0.366376
5.30561
5.47492
-54.3059
49.1894
-31.6312
-26.8896
32.9556
-5.8139
10.8552
-11.9534
-27.8572
-30.2743
-29.0147
42.7517
10.7034
-20.3531
-31.0033
-7.86502
-7.83344
-41.1949
-31.1551
1.42185
-18.3299
10.5868
10.862
-24.9847
-47.5834
-3.34642
8.71339
10.7481
-53.7497
10.8868
-11.8077
-14.6968
10.8754
11.1062
-24.8326
2.61334
48.5546
-24.1381
2.31963
28.4235
25.4557
8.16111
-88.9506
-42.9757
-18.9988
-119.774
59.6771
11.178
-22.327
11.176
22.0686
-56.6041
1.40907
-56.2046
-29.1543
-5.59864
19.4646
-10.3976
11.0337
11.0776
13.7489
-24.2149
1.72282
0.107962
24.7095
0.11284
-17.0152
11.9487
-15.5407
-3.06105
-28.3002
14.1192
-60.337
-44.2906
4.60065
-39.6678
-30.7583
0.0811885
46.6458
-39.3359
-6.74211
27.8178
-14.2107
-21.3402
-27.1297
-36.3322
5.85216
-48.3652
-24.6714
4.32986
-3.39981
0.428701
-27.2854
-6.14509
23.4461
-18.0962
0.0497792
22.395
0.418169
-64.366
0.0216933
0.0560266
-9.00694
-26.823
19.6954
-11.1975
-16.6348
-10.222
-56.9167
0.0265835
-16.189
-67.4791
0.373443
-9.99945
55.8445
-9.21429
-33.6512
-51.7938
0.0519491
8.56176
0.0320771
-130.497
-30.3845
-27.3917
-29.868
18.1267
-7.80993
-1.82636
-41.2071
-51.2137
-18.7168
0.266613
10.9233
0.630299
0.41329
0.637209
51.4736
11.3164
10.6195
-10.6697
0.368398
14.3432
11.5101
20.5258
11.0669
0.132086
19.9713
12.0082
8.74875
-21.2139
0.837376
10.432
8.2935
-13.2255
10.4668
0.360609
0.376775
9.01977
11.3829
11.2138
-54.3845
10.3981
16.3729
0.524126
0.228383
-27.95
12.1458
11.6106
-52.2057
-49.7114
56.8433
13.1881
-53.4261
22.1289
0.142442
-50.3416
8.51813
-52.0022
0.106664
0.0273208
10.9471
17.3105
9.19787
0.173461
0.177061
0.637944
4.77192
7.28298
0.496184
-21.7522
0.353855
-15.8283
56.3397
10.463
-47.8113
-13.7557
-73.4993
0.422182
9.23175
0.109072
11.8738
0.193795
10.5175
0.548046
-44.0618
-27.8535
-40.5601
-6.65553
-14.5574
0.615063
0.59869
-33.7455
0.775839
-54.4632
-3.45892
-49.0548
0.641046
-59.9583
-89.0125
-1.13815
0.0146685
-32.6426
0.224954
-32.3599
10.2105
-0.340429
0.578555
-0.867959
-2.35333
-2.99904
-15.8067
-34.3157
-10.4363
10.2442
0.647766
10.3293
0.295305
10.182
-33.5751
8.06319
-33.1789
-0.801325
0.843459
7.73608
0.335034
8.03352
7.31152
0.156563
0.471596
11.0193
0.264053
-6.09654
0.200445
0.12876
-31.7691
-31.5766
-4.17339
-0.664874
-25.0192
0.20789
0.233421
0.243975
0.270008
0.0831849
0.228717
10.3756
10.0915
0.456286
0.366254
39.6327
-0.0176606
0.238564
0.37905
-50.4783
-1.0738
-54.4476
-39.3656
-48.6031
7.60129
0.232415
-0.735896
0.0495257
0.403757
-45.3026
-14.2537
0.369782
0.238119
-0.824692
-0.895125
-29.6471
-0.951057
0.00137802
-19.6397
0.476049
0.380202
0.168352
0.356195
0.0935582
0.247265
0.391968
-14.4116
-20.5978
0.055665
10.2814
-5.83449
-12.5482
-11.2702
0.363363
0.450389
-14.3829
-0.0499327
-0.0426176
0.427639
0.267766
-13.5864
0.0455868
0.619919
0.430487
0.320103
0.495597
-8.92548
-0.0653677
-45.3001
0.249725
-18.3694
-0.468843
0.0252154
-47.1221
-0.0370343
-1.17555
0.118737
0.415762
0.487859
-1.0793
48.9112
-1.0925
-34.7845
0.295955
0.108665
0.677676
0.344225
0.147534
-0.805594
0.232209
0.313557
0.0471796
-23.158
-12.148
-42.4479
8.85792
-17.3771
-0.814477
0.219448
-0.742297
-35.1677
0.0712613
0.0519909
-0.0222934
-60.2366
0.0223519
-0.211529
-0.0149083
0.253327
0.288432
-150.284
0.0226075
0.66696
10.4049
0.00161048
-9.14637
28.7003
23.5163
0.0458733
5.49207
-0.0638121
0.386893
0.299477
0.139767
-58.9223
-50.3694
-0.0124852
0.266589
-45.2431
0.0530419
-8.45808
-25.4476
0.0582314
0.409659
3.45494
0.0439703
-12.8673
-0.0520845
-0.499637
17.7795
1.19063
0.0359715
10.3918
-29.0659
10.4462
-31.1785
-27.3677
-31.4845
-28.0024
0.448484
10.3806
-21.5094
10.5253
-1.88389
14.7509
-37.1841
-29.6138
10.834
-11.6626
10.8239
0.183159
0.255628
-30.6394
0.335377
0.380487
10.6505
10.6829
39.153
41.9456
60.3704
-20.253
26.1146
10.8496
13.0609
20.9295
10.7117
0.281104
-0.0461741
0.26074
0.158669
-30.6267
-30.5124
0.392813
1.61502
-7.40312
-52.9536
-3.64451
0.231898
-2.6108
-25.1066
-60.0623
0.289387
-39.1292
-14.5375
-32.999
-43.8175
-15.2091
0.321853
0.245123
11.311
-61.6982
0.0999007
11.4136
0.155277
0.19133
-50.2977
-50.2955
-52.435
-1.46245
-31.8063
14.4118
8.12398
-0.144557
-17.8307
-54.7586
-53.7533
-30.6501
58.0575
-30.7833
31.9999
10.2949
-45.6769
10.9765
-64.6136
10.3581
-60.5401
10.2598
-29.9575
0.700287
-22.5776
10.8805
10.8063
-0.25416
10.6739
10.5546
31.9041
1.29477
10.7834
10.5539
-72.9165
-45.6452
-17.2065
-28.5976
-46.3723
-28.5962
0.371832
13.0246
-40.2615
-33.6932
-40.3878
11.9032
-51.001
4.23232
-53.1018
-54.3406
-40.424
-26.1841
13.2373
1.41612
7.53263
10.7004
0.722347
-35.1182
-4.16641
-1.91869
0.60426
0.0470902
0.133121
0.480979
0.264437
-28.9406
0.328008
0.15702
0.3101
-0.200839
-23.809
0.571462
-0.0237485
0.15171
0.678701
-12.3049
-8.8886
0.352273
11.4158
-34.4352
-53.8839
-3.90192
-47.1698
-13.7943
-3.34246
-26.9953
35.0076
7.41621
6.73591
-10.7475
-0.0257302
-0.00367307
-6.69491
-0.0635148
0.0451847
-2.72136
0.036825
0.636967
0.96403
9.9436
-7.56644
-0.291122
41.0222
0.0442057
10.7577
0.0169268
-0.0494726
41.1086
-45.7186
22.4083
0.0466841
-0.911262
-29.628
-29.9129
-3.37996
-0.0111597
9.51993
-15.1141
0.104912
0.0977152
-15.465
10.5956
0.0905676
11.4959
52.7354
-0.705503
-1.14616
-21.4172
-4.01757
0.254736
0.172074
-1.37893
10.547
10.5215
8.93763
10.6208
11.082
2.62215
1.22524
-7.99321
-53.0458
3.28292
-8.33012
10.5786
10.491
58.5672
1.5495
-0.519482
-1.03914
-22.0442
-41.0556
3.65798
14.2406
-1.20515
27.4483
-7.53323
13.1786
-36.1121
45.5221
28.0535
-24.7978
3.61934
2.52511
-22.2944
-52.6359
-83.2659
-2.36403
-14.4942
-53.5463
0.364524
-19.2634
-10.829
-41.3594
-30.1034
1.71215
13.8405
-54.6963
8.6303
-10.7221
0.320037
8.92721
-2.7436
14.9216
1.8283
12.9099
8.03738
-39.1141
1.76129
55.2612
-22.7309
53.1848
30.2356
-77.2368
11.5214
11.5614
-63.5735
-17.521
-4.8224
-33.7775
-28.6859
-0.635635
1.54471
1.15556
-34.3961
-5.83441
5.12446
56.3947
-11.3772
10.8348
-9.46365
-23.1029
5.89236
6.03582
-38.4028
-33.0505
-30.2639
-30.5948
0.0990939
-19.6882
-0.52858
-20.6471
-11.7818
0.747533
-0.945271
-18.7447
-7.81193
-30.5504
-30.3375
-5.71077
5.31811
-1.40725
-15.2341
-25.5866
7.32039
7.13205
-19.321
-30.0564
7.76349
-11.0975
-29.9454
-0.514988
-41.2972
-2.77835
-8.27932
-48.0311
-0.353269
50.2403
-13.833
-1.13754
-1.18276
-2.3608
-54.0106
0.358995
0.430137
-5.44127
0.247696
9.8054
0.292565
-33.8762
9.63764
33.8392
10.0726
9.81041
9.54466
0.316666
-22.5677
-14.031
-14.7296
-51.8235
-4.16043
-42.097
-15.2584
0.0284586
-56.9666
0.00549585
0.311642
-2.03867
-12.0092
-57.3119
-30.978
9.51171
35.9646
-18.8812
0.382579
-37.1527
-43.962
-12.3217
-45.692
31.8769
10.3627
-13.9497
40.8907
10.4062
-72.6118
18.5312
9.41376
46.6871
32.351
10.382
10.57
58.1599
-41.6848
0.471147
51.9118
5.71335
10.5358
-12.5919
10.4156
-34.2445
6.20674
57.5999
10.6387
10.7749
35.0393
8.92372
16.1068
-5.79782
-4.65969
13.5542
-28.8589
22.322
-24.513
-57.4717
-74.1727
-29.7127
10.869
34.6657
12.4125
2.90948
5.61286
10.0794
10.3274
-0.196768
-0.0399693
38.7729
-46.4571
11.1378
-31.3628
-0.0210904
5.33615
-20.7197
-73.3152
-0.0665343
-19.0272
11.9002
4.16782
-0.224069
8.76176
-10.7359
-0.0539564
0.487267
-25.2784
0.626667
0.361497
-9.8565
8.99489
0.343716
20.6846
0.401425
-24.7669
25.6827
0.257759
14.2426
35.0472
-29.4142
54.8568
39.4829
-34.2404
-66.3318
-29.6133
-29.8393
-29.4831
-29.5525
-33.2388
-26.1875
-36.7543
-29.7425
56.6986
-6.02336
-49.4805
9.76225
-1.75493
-41.1624
-47.6433
-6.09368
-30.9103
-19.7601
-30.2001
-17.2594
39.5009
-49.3727
-39.3676
-29.3024
22.2682
-29.2305
0.32957
-51.7736
21.4657
4.40658
0.0194825
-3.82908
43.5913
7.37697
-20.3477
-9.91028
11.2597
-0.0830753
-9.69153
-29.1844
-34.3757
-3.48945
-7.86707
17.2629
-31.7348
-11.1803
0.178079
-26.494
44.4854
-4.47045
3.89511
0.213812
0.668558
-40.4896
8.7722
6.88761
0.803387
0.0724421
3.48387
-4.47813
-5.05702
60.7377
1.49202
-17.2913
-9.02914
0.259532
-53.3865
-52.305
7.44527
7.60892
6.78239
9.72623
-27.2405
-13.0431
54.2669
-10.0908
9.49438
-18.4423
-6.1039
-7.23728
7.25187
-15.289
7.22216
-24.3174
-29.8405
-39.4924
29.9024
-14.9695
16.025
7.48119
-57.6506
-72.2021
31.3289
-51.9018
8.02146
-62.9714
31.1787
-5.02917
17.6767
-23.6638
-1.36192
0.238543
-9.18862
-16.3712
-41.7482
-1.45444
7.56019
-94.4517
11.3597
-35.762
11.2178
-3.78576
8.84721
-0.700254
-2.73858
0.178708
-12.2243
6.3941
-0.155407
13.8765
-1.66415
-49.0374
33.3845
9.7296
39.5663
10.6642
-1.79353
9.69931
11.4462
29.4903
-1.82601
29.3787
0.0594543
-1.62682
-21.8803
0.422608
0.0789835
-16.5127
-10.3031
-26.5309
-6.56233
31.6477
5.72195
25.871
0.266742
16.813
13.3443
0.298988
0.281654
0.274766
0.561445
55.4985
0.257109
-12.0009
-31.5304
10.7308
11.0851
13.4074
10.9351
-24.2311
-31.8588
-2.66857
-6.35197
-6.34177
-18.2947
32.4276
0.228012
-62.6794
-12.4352
-38.0529
-1.85393
7.27188
-25.7356
10.832
10.9805
-22.5298
11.0718
-0.40991
5.49852
-43.4052
15.8377
53.2969
-1.48333
-2.12855
32.4739
5.06098
-0.925815
32.6924
6.46957
-18.2936
35.5521
-12.3787
37.4354
-45.7891
0.148955
11.4359
-2.22849
-10.371
-2.28962
0.43455
-3.1455
0.143447
11.4416
-36.5441
3.07493
-0.00182698
-38.0191
-1.05629
5.36006
10.9069
11.0307
23.5212
2.49407
-1.80832
-7.61396
-2.90663
-15.1382
10.7031
0.0740632
-22.7945
57.9699
-23.7647
-0.805258
56.6299
10.9346
-51.2133
52.6743
-3.88418
3.82811
34.4688
11.0641
-30.2028
36.2455
-30.3922
-7.06623
-30.1738
-15.9228
-35.9178
32.3241
-7.50238
58.7625
0.317176
-30.2483
-30.4886
-56.0136
-49.1641
-38.0354
-57.3709
-41.3216
-33.1775
55.5221
8.31531
8.92457
48.709
22.4461
-49.8365
5.78127
-51.8708
42.76
0.530059
9.25904
0.045703
0.362635
0.306619
0.3551
56.944
0.148174
0.311071
9.82866
0.48658
0.60305
9.46317
-7.64848
0.403446
-9.62878
0.244892
5.64065
24.804
-49.508
-1.83336
0.449098
-8.4914
-1.74925
-40.2028
-24.5356
-25.006
-2.41164
36.29
12.2731
-4.14221
-6.92605
6.90752
2.5389
0.416958
10.2034
9.67392
-30.8745
0.563199
16.5817
-4.94174
1.22642
10.3818
-3.81073
6.55975
10.2133
10.0051
-15.7895
9.77088
7.21579
50.4924
23.3731
11.9826
20.9534
9.41381
-3.19476
9.82893
0.129353
-5.50785
0.138982
3.7949
0.0819494
21.0158
9.38558
-19.4573
21.5607
0.0424974
8.26213
26.3134
-16.9722
32.2257
-29.2012
-55.4115
-39.6403
-1.63727
0.105388
-30.5682
34.3982
-12.8514
-4.10039
7.63153
0.317123
-1.15337
0.0793853
8.1081
11.3313
27.4543
7.39774
-0.0813697
10.1608
10.1173
0.0124939
-36.5404
33.4519
0.0496404
6.33906
-14.5151
41.1256
11.3335
8.76078
-12.2546
-50.6283
-50.0898
10.3957
10.3266
-5.64764
-9.47367
-11.7772
-32.7305
30.3184
0.190288
-0.768171
-2.77996
0.392512
17.7555
-18.354
0.498679
0.33794
28.6097
0.319516
-12.2013
24.9182
-37.8377
-28.0828
0.30386
-13.6106
12.309
-0.0849104
0.30619
10.9305
7.77162
-2.76275
19.1953
2.33537
-46.7077
0.387924
0.388567
-36.789
-4.2281
12.0452
0.428961
6.52748
10.5771
58.278
0.395377
-12.5186
-37.5242
-42.3278
-96.5398
-63.177
0.387549
15.0068
44.6979
0.0127545
5.85442
8.11619
-41.3581
11.5566
4.78196
-40.8097
11.5478
23.2153
-19.134
7.80327
-41.4424
-54.882
13.0754
17.2561
-44.6459
13.3749
9.36477
1.06149
12.6851
10.8283
-0.573931
-38.0359
-8.86468
5.20786
12.4664
10.235
11.2457
-0.557419
-0.0545246
32.9288
0.0136009
-10.3083
-1.31276
34.7589
10.9523
-14.2305
3.03877
56.021
-26.3588
-31.552
-42.9331
1.60159
-7.3739
-58.5381
-21.5012
12.7675
-17.8775
-9.61909
-0.0278137
-12.1371
10.2485
3.16215
1.28698
0.00803403
0.131369
-21.8985
-7.16984
-13.6378
-0.260517
-1.49968
0.223337
-1.66919
-8.02741
11.5455
-47.041
11.9207
-2.09366
-2.02587
9.8413
9.68146
10.6654
0.06667
-1.89828
-13.4163
2.34789
-1.73468
-2.21782
-30.3393
2.2896
-9.18151
-40.9127
-31.2185
-29.6373
12.6407
-31.6174
16.7731
-32.3545
0.175054
-30.212
0.24646
1.25722
-1.80946
-7.08969
0.155862
2.23639
-3.68395
10.4702
8.87743
11.9814
-6.89078
-7.30683
-49.1441
-29.8164
21.8
35.4799
-35.6525
-27.1812
-31.4166
-51.8562
-29.6031
-11.2529
-29.7946
-0.147537
-0.536753
-49.3695
-55.6754
-6.60843
-1.98339
10.2845
51.2431
-4.71078
-55.218
-3.64339
3.25747
-5.52527
-1.90306
-29.6935
-0.884429
-0.433869
-0.205622
0.560634
5.32225
-1.28
0.484972
-45.2547
-46.209
-43.4033
20.5649
-37.0106
11.2526
0.387481
12.8227
4.80091
2.66031
19.7795
10.4355
20.921
-0.140723
2.12538
3.67338
-0.667247
0.400904
-14.8124
7.23351
11.8187
7.25558
40.8385
0.179703
22.2432
-59.6245
-7.19826
-49.8997
39.807
8.86382
7.74476
4.88379
-16.2129
-10.7592
10.902
-36.557
5.95367
7.54863
-6.74732
16.6723
8.05308
-7.18907
-19.1003
-15.7096
11.454
-2.97411
-61.412
-1.34094
-45.9154
-31.3941
11.3372
-55.9085
-9.78994
31.771
-2.6108
11.3159
13.5674
15.8947
-8.54267
10.5668
-29.9603
-16.058
-29.9465
-6.16097
-9.28972
15.1356
-29.3998
-27.4909
-0.152532
-0.923993
14.1407
-29.7042
5.38302
-6.53875
-47.7011
0.155033
-0.775108
10.0115
-52.9163
-7.65727
-3.33738
-0.183384
-3.2463
9.68104
9.48726
-4.18188
9.7415
-32.4549
9.72493
-55.4867
10.0026
-32.3564
-33.0406
-10.376
9.32861
-10.4041
-0.763649
9.33661
-3.93122
-1.28942
-10.3213
50.0393
0.125545
32.3541
-12.7938
0.157233
-5.06157
0.171211
10.9146
9.56597
10.667
-10.0959
0.112547
10.2277
-2.69144
0.120495
0.461161
-27.0525
-0.11576
0.0197841
11.0113
-28.0079
-32.0743
0.144662
-7.94518
0.384532
-30.1957
0.269861
0.13386
-0.453445
0.306252
-0.279787
-0.457811
0.0310149
0.493605
9.63616
-22.6724
-18.9454
10.9656
43.2722
14.3367
10.7273
0.0624088
11.3869
35.7124
0.0510257
31.5839
-1.27683
0.0975226
-1.92643
23.5215
0.387522
-0.0818559
53.0907
11.476
26.0874
-12.1027
-15.8999
0.018262
-4.74798
-0.0402807
0.366024
0.322873
0.376104
47.6481
0.352944
0.261558
0.217148
10.3067
-42.7546
-26.7352
-6.57757
2.46236
-0.835004
0.32408
13.2628
-31.5338
23.683
15.0316
1.74379
0.304509
40.6117
-15.9374
38.5532
29.6364
10.3259
10.8555
0.231934
-7.32765
-0.0854733
-17.284
-15.307
10.8452
-50.1982
-0.317051
0.0734301
0.370459
9.15683
0.279677
46.0957
-6.38002
43.6372
0.196058
-55.4356
-10.9821
-16.3102
0.187361
-45.6548
0.305706
26.9288
10.485
30.4232
0.0831316
-20.1704
3.02409
-49.268
29.0031
10.3608
10.0209
-2.61323
-27.2216
10.2547
-56.9978
-38.0667
10.4278
32.0185
10.2851
-24.7439
41.308
6.05934
-9.26518
41.3341
36.2774
-0.430753
1.157
-53.94
41.3411
8.56429
37.9061
-7.29275
-53.7829
27.9615
-4.55354
0.0438199
0.204444
0.105865
-0.894716
12.1981
-33.6105
-2.18162
-37.7169
14.6502
36.5358
-12.631
34.8282
0.0484915
-0.0373982
-17.0715
55.9369
-20.668
45.8432
14.4389
2.61522
22.8284
2.83303
15.1597
0.0086413
0.0535001
-0.00950467
-0.0262676
7.20748
-17.0503
11.6736
-34.1634
2.32995
-42.8433
7.77115
-25.8433
42.9282
-4.66588
-3.78719
0.103271
36.7163
0.0360363
21.0939
-3.66503
7.57501
-11.8564
-1.27827
29.8746
33.8041
-17.3605
0.198826
-1.43912
-35.7116
-63.8737
-9.25894
49.721
25.0674
52.9171
56.4545
42.2304
-38.7889
-2.76372
42.081
-44.6888
0.00805217
3.89601
0.0466312
-30.1863
-15.1319
-3.06817
-0.0511315
-10.7466
-0.0345422
9.75539
-38.0394
39.9867
-47.1697
9.71967
-3.6138
8.3178
-0.411517
-8.49435
-57.2087
-0.605945
-34.4838
-19.5052
10.0686
-56.456
-46.0599
10.058
-15.5783
-16.5726
21.4705
10.0773
-15.776
25.1787
-56.4943
-33.6067
-45.7414
38.0978
-35.7754
3.14955
23.7346
2.64043
-58.4128
-49.187
-1.66796
-1.86557
47.4827
-4.63633
-40.029
-4.19704
-19.1415
-66.7924
-33.1886
-30.741
1.14669
-30.7256
0.168345
-30.6811
13.002
-24.3635
47.8046
-29.698
18.8208
-33.5733
-29.2706
-21.2521
-46.911
31.48
29.283
-33.6179
9.32689
24.4037
15.4261
4.48233
12.0685
-3.84294
-32.0817
-85.0242
-30.6229
14.132
17.9215
-41.9861
22.1469
-32.4465
-17.2585
4.7055
4.31452
-30.9459
11.0511
-31.4737
12.6117
28.8658
30.8695
58.1693
27.6446
-30.3611
-61.4521
41.553
11.0383
35.0632
-50.3677
-30.7287
49.3165
28.4797
-5.23281
20.3635
23.307
-44.3514
-32.9844
-47.2366
14.1292
9.48349
33.9644
-60.0081
42.3366
26.8872
11.3786
35.1797
-31.2545
0.762739
0.839396
11.3239
-14.611
-53.1132
-30.2931
43.0127
-12.3093
-20.6499
-47.4538
40.4952
44.4499
36.4134
-34.8861
-99.6757
42.711
-34.6862
-57.3717
44.1553
-3.00343
-11.3569
10.8837
-0.555161
-0.906183
-10.7977
41.7769
-29.9903
0.645105
-0.662168
-0.815696
-0.432683
-1.97388
2.83629
-34.366
-8.87451
-0.97291
-55.0178
-72.1503
-29.3546
-21.3062
-2.60224
-18.8884
-29.6195
-43.668
-0.821826
-36.5007
-3.3717
-36.2817
-31.1712
40.9331
17.6418
24.75
0.0821446
3.45259
-72.9274
-26.3265
-11.3635
-47.6011
0.0106485
-63.4878
-45.663
-27.7107
-45.6298
-6.60802
14.486
10.3819
13.8057
9.53724
41.0874
0.0379583
-0.00965699
-0.0198684
13.3066
-10.5265
-50.0345
-57.6807
14.8594
35.7062
23.1042
28.0168
-1.70136
-50.3728
-7.08536
11.1113
2.45482
-2.76526
17.6259
5.81188
-16.4757
13.2692
-13.0325
-11.0123
-8.99829
16.0522
34.6018
-32.9504
50.943
-29.1807
17.7113
-57.6086
-47.2159
-11.8777
13.0075
32.2469
-11.062
-32.6641
5.06025
13.0639
-19.0912
-29.8113
14.8748
45.0565
57.0572
-33.2559
-3.24506
-57.8108
13.3039
-0.513421
-10.9292
9.55
5.80311
-16.9315
2.02881
6.89289
-45.0117
-11.3461
-29.4692
-13.5974
-30.2894
-0.0603388
10.6657
-57.2836
-19.667
-0.0462806
57.8515
11.0932
44.104
9.26437
-26.372
15.5158
-1.55792
32.0025
53.7005
14.1242
32.1613
0.0811964
-47.1922
11.1
10.9872
-6.76575
5.08431
-39.7366
-6.02715
-11.2586
11.2635
2.38379
-24.0105
3.68693
8.20758
-9.20704
-14.0851
-28.262
0.0344787
12.7003
0.02246
12.9383
0.067788
-21.4471
11.0779
-24.926
10.4326
-29.0353
0.0105832
31.8876
-9.98053
33.5805
0.0799648
6.46734
0.149524
0.015158
-5.77766
6.36856
15.5807
32.0423
28.3331
-30.9992
-52.7747
40.2341
22.6128
20.0815
3.6334
0.0244257
0.0355659
-77.1156
41.3799
16.9444
12.9478
0.0714388
17.1966
0.12423
0.0705686
-23.5591
-26.2818
-39.9478
-34.7737
5.33218
0.373521
-6.53549
10.8976
40.7157
9.33048
-20.3375
9.22481
-8.40676
-78.5707
-17.4925
0.12814
2.1725
-11.3356
-9.05
-37.2951
11.4248
-36.3488
21.763
-78.0436
-32.7231
-30.7
0.131969
20.2392
1.24748
11.1784
32.8687
11.235
-13.0899
9.29477
10.2684
6.99445
11.1371
-41.7732
16.132
2.34768
40.9238
10.5444
-24.5581
11.3238
11.2392
-31.0804
-79.8357
-30.7204
-30.2303
-31.1654
7.98531
56.1209
-31.8225
-4.68649
10.2086
17.8348
-31.1392
0.226697
0.0292571
9.34627
-24.7113
-30.1502
-50.9046
29.3082
-3.87611
0.377395
1.0753
-30.0691
26.0905
8.15945
-56.7709
-30.0922
-30.1509
57.541
12.4449
9.01456
0.740388
12.5438
-52.8231
15.1858
9.58866
17.322
-4.81969
15.5542
21.0223
42.2024
33.9527
8.99106
-19.682
20.4951
-11.5543
0.231353
0.302289
29.3335
-33.2294
-14.0675
0.262859
53.0568
0.316554
-30.2474
28.3681
18.1232
36.9242
-29.7294
-20.8127
-29.8904
29.5286
-14.6155
-34.6551
-6.93873
9.74569
0.27006
12.3785
-0.599362
12.3587
-0.931601
9.82512
-1.01529
-14.1954
0.0684148
32.645
1.06193
2.62005
-27.2409
7.60874
-0.182569
9.12716
-7.70257
-33.7247
-46.2548
-22.2471
2.86616
34.6048
0.342673
56.0554
-33.0361
56.1092
49.906
0.479947
3.09601
5.07635
0.360764
0.330435
-92.0972
9.16704
-25.877
-13.3256
3.10746
-0.620671
-30.5386
5.35974
5.30766
7.76275
5.10132
0.328905
-31.3784
-6.33341
-0.225112
-26.8901
0.120709
-0.771174
-0.186737
-0.234002
-11.9744
6.41455
-57.5166
-0.866897
-0.294234
-13.8319
-15.8068
21.0124
-20.4059
10.5243
10.4085
-0.0102878
0.109399
-12.6293
-18.2955
8.23341
0.0893551
-4.11698
9.10919
0.096906
54.3741
0.018479
-0.78571
0.11605
-0.038225
-31.6866
-0.00815081
-29.7864
-10.0514
50.2683
2.97078
-3.69976
-5.48961
-1.96831
-9.81128
-36.1184
0.259707
0.0467784
5.79565
-29.9756
-0.00516118
6.22669