/*--------------------------------*- C++ -*----------------------------------*\
| =========                 |                                                 |
| \\      /  F ield         | OpenFOAM: The Open Source CFD Toolbox           |
|  \\    /   O peration     | Version:  2506                                  |
|   \\  /    A nd           | Website:  www.openfoam.com                      |
|    \\/     M anipulation  |                                                 |
\*---------------------------------------------------------------------------*/
FoamFile
{
    version     2.0;
    format      ascii;
    arch        "LSB;label=32;scalar=64";
    class       surfaceScalarField;
    location    "0.0817875";
    object      phi;
}
// * * * * * * * * * * * * * * * * * * * * * * * * * * * * * * * * * * * * * //

dimensions      [0 3 -1 0 0 0 0];

oriented        oriented;

internalField   nonuniform List<scalar> 
92401
(
0.14936
-0.0986026
-0.00681355
-0.0439434
-0.06394
0.0609442
0.0404294
-0.0374337
0.0221597
-0.0396386
0.0429642
-0.0254853
0.00660266
-0.0131869
0.0130108
-0.00642654
0.00138273
-0.000555266
-0.00598124
0.00515378
0.0194048
0.0096876
-0.0252981
-0.00379429
0.00591584
-0.00483011
0.000297006
0.032237
-0.0255434
0.0127112
0.0480787
-0.0386432
0.0324575
-0.041893
0.000346836
-0.000616031
0.000199797
6.93974e-05
0.00468896
-0.041518
0.0385995
0.0242951
0.0243258
-0.0872205
-0.0175916
0.0111198
-0.000110841
0.00658262
-0.0343822
-0.0399819
-0.0161269
-0.0207908
0.0598306
-0.0229129
0.00209937
-0.0666489
0.0645496
-0.00253493
-0.00777364
0.00205491
0.00349391
0.00222483
-0.000955305
0.00154884
0.000213644
-0.000807176
-0.00499347
0.0109519
-7.32631e-05
-0.00588513
0.0165138
-0.00576886
-0.0050208
-0.00572418
-0.0407457
0.00834047
0.0369635
-0.0045582
-0.0394305
0.0109819
-0.0547389
-0.054067
-0.00268065
0.0548561
0.00189153
0.0906966
-0.0892727
0.0220187
-0.0234427
0.0503419
0.0601525
-0.0717485
-0.0387458
-0.0325925
0.0511425
-0.0579806
-0.00275885
-0.00100095
0.00402487
-0.000265069
0.0314031
-0.0635825
-0.00041302
0.0610803
-0.0601487
-0.032315
0.0313835
0.0124885
-0.0172895
0.00136992
0.0034311
-0.036183
0.106814
0.0618297
-0.132461
-0.0846928
0.107524
0.00897196
-0.0318032
-0.131132
0.0324505
0.0295439
0.0691374
0.0148415
-0.0621321
0.0374667
0.00982388
0.0603104
0.00923658
-0.0547054
-0.0441889
0.0100836
0.0024621
0.0316432
-0.050416
-0.0411756
0.0654828
0.0261088
-0.0332232
0.0406476
-0.0137305
0.0063061
-0.020267
-0.102936
0.0661153
0.0570878
-0.0855352
0.0866907
-0.00115557
0.0322154
-0.00222897
-0.0737563
0.0437698
-0.00208436
0.0290982
-0.0190353
-0.00797851
0.0268848
-0.0503978
0.023513
0.000168079
2.69977e-05
-0.000146873
-4.82031e-05
0.000935504
-0.058499
0.0575635
-0.0685001
0.0429275
0.0622787
-0.0367061
0.0901243
-0.025423
-0.0128078
-0.0518935
-0.000489981
0.0709414
0.000931184
-0.0713826
-0.0476169
0.0732236
0.039728
-0.0653346
0.000562947
0.0011082
-0.000392836
-0.00127831
-0.00205966
-0.00357974
7.70951e-05
0.0055623
-0.0383158
0.0840209
-0.0462748
0.000569714
0.000330607
-0.000754525
-0.000490138
0.000914056
-0.0550021
0.0542711
0.000731017
0.0754202
-0.00779894
-0.0187093
-0.0489119
-0.0998784
0.0922931
0.00452416
0.00306115
-0.0547715
0.0273422
0.0110129
0.0164164
-0.00275572
-0.0149315
0.00763844
0.0100487
-0.01252
0.0258074
0.0374325
-0.0507198
0.000852857
-0.000356592
-0.000165658
9.13509e-05
-0.000101118
0.000802599
-0.000792832
0.00037935
0.000140264
-0.000295416
-0.000224198
0.00414414
-0.0091832
0.00503329
5.76866e-06
0.0679107
0.00506094
-0.0172004
-0.0557713
-0.0150173
-0.00477709
0.0107331
0.0090613
-0.0409713
-0.0528787
-0.0547692
0.148619
0.0034882
-0.0349864
-0.00287934
0.0343776
-0.000276494
0.000492555
0.000372693
-0.000588754
0.00424131
0.00450155
-0.0278657
0.0191228
0.0188567
-0.00642728
-0.00963999
-0.0027894
0.0418814
-0.0765305
-0.0277216
0.0623707
-0.029322
-0.00307463
0.0102611
0.0221356
0.0122274
0.00833778
0.013049
-0.0336142
-0.000289861
-0.000294006
7.17339e-05
0.000512133
0.0252298
-0.00973261
0.0365654
-0.000417861
0.000264173
-0.00048905
0.000642738
0.0442622
-0.0330742
-0.0681243
0.0569363
0.000342951
-0.000219584
-0.000123367
-0.0011296
3.08413e-05
0.000557145
0.00054161
0.000615982
-0.000215767
0.000220714
-0.000620929
0.0226365
-0.0231237
-0.0622701
0.0627572
0.00105887
-0.0126857
0.00291022
0.00871659
0.0430117
0.0585943
0.018512
-0.120118
-0.110042
0.0240331
0.123185
-0.0371763
-0.00536914
-0.0448348
0.00376061
0.0464433
0.0552958
-0.0306412
0.0264091
-0.0510636
0.0269685
-0.00327417
-0.154332
0.130637
0.00919559
0.0153421
-0.0287665
0.00422874
0.000685175
-0.000186147
-0.000760821
0.000261793
0.0381263
0.0122796
-0.00131483
-0.0490911
-0.00250293
0.0847852
-0.0863681
0.00408589
-0.0181046
0.049537
-0.116198
0.0847651
0.0425874
0.00537519
-0.0533317
0.0427173
-0.000129924
-0.00233147
-0.0293589
0.04185
-0.0101597
0.0708874
0.0171326
-0.0316084
-0.0564117
0.132299
-0.146252
-0.0301942
0.0441467
-0.0151288
-0.0459117
0.058709
-0.0824662
-0.000730892
0.0831971
0.00107319
-0.0978486
0.163118
-0.0663429
-0.00254849
0.00338276
-0.000625236
-0.000209033
0.0899296
-0.149285
0.0303764
0.0289789
0.00155939
-0.000455332
0.000908422
-0.00201248
-0.0872562
0.142848
-0.104131
0.0485395
0.0309834
0.00268406
-0.0416015
0.00793401
0.0859326
-0.0148287
-0.0836345
0.0125306
0.0057683
0.031927
-0.0528241
0.0221419
0.0276255
-0.114765
0.0649975
0.0871844
0.11332
-0.0800323
-0.120473
0.000700413
-0.000300865
-0.000363155
-3.63927e-05
-0.0936278
-0.0285392
0.110667
0.0114997
0.00138267
-0.00583642
0.0160301
-0.0115764
-0.0141418
-0.0341676
0.058574
-0.0102647
-0.00561275
0.0175945
-0.0146884
0.00270674
0.000411958
-0.000680735
-0.000612011
0.000880787
0.0224846
-0.0265177
-0.00157959
-0.00188042
-0.000699084
0.0015434
0.0010361
-0.0577617
0.060467
-0.00270532
-0.00258696
-0.00638173
-0.00220295
0.0111716
-0.0370037
0.0284973
-0.00563539
0.01834
-0.0472361
-0.0557967
-0.0513011
0.0415531
0.098337
-0.088589
-0.00765298
-0.00183509
0.00516939
0.00431868
0.046821
0.0111256
0.00215927
-0.0601059
0.000587401
-0.00961489
0.00711323
0.00191425
-0.0403519
-0.0541994
0.0114821
0.0830692
0.0647087
-0.0388773
0.0266275
-0.0524588
-0.00962971
0.0598111
-0.0588019
0.00862052
-0.0590627
-0.0339847
0.00778025
0.0852672
0.0162267
0.00485389
-0.0329052
0.0118246
0.0636534
-0.0634026
-0.000250852
0.0018663
0.0017862
-0.00157791
-0.00207458
0.0406756
-0.044122
0.00344644
-0.0570623
-0.038761
0.107813
-0.0119893
0.00083435
-0.00998119
0.00991115
-0.000764307
0.0027231
0.00587811
0.00278291
-0.0113841
0.00167386
0.00680445
-0.00789091
-0.0246017
-0.0579156
-0.0090303
0.0915476
0.0257299
-0.00809783
0.0187531
-0.0363851
-0.0840034
0.0925676
-0.101281
0.092717
0.0769308
-0.0496798
-0.027251
0.00162196
-0.0346587
-0.0101412
0.0431779
0.00810248
-0.005614
-0.00961562
0.00712714
0.0463026
-0.070029
-0.0620807
0.0858071
0.0740263
-0.0647102
0.0293644
-0.0386805
-0.013749
-0.00945195
0.0337862
-0.0105852
-0.0581729
-0.0867582
0.0572947
0.0876364
-0.0416056
0.054325
-0.0110975
0.0976998
-0.0482761
-0.0494237
-0.00481591
0.015628
-0.00270962
0.00100424
0.000683949
-0.000711665
-0.000976521
0.0473395
-0.0157954
-0.0052465
-0.0262976
0.0036322
-0.00189303
-0.000446746
-0.00129242
0.00536575
-0.0101894
0.00871515
-0.00389149
0.0723635
-0.0426058
0.0260637
-0.0558214
0.00896493
-0.000474405
-0.00686313
-0.0016274
0.00165142
-0.000606751
-0.00104467
-0.0660772
0.0654423
0.000634947
0.0118702
0.00580674
-0.0966733
0.0789963
-0.0120025
0.0144103
-0.0102892
0.00788145
-0.0731918
0.0164609
0.083505
-0.0267741
0.0186423
-0.0977125
0.0757318
0.0033384
-0.05267
0.0429396
-0.00840324
0.0181337
0.00869465
-0.00183035
-0.00296023
-0.00390407
8.79999e-05
-0.000730548
0.000642548
0.0282911
0.170878
-0.24563
0.0464604
0.000274263
5.1858e-05
-0.0248902
0.06025
-0.0525921
0.0172324
-2.08318e-06
0.00520569
-0.00446704
-0.000736568
-0.00010208
0.00129293
-0.00140662
-0.0708594
0.000573129
0.0702863
-0.0323809
0.113773
-0.0477404
-0.0336519
0.000540763
0.000472306
0.00946113
-0.0104742
0.000425735
0.092197
-0.0926227
0.00240673
-0.00162494
-0.00123214
0.000450339
0.00137718
0.000705065
-0.000712216
-0.00137002
-0.0366953
-0.00157915
0.0324723
0.0186636
-0.0636558
-0.0724092
-0.0163113
0.00649545
0.0822251
-0.00063009
0.00200727
-0.101088
-0.0417118
0.112716
0.0300834
0.0271801
0.170802
-0.085328
-0.0578158
-0.0276581
-0.0183649
0.119295
-0.0435541
-0.0573762
0.0397281
0.0299248
0.0386234
-0.108276
0.104718
-0.249068
0.109524
0.034826
0.00164747
-0.00146026
-0.00138399
0.00119678
-0.0123432
-0.0353513
0.0554248
-0.00773032
0.0264274
0.0404949
-0.0266241
-0.0402981
-0.0353577
-0.0258005
-0.019765
0.0809232
-0.0533678
-0.0139612
0.0549858
0.0011916
-0.0119767
0.00924923
0.00153584
0.0553739
-0.0284457
-0.0508472
0.0239189
-0.0896724
0.105608
-0.0503142
0.0343791
0.0169
-0.0234558
0.00684269
-0.00028688
0.051792
-0.0600567
0.0636386
-0.0572296
-0.0034947
-0.0138073
0.0745316
-0.00531862
-0.0133253
0.00254908
0.0160949
0.000186747
0.0592136
-0.058581
-0.000819331
0.135293
-0.0537707
-0.00243438
-0.0790876
0.0601954
-0.0076663
-0.0492815
-0.00324762
0.050429
-0.0227634
-0.0673058
0.0396403
-0.0100604
-0.00170699
0.0151545
-0.00338708
0.00542566
-0.00170567
-0.00476345
0.00104346
0.00257311
-0.0442278
0.0408575
0.000797184
-0.000744306
-0.0863282
0.00346988
0.0197551
-0.0129156
-0.063122
0.04651
0.016612
-0.0595516
-0.0170397
0.0109765
0.0656148
-0.10161
-0.00079865
0.104865
-0.00245704
0.00372998
0.0239518
-0.0128874
-0.0147944
-0.071329
0.149758
-0.065987
-0.0124416
-0.00470206
0.013368
0.0223823
-0.0310482
-0.0525529
0.100674
0.039367
-0.0874886
0.0293809
0.00127499
-0.0143472
-0.0163087
-0.0364083
0.038114
0.000867398
-0.00484757
0.00755335
-0.0102717
0.00756597
-0.000242754
-0.00457869
0.0101872
0.0360408
0.0377954
-0.0738361
0.00107821
-0.00190394
2.67319e-05
0.00079899
0.0201788
0.00836758
-0.0193231
-0.00922334
0.0226972
0.0100623
-0.00139891
-0.0313606
-0.0526963
-0.00222519
0.00714358
0.0477779
-0.000213425
-0.0440143
-0.000993246
0.000520284
0.00155118
-0.0518525
0.0371979
0.0518723
-0.0372177
-0.0447249
0.030209
0.0173399
-0.00282393
0.00139376
-0.0036729
-0.00993947
0.0122186
-0.00994529
-0.00508671
-0.00288672
0.0179187
-0.0437132
-0.00489835
0.0122032
0.0723176
0.0395505
-0.0720456
-0.0398225
-0.0458127
-0.000181372
0.045994
0.0861915
-0.048682
0.0595908
0.00369578
-0.00765431
-0.0372796
0.0412381
0.0358923
0.0112955
-0.00529995
-0.0418878
-0.000468784
0.00034561
0.00102106
-0.000897884
-0.0168688
-0.0449624
0.0618311
-0.000208974
-0.00138941
-0.00412583
0.0308422
-0.0230206
0.0061898
0.0278861
-0.0417302
0.0978378
-0.090668
-0.00211867
-0.00505115
-0.0214496
0.101524
-0.0185371
-0.0615374
-0.0318294
0.00678316
0.0134884
0.0115578
-0.0390543
0.0358911
0.0137722
-0.0106091
0.0325687
-0.0251264
0.00134361
-0.00878587
0.0192726
0.0730145
-0.123526
0.0312389
0.0762949
-0.0752766
-0.0243119
0.0232937
-0.143396
0.00202098
0.00366044
0.137714
0.0305513
0.0123797
-0.0411899
-0.00174114
0.0400505
-0.0575042
0.0203692
-0.00291548
0.00215624
-0.00120715
0.00023945
-0.00118855
-0.0146501
-0.00112711
0.0734001
-0.041642
0.0188073
-0.0505654
-0.0120479
0.0477145
0.000383985
-0.0360506
0.0051515
0.0961086
-0.0933781
-0.00788202
0.0495447
-0.0989808
0.0579025
-0.00846639
-0.0483718
-0.000446507
0.0367704
0.0150885
-0.00332308
0.00868318
-0.0204486
-0.0234234
0.04779
-0.0133093
-0.0110573
-0.0482941
-7.76134e-05
-0.00558346
-0.122872
0.175899
-0.0474433
0.0100892
0.0097995
-0.0634738
0.0435851
0.0494388
0.00545243
-0.044802
-0.0131527
0.00682432
-0.00372764
0.010056
-0.059066
-0.00018048
0.0592465
0.110755
0.0442297
-0.136938
-0.0180469
-0.00947297
0.000292868
-0.00397257
0.0185057
-0.116261
-0.0226753
0.12043
0.0127106
0.066275
-0.0691861
0.00280762
-0.05579
-0.0104913
0.000535924
0.00194636
-0.00269125
0.00207066
-0.00177692
0.000242185
-0.0508765
0.026225
0.0739059
-0.0492544
-0.00193349
0.000993135
0.000971197
-0.0341599
-0.0077256
0.0446932
0.000297226
-0.000284362
0.00035738
-0.000895003
0.000121439
0.000416184
0.00026616
0.00210172
-0.00182383
0.00146874
0.000143747
0.00021135
0.000293469
-9.37985e-05
0.000653187
0.106737
0.123421
-0.0807982
0.00018769
-0.000649893
0.000755672
-0.0528814
0.0527343
0.000147179
-0.010498
0.0761388
-0.0717532
0.0061124
0.00166938
-0.0197394
0.00533134
0.0127387
-0.0603592
-0.0030202
-0.017245
0.00400981
0.0474212
-0.034186
-0.0628061
-0.00312443
0.0659305
-0.00719399
-0.0165833
-0.0127708
0.0365481
0.000344478
-0.000396427
-0.000548355
0.000600304
-0.0038948
-0.00738605
0.00913492
0.00214593
0.0549852
0.0439052
-0.0175073
0.0483265
0.0896642
-0.0380877
-0.0999029
-0.0126747
-0.0442089
-0.0188639
0.018559
-0.0537592
0.0540641
-0.0112392
0.0285037
-0.0055949
-0.0116696
-0.0150897
-0.0134542
0.0133797
0.0151642
0.0964744
-0.0946388
0.0187183
-0.0205538
0.00126727
-0.00442505
-0.000490875
0.00364866
0.00124552
-0.0672393
0.0659938
-0.0725786
0.00335888
0.0668577
0.00236197
0.0390035
0.0382775
-0.077281
0.0190929
-0.0599676
0.0282
0.00195559
-0.00109926
0.000437049
-0.00129338
0.000261865
-0.000124138
0.00100248
-0.0011402
-9.12483e-05
0.000445423
-0.00103071
0.000676536
0.0642401
0.0566617
-0.0394529
-0.0814489
0.00587723
-0.0870872
0.0824907
-0.00128079
-0.013813
0.000750574
0.0264682
-0.0134058
0.0535614
-0.0527006
0.0191513
-0.0200122
-0.000547453
0.00139601
-0.000700021
-0.000148536
0.0202305
0.047896
-0.0490337
-0.0469269
-0.00168145
0.00104929
0.00146842
-0.000836263
0.00141994
0.0811291
-0.082549
-0.0499176
-0.0150026
-0.0222608
0.087181
-0.0499631
4.55807e-05
0.0116294
0.0167577
0.0166781
-0.0450651
0.000562154
-0.00272
0.000466705
0.00169114
-0.00181124
-0.000464184
0.000593974
-0.106345
-0.0093951
-0.0432396
0.15898
-0.00975617
0.00732904
0.136903
-0.134475
-0.038599
0.0418788
-0.0647987
0.0615189
-0.0801677
0.0797315
0.000436259
0.00127281
-0.0499651
-0.0305129
0.0670555
0.0192794
-0.00598535
-0.0803496
0.050582
0.0953293
-0.157845
0.0119333
0.0416631
0.0157575
0.0333527
-0.0907733
0.103872
-0.108381
0.0435125
-0.00369242
0.0134247
-0.0121778
0.00244551
-0.00130628
-0.000176538
-0.000534815
0.00201763
-0.00289305
-0.00567737
0.00173828
0.00683214
0.0608562
-0.00623106
-0.018454
-0.0361711
-0.0567449
0.0282172
0.0285276
-0.0930204
-0.00753116
0.0118488
0.000734082
-0.000569919
-0.00147044
-0.118197
0.0265159
0.00516108
0.0865204
0.00120866
-0.0531899
-0.0102942
0.0622754
0.0456893
0.0289352
-0.10178
0.0271552
0.0385314
-0.0434281
-0.0191415
0.0240382
0.0484882
-0.0601136
0.0501568
0.031929
-0.0565717
0.0496086
-0.0249659
0.0347164
-0.0360314
0.000316274
0.000998681
0.0162479
-0.142267
0.0914157
0.0346031
0.00141624
-0.0617841
-0.00393007
0.0520502
0.000398084
-0.10722
-0.0339441
-0.00865426
0.00689046
0.0357079
-0.0485279
0.0444088
0.0500251
-0.045906
-0.0422965
0.081913
-0.0396165
0.0104343
-0.102144
0.0482813
-0.0170631
0.00738823
0.02472
-0.0150451
-0.0878886
0.0935221
0.0361467
-0.0417802
0.0587614
0.0328925
-0.0828675
-0.00878646
-0.0461289
0.141803
0.00418845
-0.0998621
-0.000547403
0.0028887
0.00368553
-0.00602683
0.0537328
-0.0720723
0.0830274
-0.0646879
0.00776075
-0.0389723
-0.00825361
0.0394652
-0.0434149
0.0314315
0.103379
-0.0913955
-0.0499881
-0.026444
0.0528707
0.0235614
-0.00953317
-0.00050939
0.00620033
0.00384222
-0.0113295
0.0242777
-0.0183601
0.00541194
-0.000170632
0.0745535
-0.0743829
0.0148817
-0.0439437
-0.0194659
0.048039
-0.0343494
-0.000546266
-0.0131434
0.00186794
-0.0267834
-0.0213373
0.0462528
0.0345105
-0.034432
-7.85464e-05
0.0611737
-0.0417176
0.0643185
-0.0837746
-0.0989394
0.0969954
0.0984184
-1.38379e-05
-0.0108065
-0.0017757
0.012596
0.0493922
-0.00027424
8.86117e-05
0.000281052
-9.54242e-05
-0.000602927
0.0489328
-0.112653
0.0643227
-0.00853615
-0.000702174
0.00501322
0.0042251
0.0268861
0.0099605
-0.0368466
0.00125583
-0.000916616
-0.00887536
-0.0314028
-0.0416064
0.0159469
0.0572458
0.000994244
-0.05824
0.0728482
-0.0441361
-0.0511905
0.0224784
0.00171654
-0.0251772
-0.0207283
0.0693853
0.0430348
-0.0395719
-0.00802844
0.00927043
0.133386
-0.119437
0.0371999
-0.051149
-0.0450175
0.0364883
0.0218858
-0.0133565
-0.0527177
0.0523622
0.000355443
-0.0477771
0.0296443
0.0106918
-0.0466664
-0.0108448
0.0468195
-0.0021216
0.161194
-0.161152
0.00207907
0.107656
0.0159356
-0.0160679
0.0508053
0.00856677
-0.0512096
-0.00816249
-0.0145525
0.00472348
0.0107753
-0.000946242
-0.00955188
-0.00544523
0.00470446
0.0102927
0.0660893
-0.0377746
-0.0526415
0.0243268
0.0295453
-0.0152352
0.024078
-0.0383881
0.026814
-0.0937995
0.0897081
-0.0227225
-0.00595837
0.0005017
-0.00909583
-0.0943339
0.106889
-0.0228383
0.0102834
-0.011471
0.0481836
0.0140545
-0.0507671
-0.00401219
-0.000787052
0.00319225
0.00160699
0.0839099
-0.00457566
0.0509796
-0.130314
3.24478e-05
-0.000670747
-5.46631e-05
0.000692963
-0.0672349
0.0589493
0.0742099
-0.0659244
0.00312515
0.000671985
-0.00215478
-0.00164235
-0.0775361
0.0753788
0.00215726
0.0637349
-0.0602525
-0.00348241
0.0604301
-0.000781879
-0.0596483
-0.0108066
0.123478
-0.000498339
-0.112173
0.00986516
-0.0310612
0.0328254
-0.0237258
-4.6927e-05
-0.0562325
-0.0675252
0.011509
0.0663535
-0.0103373
-0.0133648
-0.00214542
7.12595e-05
-0.000371109
1.85888e-05
0.000281261
0.0012247
-9.47299e-05
-0.000245486
-0.000884488
-0.0634811
0.00790747
-0.00149613
0.0570698
0.000344884
-0.00550621
0.00198319
0.00317814
0.0123307
-0.0147677
-7.46213e-05
0.00251164
0.00825659
-0.00673326
0.0108074
0.0555404
-0.0095229
-0.0225395
-0.0234781
0.0362288
-0.00534165
-0.0364405
0.00555333
0.000102004
0.0667515
-0.000257038
-0.0665965
0.00757096
-0.0711017
0.0191358
0.0443949
-0.0430518
-0.0316935
0.0415797
0.0331655
-0.0357409
0.0221026
-0.0915174
0.105156
-0.00101551
0.0153794
-0.00786543
-0.00649842
0.0490049
-0.0588255
0.047339
-0.0375183
-0.0626847
-0.00679474
-0.00798579
0.00103416
-0.000373891
0.00439421
-0.00505448
-0.0122464
-0.00274667
0.00179619
0.0131968
-0.00826073
-0.00943651
0.0109239
0.00677332
-0.000148979
-0.00223463
0.00146677
0.000916837
-0.000265333
0.000326193
-6.086e-05
0.00146452
-0.0744125
-0.0277861
0.100734
-0.00015076
-6.65456e-06
-0.00146971
0.00162712
8.63535e-05
-0.00027581
-7.58766e-05
0.00297977
-0.0657859
-5.51028e-05
-6.8782e-05
0.000450078
0.000586935
0.000206304
-0.000366071
-0.000427169
-0.028105
0.0629944
0.0786526
-0.113542
-0.00928497
-0.00218374
0.00730161
0.0041671
-0.014691
-0.000372357
0.00577843
-0.00542786
0.00552081
0.0133843
-0.0134772
-0.000328238
0.000490756
-0.00021762
-0.0670535
0.0679102
-0.000856712
0.0302862
0.0473623
-0.0601147
-0.0175339
0.0116925
-0.0754358
-0.0214345
0.0851779
-0.0136958
0.00271253
0.00555546
-0.00453926
-0.00649248
-0.0026641
-0.0165483
0.058793
0.0127563
-0.055001
0.0695482
0.00491685
-0.0544022
-0.0200629
0.000263573
0.000406365
-0.000687793
1.78545e-05
-6.61348e-05
-0.00017575
-0.00266968
-0.00116633
-0.00140789
0.0052439
0.0650889
-0.0459272
0.0120505
-0.0312121
-0.000852113
-0.00268881
0.00138617
0.00215475
-0.0176497
0.0106461
-0.00257235
0.00957602
0.00109085
-0.101627
0.101634
-0.00109757
0.00318741
0.000820189
-0.0106718
0.00666421
0.0104585
-0.0109678
0.00155107
-0.00104172
0.00991351
0.00408445
-0.0108106
0.0367753
0.0562714
-0.0279578
-0.0272782
0.0548046
0.0281931
-0.0557195
0.0277525
-0.0550307
-0.000975645
0.000658846
-0.0329064
0.0124733
-0.0100488
0.0792184
0.0233115
0.00733867
0.0696961
-0.054162
0.0977433
-0.113277
0.00479408
0.0925483
-0.0973424
-0.00698923
-0.00730191
0.013673
0.000618119
-0.0341372
-0.087026
0.0274943
0.0936689
0.0218174
0.0614568
-0.0244015
-0.0588727
-0.0235282
0.113236
-0.0529323
-0.0418469
0.0448961
0.0517554
-0.0558429
0.0558074
3.54702e-05
-0.0391406
0.0367019
0.0024387
0.0396779
-0.0779557
0.0724937
-0.0342159
0.067829
-0.0843773
-0.0100636
-0.00811785
0.0111922
0.000692946
0.000612099
-0.000463112
-0.000841933
-0.00583056
-0.0426503
-0.00736208
0.00122746
0.00149859
-0.00264531
-8.07359e-05
-0.057411
0.0518767
0.0855336
-0.0799992
0.0369862
-0.0336669
-0.00331937
0.0128705
0.0212402
-0.0143143
-0.0197964
0.00422162
-0.000386025
0.00217369
-0.00600928
-0.0644471
-0.000827516
0.0200589
0.0452157
-0.00295554
0.0066657
0.000511462
0.0389722
-0.109389
0.104741
-0.0343239
0.0460714
0.0133339
-0.0593695
-3.57031e-05
-0.00364522
0.00697435
0.00172746
-0.00505659
0.000176662
0.0606571
-0.0608338
0.0382274
0.00683934
0.0151047
-0.0601715
0.00434749
-0.00733886
0.00260534
-0.185026
0.0284618
0.164135
-0.00757026
0.0399096
-0.0109206
-0.028989
-0.00125939
-0.00150898
-0.00118611
0.00395448
-0.0422778
0.0466285
0.125395
-0.129745
-0.00192888
0.00069029
-0.00190687
0.00314546
0.0913938
-0.00206368
-0.0432587
0.000510982
-0.00126545
0.00204775
-0.00129328
-0.0192479
-0.116964
0.0159975
0.120214
0.00370242
0.0524673
-0.0040669
-0.0521028
0.0485482
-0.0700354
0.0603943
-0.0389071
0.0319139
-0.0365628
0.0487516
-0.0441027
0.00830939
-0.00145759
0.00555683
-0.0124086
0.00123345
-0.0443641
0.0533984
-0.0537308
-0.0362304
0.0971068
0.0177063
-0.0242994
-0.0905137
0.0464855
0.0189639
-0.133381
0.0679316
-0.00192358
-0.00861924
0.00630141
0.00424141
0.0277852
-0.0498368
-0.00324647
0.0288155
-0.0265737
0.00737683
-0.00588331
-1.13033e-05
-0.00148222
-0.0864187
0.00262661
0.000341524
0.0707449
-0.148617
0.0775309
-0.027896
-0.0875337
0.0407832
0.0746465
-0.0729336
0.0203484
0.00321544
0.0493698
-0.043095
0.0290465
0.0102542
-0.0826
0.0956154
-0.0130154
-0.0208857
-0.00943227
0.117667
-0.087349
-0.00366327
-0.00380289
0.00612285
0.00134331
-0.0258026
0.0591829
0.040646
-0.0721681
0.028032
-0.000829168
-0.000399547
-0.00103705
0.00226576
0.0465602
-0.0489724
0.0544624
-0.037559
-0.00722357
-0.0448073
-0.123373
0.0476374
0.0757356
-0.042921
-0.0325212
0.0276651
0.00303747
-0.00222564
0.000884783
-0.00169661
0.00294457
-0.000470419
0.000563318
-0.0864819
0.00367886
0.0828031
0.0612067
0.0123637
-0.1219
0.0483292
-0.0712062
0.000634215
0.0705719
0.00127864
-0.00164842
0.0086706
-0.00830083
0.0487729
0.156539
-0.226519
0.0212064
0.00190414
-0.00233281
0.00135675
-0.000928076
-0.0916446
0.064947
0.0265265
0.000171054
-0.000361061
3.76894e-05
0.00183656
-0.00151319
-0.000641437
0.00834353
-0.00851404
0.000811943
0.00756778
0.00789385
-0.0147376
-0.000724048
0.0407405
0.012409
0.00305299
-0.00279941
0.00165055
-0.0985752
0.10542
0.00693164
-0.0137766
0.0125071
-0.0677096
-0.023576
0.0787786
0.00189552
-0.0043455
0.0875781
-0.0851281
-0.0378721
-0.0349178
0.0836685
-0.0108786
-0.0407214
0.024512
0.0406041
-0.0243946
0.0536301
0.0206814
-0.0721452
-0.00216627
-0.00117432
0.000175335
0.00137297
-0.000373989
-0.123598
-0.0432387
0.0398077
0.127029
0.0483127
-0.0376209
-0.031923
-0.0376438
-0.0310549
0.100622
-0.00181942
0.00425172
0.000480558
-0.00291286
-0.0309568
-0.0806882
0.0287797
0.0828653
-0.0296954
-0.0284211
0.0205575
-0.000705283
-0.00333978
-0.00163862
0.00306437
-0.00381901
0.00239326
-0.00572143
0.00561518
0.0253011
-0.0774478
-0.0855406
0.137687
-0.0005167
-9.57793e-05
0.000296563
0.000315916
0.0571225
-0.0602744
0.0480512
-0.0448992
-0.0148904
0.0448684
-0.00795609
-0.0220219
0.0869622
-0.0864452
-0.0187203
0.0182032
0.0266058
0.0220824
-0.0634277
0.0147395
-0.127312
0.0739166
0.018351
0.0350445
-0.00534172
0.00328056
9.36021e-05
0.00196756
-0.00833742
0.00977312
-0.000157062
-0.0134613
-0.00372249
0.0179142
-0.000730384
-0.0613082
-0.00453176
0.0136153
0.0522247
-0.007922
0.103192
-0.00508725
-0.090183
0.00882796
-0.047526
0.0808905
-0.0421925
-0.0014316
0.0041685
-0.00145278
-0.00128412
-0.0152748
0.000327946
-0.00202408
0.0169709
-0.106208
0.00572039
0.0129241
0.0875636
-5.78153e-05
-0.00028754
0.000503726
-0.000158371
0.0372371
0.00804712
0.0270334
-0.00507957
0.046425
0.0528029
-0.0941484
-0.000231152
0.000363018
-0.000189681
-0.00049961
0.00219444
-0.00150337
-0.00019146
0.0171815
0.111413
-0.0478896
-0.0807055
-0.000246378
-4.11626e-05
0.000117717
-0.000364095
0.0618288
0.0170591
-0.0922986
0.0134107
-0.157166
0.0860105
0.0772063
-0.00605054
-0.0181605
0.000198361
-0.0515017
0.0694638
0.0248597
-0.0144952
0.0167254
-0.02709
-0.0664614
-0.023091
0.0895524
-0.0779825
0.0387331
0.0392494
-0.00174543
-0.00041193
0.000803506
0.00135386
-0.0379239
0.0410586
0.00779326
-0.010928
0.0464981
-0.0545131
0.00801502
-0.0603713
0.0335822
0.0450504
-0.0182612
0.00453246
-0.0028401
-0.00152827
-0.000164091
-0.00326954
-0.00245523
0.000383046
-0.0422104
-0.041793
0.047176
0.014219
0.00259616
-0.0639911
0.00176533
0.000109033
-0.00154222
-0.000332142
0.0033314
0.00723849
0.00260434
-0.0131742
0.00713308
0.0229679
-0.0411012
0.0110002
-0.0190457
-0.0153811
-0.00922743
0.0436543
-0.0750717
-0.0105406
0.029914
0.0556982
-0.00184303
0.0152159
-0.00829393
-0.00507891
-0.0529453
0.000643088
0.0332564
-0.000210991
0.0253562
-0.135682
0.126363
-0.0160377
0.0285962
-0.0345429
-0.0518149
-0.0271135
0.054866
-0.000494662
0.0409497
0.00378255
-0.0442376
-0.0551229
-0.0599577
0.115081
-0.00325317
-0.00104674
-0.00175036
0.00605027
0.00315915
-0.00480096
0.00172026
-7.84541e-05
0.0370144
-0.00638448
-0.0282074
-0.00242254
-0.00326633
-0.00233677
0.00234993
0.00350439
-0.0107764
0.0659529
-0.0586808
0.0762113
-0.000283523
0.0270898
0.00983118
-0.00685857
-0.0300624
0.0585835
-0.000773081
-0.0578104
-0.0529674
0.113798
-0.0284231
0.059687
0.0200913
-0.0513553
-0.0171274
-0.0253094
0.0180036
0.0244332
0.00306994
0.00376925
0.000864632
-0.00770383
-0.0342107
-0.0379627
0.0993323
-0.0271589
0.0456162
-0.036923
-0.000676062
-0.00801709
-0.0482641
0.116457
-0.052404
-0.0157893
-0.00130794
0.00157498
-6.76404e-05
-0.000199402
-0.000518073
0.0213836
-0.00486614
-0.0159994
0.00308339
0.00384772
0.000287127
-0.00721823
-0.00029783
-4.17047e-05
3.71922e-05
0.000302342
4.06976e-05
-1.94719e-05
-0.000319056
-0.00922937
0.0230288
0.0702598
-0.0840593
0.0801871
-0.082094
0.00190686
0.000283462
-0.000266714
-1.6748e-05
-0.0127025
0.00097391
0.00231096
-0.00131956
-0.0019653
-0.00801402
-0.00676099
0.00578483
0.00899018
-0.0557561
0.027333
0.000310307
0.000207726
-0.000782972
0.000264938
0.0334825
0.0552584
-0.0353123
-0.0534285
0.0117637
0.159641
-0.179922
0.00851696
0.0582895
0.0632946
-0.061897
0.00186502
-0.0136705
-0.00189954
0.0137051
-0.0334004
-0.0301139
0.0635143
0.0311219
-0.0645223
-0.0544792
-0.0450963
-0.0655854
0.165161
0.0496559
-0.0554657
0.00580981
-0.0728995
0.134917
-0.0715407
0.0329592
-0.0299769
0.0861016
-0.00344952
-0.0690519
-0.0136002
0.0696427
-0.069802
0.0116225
-0.0114632
0.000142707
-0.00623089
0.00713907
-0.00105089
0.000435419
-0.00437946
0.00677381
-0.00282977
-0.000243561
0.000232361
0.000639149
-0.000627949
0.0221721
0.0233987
-0.033752
-0.0118187
-0.00542715
-0.00486998
0.00619418
0.00410295
-0.010909
0.0320538
-0.0426856
0.0215407
0.00114498
-0.00856025
0.0106674
-0.00325215
0.0484883
-0.00415014
-0.0443381
0.0380465
0.0357464
-0.126568
0.0527748
-0.0979021
0.059982
0.0759666
0.0329828
-0.099763
-0.0469262
0.107877
-0.0370611
-0.0238897
0.00161955
0.00925994
-0.0124649
0.00158545
0.0271225
-0.00224457
-0.024878
-0.0305205
0.0435763
-0.0039259
0.02032
-0.0314838
0.000930144
-0.000203725
0.0011092
-0.00183562
0.0117504
-0.0383241
-0.000455232
0.000161406
0.000300519
-6.69378e-06
0.00279768
-0.000428837
0.00109539
-0.00346424
-0.000732541
-0.00261356
-0.0781322
-0.0127803
0.00158112
-0.0118952
0.0230944
0.0201878
-0.0906888
0.0208577
0.0496433
-0.00340349
0.0582549
-0.0818837
0.0270323
0.000635844
-0.000390738
0.000273761
-0.000518867
0.0791567
0.0125367
0.0022766
-0.09397
-0.000283973
-0.000759483
0.00108602
-4.25673e-05
0.00500636
-0.000868168
-0.0690168
0.0648786
0.00686292
-0.00119707
-0.00509565
-0.000570203
0.00654385
0.00462065
-0.00370973
-0.00745477
-0.110451
0.0964807
-0.0876078
0.101578
-0.0540724
0.109081
-0.0550083
0.00231865
-0.0437738
0.00862905
0.0328261
0.00373618
-0.00352159
0.000686815
-0.000901405
0.0492388
-0.00267277
0.00114853
-0.129577
0.0024451
0.074164
-0.0343232
0.000155661
0.00168019
0.0327736
-0.0268848
-0.00756908
0.0781813
-0.0307712
0.0342069
0.00422792
-0.00513902
9.45651e-05
0.000816529
0.0344316
0.0239661
-0.0760779
0.0176803
4.05545e-06
7.89733e-05
-0.000147414
6.43851e-05
-0.000477115
0.00156018
0.00546078
0.000108338
-0.00812354
0.00660086
0.0057506
0.0746278
0.040746
-0.0370563
-0.0783176
-0.131004
0.142298
-0.00946605
-0.00182843
0.0315311
-0.032732
0.00120096
-0.0370122
0.000164195
0.000397662
-0.00324977
-0.00228691
0.014646
0.206795
-0.158937
-0.0625043
0.0293158
-0.060973
-0.0180781
0.0497353
-0.00310523
0.0389454
-0.000959506
-0.0852248
0.047239
-0.0231443
0.0100982
-0.037961
0.0477021
0.0461362
-0.0558773
-0.0668476
0.0897148
-0.152372
0.129504
-0.00020474
5.27512e-05
-0.00145325
0.00160524
0.00018802
0.00230556
-0.000618278
-0.0018753
0.0431781
-0.0143254
0.0380024
-0.0668552
-0.00356918
0.000349972
0.00344125
-0.000222039
-0.011793
0.0105123
-0.0366802
0.0122427
-0.0461789
0.00594591
-0.00327797
0.0186171
-0.021285
-0.138398
0.0190632
0.130325
-0.0109894
0.0309429
-0.0214945
-0.0122831
0.0028347
0.0344294
-0.0529434
0.00672093
0.00433157
0.00776847
0.0522796
-0.0643797
0.0247341
-0.00713206
-0.0251669
0.00756482
-0.0795747
-0.00830709
0.01469
0.00124718
-0.00111518
5.60199e-05
-0.00039021
0.00301754
0.00236353
-0.00499086
0.0184315
-0.0321404
0.038443
0.0179772
-0.143334
-0.0230084
0.148365
-0.113927
-0.0150142
0.0264614
0.10248
0.0570663
-0.0346023
0.0281972
-0.0506612
0.112459
-0.00614332
0.00309844
-0.109414
-0.0169847
-0.0370864
-0.00426038
-0.0164461
0.00833772
0.0123687
-0.00129868
0.000447821
-1.88693e-05
0.000869729
0.0153935
-0.0779986
0.0626051
0.10867
-0.00702114
-0.112456
-0.0263743
0.0557735
-0.0463839
0.039601
-0.122235
0.0151084
0.0675251
-0.00397249
-0.0121869
-0.026902
0.0430614
0.00373077
0.0505317
0.0862553
-0.135214
-0.00157283
0.0492285
-0.0829886
0.0890889
-0.0553289
-0.0959408
0.0959973
-0.00746426
0.00740769
0.00281625
0.00439763
-0.0952425
0.0880286
-0.00177163
0.00362054
0.00611966
-0.00796857
0.000250413
-0.000963441
-0.000290996
0.00100402
0.0890729
0.000635406
-0.0172551
-0.0724532
-0.000729016
0.000728274
2.72112e-05
-2.64698e-05
0.000685418
0.00327913
-0.00227808
-0.00168647
-0.001819