/*--------------------------------*- C++ -*----------------------------------*\
| =========                 |                                                 |
| \\      /  F ield         | OpenFOAM: The Open Source CFD Toolbox           |
|  \\    /   O peration     | Version:  2506                                  |
|   \\  /    A nd           | Website:  www.openfoam.com                      |
|    \\/     M anipulation  |                                                 |
\*---------------------------------------------------------------------------*/
FoamFile
{
    version     2.0;
    format      ascii;
    arch        "LSB;label=32;scalar=64";
    class       volVectorField;
    location    "0.0817875";
    object      U;
}
// * * * * * * * * * * * * * * * * * * * * * * * * * * * * * * * * * * * * * //

dimensions      [0 1 -1 0 0 0 0];

internalField   nonuniform List<vector> 
47425
(
(10.3237 0.230592 0.0038956)
(10.1472 -0.264663 -0.00357272)
(9.98856 0.00590496 -0.00875498)
(11.631 -0.53474 -0.24727)
(12.708 0.346888 0.661074)
(10.0258 0.00523844 -0.00165174)
(12.614 0.183011 0.657044)
(10.0169 0.00565092 -4.33855e-05)
(10.0046 0.00862297 0.0057856)
(1.00889 3.33413 -2.26957)
(9.9922 0.00847763 -0.00184611)
(9.99028 0.0704488 -0.0085488)
(12.4055 0.333241 0.201401)
(9.99689 0.00420467 -0.00873223)
(11.24 0.00296424 -0.157104)
(10.0948 -0.217701 0.00228687)
(10.0108 0.0012709 -0.00540932)
(8.8046 -0.534968 -1.52663)
(8.68733 1.32168 -5.15361)
(13.739 -0.542365 -1.15695)
(10.959 -0.689618 -0.627512)
(9.79414 -0.0420405 -0.0208697)
(9.95588 0.0159555 -0.00646655)
(9.94023 0.0144343 0.0151674)
(9.90152 -0.0828875 -0.00307401)
(10.019 0.0435667 0.0116052)
(9.99951 0.0178383 -0.00410627)
(11.5256 -0.446463 -8.96133)
(10.006 0.0126279 -0.00448141)
(10.0053 0.0236479 0.0182041)
(9.67114 0.762678 0.00215113)
(10.0453 0.0866799 -0.00154492)
(10.0013 0.00624913 0.00593684)
(9.98515 0.0148868 0.0120011)
(10.0131 0.00292541 0.00637673)
(9.97403 -0.00110502 0.00564879)
(9.73012 -0.0297324 -0.0929196)
(10.0013 0.0164375 0.00789354)
(10.5522 0.458488 -0.0278748)
(10.1329 0.0732531 0.014224)
(9.86219 0.224639 -0.0132498)
(9.16888 0.0943776 -0.599622)
(5.56183 -2.71316 -0.0696828)
(9.98335 0.0133003 0.00529133)
(0.236282 -1.99461 -0.27199)
(9.9656 0.101387 -0.00647558)
(9.95544 -0.00347823 -0.0138533)
(9.99507 0.0294392 0.00557047)
(10.139 -0.102438 -0.00131777)
(10.0691 -0.00188652 -0.00983792)
(2.15338 -0.669508 -5.88962)
(9.05654 1.38053 1.31053)
(10.0555 -0.0130011 0.00600459)
(6.1107 -4.4839 1.26984)
(10.0172 0.0695064 -0.00449441)
(10.2055 0.0189613 0.00804742)
(10.3226 -0.199405 0.0269862)
(9.99817 0.00151984 0.0201209)
(11.9495 1.36244 1.52548)
(9.99585 0.0228894 0.00681149)
(5.13511 -4.41158 0.759325)
(5.47393 -0.825985 2.13996)
(2.72117 -1.87049 0.0451928)
(9.02105 -1.19054 -0.0992254)
(10.0076 0.0106744 -0.00661203)
(10.8365 -0.390855 -0.023027)
(9.98633 -0.0111706 -0.00668626)
(10.8576 0.338079 0.662236)
(7.16773 -3.29482 1.70674)
(8.96803 0.573967 0.288722)
(10.8263 -0.688454 0.125778)
(10.065 0.0216761 -0.00270829)
(11.0402 -0.189493 -0.0295582)
(10.8682 0.318237 -0.648643)
(2.93528 0.873448 -0.213664)
(9.99888 -0.00383528 0.000895149)
(2.77757 -1.65347 0.627815)
(9.96684 -0.0150512 0.00829324)
(5.26078 -1.81028 1.11359)
(12.0232 -0.151338 1.44331)
(3.46149 0.560528 -0.0958425)
(10.2225 0.351752 -0.00764443)
(9.17984 0.149881 -0.353565)
(10.0134 0.0129572 -0.00648)
(9.44305 -0.00253231 0.0239824)
(10.3523 -0.0619253 0.0177784)
(10.9049 -0.0945778 -0.0502118)
(10.2068 0.144058 0.00217301)
(11.1134 -0.235174 -1.5661)
(11.0903 -0.796955 1.93241)
(9.75286 0.448652 -0.0519098)
(10.7495 -0.0068107 -0.0371863)
(10.0499 -0.00835027 0.00741074)
(10.1982 -0.0535147 0.00635118)
(10.1535 -0.0498896 0.0155923)
(10.1258 -0.0119007 -0.00411916)
(10.0467 -0.00922987 -0.00383101)
(10.4565 -0.321893 -0.00774512)
(10.262 -0.0505316 0.00758776)
(10.0452 0.0177973 0.0214691)
(10.0198 0.0378312 0.0028328)
(8.72038 0.134155 -4.15802)
(10.3054 0.185374 -0.0103273)
(5.31929 1.9383 -0.827824)
(10.312 0.168294 -0.0296868)
(10.8259 -0.753203 -0.0124068)
(10.201 0.332149 0.0794067)
(10.2397 -0.0879258 -0.00135912)
(8.51046 -0.154416 -0.535397)
(9.96428 0.0836162 -0.00610985)
(-0.102966 -0.702716 -0.600518)
(9.99817 -0.0792228 -0.00336446)
(10.7388 -0.955292 0.00810525)
(10.3953 -0.0184451 -0.0197204)
(11.0816 -0.42167 0.00819956)
(1.79216 -4.13752 -5.94502)
(11.0796 -0.371602 0.000124571)
(4.05913 0.0404042 -4.41492)
(10.3863 0.165636 0.0012626)
(11.2711 0.399876 0.386941)
(10.4833 -0.0595788 -0.0127987)
(10.0002 0.00368962 0.00555521)
(9.99764 0.0528066 -0.00484467)
(11.8891 0.780358 -0.779517)
(10.0538 -0.0406669 -0.00335112)
(11.0323 -0.794503 0.00670996)
(10.3131 -0.10454 -9.14732e-05)
(10.0073 0.00376363 -0.00684253)
(9.96008 0.0157947 0.0100695)
(10.0133 0.028388 -0.00602409)
(9.18997 -0.300443 0.281208)
(10.7533 0.351175 -0.0501454)
(4.30645 0.0498602 0.486716)
(10.4098 -0.558383 0.0244826)
(9.93782 0.0385394 -0.738207)
(12.2067 -0.536813 -0.956265)
(10.8675 0.926455 0.24583)
(11.0506 -0.853988 0.133887)
(10.1522 -0.0825716 -0.00755676)
(11.1744 -0.0640099 -0.0625659)
(9.98142 0.00633397 0.00228481)
(11.9006 0.299628 0.287085)
(10.5189 0.0409364 -0.031219)
(10.7422 -1.22417 0.054271)
(10.1781 0.230108 -0.0168399)
(10.0046 0.00523614 0.00560669)
(12.5667 0.237118 0.641291)
(10.0111 -0.0303591 0.00710588)
(10.4668 0.0234656 -0.0130901)
(9.97629 -0.0172999 0.00639022)
(10.6497 -1.23283 -0.0921722)
(2.92009 -0.396941 -6.88154)
(10.0071 0.0148733 -0.0100474)
(5.56955 0.106035 -11.4332)
(8.95282 -1.18195 -0.771726)
(9.9819 0.107256 0.0169778)
(11.0489 0.498305 -1.71994)
(7.3276 -3.95383 -2.66806)
(10.1831 -0.0720453 0.0120695)
(9.98238 0.000550769 -0.00382789)
(11.342 -0.235124 -0.0111894)
(10.0258 0.070294 0.014672)
(10.0224 0.0119567 0.00235783)
(10.1606 0.312927 -0.0228661)
(11.9728 0.209559 -0.575804)
(-0.788384 -1.67986 -2.06641)
(10.0154 -0.0294105 -0.00100235)
(3.4138 0.722071 -0.220879)
(9.93668 -0.00421077 0.0247345)
(12.1402 0.750437 -4.35985)
(4.3784 0.546309 -0.371092)
(9.98098 -0.00436633 0.00420003)
(10.0009 0.0239107 -0.00350216)
(9.43289 -0.993704 -0.674904)
(10.3441 -0.0277401 0.0201698)
(9.27813 -3.05699 -1.42834)
(2.76554 0.966412 -7.7005)
(10.0062 0.0185452 -0.00531955)
(10.0305 0.00759911 0.000884418)
(10.0528 0.00611327 0.00283183)
(2.61178 0.427562 -11.0264)
(10.0848 -0.161213 0.0285314)
(10.0215 0.00979126 -0.00150119)
(10.0271 0.00657275 0.0127613)
(10.0378 0.000659751 0.0011396)
(10.0266 0.0240096 0.00461594)
(10.2142 0.0852452 0.00705745)
(5.65007 -0.539584 -0.678896)
(9.82663 0.0081694 -0.00960874)
(10.1904 0.207744 0.0778111)
(10.0007 -0.0101235 -0.00329068)
(9.98844 0.00462268 -0.000736714)
(12.229 -0.819684 -0.630983)
(9.9971 0.00172602 0.00392268)
(10.0229 0.00334393 0.0228645)
(11.2395 0.0327029 -0.0474075)
(10.0017 0.00101267 0.00753632)
(10.0337 -0.0158951 0.0132605)
(11.4071 0.11686 -0.0522736)
(10.4118 -0.251897 0.0751473)
(9.98806 0.0131699 0.00306899)
(10.4841 -0.0521955 0.00960868)
(8.94994 0.387423 -0.344035)
(11.2247 -0.126225 -0.0430431)
(10.327 -1.47849 -0.993134)
(10.6948 -0.0139049 -0.0434113)
(10.001 -0.0114026 0.00977656)
(11.1898 -0.0273593 -0.0436458)
(9.99677 0.088257 -0.0147415)
(10.0027 0.0132478 -0.00284647)
(10.3984 -0.176 -0.00240292)
(11.2006 0.134185 -0.00944425)
(10.0066 0.0243422 -0.00047542)
(9.95275 -0.0307791 0.019449)
(10.7769 -0.0554198 0.0117)
(11.3938 0.211607 -0.156085)
(10.8428 0.0327784 -0.0657718)
(11.3147 0.207962 1.67591)
(8.68023 -1.29605 -0.697658)
(9.94454 -0.0425863 0.00996374)
(11.8592 -0.535197 1.38269)
(11.2833 0.195432 0.175578)
(9.91836 -0.982581 -1.07409)
(10.9298 0.189658 -0.0275631)
(10.6715 -0.00615404 -0.0298367)
(11.9661 -0.766314 1.28661)
(10.0331 -0.00134755 0.00937875)
(11.31 0.23348 -0.0594972)
(11.5409 0.196638 0.0264493)
(12.0371 -0.137647 -0.319261)
(10.8377 0.0330032 -0.0607975)
(9.99459 -0.00380439 -0.00531192)
(10.6011 -0.086595 -0.00863276)
(10.0008 -0.00437658 -0.000522037)
(9.79036 -0.00642831 -0.00720268)
(10.0019 0.26595 0.0111528)
(11.8114 -0.124261 1.47834)
(9.97389 0.0293727 0.00377483)
(12.143 -0.0377873 1.31235)
(9.78239 0.00126606 -0.0463605)
(9.87118 -0.0139842 -0.0105484)
(10.0052 0.00669818 0.0128148)
(10.0837 -0.0277212 -0.00186936)
(11.7224 0.859391 0.0675296)
(10.3934 0.471241 -0.00142939)
(10.0076 -0.0030008 0.0120046)
(10.4287 -0.0795356 -0.0119241)
(10.0106 -0.000421648 0.00281166)
(10.0213 -0.0192875 0.00750758)
(9.95958 -0.00191738 -0.0120047)
(9.99178 0.0845034 0.0299025)
(12.0145 -0.464567 1.45284)
(9.97455 0.00410467 0.00763802)
(10.0033 0.00409971 0.00564049)
(9.91993 0.00764606 0.00452864)
(10.015 -0.00207829 -0.00798912)
(9.85285 0.062042 -0.0317161)
(9.74063 0.0178232 0.0105637)
(10.4616 -0.716265 0.12099)
(10.0098 0.000358488 -0.00680901)
(9.74157 0.0279331 0.00976137)
(9.999 0.0258278 -0.000573349)
(10.2197 0.0528967 -0.00834678)
(10.1225 0.0111877 0.00499948)
(12.0092 0.0234721 0.806729)
(10.5095 -0.452036 -0.143697)
(10.0403 -0.000131904 -0.00297443)
(12.0846 0.0526714 0.629994)
(10.0199 0.00452602 0.00253609)
(10.223 0.0939849 -0.0038609)
(10.1877 0.0536672 -0.000876913)
(12.2374 0.101979 1.09307)
(11.6987 0.0793621 1.33741)
(10.1871 -0.166109 -0.021499)
(12.1038 -0.20106 1.46212)
(10.0531 0.00333443 -0.00141775)
(12.175 -0.0395394 1.29055)
(6.60716 3.3402 2.14461)
(11.6794 -0.0431127 1.41456)
(5.93489 1.27868 -5.28846)
(4.5128 -4.60283 0.653053)
(10.297 0.1922 0.0077239)
(3.35562 -4.1912 -0.107052)
(9.87812 -0.0113901 0.0114558)
(10.0022 -0.00542945 0.0128288)
(11.362 -0.166659 0.00427377)
(9.90663 -0.00595011 0.00789025)
(9.94941 0.00536395 -0.00948632)
(9.80931 -0.22521 -0.00847161)
(11.112 -0.491276 -0.14623)
(1.38283 1.73044 -3.71754)
(9.21328 0.832296 -0.0249268)
(10.0028 -0.00171839 -0.00225154)
(10.0165 -0.00480066 -0.0199546)
(9.99165 0.00555505 -0.00595541)
(10.1651 0.38915 0.418843)
(11.6386 0.939599 0.238574)
(10.2048 -0.714821 0.0832855)
(10.0002 -0.134397 0.00359625)
(11.9844 -0.150037 0.0419509)
(10.1753 0.169209 0.0387294)
(10.087 0.0388256 0.00161841)
(9.95861 -0.0198915 0.00396885)
(10.0185 0.000956056 -0.011331)
(10.0405 4.15122 -0.583347)
(5.68503 1.77158 -0.585609)
(1.50689 1.21395 -6.40185)
(10.0462 -0.00406715 -0.00113315)
(10.0995 -0.0365998 0.00991284)
(10.0414 -0.63965 -0.0780966)
(10.1765 -0.50103 -0.156068)
(1.25706 -0.792744 -5.88134)
(9.97666 0.000280859 -0.0135183)
(9.94843 0.00130528 -0.0127338)
(10.8524 2.22612 0.608628)
(10.2926 -0.143509 0.0223685)
(9.85324 0.00740008 -0.00136613)
(9.81355 0.00354026 0.00636777)
(9.90221 0.00189259 0.000608121)
(12.3056 2.59205 -1.08433)
(11.2895 1.92922 0.523043)
(10.053 0.194161 -0.0106716)
(10.1012 0.133524 -0.00698535)
(10.0245 -0.00863733 0.00837801)
(10.3306 -0.0380045 0.00684463)
(10.0497 0.000107562 0.00486574)
(10.0738 0.237622 -0.000431513)
(10.1603 0.0497755 0.0111278)
(10.0488 -0.0152584 -0.00714642)
(9.97979 -0.0159595 0.00266799)
(11.5586 -0.0728474 0.240818)
(8.83149 0.460376 -0.435607)
(10.6263 -0.731635 -1.39783)
(10.0054 0.0132983 -0.00436906)
(9.96564 -0.00727168 0.00715982)
(10.0455 0.00598396 0.00742869)
(9.0359 0.802441 -0.462245)
(9.97818 0.103924 -0.00167563)
(10.0265 0.0210821 -0.00329818)
(10.0234 -0.0348823 -0.0112688)
(10.0132 0.260182 -0.051086)
(10.0123 0.286866 -0.0535496)
(10.1596 0.115777 0.0180597)
(9.94003 0.268158 -0.0401127)
(10.0468 -0.0161579 -0.00892957)
(10.049 0.00485546 0.00525686)
(9.98598 -0.00121979 0.0173912)
(9.65955 0.461515 -0.205484)
(9.95083 0.00157172 -0.00479391)
(9.94625 -0.0201702 0.00338705)
(10.0029 0.235987 -0.0457915)
(10.4253 -0.475167 -0.0938661)
(10.0662 0.254849 -0.0266577)
(9.95635 0.203176 -0.0272035)
(10.0098 0.194333 -0.0383184)
(11.1874 -1.41572 -0.26425)
(9.94295 0.00375944 -0.00377135)
(9.19634 0.246242 0.0452101)
(9.97826 0.153805 -0.017818)
(9.99537 0.0228511 -0.00802338)
(9.48962 0.319478 1.91561)
(11.5619 0.0889649 -0.476149)
(10.1231 -0.0426601 0.00743238)
(9.9291 0.00378845 -0.00305073)
(10.3633 -0.445362 -0.0192401)
(10.8465 0.438484 -0.0974417)
(9.78389 0.00130727 -0.00978922)
(10.0109 -0.00634581 -0.00866306)
(9.98311 -0.135325 0.00489148)
(10.241 0.760757 -0.141649)
(9.8196 -0.00184094 -0.00739275)
(-0.657367 -2.20418 -0.403903)
(10.7939 -0.106401 0.0147725)
(10.0433 0.997897 -0.123781)
(9.9793 -0.00182599 0.0074164)
(10.0358 0.881281 -0.0992874)
(11.0026 0.317035 -0.474366)
(10.0111 -0.00141153 -0.000245174)
(10.0034 0.00574673 0.00441791)
(9.76048 -0.0282922 -0.0750992)
(10.011 0.00324199 0.00474749)
(10.0578 0.893489 -0.149956)
(10.1244 -0.11779 0.00529255)
(10.0054 0.0235438 0.00689175)
(9.97051 -0.0462303 -0.00544617)
(10.0018 0.0180987 0.006032)
(9.97265 -0.0128896 0.00536182)
(10.2319 0.179458 -0.0116464)
(10.0003 0.00630086 0.00812221)
(9.97685 0.0197856 0.00742278)
(10.5777 0.944968 -0.358212)
(10.366 1.15339 -0.413489)
(9.96452 -0.0120244 0.000642339)
(10.5134 -0.55241 -0.0013122)
(9.9792 -0.00696455 0.012025)
(10.5016 0.886595 -0.315946)
(9.95767 -0.0709887 0.00206859)
(9.98375 -0.00266897 -0.00190297)
(12.2223 0.657757 -0.449039)
(10.0527 0.00798716 -0.0101162)
(10.7285 0.0401633 1.16658)
(10.0757 0.000708799 0.00242921)
(9.55458 1.52049 -2.22126)
(9.9324 0.00201402 -0.00857979)
(10.7483 0.147833 0.00653359)
(9.93966 0.00223813 -0.0167153)
(10.0302 0.0215204 -0.00466763)
(9.81529 0.00851393 -0.00121275)
(10.0407 0.00391335 0.00523882)
(9.97735 0.000391872 -0.0182205)
(10.3639 1.03308 -0.319759)
(1.01498 -1.69032 0.687139)
(2.0463 -0.72851 -2.61569)
(10.101 0.0869079 0.00486012)
(10.3784 1.55196 -0.971211)
(10.7767 0.775511 -0.355735)
(10.8795 0.731025 -0.343802)
(9.98269 -0.00870312 0.0182481)
(9.9952 0.00320586 0.00517923)
(9.95931 0.0205584 0.0109032)
(9.85682 0.00892921 0.00341393)
(9.95525 -0.00165476 0.000850724)
(10.1866 -0.266723 0.0100218)
(10.8934 0.670567 -0.236552)
(9.9432 -0.0182103 0.00262177)
(10.0428 0.0119358 0.00750051)
(11.6235 -1.10317 0.036423)
(11.627 0.539202 -0.254046)
(11.2518 0.613985 -0.201445)
(8.0903 -1.33391 -5.21298)
(-0.0200695 3.38723 0.526565)
(10.7315 -0.318599 0.00965601)
(7.42943 -0.985266 -5.7568)
(-0.0770076 3.24439 0.74144)
(9.82301 -0.245207 -0.0197037)
(-0.127674 3.2718 0.672976)
(9.44706 -0.432236 0.961438)
(10.0037 -0.0718795 0.0178249)
(11.1346 0.681075 -0.372912)
(11.0788 0.739512 -0.40014)
(11.3813 0.638795 -0.36674)
(-0.886259 2.37816 0.947854)
(10.2729 0.140482 0.00539038)
(10.014 0.0395258 -0.00145966)
(10.0041 -0.0156277 -0.00662841)
(11.457 0.673053 -0.482776)
(11.3237 0.718473 -0.548435)
(10.1275 0.0236968 0.0203243)
(10.1565 0.141463 0.0338163)
(9.62719 3.08919 1.7608)
(-0.763752 2.41872 0.958523)
(13.0536 -0.559504 -3.21084)
(10.0062 -0.0142993 0.00823937)
(8.83616 -0.761946 -3.37415)
(10.4152 0.610216 1.21552)
(10.0081 -0.090379 0.00630438)
(11.0403 0.5008 -0.0667321)
(12.1969 0.229344 0.216162)
(11.0172 0.411675 -0.0565403)
(9.99463 -0.0179078 0.00484495)
(9.99848 -0.00471389 0.00711378)
(9.98288 -0.00643932 0.000854989)
(10.4676 0.433964 -0.0221483)
(9.99925 0.00183945 -0.00047009)
(9.98351 -0.0130897 0.0154263)
(10.1523 0.0745951 -0.0129516)
(9.95174 -0.000792921 -0.020408)
(11.2177 0.283697 -0.0792943)
(10.0099 -0.0238473 -0.0179147)
(9.96868 0.0196915 -0.00269067)
(9.99593 -0.0196576 0.00209878)
(10.0051 -0.00714081 0.00904937)
(9.96299 -0.00245092 0.0044402)
(10.389 0.351046 -0.0171223)
(10.0942 0.0512646 -0.00287496)
(10.1185 0.0197187 0.0308371)
(11.1242 0.288245 -0.06981)
(8.50019 3.41234 1.37251)
(9.9726 -0.00572238 -0.00153877)
(12.0581 1.53861 -1.57985)
(9.99703 -0.00851065 -0.00271767)
(11.0491 0.0232307 -0.0441621)
(7.49959 -0.542643 2.42225)
(9.77395 1.46878 -0.660828)
(10.0165 0.0331883 -0.0010007)
(9.84288 1.55119 -0.736858)
(10.0078 0.0255278 0.00735766)
(10.0324 -0.0152035 -0.00883022)
(10.0995 1.33534 -0.965294)
(9.987 -0.00661889 0.016167)
(10.8113 -0.247533 0.00325169)
(9.96821 1.2312 -0.682803)
(10.346 -0.0866649 0.0166417)
(10.6538 0.0978679 -0.287489)
(8.26048 0.351177 -4.21837)
(10.1053 -0.0488634 0.0157078)
(9.61167 1.93105 -0.692261)
(10.0496 -0.0207142 -0.00196011)
(9.03172 2.05695 -1.11741)
(10.1639 -0.163895 0.0397652)
(10.0152 -0.00545444 0.00682659)
(9.98023 0.0246729 0.00813318)
(9.99605 0.00906482 -0.0181515)
(10.6726 1.1271 0.83248)
(9.96148 0.00646953 -0.0230677)
(10.0016 0.005684 -0.0229414)
(10.0211 -0.0354998 0.0103632)
(9.92249 0.133931 0.0388058)
(11.1442 0.741005 -0.0305485)
(10.018 0.00446891 0.00298566)
(10.0033 0.00364668 0.000167765)
(8.62959 0.33498 -0.656526)
(9.98794 -0.00435247 -0.00861619)
(9.78913 0.157277 -0.0371865)
(10.1256 -0.216364 0.0596659)
(10.0845 0.0436337 -0.00869885)
(10.051 -0.00547599 -0.000264848)
(9.94786 0.0137594 0.00881672)
(10.0915 0.0324424 -0.00932131)
(10.3838 1.37283 -1.12652)
(10.0034 0.00990448 0.00687752)
(9.98895 0.00453897 0.00286892)
(3.02913 -0.593657 -5.9083)
(9.96767 -0.00971965 0.00996093)
(9.99882 -0.0134186 0.00381832)
(9.97448 0.13462 -0.0160691)
(10.0041 0.0110988 0.00694663)
(12.6458 1.43228 -0.958213)
(12.7608 1.13961 -0.737844)
(9.96398 -0.00419812 0.000907222)
(9.87457 -0.132548 -0.00603079)
(9.8903 0.0346692 0.0220517)
(11.7211 0.180546 1.23955)
(10.0501 0.061218 -0.00279571)
(12.7962 1.24951 -0.801428)
(9.99944 0.00583881 -0.0030649)
(-1.94656 -0.378919 1.12873)
(8.15938 -0.541377 -0.759599)
(9.12039 -0.893713 1.75328)
(10.0056 0.0128455 0.0185887)
(12.7227 1.19975 -0.748219)
(10.0607 0.0109412 -0.00134386)
(10.206 0.1275 0.0325332)
(9.9808 0.00319974 -0.0194509)
(9.30991 0.190675 -0.0350941)
(10.0456 -0.00175742 0.0080243)
(10.0119 0.0261981 -0.0112927)
(6.00305 -1.43392 -0.916011)
(9.9883 0.000957615 -0.00566441)
(9.92426 0.00916558 0.00347629)
(10.0177 0.00764625 0.0250887)
(12.5141 1.58686 -0.861521)
(10.0655 0.0296406 0.00241408)
(10.001 -0.0170785 0.00627751)
(12.3629 1.50103 -0.886062)
(12.3092 1.01975 -0.411249)
(9.97173 -0.0124562 0.0108471)
(10.0553 -0.0115207 -0.00584535)
(-0.13298 1.8575 0.39696)
(10.0402 0.0119061 -0.00431004)
(10.8031 -0.410494 0.0925331)
(10.0132 -0.00146186 -0.00881826)
(10.0388 0.00784058 0.0293582)
(10.049 -0.0252626 -0.00216017)
(11.9416 1.13166 -0.458822)
(11.5708 0.322796 1.41538)
(9.18933 0.736992 0.746715)
(9.75205 0.144227 0.0770066)
(10.0729 -0.101527 0.0196207)
(10.0333 0.00545922 -0.00176324)
(12.5995 -0.532948 -0.330361)
(9.3114 0.252812 -0.468983)
(9.67738 0.0681068 -0.118544)
(-0.0428271 1.71762 0.265252)
(10.0016 -0.0100456 -0.00459324)
(10.043 0.00355884 -0.0150572)
(-0.233139 1.63057 0.370708)
(12.1481 1.69981 -1.3093)
(9.90617 0.0829451 -0.0131243)
(0.015414 1.82336 0.294611)
(0.019108 1.84569 0.382859)
(10.0113 0.000580049 -0.0061917)
(9.99753 0.0146941 0.00166861)
(10.0186 -0.00571572 -0.00563727)
(9.59522 -0.341644 -0.0170769)
(9.99772 0.00325952 -0.00694334)
(9.96546 -0.0172525 0.00239127)
(10.102 -0.260522 -0.494964)
(10.0359 0.278554 -0.00124601)
(9.93798 0.00637949 0.00201369)
(10.0336 0.017619 0.00274041)
(12.5473 1.42132 -0.424044)
(11.8472 1.39982 -0.456425)
(9.96933 0.00993324 -0.000306095)
(10.516 0.385178 -0.0299484)
(-3.33866 -2.13002 -0.0711257)
(-2.28682 -3.24142 1.74666)
(10.9198 0.430859 -0.120902)
(9.93119 -0.000870479 -0.00764427)
(10.2797 -0.155732 0.192964)
(11.0541 -0.0906061 -0.805398)
(9.86167 -0.00581318 0.00143158)
(9.8602 -0.0135598 0.0113908)
(10.0506 -0.0374545 -0.000487051)
(10.3426 0.146308 0.00916099)
(9.97955 -0.0129974 0.00687087)
(10.9536 0.322447 0.31999)
(9.99986 0.00321912 0.000291491)
(13.1748 0.792712 -0.744261)
(10.3566 1.55611 -1.22514)
(10.7941 0.415164 -0.0706643)
(13.1925 0.976564 -1.08752)
(10.0644 0.0344287 0.00330688)
(9.99804 9.40898e-05 0.00647309)
(10.3534 0.800934 0.132403)
(10.1639 -0.0944334 0.0322702)
(10.0152 0.00276119 0.00611093)
(10.0039 0.00725604 -0.00303429)
(11.2621 0.392407 -0.603503)
(7.93889 -0.791651 -1.53934)
(10.0172 -0.00412288 -0.0078452)
(11.0672 0.133632 -0.0245942)
(9.96302 0.310074 -0.0206674)
(11.0519 -5.23391 -2.59911)
(10.3984 -0.908386 0.843517)
(11.9812 0.0568221 0.933058)
(6.59714 0.156505 0.245486)
(6.36664 0.130169 0.0891292)
(10.0516 0.0174635 0.000932893)
(10.0017 0.3513 -0.0907995)
(4.35145 0.0276752 -0.196701)
(9.96482 0.0103412 -0.00206545)
(10.0385 -1.7511 -3.62235)
(8.10343 -0.0529783 1.51221)
(9.98435 0.00157385 -0.00214912)
(10.0175 0.501315 0.29585)
(10.0268 0.0117024 -0.014934)
(10.0366 0.000414324 0.0163123)
(10.0166 0.00217388 -0.000705728)
(13.4112 0.606375 -0.240852)
(9.97626 0.00996427 -0.00394201)
(9.98474 0.00397547 -0.001476)
(10.0571 -0.033935 -0.0152908)
(9.80902 0.00114283 -0.00870253)
(10.0611 -0.0131883 0.0248175)
(9.97314 0.00399719 -0.0102472)
(10.0492 0.0216974 0.00370578)
(9.85083 -0.0653986 0.00970864)
(10.9541 1.20585 0.688527)
(9.16374 -1.01965 -2.36611)
(12.2396 3.77755 1.94951)
(10.7626 0.581614 0.0210168)
(9.59966 1.49311 1.26598)
(9.99275 -0.00179941 0.00240949)
(9.26269 -1.00557 0.0508146)
(9.97302 0.0117799 -0.000959174)
(10.0004 0.00217566 -0.0108778)
(10.0028 0.00350029 -0.00849168)
(9.99973 0.00108569 -0.00760946)
(9.98432 0.017952 -0.00602838)
(9.20209 0.453474 -0.922808)
(11.0841 0.815497 0.208261)
(9.98661 0.0133486 -0.00549826)
(10.2216 -0.585144 0.0510756)
(11.176 1.67049 2.00047)
(9.98052 -0.00133957 -0.00207793)
(1.78524 0.725739 0.443877)
(13.3278 -1.01528 -3.15524)
(9.95687 -0.0177056 0.000619217)
(9.31594 -0.556933 -0.00296298)
(10.4753 0.0212723 0.038981)
(10.0327 -0.00968944 -0.0051341)
(2.5224 1.20778 0.44296)
(9.99722 -0.0173794 -0.00131733)
(5.40619 -1.50086 -0.266134)
(9.97231 -0.00334202 0.00435746)
(11.9851 0.0348699 1.12674)
(12.2093 0.408801 -0.0785963)
(9.95227 -0.0192221 0.00195268)
(9.90421 -0.00682251 -0.00434162)
(10.1833 0.627668 0.0387294)
(8.65986 -0.63176 -2.35929)
(9.9251 0.00603504 0.00484294)
(10.0323 -0.00592195 -0.00278888)
(10.396 -0.0112677 -0.00615022)
(12.579 -0.0645394 0.611094)
(10.001 0.00364388 0.00192554)
(12.4643 0.327252 0.197387)
(10.5384 -0.0152213 -0.0250335)
(0.0101196 -0.0233486 -0.782184)
(12.16 0.329304 0.0356)
(10.4678 -0.0199795 -0.0146303)
(12.2965 0.325766 0.142593)
(10.0007 -0.00357817 -0.00354403)
(10.125 -0.167974 0.00593596)
(10.5341 0.435817 0.0173136)
(10.5217 -0.0591551 -0.0212648)
(12.4702 0.409125 0.0156338)
(9.99935 -0.0223018 5.50874e-05)
(10.0661 -0.232055 -0.0263043)
(12.3203 0.398343 -0.0178583)
(9.95446 -0.037578 0.00294698)
(10.5567 -0.0561304 -0.0194622)
(9.98319 -0.0253806 -0.00900794)
(10.0437 -0.0162953 0.0169659)
(6.90223 0.393989 -5.23647)
(6.72928 -0.118656 -5.8382)
(9.66397 0.087501 0.350054)
(8.86438 0.414784 -4.27817)
(9.99381 -0.0249158 -0.0108862)
(9.95234 -0.0236078 -0.00901661)
(10.8773 0.665247 -0.282267)
(10.5444 -0.177731 0.0131605)
(7.89515 0.090626 1.11025)
(10.0142 -0.0264197 -0.0100046)
(10.0804 0.0632622 -0.00980473)
(9.99767 -0.019016 -0.00141358)
(10.0247 0.0754931 0.0187325)
(5.29123 0.242645 -6.49222)
(3.81639 -1.52954 1.70916)
(9.98511 -0.0227176 -0.0017088)
(10.017 0.0397019 -0.00705349)
(10.0393 -0.0877942 -0.0024796)
(9.88 -0.0612034 0.0106184)
(10.2537 -0.172213 0.0429278)
(9.97219 -0.0223056 -0.00458327)
(11.3704 0.0136387 -0.0428599)
(11.7748 -1.23308 1.01554)
(10.1633 0.0299798 0.0219022)
(10.0403 0.013478 -0.00680315)
(10.007 -0.0195484 -0.00397607)
(10.0094 0.0641043 0.0115758)
(9.6981 0.201892 0.0262202)
(10.0142 -0.0138877 -0.00845476)
(10.8094 -0.143923 -0.0407695)
(9.94991 -0.00302389 0.00256307)
(10.0133 0.0273007 -0.0116389)
(10.0986 0.076287 0.0136147)
(9.26778 -0.878504 -1.3213)
(5.17003 0.713071 -4.89808)
(10.0598 -0.0876732 0.00117748)
(-0.113213 -1.94619 0.240525)
(9.91985 -2.47371 0.621037)
(13.3137 -1.19002 -1.21973)
(-0.134844 -1.93639 0.208792)
(10.4718 0.0509905 -0.00447683)
(6.02158 -0.348671 2.32812)
(10.6144 -0.511699 -2.67659)
(10.8803 -1.68394 0.346058)
(5.67461 0.316627 -3.89205)
(-0.172876 1.73385 0.636893)
(1.50453 0.634921 -3.69546)
(11.718 -0.0740016 0.704529)
(10.839 -0.0143037 -0.0625736)
(11.6747 0.0811249 1.19371)
(9.92173 0.00558473 0.00218342)
(3.71452 -0.314985 -0.413527)
(10.8624 0.0832692 -0.357319)
(10.7426 -0.0167144 -0.0211398)
(9.97243 -0.0591821 0.049465)
(10.0107 0.0145605 -0.0259089)
(11.7684 0.18217 1.22037)
(10.0067 0.145157 0.0392245)
(10.2064 -0.0423126 0.0220783)
(9.96413 0.0160453 0.000806072)
(-0.425256 1.06358 0.114624)
(8.10925 0.314677 -2.5758)
(10.0148 -0.00770255 0.00838503)
(9.98451 -0.00472251 0.00437193)
(5.02874 0.301894 -2.51788)
(5.92305 0.155509 -3.17871)
(10.614 -1.6049 -1.01129)
(-1.78869 -2.54449 -1.20857)
(5.52487 0.20992 1.87832)
(4.04901 0.0132262 -4.00386)
(3.77289 -0.0430718 -4.85871)
(10.0055 -0.00406876 0.0101017)
(9.8076 0.000604479 0.00153845)
(9.47056 -0.0266204 0.0134208)
(10.0199 -0.000693188 -0.0075511)
(10.4159 0.0433213 -0.013708)
(-0.243424 1.82417 0.365544)
(11.0089 -0.0159015 -0.271916)
(10.4691 0.0350198 -0.0145833)
(10.336 0.0350875 -0.0062996)
(10.0511 0.00496424 0.00603043)
(-0.222696 1.71283 0.819218)
(-0.439021 1.75916 0.773597)
(10.059 0.0180533 -0.0148132)
(10.4116 0.00102936 -0.0243391)
(9.93307 0.0232364 -0.00220624)
(10.0472 -0.0114715 -0.00771637)
(10.3596 0.0158453 -0.00772221)
(10.0446 -0.0107419 -0.0134527)
(9.68181 -0.00768816 -0.0775385)
(10.0052 0.00460958 -0.0115738)
(9.99221 -0.0157959 -0.00567745)
(6.99888 -0.772777 -3.23552)
(10.0478 0.00295137 0.00616698)
(10.0492 0.000518088 0.00184643)
(10.0162 0.00140156 -0.011202)
(9.84584 0.00274471 0.00117595)
(9.86564 0.00503977 0.00829291)
(4.26986 -0.609063 -2.55219)
(12.6986 -1.23536 -0.812186)
(10.0404 -0.0010234 0.00746262)
(10.8941 0.451273 -0.218492)
(10.0117 0.0258028 -0.0129788)
(9.67577 -0.328307 0.0950094)
(9.63306 -0.41488 0.145649)
(12.3759 -0.0424787 -0.0770009)
(9.84438 -0.00135555 -0.00444506)
(-0.279742 -1.08662 0.930706)
(12.4637 -0.185626 -0.145139)
(10.5009 0.150171 -0.0162685)
(10.8508 0.41371 -0.0534342)
(8.11041 0.346275 -3.52131)
(10.5146 3.14072 1.55846)
(9.99325 0.0012055 0.00193795)
(9.98877 0.00111782 -0.00278789)
(11.4626 1.73457 2.12908)
(10.0028 -0.0769435 -0.00695153)
(9.99921 0.0336922 0.00546153)
(10.7943 0.800097 0.337255)
(9.97201 -0.00372264 -0.00329531)
(9.98348 -0.00278176 0.00169918)
(-2.689 0.703624 1.38233)
(12.5442 0.795569 -0.261006)
(10.3462 3.58099 -0.498176)
(10.002 0.000773991 0.00499594)
(7.72586 0.613834 -2.73299)
(10.0099 0.0023226 0.00835443)
(12.1065 0.190323 -0.281904)
(9.48164 -0.396136 0.232957)
(12.4498 -0.0797209 -0.0783986)
(9.92891 0.00194995 0.000487348)
(9.29005 -0.426361 0.188776)
(-1.11926 -0.489943 0.895398)
(11.4426 1.85578 2.61245)
(12.6134 -0.453151 -0.926242)
(-0.884453 1.12222 0.670945)
(12.4287 0.299483 0.190141)
(10.6504 0.18536 0.018248)
(9.95949 2.80418e-05 0.00710549)
(12.2495 -0.321341 -0.268015)
(10.0004 0.0038172 0.00448045)
(12.6228 -0.0947065 -0.0197802)
(-0.0592778 -1.37599 0.590413)
(9.99832 0.00619463 0.00543427)
(12.8871 0.113295 -1.38483)
(9.8911 -0.00368247 -0.00382417)
(9.88583 -0.0164001 -0.000122435)
(11.1786 -1.25658 -0.539808)
(9.93045 -0.0156559 -0.0101301)
(10.3162 0.129098 -0.0161044)
(8.0363 -5.76319 -0.040753)
(9.50512 0.458984 0.023025)
(10.0098 -0.239909 -0.0284226)
(12.8604 -0.578811 -0.0882463)
(10.6957 1.62441 0.997916)
(10.0393 -0.0277244 0.00667313)
(11.7479 -2.66989 -1.10447)
(5.26098 -0.90728 -0.240898)
(10.7603 0.0369532 -0.00859674)
(9.62389 -0.729874 -0.917041)
(10.0564 0.141333 0.0366767)
(10.6386 0.240739 0.00838514)
(9.98501 -0.0187374 -0.0151572)
(10.0277 -0.0257268 0.00132634)
(-0.995194 1.21418 0.262293)
(0.798345 -4.45495 1.9128)
(12.0851 -0.886182 0.310452)
(10.1098 -1.30927 -0.76627)
(12.411 -0.706646 -0.471349)
(1.02781 4.87902 0.851338)
(-1.23584 0.226506 -0.783178)
(9.14797 -3.6097 4.19433)
(10.0349 -0.0200612 0.0104943)
(10.0023 0.0123316 -0.00996211)
(9.98871 0.0138284 -0.00416364)
(9.84002 -0.0283142 -0.00460632)
(1.05007 1.21707 1.04007)
(9.59939 -0.541048 0.157975)
(8.94082 -0.660948 1.00235)
(9.98698 0.02096 -0.009579)
(-0.148487 -1.53299 0.0695821)
(12.5412 -0.0688016 -0.118553)
(10.7258 0.0261363 -0.299889)
(10.1767 0.0377854 0.00724873)
(10.0305 -0.015252 -0.00981704)
(10.1825 0.0383688 0.0136065)
(6.23283 -1.87096 -3.32946)
(10.0048 -0.00291602 -0.00704745)
(3.54407 3.96201 -1.03904)
(10.0238 0.00889253 -0.00154231)
(10.3502 -0.648328 -3.15853)
(9.98819 -0.00367683 -0.00291855)
(9.99892 -0.00611992 -0.0061753)
(10.0093 -0.0100361 -0.00736886)
(10.0142 -0.0098294 -0.0110022)
(9.9881 -0.0117048 0.00334517)
(12.5919 1.60139 0.595071)
(11.557 0.356436 0.738238)
(8.90271 1.48375 2.33019)
(6.93027 4.03301 2.31935)
(9.33108 1.21801 0.401739)
(10.4332 0.571631 -0.0816513)
(11.164 1.29722 0.00433726)
(6.65251 -0.460606 -3.00068)
(10.7281 -0.149706 0.0210436)
(12.361 -0.447134 0.0943065)
(10.7827 -0.74027 -0.0145896)
(12.3354 0.066575 -0.0620923)
(8.31348 -0.238904 4.36238)
(6.0558 -1.43334 2.50174)
(10.7357 -0.360629 0.177)
(9.99933 -0.00930832 0.00495156)
(9.57155 0.966079 -0.35803)
(10.0042 -0.00561598 0.0100213)
(10.2739 -0.0232216 -0.00346127)
(12.6829 -2.4192 3.08685)
(12.5644 -0.366202 0.715231)
(-0.922303 3.6115 -0.279916)
(10.1086 -0.969929 0.181768)
(11.9398 -1.00349 -0.607164)
(10.5494 -1.06268 -1.21015)
(9.94337 -0.421918 1.10912)
(10.3106 -0.0460557 0.00479804)
(-3.71473 -2.79571 0.959887)
(10.118 -0.0135641 0.00687972)
(10.1971 -0.0177331 0.00298671)
(11.027 -0.222905 1.40235)
(9.73179 -0.132823 4.61216)
(10.3453 -0.0529499 0.0100854)
(10.3113 0.566341 -0.444993)
(9.97225 0.00482059 -0.00247156)
(10.504 -1.44435 0.561797)
(11.2651 -0.0433004 1.53052)
(9.9567 -0.0173454 0.000814387)
(11.1745 -0.441069 -3.14581)
(9.58761 2.05608 -1.86258)
(11.8226 0.461818 1.3675)
(11.0533 0.327797 -0.183955)
(9.4804 0.117595 0.256774)
(3.11468 0.946485 -3.88014)
(0.26272 3.50935 2.85699)
(5.23718 3.1908 0.63008)
(13.3451 -0.854352 -3.00015)
(4.21902 -0.954615 -0.460697)
(9.75643 -0.00615899 0.00246029)
(9.88784 -0.0271419 -0.00484985)
(8.25629 1.72984 2.63796)
(9.9455 0.00197539 -0.00269647)
(4.53457 -0.836972 -0.324851)
(9.81038 -0.00643395 -0.00217127)
(9.78078 -0.00927464 -0.00038767)
(-0.0738785 -1.96305 1.05035)
(9.4898 -1.33313 0.801849)
(10.8838 -0.64462 0.0944351)
(9.97564 0.00269374 0.00442035)
(10.0009 0.0185026 -7.28104e-05)
(8.34797 0.395284 -2.89868)