/*--------------------------------*- C++ -*----------------------------------*\
| =========                 |                                                 |
| \\      /  F ield         | OpenFOAM: The Open Source CFD Toolbox           |
|  \\    /   O peration     | Version:  2506                                  |
|   \\  /    A nd           | Website:  www.openfoam.com                      |
|    \\/     M anipulation  |                                                 |
\*---------------------------------------------------------------------------*/
FoamFile
{
    version     2.0;
    format      ascii;
    arch        "LSB;label=32;scalar=64";
    class       volScalarField;
    location    "0.0100321";
    object      k;
}
// * * * * * * * * * * * * * * * * * * * * * * * * * * * * * * * * * * * * * //

dimensions      [0 2 -2 0 0 0 0];

internalField   nonuniform List<scalar> 
3989
(
0.377517
0.385853
0.375614
0.382763
0.399959
0.377365
0.393746
0.377249
0.392805
0.395258
0.386391
0.385273
0.378423
0.379108
0.380665
0.400612
0.378278
0.381301
0.389842
0.379391
0.383142
0.370773
0.380117
0.376297
0.391921
0.370269
0.393742
0.385439
0.379643
0.376388
0.383189
0.377592
0.380552
0.380005
0.377156
0.382517
0.38631
0.380002
0.384579
0.380374
0.379917
0.393969
0.385338
0.387753
0.379357
0.395447
0.393162
0.388494
0.3746
0.368917
0.379012
0.401312
0.411582
0.381855
0.382038
0.392343
0.403185
0.393168
0.382247
0.385023
0.395727
0.38389
0.531714
0.567625
0.398356
0.37574
0.371377
0.383815
0.376866
0.388842
0.395902
0.376696
0.394319
0.393088
0.37359
0.383509
0.390867
0.374691
0.385534
0.386342
0.398717
0.381317
0.373248
0.386739
0.377174
0.386508
0.376791
0.391573
0.379113
0.391416
0.380184
0.375042
0.377296
0.376911
0.393226
0.385435
0.382419
0.371565
0.384783
0.384563
0.381354
0.380726
0.38216
0.386863
0.391174
0.378506
0.381995
0.382777
0.381584
0.389234
0.386756
0.392147
0.38821
0.389697
0.398083
0.392298
0.386696
0.394063
0.379375
0.395454
0.381207
0.375291
0.392769
0.387381
0.394001
0.380108
0.406579
0.398388
0.390195
0.378491
0.390055
0.391012
0.379136
0.394905
0.393789
0.387624
0.390403
0.390354
0.399254
0.38387
0.381539
0.382353
0.383515
0.379422
0.38036
0.395405
0.378554
0.3793
0.381353
0.371988
0.379293
0.372149
0.370953
0.379374
0.395986
0.388853
0.376105
0.3757
0.37831
0.390275
0.380272
0.393661
0.383859
0.395389
0.391796
0.399071
0.398584
0.384638
0.387222
0.379381
0.394226
0.413658
0.393205
0.378744
0.381458
0.379389
0.399887
0.387242
0.375229
0.384837
0.391073
0.379093
0.382677
0.388786
0.383673
0.395335
0.382519
0.394913
0.374169
0.375826
0.380174
0.38861
0.383874
0.396421
0.380167
0.405874
0.559892
0.40283
0.384458
0.376854
0.385716
0.379037
0.394445
0.378188
0.386863
0.382678
0.386727
0.387205
0.411032
0.414667
0.386591
0.431229
0.425133
0.383075
0.373585
0.63381
0.420431
0.384281
0.38953
0.423943
0.382631
0.383458
0.401206
0.386793
0.394267
0.369997
0.3779
0.385989
0.390043
0.378237
0.379429
0.389498
0.374147
0.373804
0.383056
0.395789
0.396019
0.383638
0.400211
0.374539
0.391472
0.38241
0.377988
0.392246
0.386945
0.395891
0.385589
0.376383
0.393745
0.386027
0.388516
0.383519
0.378931
0.39732
0.389977
0.385144
0.390091
0.386411
0.379765
0.397577
0.38723
0.36481
0.381793
0.379117
0.378361
0.382137
0.37812
0.41372
0.382331
0.375072
0.373866
0.397004
0.392934
0.382494
0.382894
0.376676
0.392034
0.39115
0.373079
0.392161
0.385115
0.376667
0.380466
0.378363
0.383244
0.380378
0.382776
0.389248
0.381052
0.396
0.396576
0.393883
0.37713
0.37043
0.38619
0.410687
0.374233
0.379689
0.45973
0.425611
0.392238
0.398726
0.387652
0.396821
0.393766
0.411855
0.374952
0.384686
0.392238
0.383279
0.377091
0.381242
0.425667
0.460927
0.398016
0.39187
0.382713
0.389036
0.382302
0.376331
0.377085
0.375827
0.374753
0.38477
0.383563
0.404655
0.380072
0.385757
0.393643
0.37809
0.376953
0.394281
0.392802
0.384649
0.378249
0.384456
0.380239
0.373803
0.396367
0.403098
0.426724
0.37516
0.376242
0.37949
0.383734
0.390896
0.522379
0.381967
0.374331
0.386807
0.380468
0.390775
0.386987
0.376449
0.381191
0.386877
0.376152
0.371215
0.724288
0.378054
0.372362
0.391145
0.392282
0.561066
0.429319
0.377923
0.374852
0.377582
0.374347
0.38093
0.382531
0.381903
0.385162
0.379175
0.372119
0.380216
0.382971
0.380886
0.396076
0.383118
0.390797
0.395132
0.388539
0.380212
0.383812
0.394827
0.376575
0.396277
0.374581
0.394539
0.38103
0.375529
0.382119
0.399073
0.386452
0.378237
0.391915
0.392887
0.39393
0.388584
0.380339
0.377495
0.386507
0.391337
0.389738
0.381857
0.385202
0.461408
0.386994
0.400379
0.37922
0.420114
0.396338
0.63302
0.377228
0.443148
0.391088
0.382871
0.384775
0.387795
0.634891
0.391512
0.394744
0.538291
0.385269
0.374775
0.383975
0.469123
0.397889
0.389751
0.384294
0.37624
0.379911
0.382398
0.518591
0.38727
0.386381
0.393335
0.393003
0.384673
0.390161
0.401143
0.391491
0.392678
0.383836
0.378374
0.386743
0.379525
0.389437
0.381024
0.391478
0.371338
0.368996
0.377634
0.410574
0.374576
0.384214
0.392259
0.381155
0.383271
0.39595
0.38743
0.392071
0.387286
0.384383
0.38447
0.382423
0.388277
0.394373
0.377732
0.38046
0.386749
0.376141
0.385605
0.379028
0.379935
0.372812
0.396248
0.395488
0.377619
0.384992
0.381213
0.388806
0.375054
0.384133
0.376238
0.38492
0.391368
0.375004
0.383684
0.389707
0.37997
0.37646
0.390656
0.392712
0.374874
0.386067
0.377018
0.401586
0.37759
0.406199
0.379943
0.377679
0.37314
0.374091
0.393058
0.380369
0.374847
0.381613
0.388478
0.380713
0.3949
0.393213
0.376331
0.377581
0.380035
0.383552
0.382647
0.382976
0.383951
0.380323
0.368901
0.393253
0.386603
0.374281
0.375776
0.378891
0.375304
0.379942
0.380723
0.38998
0.378852
0.383008
0.386676
0.377164
0.370841
0.38598
0.370526
0.373991
0.381013
0.402099
0.381383
0.380613
0.807575
0.706562
0.38874
0.395622
0.386032
0.378403
0.380249
0.378214
0.377213
0.380227
0.396104
0.386166
0.391158
0.382732
0.388706
0.392239
0.383511
0.375223
0.394471
0.379303
0.398884
0.387299
0.372395
0.396777
0.389093
0.390226
0.382436
0.379092
0.385834
0.399974
0.442062
0.38112
0.398973
0.389565
0.39077
0.380268
0.398043
0.384435
0.383611
0.382015
0.404547
0.398568
0.38074
0.37665
0.384637
0.386637
0.377531
0.372783
0.384509
0.388067
0.485719
0.620239
0.388202
0.37839
0.378522
0.37778
0.387578
0.376961
0.384249
0.378628
0.379564
0.369581
0.40393
0.379561
0.378143
0.386171
0.376552
0.379997
0.38763
0.383957
0.387883
0.386386
0.37632
0.385225
0.372733
0.389309
0.379811
0.384145
0.384324
0.378957
0.381223
0.37919
0.389096
0.388628
0.386508
0.374717
0.394192
0.386494
0.400245
0.411121
0.374275
0.380867
0.385949
0.378782
0.382408
0.389934
0.384126
0.380838
0.373489
0.387306
0.381925
0.404367
0.377919
0.388616
0.38588
0.388778
0.378305
0.384872
0.386229
0.379987
0.395299
0.384666
0.383525
0.378895
0.388796
0.381118
0.383523
0.3838
0.388048
0.376161
0.387069
0.378426
0.394246
0.37644
0.383335
0.389193
0.384327
0.37843
0.374188
0.383644
0.374508
0.379703
0.397274
0.386861
0.378265
0.387578
0.384895
0.381999
0.383597
0.382597
0.380387
0.38424
0.382235
0.38761
0.38036
0.386315
0.384807
0.391011
0.376973
0.384046
0.38159
0.390896
0.376021
0.380961
0.392281
0.397911
0.380108
0.391706
0.382058
0.386101
0.387696
0.384737
0.374561
0.393543
0.389982
0.374737
0.383717
0.390229
0.387848
0.383842
0.387597
0.391276
0.392763
0.383178
0.377514
0.391738
0.382934
0.388268
0.37388
0.389432
0.380459
0.376798
0.383123
0.380569
0.418774
0.372771
0.376781
0.389655
0.374138
0.372247
0.374982
0.385923
0.380514
0.387421
0.382429
0.39109
0.386264
0.400632
0.380258
0.387316
0.396847
0.504666
0.386851
0.380007
0.487674
0.376127
0.391281
0.383337
0.38309
0.399615
0.390473
0.534941
0.664594
0.664585
0.390031
0.382948
0.379404
0.385633
0.37435
0.375836
0.392734
0.394542
0.374185
0.377885
0.382904
0.378947
0.387535
0.399901
0.38971
0.384184
0.368716
0.383863
0.393053
0.40208
0.377272
0.39598
0.37508
0.375483
0.375571
0.404223
0.374893
0.375268
0.392027
0.388032
0.378563
0.384267
0.390315
0.376675
0.379975
0.380721
0.4068
0.380561
0.38386
0.38548
0.406772
0.387004
0.390822
0.392665
0.389593
0.379009
0.384336
0.375869
0.380566
0.381025
0.38116
0.381134
0.379323
0.383456
0.387418
0.382458
0.40676
0.385289
0.406779
0.421945
0.416127
0.415958
0.397065
0.386506
0.386231
0.379522
0.372954
0.388539
0.413892
0.381191
0.377641
0.379001
0.381256
0.383805
0.384909
0.380854
0.381835
0.372843
0.377928
0.379601
0.381161
0.378713
0.378569
0.404661
0.382293
0.458972
0.413123
0.381959
0.38012
0.387594
0.38778
0.386049
0.373047
0.383115
0.384887
0.39824
0.391447
0.378311
0.381892
0.385665
0.388775
0.37914
0.398578
0.386476
0.386277
0.393899
0.380088
0.382314
0.381529
0.389588
0.572387
0.450876
0.384886
0.386465
0.444248
0.380229
0.417053
0.448625
0.383143
0.377826
0.381549
0.403929
0.399258
0.378827
0.578545
0.375224
0.382534
0.476215
0.400563
0.371296
0.374632
0.390938
0.394206
0.397205
0.376713
0.37777
0.37762
0.380717
0.376037
0.410142
0.40472
0.378036
0.378588
0.453386
0.37992
0.428813
0.373449
0.377891
0.420447
0.661072
0.499013
0.607591
0.700495
0.501004
0.388936
0.391004
0.388431
0.759769
0.633249
0.379995
0.409924
0.398976
0.571524
0.414315
0.432798
0.383928
0.380894
0.400313
0.38391
0.388338
0.383268
0.386997
0.39904
0.448814
0.38467
0.383581
0.380052
0.383498
0.382254
0.389487
0.400002
0.380666
0.398044
0.49898
0.591828
0.383234
0.400391
0.387448
0.450423
0.380513
0.384583
0.399988
0.392062
0.382161
0.378153
0.384674
0.400159
0.4165
0.385956
0.382337
0.380618
0.384155
0.378409
0.384368
0.376938
0.383183
0.382589
0.378614
0.390348
0.386275
0.375279
0.38756
0.380277
0.378253
0.371881
0.373945
0.384358
0.385911
0.419441
0.388838
0.37825
0.390002
0.377805
0.380107
0.387326
0.39104
0.384802
0.372787
0.382942
0.370517
0.379425
0.38639
0.374785
0.377393
0.382657
0.377684
0.393442
0.37521
0.39652
0.373581
0.378388
0.375871
0.386988
0.378307
0.376763
0.385051
0.37806
0.386923
0.383965
0.380124
0.383348
0.380741
0.391084
0.380112
0.392238
0.373902
0.406266
0.396692
0.374546
0.374585
0.375378
0.385627
0.381554
0.376585
0.380488
0.390406
0.384976
0.381793
0.377618
0.383892
0.398952
0.388404
0.389103
0.393991
0.373618
0.377526
0.374697
0.380547
0.400164
0.394385
0.393201
0.390462
0.394324
0.391802
0.381645
0.381402
0.388687
0.382608
0.389498
0.389562
0.392094
0.395542
0.381045
0.399802
0.392411
0.377563
0.374251
0.372793
0.384429
0.388316
0.377826
0.376723
0.382168
0.398698
0.389681
0.385815
0.389144
0.39521
0.389869
0.380503
0.381995
0.382113
0.381434
0.378053
0.379276
0.393902
0.387825
0.388905
0.385004
0.386593
0.384914
0.38585
0.384981
0.447893
0.440053
0.390348
0.383868
0.383051
0.384476
0.386439
0.380806
0.390733
0.392341
0.387972
0.389722
0.379674
0.372758
0.371718
0.378439
0.385604
0.386286
0.388925
0.382556
0.377837
0.384206
0.384636
0.653494
0.382293
0.387299
0.393978
0.38352
0.384929
0.385727
0.376821
0.385452
0.373286
0.378004
0.389343
0.378791
0.380218
0.374482
0.3976
0.379317
0.384184
0.379556
0.4725
0.40674
0.387807
0.382543
0.379878
0.442625
0.463494
0.467002
0.410881
0.402998
0.415382
0.384001
0.377105
0.381871
0.375264
0.372829
0.396994
0.396443
0.373694
0.381952
0.384533
0.385626
0.381402
0.390264
0.375444
0.381066
0.388137
0.402126
0.400079
0.39184
0.384381
0.381271
0.382869
0.38564
0.380219
0.383722
0.396681
0.385769
0.384931
0.382913
0.40196
0.383447
0.376244
0.393851
0.390561
0.376899
0.422487
0.375624
0.386429
0.383939
0.380232
0.37662
0.387626
0.386522
0.401544
0.384662
0.392391
0.384582
0.377804
0.380783
0.376287
0.378066
0.37811
0.380277
0.384561
0.388461
0.376235
0.377706
0.374775
0.394574
0.386092
0.39944
0.374824
0.383876
0.373863
0.390313
0.378793
0.375064
0.379034
0.381975
0.373947
0.37805
0.376711
0.386599
0.372205
0.38201
0.376687
0.379713
0.403355
0.378208
0.381225
0.378
0.373982
0.384625
0.387494
0.376592
0.371093
0.380845
0.375919
0.38074
0.37892
0.380324
0.376221
0.393842
0.384846
0.388577
0.378077
0.380231
0.389305
0.372808
0.380047
0.3767
0.379525
0.371722
0.38086
0.383591
0.378928
0.382992
0.382303
0.385332
0.386719
0.38472
0.39079
0.391524
0.380498
0.378968
0.3728
0.385111
0.391008
0.407456
0.376414
0.393235
0.383762
0.383941
0.374753
0.380739
0.395672
0.382107
0.3797
0.374361
0.388118
0.383745
0.390558
0.384509
0.388381
0.379928
0.417724
0.385689
0.400152
0.39383
0.387364
0.377877
0.409831
0.411746
0.375389
0.383292
0.378288
0.380759
0.383757
0.379215
0.386902
0.371925
0.387017
0.382311
0.38256
0.376888
0.384018
0.371158
0.37918
0.377355
0.370739
0.388303
0.387081
0.38028
0.388583
0.393758
0.390661
0.380245
0.384688
0.384838
0.396837
0.373837
0.377185
0.382637
0.375961
0.385289
0.370164
0.379314
0.378557
0.377566
0.377981
0.371711
0.377544
0.386087
0.373511
0.379991
0.37926
0.38149
0.380225
0.387199
0.381119
0.370757
0.372961
0.405193
0.384808
0.380033
0.391429
0.388054
0.407925
0.378637
0.393226
0.385176
0.379694
0.397528
0.377697
0.380987
0.380279
0.373201
0.389968
0.378783
0.408488
0.369037
0.376132
0.583658
0.380584
0.466083
0.598689
0.369625
0.381925
0.378124
0.379785
0.381361
0.377848
0.383539
0.392484
0.375786
0.37769
0.382719
0.376172
0.392379
0.388643
0.379485
0.379829
0.401962
0.390257
0.384115
0.383856
0.379661
0.373065
0.386435
0.384658
0.385099
0.377221
0.378633
0.37747
0.384338
0.376769
0.380439
0.385923
0.40272
0.397752
0.394493
0.383411
0.371873
0.382873
0.375278
0.386565
0.392522
0.388639
0.375607
0.376506
0.38512
0.378959
0.385635
0.379491
0.379993
0.374667
0.398193
0.377731
0.398682
0.387694
0.381155
0.376661
0.380154
0.378429
0.376436
0.383107
0.381713
0.397648
0.389604
0.384491
0.385507
0.37873
0.396532
0.405238
0.404234
0.381573
0.396658
0.389189
0.385809
0.383463
0.37906
0.3797
0.384326
0.383889
0.380534
0.380929
0.387251
0.382129
0.380146
0.698754
0.673064
0.68799
0.661056
0.709679
0.505916
0.379601
0.382947
0.370124
0.407179
0.37985
0.402533
0.380385
0.386563
0.386907
0.39219
0.387638
0.45119
0.404763
0.402559
0.375372
0.385804
0.510753
0.383676
0.372651
0.380744
0.386532
0.382348
0.377699
0.396291
0.375291
0.373857
0.382655
0.387339
0.391906
0.384777
0.375541
0.378166
0.379106
0.397298
0.395808
0.478785
0.377469
0.407112
0.386854
0.377546
0.381203
0.378382
0.38242
0.390908
0.37426
0.37619
0.438839
0.386753
0.557148
0.388144
0.381204
0.384215
0.381247
0.393864
0.390434
0.380242
0.384792
0.382565
0.372452
0.391736
0.37764
0.374958
0.387519
0.387205
0.386076
0.380858
0.392414
0.385986
0.387927
0.383392
0.389001
0.504932
0.384714
0.584164
0.600553
0.379575
0.386893
0.398432
0.378462
0.379929
0.381853
0.372998
0.374786
0.388506
0.392613
0.384322
0.371553
0.381208
0.386155
0.38591
0.393925
0.382495
0.387677
0.379532
0.384544
0.375026
0.383146
0.392066
0.372032
0.381931
0.378748
0.388457
0.38153
0.374282
0.380403
0.394318
0.387972
0.395629
0.476416
0.384911
0.384704
0.387215
0.385519
0.385505
0.377034
0.384348
0.376166
0.39653
0.369164
0.375433
0.38267
0.386765
0.381122
0.380456
0.387038
0.411109
0.376393
0.57742
0.630949
0.406148
0.380101
0.740831
0.461478
0.373059
0.370793
0.388371
0.38773
0.378554
0.473414
0.394071
0.394123
0.376196
0.384509
0.377733
0.379365
0.379735
0.381336
0.398951
0.388276
0.38152
0.394243
0.388312
0.37687
0.38622
0.38333
0.403381
0.427989
0.38064
0.453867
0.385803
0.48414
0.531344
0.389905
0.398956
0.378637
0.371249
0.387437
0.376049
0.380104
0.394618
0.401583
0.386985
0.379535
0.381233
0.431707
0.385192
0.399416
0.385458
0.382401
0.389435
0.389856
0.557401
0.384102
0.384524
0.395154
0.404135
0.383327
0.383816
0.374559
0.379648
0.396975
0.403059
0.394511
0.684475
0.393729
0.381969
0.377901
0.384626
0.394708
0.373764
0.378997
0.389151
0.372017
0.370026
0.378375
0.370338
0.370301
0.372233
0.387056
0.38401
0.371889
0.372032
0.379903
0.380857
0.388419
0.387741
0.37152
0.391247
0.386304
0.394408
0.385604
0.371445
0.388125
0.373663
0.382461
0.378796
0.380532
0.383869
0.3886
0.38896
0.380129
0.402461
0.381921
0.38116
0.37498
0.376585
0.382918
0.383635
0.385129
0.395516
0.380006
0.408264
0.408226
0.374927
0.3848
0.384475
0.37177
0.444771
0.431661
0.421442
0.431012
0.382719
0.38497
0.375267
0.378024
0.387141
0.384479
0.383259
0.384853
0.38095
0.395636
0.3875
0.392647
0.38366
0.378191
0.380032
0.38341
0.387701
0.386726
0.391576
0.390362
0.414607
0.401252
0.42735
0.38503
0.375789
0.374607
0.371604
0.382714
0.370761
0.380394
0.375114
0.39186
0.377012
0.378206
0.376889
0.379252
0.388225
0.394315
0.392883
0.374335
0.382463
0.399296
0.381582
0.382443
0.390597
0.396519
0.380497
0.38805
0.381128
0.389829
0.377273
0.387195
0.381664
0.375802
0.384971
0.412563
0.380722
0.398896
0.392683
0.388798
0.378933
0.394334
0.385017
0.386408
0.377634
0.394248
0.380101
0.383204
0.379746
0.377095
0.388304
0.390315
0.385199
0.389177
0.442326
0.388638
0.377135
0.372574
0.386267
0.379507
0.38801
0.396491
0.389307
0.39344
0.393987
0.401653
0.391289
0.386853
0.376403
0.378718
0.374285
0.371628
0.381247
0.380384
0.387483
0.379268
0.380489
0.379832
0.37327
0.3764
0.373127
0.373023
0.3761
0.386599
0.38337
0.395712
0.391036
0.389133
0.380979
0.391764
0.383457
0.392533
0.378795
0.394071
0.375412
0.390419
0.386306
0.388889
0.397039
0.39846
0.374828
0.387492
0.396521
0.386478
0.403111
0.372593
0.400923
0.389771
0.37862
0.393006
0.393091
0.370882
0.39114
0.379984
0.387406
0.380509
0.373374
0.38766
0.393022
0.387872
0.378709
0.38733
0.38284
0.378639
0.380254
0.383481
0.386432
0.378117
0.380175
0.423388
0.443506
0.478545
0.390967
0.389611
0.387947
0.429841
0.37829
0.383519
0.383908
0.38301
0.444565
0.396574
0.396413
0.371144
0.385922
0.388156
0.381562
0.390359
0.381421
0.375945
0.376023
0.373233
0.380132
0.385377
0.381568
0.387311
0.372429
0.388939
0.378293
0.376192
0.373608
0.380915
0.384102
0.367705
0.38825
0.384389
0.380926
0.401013
0.389042
0.389744
0.385073
0.384018
0.370217
0.381719
0.376121
0.371578
0.374483
0.382708
0.37922
0.395921
0.385921
0.396701
0.382317
0.372255
0.391465
0.3827
0.402191
0.39456
0.380005
0.376874
0.379957
0.380236
0.380476
0.38623
0.389668
0.385866
0.385877
0.383838
0.379918
0.384041
0.390687
0.389193
0.389825
0.393308
0.389816
0.393044
0.372886
0.383015
0.38065
0.392164
0.390527
0.38436
0.393486
0.388459
0.397005
0.38916
0.38996
0.680822
0.39047
0.386456
0.390226
0.379497
0.381385
0.401021
0.372179
0.408597
0.389678
0.385365
0.381978
0.3904
0.372964
0.393606
0.387974
0.395448
0.401858
0.394447
0.394496
0.371685
0.39396
0.392887
0.383955
0.389429
0.391237
0.390658
0.378125
0.38081
0.391944
0.38827
0.378322
0.379128
0.379619
0.379732
0.378613
0.380177
0.384475
0.386116
0.373966
0.37973
0.377339
0.373724
0.38488
0.397541
0.390368
0.376124
0.373978
0.38523
0.379102
0.388781
0.383061
0.382477
0.387872
0.378962
0.38298
0.385077
0.379115
0.384024
0.376024
0.389878
0.466984
0.375288
0.379499
0.391774
0.739952
0.390789
0.385975
0.389487
0.390683
0.379629
0.392867
0.386518
0.377594
0.391178
0.379001
0.378949
0.380592
0.37549
0.390501
0.383455
0.376743
0.378948
0.382043
0.378912
0.391854
0.373899
0.386725
0.377075
0.381153
0.378529
0.397491
0.397982
0.408538
0.396115
0.371241
0.374995
0.38949
0.39447
0.3911
0.396733
0.374669
0.382351
0.385443
0.382162
0.382517
0.397665
0.385361
0.401359
0.389332
0.386872
0.406333
0.391987
0.420177
0.381576
0.403766
0.392255
0.383139
0.387164
0.376522
0.409261
0.493657
0.420217
0.635832
0.385766
0.402615
0.384406
0.389212
0.382311
0.375844
0.382525
0.388292
0.386988
0.397295
0.377331
0.398798
0.385511
0.392301
0.396352
0.3799
0.383411
0.376228
0.37201
0.381374
0.3901
0.392545
0.378144
0.388213
0.391408
0.379093
0.385593
0.381729
0.380162
0.375669
0.370548
0.3822
0.382583
0.378104
0.380968
0.41638
0.392109
0.38373
0.396349
0.381847
0.373651
0.43766
0.373881
0.384297
0.376702
0.385672
0.377752
0.38555
0.386781
0.393535
0.381703
0.376617
0.389608
0.386243
0.386011
0.380714
0.410843
0.376252
0.376729
0.385065
0.381507
0.38884
0.382057
0.377861
0.372038
0.385148
0.380714
0.38027
0.381865
0.402503
0.383204
0.414431
0.401549
0.37862
0.380347
0.372647
0.377917
0.386524
0.380617
0.380548
0.377973
0.381196
0.389591
0.517402
0.384519
0.545032
0.397159
0.409562
0.401968
0.379511
0.379988
0.386471
0.38262
0.425437
0.468595
0.417848
0.37725
0.376308
0.376993
0.385057
0.385986
0.379163
0.390233
0.399669
0.376177
0.37825
0.376648
0.379209
0.388524
0.426887
0.386763
0.386679
0.388991
0.389926
0.391545
0.368305
0.373466
0.370935
0.375258
0.381858
0.381005
0.387978
0.38545
0.41168
0.396756
0.388637
0.372
0.404626
0.386656
0.400818
0.398172
0.380931
0.385032
0.456773
0.481837
0.387667
0.387803
0.383147
0.377294
0.402411
0.386118
0.382043
0.375752
0.38127
0.39286
0.377495
0.3836
0.398509
0.381947
0.383025
0.383641
0.380754
0.385441
0.389917
0.377727
0.411725
0.382068
0.407376
0.388944
0.384768
0.390156
0.390133
0.380753
0.410169
0.390973
0.381311
0.389908
0.419977
0.741195
0.57233
0.375381
0.393356
0.383813
0.379592
0.382944
0.388519
0.396602
0.374067
0.376522
0.376651
0.390141
0.419799
0.395353
0.397735
0.387885
0.385922
0.373282
0.385123
0.545086
0.721952
0.392857
0.438174
0.376481
0.376148
0.688377
0.426031
0.616451
0.386133
0.40196
0.39707
0.392102
0.465832
0.417159
0.378491
0.379407
0.371475
0.383134
0.381198
0.377223
0.377258
0.372203
0.37621
0.373904
0.391172
0.374662
0.378587
0.398779
0.382699
0.377916
0.377345
0.375246
0.385254
0.377699
0.391065
0.400687
0.388222
0.376263
0.372527
0.385764
0.376148
0.378716
0.388604
0.374993
0.382858
0.380211
0.379359
0.378911
0.38749
0.379794
0.383167
0.377037
0.3832
0.385762
0.377264
0.381803
0.385149
0.381506
0.383897
0.382454
0.395328
0.383732
0.388277
0.392073
0.383559
0.389461
0.395597
0.38817
0.380668
0.378879
0.393459
0.390048
0.385325
0.391494
0.394756
0.400086
0.39214
0.412882
0.398114
0.381043
0.396278
0.408451
0.409466
0.384406
0.376646
0.388668
0.380791
0.389986
0.386586
0.388626
0.384303
0.375875
0.384909
0.378583
0.377266
0.398932
0.38799
0.385823
0.375862
0.405933
0.385649
0.396541
0.73772
0.702984
0.397462
0.365727
0.575746
0.425942
0.376906
0.383939
0.386444
0.367688
0.387926
0.38093
0.371312
0.386195
0.384579
0.385651
0.375949
0.37302
0.384306
0.380628
0.387
0.378022
0.408665
0.385089
0.375918
0.408101
0.383066
0.380538
0.382113
0.392402
0.386347
0.384026
0.388705
0.370664
0.375679
0.375891
0.384782
0.38341
0.389183
0.374768
0.383387
0.380139
0.378155
0.386131
0.375996
0.407038
0.388172
0.382595
0.383748
0.41578
0.389439
0.375794
0.373166
0.392322
0.379635
0.391652
0.376185
0.383603
0.387636
0.383708
0.379729
0.368552
0.368475
0.38977
0.379862
0.375818
0.385784
0.384361
0.38578
0.386927
0.383337
0.383182
0.374756
0.413498
0.388435
0.394942
0.384699
0.388905
0.388595
0.377242
0.37644
0.380202
0.381169
0.38079
0.386483
0.385356
0.38609
0.376358
0.396037
0.39171
0.386155
0.392293
0.380174
0.386237
0.392249
0.390445
0.394792
0.381857
0.378985
0.37942
0.380775
0.388644
0.385477
0.383157
0.386447
0.385042
0.381389
0.385364
0.372254
0.390955
0.379737
0.398396
0.376632
0.373491
0.387137
0.385963
0.385213
0.386739
0.3832
0.377692
0.3782
0.388319
0.378894
0.377486
0.386129
0.382653
0.379358
0.375247
0.386413
0.390825
0.382752
0.385011
0.386995
0.368702
0.378366
0.385376
0.391099
0.370719
0.39779
0.374616
0.379343
0.377379
0.385187
0.383532
0.385695
0.384027
0.3853
0.386053
0.379722
0.378168
0.388609
0.386608
0.372221
0.381118
0.378691
0.401924
0.396564
0.375289
0.370989
0.376683
0.38004
0.382847
0.386705
0.374732
0.373028
0.383348
0.38129
0.380084
0.39915
0.37509
0.382987
0.375733
0.377463
0.38833
0.383129
0.388401
0.375038
0.388403
0.389529
0.383068
0.375707
0.386883
0.377014
0.396879
0.382402
0.388212
0.377376
0.382346
0.374893
0.3876
0.376925
0.376504
0.381376
0.382131
0.385421
0.374921
0.382065
0.371657
0.378954
0.381455
0.378899
0.378636
0.381708
0.672967
0.389109
0.375185
0.384279
0.385805
0.384662
0.387107
0.388171
0.747233
0.424651
0.373716
0.370733
0.382226
0.370951
0.380201
0.384243
0.37168
0.376523
0.375932
0.379494
0.379326
0.392569
0.395949
0.379677
0.393774
0.38313
0.376991
0.381941
0.388102
0.378323
0.377437
0.394399
0.381641
0.377908
0.394784
0.376154
0.37577
0.376495
0.377512
0.379451
0.371916
0.370644
0.493963
0.394055
0.499026
0.388657
0.386979
0.529079
0.389284
0.37153
0.379751
0.383949
0.391984
0.394068
0.386751
0.383894
0.402946
0.398229
0.378584
0.37608
0.383157
0.375728
0.373679
0.393497
0.388525
0.395364
0.388909
0.387352
0.373544
0.379679
0.380461
0.378969
0.375245
0.391477
0.395143
0.383353
0.390707
0.391948
0.37952
0.390827
0.382723
0.380744
0.390503
0.389836
0.381908
0.381619
0.384308
0.387123
0.379498
0.388674
0.380566
0.405154
0.378241
0.380499
0.385879
0.401917
0.380913
0.384458
0.38999
0.388003
0.379972
0.382473
0.378685
0.385507
0.38045
0.385532
0.391179
0.387115
0.397897
0.385118
0.379689
0.38087
0.375899
0.380184
0.408341
0.391346
0.387329
0.400033
0.402933
0.40546
0.390534
0.383567
0.389513
0.376945
0.404569
0.396338
0.380931
0.4292
0.392059
0.385019
0.377062
0.375101
0.375623
0.380071
0.374324
0.393548
0.388896
0.381157
0.382574
0.375853
0.387244
0.376444
0.381139
0.383083
0.385445
0.378555
0.389372
0.385221
0.382625
0.389409
0.374879
0.373946
0.378546
0.373474
0.387241
0.392686
0.387068
0.409024
0.446892
0.406128
0.410876
0.386887
0.382728
0.386013
0.381212
0.39105
0.377622
0.374754
0.374099
0.389619
0.387651
0.389904
0.390841
0.390385
0.391138
0.383603
0.380266
0.393331
0.448373
0.385374
0.588322
0.384988
0.386446
0.384846
0.400643
0.384268
0.386577
0.390004
0.376101
0.771988
0.3771
0.379372
0.443185
0.563429
0.374677
0.37781
0.39025
0.390928
0.535703
0.487016
0.376325
0.384329
0.380145
0.390193
0.394971
0.387764
0.398721
0.377465
0.391822
0.383153
0.435923
0.403461
0.4391
0.395758
0.383626
0.410244
0.395244
0.525238
0.431953
0.376449
0.723651
0.697189
0.399449
0.379338
0.388209
0.375699
0.398406
0.384082
0.383881
0.41873
0.377767
0.387167
0.375659
0.474362
0.379687
0.443416
0.378662
0.408
0.384132
0.377695
0.377425
0.414111
0.372844
0.387934
0.377722
0.468368
0.39081
0.392607
0.404778
0.409155
0.376108
0.385141
0.372748
0.38043
0.378574
0.386935
0.379224
0.378977
0.431059
0.667025
0.396471
0.374363
0.379115
0.378046
0.377993
0.396206
0.392493
0.385932
0.377557
0.390365
0.389442
0.378588
0.383899
0.380442
0.379143
0.388255
0.387719
0.373075
0.383489
0.383739
0.377099
0.38642
0.378969
0.378355
0.389457
0.387718
0.379817
0.374885
0.388327
0.370524
0.457331
0.375262
0.377675
0.379542
0.375587
0.375653
0.373727
0.376361
0.379065
0.385218
0.388078
0.392357
0.385793
0.37642
0.376875
0.377564
0.380654
0.383279
0.394763
0.38507
0.377049
0.387221
0.380912
0.385576
0.393833
0.40787
0.397485
0.397612
0.396346
0.393734
0.390412
0.400509
0.379797
0.401729
0.395671
0.385075
0.382297
0.38504
0.386855
0.383672
0.39824
0.38985
0.39609
0.377833
0.376913
0.394619
0.387012
0.390862
0.387493
0.377198
0.382387
0.386753
0.38856
0.380797
0.375081
0.378656
0.383558
0.382457
0.379172
0.392256
0.379012
0.399871
0.383056
0.375689
0.435821
0.395571
0.385232
0.402704
0.37515
0.397407
0.398467
0.382302
0.389051
0.383507
0.383226
0.38563
0.380245
0.375103
0.383519
0.382386
0.381295
0.382267
0.380302
0.379974
0.379991
0.375793
0.413241
0.389201
0.633319
0.378838
0.380125
0.382336
0.389618
0.391367
0.370569
0.382619
0.382964
0.384628
0.380622
0.380424
0.377797
0.377902
0.387328
0.383411
0.384666
0.383491
0.387389
0.389419
0.377954
0.378453
0.38932
0.383301
0.384119
0.386248
0.386535
0.38635
0.378605
0.373337
0.39284
0.379103
0.382273
0.373122
0.381392
0.373878
0.39099
0.380117
0.588115
0.433418
0.402378
0.691688
0.395259
0.384745
0.376163
0.376519
0.435891
0.468133
0.417436
0.375299
0.372788
0.393507
0.386603
0.399243
0.381012
0.394704
0.456855
0.462258
0.438109
0.39736
0.383789
0.385888
0.38079
0.372343
0.386277
0.399091
0.387342
0.377565
0.383083
0.382098
0.381708
0.384672
0.390864
0.396927
0.384423
0.386259
0.386136
0.39488
0.380143
0.386771
0.416683
0.380543
0.379689
0.375817
0.386385
0.380116
0.388266
0.384129
0.382157
0.384598
0.370814
0.382694
0.379548
0.379538
0.380013
0.378577
0.385898
0.389897
0.381972
0.372205
0.377686
0.392281
0.377885
0.386024
0.381075
0.39587
0.374176
0.400336
0.375688
0.392076
0.434921
0.386779
0.385715
0.387694
0.385685
0.384758
0.377244
0.380034
0.382443
0.392463
0.39477
0.388098
0.40602
0.382175
0.384692
0.379361
0.394715
0.388642
0.378265
0.396475
0.40632
0.384792
0.384789
0.394963
0.397586
0.388081
0.38971
0.408626
0.390433
0.398308
0.41818
0.394063
0.396945
0.395274
0.373349
0.382574
0.380426
0.366162
0.380425
0.39293
0.389504
0.382679
0.376787
0.38013
0.37872
0.385571
0.373459
0.379797
0.386458
0.395992
0.37849
0.384965
0.376127
0.391247
0.372022
0.413082
0.402426
0.389704
0.380218
0.404742
0.403058
0.379013
0.38993
0.382103
0.38527
0.37674
0.38307
0.388653
0.385994
0.390958
0.39698
0.383614
0.373505
0.382687
0.38104
0.376968
0.389571
0.387082
0.378857
0.377076
0.372915
0.37551
0.39669
0.384605
0.379431
0.391207
0.386447
0.382064
0.382227
0.378631
0.384574
0.381494
0.378417
0.380854
0.381557
0.37748
0.38373
0.381284
0.386781
0.383157
0.384505
0.390381
0.382574
0.395625
0.38173
0.375361
0.385616
0.382723
0.384277
0.386454
0.389709
0.382434
0.379032
0.374723
0.385772
0.38861
0.386989
0.41145
0.390472
0.394575
0.391843
0.389198
0.400131
0.403547
0.394229
0.380937
0.385638
0.373301
0.390841
0.391007
0.381699
0.379564
0.389262
0.381663
0.373754
0.375114
0.3775
0.384386
0.386517
0.395249
0.388583
0.3885
0.38616
0.386339
0.378254
0.38492
0.378681
0.394823
0.376966
0.377218
0.378485
0.388088
0.392999
0.390922
0.393979
0.386777
0.38653
0.37759
0.391728
0.388576
0.386538
0.383258
0.395982
0.396805
0.37442
0.383416
0.377948
0.376465
0.372472
0.376534
0.377075
0.685814
0.510895
0.383152
0.379948
0.373962
0.381014
0.380228
0.383682
0.382942
0.384751
0.387277
0.392306
0.395884
0.37627
0.380004
0.375908
0.377091
0.375103
0.695791
0.40708
0.384327
0.39125
0.405815
0.37235
0.373195
0.380278
0.377772
0.382887
0.381631
0.385772
0.379796
0.391918
0.386679
0.392396
0.38322
0.382757
0.407101
0.383691
0.379037
0.385921
0.393715
0.387347
0.390301
0.401991
0.382184
0.377981
0.386752
0.392628
0.397482
0.376704
0.391534
0.374601
0.385341
0.373026
0.384832
0.378635
0.375525
0.395553
0.376241
0.387442
0.401985
0.390303
0.386253
0.389948
0.385728
0.385681
0.383788
0.378455
0.389457
0.384698
0.375407
0.376845