/*--------------------------------*- C++ -*----------------------------------*\
| =========                 |                                                 |
| \\      /  F ield         | OpenFOAM: The Open Source CFD Toolbox           |
|  \\    /   O peration     | Version:  2506                                  |
|   \\  /    A nd           | Website:  www.openfoam.com                      |
|    \\/     M anipulation  |                                                 |
\*---------------------------------------------------------------------------*/
FoamFile
{
    version     2.0;
    format      ascii;
    arch        "LSB;label=32;scalar=64";
    class       volVectorField;
    location    "0.0100321";
    object      U;
}
// * * * * * * * * * * * * * * * * * * * * * * * * * * * * * * * * * * * * * //

dimensions      [0 1 -1 0 0 0 0];

internalField   nonuniform List<vector> 
3989
(
(10.3108 -0.134685 -0.0111208)
(10.6976 0.0438148 0.0384865)
(9.75907 0.144868 -0.14477)
(9.86752 -0.152879 0.0946812)
(9.66858 0.280582 0.290409)
(10.0323 -0.00297679 0.298107)
(9.97776 -0.322507 -0.0690824)
(9.71797 0.0252604 -0.0610242)
(9.30514 0.708991 -0.685074)
(10.3233 -0.2094 -0.276473)
(10.0517 0.190948 -0.0830327)
(10.0379 0.0508307 -0.122114)
(10.4082 -0.107013 -0.272465)
(9.78927 0.136143 0.461419)
(9.71832 0.0808944 0.0772779)
(9.08744 0.385777 0.656524)
(9.3398 -0.163139 0.324711)
(10.2533 -0.018156 0.111442)
(9.99842 0.285736 0.468222)
(9.71393 0.219296 -0.0279079)
(9.98657 0.87058 0.720306)
(9.94771 0.182529 -0.0243428)
(10.4026 0.0620998 -0.0185606)
(10.32 0.136806 0.116793)
(10.0137 0.0400418 0.0126569)
(10.0822 0.208852 0.0884061)
(10.4788 0.333533 0.456812)
(9.7377 -0.280113 0.159703)
(10.0314 -0.113833 0.161971)
(9.61546 -0.0769218 0.303948)
(10.4118 0.153278 0.167569)
(10.3678 -0.101641 0.060189)
(9.96076 0.114266 -0.359101)
(10.0494 -0.234555 -0.029046)
(10.2704 0.00570975 0.28495)
(10.1211 -0.0247042 -0.0866625)
(10.155 0.198858 0.367798)
(9.68133 0.333166 0.159781)
(10.1268 0.178417 -0.00343116)
(9.79914 0.251574 -0.210322)
(10.2981 -0.464701 0.244029)
(10.0412 -0.250326 0.154803)
(10.0323 0.426444 -0.158172)
(10.2604 0.208625 -0.374853)
(9.84326 -0.0297402 -0.116117)
(8.99113 0.664803 0.0176752)
(10.2117 0.312246 0.0871156)
(10.0299 -0.274851 -0.259867)
(9.92456 -0.00673867 0.250377)
(10.0812 0.0853512 -0.00698359)
(10.3993 0.258309 -0.0930322)
(9.31985 0.0993699 0.380729)
(8.72511 1.16505 -0.56207)
(9.81345 -0.537948 -0.191857)
(10.0145 -0.339392 0.211846)
(10.0149 0.205103 -0.0783289)
(9.90244 -0.249353 0.437136)
(10.272 0.247389 0.114177)
(10.2925 -0.400402 0.171468)
(10.3954 0.110239 0.383598)
(10.0004 0.280698 0.169503)
(10.3778 -0.271593 -0.15531)
(5.94872 0.9649 -4.57279)
(1.40304 1.32563 -3.01177)
(9.41 0.642026 0.1389)
(9.98955 -0.0385694 0.00401022)
(9.8566 0.0783561 0.0173075)
(10.001 0.0650745 0.371431)
(10.2707 0.601097 -0.154578)
(10.3189 -0.43346 0.200222)
(10.3531 -0.0411704 -0.287504)
(10.0037 -0.260564 -0.0381474)
(9.78291 0.0897355 -0.112485)
(9.95614 0.0878464 -0.000725161)
(9.70163 -0.0466857 0.29064)
(9.92397 0.263029 -0.06429)
(10.1625 -0.298952 -0.140869)
(10.1202 0.0264872 -0.00769879)
(9.58873 -0.199947 0.0137792)
(9.71047 -0.519687 0.116297)
(9.90326 -0.452035 0.129795)
(10.3401 0.198258 -0.037677)
(10.1013 0.155801 -0.124021)
(10.2428 0.43113 0.0414748)
(9.97935 0.56407 0.0470176)
(10.0204 -0.118754 -0.120214)
(9.9795 0.468947 0.0833189)
(9.72599 0.516798 -0.416987)
(9.74994 -0.0140518 -0.0615206)
(9.92098 0.464637 -0.440765)
(10.0899 0.504369 0.045391)
(10.4526 0.08579 0.0830329)
(10.3541 0.136344 0.104374)
(10.1859 0.409321 -0.011104)
(10.3309 -0.0568088 -0.281955)
(10.0936 0.912563 -0.22346)
(10.0817 0.663129 -0.111847)
(10.2467 0.144905 0.0210009)
(10.0494 0.833778 -0.21061)
(10.4393 0.455744 -0.0901516)
(10.2003 -0.233707 -0.0643451)
(10.2976 -0.111845 -0.0175833)
(10.1023 0.0700275 -0.134079)
(9.811 0.335378 -0.375599)
(10.2544 0.00481242 -0.24617)
(9.81281 -0.169509 0.0473279)
(10.0974 -0.0519109 0.0466262)
(10.1981 0.118011 -0.0359295)
(9.99525 -0.0152794 -0.283007)
(10.199 0.0221061 0.0509502)
(10.248 -0.334283 -0.0260288)
(10.1543 0.152509 -0.0777252)
(9.65643 1.13751 -0.453375)
(9.77613 1.15713 -0.476647)
(10.2659 0.0133733 -0.241411)
(9.8569 1.0849 -0.659191)
(9.70964 1.02838 -0.517005)
(10.0814 0.0611322 -0.697647)
(10.3739 -0.10784 0.00272084)
(9.33908 0.0064626 -0.814643)
(10.0577 -0.385174 0.213259)
(10.2356 -0.0966964 0.200403)
(10.0879 -0.255404 0.00645777)
(9.60085 -0.67481 0.193691)
(9.72214 0.449123 0.898448)
(9.80482 0.0826338 0.325668)
(10.2659 0.640765 0.301401)
(10.072 0.134528 -0.00643138)
(10.4645 -0.320396 -0.0469133)
(10.4809 0.0330674 0.241155)
(10.3117 0.0239424 0.461304)
(10.331 0.0175904 -0.454617)
(10.4064 -0.0933475 0.322131)
(9.48347 -0.00296722 1.15159)
(9.59635 -0.900733 0.411962)
(10.0326 -0.217578 0.169849)
(10.0744 0.622314 -0.0376748)
(10.3414 -0.0310762 0.151766)
(10.1432 -0.0568464 0.0883843)
(9.79282 0.0378802 0.457616)
(10.264 -0.163718 0.0853032)
(9.71272 0.0883956 -0.248524)
(10.5744 -0.0771634 -0.118819)
(9.77417 0.0730185 0.09189)
(10.2646 0.0747561 -0.413059)
(10.1697 0.350141 0.485808)
(9.92547 0.0631771 0.0210411)
(10.5228 0.55556 -0.242878)
(9.98624 0.0662109 0.140691)
(9.84865 0.11232 0.00255516)
(9.58672 0.0334995 0.218464)
(10.2797 -0.0123002 -0.120457)
(10.4274 -0.0404971 0.252279)
(10.106 -0.0794657 -0.162619)
(10.2874 -0.0357056 0.314153)
(10.1586 -0.171274 0.215877)
(9.75327 -0.124169 -0.0108232)
(10.1819 -0.124412 -0.0776717)
(10.0512 -0.238578 -0.00142828)
(9.30986 0.43674 -0.556943)
(10.2017 0.0611873 0.0630212)
(9.57058 0.339041 0.342239)
(10.0815 0.339853 0.0803904)
(8.93819 0.0975043 0.963512)
(9.6268 0.749186 0.924669)
(9.6576 0.83698 0.602832)
(10.1697 0.433246 -0.0509194)
(10.0112 0.470764 -0.0934447)
(9.61757 0.73547 -0.14938)
(9.93524 -0.0163537 -0.621664)
(9.44161 0.664263 -0.206936)
(8.60427 0.173404 -0.309193)
(9.65377 0.967445 0.507508)
(10.1988 0.129132 0.203213)
(10.0131 0.234089 -0.225917)
(9.62799 -0.150911 -0.134457)
(9.83456 0.720331 -0.304624)
(9.72394 -0.102583 -0.105382)
(10.3863 0.266089 -0.0985573)
(9.99917 0.10789 -0.466759)
(9.94087 -0.543513 0.622941)
(10.208 0.406406 0.259184)
(10.1944 -0.267659 -0.057068)
(10.2575 0.546805 0.312844)
(10.3551 0.465876 0.182907)
(9.61645 0.18467 0.223924)
(9.77647 0.48236 -0.88835)
(9.56702 -0.00578451 0.112341)
(10.3518 0.0917412 0.0280725)
(9.98291 -0.167181 -0.0852015)
(10.0766 0.246654 0.290523)
(9.92394 0.794206 -0.581176)
(9.97762 0.200815 -0.228793)
(10.399 -0.032386 0.260761)
(10.0836 -0.0390453 0.0278106)
(10.486 -0.180899 -0.103464)
(0.508379 1.11624 -4.77195)
(9.19052 0.416079 0.581243)
(9.62079 0.767903 -0.292821)
(9.99569 0.154759 0.110699)
(10.3795 -0.126873 -0.374838)
(10.2629 -0.0535622 -0.0583106)
(10.0611 -0.151608 0.639485)
(10.4383 -0.0176886 0.140031)
(9.72869 -0.358579 0.345619)
(10.2975 0.0628036 0.181168)
(9.74969 0.186495 0.107852)
(10.1568 -0.118883 -0.117871)
(8.68828 1.16271 -1.27606)
(8.74539 1.16068 -1.59211)
(10.1647 0.132207 0.111537)
(8.98024 1.28891 -2.3153)
(8.05097 1.07369 -1.75226)
(9.57464 -0.0921409 -0.1995)
(10.1374 0.0151669 -0.153431)
(13.4155 0.831382 -2.51012)
(8.28134 1.1309 -1.96767)
(9.65941 0.337882 0.355023)
(9.37588 0.182862 -1.02891)
(9.39808 0.246868 -0.0502446)
(9.99968 0.13023 0.165612)
(9.97111 -0.0550371 0.088041)
(9.48808 0.119905 0.0964272)
(9.60284 0.974991 -0.509404)
(10.3016 -0.464904 0.681944)
(10.0053 0.0806083 0.114119)
(9.50759 0.179462 0.177048)
(9.61458 0.843995 -0.349568)
(10.0346 -0.160596 -0.393013)
(10.1191 0.140906 0.0813629)
(9.85905 0.199182 0.280402)
(9.93181 0.260745 -0.326262)
(9.62348 -0.105522 0.385316)
(10.1435 -0.33365 0.24614)
(9.78161 -0.100285 0.0982778)
(10.164 0.126609 -0.128499)
(10.495 0.52883 0.0928179)
(10.073 0.398785 -0.461029)
(10.2443 -0.152268 0.276604)
(10.1521 0.107689 0.04767)
(9.38305 0.3092 0.384689)
(10.3055 0.286316 -0.156163)
(10.3049 -0.363382 -0.242268)
(9.81026 0.0111741 0.506226)
(9.79844 -0.0646536 0.270028)
(9.66231 0.610755 0.286619)
(9.6495 0.231911 -0.343139)
(10.2194 -0.0185689 -0.042228)
(10.2958 -0.146876 -0.379924)
(10.3242 -0.085406 -0.161271)
(9.95328 -0.0321452 -0.199595)
(9.72672 0.504314 0.164802)
(10.3134 0.195067 -0.185004)
(9.64062 0.037878 -0.561122)
(9.50437 0.640108 -0.688092)
(10.0724 0.21154 -0.0387948)
(10.4205 0.202875 0.204169)
(9.87132 0.325579 -0.26229)
(9.67107 0.110858 -0.107303)
(10.2578 -0.231312 -0.0495847)
(10.0157 -0.132099 -0.25496)
(10.0457 0.319887 -0.20247)
(10.0184 0.254235 0.248293)
(9.88017 0.102554 -0.149278)
(9.84601 0.163039 0.243633)
(9.70473 0.00411766 0.182232)
(9.72472 0.0188864 0.0563763)
(7.92185 0.923691 -1.19145)
(9.87931 0.245573 0.345348)
(9.81058 0.216465 0.36598)
(9.9096 -0.147562 -0.347469)
(9.70203 0.57867 0.640655)
(8.94187 -0.00526279 0.899999)
(10.0469 0.642491 -0.0733082)
(10.3722 -0.234254 0.327066)
(9.76201 0.167646 -0.0712323)
(9.98536 0.709403 0.677488)
(9.80504 0.149788 0.293385)
(9.69016 0.177741 -0.0486746)
(10.2753 0.532534 -0.233994)
(10.0646 0.277898 -0.295001)
(9.79535 0.403949 -0.296307)
(9.89256 -0.514089 0.0180934)
(10.0102 0.0412155 -0.394289)
(9.95276 0.376064 0.0732688)
(9.88865 0.556833 0.201549)
(10.3552 0.00178521 -0.163582)
(10.2204 0.114939 0.376547)
(10.1882 0.169367 0.0705886)
(9.76671 -0.426921 0.105952)
(8.93456 -0.514164 0.891603)
(9.58414 -0.894664 0.476729)
(10.196 0.13108 -0.104547)
(9.89378 0.0925482 0.110004)
(10.0313 0.0728738 -0.355348)
(9.71131 -1.29633 0.817776)
(10.1482 -0.00687948 -0.0792191)
(10.0516 0.520594 0.31026)
(6.94895 1.16109 -2.6927)
(7.8982 0.74759 -1.94124)
(9.9177 0.0778399 0.25954)
(10.3433 0.352152 -0.0586833)
(9.88369 -0.197267 0.251416)
(9.20609 0.619994 -1.33839)
(10.1936 0.210721 0.248434)
(7.68241 0.661553 -0.810535)
(10.2621 -0.141112 0.12598)
(9.59208 0.00913864 0.151275)
(9.96678 0.190422 0.311982)
(9.74217 0.38986 0.129929)
(9.77315 0.130079 0.283006)
(10.398 0.32323 0.149524)
(7.27329 0.647764 -0.768764)
(6.66479 0.828412 -1.18924)
(9.77553 0.180217 0.0456363)
(9.37399 1.0016 0.283191)
(10.1051 0.464545 0.177022)
(9.92055 0.0692134 0.182888)
(10.1676 0.0869591 -0.0826453)
(10.0351 -0.00689523 0.223427)
(10.4396 0.122157 -0.0345061)
(9.73836 0.0594399 -0.203371)
(10.2563 -0.1109 -0.307075)
(9.90059 0.190114 0.233685)
(10.1223 0.262964 -0.112043)
(9.83177 0.738758 -1.25583)
(9.94124 -0.466676 0.247614)
(10.1303 -0.0734046 0.998892)
(10.0668 -0.190779 0.161897)
(9.94288 0.345257 0.194065)
(10.1531 0.347453 0.197941)
(9.62445 0.814722 0.204525)
(8.40457 0.175937 0.127338)
(9.75209 -0.394308 0.170734)
(9.9068 0.565537 0.252234)
(9.63847 0.0596243 -0.443114)
(9.96898 0.114464 0.0972744)
(9.88117 0.016882 -0.0178125)
(9.27245 0.863147 1.09426)
(9.30312 0.813397 0.508425)
(7.60777 0.552455 -1.64153)
(9.82004 0.0684764 0.0794727)
(9.96186 0.106258 0.19503)
(9.78695 0.00691264 0.568801)
(10.3839 0.42524 0.171604)
(9.41678 0.978891 -0.557973)
(9.13161 0.663284 -4.97134)
(9.81432 0.0690444 -0.0783029)
(10.311 0.110771 0.0114384)
(10.0553 0.282236 0.515115)
(10.1564 -0.0664753 0.114151)
(9.58332 0.0290648 0.0601896)
(9.48192 0.0896238 -0.0539537)
(9.85657 0.367174 0.230622)
(10.269 0.325174 0.363454)
(9.8114 0.121774 0.0419944)
(9.88594 -0.0128506 0.00326826)
(9.91552 0.134498 0.220354)
(8.3846 0.0799983 -7.03403)
(10.0423 -0.0370394 -0.0667747)
(10.2428 0.159038 0.016456)
(9.96255 -0.12973 -0.299265)
(10.0413 0.0557453 -0.57876)
(9.33864 1.35843 -5.30825)
(9.92091 0.532886 -2.61578)
(10.2657 0.387487 0.11835)
(9.70548 0.0558254 -0.12858)
(9.83664 0.306118 0.217201)
(10.0158 -0.102051 0.120039)
(10.3423 -0.0579649 -0.129847)
(10.162 0.0299679 -0.166246)
(9.88184 0.458841 -0.254347)
(10.3681 -0.178541 0.421)
(9.77222 0.716548 0.0671545)
(9.88599 0.0139962 0.160731)
(9.9905 0.127554 0.243533)
(10.2232 0.163163 0.385681)
(10.07 -0.321708 0.0638981)
(10.4506 -0.0793866 0.0205313)
(10.4341 -0.243082 -0.278852)
(9.69075 0.794896 0.321828)
(9.93916 -0.0120325 0.233094)
(10.2268 -0.0363982 0.301454)
(10.0863 0.234875 0.244279)
(9.65662 -0.0266987 0.00356401)
(10.2531 0.562179 0.132209)
(10.0154 0.216753 -0.68844)
(10.0453 0.367802 0.386392)
(9.76337 0.193973 -0.299809)
(10.1854 0.327585 -0.969221)
(9.98008 0.0685638 -0.0436543)
(9.73684 0.600499 -0.310622)
(9.16351 -0.250903 0.00608101)
(9.8955 0.65812 -0.0548804)
(10.1402 -0.0806185 -0.525765)
(9.84511 0.170177 -0.0102013)
(9.9887 -0.282036 -0.457452)
(9.86672 -0.0123968 -0.583389)
(9.26114 0.699901 -1.06901)
(10.0144 0.0326992 0.250828)
(10.3731 0.158748 0.449416)
(10.0827 0.112236 -0.106965)
(9.9038 0.0367756 0.713212)
(9.32088 0.418289 0.483421)
(10.1073 0.275284 0.494199)
(9.63692 0.186406 -0.116475)
(9.52053 -0.230635 0.0364004)
(11.6936 0.531725 -2.51)
(9.57353 0.143332 0.292615)
(9.19215 0.980445 -1.2582)
(9.88844 0.0650523 -0.113173)
(10.7321 0.712424 -1.90391)
(9.08242 0.77244 0.0978004)
(1.47376 0.885558 -3.65023)
(10.242 0.420674 -0.0998303)
(8.43269 1.13283 -2.8544)
(9.75636 0.327668 0.250036)
(9.70964 0.573995 0.195643)
(9.61752 0.873359 -0.327582)
(10.3474 0.656245 0.546446)
(3.03784 0.937558 -4.66921)
(10.1544 -0.292642 -0.330605)
(9.92811 0.10203 -1.05511)
(0.300701 1.17457 -5.74405)
(9.73609 -0.0609265 0.0317002)
(10.0182 0.356371 -0.321563)
(9.80868 0.19086 0.0069162)
(6.29159 1.12101 -2.4786)
(9.69128 0.635883 -1.06993)
(9.4911 0.405441 -0.244648)
(9.97186 -0.151998 -0.214818)
(9.78123 -0.117098 0.00753073)
(10.3123 0.394278 0.00395995)
(10.5966 -0.110065 0.22047)
(10.1698 1.03967 -4.63398)
(9.60004 0.463717 -0.134845)
(9.56824 0.598277 -0.220686)
(9.06699 0.304385 -0.757191)
(9.96577 0.489312 0.417635)
(9.67315 0.15494 -0.159369)
(9.71835 0.325936 0.53205)
(9.0606 0.980069 0.148901)
(9.28006 0.718655 -0.290859)
(9.76778 0.619421 -0.777357)
(9.91504 -0.143221 0.0144104)
(10.0378 0.309841 0.115027)
(9.92081 0.408267 -0.180877)
(10.0116 0.183362 0.297347)
(10.4695 0.0877919 0.100314)
(9.9787 0.49691 0.0793296)
(9.83877 0.340114 -0.617457)
(10.0216 0.171538 -0.0988483)
(9.78329 -0.0442343 0.214198)
(9.77354 0.0724431 0.30457)
(7.91996 0.54934 0.564519)
(9.57288 0.0580984 -0.107942)
(10.0324 -0.0437814 0.223932)
(9.67223 -0.280158 0.0480986)
(9.66389 0.137215 0.0845639)
(9.64623 -0.165484 0.230213)
(10.4703 0.191481 0.539569)
(10.1992 -0.405751 -0.241995)
(9.99415 0.0146881 0.178218)
(10.1988 0.0654932 -0.016472)
(10.2706 0.177513 0.0932347)
(10.1852 -0.4501 -0.0942086)
(9.96359 -0.344321 0.606467)
(9.89752 -0.0680122 0.718218)
(10.2281 0.276185 0.0503701)
(9.94008 -0.00618269 0.162623)
(10.4701 0.0624009 -0.0611328)
(10.0745 -0.0444566 0.198331)
(9.86771 0.0807409 0.200606)
(9.907 0.414775 0.178649)
(10.0512 0.207441 0.000615708)
(9.7675 0.293351 0.49312)
(9.73995 -0.211795 -0.126398)
(10.3451 0.0321516 -0.371685)
(10.2611 -0.168645 -0.854487)
(10.1673 0.0705566 0.114557)
(10.0045 0.259279 -0.205557)
(9.62806 0.400877 0.441989)
(10.2186 0.171671 -0.267465)
(9.89564 0.347623 0.0313733)
(9.74836 0.328139 0.150326)
(9.85654 -0.207569 -0.112004)
(10.3938 -0.12733 -0.116806)
(10.2054 -0.0531945 -0.0894745)
(9.92622 0.0206364 -0.0264257)
(9.63947 0.177736 0.0479724)
(10.1666 0.366054 -0.455694)
(9.77106 -0.0278108 -0.0857905)
(9.75564 -0.406216 -0.317138)
(9.98618 -0.444467 0.00530503)
(10.2685 -0.396352 0.172448)
(9.84207 -0.374283 -0.0382827)
(9.71175 -0.0886046 0.344677)
(9.93061 0.174054 0.183925)
(10.152 0.585409 0.205499)
(10.2071 -0.0549643 0.0173176)
(10.558 0.147974 0.428897)
(9.94631 0.00752683 -0.197188)
(9.56831 -0.0439498 0.0667386)
(9.90295 -0.0391873 0.140584)
(9.78971 0.00540896 0.227392)
(10.26 0.442308 -0.660587)
(9.91349 0.134225 0.277259)
(9.67033 0.0420642 -0.175025)
(10.1948 -0.000186396 0.0300738)
(10.138 0.10405 0.58502)
(10.0179 -0.235609 0.433667)
(10.199 0.742295 0.00374551)
(10.2995 0.084404 -0.536718)
(10.1272 0.224364 0.106788)
(9.89314 0.0169775 -0.0455745)
(10.1354 -0.480026 0.689051)
(10.0095 -0.18634 -0.0507102)
(10.212 0.0265272 0.0335841)
(10.4221 -0.215608 0.164428)
(10.1969 0.0253202 0.0370617)
(10.1348 -0.00608837 -0.0839935)
(10.3815 0.146379 0.0877003)
(9.31075 0.216138 -0.593304)
(10.2622 0.768132 -0.0690506)
(10.5909 -0.317201 0.335716)
(10.4462 0.242719 0.109775)
(10.144 0.380561 0.116001)
(9.98739 0.243636 -0.388032)
(10.0952 0.330152 0.169611)
(10.2391 0.172791 0.0913162)
(9.85131 1.04522 -0.493862)
(10.0769 0.488155 0.186212)
(10.0966 0.598652 -0.13606)
(9.64547 0.358666 0.0439088)
(9.84033 0.404906 -0.141249)
(10.2011 0.252369 0.0180528)
(9.42352 0.698808 -0.621585)
(10.3286 -0.00826732 -0.0342792)
(10.3758 -0.071074 0.0224673)
(10.0125 0.245843 -0.0384757)
(9.87686 -0.253205 0.101337)
(9.95932 -0.104746 0.0974621)
(9.57114 0.635372 0.29675)
(4.90274 2.04792 -1.05834)
(2.19773 1.31829 -0.585805)
(10.0084 0.29715 0.280131)
(9.78188 0.67841 0.401211)
(9.67197 0.598736 -0.225015)
(9.79619 -0.254004 0.154245)
(9.98653 -0.0868754 -0.0307216)
(9.83475 0.109487 0.337532)
(10.0671 0.315113 -0.272401)
(10.0791 0.227969 -0.189803)
(9.70594 0.658403 0.18513)
(10.2247 0.443842 0.570377)
(10.3841 -0.0309293 0.379742)
(10.1814 -0.0239628 -0.0262652)
(9.99733 0.0672955 0.250466)
(9.88945 0.272377 0.304168)
(9.95837 -0.0892031 0.042364)
(10.4453 0.0933257 -0.0529821)
(10.127 0.663287 0.195375)
(10.2155 -0.0128935 -0.199566)
(9.71108 0.717931 0.517471)
(9.98287 0.0549343 -0.0388207)
(10.1223 0.145414 0.0136985)
(9.57891 0.436423 0.425318)
(9.86017 0.859744 -0.724399)
(10.3098 -0.464185 0.228416)
(9.90704 -0.0278516 -0.0785178)
(9.88407 0.200543 -0.0285418)
(10.3666 0.375549 0.125307)
(8.97607 0.719093 -0.00779364)
(7.18897 0.966256 -2.23349)
(10.2406 0.235259 -0.100661)
(10.5175 -0.292765 -0.3378)
(10.3813 0.275052 0.021428)
(10.0721 0.0349762 0.084785)
(9.88911 0.14784 -0.0171983)
(8.57085 0.295464 0.686284)
(9.57473 -0.299933 -0.0199569)
(10.0974 -0.067564 -0.0659789)
(10.2474 0.191287 -0.278157)
(8.53346 0.81733 -1.05269)
(9.45356 0.780497 0.498476)
(9.81041 0.258525 0.197423)
(10.1563 -0.222505 -0.0699343)
(10.1968 0.35857 0.19469)
(9.52786 0.0404045 0.0860878)
(9.98333 0.403007 0.0217283)
(10.1671 0.0348967 0.105069)
(10.3323 0.461454 0.286501)
(9.78939 0.323026 0.0331271)
(-0.00204073 0.604338 -3.84306)
(3.30946 0.729272 -4.43955)
(10.1596 0.715234 0.0975333)
(9.93667 0.118447 -0.170141)
(10.0649 0.17222 -0.220099)
(9.85575 0.10245 0.154905)
(10.0091 -0.182271 -0.639344)
(9.99215 -0.0874228 -0.0244166)
(9.76769 0.424166 -0.0492323)
(9.94472 -0.163647 -0.333757)
(9.61156 0.0375842 -0.268021)
(10.0026 0.132995 -0.0401218)
(9.58348 0.243995 0.560066)
(9.83129 0.163482 0.318937)
(9.93666 0.160965 0.143786)
(10.1314 0.194907 0.0107189)
(9.78138 0.328549 -0.0516649)
(10.1308 -0.183806 0.279369)
(10.0788 0.194169 0.787579)
(9.65595 -0.519371 -0.503617)
(10.4077 0.20431 0.0963426)
(9.9021 -0.464315 0.100065)
(10.374 0.194442 0.102845)
(9.5923 -0.169801 0.0729398)
(9.62488 -0.148309 0.0638336)
(9.74384 -0.380711 0.29076)
(9.75046 0.0920869 -0.00719972)
(9.39887 -0.217541 0.675232)
(10.6485 -0.106895 0.0158499)
(10.1905 0.112739 -0.134483)
(9.60036 -0.0138819 -0.312372)
(9.64777 -0.0607871 -0.0947819)
(9.99001 -0.131274 -0.0293572)
(9.94272 0.230449 0.233059)
(9.67359 -0.0183951 -0.384897)
(10.0018 -0.0296663 0.00679333)
(10.1677 -0.138832 -0.53383)
(10.0674 0.849611 0.0333293)
(9.66359 0.323856 -0.677771)
(9.86249 0.00358544 -0.539101)
(9.61157 0.295178 0.195136)
(9.80929 -0.456301 0.119116)
(10.2842 -0.0754919 0.442105)
(9.63732 0.0348666 -0.583728)
(10.288 -0.0942667 0.188582)
(9.77813 0.363343 -0.0354796)
(9.85244 0.0777053 -0.106213)
(10.1195 -0.447768 0.000472572)
(10.1766 -0.0347134 0.0661981)
(10.0757 -0.24106 -0.42951)
(9.7394 0.0839696 -0.450162)
(9.94915 0.182874 -0.0579188)
(9.96448 -0.161489 -0.147552)
(10.2349 0.0893347 0.0401719)
(9.97568 -0.205848 -0.00963727)
(10.1025 0.00799753 -0.136002)
(10.139 -0.245128 0.156681)
(10.289 0.264519 -0.21466)
(9.70065 0.282298 -0.22689)
(10.2111 -0.124393 0.375693)
(9.04436 -0.17087 0.0303966)
(9.64553 -0.0871972 0.488209)
(10.4609 0.0357323 -0.144498)
(9.62793 0.264208 0.155722)
(10.2122 0.19763 0.269701)
(10.003 0.0555319 -0.125433)
(10.3509 -0.0260892 0.188208)
(10.4908 0.251355 -0.151772)
(9.90357 0.464392 -0.302667)
(9.88421 -0.223407 0.0562004)
(9.88296 -0.0239976 0.125644)
(9.9456 0.152583 0.294074)
(9.09993 -0.0449073 0.0516514)
(10.0482 0.263857 -0.130223)
(9.66772 -0.0213777 -0.345303)
(10.1938 0.372419 0.373554)
(9.96833 -0.0181014 0.0629194)
(10.1605 -0.1177 0.01973)
(9.86453 0.123786 0.134079)
(10.4359 0.114671 0.272225)
(10.2945 0.361164 0.0756146)
(10.2677 0.358677 0.012553)
(10.2134 0.295025 1.00934)
(10.4213 0.4105 -0.257585)
(9.64712 0.196366 -0.222449)
(9.59625 0.285788 -0.433715)
(10.3411 0.102127 -0.0116193)
(9.79508 -0.240278 -0.448264)
(10.0574 0.502017 0.239976)
(9.90617 0.564388 0.34012)
(9.83203 0.376965 0.207172)
(9.9168 0.626194 0.250025)
(9.85258 0.46969 0.295471)
(9.95544 0.755261 -0.293258)
(9.87668 -0.17757 -0.236598)
(10.1124 0.597741 0.347913)
(9.9354 0.706808 0.345442)
(10.1271 0.483261 0.216128)
(10.0943 -0.322873 -0.46893)
(10.1016 0.580732 0.303641)
(10.1615 -0.205195 -0.0578815)
(10.132 0.264482 -0.140582)
(10.3114 0.0884001 -0.0479934)
(9.88352 -0.0991319 0.280372)
(9.90149 -0.343773 -0.47131)
(9.87047 0.57771 0.520495)
(10.2672 0.428697 0.0572062)
(10.4318 0.134236 0.211419)
(10.3727 0.393765 0.196321)
(10.0972 0.0971408 0.171423)
(10.2728 0.15625 0.151297)
(9.63033 -0.288291 -0.381665)
(10.2105 0.373856 0.021699)
(9.20385 0.541268 -0.182036)
(9.10907 -0.319099 -0.225046)
(10.1593 -0.0231146 0.247711)
(10.1522 0.393645 -0.198503)
(9.69127 0.335063 -0.294584)
(9.13965 0.0985139 -0.835376)
(9.81432 -0.00782253 0.0706029)
(10.0864 -0.274829 0.0845705)
(9.77987 0.134632 0.210742)
(9.99791 -0.70408 0.362088)
(9.85095 0.227329 0.363775)
(9.95758 0.343087 -0.0640807)
(10.2002 0.711869 -0.15412)
(9.8803 0.239736 0.0102495)
(9.42383 -0.817999 -0.317239)
(9.43555 -0.0499651 -0.135845)
(9.31955 0.114559 -0.390575)
(9.83209 0.0444845 0.0867531)
(10.0618 0.0377796 -0.118897)
(10.1195 0.143915 -0.557694)
(10.0267 0.0691008 0.142051)
(9.59853 0.490241 -0.0367121)
(10.0141 0.618546 0.153308)
(9.99069 -0.013332 -0.161985)
(9.67216 -0.682664 -0.285061)
(9.72454 -0.0649583 -0.0729896)
(9.76721 0.00746892 -0.108825)
(9.85304 0.158295 -0.332947)
(10.1567 -0.149117 0.0448765)
(9.953 0.459166 0.337127)
(10.6095 0.701478 -0.572909)
(10.144 0.0405157 -0.643219)
(10.1154 -0.151505 -0.00991457)
(9.60434 -0.0897935 -0.221736)
(9.80073 -0.272242 0.238399)
(9.64123 -0.0616722 0.343253)
(10.0499 0.121374 -0.189041)
(9.30308 0.901706 0.0410406)
(8.1225 1.03129 -4.68673)
(10.2062 0.533292 -0.0354772)
(10.257 0.570556 -0.293528)
(6.07363 1.2956 -3.01346)
(9.99058 0.354099 0.0763398)
(8.56707 0.191285 0.0879087)
(9.98811 -0.00517363 0.216872)
(9.95584 0.761108 0.366628)
(10.1919 0.162917 -0.317704)
(10.2147 0.0314576 0.216638)
(8.444 1.27107 -5.21998)
(5.82968 1.27806 -6.86798)
(3.1205 1.52381 -9.92624)
(10.2385 0.505822 0.0917619)
(9.76574 -0.209461 0.0714107)
(9.77848 -0.191516 -0.0702878)
(9.967 -0.0703342 0.0162694)
(10.0212 0.45805 -0.0589241)
(9.77286 0.0477151 0.0965281)
(9.65056 -0.0852106 0.283826)
(9.33272 -0.164695 -0.216907)
(9.8509 0.168494 0.168245)
(10.0205 -0.127671 0.276063)
(9.72 0.0746054 -0.0563055)
(9.82093 0.255907 0.145779)
(9.82607 -0.254453 0.0734047)
(9.84665 0.0953246 -0.121726)
(9.89129 -0.14426 0.186841)
(10.3175 -0.0931461 0.129653)
(10.1615 0.170343 0.0495162)
(9.73712 0.196549 -0.712813)
(9.46499 0.331693 0.402714)
(9.91239 -0.44935 0.108384)
(9.73063 0.14063 -0.0654607)
(9.59888 -0.420245 0.82647)
(10.0287 0.00321437 0.0764101)
(10.3842 0.238781 -0.0747066)
(9.80002 0.182132 -0.231343)
(9.46312 0.63581 0.601606)
(10.3498 0.0394418 -0.105662)
(10.32 -0.253012 0.0923587)
(9.8124 0.00085995 -0.0854703)
(10.0708 0.0470789 -0.0113245)
(9.39821 0.193752 0.195551)
(10.0207 -0.162261 0.177946)
(9.87137 1.12018 -0.397775)
(10.3 -0.129484 0.171538)
(10.1608 0.194175 0.0801113)
(9.43936 0.217819 -0.507127)
(9.00486 0.465277 0.50149)
(9.88828 -0.181969 -0.10801)
(9.88929 -0.0718832 0.0671625)
(10.1692 0.401958 0.339463)
(9.6613 0.579806 -0.331308)
(10.055 0.0719581 0.151003)
(9.80168 -0.248313 -0.15275)
(10.4147 0.610522 -0.0587383)
(10.1747 -0.186683 -0.575412)
(10.1864 -0.143186 -0.584588)
(10.3174 0.366597 -0.250978)
(9.83994 -0.0600144 0.16206)
(9.80849 0.112439 0.0956398)
(9.49603 0.310545 -0.131064)
(9.81629 -0.0219858 0.0838654)
(9.73129 -0.159159 0.0407631)
(9.87024 -0.0352276 0.139064)
(9.88343 -0.102201 -0.196902)
(9.8474 -0.128821 -0.160971)
(9.66185 -0.0162527 0.271984)
(9.54191 -0.521061 0.172045)
(9.97194 0.405253 -0.307684)
(8.87992 0.545652 -1.64816)
(7.85183 0.553792 -1.54361)
(7.88383 0.539506 -1.16599)
(8.43802 0.674589 -1.7192)
(9.55547 0.771022 -0.0919646)
(9.75638 0.907228 -0.446938)
(9.67229 -0.198468 1.17855)
(10.0636 -0.20389 -0.109993)
(10.0503 -0.0702291 -0.039149)
(10.2028 -0.123455 -0.104527)
(8.08397 0.4953 -0.980014)
(9.83429 0.132239 -0.107134)
(9.94409 0.4042 -0.0131342)
(9.82684 0.290972 -0.282815)
(10.2457 0.274318 0.738498)
(10.3302 0.312277 0.391627)
(10.0538 0.368997 0.416927)
(10.2576 0.0183471 0.17029)
(10.2783 0.178513 0.0769771)
(10.2401 0.206548 0.105358)
(10.2178 0.356122 0.215962)
(10.1383 0.0128837 -0.25332)
(10.287 0.411871 0.0675389)
(9.93244 0.315636 0.196533)
(10.0823 0.0927599 0.0134267)
(10.1568 -0.115887 0.100985)
(9.69191 0.290493 0.0697523)
(6.22398 0.811307 -0.540822)
(8.39062 0.621006 -1.54862)
(10.0783 -0.223473 -0.0786082)
(9.80359 -0.15956 0.0121814)
(10.1369 0.310632 0.0373063)
(10.2179 0.290605 0.0865112)
(10.2421 0.01561 -0.347506)
(9.6708 -0.0594638 0.338908)
(10.0095 0.631781 -0.103584)
(10.0075 0.813596 -0.179065)
(9.66448 1.08809 -1.08588)
(9.77622 0.574871 -0.739578)
(10.1857 -0.000149879 -0.158654)
(10.0003 0.118557 0.189053)
(10.384 0.4655 0.182414)
(9.89529 0.875375 -0.313144)
(10.4139 -0.190682 -0.245894)
(8.97554 0.82171 0.0948238)
(10.1742 0.145409 0.105303)
(9.83557 0.0947443 0.0258644)
(9.65631 0.287177 0.186847)
(10.2606 0.431547 0.132368)
(10.3212 0.43273 -0.158866)
(10.4102 0.33051 0.169935)
(10.3377 0.299371 0.209494)
(6.97244 1.06315 -5.43386)
(10.4769 1.24516 -2.85)
(10.1304 0.0616593 -0.0371845)
(9.85243 0.0647955 -0.137411)
(11.0319 0.57023 -2.34486)
(10.2155 0.326617 0.201062)
(11.0201 0.762579 -1.749)
(9.98916 0.681663 -3.05166)
(10.2029 0.294893 0.0894742)
(9.68665 -0.0733947 -0.280722)
(9.71227 0.0319912 -0.210517)
(10.2964 0.605243 -1.43379)
(8.92721 0.274834 -0.057477)
(9.72139 -0.208253 0.032888)
(12.78 1.10673 -4.04635)
(10.041 0.401946 0.139817)
(9.93408 0.303789 0.234635)
(10.5943 1.10308 -3.9716)
(9.81486 0.640974 -1.33509)
(10.013 0.296896 0.129526)
(10.0248 0.214431 -0.190393)
(10.1139 0.00756625 0.0199088)
(9.94594 0.369064 -0.842689)
(10.0637 0.380974 -0.869292)
(9.8465 0.416128 -0.3851)
(9.88447 0.540618 -0.224918)
(9.92869 0.641955 -0.28413)
(9.69369 0.201977 -0.127372)
(9.74939 0.412634 -0.296319)
(9.51993 -0.2437 0.552146)
(8.0995 0.744487 -0.249705)
(10.1557 0.00305192 -0.174172)
(9.93771 -0.121975 0.0760001)
(10.92 1.14886 -2.78093)
(9.7814 -0.00590007 -0.0832552)
(10.4764 0.91039 -2.05819)
(9.90505 0.0971977 0.163192)
(9.85648 0.108806 0.0307542)
(7.24012 0.645656 -0.252098)
(11.9206 1.35265 -5.18075)
(9.67685 0.469621 -4.90537)
(13.5192 1.23414 -3.26183)
(11.2998 1.88388 -7.30012)
(12.388 0.770147 -2.22404)
(9.61692 0.474739 -0.91242)
(9.32072 0.366611 0.783156)
(9.91715 0.878111 -0.405731)
(7.87732 -0.302608 -1.87941)
(2.35616 1.06306 -3.48365)
(9.78274 0.589783 -0.0610336)
(8.50063 0.62468 -1.28125)
(8.90331 0.524548 -0.750028)
(1.39481 1.6171 -5.67538)
(9.56547 1.02301 -1.87051)
(8.603 0.868403 -3.00159)
(9.68782 0.174535 -0.0606039)
(10.1916 0.0499651 0.121891)
(9.49574 0.646284 0.52524)
(9.8648 0.287164 0.248987)
(9.41848 -0.203146 0.270281)
(9.7171 0.496693 -0.24411)
(9.92444 0.502767 -0.972169)
(9.61611 0.686349 -0.100478)
(9.79482 1.17822 -2.96104)
(10.0956 0.814585 -0.559374)
(10.1489 0.849513 -0.548092)
(9.85918 0.388353 0.153668)
(9.91303 0.333454 -0.0039964)
(10.2719 0.109488 -0.17124)
(9.92061 0.845329 -0.636081)
(10.361 0.727027 -0.978942)
(9.63378 -0.217168 0.0525259)
(9.04876 0.494767 -0.906088)
(0.726407 0.732747 -2.38205)
(2.21701 1.0153 -1.45993)
(10.1331 -0.31358 -0.240757)
(9.34848 0.556015 -1.72589)
(9.50963 0.870082 -0.465894)
(6.79083 1.17893 -1.92575)
(9.89831 0.515871 -0.448393)
(9.8225 0.491939 -0.407185)
(8.69637 0.31509 -0.0129976)
(9.73148 0.413932 0.878307)
(10.2028 0.112302 -0.076413)
(9.95926 0.133895 0.217178)
(9.67381 0.839073 0.231753)
(8.56337 0.279558 0.0884598)
(8.23197 0.773737 -1.59387)
(9.63934 0.868374 -0.207944)
(10.5352 0.537883 -0.211009)
(10.4278 0.525131 -0.0947077)
(10.6681 0.707591 -0.363172)
(10.1783 -0.057576 0.359707)
(9.88976 0.296535 -0.0534461)
(9.92645 0.362052 -0.151431)
(10.3586 0.538833 -0.28897)
(9.97209 0.660994 -0.103265)
(9.94261 0.505292 0.293922)
(9.98264 0.206911 0.201683)
(9.84309 0.0625756 -0.320398)
(10.1458 -0.0866146 -0.0472959)
(9.78747 -0.265566 0.717617)
(9.82133 -0.349797 -0.136324)
(9.94838 0.354581 -0.133479)
(10.2168 -0.124639 0.207825)
(9.68146 -0.0511242 0.557756)
(9.50449 -0.428703 0.171921)
(9.69143 0.260199 0.0161729)
(8.42884 0.749098 -2.03158)
(9.57676 0.321212 -0.031909)
(9.8821 0.283401 -0.216296)
(9.56319 -0.0779532 0.133236)
(9.72654 0.117519 -0.0564977)
(9.66037 0.134841 -0.144275)
(9.51925 0.0965724 0.0247017)
(10.0092 0.302076 -0.0874072)
(9.80062 0.00108028 -0.208186)
(10.0877 -0.0176358 0.286575)
(10.1628 -0.104432 0.0400444)
(10.0961 0.266371 -0.00754302)
(9.95074 0.0182166 0.180362)
(9.80339 -0.00536438 -0.133859)
(9.56696 0.00912223 -0.12693)
(9.73966 0.0397084 -0.174207)
(9.92408 -0.154984 0.163565)
(9.85871 -0.0682167 -0.367722)
(9.99146 -0.213848 0.0229013)
(9.68608 0.0439464 -0.0962394)
(8.3694 0.268278 -0.186581)
(9.77482 -0.140349 0.107675)
(9.58221 0.225376 -0.129865)
(9.77721 0.233097 0.145085)
(10.2047 -0.301557 0.0603692)
(9.84879 0.0488881 -0.263712)
(9.92637 0.215059 -0.163293)
(10.0104 -0.0449905 0.138205)
(10.0068 -0.0689502 -0.023256)
(10.0359 -0.16983 0.167082)