/*--------------------------------*- C++ -*----------------------------------*\
| =========                 |                                                 |
| \\      /  F ield         | OpenFOAM: The Open Source CFD Toolbox           |
|  \\    /   O peration     | Version:  2506                                  |
|   \\  /    A nd           | Website:  www.openfoam.com                      |
|    \\/     M anipulation  |                                                 |
\*---------------------------------------------------------------------------*/
FoamFile
{
    version     2.0;
    format      ascii;
    arch        "LSB;label=32;scalar=64";
    class       volScalarField;
    location    "0.00481384";
    object      k;
}
// * * * * * * * * * * * * * * * * * * * * * * * * * * * * * * * * * * * * * //

dimensions      [0 2 -2 0 0 0 0];

internalField   nonuniform List<scalar> 
47425
(
0.376131
0.393215
0.384059
0.389416
0.394547
0.387587
0.398786
0.386035
0.390229
0.42646
0.378389
0.385979
0.390528
0.380084
0.38517
0.379312
0.380067
0.414162
0.570541
0.413985
0.385256
0.385291
0.37844
0.378474
0.38545
0.386389
0.388875
0.571363
0.392075
0.391857
0.400991
0.380074
0.398918
0.384927
0.378924
0.380152
0.379877
0.40022
0.406738
0.387754
0.381909
0.377817
0.383456
0.384414
0.599217
0.384723
0.378503
0.389872
0.400919
0.383453
0.469732
0.386863
0.391476
0.457301
0.381323
0.38423
0.376864
0.402893
0.402816
0.399595
0.457504
0.701816
0.488512
0.392614
0.394313
0.39001
0.387146
0.379501
0.491734
0.395378
0.389577
0.391733
0.385335
0.383762
0.474
0.385704
0.509573
0.387514
0.532033
0.399447
0.489855
0.384226
0.385427
0.384263
0.384468
0.382537
0.37996
0.374584
0.381662
0.420346
0.38979
0.379886
0.390357
0.380713
0.383938
0.386941
0.381265
0.378987
0.393831
0.379946
0.374787
0.426679
0.382781
0.435037
0.381799
0.392745
0.38989
0.377338
0.376484
0.391314
0.418399
0.372617
0.386951
0.38417
0.396815
0.512709
0.397696
0.47582
0.386724
0.389044
0.379086
0.399227
0.381669
0.393919
0.400597
0.386189
0.377104
0.38423
0.375266
0.386377
0.384217
0.384653
0.446841
0.380836
0.388666
0.400681
0.387511
0.38418
0.390742
0.381302
0.385094
0.385526
0.383895
0.38606
0.385572
0.391101
0.38354
0.377396
0.377999
0.381734
0.385482
0.530205
0.391873
0.546758
0.38537
0.381957
0.38753
0.571104
0.383775
0.378778
0.387964
0.37867
0.387834
0.386455
0.416066
0.539208
0.373266
0.480973
0.394766
0.547105
0.487399
0.387605
0.383034
0.386391
0.381267
0.412259
0.550608
0.379823
0.385888
0.374816
0.526979
0.384468
0.39002
0.39803
0.382018
0.376323
0.380108
0.41269
0.392716
0.379101
0.395778
0.392549
0.408731
0.392189
0.374456
0.382458
0.394474
0.372921
0.384938
0.381541
0.38378
0.407745
0.385748
0.38381
0.388319
0.38307
0.389702
0.384879
0.378637
0.414081
0.386025
0.388356
0.386796
0.394219
0.384955
0.392017
0.39214
0.396705
0.386859
0.381227
0.409197
0.393248
0.381667
0.403493
0.390446
0.403987
0.381662
0.39752
0.389282
0.393496
0.39319
0.381016
0.38095
0.379522
0.381414
0.377233
0.401059
0.385756
0.398589
0.376521
0.383097
0.389574
0.381808
0.392267
0.386605
0.41464
0.373783
0.411582
0.375573
0.395164
0.383879
0.398961
0.382411
0.3921
0.394445
0.387364
0.383743
0.395281
0.381776
0.399717
0.387534
0.38842
0.38506
0.381259
0.391407
0.38239
0.374844
0.391627
0.388189
0.390642
0.391028
0.395742
0.396359
0.395426
0.398956
0.391914
0.397727
0.461107
0.397736
0.480508
0.450469
0.37683
0.434022
0.383807
0.383093
0.392979
0.378401
0.376227
0.38156
0.394435
0.473903
0.398748
0.388011
0.379118
0.38224
0.38613
0.387805
0.399502
0.377742
0.389458
0.381184
0.39123
0.375593
0.380502
0.56226
0.607016
0.5168
0.373448
0.376981
0.39596
0.374374
0.470415
0.385043
0.377182
0.410852
0.384747
0.38139
0.384999
0.383681
0.479613
0.408037
0.386672
0.381716
0.37392
0.381173
0.373382
0.39276
0.381156
0.380176
0.390439
0.389397
0.521128
0.384916
0.37805
0.385203
0.388803
0.526996
0.380922
0.373245
0.39202
0.401214
0.3964
0.378265
0.379569
0.379846
0.393952
0.401307
0.389358
0.381836
0.382356
0.398209
0.393147
0.377798
0.385593
0.389185
0.393794
0.383792
0.391621
0.392332
0.383537
0.407189
0.389232
0.381855
0.382481
0.392439
0.38234
0.387206
0.392744
0.380284
0.392948
0.384985
0.482236
0.373324
0.380429
0.38168
0.380701
0.383163
0.382069
0.397107
0.382352
0.390125
0.385179
0.379102
0.382858
0.376019
0.386035
0.386417
0.386237
0.39411
0.387475
0.379535
0.388727
0.385087
0.393037
0.380712
0.382468
0.376599
0.380867
0.397167
0.385083
0.427601
0.377801
0.413922
0.379703
0.387339
0.384322
0.378174
0.379206
0.373219
0.390905
0.386173
0.668762
0.500474
0.398201
0.390916
0.393929
0.395082
0.388654
0.380885
0.39266
0.384081
0.39644
0.389302
0.385511
0.386552
0.379492
0.387271
0.388769
0.381812
0.447524
0.321745
0.389964
0.511092
0.393879
0.380718
0.438021
0.449415
0.386067
0.387317
0.385514
0.386208
0.467225
0.385151
0.378169
0.380339
0.38571
0.387649
0.392531
0.374914
0.445219
0.433929
0.432589
0.387581
0.414054
0.383406
0.389965
0.384928
0.387572
0.384621
0.384689
0.388429
0.387391
0.405617
0.384505
0.387706
0.385146
0.380348
0.387255
0.386617
0.39325
0.385902
0.384173
0.378659
0.382066
0.39915
0.383055
0.385727
0.447876
0.373173
0.405902
0.391797
0.389989
0.388132
0.39266
0.382161
0.393399
0.386571
0.39224
0.391601
0.382957
0.381303
0.391424
0.386152
0.383435
0.430098
0.388042
0.396457
0.376011
0.397759
0.373894
0.398353
0.377863
0.390887
0.386465
0.385302
0.389241
0.379393
0.379438
0.390499
0.381351
0.382261
0.389395
0.387745
0.380151
0.382823
0.379184
0.392319
0.381165
0.398606
0.390199
0.381078
0.392313
0.505687
0.392892
0.386228
0.379409
0.386861
0.417017
0.416826
0.380798
0.389666
0.379272
0.390573
0.390406
0.419868
0.393775
0.519924
0.39757
0.396373
0.407249
0.415972
0.382934
0.376739
0.38238
0.386034
0.396195
0.387044
0.616165
0.379007
0.384646
0.387414
0.411401
0.400001
0.402132
0.407527
0.402157
0.388169
0.384648
0.388755
0.381676
0.377519
0.38921
0.379775
0.379834
0.402361
0.391873
0.406746
0.385687
0.380013
0.378736
0.429876
0.393389
0.376023
0.386555
0.385348
0.401713
0.399174
0.460255
0.380969
0.282622
0.289926
0.381399
0.399692
0.379029
0.391371
0.381614
0.380638
0.475771
0.415683
0.388542
0.389611
0.406748
0.402943
0.383582
0.379973
0.412032
0.396413
0.390756
0.380891
0.386179
0.387425
0.382347
0.38489
0.384475
0.39094
0.386376
0.398846
0.382685
0.402283
0.393182
0.384809
0.410984
0.377837
0.382655
0.377798
0.37977
0.382275
0.391262
0.386774
0.397017
0.394844
0.386584
0.388042
0.736332
0.3865
0.392515
0.449332
0.455123
0.372394
0.381705
0.458199
0.384988
0.422023
0.413656
0.385899
0.448339
0.394419
0.371595
0.386643
0.395011
0.386051
0.390984
0.379978
0.386792
0.383582
0.38206
0.38737
0.385853
0.384321
0.412908
0.550915
0.385858
0.39386
0.383029
0.387204
0.382248
0.384885
0.382794
0.397267
0.389765
0.390166
0.389343
0.381208
0.390444
0.414702
0.386895
0.563491
0.446916
0.388864
0.390117
0.388737
0.377281
0.578525
0.389365
0.47751
0.389291
0.392779
0.387423
0.374723
0.381627
0.386325
0.421391
0.400443
0.37859
0.391464
0.385646
0.392102
0.388242
0.375392
0.559122
0.387765
0.384319
0.387132
0.389949
0.380991
0.385893
0.37914
0.388993
0.373688
0.391529
0.387519
0.395383
0.373693
0.388928
0.380154
0.440913
0.480019
0.384503
0.428679
0.387119
0.381297
0.3902
0.376372
0.389473
0.396111
0.380819
0.378164
0.387112
0.519592
0.408361
0.379033
0.380308
0.383216
0.379043
0.375135
0.377059
0.385287
0.420902
0.381313
0.376946
0.385286
0.382419
0.374106
0.398594
0.38467
0.386042
0.386197
0.383236
0.392175
0.460492
0.380382
0.387739
0.404142
0.428095
0.322926
0.386568
0.389622
0.396722
0.395251
0.460472
0.335064
0.502872
0.386476
0.384699
0.389628
0.383068
0.454371
0.379245
0.379851
0.382216
0.374945
0.39401
0.382872
0.381377
0.381907
0.392982
0.399251
0.387022
0.389511
0.445132
0.44485
0.388101
0.403819
0.442372
0.483035
0.484975
0.400332
0.39559
0.380171
0.380982
0.373427
0.323903
0.386526
0.379025
0.376435
0.372686
0.375349
0.332167
0.379513
0.38824
0.38094
0.379487
0.383142
0.378
0.381611
0.394594
0.3756
0.418686
0.377699
0.373437
0.382989
0.379521
0.390936
0.440222
0.413719
0.378958
0.406022
0.38441
0.375438
0.379879
0.390589
0.381018
0.440079
0.387085
0.38224
0.403913
0.409057
0.62491
0.390339
0.383895
0.41152
0.392953
0.379215
0.385332
0.385388
0.387443
0.48489
0.399119
0.572139
0.387529
0.409886
0.379196
0.392373
0.386965
0.380536
0.381127
0.389313
0.500094
0.431524
0.390695
0.426479
0.391033
0.379504
0.39373
0.393877
0.391219
0.382754
0.339497
0.387102
0.392577
0.383371
0.391787
0.536894
0.384769
0.38276
0.474172
0.395224
0.378674
0.394286
0.394359
0.375401
0.416263
0.427331
0.381632
0.389567
0.379284
0.379386
0.374125
0.38069
0.390759
1.13445
0.38258
0.380698
0.399225
0.420347
0.404691
0.489211
0.381274
0.384214
0.387801
0.380422
0.392131
0.384954
0.391072
0.383032
0.403609
0.386216
0.387817
0.381783
0.376121
0.382528
0.448998
0.39924
0.409498
0.378694
0.405296
0.385807
0.384052
0.389847
0.379947
0.389025
0.417608
0.383261
0.401954
0.465912
0.394527
0.395617
0.389125
0.422211
0.378275
0.385717
0.397711
0.397115
0.504809
0.397435
0.377921
0.385728
0.401481
0.381953
0.378315
0.53803
0.390525
0.430238
0.388884
0.397624
0.394235
0.429092
0.394007
0.448107
0.39473
0.38945
0.386301
0.505672
0.380747
0.389598
0.385687
0.391623
0.381761
0.38309
0.4095
0.398895
0.390975
0.376443
0.400423
0.493554
0.557399
0.450744
0.439637
0.446538
0.392046
0.380774
0.411834
0.38139
0.427271
0.380864
0.38818
0.481491
0.388979
0.39067
0.386084
0.420304
0.404114
0.38527
0.374651
0.390942
0.424839
0.382971
0.382719
0.37862
0.397432
0.376071
0.39548
0.382679
0.396354
0.395673
0.3821
0.385041
0.396889
0.384075
0.391259
0.401349
0.430932
0.395718
0.398462
0.384674
0.419799
0.382283
0.373116
0.373951
0.712695
0.397271
0.415202
0.330537
0.383886
0.388049
0.691054
0.363263
0.392768
0.409408
0.392026
0.381351
0.406345
0.381098
0.389852
0.384989
0.399227
0.385699
0.477327
0.619186
0.381782
0.690519
0.383971
0.493268
0.681585
0.377599
0.379353
0.384317
0.428758
0.380914
0.391733
0.394167
0.506886
0.380628
0.397099
0.381879
0.373904
0.377166
0.383617
0.414849
0.414292
0.383506
0.405978
0.389081
0.451478
0.393491
0.376203
0.401021
0.422847
0.382727
0.398163
0.556272
0.568108
0.433756
0.382351
0.391366
0.408553
0.460193
0.396358
0.442345
0.415726
0.387043
0.403616
0.413506
0.588296
0.394886
0.39513
0.37739
0.392112
0.398424
0.401636
0.432875
0.376958
0.38853
0.38731
0.38179
0.469992
0.725067
0.387002
0.488015
0.395426
0.374668
0.429072
0.386191
0.389624
0.39592
0.395781
0.390543
0.39098
0.496824
0.386884
0.585082
0.560101
0.430818
0.393585
0.382585
0.378606
0.382859
0.381465
0.470883
0.784527
0.38277
0.487624
0.472583
0.50358
0.421404
0.577809
0.457114
0.382216
0.382134
0.97004
0.377823
0.387271
0.386894
0.499505
0.528354
0.377032
0.390324
0.45101
0.406778
0.406337
0.478874
0.398167
0.449506
0.618456
0.383574
0.391928
0.481455
0.390428
0.659316
0.611359
0.382547
0.385638
0.384575
0.38698
0.388571
0.389941
0.385959
0.392626
0.384885
0.443455
0.393269
0.39591
0.436514
0.387182
0.599281
0.390757
0.38635
0.395918
0.385414
0.505454
0.380501
0.378862
0.375544
0.417719
0.377495
0.528733
0.384677
0.458694
0.387179
0.860264
0.476277
0.396486
0.399693
0.45374
0.397872
0.385478
0.388511
0.467892
0.537076
0.402757
0.472804
0.388477
0.428306
0.417091
0.3885
0.388142
0.45543
0.402007
0.378555
0.386788
0.375973
0.386612
0.426927
0.404702
0.383558
0.389094
0.385511
0.686449
0.383732
0.535247
0.399712
0.38225
0.385486
0.396659
0.400415
0.465853
0.410765
0.39239
0.407849
0.425493
0.376682
0.571638
0.412753
0.388328
0.579951
0.483961
0.386241
0.414684
0.389189
0.402602
0.544707
0.403238
0.666403
0.403836
0.388479
0.405389
0.390431
0.384253
0.385803
0.413439
0.410108
0.40565
0.381471
0.409323
0.383514
0.381686
0.406341
0.397244
0.386649
0.39739
0.385481
0.571423
0.425378
0.404989
0.388045
0.474979
0.382887
0.440632
0.341012
0.390106
0.392141
0.395052
0.401312
0.40221
0.438429
0.380662
0.524008
0.412179
0.387222
0.40446
0.384268
0.401271
0.387277
0.40831
0.458028
0.371174
0.537393
0.385342
0.501682
0.395921
0.396842
0.384112
0.400726
0.399728
0.400791
0.395912
0.393517
0.503336
0.390186
0.386337
0.516532
0.379544
0.381097
0.493234
0.394302
0.403869
0.529775
0.399737
0.420001
0.384102
0.579029
0.426736
0.395265
0.423732
0.41276
0.391236
0.429762
0.468211
0.533153
0.390435
0.382983
0.394414
0.390912
0.380727
0.390024
0.455774
0.379553
0.374029
0.39452
0.383851
0.392324
0.383054
0.391383
0.415306
0.384926
0.42339
0.390823
0.391366
0.398101
0.38047
0.391047
0.388982
0.396377
0.411121
0.377808
0.38243
0.383881
0.389214
0.382801
0.508989
0.37061
0.386011
0.383872
0.389426
0.445421
0.379158
0.384981
0.425596
0.522406
0.486009
0.3872
0.485079
0.459743
0.377602
0.341109
0.444283
0.342543
0.415797
0.398725
0.382625
0.409252
0.379254
0.400203
0.38289
0.37979
0.381695
0.37701
0.38454
0.446046
0.387503
0.395761
0.518424
0.394737
0.462639
0.405517
0.502532
0.374049
0.384923
0.38709
0.383023
0.385717
0.383915
0.380736
0.406109
0.4152
0.502274
0.391317
0.418789
0.38322
0.38473
0.392974
0.37781
0.472082
0.388283
0.449747
0.388495
0.444135
0.524932
0.381195
0.378087
0.379699
0.377545
0.380237
0.387077
0.384917
0.38959
0.388205
0.387722
0.406096
0.386871
0.412011
0.386681
0.389746
0.380601
0.386582
0.392739
0.391845
0.395295
0.387592
0.425685
0.380805
0.383098
0.389658
0.384
0.379328
0.377634
0.382463
0.395309
0.398734
0.383592
0.390421
0.386113
0.373368
0.411288
0.427898
0.38236
0.384565
0.403743
0.375968
0.378032
0.389306
0.379918
0.383317
0.382337
0.38514
0.384092
0.389236
0.380838
0.407932
0.382312
0.385852
0.389425
0.518151
0.385199
0.558057
0.523811
0.552145
0.38937
0.386676
0.385964
0.381385
0.383967
0.480365
0.397407
0.380166
0.379873
0.382734
0.38837
0.420498
0.386172
0.376491
0.390108
0.382038
0.38041
0.386862
0.376358
0.377962
0.381092
0.384028
0.399403
0.398854
0.382036
0.382544
0.378098
0.381189
0.383753
0.379869
0.382411
0.386105
0.384187
0.38799
0.378754
0.376962
0.390016
0.391673
0.376548
0.37979
0.38082
0.382711
0.391178
0.380597
0.424588
0.383305
0.41073
0.39503
0.383517
0.363476
0.379885
0.384071
0.394004
0.380485
0.380635
0.382033
0.436306
0.397966
0.421708
0.373334
0.384352
0.385008
0.390323
0.382544
0.390636
0.387264
0.377744
0.377032
0.402672
0.429658
0.490242
0.381823
0.408427
0.397987
0.416123
0.385451
0.408689
0.385373
0.384355
0.392032
0.480519
0.383791
0.381986
0.382172
0.385241
0.392319
0.557666
0.399903
0.382874
0.400383
0.383004
0.395805
0.591829
0.523868
0.394
0.380809
0.382621
0.382474
0.382304
0.385103
0.518137
0.461687
0.386428
0.38039
0.389217
0.393391
0.378955
0.398221
0.388804
0.389674
0.387837
0.389565
0.39031
0.380381
0.385971
0.388572
0.402045
0.382201
0.395273
0.427465
0.386341
0.39265
0.415856
0.420786
0.423669
0.378657
0.38389
0.393672
0.386697
0.397563
0.40063
0.553173
0.424416
0.383607
0.384255
0.378529
0.381314
0.379257
0.391015
0.386276
0.377584
0.392206
0.385366
0.447408
0.412107
0.512072
0.517541
0.388128
0.384364
0.381302
0.384093
0.387759
0.386531
0.391737
0.379533
0.387591
0.373765
0.333322
0.374924
0.392319
0.387076
0.674867
0.392069
0.392162
0.387639
0.438455
0.511013
0.38032
0.404825
0.400416
0.431091
0.407732
0.405841
0.377655
0.380977
0.398902
0.540976
0.383727
0.387283
0.381786
0.391274
0.35412
0.330532
0.346126
0.389967
0.395769
0.3917
0.394365
0.398519
0.387677
0.388615
0.388487
0.324716
0.352886
0.37604
0.402556
0.392184
0.569352
0.383402
0.525
0.382765
0.509906
0.381051
0.423857
0.391545
0.398831
0.385332
0.388487
0.383773
0.383048
0.384088
0.420233
0.407868
0.385836
0.384911
0.589692
0.338648
0.384196
0.427051
0.355515
0.424995
0.379349
0.380473
0.376906
0.451102
0.390605
0.405295
0.628124
0.38055
0.458257
0.757236
0.340291
0.405685
0.387911
0.391471
0.370344
0.384582
0.375611
0.424688
0.386052
0.379541
0.37484
0.376369
0.381518
0.38734
0.383757
0.407883
0.384883
0.378952
0.397077
0.391618
0.407497
0.381243
0.383361
0.381541
0.380854
0.392617
0.430747
0.372431
0.376199
0.420064
0.617959
0.396878
0.525217
0.398556
0.434642
0.405726
0.414374
0.385027
0.382058
0.398947
0.380268
0.381677
0.379679
0.376796
0.379852
0.386459
0.395388
0.378765
0.370648
0.389981
0.387946
0.381853
0.494095
0.38815
0.387103
0.379687
0.377286
0.41944
0.426604
0.391904
0.404101
0.379016
0.422424
0.421351
0.390161
0.382826
0.551499
0.388885
0.380864
0.373672
0.401643
0.382674
0.374567
0.388117
0.436382
0.381251
0.381317
0.397938
0.387564
0.386949
0.390864
0.38763
0.392359
0.387282
0.384764
0.381467
0.385291
0.395067
0.377937
0.379552
0.428998
0.384922
0.42092
0.380157
0.394366
0.39201
0.39689
0.386495
0.406401
0.506594
0.395015
0.383954
0.37666
0.386498
0.40978
0.396794
0.385419
0.543751
0.426164
0.3976
0.414784
0.386183
0.393428
0.446631
0.457822
0.549174
0.392276
0.388538
0.563499
0.397985
0.402536
0.392286
0.398123
0.431227
0.383489
0.39177
0.570567
0.384827
0.38397
0.381482
0.379757
0.396883
0.408519
0.541167
0.385894
0.377673
0.354955
0.459197
0.486443
0.409241
0.47381
0.387025
0.554869
0.385118
0.384696
0.47793
0.399782
0.388344
0.384023
0.444051
0.509262
0.392215
0.384333
0.336111
0.388087
0.379484
0.502609
0.38773
0.392928
0.386901
0.391595
0.376221
0.378179
0.586683
0.336245
0.415744
0.386785
0.388082
0.383177
0.39227
0.386819
0.384199
0.384271
0.38417
0.384911
0.389481
0.327371
0.321696
0.382304
0.397765
0.381154
0.395294
0.392271
0.381223
0.384081
0.389788
0.329595
0.402638
0.393242
0.389653
0.382226
0.393981
0.390378
0.38105
0.458274
0.386111
0.433697
0.398229
0.385855
0.384052
0.386297
0.507766
0.378881
0.376387
0.393895
0.384134
0.414306
0.387303
0.402632
0.39325
0.455803
0.384835
0.384336
0.389207
0.380631
0.394488
0.379876
0.414475
0.518564
0.383222
0.397603
0.395266
0.382449
0.446757
0.389713
0.39099
0.387935
0.391436
0.431185
0.410563
0.396108
0.514487
0.399017
0.39363
0.439806
0.417162
0.388174
0.42118
0.403286
0.383071
0.479528
0.541
0.384668
0.511567
0.40309
0.388543
0.455484
0.393838
0.388095
0.37921
0.489222
0.402939
0.379227
0.442699
0.400619
0.382728
0.38802
0.380715
0.397146
0.423802
0.483956
0.383477
0.39094
0.430647
0.38162
0.388463
0.446123
0.385042
0.384962
0.418477
0.400846
0.59441
0.52312
0.461947
0.426766
0.389535
0.406165
0.379164
0.384906
0.422834
0.387545
0.374996
0.386841
0.384141
0.414615
0.413952
0.391572
0.42311
0.390292
0.442863
0.390518
0.558343
0.386297
0.397903
0.392963
0.380264
0.386977
0.388913
0.392673
0.387531
0.381842
0.470726
0.377444
0.383068
0.386572
0.389412
0.385752
0.392452
0.386354
0.404364
0.388949
0.4001
0.388183
0.411371
0.382785
0.479636
0.44846
0.402659
0.453324
0.399625
0.395845
0.280157
0.376684
0.429751
0.393999
0.401354
0.397921
0.489136
0.391183
0.56713
0.401164
0.391555
0.398629
0.498263
0.397828
0.329661
0.394376
0.336016
0.404664
0.419992
0.408463
0.381404
0.382064
0.400591
0.331722
0.384923
0.450855
0.390375
0.384862
0.384948
0.393583
0.433911
0.379782
0.515656
0.416244
0.388318
0.38994
0.39414
0.413035
0.438378
0.385882
0.385865
0.407465
0.48508
0.390058
0.382758
0.407596
0.44232
0.390193
0.390599
0.384027
0.387523
0.456548
0.395412
0.437199
0.531979
0.381538
0.38973
0.388744
0.393631
0.311539
0.387411
0.462986
0.388565
0.38915
0.52676
0.709911
0.374904
0.384941
0.382864
0.390511
0.431469
0.391875
0.498787
0.390932
0.391455
0.410511
0.388137
0.394668
0.384038
0.391192
0.384237
0.412532
0.40682
0.418204
0.41044
0.402436
0.386563
0.381888
0.450831
0.495747
0.423487
0.417464
0.385201
0.440059
0.418885
0.520929
0.44058
0.386951
0.385076
0.385271
0.398605
0.392458
0.42474
0.388101
0.400911
0.608658
0.388022
0.46531
0.384228
0.385042
0.379528
0.38622
0.386371
0.374795
0.39552
0.379353
0.375688
0.376888
0.39285
0.405583
0.446527
0.383949
0.458645
0.405627
0.396281
0.377466
0.384046
0.417108
0.387464
0.415459
0.382708
0.385873
0.390295
0.379991
0.380757
0.39631
0.38986
0.396558
0.3856
0.438792
0.397096
0.406036
0.381545
0.411963
0.402063
0.384936
0.382803
0.382169
0.384351
0.494247
0.374644
0.392897
0.337609
0.387067
0.385532
0.387086
0.388211
0.406345
0.407972
0.381746
0.386929
0.384277
0.398898
0.407521
0.38265
0.494081
0.383448
0.39638
0.386813
0.381175
0.426972
0.385074
0.385871
0.444949
0.393585
0.382926
0.395352
0.418364
0.384692
0.451145
0.382241
0.394772
0.421768
0.395482
0.386404
0.432842
0.398943
0.40501
0.420098
0.409532
0.436163
0.592351
0.387902
0.399368
0.392157
0.393504
0.393707
0.385083
0.391412
0.379233
0.387872
0.459924
0.38746
0.384324
0.425795
0.39678
0.521468
0.385369
0.385945
0.403314
0.375578
0.390643
0.388422
0.385951
0.395817
0.391217
0.383271
0.392402
0.33393
0.401298
0.391207
0.480933
0.386365
0.74553
0.499575
0.384551
0.389602
0.432308
0.385575
0.326938
0.40965
0.384701
0.424911
0.320225
0.394346
0.401692
0.412355
0.502196
0.470856
0.384242
0.379451
0.324978
0.664274
0.64859
0.448614
0.47691
0.445538
0.373536
0.524259
0.400218
0.410167
0.489669
0.417527
0.400781
0.401312
0.414768
0.450555
0.386432
0.384323
0.376572
0.389332
0.382574
0.378901
0.474126
0.384775
0.382162
0.472528
0.375141
0.38068
0.389227
0.386816
0.384772
0.397925
0.391381
0.390407
0.410515
0.588625
0.382853
0.38879
0.394024
0.386428
0.481393
0.407468
0.392839
0.386914
0.465746
0.378181
0.402795
0.387491
0.398727
0.384788
0.374338
0.378984
0.383673
0.388698
0.38407
0.403256
0.386958
0.40036
0.387385
0.392134
0.381306
0.387322
0.378369
0.394175
0.385268
0.399779
0.472911
0.417139
0.393131
0.40289
0.381397
0.386495
0.382527
0.376767
0.393456
0.379769
0.386285
0.405632
0.398544
0.379313
0.395816
0.42824
0.389444
0.384058
0.412685
0.388227
0.438546
0.39795
0.416568
0.651127
0.388181
0.405667
0.407367
0.461884
0.39799
0.388442
0.384546
0.386195
0.383153
0.383391
0.383048
0.394837
0.395314
0.381513
0.38461
0.387848
0.384801
0.402288
0.400283
0.40268
0.380115
0.387471
0.384718
0.498341
0.39271
0.375861
0.394771
0.485799
0.764317
0.392895
0.410162
0.386681
0.391547
0.387743
0.456708
0.413547
0.378495
0.383455
0.38852
0.384038
0.398405
0.391694
0.385747
0.377908
0.405642
0.390107
0.40255
0.406073
0.425968
0.415237
0.390796
0.395017
0.382214
0.377772
0.383334
0.384645
0.382479
0.513033
0.389137
0.387949
0.529041
0.38887
0.392796
0.331328
0.409182
0.386535
0.373875
0.392677
0.384306
0.484133
0.382398
0.417327
0.402279
0.430764
0.54615
0.562667
0.383605
0.391451
0.443296
0.381835
0.465469
0.456305
0.523254
0.392631
0.379883
0.415045
0.390743
0.485994
0.402322
0.377032
0.529938
0.467382
0.388592
0.385888
0.567851
0.382361
0.379197
0.376396
0.391017
0.380101
0.381896
0.436265
0.389974
0.569026
0.387403
0.394222
0.376305
0.60841
0.378531
0.547929
0.387904
0.391452
0.384965
0.423535
0.388737
0.393545
0.382215
0.430688
0.415343
0.419138
0.51282
0.381563
0.386745
0.467591
0.390788
0.386771
0.3928
0.38712
0.379844
0.3932
0.387627
0.502111
0.417512
0.39335
0.376508
0.399652
0.391948
0.388852
0.385059
0.385094
0.39101
0.38557
0.389539
0.384829
0.404715
0.386026
0.382943
0.386841
0.38081
0.378724
0.382235
0.383012
0.380164
0.386249
0.387833
0.38889
0.385141
0.334502
0.389268
0.403562
0.417442
0.379509
0.605007
0.389446
0.457309
0.404949
0.340996
0.384654
0.395169
0.381758
0.389645
0.385603
0.389961
0.408657
0.383782
0.389686
0.383784
0.56644
0.38265
0.398
0.397335
0.830565
0.316593
0.390515
0.522052
0.3772
0.508897
0.427568
0.758259
0.321932
0.38811
0.391241
0.380092
0.381539
0.431824
0.405432
0.405598
0.385991
0.389101
0.472266
0.394047
0.38833
0.386981
0.382483
0.391144
0.385359
0.504142
0.392683
0.386146
0.386357
0.388133
0.383451
0.377227
0.385347
0.683441
0.701226
0.380019
0.426907
0.446426
0.382716
0.387572
0.378821
0.384658
0.378209
0.404984
0.387153
0.419036
0.385688
0.392893
0.388475
0.395351
0.393801
0.383461
0.387792
0.389584
0.385744
0.455322
0.393686
0.39929
0.495323
0.384359
0.446583
0.551813
0.382663
0.387352
0.407089
0.436064
0.388773
0.39967
0.461295
0.384703
0.404377
0.383896
0.401215
0.377283
0.384012
0.401073
0.473995
0.38833
0.393645
0.488941
0.399701
0.442284
0.463103
0.393167
0.54744
0.390742
0.399354
0.394706
0.385365
0.418219
0.393383
0.397048
0.382116
0.387574
0.480468
0.316199
0.388421
0.395463
0.421297
0.31701
0.404656
0.397049
0.383439
0.410659
0.381796
0.407219
0.384817
0.414438
0.381213
0.388551
0.380644
0.681708
0.386445
0.400562
0.384085
0.388324
0.392694
0.388827
0.379949
0.380169
0.403948
0.386632
0.4529
0.380755
0.453375
0.408329
0.394205
0.406094
0.39053
0.414773
0.385666
0.387604
0.382037
0.385414
0.508407
0.394498
0.434571
0.405103
0.394944
0.390447
0.394156
0.385962
0.387509
0.39638
0.402551
0.395238
0.38574
0.381646
0.389845
0.384425
0.40218
0.380713
0.399237
0.385508
0.418248
0.475613
0.382298
0.386825
0.380041
0.411952
0.375578
0.38969
0.374026
0.380688
0.381256
0.382244
0.381829
0.387431
0.384036
0.392148
0.424671
0.385693
0.46596
0.382898
0.377918
0.376872
0.395864
0.44851
0.384171
0.517014
0.382075
0.374632
0.570352
0.59673
0.381953
0.381433
0.457953
0.385924
0.4024
0.390972
0.400875
0.386395
0.415672
0.375973
0.396909
0.382282
0.388868
0.439154
0.386076
0.385955
0.388029
0.377527
0.4033
0.40279
0.391445
0.382013
0.381849
0.394746
0.394414
0.443437
0.397747
0.388412
0.392436
0.39299
0.410414
0.405338
0.4312
0.405423
0.393689
0.383813
0.388858
0.396718
0.383023
0.401859
0.39771
0.380163
0.821449
0.374128
0.390123
0.387302
0.390705
0.388431
0.465315
0.391484
0.417298
0.384325
0.562989
0.402068
0.388677
0.376612
0.462381
0.383346
0.457659
0.383606
0.406485
0.380435
0.389087
0.404086
0.444723
0.428618
0.388931
0.383337
0.391278
0.402285
0.387166
0.520538
0.418353
0.386788
0.408467
0.391978
0.424333
0.42459
0.403301
0.398832
0.438581
0.524424
0.393959
0.386344
0.459739
0.441922
0.393705
0.420993
0.386979
0.481847
0.399778
0.390893
0.389862
0.380768
0.389079
0.385449
0.383552
0.398374
0.385817
0.393174
0.392629
0.409362
0.395912
0.453331
0.380752
0.376426
0.380324
0.40501
0.428791
0.44514
0.389502
0.392238
0.438778
0.399068
0.394536
0.374583
0.383488
0.388908
0.37456
0.3811
0.393016
0.379561
0.440207
0.416281
0.42558
0.563918
0.419603
0.465714
0.404357
0.405912
0.382779
0.486158
0.388632
0.39047
0.382517
0.436263
0.393396
0.390165
0.412784
0.52723
0.398105
0.390738
0.380303
0.48059
0.578926
0.400986
0.528811
0.559081
0.469677
0.481247
0.459876
0.497798
0.410655
0.488436
0.551104
0.384685
0.396545
0.399713
0.410716
0.504147
0.392607
0.396952
0.403649
0.386357
0.389706
0.474818
0.430536
0.460512
0.384105
0.386298
0.377294
0.385966
0.389219
0.555376
0.381221
0.412465
0.432885
0.387597
0.462554
0.751807
0.386796
0.396287
0.395285
0.552433
0.392708
0.433624
0.545687
0.699436
0.405803
0.395925
0.439625
0.390043
0.381518
0.38907
0.384798
0.413721
0.486273
0.398082
0.3824
0.452116
0.425967
0.455868
0.386587
0.390301
0.511383
0.413603
0.330647
0.383253
0.385223
0.385645
0.317959
0.401921
0.400846
0.474677
0.323205
0.422233
0.413306
0.313844
0.41467
0.480105
0.416841
0.422489
0.416148
0.387062
0.473254
0.406562
0.389916
0.385189
0.385881
0.495166
0.527637
0.424707
0.399494
0.4156
0.398854
0.403835
0.325751
0.40663
0.397859
0.382196
0.402079
0.385967
0.329049
0.390764
0.415927
0.406433
0.475723
0.430028
0.595961
0.467025
0.505495
0.3835
0.404314
0.43945
0.345171
0.435041
0.395237
0.398348
0.387556
0.558837
0.424963
0.388424
0.722075
0.500538
0.392408
0.417342
0.443363
0.5065
0.418857
0.382788
0.429466
0.540646
0.397489
0.387183
0.386231
0.385096
0.40591
0.442593
0.472772
0.391025
0.429067
0.510399
0.467137
0.43671
0.456942
0.366859
0.552335
0.461703
0.427078
0.441674
0.443204
0.395523
0.424663
0.383635
0.389196
0.393566
0.392924
0.439205
0.412905
0.378373
0.390969
0.390856
0.387289
0.382401
0.46976
0.402918
0.399078
0.385013
0.412509
0.642605
0.326471
0.400093
0.377806
0.392039
0.403036
0.408363
0.379703
0.374117
0.399083
0.340088
0.396391
0.454717
0.389061
0.386027
0.388025
0.408222
0.493595
0.408396
0.389355
0.419034
0.387764
0.443329
0.418566
0.417358
0.429346
0.398762
0.390055
0.380755
0.382344
0.385806
0.401248
0.386991
0.376875
0.375419
0.398245
0.450472
0.378425
0.497553
0.385302
0.441565
0.391936
0.410817
0.389903
0.364388
0.389033
0.398041
0.398754
0.375389
0.392866
0.386262
0.425706
0.385803
0.388451
0.392044
0.490052
0.383209
0.402253
0.394978
0.489918
0.499479
0.410169
0.478176
0.360924
0.389512
0.399347
0.459137
0.392374
0.403746
0.410951
0.389038
0.408978
0.431457
0.403812
0.420623
0.407262
0.408633
0.422535
0.414577
0.390323
0.390107
0.402437
0.38068
0.393168
0.406041
0.387515
0.394616
0.444412
0.391276
0.336605
0.390083
0.529767
0.381547
0.382728
0.491173
0.399718
0.381723
0.38555
0.381009
0.436776
0.405677
0.496735
0.381986
0.46799
0.428621
0.443283
0.388048
0.421857
0.37723
0.384282
0.395635
0.402027
0.384172
0.418691
0.404209
0.388922
0.390669
0.385481
0.389965
0.424426
0.386377
0.378085
0.398878
0.414492
0.42069
0.387262
0.404031
0.384697
0.395288
0.393946
0.386384
0.392711
0.409783
0.393955
0.466948
0.379746
0.39584
0.378456
0.43145
0.388647
0.413427
0.391419
0.381047
0.380721
0.395657
0.396972
0.427216
0.414458
0.475916
0.412639
0.518347
0.401418
0.390902
0.393491
0.385106
0.38454
0.53751
0.484708
0.401946
0.40115
0.394547
0.388371
0.374942
0.392048
0.45235
0.416346
0.529442
0.410662
0.397731
0.381797
0.403317
0.388971
0.508211
0.386245
0.385236
0.383227
0.389443
0.504648
0.406496
0.381256
0.394588
0.40755
0.379373
0.331376
0.393597
0.369539
0.398439
0.533447
0.401006
0.547895
0.382186
0.387582
0.404355
0.384276
0.395793
0.391891
0.388743
0.378634
0.380276
0.402041
0.385746
0.44475
0.400205
0.559375
0.413058
0.38284
0.426352
0.386019
0.395992
0.36609
0.580673
0.611407
0.317622
0.383151
0.401043
0.522634
0.382613
0.40429
0.399498
0.395239
0.308195
0.382466
0.382598
0.376263
0.395886
0.417856
0.416981
0.45929
0.415165
0.385995
0.400731
0.464266
0.393362
0.383067
0.440327
0.510115
0.469967
0.404132
0.378742
0.37965
0.403126
0.371493
0.549776
0.390755
0.388076
0.388885
0.494535
0.37742
0.394535
0.426846
0.430866
0.384327
0.39008
0.385537
0.391787
0.389466
0.39668
0.395165
0.448077
0.423097
0.389408
0.456803
0.395741
0.467379
0.392522
0.58822
0.426737
0.388721
0.465364
0.396669
0.417309
0.397826
0.46618
0.409486
0.379773
0.394452
0.376742
0.390171
0.567105
0.383797
0.389585
0.39416
0.394931
0.372866
0.429346
0.398089
0.383605
0.412755
0.392545