/*--------------------------------*- C++ -*----------------------------------*\
| =========                 |                                                 |
| \\      /  F ield         | OpenFOAM: The Open Source CFD Toolbox           |
|  \\    /   O peration     | Version:  2506                                  |
|   \\  /    A nd           | Website:  www.openfoam.com                      |
|    \\/     M anipulation  |                                                 |
\*---------------------------------------------------------------------------*/
FoamFile
{
    version     2.0;
    format      ascii;
    arch        "LSB;label=32;scalar=64";
    class       volScalarField;
    location    "0.00481384";
    object      nut;
}
// * * * * * * * * * * * * * * * * * * * * * * * * * * * * * * * * * * * * * //

dimensions      [0 2 -1 0 0 0 0];

internalField   nonuniform List<scalar> 
47425
(
0.00723295
0.00294275
0.0063003
0.00336771
0.00363535
0.00426314
0.00536438
0.00466483
0.00390173
0.00127178
0.00299292
0.00750045
0.00667125
0.00582755
0.00381002
0.00122281
0.00714011
0.00345218
0.00030673
0.00219454
0.00487365
0.00699615
0.00401075
0.00707161
0.00742794
0.00686725
0.00610346
0.000308166
0.00456116
0.00302971
0.00715726
0.0075403
0.00421395
0.0069332
0.00735787
0.00668789
0.0075202
0.00180175
0.00282354
0.00414408
0.00423713
0.00715916
0.00750925
0.000911413
0.000438971
0.00350967
0.00495112
0.00424642
0.00272473
0.00452866
0.000378051
0.00667834
0.00387193
0.000715904
0.00109068
0.00380258
0.00752612
0.00285246
0.00214709
0.00274379
0.00060175
0.000502781
0.00108126
0.00315701
0.00473405
0.00621162
0.00473801
0.00722366
0.000718685
0.00382259
0.00659233
0.00388298
0.00720393
0.00608007
0.00181396
0.00191783
0.00100441
0.00356361
0.000183264
0.0025854
0.000856056
0.00579472
0.00734507
0.00708717
0.00755986
0.00633294
0.00735722
0.00747501
0.00726394
0.00123401
0.00752686
0.004986
0.0070856
0.00399283
0.000850248
0.00235406
0.00579661
0.00725483
0.00324126
0.0025007
0.00695929
0.00107868
0.00447313
0.00084303
0.00509337
0.00737306
0.00635464
0.00677613
0.00756809
0.00750771
0.000809848
0.00702067
0.00711685
0.00299769
0.00690689
0.000210818
0.00703598
0.000586659
0.00271865
0.00657448
0.00711184
0.00282877
0.0070038
0.00477168
0.00200777
0.00697068
0.00535756
0.00376345
0.0043937
0.00747642
0.00739846
0.00204125
0.000806412
0.00181087
0.00418778
0.00434981
0.00683666
0.00686241
0.00473077
0.00557128
0.00552448
0.00285626
0.00383239
0.00687805
0.00436574
0.00286619
0.00688393
0.00700064
0.00287117
0.00513431
0.0070125
0.000339796
0.00366509
0.000250915
0.00408433
0.00484655
0.00427533
0.000164525
0.00320155
0.0056005
0.00685753
0.00745734
0.00440628
0.00530954
0.00190376
0.000216508
0.00750783
0.000777588
0.00332646
0.00066646
0.000913609
0.00218667
0.00504288
0.00415541
0.00507104
0.00124211
0.000224518
0.00692589
0.00720909
0.00754873
0.00019705
0.00587615
0.00559541
0.00453797
0.00744093
0.00729096
0.00644058
0.00121261
0.00277823
0.00732518
0.00712138
0.00272447
0.00560507
0.00264128
0.00750165
0.00729913
0.00323876
0.00649303
0.00711337
0.00548258
0.00605161
0.00193874
0.00759472
0.00732
0.00409381
0.00287853
0.00421463
0.00736201
0.000894899
0.00222248
0.005971
0.00685805
0.00724165
0.00256027
0.00680496
0.00672681
0.00648957
0.00379209
0.00638776
0.00153867
0.00248832
0.00345295
0.00734004
0.00478304
0.00196726
0.00240582
0.00683618
0.00373432
0.00649993
0.0044376
0.00385489
0.00564206
0.00137024
0.00372863
0.00274929
0.00525818
0.00376411
0.00283201
0.00357984
0.00252039
0.00512413
0.00382498
0.00756041
0.00536043
0.00734151
0.00164732
0.00727865
0.00163554
0.00750991
0.00437904
0.0075605
0.00323462
0.00485651
0.00241794
0.00496946
0.00607707
0.00753379
0.00346055
0.00636396
0.00241976
0.00307819
0.0072363
0.00357496
0.00325865
0.00629999
0.00199912
0.00747182
0.00633527
0.00384399
0.00430157
0.00375759
0.00538308
0.00306703
0.00351863
0.00303967
0.00255013
0.00290749
0.000421162
0.00501277
0.000507342
0.000794542
0.00541979
0.000530868
0.00237109
0.00483492
0.0064528
0.00420258
0.00683872
0.00103029
0.00687218
0.000444699
0.00458715
0.00212443
0.00539193
0.00738075
0.00329301
0.00492774
0.00315109
0.00643975
0.00481317
0.00277888
0.00519048
0.00263323
0.00738438
0.000400963
0.000761792
0.000342427
0.00752413
0.0073971
0.00723411
0.0041569
0.000418656
0.00568835
0.00366006
0.00188523
0.00493888
0.00435787
0.00309545
0.00508188
0.000914816
0.00213218
0.00749525
0.00476576
0.00746385
0.00163315
0.00746244
0.00639915
0.00689222
0.00740037
0.00387305
0.00663525
0.000435681
0.00613712
0.00656825
0.00297823
0.0041951
0.000391274
0.00747256
0.00751646
0.00304392
0.00711392
0.00588357
0.00750324
0.00746139
0.0073975
0.00400905
0.0028267
0.00718311
0.00660252
0.00151793
0.00578943
0.00517614
0.00673848
0.00745982
0.00487701
0.00365884
0.00541764
0.00749716
0.00361471
0.00453115
0.00126715
0.00536631
0.00166886
0.00433702
0.00411978
0.00744101
0.00288058
0.00400395
0.00573996
0.00719834
0.00287243
0.000295805
0.00668584
0.00739497
0.00191628
0.00742254
0.00731712
0.00226469
0.00291504
0.00750351
0.0053546
0.00735157
0.00757049
0.00556518
0.00152241
0.00456033
0.00495701
0.00324805
0.00510242
0.00543633
0.00736017
0.00623852
0.00400811
0.00327874
0.00635125
0.00505316
0.00708199
0.00500307
0.00318153
0.0074233
0.000898465
0.0075311
0.00170967
0.00155858
0.00357153
0.00295708
0.00743386
0.00312898
0.00748243
0.00318004
0.00713637
0.000644078
0.000560659
0.0072467
0.00486645
0.00474612
0.00348597
0.00442799
0.0053286
0.00316563
0.00354725
0.00354164
0.0050576
0.00538293
0.00659206
0.00736176
0.00651403
0.00666605
0.00710501
0.000879761
0.000310586
0.00522755
0.000383482
0.000315686
0.00189441
0.000365992
0.000653327
0.00616444
0.00473905
0.00691783
0.00677793
0.000638873
0.00218536
0.00736433
0.00739977
0.00681809
0.00665387
0.00246802
0.00596354
0.000945158
0.000844281
0.00117653
0.00519529
0.00123104
0.00704296
0.00405806
0.00723558
0.0066223
0.00729422
0.00501589
0.00409505
0.000598565
0.00244509
0.00422036
0.00546486
0.00597125
0.00207122
0.00706205
0.00532236
0.00290458
0.00638312
0.00604627
0.0011604
0.0019724
0.00449805
0.00437134
0.00694482
0.00104907
0.00358731
0.00200805
0.00681662
0.00273557
0.00647566
0.00663531
0.00651862
0.00601161
0.00698581
0.00445319
0.00411716
0.00345257
0.00696366
0.00668875
0.00468071
0.00248209
0.000836958
0.00430162
0.00208838
0.00725261
0.00226581
0.00746606
0.00253852
0.00746337
0.00512709
0.00676878
0.00312382
0.00232293
0.00518955
0.00757861
0.00675165
0.00577674
0.00327546
0.00489745
0.00534506
0.0056561
0.00626871
0.00738275
0.00360135
0.00203385
0.00331274
0.00384587
0.00508866
0.00069461
0.000429369
0.00374251
0.00454846
0.00670284
0.00463063
0.00161903
0.00139735
0.00382168
0.0057172
0.00172631
0.00613424
0.00368205
0.00142208
0.0073289
0.000649215
0.00548005
0.00404344
0.00319183
0.00247979
0.00762726
0.00688139
0.00537356
0.00742098
0.00741201
0.00663261
0.000726046
0.00729992
0.000815645
0.00522669
0.00191287
0.00320101
0.0039449
0.00243943
0.00280817
0.00568165
0.00539015
0.00153414
0.0074372
0.00730498
0.00361853
0.00733855
0.0074905
0.0033611
0.00491428
0.00483445
0.00604228
0.00528136
0.00749906
0.00124069
0.00541845
0.00676198
0.00172245
0.00433759
0.00738264
0.00302263
0.0019023
0.00755412
0.000373191
0.000378109
0.00706452
0.00440254
0.00740383
0.00741861
0.00126441
0.00166822
0.00103345
0.00481517
0.00288696
0.00419384
0.00192672
0.00287823
0.00154934
0.00703975
0.00124143
0.00235625
0.00692142
0.00552895
0.00619168
0.00350226
0.00352032
0.0030406
0.00664226
0.00337468
0.00287944
0.00542107
0.00549746
0.00402202
0.00417983
0.00732338
0.00227824
0.00454593
0.00476788
0.00330021
0.00094347
0.00614113
0.00241442
0.00714321
0.00184638
0.00392243
0.00717509
0.00438582
0.000190247
0.00427194
0.00531424
0.000517673
0.000653917
0.00752051
0.00482119
0.000123704
0.00117805
0.000875056
0.00171531
0.000562949
0.000571454
0.00299357
0.00747959
0.00537889
0.00417214
0.000932431
0.000739675
0.00747379
0.00308929
0.00666743
0.00603735
0.00727731
0.00371782
0.00695537
0.00176314
0.000335852
0.0032831
0.00405403
0.00467161
0.00716509
0.00165725
0.00715544
0.00647896
0.00260297
0.00390099
0.00707606
0.00121752
0.0055387
0.00693148
0.00148788
0.000880383
0.000414643
0.000851222
0.00387901
0.00726271
0.0052727
0.0075435
0.000734354
0.00495646
0.00049974
0.00375282
0.00602618
0.0064607
0.00586551
0.00187389
0.0067314
0.00177318
0.00286501
0.00717357
0.00189256
0.0050166
0.0024307
0.00647491
0.00446224
0.000419013
0.00650716
0.00125278
0.00657552
0.00364935
0.00609357
0.000807867
0.00495064
0.00638811
0.00748028
0.00373771
0.00654988
0.00271586
0.00608809
0.00386635
0.00572259
0.000893214
0.000510527
0.00400874
0.000847715
0.00636753
0.00395183
0.0037733
0.00751557
0.00701044
0.00350406
0.00649867
0.00644458
0.00671681
0.000413539
0.00255878
0.0053194
0.00686076
0.00549887
0.00486461
0.00746213
0.00310782
0.00710844
0.00117915
0.00436112
0.00749855
0.0049117
0.00751487
0.00725037
0.0029824
0.00510329
0.00479632
0.00745489
0.00668691
0.00660183
0.000865934
0.00759252
0.00232848
0.0026333
0.00171171
0.000794527
0.00463366
0.00596825
0.00260792
0.00497146
0.000695554
0.000937843
0.000480418
0.00358065
0.00442723
0.0038084
0.000770349
0.000763099
0.00296709
0.00447407
0.007066
0.00708412
0.00595423
0.00324174
0.00311752
0.00443661
0.00172304
0.00226868
0.00610948
0.000706262
0.000807399
0.000664936
0.00719794
0.000469045
0.00149279
0.000490521
0.000666196
0.00267181
0.00159793
0.00751757
0.00746534
0.00605197
0.000741125
0.00138547
0.00499932
0.00539083
0.0075031
0.00186281
0.000830456
0.00754568
0.00227655
0.00415627
0.00755794
0.00152085
0.0075102
0.00754818
0.0026476
0.0054881
0.00165664
0.00747996
0.00751122
0.00444043
0.00299775
0.00300504
0.000957347
0.00153829
0.00757462
0.000644045
0.00590311
0.00747645
0.00741462
0.000914679
0.00406668
0.000708307
0.00599356
0.00718023
0.00686747
0.00116669
0.00044617
0.00389196
0.00579045
0.00178522
0.00404633
0.00700604
0.00226491
0.00302644
0.000474576
0.0010345
0.00313259
0.000618022
0.00410757
0.00112357
0.00668732
0.00630361
0.00730404
0.00256307
0.0032794
0.00731161
0.000844371
0.00107621
0.00516507
0.00230416
0.00647749
0.00503396
0.00341574
0.00594381
0.00534283
0.00528979
0.00084433
0.00455838
0.00502195
0.00209035
0.00177348
0.000336751
0.00175739
0.00420836
0.00047476
0.0070853
0.00749072
0.00406697
0.00452479
0.00562036
0.00158183
0.00113347
0.00576622
0.00472708
0.00712008
0.00123097
0.00397395
0.00432642
0.0039258
0.000787571
0.00496638
0.00716415
0.00579493
0.00144826
0.00145392
0.000408645
0.00120323
0.00463752
0.000689723
0.0017185
0.00480152
0.00738781
0.0041732
0.00128147
0.00175933
0.00444358
0.00630873
0.00454917
0.00749895
0.00350591
0.000750719
0.00231774
0.00230384
0.00745935
0.00194314
0.00102484
0.003503
0.00465672
0.00651442
0.000656884
0.0012223
0.0053732
0.0017394
0.000635979
0.00454334
0.00712995
0.00671895
0.000927776
0.00725823
0.00263831
0.0066995
0.00103902
0.000393266
0.00584265
0.00583306
0.00438266
0.00580054
0.00447236
0.00369364
0.000507194
0.00606024
0.000629316
0.0040501
0.00274987
0.00448361
0.00119895
0.00234254
0.00119921
0.00167434
0.00166291
0.00400201
0.000394035
0.00580286
0.00381046
0.00666933
0.00652289
0.0070853
0.00565506
0.00145282
0.00309794
0.00292629
0.00744954
0.00359364
0.000574917
0.00064485
0.000699396
0.00152272
0.000485267
0.00206399
0.00118308
0.00127076
0.0058694
0.00115935
0.00262781
0.00122739
0.0010572
0.00649585
0.00612538
0.0038532
0.00411088
0.0018736
0.00127598
0.00580948
0.00444606
0.00120218
0.00602572
0.00368315
0.00606412
0.00733776
0.0036745
0.00285543
0.00340283
0.00434633
0.00457229
0.000741505
0.00642668
0.00318036
0.00285716
0.006779
0.0029639
0.000967186
0.00565598
0.00281679
0.00580769
0.00108331
0.00125579
0.00355194
0.00530167
0.00021108
0.000220619
0.0013492
0.000748846
0.00352655
0.00594516
0.000464635
0.00159722
0.00524945
0.00125598
0.00285257
0.00323419
0.000944383
0.0031889
0.00702276
0.00328752
0.00230228
0.00397246
0.00055777
0.000262098
0.00478113
0.000584457
0.00310941
0.000621039
0.000217309
0.00732225
0.00248373
0.00326258
0.00101057
0.00207003
0.00530593
0.0031557
0.000385107
0.00739251
0.00287607
0.00380326
0.00290368
0.00753123
0.00531754
0.00179895
0.00133082
0.00127836
0.00214205
0.00630766
0.000917137
0.0070523
0.00752798
0.00213864
0.00112683
0.0044568
0.00574789
0.000432089
0.000910278
0.00103412
0.00377653
0.00575117
0.00188984
0.000965291
0.00360187
0.000637845
0.00149263
0.00687145
0.00273024
0.00152175
0.000380212
0.00317363
0.0024101
0.00675452
0.00680025
0.00156932
0.0021339
0.00225919
0.00644831
0.00238289
0.00611053
0.00612921
0.00158914
0.00054178
0.0070067
0.000349083
0.00542803
0.00651334
0.000927881
0.00519103
0.00343586
0.00415157
0.00617886
0.00195258
0.00691792
0.00114265
0.00652137
0.000236413
0.000359794
0.00110034
0.00196034
0.00727368
0.0045415
0.0035865
0.00738039
0.000518658
0.000474388
0.00211497
0.0011145
0.000583579
0.000510149
0.0018107
0.000644237
0.000487019
0.00458835
0.0074679
0.000406714
0.00583687
0.0070198
0.00622742
0.000571207
0.000311866
0.00641795
0.00544903
0.00142832
0.00195947
0.00177149
0.000416128
0.00281733
0.000728378
0.000606704
0.00353532
0.00696915
0.000488979
0.00589189
0.000794503
0.000140015
0.00749606
0.00524888
0.00386643
0.00694209
0.00206302
0.00489976
0.00726108
0.000880919
0.00296746
0.000818599
0.00197698
0.00532051
0.000863261
0.00733485
0.000240995
0.00645825
0.00322796
0.00362726
0.00585804
0.000774727
0.00630881
0.00320658
0.0029317
0.00173239
0.00548302
0.0008566
0.00211612
0.000631923
0.00693765
0.000671065
0.000544826
0.00547218
0.00556626
0.000807839
0.00231447
0.00432743
0.00681111
0.000790901
0.000484018
0.00245982
0.000395719
0.00258744
0.00102215
0.00118254
0.00296662
0.00370447
0.000420574
0.00181465
0.00748105
0.00325067
0.00502591
0.000543083
0.00146316
0.000808283
0.0071425
0.00524083
0.0059973
0.000661905
0.00555932
0.000344476
0.0024465
0.00677308
0.00532752
0.00297073
0.00235177
0.000713068
0.00212476
0.00365446
0.00123745
0.00087952
0.00550518
0.000698277
0.00146283
0.00330513
0.000344877
0.000711574
0.000583751
0.00145533
0.0041631
0.00166427
0.000494595
0.00219639
0.000953335
0.00293182
0.00675135
0.00165827
0.00567707
0.00372121
0.00388877
0.00116884
0.00190513
0.00158184
0.00652669
0.00173176
0.00450755
0.00717121
0.00127432
0.00195613
0.00244417
0.00547516
0.00496341
0.000237168
0.000559408
0.00195402
0.00220284
0.00121034
0.003519
0.000817992
0.000667058
0.00171477
0.00420352
0.00481805
0.0034175
0.00294685
0.00101713
0.00711202
0.00120536
0.00146537
0.00716733
0.00176545
0.00345848
0.00340562
0.00296158
0.00163284
0.000866647
0.00746086
0.000377516
0.00184063
0.000576082
0.0026954
0.00649466
0.00180789
0.00311433
0.00160683
0.00389051
0.00579972
0.00585804
0.000292404
0.00635256
0.00653963
0.000534436
0.00753215
0.00609383
0.000464221
0.00440725
0.00197332
0.000991007
0.00229836
0.000907538
0.00620149
0.00013386
0.00116472
0.00163472
0.00125454
0.00137066
0.00573426
0.000793509
0.00104865
0.000887857
0.00677321
0.00383206
0.00344389
0.00397955
0.00452282
0.00133878
0.000334673
0.00192364
0.00730108
0.00456911
0.00691693
0.00408257
0.0016533
0.00677776
0.00497713
0.00309503
0.0010742
0.00727964
0.000849713
0.00467904
0.00278626
0.00542689
0.00141952
0.00273696
0.00361681
0.00744491
0.00171737
0.00405339
0.00691659
0.00391551
0.000788502
0.00461218
0.00704868
0.00398236
0.00561571
0.000935289
0.00687979
0.00731148
0.000501818
0.000973931
0.000611686
0.00705611
0.000602073
0.000392126
0.00749763
0.000371295
0.00067229
0.000246311
0.00163032
0.00604898
0.0018142
0.00158329
0.00756418
0.00170155
0.00183621
0.00311232
0.00377625
0.00627068
0.00140672
0.000908462
0.00366963
0.00353167
0.000490108
0.00562045
0.000136899
0.00225233
0.00110179
0.00748477
0.000987327
0.00118631
0.00723766
0.00559202
0.00228459
0.00757291
0.0010304
0.00208161
0.000283007
0.00631686
0.00172608
0.00436449
0.00352975
0.00517685
0.00717053
0.00145211
0.00583807
0.00149246
0.00342235
0.00122199
0.000151213
0.00526421
0.00757137
0.000238978
0.00359645
0.000141709
0.00625537
0.00389193
0.00389799
0.0043921
0.00699151
0.0069032
0.00670029
0.00286795
0.00661075
0.00219643
0.00273547
0.00677874
0.00745869
0.00300984
0.00143948
0.00474032
0.00107352
0.00739533
0.00637128
0.00126588
0.00223039
0.00655135
0.00736576
0.00158248
0.00234824
0.00275735
0.00557546
0.00656116
0.00539449
0.00425667
0.00125637
0.00148783
0.00608102
0.00129448
0.00199561
0.0056177
0.00733538
0.00591381
0.00612592
0.0010125
0.00227046
0.00103858
0.00296142
0.00357323
0.00654089
0.00152408
0.00713052
0.00353489
0.00386162
0.00135208
0.00134699
0.000838152
0.000829413
0.000686283
0.00456312
0.00658334
0.00465565
0.00708396
0.00644737
0.00077026
0.00564999
0.00745005
0.00525517
0.00398883
0.00471435
0.00166309
0.00534298
0.00253844
0.00502092
0.000990496
0.00743934
0.00322233
0.00504357
0.00403182
0.00454782
0.00144785
0.00543967
0.00483139
0.00606749
0.00510593
0.0048711
0.00292394
0.00236578
0.00652631
0.00150286
0.00502673
0.000972456
0.00164314
0.00742826
0.00746037
0.00452822
0.00372902
0.00727904
0.00155583
0.00743639
0.00745853
0.00643627
0.00528362
0.00150185
0.00453784
0.00330172
0.00316809
0.0059434
0.000797792
0.0051425
0.00397874
0.0025342
0.00719297
0.0041531
0.00278476
0.000185948
0.00115697
0.00116612
0.0074928
0.00496419
0.00519491
0.0074294
0.00560496
0.00289308
0.00437439
0.00618962
0.00754129
0.00582091
0.000774989
0.00135865
0.00310284
0.00228582
0.00367416
0.00218075
0.0017383
0.00197365
0.00251993
0.00613641
0.00540639
0.000722631
0.00699036
0.00427425
0.00111419
0.00235031
0.00392269
0.000224985
0.00214633
0.00124187
0.00388141
0.00343753
0.0034443
0.000194418
0.000175625
0.00308122
0.0058993
0.00715429
0.00410108
0.000969261
0.00656945
0.000171471
0.00122429
0.00588565
0.000616132
0.0025187
0.00248273
0.0074083
0.00229915
0.00565197
0.00579334
0.00694158
0.00435915
0.00576923
0.0048292
0.00299097
0.0039786
0.00288884
0.00634041
0.00335401
0.00135146
0.00432196
0.00551003
0.00215761
0.0016315
0.0012055
0.00182209
0.000971139
0.006214
0.000736375
0.000918695
0.00660993
0.000331609
0.00139998
0.000509409
0.00405528
0.00394918
0.00404132
0.00215627
0.00241766
0.00753417
0.00745692
0.00593693
0.00632182
0.000834345
0.00153704
0.000564945
0.000565587
0.00454092
0.0010176
0.00745256
0.00569291
0.0042831
0.00521418
0.0042803
0.00705231
0.00646642
0.00168118
0.000851422
0.00751184
0.00694528
0.00646378
0.0014834
0.00548381
0.00757047
0.00679176
0.000983057
0.000712089
0.00543132
0.000836151
0.00313345
0.00182604
0.000855349
0.00246995
0.00740265
0.00755216
0.00308037
0.000715884
0.00347956
0.00113181
0.00509444
0.00534006
0.000718359
0.000258447
0.000381355
0.00180784
0.00279879
0.00384021
0.00531101
0.00389405
0.00661375
0.000689006
0.00111803
0.000797321
0.000237819
0.00211676
0.00225559
0.00430207
0.000593976
0.00714598
0.000168856
0.00319329
0.00065559
0.00186832
0.00175515
0.00567345
0.00259503
0.000383777
0.00175389
0.0074928
0.00604413
0.00395734
0.000911739
0.00142772
0.00412203
0.00663076
0.000319598
0.000571815
0.00666435
0.00136782
0.00077304
0.00110795
0.00711269
0.00735453
0.00112269
0.000575091
0.00267545
0.0072513
0.000962683
0.00738215
0.00103702
0.000566304
0.000628342
0.00207801
0.0045057
0.00207124
0.00750764
0.00629288
0.00509034
0.00212447
0.00678672
0.00613685
0.00703341
0.00470862
0.00619312
0.00436206
0.00671216
0.0038502
0.00744538
0.00751814
0.00241441
0.00302996
0.00211978
0.0040815
0.00104453
0.00412103
0.00395015
0.00340266
0.00096339
0.00726124
0.00444845
0.00187834
0.000190461
0.00581146
0.000860326
0.00430528
0.000909164
0.00193775
0.00114285
0.00703099
0.00594122
0.00636348
0.00469508
0.00705722
0.00475884
0.00426797
0.0055146
0.00668968
0.00643295
0.00737494
0.00665649
0.00188901
0.00663454
0.00250879
0.000492086
0.00385051
0.00531389
0.00627123
0.00378837
0.00116654
0.00104222
0.00421415
0.00258141
0.00410692
0.00098605
0.00209555
0.00339538
0.00122186
0.000221039
0.00149619
0.000847813
0.00459225
0.00177305
0.00121808
0.00578563
0.00410786
0.000860949
0.00480069
0.00507024
0.00257288
0.00686277
0.00235617
0.00262399
0.00330599
0.00295717
0.0019358
0.00384568
0.00732556
0.00740149
0.00256089
0.00338206
0.00215329
0.00132646
0.00619633
0.000930585
0.00333618
0.00338947
0.000278071
0.00271101
0.0075193
0.00212716
0.000475073
0.0054255
0.00246189
0.00752501
0.00287612
0.00115395
0.00612262
0.00749091
0.000426546
0.00163488
0.002009
0.00176455
0.00551046
0.00498494
0.000908912
0.000362508
0.000567529
0.00661696
0.00629249
0.00027057
0.00479913
0.00260578
0.00440943
0.00264523
0.00086808
0.00735055
0.00310141
0.000640919
0.003923
0.00689102
0.00557523
0.00442691
0.00425602
0.00121471
0.000220089
0.00600503
0.00446939
0.000670471
0.000494096
0.000443395
0.00229072
0.000593567
0.00342498
0.000381799
0.000941019
0.000613467
0.000861075
0.00377421
0.00643377
0.00165306
0.000729351
0.000254454
0.00739513
0.00746391
0.000782231
0.00661754
0.00277042
0.00040955
0.00636483
0.00394976
0.00677929
0.00613812
0.00571178
0.00738664
0.000279149
0.000825438
0.001712
0.00244252
0.00235977
0.00659192
0.00281404
0.00651923
0.00281888
0.0066247
0.00726878
0.00665754
0.00576989
0.000889829
0.000834308
0.00731902
0.00218564
0.00685072
0.00379173
0.00481601
0.00147809
0.00412612
0.00636754
0.000804673
0.00138835
0.00594609
0.00219724
0.00349043
0.00140074
0.005417
0.00488948
0.000829862
0.00208758
0.00100399
0.00353044
0.00178387
0.00360378
0.00647737
0.000388477
0.00751514
0.00739772
0.00281051
0.0027346
0.00129499
0.00426513
0.00207092
0.00375401
0.000586289
0.00385125
0.00344179
0.000960991
0.00743752
0.0045742
0.00601187
0.00188043
0.000292757
0.00541827
0.000619022
0.00514103
0.00346131
0.00104007
0.00631627
0.00515555
0.00683818
0.00602128
0.00124017
0.00149539
0.00175596
0.000453726
0.00323145
0.00322746
0.000267538
0.000924308
0.00370406
0.00136808
0.00160124
0.00570482
0.000594479
0.000294319
0.0026472
0.000673856
0.00136453
0.00291129
0.000683303
0.0024634
0.00443378
0.00375639
0.000633879
0.00150898
0.00752147
0.00086176
0.00366294
0.00119164
0.0066021
0.000926198
0.00401719
0.000966874
0.000613472
0.00551995
0.00450183
0.000134397
0.00753029
0.00451905
0.000822193
0.00666044
0.00294223
0.00156725
0.00218373
0.000284106
0.00108421
0.000102493
0.00188647
0.00100192
0.00142448
0.00738768
0.00503115
0.0010774
0.00581738
0.00446497
0.00261053
0.00538507
0.00139202
0.000799485
0.00652918
0.00167254
0.00714111
0.000728269
0.00570617
0.000349133
0.00390639
0.00325393
0.00692915
0.00283382
0.00261111
0.00642864
0.00630181
0.00346538
0.00754224
0.000893679
0.00678866
0.00357184
0.00677793
0.00453283
0.00397317
0.00321485
0.00114963
0.00315465
0.00400842
0.00600376
0.00521894
0.00158376
0.00160542
0.000535744
0.000615708
0.00281841
0.0007733
0.00450477
0.00316378
0.000376164
0.00167321
0.00111219
0.00315824
0.00384582
0.0047389
0.00069696
0.00610134
0.000828574
0.00199013
0.00651364
0.0043313
0.000804375
0.00516304
0.000827381
0.00465274
0.000835446
0.00214716
0.000924191
0.00250578
0.00233611
0.00228508
0.00204274
0.000879607
0.00335925
0.000879599
0.00702048
0.000780862
0.0068792
0.00661032
0.000854542
0.00521654
0.000538257
0.00125987
0.00565081
0.00176434
0.0048967
0.00137752
0.00105856
0.00697167
0.0067669
0.00170477
0.000583229
0.00632873
0.00279151
0.00160672
0.000936235
0.0044945
0.00623569
0.0012975
0.00671774
0.000648924
0.00712924
0.000838059
0.000231658
0.00477138
0.00456412
0.00676729
0.00443606
0.00062346
0.00119329
0.000589149
0.00593741
0.00473313
0.00014703
0.00057971
0.00722978
0.002942
0.00533685
0.00715079
0.00123759
0.00511886
0.000467089
0.00429943
0.00405994
0.00226033
0.006949
0.00616174
0.00685389
0.00622099
0.00172729
0.00223537
0.0029654
0.00150514
0.00124815
0.0032821
0.00709379
0.00265108
0.00167219
0.000758431
0.000823069
0.00144036
0.000414972
0.000902623
0.00099162
0.000530181
0.000729065
0.00521842
0.0012683
0.00151828
0.00145176
0.00610134
0.00151882
0.00325991
0.00187111
0.000343418
0.000643149
0.000733979
0.000850432
0.00713248
0.0041716
0.00701064
0.00707122
0.00704138
0.00292593
0.00561104
0.00412404
0.00742528
0.00349687
0.00134984
0.000745058
0.00688734
0.000531383
0.00700799
0.00411055
0.00752186
0.00344444
0.00109085
0.0015648
0.00113237
0.00141025
0.00565763
0.00569214
0.00511963
0.00734325
0.00316902
0.00557376
0.00287253
0.00659278
0.000768435
0.00351329
0.0016377
0.00116225
0.00106433
0.00319568
0.00512641
0.00565556
0.00154409
0.000845746
0.000612126
0.00751523
0.00644989
0.000954624
0.00245442
0.000583678
0.00555507
0.00245791
0.00255706
0.00154149
0.00713042
0.00686271
0.00676728
0.00268049
0.00149489
0.00669833
0.000135522
0.00727399
0.00417202
0.00641449
0.00744449
0.00147366
0.0050973
0.00481921
0.000899097
0.00309072
0.00110142
0.00211169
0.00158552
0.00746136
0.000852411
0.0074934
0.00732923
0.00104019
0.00571325
0.00289208
0.00082224
0.00712708
0.00233536
0.00108866
0.00185549
0.000797945
0.000497865
0.00334532
0.00238408
0.00296448
0.00613688
0.00238145
0.00252988
0.00464746
0.00617831
0.000849087
0.000894504
0.00126724
0.00147204
0.00154761
0.00114535
0.00103085
0.00362791
0.0021082
0.00174114
0.00560224
0.00699323
0.00534123
0.00676423
0.00338787
0.0045062
0.000705196
0.00472976
0.000494521
0.00450503
0.00739319
0.000552708
0.00290486
0.000463673
0.000606702
0.00734833
0.00533583
0.00102986
0.00249483
0.000761743
0.00145796
0.00188374
0.00140125
0.000753666
0.00380232
0.00256273
0.00154568
0.000448713
0.000746413
0.002667
0.00219738
0.000705943
0.00092155
0.000162837
0.000771791
0.000695549
0.00102091
0.00157517
0.000465153
0.00476884
0.00196324
0.000608623
0.000856152
0.00237074
0.00147695
0.00368831
0.000407661
0.000847241
0.00373019
0.00573073
0.0043939
0.00419948
0.00606581
0.000658973
0.00137521
0.00284876
0.000591918
0.0044921
0.00267865
0.00382646
0.00662168
0.00122338
0.00483654
0.00176391
0.00542593
0.00231308
0.000306491
0.00686908
0.00696753
0.00315867
0.00549137
0.000649155
0.00229643
0.00617624
0.00702549
0.000482992
0.00743627
0.00335279
0.0064704
0.00255974
0.00493777
0.00517299
0.00401076
0.00693255
0.000255732
0.00444446
0.00221551
0.00683929
0.0070591
0.0072497
0.00543507
0.00347567
0.00361873
0.00747779
0.00546922
0.00479859
0.00303552
0.000693882
0.00120781
0.00402161
0.00192501
0.0045692
0.00096844
0.00302668
0.0045613
0.00652961
0.0011712
0.00415115
0.0023676
0.00197576
0.00240106
0.00461424
0.00103733
0.00406499
0.00153922
0.00118816
0.00637028
0.00103601
0.00373999
0.000969532
0.00022353
0.00129137
0.00241488
0.0016503
0.000421855
0.0035446
0.00713685
0.00591506
0.00696383
0.00690811
0.00428362
0.00734616
0.0074923
0.00248922
0.00479168
0.0071326
0.00453199
0.00716182
0.00370109
0.00274461
0.00158412
0.00352517
0.0026772
0.00617018
0.000611192
0.00351348
0.00729751
0.00501377
0.000574566
0.000255641
0.00103568
0.00192174
0.0051614
0.00484536
0.00652189
0.000515159
0.00170927
0.00618426
0.00411612
0.00687999
0.00545031
0.00271989
0.00678681
0.00347705
0.00454854
0.00123877
0.00108408
0.00231343
0.00107581
0.000268705
0.00184356
0.00193265
0.00597157
0.0056506
0.00425673
0.00154279
0.00715512
0.00646166
0.000309117
0.00716165
0.00100425
0.000459316
0.00166528
0.00305446
0.000627938
0.00205275
0.00315558
0.00435547
0.00711132
0.00272199
0.000705629
0.00428943
0.00168779
0.00207663
0.00172287
0.000505928
0.000510191
0.00438023
0.00452821
0.000926877
0.00669593
0.000603745
0.000617499
0.000560649
0.0018471
0.00733178
0.000885009
0.00671456
0.000376989
0.00300434
0.00408951
0.000524956
0.00108148
0.00308329
0.0034634
0.00039624
0.00734804
0.0073877
0.00700198
0.00695857
0.000958111
0.00713304
0.00158942
0.00651303
0.000237144
0.00398388
0.00293983
0.00648708
0.000210587
0.00496879
0.000323613
0.00536695
0.00632663
0.00453882
0.00103917
0.00424105
0.00427265
0.00572226
0.000567794
0.00218302
0.00165875
0.000828223
0.00389252
0.00679559
0.00141698
0.00619909
0.00341729
0.00375732
0.00705286
0.00397471
0.0058387
0.00719727
0.000330321
0.00132581
0.00471669
0.00725379
0.00202597
0.00534954
0.00594494
0.00673865
0.00479888
0.00042292
0.0046935
0.00663966
0.00529122
0.00289423
0.00650283
0.00679785
0.00463142
0.00406054
0.00631072
0.00692365
0.00714869
0.00323483
0.0068495
0.00122964
0.00257812
0.00590997
0.000809595
0.00674429
0.00286509
0.00184329
0.00191819
0.000544448
0.0044269
0.00105885
0.00192147
0.000738334
0.00377588
0.00378642
0.00121835
0.00690076
0.00418453
0.00183696
0.00204204
0.00697188
0.00533688
0.00632418
0.000249834
0.00725156
0.00620353
0.00351965
0.000263051
0.000736222
0.0070472
0.000167983
0.000335602
0.000540399
0.00100418
0.00079956
0.000777467
0.00614698
0.00234798
0.00194915
0.00745764
0.00121701
0.000461202
0.00215813
0.00615726
0.00452273
0.000517587
0.00612766
0.000176028
0.00737982
0.00208682
0.00706099
0.00136475
0.000431511
0.00693971
0.00130591
0.00273454
0.00630011
0.00245837
0.00740879
0.000787217
0.000317827
0.000275695
0.00131845
0.00159661
0.000859127
0.00658134
0.00665969
0.00662135
0.00445669
0.00744968
0.0024132
0.00741099
0.00102446
0.00366907
0.00546346
0.00698848
0.00289467
0.00396818
0.00569056
0.00392111
0.00745211
0.0040466
0.000662442
0.00579769
0.00157248
0.000726453
0.00656552
0.000228046
0.000346175
0.000912366
0.00290768
0.00185035
0.00129559
0.00661579
0.00223117
0.00083905
0.00409451
0.00192784
0.00701958
0.00183012
0.00607091
0.00357124
0.00362046
0.00044981
0.000884332
0.00455679
0.000718456
0.00177279
0.00157618
0.000630752
0.00334526
0.000870501
0.00628364
0.00237787
0.00273123
0.00657516
0.00106176
0.00333158
0.00480637
0.00741892
0.00223525
0.000686282
0.000701654
0.00664597
0.00435738
0.000869023
0.000758427
0.00201872
0.00558355
0.00317224
0.00134039
0.00233446
0.0017643
0.00731265
0.00136662
0.00438756
0.00661226
0.00356899
0.000310526
0.00590364
0.00183071
0.0031548
0.00409126
0.00282155
0.00282049
0.00745529
0.00584128
0.00202071
0.00147568
0.000651809
0.00675048
0.00100883
0.00211149
0.00632638
0.00188396
0.00190193
0.0013574
0.00289439
0.00652548
0.00719885
0.00592919