/*--------------------------------*- C++ -*----------------------------------*\
| =========                 |                                                 |
| \\      /  F ield         | OpenFOAM: The Open Source CFD Toolbox           |
|  \\    /   O peration     | Version:  2506                                  |
|   \\  /    A nd           | Website:  www.openfoam.com                      |
|    \\/     M anipulation  |                                                 |
\*---------------------------------------------------------------------------*/
FoamFile
{
    version     2.0;
    format      ascii;
    arch        "LSB;label=32;scalar=64";
    class       volScalarField;
    location    "0.00481384";
    object      omega;
}
// * * * * * * * * * * * * * * * * * * * * * * * * * * * * * * * * * * * * * //

dimensions      [0 0 -1 0 0 0 0];

internalField   nonuniform List<scalar> 
47425
(
52.0024
70.17
54.592
115.632
65.2178
60.185
69.9515
82.7544
55.8829
91.2386
126.428
51.4608
58.5389
59.9532
67.9262
94.575
53.2298
74.3849
692.051
82.0273
58.6214
51.2513
94.3566
53.5202
51.2548
52.2967
59.7876
585.091
56.8223
56.3283
56.0257
50.4056
57.0191
55.5193
51.4991
56.8418
50.5142
77.9461
69.3979
63.0041
73.8116
50.6073
51.0644
146.127
1365.05
109.618
76.448
67.2265
65.6068
51.7712
364.196
57.548
54.1963
194.518
114.939
101.045
50.0741
62.2491
63.4035
61.361
323.395
1395.87
302.799
56.314
60.4652
53.7258
59.3069
52.5358
349.778
54.79
59.0955
54.4361
53.4896
63.118
172.623
57.9736
360.573
70.3185
1066.51
74.7862
208.602
55.4057
52.4743
54.2195
50.8565
60.4042
51.6445
50.1114
52.542
100.469
51.7866
76.1906
51.7549
95.3492
147.636
164.372
50.8637
50.225
61.1029
80.9964
53.8543
85.8651
52.0591
92.3952
50.9144
53.2676
52.7957
55.6863
49.7463
52.1216
139.177
53.0742
54.3711
128.155
57.452
758.696
56.5231
150.891
83.7085
59.1749
53.3034
58.7655
54.4946
63.681
95.1607
55.4019
70.3874
52.6627
85.4101
51.6794
51.9319
103.637
106.009
125.319
53.4656
68.9159
56.6813
55.9833
59.1833
68.4406
69.7069
134.976
56.5207
56.1293
54.4657
56.0101
55.7152
53.9088
131.653
74.3496
54.9707
373.064
58.2549
602.937
53.7806
78.8101
55.3687
702.607
96.1327
67.6329
56.5749
50.7782
53.064
52.108
119.778
653.967
49.7169
183.924
91.8054
521.559
197.723
90.0227
63.775
53.2319
75.1851
72.4467
608.024
54.841
53.5279
49.6528
786.294
51.2386
54.9501
54.3777
51.3401
51.6151
51.4126
70.8901
121.044
51.7532
55.576
57.1092
72.9216
81.4087
49.9165
52.3977
68.295
57.4341
54.1147
55.4663
63.4178
111.667
50.7916
52.433
55.8388
133.078
54.3799
52.279
90.4643
65.9973
54.0991
56.6277
53.4128
58.5332
56.5698
58.2768
60.4262
77.587
55.3356
96.5287
77.9346
65.2449
51.998
67.8572
165.337
71.9907
50.8046
106.45
59.8902
62.4759
57.6545
65.1933
108.724
50.7115
138.732
71.3564
85.5491
120.518
74.6134
149.39
54.6077
55.8039
50.501
68.2673
52.6602
75.9856
51.3533
81.4922
50.0104
63.734
50.7743
70.34
53.112
57.0139
73.0311
51.2862
50.9363
114.225
59.9904
60.5033
125.897
53.6765
55.2004
116.999
62.1282
93.6771
50.1678
61.8169
53.9291
64.5207
59.7574
71.6518
82.0723
56.3256
73.0017
153.684
72.2878
142.076
79.3444
166.207
296.662
50.9776
313.372
126.413
61.1035
60.082
90.0401
55.0143
92.6473
57.3959
440.836
56.7525
56.4624
51.769
51.7888
90.9504
78.6984
58.8566
54.25
60.1642
93.4706
53.5693
91.8245
51.528
510.759
796.826
498.701
49.6333
50.2399
54.735
90.0608
499.31
67.6896
103.054
78.8799
77.9018
87.5175
124.376
57.5109
190.707
74.6695
51.0028
52.016
50.0975
86.5595
50.0348
61.3769
52.1394
51.3725
64.791
58.6861
289.278
55.8718
57.5572
129.34
52.2703
317.152
50.9762
49.6569
56.4878
56.3984
55.0285
50.4135
50.871
51.3479
58.4435
62.5049
54.2046
57.8318
88.697
55.3312
53.4663
56.0658
51.6894
53.1215
58.8519
70.8413
52.2359
53.492
84.6446
64.8224
57.4686
84.3927
68.539
54.7953
51.3828
134.419
57.3748
60.9531
54.5887
134.027
543.246
55.8379
51.4444
199.177
51.2899
52.0779
96.3032
79.0847
50.9565
65.9239
52.3941
50.0763
68.7953
89.4054
84.6506
75.3952
53.7092
55.404
71.2751
51.5661
55.1971
69.187
56.705
59.9428
51.9253
53.177
76.1267
65.9335
51.875
194.127
50.1654
75.6744
74.835
108.452
107.012
50.555
121.191
49.8793
86.5687
53.4489
1038.32
201.421
54.9493
59.7929
63.9337
65.5514
64.8854
71.4793
59.0285
83.4819
69.5494
53.0601
71.6173
55.3784
51.549
59.4519
58.3207
53.7384
109.172
1035.93
53.069
241.616
728.949
92.5454
804.568
464.428
52.115
57.0376
55.7276
56.559
447.272
93.8993
51.3515
51.3987
56.5715
57.1261
70.6902
62.8677
180.681
349.749
95.7889
66.4095
74.0363
54.4382
55.6691
53.1994
58.5253
52.7296
76.6939
76.7214
134.364
71.4291
52.7134
57.3068
52.94
82.5683
54.8361
56.705
63.8573
60.4567
63.5389
110.175
128.15
62.5471
87.6287
53.1953
163.595
104.026
67.716
52.3621
142.562
56.0134
59.1774
50.9794
60.5204
55.3366
57.7147
58.5585
110.919
54.7561
58.5198
53.1195
154.481
90.2468
52.9015
61.9824
51.8449
62.7288
50.0792
59.8984
50.629
60.3787
55.7934
101.587
56.6102
50.6791
50.0671
57.8376
66.0149
116.705
54.4357
51.912
51.9236
51.4975
51.3608
56.9886
74.1161
64.4439
57.9921
74.8877
103.129
299.072
62.3308
60.1619
56.6043
54.9323
79.8436
78.609
80.9469
55.2514
84.305
63.671
53.384
83.6997
53.7291
318.936
60.9311
58.9406
64.2379
79.6163
50.2059
54.7475
57.7048
52.0193
53.4532
53.2689
750.94
51.9194
151.742
52.5936
72.6548
58.243
61.4632
70.4768
69.4932
68.3198
51.258
253.402
51.3199
51.6797
53.7988
51.7507
50.7087
70.3144
62.2275
63.4072
53.9069
58.2161
50.5044
103.752
54.7336
55.6084
224.422
62.179
54.4132
132.062
214.064
50.432
757.312
766.778
53.9879
55.6912
51.1937
52.7554
87.2265
93.4521
165.918
57.2265
134.585
55.6749
69.1326
69.0803
86.9096
53.9753
168.01
57.9633
56.4561
66.4953
62.3705
57.6831
108.611
126.583
51.384
86.8009
134.184
63.9651
69.6112
68.2857
60.3544
52.5452
73.9797
83.1154
55.0403
114.477
106.636
52.2683
75.9748
54.1457
59.5667
63.9858
53.8786
52.2495
1358.36
53.875
62.448
459.554
512.004
49.5171
79.1724
1284.45
177.352
80.9192
84.2271
120.878
219.952
56.8866
49.6812
61.3416
65.6678
114.385
115.114
50.8414
120.76
57.5307
63.2828
53.2299
74.0768
55.2553
73.6934
442.243
117.529
59.612
81.9909
54.0403
110.595
53.7892
59.0826
72.4724
59.1245
55.1389
188.642
68.8262
56.3291
79.4833
192.759
480.497
116.811
85.3901
53.7151
73.7263
50.014
578.616
62.6254
169.367
74.609
65.1788
59.966
63.8858
63.5594
57.3915
78.988
66.4847
51.0988
206.844
55.9151
56.3018
59.9609
84.1264
585.017
59.5904
204.96
58.8747
54.4383
50.6171
147.862
57.3481
60.6738
49.9564
60.3983
59.1643
70.2519
61.3811
65.0129
53.5289
103.996
164.931
56.7826
86.6016
57.4771
96.4861
60.3546
50.0789
55.5561
58.0657
54.7682
58.6794
51.9024
248.884
82.6963
71.2549
55.4323
51.7645
77.9185
50.2718
121.326
54.2013
85.7955
87.4346
50.2692
65.0521
50.8883
51.5982
62.6316
51.5859
80.4872
51.8045
51.6468
59.404
134.363
50.0996
166.52
74.0207
102.752
406.438
73.2089
54.9154
59.6433
63.0162
130.985
357.271
225.054
56.7161
53.5497
57.0592
122.963
117.963
127.817
84.9005
52.986
52.9275
66.1731
118.107
56.2416
86.0808
228.074
59.9194
59.4429
155.759
105.855
109.56
53.9183
501.956
230.094
171.602
174.376
89.9946
124.952
50.5709
51.0335
61.7034
437.043
190.991
60.5716
69.8288
49.6709
201.497
399.982
50.2954
170.539
76.1257
50.2103
169.423
50.3316
50.5566
61.1965
68.4389
77.2541
50.4948
49.7172
52.6623
70.8668
69.2135
97.8723
79.4848
50.03
265.82
52.3861
50.2161
51.2338
207.038
81.594
119.446
64.5834
53.2351
58.8153
67.6111
876.853
61.9852
66.2979
74.7948
66.5297
54.1269
121.42
105.612
129.717
170.852
65.5383
509.955
55.6175
69.4249
51.1244
62.2457
52.9796
148.469
116.219
53.2458
205.875
99.2336
59.9396
106.178
60.3681
50.9762
67.1364
66.2667
66.3237
72.3573
402.09
60.0005
60.9703
183.401
220.914
545.578
218.943
90.9523
165.45
55.7809
50.5524
62.736
70.3374
66.793
80.1796
84.5459
66.1842
55.821
53.2696
111.469
94.1442
80.5774
56.1089
1440.43
66.3235
53.1393
68.8921
93.0632
69.6546
206.043
94.9886
66.8617
98.3971
94.5475
55.1246
52.1067
56.1382
97.7945
152.966
85.7262
61.473
83.9236
50.1564
109.11
110.097
89.7201
73.4809
50.7676
67.3801
132.925
97.4688
67.8228
58.324
106.681
79.9912
71.3283
61.8718
147.475
59.5021
55.4866
57.9146
85.5168
52.1167
146.199
53.5567
226.162
305.355
59.9973
64.7894
85.5755
60.8893
67.723
102.423
385.329
63.381
389.528
54.2688
64.3514
60.3765
91.8601
65.7951
112.643
235.753
234.197
56.1379
267.523
65.6136
60.103
57.8299
60.0383
53.8806
67.7429
70.464
61.919
56.9894
50.5324
62.301
188.686
592.975
117.437
110.961
454.785
189.945
94.7496
69.2563
56.1484
85.257
144.936
189.022
211.631
56.8914
57.2124
57.2123
59.6255
64.8569
102.656
64.4896
55.8621
87.5727
52.1301
70.5525
50.5951
54.1626
102.346
60.9203
112.459
59.2408
58.0428
163.207
51.4984
63.6733
64.227
57.7163
68.4227
92.6969
69.9645
63.9335
53.9975
107.516
185.147
105.046
70.5346
1465.14
777.959
78.8864
441.396
108.856
57.1722
1487.31
227.435
59.753
71.4513
101.314
88.7614
269.332
119.508
55.5127
117.106
64.1141
52.4447
159.142
753.479
79.8518
1181.47
123.487
188.922
1584.19
51.5687
80.5797
117.795
92.586
97.8042
57.9312
60.4141
671.829
51.4883
92.7921
57.249
128.769
50.0803
53.1297
75.025
75.3521
86.9003
67.3961
61.6839
125.021
55.7961
49.9739
64.9504
82.0014
67.7928
59.3568
842.139
342.51
97.3574
88.8325
60.9068
71.261
153.291
65.4724
101.123
77.8352
56.3262
78.7817
73.9248
1023.88
61.5497
58.3617
55.8722
57.6614
60.9969
69.1628
114.279
58.4585
56.3352
54.442
56.6736
164.176
1338.3
55.2331
194.454
66.474
57.5232
95.3395
53.2265
66.6486
64.11
63.8673
200.014
56.517
321.624
50.6642
709.633
747.204
93.4707
200.774
52.5986
66.6296
106.75
51.6863
170.993
1653.77
108.379
215.29
161.677
284.11
91.7655
628.838
352.298
83.3014
51.1701
2385.07
64.7304
55.1683
62.1275
238.112
1203.38
58.7465
58.3368
203.082
73.3258
229.375
579.414
100.249
120.104
703.478
108.498
56.2376
417.226
55.2641
829.847
970.256
51.033
59.41
71.516
55.744
126.061
74.7856
53.1545
126.719
91.3127
104.068
57.7481
55.5686
104.122
52.7867
647.759
60.5051
84.023
66.0278
52.8703
470.284
60.3126
118.151
128.098
79.0372
68.8481
241.617
181.784
126.482
55.8083
1281.94
159.547
72.4548
71.8065
118.073
62.3984
75.7598
57.0408
224.39
366.89
71.9406
549.071
150.14
89.0572
113.72
130.957
104.777
541.089
62.4677
50.6019
118.987
74.8069
149.786
81.0865
488.064
53.7008
56.9279
64.2807
814.554
62.5566
334.464
66.3578
56.4366
53.9027
67.5306
65.8329
136.134
96.4457
59.5844
68.4201
86.7889
68.4232
792.64
79.053
65.1526
646.683
178.846
123.49
71.0537
67.2572
62.4678
579.171
66.8433
604.833
66.4681
57.5409
64.1013
58.5903
95.8323
58.1927
71.1293
73.5576
65.3068
54.341
67.2283
66.3075
53.2247
66.8612
203.077
158.192
66.6296
53.3462
654.137
206.087
69.0382
176.157
161.679
52.076
98.0464
511.218
227.498
57.8574
64.5907
66.3439
71.9849
107.55
52.1981
434.732
75.2856
54.0259
69.3428
111.109
70.9986
130.767
68.0188
157.652
49.7495
317.566
111.261
553.297
146.888
61.1029
122.173
72.0656
62.1521
65.1356
68.264
67.1755
572.309
61.4219
59.0762
491.737
50.3899
62.5381
310.621
63.956
73.5514
265.503
128.604
76.9518
61.937
762.241
82.2525
211.173
83.8892
70.5185
61.5622
92.3777
159.343
287.896
57.644
81.1411
58.4567
81.0401
77.7098
132.249
263.871
96.6566
51.2292
63.1131
53.6876
57.6933
88.529
54.3319
59.3707
124.369
83.5749
53.6872
133.899
66.4523
66.4528
53.9273
133.495
63.4918
58.2089
50.7472
106.998
81.9564
56.2725
97.7654
403.158
80.3546
54.7636
52.5844
51.4806
125.086
53.1214
52.6544
503.638
265.664
176.9
54.8744
382.421
139.833
50.3628
759.16
110.768
761.194
97.7355
64.1178
85.7269
69.0652
50.1382
86.3816
84.5055
94.4787
101.078
60.1227
107.453
117.995
74.7134
67.5022
263.86
70.2323
1299.19
71.9005
456.103
49.9746
122.535
188.047
52.9208
68.9763
168.046
50.2761
198.476
106.315
836.247
61.948
100.971
52.4214
108.996
64.0094
52.6893
325.101
56.2176
144.699
53.7376
363.451
518.609
72.1191
49.9365
271.21
74.6244
271.615
55.3757
98.9015
61.3968
61.7669
55.4561
58.8272
57.7394
115.872
58.4927
177.445
88.9805
57.0286
52.6552
130.188
214.831
81.7648
96.0376
51.4927
57.621
122.986
85.1413
57.9007
51.2689
156.318
114.698
58.6639
58.7032
59.5049
71.5755
87.7137
71.1005
118.29
62.8775
93.8277
64.6675
66.9256
51.5355
58.8789
50.663
175.767
168.396
200.063
105.26
69.6181
58.2242
66.7978
53.6163
52.2258
58.1199
354.306
129.496
548.445
377.646
503.435
56.2145
58.7355
54.3935
53.8378
51.9478
209.011
70.3375
51.0287
72.2857
95.9515
59.314
91.7569
55.9016
148.316
61.9683
104.546
51.1349
65.6425
74.6214
93.7449
60.8356
120.06
73.4241
70.2546
60.4604
59.292
77.6205
130.369
162.21
51.5878
86.138
76.8105
99.6571
169.597
50.9882
50.5286
86.1301
56.4286
51.7305
78.6533
51.2104
51.3119
60.7772
72.0333
96.7552
65.5662
75.5999
55.8655
57.7156
455.602
73.8717
87.8439
57.0993
52.8968
91.6508
87.6055
716.289
110.822
89.9096
49.8256
53.4626
74.1127
52.5376
51.4323
109.797
87.6448
50.8213
49.9957
69.1768
91.563
360.831
123.056
78.9312
95.7779
77.4358
109.072
69.6857
152.93
62.6352
65.3826
664.957
54.903
70.6568
92.6136
89.3552
54.0313
795.201
63.0956
98.2157
56.782
111.419
62.6432
829.398
811.243
60.8084
51.2152
51.4297
93.2618
98.8087
54.8772
946.238
199.279
54.4793
143.928
154.531
57.0953
51.1528
65.1175
52.1876
58.1929
55.8715
63.1298
58.614
78.767
70.0689
53.5799
67.2371
60.2801
59.2477
92.7209
68.4158
63.5926
81.124
134.024
97.2208
105.719
133.955
62.5389
134.448
128.339
60.6104
461.725
98.871
132.198
60.4501
95.8501
94.3539
93.2397
133.409
51.2699
50.6354
66.0622
60.958
112.51
70.0171
237.761
420.313
54.3277
132.328
51.164
51.1822
81.0437
56.9676
61.6511
51.1381
50.9937
222.323
391.489
49.911
52.3397
59.5625
454.945
58.5692
51.8015
57.0749
105.016
717.625
56.4448
219.3
68.1476
97.3912
269.811
72.8376
51.0162
50.4461
69.1482
755.675
52.4104
87.3272
74.8909
51.6695
492.956
887.816
907.619
215.709
141.407
54.9161
56.8676
65.4418
58.6169
370.655
281.998
407.259
482.542
177.649
65.551
54.5308
675.778
53.6528
704.262
96.6112
694.148
82.5327
92.137
53.103
60.0646
170.264
170.963
51.2189
61.8653
78.7291
78.42
69.5324
76.3739
58.0493
694.578
592.234
57.6494
102.85
459.892
97.8858
53.3341
51.7331
335.716
202.762
145.996
55.8927
652.472
51.5501
441.899
1244.59
541.57
83.7223
54.2271
56.9237
49.329
61.1139
73.7891
91.2118
56.8835
61.8461
53.2942
79.9321
55.3521
52.7633
51.5635
75.4875
51.6942
50.405
79.1138
55.632
76.0997
93.4076
156.495
92.5839
51.6745
56.9379
96.3612
51.2903
84.5686
85.9306
1058.56
68.2924
257.429
66.0907
97.4177
67.9928
72.4753
54.7614
51.1112
62.6933
80.9928
51.7707
79.7839
88.2846
68.8812
57.7694
61.4629
51.3584
55.6823
113.652
58.4737
101.156
195.622
74.853
72.8474
60.5442
99.5907
76.6327
91.4797
55.8326
68.1516
92.287
98.223
125.861
65.2288
109.924
798.624
244.559
186.17
81.3701
64.8294
116.145
64.7409
54.4438
96.5223
79.4159
75.2068
62.548
56.4734
164.228
97.1709
117.251
79.0427
200.063
63.2707
52.0734
52.0559
59.7611
57.3564
84.0556
87.2229
54.9174
81.4693
112.239
67.4224
681.096
60.7115
51.4004
100.645
247.989
72.8071
155.959
50.0544
134.381
69.7102
64.8079
51.4516
403.837
83.8501
60.0641
111.859
53.0019
60.9576
117.207
723.616
649.638
53.0109
61.7463
956.121
54.6682
68.7849
64.0824
150.506
229.293
52.1715
78.5407
819.841
93.9092
55.7204
54.4324
85.7837
63.385
70.8097
354.623
55.7318
84.502
529.412
128.789
383.959
75.6806
265.405
54.781
820.46
107.53
107.475
259.177
69.1138
60.3603
232.31
219.231
269.028
53.0369
51.4922
429.682
58.6453
87.4498
296.405
60.9176
58.4611
57.071
63.7972
65.8675
51.1977
671.36
407.354
80.1982
158.355
164.457
57.7065
79.4915
59.3351
102.306
55.4021
52.852
57.8158
59.5303
367.903
385.585
52.2343
61.2664
52.9599
68.5508
61.4884
106.834
85.1517
61.2149
409.601
64.6729
66.1346
177.338
109.507
244.444
56.7458
77.9327
152.42
137.747
90.7901
67.1687
133.505
106.569
52.876
645.876
50.4157
50.8788
59.4753
87.9488
73.633
90.8068
75.3227
90.9658
128.392
69.21
111.667
103.182
51.1772
60.04
51.1407
87.614
1104.89
70.7277
261.293
63.5883
56.6932
108.4
61.6999
58.7592
56.7307
65.0088
347.682
74.432
60.6828
237.707
76.0878
62.4193
1643.9
264.106
53.4682
76.1541
63.9238
64.1238
183.495
339.576
145.311
542.739
65.4053
54.2459
120.362
57.0232
54.8913
90.251
177.88
233.07
50.4193
101.189
60.2665
144.949
58.7721
144.568
75.8094
83.6974
168.839
57.9385
69.7309
599.975
50.678
54.2651
119.182
57.8102
130.84
77.7817
60.8372
852.805
383.874
656.763
180.164
121.45
66.8843
51.3238
54.2055
81.5526
51.8122
83.9863
148.185
55.0469
71.7382
443.061
55.3896
89.1614
54.6543
108.058
59.3698
610.857
98.8884
70.5582
56.7115
134.188
148.204
55.2744
62.3112
88.6461
50.6272
165.067
55.5991
107.247
57.0339
55.8544
93.3314
57.9601
130.973
70.3442
54.095
66.6416
54.4511
70.9158
238.434
156.918
117.886
92.1853
413.314
88.7116
65.287
744.773
225.126
101.817
60.0053
72.3521
83.9689
194.167
64.1143
375.418
62.5681
60.1131
70.2262
226.327
67.726
398.439
65.6845
402.2
68.9667
80.2235
163.008
163.265
167.199
61.9287
377.125
114.586
134.352
55.6052
214.108
55.9583
59.5406
90.5664
72.8034
276.867
76.2247
58.011
163.856
63.7433
87.353
114.101
55.2076
57.0224
70.2316
445.911
61.633
114.992
71.5503
102.348
55.9521
53.1874
95.3325
57.6865
146.838
55.4634
100.792
312.682
57.0543
56.8515
57.4446
61.2598
499.693
138.939
147.598
65.4436
58.2702
1003.46
1224.6
51.8555
130.843
52.8002
54.6108
195.495
62.8195
331.882
59.3426
55.3613
76.3177
55.8551
64.0513
54.397
62.8827
138.538
79.4079
137.189
118.675
67.5404
65.121
53.2148
144.05
269.606
569.146
81.9868
157.426
188.512
282.621
76.6615
346.846
102.483
55.1866
128.963
89.518
274.566
64.3232
88.0842
98.6237
63.3683
893.007
109.477
204.74
108.946
53.9843
90.9789
55.0906
54.64
53.2275
62.9137
67.6084
91.097
50.7574
101.468
159.68
110.459
55.7471
130.738
57.8807
62.8035
50.1826
70.0392
76.1839
145.759
74.2305
99.4689
63.7834
59.8727
74.2223
51.8513
63.3397
59.4748
58.1323
58.4883
100.162
63.9934
66.2092
129.246
72.5216
61.7459
75.0888
67.6862
93.4496
129.72
183.218
49.8513
60.9152
353.656
157.702
157.399
55.0289
157.943
70.0495
84.5047
53.5376
56.3813
56.7846
66.3064
67.8222
57.1261
551.38
52.715
95.0092
53.5461
51.2023
103.12
75.5447
57.6513
107.911
57.2063
86.7569
61.0703
78.3558
51.5579
111.739
51.0103
53.8627
82.8875
62.3245
133.607
92.282
55.9756
78.1141
79.192
74.9076
96.0099
523.693
55.2323
69.055
132.286
64.1212
60.4196
128.337
56.7586
50.6798
109.459
134.996
127.931
86.9146
114.718
112.833
299.807
54.1813
183.069
66.1085
67.0407
55.8601
60.14
57.0577
62.5088
76.1734
165.652
60.1967
448.386
73.4641
52.9145
265.402
133.007
1607.88
203.001
52.3317
73.0161
93.7773
123.38
429.197
68.0423
204.221
85.7549
424.889
64.3308
131.692
70.616
211.065
137.801
128.193
172.683
460.346
720.822
1272.84
169.636
154.006
169.816
237.141
275.041
58.2522
103.179
186.977
82.8157
169.053
63.2743
103.806
484.286
128.568
103.031
65.711
52.6571
91.1003
51.4223
147.038
131.113
86.111
156.192
60.316
142.116
59.9324
58.4166
117.077
64.9925
220.106
53.9993
69.3095
671.969
55.7357
55.8002
63.9484
54.0197
203.237
67.6588
63.6049
55.0729
146.609
50.8562
67.0118
57.0539
65.9501
77.9275
72.364
51.864
55.3437
287.753
55.6533
62.5432
56.5786
56.7155
53.4346
55.1838
67.6516
88.5123
50.5991
62.6954
80.2879
63.9738
157.907
79.8717
59.3486
62.4458
72.8936
141.904
110.726
82.6007
60.2571
120.07
80.4167
65.5007
59.6162
80.0451
63.8951
85.7771
67.4716
132.427
70.5071
60.9435
99.3808
76.742
429.659
983.058
131.609
63.6098
70.0275
139.285
67.5884
54.4277
51.8215
55.4572
55.4642
69.8505
52.1425
52.6991
57.522
79.6199
53.9228
54.1298
53.7294
61.8421
68.8659
62.9238
107.829
54.6882
62.3512
202.669
58.8798
51.5054
62.8837
389.936
1764.11
102.262
85.0248
56.7235
61.4155
59.4526
163.909
74.5591
61.203
93.1593
56.4709
70.4617
61.1744
57.7141
101.942
60.1355
65.4328
202.011
74.3113
66.6028
1585.26
77.9367
202.208
66.1496
67.6413
88.7471
116.853
53.758
59.1922
306.148
54.3362
204.885
438.379
111.767
128.598
527.646
73.9496
61.242
85.8404
55.2185
124.063
191.736
87.5388
78.3257
61.9149
106.852
761.523
526.862
87.5765
56.7708
101.188
57.0249
145.419
131.276
408.436
58.3145
51.4566
468.973
56.5782
185.566
67.9465
92.1949
485.125
220.997
53.7843
52.128
479.069
52.0358
51.3282
53.7557
56.1921
85.4464
53.5391
117.496
59.8761
494.75
97.2427
59.402
58.0083
614.896
76.1817
443.301
58.5334
59.9051
74.8467
80.707
55.0956
59.3873
53.8966
400.922
78.2055
80.3696
299.556
98.0247
56.9112
247.439
63.0396
113.181
63.5229
54.8883
95.5652
67.3438
51.6239
236.783
77.3427
62.8316
51.905
66.5741
59.8322
59.78
57.1418
54.6296
159.919
58.3048
58.6686
72.7299
82.4659
59.3627
56.3329
56.5054
93.783
50.0521
55.2072
53.578
117.522
56.3907
142.57
150.842
65.1681
413.172
57.7181
68.41
159.107
197.847
593.748
76.0105
123.419
68.0889
461.846
96.2405
104.365
95.8781
56.4641
79.1117
212.287
95.4666
55.0472
55.2974
53.2694
441.815
52.768
64.157
66.8779
2141.93
430.024
55.4142
1209.49
375.075
287.419
90.8531
948.346
414.077
63.1384
166.629
93.3066
51.1608
89.3663
879.076
71.4541
51.6973
56.4681
429.228
64.3063
860.391
52.4376
130.465
55.395
128.954
291.665
56.5849
119.279
102.081
54.4991
104.795
50.9162
128.38
1279.03
1362.67
288.231
87.4326
119.377
52.6429
54.204
52.0801
86.3101
50.7685
67.3669
52.2404
77.1818
91.2958
55.7802
55.5879
76.3333
56.0112
67.3854
98.8984
52.2784
95.3256
120.901
61.3763
61.3634
681.837
58.5421
660.045
444.318
132.419
133.217
69.1677
103.645
58.7643
64.2943
147.106
52.8588
69.5214
54.6893
62.4474
62.1461
107.529
72.5387
165.934
114.723
60.757
267.673
63.1343
130.756
141.617
70.5114
327.823
62.1841
61.8325
60.7163
58.6092
74.2097
58.1037
72.6325
51.5056
173.392
171.055
450.648
58.4446
67.2473
79.961
417.984
67.5934
69.1426
120.873
71.6055
163.548
67.6737
52.6234
72.1093
86.8851
58.7622
83.468
1603.78
57.0955
62.1628
121.746
56.5514
112.779
137.858
50.9637
58.9997
66.8863
170.016
394.686
56.4042
119.077
71.1178
62.3113
64.7547
187.915
75.3149
105.395
59.3985
53.0692
55.3069
345.429
59.2439
93.9834
70.9681
61.4045
58.0738
74.4368
51.7599
130.87
56.5607
64.8946
166.526
105.482
59.8979
165.384
87.0817
71.1025
63.2191
119.232
50.9814
75.6465
146.685
109.182
57.0701
51.6877
69.705
50.7049
52.9746
73.2277
50.9276
108.931
79.905
52.2921
53.3965
105.173
57.0572
86.7629
54.4939
603.56
51.275
84.9027
65.9149
58.0167
581.824
148.765
499.705
51.4536
56.1468
467.674
609.709
94.4378
86.8669
125.357
129.46
62.3512
57.7854
70.6638
149.203
76.5609
126.982
57.5494
135.718
88.6018
99.7776
53.166
91.5149
51.8962
58.4541
314.795
68.0537
64.8914
51.7976
108.858
81.9285
80.7909
112.827
56.8764
54.2056
58.1202
82.1969
69.637
72.8198
93.4069
63.3073
58.9136
52.4491
56.3281
63.0946
52.1536
68.6085
69.4876
55.0621
2059.36
70.0609
58.4736
71.9715
51.9632
85.1053
133.256
59.2708
74.128
75.6404
330.59
68.1296
59.965
88.4322
1345.81
96.7359
127.745
123.947
67.6724
50.4623
60.0167
67.1751
658.721
90.6319
73.0483
59.2115
54.5197
72.6979
55.437
289.787
97.1399
113.712
68.706
64.2198
85.8401
80.7249
69.3564
68.4458
100.098
278.892
56.0575
137.753
133.296
105.587
60.3677
80.3219
58.0098
176.726
61.4782
58.0609
73.3583
50.4882
56.2945
75.4238
51.9089
59.9161
51.5605
70.0899
53.8181
69.3433
63.5501
121.318
70.1975
110.211
54.8218
457.868
96.0493
105.119
70.4772
55.0251
104.55
61.9082
60.5143
56.7758
55.4411
57.305
109.812
51.1602
60.8493
51.4216
142.034
78.7707
87.1872
458.243
91.4005
136.187
69.4647
67.5665
53.2318
178.475
84.4678
56.0611
52.0427
98.0714
67.24
59.0168
71.3555
867.84
75.5465
60.0079
60.456
328.882
711.738
67.4891
364.278
383.289
139.133
166.961
126.416
244.664
71.1073
180.323
590.028
61.6371
57.5979
59.6389
78.403
276.985
58.6021
56.3499
67.229
150.969
154.923
651.653
89.8579
437.911
101.773
55.9617
82.5019
55.3208
59.7566
516.754
51.1985
133.593
146.661
54.7019
138.943
1870.11
56.1647
68.8536
66.3157
360.448
155.526
97.9653
614.97
1244.38
75.7554
213.265
99.6105
130.882
77.3348
54.9711
153.864
206.358
339.594
64.1452
111.038
114.719
84.2426
146.18
53.7804
58.9126
597.196
81.1583
454.43
51.3477
162.677
57.4558
445.784
63.1817
67.0602
151.907
392.432
80.5428
79.0404
432.371
75.3223
534.704
75.041
79.2227
182.835
54.4555
160.168
61.8999
54.0651
53.0247
62.7185
319.758
389.294
80.8156
61.6099
75.729
75.4334
64.1234
461.956
68.9301
63.1727
57.8752
64.7629
155.044
569.127
55.9355
74.5247
66.8713
148.551
89.3793
545.393
522.103
282.791
105.926
64.2546
154.026
383.647
95.8437
59.3096
61.4818
53.041
639.231
97.3957
213.548
1463.23
206.387
80.1704
76.2992
555.877
237.684
76.6698
90.7359
89.398
285.836
63.4759
53.8885
91.1399
61.4688
544.7
242.159
156.004
56.1629
86.8074
215.158
139.918
96.6562
639.076
242.63
565.337
138.758
133.607
227.859
107.178
59.9625
87.3195
59.0774
54.3079
68.0943
68.0448
99.8611
70.1319
74.3983
178.9
178.855
121.334
53.6887
155.813
69.5246
64.0368
129.474
292.284
930.051
577.592
67.7151
91.5723
61.4363
64.8519
265.853
126.034
261.612
65.4611
440.962
157.136
122.099
55.3194
51.9226
57.968
70.9802
368.027
71.7936
61.1175
96.7013
58.0172
464.968
107.986
81.1338
125.956
65.406
53.2671
50.5957
52.063
101.89
62.9879
78.0788
115.177
57.4081
55.7713
128.534
412.366
315.272
52.6972
102.813
56.8684
70.1952
57.7945
520.401
58.7573
63.904
63.8091
69.0974
54.8813
55.3609
91.6043
53.5828
60.8985
60.2157
192.911
52.6891
63.9061
63.1729
229.367
235.328
72.6906
319.907
601.05
59.6346
58.4491
134.771
62.6022
62.7034
69.9464
69.3379
72.9122
95.9973
65.0077
78.3323
780.624
328.455
82.9506
420.026
56.8323
55.6255
66.9075
50.8939
54.992
69.7577
53.83
63.9051
129.513
62.6684
402.132
54.3915
274.917
59.0106
50.6948
479.044
83.5032
74.3977
452.483
76.224
550.94
64.8491
285.411
51.2207
150.955
89.5453
116.821
53.0547
80.8381
62.1787
423.898
58.7542
53.7739
51.7449
75.5049
68.6216
56.6322
62.6715
92.9547
54.4372
94.7274
53.64
57.7072
106.777
78.0956
84.5565
57.6288
61.4931
53.8986
53.4112
60.6822
53.3086
52.2741
72.0619
53.346
157.498
109.255
58.8185
99.2998
89.2135
60.1151
73.2363
56.5601
117.165
134.206
58.6163
55.3731
85.7282
71.1775
158.692
171.391
384.124
61.2876
56.1009
57.8994
55.5643
65.4448
596.843
181.125
63.8267
64.0746
58.7862
54.1232
49.9329
68.3108
119.453
88.4848
361.259
76.3222
61.7825
67.8401
64.821
51.7224
254.443
69.9802
56.0642
116.823
59.4366
665.97
70.0509
51.8762
60.8314
71.8051
104.054
511.835
55.67
268.465
59.603
569.085
68.1158
442.368
60.9044
53.2928
66.3513
106.031
59.6956
57.0169
84.4487
50.2192
50.5862
63.5761
61.3906
130.717
61.7578
649.944
70.8383
55.1575
95.5606
172.431
58.058
251.109
729.293
680.012
553.338
181.427
61.8183
342.514
325.496
64.7405
63.2071
58.4701
701.992
93.0793
86.3585
50.1137
61.1319
80.0595
292.045
134.288
75.6944
52.0678
63.7128
132.823
56.5716
54.6134
234.897
299.984
194.311
569.483
63.4019
50.8963
63.038
60.4749
905.526
55.2745
52.3158
53.0866
255.425
50.2257
57.6658
82.0043
88.6355
52.6563
67.2825
53.1681
112.665
58.049
125.633
59.143
139.027
85.6742
115.308
124.909
116.249
146.796
57.8546
549.945
86.2853
199.931
169.589
165.628
75.1601
61.498
152.548
74.2188
50.6938
58.4345
50.5648
90.1917
493.827
118.184
52.6381
80.701
60.9989
49.6018
85.9441
63.4076
137.268
73.3917
60.767
98.9772
59.1421
65.1487
67.1271
200.344
67.4272
88.7233
77.1442
108.866
379.578
171.307
188.297
656.253
125.483
60.3066
60.6313
51.3009
108.428
598.543
73.4023
746.804
87.7983
56.6937
120.174
410.247
60.2826
58.9806
58.6466
61.3819
52.8683
83.6067
57.0433
69.6173
62.7895
51.7698
100.671
50.5777
102.107
57.6972
61.1057
317.474
60.4614
118.138
61.1467
53.469
53.5342
78.9678
123.884
96.0316
85.529
60.1575
56.8968
62.3243
60.1
229.427
55.8346
60.6404
103.753
135.451
230.718
55.5594
78.9765
98.6209
130.839
58.197
111.009
55.2434
105.398
68.6469
55.3328
117.289
69.1264
51.2833
133.633
63.113
52.9116
55.0532
133.467
82.1163
82.0909
59.3421
110.457
82.5486
56.5797
87.351
274.211
60.8517
56.6292
91.9974
467.919
58.5829
67.2859
115.361
60.2586
119.88
54.1575
378.361
76.681
63.9552
72.3288
53.3051
103.094
54.0981
388.641
51.0239
62.7663
337.412
66.4312
97.7073
180.898
66.1246
55.2599
217.165
54.0696
52.0002
66.2599
91.5508
62.1733
177.503
55.2407
364.778
88.5478
51.2643
81.0307
121.264
557.634
178.943
71.6929
52.3913
101.439
275.08
411.829
97.466
125.501
783.717
173.389
84.4911
132.321
77.6026
95.6134
61.5142
468.963
797.194
153.514
152.828
97.5174
635.245
409.837
439.259
286.989
133.048
58.8289
57.2666
153.013
73.8905
449.194
300.755
63.1254
317.233
109.667
50.9354
53.7486
57.0099
109.991
77.6123
91.788
73.4175
112.051
182.753
729.747
57.3957
112.197
565.163
479.178
182.092
160.61
66.2338
669.799
51.8008
65.0118
274.696
149.591
53.9841
231.527
250.932
63.9168
81.0352
62.804
73.47
51.4567
82.6718
154.884
72.2263
428.721
49.8999
58.4752
78.5321
349.988
140.702
122.123
158.245
89.5142
122.69
62.6027
216.206
93.0782
64.6134
88.3854
716.466
100.453
59.1556
108.721
160.911
65.908
65.6764
114.281
55.322
57.4366
71.8699
80.2043
66.208
60.003
69.7048
55.4153
51.2513
53.5542
93.393
57.3704
161.202
412.854
517.016
63.8767
71.1108
67.8408
61.501
93.0412
496.929
63.866
146.006
67.1724
70.4018
56.6028
60.9817
51.5864
149.434
50.1781
56.8473
168.565
61.1202
59.1503
58.4764
53.9729
212.082
65.7265
420.933
187.624
171.267
448.662
140.307
226.11
63.7895
65.2839
132.668
64.9961
205.504
65.738
75.9677
69.0309
64.2674
64.0122
56.0257
63.5807
59.9306
52.2311
81.427
170.868
51.2241
724.162
114.533
174.979
92.4922
75.524
1418.01
58.2864
266.805
1146.24
60.4591
160.399
70.0975
70.9719
574.067
791.12
179.903
139.237
60.7717
128.466
100.154
406.885
56.7925
59.025
131.688
845.966
59.0156
65.6316
58.3986
67.7417
385.704
61.8201
534.06
273.238
489.702
539.497
59.8153
71.4923
67.6428
510.968
351.123
248.401
104.748
57.7588
207.673
61.6535
160.276
64.1965
61.0322
54.5085
64.5909
60.5174
1673.15
60.7192
76.2291
66.9176
56.682
63.0971
738.712
63.2203
146.915
268.785
62.8091
72.1099
114.661
50.8665
56.1924
734.54
471.917
106.443
130.573
75.1851
57.662
188.017
61.027
78.6701
71.8595
56.784
167.86
83.4405
96.5801
300.643
61.1449
63.028
66.2877
61.2563
59.0299
102.218
63.1635
288.604
58.383
133.167
63.4463
90.4153
64.4002
63.2283
332.542
116.948
158.56
52.4876
1576.88
52.8222
51.0944
58.8195
65.5964
65.1368
384.719
66.044
52.9353
460.236
69.7212
56.8532
61.4847
647.454
52.4239
78.8606
713.716
60.9826
651.787
351.449
66.2232
63.2352
127.386
135.962
567.089
70.7531
248.305
64.1478
56.14
131.235
67.3462
64.1229
57.596
323.138
189.531