/*--------------------------------*- C++ -*----------------------------------*\
| =========                 |                                                 |
| \\      /  F ield         | OpenFOAM: The Open Source CFD Toolbox           |
|  \\    /   O peration     | Version:  2506                                  |
|   \\  /    A nd           | Website:  www.openfoam.com                      |
|    \\/     M anipulation  |                                                 |
\*---------------------------------------------------------------------------*/
FoamFile
{
    version     2.0;
    format      ascii;
    arch        "LSB;label=32;scalar=64";
    class       volScalarField;
    location    "0.00481384";
    object      p;
}
// * * * * * * * * * * * * * * * * * * * * * * * * * * * * * * * * * * * * * //

dimensions      [0 2 -2 0 0 0 0];

internalField   nonuniform List<scalar> 
47425
(
120.437
119.801
4.57685
175.12
163.241
5.85115
163.891
2.88602
283.453
161.688
2.08106
242.332
165.224
2.29205
170.815
227.582
6.01793
207.923
73.3096
155.078
184.464
221.283
4.18034
84.169
222.732
78.9848
6.75619
146.273
5.98177
26.5655
202.664
238.476
267.068
34.5196
7.05863
4.36255
213.839
271.404
191.259
113.987
111.469
149.607
154.029
286.263
163.449
99.8302
11.7993
263.52
105.649
44.3005
234.656
163.623
23.4562
159.054
90.3962
200.615
127.02
7.70745
161.863
9.64855
157.883
159.618
148.161
201.077
270.295
179.181
251.631
157.068
154.01
202.814
178.612
71.2404
176.364
185.137
155.934
291.929
148.776
31.7647
116.494
162.855
153.344
202.311
206.133
256.896
120.161
129.969
162.436
113.478
162.845
160.456
209.24
171.761
47.1613
130.636
137.671
130.321
35.1354
140.914
123.001
235.043
259.257
207.363
202.749
227.331
203.894
161.148
126.801
124.213
123.528
232.535
145.751
236.556
159.477
144.533
162.64
220.673
162.709
235.229
191.419
164.501
142.619
272.252
257.861
172.532
231.526
162.665
127.951
278.294
99.0976
61.4315
204.903
146.133
238.287
192.373
148.845
173.084
179.476
162.801
222.062
169.168
258.342
163.358
186.932
161.92
209.869
280.607
161.399
261.52
189.472
256.115
161.499
228.077
267.506
180.011
203.12
99.8496
184.415
62.3774
112.389
20.1148
167.328
82.9572
64.6232
204.864
147.09
104.269
258.966
153.315
74.5198
141.077
154.793
53.752
258.958
201.653
118.598
192.283
217.461
2.67751
10.7818
36.4103
211.379
104.103
8.60407
21.57
30.6244
260.287
210.001
233.749
33.2852
118.974
252.792
28.7428
165.429
270.714
43.1946
171.105
262.328
82.3763
170.309
144.294
37.7394
155.988
128.02
168.516
189.277
172.703
10.8494
170.093
242.452
271.969
129.954
169.427
248.06
92.5073
156.558
169.564
165.238
159.82
203.66
245.112
162.835
165.18
157.822
178.546
175.867
163.062
46.3468
166.544
168.696
168.214
172.904
15.1458
148.797
276.167
13.3931
218.492
161.13
40.0736
161.904
12.3656
15.7846
42.1425
46.4261
168.024
192.473
283.351
130.846
276.905
71.6269
6.17937
89.8545
163.46
7.8684
275.807
27.2658
14.1365
215.649
29.763
184.928
273.022
27.7885
273.178
206.824
216.152
164.502
139.807
11.6376
165.268
23.9362
209.636
215.669
162.083
161.234
211.213
162.693
223.482
162.535
209.534
161.776
217.691
160.839
119.783
157.754
54.0105
60.9765
171.653
56.9026
3.07647
117.275
163.603
240.961
201.138
283.046
12.6336
4.90932
181.96
171.123
192.954
231.148
168.754
127
83.4254
20.0628
8.1117
100.832
76.781
222.179
38.0516
72.0836
200.614
196.802
236.98
5.55502
2.512
165.317
130.864
45.1866
42.0077
9.65339
146.298
165.909
223.831
228.015
3.20036
125.178
3.71684
218.789
105.93
44.5505
14.9008
165.142
129.035
188.528
11.5427
258.401
6.59225
123.172
238.513
58.1575
73.3655
205.791
206.401
107.155
217.119
49.5199
1.17083
9.7525
203.276
3.70328
29.1372
209.428
192.117
219.421
219.24
220.472
175.121
45.2212
206.876
214.087
269.423
186.423
165.348
80.326
3.34564
196.266
151.723
10.0424
268.065
229.014
193.034
4.28748
153.371
158.25
192.633
289.291
194.286
154.6
241.331
277.626
214.319
265.034
194.094
93.6639
269.12
93.8741
274.348
10.3299
211.409
256.965
9.41432
186.81
187.77
7.60642
189.193
37.9324
188.545
237.41
10.294
165.804
30.7148
162.747
36.576
161.994
30.1048
175.254
21.4433
25.7093
13.3537
5.51843
19.6516
188.754
59.6827
245.198
86.1037
187.27
186.672
182.777
80.8051
2.25795
41.0505
12.2554
60.8744
115.115
180.887
7.32532
8.59091
166.046
173.616
175.845
200.897
92.1799
147.647
210.669
99.7559
115.834
81.4401
159.859
75.7996
180.352
180.357
177.605
86.9249
110.704
78.7723
45.7291
177.089
179.19
109.776
113.925
163.327
99.5719
165.049
265.831
203.683
161.219
88.854
178.131
166.289
177.531
261.537
266.247
276.514
191.05
276.793
68.3989
221.084
16.2131
173.401
62.3801
45.3049
257.136
257.268
250.457
201.263
237.596
110.075
174.933
163.852
246.205
169.782
256.889
158.828
163.995
193.402
75.128
191.75
258.646
249.834
190.533
55.2658
158.614
192.092
116.657
189.049
207.184
76.7638
193.896
250.73
196.342
108.902
33.4968
91.9962
6.97129
179.122
2.32259
9.65506
72.3756
101.682
176.183
6.21993
3.94787
207.897
1.43544
114.014
118.435
85.8906
7.70354
28.3957
241.604
188.867
275.097
284.105
234.136
15.2446
2.68019
227.134
280.62
163.07
160.119
37.8958
97.4529
98.0774
165.061
245.708
158.914
270.79
82.9098
210.722
193.593
11.2373
163.549
31.9561
116.214
39.5316
125.071
4.81944
68.6866
110.213
24.047
9.68617
20.9686
162.991
69.6183
11.9745
163.795
166.317
17.9956
25.5203
111.164
39.9853
156.258
15.7372
39.9631
39.7038
168.218
165.083
198.522
122.187
104.132
6.08709
159.957
208.454
116.601
109.375
10.0819
25.1387
109.172
151.652
226.631
110.092
109.706
11.5701
263.029
7.98124
207.308
242.843
10.2837
156.032
212.699
4.65326
51.7871
164.099
169.037
258.076
191.887
135.042
160.935
180.304
50.2855
152.308
187.906
52.1327
50.9214
237.75
197.52
267.741
158.929
254.354
161.481
186.538
185.226
160.139
227.902
46.5276
182.011
211.316
48.2913
270.499
164.924
213.068
252.659
164.176
117.535
38.5978
185.729
164.743
155.236
152.063
26.3426
127.302
152.362
2.93553
187.948
165.958
277.545
155.335
9.09619
19.6608
259.811
155.81
275.309
278.879
56.3154
22.6794
78.1472
3.30792
66.4016
85.4725
176.748
164.267
130.657
176.347
189.165
7.45036
200.622
246.263
261.663
258.204
269.781
255.132
204.854
172.625
258.523
191.933
164.331
9.29526
129.843
160.555
0.533641
204.341
182.803
15.7069
109.779
13.2034
153.924
44.7909
165.244
167.607
66.7139
243.201
194.8
210.259
27.2335
50.3079
145.92
162.617
287.079
165.332
147.885
131.568
168.033
148.074
165.989
274.778
104.624
193.24
143.144
166.39
265.34
204.155
166.491
20.113
148.007
3.73821
66.1434
216.859
216.575
193.645
202.63
14.2867
0.602176
182.685
138.439
153.011
14.308
95.3776
5.0707
89.3506
220.568
164.959
3.81544
257.061
79.0727
84.1909
119.571
2.03981
170.327
162.634
113.131
28.4572
5.37165
83.3396
214.485
10.6133
157.033
71.4845
59.9364
89.4683
202.068
224.686
83.0583
107.308
166.209
158.399
108.333
142.864
158.989
189.643
177.02
231.091
104.056
244.41
161.01
170.612
161.276
30.0374
243.734
185.698
160.819
100.982
25.2662
164.451
131.243
93.8905
82.7602
116.529
210.892
261.992
276.738
232.369
228.36
163.801
150.985
164.284
235.726
234.343
270.576
51.9337
209.444
37.4467
196.858
112.253
187.043
187.996
195.155
38.688
110.819
110.239
11.3549
187.445
66.2931
39.4748
192.46
35.3692
212.609
8.49318
58.8054
218.241
19.7442
4.77718
5.01666
37.9942
37.4329
239.662
164.897
12.2117
190.366
62.6626
208.989
201.494
167.24
36.2388
96.5859
166.693
191.058
180.147
210.872
113.797
11.5332
5.33853
164.794
90.4794
261.778
175.14
5.16392
277.574
136.541
164.854
122.287
274.473
211.136
7.26494
167.365
203.067
166.539
2.42032
205.493
125.647
160.899
167.717
106.281
165.736
143.421
-1.0241
167.385
5.91738
166.342
99.1091
0.739949
167.431
98.1224
98.0177
148.879
97.3291
126.808
190.342
207.934
213.471
163.988
165.819
100.745
166.627
230.005
160.735
198.374
111.752
142.624
95.601
105.416
163.046
64.616
165.659
161.278
164.955
165.982
162.283
170.422
118.88
274.054
286.198
99.4141
161.072
202.258
202.845
277.226
110.606
168.676
139.787
119.378
44.1101
118.402
216.518
265.956
166.297
18.8018
189.707
277.369
263.399
260.071
248.121
281.277
160.367
165.243
198.652
201.977
196.254
190.62
176.436
221.325
148.731
159.193
159.396
168.087
98.552
161.27
153.493
270.165
198.415
271.753
134.829
121.836
160.67
154.136
191.148
171.972
188.873
149.702
124.095
148.6
130.38
134.864
162.092
161.433
132.185
195.726
38.5619
181.85
161
71.9157
183.582
162.295
162.988
159.312
204.999
239.341
76.8805
219.926
162.599
142.907
27.4031
86.2449
197.306
43.1303
235.867
46.8024
42.1203
116.871
192.683
178.91
26.5627
278.716
206.879
241.126
70.6655
189.725
168.615
204.992
229.86
223.108
265.944
71.6173
172.244
166.482
210.146
195.191
77.8264
219.624
54.9385
56.6555
186.343
171.628
146.552
165.953
173.981
197.313
155.824
63.8552
59.748
59.2311
55.6055
148.739
164.842
114.134
153.56
175.249
152.568
114.668
175.472
185.494
86.7452
138.402
154.679
186.155
165.112
90.2719
191.977
168.219
222.863
80.6935
167.27
165.35
92.2815
240.718
49.1854
114.538
224.24
176.156
157.119
223.671
169.84
197.071
165.994
153.465
161.131
172.855
168.909
138.863
192.588
163.725
163.943
227.648
197.13
165.635
157.071
193.192
132.342
163.204
161.902
261.89
189.13
127.081
142.875
161.077
226.367
165.037
164.937
157.504
213.218
192.823
163.241
170.119
161.535
163.887
163.606
179.853
194.102
250.953
196.739
191.009
224.729
154.841
241.998
274.831
203.58
141.864
133.707
162.601
193.323
219.903
164.898
228.466
135.901
188.556
227.578
169.002
174.359
224.68
194.163
144.656
220.032
150.892
89.0956
159.165
219.856
163.83
221.413
131.058
119.466
168.917
160.344
144.029
117.667
148.997
246.15
163.737
79.4929
160.318
5.80322
124.518
160.652
151.287
200.59
3.38955
150.274
155.859
4.23589
181.682
154.896
160.396
156.8
233.302
39.3486
161.023
79.8709
148.828
202.017
160.391
197.706
93.9672
151.2
198.756
42.1819
41.3856
176.956
39.4158
173.752
175.275
47.6915
192.432
222.947
188.497
209.197
153.745
158.194
199.562
167.317
171.392
165.775
196.944
125.262
86.4839
128.782
84.2971
162.109
89.4538
141.491
84.3778
194.062
176.978
75.3623
237.959
107.529
162.667
223.033
181.433
270.921
167.459
159.325
37.7013
161.014
237.102
273.274
169.185
134.797
168.257
178.061
152.9
161.406
134.269
164.843
261.235
277.128
153.743
153.639
171.677
188.073
267.159
58.7097
260.855
145.759
168.502
249.02
268.034
163.147
177.26
238.18
163.334
185.243
215.11
214.301
211.379
97.8604
158.797
164.139
56.0208
248.513
278.182
153.938
268.05
205.908
131.801
182.683
88.4285
159.45
167.68
203.001
167.486
267.275
261.056
198.794
163.091
166.74
11.7923
209.605
15.1264
160.898
198.825
168.848
166.996
162.531
211.966
120.476
148.175
181.607
154.54
131.85
15.5809
229.516
124.771
165.086
210.95
163.729
165.342
164.806
162.012
201.602
141.68
166.452
191.162
184.891
57.3559
164.679
168.07
208.199
135.212
124.617
189.714
65.2732
139.91
-4.04287
13.6851
163.746
163.448
205.926
165.998
164.129
165.692
88.3888
5.25531
168.4
131.776
73.5696
155.666
240.735
175.457
161.704
152.376
12.8839
177.978
1.95331
32.2415
120.072
146.023
124.223
206.04
179.997
167.223
158.286
149.922
164.804
48.9209
263.405
98.4952
45.9325
181.58
231.39
256.466
243.746
174.348
46.5623
194.72
243.113
206.837
251.055
45.091
188.571
202.015
228.064
163.198
110.705
200.427
213.264
172.008
273.383
43.2965
78.8254
231.859
196.333
266.465
96.2827
234.479
203.016
96.6698
27.4354
156.714
229.74
232.484
102.65
156.574
242.685
198.493
97.5844
195.192
124.526
96.9786
178.94
89.1784
113.419
112.782
241.963
204.632
215.625
100.027
85.575
102.454
189.903
207.294
77.0235
169.442
78.3158
166.66
247.708
254.06
142.608
166.346
119.397
91.8487
229.076
7.49164
216.031
123.329
259.283
89.9123
154.741
162.49
153.612
167.349
166.371
104.025
179.061
157.251
117.725
138.977
159.708
144.362
119.935
134.825
103.892
144.9
9.94991
126.368
26.4431
125.987
243.816
166.541
86.6569
149.441
177.709
162.462
165.293
161.692
165.741
252.595
105.62
251.407
74.1489
246.242
145.675
218.254
155.047
156.883
106.648
213.015
47.596
216.201
210.037
16.2199
115.36
277.552
114.993
165.255
110.787
112.034
161.022
150.702
169.989
126.806
154.906
117.042
51.6367
38.1951
40.9568
13.1996
111.505
278.998
259.977
79.5061
71.1729
224.734
120.052
88.1746
105.532
141.372
156.97
138.616
150.545
145.675
194.135
16.0059
152.583
7.07363
83.7912
146.391
171.116
71.9084
64.9897
153.324
159.63
110.953
157.318
0.388177
165.247
64.4271
55.6487
25.0809
49.5809
23.8133
29.8461
50.8509
170.68
163.453
3.50661
256.247
149.989
172.518
174.235
48.36
93.3925
170.67
134.142
9.14963
103.069
82.3538
171.607
8.50837
107.832
63.5651
54.8601
108.147
163.854
7.22952
125.286
61.7053
167.106
141.409
0.438977
131.725
5.44465
150.692
12.5397
69.6968
76.6396
143.771
239.07
149.966
160.173
79.8175
6.31246
112.865
70.7275
46.8594
143.747
34.2922
70.6483
16.674
160.928
167.4
149.006
200.998
165.128
143.442
111.612
144.786
164.035
11.89
8.44008
7.38181
131.295
14.7818
131.777
5.00575
24.3482
130.473
51.39
9.18447
113.003
261.952
1.42588
172.606
197.901
212.085
8.70267
196.76
12.7327
92.9229
43.9956
16.4678
133.51
153.713
10.9462
81.757
150.601
8.44606
153.826
164.074
7.03245
73.7874
184.833
6.35678
163.336
4.97864
143.256
200.526
175.683
8.47149
275.845
163.721
267.148
159.806
162.684
116.995
163.583
60.532
281.495
164.4
278.658
164.953
200.304
154.777
162.475
283.641
160.32
268.675
54.3133
122.023
103.992
70.3419
55.2022
265.391
264.439
223.996
228.406
248.795
81.5777
210.936
276.118
198.409
206.062
275.771
42.9318
6.34317
45.8178
6.19159
103
98.7457
60.2792
129.468
165.649
144.037
175.913
83.8333
163.174
156.81
131.185
70.1694
143.676
160.232
162.994
154.095
164.889
33.2062
60.1077
269.876
131.446
22.5503
281.966
48.5802
23.1742
113.138
109.688
101.91
176.597
143.926
206.06
188.432
183.449
170.046
101.526
110.558
109.937
244.451
109.641
217.423
238.466
149.143
265.421
132.831
267.061
136.24
254.199
160.894
143.129
160.307
291.44
280.025
148.859
265.128
262.809
213.654
182.668
279.963
256.384
125.048
118.141
168.857
162.651
119.201
163.255
97.5183
214.506
120.939
162.577
156.937
225.721
97.182
186.215
147.992
48.5711
120.539
166.539
213.101
187.257
211.875
243.255
123.669
158.041
163.658
163.66
121.687
19.2752
15.2982
96.9028
35.429
162.738
33.5345
26.1565
58.5631
147.454
164.872
78.4659
7.9897
13.7469
126.122
160.358
161.388
64.597
201.228
158.193
51.9204
173.545
125.709
172.791
166.013
164.254
214.589
180.284
198.87
164.876
2.7114
8.03638
149.836
2.72353
3.18134
175.319
14.4484
129.443
119.251
186.112
170.865
135.756
232.531
4.55943
215.176
5.99919
2.76213
222.833
152.046
208.476
9.82007
145.57
162.506
98.0688
154.81
125.459
197.515
172.328
26.7838
20.0588
165.473
236.915
21.7786
197.094
239.394
133.005
148.94
165.272
165.258
76.0692
60.0975
143.255
261.718
257.094
184.969
253.977
198.88
184.497
182.226
158.121
158.68
185.914
171.663
255.904
255.708
246.866
183.983
142.467
152.565
140.591
156.927
176.656
211.188
151.746
214.046
171.213
200.942
156.095
232.133
212.217
164.868
149.799
186.97
152.644
62.8246
120.319
155.074
166.666
72.5421
139.327
166.388
165.363
155.107
76.3264
145.064
194.534
85.4574
224.399
168.684
142.939
232.037
174.011
189.41
161
194.601
218.43
122.923
191.351
244.097
167.06
240.208
212.882
114.581
277.388
288.63
139.515
165.66
165.163
118.291
162.902
163.235
126.092
125.495
118.931
165.994
192.484
243.047
166.92
179.273
168.144
163.967
194.813
187.202
157.158
120.392
162.007
107.027
65.0041
165.572
138.585
165.258
158.639
120.142
145.563
167.104
166.548
107.199
105.608
158.102
187.609
153.057
166.626
164.586
201.329
205.854
166.343
104.524
189.407
167.794
103.527
169.165
154.351
161.289
157.755
156.291
163.409
237.62
162.902
157.924
166.432
159.574
76.4881
71.8682
76.6079
174.049
39.3759
190.226
60.4594
160.082
245.694
204.242
206.783
254.812
239.474
73.3228
164.595
159.308
166.186
46.891
159.853
151.62
167.419
6.94504
156.931
12.9564
60.9959
162.773
166.633
142.511
163.687
191.789
225.64
165.888
146.026
159.049
149.034
161.132
158.438
216.862
243.533
177.381
219.601
250.966
126.745
196.591
188.776
232.749
216.646
195.677
248.301
247.892
128.016
112.238
238.26
185.973
254.386
171.751
242.774
158.611
194.258
244.526
254.651
271.125
225.382
204.584
186.917
163.391
173.129
216.63
149.492
204.625
158.428
137.392
133.906
164.229
282.506
219.587
211.093
184.058
194.377
212.679
199.988
138.205
124.731
225.385
157.039
194.363
161.315
179.429
191.786
166.31
117.466
122.485
166.581
193.114
180.334
125.98
193.578
172.159
125.867
93.768
140.579
179.714
76.5064
169.139
193.206
64.142
201.95
71.5246
165.877
207.193
185.805
200.424
218.669
103.506
242.876
224.727
160.586
135.624
103.318
161.571
103.701
102.88
164.216
164.178
158.413
103.311
245.563
165.624
148.656
183.386
176.808
157.178
148.322
171.143
114.578
165.609
116.048
169.058
222.136
151.386
163.937
105.754
208.007
105.19
123.217
116.922
207.524
193.835
116.098
162.437
228.781
185.001
139.573
160.654
246.301
125.795
172.943
163.211
159.711
175.23
167.069
197.33
165.778
167.036
127.161
164.327
226.582
167.979
187.769
118.545
181.79
159.219
193.129
187.593
158.621
124.072
185.313
179.526
178.021
250.605
184.801
152.149
171.558
172.287
50.396
65.696
204.726
213.726
207.168
204.884
164.463
166.713
243.969
169.357
205.883
163.004
166.56
171.516
210.975
166.479
206.707
164.333
97.2475
152.299
217.416
161.692
200.278
213.396
139.329
123.505
212.02
124.436
218.53
135.935
218.543
134.437
206.67
162.333
170.798
23.2171
177.737
167.771
154.322
171.97
192.933
94.5004
280.323
159.246
271.939
159.696
224.095
159.941
159.637
28.6211
165.523
184.623
171.552
211.058
157.921
123.277
215.822
241.985
222.621
264.383
183.444
223.463
245.028
211.353
152.606
211.552
128.592
149.081
167.246
82.7186
24.2607
161.729
168.431
159.749
166.105
217.763
182.922
211.07
78.2423
187.843
215.187
80.5333
70.3813
39.9343
86.3581
246.411
38.4028
163.084
114.311
268.403
285.578
197.333
275.664
165.862
157.925
178.713
166.977
166.268
165.106
216.957
21.9023
141.268
158.832
157.713
172.302
207.737
162.102
266.213
263.037
166.711
280.406
127.761
186.842
159.401
208.761
240.189
159.292
160.679
218.694
186.746
162.285
215.012
192.301
164.3
220.424
162.904
222.912
105.868
183.273
268.887
158.793
166.864
180.859
84.8745
158.665
30.8692
273.869
155.376
191.743
109.492
164.772
146.88
147.258
262.916
276.197
204.217
186.992
160.016
171.296
161.167
170.119
251.015
130.27
165.723
246.277
163.128
152.215
245.246
262.44
49.7652
237.717
158.523
176.422
213.306
267.349
106.666
215.577
109.332
180.863
107.068
165.886
151.439
220.391
182.68
246.398
74.7715
106.745
118.7
68.5031
26.0484
157.1
151.694
155.725
119.878
244.615
193.154
230.904
231.415
204.478
151.554
188.542
151.598
233.351
86.1516
232.503
10.4383
95.2618
88.4338
71.7898
244.966
87.2092
76.533
200.554
97.737
95.2495
213.647
170.474
86.5463
168.419
93.1799
196.598
212.26
143.401
168.887
179.095
159.923
155.392
151.164
155.362
163.121
159.916
226.204
206.722
173.808
170.792
183.361
177.797
89.036
225.05
204.93
54.9446
92.044
187.689
171.142
180.762
195.814
151.887
206.504
205.53
230.533
166.891
233.988
191.096
232.458
211.253
187.774
208.39
242.372
158.745
234.866
109.248
172.709
117.734
185.372
4.11739
193.261
218.401
166.319
210.591
8.51265
201.403
213.232
165.658
214.931
161.52
149.579
82.1937
159.44
9.02812
163.859
213.35
164.521
168.433
214.227
179.313
176.235
8.23234
198.437
217.185
211.094
188.01
178.365
228.228
193.804
6.12663
154.955
216.748
-2.04377
200.864
166.752
221.036
214.824
225.631
166.082
147.236
37.8027
286.239
276.453
172.01
168.797
166.386
160.72
215.905
116.082
143.394
174.361
45.9897
197.085
160.393
52.1825
44.0329
215.687
43.1244
165.83
202.808
160.329
163.581
47.1093
166.752
228.993
2.7789
77.5513
208.99
199.734
165.565
204.325
192.22
126.846
60.6654
72.8415
121.56
168.239
227.109
77.9887
189.271
223.386
249.614
81.036
174.159
161.173
153.582
110.65
127.083
71.9288
198.326
233.7
11.4579
193.924
193.336
143.943
276.901
188.929
156.35
196.166
197.243
167.745
199.974
146.11
148.406
207.964
206.177
121.067
211.381
207.492
180.655
201.636
233.824
160.471
157.983
166.988
199.113
222.454
197.76
225.771
190.203
5.70848
226.179
3.30146
175.431
162.752
219.738
256.969
165.353
184.907
242.556
163.698
160.655
139.056
177.961
171.527
146.465
164.854
215.078
166.714
161.127
4.10839
165.912
242.219
191.063
187.699
10.3529
28.8083
164.569
162.8
168.205
178.107
151.927
21.2647
149.312
168.652
237.229
155.716
233.425
155.862
156.313
202.876
245.488
262.801
177.284
155.154
161.008
190.798
153.71
174.563
111.417
177.045
171.531
113.028
112.062
116.742
212.822
146.769
197.662
117.252
111.385
104.953
107.945
179.709
175.929
164.109
116.348
179.962
173.755
196.357
176.244
197.026
168.559
170.184
34.2518
102.651
207.714
210.415
141.502
151.727
157.462
131.935
103.785
164.712
102.698
140.077
151.953
153.624
51.3739
169.021
164.28
197.733
233.295
173.817
64.5343
152.365
188.856
162.946
159.439
147.321
175.789
143.971
145.652
179.065
191.701
157.585
87.9346
91.7648
89.9136
156.193
209.046
156.447
193.962
76.5656
216.127
190.899
183.665
206.569
200.683
209.171
122.769
184.553
186.955
141.339
177.327
168.902
204.903
238.515
207.699
221.724
179.17
200.294
130.957
165.955
153.045
217.081
227.382
214.576
185.693
155.446
166.716
189.337
154.812
194.436
181.731
166.922
194.602
213.638
165.415
165.977
150.104
277.127
175.46
140.884
179.402
149.122
146.71
270.203
143.64
166.224
210.269
172.446
256.821
187.208
196.42
169.414
251.563
105.92
174.724
106.284
172.385
169.536
203.528
104.827
164.513
143.766
162.514
201.982
105.393
193.039
158.483
159.789
65.9197
176.569
262.833
30.9242
168.679
184.237
139.359
176.667
252.653
194.627
154.99
246.69
160.119
246.413
127.198
263.045
145.088
163.875
162.264
185.62
171.004
165.425
241.104
174.314
151.951
171.878
241.016
14.2164
219.89
166.365
13.4774
172.04
26.5617
244.436
212.5
280.09
178.212
13.2198
273.666
169.427
16.1741
69.089
164.515
178.565
28.9362
214.851
153.287
126.247
22.2914
161.307
60.5316
160.958
35.1661
33.3285
129.515
38.9869
132.672
127.249
6.36124
72.8895
252.362
158.735
150.63
290.627
234.701
211.07
259.324
1.01281
270.815
226.804
4.28393
224.838
161.414
20.4954
189.634
216.173
70.1258
4.49579
238.296
270.59
207.653
164.87
168.638
11.2426
176.285
3.14359
85.0829
176.235
59.787
236.356
85.9696
58.515
51.5091
224.306
155.22
165.018
161.511
141.549
149.572
48.7351
190.846
160.61
207.433
199.09
174.962
48.4828
228.457
169.66
227.998
207.056
194.608
243.181
36.3352
174.061
172.043
165.546
166.1
243.191
38.108
138.11
133.043
86.9805
220.984
90.8051
236.632
168.589
228.427
95.8777
149.386
170.23
167.556
86.1912
149.11
90.5415
217.509
212.192
217.169
132.33
165.376
182.955
153.962
206.459
276.726
212.126
164.041
163.981
192.833
129.886
159.802
290.986
218.807
267.694
164.618
228.787
182.145
165.324
227.483
214.152
178.369
168.906
151.198
226.186
188.943
226.813
166.919
153.299
209.011
165.453
2.96115
22.6145
7.70479
159.335
218.575
158.351
163.362
157.992
209.147
223.658
166.456
219.116
7.38804
3.84523
161.948
242.407
168.187
236.079
216.01
185.194
207.269
186.382
199.733
3.01509
6.15515
8.52064
0.389315
205.59
168.993
200.098
157.136
174.876
161.645
196.143
162.944
234.861
182.169
180.409
11.6211
228.472
7.31034
204.82
172.085
188.47
164.881
178.952
217.435
221.191
165.724
12.5046
153.216
155.247
124.098
171.513
238.748
213.326
242.065
244.005
234.052
130.782
179.405
234.454
141.122
2.4301
185.285
5.42974
162.468
145.316
174.707
176.361
175.568
7.86504
235.6
156.65
224.49
153.665
242.764
177.273
200.495
180.417
162.768
69.312
153.809
159.881
165.38
235.022
118.218
36.5753
243.149
165.437
165.395
195.173
240.481
172.084
208.319
61.8151
159.408
154.768
221.312
150.442
184.141
209.939
184.388
147.023
142.162
185.039
150.238
238.51
181.213
150.699
165.877
165.957
127.164
165.418
107.79
126.936
107.826
27.9573
108.264
188.118
164.545
240.058
105.675
204.713
159.2
105.005
168.81
146.71
219.304
216.844
156.5
193.2
197.937
198.584
192.342
197.06
171.594
98.2665
-89.2345
150.778
200.805
205.614
153.11
209.562
117.558
171.495
186.998
180.055
154.189
278.771
115.992
198.107
216.216
217.478
248.017
216.153
161.09
139.155
234.797
273.888
220.229
146.148
101.408
232.335
207.887
176.76
207.493
198.594
149.218
109.645
53.6107
205.141
192.707
221.281
146.081
232.061
213.933
248.071
223
122.274
184.803
179.441
256.536
169.461
123.03
78.929
229.928
161.189
154.062
131.555
230.698
225.709
226.349
146.536
87.2822
229.923
158.679
139.837
230.494
179.718
174.094
263.91
141.139
163.183
165.337
227.903
160.215
105.957
164.761
164.571
173.558
160.394
190.797
157.934
163.845
158.14
143.818
116.827
106.763
167.798
173.633
166.892
157.636
155.846
163.422
120.108
179.431
120.434
113.108
227.47
204.747
209.418
9.64094
191.235
130.969
164.783
171.43
131.343
2.46763
146.495
153.005
164.138
152.867
178.648
214.753
237.036
199.464
233.879
223.93
10.4896
2.47962
5.01126
207.117
153.116
113.985
136.963
198.041
222.793
205.918
213.747
183.884
108.709
173.246
195.974
186.435
153.628
202.941
191.763
172.495
215.108
169.439
171.408
179.933
198.643
218.347
158.417
242.743
120.218
201.456
93.9887
117.34
170.731
183.013
222.811
172.651
158.921
168.893
210.603
163.103
107.264
202.323
230.676
247.704
106.711
154.779
140.119
196.146
174.909
170.312
208.02
199.382
165.172
185.24
191.5
150.674
166.379
97.1342
159.521
82.8817
9.82532
208.986
84.5011
167.199
6.73519
247.318
183.289
235.765
176.313
54.031
203.796
186.143
218.584
242.012
201.731
219.582
9.21345
149.969
277.725
205.668
158.149
193.391
154.877
179.3
163.612
287.165
184.984
166.474
185.676
202.707
170.904
176.249
160.498
3.04411
196.328
11.7637
213.239
8.25024
162.179
202.896
165.832
200.83
138.097
3.24541
215.511
166.576
221.527
12.3523
172.374
2.81845
2.49473
171.217
181.575
201.087
220.259
203.712
122.102
142.837
234.432
209.722
204.252
190.779
1.17465
6.95999
126.852
232.892
203.021
199.481
1.67296
201.799
15.7211
8.0296
167.973
162.798
151.213
130.699
191.629
138.515
163.234
208.986
217.348
221.758
162.491
229.235
171.963
116.017
167.024
25.6901
185.756
175.699
161.703
122.064
197.817
121.308
207.897
120.754
158.793
156.899
29.7861
208.249
188.688
270.995
215.619
266.254
171.826
203.193
200.737
190.174
264.218
152.649
185.9
195.978
226.446
235.165
166.333
281.249
272.886
108.5
115.892
162.349
111.525
113.412
191.015
239.097
46.462
165.633
197.65
204.045
112.349
49.5109
49.3968
205.727
164.265
115.509
153.135
219.555
184.037
100.493
188.26
111.564
210.612
196.965
142.222
111.686
82.2893
248.853
218.235
202.08
189.382
220.098
120.878
200.356
199.01
207.261
131.086
206.502
207.332
229.821
220.835
196.882
164.72
207.055
173.568
55.3892
51.6134
210.699
160.039
163.062
44.5312
241.679
51.547
107.316
206.797
209.052
224.864
95.0722
143.724
105.1
217.619
165.696
156.781
163.7
203.627
178.127
215.036
137.879
203.62
145.775
202.33
147.175
172.707
21.1713
220.818
187.095
185.304
163.078
186
145.378
186.568
178.758
159.409
147.242
167.77
182.835
221.012
118.567
246.581
137.937
244.642
241.855
115.506
181.111
182.713
86.1016
110.478
100.219
197.24
108.417
146.563
186.322
137.434
109.48
183.981
183.567
191.649
192.792
85.8297
140.146
174.924
129.325
162.076
137.298
142.141
140.687
129.716
155.676
183.344
141.601
146.391
118.968
170.035
160.877
206.259
165.169
285.868
281.629
5.73928
15.618
170.812
169.413
184.664
19.2521
181.697
186.739
16.8744
239.496
14.5477
155.731
6.899
4.80905
160.829
1.38137
102.324
152.284
233.765
183.303
153.449
151.083
163.035
154.937
155.865
178.981
19.1129
185.193
103.772
-0.889557
178.819
204.333
217.802
177.364
188.813
193.102
147.941
162.337
0.721116
231.909
138.209
165.227
167.651
237.271
172.261
172.797
213.178
128.087
184.885
8.49487
6.86614
8.93046
3.48352
7.36593
125.674
208.915
7.75363
142.368
185.825
5.58057
175.438
178.498
200.491
146.968
188.288
212.046
162.191
179.408
190.728
247.513
208.083
35.3572
225.372
205.726
204.501
30.2366
234.576
65.6454
191.693
206.372
28.4818
147.451
14.706
69.6372
66.2985
48.7644
205.682
108.698
100.577
170.884
99.7125
261.999
212.386
237.964
274.689
236.228
266.758
112.43
42.524
92.9217
82.0027
175.601
178.762
211.036
280.852
269.616
250.351
177.834
162.784
137.369
20.2315
149.821
181.799
177.232
33.9852
200.886
193.663
175.425
188.518
270.518
157.596
266.897
265.395
196.373
233.748
281.398
191.263
217.266
145.473
204.425
277.065
218.472
278.413
205.681
248.565
242.901
165.346
170.545
189.231
227.986
205.491
272.348
174.814
228.406
145.472
101.832
180.072
204.839
236.373
222.463
200.353
183.878
154.686
207.633
175.767
144.391
199.689
88.1127
128.304
119.613
143.883
192.561
134.234
284.452
162.531
197.096
204.45
203.374
160.056
188.518
236.438
227.569
261.991
231.043
209.274
207.216
283.226
263.74
203.418
275.621
184.722
143.009
188.891
166.691
173.569
217.406
165.209
249.593
174.07
173.508
186.757
157.067
165.774
166.026
156.751
149.546
97.8383
178.403
160.739
176.312
186.03
165.85
153.335
148.86
162.077
48.1445
153.86
80.8242
145.125
181.678
242.666
165.399
166.142
215.683
173.186
154.034
165.856
218.962
162.822
165.352
164.934
210.456
215.316
186.145
214.062
180.517
150.943
208.182
147.316
195.314
150.047
234.372
160.572
49.1272
194.988
173.981
54.6058
165.475
250.171
193.02
197.164
248.83
103.804
160.47
222.521
218.862
156.568
216.155
156.378
194.532
208.508
150.808
108.815
184.798
163.453
207.417
166.038
124.874
173.404
109.068
157.884
182.03
123.552
170.35
162.081
174.531
118.746
85.6151
162.024
149.225
160.575
118.123
161.793
240.009
167.431
162.403
62.8141
187.332
170.032
151.141
166.661
165.252
137.671
164.436
166
108.72
165.418
86.2213
32.2949
164.557
110.322
163.445
215.533
159.313
108.367
158.345
131.084
242.439
166.306
164.525
141.876
166.211
163.135
164.967
163.749
150.867
149.291
159.622
121.294
165.32
165.746
165.268
165.351
167.26
238.753
221.331
157.337
199.809
225.095
162.149
152.856
211.446
252.358
129.811
182.754
132.696
234.893
154.675
254.046
244.288
207.1
178.9
165.722
157.025
165.086
152.562
129.911
186.556
201.425
207.612
151.671
142.385
160.391
190.558
161.249
154.409
134.143
165.426
165.116
243.862
246.122
249.212
205.488
128.764
165.815
174.766
233.141
209.421
165.501
163.568
147.096
148.496
157.491