/*--------------------------------*- C++ -*----------------------------------*\
| =========                 |                                                 |
| \\      /  F ield         | OpenFOAM: The Open Source CFD Toolbox           |
|  \\    /   O peration     | Version:  2506                                  |
|   \\  /    A nd           | Website:  www.openfoam.com                      |
|    \\/     M anipulation  |                                                 |
\*---------------------------------------------------------------------------*/
FoamFile
{
    version     2.0;
    format      ascii;
    arch        "LSB;label=32;scalar=64";
    class       surfaceScalarField;
    location    "0.00481384";
    object      phi;
}
// * * * * * * * * * * * * * * * * * * * * * * * * * * * * * * * * * * * * * //

dimensions      [0 3 -1 0 0 0 0];

oriented        oriented;

internalField   nonuniform List<scalar> 
92401
(
0.146461
-0.0920126
-0.00822847
-0.0462203
-0.069704
0.0603323
0.0445451
-0.0351734
0.0194412
-0.037851
0.0426718
-0.0242621
0.00651186
-0.0115396
0.0117483
-0.00672061
0.00110058
-0.000504447
-0.00510801
0.00451188
0.0193332
0.00912859
-0.0250411
-0.00342069
0.00517812
-0.00425962
0.000182087
0.0325887
-0.0252731
0.0120176
0.0501898
-0.0406787
0.03246
-0.0419711
0.00104958
-0.000580058
-0.000874875
0.000405352
0.00489694
-0.0415843
0.0396262
0.0297018
0.024516
-0.0938441
-0.0154763
0.00946759
1.06162e-05
0.0059981
-0.0323182
-0.0401364
-0.015468
-0.0181822
0.055154
-0.0215038
0.000185215
-0.066128
0.0659428
-0.00374835
-0.00779586
0.00171493
0.00340966
0.00267127
-0.000974519
0.00132843
0.000603282
-0.000957197
-0.00445208
0.00934645
0.000909445
-0.00580382
0.0160034
-0.0055783
-0.00440276
-0.00602235
-0.0405834
0.00888066
0.0372423
-0.00553952
-0.0393983
0.0120003
-0.0560527
-0.05423
-0.00155117
0.055126
0.000655197
0.088297
-0.0854034
0.0218131
-0.0247067
0.0511848
0.0622952
-0.0751544
-0.0383256
-0.0321903
0.0498913
-0.0570992
-0.00252786
-0.0012955
0.00416155
-0.000338194
0.0305221
-0.0626481
-6.44158e-05
0.0596474
-0.0570288
-0.0322578
0.0296392
0.0124949
-0.0170685
0.00063097
0.00394259
-0.034023
0.104768
0.0580326
-0.128777
-0.0841487
0.108663
0.00922409
-0.0337386
-0.131359
0.0355028
0.0276219
0.0682347
0.0144243
-0.0635721
0.0407555
0.00839228
0.0590185
0.00775476
-0.052349
-0.0438611
0.0106868
0.00161025
0.0315641
-0.050415
-0.0406964
0.0630655
0.0280458
-0.0348383
0.0388202
-0.01347
0.00948804
-0.0180457
-0.102809
0.0638771
0.0569775
-0.0862917
0.0867629
-0.000471219
0.0317141
0.00607123
-0.0783952
0.04061
-0.000166449
0.0284379
-0.0333005
0.00502905
0.0272673
-0.0523873
0.02512
0.000236402
0.000235702
-0.00018469
-0.000287414
0.000835468
-0.0618272
0.0609917
-0.0692131
0.044057
0.0618411
-0.036685
0.089483
-0.0262554
-0.0109718
-0.0522557
0.00138779
0.0725904
0.000533412
-0.0745116
-0.0455879
0.0710317
0.0379343
-0.063378
0.000462957
0.000961532
-0.000272182
-0.00115231
-0.002051
-0.0043933
0.00127827
0.00516603
-0.03845
0.0870914
-0.0450836
-0.00355774
0.000334029
-0.00106448
-0.000402144
0.0011326
-0.0561545
0.0549076
0.00124692
0.0749527
-0.00661441
-0.0180581
-0.0502802
-0.0953659
0.0895195
0.00438262
0.00146386
-0.054457
0.0250527
0.00792671
0.0214776
0.00209375
-0.0155198
0.00480448
0.00862152
-0.0123803
0.0258669
0.0358778
-0.0493644
0.00105503
-0.000655871
-6.51316e-05
-9.59819e-05
-9.40733e-05
0.00101092
-0.000820862
0.00104186
0.000381434
-0.000793354
-0.000629937
0.00434302
-0.00894461
0.00525092
-0.000649329
0.0710888
0.00547227
-0.021069
-0.0554921
-0.0145334
-0.00426959
0.00977119
0.00903183
-0.0465811
-0.0475778
-0.0550692
0.149228
0.00287245
-0.0314072
-0.00476179
0.0332965
-0.000305796
0.000604353
0.000480658
-0.000779214
0.00584303
0.00426166
-0.0293224
0.0192177
0.01781
-0.00652038
-0.00925376
-0.00203582
0.0416606
-0.0799804
-0.0253155
0.0636353
-0.0271943
-0.00318588
0.0101319
0.0202483
0.0125094
0.0073444
0.0132155
-0.0330693
-0.00111464
-0.000626565
8.71275e-05
0.00165408
0.0230807
-0.00587861
0.0348605
-0.0014466
0.000930659
-0.00129705
0.00181299
0.0503679
-0.037047
-0.070481
0.0571601
0.000604785
-0.000336431
-0.000268355
-0.00102504
4.32326e-05
0.000466418
0.000515388
0.00123596
-0.000966582
0.00134415
-0.00161353
0.0221522
-0.0175397
-0.0649885
0.0603759
0.00136048
-0.0129123
0.00241832
0.00913349
0.0448274
0.0570359
0.0173622
-0.119226
-0.116288
0.0268932
0.128363
-0.0389682
-0.00229743
-0.0443495
0.00690823
0.0397387
0.0514257
-0.0289033
0.0259568
-0.0484792
0.0245306
-0.0057625
-0.150757
0.131989
0.0067435
0.0132371
-0.0255472
0.00556663
0.000703335
-0.000135609
-0.000742157
0.00017443
0.0365089
0.0143477
-0.00199499
-0.0488615
-0.00308219
0.0818728
-0.0832856
0.00449504
-0.0181905
0.0467912
-0.113068
0.0844671
0.0432216
0.0061789
-0.051698
0.0435079
-0.000286324
-0.00226729
-0.0296968
0.0409251
-0.00896094
0.0691965
0.0180577
-0.0315421
-0.0557121
0.131559
-0.142567
-0.0294552
0.0404632
-0.015809
-0.046315
0.0598567
-0.0864972
0.000167449
0.0863298
-0.00138131
-0.097671
0.162184
-0.0631322
-0.00227501
0.0033951
-0.000411448
-0.000708644
0.0890118
-0.152047
0.0311138
0.0319213
0.00165752
-0.000176507
0.000652824
-0.00213384
-0.0818825
0.141215
-0.107414
0.048082
0.027339
0.00482441
-0.0399505
0.00778709
0.0856815
-0.0167431
-0.0757549
0.00681641
0.00722068
0.0282455
-0.0512752
0.0335787
0.0298154
-0.139169
0.0757752
0.0917975
0.108741
-0.0793284
-0.12121
0.000893351
-0.00136764
0.00197059
-0.00149631
-0.0937807
-0.0270117
0.111076
0.00971597
0.00283853
-0.00565062
0.014299
-0.0114869
-0.0145572
-0.034878
0.057515
-0.00807983
-0.00383639
0.015979
-0.0140285
0.00188589
0.000248477
-0.0005866
-0.000482707
0.00082083
0.0215862
-0.0244969
-0.000925684
-0.00172015
-0.000813746
0.00139439
0.00113951
-0.0577087
0.0655112
-0.00780253
-0.00216582
-0.00582896
-0.00217416
0.0101689
-0.0350417
0.0262371
-0.00575267
0.0212338
-0.0511172
-0.0542653
-0.0522573
0.044687
0.0956665
-0.0880962
-0.00724396
-0.00149425
0.00439174
0.00434647
0.0474006
0.0133331
0.000375009
-0.0611087
0.000292764
-0.00826814
0.00678451
0.00119086
-0.038415
-0.0553058
0.0127622
0.0809587
0.0648551
-0.0382697
0.0226178
-0.0492033
-0.00940821
0.0605271
-0.0588681
0.00774929
-0.0601942
-0.0314885
0.00794162
0.0837411
0.017366
0.00435584
-0.033761
0.0120392
0.0613222
-0.0578483
-0.0034739
0.00219755
0.00202822
-0.00119983
-0.00302594
0.0402931
-0.0422046
0.00191151
-0.0467859
-0.0446499
0.110573
-0.0191371
0.00100473
-0.00964017
0.00912248
-0.000487045
0.00320271
0.00560906
0.00228512
-0.0110969
0.00106113
0.00619819
-0.00696656
-0.0311554
-0.0545767
-0.0122025
0.0979346
0.0234304
-0.00644546
0.0179607
-0.0349456
-0.0890676
0.102984
-0.110878
0.0969622
0.0688859
-0.0470714
-0.0218144
0.0016215
-0.0356229
-0.00928074
0.0432822
0.00763372
-0.00612466
-0.00793978
0.00643072
0.0444506
-0.0665088
-0.0624082
0.0844665
0.0769608
-0.065774
0.0271528
-0.0383396
-0.0120284
-0.00738244
0.0287766
-0.00936578
-0.0625773
-0.0874521
0.0583473
0.0916821
-0.0428901
0.0547342
-0.0102226
0.0991296
-0.0478514
-0.0512782
-0.00310016
0.0143409
-0.003607
0.000952238
0.000640469
-0.000726995
-0.000865712
0.0482236
-0.0177855
-0.00468005
-0.0257581
0.0037747
-0.00179198
-0.000667168
-0.00131555
0.00555547
-0.00957962
0.00873729
-0.00471314
0.0739778
-0.0445536
0.0248609
-0.0542851
0.00821072
-0.000224071
-0.00710804
-0.000878609
0.00179515
-0.000576346
-0.0012188
-0.0650334
0.0655955
-0.000562133
0.0144344
0.00598229
-0.09837
0.0779533
-0.0107973
0.0134053
-0.00944211
0.00683409
-0.0716031
0.0155917
0.0822734
-0.026262
0.0183978
-0.0996619
0.0773244
0.00393966
-0.0500624
0.0422919
-0.00856422
0.0163347
0.00889039
-0.0016811
-0.00298007
-0.00422923
-8.35845e-05
-0.00138941
0.00147299
0.0239888
0.179256
-0.248354
0.0451098
0.000271789
-0.000150472
-0.0265006
0.063521
-0.0559009
0.0188805
-0.000116083
0.00542996
-0.00420213
-0.00111174
0.000644677
0.00176951
-0.00338077
-0.0758281
0.00618823
0.0696398
-0.0321832
0.109797
-0.0449452
-0.0326686
0.000169815
0.00116177
0.00953027
-0.0108619
0.00420453
0.0954118
-0.0996164
0.00232316
-0.00159778
-0.00101238
0.000287006
0.00130739
0.000597864
-0.000556712
-0.00134854
-0.0356526
-0.0022502
0.0294966
0.0222802
-0.0641572
-0.072317
-0.0169083
0.00487074
0.0843546
-0.000653312
0.0019607
-0.0974458
-0.042874
0.112426
0.027894
0.0243662
0.162687
-0.0800497
-0.0484211
-0.034216
-0.0213388
0.119797
-0.0430197
-0.0554381
0.0414918
0.025332
0.0429494
-0.109773
0.106999
-0.250009
0.109327
0.033682
0.00153125
-0.0013712
-0.00153616
0.00137611
-0.0126397
-0.0390019
0.0595313
-0.00788973
0.02603
0.039232
-0.0253512
-0.0399109
-0.0370698
-0.0246079
-0.0180352
0.0797129
-0.0566601
-0.015968
0.0599884
0.00113606
-0.0104665
0.00651384
0.00281657
0.0574279
-0.0278725
-0.0533521
0.0237967
-0.0890958
0.104598
-0.0494331
0.0339306
0.0154056
-0.0218929
0.00649252
-5.21847e-06
0.0561895
-0.064998
0.0662364
-0.0584859
-0.00374127
-0.00778984
0.070017
-0.00510831
-0.0118452
0.00210365
0.0148499
-0.000559342
0.0548968
-0.0572537
0.00291621
0.133809
-0.0504732
-0.00350475
-0.0798314
0.0615597
-0.00713692
-0.0492276
-0.0051952
0.0527728
-0.0191702
-0.077564
0.0439614
-0.00900812
-0.00190597
0.0140394
-0.00312534
0.00500706
-0.0017073
-0.00473727
0.00143751
0.00240447
-0.0435508
0.0385974
0.00254895
-0.00147972
-0.0855915
0.00291283
0.01862
-0.0122225
-0.0596368
0.0397981
0.0198387
-0.0613101
-0.0158186
0.0108175
0.0663112
-0.096648
0.000867635
0.102434
-0.00665378
0.00374239
0.0222858
-0.0122057
-0.0138225
-0.0707184
0.145797
-0.0652972
-0.00978155
-0.00646973
0.0156112
0.0225375
-0.031679
-0.052753
0.0998151
0.0355325
-0.0825946
0.0264582
0.00211604
-0.0139811
-0.0145931
-0.0363978
0.0399467
-0.00114448
-0.00405356
0.00702196
-0.0103855
0.00741713
-0.000899977
-0.00383218
0.0102876
0.0346919
0.0386085
-0.0733003
0.000998564
-0.00168067
-1.13802e-06
0.000683241
0.0192583
0.00714809
-0.0174504
-0.00895592
0.0237112
0.0080798
-0.00269218
-0.0290988
-0.0514798
0.000464437
0.00717546
0.0438399
-0.000474849
-0.0430759
-0.000824915
0.000465621
0.00135786
-0.0494522
0.0356859
0.0497017
-0.0359354
-0.0427642
0.0283341
0.0190868
-0.00465666
0.0013374
-0.00297506
-0.00912646
0.0107641
-0.00748833
-0.00435776
-0.00344608
0.0152922
-0.0409294
-0.00367319
0.00820476
0.073466
0.0396586
-0.0733999
-0.0397246
-0.0431237
-0.000939102
0.0440628
0.0871199
-0.0478776
0.057858
0.00282773
-0.0082356
-0.036317
0.0417249
0.0368632
0.010359
-0.00653854
-0.0406837
-0.000393836
0.000277663
0.000936038
-0.000819865
-0.0185412
-0.0425551
0.0610962
-0.000185179
-0.0012337
-0.00420991
0.0309101
-0.0238725
0.00534348
0.0273017
-0.0408808
0.0929418
-0.0868218
0.00250522
-0.00862521
-0.0247437
0.103071
-0.0189981
-0.0593288
-0.0298171
0.0057252
0.016136
0.00795592
-0.0392606
0.0357047
0.014736
-0.0111801
0.0298645
-0.0250416
-0.000370651
-0.00445223
0.0204561
0.0722248
-0.121381
0.0286997
0.0730191
-0.077277
-0.0235558
0.0278137
-0.138978
0.00182205
0.00208222
0.135074
0.0303952
0.0124576
-0.0397256
-0.00312712
0.039956
-0.0583985
0.0193909
-0.000948331
0.00190781
-0.00104199
0.000143183
-0.001009
-0.0133681
-0.00181041
0.0761808
-0.0404513
0.0182392
-0.0539687
-0.0147652
0.0475183
0.00201925
-0.0347724
0.00661845
0.0991762
-0.0952948
-0.0104999
0.0506765
-0.0994141
0.0562408
-0.0075032
-0.053637
-0.000285284
0.0391572
0.0151252
-0.0048741
0.00863211
-0.0188832
-0.0278782
0.0494995
-0.0128332
-0.00878809
-0.0521107
-0.00152633
-0.0131935
-0.124287
0.175146
-0.0376659
0.0103901
0.0124375
-0.0646976
0.04187
0.0480186
0.00655788
-0.0441864
-0.0113862
0.00601057
-0.00350226
0.00887793
-0.0594142
0.00477899
0.0546352
0.1131
0.042448
-0.138194
-0.0173543
-0.00843361
0.00032308
-0.0032757
0.0181573
-0.11469
-0.0231837
0.119716
0.0107193
0.0716012
-0.069883
0.00204908
-0.0567209
-0.0100258
0.000450644
0.00176285
-0.00239868
0.00196573
-0.00172544
0.000210359
-0.0537627
0.03035
0.073818
-0.0504054
-0.00173648
0.000958542
0.000821173
-0.0350783
-0.00659311
0.0437205
0.000206814
-0.000180443
0.000311456
-0.000858182
-9.34013e-06
0.000556066
0.000219931
0.00195261
-0.00159699
0.00136422
-6.66801e-05
0.00029945
-9.62693e-05
0.000148541
0.00100276
0.102836
0.115803
-0.0721783
0.000176998
-0.00104365
0.000770378
-0.0515287
0.0549339
-0.00340516
-0.011361
0.0775175
-0.0684282
0.0022718
0.00200229
-0.0186275
0.00515175
0.0114735
-0.0624862
-0.000403581
-0.018133
0.0036162
0.0451039
-0.0305872
-0.0678497
-0.000581441
0.0684311
-0.00613896
-0.0149418
-0.0123401
0.0334209
0.000257237
-0.000288517
-0.000461639
0.000492919
-0.00376515
-0.00765959
0.00865929
0.00276546
0.0557723
0.0420672
-0.0164564
0.049868
0.0854243
-0.0367011
-0.0985913
-0.0129533
-0.0430306
-0.0223043
0.0242845
-0.0587605
0.0567803
-0.0086135
0.0262432
-0.00811437
-0.00951535
-0.0168513
-0.0125502
0.0152171
0.0141844
0.0975377
-0.0923593
0.0158457
-0.0210241
0.0010181
-0.00401127
-0.000164522
0.00315769
0.00339542
-0.0671339
0.0637385
-0.0694814
0.00124157
0.0642476
0.00399217
0.0367519
0.0392076
-0.0759595
0.0186638
-0.0590026
0.0273854
0.00233771
-0.00166741
0.00145358
-0.00212389
-0.000947906
-0.000867266
0.00338711
-0.00157194
-9.32709e-05
0.000481491
-0.000953719
0.000565499
0.0649178
0.0546594
-0.0394111
-0.0801661
0.00880713
-0.0897315
0.0784955
0.00242897
-0.0134941
-0.000270955
0.0267149
-0.0129498
0.0503469
-0.0493059
0.0196589
-0.0206999
-0.000429496
0.00120536
-0.000582299
-0.000193562
0.0199973
0.0489512
-0.0502846
-0.0469556
-0.00145158
0.000812219
0.00143468
-0.000795315
-0.000848963
0.0804369
-0.079588
-0.051575
-0.0147035
-0.0234571
0.0897356
-0.0523042
0.000729258
0.0134122
0.0194655
0.0148925
-0.0477702
0.000110045
-0.00250501
-6.76138e-05
0.00246258
-0.00155683
-0.000532134
0.000637377
-0.109817
-0.00667839
-0.0427432
0.159239
-0.00234468
0.00466957
0.133419
-0.135744
-0.0367498
0.0400393
-0.0642877
0.0609982
-0.0708306
0.0779126
-0.00708203
0.00318053
-0.0483642
-0.0303908
0.0639605
0.0219394
-0.00359768
-0.0823022
0.0486865
0.089079
-0.155295
0.0175293
0.0436554
0.0147761
0.0310357
-0.0894672
0.103717
-0.112775
0.0458097
-0.00328919
0.0120033
-0.0108971
0.00218305
-0.00250669
0.000902662
-0.00110434
0.00270837
-0.00241459
-0.00555803
0.00139147
0.00658115
0.0601912
-0.00674594
-0.0189667
-0.0344786
-0.0588842
0.0302876
0.0285966
-0.089728
-0.00998034
0.0129699
-0.000109541
0.000463974
-0.00286113
-0.116072
0.0281906
0.00645423
0.0814273
0.00202747
-0.0515704
-0.0104189
0.0599619
0.0484128
0.0269646
-0.10761
0.0322322
0.0358461
-0.0422786
-0.0177804
0.0242129
0.048153
-0.0619437
0.0496367
0.0314823
-0.0542923
0.0462759
-0.0234659
0.0328494
-0.0365565
0.00192936
0.00177777
0.0215248
-0.145285
0.0884121
0.0353483
0.00234729
-0.0604505
-0.00244201
0.053427
0.00185533
-0.109739
-0.034141
-0.00962179
0.00476493
0.0389979
-0.0487736
0.0444762
0.0477792
-0.0434819
-0.0435292
0.0826161
-0.0390868
0.0100265
-0.102382
0.050077
-0.0150732
0.00787789
0.0230442
-0.0158489
-0.091161
0.0958688
0.0372545
-0.0419622
0.0577382
0.0317613
-0.0778415
-0.011658
-0.0484401
0.144349
0.00615417
-0.102063
-0.000259145
0.00326617
0.00310312
-0.00611015
0.0503624
-0.0695728
0.0861365
-0.066926
0.00855377
-0.0411358
-0.00875688
0.0413389
-0.0412757
0.0266294
0.100754
-0.0861079
-0.0510655
-0.0291495
0.0562045
0.0240106
-0.0101727
-0.00202138
0.0071892
0.00500487
-0.00945376
0.020512
-0.0164528
0.00539456
-0.00266309
0.0730561
-0.070393
0.0150887
-0.0456678
-0.0181945
0.0475888
-0.031289
-0.00213232
-0.0141675
0.00117512
-0.0234381
-0.0203616
0.0426245
0.0363549
-0.0348035
-0.00155144
0.0596382
-0.042958
0.0676829
-0.0843632
-0.100894
0.0978599
0.100571
0.000576045
-0.0106892
-0.00217929
0.0122925
0.0514436
-0.000239175
0.000497151
0.000228057
-0.000486034
0.00131686
0.0459882
-0.109463
0.0621584
-0.00846735
-6.11468e-05
0.00477322
0.00375528
0.0269331
0.0114207
-0.0383538
0.00107508
-0.00135215
-0.00819028
-0.0319453
-0.0360144
0.0211738
0.0587678
-0.00187476
-0.0568931
0.0719381
-0.0426666
-0.0491799
0.0199084
0.00209438
-0.025575
-0.0203806
0.0659552
0.0450835
-0.0391006
-0.00775395
0.00940507
0.130131
-0.121277
0.0377809
-0.0466355
-0.0458023
0.0371229
0.0215749
-0.0128955
-0.0513653
0.0523192
-0.000953949
-0.0483819
0.0298469
0.00986162
-0.0482376
-0.00944284
0.0478188
0.00383032
0.161211
-0.166992
0.00195025
0.109239
0.0157275
-0.0163029
0.0511604
0.00788408
-0.0524257
-0.00661881
-0.0144037
0.00460536
0.010169
-0.00037069
-0.00942479
-0.00490161
0.00471227
0.00961412
0.0664212
-0.0352764
-0.0549072
0.0237625
0.0295499
-0.0161596
0.0213072
-0.0346975
0.0262839
-0.0959847
0.0915095
-0.0218087
-0.00537988
-4.79139e-05
-0.00897591
-0.0944788
0.107839
-0.0226148
0.00925516
-0.0111124
0.0497178
0.0129853
-0.0515908
-0.00410093
0.000182572
0.00275278
0.00116558
0.0851697
-0.00607329
0.0522949
-0.131391
2.74382e-05
-0.00071218
-4.39157e-06
0.000689133
-0.0661846
0.062798
0.0716729
-0.0682862
0.00301993
0.000826429
-0.0014974
-0.00234896
-0.0794508
0.0798943
-0.000443494
0.0628389
-0.0590093
-0.00382968
0.0607551
-0.000977437
-0.0597776
-0.0161221
0.128939
0.00199232
-0.114809
0.00963496
-0.0306519
0.0344291
-0.0242262
-0.000988498
-0.056544
-0.0701958
0.0123539
0.0645107
-0.00666876
-0.0126063
-0.00219832
0.00171365
-0.000689898
0.000298026
-0.00132177
0.00108486
-0.000424759
-0.000162714
-0.000497385
-0.0654499
0.0068434
0.000336239
0.0582703
0.000723647
-0.0050926
0.00133437
0.00303458
0.0112107
-0.0145152
0.000267033
0.00303747
0.00807137
-0.00737242
0.0105118
0.0576939
-0.0113358
-0.0266168
-0.0197413
0.0381897
-0.00584575
-0.03638
0.00403607
0.000172608
0.0683288
-8.96801e-05
-0.0684118
0.0077687
-0.0723615
0.0182159
0.046377
-0.0414167
-0.033969
0.0430466
0.0323391
-0.032273
0.015453
-0.0878433
0.104663
-0.000845769
0.0142446
-0.00681506
-0.00658378
0.0512326
-0.059219
0.0466439
-0.0386576
-0.0614883
-0.0118312
-0.00445235
0.000701831
-0.000410193
0.00400483
-0.00429647
-0.011068
-0.00242859
0.00126888
0.0122277
-0.00760846
-0.00870001
0.0104464
0.0058621
-2.53465e-05
-0.00216317
0.00121264
0.000975869
-5.1391e-05
9.4022e-05
-4.2631e-05
-0.00199164
-0.0667176
-0.0241003
0.0928095
-0.000122584
-0.000384636
-0.00123999
0.00174721
-8.54683e-05
6.27674e-05
-2.869e-05
-0.00364286
-0.0642068
-0.000127385
-0.000119462
0.000340869
0.000737596
0.00017523
-0.000454427
-0.000458399
-0.0268169
0.057667
0.07971
-0.11056
-0.00867777
-0.0021703
0.00687212
0.00397596
-0.0140988
-7.97132e-05
0.0055007
-0.00452853
0.0050313
0.0123022
-0.0128049
1.85541e-05
1.48e-05
-0.000160739
-0.0637215
0.067208
-0.00348649
0.0321352
0.0455181
-0.0595128
-0.0181404
0.0133991
-0.0757629
-0.0210164
0.0833802
-0.0127196
0.00277988
0.00541123
-0.00471369
-0.00578255
-0.00222341
-0.0152137
0.0612253
0.0109051
-0.0569167
0.068535
0.00319467
-0.0516526
-0.020077
0.000248335
0.000437625
-0.000634292
-5.16676e-05
4.45978e-05
-0.000111512
-0.00280188
-0.00108857
-0.00094268
0.00483314
0.0636057
-0.0448937
0.0134097
-0.0321218
-0.000650273
-0.0027352
0.00151437
0.00187111
-0.015175
0.0111356
-0.00416667
0.0082061
0.000258798
-0.105938
0.10224
0.00343876
0.00282166
0.000454733
-0.0100025
0.00672607
0.00949624
-0.00975105
0.00127697
-0.00102216
0.00971168
0.00331643
-0.0102065
0.0380846
0.0573673
-0.0318462
-0.0272108
0.0547428
0.0303231
-0.0578551
0.0288742
-0.056085
-0.000169818
-0.00182573
-0.0328427
0.0134923
-0.00995353
0.0781041
0.0242
0.00699334
0.073152
-0.0547742
0.0981983
-0.116576
-0.00124802
0.0921499
-0.0909018
-0.00680756
-0.00640139
0.0126742
0.000534776
-0.0337869
-0.0852203
0.0268805
0.0921267
0.0210922
0.0617222
-0.0229131
-0.0599013
-0.022831
0.114165
-0.0532491
-0.0413444
0.0440113
0.0520759
-0.056495
0.0581777
-0.00168266
-0.036815
0.0361887
0.000626368
0.0418095
-0.0819346
0.0734441
-0.033319
0.0652897
-0.0805034
-0.00850802
-0.00837582
0.0100763
0.00061098
0.00073451
-0.000464211
-0.000881279
-0.00831731
-0.0412022
-0.00697552
0.00123349
0.0013929
-0.0023396
-0.000286787
-0.0563677
0.0520904
0.0863731
-0.0820958
0.0342011
-0.0319002
-0.00230086
0.00973062
0.0279004
-0.0125685
-0.0250625
0.0038992
-0.000667132
0.00258166
-0.00581373
-0.0627152
-0.000718066
0.0210027
0.0424305
-0.00295617
0.00681174
4.36235e-05
0.0403502
-0.110858
0.104892
-0.0343838
0.0407956
0.016872
-0.0582959
0.000628359
-0.00371054
0.0070253
0.00138562
-0.00470037
0.000974102
0.0601054
-0.0610795
0.0357238
0.00637109
0.014349
-0.0564439
0.00386163
-0.00723118
0.00270242
-0.17984
0.0216107
0.169229
-0.0109996
0.0381897
-0.0102065
-0.0279831
-0.000885096
-0.00173461
-0.00131021
0.00392992
-0.0403186
0.0429782
0.128137
-0.130797
-0.00170317
0.00073287
-0.0022092
0.0031795
0.0880373
-0.0041423
-0.0430995
0.000333054
-0.00109628
0.00211576
-0.00135253
-0.0199802
-0.113252
0.015465
0.117768
0.00145063
0.0539276
-0.00176827
-0.05361
0.0467536
-0.0656998
0.05715
-0.0382038
0.032368
-0.0368023
0.0491189
-0.0446847
0.00893403
-0.00275724
0.00624759
-0.0124244
0.00293412
-0.0424119
0.0532157
-0.0564311
-0.0335869
0.101007
0.0171711
-0.0272228
-0.0909551
0.046592
0.0202825
-0.138201
0.0713265
-0.00130403
-0.00823942
0.00620095
0.0033425
0.0283748
-0.0498482
-0.00356764
0.0281658
-0.0250641
0.0076568
-0.00595255
0.000274866
-0.00197911
-0.0903089
0.00389116
-0.00333558
0.0782216
-0.154032
0.0791458
-0.0262469
-0.0892866
0.0433301
0.0722034
-0.0708057
0.0186309
0.000177005
0.0519978
-0.0454252
0.0283858
0.0136188
-0.081339
0.0951976
-0.0138586
-0.0244667
-0.00937317
0.125721
-0.0918808
-0.00337455
-0.00415854
0.00593108
0.00160201
-0.0258462
0.0619579
0.0408491
-0.0714854
0.0288188
-0.000599309
-0.000396849
-0.00103668
0.00203283
0.0476863
-0.0497586
0.0554993
-0.0353356
-0.00702748
-0.0448799
-0.121403
0.0439236
0.0774789
-0.0444927
-0.0334778
0.0295886
0.00290175
-0.0020234
0.000430269
-0.00130862
0.00215834
-0.000284924
0.00102834
-0.0874674
0.00553692
0.0819304
0.063596
0.0117567
-0.123671
0.0483184
-0.073265
0.00366043
0.0696046
0.000766459
-0.00137136
0.00799872
-0.00739382
0.0476803
0.162229
-0.230072
0.0201634
0.00140947
-0.00235594
0.00168249
-0.000736023
-0.0938182
0.0681195
0.0227659
0.00293283
0.00114627
0.00125137
-0.00254975
0.000152109
-0.000985614
0.00867553
-0.00743881
-0.000251104
0.00772313
0.00836996
-0.0162852
0.000192099
0.0394417
0.0114779
0.00273623
-0.0025486
0.00122184
-0.0957789
0.107564
0.00148691
-0.0132719
0.0119443
-0.0675689
-0.0223295
0.0779541
-0.00145306
-0.00125887
0.0893433
-0.0866314
-0.0400051
-0.0392469
0.0889399
-0.00968793
-0.0381826
0.024011
0.0386577
-0.0244861
0.0496791
0.0214723
-0.0702161
-0.000935331
-0.0035007
0.00123891
0.00250735
-0.000245566
-0.122062
-0.0403359
0.0394294
0.122969
0.0496323
-0.0397707
-0.0312191
-0.0358077
-0.0322665
0.0992933
-0.00181299
0.0040443
1.61028e-05
-0.00224741
-0.0263345
-0.0859138
0.028233
0.0840153
-0.0276917
-0.0278181
0.0201741
-0.00102872
-0.00280767
-0.00146369
0.00337304
-0.00344276
0.00153341
-0.00696671
0.00641544
0.019004
-0.0733002
-0.079894
0.13419
-0.000323929
0.000120445
5.59604e-05
0.000147523
0.0525999
-0.0556376
0.0452835
-0.0422458
-0.0146105
0.0406179
-0.0053754
-0.020632
0.0856579
-0.0860592
-0.0194364
0.0198377
0.0263243
0.0208094
-0.0618754
0.0147417
-0.131576
0.0748698
0.0180543
0.0386516
-0.00471503
0.00235294
-5.2213e-05
0.00241431
-0.00743161
0.00877662
-0.000578558
-0.0148048
-0.00298524
0.0189047
-0.00111467
-0.0638758
-0.00313968
0.0165867
0.0504288
-0.00530753
0.101282
-0.00484681
-0.0911273
0.00486634
-0.0476618
0.0805581
-0.0377626
-0.00177675
0.00377845
-0.00152832
-0.000473375
-0.0156984
0.00123847
-0.00268133
0.0171413
-0.104896
-0.00167302
0.0134665
0.0931026
-9.11102e-05
-0.000102561
0.000109603
8.40678e-05
0.0387926
0.00818077
0.0264926
-0.00637704
0.0453929
0.0562892
-0.0953051
-0.000122464
-7.41632e-05
0.000105517
-0.00058583
0.00224485
-0.00134288
-0.00031614
0.0191569
0.110885
-0.0491174
-0.0809247
-0.000112427
9.86649e-06
1.84903e-05
-0.000130917
0.0618948
0.0168794
-0.0904286
0.0116544
-0.159593
0.0830195
0.0808106
-0.00423729
-0.0174524
0.000193327
-0.050035
0.0672941
0.0246146
-0.0148277
0.0187454
-0.0285323
-0.0679855
-0.0199412
0.0879267
-0.0750969
0.0369903
0.0381065
-0.00177099
-0.00031381
-0.000150449
0.00223525
-0.0406434
0.0420721
0.00931096
-0.0107396
0.0477264
-0.0547093
0.00698291
-0.0582147
0.0343904
0.0453604
-0.0215361
0.00387369
-0.00171513
-0.00213736
-2.12043e-05
-0.00300125
-0.00253937
0.000825591
-0.0425484
-0.0465191
0.0464644
0.0149758
0.00267364
-0.0641138
0.000111556
-0.000754548
0.00162628
-0.000983291
-0.014868
0.0175674
-0.00864913
0.0059497
0.00717792
0.0207951
-0.0394907
0.0115177
-0.0215596
-0.0133683
-0.00776501
0.0426929
-0.0738351
-0.0106074
0.0270094
0.0574331
-0.00136481
0.0149545
-0.0087377
-0.00485201
-0.0559573
0.00199374
0.0324039
-0.00102338
0.0283668
-0.138727
0.126042
-0.0156819
0.0285019
-0.0331463
-0.0530642
-0.029643
0.0585172
0.00207502
0.0377533
0.00216321
-0.0419916
-0.0602873
-0.06172
0.122007
-0.00285471
-0.000650543
-0.00183063
0.00533589
0.00330253
-0.00458961
0.00152819
-0.00024111
0.0358647
-0.00554928
-0.0287012
-0.00161425
-0.00322222
-0.00177599
0.0021435
0.00177963
-0.00402215
0.0637707
-0.0615282
0.0743218
0.00217226
0.0277563
0.00843382
-0.00409585
-0.0320942
0.0576673
-0.00178177
-0.0558855
-0.0547417
0.115695
-0.02877
0.0588172
0.0225069
-0.0525541
-0.0149204
-0.0226924
0.0151951
0.0224177
0.00343331
0.00343749
0.000789003
-0.0076598
-0.0370593
-0.0364942
0.100702
-0.0271482
0.0431579
-0.033884
-0.00104415
-0.00822975
-0.051863
0.11726
-0.0508058
-0.0145913
-0.00186186
0.00206485
-0.000152403
-5.05881e-05
-0.00078505
0.0218474
-0.00370381
-0.0173585
0.00240756
0.00365655
0.000246755
-0.00631086
-0.000424995
-9.89694e-05
3.48899e-05
0.000489075
-6.07056e-06
3.79516e-05
-0.000456876
-0.0091686
0.0293306
0.0649884
-0.0851505
0.0807588
-0.0831017
0.00234289
0.000550286
-0.000537639
-1.26472e-05
-0.0134185
0.00110702
0.00212503
-0.00151414
-0.00171791
-0.0104113
-0.00758454
0.00672231
0.0112736
-0.0560894
0.0273194
0.000344113
0.00037561
-0.000836205
0.000116483
0.032413
0.0565283
-0.0395312
-0.0494102
0.0167742
0.152264
-0.17568
0.00664161
0.0583181
0.0639983
-0.0634992
0.00200228
-0.0124607
-0.00129522
0.0117536
-0.032203
-0.0310203
0.0632233
0.0319065
-0.0641095
-0.0531307
-0.0435561
-0.0678539
0.164541
0.0496582
-0.0569204
0.00726216
-0.0708719
0.133453
-0.0739167
0.0322963
-0.0297609
0.0848068
-0.0033502
-0.0683017
-0.0131549
0.0709421
-0.0700264
0.0136928
-0.0146085
-0.000471469
-0.00568974
0.0074321
-0.00127089
0.00104515
-0.00527754
0.00566843
-0.00143603
-0.000104222
-8.8506e-05
0.000849891
-0.000657163
0.0207431
0.0220084
-0.0325922
-0.0101593
-0.00502947
-0.0054754
0.00582422
0.00468064
-0.00968058
0.0307099
-0.04128
0.0202507
0.000848747
-0.00808566
0.0111842
-0.00394729
0.0475506
-0.0026373
-0.0449133
0.0394674
0.0378253
-0.125686
0.0483932
-0.0993528
0.0583859
0.0804343
0.0343073
-0.101754
-0.0429336
0.106546
-0.042631
-0.0209817
0.00208626
0.00876358
-0.0124727
0.00162288
0.026268
-0.0042462
-0.0220218
-0.0298487
0.0453009
-0.00354929
0.0191412
-0.0324433
0.0015861
0.00015226
0.000535808
-0.00227417
0.0115426
-0.0366068
-0.000956306
0.000186624
-0.000767061
0.00153674
0.00266071
6.98243e-06
0.00064412
-0.00331182
0.00145122
0.00069849
-0.0769723
-0.0149439
0.00240449
-0.010992
0.0235315
0.0191265
-0.0907796
0.0197734
0.0518797
-0.00362567
0.0584218
-0.0820572
0.0272611
0.000280298
-0.000496999
0.00228342
-0.00206671
0.0838948
0.0123118
0.000133875
-0.0963404
-0.000895739
-0.000900664
0.00191963
-0.000123229
0.00681688
-0.00385486
-0.0708852
0.0679232
0.00599538
-0.00114464
-0.00428159
-0.000569144
0.0057941
0.00430643
-0.00339994
-0.0067006
-0.110275
0.097009
-0.0867023
0.0999678
-0.0564401
0.10838
-0.0519395
0.00348293
-0.0447589
0.0104198
0.0308561
0.00334043
-0.00403052
0.00120376
-0.000513663
0.0472162
3.59813e-05
0.00026608
-0.134028
0.00388574
0.075401
-0.0337592
-0.00111875
0.000928882
0.0289778
-0.0233733
-0.00653335
0.0762644
-0.0271295
0.0324821
0.00367385
-0.00450153
3.53366e-06
0.000824145
0.0344818
0.0224701
-0.0743992
0.0174474
-0.00117554
0.000740813
0.00086668
-0.000431949
-0.000488212
0.00132505
0.00495726
0.000722552
-0.00721327
0.00593329
0.00495384
0.0796744
0.0407868
-0.0387594
-0.0817018
-0.135613
0.148111
-0.0118406
-0.00065756
0.0304492
-0.0317231
0.00127387
-0.035164
-0.000996406
0.000262455
-0.00294311
-0.00182087
0.00825475
0.212443
-0.154883
-0.0658149
0.0303902
-0.0639784
-0.0164454
0.0500335
-0.00264439
0.0373404
-0.000288713
-0.0864173
0.0493656
-0.0210949
0.00840094
-0.0386675
0.0485068
0.0469408
-0.05678
-0.06966
0.0858778
-0.145728
0.12951
-6.92332e-05
0.000205466
-0.00154056
0.00140433
0.000298126
0.0021904
-0.000811918
-0.00167661
0.0466358
-0.0206755
0.0437935
-0.0697538
-0.0036074
0.000500407
0.00310764
-6.53495e-07
-0.0110218
0.0111731
-0.0388188
0.0105384
-0.0418324
0.0056375
-0.00313013
0.0177134
-0.0202207
-0.128267
0.0164368
0.120535
-0.00870461
0.0391767
-0.0256843
-0.0202302
0.00673783
0.0331386
-0.0571426
0.0129822
0.00367432
0.00667
0.0528685
-0.0632128
0.023845
-0.00645878
-0.0246263
0.00724005
-0.0811279
-0.00686033
0.0163852
0.00124774
-0.000925961
-2.36495e-05
0.000559731
0.00710833
0.00156457
-0.00923263
0.0179896
-0.0313281
0.0371836
0.0139989
-0.140348
-0.0223046
0.148653
-0.109357
-0.0175453
0.0228523
0.10405
0.0538284
-0.0340052
0.0322585
-0.0520818
0.110853
-0.00755231
0.00462201
-0.107922
-0.015946
-0.0364014
-0.00393185
-0.0149624
0.00730487
0.0115894
-0.00118884
0.000450034
5.09706e-05
0.000687837
0.012315
-0.0760037
0.0636887
0.102893
-0.00446662
-0.114548
-0.0236282
0.0557085
-0.0480263
0.0382651
-0.121092
0.0131075
0.0697199
-0.00592541
-0.0129304
-0.0255305
0.0443862
0.00870563
0.0453032
0.0776482
-0.124453
0.00150178
0.0471721
-0.0840056
0.0927998
-0.0559662
-0.0975255
0.0955073
-0.00552305
0.00754129
0.000668061
0.00165528
-0.0918984
0.089575
-0.00130319
0.00366178
0.00579837
-0.00815695
8.07974e-05
-0.000841577
-0.000196494
0.000957274
0.0870874
0.00257493
-0.0183769
-0.0712855
-0.000178976
0.000131938
0.000144954
-9.79164e-05
0.000557688
0.00313517
-0.00184564
-0.00184722
-0.00175861
-0.000853471