/*--------------------------------*- C++ -*----------------------------------*\
| =========                 |                                                 |
| \\      /  F ield         | OpenFOAM: The Open Source CFD Toolbox           |
|  \\    /   O peration     | Version:  2506                                  |
|   \\  /    A nd           | Website:  www.openfoam.com                      |
|    \\/     M anipulation  |                                                 |
\*---------------------------------------------------------------------------*/
FoamFile
{
    version     2.0;
    format      ascii;
    arch        "LSB;label=32;scalar=64";
    class       volVectorField;
    location    "0.00481384";
    object      U;
}
// * * * * * * * * * * * * * * * * * * * * * * * * * * * * * * * * * * * * * //

dimensions      [0 1 -1 0 0 0 0];

internalField   nonuniform List<vector> 
47425
(
(9.92229 -0.371252 0.0223975)
(9.58223 -0.864131 -1.21494)
(9.66435 0.131212 -0.25367)
(10.7549 -0.273427 0.331941)
(11.0376 0.0958588 0.659812)
(9.68369 0.236128 -0.0648861)
(10.8705 0.0688538 0.700832)
(10.0063 0.307425 -0.136841)
(10.3708 -0.20554 0.202511)
(7.68499 3.01089 -0.510061)
(10.0173 0.273591 0.293622)
(10.3791 -0.116772 -0.501499)
(10.9298 -0.00417448 0.258585)
(9.85041 -0.156729 -0.267724)
(9.13333 0.55467 -0.60259)
(8.35734 -0.141224 1.54952)
(8.74945 0.0426389 -0.226173)
(8.82247 -0.348584 -1.07419)
(9.5106 0.377148 -4.05634)
(12.205 -0.237698 0.145648)
(10.6436 -0.373779 -0.320983)
(9.66854 0.302528 -0.393106)
(10.0127 -0.438727 0.575437)
(9.74483 -0.0614042 -0.0290096)
(9.3374 -0.405785 -0.383008)
(10.5173 -0.312088 -0.0465762)
(9.83979 -0.0576623 -0.0670682)
(12.2424 0.110201 -7.27925)
(9.82698 0.550106 -0.0394191)
(9.20439 0.23657 0.325206)
(9.77728 0.296635 -0.169987)
(10.0045 0.10488 0.0548946)
(9.86234 -0.578282 -0.193146)
(10.0685 1.5289 0.0541781)
(10.1457 -0.397697 0.629984)
(8.82458 -0.366539 0.469566)
(9.7557 0.253781 0.01654)
(9.05792 1.19236 -1.48462)
(10.0465 -1.41745 -0.477252)
(9.92856 0.0435161 -0.264873)
(9.94448 -0.0176798 1.56226)
(9.48044 0.0769256 0.187187)
(9.44759 -0.266669 0.0764979)
(9.44284 0.0523333 -1.06491)
(3.0085 -2.14374 -2.3721)
(10.5083 0.338159 0.775966)
(9.95216 0.350524 -0.135962)
(9.51535 -0.240508 0.168883)
(9.85788 -1.43103 -0.137821)
(9.99012 -0.0868311 0.269873)
(2.2642 -0.382963 -4.92208)
(9.81691 0.309545 0.273569)
(10.2953 -0.174947 0.471677)
(8.15036 -3.59338 0.433467)
(9.40702 0.366515 -0.980634)
(10.0106 -0.552044 -0.185893)
(9.88289 -0.038137 -0.288793)
(9.56632 -0.485568 1.00734)
(11.9896 -0.245615 -0.515139)
(9.63405 1.05411 0.0643483)
(7.62517 -3.53127 -0.221084)
(6.72996 -0.63342 0.721734)
(7.69835 -5.33875 -0.0387078)
(9.32434 -0.574389 0.318976)
(9.24941 0.636505 1.47686)
(10.2109 -0.0744659 0.143654)
(9.33981 0.422264 0.669951)
(9.976 -0.435401 0.723902)
(8.94972 -4.49964 1.6772)
(9.22136 0.160484 0.87358)
(10.4801 -0.265825 0.223825)
(10.6272 0.0234276 0.236256)
(10.3031 0.0204709 -0.0493401)
(10.7429 0.0749938 -0.679742)
(8.44787 5.05307 0.525984)
(7.45039 0.213479 0.320999)
(7.81506 -5.75173 0.461652)
(9.45286 0.411458 -0.0411453)
(8.50251 -4.44247 1.56519)
(10.8253 0.0210337 1.00871)
(8.72749 5.5714 0.676844)
(10.1533 -0.466834 0.184704)
(9.40358 -0.0772086 -0.0357597)
(9.96251 -0.294246 0.822084)
(9.25137 0.552793 -0.480901)
(8.98212 0.41571 0.132959)
(10.0348 -0.099886 0.266591)
(10.1022 -0.579016 -0.408774)
(9.67809 0.342388 -0.305623)
(10.7163 -0.0509404 1.5121)
(9.92063 0.00678632 -0.313407)
(10.2663 -0.816988 -0.0420269)
(10.3076 -0.0221121 0.43101)
(9.92729 0.466134 0.313873)
(9.17067 0.200189 -1.35335)
(9.88119 -0.517011 -0.199012)
(9.97276 -0.102359 -0.146178)
(10.5021 -0.209357 -0.228518)
(10.2128 0.294795 0.711592)
(10.2713 1.21787 0.821367)
(9.02412 0.124773 -0.0721335)
(8.89034 0.22817 -2.9422)
(10.2737 -0.11646 -0.314502)
(5.59807 1.61216 -0.0781079)
(10.1447 -0.221086 -0.0856633)
(9.48294 0.384193 0.757291)
(9.12169 -0.0256297 0.0592647)
(9.67617 0.379834 -0.14699)
(10.1606 -0.0682043 0.307013)
(10.2175 -0.907082 -0.185621)
(3.98022 -0.289223 -1.08129)
(9.86379 0.527672 0.290659)
(9.89879 -0.411111 0.249696)
(9.6407 -0.237192 0.477652)
(10.2199 0.207032 0.336899)
(1.91302 -3.86755 -5.13377)
(10.3436 -0.142696 -0.322019)
(4.38237 0.0789406 -3.40932)
(10.6543 0.987235 0.188719)
(10.26 0.198595 0.221303)
(9.25594 0.136045 0.0804945)
(9.30696 -0.243949 0.700396)
(9.83794 -0.0724342 -0.0173915)
(10.9787 0.426042 -0.265758)
(9.02938 1.40661 0.497427)
(9.72959 -0.314623 -0.00478782)
(9.9691 0.414466 -0.142048)
(9.37804 0.158726 0.695495)
(9.31888 0.71381 -0.776779)
(10.0042 0.302897 0.388603)
(9.4505 0.121177 -0.0277741)
(9.72375 0.755928 -1.20492)
(4.92785 0.115658 1.49707)
(9.93095 -0.268701 0.294855)
(9.99092 0.15835 -0.0300865)
(11.3395 -0.264081 -0.348964)
(10.4652 0.212119 0.162646)
(9.74183 -0.31623 0.0395418)
(9.30552 1.4405 0.41262)
(10.7852 -0.17489 -0.548825)
(10.0327 1.14872 0.920877)
(10.8475 0.0761633 0.532516)
(9.99579 -0.702251 -0.0908714)
(9.89056 -0.351111 0.279049)
(9.76925 -0.0941692 -0.47566)
(9.95901 -0.630363 -0.109243)
(10.7067 -0.0105394 0.882413)
(10.3666 -0.22701 0.498257)
(10.1398 -0.0202941 0.649033)
(10.3459 -0.17583 0.0559808)
(9.94697 -0.377848 0.312536)
(3.19937 -0.375715 -6.1771)
(9.70925 0.15439 0.789299)
(6.49023 0.152175 -11.0922)
(9.13827 -0.826711 -0.199651)
(10.1827 0.00199555 -0.18538)
(10.5557 0.356829 -1.04683)
(8.68605 -3.05999 -2.05054)
(11.0767 -0.456665 -0.74395)
(9.85528 -0.617929 -0.348283)
(10.3349 -0.176833 0.334356)
(10.1463 0.502554 -0.733203)
(9.68845 0.640578 -1.41973)
(9.77085 0.346969 0.288798)
(12.3132 -0.0157404 0.701324)
(4.59206 -1.29685 -1.46135)
(10.4853 -0.0869539 -0.683566)
(8.67993 5.06253 0.548741)
(9.8522 -0.822945 0.138297)
(12.615 0.280799 -3.00465)
(9.15768 5.00437 0.264421)
(9.3432 1.9129 -0.737664)
(9.96744 0.262506 -0.217071)
(9.60514 -0.650335 -0.333975)
(10.6349 -1.83895 0.33637)
(9.56753 -2.37337 -0.76167)
(3.09628 0.484688 -7.07019)
(9.9395 0.281411 -0.747712)
(9.88055 -0.114686 1.04136)
(10.1099 -0.280746 -0.0489425)
(2.77713 0.0171058 -10.8863)
(9.4052 -0.20953 -0.868448)
(8.79059 -0.336852 0.272405)
(8.72257 -1.44534 -0.219388)
(10.0151 0.0321594 -0.0175129)
(9.11377 1.14477 -0.245547)
(10.3951 -0.240037 0.288295)
(5.93441 -0.11901 0.136507)
(9.10075 0.0420399 0.783531)
(9.60506 0.405997 -0.302076)
(10.0944 -0.510693 0.09131)
(9.5745 -0.607676 -0.278169)
(10.0668 0.404587 -0.798547)
(10.1361 1.22044 -0.387681)
(9.99025 -0.508672 -0.451287)
(10.4398 -0.207065 -0.00646396)
(10.504 0.812349 -0.693019)
(9.11531 -0.613845 0.413879)
(10.3826 -0.121596 0.0856028)
(9.71971 0.0363998 -0.733621)
(9.58579 0.190976 -0.886212)
(9.13525 -0.635153 0.17498)
(10.2999 0.332152 -0.12285)
(10.015 -0.291907 0.16306)
(9.99323 -1.01589 -0.383329)
(10.1958 -1.3147 -0.185604)
(9.87844 -0.559973 1.34152)
(10.3132 -0.175714 0.0181655)
(9.0737 -0.475778 0.480521)
(7.73057 1.25182 0.507917)
(9.88823 -0.050618 -0.822821)
(10.4432 0.0146946 0.321598)
(10.3458 0.445567 0.228437)
(9.64593 -0.576151 -0.751818)
(10.5003 -0.409707 0.504863)
(10.3902 -0.098363 -0.150216)
(10.269 1.18293 0.158441)
(11.0684 -0.152944 1.08241)
(8.80181 -0.971654 -0.162228)
(9.92143 0.252007 -0.060112)
(10.5605 -0.17313 1.38977)
(10.0053 0.493605 0.0839712)
(9.94575 -0.267956 -0.078917)
(10.0553 -0.849943 -1.08061)
(10.0015 -0.568423 1.23473)
(10.5348 -0.290869 1.33802)
(9.054 -0.0657449 0.354864)
(10.7387 -0.532938 -1.09105)
(10.3452 0.518834 0.149947)
(10.3453 0.816762 -0.0510632)
(10.1535 0.134715 0.278969)
(10.066 -0.155629 0.238563)
(9.46758 0.0705716 -0.816474)
(9.5549 -0.722327 0.726918)
(9.66719 0.0733361 -0.394614)
(9.87387 0.0996788 -0.0923145)
(10.8991 0.156097 1.03813)
(9.73259 -0.222125 -0.97415)
(10.9021 0.0970589 0.975728)
(9.92715 0.729175 -0.00265261)
(9.59519 -0.388966 0.498843)
(9.03096 -0.300909 -0.842341)
(9.47669 0.0847693 0.641584)
(10.6852 -0.380863 0.470002)
(10.5348 0.281825 -0.144431)
(8.3538 0.60908 0.580297)
(10.0783 0.0089391 0.497795)
(8.36419 2.11715 -0.929365)
(9.55961 -0.594415 0.36265)
(9.93143 0.314712 0.0734291)
(9.62154 -0.615448 0.374146)
(10.5409 -0.137259 1.07305)
(9.51438 -0.136569 0.784189)
(9.47827 -1.06762 -0.458204)
(8.75885 -0.311627 -1.05139)
(9.77778 0.274249 -0.221636)
(10.1624 -0.0811204 0.764119)
(9.35315 0.993117 1.3231)
(10.4153 -0.244005 0.203144)
(9.14734 0.767158 -0.0505489)
(10.7618 -0.464011 0.746423)
(9.80309 -1.03553 1.0049)
(10.3687 0.229921 0.305418)
(10.1575 -0.726936 0.600516)
(10.58 -0.124453 0.416745)
(10.1456 0.623881 0.624605)
(10.06 0.475086 -0.522184)
(10.6435 -0.1418 0.309185)
(10.1333 0.121898 0.210369)
(11.092 0.186263 0.825178)
(10.2203 0.577723 0.419574)
(10.9875 0.157057 0.792537)
(10.9906 0.168513 0.847475)
(9.48954 -0.659141 -0.43676)
(10.8609 -0.0410439 0.926607)
(9.90695 -0.629434 -0.334795)
(10.9182 0.0603422 0.845029)
(7.56754 2.57932 2.82819)
(10.9465 0.101147 0.915889)
(6.05269 0.693674 -4.46529)
(7.31847 -3.3302 -0.2897)
(10.3519 0.431443 -0.0755743)
(7.40796 -3.08773 -0.615556)
(10.1129 0.388027 -0.260541)
(9.50711 0.326153 0.312458)
(10.5729 0.25958 0.476404)
(9.67933 -0.572446 -0.477692)
(9.4405 0.567961 -0.0762402)
(9.69384 -0.138506 2.2617)
(9.78911 -0.225078 0.402469)
(1.30766 1.27563 -3.18036)
(9.25281 0.333579 0.145496)
(9.73736 0.238336 0.30026)
(10.0562 -1.222 0.283823)
(9.74851 0.354421 0.0271877)
(10.9775 0.0142588 -0.78375)
(10.3017 -0.0956989 -0.0541504)
(10.3164 -0.0815022 0.0785737)
(9.33018 0.0889829 -0.101502)
(10.496 0.261338 0.351323)
(9.91208 0.972274 -0.806769)
(9.88293 -0.443129 0.399381)
(9.28205 -0.802126 0.90165)
(9.76046 0.259035 -0.0785757)
(15.4535 0.254361 0.53994)
(12.3024 -4.25978 1.79659)
(1.63036 0.734482 -5.96888)
(9.92772 0.239071 0.501157)
(9.75334 -0.0565751 0.727224)
(9.80935 -0.364339 -0.218397)
(9.67189 -0.338767 0.062876)
(1.07777 -0.411681 -4.95355)
(9.57878 -0.176379 0.0162092)
(9.83957 -0.178081 -0.316484)
(9.79784 1.46042 0.961075)
(9.86599 -0.499206 -0.514755)
(9.91407 -0.122784 0.211241)
(10.1412 0.47598 1.06593)
(10.1876 0.677031 0.360557)
(13.289 -1.32714 0.634574)
(9.8897 1.32336 0.996523)
(9.55434 0.288542 0.939118)
(9.98338 0.489776 -0.0844663)
(9.46164 0.00447098 0.237627)
(9.00088 1.84796 -0.527444)
(9.71993 0.214887 0.573003)
(10.4122 -1.02527 -0.379846)
(10.263 -0.271735 -0.328214)
(9.8163 0.171066 -0.210025)
(9.71571 -0.226001 1.40332)
(10.3266 -0.105906 0.226755)
(11.8627 -4.87889 1.74336)
(10.1802 -0.447454 -0.968097)
(9.38299 -0.0211049 -0.0445274)
(10.5534 0.14953 0.428847)
(9.68639 0.81627 0.0516645)
(12.6587 -4.7144 2.25037)
(9.60343 -0.119992 0.114512)
(9.61252 0.101554 0.286686)
(9.71309 -1.30045 -0.264069)
(8.72791 0.497884 0.0063027)
(9.84382 0.450278 -0.138505)
(9.84561 0.388491 0.0417439)
(9.40663 -0.310091 0.489483)
(9.5474 -0.232523 1.04237)
(9.61489 0.501705 -0.979389)
(10.5082 0.0442797 -1.04936)
(10.0673 -0.0356647 0.180665)
(9.78497 -0.0772085 0.292553)
(9.41792 0.167686 -0.790111)
(10.5105 -0.157345 0.0802753)
(10.3135 -0.00532463 0.195332)
(10.1663 -0.094227 -0.141298)
(9.64485 -0.374659 0.234637)
(9.5318 -1.51481 -0.02404)
(11.0114 -0.402722 0.33407)
(10.2329 0.586767 0.93764)
(9.54952 -0.094721 0.041455)
(9.64839 -0.501562 -0.259028)
(10.1416 -0.0312137 -0.11918)
(10.6809 0.251986 1.40736)
(10.1609 -0.397576 -0.533117)
(9.62617 -0.966133 -0.236484)
(10.367 0.0972783 -0.0731798)
(9.82499 0.0394595 -0.186423)
(9.7933 0.352837 0.290607)
(10.2584 -0.633689 0.0746204)
(9.63092 -0.0733278 -0.324714)
(10.2417 0.517297 -0.095211)
(10.0891 0.322485 -0.0636303)
(10.1463 -0.642093 -0.0264296)
(2.80575 -1.94706 -1.93243)
(10.4172 -0.185943 -0.291559)
(9.81467 0.584165 0.0148645)
(9.74966 -0.160055 -0.541247)
(9.79129 0.417283 -0.0281612)
(8.84296 -0.0287967 0.30319)
(10.1577 -0.16374 -0.0837107)
(9.79599 1.54259 -1.13402)
(9.54454 0.000936566 -0.145887)
(10.096 0.893548 -0.999407)
(10.0927 0.418177 0.0760329)
(9.85937 -0.189291 -0.179258)
(10.3059 0.025414 0.0478214)
(9.39737 0.128557 0.609539)
(10.3026 0.591092 -0.103492)
(10.2736 -0.837658 0.13187)
(9.77086 0.995972 -0.0338032)
(10.3186 0.253525 -0.872237)
(10.0274 -0.917494 0.149113)
(10.3154 0.337448 -0.145132)
(10.0847 0.87105 -0.0416131)
(10.4476 -0.0134184 0.16434)
(10.2617 -0.21459 -0.180974)
(10.1964 -0.452805 0.618828)
(10.1439 0.377987 -0.114673)
(9.59771 0.21417 0.212477)
(10.157 -0.702795 0.257247)
(10.4803 -0.906611 -0.482793)
(10.0757 0.407838 -0.089198)
(10.7394 -0.635033 1.36403)
(10.3956 0.207117 -0.267012)
(9.47497 -1.45009 -2.01156)
(9.88003 0.706744 -1.27474)
(10.746 -0.316502 0.385796)
(10.0556 1.81176 -0.549375)
(9.73374 0.873631 -0.241774)
(9.85842 -0.0198555 0.452149)
(10.2274 0.0336764 0.87787)
(9.89194 -0.314145 -0.580237)
(9.953 0.778888 -0.188502)
(7.20917 5.56737 0.372901)
(2.70613 -0.457384 -1.7998)
(10.5383 0.125633 0.0774714)
(10.1166 1.0127 -0.276295)
(10.4932 0.369145 0.31372)
(10.5722 0.439627 -0.0548062)
(9.9771 -0.0602057 0.176971)
(10.1672 -0.80544 0.680653)
(10.2888 0.280623 0.0315754)
(9.3258 -0.630495 -0.413576)
(9.05867 -0.310687 -0.664182)
(9.37435 -0.571141 -0.676704)
(10.292 0.366659 -0.524318)
(10.2807 -0.476849 0.118276)
(9.89132 0.536153 -0.106602)
(10.1639 -0.639223 0.30935)
(10.7388 0.287563 -0.0972653)
(10.5578 0.341731 0.110081)
(8.28881 -0.91297 -4.42435)
(0.0966684 1.35022 0.447782)
(10.1158 -0.576059 0.352694)
(7.96017 -0.785431 -4.90695)
(-0.362194 -0.564662 -1.0139)
(8.83577 -0.193219 1.22296)
(-1.69695 1.05631 0.211439)
(10.8059 -1.45074 1.29115)
(9.41648 -1.1359 0.289128)
(10.3926 0.591138 -0.270324)
(10.5648 0.727049 -0.330653)
(10.6627 0.255986 -0.211593)
(-1.56448 0.111574 -0.0858391)
(9.9744 0.0140601 0.776023)
(9.95217 -0.453717 -0.749675)
(9.77144 -0.0875825 -0.595721)
(10.6789 0.36669 -0.176784)
(10.6285 0.401493 -0.222168)
(9.82765 0.414235 0.816073)
(9.76043 0.278585 -0.364681)
(9.45463 2.23186 1.69582)
(-0.377619 -0.084723 -0.209761)
(12.4886 -0.190145 -1.83257)
(10.1959 -0.608074 -0.286448)
(8.71403 -0.329307 -2.6632)
(9.69528 0.383904 0.382909)
(10.178 0.509978 -0.060763)
(10.472 0.0434058 0.205179)
(10.9215 0.0956413 0.358795)
(10.2685 0.0567556 0.10189)
(9.70648 -0.0714972 -0.153114)
(10.4367 0.432993 -0.254728)
(9.12552 0.835774 -1.33625)
(9.55401 -1.20105 -0.181848)
(9.02866 -0.98121 0.216571)
(9.66524 0.781922 0.570697)
(9.96875 -0.513411 -0.227153)
(9.64566 -0.294046 -0.365162)
(10.4581 -0.182813 -0.105839)
(9.69678 -0.410737 -0.588386)
(9.04302 0.667934 -0.24812)
(10.1658 0.27615 0.116542)
(9.99648 0.125958 -0.573462)
(9.5006 -0.462363 1.359)
(9.84495 -0.387396 0.414102)
(9.912 -1.03424 -0.319027)
(10.041 0.305901 -0.61067)
(10.5337 -0.252279 0.108624)
(9.05861 2.57702 1.21058)
(9.49633 -0.850221 -0.221564)
(11.4571 1.06012 -0.55562)
(10.1659 0.204731 -0.175506)
(10.5617 -0.394606 0.797648)
(9.6077 -0.270942 0.982437)
(9.75893 0.717358 -0.343998)
(9.2677 -0.321076 -0.373629)
(9.79494 0.892659 -0.350916)
(10.162 -0.0767436 -0.0946576)
(9.31434 -1.08223 0.380998)
(10.003 0.94281 -0.561552)
(10.1189 -0.231386 0.381071)
(10.0939 -1.00503 -0.0051479)
(9.83081 0.920656 -0.315353)
(10.3071 -0.106719 -0.369951)
(10.2022 0.210086 -0.332641)
(8.3238 0.156953 -3.22928)
(9.97115 -0.610843 -0.039833)
(9.67663 1.42762 -0.310692)
(8.93984 0.0316463 -0.513466)
(9.23483 1.61859 -0.471981)
(10.107 -0.163194 0.625239)
(9.67867 -0.308876 1.04934)
(9.78117 0.354708 -0.288232)
(10.2549 -0.169504 0.500695)
(11.0848 0.0107546 0.532269)
(9.65075 0.930335 0.0449863)
(9.85121 0.0310798 -0.647732)
(9.04144 -0.285243 -0.656544)
(10.5307 0.371651 -0.0617869)
(10.4434 -0.104452 0.0408269)
(10.1566 -0.222866 0.0955045)
(10.2557 -0.0575494 -0.0549751)
(8.95247 0.0154055 -0.345467)
(10.2652 0.117937 0.220224)
(10.2168 0.405035 0.116837)
(9.01804 -0.00904674 -0.570097)
(9.93333 0.838898 -1.18244)
(10.0962 -0.125117 0.56189)
(9.41697 1.13945 -1.34431)
(10.3173 0.265064 -1.70807)
(10.1694 0.878486 -0.667333)
(10.8041 0.188173 0.144406)
(8.30161 0.0517726 -2.28592)
(3.03949 -0.156824 -5.02573)
(10.2764 -0.370252 -0.264309)
(9.91336 0.268251 -0.666854)
(10.0842 -0.468458 0.147097)
(10.1554 -0.326166 0.566484)
(11.5863 0.003891 0.764408)
(11.5861 -0.327975 1.02863)
(10.0385 0.806414 0.732413)
(10.3286 0.809683 0.586597)
(9.78577 0.845276 -0.0117106)
(10.4792 0.241719 0.658656)
(10.5124 0.0452313 0.323072)
(11.836 0.577661 0.819186)
(8.97003 -1.05698 0.572507)
(-0.599305 1.43057 -1.50029)
(8.12353 0.0383813 -0.358033)
(10.1069 0.0152255 1.9696)
(8.17593 -0.156157 0.0428055)
(11.6975 0.457295 0.845552)
(9.94638 -0.275016 0.180861)
(10.1539 0.1177 0.035061)
(9.77264 0.517335 -0.640345)
(9.71053 0.326193 1.22123)
(9.59515 -0.184345 -0.290039)
(9.63294 -0.757471 -0.704237)
(12.5599 5.14293 2.04627)
(9.9275 -0.278298 0.765645)
(9.55243 1.03249 0.280818)
(10.2396 0.125443 -0.0810848)
(11.5936 -0.0822179 0.611885)
(10.0596 0.60411 -0.0314906)
(8.2109 -0.282418 0.21905)
(11.5178 0.103141 0.480348)
(11.205 -0.422607 0.441285)
(10.1627 -0.79318 0.393645)
(10.091 -0.0541682 -1.21028)
(0.17633 0.710194 -0.173582)
(8.43541 0.253527 -0.348642)
(9.73744 -0.117794 0.161972)
(9.80232 -0.0778307 -0.22573)
(9.84437 -0.492814 0.0374049)
(10.1676 0.332175 0.950053)
(11.1313 -0.268629 0.188941)
(10.3352 0.262635 0.701942)
(9.63002 0.312504 -0.0144649)
(9.6811 -0.413764 -0.752495)
(9.32536 0.398401 0.753463)
(9.09545 -0.262057 0.144508)
(11.5026 0.527378 1.62428)
(9.30633 0.600181 -0.60944)
(9.89468 -0.0766068 0.4758)
(0.143685 0.609692 -0.121936)
(10.2889 -0.14171 -0.00801143)
(9.95722 0.216177 0.294092)
(0.166593 0.518758 -0.353594)
(12.3377 1.05725 0.303113)
(9.50271 0.162507 1.0977)
(0.177537 0.470355 -0.153701)
(0.144248 0.742156 -0.154474)
(10.0307 -0.270584 -0.19593)
(10.6543 0.754309 -0.44833)
(9.63605 0.116793 -0.691052)
(9.68164 0.32415 0.801986)
(9.91266 0.162125 0.0334799)
(9.66078 0.254761 0.390227)
(10.7372 4.27027 0.661529)
(9.75588 -0.855432 -0.00349477)
(10.2258 0.539565 -0.0937827)
(9.52955 0.0446547 -0.123766)
(11.3375 -0.745771 0.395465)
(11.1446 0.00560317 0.168425)
(9.94139 -0.0176858 0.877009)
(10.5049 -0.237245 -0.0214717)
(2.0773 -2.48414 -0.649013)
(8.03389 -0.499399 -0.342803)
(10.4858 0.0214095 -0.680478)
(9.51235 0.129725 -0.507268)
(10.1057 -0.280752 -0.489257)
(10.6657 0.00563488 -0.328639)
(9.88324 -0.752834 -0.390508)
(10.2088 -0.664953 -0.279204)
(10.3181 -0.201205 1.07878)
(10.3625 0.543126 0.60473)
(10.6919 -0.372976 -0.669559)
(10.2962 -0.7135 0.159612)
(10.9971 -0.356128 0.589537)
(11.7595 0.300628 0.0988987)
(10.2453 1.04571 -0.723032)
(10.2676 -0.29248 0.378116)
(11.8933 0.39217 -0.0310867)
(9.34843 -0.635676 1.02289)
(9.87117 0.524875 0.937328)
(10.5709 0.0941136 -0.404014)
(9.18898 0.129748 1.10591)
(10.2094 0.340982 0.883461)
(10.2744 -0.229026 -0.91739)
(9.86821 0.557403 -0.513578)
(8.05691 -0.354966 -0.888987)
(9.87909 0.277796 -0.683477)
(10.3576 0.150738 -0.389329)
(9.51002 0.556167 -0.413365)
(16.037 -3.70856 -1.56751)
(10.9818 -0.317169 0.481213)
(10.5162 0.121753 0.390299)
(9.68639 0.821986 1.00404)
(9.40302 0.764804 0.993591)
(9.47148 1.3837 0.36159)
(9.95639 0.677607 1.50988)
(8.30937 0.645723 0.132782)
(9.71729 -0.114042 0.300955)
(9.84174 -1.27339 -2.63079)
(10.02 0.109108 2.16608)
(8.43513 -1.71947 -1.44622)
(10.9091 0.762732 1.75991)
(9.63989 0.534905 0.566921)
(9.49541 0.261932 -0.0281936)
(9.91346 -0.843128 -0.102654)
(12.0095 0.0143189 0.268135)
(9.58274 0.092549 2.43876)
(8.63998 -1.65683 1.6018)
(9.4793 0.038634 0.314305)
(10.384 1.14981 -0.00622952)
(9.41919 0.46788 0.251215)
(9.99396 -0.227139 -0.0995013)
(9.49767 0.54506 0.143818)
(9.83403 -0.612809 0.41214)
(11.0279 0.17502 0.169288)
(9.20456 1.53003 -1.54928)
(14.2951 0.151559 -0.908338)
(10.3268 0.602224 -0.0200999)
(10.1685 0.625799 1.27224)
(9.51548 0.206504 -0.12848)
(9.47733 -0.486921 0.0908741)
(9.65189 0.174671 0.101148)
(10.0659 0.131674 -0.693156)
(10.3627 -0.493527 0.476108)
(10.1453 -0.524158 0.413985)
(9.41696 -0.0515924 0.680965)
(9.26083 0.276505 -0.633416)
(10.5409 -0.0447656 -0.0714794)
(9.62012 0.0120401 -0.0215374)
(10.6599 0.073198 -0.254372)
(11.9656 0.188058 0.87188)
(9.50247 -0.377485 -0.602917)
(7.89445 -7.7209 1.86493)
(12.5808 -0.607976 -1.50959)
(9.1648 -0.0784491 -1.10887)
(9.48794 0.0485599 -0.194758)
(10.6904 0.0132844 0.0295719)
(10.0005 -0.172697 -0.224277)
(9.17803 -7.53446 2.17721)
(9.44751 -0.690949 -1.01837)
(9.32407 -4.50296 0.658711)
(9.52814 -0.755382 0.58613)
(10.3789 0.241077 0.708243)
(10.9791 0.201669 0.109612)
(10.09 -0.0627695 -0.051155)
(9.28769 -0.112701 -0.154352)
(10.2627 -0.794535 -0.221251)
(8.71686 -0.0768155 -1.72483)
(9.1527 0.556746 -1.05545)
(10.6786 -0.177076 0.823006)
(10.5148 -0.298608 0.140259)
(10.8507 0.0678326 0.900187)
(9.00048 1.01387 0.597517)
(10.9439 0.0395918 0.287606)
(10.1583 -0.193014 0.192545)
(5.23155 7.00625 0.689694)
(10.937 0.17279 0.163948)
(10.0521 0.412237 0.432067)
(10.9043 0.128897 0.275656)
(10.2437 0.153759 -0.754518)
(10.5194 0.0265239 0.398944)
(9.80396 1.2668 0.76571)
(9.83036 0.299104 0.566847)
(10.9807 0.0763185 0.258759)
(10.0518 0.0673314 0.111579)
(10.323 0.494274 0.226375)
(10.9597 0.19937 0.200036)
(9.93074 -0.184096 -0.394386)
(9.76347 0.0476246 -0.184578)
(9.85425 -0.0257068 -0.87045)
(9.75342 -0.0536084 0.355174)
(7.11227 0.114069 -4.45024)
(6.87771 -0.246094 -4.90526)
(10.146 -0.11747 0.358798)
(9.04524 0.245981 -3.39953)
(8.32015 0.429038 -0.257373)
(9.6315 -0.362921 -0.431959)
(10.5055 0.43044 -0.534663)
(9.66578 -0.511697 -0.306853)
(9.48038 0.38079 -0.446254)
(9.89636 0.269639 0.75934)
(10.0304 0.434799 0.0298418)
(8.98688 0.338826 0.188823)
(9.97243 0.0658649 -0.926224)
(5.39821 -0.0383449 -5.68238)
(9.09789 -0.403037 1.57683)
(9.77481 -0.0191779 0.319642)
(10.286 -0.054673 1.03894)
(9.92121 -0.113986 -0.631411)
(9.46995 0.389748 -0.690507)
(9.86346 0.208759 -0.550652)
(9.74397 0.172249 -0.210837)
(10.3048 -0.225913 0.0573492)
(10.2573 -1.05686 1.58498)
(10.1144 -0.0644132 -0.237722)
(9.0046 -0.723233 1.31721)
(9.6351 -0.0390978 -0.52451)
(9.89888 0.440755 0.881683)
(9.58581 0.137726 0.496854)
(9.30478 -0.446415 -1.15277)
(9.44134 0.161038 0.549042)
(10.0333 -0.44708 -0.821769)
(10.1053 -0.313026 -0.618862)
(10.1428 0.0335424 0.240679)
(9.40031 -0.680017 -0.68183)
(5.23064 0.480456 -4.0952)
(9.64774 -0.410077 -0.334766)
(0.164368 -0.500458 -0.189498)
(9.60187 -1.12261 0.569667)
(12.2963 -0.616246 0.0538541)
(0.150923 -0.465351 -0.115474)
(9.46584 1.00069 0.747652)
(9.37278 0.0421136 0.845434)
(10.2906 -0.216816 -1.92429)
(10.8924 -0.520627 0.367473)
(5.95462 0.203558 -3.01298)
(0.0970876 0.266716 -0.162471)
(1.38823 0.132279 -2.66334)
(10.3731 0.511589 0.0121651)
(9.58081 0.608674 0.512195)
(10.3849 0.0488412 0.966292)
(9.23788 0.359061 0.0680774)
(4.01978 -0.239559 0.698128)
(10.3686 0.0522546 -0.354697)
(10.2433 -0.808422 -0.0409568)
(9.24787 0.177457 -0.781177)
(10.1606 -0.119031 0.551555)
(10.2862 0.213849 0.597232)
(10.0365 0.0375529 -1.50022)
(10.0125 -0.0332077 -0.313832)
(10.5618 -0.0886742 -0.281143)
(0.820046 0.358096 -0.285982)
(8.28235 0.192889 -1.90594)
(10.1245 -0.351463 0.0345461)
(9.51914 -1.22205 -0.888605)
(5.321 0.321617 -1.6051)
(6.31885 0.172222 -2.27193)
(9.65541 0.636441 -0.520484)
(5.72279 -3.0346 -0.396153)
(9.27446 0.309838 1.79253)
(4.47004 0.00814903 -3.24675)
(4.14657 -0.124887 -4.14169)
(10.6274 -0.226009 -0.101239)
(9.86786 -1.05111 -1.52171)
(9.1879 0.362921 0.57017)
(10.0271 -0.540802 -0.130535)
(10.1515 -0.195217 0.0306094)
(-0.0228893 0.874468 -0.159471)
(10.2004 -0.188582 -0.503526)
(10.3518 -0.148226 0.54963)
(9.77127 -0.322698 0.0691361)
(10.0515 -0.11996 -0.214702)
(0.0176151 0.908085 -0.376257)
(0.179037 0.590734 -0.139972)
(8.81949 -0.115406 0.0262435)
(10.6246 -0.0929519 0.45483)
(10.2458 0.278286 0.0839392)
(10.1156 0.0302695 0.469488)
(10.1497 0.00680518 0.617758)
(10.2053 -0.669746 -0.58347)
(9.73922 -0.296042 -0.00924102)
(10.1661 -0.235025 0.331438)
(10.2195 0.34611 0.512725)
(7.22807 -0.518174 -2.34995)
(9.56369 0.674961 0.291489)
(8.89113 0.20276 -0.222535)
(10.1973 -0.358018 -0.0451572)
(9.85222 0.249289 0.167204)
(9.1418 -0.757859 0.293192)
(4.28863 -0.291975 -1.54452)
(11.6731 -0.621007 0.599365)
(9.8971 -0.864737 -0.0621288)
(9.82764 0.935235 -0.65236)
(10.2107 -0.332048 -0.140701)
(9.36464 -0.762241 0.00860268)
(9.80438 -0.0597365 0.0755371)
(10.8711 0.625832 0.236429)
(10.3113 0.102067 -0.0252647)
(-0.96013 0.828941 -1.19188)
(11.2576 -0.186241 0.309715)
(9.78787 -0.363526 0.021388)
(10.6186 0.253911 -0.33281)
(8.13476 0.12711 -2.76151)
(14.9324 -1.34762 -1.24998)
(9.55473 1.06607 0.457218)
(10.4093 1.19669 0.274785)
(12.2389 0.46971 0.660271)
(8.95823 0.305947 -0.433349)
(9.98676 -0.731196 0.198261)
(10.5369 -0.230899 0.381117)
(10.0634 0.736197 -0.186026)
(8.04401 0.88356 -1.94066)
(6.01626 -1.22207 -5.63239)
(11.0871 -1.01786 0.482291)
(14.8878 -0.840448 0.679044)
(10.3452 0.287803 0.200085)
(7.93839 0.182513 -1.65559)
(10.1606 -0.190519 -0.0486905)
(10.4915 -0.787008 -0.0436116)
(9.71863 -0.358435 0.429117)
(10.978 0.239655 0.212522)
(10.0671 0.663909 0.555877)
(9.82393 -0.660269 0.286431)
(6.07905 1.24525 -6.13078)
(12.5983 0.312179 0.781826)
(11.5738 -0.267372 -0.421491)
(0.0057253 0.0125593 -1.36551)
(10.9677 -0.0230556 0.258162)
(9.96635 -0.0829632 -0.0320596)
(9.98101 -0.0990882 0.544066)
(10.5348 0.997059 0.0373508)
(10.0544 -0.587312 0.30133)
(11.2012 -0.0673784 0.502746)
(0.199561 -0.340755 -0.153186)
(10.1331 0.302103 -0.250548)
(11.8021 -0.184952 -0.540162)
(9.91114 -0.650694 -0.269916)
(10.1115 -0.412067 -0.471695)
(11.4879 -1.16985 3.22201)
(9.9234 0.362429 0.323618)
(10.5595 -0.305696 -0.814392)
(9.15799 -5.20478 0.684769)
(9.23847 -0.118379 1.10836)
(8.82197 -0.818067 -0.883715)
(11.2654 -0.35968 0.636447)
(9.85621 0.624478 0.439123)
(9.80006 0.0247592 0.283329)
(11.8342 -1.12495 0.159947)
(5.62441 -0.509614 0.6586)
(10.32 -0.486126 0.773439)
(9.70842 -0.390783 -0.517463)
(9.88712 0.0364261 1.11551)
(9.64006 -0.234978 0.293864)
(9.87852 0.0970693 0.0665425)
(9.91823 -1.47062 -0.452212)
(8.08563 0.580227 -0.506938)
(-0.334883 1.88931 -2.65139)
(10.2468 0.406629 -0.638856)
(9.73092 -0.352307 0.203604)
(10.0351 -1.36602 -0.0998223)
(7.55652 1.31941 0.564007)
(7.06776 -0.0661828 0.943577)
(11.2101 -2.59996 4.01558)
(9.15416 -0.815645 1.64634)
(10.3523 0.0184946 -0.104741)
(7.74699 0.368528 2.66567)
(9.59721 0.470929 0.158815)
(9.09192 0.451226 0.135516)
(9.57161 -0.023416 0.138034)
(9.58372 -0.0500082 0.927564)
(9.59937 1.55534 1.33863)
(0.175456 -0.360084 -0.31793)
(11.1189 -0.0695859 0.258253)
(9.82845 0.64072 0.679579)
(9.97744 0.0235218 0.93546)
(9.51589 -0.317695 0.0855771)
(10.208 -0.672795 1.03222)
(6.37607 -1.39963 -2.64162)
(9.62207 -0.406354 1.35083)
(8.28978 1.92744 -0.0904187)
(9.24857 0.0952002 -0.551058)
(10.1058 -0.363263 -2.4506)
(9.87136 -1.18462 0.9411)
(10.741 -0.0628381 0.361761)
(10.5415 0.635068 0.709149)
(9.93478 -0.183777 0.0383051)
(8.13364 0.161513 -2.35801)
(11.7039 -0.665328 -0.72877)
(11.3984 -0.19353 -0.164517)
(9.77081 0.661147 2.83089)
(7.96459 3.49833 2.90947)
(9.74283 0.607681 0.538413)
(10.1922 0.257593 -0.523128)
(10.7172 0.363669 0.136555)
(6.98513 -0.0649533 -2.1503)
(10.3585 0.109487 -0.120991)
(10.2311 -0.627954 -0.252414)
(9.74333 -0.124098 1.18633)
(10.9133 0.235896 -0.325112)
(13.5386 0.173766 4.31371)
(9.43015 0.215133 0.78073)
(10.2412 -0.0915324 -0.000979875)
(10.116 0.135143 -0.326009)
(9.41068 0.772695 -0.018976)
(10.5993 0.0883198 0.1184)
(10.0625 -0.367107 -0.0918861)
(14.999 -0.416672 -0.405634)
(11.2915 -0.0714441 0.547096)
(4.93048 2.93901 -0.89585)
(10.0339 -0.283158 0.372545)
(11.2165 -0.450229 0.129684)
(10.2402 -1.00708 -0.800101)
(10.6765 -0.220069 -3.17056)
(9.52539 0.499635 1.09282)
(4.87766 -0.81727 -2.61531)
(10.2014 -0.375719 -0.693761)
(10.058 0.197612 0.306998)
(10.016 -0.113817 0.709855)
(13.5186 0.650921 4.70352)
(9.53966 0.0949518 0.0980199)
(9.98765 -0.583016 -0.63414)
(9.60185 -0.49086 0.417412)
(10.6453 -0.53627 0.462836)
(10.2054 -0.170404 0.328617)
(10.4847 0.390097 0.390639)
(10.6967 -0.0931397 -2.15865)
(9.14293 -0.284057 -1.34273)
(11.3978 -0.205278 -0.733418)
(9.84751 0.237941 -0.308901)
(9.05665 1.73229 -0.878832)
(3.33722 0.657679 -3.16665)
(0.810838 0.33942 -2.43808)
(6.03242 2.6384 1.29838)
(12.5827 -0.45046 -1.38749)
(10.2251 -0.078392 0.36246)
(10.8018 -0.777346 0.220369)
(9.63044 1.14395 -0.442044)
(9.06191 1.00575 3.02878)
(9.0194 -0.648799 0.495246)
(4.7756 -0.526185 0.739627)
(8.50789 -0.306568 0.797244)
(10.2775 0.377719 0.59568)
(-1.04395 3.44285 -2.08614)
(9.97822 -0.63132 0.835091)
(10.6013 0.248491 -0.333434)
(9.99805 -0.0801487 1.27122)
(7.60181 0.225221 -0.674777)
(8.41893 0.178697 -2.03286)
(9.56639 2.07955 1.21322)
(9.52375 -0.152261 0.0049005)
(10.18 0.391509 0.512746)
(11.8607 -0.441016 -1.73273)
(9.93043 -0.078189 0.244769)
(10.016 0.103115 -0.171047)
(9.21725 -0.0166004 0.146465)
(10.1435 1.28282 0.20313)
(10.1202 0.355917 0.393496)
(11.5016 -0.338321 -1.14468)
(10.0966 -1.01031 -0.301562)
(8.87382 -0.384346 0.205752)
(9.89316 -0.692142 0.56689)
(9.11127 -0.2379 -1.29087)
(8.86377 0.340427 -0.40573)
(9.04667 -0.0160752 1.44437)
(9.73843 -0.607016 0.408912)
(10.2787 0.346906 0.277011)
(11.2908 -0.591224 0.113955)
(14.1569 -0.25836 -0.211457)
(10.4956 -0.153647 0.394978)
(11.3983 -0.396076 -0.758035)
(10.2874 -0.0383477 -0.188349)
(5.53687 -1.32565 -0.719192)
(9.51657 0.176825 -0.792704)
(9.97306 -0.272676 0.183617)
(9.32523 -0.17799 0.477029)
(15.047 0.482921 1.48569)
(4.54828 3.61258 -0.0180715)
(7.39182 1.85396 0.01241)
(-0.232929 0.909886 -0.170746)
(10.2889 -1.01101 -0.873882)
(10.9842 -0.320743 0.453396)
(8.71466 0.0629288 1.50768)
(0.0848149 0.883022 -0.178052)
(10.905 -0.198807 -0.14572)
(10.1353 -1.98596 0.5923)
(9.26044 -1.08802 -0.772818)
(9.93705 -0.644081 0.31814)
(11.4129 -0.0212792 0.415116)
(10.7354 0.231696 -0.313423)
(10.3825 -0.172642 0.177661)
(10.4203 -0.112173 0.676364)
(9.95695 -0.69627 -1.81549)
(10.3633 -0.0687897 -0.541172)
(6.04731 -0.409863 -4.76003)
(12.6157 2.79144 -4.03989)
(11.3486 -0.0512737 0.209045)
(6.29853 2.06731 2.05963)
(10.176 -0.536927 0.540686)
(2.51478 -0.886589 -1.58664)