/*--------------------------------*- C++ -*----------------------------------*\
| =========                 |                                                 |
| \\      /  F ield         | OpenFOAM: The Open Source CFD Toolbox           |
|  \\    /   O peration     | Version:  2506                                  |
|   \\  /    A nd           | Website:  www.openfoam.com                      |
|    \\/     M anipulation  |                                                 |
\*---------------------------------------------------------------------------*/
FoamFile
{
    version     2.0;
    format      ascii;
    arch        "LSB;label=32;scalar=64";
    class       volScalarField;
    location    "0.0817324";
    object      k;
}
// * * * * * * * * * * * * * * * * * * * * * * * * * * * * * * * * * * * * * //

dimensions      [0 2 -2 0 0 0 0];

internalField   nonuniform List<scalar> 
47425
(
0.280856
0.3132
0.298059
0.305165
0.449044
0.301106
0.406431
0.307926
0.366887
1.48949
0.317131
0.322516
0.348009
0.29865
0.29125
0.31715
0.294192
0.319614
1.0671
0.508425
0.303781
0.290207
0.304386
0.29859
0.294853
0.281108
0.282997
0.796837
0.280995
0.285549
0.296206
0.316268
0.356124
0.284771
0.277237
0.29683
0.288238
0.363339
0.29118
0.300402
0.34751
0.659634
1.05576
0.3784
1.66664
0.328057
0.316985
0.350647
0.288889
0.282179
0.751198
0.592851
0.280861
0.844965
0.354614
0.353703
0.283263
0.283645
0.386666
0.293531
0.816617
0.839073
0.907255
0.30622
0.364462
0.285843
0.341103
0.348145
0.833092
0.298055
0.29101
0.277152
0.28026
0.29685
0.943624
0.368709
0.971045
0.294684
0.837655
0.504491
0.927355
0.298091
0.293248
0.348597
0.333605
0.30288
0.277483
0.27519
0.500794
0.562754
0.292477
0.325038
0.283559
0.364363
0.375707
0.358594
0.283015
0.284249
0.298407
0.347414
0.334386
0.408481
0.293637
0.426278
0.286759
0.354057
0.297284
0.308623
0.455386
0.307918
1.35648
0.318826
0.409485
0.343449
0.310406
0.782
0.305969
0.604714
0.322605
0.31645
0.309381
0.362698
0.342908
0.329392
0.338687
0.374328
0.306249
0.364887
0.344355
0.28416
0.292599
0.311199
0.474122
0.333749
0.543218
0.328741
0.293913
0.379984
0.295673
0.294209
0.354005
0.341951
0.317492
0.440136
0.31352
0.366223
0.41607
0.339863
0.34877
0.361577
0.443948
0.767365
0.360297
0.770309
0.312163
0.306536
0.320944
0.893565
0.333294
0.310913
0.317223
0.281651
0.276567
0.294439
0.736023
0.8101
0.33778
0.932787
0.3254
0.851257
1.11578
0.333009
0.353842
0.300188
0.329684
0.357786
0.81587
0.279634
0.282051
0.284077
0.818489
0.275994
0.279315
0.281713
0.282779
0.336725
0.295005
0.394488
0.340371
0.282628
0.357975
0.285732
0.393599
0.365297
0.283092
0.298928
0.360532
0.306037
0.311946
0.277031
0.317908
0.361177
0.401896
0.300455
0.31512
0.371142
0.278868
0.29621
0.346671
0.361897
0.283266
0.28982
0.352101
0.302669
0.289325
0.287175
0.294472
0.574178
0.318185
0.353024
0.507094
0.279534
0.586265
0.288751
0.391411
0.488444
0.28356
0.303571
0.332105
0.365592
0.294906
0.298998
0.325292
0.36937
0.359514
0.30762
0.545405
0.3165
0.508626
0.357978
0.32706
0.277673
0.281797
0.290084
0.286878
0.362565
0.292873
0.35755
0.2813
0.291517
0.28412
0.47978
0.290429
0.365695
0.300738
0.283083
0.292772
0.354824
0.294428
0.357613
0.371611
0.352132
0.302545
0.352995
0.356236
0.339194
0.284104
0.354116
0.284123
0.315111
0.307144
0.497301
0.546946
0.285133
0.486666
0.365374
0.488631
0.426363
0.53198
0.512772
0.823902
0.277848
0.873719
0.352149
0.29773
0.290661
0.3413
0.310356
0.35232
0.326147
0.74236
0.300545
0.371308
0.284279
0.294204
0.309805
0.303093
0.287783
0.30995
0.341179
0.315621
0.279143
0.310255
0.287952
0.863509
0.803816
0.753654
0.282795
0.281091
0.288648
0.304948
0.76161
0.307252
0.317249
0.557016
0.323219
0.334996
0.363425
0.303952
0.638322
0.526077
0.29653
0.300226
0.277898
0.319806
0.282617
0.302007
0.280959
0.281525
0.286919
0.289936
0.973058
0.307509
0.289785
0.383803
0.283375
0.901408
0.311507
0.278994
0.28729
0.295024
0.295159
0.278929
0.292907
0.275627
0.286348
0.2856
0.290893
0.292585
0.319404
0.29708
0.285158
0.305487
0.295514
0.299309
0.319593
0.30738
0.293435
0.300237
0.360265
0.3295
0.317927
0.303727
0.304965
0.28609
0.30479
0.356165
0.358444
0.316729
0.294572
0.348221
1.12496
0.289509
0.29739
0.385664
0.295838
0.437494
0.355977
0.364436
0.288605
0.357607
0.295918
0.282991
0.355245
0.330962
0.364513
0.304078
0.29238
0.349718
0.302528
0.298971
0.300316
0.309581
0.288701
0.289078
0.297126
0.316987
0.301039
0.377037
0.28017
0.607436
0.28123
0.983183
0.311451
0.350481
0.33728
0.28311
0.338177
0.281983
0.316546
0.297703
0.54458
0.809717
0.280831
0.315496
0.296255
0.296138
0.303829
0.293291
0.293049
0.346801
0.308271
0.284324
0.298728
0.30465
0.283008
0.42701
0.294525
0.298479
0.469104
0.411349
0.291484
0.590383
0.432406
0.346104
0.421264
0.692568
0.283357
0.294647
0.295594
0.29453
0.640894
0.312081
0.27947
0.284619
0.299804
0.300342
0.30633
0.286989
0.673258
0.622719
0.481563
0.356379
0.375429
0.463543
0.283199
0.295876
0.336101
0.29527
0.355172
0.363124
0.377802
0.294681
0.369613
0.297792
0.295062
0.315214
0.29976
0.298299
0.29476
0.348576
0.357669
0.36749
0.316635
0.306748
0.328028
0.296077
0.791181
0.360588
0.375535
0.34493
0.329467
0.714767
0.311251
0.281792
0.313984
0.350142
0.327019
0.311613
0.326255
0.285614
0.306212
0.28198
0.308654
0.419916
0.279353
0.326436
0.316947
0.337789
0.280946
0.282331
0.283162
0.290969
0.291829
0.311298
0.290089
0.28366
0.287615
0.306024
0.306055
0.319906
0.309291
0.283047
0.301953
0.274499
0.281742
0.291336
0.315731
0.310521
0.315141
0.363305
0.375393
0.722773
0.297449
0.290922
0.324937
0.365735
0.433259
0.43515
0.319946
0.287248
0.32582
0.415782
0.316467
0.441868
0.362381
1.35674
0.32351
0.325176
0.285949
0.434227
0.284382
0.291391
0.296818
0.353258
0.282594
0.277135
1.01151
0.286021
0.339425
0.283317
0.415293
0.276361
0.285374
0.3972
0.38551
0.298505
0.280942
0.27032
0.280758
0.297712
0.280545
0.280728
0.27914
0.357091
0.431906
0.299342
0.312513
0.298351
0.283196
0.502417
0.293419
0.319296
0.187459
0.296718
0.283603
0.250697
0.732777
0.298921
0.196948
0.217738
0.283117
0.346965
0.278702
0.287286
0.361989
0.320961
0.930291
0.292966
0.324505
0.280976
0.438058
0.352257
0.369484
0.30338
0.730225
1.98885
0.292299
0.310636
0.332958
0.301299
0.350792
0.362162
0.318117
0.315054
0.378946
0.283958
0.359122
0.450977
0.321056
0.291431
0.456132
0.331011
0.29338
0.307593
0.326348
0.284432
0.361918
0.346883
0.336491
0.343291
0.287329
0.296458
0.937422
0.29976
0.380346
0.819726
0.780982
0.284607
0.351447
0.694993
0.332726
0.397431
0.775109
0.376793
0.751735
0.282275
0.280224
0.354827
0.489854
0.381506
0.375568
0.278845
0.359309
0.287004
0.304643
0.277444
0.326254
0.297181
0.786606
0.673487
0.322046
0.316054
0.330326
0.298912
0.374378
0.351686
0.352409
0.360588
0.342624
0.300736
0.320655
0.354473
0.28699
0.361455
0.344555
0.919213
0.5416
0.321474
0.293182
0.353905
0.28254
0.8858
0.293477
1.28877
0.336599
0.423928
0.326046
0.305924
0.315593
0.283274
0.334966
0.295589
0.279057
0.384526
0.363605
0.368557
0.36927
0.348609
0.946304
0.326382
0.367021
0.350801
0.363677
0.283336
0.333648
0.314454
0.367842
0.341382
0.305873
0.339045
0.30303
0.320487
0.294755
0.290234
0.451918
0.522612
0.290048
0.416669
0.288825
0.308052
0.295419
0.282952
0.658664
0.278449
0.301127
0.297827
0.281051
0.632234
0.911216
0.300951
0.333953
0.283882
0.327935
0.280008
0.307961
0.309206
0.51908
0.307523
0.282707
0.300497
0.285316
0.298141
0.292353
0.277897
0.30127
0.283207
0.278643
0.307531
0.515018
0.281998
0.260552
0.600011
0.53437
0.283776
0.311078
0.804698
0.337729
0.315957
0.477194
0.25033
0.783481
0.32141
0.287206
0.439756
0.320096
0.533067
0.301414
0.330919
0.286121
0.287539
0.414015
0.341969
0.300962
0.324645
0.35051
0.354432
0.34833
0.37843
0.463055
0.441706
0.746775
0.869865
0.823348
0.581202
0.609526
0.363099
0.349244
0.289025
0.28229
0.325994
0.304469
0.312345
0.321649
0.33676
0.284232
0.327263
0.366315
0.284159
0.367866
0.310998
0.282977
0.352524
0.283504
0.289116
0.293251
0.329793
0.401059
0.286152
0.283238
0.290009
0.346242
0.337066
0.491227
0.412677
0.282494
0.327159
0.278139
0.285526
0.288029
0.330697
0.344738
0.42492
0.299947
0.28821
0.291593
0.375427
0.886628
0.29977
0.299733
0.372769
0.32697
0.342931
0.321979
0.308147
0.3768
2.22892
0.41916
0.85724
0.366857
0.37097
0.277919
0.379272
0.288473
0.318303
0.316695
0.290253
1.58518
0.405586
0.34295
0.593547
0.347362
0.275943
0.304705
0.380476
0.289364
0.326545
0.205019
0.286383
0.366778
0.359322
0.379587
0.690208
0.361363
0.346778
0.465637
0.290447
0.291223
0.414572
0.502266
0.316541
0.386442
0.420369
0.320154
0.297369
0.287362
0.311245
0.342193
0.340707
4.02921
0.649943
0.345199
0.521726
0.496814
1.08484
2.00949
0.481444
0.351322
0.360762
0.373541
0.350244
2.62453
0.289017
0.311064
0.372762
0.239163
0.314025
0.368945
0.345957
0.283471
0.372525
0.445233
0.363484
1.30557
0.279443
0.360306
0.376584
0.365703
0.357266
0.349851
0.37481
0.426445
0.325866
0.343126
0.436944
0.305286
0.292209
0.317878
0.394648
0.285325
0.390797
0.355736
0.347001
0.614973
0.850803
0.286426
0.3635
0.299804
0.36189
0.352634
0.630107
0.528047
1.22963
0.291574
0.344569
0.30684
0.887252
0.301593
1.76157
0.39324
0.373532
0.462666
0.552618
0.307921
0.291412
0.294588
0.304257
0.435507
0.303625
0.378013
1.22206
0.360509
0.284111
0.288841
0.644957
1.08249
0.48047
0.521463
0.906787
0.387894
0.336885
0.367474
0.297464
0.443378
0.356673
0.37303
0.992025
0.308611
0.2858
0.291391
0.35711
0.364122
0.366642
0.313202
0.296691
0.437262
0.289573
0.317929
0.289108
0.352838
0.350198
0.357134
0.322901
0.314015
0.296369
0.364591
0.295963
0.300768
0.310907
0.298068
0.35349
0.422158
0.326847
0.348548
0.291009
1.58868
0.369499
0.35362
0.319084
0.891485
0.685827
1.16269
0.331839
0.322855
0.313581
0.719604
0.360009
0.318044
0.355511
0.344188
0.363569
0.880393
0.352052
0.296642
0.348563
0.334278
0.28007
0.548583
0.977303
0.298641
0.971767
0.328734
0.623656
0.539354
0.299943
0.332706
0.361461
0.597795
0.327008
0.316307
0.315836
0.699833
0.479251
0.591788
0.303276
0.315148
0.286509
0.297892
1.46344
1.41235
0.3309
0.339448
0.368719
0.824667
0.290833
0.281916
2.25149
1.29844
0.355635
0.295536
0.847938
1.42355
1.1423
0.361881
0.761306
1.36338
0.905801
0.310592
0.417935
0.415244
0.313216
0.319355
1.47803
1.25123
0.336004
0.346019
0.345104
0.298457
0.317192
0.317764
0.446314
0.327117
0.366938
0.28839
0.368821
1.35447
0.958305
0.299925
0.539357
0.414754
0.309375
0.47586
0.281919
0.327402
0.297487
0.317689
0.378238
0.288077
0.735564
0.293609
0.818607
0.569765
0.950369
0.394118
0.422772
0.325311
0.348499
0.338303
0.519849
1.05574
0.347648
1.03172
0.480055
0.722305
0.445803
0.840793
0.656936
0.310103
0.346557
0.949805
0.33619
0.292378
0.296188
0.773584
0.685838
0.298303
0.314126
0.608812
0.377943
0.971878
0.768493
0.344328
0.427536
1.01216
0.341243
0.304237
0.851566
0.294987
0.819117
0.779209
0.293243
0.288596
0.306897
0.284446
0.362311
0.298134
0.296908
0.354101
0.361818
0.445171
0.316058
0.302556
0.482186
1.62545
0.765167
0.332237
0.317797
0.527849
0.29701
0.961069
0.327834
0.329373
0.352934
1.95486
0.333561
1.97537
0.379273
0.474052
0.317737
0.730095
0.589447
0.618327
0.405254
0.511206
0.348157
0.363526
0.364136
0.561191
0.347431
0.433759
0.766709
0.388159
0.426379
0.882689
0.32706
0.297191
0.672543
1.44916
0.361964
0.317354
0.359331
0.379488
1.23058
0.993472
0.284248
0.302534
0.359141
0.785935
0.355932
0.551985
0.35079
0.346819
0.352533
0.452134
0.33315
0.572253
0.587666
0.324644
0.355922
0.41184
0.31011
0.871397
2.06805
0.318488
0.817191
0.833815
0.376772
0.7789
0.360611
0.341815
1.01689
0.344232
1.08684
3.13188
0.306447
0.347894
0.4097
0.365345
0.353174
0.368994
0.475081
0.374423
0.311314
0.367579
0.31315
0.673932
0.370077
0.336227
0.358269
0.557462
0.292983
0.798744
0.712364
0.339626
0.827636
1.82316
0.289248
0.436455
0.471627
0.345904
0.322518
0.489891
0.813481
0.469167
1.00086
0.294298
0.732626
0.430177
0.282272
0.358622
0.353575
0.463444
0.316127
0.362924
0.549042
0.282507
0.544029
0.344411
1.3971
0.365276
0.281817
0.346677
0.49509
0.337888
0.699973
0.419053
0.303357
0.648218
0.291157
0.320786
1.24616
0.281181
0.362029
0.680204
0.322135
0.865993
1.20714
0.353331
0.374487
0.289876
0.862508
0.508278
0.942523
0.75699
0.387663
0.320802
0.399601
0.953276
0.947326
1.10818
0.343846
0.357545
0.335081
0.301861
0.370074
0.692071
0.347281
0.330094
0.324105
0.285904
0.305948
0.35317
0.297801
0.348875
0.353848
0.397967
0.290525
0.349555
0.540163
0.305854
0.28837
0.36093
0.33328
0.3594
0.285385
0.319664
0.321277
0.299424
0.375959
0.570077
0.33712
0.301567
0.288745
0.283793
0.497704
0.303924
0.301667
0.540321
1.04668
0.681215
0.298689
0.526807
0.442519
0.365369
0.482189
0.396431
0.461743
0.350013
0.299125
0.345129
0.365981
0.294071
0.356638
0.368888
0.341257
0.297356
0.298289
0.347146
0.481409
0.3382
0.388538
0.796199
0.346487
0.651865
0.376897
0.844616
0.279197
0.350211
0.330156
0.286099
0.301467
0.36589
0.283657
1.32519
0.533917
0.769135
0.349493
0.87452
0.289676
0.315096
0.501709
0.297098
0.771494
0.395823
0.596003
0.328489
0.96069
0.927246
0.296349
0.282318
1.02078
0.304143
1.0384
0.318256
0.348663
0.295463
0.289533
0.291008
0.308729
0.32307
0.647803
0.376537
0.385347
0.315912
0.32671
0.281399
0.355203
1.3839
0.351369
1.4903
0.559849
0.29372
0.361604
0.314058
0.313979
0.309248
0.339237
0.334789
0.362906
0.319694
0.285032
0.324387
0.347786
1.30606
1.56712
0.322849
0.335115
2.03761
0.327261
0.286326
0.286591
0.28343
0.324947
0.362312
0.400062
0.37794
0.315223
0.293172
0.371137
0.280733
0.277475
0.300116
0.693617
0.385935
0.795467
0.728178
0.789389
0.299583
0.289673
0.285521
0.284184
0.285182
0.61075
0.311233
0.279388
0.304741
0.348304
0.296341
0.418089
0.292215
0.363861
0.424566
0.312597
0.286523
0.29413
0.314498
0.315942
0.293278
0.323096
0.308256
0.477767
0.308786
0.350194
0.38591
0.307766
0.311265
0.290469
0.315891
0.300311
0.349372
0.379945
0.288257
0.277644
0.302631
0.304168
0.293426
0.339595
0.2837
0.307254
0.291095
0.302847
0.811438
0.300612
0.396334
0.276887
0.287262
0.640392
0.301296
0.349081
0.282226
0.292427
0.333985
0.356442
0.718066
0.369046
1.56714
0.285818
0.293191
0.342694
0.283424
0.279554
0.376986
0.315569
0.278718
0.28062
0.83909
0.403588
0.632532
0.346011
0.511629
0.364157
0.291969
0.384265
1.36932
0.345158
0.298143
0.29721
0.753648
0.291524
0.302176
0.314403
0.312964
0.372887
0.744621
0.294846
0.308394
0.347459
0.310718
0.340375
0.864327
0.770325
0.292914
0.286618
0.284029
0.340806
0.324047
0.28111
0.760679
1.11915
0.288828
0.336212
0.809595
0.297857
1.34685
0.423132
0.282519
0.291636
0.288995
0.298031
0.552362
0.315186
0.313367
0.301109
0.33779
0.302019
0.361543
0.571092
0.362926
0.462251
0.471902
0.445831
0.545138
0.338215
0.387719
0.376668
0.379195
0.325008
0.302227
0.781909
0.547978
0.377901
0.337707
0.360541
0.331246
0.319262
0.251236
0.281676
0.281755
0.357062
0.349905
0.467836
0.391337
0.821128
0.679959
0.311969
0.377891
0.296514
0.29865
0.365123
0.286182
0.306796
0.285972
0.282761
0.240944
0.241378
0.283084
0.369351
0.632674
0.972446
0.324649
0.282382
0.446679
0.472024
0.795812
0.306465
0.786812
0.962065
0.908642
0.858549
0.37571
0.283709
0.280257
0.360613
0.823358
0.281372
0.372716
0.32508
0.283288
0.526202
0.4812
0.461173
0.313663
1.22901
0.282938
0.292003
0.31931
0.321291
0.595844
0.680706
0.346631
0.429878
0.323193
0.346873
0.307242
0.864277
0.353672
0.832784
0.371897
0.827462
0.352765
0.465759
0.587023
0.508264
0.380212
0.382691
0.660161
0.352514
0.353867
0.370352
0.359341
0.360715
0.340991
1.24512
0.52696
0.314817
0.554662
0.609905
0.548791
0.297213
0.28976
0.6832
0.621468
0.777698
0.300239
1.07515
0.294555
0.932023
0.616746
0.539397
0.66506
0.286411
0.338661
0.288541
0.326973
0.321555
0.490385
0.404683
0.287713
0.293633
0.346288
0.312316
0.283744
0.28202
0.440401
0.284514
0.279057
0.316896
0.390519
0.406594
0.316322
0.349438
0.354394
0.324402
0.511355
0.409926
0.297596
0.297281
0.460887
0.535026
0.302489
1.84492
0.327109
0.397263
0.879322
0.365884
0.302192
0.28422
0.467761
0.307532
0.279363
0.356615
0.303475
0.291596
0.304408
0.28832
0.323066
0.306142
0.31545
0.294076
0.345614
0.644146
0.295339
0.305821
0.298483
0.306934
0.394265
1.07729
0.306926
0.290574
0.313895
0.534735
0.262386
0.32781
0.313236
0.810961
0.336079
0.373089
0.357479
0.377579
0.331872
0.343235
0.306395
0.484568
0.360334
0.346035
1.16261
0.309701
0.378266
0.335854
0.326014
0.353479
0.390785
0.304661
0.336528
0.288938
0.329024
0.31305
0.334962
3.23307
0.293947
0.390969
0.375974
0.34391
0.620271
0.338883
0.628233
0.356986
0.537733
0.638604
0.318331
0.287169
0.390583
0.364202
0.320641
0.28991
0.75323
0.430213
0.348735
0.99281
0.610093
0.299102
0.465483
0.415636
1.25454
0.898458
0.369729
0.434353
0.459684
0.551454
0.450065
0.884244
0.222682
0.569977
0.307244
0.580955
0.357318
0.3763
0.371794
0.350324
0.317271
0.352707
0.56825
0.30947
0.352481
0.373064
0.471626
0.731125
0.393501
0.706119
0.328133
1.01573
0.373325
0.374643
0.814942
0.536376
0.672232
0.612073
0.605105
0.518161
0.406103
0.378221
0.318824
0.36303
0.355192
0.738189
0.338811
0.340879
0.300776
0.466447
0.347624
0.294504
0.818848
0.47222
0.482432
0.175519
0.392168
0.320806
0.340943
0.335949
0.359221
0.320824
0.276104
0.324099
0.375076
0.174795
0.168282
0.495513
0.332566
0.407389
0.391549
0.430599
0.365565
0.349331
0.337967
0.142897
0.343687
0.375375
0.149428
0.364484
0.819239
0.57063
0.326142
1.41897
0.381647
0.445567
1.1254
0.386184
0.369618
0.294239
0.572307
0.283789
0.289648
0.333716
0.357934
0.361775
0.320744
0.563716
0.35384
0.443942
0.299663
0.376462
0.359971
0.28235
1.87834
0.489424
1.00384
0.443124
0.291937
0.894479
0.458459
0.288272
2.29096
0.290243
0.285832
0.453698
0.437144
0.95132
0.919799
0.326356
0.649922
1.09119
0.375932
0.61297
0.958045
0.887679
1.99656
0.354392
0.330376
0.55597
0.621326
0.386447
0.921121
0.336032
0.309782
0.489329
0.335383
0.292309
0.369793
0.729605
0.669872
0.279079
0.481142
0.296241
0.379552
0.320231
0.376402
0.566809
0.401665
0.753098
0.351378
0.360678
0.706776
0.287939
0.298324
0.418453
0.290677
0.330678
1.07642
0.312728
0.856609
0.780815
0.788636
0.793464
0.376378
0.367409
0.284133
0.28224
0.391886
0.290335
0.300882
0.386483
0.300144
0.381061
0.901978
0.290322
0.494098
0.290597
0.441065
0.344418
0.81424
0.349827
0.433413
0.29481
0.313144
0.397318
0.288711
0.312272
0.303986
0.285941
0.49096
0.305986
0.355827
0.333951
0.298775
0.345729
0.319543
0.356797
0.866928
0.313523
0.298246
0.297528
0.360997
0.14459
0.594115
0.441743
0.645912
0.996089
0.239068
0.400549
0.0779206
0.206477
1.03022
0.379984
0.510981
0.269142
0.691237
0.657029
1.17269
0.333967
0.310374
0.512912
1.27879
0.31941
0.378735
0.421389
0.410114
0.383604
0.372155
0.906883
1.39128
0.190769
0.349108
0.156229
0.336322
1.26662
0.305596
0.333324
0.3058
0.295325
0.4137
0.304294
0.544
0.423287
0.31831
0.371534
0.303225
0.506977
0.59867
0.305532
0.400725
0.33714
0.773162
0.420923
0.344706
0.497542
0.48466
0.283901
0.287193
0.343696
0.295537
0.651534
0.290412
0.404394
0.559155
0.309214
0.31844
0.304898
0.304114
0.577226
0.374824
0.483912
0.295093
0.300347
0.458979
0.594013
0.297672
0.323411
0.296465
0.293164
0.577485
0.412928
0.737712
0.316934
0.293827
0.407351
0.363806
0.320869
0.299473
0.357378
0.364054
0.503772
0.323649
2.00366
0.377751
0.377969
0.292745
0.360847
0.820638
0.955596
0.362712
0.797805
0.340296
0.973264
0.388504
0.66014
0.435472
0.502173
0.383946
0.30946
0.342019
0.383284
0.522996
0.344449
0.337012
0.914805
0.374529
1.67619
0.373237
0.319768
0.361432
0.552023
0.392529
0.291985
0.972382
0.290028
0.313012
0.291484
0.347805
0.71269
0.445928
0.326899
0.47312
0.345911
0.316428
0.300313
0.325644
0.38454
0.391689
0.374522
0.326265
0.318423
0.369415
0.318933
0.284707
0.359847
0.32782
5.86131
0.347025
0.42333
0.319564
0.368615
0.331628
0.380747
0.285481
0.343125
0.322413
0.320236
0.354128
0.77985
0.282617
0.783303
0.491302
0.391245
0.379798
0.323434
0.382508
0.412051
0.698156
0.299791
0.319346
0.323753
0.459456
0.346931
0.286735
1.20956
1.52694
0.629814
0.286691
0.292125
0.47352
0.352974
0.353595
0.462984
0.364427
0.310742
0.333904
1.5427
0.28895
0.524712
0.28575
0.309643
0.386705
0.30534
0.375269
0.41997
0.291689
0.55081
0.368173
0.362567
0.406833
0.905227
0.302657
0.35995
0.341056
0.364455
0.328743
0.33904
0.284594
0.276773
0.374465
0.54765
0.364198
0.338271
1.3213
0.365919
0.566311
0.358353
0.383028
0.362237
0.332042
0.761491
0.322442
0.482757
0.342575
0.355007
0.325358
0.360588
0.530726
0.421607
0.306479
0.584787
0.376929
0.616101
0.714197
1.46735
0.296319
0.418
0.377687
0.243116
0.358458
0.249325
0.406595
0.222202
0.359282
0.804418
0.368719
0.580295
0.631476
0.33744
0.203245
0.417665
0.975289
0.478739
0.615977
2.07181
1.40539
0.697886
0.758327
0.295797
0.339471
0.71198
0.358406
0.916674
0.343749
0.758361
0.726221
0.314052
0.35255
0.311246
0.282245
0.341896
0.283717
0.671215
0.377944
0.348715
0.514004
0.309844
0.343934
0.291227
0.309158
0.338509
0.324885
0.377969
0.283446
0.377446
0.857592
0.292353
0.296767
0.323078
0.293377
0.815049
1.20625
0.367145
0.402944
0.495736
0.288528
0.277761
0.3151
0.329971
0.307744
0.313962
0.30521
0.295924
0.49724
0.300022
0.331708
0.309237
0.287744
0.289675
0.971317
0.304267
0.321347
0.305853
0.405305
0.345419
0.321654
0.625655
0.375554
0.309235
0.356723
0.336763
0.344221
0.381111
0.361584
0.299416
0.370941
0.352927
0.303946
0.320983
0.33365
0.408604
0.420804
0.309111
0.320415
0.369504
0.398398
0.440405
0.539764
0.90643
0.872122
0.322415
0.289585
1.09359
0.488982
0.520457
0.298017
0.288451
0.308166
0.282955
0.303966
0.290278
0.294344
0.31765
0.292725
0.297406
0.298564
0.296559
0.288086
0.509147
0.341369
0.320078
0.298571
0.307129
0.569852
0.290893
0.297876
0.375219
1.02681
0.493034
0.374181
0.362234
0.295455
0.328052
0.43866
0.616218
0.364965
0.30589
0.355493
0.306126
0.309296
0.333751
0.399019
0.346761
0.303632
0.364616
0.384738
0.569473
0.359131
0.728647
0.55286
0.368558
0.362856
0.310842
0.315842
0.358334
0.281729
0.30818
0.559403
0.298462
0.328376
0.686316
0.334788
0.354937
0.429406
0.356582
0.301778
0.335453
0.294392
0.330463
0.690744
0.338395
0.396879
4.42423
0.545074
0.958621
0.788191
0.308375
0.311256
0.484825
0.290164
0.51178
0.456295
0.649143
0.369858
0.285848
0.771948
0.285538
0.501098
0.382626
0.3032
0.675553
0.890684
0.287198
0.293814
0.836292
0.286323
0.295357
0.29458
0.28794
0.340475
0.541636
0.542771
0.315943
0.756565
0.309826
0.307721
0.305126
0.814625
0.310367
0.852984
0.289376
0.328179
0.29264
0.395839
0.334779
0.462526
0.292878
0.642388
0.440545
0.443202
0.658459
0.314308
0.308324
0.916255
0.41429
0.32278
0.388328
0.833257
0.314521
0.39492
0.319289
0.549982
0.371706
0.295752
0.286988
0.423791
0.304226
0.356111
0.320535
0.288383
0.313268
0.295605
0.297923
0.326165
0.751227
0.311566
0.297264
0.296334
0.307548
0.310756
0.343425
0.283379
0.356665
0.40856
0.377253
0.369965
0.303217
0.393119
0.298126
0.351896
0.906663
0.420573
0.695797
0.307586
3.08171
0.333494
0.471037
0.365003
0.290827
0.372227
0.296044
0.296568
0.333212
0.346667
0.277822
0.303437
0.286575
0.616876
0.286212
0.303153
0.33816
0.690762
0.127491
0.307516
0.752622
0.840559
0.55966
0.530737
0.809438
0.128758
0.375524
0.179311
0.332866
0.462965
3.5058
0.403806
0.347348
0.28449
0.289289
0.720488
0.319046
0.402777
0.732817
0.361002
0.577338
0.349842
0.553286
0.295392
0.353265
0.336502
0.283521
0.37263
0.279507
0.327515
1.04158
0.953482
1.08663
0.418098
0.887008
0.302374
0.280636
0.29231
0.353434
0.28714
0.339556
0.294566
0.379928
0.366912
0.286576
0.29244
0.350862
0.287392
0.315047
0.345404
0.310979
0.343096
0.461349
0.307192
0.339477
0.782651
0.33786
0.738407
0.759699
0.332962
0.37205
0.289646
0.438026
0.323157
0.337759
0.710155
0.290437
0.346802
0.321583
0.332327
0.301353
0.298924
0.452291
0.476602
0.3755
0.325591
0.757129
0.348714
0.607158
0.55907
0.360507
0.892247
0.414285
0.343125
0.315736
0.351536
0.357849
0.321102
0.289979
0.3283
0.167249
0.546724
0.176551
0.298253
0.327069
0.3947
0.144721
1.02542
0.335748
0.362638
0.359977
0.160074
0.364421
0.937666
2.53349
0.349692
0.295416
0.365539
0.477201
0.299745
0.343151
0.366128
0.301906
0.349798
0.309843
0.722045
0.32465
1.59595
0.386098
0.843487
0.334597
1.70967
0.967158
0.868847
0.314882
0.328991
0.410571
0.360683
0.300394
0.355049
0.313016
0.774328
0.288657
0.426067
0.630193
0.287395
0.289074
0.302247
0.317763
0.337709
0.360466
0.356771
0.377291
0.371666
0.313758
0.383147
0.318747
0.415931
0.312238
0.355419
0.29176
2.61653
1.32813
0.349464
0.414975
0.281779
1.76801
0.282843
0.284198
0.344976
0.282232
0.36347
0.34708
0.277951
0.278974
0.334876
1.8337
0.548466
0.370891
0.766517
0.288951
0.361219
0.313614
0.35956
0.759915
0.369973
0.778879
0.278717
0.309513
0.737049
0.82571
0.314211
0.321925
0.582204
0.377036
0.328034
0.44553
0.353387
0.357165
0.378591
0.36038
0.277405
0.371589
0.342977
0.438099
0.288752
0.349842
0.283376
0.320991
0.802721
0.779393
0.301753
0.432324
0.313943
0.344236
0.304439
0.491766
0.302902
0.315705
0.330859
0.336424
0.404043
0.363343
0.444907
0.33724
0.281967
0.322603
0.290192
0.345153
0.288573
0.480827
0.413469
0.318414
0.565699
0.317795
0.286128
0.343161
0.290426
0.362665
0.585049
0.308117
0.392592
0.359091
1.06214
0.361843
0.344419
0.365092
0.672487
0.366022
0.490603
0.341333
0.36855
0.452721
0.379917
0.349507
0.75385
0.413964
0.363187
0.308728
0.295603
0.503437
0.309603
0.897834
1.41336
0.375887
0.386891
0.357432
0.438428
0.408524
0.349654
0.790782
0.43852
0.598947
0.291359
0.383075
1.13175
0.444602
0.321541
0.430062
0.302755
1.14295
0.350652
0.35674
0.303325
0.284694
0.291523
0.323154
0.292308
4.63139
0.289161
0.61778
0.285142
0.388607
0.349285
0.483562
0.32168
0.326676
0.313545
0.641373
0.427683
0.463648
0.295741
0.294172
0.414615
0.338675
0.325513
0.28983
0.286987
0.284928
0.308474
0.28486
0.344167
0.289392
0.521372
0.393785
1.24331
0.711563
0.536201
0.513008
0.355164
0.362755
0.283964
0.538452
0.300216
0.305519
0.30007
0.4205
0.454107
0.301175
0.383415
0.729866
0.451971
0.290522
0.292658
1.68558
0.761448
0.349905
0.804571
0.806623
0.586589
0.718612
0.522377
0.702098
0.369048
0.578251
0.709493
0.286651
0.294518
0.280258
0.434256
0.564062
0.303346
0.286579
0.366609
0.332561
0.376511
0.721691
0.439426
0.925227
0.337641
0.294785
0.311439
0.294914
0.330463
0.699819
1.00488
0.835294
0.729381
0.314355
1.26542
0.560255
0.30775
0.499884
0.43482
0.717615
0.365751
0.439133
0.716098
0.715551
0.436097
0.823665
0.460188
0.792217
0.353577
0.307429
0.368147
1.11435
0.730553
0.355357
0.310681
0.505035
0.406026
0.541847
0.327378
0.347684
1.09167
1.1724
0.181099
0.360356
0.173726
0.288643
0.176743
0.339639
0.428754
0.549583
0.158687
0.396438
0.457667
0.122641
0.423756
1.29552
0.374737
0.345407
0.79113
0.303049
0.452758
0.294574
0.283102
0.299386
0.307576
0.82062
0.650245
2.14688
0.354166
0.353212
0.594675
0.340259
0.394122
0.372084
0.328031
0.3068
0.541286
0.379922
0.390013
0.296409
0.383101
0.367749
0.694131
0.422365
0.752808
0.930803
0.719379
0.373698
0.364742
0.702896
0.237717
0.501296
0.327385
0.351384
0.295711
0.752973
0.585445
0.640404
0.682508
0.563737
0.290139
0.390814
0.836683
0.761674
0.35226
0.355762
0.418987
1.72231
0.318965
0.291199
0.361706
0.318549
0.814964
0.330777
0.559445
0.686236
1.06169
2.02674
0.495533
0.413792
0.7584
1.19791
0.8191
0.535328
0.812088
0.906815
0.482884
0.34324
0.408698
0.356454
0.279054
0.302627
0.388425
0.468923
1.84557
0.343073
0.386401
0.401855
0.371435
0.432678
0.519114
0.445748
0.35977
0.375916
1.04614
1.02876
0.155793
0.362259
0.316398
0.33694
1.53139
0.832038
0.366052
0.583321
0.307069
0.396504
0.479935
0.514667
0.307587
0.306816
0.303924
0.356856
0.877064
0.418812
0.326899
0.707346
0.293017
0.915555
0.6826
0.432713
0.665794
0.335936
0.289348
0.311755
0.292838
0.346301
0.359438
0.304399
0.319877
0.30592
0.290839
0.460852
0.546637
0.686985
0.29574
0.433856
0.328232
0.358304
0.315518
0.526088
0.321952
0.311118
0.307383
0.291763
0.297784
0.300814
0.419585
0.285762
0.328488
0.335356
0.567217
0.297734
0.353566
0.464616
0.747251
0.927739
0.352431
0.79058
0.441833
0.338584
0.31386
0.492945
0.312243
3.94831
0.378918
0.297983
0.388617
0.394852
0.372231
0.415225
0.675775
0.966975
0.403601
0.818265
0.311822
0.284042
0.357783
0.290517
0.288234
0.372686
0.289601
0.2949
0.540948
0.294726
0.208356
1.86431
0.514645
0.28855
0.289199
0.561398
0.308604
0.3012
0.531355
0.302818
0.710547
0.361868
0.745975
0.289761
0.503557
0.403974
0.621366
0.293994
0.401098
0.295467
0.929626
0.364327
0.288728
1.3008
0.391882
0.468236
0.322941
0.342591
0.373675
0.288043
0.465415
0.287875
0.296471
0.293598
0.412352
0.544826
0.300981
0.295133
0.297361
0.292243
0.305085
2.76516
0.288919
0.419031
0.288349
0.526733
0.327699
0.335826
0.332096
0.430582
0.308808
0.380701
0.280682
0.312324
0.306338
0.318068
0.289678
0.40051
0.371048
0.953166
0.948324
0.745605
0.361249
0.31174
0.311781
0.288741
0.293125
1.00595
0.591738
0.3643
0.337406
0.282535
0.305057
0.279793
0.294657
0.487039
0.478331
0.7194
0.932027
0.33697
0.361624
0.365932
0.28888
0.527242
0.342566
0.421197
0.351636
0.327047
1.03826
0.380172
0.28289
0.309547
0.369454
0.299493
0.466956
0.2892
0.611803
0.341352
0.861285
0.457771
0.722658
0.297089
0.307119
0.323184
0.374405
0.33085
0.358234
0.297402
0.288768
0.293867
0.300667
0.354884
0.551467
0.33812
0.80767
0.383825
0.315433
0.479079
0.381689
0.36145
0.242406
1.0091
0.826578
0.220894
0.300559
0.294818
0.800098
0.298997
0.378364
0.34608
0.333953
0.263346
0.352148
0.351804
0.289717
0.385926
0.344954
0.933125
0.491475
0.403657
0.278128
0.365138
0.422848
0.318416
0.292728
0.843921
0.790204
0.30895
0.726734
0.299192
0.288154
0.364837
0.2979
0.846025
0.285692
0.286817
0.291794
0.612946
0.287895
0.326866
0.419106
0.424258
0.287064
0.305969
0.309206
0.310617
0.297477
0.338955
0.333334
0.550018
0.394663
0.3587
0.535177
0.350486
0.552124
0.331359
0.835973
0.410989
0.237984
0.60535
0.136719
0.398086
0.486478
0.543029
0.362052
0.288378
0.290458
0.286131
0.347823
0.778977
0.363387
0.286955
0.339653
0.342862
0.279043
0.445832
0.311086
0.360695
0.427154
0.307413
0.296058
0.321031
0.311403
2.57112
0.908482
0.35193
0.348441
0.390262
0.343564
0.758641
0.853784
0.936797
0.732439
0.335027
0.30645
0.31293
0.279024