/*--------------------------------*- C++ -*----------------------------------*\
| =========                 |                                                 |
| \\      /  F ield         | OpenFOAM: The Open Source CFD Toolbox           |
|  \\    /   O peration     | Version:  2506                                  |
|   \\  /    A nd           | Website:  www.openfoam.com                      |
|    \\/     M anipulation  |                                                 |
\*---------------------------------------------------------------------------*/
FoamFile
{
    version     2.0;
    format      ascii;
    arch        "LSB;label=32;scalar=64";
    class       volScalarField;
    location    "0.0817324";
    object      nut;
}
// * * * * * * * * * * * * * * * * * * * * * * * * * * * * * * * * * * * * * //

dimensions      [0 2 -1 0 0 0 0];

internalField   nonuniform List<scalar> 
47425
(
0.00473277
0.00469438
0.00421313
0.00192759
0.00304946
0.00431242
0.00414209
0.00309662
0.00742777
0.00265036
0.00236118
0.00738765
0.00480851
0.00381764
0.00307343
0.00366688
0.00435351
0.0022855
0.000237603
0.00256254
0.00365088
0.00666199
0.00297585
0.00482618
0.00662512
0.0065178
0.00370203
0.000467564
0.00407042
0.00525834
0.0069592
0.00714123
0.00745915
0.00420503
0.00499212
0.00452852
0.00667177
0.00537826
0.00445601
0.00408964
0.00493477
0.00503621
0.00494872
0.00260976
0.000913977
0.00324008
0.00336769
0.00451855
0.00371834
0.00609268
0.000613945
0.00250002
0.0057833
0.00123891
0.00319865
0.00290856
0.0063944
0.00493261
0.00247843
0.0048724
0.0009597
0.000685492
0.00114865
0.0027696
0.0073849
0.00646681
0.00555496
0.00397981
0.00110147
0.00500461
0.00375327
0.00532825
0.00575743
0.00332634
0.00162829
0.00746319
0.00120162
0.00369651
0.000188013
0.00179323
0.00155113
0.00463905
0.00690085
0.00742906
0.00544126
0.00376651
0.00513211
0.00509703
0.00386789
0.0013957
0.00676799
0.00433769
0.00698611
0.00320307
0.00257232
0.001857
0.00606732
0.00540933
0.00342118
0.00448522
0.00556492
0.000905475
0.00569285
0.000925435
0.00581087
0.00680041
0.00565513
0.00333109
0.00573451
0.00704301
0.00377743
0.00515921
0.00541827
0.00223301
0.0072252
0.000325313
0.0072481
0.000705399
0.00421853
0.00514014
0.00391778
0.0074714
0.00590257
0.00238598
0.00355105
0.00640938
0.00365063
0.0074179
0.00330643
0.00694441
0.00659745
0.00333782
0.000964693
0.00284435
0.00464725
0.00417338
0.00620842
0.00614659
0.00434934
0.00308383
0.00499002
0.00217284
0.00458339
0.00459575
0.00616297
0.00742414
0.00345937
0.00542166
0.0023561
0.00499667
0.00459056
0.000530367
0.00738985
0.000403982
0.00273759
0.00370879
0.00269774
0.000293017
0.00371953
0.00444101
0.00731915
0.00660845
0.00562035
0.00648143
0.00115182
0.000400662
0.00743206
0.001585
0.00309518
0.000767254
0.00170076
0.00398992
0.00479059
0.00305118
0.00471458
0.00118376
0.000376935
0.00404547
0.0054249
0.0067373
0.000306089
0.00562771
0.00470036
0.0062624
0.00622238
0.00696041
0.00527458
0.00104169
0.00230929
0.00492055
0.00746955
0.00402104
0.00480226
0.00474277
0.00630795
0.00718423
0.00582733
0.00434078
0.00732603
0.00334691
0.00487459
0.00294354
0.00529075
0.0071538
0.00227547
0.00234968
0.00531575
0.00708274
0.00400476
0.00747105
0.00453527
0.00444057
0.00745916
0.00327125
0.00454534
0.00454785
0.00387186
0.00197809
0.00309405
0.00380005
0.00172031
0.00234761
0.00414464
0.0030275
0.00236394
0.00159231
0.00636607
0.00238014
0.00699968
0.00375251
0.00412389
0.00421854
0.0032371
0.00748888
0.0022027
0.00339197
0.00159478
0.00289844
0.00178064
0.00199662
0.00396671
0.00468628
0.00685819
0.00289291
0.00649764
0.00733162
0.00432284
0.00590009
0.00662506
0.00383348
0.00687591
0.00201802
0.00440135
0.00742026
0.00331837
0.00686357
0.00662643
0.00299076
0.00316361
0.00739659
0.00301364
0.00745956
0.00388276
0.00263822
0.00490467
0.00384387
0.0066163
0.00413599
0.00455494
0.00389136
0.0038821
0.0019889
0.00167327
0.00591028
0.00207078
0.00206061
0.00207277
0.00052016
0.0017168
0.000565731
0.000941814
0.00472402
0.000885961
0.00290785
0.00379765
0.00348379
0.00332752
0.00345917
0.00395704
0.00734992
0.000716079
0.00478002
0.00737543
0.00509995
0.00440888
0.00323611
0.00277562
0.0062591
0.00478729
0.00473719
0.00371008
0.00647264
0.00371709
0.00483269
0.000918449
0.00079695
0.000520892
0.00688112
0.00591969
0.00676078
0.00311746
0.000787495
0.00361989
0.00277471
0.00188606
0.00452608
0.0032451
0.00300692
0.0032925
0.00139937
0.00201486
0.00693005
0.00505434
0.00595592
0.00403274
0.00666202
0.00392677
0.00446617
0.00538005
0.0040515
0.00350924
0.000963124
0.00357073
0.0039584
0.00297232
0.00685247
0.00081274
0.00631193
0.00619239
0.00550746
0.00672858
0.00667011
0.00612332
0.00569784
0.00537283
0.00578224
0.00487634
0.00631907
0.0035434
0.00393915
0.0066362
0.00640062
0.00500223
0.00643944
0.00652067
0.00244076
0.00389157
0.00691914
0.00636874
0.00385728
0.00187927
0.00528211
0.00403424
0.00326807
0.0059953
0.00634932
0.0027622
0.00743424
0.00478791
0.00676189
0.00273118
0.00128259
0.00375229
0.00698656
0.00192608
0.00694336
0.00399743
0.00382907
0.00502326
0.0066559
0.00563154
0.00681188
0.00675454
0.00481457
0.00394537
0.00439934
0.00371825
0.00563933
0.00717397
0.00374597
0.00566154
0.00570381
0.00394286
0.00510031
0.00448345
0.00620656
0.00515665
0.00348081
0.00326145
0.00579123
0.0010557
0.00638194
0.00222938
0.00459465
0.00339646
0.0033637
0.00616926
0.00235378
0.00624561
0.0034533
0.00620653
0.00114562
0.000957306
0.00662523
0.00245726
0.00376153
0.00351111
0.00372432
0.00401206
0.0036802
0.00395019
0.00469543
0.0061379
0.00300881
0.004345
0.00597097
0.00366751
0.00383322
0.00577551
0.000844755
0.000352741
0.00654434
0.000461342
0.000448442
0.00392202
0.000426507
0.00100295
0.00608035
0.00374189
0.00396891
0.00379268
0.00101344
0.00369142
0.00569522
0.00596367
0.00406749
0.00394203
0.00389946
0.0036285
0.00120284
0.000736476
0.00117839
0.00543752
0.000925618
0.0036928
0.00493854
0.00689067
0.00492348
0.0069516
0.00422914
0.00478994
0.00284693
0.00427245
0.0074896
0.00373929
0.00500363
0.00419277
0.00704787
0.00465373
0.00444991
0.00523084
0.00562932
0.00338577
0.00271346
0.00499761
0.00404424
0.00696938
0.00138793
0.00277649
0.00187653
0.00744304
0.00251386
0.00290552
0.00276124
0.00673206
0.00366124
0.00740267
0.00486073
0.00266696
0.0031859
0.00342055
0.00298217
0.00512608
0.00222649
0.000818777
0.0060249
0.00148431
0.00558324
0.0014806
0.00572503
0.00557642
0.00660045
0.00426661
0.00492573
0.00286768
0.00476944
0.00629262
0.00664554
0.00565017
0.004222
0.00257515
0.00338135
0.00689261
0.0053594
0.00455832
0.00487895
0.00497525
0.0046796
0.00434124
0.00233284
0.00472291
0.00372038
0.000635803
0.00494898
0.00427535
0.00620261
0.0074118
0.00164907
0.00215002
0.00431126
0.00563843
0.00416897
0.00385694
0.00683765
0.00203411
0.00747828
0.00519295
0.00223841
0.0026373
0.00495091
0.002728
0.00706251
0.00407962
0.0041146
0.00508694
0.00672056
0.00541973
0.000911955
0.0046082
0.00238044
0.00637494
0.00188039
0.0059813
0.00490148
0.00194339
0.00229969
0.00435479
0.00637396
0.000703154
0.00516394
0.00512522
0.00505422
0.00592592
0.00643526
0.00210452
0.00286527
0.00582103
0.00454361
0.00446682
0.006689
0.00182127
0.00670014
0.004904
0.000403746
0.00422556
0.0068453
0.000764968
0.00123116
0.00704774
0.000310217
0.000326733
0.00407964
0.00744586
0.00542939
0.00662125
0.00426034
0.00373943
0.00131324
0.00684529
0.00263761
0.0057873
0.00192204
0.00218024
0.00433118
0.00461957
0.00157024
0.00661793
0.00570719
0.00333795
0.00331336
0.00234428
0.0029354
0.00294892
0.00667522
0.00327886
0.00285124
0.00288894
0.00532514
0.00282463
0.00308168
0.00616027
0.00239778
0.00360055
0.00381607
0.00263714
0.00330097
0.0042175
0.00492956
0.00562109
0.00156043
0.00507663
0.00621143
0.0059451
0.000281521
0.00382525
0.00455191
0.000494255
0.000774734
0.00685469
0.0046257
0.000140702
0.00201752
0.000731473
0.00249433
0.00315409
0.000788734
0.00478237
0.00588139
0.00590927
0.00277552
0.00335451
0.0033283
0.0061029
0.0030863
0.00429494
0.00371281
0.00580085
0.00417942
0.00364457
0.00169667
0.000942103
0.002705
0.00272984
0.00391885
0.00543506
0.00342016
0.00741649
0.00605402
0.00567848
0.00526684
0.00521527
0.00187242
0.00469477
0.00609631
0.00177936
0.0018936
0.00110904
0.00111884
0.00380912
0.00694892
0.00478475
0.00666526
0.00131118
0.00426417
0.00133131
0.00410306
0.00370139
0.00476314
0.00453993
0.0054596
0.00326345
0.00175714
0.00337842
0.00491761
0.00187535
0.00399323
0.00748587
0.00406734
0.00394212
0.00182058
0.00469795
0.00183212
0.00323005
0.00747321
0.00655029
0.00242601
0.00396118
0.00339687
0.00743285
0.00494336
0.00392253
0.00429123
0.00400441
0.00376711
0.00452637
0.000835197
0.000574863
0.00413975
0.000745636
0.00433559
0.0027911
0.00330475
0.00595744
0.00440773
0.00456686
0.00390856
0.00389266
0.00643886
0.000540254
0.00224827
0.00324684
0.00506655
0.00621182
0.00366639
0.00503754
0.00232996
0.00720686
0.0017907
0.00391577
0.00655118
0.0039886
0.00625281
0.00511721
0.00426697
0.0056248
0.00344122
0.00691709
0.00614088
0.00347373
0.000958968
0.00695148
0.000758638
0.00214786
0.00198456
0.000744948
0.00405772
0.00359229
0.00197997
0.0031832
0.000763776
0.000810524
0.000887541
0.00308497
0.00460767
0.00325583
0.0028471
0.000807655
0.00240657
0.00356438
0.00525158
0.00414659
0.00391001
0.00306343
0.00545777
0.00408971
0.00121317
0.00183965
0.00555491
0.00246468
0.00102281
0.000660132
0.00400851
0.000579706
0.00177756
0.000631017
0.000807564
0.00449995
0.00297407
0.00663505
0.00623418
0.00467357
0.000718755
0.00116463
0.00462368
0.00472042
0.00685049
0.000890452
0.000872866
0.00687301
0.00221555
0.00354214
0.00685819
0.00216882
0.00689293
0.00682849
0.00410239
0.00465679
0.00147845
0.00611582
0.0068183
0.00481839
0.00511459
0.00508574
0.000959895
0.00188196
0.00670269
0.00116732
0.00584666
0.00617266
0.00613929
0.00173537
0.00444116
0.00211918
0.00254183
0.00534391
0.00681593
0.00118904
0.000621097
0.0042884
0.00372382
0.00189757
0.0051534
0.00560955
0.00290034
0.00265422
0.00294507
0.007422
0.00246401
0.00104834
0.0074237
0.00102494
0.00492893
0.00393144
0.00645058
0.00195833
0.00259226
0.00662194
0.00465994
0.00117798
0.00306281
0.00187478
0.00441993
0.0050616
0.00442007
0.00358632
0.00425336
0.00295786
0.000655362
0.00437752
0.00247034
0.00175934
0.00174527
0.001023
0.00170281
0.00400477
0.000526268
0.00657287
0.00628045
0.00381568
0.00266666
0.00370741
0.00131929
0.0012569
0.00313995
0.00429218
0.00423365
0.00308229
0.00350298
0.00384043
0.0105947
0.00140973
0.00382343
0.00341485
0.00258898
0.00172864
0.00634226
0.000533056
0.0038524
0.00537189
0.00386731
0.00385998
0.0103427
0.00636112
0.00317104
0.00386328
0.000655713
0.00265254
0.0047107
0.00358466
0.00534507
0.00345928
0.000733233
0.00462405
0.00245114
0.00521578
0.0017109
0.00286743
0.00376015
0.00546092
0.00528979
0.00357869
0.00227869
0.00371444
0.00155081
0.000721102
0.00511168
0.00662384
0.00461042
0.000983188
0.00499984
0.00265497
0.00681364
0.00164063
0.00149854
0.00332249
0.00289823
0.00434281
0.00672471
0.00514761
0.00312001
0.00125341
0.00206628
0.00111039
0.00618602
0.00210876
0.00229833
0.00291061
0.00344679
0.00554053
0.00167076
0.00162829
0.0034988
0.000855158
0.0034523
0.00343784
0.00409951
0.00462873
0.00341213
0.00455222
0.00115084
0.00463405
0.00443251
0.00413491
0.00570346
0.000745821
0.00280901
0.00066675
0.00147593
0.000730034
0.0020525
0.0037793
0.00121571
0.0033615
0.00119214
0.00196498
0.00201275
0.00180211
0.002802
0.0049117
0.00408602
0.00746825
0.00135151
0.00366057
0.00333076
0.0041824
0.00126022
0.00552394
0.00422073
0.00576019
0.00746033
0.00287023
0.00170774
0.00288955
0.00297997
0.00494373
0.00228666
0.00648914
0.00308533
0.00301609
0.00631877
0.00220455
0.0022267
0.00413873
0.00192694
0.00367533
0.00336373
0.00202972
0.00288279
0.00302757
0.000210502
0.000672895
0.00192126
0.000750567
0.00323331
0.00314629
0.000570862
0.000901463
0.00453464
0.000977364
0.00327435
0.00419489
0.000559783
0.00257953
0.00669956
0.00312751
0.00136415
0.00563491
0.000653678
0.000331419
0.00218306
0.000790478
0.00219095
0.000899228
0.000827235
0.00521018
0.00440838
0.00273131
0.00173061
0.00360807
0.0070637
0.00195923
0.000669534
0.00400784
0.00157442
0.0041805
0.00198179
0.0060177
0.00566879
0.00287074
0.00265729
0.00409852
0.00167716
0.00462377
0.00143902
0.00673704
0.00547457
0.00537041
0.00253771
0.00489905
0.00686136
0.000752578
0.0021363
0.00196507
0.00366927
0.0024805
0.00265092
0.00122044
0.00392735
0.00107517
0.00305226
0.00490709
0.00302697
0.00291333
0.0008842
0.00187672
0.00166407
0.00587687
0.00457759
0.00191758
0.00393664
0.00290388
0.00499147
0.00740451
0.00601632
0.0037805
0.00334682
0.000785066
0.00371427
0.000486381
0.0036718
0.00431731
0.00296708
0.00493296
0.00366223
0.00393776
0.00430718
0.00192125
0.00542191
0.00137452
0.0068785
0.000354755
0.00136916
0.00145505
0.0019612
0.00411713
0.00526674
0.00342146
0.00464564
0.00060837
0.000724734
0.00336531
0.00212573
0.000986717
0.000889188
0.0022973
0.00112816
0.000650842
0.00345499
0.00438174
0.000548686
0.00380467
0.00431262
0.00408716
0.00113518
0.000482256
0.00379551
0.00344455
0.00124955
0.00248965
0.00165717
0.00073251
0.00322416
0.00105847
0.00115084
0.00333413
0.00433392
0.00120317
0.00559531
0.00193354
0.000229001
0.00689918
0.00417658
0.00370184
0.00503533
0.00297567
0.00297307
0.00709663
0.00294174
0.00408618
0.000781045
0.00152779
0.00433819
0.00139855
0.00703566
0.000379662
0.00662918
0.00342974
0.00221999
0.00497271
0.000959245
0.00384781
0.00298938
0.00234672
0.00446348
0.00388261
0.00600658
0.00210097
0.000656445
0.00559608
0.00155157
0.000682788
0.00243595
0.00343976
0.000958162
0.00160927
0.00478132
0.00492926
0.000992811
0.00171415
0.00231107
0.000800608
0.002586
0.000879712
0.00328614
0.00272115
0.00210959
0.00098091
0.00580157
0.00507364
0.00207376
0.00428471
0.00255693
0.00397427
0.00159018
0.00488837
0.00342383
0.005756
0.00145312
0.00560388
0.000600376
0.00216103
0.00556575
0.00739773
0.00185048
0.00157537
0.000839756
0.00185062
0.00194018
0.00105627
0.000834133
0.00393201
0.000910667
0.00508557
0.00277182
0.000394034
0.00147561
0.00308877
0.00344709
0.00561305
0.00140014
0.00096573
0.00150274
0.00313743
0.00831489
0.00689238
0.00170411
0.00353899
0.00379482
0.0062777
0.000985544
0.00287343
0.00157546
0.0040367
0.00147722
0.00392751
0.00277393
0.0010548
0.00179896
0.00235218
0.00233361
0.00532479
0.000392804
0.00161099
0.00147095
0.00139535
0.00709075
0.00512214
0.00100425
0.000785381
0.00161421
0.00259815
0.00267833
0.00163462
0.00227551
0.0016087
0.00519999
0.0012568
0.00127749
0.0051816
0.00112797
0.00331682
0.00243717
0.00267526
0.00121428
0.00244107
0.00551638
0.000657738
0.00327354
0.000648556
0.00258824
0.00352338
0.00298623
0.0018279
0.00122268
0.00231738
0.00373096
0.00285219
0.00114974
0.00374772
0.00410771
0.000692834
0.00656068
0.00356119
0.000824368
0.00333523
0.0027279
0.00270319
0.0023687
0.00113796
0.00351882
0.000150944
0.00230306
0.000746202
0.00323368
0.00108237
0.00258687
0.000864572
0.00138825
0.00143298
0.00356628
0.00392969
0.00741052
0.00396078
0.00352379
0.00287232
0.000697033
0.0037558
0.00595344
0.00399355
0.00469797
0.00286141
0.00415417
0.00690018
0.00745242
0.002967
0.000932756
0.0064308
0.00276151
0.00226013
0.00513261
0.00613164
0.00280609
0.0020886
0.00747109
0.00527254
0.00326703
0.00347055
0.00543343
0.00387981
0.00114244
0.00385163
0.00317557
0.00533742
0.00665231
0.0019751
0.0045951
0.00576294
0.000841331
0.00230528
0.000935503
0.00622023
0.000891085
0.000413064
0.00522401
0.000388256
0.000758134
0.000523931
0.00388816
0.00450188
0.00423835
0.00133746
0.00674398
0.00437194
0.00444642
0.00381011
0.00265086
0.00339269
0.0033996
0.000999285
0.0042716
0.00262617
0.000794249
0.004005
0.000304518
0.0015987
0.00121075
0.00605432
0.00299584
0.00190048
0.00558753
0.00448738
0.00192713
0.00670832
0.0028421
0.00159841
0.000467792
0.00696296
0.00142998
0.00487406
0.00294359
0.00254768
0.0049673
0.00130574
0.00442672
0.00202594
0.00434348
0.00127705
0.00027638
0.00376418
0.00665174
0.00229492
0.00454043
0.00107986
0.00374203
0.00370349
0.00428001
0.00403319
0.00523885
0.00711412
0.00366958
0.0021331
0.0049957
0.00218364
0.00389625
0.00376071
0.00689316
0.00229635
0.00370864
0.00396446
0.00524545
0.00424261
0.00432732
0.00305171
0.00407789
0.00430152
0.00564817
0.00230378
0.00258231
0.0074721
0.00378897
0.00348671
0.00494341
0.00377085
0.00367351
0.00410018
0.00383198
0.00382494
0.00607556
0.00379277
0.00553036
0.00451568
0.0060412
0.0020074
0.00220994
0.00196174
0.0036191
0.00460042
0.00397378
0.0011528
0.00494489
0.00476954
0.0052199
0.00142914
0.00297705
0.00120684
0.00121939
0.00125217
0.00302427
0.0043289
0.0038985
0.00402885
0.00601905
0.00118025
0.00384522
0.00606077
0.00397159
0.00312011
0.00383936
0.00153032
0.0038382
0.00234336
0.00266887
0.00330476
0.00587272
0.00424831
0.00361347
0.00368565
0.00437855
0.00293337
0.00318882
0.00262785
0.003599
0.00508199
0.00492098
0.0020867
0.00187037
0.00450599
0.00403418
0.00227241
0.00367544
0.00226336
0.00599558
0.00491692
0.0022649
0.00447113
0.00548495
0.00456547
0.00653888
0.00598933
0.00331346
0.00417648
0.00219801
0.00426064
0.00221837
0.00553737
0.00415789
0.000981234
0.00388097
0.00416783
0.00474952
0.00490417
0.00388974
0.00421155
0.000308674
0.00345715
0.00438933
0.00565647
0.00494753
0.00490053
0.00686746
0.00584186
0.00349416
0.00398788
0.00583927
0.0063194
0.00267876
0.000966159
0.00123406
0.00295324
0.00172913
0.00349494
0.0037422
0.00352775
0.00269714
0.00192196
0.00316878
0.0038579
0.000812061
0.00461148
0.00385379
0.00374185
0.0038851
0.00545437
0.000287948
0.00447805
0.00349782
0.00743039
0.00257394
0.0023764
0.000401887
0.000219702
0.00444433
0.00542588
0.00664986
0.00387028
0.00356125
0.0046765
0.000199023
0.00168531
0.00454963
0.00248424
0.00120137
0.00467296
0.00676003
0.00342135
0.00661484
0.00479688
0.00623503
0.00410671
0.00266253
0.00377576
0.00411738
0.00493007
0.00179077
0.00411505
0.00743715
0.00163444
0.005719
0.00319596
0.00272529
0.00102125
0.00159373
0.00338461
0.00287963
0.0048566
0.00284779
0.00279993
0.00572871
0.000575027
0.00158231
0.00287974
0.00378543
0.00339963
0.00376584
0.00373145
0.00107555
0.0068715
0.00631368
0.00574169
0.00538218
0.000819947
0.00121602
0.00121993
0.00176493
0.00286176
0.0028797
0.00691816
0.00648691
0.00454911
0.00471908
0.00491989
0.0053222
0.00684627
0.00103609
0.000724142
0.00679412
0.00530934
0.00241811
0.00258032
0.0027427
0.0067763
0.00449623
0.00182788
0.000874093
0.00333975
0.00198895
0.00299326
0.00154338
0.000536412
0.00309489
0.00582906
0.00667916
0.00617168
0.000873862
0.00500633
0.00435008
0.0040988
0.00690155
0.000828074
0.00040506
0.000441707
0.00162082
0.00480545
0.0056675
0.00650674
0.00206204
0.00356879
0.000876695
0.00083559
0.000824261
0.000525656
0.000815209
0.0016031
0.00645621
0.000754812
0.00739759
0.000321077
0.00390475
0.000756691
0.00444182
0.00161311
0.00523162
0.0028633
0.00224757
0.00225489
0.00426475
0.00559508
0.00398874
0.00085245
0.00100042
0.00500266
0.00516293
0.000462469
0.000479421
0.00348177
0.00156643
0.000776579
0.00158667
0.00445951
0.00643539
0.000907113
0.000795533
0.0014687
0.00703224
0.00138084
0.00594282
0.000807065
0.00109197
0.000612842
0.00228121
0.00542033
0.0014184
0.00630513
0.00459828
0.00366716
0.00207159
0.00534902
0.00342179
0.00408173
0.00372746
0.00403806
0.00612852
0.0060004
0.0031533
0.00640423
0.00543897
0.00411122
0.00385458
0.00144951
0.00371697
0.00233819
0.00397142
0.00451711
0.00400907
0.00091449
0.0033554
0.00324648
0.00179553
0.000540686
0.00408512
0.0044978
0.00291666
0.000921661
0.00174791
0.00122134
0.00439755
0.00607748
0.00411896
0.00329146
0.00518923
0.00330772
0.00305895
0.00354239
0.00660384
0.00437503
0.00418358
0.00429549
0.00308522
0.00406415
0.00359062
0.000625873
0.00335272
0.00388709
0.00403292
0.00282577
0.00104902
0.00306213
0.00355395
0.00435459
0.00302532
0.00122366
0.00104784
0.00370945
0.00314944
0.000358386
0.00147772
0.00202454
0.00399932
0.00145989
0.00306805
0.00394568
0.00251584
0.00107486
0.00466646
0.0040096
0.00270475
0.0062056
0.00232917
0.00265164
0.00303103
0.00332899
0.00194433
0.00395915
0.00584176
0.00664858
0.00168523
0.0031824
0.00384018
0.0059562
0.00474793
0.000769502
0.00293936
0.00332179
0.000427166
0.00165851
0.00541134
0.00339842
0.000939298
0.00157408
0.00224119
0.00668269
0.00289079
0.000981116
0.00460233
0.0068681
0.000645831
0.00171816
0.00127528
0.00237426
0.00468605
0.00440576
0.00149729
0.000599886
0.000747189
0.00495269
0.00509958
0.000583982
0.00478841
0.00177412
0.00307608
0.00147528
0.000909084
0.00464725
0.00330301
0.00113922
0.00394851
0.00503447
0.00440673
0.00354278
0.00534179
0.000842769
0.00028104
0.00326504
0.00352658
0.000687491
0.000497229
0.000654542
0.00193853
0.00104017
0.00188206
0.000515612
0.00352553
0.00353175
0.000849802
0.00217253
0.00220034
0.00113723
0.000968776
0.000427423
0.00523681
0.00482828
0.000732625
0.00655487
0.00419794
0.00077915
0.00509389
0.0032768
0.00391921
0.00280743
0.00496488
0.00592913
0.000446377
0.000615895
0.00245437
0.000651619
0.00237162
0.00348297
0.00424679
0.00417019
0.00321969
0.00414663
0.00484709
0.00378984
0.00427752
0.000649112
0.000602254
0.00397061
0.00160063
0.00386968
0.00418451
0.00249806
0.00349381
0.00360734
0.0043005
0.000413633
0.00103615
0.0041653
0.00057822
0.00278422
0.00138141
0.00280731
0.0033283
0.00114005
0.00278627
0.00102025
0.00306257
0.00289092
0.00289102
0.00595565
0.0011179
0.00679649
0.00516898
0.00224081
0.00421528
0.00139774
0.00324043
0.0023378
0.00338076
0.000817344
0.00377152
0.00340598
0.00362712
0.00671717
0.00504863
0.00314399
0.00176258
0.000432875
0.00270597
0.000747647
0.00310676
0.00418912
0.00510597
0.00431246
0.00471523
0.00426615
0.00330232
0.00115721
0.00186549
0.00114033
0.00058789
0.00314462
0.00393803
0.000157144
0.000802101
0.00554423
0.00566502
0.00117009
0.00373791
0.000675985
0.000433023
0.00265307
0.000723548
0.00124671
0.00267331
0.000706661
0.00159229
0.00534046
0.00348347
0.000977707
0.00122575
0.00576151
0.000910009
0.00603472
0.00262928
0.00409811
0.00261834
0.00173838
0.000784461
0.000955246
0.00589211
0.00568906
0.000228759
0.00658408
0.00447845
0.00112553
0.0054498
0.0027262
0.00424886
0.00300041
0.000514212
0.00137511
0.000918985
0.00162964
0.00315235
0.00104323
0.00540498
0.00458526
0.000955479
0.00631917
0.00357684
0.00260896
0.0048969
0.00121705
0.000621494
0.0064088
0.00216468
0.00667657
0.000701388
0.00373441
0.000553809
0.00275422
0.00313194
0.00519738
0.00244676
0.00264529
0.00593123
0.0040051
0.00314624
0.00668901
0.00138182
0.00318757
0.00344184
0.0060972
0.00368025
0.00343143
0.00230063
0.00283432
0.00188356
0.00295879
0.00325597
0.00351265
0.00135144
0.000538138
0.000755577
0.000675591
0.00108587
0.000797298
0.000872712
0.00248089
0.000192526
0.00067844
0.00161072
0.00165392
0.00240633
0.000959899
0.000942443
0.00211056
0.00145753
0.00201906
0.0059248
0.00242471
0.00186532
0.00370338
0.000887485
0.00335943
0.000643586
0.0017773
0.00111005
0.00135738
0.0013889
0.000696267
0.00172689
0.00060222
0.00259138
0.00303861
0.00371695
0.00153906
0.00482855
0.0052667
0.000880761
0.00321659
0.000930673
0.00177813
0.0050236
0.00232253
0.00384816
0.00146084
0.0011733
0.00618219
0.00500407
0.00154293
0.0009127
0.00359745
0.00264509
0.00122744
0.00103477
0.00401196
0.00664065
0.00381035
0.00393812
0.000713082
0.00682074
0.000845439
0.000352748
0.00483568
0.0023338
0.00398604
0.0031414
0.00085098
0.00274212
0.000759346
0.00313225
0.00411924
0.000487734
0.00102567
0.00501208
0.0022826
0.00497764
0.006206
0.00125183
0.00334384
0.000720138
0.00349867
0.00589864
0.0026221
0.0061714
0.00461952
0.00496445
0.00443052
0.00269931
0.00191918
0.00136771
0.00464791
0.00102091
0.00510382
0.00627041
0.00213198
0.00119964
0.000781051
0.000818704
0.00187762
0.00192001
0.00101227
0.000865992
0.000826107
0.000801755
0.00282115
0.00298104
0.00385635
0.00134423
0.00496501
0.00256638
0.00305783
0.00125188
0.000494506
0.00348142
0.00279965
0.00347541
0.00411992
0.00333827
0.00330801
0.00556786
0.00433624
0.00249715
0.00279679
0.00261157
0.00512234
0.00284123
0.00152016
0.000718156
0.00414035
0.000543373
0.0074438
0.00268968
0.00684125
0.00438132
0.00084399
0.00267209
0.00107708
0.00355166
0.0033419
0.00313377
0.00426985
0.00450095
0.00409735
0.00308014
0.01369
0.00714078
0.000734723
0.00278064
0.00114301
0.00275161
0.00106636
0.00536972
0.00442523
0.00329061
0.00374294
0.00284358
0.000915315
0.00608143
0.00423727
0.0011524
0.00246716
0.00243077
0.00241866
0.00243944
0.00218498
0.00202735
0.00460975
0.00729187
0.0062137
0.00189809
0.00138495
0.00438842
0.000479785
0.00685308
0.00166165
0.0064827
0.00580972
0.00172162
0.00435079
0.00635549
0.000891564
0.00742105
0.00397515
0.00130972
0.00393158
0.00648238
0.00119957
0.00640241
0.00718521
0.00101212
0.00261406
0.00284975
0.000709057
0.00693203
0.00179117
0.00123296
0.00158529
0.000876122
0.00112223
0.00409904
0.00582474
0.00276384
0.00561166
0.00169855
0.00281478
0.00476751
0.00538755
0.00348112
0.00113657
0.00293588
0.0041476
0.00341786
0.00337605
0.00235897
0.00738817
0.00209993
0.0010398
0.00354375
0.00313962
0.00434172
0.00381433
0.00270687
0.0043233
0.00213121
0.00311253
0.000579639
0.00372924
0.00701376
0.000922884
0.00286875
0.000643106
0.000938767
0.00647674
0.0032571
0.00113664
0.00309252
0.000656562
0.00134166
0.000562092
0.00133765
0.00062746
0.00301674
0.00137668
0.00150833
0.000508715
0.00107556
0.00280813
0.000619722
0.000676173
0.00271431
0.000320822
0.00114159
0.00458699
0.00308764
0.00135728
0.000877297
0.00699056
0.00360065
0.000913998
0.000688334
0.00103506
0.00119787
0.0014747
0.000758275
0.002709
0.00357208
0.00416427
0.00649474
0.00302142
0.0060719
0.000941171
0.00290789
0.00423878
0.000632901
0.00368044
0.00225761
0.00407357
0.00571774
0.00308206
0.00401875
0.00174707
0.00596983
0.00163279
0.00057815
0.00448326
0.00587869
0.00316633
0.00461371
0.000980238
0.00411364
0.00498916
0.00556552
0.000528629
0.00582723
0.00326984
0.00615247
0.00156411
0.00297546
0.00419007
0.005596
0.00480606
0.00152914
0.00342146
0.00246416
0.00722714
0.00657578
0.00634119
0.00476343
0.00431063
0.0034306
0.00573986
0.00325097
0.0035395
0.00220556
0.00116742
0.00102907
0.00299487
0.00164448
0.00409609
0.00256957
0.00344795
0.00367653
0.00603165
0.00312566
0.00421049
0.00592987
0.00203022
0.00444371
0.0029447
0.000989301
0.00460944
0.00264826
0.00108965
0.00341656
0.00105507
0.00173351
0.00112323
0.000314485
0.00268726
0.00485257
0.00211209
0.00042345
0.00239396
0.00670068
0.00571392
0.00466955
0.00317776
0.00426589
0.00675113
0.00679984
0.00340229
0.00268224
0.00709665
0.00634489
0.00700021
0.00488255
0.00266507
0.00161656
0.00288351
0.0057828
0.00318558
0.000878295
0.00494688
0.0056014
0.00385895
0.00057764
0.000580523
0.0037487
0.00539699
0.00432782
0.00274636
0.00400398
0.000996696
0.00160287
0.00458807
0.00396273
0.0053031
0.00329794
0.00168758
0.00454389
0.00314722
0.00335488
0.00120664
0.00191725
0.00145913
0.000876314
0.000208353
0.00200495
0.00187646
0.00388809
0.00371386
0.00323101
0.00317106
0.00522255
0.00415561
0.000456245
0.00596804
0.00174148
0.000587204
0.00322746
0.00290299
0.000715744
0.00195056
0.00384751
0.00372014
0.00699344
0.00287186
0.00103232
0.00372899
0.0013953
0.00775474
0.0024388
0.000709738
0.000799773
0.00311831
0.0028223
0.000991717
0.00431354
0.00063534
0.000553271
0.00114978
0.0074196
0.0062717
0.000307274
0.00539184
0.000491455
0.0018255
0.002968
0.00102521
0.0012417
0.00576952
0.00685364
0.000914935
0.00579168
0.00557888
0.00449924
0.00603462
0.00420965
0.00335455
0.00197641
0.00520103
0.000342113
0.00302082
0.00346814
0.00363876
0.000292777
0.00398479
0.000532597
0.00446926
0.00280529
0.00344373
0.00102625
0.00559045
0.00395257
0.0045602
0.000946487
0.0017376
0.00171327
0.00125002
0.00260239
0.0058118
0.000761471
0.00323629
0.003121
0.00328369
0.00462464
0.00297877
0.00377433
0.00717958
0.000346728
0.00117697
0.00415289
0.00451714
0.0033122
0.00360736
0.0026176
0.00258066
0.00426287
0.00218777
0.00409196
0.00455339
0.00408569
0.00152132
0.00433154
0.00415816
0.00426253
0.00335563
0.00675365
0.00536798
0.00445831
0.00272596
0.0038806
0.0026824
0.00251437
0.00341635
0.000812253
0.00459464
0.00248824
0.00167397
0.00112374
0.00144521
0.00350736
0.00800493
0.00170904
0.000861315
0.00389268
0.000993124
0.00393102
0.00677019
0.00262083
0.00169763
0.00374552
0.00397697
0.00674987
0.00452882
0.000333588
0.00450781
0.00616207
0.00224505
0.000493879
0.000465052
0.00324345
0.000284664
0.0015025
0.00111922
0.0021137
0.00128143
0.000489764
0.00440594
0.000705674
0.0038115
0.00463913
0.00774486
0.000459963
0.00194833
0.0064616
0.00535327
0.000963496
0.00366587
0.000459363
0.00499305
0.00284778
0.003802
0.00284664
0.000608753
0.00701596
0.00309607
0.00276682
0.00507457
0.00360634
0.00524949
0.00276649
0.000436715
0.000446352
0.000774534
0.00133645
0.00123409
0.00545881
0.00574304
0.00475926
0.00356711
0.00650823
0.00132352
0.00691198
0.000820367
0.00411958
0.00608923
0.0053884
0.00464652
0.00618415
0.00315912
0.00290011
0.00720267
0.00302532
0.000826917
0.00482745
0.00095466
0.000905036
0.00607546
0.000316566
0.000527926
0.00269509
0.00284899
0.00347496
0.00115921
0.00472596
0.00185274
0.00112797
0.00498645
0.00152107
0.00681418
0.00189755
0.00388949
0.00218921
0.00217654
0.000860597
0.00332799
0.00363339
0.000614929
0.00119712
0.00184705
0.00138548
0.00566127
0.00234203
0.00386935
0.00173237
0.00312704
0.00612338
0.00121483
0.00252215
0.00227587
0.00646462
0.000543254
0.000781101
0.000523205
0.00526605
0.00371642
0.000807915
0.000510809
0.00203066
0.00357372
0.00248041
0.000977046
0.000602931
0.00161736
0.00504382
0.00622804
0.00420156
0.00451176
0.00399031
0.0005244
0.00483417
0.00157357
0.00307963
0.00641669
0.00255844
0.00251711
0.00482059
0.00385187
0.00527125
0.00227215
0.00219263
0.00468813
0.00625955
0.00222616
0.00279647
0.00269107
0.00190685
0.00208602
0.00353811
0.00561431
0.00544027
0.00499544
0.00071264
0.00339725
0.000878964
0.00197367
0.00350854
0.00464935
0.00315843
0.00703597
0.00240065
0.0074711
0.00190898
0.00231823
0.00358893
0.0040152
0.00233616