/*--------------------------------*- C++ -*----------------------------------*\
| =========                 |                                                 |
| \\      /  F ield         | OpenFOAM: The Open Source CFD Toolbox           |
|  \\    /   O peration     | Version:  2506                                  |
|   \\  /    A nd           | Website:  www.openfoam.com                      |
|    \\/     M anipulation  |                                                 |
\*---------------------------------------------------------------------------*/
FoamFile
{
    version     2.0;
    format      ascii;
    arch        "LSB;label=32;scalar=64";
    class       volScalarField;
    location    "0.0817324";
    object      omega;
}
// * * * * * * * * * * * * * * * * * * * * * * * * * * * * * * * * * * * * * //

dimensions      [0 0 -1 0 0 0 0];

internalField   nonuniform List<scalar> 
47425
(
59.3428
66.7181
70.7452
158.314
147.254
69.8231
98.1221
99.4396
49.394
561.995
134.31
43.6562
72.3735
78.2289
94.7639
86.4903
67.576
47.1624
1369.67
198.407
83.2075
43.5616
102.285
61.8687
44.5053
43.1293
76.4438
686.629
69.0335
54.304
42.5633
44.2876
47.7433
67.7215
55.535
65.5469
43.2026
67.557
65.3454
73.4545
70.4206
130.978
213.34
144.994
1823.5
101.25
94.1253
77.6016
77.6929
46.3144
568.486
237.139
48.5642
682.024
110.864
121.608
44.2987
57.504
77.5755
60.2436
850.909
1224.05
789.843
43.361
49.3523
44.2016
61.4052
87.4778
756.342
43.8937
77.535
52.0157
48.6779
89.2424
579.52
49.4036
808.115
79.7196
1337.17
281.33
597.857
64.2569
42.4944
46.9234
61.3102
80.4141
54.0681
53.9902
129.475
403.205
43.2147
74.9335
40.589
113.755
146.058
193.104
46.6458
52.5479
87.2236
77.4576
60.0881
91.5727
51.58
95.8417
49.3488
52.0641
52.569
92.6491
79.4114
43.7196
326.398
61.7975
75.5748
153.805
42.9616
870.872
42.2137
226.286
76.4735
61.5646
78.9685
48.5449
58.0947
62.6367
95.3766
58.4031
83.8895
49.1901
104.147
40.9193
44.3504
93.2342
123.68
117.338
116.89
68.0284
47.3411
61.8203
67.9812
95.4038
70.9426
127.147
69.2702
95.7704
50.8715
49.3287
120.274
62.6862
148.028
72.3636
96.7088
501.854
48.7557
687.447
45.8872
82.6511
58.9168
879.488
89.6067
70.0095
43.3415
42.6198
49.2081
45.4281
430.279
802.124
45.4491
588.511
105.131
723.95
656.048
83.4626
73.8618
45.3564
69.9286
65.6404
722.565
69.1228
51.992
42.1648
979.86
49.0421
59.4242
44.9848
45.4454
48.3771
55.9296
74.7033
147.392
57.4382
47.9245
71.0592
81.961
77.0218
44.8786
41.6089
61.8692
70.5027
42.5805
82.7722
65.2174
122.702
75.962
41.9993
48.8382
157.954
52.4607
41.8213
86.5648
48.4399
62.4584
65.2665
47.2039
92.5239
63.6532
63.1452
76.0543
260.46
46.1402
92.8999
294.769
119.071
141.451
95.376
165.576
248.815
44.5424
127.544
47.4458
61.2446
71.5116
70.877
100.489
49.3224
163.215
90.6907
341.994
109.197
285.641
179.292
82.4511
59.2523
41.0891
100.274
44.151
49.4523
67.7501
60.6008
42.4599
76.0451
41.3211
230.072
65.9864
49.2833
90.6283
41.2443
44.1824
118.64
93.0673
48.3484
123.31
47.2055
77.9202
133.801
72.6319
88.2427
42.94
72.7488
62.3769
80.977
79.1181
250.038
326.872
48.2436
235.016
177.314
235.738
109.293
309.867
181.588
874.803
58.816
848.108
121.103
78.3986
83.4323
102.569
89.7198
89.0364
44.3742
627.027
42.928
50.3438
55.7416
66.7298
95.7336
109.199
45.9783
64.7444
55.042
85.0714
43.1266
83.4672
59.5842
836.85
1008.61
652.999
41.0972
47.4841
42.6945
97.8191
677.894
84.8787
114.336
295.333
71.4125
103.231
120.863
92.3167
456.151
256.253
42.789
59.3995
46.6591
79.3026
42.4221
76.9097
62.9081
52.3275
70.818
82.6206
736.588
55.2527
73.2076
129.126
41.3537
732.427
49.3521
45.0543
52.1638
43.8464
44.251
45.5518
51.4066
51.3002
49.522
58.5685
46.0342
82.572
81.0846
44.7665
44.5517
61.0701
45.8913
45.9016
45.6969
78.986
42.4091
47.1423
93.3987
53.4555
60.1894
75.2873
93.3165
47.719
48.0036
128.943
48.2153
66.1518
43.5636
127.498
877.099
77.1553
42.566
200.232
42.6074
109.444
92.9668
72.5498
43.3608
63.5007
43.4415
41.8964
73.7854
83.8863
82.8564
81.7799
51.8466
48.7482
80.7608
47.7499
45.9735
78.5168
56.6046
64.4767
47.873
61.4715
86.4852
68.9243
48.3782
483.849
44.0665
441.011
67.7854
103.19
100.271
45.8904
143.674
45.149
91.665
45.7343
475.359
362.393
42.3882
49.2017
78.7592
84.3431
81.5797
73.1023
79.6285
87.7935
65.6534
46.3228
99.2842
70.115
47.3973
95.0149
76.8348
51.6801
146.254
1166.15
44.5398
281.886
964.242
88.2463
987.707
690.529
46.6021
78.743
74.4774
77.6575
620.848
84.5423
49.0709
47.7255
73.7073
74.1028
78.5572
79.0931
505.384
686.425
155.194
65.5407
72.2317
125.526
57.3448
42.9386
68.265
42.4751
83.9822
75.8097
132.705
68.9725
49.3502
79.6387
58.9695
75.1804
42.532
64.0989
66.2394
66.6385
63.5367
108.54
116.691
61.3789
81.1098
42.4826
570.043
129.872
75.3211
46.3426
131.06
246.003
46.1694
41.8583
46.2974
47.2995
67.2778
48.6082
102.406
83.4994
47.0639
55.0089
138.628
98.3276
46.3665
49.1997
56.7675
53.1016
49.0732
50.6293
42.9004
68.1968
59.246
108.554
60.8223
45.0782
43.2793
42.3378
72.4906
124.228
43.6367
41.0652
56.3408
60.2194
57.7464
58.557
67.4696
71.5281
51.0573
76.924
100.902
427.057
60.103
68.0464
52.3871
49.345
136.749
134.456
74.2117
50.9447
78.1536
107.801
46.2831
145.898
48.4578
261.265
46.7354
50.0173
57.757
130.323
40.2665
71.426
72.1376
69.4441
42.0492
51.1345
1109.16
62.0679
142.589
44.4422
101.234
46.2041
58.2221
86.1691
72.6328
68.5464
44.0765
384.439
54.3689
58.0876
55.5071
47.373
43.3766
57.1658
121.273
48.2644
68.7807
66.7927
42.3376
275.861
43.793
65.1093
464.298
70.2197
41.4303
327.722
595.191
42.4137
634.872
666.411
69.3975
46.5984
51.3321
43.3884
84.9673
85.8317
708.394
42.7982
123.03
48.5504
119.214
55.8798
85.3081
65.6728
465.041
300.525
51.2159
93.0621
100.489
83.6049
119.504
122.812
47.6563
96.0863
132.906
98.2915
67.4389
140.091
50.6229
47.3081
140.622
91.9336
76.88
116.639
98.8641
67.441
73.4179
61.711
52.969
67.6219
46.258
49.866
1292.19
61.8376
78.9525
1031.27
1008.06
41.52
75.977
1576.08
164.918
94.5873
310.749
119.462
762.634
59.0241
47.6459
60.0459
176.491
113.729
112.841
45.6905
116.42
66.8238
82.0517
47.8282
78.062
57.8878
463.617
714.876
119.056
48.4053
84.2915
42.23
109.462
47.4195
58.2108
63.5007
65.053
43.8133
171.251
75.5037
47.076
66.0031
181.957
636.293
239.368
84.3958
42.191
73.9652
42.39
675.574
68.824
673.187
82.0362
114.532
66.287
67.3852
57.8051
86.802
53.8323
87.4935
56.7465
205.042
91.0553
49.2336
72.7595
88.4319
431.403
66.3017
200.326
69.5052
48.6641
43.2555
137.529
79.3839
72.6475
45.9288
61.8755
67.6078
70.6161
80.0336
78.2444
64.1206
125.562
196.078
70.0643
97.983
66.6174
110.369
89.3921
47.4957
149.434
60.9716
77.0429
76.5099
43.6491
295.571
405.297
92.6906
65.9133
45.7002
89.4436
55.5842
132.174
42.9045
277.956
78.5344
43.1536
75.3389
45.63
58.2624
68.5155
49.4056
87.5474
40.9432
45.3752
48.2696
164.331
40.5666
343.446
279.353
269.264
380.934
76.6634
224.007
59.0417
45.5797
142.759
308.85
405.444
104.186
62.3322
135.067
112.429
166.673
125.246
92.8405
54.4828
69.3435
105.886
111.629
55.1438
79.381
288.92
56.5087
62.7067
153.541
118.301
114.362
186.297
735.753
463.191
218.657
241.346
80.6897
117.429
43.5604
45.2811
69.7527
423.606
171.726
69.5656
71.341
41.4907
367.525
419.67
41.3442
166.039
87.7995
41.2612
162.542
41.1297
42.3397
71.4831
70.8198
82.7172
46.7888
41.5409
60.188
67.6969
66.2766
136.065
107.157
42.1464
238.715
47.5723
46.2565
46.9157
190.563
77.6234
200.511
118.004
53.9323
42.7811
67.3207
1427.52
69.9025
80.4906
69.1396
63.4474
61.1335
111.014
116.097
127.943
300.312
98.5544
817.714
49.4171
64.713
56.3854
65.1353
44.7204
162.538
122.169
43.832
280.418
92.4935
71.6381
233.116
78.59
54.5169
68.9368
69.2627
68.0318
110.399
312.833
65.4212
74.0726
204.237
217.495
674.691
212.216
86.5911
168.129
44.1887
46.3697
108.649
188.35
85.3807
82.0906
89.9129
101.962
47.9138
67.8757
100.978
97.6862
88.7159
352.47
461.041
90.2852
152.781
191.895
627.566
316.841
198.46
91.1956
67.1574
96.5893
90.7374
253.758
45.4349
47.3903
96.4886
364.738
118.387
78.3205
96.5104
53.0341
107.689
125.341
78.6073
532.636
53.5765
65.1736
131.331
97.2578
65.4223
66.137
104.734
106.499
87.7297
56.7335
121.502
44.012
44.1148
44.1664
78.3635
57.0669
147.195
52.2093
211.504
281.116
256.074
98.8278
83.7015
44.3207
70.3026
113.023
486.296
255.554
790.389
44.6631
57.7147
54.4733
304.834
87.4999
317.942
235.366
229.401
132.236
213.547
89.193
84.766
71.8592
45.8222
127.635
66.6983
75.4613
263.713
69.4663
68.7104
50.6431
266.055
385.363
151.334
209.393
648.494
188.986
89.1394
66.6752
88.4915
102.301
181.515
185.333
365.223
45.5278
58.1876
71.3141
47.817
61.8073
100.16
94.0332
54.3481
123.26
52.4214
75.3255
50.1906
47.2952
122.01
67.6539
111.748
43.6833
44.6239
159.443
45.6089
97.483
103.083
43.4785
62.4809
96.0519
78.9729
68.7343
79.1789
472.297
182.044
122.666
105.393
1846.78
1019.22
605.171
442.119
99.8527
49.166
1260.56
399.361
53.0942
62.6076
105.116
86.6695
396.392
136.479
44.2777
111.451
58.8878
49.7028
200.273
956.12
136.799
1229.34
150.042
249.891
651.996
57.5685
75.4713
132.339
345.424
90.6325
44.7793
45.3635
740.524
119.579
375.876
72.5454
159.022
47.6112
52.5495
509.777
531.5
80.7366
51.3705
76.5974
573.074
43.1692
51.4956
419.24
511.657
72.5925
43.0726
1035.04
666.361
581.302
98.6248
306.916
514.302
627.794
79.0843
86.1529
109.546
63.8292
105.503
507.334
1321.31
64.2129
60.3498
58.7224
51.5632
46.173
80.7196
121.338
65.5352
49.5561
47.9347
97.5589
404.704
1220.67
50.5094
225.278
106.191
71.659
160.38
57.15
89.3997
75.5472
45.4754
196.871
53.132
535.144
42.685
780.615
416.142
653.151
200.958
102.686
61.767
101.857
72.8215
221.854
1456.72
103.303
396.483
174.661
505.464
162.36
745.281
621.824
89.7552
79.0912
1720.87
88.3623
48.8079
72.4679
667.5
1126.56
78.5936
51.9206
487.226
75.5989
586.469
760.608
106.796
111.138
828.538
102.348
43.7418
624.696
50.8105
423.636
979.827
42.504
69.0986
82.9037
56.49
121.758
100.278
41.8379
120.371
88.5468
116.695
57.5697
42.3108
206.245
231.031
577.262
50.1173
92.6593
237.771
44.8082
849.246
85.2002
110.181
150.395
437.967
85.9115
328.868
180.523
145.946
56.7785
470.552
222.384
253.834
88.8081
162.321
62.2614
76.0304
73.8722
353.602
202.684
112.422
713.066
150.1
108.979
245.885
120.192
140.876
685.632
249.788
71.342
153.033
83.8635
148.415
309.636
624.756
58.1479
45.0666
62.3941
453.894
63.5152
290.727
57.7552
62.3131
47.6542
158.268
54.0891
203
317.55
53.4967
59.6703
90.9555
78.868
956.877
406.649
114.902
752.031
352.861
121.981
225.959
64.2451
56.0416
799.46
56.0743
346.409
376.66
44.4617
58.0803
115.768
96.2747
56.2585
70.5658
165.336
71.021
77.1207
65.6427
79.7325
242.952
65.8
186.9
152.314
238.884
55.0225
722.156
442.189
53.5469
593.139
257.118
56.4702
103.355
600.507
214.287
45.6406
182.909
497.656
206.181
566.458
56.5958
582.931
118.951
54.4757
68.9937
106.601
190.157
118.167
64.7015
224.919
51.2124
230.436
105.211
1316.49
141.13
79.985
116.092
270.852
55.0469
302.054
112.318
106.36
563.796
77.6892
78.0937
1165.27
42.8586
101.659
370.924
61.6766
317.458
446.563
149.167
69.0293
82.3789
930.989
220.697
515.747
234.095
77.0923
69.787
98.8346
686.673
661.086
310.739
87.4994
48.2483
84.5999
85.6639
128.841
325.525
92.4653
55.446
61.9889
60.8569
44.2604
85.0158
43.1585
46.8137
119.261
78.4548
45.1772
126.581
238.996
59.5903
47.0298
128.624
63.9893
48.1054
54.1266
97.8454
92.5723
48.9195
96.9014
499.001
87.5265
48.4762
54.0983
42.6609
251.989
66.1409
52.3461
607.511
454.036
289.163
46.9332
591.198
146.939
69.9403
900.347
90.0007
881.306
90.0203
66.4444
81.4302
66.7256
43.6049
81.5742
82.9629
89.5661
112.173
87.921
102.114
166.302
79.1741
82.4153
435.2
86.5135
1449.59
70.7981
697.598
46.1154
116.899
173.723
51.2031
67.1811
189.863
42.2843
466.27
334.031
1110.67
50.1931
611.561
59.4322
107.045
182.014
59.8108
590.848
89.4168
294.186
75.6282
752.272
690.055
78.7289
42.4426
444.801
66.9855
448.589
85.049
94.1444
69.0331
71.7877
55.5481
43.3967
88.04
303.692
75.3723
176.47
81.0811
86.8744
40.823
154.681
335.944
88.6298
284.113
131.959
67.8757
118.492
77.0149
72.9926
54.7519
147.252
129.647
48.5681
84.3748
81.7483
65.62
92.2302
355.534
327.694
78.9006
87.6133
335.378
86.2857
51.7735
63.4656
46.9162
161.875
163.947
203.932
104.429
68.5205
73.7767
63.5354
56.7723
58.1765
57.4946
485.337
129.637
659.133
515.963
630.419
58.0799
66.916
73.2386
70.5374
47.38
327.328
80.9404
46.0977
76.7302
111.632
77.1849
273.203
76.1332
155.273
116.983
94.5899
48.7889
69.2344
87.0347
85.7222
66.9805
110.145
96.6679
181.809
85.7978
68.9088
78.4213
147.489
166.418
64.463
78.3038
132.155
95.0559
167.867
48.0783
56.4671
133.618
68.0293
53.4966
74.3834
43.3867
51.3003
87.852
72.5126
369.169
70.5556
88.7374
50.0034
69.0884
603.971
77.6342
83.7561
59.422
59.6281
85.863
84.6344
918.123
106.749
357.034
50.5294
59.26
69.9299
41.2705
47.8535
107.89
79.1321
47.7317
44.4061
313.238
106.7
512.563
117.163
258.95
104.196
78.0206
108.927
507.692
179.587
94.0877
77.0394
928.068
63.2169
78.4103
84.0236
80.5549
68.3649
919.235
65.8426
88.1676
46.7619
120.717
54.3777
889.093
983.875
65.9072
52.8241
42.7121
88.057
90.9926
60.1112
1146.16
664.065
63.4838
135.338
479.025
63.7405
199.238
123.674
42.7099
60.797
46.3502
72.5718
207.457
83.4762
76.1084
44.1352
55.1119
73.3938
48.6131
341.465
63.4597
144.636
173.157
436.555
342.052
99.9275
134.642
76.8614
133.154
116.077
42.7337
596.288
346.316
131.227
89.2123
106.053
87.9606
85.5598
233.588
40.992
44.6262
62.1875
65.0118
135.929
72.8673
351.199
385.262
44.6528
131.226
42.8602
42.3772
80.2625
60.6435
62.3583
53.732
41.3015
232.552
333.33
41.6661
69.5663
261.64
376.87
47.3723
41.672
99.3452
180.925
910.443
91.7629
395.591
321.411
588.736
391.447
71.863
48.6715
41.96
58.4303
942.206
56.2034
85.6803
79.3112
41.047
635.452
1066.1
1044.07
193.521
255.754
49.9228
44.877
53.3162
83.2807
679.648
556.303
420.536
532.247
396.454
53.6988
47.5886
842.658
47.8092
887.777
95.2421
884.946
79.419
150.854
112.207
177.51
169.166
169.716
154.795
63.0042
88.7166
69.3142
64.8873
72.1046
66.0459
1280.06
737.102
90.4187
354.093
610.532
345.877
66.647
45.026
577.726
488.587
521.085
42.6947
778.622
49.5648
1017.28
564.802
680.517
291.539
52.8402
62.1149
45.7629
71.1076
87.6851
172.777
75.6556
84.0828
71.9383
92.9018
77.3429
46.2989
47.0002
124.106
44.426
51.3069
77.0807
101.313
96.8926
85.1022
149.448
89.2361
71.8163
127.55
96.456
88.6918
91.5703
146.957
989.532
58.9327
325.703
68.8544
88.3626
503.071
63.3424
57.1768
46.7661
113.563
93.4335
53.8351
107.813
99.2087
82.3163
45.7915
65.9011
77.2223
71.2704
102.246
72.3587
96.2546
275.03
88.0894
78.676
74.0117
108.62
76.9194
351.812
43.4924
66.7281
103.756
320.365
250.407
88.3716
99.4577
925.299
227.43
184.283
89.3848
71.4625
108.17
86.9901
53.8651
127.633
77.2178
86.3015
429.841
49.9067
162.403
126.659
107.559
106.182
200.987
76.9512
57.6073
43.4586
52.9497
98.3693
78.9732
426.24
61.9106
92.0001
127.91
103.531
855.904
56.2587
116.096
105.045
268.346
405.7
142.036
42.9721
135.113
64.9014
45.0196
42.2111
547.714
99.5361
57.1531
418.155
130.193
67.8887
143.663
691.517
1109.53
181.408
71.5748
743.778
95.9993
256.581
141.945
599.374
244.952
122.648
93.0192
509.957
90.4944
68.1211
84.3696
98.884
53.6522
62.0949
341.314
43.9861
99.9498
542.645
155.255
565.044
88.4442
439.684
48.3129
1139.78
105.892
106.079
655.237
246.89
305.512
498.557
442.287
260.34
77.5478
78.3346
418.359
55.3833
84.6111
321.207
66.5131
56.4771
76.7441
166.148
70.0166
49.6708
731.794
482.184
188.911
269.359
165.359
92.1071
80.2825
80.5596
111.57
77.3699
56.9628
85.5178
63.2723
269.283
279.421
124.795
54.1489
105.277
81.5474
127.148
104.632
96.8391
78.5879
270.598
58.3414
67.0299
258.428
130.91
593.044
203.266
97.9904
710.29
136.974
111.707
367.47
133.585
127.85
49.405
511.949
41.7552
56.0358
50.1712
84.9133
67.2544
98.982
241.131
104.663
119.31
79.4543
110.53
99.2443
42.0341
372.048
155.67
569.528
1023.68
107.886
391.929
147.568
68.8144
415.246
67.3033
60.619
106.348
125.746
696.84
493.061
53.6996
316.878
347.002
95.4619
1928.41
400.565
160.109
352.436
61.6038
88.3852
242.196
335.566
145.66
728.998
53.0833
51.7204
154.356
50.3352
48.0447
106.157
323.43
546.499
48.4385
137.445
43.0044
144.356
62.4665
143.756
326.056
93.3992
319.45
59.6353
63.3985
768.109
43.7326
53.436
103.389
53.3372
121.296
253.342
45.9272
933.767
551.267
858.16
486.896
119.396
66.3492
52.5688
61.5537
85.549
45.9451
84.1196
148.137
61.2927
69.4672
653.946
45.3005
170.356
43.5248
136.614
71.417
725.127
127.015
117.331
44.8215
127.983
150.198
48.6764
59.645
96.6188
42.7479
195.336
95.9936
103.383
54.7711
44.6444
100.754
45.8679
125.884
460.261
43.7212
74.9991
50.2008
62.4433
268.685
214.263
122.125
459.055
860.647
273.937
83.0275
404.728
304.34
639.604
74.3623
212.348
280.386
341.404
311.306
804.574
53.9434
44.1236
211.535
685.562
53.1066
426.751
121.372
444.005
79.8945
64.8064
668.112
595.922
273.989
56.7076
259.421
129.785
354.714
43.8927
199.313
63.3316
56.074
94.1541
94.6014
286.811
100.18
63.3631
159.97
78.7974
276.578
418.425
42.9796
80.0798
53.1547
847.115
96.8107
130.319
221.562
136.389
70.7636
43.2478
90.2006
75.0451
506.398
42.5777
104.258
311.013
63.9442
49.5097
76.4915
72.9858
678.307
136.691
209.548
94.2113
72.9133
941.044
550.192
59.3909
141.685
59.5593
47.2387
411.683
94.8106
537.428
56.2846
49.8127
93.1135
58.9503
46.4673
60.3235
70.9733
134.87
262.494
236.635
363.055
68.9137
70.2737
46.6867
169.254
614.518
939.947
66.6394
386.375
177.237
688.625
75.9805
342.83
109.031
178.003
128.796
80.2469
254.435
77.1971
192.319
112.645
59.4806
1012.52
107.579
478.193
107.394
77.6152
108.269
166.875
70.4991
67.336
389.397
103.7
119.856
56.9043
122.413
468.825
124.662
78.9544
156.031
46.4697
62.8381
43.8975
74.3256
76.556
146.585
68.8317
91.8627
95.2822
74.3769
74.6943
63.2548
72.5863
59.7858
428.144
48.5977
106.449
47.9469
66.6438
120.522
71.8944
53.1651
77.5384
97.9797
85.5573
124.536
344.654
46.4721
184.86
426.329
158.581
156.246
50.3988
156.802
92.5308
344.369
64.1004
43.7949
52.1031
173.459
54.4793
65.3389
863.487
222.812
379.029
44.224
50.2821
192.699
81.1287
55.6361
134.739
49.1072
78.171
53.7994
392.387
44.5748
153.734
44.6317
43.0945
74.6527
66.5286
131.685
106.065
42.0784
307.513
63.1218
66.3537
88.0142
806.635
64.5084
61.7968
123.399
62.9132
56.979
120.45
59.6945
51.3726
107.57
212.445
124.051
81.5583
386.587
108.387
240.067
48.5037
182.4
63.1989
93.6981
242.542
49.1208
126.564
65.9288
82.1148
152.664
70.7734
564.554
113.055
43.6968
517.256
131.392
958.009
306.988
226.556
85.2837
92.4106
122.129
370.287
59.0496
443.566
92.1402
354.13
64.9428
426.616
62.5294
252.141
217.931
120.165
327.962
521.284
359.314
1097.05
539.577
350.653
455.165
445.099
323.841
42.3138
94.2804
338.783
68.4926
657.154
57.8055
514.249
616.723
115.929
98.6958
74.742
43.4575
113.157
46.7262
249.394
129.972
82.2678
186.605
84.1866
152.344
71.492
53.7326
109.832
48.2543
216.344
47.4797
68.0275
700.363
65.21
42.4904
102.036
63.588
831.48
293.231
73.5885
72.4
171.464
49.5137
84.9464
49.1418
49.9733
103.427
74.9299
54.5408
61.5731
325.175
87.6882
53.7492
42.7884
43.7582
45.6815
203.911
70.5853
93.671
53.2857
83.5817
97.5898
54.7524
218.613
71.6954
47.5251
58.8929
82.2157
133.961
110.533
98.349
49.6409
118.676
83.8209
51.2569
50.8758
75.0837
87.1539
101.563
67.0604
120.991
65.2836
91.246
114.78
311.37
774.739
1112.16
119.979
59.6767
517.775
168.146
217.404
44.4757
50.4822
42.7816
89.0423
71.255
42.997
43.2868
44.3898
109.134
41.9079
47.0559
42.3643
59.0031
191.044
51.5597
111.003
51.6308
96.4124
236.183
58.8034
53.1789
65.9876
1087.44
849.293
99.8161
67.1177
68.2687
58.8983
109.556
470.931
62.3113
66.6707
89.7091
42.283
93.7846
49.4531
87.8145
110.18
90.5047
61.552
200.672
269.556
62.7131
2053.89
275.748
196.411
61.6124
83.6978
97.7534
113.001
53.9447
74.1598
296.644
45.1684
188.562
642.482
103.731
122.266
599.943
63.4508
78.4347
90.1721
42.0954
115.069
403.858
90.7472
91.7896
450.377
223.501
1028.06
624.043
98.8917
47.7929
138.048
67.2682
185.562
151.25
564.58
49.8488
45.5774
638.968
52.9574
189.579
78.5863
102.156
658.942
717.311
49.7786
42.8697
914.046
49.437
52.9419
65.4733
47.7147
80.8796
161.463
274.625
60.7463
575.78
102.564
51.4235
83.8546
720.264
77.888
601.331
64.7481
61.3866
84.9775
83.6532
59.8841
117.019
64.2249
558.372
116.801
121.149
526.757
120.777
53.0513
736.076
117.069
103.422
85.4709
180.178
105.588
80.674
44.4718
265.525
72.6198
71.216
63.5332
127.949
84.3348
58.7971
45.1094
67.6498
143.191
72.2404
65.4289
79.8309
493.8
71.9295
71.4893
69.5206
91.6514
46.013
63.9766
63.5619
130.84
105.283
140.64
147.141
88.7547
447.743
63.435
56.1008
422.689
374.26
481.449
87.6973
332.837
51.8635
542.337
93.7666
292.841
94.6898
43.7275
113.158
196.281
92.5552
69.8576
42.7363
63.2782
413.361
63.4924
49.1966
53.3278
1398.65
274.145
44.2576
1450.09
559.442
323.077
251.093
631.667
262.897
77.3728
254.098
87.332
99.7956
388.156
877.91
62.0746
44.0278
54.0398
485.431
44.6302
876.816
146.767
126.766
151.851
122.897
330.43
42.1028
114.101
121.621
55.8709
103.326
53.2446
118.386
1991.27
1793.44
820.474
96.9036
718.757
42.7694
48.8655
61.4192
99.0812
44.1195
55.0465
42.6167
73.6922
89.0653
47.0628
54.2722
75.5108
46.4723
99.7259
119.1
43.1756
113.408
118.758
43.1602
52.5057
864.773
55.6106
848.592
594.301
123.544
130.59
83.3523
121.683
68.2039
51.3575
629.587
58.2451
56.6605
47.1931
49.7605
77.4788
136.544
136.498
173.395
112.831
46.3552
573.665
60.6971
328.718
403.52
63.6795
380.971
84.6617
53.1414
60.756
57.4089
62.0489
46.0157
127.414
50.7841
307.864
219.1
337.441
56.637
56.4533
82.3626
283.318
504.97
93.9493
146.201
64.0581
265.494
63.8367
185.904
406.789
83.229
56.2005
91.6066
909.994
62.0056
59.0586
118.887
47.0501
136.723
123.095
149.784
84.2837
302.765
169.927
384.692
71.3711
273.13
434.451
310.694
53.3002
172.531
87.5799
101.942
53.505
65.2631
62.6602
490.942
84.9679
97.4112
319.299
81.913
62.175
95.6953
45.1626
140.674
48.2481
63.9099
162.749
103.559
78.1426
164.007
96.2598
95.825
79.9029
124.825
43.5929
284.808
233.759
104.413
104.019
44.3999
250.64
59.2671
43.4368
84.2245
46.1551
106.372
88.189
50.1801
55.164
98.2283
296.238
215.648
49.6423
804.654
43.7657
97.5322
94.3162
48.1617
757.176
146.025
658.944
50.0135
67.4604
535.51
673.734
85.6695
100.493
185.936
127.983
48.7882
104.18
63.2042
143.477
81.8895
132.154
49.8159
133.829
99.7145
105.074
60.0989
87.1424
42.508
59.769
599.203
427.39
104.365
108.379
98.7207
85.3136
84.7356
162.796
43.5803
49.262
59.3744
85.2758
79.7602
66.4777
110.455
51.1992
57.8721
51.812
71.5234
57.6077
68.9117
199.877
89.251
67.7182
943.141
76.7215
64.0205
77.5171
43.2362
82.2604
204.838
45.3842
74.2502
80.5468
366.198
64.2739
63.2773
93.9945
1425.4
94.5381
156.213
116.947
64.7389
84.359
79.3648
62.1862
857.378
93.1346
68.32
62.5789
42.3544
284.079
45.7799
323.317
416.516
112.119
72.3613
59.3154
118.474
86.7095
55.7051
440.096
118.369
291.916
42.993
137.194
471.869
118.691
48.3995
98.44
53.2202
457.884
55.4173
55.0227
88.4413
41.8542
59.778
87.3052
50.9532
415.089
42.1622
389.962
45.4831
72.0694
66.4668
146.697
85.374
123.823
112.01
576.099
111.06
117.182
74.1198
44.3502
104.19
58.2061
52.3912
79.2893
75.0473
62.5226
120.479
46.6618
65.9723
47.2152
300.798
86.3835
550.679
550.618
319.765
154.677
67.6637
70.3036
60.398
190.696
88.3713
43.197
41.75
111.778
149.73
45.8762
70.3632
1021.14
133.093
65.3691
74.0453
407.58
832.411
59.0011
552.744
543.034
199.446
371.506
159.714
549.636
71.5621
215.366
738.312
73.8738
41.8382
61.1309
109.423
313.647
42.6921
44.0097
70.4454
140.114
152.312
838.732
107.59
1057.72
118.252
68.8409
82.6779
75.8873
76.8399
481.251
203.376
419.236
474.522
66.4286
343.191
1074.63
65.5721
182.021
121.952
404.82
150.121
130.544
690.777
1020.13
108.896
632.942
123.89
443.448
80.2065
43.4953
150.526
807.198
698.184
62.2537
100.108
144.025
99.0785
259.576
48.4512
72.4288
965.176
358.92
337.138
79.115
315.003
65.7977
333.122
55.3327
118.368
183.632
275.607
86.5082
122.735
271.534
105.544
819.689
70.7402
59.1928
406.913
46.2364
143.034
44.7526
54.5015
42.5365
80.3982
425.268
432.615
320.604
57.8523
63.2186
314.866
56.8006
507.683
72.1999
52.8648
79.4079
205.082
153.844
618.896
49.876
71.5809
62.7185
269.483
98.6072
575.3
909.883
420.781
104.578
59.6162
433.774
318.69
148.106
46.2156
61.3358
42.151
678.6
284.171
418.911
1132.8
239.902
93.1077
78.3576
763.639
409.867
62.6766
87.4869
100.29
387.538
60.4414
47.0907
88.2145
80.2884
770.165
254.377
221.242
215.268
319.729
317.011
160.289
88.2687
823.051
384.226
709.503
199.937
372.226
671.036
149.101
57.3526
108.056
58.1487
59.0722
78.7326
78.1965
133.618
278.169
83.6665
177.872
181.39
145.859
112.969
190.219
115.195
103.455
127.944
774.49
1116.22
401.194
69.1497
116.635
82.1226
240.545
595.199
156.27
554.291
79.6193
475.786
395.363
172.613
46.9526
42.9347
68.9451
63.448
710.817
95.6549
57.8284
448.084
71.1193
864.914
471.011
107.835
471.251
63.2884
44.592
45.7472
42.3381
96.5508
59.8813
89.0265
127.715
72.1455
44.6626
140.171
602.841
545.02
43.5093
104.97
47.4503
61.8305
56.4667
624.607
47.625
53.9816
52.9334
103.161
45.0069
54.7014
99.3487
55.3121
57.8743
52.17
238.542
43.5467
55.6755
135.082
406.675
350.029
63.7294
459.382
664.275
53.3884
52.0584
164.253
77.9635
337.06
70.9268
89.2893
82.632
229.418
67.3303
89.6247
1003.91
505.081
82.3267
622.709
45.8246
46.0564
60.7867
44.6865
46.8383
69.9866
52.7283
79.3868
216.178
87.9818
316.886
239.174
192.529
80.0089
42.5742
519.877
127.69
81.4733
531.202
100.238
684.982
60.3722
421.896
44.0089
183.128
84.922
222.783
46.1195
84.1942
75.8092
546.586
49.0445
42.363
194.675
80.6165
139.538
60.294
73.5012
91.5374
46.7565
140.985
47.8994
62.753
144.885
93.6058
373.517
67.9265
45.1519
60.5432
43.4669
51.0216
315.698
42.2225
96.0448
42.8746
217.385
112.837
48.7568
108.553
110.436
55.6637
69.7931
75.3538
125.744
145.031
50.8247
48.2519
90.3084
65.9464
289.972
632.515
504.593
59.2372
44.0856
58.6447
64.3099
88.3475
932.153
235.789
62.5326
52.34
77.2137
45.4193
47.6713
75.2142
152.572
205.618
511.676
340.541
56.3346
78.7317
70.8704
42.3468
219.093
71.7717
119.781
111.923
48.5994
986.635
76.7544
56.8972
69.7931
73.0815
157.077
606.615
44.4241
440.243
53.9269
724.074
125.251
531.753
68.5925
43.1459
60.2144
104.677
48.0022
48.5082
123.214
43.8511
43.0516
54.2259
60.9065
236.82
51.9544
745.819
70.0165
59.9152
156.458
171.477
48.3928
385.707
950.986
736.277
462.322
425.044
54.7349
382.719
287.93
71.5996
56.7611
52.5488
649.594
89.333
95.1365
47.7103
78.208
264.15
780.879
159.166
85.4836
46.0635
64.7845
200.911
44.8441
55.3014
619.912
454.251
223.205
763.275
72.9584
46.0813
69.7816
80.0724
1122.98
50.55
45.3976
42.7636
263.648
46.0049
49.6286
89.6465
99.6191
44.1786
111.11
45.4295
141.337
85.0642
139.935
49.0694
236.998
86.4187
110.7
159.44
109.426
192.637
47.7411
620.862
93.5709
266.087
296.238
288.098
85.1188
128.609
207.063
65.0257
44.0754
50.8926
52.9217
85.1732
568.564
115.022
45.616
81.5638
64.5835
48.1755
119.092
61.8442
133.13
102.629
46.2724
96.161
48.118
78.1262
297.915
598.921
71.488
98.6828
79.3387
102.307
516.225
256.51
416.721
827.298
139.976
46.1128
47.687
43.5909
103.638
815.52
78.8556
748.072
110.817
44.0635
116.771
434.453
45.5076
45.9046
54.9354
73.5708
59.702
218.016
74.9305
89.4031
322.565
53.2903
96.0613
65.6052
128.046
207.451
50.5192
694.339
81.1315
107.675
54.5115
129.13
45.457
136.39
123.23
93.668
89.4683
79.77
65.9372
69.6543
49.6022
223.518
61.66
49.7429
113.798
198.875
227.51
169.95
97.7062
108.869
193.389
70.1988
253.311
134.261
131.028
99.1376
103.565
134.443
71.6747
169.405
312.298
97.4498
52.6644
48.6574
259.872
87.8748
99.6633
48.9045
98.0283
87.4585
47.8964
92.1462
410.825
98.6641
70.6039
84.6423
662.117
76.8901
87.9007
146.708
58.0498
152.71
46.4468
786.232
85.1387
77.0802
80.8579
54.065
110.978
54.1255
445.814
42.7107
75.2064
661.347
59.3744
107.127
194.857
97.9477
49.2279
600.113
58.895
43.7008
102.412
127.883
61.1504
339.081
44.1027
343.523
96.505
43.0723
68.9926
115.027
722.18
181.447
71.3624
43.4228
129.892
408.37
403.968
115.567
122.546
964.141
211.493
242.485
126.496
79.7384
101.481
59.7944
512.126
1049.8
152.996
158.615
100.196
1181.31
441.142
539.958
388.266
184.619
64.6176
49.7232
152.802
73.7492
546.172
304.085
72.6221
950.235
105.214
125.042
70.5976
50.4683
103.849
86.3515
89.6842
80.1507
148.587
184.326
867.959
57.3931
119.106
636.655
611.244
182.268
175.116
60.9309
607.811
47.2789
65.8887
340.322
148.443
42.7706
328.443
422.699
72.4493
122.119
48.1439
92.2631
54.5098
80.9269
172.182
80.5832
604.854
44.6111
49.8585
85.0479
471.604
172.763
121.729
160.345
257.505
120.087
77.8719
435.049
106.749
67.9175
203.593
790.344
219.908
59.4421
342.14
160.407
93.8593
65.3747
127.27
46.8214
107.872
79.3215
72.8978
63.179
60.0815
84.9138
43.2194
42.9143
49.4743
100.245
49.7204
160.565
388.847
726.571
94.15
89.2301
59.1494
48.0347
101.997
639.197
51.5781
141.778
71.998
241.659
66.5289
146.032
215.819
442.487
47.8751
57.1797
279.616
52.8118
68.8266
146.421
97.0535
408.617
86.7975
228.075
477.235
188.914
633.867
196.865
379.999
100.412
174.905
145.986
53.415
495.003
145.881
83.0156
177.43
105.239
94.7489
43.1335
51.2532
49.0858
44.1168
87.6011
351.034
41.8668
951.208
108.546
351.576
112.827
383.273
1055.01
54.849
246.886
798.044
161.911
353.866
76.3731
69.7235
755.108
989.25
290.038
167.788
51.3667
472.418
102.524
638.91
52.8008
52.7709
241.558
1007.03
61.1011
84.9548
50.6184
245.843
518.258
47.6542
431.815
200.89
534.204
716.764
49.4861
341.405
73.8267
629.799
292.957
199.331
437.712
253.785
503.107
349.95
228.498
81.8013
78.4692
73.3754
48.4539
53.5507
1426.48
74.3707
112.281
79.9591
79.5971
145.522
1189.42
156.826
202.533
290.161
161.096
227.214
123.564
42.9542
78.5502
1067.04
644.782
295.945
190.664
253.226
88.8841
493.889
60.2661
262.536
370.377
58.0789
549.983
88.866
323.834
307.238
185.496
273.9
277.044
169.546
49.1533
132.277
60.0473
566.022
71.9699
194.171
84.2253
270.822
54.3543
67.028
322.517
118.456
272.455
44.4335
1383.61
46.133
58.9511
57.4217
53.8887
102.339
519.653
193.085
105.706
654.205
73.0983
49.6847
56.0656
870.579
94.0485
99.766
843.31
362.769
909.749
542.871
187.8
268.906
157.074
184.738
721.865
65.767
432.896
145.633
65.9428
179.729
64.0756
164.686
80.2764
639.169
474.01
580.257
377.687
310.082
273.554
52.671