/*--------------------------------*- C++ -*----------------------------------*\
| =========                 |                                                 |
| \\      /  F ield         | OpenFOAM: The Open Source CFD Toolbox           |
|  \\    /   O peration     | Version:  2506                                  |
|   \\  /    A nd           | Website:  www.openfoam.com                      |
|    \\/     M anipulation  |                                                 |
\*---------------------------------------------------------------------------*/
FoamFile
{
    version     2.0;
    format      ascii;
    arch        "LSB;label=32;scalar=64";
    class       volScalarField;
    location    "0.0817324";
    object      p;
}
// * * * * * * * * * * * * * * * * * * * * * * * * * * * * * * * * * * * * * //

dimensions      [0 2 -2 0 0 0 0];

internalField   nonuniform List<scalar> 
47425
(
0.147665
0.508612
0.0876319
-8.32857
-25.4712
0.0476871
-23.3339
0.0346999
11.1769
-41.2305
0.0175934
11.6289
-18.5136
0.0254329
-4.26842
10.4143
0.066607
22.2711
-119.037
-41.1606
0.651143
13.7911
-0.0329155
0.542809
12.5627
0.465877
0.0162844
-49.607
0.0345269
0.16342
13.8578
10.5546
11.8141
0.276559
0.107738
0.0211951
14.5425
11.6023
4.94849
0.379785
0.699702
-4.58423
-0.710613
11.5168
-42.6035
0.606235
0.0575258
11.4124
0.449885
0.281556
42.5248
-2.57024
0.173492
-38.0207
0.258201
6.73084
0.400967
0.107653
-10.99
0.0663201
-39.8702
-37.5569
-55.2604
19.0828
11.0221
1.07651
11.8951
-4.81208
-46.4743
21.0328
1.7408
0.428429
-0.98407
1.00471
-49.1186
10.8609
-54.5738
0.127304
-61.5806
-25.6455
-51.0122
8.60012
18.965
10.7422
1.06683
-0.0595553
-1.02643
0.408855
-7.01386
-31.2963
13.0964
0.0907107
0.33409
-0.062187
-0.0208184
0.153578
0.197405
-0.0701498
0.180271
9.69727
10.6159
19.364
7.40475
44.0623
7.45272
-1.42579
0.665078
0.153005
0.668343
11.8819
-34.0309
11.5113
-1.79496
-0.20869
-3.15979
31.7486
-2.74305
43.8471
6.27917
-6.05038
-0.225666
11.8378
11.3984
-11.6093
9.35589
-3.4645
-0.0733514
10.919
0.31903
0.456808
19.7142
-1.30089
52.6762
6.19532
-4.42074
-14.5198
0.941204
-3.34834
9.3603
-2.88555
11.8798
-5.73869
4.15764
-3.22702
9.38363
10.9808
-24.3217
11.1405
4.17132
11.7626
-2.64932
35.2195
11.2128
-9.79343
19.4697
0.649515
-0.903374
-126.077
0.241553
0.0879165
-4.65874
0.62
0.340012
9.07478
-52.7302
-94.9152
11.1904
-50.0093
0.520998
-49.5072
-50.1486
0.410358
10.9773
16.6272
0.135797
11.9807
24.8016
-0.0114068
0.121631
0.203555
18.1732
0.63044
0.0232366
0.175516
0.24347
10.5967
8.38168
47.4308
0.19556
0.453035
11.7226
0.20495
-14.3143
11.9413
0.291827
-3.86761
11.9237
0.389647
-4.61342
0.136818
0.174679
-0.722494
1.22425
-3.59944
7.01071
0.0569674
0.0264431
-3.10881
10.4902
10.8624
0.14396
-4.00127
10.9402
0.553789
-0.611824
-5.00222
-0.0272346
-30.1512
19.5738
11.723
-28.1286
-6.79431
1.64259
-0.336547
0.437742
-25.9679
0.299393
-4.78522
-7.31809
-11.7449
0.312981
0.0902085
-0.633257
11.5496
0.0719264
10.7059
-30.8576
0.358789
-27.9467
0.0842548
-0.00316563
0.264389
0.306857
-8.16367
6.46998
10.8719
0.0976671
10.761
0.475271
0.0781918
0.580469
-23.9532
-0.00592082
11.9051
0.209657
0.0172821
13.137
0.11964
5.75674
10.7994
0.150318
11.4451
8.08464
7.98747
-14.3653
-0.576233
0.0639767
-14.1284
0.272511
8.03342
8.5179
-28.0659
-30.5732
8.44206
-25.6996
8.65976
-26.898
32.4988
-29.0977
30.3592
-36.8083
0.287144
-41.3939
0.338719
0.272598
-5.7612
0.314213
0.0440281
0.846385
-2.917
53.3531
18.0248
11.0565
0.109037
0.0738936
9.54909
-6.60202
8.83579
11.2728
-12.049
0.337094
0.456296
0.0764849
0.00646366
-46.7278
-59.4669
32.5906
0.227536
0.339014
9.61259
8.93852
45.217
0.0156754
-0.0200594
-21.0879
0.234897
0.338212
0.1461
0.102686
-33.7803
-19.9196
10.2497
9.84191
0.0364289
0.0765499
-0.0357931
10.1017
0.332508
0.314213
0.0929713
-8.78507
-53.8034
3.17118
0.0703009
11.7623
-0.00678592
-52.9517
11.5169
0.341551
0.553461
10.1696
9.9553
0.625383
11.7809
0.339597
0.00130164
0.145091
14.3093
0.0356127
0.166916
10.4643
5.65583
10.5588
11.4175
10.8188
-3.75577
0.315507
18.456
11.2435
11.1581
16.741
-6.40373
0.545529
0.0596202
6.79025
-1.14169
0.0644367
11.178
11.4696
8.2713
0.0326263
-44.3253
-1.11101
9.40237
10.9959
9.23907
-5.5789
10.4862
10.8641
14.1418
10.7829
9.17991
0.585795
11.3514
0.634768
11.3725
0.0454039
8.53097
11.8203
0.0489965
4.67087
6.10606
0.0723284
5.29754
0.352872
5.2492
11.8124
0.0330714
-15.0368
0.123131
-32.8868
0.214117
-36.9967
0.159796
0.825098
0.182592
0.0389316
0.151646
-0.049168
0.0704884
6.06768
-53.7941
55.2569
0.458159
5.65461
2.80884
1.27305
0.352465
0.0288375
0.271716
0.115582
0.409213
0.605057
1.20299
0.0247654
0.00239372
-10.126
-6.95437
-3.40749
14.6025
-53.1004
-0.845957
24.7557
-52.5281
0.938879
-54.4039
-35.368
0.520915
-1.79292
-0.762754
-4.86182
-55.5332
0.0974647
0.497514
0.304355
-5.42304
-3.06985
0.345622
0.533727
-29.4826
-53.8246
-28.4473
11.6542
17.2632
-5.19384
0.522593
-0.807231
-15.3084
-0.611998
11.6237
11.884
11.9036
5.55074
11.8204
0.510415
9.14334
0.125826
-2.77174
0.421918
0.307151
11.6902
11.8083
10.6835
6.60532
9.85098
0.322646
-1.82817
-29.5334
10.7561
-15.0202
11.8457
-3.15329
-13.3412
11.6676
0.436529
10.132
11.1867
10.7716
7.96937
0.340788
-1.98836
10.2455
0.327776
6.2293
19.7557
0.506265
12.7686
10.6811
14.252
0.47472
0.16766
0.746656
-0.00702647
2.40236
-0.00484843
-0.0265605
0.407016
0.61465
-1.77575
0.0551498
0.0513076
22.2225
-0.00169362
0.909319
0.720429
0.475714
0.0995031
0.170328
9.86223
6.33983
10.9526
10.9546
42.6395
0.118589
0.015666
11.1851
11.4039
-21.8741
-25.6109
0.205816
0.695176
0.677877
-12.7296
10.4955
-29.0462
11.8111
-31.8251
25.424
18.1617
0.0352705
-22.9787
0.214826
0.403847
0.18218
1.33464
-0.0366755
0.420763
-53.8024
0.131601
-0.0259541
0.216806
-20.0803
0.394126
0.0529909
-20.4789
-16.8275
0.150842
0.148132
-30.8136
0.253352
-1.9548
0.0631889
0.357834
0.310412
-12.1701
-14.5608
18.1181
0.83015
0.583816
0.0210467
-29.2239
17.1831
1.55418
-30.5735
0.109486
0.158988
-30.7731
-42.8251
12.4887
-30.5656
-30.5764
0.0513028
11.7649
0.101015
15.6441
10.7339
-0.0232067
-44.6904
10.2261
-0.0037662
0.310343
-17.9917
-11.3243
11.8033
5.30186
-50.1236
-27.2989
0.606874
0.202952
-0.474445
1.64482
0.273045
0.339296
10.7314
6.84466
11.8049
-3.61543
10.9425
-30.4273
4.68472
2.72068
-32.2291
9.4827
0.311607
6.20658
8.96017
0.350701
11.204
-4.45487
28.0009
10.9651
-2.51043
0.749379
-76.9162
8.02823
-14.388
-44.6314
-45.3319
0.164078
0.493177
-47.6926
-0.0062266
2.55738
-31.0059
11.2594
-41.2609
-0.0132911
0.180399
11.074
-37.7255
11.911
11.9811
0.455609
0.130387
0.481996
-0.00761117
0.367426
0.730168
-0.0957404
-34.5256
-27.1727
0.804276
13.2191
0.0974257
16.8623
10.2854
11.8848
11.8871
11.9455
11.8736
18.3229
1.75131
11.8179
8.46438
-5.77379
0.0313026
-56.8432
-31.676
-0.00364255
17.24
3.46429
0.0921894
-57.4861
0.0157745
-51.4703
0.265486
-16.2749
-16.2155
0.526138
12.296
8.39142
24.7946
0.0739303
0.33569
-0.320595
-20.5245
11.747
-19.1418
-0.417742
-54.5849
-14.4774
-0.405008
-17.1319
11.8342
0.559036
4.63773
-0.256413
-18.2959
11.7093
10.3792
-17.6324
0.0802383
-0.464638
-0.0711723
0.339117
27.435
25.9725
14.616
14.4528
0.0130262
-0.0558438
0.998797
-0.120003
-3.14352
0.0185577
0.408449
0.0178576
0.514578
29.5742
-15.0769
-0.061952
10.6722
0.42587
0.477795
0.413261
-0.0217535
-4.81606
-27.4386
0.378603
0.127159
-0.0270547
0.559542
13.8325
0.0718281
-0.803846
0.392502
0.390776
0.498159
17.155
34.3053
0.563273
-30.1165
-13.4519
-36.1569
-30.0525
-0.365719
-9.49798
3.39718
-0.3977
41.1557
-30.6568
53.4811
-14.1211
-0.166133
-23.5197
0.240462
55.5036
1.08813
-0.843482
0.793218
0.11397
-14.046
0.695385
0.643589
0.412935
-30.5978
24.5488
11.1224
11.3942
43.4329
39.7781
-17.9895
-45.7366
-31.4288
44.9066
41.9236
11.2809
0.329361
16.7336
0.25012
5.32069
-30.7573
0.423165
4.55528
5.8135
0.289648
-31.3727
-31.1929
0.0774745
4.65116
0.499009
0.291369
5.87521
0.254496
14.9165
-0.00640772
0.410569
30.4216
0.0441521
0.0675783
0.0865115
0.236731
0.220682
50.3864
-21.5419
0.0522926
3.99511
0.449926
14.5923
15.0471
-17.5615
0.270907
-29.7585
-19.0852
5.01877
1.24136
22.9
-43.686
-0.00560968
-0.0272608
-7.57228
0.455939
11.4665
2.97043
-0.00411459
11.9771
-33.3476
-19.5807
-44.6233
11.9467
25.3308
0.106151
-13.1998
16.3169
-18.4865
-0.0574211
17.8503
-36.3371
-8.91571
-19.8922
-30.7602
-18.7738
-0.680993
0.026417
-14.7528
-0.0293211
-19.9446
-29.441
-0.0135003
-21.2851
0.446589
0.540765
-39.5721
0.47893
0.100673
15.4468
14.6397
10.9145
-26.4456
-9.03885
0.610451
-12.7768
46.2237
-1.7001
13.0635
0.67596
-1.35638
0.51429
0.438041
-31.4746
-55.0108
-11.1318
-1.64448
-20.7879
-22.797
-32.5041
5.97182
0.388855
11.5263
11.7181
0.599829
-13.6931
15.4483
22.3711
11.5877
-29.8695
-19.3061
1.74139
0.23333
0.299066
-0.0777665
31.519
11.2923
-23.4644
0.02988
1.93717
11.3995
11.3839
11.284
11.093
11.6187
-21.1947
-4.67035
22.7088
26.5902
16.4214
6.05769
-2.51663
34.0563
-0.72414
-9.09634
-1.736
-18.1781
-13.1598
-14.9577
-1.82356
11.6241
14.3501
11.4276
-0.00856327
-35.7135
-33.5559
-44.5382
9.56664
-10.9574
4.50651
-22.5661
0.172006
-39.0667
0.0949877
-0.137255
-13.0002
7.53275
0.0354738
8.73075
0.227388
4.18961
-14.2078
0.538034
-4.34901
-26.8862
-7.53982
-2.84096
15.8509
48.9592
-52.6951
39.644
-30.0216
-59.2525
0.209451
0.426319
23.1898
0.214657
50.2562
0.244613
0.203214
-53.8925
13.9568
1.08575
0.328661
11.2107
21.1309
9.7963
0.343712
12.3451
-21.5135
8.73362
12.1267
12.3296
11.8388
0.365189
-16.1905
-8.76537
27.67
13.3596
0.356546
9.42262
0.348573
0.327192
7.12888
-12.1641
-5.81749
-13.3271
-12.7983
9.54223
-44.093
0.321487
0.341403
0.293275
-47.0546
-48.4827
-29.7247
-30.4458
-0.64722
-1.66964
-41.3067
-31.3197
-7.44756
10.8409
0.299199
-0.857997
-42.6365
2.88463
-3.19365
0.497232
7.97657
-0.461465
30.7965
-112.668
-18.2177
-33.901
0.546934
53.1221
-52.9353
0.86348
9.69344
1.21991
-34.5544
9.73865
-7.30635
16.7485
-29.5365
-0.193689
-31.3049
1.17448
-13.0923
-0.146175
5.99478
-34.8003
-32.9415
9.12264
18.0025
-14.4086
-46.7198
8.55364
0.243439
-34.4312
-41.5258
10.4836
7.90191
-62.6978
-53.1074
-43.8009
9.28401
-12.0811
-26.2078
-43.5216
8.69389
23.6305
-22.9216
-11.1415
-8.92994
-32.2488
-41.8337
-6.83482
6.93045
11.0588
11.4346
12.9435
9.05434
-5.14795
11.8146
11.7714
12.7164
-1.30137
-29.5423
-39.3917
9.83768
40.6456
-22.4649
10.2014
-19.3744
4.5838
9.07511
-11.5845
-4.07514
9.23303
8.17774
-56.433
12.1804
-37.1525
-54.5352
-36.9895
8.79993
-13.0972
10.7155
0.896762
1.44133
-20.6707
-42.0939
-0.060742
-31.5663
-20.6217
58.08
-24.7169
-47.3421
-32.6941
-0.0601609
-0.0285464
-44.1378
-1.15912
13.7454
-0.0194019
-45.6453
-42.7802
-0.0102638
-0.772461
-36.296
-14.3651
-44.2374
44.2716
0.18066
-5.48795
-46.7428
-1.67024
21.3268
-34.826
13.8533
-57.0215
-19.5818
9.90898
0.258802
0.139447
-0.516652
0.207532
-0.549397
-1.57166
0.199529
6.16507
33.3373
14.056
23.5885
-21.0938
-11.1057
28.1706
-5.89455
2.90492
-15.3477
12.0734
-70.3546
0.522079
-0.116672
0.592554
-40.8328
0.416352
-59.4599
0.448295
5.71746
5.89799
-53.9483
49.6784
-31.3432
-26.5615
33.4178
-5.47356
11.3028
-11.6666
-27.4181
-29.9774
-28.7143
43.0709
11.1529
-19.939
-30.7317
-7.50137
-7.54769
-40.8588
-30.908
1.68182
-18.0979
11.038
11.308
-24.7098
-47.3482
-3.06239
9.09402
11.1928
-53.5149
11.3194
-11.4412
-14.4358
11.3043
11.5524
-24.4938
3.08959
48.9063
-23.8192
2.78195
28.7988
25.7612
8.56339
-88.665
-42.7368
-18.7792
-119.461
60.0468
11.6212
-22.1066
11.6251
22.4801
-56.2633
1.8817
-55.8642
-28.928
-5.1963
19.9137
-10.1326
11.473
11.5246
14.1665
-23.8097
2.04328
0.0976999
25.1647
0.116046
-16.7838
12.3493
-15.2215
-2.65921
-28.054
14.5297
-60.0864
-44.0478
4.96414
-39.4575
-30.4965
0.0923009
47.0086
-39.1078
-6.4978
28.1969
-13.932
-20.9324
-26.8847
-35.923
6.24838
-48.0359
-24.3871
4.68496
-3.07314
0.396477
-27.0618
-5.79264
23.894
-17.7315
0.206961
22.8496
0.422054
-64.1334
0.0233577
0.0903279
-8.75155
-26.5729
20.0418
-10.9351
-16.3395
-9.86264
-56.5742
0.0346075
-15.8168
-67.2496
0.508444
-9.7328
56.219
-8.78833
-33.3752
-51.5712
0.0977962
8.89635
0.0251638
-130.157
-30.0932
-27.1184
-29.5718
18.4979
-7.50966
-1.45699
-40.9462
-50.9609
-18.4751
0.325347
11.355
0.78901
0.422086
0.954783
51.8426
11.7526
11.0619
-10.2276
0.393238
14.7371
11.9403
20.9122
11.5051
0.228943
20.4323
12.428
9.15714
-20.9107
0.970584
10.8675
8.67431
-12.8211
10.9019
0.357908
0.532763
9.39694
11.7967
11.643
-54.176
10.8338
16.7422
0.591519
0.218609
-27.7307
12.5552
12.0426
-51.9935
-49.4557
57.2454
13.6077
-53.2156
22.513
0.338457
-50.1177
8.89299
-51.7794
0.295485
0.249549
11.3842
17.6758
9.61654
0.321537
0.349578
0.812717
5.08804
7.68653
0.55007
-21.435
0.420341
-15.5557
56.6582
10.8716
-47.5415
-13.4542
-73.3197
0.516106
9.63927
0.06127
12.2777
0.363687
10.9324
0.667806
-43.8445
-27.6019
-40.2925
-6.38766
-14.2007
0.784932
0.901349
-33.496
0.948272
-54.2669
-3.15939
-48.8443
0.864025
-59.6941
-88.786
-0.921104
0.0177171
-32.3773
0.201743
-32.1468
10.618
0.0352654
0.68572
-0.675474
-2.03587
-2.73905
-15.5745
-34.1065
-10.185
10.6462
0.713142
10.7314
0.367829
10.5929
-33.3191
8.52074
-32.8877
-0.488548
0.957467
8.17768
0.353164
8.49112
7.74777
0.133393
0.552718
11.46
0.351111
-5.83625
0.359266
0.245727
-31.5647
-31.3068
-3.86811
-0.490991
-24.8111
0.298232
0.270378
0.283734
0.294382
0.0754887
0.351221
10.8162
10.5336
0.539833
0.397249
40.0545
0.228751
0.355542
0.503245
-50.1896
-0.712079
-54.1909
-39.0883
-48.3432
7.9351
0.202948
-0.434096
0.0515112
0.523027
-45.0259
-13.9605
0.440324
0.344728
-0.509884
-0.519986
-29.3545
-0.571735
0.00157363
-19.3873
0.49191
0.427662
0.161984
0.336595
0.113605
0.231882
0.363727
-14.1473
-20.2947
0.0421715
10.7198
-5.60545
-12.2714
-10.9931
0.363567
0.519994
-14.0815
0.181565
-0.03792
0.609527
0.385172
-13.3039
0.0460575
0.732156
0.430622
0.351952
0.663253
-8.5719
-0.0465812
-45.078
0.352223
-18.158
-0.188748
0.0447956
-46.9066
-0.0246641
-0.969099
0.0930949
0.464995
0.554945
-0.890427
49.4394
-0.700468
-34.472
0.405465
0.114765
0.818643
0.41123
0.204352
-0.473084
0.237933
0.395826
0.106059
-22.8288
-11.8115
-42.3003
9.25113
-17.0117
-0.50485
0.394958
-0.45939
-34.7549
0.0733922
0.067924
-0.00489321
-60.1852
0.0178311
0.0846124
-0.000919942
0.220723
0.46183
-149.899
0.0258102
0.830194
10.8438
-0.00463372
-8.82975
29.1668
23.8981
0.0293807
5.90332
-0.0222639
0.530796
0.340242
0.154208
-58.9195
-50.1347
-0.0165389
0.369524
-44.9729
0.0392503
-8.23975
-25.2312
0.0632191
0.491022
3.87649
0.0503878
-12.5717
-0.0315322
-0.225794
18.2161
1.67102
0.0442906
10.8401
-28.644
10.894
-30.9297
-27.0916
-31.2246
-27.7359
0.420455
10.8254
-21.2502
10.9709
-1.58597
15.1882
-36.8616
-29.341
11.2739
-11.3759
11.2621
0.269295
0.423506
-30.3634
0.432734
0.412779
11.0928
11.1191
39.6192
42.2999
60.7264
-19.9289
26.4783
11.2879
13.4948
21.3384
11.1527
0.365598
-0.0102078
0.269009
0.145374
-30.3487
-30.2296
0.428822
1.81165
-7.13405
-52.7113
-3.3224
0.380533
-2.36349
-24.8079
-60.0642
0.399904
-38.8388
-14.239
-32.7011
-43.5031
-14.9012
0.280861
0.339469
11.7541
-61.7106
0.107599
11.8559
0.272243
0.16538
-49.9389
-49.9343
-52.0689
-1.15716
-31.5375
14.8211
8.50289
0.156573
-17.5211
-54.4092
-53.4137
-30.3458
58.4035
-30.4779
32.3784
10.7172
-45.6739
11.4158
-64.6245
10.8097
-60.4807
10.7082
-29.6431
1.02868
-22.3005
11.2925
11.2206
0.0304379
11.0845
10.9647
32.3695
1.76352
11.1983
10.9709
-72.641
-45.3002
-16.8516
-28.3278
-46.0359
-28.3278
0.536679
13.4527
-39.9431
-33.4257
-40.0962
12.3344
-50.6552
4.66854
-52.7812
-53.99
-40.093
-25.8998
13.6541
1.75693
7.95697
11.1533
0.930389
-34.7543
-3.82683
-1.53478
0.778749
0.0452965
0.11584
0.659778
0.262907
-28.6025
0.287945
0.145939
0.4199
-0.00758108
-23.4754
0.675589
-0.0233585
0.14036
0.859135
-12.0285
-8.44255
0.44488
11.7795
-34.1337
-53.524
-3.56992
-46.9047
-13.4671
-2.84714
-26.5984
35.4622
7.8194
7.15187
-10.3956
-0.0143044
0.0189362
-6.48595
-0.0525763
0.0247963
-2.26943
0.0332744
0.824872
1.14553
10.349
-7.1802
-0.032049
41.3976
0.028023
11.1652
0.0312469
-0.0389465
41.4833
-45.4841
22.8007
0.0421368
-0.719134
-29.3642
-29.6124
-3.19161
0.174962
9.88107
-14.8353
0.0840725
0.0975227
-15.1752
11.0157
0.0918384
11.8596
53.0878
-0.493471
-0.93903
-21.1619
-3.76967
0.350567
0.29314
-1.18673
10.9528
10.9347
9.28681
11.0558
11.4673
2.93419
1.5727
-7.71814
-52.7
3.62215
-7.99906
10.9895
10.8952
58.9248
1.87229
-0.293984
-0.658685
-21.7036
-40.7647
4.07197
14.6515
-0.818246
27.8069
-7.23036
13.5786
-35.9639
45.8875
28.5113
-24.6168
3.90465
2.88055
-22.0164
-52.4076
-83.0194
-2.11894
-14.2354
-53.3229
0.558012
-18.9799
-10.5708
-41.0888
-29.7972
1.92736
14.2268
-54.4754
9.08112
-10.4451
0.532702
9.38854
-2.39437
15.3181
2.20745
13.2879
8.49022
-38.8842
2.12533
55.6209
-22.4945
53.5636
30.6349
-76.9969
11.9628
12.0046
-63.3204
-17.3087
-4.58256
-33.4756
-28.4116
-0.264299
1.77508
1.37343
-34.0919
-5.56763
5.45353
56.8621
-11.1268
11.1988
-9.18638
-22.8838
6.2634
6.4749
-38.0883
-32.8082
-29.9879
-30.3176
0.211873
-19.3656
-0.33976
-20.3196
-11.5202
0.96134
-0.745553
-18.3803
-7.53996
-30.2723
-30.0547
-5.49747
5.66343
-1.17361
-14.9713
-25.3712
7.72407
7.48646
-18.9779
-29.7725
8.12185
-10.821
-29.6608
-0.0863555
-40.9775
-2.57272
-8.03884
-47.7966
0.081738
50.5955
-13.6198
-0.728983
-0.782177
-2.13335
-53.7869
0.424598
0.504376
-5.12362
0.256391
10.1985
0.376073
-33.6855
10.0737
34.2987
10.4826
10.247
9.99061
0.438071
-22.3293
-13.7879
-14.5072
-51.5769
-3.92892
-41.8364
-14.972
0.0308286
-56.7511
0.00605055
0.388389
-1.812
-11.7314
-57.031
-30.6786
9.83058
36.3218
-18.6735
0.596714
-36.9244
-43.6602
-12.0838
-45.4942
32.2359
10.8016
-13.6307
41.2758
10.8305
-72.3301
18.9237
9.76503
47.0461
32.7161
10.7417
10.9977
58.5224
-41.468
0.640053
52.2547
6.07346
10.9618
-12.3188
10.8463
-33.973
6.5612
57.9672
11.0588
11.2039
35.397
9.28522
16.4542
-5.47412
-4.35985
13.9108
-28.6179
22.6828
-24.1799
-57.2871
-73.896
-29.5015
11.2929
35.0306
12.8323
3.21767
5.95681
10.5027
10.7041
0.0518562
0.20606
39.1236
-46.2876
11.5185
-31.0934
0.312369
5.65084
-20.4345
-72.9885
0.192531
-18.7473
12.2834
4.52329
0.0274686
9.12204
-10.4679
0.209193
0.642067
-24.9617
0.965528
0.423982
-9.56957
9.37097
0.397445
21.0847
0.431022
-24.4847
26.0552
0.581085
14.6242
35.4279
-29.1183
55.2093
39.862
-34.0354
-66.0791
-29.318
-29.5565
-29.188
-29.259
-32.9931
-25.8931
-36.4851
-29.4482
57.0593
-5.78515
-49.2088
10.1366
-1.43113
-40.931
-47.4144
-5.75073
-30.6444
-19.5163
-29.9444
-17.0524
39.8753
-49.1276
-39.3582
-29.0114
22.6273
-28.9388
0.483678
-51.4713
21.8671
4.85493
0.235624
-3.57724
43.9389
7.75369
-20.0017
-9.61213
11.6831
0.119313
-9.28891
-28.9188
-34.0993
-3.1807
-7.59749
17.665
-31.4724
-10.8994
0.338756
-26.2047
44.8743
-4.23455
4.23601
0.379578
1.10368
-40.2272
9.14542
7.30153
1.18544
0.29528
3.81982
-4.04569
-4.6276
61.0938
1.9085
-16.9627
-8.74345
0.675407
-53.1549
-52.0397
7.8718
8.02348
7.21357
10.148
-26.9946
-12.7666
54.6295
-9.78395
9.91865
-18.134
-5.8468
-6.93914
7.6776
-15.0454
7.65159
-24.0432
-29.5476
-39.2511
30.2737
-14.681
16.4034
7.90304
-57.4146
-71.9014
31.7264
-51.5755
8.42953
-62.6824
31.526
-4.79637
18.0266
-23.355
-1.07457
0.240968
-8.85899
-16.09
-41.4429
-1.19147
7.91987
-94.1847
11.8063
-35.3849
11.6613
-3.46611
9.26328
-0.385677
-2.41146
0.156303
-11.8381
6.82995
0.251056
14.266
-1.42263
-48.7034
33.836
10.1817
40.0136
11.1019
-1.43686
10.1296
11.8842
29.9467
-1.57307
29.8309
0.286721
-1.42598
-21.5833
0.488477
0.111521
-16.1912
-9.89987
-26.3251
-6.18771
32.1467
6.20673
26.3286
0.362727
17.2014
13.7475
0.398794
0.393488
0.288599
0.644175
55.8486
0.273711
-11.6822
-31.2316
11.1753
11.5252
13.8196
11.378
-23.9208
-31.6011
-2.21659
-5.93181
-5.96946
-17.9199
32.8943
0.216238
-62.352
-12.1207
-37.7634
-1.44547
7.70057
-25.3063
11.2687
11.4166
-22.1127
11.508
-0.110497
5.84101
-43.0833
16.2462
53.7591
-1.12095
-1.78374
32.9424
5.45791
-0.501868
33.1264
6.90481
-17.9515
36.0061
-11.9602
37.9195
-45.4283
0.583302
11.8859
-1.85219
-9.98494
-1.84376
0.51651
-2.90552
0.159291
11.8901
-36.2993
3.39815
0.207672
-37.7637
-0.656232
5.75188
11.3408
11.4682
23.9731
2.9172
-1.49124
-7.18761
-2.68941
-14.7256
11.1366
0.260556
-22.4547
58.4633
-23.45
-0.468958
57.1333
11.3711
-50.9256
53.144
-3.65606
4.23408
34.953
11.5033
-29.8979
36.6365
-30.0837
-6.72869
-29.8678
-15.5379
-35.6761
32.6623
-7.23231
59.2313
0.38612
-29.9451
-30.241
-55.6703
-48.879
-37.664
-57.0276
-41.0869
-32.9324
56.019
8.74719
9.31599
49.176
22.8741
-49.5494
6.24788
-51.5931
43.2615
0.597188
9.66438
0.0459724
0.515157
0.4216
0.446331
57.423
0.28527
0.409386
10.1439
0.604241
0.682345
9.90159
-7.23935
0.513985
-9.18909
0.355492
6.04737
25.186
-49.1433
-1.41594
0.890255
-8.17027
-1.44279
-39.7962
-24.2434
-24.6838
-2.05759
36.6456
12.7025
-3.76529
-6.50477
7.3986
2.97163
0.503323
10.6338
10.0925
-30.5616
0.649556
16.9306
-4.51833
1.64261
10.8167
-3.51189
6.99359
10.6188
10.4233
-15.3956
10.1821
7.63819
50.9654
23.7025
12.4421
21.3405
9.86171
-2.7913
10.2514
0.292267
-5.06976
0.262987
4.1393
0.0638269
21.4386
9.82203
-19.0368
21.9289
0.0471475
8.71686
26.6896
-16.5941
32.6737
-28.8693
-55.1371
-39.1966
-1.25127
0.0849267
-30.1611
34.8057
-12.4645
-3.68493
8.04834
0.755854
-0.719136
0.0598008
8.53448
11.7552
27.8852
7.81809
0.363552
10.5779
10.5634
0.0208562
-36.2609
33.8843
0.0336411
6.74849
-14.1836
41.6077
11.7591
9.18856
-11.8728
-50.2914
-49.8177
10.8402
10.7731
-5.22596
-9.05393
-11.3945
-32.3334
30.7765
0.333858
-0.45118
-2.34213
0.339793
18.2275
-18.0288
0.426192
0.316455
28.9949
0.296199
-11.825
25.39
-37.5141
-27.6926
0.295242
-13.2107
12.6954
-0.0659498
0.361745
11.332
8.19842
-2.3815
19.5904
2.75496
-46.5229
0.426728
0.433995
-36.4741
-3.81224
12.483
0.450108
6.95377
10.9681
58.6303
0.42079
-12.0898
-37.202
-41.9865
-95.9575
-62.7005
0.411651
15.4257
45.1492
0.00965976
6.31373
8.50731
-41.2002
12.0008
5.19998
-40.5305
11.9908
23.6551
-18.9292
8.24267
-41.232
-54.5525
13.481
17.6512
-44.2931
13.7841
9.78793
1.46749
13.1156
11.2697
-0.255143
-37.8029
-8.46313
5.5581
12.8743
10.6595
11.668
-0.185408
-0.0331904
33.2889
0.0103832
-9.8714
-0.935494
35.2407
11.3922
-13.8795
3.4544
56.4996
-25.9803
-31.1966
-42.6364
2.03395
-6.94044
-58.274
-21.1226
13.1701
-17.4734
-9.29393
-0.0290339
-11.7704
10.6901
3.63842
1.7473
0.0123684
0.161735
-21.4885
-6.8621
-13.1888
0.201128
-1.26642
0.198243
-1.45608
-7.5779
11.9834
-46.8127
12.3552
-1.83511
-1.76956
10.2596
10.1214
11.1095
0.515595
-1.64779
-13.1308
2.78347
-1.50728
-1.78634
-30.033
2.72664
-8.72971
-40.6233
-30.9194
-29.2199
13.0499
-31.3365
17.1693
-32.0436
0.412593
-29.9073
0.439894
1.70099
-1.3627
-6.66336
0.346774
2.68261
-3.2391
10.8513
9.34265
12.3682
-6.45851
-6.8552
-48.7651
-29.525
22.2275
35.949
-35.3752
-26.862
-31.0209
-51.4896
-29.3088
-10.9134
-29.5014
0.084819
-0.224004
-49.1167
-55.3086
-6.17885
-1.57387
10.6922
51.722
-4.25915
-54.8455
-3.33146
3.66095
-5.18696
-1.5521
-29.3669
-0.455509
-0.184203
-0.0374744
1.00606
5.69471
-0.875759
0.562013
-44.8383
-45.791
-43.2012
20.9441
-36.6428
11.696
0.472672
13.2394
5.14823
3.08371
20.1792
10.863
21.306
0.0504679
2.54536
4.09194
-0.48464
0.837077
-14.4441
7.61457
12.2344
7.63249
41.3006
0.633121
22.7135
-59.2446
-6.80252
-49.5794
40.2721
9.28268
8.10703
5.306
-15.7554
-10.3833
11.3668
-36.1702
6.39054
8.04808
-6.34063
17.1561
8.38563
-6.84
-18.7171
-15.2197
11.8903
-2.51932
-61.1505
-1.02231
-45.6875
-30.9747
11.7742
-55.557
-9.41189
32.1578
-2.19835
11.7494
14.0249
16.3578
-8.26418
10.9957
-29.6639
-15.7468
-29.6473
-5.73686
-8.86809
15.5043
-29.1027
-27.0879
0.118931
-0.53939
14.53
-29.4115
5.76632
-6.21784
-47.3599
0.258109
-0.329736
10.4543
-52.5618
-7.37873
-2.99992
-0.0179129
-2.79598
10.1288
9.89508
-3.87344
10.1932
-32.1819
10.1704
-55.1322
10.4469
-32.0609
-32.6837
-10.1009
9.7135
-10.1412
-0.440933
9.7897
-3.50077
-0.965525
-9.88391
50.5071
0.127777
32.8347
-12.4007
0.168365
-4.64027
0.170424
11.3455
10.0171
11.107
-9.76149
0.142642
10.6708
-2.32436
0.144931
0.469392
-26.8141
0.319868
0.0776463
11.4367
-27.7416
-31.7921
0.13295
-7.64553
0.433782
-29.9352
0.284762
0.166882
-0.293231
0.309928
-0.157749
-0.294745
0.045234
0.528836
10.0864
-22.4053
-18.642
11.393
43.6658
14.7393
11.1476
0.050424
11.8321
36.0567
0.0400634
31.9426
-0.87632
0.103124
-1.56383
23.8787
0.457235
-0.0673448
53.5644
11.9157
26.4892
-11.7362
-15.6415
0.0123471
-4.40298
-0.0346688
0.441983
0.630714
0.373991
48.0496
0.509256
0.306014
0.266532
10.6951
-42.4276
-26.3421
-6.22651
2.74674
-0.555507
0.30954
13.606
-31.1673
24.088
15.4406
2.15398
0.291436
40.9695
-15.6991
38.8999
30.04
10.7618
11.268
0.236298
-6.84355
0.321019
-16.9079
-14.9185
11.2737
-49.9065
-0.0669089
0.265277
0.523315
9.57613
0.412418
46.4148
-5.94669
44.049
0.347987
-55.092
-10.5236
-15.8857
0.328347
-45.3276
0.451409
27.2629
10.8823
30.7872
0.33042
-19.7711
3.38413
-48.9336
29.4733
10.8075
10.4105
-2.23017
-26.972
10.6391
-56.6528
-37.7798
10.8728
32.3691
10.7328
-24.3743
41.7405
6.5435
-8.93322
41.8116
36.7544
0.00518605
1.58229
-53.5845
41.7884
8.99875
38.2485
-6.89988
-53.4245
28.4158
-4.19377
0.0338432
0.179541
0.0912592
-0.567226
12.6235
-33.4178
-1.80904
-37.4601
15.0536
36.8934
-12.2762
35.2227
0.0507218
-0.0365931
-16.7603
56.4086
-20.3206
46.1742
14.8024
3.0615
23.2439
3.26748
15.5934
0.00944571
0.0527667
0.00624735
-0.0188352
7.63059
-16.636
12.047
-33.7428
2.76469
-42.4429
8.13672
-25.4653
43.2345
-4.2734
-3.32077
0.100356
37.02
0.0342003
21.5215
-3.22371
8.03071
-11.4994
-0.822299
30.2809
34.2292
-16.9656
0.180503
-1.08537
-35.4527
-63.4639
-8.81174
50.2462
25.455
53.3919
56.9465
42.5403
-38.4331
-2.29339
42.3848
-44.2696
0.00182524
4.33465
0.0423979
-29.8224
-14.691
-2.63557
0.366832
-10.3337
-0.03921
10.1631
-37.6745
40.4558
-46.7931
10.1199
-3.17419
8.74345
0.0334086
-8.19282
-56.8561
-0.33142
-34.2221
-19.1961
10.4778
-56.1376
-45.7598
10.4667
-15.1878
-16.1915
21.8757
10.4946
-15.3966
25.5949
-56.1465
-33.2953
-45.4892
38.5366
-35.5419
3.51088
24.098
2.97435
-58.0975
-48.8479
-1.22571
-1.51157
47.7973
-4.17725
-39.7101
-3.82158
-18.8014
-66.5264
-32.9136
-30.471
1.32904
-30.4509
0.197381
-30.4031
13.4253
-23.9826
48.1087
-29.4029
19.2349
-33.2326
-28.9786
-20.9514
-46.5722
31.8388
29.6402
-33.3499
9.70046
24.8866
15.8654
4.8194
12.5041
-3.44819
-31.7025
-84.9184
-30.3635
14.5553
18.277
-41.6763
22.4601
-32.1473
-16.9027
5.17584
4.64296
-30.7081
11.4791
-31.1772
13.0242
29.2995
31.3064
58.5763
28.0005
-29.9644
-61.1713
41.9232
11.4622
35.4564
-50.042
-30.4538
49.7996
28.8621
-4.93162
20.7409
23.7195
-44.085
-32.6893
-46.9441
14.5226
9.90287
34.3091
-59.7683
42.881
27.233
11.8048
35.5289
-30.961
1.11588
1.27815
11.7575
-14.266
-52.675
-29.9854
43.3983
-11.9808
-20.3855
-47.1904
40.9157
44.9082
36.9542
-34.6112
-99.2236
43.0682
-34.4166
-57.0685
44.531
-2.67818
-11.0859
11.3132
-0.250551
-0.513648
-10.4308
42.1575
-29.7051
0.82863
-0.251941
-0.433747
-0.0242974
-1.67218
3.3305
-34.0625
-8.59171
-0.587827
-54.7508
-71.8513
-29.0618
-20.9178
-2.15863
-18.6179
-29.3421
-43.3513
-0.464003
-36.1963
-2.96413
-35.961
-30.8733
41.3136
18.0497
25.1591
0.0669399
3.82964
-72.5895
-26.0201
-10.9297
-47.2849
0.00858655
-63.1863
-45.3213
-27.3534
-45.3819
-6.17338
14.8835
10.812
14.1879
9.95991
41.5306
0.0272
-0.0150608
-0.00142137
13.7187
-10.1042
-49.8192
-57.4359
15.2343
36.2047
23.5506
28.3634
-1.25849
-50.1544
-6.78158
11.5242
2.77418
-2.52386
18.0491
6.18811
-16.1243
13.6889
-12.5815
-10.7483
-8.48722
16.4493
35.076
-32.6303
51.3437
-28.8919
18.0784
-57.2666
-46.9929
-11.5955
13.4248
32.6107
-10.6336
-32.4975
5.39259
13.4587
-18.8531
-29.5131
15.2327
45.5089
57.453
-33.0456
-2.90694
-57.5573
13.6909
-0.099341
-10.6149
9.97243
6.22309
-16.6635
2.34978
7.25736
-44.6566
-10.9683
-29.1766
-13.3276
-29.9921
-0.0371808
11.08
-56.9403
-19.3735
-0.0326903
58.2436
11.4677
44.5956
9.62906
-26.0528
15.9418
-1.15752
32.4741
54.1878
14.5326
32.5966
0.0527878
-46.8433
11.5392
11.4029
-6.50577
5.43863
-39.4892
-5.61288
-10.9393
11.7036
2.7081
-23.688
4.03545
8.55577
-8.77907
-13.7696
-27.871
0.0239093
13.1353
0.0148671
13.3491
0.0578543
-21.2254
11.4578
-24.5828
10.8426
-28.6435
0.00453245
32.2372
-9.72163
33.9668
0.0467557
6.8431
0.107131
0.00836842
-5.42759
6.70962
16.014
32.4239
28.6969
-30.6999
-52.5222
40.5651
23.0057
20.5276
3.96504
0.0191201
0.0544162
-76.7664
41.7535
17.3418
13.33
0.0682487
17.6219
0.125176
0.0377595
-23.1895
-25.854
-39.5554
-34.5015
5.76193
0.634933
-6.21457
11.2975
41.1776
9.74532
-20.0313
9.63433
-8.12366
-78.2545
-17.2315
0.144143
2.61997
-10.9586
-8.73324
-37.0599
11.8078
-36.1104
22.134
-77.6676
-32.4251
-30.1818
0.156079
20.6554
1.60434
11.6064
33.239
11.6651
-12.8176
9.68593
10.6983
7.40161
11.5634
-41.4774
16.4961
2.71037
41.2959
10.9867
-24.2153
11.7556
11.6725
-30.7889
-79.469
-30.406
-29.9328
-30.8901
8.39617
56.4892
-31.5158
-4.27806
10.5675
18.2127
-30.8664
0.347938
0.145274
9.73298
-24.3953
-29.8567
-50.6374
29.6795
-3.45871
0.489864
1.51363
-29.7677
26.5228
8.51413
-56.5305
-29.8135
-29.8529
57.9515
12.8339
9.4067
0.983803
12.9413
-52.5633
15.5894
9.98189
17.7304
-4.55586
15.9565
21.3975
42.5949
34.4275
9.38287
-19.4561
20.8845
-11.1848
0.317189
0.351935
29.7854
-32.8986
-13.7279
0.279213
53.4332
0.348615
-29.9513
28.752
18.5864
37.3006
-29.4335
-20.5244
-29.5943
29.9051
-14.2486
-34.2513
-6.51928
10.1575
0.604096
12.7925
-0.442979
12.8075
-0.755158
10.2062
-0.834887
-13.8068
0.0939906
33.0279
1.40316
3.04697
-26.9149
7.98286
0.0926086
9.52366
-7.36268
-33.499
-45.987
-21.9276
3.2989
35.0328
0.422604
56.4332
-32.7936
56.5664
50.3004
0.560756
3.46782
5.43976
0.446996
0.389652
-91.7812
9.5109
-25.4812
-12.9893
3.4588
-0.320812
-30.2374
5.73687
5.67653
8.21074
5.40608
0.453772
-31.0966
-5.89877
0.0718845
-26.6557
0.306084
-0.564893
0.0740925
0.0333908
-11.7045
6.78682
-57.2352
-0.518921
-0.0274306
-13.5462
-15.5644
21.4077
-20.1342
10.9645
10.8491
-0.0219781
0.0992794
-12.3538
-17.9878
8.62524
0.0701602
-3.73958
9.50529
0.0477873
54.768
-9.99642e-06
-0.466915
0.0903166
-0.0321541
-31.308
-0.00594436
-29.4858
-9.76564
50.7245
3.33291
-3.45502
-5.10766
-1.62879
-9.60296
-35.8593
0.60218
0.0475528
6.16253
-29.6763
-0.0174816
6.56367
25.9127