/*--------------------------------*- C++ -*----------------------------------*\
| =========                 |                                                 |
| \\      /  F ield         | OpenFOAM: The Open Source CFD Toolbox           |
|  \\    /   O peration     | Version:  2506                                  |
|   \\  /    A nd           | Website:  www.openfoam.com                      |
|    \\/     M anipulation  |                                                 |
\*---------------------------------------------------------------------------*/
FoamFile
{
    version     2.0;
    format      ascii;
    arch        "LSB;label=32;scalar=64";
    class       surfaceScalarField;
    location    "0.0817324";
    object      phi;
}
// * * * * * * * * * * * * * * * * * * * * * * * * * * * * * * * * * * * * * //

dimensions      [0 3 -1 0 0 0 0];

oriented        oriented;

internalField   nonuniform List<scalar> 
92401
(
0.149381
-0.0986032
-0.00682617
-0.0439515
-0.0639529
0.0609447
0.0404227
-0.0374146
0.0221576
-0.0396357
0.042959
-0.0254809
0.00660118
-0.0131833
0.0130118
-0.00642972
0.00138459
-0.000553952
-0.00598351
0.00515287
0.0194024
0.00968871
-0.0252923
-0.00379879
0.00591494
-0.00482995
0.000299602
0.0322294
-0.0255372
0.0127102
0.0480783
-0.0386435
0.0324576
-0.0418924
0.000347259
-0.000617017
0.000198508
7.12498e-05
0.004687
-0.0415091
0.0386042
0.0242924
0.0243263
-0.0872228
-0.0175923
0.0111226
-0.000111469
0.00658121
-0.0343781
-0.0399714
-0.0161284
-0.0207837
0.0598238
-0.0229118
0.00209353
-0.0666484
0.0645549
-0.00253176
-0.00777224
0.00205213
0.00349484
0.00222526
-0.000955406
0.00154902
0.000213327
-0.000806944
-0.00499247
0.010951
-7.41464e-05
-0.00588436
0.0165119
-0.00576772
-0.00502168
-0.00572254
-0.0407495
0.00834382
0.0369676
-0.00456193
-0.0394326
0.0109801
-0.0547494
-0.0540738
-0.00267834
0.0548599
0.00189224
0.0907019
-0.0892701
0.0220161
-0.0234479
0.0503409
0.0601617
-0.0717555
-0.0387472
-0.032599
0.0511456
-0.0579791
-0.00275869
-0.00100112
0.00402468
-0.000264862
0.0314058
-0.063593
-0.000411822
0.0610842
-0.060164
-0.0323152
0.031395
0.0124901
-0.0172912
0.00136968
0.00343136
-0.0361829
0.106807
0.0618276
-0.132452
-0.0846917
0.107525
0.00897181
-0.0318055
-0.131127
0.0324645
0.0295364
0.0691262
0.0148412
-0.0621446
0.0374786
0.00982481
0.0602965
0.00925069
-0.054706
-0.0441931
0.0100824
0.00246525
0.0316454
-0.050417
-0.0411733
0.0654828
0.0261075
-0.0332273
0.040645
-0.0137296
0.00631196
-0.020252
-0.102925
0.066107
0.0570699
-0.0855419
0.086679
-0.00113707
0.032272
-0.00225477
-0.0738165
0.0437993
-0.00205423
0.0291152
-0.0190547
-0.00800625
0.0268842
-0.0503977
0.0235135
0.000167833
2.61083e-05
-0.000146666
-4.72753e-05
0.000916714
-0.0585114
0.0575947
-0.0684996
0.0429215
0.0622732
-0.0366951
0.090124
-0.0254248
-0.0128091
-0.0518901
-0.000478634
0.0709308
0.000931675
-0.0713838
-0.0476127
0.073223
0.0397107
-0.065321
0.000563223
0.00110921
-0.000393271
-0.00127916
-0.00206519
-0.00357741
8.24257e-05
0.00556018
-0.038319
0.0840261
-0.0462778
0.00057073
0.000330065
-0.000754855
-0.000491442
0.000916231
-0.0550002
0.0542749
0.000725324
0.0754109
-0.00780124
-0.0187036
-0.048906
-0.0998623
0.0922584
0.00452798
0.00307593
-0.0547898
0.0273511
0.0110123
0.0164263
-0.00275696
-0.014934
0.00763844
0.0100525
-0.0125186
0.0258029
0.0374369
-0.0507211
0.00085331
-0.000356418
-0.000166827
9.12474e-05
-9.98202e-05
0.00080246
-0.000793887
0.000380075
0.000139917
-0.000296543
-0.00022345
0.00414537
-0.00918181
0.00503151
4.92822e-06
0.0679102
0.0050621
-0.0172011
-0.0557712
-0.0150161
-0.00477945
0.0107324
0.00906316
-0.0409686
-0.0528812
-0.0547733
0.148623
0.00348618
-0.0349887
-0.00287863
0.0343811
-0.000277914
0.000493439
0.000374004
-0.00058953
0.00423776
0.00450754
-0.0278679
0.0191226
0.0188559
-0.00642757
-0.0096403
-0.00278799
0.0418837
-0.076541
-0.0277108
0.0623682
-0.0293186
-0.00307365
0.0102618
0.0221304
0.0122277
0.00833478
0.0130517
-0.0336142
-0.000291117
-0.000294829
7.13401e-05
0.000514607
0.02523
-0.00973271
0.0365653
-0.000419035
0.000263849
-0.000491004
0.00064619
0.0442678
-0.0330763
-0.068127
0.0569355
0.000343133
-0.000219757
-0.000123377
-0.00112974
2.94252e-05
0.000557511
0.000542807
0.000617104
-0.000215437
0.000222069
-0.000623735
0.0226422
-0.0231268
-0.0622719
0.0627565
0.00105489
-0.012685
0.00291184
0.00871828
0.0430105
0.0585951
0.0185123
-0.120118
-0.1101
0.0240463
0.123235
-0.0371816
-0.0053961
-0.0448113
0.00375155
0.0464558
0.0553009
-0.0306455
0.0264007
-0.0510561
0.0269662
-0.00329448
-0.154325
0.130654
0.00919379
0.0153455
-0.0287687
0.00422943
0.000686022
-0.000186841
-0.000760682
0.000261501
0.0381387
0.0122654
-0.00131307
-0.0490911
-0.00250614
0.0847719
-0.0863519
0.00408619
-0.0181072
0.0495393
-0.116192
0.0847601
0.0425694
0.00536532
-0.0533308
0.0427066
-0.000137171
-0.00232448
-0.0293498
0.0418349
-0.0101606
0.0708983
0.0171246
-0.0316093
-0.0564136
0.132268
-0.146236
-0.0301929
0.0441619
-0.0151242
-0.0459014
0.0587011
-0.0824657
-0.000732552
0.0831982
0.00107302
-0.0978458
0.163121
-0.0663485
-0.00255006
0.00338379
-0.000624821
-0.000208903
0.0899185
-0.149286
0.0303752
0.0289921
0.00155948
-0.000454443
0.000907836
-0.00201288
-0.0872596
0.142852
-0.104135
0.0485427
0.0309954
0.00269706
-0.0416199
0.00792741
0.0859588
-0.0148343
-0.08365
0.0125255
0.00576209
0.0319192
-0.0528055
0.0221651
0.0276206
-0.114818
0.065032
0.0871805
0.113323
-0.0800336
-0.120469
0.000711908
-0.000299178
-0.000382369
-3.0361e-05
-0.0936266
-0.0285469
0.110671
0.0115022
0.00138322
-0.00584489
0.0160404
-0.0115787
-0.0141296
-0.0341754
0.0585731
-0.0102681
-0.00561283
0.0175956
-0.0146916
0.00270878
0.000412375
-0.000680954
-0.000612072
0.000880651
0.0224865
-0.0265197
-0.00157958
-0.00188129
-0.000699476
0.00154428
0.00103649
-0.0577699
0.0604698
-0.00269991
-0.00258678
-0.00638124
-0.0022022
0.0111702
-0.0370018
0.0285142
-0.005642
0.0183403
-0.0472354
-0.0557967
-0.0513025
0.0415537
0.0983367
-0.0885879
-0.00765302
-0.00183434
0.00517048
0.00431688
0.0468263
0.0111264
0.00215645
-0.0601091
0.000584712
-0.00961662
0.00711514
0.00191677
-0.0403407
-0.0541688
0.0114696
0.0830399
0.0647088
-0.0388775
0.0266264
-0.0524576
-0.00962359
0.0597999
-0.0587856
0.00860929
-0.0590785
-0.0339924
0.00778896
0.085282
0.0162299
0.0048609
-0.0329143
0.0118235
0.0636425
-0.0633928
-0.00024962
0.00186512
0.00178721
-0.0015786
-0.00207373
0.0406708
-0.0441159
0.00344509
-0.0570815
-0.0387233
0.107797
-0.0119924
0.000834012
-0.00997969
0.00991041
-0.000764731
0.0027244
0.0058784
0.00278307
-0.0113859
0.00167581
0.00680292
-0.00789402
-0.0246139
-0.0579077
-0.00903715
0.0915588
0.0257203
-0.00809459
0.0187524
-0.0363781
-0.0840044
0.0925684
-0.101283
0.0927186
0.0769299
-0.0496857
-0.0272442
0.00162144
-0.0346564
-0.0101386
0.0431736
0.00810938
-0.00561808
-0.0096164
0.0071251
0.0463056
-0.0700277
-0.0620829
0.085805
0.0740264
-0.0647105
0.0293643
-0.0386801
-0.0137504
-0.00945096
0.0337931
-0.0105918
-0.0581702
-0.0867598
0.0572964
0.0876335
-0.0416066
0.0543259
-0.0110979
0.0976984
-0.0482766
-0.0494218
-0.00481072
0.0156304
-0.00271034
0.00100451
0.00068411
-0.000711452
-0.000977169
0.0473389
-0.0157941
-0.00524772
-0.0262971
0.00363344
-0.0018941
-0.000445917
-0.00129342
0.00536228
-0.0101867
0.00871566
-0.00389122
0.0723652
-0.042605
0.0260667
-0.0558269
0.00896696
-0.000475984
-0.00686243
-0.00162855
0.00165232
-0.00060712
-0.0010452
-0.0660628
0.065425
0.000637813
0.0118658
0.00580047
-0.0966728
0.0790065
-0.0120049
0.0144133
-0.01029
0.0078816
-0.0731994
0.0164737
0.0835094
-0.0267837
0.0186472
-0.0977263
0.0757405
0.00333861
-0.0526737
0.0429404
-0.00840131
0.0181346
0.00869729
-0.00183076
-0.00296231
-0.00390422
8.81169e-05
-0.000733632
0.000645515
0.0282954
0.170877
-0.245623
0.0464501
0.000275113
5.08737e-05
-0.0248754
0.060241
-0.0526046
0.017239
-8.12489e-07
0.00520431
-0.00446676
-0.000736741
-9.9591e-05
0.00129573
-0.00141158
-0.0708635
0.00058287
0.0702806
-0.0323824
0.113775
-0.0477403
-0.0336519
0.000541285
0.00047201
0.00945972
-0.010473
0.000419683
0.092187
-0.0926067
0.00240576
-0.00162452
-0.00123168
0.000450446
0.00137709
0.000704819
-0.000712102
-0.00136981
-0.0367
-0.00157914
0.0324831
0.0186634
-0.0636651
-0.0724141
-0.0163209
0.00649906
0.082236
-0.000629562
0.00200665
-0.101093
-0.041696
0.112706
0.0300825
0.0271889
0.170834
-0.0853569
-0.0578208
-0.0276561
-0.0183678
0.119293
-0.043548
-0.0573777
0.039727
0.0299284
0.0386225
-0.108278
0.104727
-0.249085
0.109534
0.0348242
0.0016478
-0.00146063
-0.00138367
0.0011965
-0.012332
-0.0353503
0.0554211
-0.00773886
0.026429
0.0405094
-0.0266364
-0.0403021
-0.0353563
-0.0257995
-0.019767
0.0809229
-0.0533661
-0.0139518
0.0549859
0.00119295
-0.0119782
0.00924797
0.00153726
0.0553733
-0.0284456
-0.0508471
0.0239194
-0.0896748
0.105609
-0.0503155
0.0343814
0.0169018
-0.0234595
0.00684276
-0.000285139
0.0517903
-0.0600566
0.0636396
-0.0572249
-0.00348396
-0.0138194
0.0745283
-0.0053213
-0.0133256
0.00254795
0.016099
0.000189473
0.0592239
-0.0585831
-0.000830319
0.135275
-0.0537822
-0.00241316
-0.0790799
0.0601975
-0.00767502
-0.0492723
-0.00325016
0.0504462
-0.0227616
-0.0673394
0.0396549
-0.0100624
-0.00170695
0.0151568
-0.00338744
0.00542583
-0.0017063
-0.00476322
0.00104369
0.00257485
-0.044219
0.0408466
0.000797547
-0.000739463
-0.0863379
0.00346908
0.0197574
-0.012918
-0.0631215
0.0465067
0.0166148
-0.0595538
-0.0170391
0.0109775
0.0656155
-0.101565
-0.000830093
0.104832
-0.00243773
0.00372985
0.0239518
-0.0128878
-0.0147939
-0.0713291
0.149756
-0.065988
-0.0124384
-0.00471144
0.0133761
0.0223781
-0.0310428
-0.0525235
0.100617
0.0393771
-0.0874711
0.0293791
0.00127829
-0.0143476
-0.0163098
-0.0364024
0.0381138
0.000863395
-0.00484639
0.00755162
-0.0102661
0.00756082
-0.00024349
-0.00457832
0.0101841
0.0360326
0.0377988
-0.0738314
0.00107954
-0.00190441
2.66475e-05
0.000798218
0.0201864
0.00836224
-0.0193249
-0.00922372
0.0227017
0.0100752
-0.00141534
-0.0313615
-0.0526886
-0.00223035
0.00714655
0.0477724
-0.000212704
-0.0440063
-0.00099264
0.000520928
0.00155125
-0.0518561
0.037199
0.051872
-0.0372149
-0.0447184
0.0302078
0.0173378
-0.0028272
0.00139316
-0.00367132
-0.00993835
0.0122165
-0.00994197
-0.00508486
-0.0028882
0.017915
-0.0437084
-0.00489806
0.0122041
0.0723245
0.0395481
-0.0720535
-0.0398191
-0.0458191
-0.000179048
0.0459982
0.0861902
-0.0486816
0.0595917
0.0036944
-0.00765251
-0.0372767
0.0412348
0.035893
0.0112971
-0.00530088
-0.0418893
-0.000469152
0.000344872
0.00102143
-0.000897153
-0.0168734
-0.0449608
0.0618342
-0.000210353
-0.00138854
-0.0041255
0.030841
-0.0230211
0.00619003
0.0278893
-0.0417318
0.0978256
-0.0906573
-0.00211282
-0.00505554
-0.0214646
0.101537
-0.0185367
-0.0615353
-0.0318306
0.00677991
0.0134945
0.0115562
-0.039056
0.03589
0.0137743
-0.0106083
0.032569
-0.0251266
0.00134381
-0.00878629
0.0192819
0.0729773
-0.123501
0.031242
0.0762949
-0.0752765
-0.0243125
0.0232941
-0.143393
0.00202599
0.00365818
0.137709
0.0305523
0.0123819
-0.0411905
-0.00174373
0.0400562
-0.0575097
0.0203694
-0.00291597
0.00215717
-0.00120848
0.000239181
-0.00118786
-0.0146337
-0.00113144
0.0734002
-0.0416419
0.0188069
-0.0505651
-0.0120619
0.0477347
0.000371296
-0.0360442
0.00511126
0.0961552
-0.0933575
-0.00790897
0.0495446
-0.098984
0.0579043
-0.00846498
-0.0483757
-0.000452509
0.0367664
0.0150884
-0.00332318
0.00868337
-0.0204486
-0.023424
0.0477896
-0.0133083
-0.0110572
-0.0482996
-7.60953e-05
-0.00558322
-0.12287
0.1759
-0.0474469
0.010089
0.00980427
-0.0634782
0.0435849
0.0494378
0.00545363
-0.0448025
-0.0131522
0.00682512
-0.00372748
0.0100545
-0.059066
-0.000175488
0.0592415
0.11075
0.0442248
-0.136934
-0.0180407
-0.00947258
0.000294508
-0.0039741
0.0185019
-0.116243
-0.0226686
0.120409
0.0127119
0.0662781
-0.0691857
0.00280841
-0.0557975
-0.010489
0.000534689
0.00194671
-0.00269175
0.00207079
-0.00177994
0.00024384
-0.0508613
0.0262096
0.0739122
-0.0492605
-0.00193583
0.000994328
0.000970929
-0.0341608
-0.00772628
0.0446954
0.000295658
-0.000284781
0.000357406
-0.000895173
0.000121237
0.00041653
0.000262415
0.00210404
-0.00182362
0.0014681
0.000143421
0.000212107
0.000294558
-9.56707e-05
0.000654423
0.106734
0.123418
-0.0807712
0.000187023
-0.000650128
0.000757663
-0.052884
0.0527428
0.000141174
-0.0105012
0.0761425
-0.0717706
0.0061293
0.00167021
-0.0197385
0.00533179
0.0127365
-0.0603694
-0.00301579
-0.0172453
0.0040177
0.0474081
-0.0341805
-0.0627904
-0.00311947
0.0659099
-0.00719291
-0.016587
-0.0127746
0.0365544
0.000344395
-0.000396833
-0.000547628
0.000600066
-0.0038939
-0.00738666
0.00913705
0.00214352
0.0549853
0.043905
-0.0175072
0.0483238
0.089657
-0.0380881
-0.0998927
-0.0126736
-0.0442074
-0.0188615
0.0185522
-0.0537591
0.0540683
-0.0112376
0.0285044
-0.00559825
-0.0116685
-0.015092
-0.0134526
0.013381
0.0151636
0.0964848
-0.0946388
0.0187117
-0.0205577
0.00126668
-0.00442479
-0.000489834
0.00364794
0.00124401
-0.0672387
0.0659947
-0.072575
0.00336227
0.0668479
0.00236485
0.0389995
0.0382784
-0.077278
0.0190991
-0.0599652
0.0281925
0.00195624
-0.00109912
0.000437308
-0.00129442
0.000262503
-0.000125133
0.0010037
-0.00114107
-9.07349e-05
0.000444645
-0.00103056
0.000676646
0.0642376
0.0566588
-0.0394422
-0.0814542
0.00586439
-0.0870467
0.0824785
-0.00129616
-0.0138125
0.000747951
0.0264681
-0.0134035
0.0535514
-0.0526977
0.0191516
-0.0200052
-0.000547652
0.00139697
-0.00070052
-0.000148796
0.0202338
0.0479012
-0.0490359
-0.0469248
-0.0016812
0.00104757
0.00146937
-0.000835733
0.00143585
0.0811097
-0.0825456
-0.0499051
-0.0150021
-0.0222742
0.0871814
-0.049952
4.69315e-05
0.0116289
0.0167591
0.0166763
-0.0450642
0.000562799
-0.00272126
0.000466124
0.00169234
-0.00181058
-0.000465407
0.000594783
-0.106338
-0.0093949
-0.0432361
0.158969
-0.00974149
0.00732374
0.136907
-0.13449
-0.0385962
0.0418695
-0.0647899
0.0615166
-0.0801525
0.0797245
0.000428
0.00125235
-0.0499546
-0.0305133
0.0670534
0.0192813
-0.00598444
-0.0803503
0.0505704
0.0953205
-0.157838
0.0119467
0.0416933
0.0157466
0.033332
-0.090772
0.103883
-0.10839
0.0435063
-0.00369234
0.0134246
-0.0121766
0.00244432
-0.00130875
-0.000175832
-0.000534725
0.00201931
-0.00289105
-0.0056778
0.00173883
0.00683003
0.0608589
-0.00622745
-0.0184464
-0.036185
-0.0567451
0.0282168
0.0285282
-0.092987
-0.00754382
0.0118451
0.000732749
-0.000569923
-0.00147158
-0.118198
0.0265164
0.00516136
0.0865201
0.00120608
-0.0531859
-0.0103019
0.0622817
0.0456868
0.0289437
-0.101785
0.0271548
0.0385291
-0.0434329
-0.0191404
0.0240441
0.0484863
-0.0601146
0.0501574
0.0319081
-0.0565736
0.0496233
-0.0249577
0.0347155
-0.0360299
0.000314643
0.000999778
0.0162432
-0.142272
0.0914197
0.0346092
0.00141662
-0.0617755
-0.00392978
0.0520449
0.000391744
-0.107226
-0.0339483
-0.00865707
0.00689151
0.0357138
-0.048528
0.0444118
0.0500056
-0.0458893
-0.042305
0.0819131
-0.0396081
0.0104334
-0.102143
0.0482772
-0.0170593
0.00738997
0.0247177
-0.0150484
-0.0878922
0.0935174
0.0361521
-0.0417773
0.0587611
0.0328936
-0.0828672
-0.00878754
-0.0461253
0.141802
0.00417854
-0.0998552
-0.000547325
0.00288922
0.00368399
-0.00602588
0.0537369
-0.0720748
0.0830333
-0.0646954
0.00775501
-0.038964
-0.00825408
0.0394631
-0.043414
0.0314299
0.103379
-0.0913947
-0.0499879
-0.0264425
0.0528717
0.0235587
-0.00953399
-0.000511052
0.0062009
0.00384415
-0.0113241
0.0242721
-0.0183632
0.00541525
-0.000153482
0.0745175
-0.074364
0.0148785
-0.0439433
-0.0194633
0.0480384
-0.0343519
-0.000547821
-0.0131386
0.00186482
-0.0267734
-0.0213396
0.0462481
0.034508
-0.0344303
-7.77534e-05
0.0611736
-0.0417188
0.0643192
-0.083774
-0.09894
0.0970014
0.0984233
-1.33236e-05
-0.0108076
-0.00177645
0.0125973
0.0493865
-0.000271002
8.58517e-05
0.000281286
-9.61352e-05
-0.000603059
0.0489271
-0.112627
0.0643024
-0.00853741
-0.000701753
0.00501359
0.00422557
0.0268861
0.00996056
-0.0368466
0.00125599
-0.000917264
-0.00887613
-0.03141
-0.0415867
0.0159153
0.0572428
0.000998171
-0.058241
0.072848
-0.0441357
-0.0511906
0.0224783
0.00171304
-0.0251793
-0.0207269
0.0693858
0.0430342
-0.0395719
-0.00802926
0.00927193
0.133392
-0.119449
0.0371986
-0.0511415
-0.0450174
0.0364878
0.0218865
-0.0133569
-0.0527061
0.0523496
0.000356461
-0.0477768
0.0296436
0.0106919
-0.0466629
-0.0108382
0.0468092
-0.00212247
0.161195
-0.161151
0.00207858
0.107658
0.0159341
-0.016067
0.0507951
0.00856982
-0.0512071
-0.00815775
-0.0145541
0.00472355
0.0107763
-0.00094567
-0.00955389
-0.00544551
0.00470541
0.010294
0.0660993
-0.0377766
-0.0526501
0.0243273
0.0295421
-0.0152314
0.024077
-0.0383877
0.0268127
-0.0938059
0.0897199
-0.0227268
-0.00595817
0.000500598
-0.00909657
-0.0943248
0.106884
-0.0228437
0.0102842
-0.0114771
0.0481806
0.0140581
-0.0507616
-0.00401298
-0.000787231
0.00319158
0.00160864
0.0839028
-0.0046129
0.0509827
-0.130273
3.23645e-05
-0.000670853
-5.41165e-05
0.000692605
-0.0672239
0.0589504
0.0741889
-0.0659154
0.00312696
0.000673151
-0.00215532
-0.00164479
-0.0775239
0.075366
0.0021579
0.063721
-0.0602437
-0.00347729
0.0604256
-0.000776295
-0.0596493
-0.0108026
0.123464
-0.000499717
-0.112162
0.00986712
-0.0310626
0.0328244
-0.0237342
-4.51199e-05
-0.0562333
-0.0675276
0.0115159
0.066352
-0.0103404
-0.0133666
-0.00214545
7.25311e-05
-0.000371009
1.96506e-05
0.000278827
0.00122527
-9.44171e-05
-0.000245977
-0.000884874
-0.063491
0.00790495
-0.00150047
0.0570865
0.000345735
-0.00550721
0.00198282
0.00317865
0.0123306
-0.0147697
-7.37042e-05
0.00251275
0.00825771
-0.00673556
0.0108085
0.0555459
-0.0095522
-0.0225347
-0.0234589
0.0362331
-0.0053429
-0.0364367
0.00554653
0.000100758
0.066753
-0.000248993
-0.0666047
0.00757022
-0.0710957
0.0191365
0.044389
-0.0430485
-0.031706
0.0415883
0.0331662
-0.0357429
0.0220983
-0.0915243
0.105169
-0.00101437
0.0153797
-0.0078649
-0.00650046
0.048998
-0.0588144
0.0473314
-0.037515
-0.0626707
-0.00680497
-0.00798443
0.00103202
-0.000373112
0.00439602
-0.00505492
-0.0122482
-0.00274461
0.00179692
0.0131959
-0.0082613
-0.00943653
0.0109241
0.0067737
-0.000148659
-0.00223449
0.0014666
0.00091655
-0.000265157
0.000326244
-6.10877e-05
0.00146992
-0.0744092
-0.0277866
0.100726
-0.00015077
-6.23026e-06
-0.00147006
0.00162707
8.63105e-05
-0.000275144
-7.63233e-05
0.00298281
-0.0657732
-5.51666e-05
-6.90055e-05
0.000450416
0.000587195
0.000205525
-0.000366109
-0.000426612
-0.0281045
0.0629915
0.0786357
-0.113523
-0.00928603
-0.00218494
0.00730246
0.00416852
-0.0146929
-0.000371302
0.00577818
-0.00542993
0.00552176
0.013386
-0.0134779
-0.000327748
0.000490883
-0.000218302
-0.0670436
0.0679023
-0.000858679
0.0302937
0.0473663
-0.0601225
-0.0175375
0.0116985
-0.0754373
-0.0214355
0.0851743
-0.013697
0.00271423
0.00555285
-0.00454016
-0.00649352
-0.00266333
-0.0165509
0.0587737
0.0127596
-0.0549825
0.0695509
0.00491464
-0.0543973
-0.0200682
0.000262857
0.000406719
-0.000687916
1.83406e-05
-6.49627e-05
-0.000176475
-0.00267054
-0.00116686
-0.00140845
0.00524586
0.0650899
-0.0459274
0.0120496
-0.0312121
-0.000851842
-0.00268929
0.00138581
0.00215531
-0.0176442
0.0106362
-0.00258083
0.00958887
0.00109811
-0.101617
0.101614
-0.00109509
0.00318691
0.00082008
-0.0106722
0.00666523
0.0104564
-0.0109681
0.00155382
-0.00104215
0.0099151
0.0040836
-0.0108118
0.0367739
0.0562739
-0.0279579
-0.0272776
0.054804
0.0281931
-0.0557195
0.0277531
-0.0550307
-0.000978257
0.000655087
-0.0329041
0.0124724
-0.010048
0.0792185
0.023318
0.00735242
0.0696961
-0.0541605
0.097745
-0.113281
0.00478872
0.0925384
-0.0973272
-0.00699068
-0.00730149
0.0136744
0.000617809
-0.0341366
-0.0870209
0.0274988
0.0936587
0.0218077
0.0614717
-0.0243948
-0.0588847
-0.023528
0.113236
-0.052934
-0.0418479
0.0448964
0.0517555
-0.0558431
0.0558087
3.43759e-05
-0.0391361
0.0367031
0.00243297
0.0396749
-0.0779517
0.0724892
-0.0342124
0.0678051
-0.0843559
-0.0100635
-0.00811955
0.0111923
0.00069355
0.000613002
-0.000463991
-0.00084256
-0.00582936
-0.0426515
-0.00736222
0.00122842
0.00149817
-0.00264556
-8.10333e-05
-0.0574098
0.0518777
0.0855333
-0.0800012
0.0369965
-0.0336638
-0.00333264
0.0128782
0.0211968
-0.0142995
-0.0197755
0.00422268
-0.000386781
0.00217458
-0.00601048
-0.0644561
-0.000820178
0.0200783
0.045198
-0.00295538
0.00666755
0.000510517
0.0389728
-0.109391
0.10474
-0.0343211
0.0460725
0.0133349
-0.0593704
-3.69519e-05
-0.00364563
0.00697616
0.00172673
-0.00505727
0.000184957
0.0606577
-0.0608427
0.0382209
0.00684245
0.0150962
-0.0601595
0.00434884
-0.00734065
0.00260502
-0.184985
0.0284425
0.164102
-0.0075595
0.0399154
-0.0109234
-0.0289919
-0.00125903
-0.00150856
-0.00118692
0.00395451
-0.0423002
0.046616
0.12538
-0.129696
-0.00192912
0.000690272
-0.00190796
0.00314681
0.0913937
-0.00206264
-0.0432586
0.00051119
-0.00126554
0.00204837
-0.00129402
-0.0192452
-0.116935
0.0159756
0.120204
0.00369475
0.0524797
-0.00407082
-0.0521037
0.0485428
-0.0700299
0.0604116
-0.0389245
0.0319134
-0.036564
0.048751
-0.0441005
0.00830878
-0.00145931
0.00555964
-0.0124091
0.00123364
-0.0443698
0.0533999
-0.0537282
-0.0362357
0.097108
0.0176888
-0.0242721
-0.0905248
0.046481
0.0189926
-0.133407
0.0679331
-0.00192293
-0.00862106
0.00630249
0.0042415
0.0277793
-0.0498288
-0.00324287
0.0288084
-0.0265663
0.00737798
-0.00588387
-1.26382e-05
-0.00148148
-0.0864532
0.00261858
0.000355948
0.0707654
-0.148646
0.0775245
-0.0279092
-0.0875286
0.040792
0.0746458
-0.0729223
0.0203526
0.00320986
0.0493598
-0.0430987
0.0290435
0.0102563
-0.0826075
0.0956127
-0.0130052
-0.0208834
-0.00942703
0.117669
-0.0873583
-0.00366329
-0.00380507
0.00612437
0.001344
-0.025802
0.059183
0.0406453
-0.0721679
0.0280322
-0.00082952
-0.000399925
-0.00103714
0.00226658
0.0465475
-0.048968
0.0544655
-0.0375629
-0.00721133
-0.0448041
-0.123374
0.0476361
0.0757383
-0.042921
-0.032521
0.0276652
0.0030385
-0.0022255
0.000884325
-0.00169732
0.00294435
-0.000469365
0.000563507
-0.0864856
0.0036746
0.082811
0.0612058
0.012362
-0.121891
0.0483231
-0.0712248
0.000640342
0.0705844
0.00128165
-0.00165065
0.0086692
-0.00830021
0.0487717
0.156536
-0.22652
0.0212124
0.00190438
-0.00233231
0.00135722
-0.000929286
-0.0916425
0.0649451
0.0265275
0.000169868
-0.000360633
2.83085e-05
0.00184185
-0.00150953
-0.000644783
0.00834376
-0.00851411
0.000815129
0.00756607
0.00789255
-0.0147352
-0.000723419
0.0407444
0.0124096
0.0030537
-0.00279927
0.00164995
-0.0985713
0.105422
0.00693109
-0.013782
0.0125082
-0.0677038
-0.0235778
0.0787733
0.0018769
-0.00433659
0.0875903
-0.0851306
-0.0378995
-0.034917
0.0836912
-0.0108747
-0.0407224
0.0245182
0.0406044
-0.0244002
0.0536335
0.0206855
-0.0721526
-0.00216639
-0.00117588
0.000176442
0.00137373
-0.000374298
-0.123597
-0.0432474
0.0398025
0.127041
0.0483118
-0.03762
-0.0319358
-0.037643
-0.0310602
0.100639
-0.00182049
0.00425282
0.000480696
-0.00291302
-0.0309493
-0.0806887
0.0287667
0.0828713
-0.0296934
-0.028424
0.0205545
-0.00070554
-0.00334045
-0.00163951
0.00306574
-0.00381945
0.00239321
-0.00572362
0.00560822
0.0252834
-0.0774164
-0.0855313
0.137664
-0.000514875
-9.62133e-05
0.000295922
0.000315166
0.0571155
-0.0602639
0.0480532
-0.0449048
-0.0148934
0.0448743
-0.00795877
-0.0220221
0.086966
-0.0864356
-0.0187306
0.0182003
0.0266082
0.0220892
-0.0634362
0.0147387
-0.127302
0.0739067
0.0183536
0.0350418
-0.00534297
0.00328074
9.38642e-05
0.00196837
-0.00833741
0.00977685
-0.000157786
-0.0134639
-0.00372297
0.0179153
-0.000728357
-0.0613204
-0.00453067
0.0136333
0.0522177
-0.00792637
0.103182
-0.00508856
-0.0901675
0.00883478
-0.0475334
0.0808973
-0.0421987
-0.00143265
0.00416752
-0.00145389
-0.00128097
-0.0152776
0.00032722
-0.00202312
0.0169735
-0.1062
0.00571105
0.0129165
0.0875729
-5.74902e-05
-0.000287217
0.000503822
-0.000159115
0.0372409
0.00805111
0.0270326
-0.00506991
0.0464228
0.0527994
-0.0941523
-0.000230344
0.000362992
-0.000190139
-0.000501391
0.00219472
-0.00150306
-0.00019026
0.0171766
0.111417
-0.0478929
-0.0807005
-0.000246361
-4.0856e-05
0.000117006
-0.000363367
0.0618324
0.0170649
-0.0923118
0.0134146
-0.15717
0.0860113
0.0772107
-0.0060517
-0.0181582
0.000194475
-0.0515007
0.0694644
0.0248646
-0.0144957
0.0167198
-0.0270887
-0.0664598
-0.0230908
0.0895506
-0.0779682
0.0387225
0.0392457
-0.00174694
-0.00041137
0.000801952
0.00135636
-0.0379225
0.0410612
0.00778893
-0.0109277
0.0465063
-0.0545183
0.00801201
-0.0603763
0.0335876
0.0450576
-0.0182689
0.00453444
-0.00284043
-0.00152867
-0.00016534
-0.00327008
-0.00245627
0.000383378
-0.0422127
-0.0417917
0.0471724
0.0142219
0.00259614
-0.0639904
0.00176836
0.000108604
-0.00154333
-0.000333632
0.00336125
0.00721107
0.00257532
-0.0131476
0.00713374
0.0229652
-0.0410992
0.0110003
-0.0190505
-0.015401
-0.00920091
0.0436524
-0.0750724
-0.0105096
0.0299042
0.0556778
-0.0018432
0.0152178
-0.00829589
-0.00507874
-0.0529465
0.000645436
0.0332506
-0.000203728
0.0253585
-0.13568
0.126361
-0.0160391
0.0285909
-0.0345426
-0.0518181
-0.0271131
0.0548661
-0.000500093
0.0409563
0.00378346
-0.0442396
-0.0551209
-0.0599573
0.115078
-0.00325287
-0.00104839
-0.00175062
0.00605188
0.00316024
-0.00480198
0.00172068
-7.89387e-05
0.0370155
-0.00638404
-0.0282103
-0.00242112
-0.00326629
-0.00233872
0.00235214
0.00350038
-0.0107709
0.0659545
-0.0586839
0.0762354
-0.000296631
0.0270894
0.00983013
-0.00686005
-0.0300595
0.0585842
-0.000775948
-0.0578082
-0.0529544
0.113789
-0.0284236
0.0596856
0.0200913
-0.0513533
-0.0171261
-0.0253049
0.017993
0.024438
0.0030694
0.00376678
0.000865517
-0.00770169
-0.0342106
-0.037963
0.0993323
-0.0271587
0.0456073
-0.0369154
-0.000677357
-0.00801451
-0.048264
0.11648
-0.0524293
-0.0157864
-0.00130799
0.0015744
-6.74784e-05
-0.000198931
-0.000520588
0.021381
-0.00486066
-0.0159997
0.00308352
0.00384795
0.000286172
-0.00721764
-0.000297744
-4.16944e-05
3.65931e-05
0.000302846
4.0682e-05
-1.88165e-05
-0.00031961
-0.00922232
0.0230502
0.0702509
-0.0840787
0.0801711
-0.0820796
0.00190851
0.000283793
-0.000267587
-1.6206e-05
-0.0127007
0.000973464
0.00231076
-0.00131854
-0.00196568
-0.00801181
-0.00675881
0.00578142
0.0089892
-0.0557562
0.0273326
0.000309868
0.000208363
-0.000783631
0.000265401
0.0334855
0.0552598
-0.0353043
-0.053441
0.0117907
0.159624
-0.179933
0.00851811
0.0582894
0.0632937
-0.0618976
0.00186397
-0.0136703
-0.00189951
0.0137059
-0.0334016
-0.0301138
0.0635154
0.0311208
-0.0645224
-0.0544794
-0.045095
-0.0655994
0.165174
0.0496426
-0.0554659
0.00582329
-0.0729008
0.13489
-0.0715413
0.0329606
-0.0299731
0.0860954
-0.00345428
-0.0690444
-0.0135967
0.0696416
-0.0698079
0.011622
-0.0114557
0.000142231
-0.00623098
0.00714014
-0.00105139
0.000439095
-0.00438257
0.00677302
-0.00282954
-0.000243558
0.000232254
0.000639645
-0.000628342
0.0221707
0.0233975
-0.0337492
-0.011819
-0.00542812
-0.00487105
0.00619515
0.00410402
-0.0109096
0.0320514
-0.0426767
0.0215349
0.00114339
-0.00855892
0.0106669
-0.00325135
0.0484852
-0.00414777
-0.0443374
0.0380452
0.0357474
-0.126569
0.052776
-0.097901
0.0599826
0.0759635
0.0329811
-0.0997613
-0.0469296
0.10788
-0.037063
-0.0238872
0.00161862
0.00926157
-0.0124663
0.00158606
0.0271185
-0.00224786
-0.0248707
-0.0305195
0.0435726
-0.00392616
0.0203167
-0.0314825
0.000930114
-0.000203065
0.00110923
-0.00183628
0.0117505
-0.0383168
-0.000455538
0.000160521
0.000300748
-5.73168e-06
0.00279709
-0.00042879
0.00109507
-0.00346337
-0.000734634
-0.00261372
-0.078132
-0.0127825
0.00158336
-0.0118964
0.0230956
0.0201969
-0.0906769
0.0208412
0.0496388
-0.00340648
0.0582504
-0.0818844
0.0270404
0.000636817
-0.000390363
0.000273911
-0.000520364
0.0791525
0.0125417
0.00228337
-0.0939775
-0.00028559
-0.000758735
0.00108942
-4.50903e-05
0.00501077
-0.000865645
-0.0690165
0.0648714
0.0068615
-0.00119472
-0.00509552
-0.000571262
0.00654508
0.00462065
-0.00370979
-0.00745593
-0.110444
0.0964744
-0.0876053
0.101575
-0.0540711
0.109082
-0.0550108
0.00232311
-0.0437738
0.00862869
0.032822
0.00373674
-0.00352065
0.000686804
-0.000902892
0.0492441
-0.00265717
0.00114784
-0.129564
0.00243844
0.0741713
-0.0343287
0.000153251
0.00167473
0.0327833
-0.0268885
-0.00756953
0.078183
-0.0307719
0.0342059
0.00422788
-0.00513963
9.56668e-05
0.000816085
0.034434
0.0239712
-0.0760781
0.0176729
3.70538e-06
7.88617e-05
-0.000146829
6.42624e-05
-0.000476606
0.00156029
0.0054614
0.000105344
-0.00812429
0.0066002
0.00575197
0.0746279
0.0407452
-0.0370563
-0.0783168
-0.130994
0.142282
-0.00946071
-0.00182673
0.0315275
-0.0327281
0.00120057
-0.0370114
0.000162902
0.000397754
-0.00324953
-0.00228786
0.0146481
0.206783
-0.158931
-0.0624993
0.0293022
-0.0609606
-0.018071
0.0497294
-0.00310589
0.0389542
-0.000955879
-0.0852388
0.0472404
-0.0231362
0.010096
-0.0379736
0.0476976
0.0461543
-0.0558782
-0.0668384
0.0897063
-0.152384
0.129516
-0.000204903
5.29671e-05
-0.00145328
0.00160521
0.00018839
0.00230444
-0.000617572
-0.00187526
0.0431768
-0.0143312
0.038002
-0.0668477
-0.00357021
0.000350663
0.0034423
-0.000222752
-0.0118075
0.0105308
-0.0366969
0.012226
-0.0461842
0.00594625
-0.00327841
0.0186193
-0.0212872
-0.138402
0.0191048
0.130272
-0.0109743
0.0309607
-0.0214973
-0.012304
0.0028406
0.0344209
-0.0529467
0.00671828
0.00433848
0.00776022
0.0522799
-0.0643786
0.0247383
-0.00713358
-0.025173
0.00756829
-0.0795818
-0.00831401
0.0146965
0.00124763
-0.00111583
5.65886e-05
-0.000384365
0.0030063
0.00234772
-0.00496966
0.0184297
-0.0321443
0.0384528
0.0179764
-0.143337
-0.0230051
0.148366
-0.113936
-0.0150338
0.0264805
0.102489
0.0570581
-0.0346076
0.0282182
-0.0506688
0.112438
-0.00614369
0.00307468
-0.109369
-0.0169928
-0.0370895
-0.00426111
-0.0164481
0.00833755
0.0123717
-0.00129987
0.000448928
-1.81064e-05
0.000869044
0.0153865
-0.0779829
0.0625964
0.108647
-0.00700216
-0.112447
-0.0263758
0.0557701
-0.0463871
0.0395985
-0.122234
0.0151119
0.0675238
-0.00397412
-0.0121828
-0.026904
0.0430609
0.0037315
0.0505173
0.0862529
-0.135203
-0.00156676
0.0492332
-0.0829909
0.0890897
-0.055332
-0.0959543
0.0960064
-0.00746832
0.00741617
0.00280435
0.00441028
-0.095275
0.0880604
-0.00177222
0.00361853
0.00612056
-0.00796686
0.000250475
-0.000963509
-0.000291155
0.00100419
0.0890571
0.000644359
-0.0172616
-0.0724399
-0.000725962
0.000725368
2.60655e-05
-2.54716e-05
0.000688398
0.00327968
-0.00227838