/*--------------------------------*- C++ -*----------------------------------*\
| =========                 |                                                 |
| \\      /  F ield         | OpenFOAM: The Open Source CFD Toolbox           |
|  \\    /   O peration     | Version:  2506                                  |
|   \\  /    A nd           | Website:  www.openfoam.com                      |
|    \\/     M anipulation  |                                                 |
\*---------------------------------------------------------------------------*/
FoamFile
{
    version     2.0;
    format      ascii;
    arch        "LSB;label=32;scalar=64";
    class       volVectorField;
    location    "0.0817324";
    object      U;
}
// * * * * * * * * * * * * * * * * * * * * * * * * * * * * * * * * * * * * * //

dimensions      [0 1 -1 0 0 0 0];

internalField   nonuniform List<vector> 
47425
(
(10.3226 0.230905 0.0036871)
(10.1476 -0.263992 -0.00525953)
(9.98897 0.00588812 -0.00892205)
(11.6313 -0.533628 -0.247071)
(12.7083 0.355354 0.66112)
(10.0246 0.00558788 -0.00139061)
(12.6153 0.187431 0.659862)
(10.0155 0.00570136 -0.00049917)
(10.0046 0.00859645 0.00579574)
(1.01917 3.34149 -2.2631)
(9.99032 0.00895051 -0.00239939)
(9.991 0.0700185 -0.00887837)
(12.4063 0.335843 0.202055)
(9.99528 0.00476522 -0.00850817)
(11.2377 0.0034017 -0.156699)
(10.0954 -0.216979 0.00265159)
(10.0101 0.00190294 -0.00519609)
(8.80307 -0.533384 -1.52793)
(8.68512 1.32309 -5.15348)
(13.7377 -0.541634 -1.15825)
(10.9582 -0.689585 -0.627492)
(9.79526 -0.0417985 -0.0207021)
(9.9575 0.015479 -0.0055902)
(9.94088 0.0142763 0.0137876)
(9.90174 -0.0822014 -0.00234036)
(10.0204 0.0447212 0.010853)
(10.0002 0.0173428 -0.00430884)
(11.5255 -0.447727 -8.96241)
(10.0075 0.0121605 -0.00433411)
(10.0051 0.0225476 0.0181634)
(9.67237 0.762926 0.0027781)
(10.0448 0.0865314 -0.0015485)
(10.0014 0.00645371 0.00584736)
(9.98402 0.0145312 0.0121214)
(10.0137 0.00378588 0.00739745)
(9.97468 0.000326102 0.00386573)
(9.73089 -0.0292289 -0.0929688)
(10.0011 0.0163505 0.00790624)
(10.5519 0.456461 -0.0290058)
(10.132 0.073982 0.0128665)
(9.86227 0.222106 -0.0116352)
(9.17729 0.0916681 -0.604117)
(5.56552 -2.72036 -0.0772977)
(9.98337 0.0132005 0.00525768)
(0.224577 -1.99168 -0.257631)
(9.96746 0.0990152 -0.0134789)
(9.95493 -0.0020698 -0.0141889)
(9.99526 0.0293076 0.00561893)
(10.136 -0.104162 -0.00147908)
(10.0682 -0.00329326 -0.0108029)
(2.1553 -0.670438 -5.8951)
(9.05691 1.37304 1.31598)
(10.0554 -0.0122017 0.00496607)
(6.1201 -4.49385 1.28712)
(10.0176 0.0674941 -0.00364867)
(10.2049 0.0188242 0.00774132)
(10.3205 -0.200536 0.0259175)
(9.99799 0.000288722 0.0215039)
(11.9509 1.36269 1.52634)
(9.99595 0.0224466 0.00670781)
(5.137 -4.42043 0.772069)
(5.47483 -0.813258 2.14608)
(2.7264 -1.87374 0.0547392)
(9.02165 -1.18938 -0.1013)
(10.0075 0.0106317 -0.00669932)
(10.8355 -0.38988 -0.0241372)
(9.9866 -0.0108516 -0.00665967)
(10.8563 0.335655 0.66263)
(7.18011 -3.30342 1.72086)
(8.96761 0.576002 0.289296)
(10.8253 -0.687925 0.12561)
(10.0661 0.0216991 -0.00161623)
(11.0389 -0.188576 -0.0296861)
(10.8703 0.317603 -0.649357)
(2.9476 0.881444 -0.207858)
(9.9989 -0.00382177 0.000882931)
(2.78826 -1.66005 0.642652)
(9.96593 -0.0146932 0.00760382)
(5.26667 -1.8107 1.11924)
(12.0261 -0.141038 1.44762)
(3.47279 0.566982 -0.089884)
(10.2225 0.351533 -0.00788717)
(9.18183 0.150146 -0.353992)
(10.0135 0.0130493 -0.00659796)
(9.44607 -0.00421532 0.0245881)
(10.3498 -0.0635775 0.0177068)
(10.9038 -0.0945062 -0.0515762)
(10.2073 0.142971 0.00375607)
(11.1141 -0.233916 -1.5652)
(11.0944 -0.785552 1.94028)
(9.75362 0.449731 -0.0515301)
(10.7478 -0.00601967 -0.0372478)
(10.0488 -0.00752447 0.0073093)
(10.1939 -0.0527133 0.00917893)
(10.1507 -0.0510519 0.0170155)
(10.1211 -0.0119171 -0.00203882)
(10.0481 -0.00963649 -0.00368742)
(10.4565 -0.323857 -0.00991313)
(10.2596 -0.0536092 0.00568758)
(10.0454 0.017794 0.0215588)
(10.0204 0.0378102 0.00310132)
(8.72284 0.136083 -4.15875)
(10.3056 0.186062 -0.0101694)
(5.32101 1.9384 -0.826248)
(10.3115 0.168339 -0.0297272)
(10.8284 -0.753209 -0.0099093)
(10.2043 0.330599 0.0805239)
(10.2365 -0.0889795 -0.00351441)
(8.51475 -0.157097 -0.537301)
(9.96466 0.0835655 -0.00612207)
(-0.118534 -0.720454 -0.600643)
(9.99852 -0.0790699 -0.00339464)
(10.741 -0.955868 0.0124152)
(10.3922 -0.0201483 -0.0154408)
(11.0824 -0.422357 0.00877446)
(1.78531 -4.13937 -5.94471)
(11.0803 -0.372658 0.000573978)
(4.05993 0.0427773 -4.4171)
(10.3863 0.165285 0.00163133)
(11.2702 0.399338 0.38756)
(10.4786 -0.0603959 -0.0113467)
(10.0002 0.00379557 0.00552293)
(9.99757 0.0523353 -0.00482926)
(11.8898 0.782749 -0.780015)
(10.0537 -0.0405138 -0.00284843)
(11.0357 -0.796798 0.00886711)
(10.3106 -0.104637 -0.000675054)
(10.0072 0.00368358 -0.00686986)
(9.96083 0.0159688 0.00799056)
(10.0154 0.0276513 -0.00595469)
(9.19238 -0.300296 0.280526)
(10.7517 0.351449 -0.0504511)
(4.30666 0.0492965 0.486815)
(10.4087 -0.557352 0.0242482)
(9.93672 0.0362906 -0.740505)
(12.206 -0.536192 -0.957489)
(10.8695 0.925694 0.245488)
(11.0531 -0.852984 0.136633)
(10.1515 -0.0837468 -0.00811498)
(11.1717 -0.0641712 -0.0623238)
(9.98191 0.00685822 0.00246109)
(11.9004 0.299136 0.286527)
(10.518 0.0404466 -0.0306609)
(10.7449 -1.22381 0.0585731)
(10.1785 0.229523 -0.0168017)
(10.0045 0.00525781 0.00559238)
(12.569 0.238374 0.643421)
(10.0111 -0.0299977 0.00704787)
(10.4665 0.0225341 -0.0127459)
(9.976 -0.0171941 0.00654945)
(10.6527 -1.23247 -0.0874217)
(2.9185 -0.397474 -6.88545)
(10.007 0.0148827 -0.0100616)
(5.57039 0.106507 -11.4382)
(8.9513 -1.18194 -0.772332)
(9.98283 0.107065 0.0171318)
(11.0497 0.497471 -1.71857)
(7.33146 -3.95406 -2.6685)
(10.1806 -0.0704577 0.0133346)
(9.98313 0.0009725 -0.00327358)
(11.3439 -0.234977 -0.0105765)
(10.0266 0.0694269 0.0159986)
(10.023 0.0125067 0.00132267)
(10.1613 0.312109 -0.0225584)
(11.9755 0.211374 -0.574686)
(-0.769697 -1.68249 -2.06918)
(10.015 -0.0293932 -0.00108515)
(3.42396 0.729476 -0.214601)
(9.93588 -0.00713653 0.0222995)
(12.1395 0.750076 -4.35894)
(4.39187 0.552464 -0.36454)
(9.97966 -0.00504978 0.00328271)
(10.0009 0.0242272 -0.00339772)
(9.43068 -0.992486 -0.674863)
(10.342 -0.0283631 0.0200273)
(9.27693 -3.05594 -1.42622)
(2.76572 0.96638 -7.69792)
(10.0075 0.0179173 -0.0042378)
(10.0314 0.00595192 0.000936053)
(10.0536 0.00676064 0.00342145)
(2.61134 0.428508 -11.0241)
(10.0839 -0.161809 0.0290253)
(10.0226 0.0089935 -0.00126416)
(10.0273 0.0060878 0.013652)
(10.0385 0.00141846 0.00158569)
(10.0267 0.0237943 0.00485484)
(10.2151 0.0862005 0.00698133)
(5.65074 -0.540081 -0.68048)
(9.82602 0.00718558 -0.00975216)
(10.1931 0.206858 0.0791589)
(10.0006 -0.00997353 -0.00341505)
(9.98551 0.00197072 -0.0019599)
(12.2275 -0.819396 -0.631511)
(9.9971 0.00181286 0.0038158)
(10.0239 0.00250098 0.0231778)
(11.2405 0.0317727 -0.04736)
(10.0019 0.00122204 0.00743081)
(10.0339 -0.0152014 0.0134845)
(11.4092 0.116304 -0.0524237)
(10.4117 -0.253637 0.0756736)
(9.98722 0.0127924 0.00302935)
(10.4807 -0.0534345 0.00952535)
(8.95252 0.385682 -0.342875)
(11.2259 -0.126872 -0.0430076)
(10.3258 -1.47919 -0.99328)
(10.6925 -0.0138348 -0.0436726)
(10.0012 -0.0125915 0.00992641)
(11.191 -0.0276154 -0.0438113)
(9.99667 0.087763 -0.013945)
(10.0027 0.0129981 -0.00277703)
(10.3939 -0.175085 -0.00268492)
(11.2012 0.13398 -0.00969992)
(10.0068 0.0241664 -0.000456167)
(9.95134 -0.0341197 0.0196621)
(10.7754 -0.0554577 0.0108933)
(11.3943 0.210184 -0.156264)
(10.8417 0.0337648 -0.0671058)
(11.3097 0.214806 1.67245)
(8.6771 -1.29795 -0.697005)
(9.94416 -0.0421459 0.0101929)
(11.8634 -0.527877 1.38952)
(11.2834 0.197092 0.176993)
(9.9214 -0.987646 -1.06946)
(10.9287 0.188922 -0.0278188)
(10.6696 -0.00550089 -0.0291713)
(11.9693 -0.759155 1.29359)
(10.0337 -0.0017051 0.0101256)
(11.3103 0.232334 -0.0585982)
(11.5393 0.197582 0.0273561)
(12.0349 -0.135454 -0.317877)
(10.8371 0.0335258 -0.0621927)
(9.99561 -0.00309757 -0.0044566)
(10.5987 -0.0852137 -0.0107279)
(10.0008 -0.00446105 -0.000562174)
(9.78839 -0.00857228 -0.00725154)
(10.0025 0.265493 0.0116007)
(11.8152 -0.112011 1.48274)
(9.97449 0.0273664 0.00432737)
(12.1463 -0.026951 1.31632)
(9.78096 0.00123091 -0.0454133)
(9.87115 -0.0143111 -0.0129076)
(10.0045 0.00627052 0.0128132)
(10.0838 -0.0266173 -0.00231428)
(11.7223 0.858302 0.0692544)
(10.3937 0.470589 -0.00155806)
(10.0077 -0.00297529 0.0119737)
(10.4255 -0.0781818 -0.0110824)
(10.0108 -0.000346656 0.00277054)
(10.0203 -0.0201547 0.00821568)
(9.95992 -0.00198091 -0.0132178)
(9.99238 0.0850235 0.0312473)
(12.0182 -0.455315 1.45745)
(9.97286 0.00443669 0.00418586)
(10.0033 0.00419493 0.00559422)
(9.92037 0.00855409 0.00431349)
(10.0165 -0.00013689 -0.00745258)
(9.85289 0.0627319 -0.031854)
(9.74183 0.0178166 0.012556)
(10.4607 -0.71643 0.120816)
(10.0098 0.000183067 -0.0067754)
(9.74124 0.0259567 0.011083)
(9.99896 0.0256962 -0.000668203)
(10.22 0.0521087 -0.00780067)
(10.1225 0.0113753 0.00516106)
(12.0088 0.0272206 0.806243)
(10.5078 -0.448296 -0.143273)
(10.0374 0.000803341 -0.00402985)
(12.0846 0.0563391 0.629373)
(10.0178 0.00229444 0.00333914)
(10.2228 0.0931851 -0.00373165)
(10.1886 0.0524542 -0.000236412)
(12.2404 0.112176 1.09569)
(11.7009 0.0905575 1.33964)
(10.1866 -0.165759 -0.0216836)
(12.1076 -0.190807 1.46512)
(10.0533 0.00332823 -0.000471524)
(12.1781 -0.0292834 1.29405)
(6.61037 3.34183 2.14644)
(11.6814 -0.032068 1.41776)
(5.93486 1.27952 -5.28864)
(4.51149 -4.61103 0.666208)
(10.2972 0.189777 0.00779471)
(3.35275 -4.19976 -0.0986203)
(9.87964 -0.0112158 0.00833128)
(10.0032 -0.00674519 0.0126145)
(11.3613 -0.164658 0.00480068)
(9.90647 -0.0086812 0.00925038)
(9.94825 0.00551044 -0.00917543)
(9.80697 -0.223415 -0.00977831)
(11.1138 -0.491931 -0.144613)
(1.38228 1.7324 -3.7161)
(9.21498 0.833028 -0.026252)
(10.0028 -0.00170302 -0.00224328)
(10.015 -0.00441576 -0.0198338)
(9.99226 0.00531102 -0.00675171)
(10.1653 0.390066 0.419802)
(11.6376 0.938738 0.239495)
(10.2037 -0.714453 0.0843485)
(10.0006 -0.133801 0.00389979)
(11.9829 -0.148066 0.0433451)
(10.175 0.169153 0.0398565)
(10.0863 0.0382994 0.00117306)
(9.95726 -0.0198338 0.00501369)
(10.0183 0.000988624 -0.00985076)
(10.0437 4.14913 -0.579258)
(5.69148 1.77465 -0.580793)
(1.5054 1.21104 -6.39968)
(10.0466 -0.00291501 -0.00175228)
(10.0973 -0.036521 0.00704591)
(10.0411 -0.639122 -0.0774325)
(10.1768 -0.500117 -0.157046)
(1.25647 -0.792915 -5.88493)
(9.97688 0.000864844 -0.0127169)
(9.94957 0.00153353 -0.0120795)
(10.851 2.22366 0.615108)
(10.2895 -0.14438 0.022546)
(9.8528 0.00734044 -0.00460098)
(9.81247 0.00593926 0.00323944)
(9.90165 0.00258763 0.000848332)
(12.312 2.59168 -1.07948)
(11.2868 1.92717 0.528796)
(10.0523 0.194115 -0.0108946)
(10.1017 0.133017 -0.00674762)
(10.0233 -0.00970092 0.00988857)
(10.3285 -0.0368631 0.00635415)
(10.0508 -0.000632241 0.00551446)
(10.0733 0.237616 -0.000484149)
(10.1604 0.047958 0.0124915)
(10.0491 -0.0170537 -0.00900387)
(9.98131 -0.0171187 0.00258778)
(11.5598 -0.0726793 0.240248)
(8.83998 0.457314 -0.428603)
(10.6265 -0.730657 -1.39933)
(10.0051 0.015006 -0.00353661)
(9.96574 -0.00721301 0.00734489)
(10.0438 0.00449055 0.00665499)
(9.04327 0.801188 -0.455713)
(9.97734 0.103612 -0.0014827)
(10.0281 0.0224481 -0.00367674)
(10.0221 -0.0364919 -0.0127681)
(10.0136 0.261125 -0.051271)
(10.0127 0.287922 -0.0531734)
(10.1612 0.113436 0.0172206)
(9.94002 0.268971 -0.039727)
(10.0455 -0.0167641 -0.00705146)
(10.0478 0.00362283 0.00587991)
(9.98715 -0.00190959 0.0198555)
(9.66062 0.462294 -0.205603)
(9.9503 0.000301214 -0.00361837)
(9.94579 -0.0190978 0.00328765)
(10.0026 0.236754 -0.0455286)
(10.426 -0.474804 -0.0949518)
(10.0672 0.254944 -0.0260661)
(9.95713 0.20256 -0.0272492)
(10.0097 0.194497 -0.038481)
(11.1866 -1.41395 -0.263107)
(9.94334 0.00410744 -0.00358078)
(9.19694 0.246806 0.0457917)
(9.97794 0.153199 -0.0181426)
(9.9951 0.0227801 -0.00805973)
(9.49055 0.319069 1.91468)
(11.561 0.0858464 -0.475078)
(10.1204 -0.0388658 0.00841993)
(9.92899 0.00237951 -0.00403984)
(10.3635 -0.444929 -0.0191031)
(10.8453 0.437514 -0.096678)
(9.7827 0.00313909 -0.00973807)
(10.011 -0.00640625 -0.0088354)
(9.98407 -0.134882 0.00525906)
(10.2421 0.7603 -0.141523)
(9.81966 -0.000915604 -0.00850504)
(-0.671748 -2.19911 -0.41173)
(10.7926 -0.10729 0.0143273)
(10.0448 0.997565 -0.12385)
(9.97935 -0.00182298 0.00743794)
(10.037 0.880998 -0.0991359)
(11.0011 0.314211 -0.477861)
(10.0111 -0.00164073 -0.00026571)
(10.0034 0.00575355 0.00442421)
(9.76067 -0.0272221 -0.0751934)
(10.0111 0.00325375 0.00477408)
(10.0591 0.893316 -0.149574)
(10.1246 -0.117702 0.00521633)
(10.0054 0.0234732 0.00666502)
(9.96514 -0.0453113 -0.00257779)
(10.0016 0.0181354 0.00591975)
(9.972 -0.0125796 0.00558368)
(10.2315 0.179153 -0.0111491)
(10.0004 0.00649079 0.00820662)
(9.97613 0.0204086 0.00721344)
(10.5785 0.944543 -0.35797)
(10.3674 1.15325 -0.413258)
(9.9658 -0.0112749 -0.000409396)
(10.513 -0.552006 -0.000318963)
(9.98129 -0.00759583 0.0116029)
(10.5026 0.886118 -0.316105)
(9.95771 -0.070532 0.00210318)
(9.98302 -0.0033245 -0.00192995)
(12.2254 0.65626 -0.447938)
(10.0515 0.00942112 -0.0115686)
(10.7232 0.0338737 1.16716)
(10.0741 0.00158315 0.00174449)
(9.56112 1.51635 -2.2231)
(9.93024 0.00287412 -0.00885829)
(10.7463 0.147268 0.00747013)
(9.93945 0.00158786 -0.0168443)
(10.0305 0.0220105 -0.00293449)
(9.81518 0.00984164 -0.00157493)
(10.0412 0.00325289 0.00465909)
(9.97666 -0.00123054 -0.0200715)
(10.3653 1.03287 -0.319816)
(1.02125 -1.68372 0.683545)
(2.04563 -0.728862 -2.61677)
(10.1016 0.0864814 0.0071526)
(10.3813 1.55158 -0.969558)
(10.7782 0.774658 -0.354237)
(10.8808 0.730781 -0.342886)
(9.98206 -0.0102229 0.0193956)
(9.99615 0.00485533 0.00696215)
(9.96107 0.0222693 0.0107913)
(9.8561 0.00782597 0.00490892)
(9.95486 -0.00398102 -0.00054476)
(10.1867 -0.26785 0.0100222)
(10.8933 0.669999 -0.236003)
(9.94264 -0.0184702 0.00264983)
(10.0428 0.0102053 0.00781924)
(11.626 -1.10283 0.0400157)
(11.6269 0.539923 -0.255701)
(11.2522 0.614052 -0.201506)
(8.08868 -1.33424 -5.21321)
(-0.019315 3.38722 0.526639)
(10.733 -0.318828 0.00959064)
(7.42887 -0.986246 -5.75705)
(-0.0777766 3.24221 0.743501)
(9.82099 -0.244416 -0.0210345)
(-0.128815 3.27367 0.673805)
(9.44103 -0.440567 0.963742)
(10.0023 -0.069629 0.0177352)
(11.1357 0.680174 -0.373072)
(11.0798 0.739686 -0.399903)
(11.383 0.639722 -0.367516)
(-0.890941 2.37649 0.947959)
(10.2711 0.14072 0.00483362)
(10.0159 0.0393756 -0.00196524)
(10.0037 -0.0151417 -0.00621896)
(11.458 0.674994 -0.484339)
(11.3243 0.71887 -0.548434)
(10.1256 0.0230509 0.0206249)
(10.1564 0.140426 0.0332871)
(9.62857 3.08679 1.76881)
(-0.768557 2.41521 0.959906)
(13.0588 -0.558398 -3.21093)
(10.0063 -0.0142666 0.00826875)
(8.8357 -0.760806 -3.37537)
(10.4149 0.602399 1.2178)
(10.0069 -0.0895079 0.00651751)
(11.0411 0.500046 -0.0667932)
(12.198 0.231867 0.216117)
(11.0182 0.410514 -0.0565551)
(9.99462 -0.0179069 0.00491234)
(9.99858 -0.00469737 0.00706519)
(9.98286 -0.00657411 0.000761755)
(10.4665 0.432994 -0.0231844)
(9.9992 0.00192011 -0.000436383)
(9.98181 -0.015054 0.0157474)
(10.1523 0.0748907 -0.0133559)
(9.95 0.00251321 -0.0220683)
(11.2186 0.283233 -0.0794668)
(10.009 -0.0249287 -0.0187835)
(9.97048 0.0214459 -0.00291393)
(9.99591 -0.0194954 0.00192471)
(10.0055 -0.0071415 0.0089241)
(9.963 -0.00221637 0.00452245)
(10.3894 0.350965 -0.018437)
(10.094 0.0514276 -0.00320977)
(10.1177 0.0173226 0.0305521)
(11.1253 0.287447 -0.0696178)
(8.50614 3.41243 1.38038)
(9.97254 -0.00579213 -0.00136916)
(12.0592 1.54202 -1.58045)
(9.99701 -0.00838493 -0.00278471)
(11.0467 0.0237638 -0.0419097)
(7.49012 -0.547162 2.4215)
(9.77637 1.46865 -0.660196)
(10.0172 0.032401 -0.00357487)
(9.84531 1.55133 -0.736014)
(10.0078 0.0254112 0.00698271)
(10.0325 -0.0151424 -0.00895053)
(10.1019 1.33598 -0.964422)
(9.98697 -0.00608241 0.0189178)
(10.8115 -0.248353 0.00273287)
(9.97036 1.23156 -0.682006)
(10.3446 -0.0865868 0.0173823)
(10.6556 0.0986204 -0.286766)
(8.26128 0.353165 -4.21771)
(10.1041 -0.0503482 0.0143096)
(9.61507 1.93186 -0.691715)
(10.0496 -0.0205063 -0.00154106)
(9.03599 2.05779 -1.11711)
(10.162 -0.165179 0.0396112)
(10.0174 -0.00480164 0.00758494)
(9.97887 0.022795 0.00879542)
(9.9966 0.00844769 -0.0186039)
(10.6731 1.12675 0.833371)
(9.96224 0.00557132 -0.0234322)
(10.0009 0.0061527 -0.0229372)
(10.021 -0.0363697 0.00991407)
(9.92478 0.134369 0.0390679)
(11.1467 0.739834 -0.0302672)
(10.0164 0.005057 0.00192031)
(10.0016 0.00352664 -3.53139e-05)
(8.63132 0.335719 -0.657152)
(9.99317 -0.0044848 -0.00883519)
(9.79049 0.157655 -0.0370234)
(10.1242 -0.215707 0.0610324)
(10.0827 0.042648 -0.0100661)
(10.0516 -0.00510475 -0.000247378)
(9.94803 0.0148568 0.0086691)
(10.0916 0.032179 -0.00947656)
(10.3864 1.3729 -1.1256)
(10.0033 0.00991097 0.00678533)
(9.98895 0.00447013 0.00286948)
(3.0296 -0.593967 -5.91059)
(9.96796 -0.00943001 0.0109211)
(9.99771 -0.0126576 0.0035493)
(9.97483 0.134613 -0.0159112)
(10.0039 0.011139 0.00689186)
(12.6494 1.43454 -0.955423)
(12.7651 1.14116 -0.734981)
(9.96414 -0.00393206 -0.000846372)
(9.87398 -0.133955 -0.00508975)
(9.89205 0.0353533 0.0234106)
(11.7205 0.176271 1.23979)
(10.0499 0.0615396 -0.00296399)
(12.7983 1.25297 -0.799054)
(9.9994 0.00602847 -0.00318448)
(-1.94026 -0.375109 1.13466)
(8.15962 -0.540777 -0.759838)
(9.11936 -0.892425 1.75188)
(10.0053 0.0116129 0.0176688)
(12.7251 1.20386 -0.746592)
(10.0601 0.0100615 -0.00157425)
(10.2046 0.126982 0.0320063)
(9.98228 0.00328823 -0.0199219)
(9.31225 0.187013 -0.0342337)
(10.0457 -0.00226792 0.00792464)
(10.0126 0.0261521 -0.0116084)
(6.00973 -1.42759 -0.915308)
(9.98922 0.000277702 -0.00555103)
(9.92422 0.00974442 0.0037822)
(10.0201 0.0085888 0.0248831)
(12.5172 1.58837 -0.858671)
(10.0658 0.0292257 0.0026884)
(10.0008 -0.0166063 0.00553396)
(12.3659 1.50288 -0.88353)
(12.3122 1.0195 -0.4094)
(9.97113 -0.0120251 0.0113607)
(10.0526 -0.0115305 -0.0024134)
(-0.133485 1.85456 0.398668)
(10.0395 0.0122088 -0.00457987)
(10.8039 -0.410602 0.093971)
(10.013 -0.0027775 -0.0104498)
(10.0403 0.00546065 0.0302849)
(10.0464 -0.0245817 -0.00130157)
(11.944 1.13124 -0.458157)
(11.5704 0.317001 1.41623)
(9.18984 0.736642 0.745909)
(9.7542 0.14119 0.0780178)
(10.072 -0.102209 0.0193336)
(10.0345 0.00668595 -0.00140899)
(12.5948 -0.533901 -0.322928)
(9.31185 0.253225 -0.470119)
(9.6771 0.0672841 -0.117527)
(-0.0419955 1.72008 0.265927)
(10.0019 -0.00898179 -0.00460448)
(10.0427 0.00370646 -0.0149508)
(-0.233718 1.63485 0.366804)
(12.1517 1.70632 -1.30822)
(9.90659 0.0828149 -0.0127935)
(0.0161882 1.82204 0.294589)
(0.0173529 1.84205 0.381098)
(10.0135 0.000850723 -0.00611874)
(9.99764 0.0148511 0.00174668)
(10.0195 -0.00555273 -0.00457524)
(9.59675 -0.340458 -0.0163312)
(9.99761 0.00331086 -0.0071145)
(9.96365 -0.0173328 0.00118612)
(10.1084 -0.254789 -0.490267)
(10.0368 0.27918 -0.00150443)
(9.93857 0.00689594 0.0040518)
(10.0352 0.0184251 0.00323753)
(12.5518 1.42058 -0.421953)
(11.8496 1.39953 -0.455841)
(9.96951 0.0101805 -0.00038632)
(10.5157 0.384656 -0.0293129)
(-3.34315 -2.13526 -0.0703004)
(-2.28253 -3.24468 1.73001)
(10.9192 0.430434 -0.120896)
(9.93103 -0.0027459 -0.0040122)
(10.2787 -0.154898 0.190774)
(11.0552 -0.0901701 -0.804888)
(9.86211 -0.00834226 0.00100327)
(9.86041 -0.0133758 0.00945528)
(10.0507 -0.0375834 -0.000428677)
(10.3437 0.145799 0.0101331)
(9.97957 -0.0130278 0.0068894)
(10.954 0.323265 0.321247)
(9.99937 0.00327412 0.000218657)
(13.1758 0.798064 -0.744051)
(10.3588 1.55663 -1.22437)
(10.7946 0.414481 -0.0698858)
(13.1938 0.981327 -1.08739)
(10.0651 0.0342368 0.00369053)
(9.99783 -0.00186956 0.00692575)
(10.3535 0.800816 0.132746)
(10.1637 -0.0939508 0.0320996)
(10.0144 0.00187871 0.00664682)
(10.0039 0.00729461 -0.00318992)
(11.2618 0.392594 -0.601461)
(7.93734 -0.791582 -1.53981)
(10.0172 -0.00440528 -0.0080923)
(11.0661 0.13439 -0.025288)
(9.96529 0.308976 -0.0209589)
(11.0538 -5.22428 -2.59586)
(10.3991 -0.907232 0.843468)
(11.9803 0.0554146 0.933551)
(6.59928 0.166141 0.246097)
(6.36827 0.139483 0.089008)
(10.0527 0.017785 0.0028714)
(9.9999 0.352926 -0.0919996)
(4.35769 0.035951 -0.198646)
(9.96366 0.0101951 -0.00243275)
(10.0369 -1.75151 -3.6229)
(8.10092 -0.0509562 1.51054)
(9.98433 0.0015655 -0.00219932)
(10.0198 0.509271 0.299947)
(10.0254 0.0116984 -0.0132087)
(10.0355 0.00269653 0.0146016)
(10.0168 0.00204773 -0.000750607)
(13.411 0.609373 -0.242309)
(9.97643 0.0102029 -0.00393323)
(9.98471 0.0042251 -0.00140675)
(10.0554 -0.0344701 -0.013693)
(9.80791 0.00285591 -0.0128679)
(10.0596 -0.0135175 0.0266992)
(9.97283 0.00516443 -0.0101297)
(10.0482 0.0212631 0.00267827)
(9.85047 -0.0653129 0.0111068)
(10.9552 1.20468 0.688221)
(9.16725 -1.01517 -2.36808)
(12.2468 3.77861 1.94715)
(10.7622 0.582433 0.0206891)
(9.60115 1.49275 1.26629)
(9.99283 -0.00364278 0.00269716)
(9.26174 -1.00498 0.051755)
(9.97307 0.0122292 -0.00109638)
(10.0006 0.00240928 -0.0107818)
(10.003 0.00380716 -0.00840838)
(9.99975 0.00124127 -0.00766585)
(9.98436 0.0179637 -0.00596311)
(9.20245 0.453321 -0.923944)
(11.0833 0.814257 0.209912)
(9.98653 0.013635 -0.00552761)
(10.2216 -0.584478 0.0520908)
(11.178 1.66819 2.00085)
(9.97878 -0.00170111 -0.000558662)
(1.78459 0.723898 0.450825)
(13.3257 -1.01463 -3.15431)
(9.95744 -0.017561 0.00243489)
(9.31552 -0.556765 -0.00274774)
(10.4737 0.0225666 0.0385779)
(10.0324 -0.00887734 -0.00531011)
(2.52892 1.20746 0.449331)
(9.99582 -0.0168015 -0.00234791)
(5.41583 -1.50759 -0.255888)
(9.97129 -0.00624553 0.00461566)
(11.9841 0.0317743 1.12734)
(12.2111 0.410668 -0.0778356)
(9.95335 -0.0182909 0.00255055)
(9.90505 -0.00624538 -0.00494582)
(10.1834 0.625323 0.0382307)
(8.65833 -0.631923 -2.36164)
(9.92745 0.0084239 0.00185469)
(10.0316 -0.00695492 -0.0032795)
(10.3952 -0.0103407 -0.00643839)
(12.581 -0.0619216 0.612973)
(10.001 0.00366879 0.00201336)
(12.4653 0.330344 0.197734)
(10.5354 -0.0134467 -0.0229213)
(0.0146422 -0.0234416 -0.780117)
(12.1616 0.330765 0.0361182)
(10.4668 -0.0182664 -0.0146944)
(12.2974 0.328634 0.142521)
(10.0007 -0.00350165 -0.00362453)
(10.1237 -0.16662 0.00517508)
(10.5336 0.436038 0.0182454)
(10.5185 -0.0568956 -0.0211352)
(12.4717 0.412338 0.0152487)
(9.99892 -0.022289 -0.000159097)
(10.0641 -0.231981 -0.0256367)
(12.3211 0.40018 -0.0176512)
(9.95651 -0.0368763 0.00220132)
(10.5556 -0.0544566 -0.0195848)
(9.98527 -0.023532 -0.0085543)
(10.0444 -0.0164914 0.0162038)
(6.90135 0.396817 -5.23737)
(6.72767 -0.117329 -5.83801)
(9.6643 0.0877329 0.347832)
(8.86621 0.416265 -4.28118)
(9.99635 -0.0226598 -0.0103239)
(9.95423 -0.0222939 -0.00929397)
(10.8778 0.66606 -0.282704)
(10.5442 -0.178529 0.0130541)
(7.89784 0.0893364 1.10617)
(10.0144 -0.0237326 -0.0103971)
(10.0798 0.0639221 -0.00803359)
(9.99849 -0.0180812 -0.0023024)
(10.0258 0.0747849 0.0213212)
(5.29197 0.243871 -6.49253)
(3.80146 -1.51697 1.70034)
(9.98653 -0.0209327 -0.00239893)
(10.0172 0.0396907 -0.0067107)
(10.0399 -0.0895762 -0.00207529)
(9.88026 -0.0596 0.00963726)
(10.2502 -0.174513 0.0425927)
(9.97338 -0.0213719 -0.00383153)
(11.3716 0.0140492 -0.0423215)
(11.779 -1.2306 1.02337)
(10.161 0.0292198 0.0209862)
(10.0382 0.0148854 -0.00538646)
(10.0073 -0.0190311 -0.0041695)
(10.0077 0.0643112 0.0119311)
(9.69796 0.201384 0.0259201)
(10.0139 -0.0145476 -0.0081269)
(10.8063 -0.144514 -0.0399395)
(9.95197 -0.00251042 0.00300768)
(10.0154 0.027201 -0.0127509)
(10.1004 0.0767663 0.0149363)
(9.26727 -0.879307 -1.32235)
(5.16886 0.714928 -4.89925)
(10.0591 -0.0859471 0.00163766)
(-0.114002 -1.93721 0.241789)
(9.92421 -2.47411 0.631709)
(13.3075 -1.1896 -1.21935)
(-0.134672 -1.92707 0.208999)
(10.4685 0.0508555 -0.00600786)
(6.02768 -0.352656 2.33044)
(10.6134 -0.51104 -2.67746)
(10.8808 -1.682 0.346877)
(5.67663 0.319007 -3.89202)
(-0.173528 1.7373 0.63846)
(1.50464 0.633373 -3.69258)
(11.7178 -0.0739972 0.707161)
(10.8371 -0.0144563 -0.0618808)
(11.676 0.0806122 1.19579)
(9.9214 0.00457655 0.000179471)
(3.71471 -0.314391 -0.415917)
(10.865 0.0825645 -0.357303)
(10.7406 -0.0171041 -0.0218517)
(9.97056 -0.0579354 0.0489764)
(10.011 0.0135529 -0.0247501)
(11.7673 0.178995 1.22124)
(10.0077 0.146179 0.0408403)
(10.2051 -0.0420019 0.0210082)
(9.96388 0.0162081 0.000261184)
(-0.426187 1.06589 0.11696)
(8.11027 0.316559 -2.57767)
(10.0144 -0.00733018 0.00848694)
(9.9844 -0.00475939 0.00439509)
(5.03006 0.303096 -2.51757)
(5.9244 0.157867 -3.17905)
(10.6136 -1.60418 -1.01342)
(-1.79086 -2.53847 -1.20996)
(5.52009 0.202964 1.87532)
(4.0496 0.0153542 -4.00475)
(3.77438 -0.0398832 -4.8594)
(10.0055 -0.00396215 0.0102713)
(9.80771 0.00278663 0.000975556)
(9.47057 -0.0260771 0.0130777)
(10.0188 -0.00134885 -0.00676424)
(10.415 0.0432635 -0.0133725)
(-0.243408 1.82016 0.366831)
(11.0109 -0.0162593 -0.272119)
(10.4679 0.0349672 -0.0138145)
(10.3355 0.0343459 -0.00595009)
(10.0514 0.00473959 0.0060817)
(-0.22275 1.70768 0.821619)
(-0.438691 1.75595 0.775974)
(10.0585 0.0176783 -0.0153365)
(10.4113 -0.000570821 -0.0231674)
(9.93322 0.0231852 -0.00292532)
(10.0467 -0.0106371 -0.00666815)
(10.3596 0.0140528 -0.00706151)
(10.0446 -0.010064 -0.0136602)
(9.68229 -0.00696051 -0.0771527)
(10.0069 0.00569426 -0.0122745)
(9.9916 -0.0135154 -0.00499798)
(7.00081 -0.772321 -3.23719)
(10.0468 0.00267725 0.00686788)
(10.0455 -0.00049005 0.00228558)
(10.0148 0.00106664 -0.010652)
(9.84583 0.00435505 -0.00353472)
(9.86495 0.00672082 0.00504491)
(4.26933 -0.609083 -2.5551)
(12.6945 -1.23675 -0.807542)
(10.0399 -0.00232163 0.00759779)
(10.8947 0.45021 -0.217812)
(10.0137 0.0262526 -0.0133942)
(9.67613 -0.326256 0.0940234)
(9.63455 -0.413114 0.14586)
(12.3788 -0.0444166 -0.0773895)
(9.84356 0.00225556 -0.0044959)
(-0.284616 -1.09453 0.929762)
(12.464 -0.184063 -0.144499)
(10.5007 0.149763 -0.0158038)
(10.8509 0.412712 -0.0535239)
(8.112 0.347963 -3.52209)
(10.5257 3.1408 1.5557)
(9.99417 0.000644284 0.00114547)
(9.99016 0.000786161 -0.00231504)
(11.4629 1.7351 2.13013)
(10.0013 -0.0761655 -0.0110299)
(9.9993 0.0338349 0.00537596)
(10.7936 0.797639 0.339609)
(9.9736 -0.00246497 -0.00227328)
(9.98351 -0.00279578 0.00163873)
(-2.68222 0.708495 1.38486)
(12.5484 0.794747 -0.258139)
(10.3499 3.57823 -0.493886)
(10.002 0.000778168 0.00489138)
(7.72685 0.615697 -2.73409)
(10.0122 0.00376586 0.00928454)
(12.1089 0.188806 -0.2803)
(9.48062 -0.395724 0.233381)
(12.4521 -0.0789896 -0.0783954)
(9.93237 0.00208592 -0.000330563)
(9.29033 -0.426266 0.188124)
(-1.12934 -0.493695 0.903632)
(11.4442 1.85368 2.61479)
(12.6133 -0.452088 -0.92655)
(-0.883306 1.12596 0.67387)
(12.43 0.301746 0.189365)
(10.6499 0.185603 0.0179098)
(9.96202 0.00271308 0.00561923)
(12.2476 -0.318639 -0.266354)
(10.0005 0.00504978 0.00493284)
(12.6248 -0.093669 -0.0204066)
(-0.0604677 -1.38094 0.589587)
(10.0001 0.00668733 0.00494074)
(12.8896 0.114353 -1.38396)
(9.89201 -0.0050223 -0.00240276)
(9.887 -0.0168964 -0.00113245)
(11.1721 -1.26046 -0.530463)
(9.92989 -0.015995 -0.0106307)
(10.3136 0.129131 -0.0154464)
(8.03596 -5.76058 -0.0396305)
(9.50609 0.459202 0.0234345)
(10.0088 -0.239936 -0.0278796)
(12.8581 -0.580272 -0.0871757)
(10.6949 1.6205 1.00397)
(10.0372 -0.0279425 0.00742219)
(11.7479 -2.66865 -1.10331)
(5.26104 -0.904881 -0.241606)
(10.7598 0.0383133 -0.0095213)
(9.62268 -0.728699 -0.917276)
(10.0574 0.141052 0.0369444)
(10.6368 0.242475 0.00859309)
(9.98205 -0.0169407 -0.0134036)
(10.0265 -0.0237274 0.00596033)
(-0.994327 1.21636 0.260126)
(0.80195 -4.45895 1.91341)
(12.0864 -0.883967 0.309693)
(10.1137 -1.31274 -0.760985)
(12.4161 -0.711045 -0.467194)
(1.03118 4.87617 0.845628)
(-1.22129 0.222914 -0.782365)
(9.1466 -3.60785 4.19364)
(10.0325 -0.0181433 0.0128862)
(10.0023 0.0122209 -0.0101535)
(9.98866 0.0134306 -0.00420739)
(9.84069 -0.0248421 -0.00260733)
(1.05746 1.20812 1.04102)
(9.59916 -0.538708 0.158377)
(8.94105 -0.662165 1.00099)
(9.98689 0.0207357 -0.00960726)
(-0.153758 -1.54064 0.0694244)
(12.5445 -0.0687699 -0.118485)
(10.7233 0.0242034 -0.299668)
(10.1731 0.037205 0.0070682)
(10.0298 -0.0142295 -0.0103044)
(10.1791 0.0390872 0.0153396)
(6.22896 -1.86709 -3.32888)
(10.0048 -0.00297175 -0.00705349)
(3.55874 3.96748 -1.03374)
(10.023 0.00902571 -0.000437483)
(10.35 -0.647532 -3.15986)
(9.98817 -0.00370338 -0.00295987)
(9.99889 -0.00622856 -0.00620878)
(10.0092 -0.00996413 -0.0074254)
(10.0142 -0.00998746 -0.0111576)
(9.9881 -0.0117754 0.00333914)
(12.5967 1.60058 0.595194)
(11.5571 0.35645 0.738172)
(8.9032 1.48298 2.33092)
(6.93261 4.03388 2.32291)
(9.33319 1.21868 0.40168)
(10.4337 0.571219 -0.0812593)
(11.1672 1.29628 0.00480746)
(6.65475 -0.462287 -3.00167)
(10.727 -0.150662 0.0208634)
(12.3624 -0.445646 0.0936067)
(10.7854 -0.74021 -0.0129388)
(12.3348 0.0674031 -0.0612615)
(8.31285 -0.238811 4.35971)
(6.04983 -1.44304 2.49954)
(10.7363 -0.360789 0.177649)
(9.99933 -0.00938694 0.00495782)
(9.57323 0.96628 -0.357629)
(10.0041 -0.00545235 0.00981168)
(10.2697 -0.0233914 -0.00243116)
(12.6809 -2.41796 3.08411)
(12.5598 -0.367792 0.713769)
(-0.926229 3.61326 -0.282811)
(10.1089 -0.969258 0.182112)
(11.9404 -0.999925 -0.604776)
(10.5471 -1.06316 -1.21126)
(9.95017 -0.418735 1.10835)
(10.3082 -0.0474195 0.00435905)
(-3.71496 -2.80144 0.961849)
(10.1143 -0.0136836 0.00867331)
(10.1932 -0.0192218 0.00351991)
(11.0236 -0.220583 1.39932)
(9.73415 -0.132353 4.61124)
(10.3424 -0.0529658 0.00974151)
(10.3135 0.566394 -0.445259)
(9.97321 0.00248747 -0.00102367)
(10.5036 -1.44317 0.562806)
(11.2657 -0.0437235 1.52998)
(9.95525 -0.0162655 1.50427e-05)
(11.1754 -0.440536 -3.14735)
(9.59408 2.05177 -1.86556)
(11.8235 0.462086 1.36754)
(11.0515 0.328001 -0.183315)
(9.48048 0.116916 0.257665)
(3.1134 0.945734 -3.87881)
(0.26491 3.51085 2.86269)
(5.23925 3.19277 0.629511)
(13.3428 -0.852907 -3.00075)
(4.21932 -0.949878 -0.460079)
(9.75651 -0.00681466 -0.00125047)
(9.88689 -0.0248296 -0.00542491)
(8.25703 1.72947 2.63971)
(9.94267 -0.000658061 0.000470643)
(4.53251 -0.834949 -0.325944)
(9.81089 -0.0088585 -0.00197096)
(9.78321 -0.0110096 -0.00285804)
(-0.0693052 -1.95883 1.05068)
(9.48927 -1.33215 0.802138)
(10.8832 -0.644145 0.0949818)
(9.9743 0.00180967 0.00311202)
(10.001 0.0182995 -9.80983e-05)
(8.35019 0.396932 -2.89754)