/*--------------------------------*- C++ -*----------------------------------*\
| =========                 |                                                 |
| \\      /  F ield         | OpenFOAM: The Open Source CFD Toolbox           |
|  \\    /   O peration     | Version:  2506                                  |
|   \\  /    A nd           | Website:  www.openfoam.com                      |
|    \\/     M anipulation  |                                                 |
\*---------------------------------------------------------------------------*/
FoamFile
{
    version     2.0;
    format      ascii;
    arch        "LSB;label=32;scalar=64";
    class       volScalarField;
    location    "0.00481384";
    object      k;
}
// * * * * * * * * * * * * * * * * * * * * * * * * * * * * * * * * * * * * * //

dimensions      [0 2 -2 0 0 0 0];

internalField   nonuniform List<scalar> 
3923
(
0.394547
0.398786
0.383456
0.599217
0.457301
0.457504
0.701816
0.488512
0.491734
0.509573
0.532033
0.399447
0.382537
0.420346
0.380713
0.392745
0.386951
0.38606
0.385482
0.381541
0.396705
0.409197
0.381667
0.403987
0.38095
0.401059
0.398589
0.398961
0.395742
0.396359
0.398956
0.397727
0.397736
0.450469
0.434022
0.607016
0.521128
0.526996
0.482236
0.413922
0.321745
0.389964
0.393879
0.438021
0.467225
0.433929
0.377519
0.412032
0.386179
0.563491
0.578525
0.47751
0.391464
0.375392
0.384319
0.37914
0.373693
0.376372
0.408361
0.420902
0.404142
0.403819
0.380698
0.399225
0.397711
0.377921
0.398895
0.557399
0.419799
0.406345
0.377166
0.451478
0.401021
0.433756
0.391366
0.460193
0.403616
0.481455
0.659316
0.417719
0.528733
0.45543
0.396659
0.410765
0.544707
0.666403
0.410108
0.395052
0.401312
0.438429
0.395912
0.503336
0.398101
0.418789
0.388283
0.380805
0.385199
0.382734
0.398854
0.408427
0.397987
0.408689
0.381986
0.39031
0.427465
0.400416
0.407732
0.35412
0.330532
0.346126
0.388615
0.388487
0.391545
0.383773
0.338648
0.355515
0.376906
0.390605
0.458257
0.340291
0.386052
0.617959
0.405726
0.398947
0.428998
0.395015
0.398123
0.384023
0.336111
0.393981
0.397146
0.450855
0.417464
0.385042
0.38622
0.386371
0.39552
0.405583
0.392897
0.398898
0.39638
0.418364
0.40501
0.390643
0.401298
0.391207
0.664274
0.47691
0.394024
0.386428
0.386914
0.39795
0.407367
0.39799
0.387743
0.456708
0.383455
0.391694
0.40255
0.425968
0.415237
0.331328
0.402279
0.415045
0.467382
0.381896
0.393545
0.38712
0.391948
0.417442
0.38811
0.381539
0.431824
0.405432
0.38833
0.386981
0.391144
0.54744
0.404656
0.384817
0.414438
0.681708
0.379949
0.4529
0.408329
0.394205
0.382037
0.405103
0.386825
0.390972
0.4033
0.40279
0.391445
0.381849
0.401859
0.562989
0.462381
0.520538
0.398832
0.459739
0.481847
0.393174
0.42558
0.419603
0.393396
0.474818
0.389219
0.555376
0.381221
0.432885
0.462554
0.396287
0.699436
0.3824
0.480105
0.40591
0.389196
0.382401
0.408363
0.374117
0.340088
0.419034
0.478176
0.491173
0.384282
0.390669
0.397826
0.385285
0.395033
0.39399
0.377499
0.381426
0.381723
0.402082
0.391696
0.380472
0.388911
0.39228
0.392624
0.392611
0.391145
0.391365
0.402297
0.390042
0.405649
0.342616
0.614766
0.390195
0.390643
0.389742
0.451868
0.402062
0.390005
0.395278
0.396696
0.390428
0.400613
0.756818
0.392161
0.394041
0.408224
0.403557
0.393627
0.395705
0.390582
0.391856
0.396656
0.399111
0.400735
0.39908
0.391821
0.39285
0.389764
0.389966
0.385936
0.386563
0.392669
0.387426
0.386214
0.389231
0.392229
0.39463
0.387587
0.384358
0.404141
0.381443
0.393101
0.401864
0.378828
0.401519
0.403537
0.393054
0.395596
0.395727
0.385266
0.491503
0.482427
0.350229
0.346344
0.418842
0.502124
0.390959
0.355566
0.39692
0.393809
0.402243
0.534066
0.499959
0.43415
0.428578
0.436292
0.441161
0.424088
0.440617
0.418182
0.449886
0.474637
0.406689
0.398385
0.399222
0.424983
0.428506
0.422922
0.430046
0.410918
0.440973
0.398713
0.473687
0.437026
0.420667
0.420768
0.392029
0.424701
0.396662
0.39704
0.396932
0.394447
0.406887
0.405836
0.400089
0.399438
0.407131
0.40211
0.409227
0.412045
0.398632
0.396258
0.394689
0.392827
0.395842
0.399042
0.402899
0.392702
0.385175
0.38783
0.387788
0.379235
0.38929
0.383111
0.390743
0.391563
0.377937
0.388399
0.388061
0.394938
0.382016
0.378454
0.380846
0.384571
0.399817
0.406348
0.411906
0.404205
0.40605
0.500227
0.499525
0.490266
0.4072
0.402315
0.404939
0.420754
0.416854
0.408084
0.385421
0.391579
0.389817
0.388012
0.398835
0.387073
0.438195
0.451599
0.476559
0.39814
0.40674
0.40061
0.428736
0.398328
0.429747
0.540631
0.390012
0.386737
0.388513
0.39054
0.390332
0.404335
0.404072
0.394672
0.397409
0.400328
0.412161
0.422664
0.41688
0.440377
0.449873
0.445422
0.4467
0.43553
0.433639
0.440942
0.399392
0.39826
0.421082
0.404985
0.394171
0.403567
0.395388
0.393017
0.396845
0.389205
0.565228
0.389416
0.404723
0.401992
0.432717
0.394394
0.638661
0.500298
0.54397
0.414842
0.414307
0.374568
0.377883
0.389601
0.462042
0.391208
0.382932
0.401898
0.526405
0.384925
0.453814
0.40786
0.453093
0.47341
0.527444
0.400431
0.380766
0.59815
0.388668
0.386008
0.387747
0.44015
0.395857
0.430634
0.385475
0.400128
0.452884
0.378042
0.39966
0.412039
0.692264
0.386424
0.392522
0.379406
0.389745
0.404074
0.504045
0.464157
0.428946
0.37853
0.381803
0.395311
0.40403
0.40281
0.462526
0.485403
0.390875
0.392589
0.387819
0.389091
0.432513
1.02178
0.71845
0.390244
0.790744
0.391347
0.391953
0.387823
0.637994
0.394168
0.462278
0.388966
0.400934
0.382923
0.39538
0.384862
0.393336
0.395837
0.389352
0.38099
0.382774
0.389129
0.614488
0.39364
0.406436
0.392303
0.599207
0.38172
0.401997
0.40528
0.39248
0.476713
0.386949
0.425415
0.392339
0.390034
0.430481
0.396729
0.44754
0.695888
0.424074
0.401239
0.522169
0.396909
0.423872
0.413761
0.455957
0.421998
0.386325
0.408074
0.408755
0.473815
0.438637
0.452677
0.39292
0.396871
0.445585
0.412006
0.397309
0.399161
0.598082
0.433876
0.391474
0.414621
0.632909
0.395282
0.37162
0.422047
0.395619
0.601446
0.42637
0.391924
0.734954
0.455914
0.442228
0.393576
0.41766
0.477969
0.522194
0.388902
0.437771
0.415793
0.411069
0.383458
0.403029
0.404327
0.460453
0.399309
0.394108
0.386413
0.385821
0.394534
0.417097
0.471789
0.51301
0.442975
0.443072
0.501283
0.598113
0.452755
0.390436
0.377253
0.424556
0.399377
0.388916
0.390541
0.527025
0.404289
0.414928
0.374626
0.385211
0.420283
0.386297
0.387432
0.3855
0.419424
0.40602
0.409253
0.408372
0.38109
0.427146
0.395852
0.411769
0.405739
0.410085
0.427471
0.531488
0.844586
0.559013
0.564977
0.51147
0.4321
0.400862
0.620154
0.44202
0.402245
0.723861
0.373733
0.384539
0.559837
0.652397
0.492984
0.389485
0.435998
0.38734
0.393088
0.379718
0.709138
0.765952
0.565824
0.392301
0.519853
0.410609
0.399319
0.631258
0.399672
0.443698
0.380101
0.436115
0.567681
0.456832
0.424562
0.463411
0.482972
0.475963
0.776961
0.467466
0.427156
0.521144
0.411338
0.388036
0.413569
0.403102
0.496422
0.383974
0.412065
0.420058
0.413737
0.592365
0.383066
0.381737
0.379908
0.38775
0.385458
0.386241
0.383046
0.397034
0.382864
0.454897
0.449495
0.390407
0.453474
0.387838
0.385615
0.383675
0.373772
0.387599
0.406818
0.526572
0.384361
0.391668
0.38873
0.393172
0.380503
0.394547
0.377864
0.382646
0.552678
0.389732
0.390868
0.380059
0.396323
0.63592
0.441501
0.392781
0.546719
0.421786
0.414788
0.545907
0.578963
0.468192
0.566691
0.461852
0.386903
0.448091
0.382514
0.56725
0.60782
0.452829
0.648938
0.579707
0.552434
0.68476
0.715126
0.412921
0.399538
0.694496
0.420525
0.410222
0.518707
0.637134
0.515149
0.382037
0.388397
0.388424
0.381084
0.391835
0.381715
0.414512
0.386276
0.389395
0.377763
0.389841
0.38057
0.359589
0.380975
0.390501
0.395102
0.436745
0.379782
0.38348
0.392135
0.424561
0.410657
0.402788
0.400185
0.40225
0.398038
0.395954
0.379622
0.390403
0.390795
0.436234
0.501474
0.404032
0.385587
0.38802
0.626697
0.647455
0.507869
0.429224
0.389087
0.397477
0.437312
0.55634
0.574392
0.884882
0.504586
0.520956
0.399434
0.552794
0.381361
0.44867
0.451797
0.465548
0.403204
0.394726
0.436777
0.445312
0.493962
0.392314
0.386517
0.380665
0.66405
0.394215
0.381581
0.388173
0.406268
0.41144
0.400839
0.397861
0.408109
0.394517
0.390095
0.800442
0.384307
0.38255
0.395196
0.381822
0.383857
0.386542
0.380382
0.391769
0.390597
0.465411
0.644266
0.391869
0.391169
0.407958
0.402909
0.708869
0.394973
0.389183
0.466706
0.455448
0.605786
0.395644
0.389934
0.386715
0.38734
0.3871
0.39232
0.388688
0.388805
0.521919
0.384266
0.404771
0.461856
0.410419
0.426212
0.475025
0.407681
0.396357
0.423852
0.451397
0.387888
0.424362
0.387214
0.394335
0.48068
0.390731
0.395225
0.386073
0.386111
0.392157
0.397218
0.395673
0.390422
0.411792
0.388527
0.388308
0.387355
0.388636
0.380377
0.38231
0.639913
0.720751
0.415514
0.401791
0.394641
0.387365
0.38826
0.391342
0.425511
0.396663
0.384595
0.498907
0.414256
0.729636
0.804805
0.351094
0.467612
0.497893
0.45469
0.440376
0.455032
0.402366
0.398913
0.399542
0.397887
0.732018
0.510322
0.663172
0.524385
0.655416
0.693293
0.459962
0.631076
0.512107
0.499002
0.465862
0.392583
0.382055
0.401438
0.473681
0.425975
0.412849
0.477905
0.382741
0.418445
0.396947
0.402915
0.401598
0.39542
0.39175
0.401825
0.341912
0.540815
0.466237
0.389473
0.392106
0.390204
0.640504
0.394672
0.42594
0.393503
0.502053
0.392495
0.401327
0.396283
0.389297
0.405962
0.45531
0.467708
0.515071
0.497515
0.467814
0.484058
0.435829
0.448156
0.412845
0.870263
0.485914
0.430423
0.39557
0.38358
0.385954
0.459592
0.523733
0.384068
0.401092
0.409191
0.420573
0.548454
0.515351
0.469306
0.411985
0.389292
0.392298
0.408465
0.437456
0.39929
0.406922
0.420363
0.573218
0.486229
0.404117
0.485821
0.46702
0.418152
0.436609
0.472289
0.387653
0.394099
0.442674
0.384423
0.377966
0.381953
0.440247
0.414983
0.383212
0.40643
0.40752
0.384752
0.402478
0.386801
0.380374
0.383927
0.384036
0.38794
0.435608
0.378934
0.384198
0.387725
0.386875
0.387684
0.376719
0.432179
0.392481
0.391295
0.392327
0.387385
0.393738
0.389788
0.396872
0.38783
0.402244
0.397212
0.385712
0.389317
0.44114
0.439763
0.429935
0.391283
0.407528
0.387799
0.397646
0.399029
0.594217
0.480281
0.417727
0.444404
0.506406
0.399604
0.39465
0.399431
0.407468
0.510799
0.423334
0.431144
0.469506
0.412103
0.417049
0.43038
0.385955
0.444795
0.419153
0.433404
0.398309
0.399576
0.387202
0.401332
0.396737
0.38609
0.387315
0.39634
0.401539
0.423081
0.44436
0.402615
0.466299
0.535878
0.427044
0.389195
0.450515
0.397325
0.45347
0.390177
0.497023
0.410837
0.405489
0.438965
0.382377
0.394569
0.409621
0.419451
0.399134
0.394164
0.389491
0.407591
0.395576
0.4886
0.392333
0.449515
0.440959
0.403394
0.423483
0.386875
0.39374
0.398152
0.53425
0.531537
0.407409
0.417503
0.381731
0.41229
0.428874
0.414029
0.399922
0.485925
0.597501
0.394858
0.543544
0.391386
0.511423
0.37063
0.394788
0.592586
0.392343
0.629946
0.385655
0.387772
0.400943
0.397736
0.411655
0.406643
0.393834
0.412974
0.434357
0.422651
0.650397
0.616484
0.495695
0.408824
0.394412
0.427805
0.39098
0.462311
0.459797
0.35287
0.3859
0.386784
0.336469
0.460344
0.488248
0.454611
0.75024
0.660522
0.5443
0.563366
0.404418
0.476204
0.519022
0.593102
0.488426
0.469427
0.458555
0.605877
0.41834
0.570045
0.532454
0.430067
0.389386
0.418308
0.4124
0.443521
0.448543
0.480294
0.395054
0.432009
0.463528
0.554501
0.456013
0.399805
0.47036
0.411474
0.399224
0.398407
0.445567
0.396067
0.415853
0.409324
0.414085
0.389232
0.418915
0.409453
0.418954
0.465962
0.530333
0.417343
0.492958
0.466366
0.528786
0.452627
0.409134
0.430001
0.790629
0.492923
0.888278
0.638911
0.413385
0.406275
0.405272
0.538482
0.716485
0.579738
0.77048
0.396344
0.397689
0.384743
0.375876
0.39301
0.390472
0.382876
0.385139
0.383579
0.387446
0.385838
0.374308
0.393927
0.384707
0.378071
0.3831
0.378289
0.382355
0.386099
0.379779
0.392081
0.386825
0.39035
0.399426
0.381608
0.386603
0.676241
0.515867
0.371541
0.380567
0.379542
0.387099
0.379669
0.37946
0.487324
0.434474
0.398549
0.382213
0.385571
0.39741
0.415672
0.482302
0.401606
0.398115
0.421581
0.621486
0.600664
0.374464
0.434191
0.473193
0.487847
0.477457
0.502025
0.497258
0.421097
0.538531
0.429459
0.606788
0.586339
0.57343
0.509183
0.532815
0.475697
0.408241
0.477085
0.399339
0.496253
0.396198
0.489572
0.383803
0.570608
0.335241
0.368712
0.464301
0.439164
0.387981
0.396632
0.386041
0.384456
0.510645
0.401324
0.479383
0.411119
0.457547
0.72428
0.387835
0.380812
0.425701
0.39234
0.415451
0.387415
0.408297
0.420873
0.438498
0.402397
0.3975
0.383106
0.393119
0.387997
0.387929
0.384278
0.428381
0.584134
0.474433
0.389839
0.389908
0.390301
0.389223
0.392016
0.381625
0.406206
0.389327
0.392627
0.391073
0.400549
0.435031
0.422429
0.554366
0.395241
0.525059
0.377806
0.393185
0.379115
0.590328
0.375333
0.475972
0.389946
0.388917
0.391469
0.385692
0.390846
0.410419
0.444025
0.441321
0.641601
0.41159
0.401479
0.410991
0.441759
0.481252
0.463962
0.511556
0.412906
0.379913
0.379224
0.388034
0.378994
0.385164
0.387038
0.389712
0.399179
0.416464
0.393439
0.414819
0.397326
0.514739
0.42985
0.394319
0.390004
0.401373
0.389096
0.391184
0.390414
0.384709
0.388615
0.405592
0.380811
0.392854
0.388982
0.439935
0.437571
0.380697
0.393689
0.381612
0.381458
0.383145
0.378932
0.379957
0.380224
0.379556
0.375752
0.489612
0.508236
0.468107
0.392546
0.390547
0.721167
0.841831
0.805288
0.383708
0.377749
0.562474
0.383758
0.605691
0.407326
0.671006
0.492
0.429822
0.438629
0.435741
0.55799
0.723655
0.687453
0.464666
0.564102
0.522494
0.555873
0.528804
0.602529
0.392807
0.876391
0.386783
0.453121
0.392073
0.665517
0.43321
0.388343
0.397059
0.396243
0.388797
0.389265
0.387771
0.375787
0.399685
0.4669
0.443964
0.489268
0.401253
0.399737
0.391095
0.38624
0.45429
0.47191
0.391895
0.373503
0.390331
0.441339
0.436515
0.404101
0.476787
0.548083
0.468015
0.421445
0.443304
0.417108
0.423488
0.385977
0.377446
0.388594
0.393695
0.468743
0.396332
0.380793
0.3877
0.451352
0.475604
0.381403
0.503462
0.408555
0.422634
0.436969
0.415534
0.379979
0.396678
0.398645
0.385484
0.39537
0.387449
0.383639
0.394783
0.420052
0.388815
0.38333
0.392761
0.391527
0.387654
0.389539
0.389733
0.385444
0.394774
0.390119
0.397119
0.39186
0.470183
0.391582
0.400216
0.391599
0.391131
0.395245
0.389472
0.390563
0.393061
0.399962
0.403815
0.392998
0.517199
0.426292
0.483863
0.457379
0.384626
0.416488
0.401852
0.438763
0.441562
0.755455
0.462331
0.463657
0.399106
0.475849
0.419536
0.410972
0.455999
0.465477
0.405913
0.442064
0.451478
0.456301
0.384008
0.387398
0.40615
0.479063
0.392206
0.393335
0.499608
0.480494
0.407641
0.507131
0.392914
0.40601
0.384396
0.389741
0.392148
0.618584
0.505056
0.471357
0.389597
0.452575
0.45124
0.560164
0.400238
0.452227
0.452118
0.418929
0.507581
0.41996
0.419803
0.390493
0.461916
0.387996
0.423289
0.386955
0.400653
0.415255
0.427796
0.405887
0.39574
0.397129
0.398864
0.647253
0.543256
0.390555
0.397599
0.52755
0.468093
0.498914
0.572978
0.379551
0.439801
0.452454
0.377123
0.620353
0.48133
0.38114
0.382413
0.440187
0.487716
0.513485
0.446349
0.423102
0.489668
0.497098
0.451893
0.575842
0.388995
0.393063
0.421669
0.403827
0.44352
0.386225
0.385714
0.445483
0.395946
0.401394
0.382273
0.427365
0.623431
0.616352
0.51728
0.441898
0.412627
0.545888
0.532561
0.466848
0.587639
0.39948
0.420194
0.397066
0.390513
0.389304
0.39724
0.398211
0.41816
0.430606
0.463179
0.456356
0.470574
0.532816
0.561152
0.537446
0.502666
0.504311
0.514133
0.441463
0.460955
0.452963
0.452263
0.423924
0.424018
0.430729
0.43206
0.502491
0.707605
0.431481
0.407308
0.490427
0.379198
0.781757
0.411163
0.380036
0.38087
0.39302
0.409605
0.42952
0.423377
0.412903
0.419152
0.352569
0.565444
0.400048
0.442512
0.453455
0.448574
0.402974
0.489184
0.434796
0.420877
0.429041
0.427991
0.418062
0.346074
0.407179
0.388764
0.399945
0.396963
0.400751
0.381312
0.386254
0.47219
0.413293
0.391873
0.574773
0.394546
0.5134
0.454392
0.455113
0.457609
0.395454
0.38503
0.378795
0.376396
0.404216
0.387754
0.394341
0.447649
0.383293
0.391166
0.380107
0.38409
0.377593
0.387934
0.374789
0.402528
0.517949
0.510996
0.382869
0.394218
0.407188
0.467186
0.512899
0.378438
0.383991
0.377959
0.384747
0.388117
0.383599
0.388662
0.38147
0.384044
0.382942
0.435039
0.39825
0.39309
0.375141
0.384203
0.391636
0.381107
0.381
0.377542
0.375233
0.354644
0.401691
0.438109
0.510611
0.477
0.443721
0.513695
0.393524
0.403526
0.631119
0.416453
0.412606
0.511682
0.463382
0.367302
0.445285
0.514301
0.539313
0.431248
0.484862
0.452309
0.445661
0.482499
0.463078
0.62031
0.707094
0.440332
0.406611
0.546569
0.492202
0.402103
0.417271
0.398949
0.428049
0.443976
0.444785
0.3946
0.41298
0.460699
0.354138
0.342548
0.377418
0.38327
0.387798
0.396391
0.680118
0.464003
0.381037
0.384568
0.382938
0.390317
0.397756
0.398388
0.385201
0.390482
0.394733
0.409261
0.386736
0.391453
0.390197
0.388057
0.385333
0.388759
0.40007
0.398898
0.390659
0.385481
0.387453
0.385581
0.384642
0.389866
0.390459
0.383444
0.382921
0.381883
0.374719
0.672063
0.577085
0.371521
0.401581
0.482524
0.429976
0.41371
0.468971
0.410108
0.420659
0.4179
0.419932
0.422238
0.411994
0.598167
0.411415
0.368024
0.433223
0.403555
0.390372
0.747719
0.409474
0.460823
0.43858
0.461306
0.4349
0.404734
0.41099
0.403041
0.419424
0.410138
0.403748
0.437862
0.390848
0.421254
0.857706
0.402834
0.398636
0.390502
0.390516
0.394148
0.420052
0.401477
0.444492
0.501892
0.419187
0.41334
0.389036
0.591888
0.499686
0.340818
0.417023
0.402825
0.330151
0.380222
0.381353
0.393368
0.381313
0.37856
0.3917
0.415509
0.413888
0.388867
0.537191
0.447668
0.683624
0.386885
0.400891
0.401355
0.390722
0.380571
0.439309
0.382291
0.379206
0.39736
0.430949
0.405827
0.395788
0.398431
0.461356
0.39484
0.616611
0.547585
0.426727
0.456084
0.395465
0.492238
0.511419
0.506851
0.390726
0.395048
0.410837
0.420774
0.398437
0.395287
0.396198
0.38378
0.378436
0.406768
0.44331
0.415433
0.403463
0.535394
0.406682
0.42682
0.400078
0.419026
0.395067
0.388021
0.387248
0.394252
0.384542
0.381334
0.39207
0.388429
0.402197
0.395829
0.395329
0.389318
0.39773
0.480092
0.485789
0.467584
0.372256
0.370353
0.418924
0.414428
0.417105
0.372412
0.416239
0.50032
0.406717
0.387504
0.390056
0.391821
0.389099
0.395169
0.386342
0.404833
0.417392
0.413035
0.482814
0.474392
0.46659
0.402681
0.436077
0.42405
0.438884
0.37858
0.384323
0.393933
0.393053
0.393275
0.40702
0.465054
0.39624
0.405057
0.41385
0.395188
0.383439
0.386494
0.455523
0.422282
0.406694
0.391652
0.382888
0.408349
0.386876
0.37903
0.389575
0.377017
0.382378
0.380087
0.382729
0.380894
0.376055
0.374476
0.376572
0.403486
0.398149
0.431886
0.560324
0.588331
0.512479
0.485962
0.45752
0.441665
0.405581
0.42534
0.391016
0.396908
0.393153
0.394827
0.451216
0.397753
0.39548
0.386613
0.423679
0.428675
0.415981
0.405772
0.422136
0.419813
0.401865
0.394682
0.397656
0.4131
0.392921
0.393092
0.391181
0.407683
0.42459
0.416772
0.414563
0.418865
0.411943
0.420466
0.389056
0.392971
0.403314
0.411813
0.381947
0.400057
0.385901
0.398914
0.500181
0.542079
0.53538
0.46614
0.516127
0.526437
0.518594
0.514775
0.506337
0.483069
0.478554
0.446747
0.463303
0.411397
0.408941
0.408215
0.383748
0.411383
0.415679
0.40038
0.413238
0.395018
0.407759
0.404031
0.408719
0.378911
0.385428
0.494852
0.394946
0.418351
0.432411
0.385626
0.385545
0.383893
0.445751
0.398812
0.432934
0.393269
0.437917
0.423904
0.407944
0.523087
0.382649
0.385592
0.408197
0.386757
0.382149
0.38429
0.380293
0.396208
0.395316
0.38403
0.397981
0.452446
0.389772
0.399313
0.408628
0.392211
0.419612
0.426607
0.387695
0.682044
0.438867
0.484188
0.392168
0.555915
0.418353
0.52639
0.405672
0.55222
0.450437
0.397796
0.421152
0.481196
0.39544
0.394436
0.391724
0.402841
0.395804
0.385383
0.388741
0.389859
0.388767
0.386988
0.383986
0.394372
0.385732
0.391206
0.382967
0.385299
0.389822
0.383399
0.443959
0.381305
0.383921
0.40855
0.40366
0.415266
0.403032
0.394729
0.389646
0.388668
0.388121
0.5833
0.386487
0.403937
0.387456
0.393521
0.395931
0.387014
0.390994
0.414163
0.393861
0.399146
0.492041
0.382452
0.543473
0.452106
0.476009
0.412054
0.397958
0.395789
0.408168
0.419962
0.47912
0.422282
0.406429
0.438457
0.393113
0.416226
0.419003
0.508441
0.451703
0.404056
0.378711
0.456374
0.478258
0.393808
0.394453
0.417644
0.411335
0.461259
0.38802
0.489211
0.398089
0.389381
0.388848
0.406101
0.439898
0.444481
0.436182
0.399037
0.415035
0.395102
0.412309
0.409136
0.410172
0.38323
0.388818
0.392106
0.379545
0.391068
0.39886
0.391993
0.398305
0.388089
0.426468
0.402847
0.401595
0.414591
0.404805
0.399485
0.411462
0.430397
0.437306
0.474339
0.461259
0.485955
0.428085
0.520943
0.541411
0.384707
0.40662
0.398118
0.388494
0.396519
0.395317
0.401355
0.523221
0.412495
0.637087
0.49857
0.565684
0.406771
0.403072
0.365412
0.382876
0.470918
0.628177
0.405082
0.78048
0.446186
0.414617
0.433336
0.418788
0.410901
0.39532
0.426344
0.424803
0.491058
0.404355
0.478775
0.657135
0.390954
0.38915
0.389079
0.453557
0.476049
0.470182
0.421453
0.390582
0.405317
0.384975
0.509114
0.379718
0.4128
0.390994
0.482542
0.534657
0.69317
0.66161
0.550957
0.41741
0.454393
0.874886
0.64216
0.412874
0.514068
0.403652
0.438298
0.459414
0.452359
0.447674
0.648836
0.77218
0.588526
0.655133
0.580054
0.458876
0.472057
0.448443
0.408733
0.435988
0.495119
0.452832
0.376365
0.399482
0.401153
0.39996
0.43575
0.556179
0.5497
0.483911
0.421766
0.631549
0.473334
0.660025
0.605009
0.564067
0.553376
0.912038
0.366483
0.351998
0.421767
0.418919
0.387634
0.356113
0.380796
0.388231
0.381722
0.394186
0.381029
0.382881
0.396518
0.387735
0.435004
0.404867
0.396768
0.391557
0.384182
0.387324
0.390781
0.392006
0.394636
0.376529
0.381943
0.390944
0.380427
0.684696
0.40187
0.385249
0.406198
0.380825
0.720159
0.395662
0.415444
0.393449
0.650016
0.389759
0.379776
0.391109
0.350585
0.733455
0.398544
0.423281
0.39297
0.401767
0.457529
0.538731
0.402163
0.402201
0.404556
0.541162
0.742849
0.403544
0.421361
0.585866
0.480192
0.453717
0.475351
0.636003
0.458826
0.602341
0.399045
0.391629
0.390576
0.397149
0.377738
0.377742
0.39231
0.387119
0.384936
0.387155
0.397061
0.383487
0.383971
0.388226
0.339875
0.417366
0.414626
0.380022
0.373655
0.606799
0.373189
0.386471
0.393459
0.390016
0.445877
0.383125
0.411829
0.384907
0.380239
0.387351
0.387268
0.387206
0.39513
0.385177
0.484721
0.430193
0.411739
0.421029
0.427215
0.574491
0.379167
0.384199
0.34877
0.578803
0.463063
0.383849
0.418473
0.398557
0.39836
0.438208
0.45607
0.554579
0.384069
0.388688
0.388351
0.377679
0.382486
0.393837
0.411863
0.388609
0.382631
0.380308
0.38298
0.386379
0.387379
0.383655
0.413222
0.400374
0.468704
0.433945
0.387401
0.341001
0.382615
0.370789
0.392648
0.389263
0.381694
0.383111
0.39181
0.398274
0.378061
0.381783
0.401614
0.387184
0.38975
0.396243
0.385482
0.399077
0.477062
0.434173
0.400605
0.386904
0.36989
0.437256
0.390402
0.388868
0.378874
0.394836
0.390061
0.382351
0.385051
0.389318
0.391813
0.376292
0.376265
0.387873
0.390042
0.438797
0.400648
0.391787
0.403024
0.398259
0.396527
0.401291
0.392104
0.392391
0.423107
0.401665
0.38643
0.503302
0.384323
0.387064
0.377833
0.387798
0.39142
0.471867
0.395369
0.526532
0.394605
0.535642
0.390634
0.390398
0.385398
0.384162
0.39161
0.414892
0.379144
0.378905
0.379392
0.390849
0.378235
0.446612
0.392979
0.386213
0.598991
0.388209
0.615272
0.416079
0.39259
0.372963
0.380779
0.531656
0.418353
0.38782
0.394757
0.390209
0.401863
0.419501
0.383707
0.385625
0.393143
0.38507
0.376382
0.394446
0.390122
0.390049
0.390217
0.383671
0.38608
0.399044
0.399946
0.408803
0.399445
0.400909
0.38813
0.382122
0.387266
0.39126
0.392777
0.394923
0.39395
0.420704
0.441256
0.411475
0.5592
0.441213
0.589822
0.379745
0.391891
0.442033
0.385019
0.400153
0.387023
0.420451
0.35613
0.396977
0.415353
0.434147
0.564194
0.510855
0.717047
0.482731
0.425756
0.415324
0.391598
0.377815
0.410632
0.392925
0.419215
0.416153
0.463495
0.543524
0.389742
0.421004
0.405927
0.398592
0.400616
0.385325
0.440033
0.497916
0.622712
0.57181
0.51872
0.391031
0.484852
0.403961
0.437724
0.481506
0.450627
0.45037
0.403709
0.413646
0.505575
0.52844
0.534345
0.519307
0.472939
0.45591
0.376714
0.382488
0.377902
0.3881
0.372614
0.38378
0.397096
0.413764
0.38297
0.392607
0.38816
0.390701
0.387352
0.435707
0.388591
0.459179
0.396826
0.390725
0.387335
0.392144
0.388549
0.399034
0.399295
0.395283
0.397852
0.391428
0.397003
0.421087
0.388624
0.387807
0.394422
0.392671
0.459536
0.405761
0.396177
0.393274
0.44266
0.402802
0.389402
0.387145
0.378043
0.395006
0.419795
0.416052
0.388726
0.391263
0.407849
0.394572
0.509314
0.414127
0.513367
0.469887
0.408988
0.391543
0.401974
0.415913
0.411837
0.412323
0.398583
0.388676
0.436428
0.439312
0.441322
0.403224
0.394806
0.432474
0.410662
0.42453
0.391276
0.553214
0.411937
0.393114
0.404265
0.406803
0.387415
0.403563
0.447678
0.400838
0.427265
0.54869
0.556439
0.489074
0.521703
0.455254
0.391084
0.386877
0.385178
0.507287
0.394971
0.393542
0.530704
0.536533
0.395557
0.39171
0.614018
0.908989
0.557419
0.648447
0.433532
0.432005
0.677212
0.444812
0.451594
0.475561
0.393077
0.465307
0.413179
0.42959
0.403212
0.402091
0.385721
0.384177
0.399558
0.411398
0.392865
0.407538
0.47048
0.427454
0.49735
0.460896
0.401597
0.525873
0.407293
0.362448
0.422006
0.54844
0.412445
0.630851
0.53197
0.482066
0.562509
0.371344
0.407445
0.42302
0.385639
0.389362
0.395352
0.386265
0.392199
0.439439
0.497511
0.421187
0.514201
0.412886
0.405423
0.45212
0.369971
0.590902
0.418322
0.74727
0.428789
0.425672
0.409158
0.472043
0.452097
0.419394
0.422133
0.436276
0.491595
0.52433
0.571483
0.349606
0.414954
0.465357
0.417508
0.415898
0.385564
0.386257
0.552225
0.399258
0.38928
0.391425
0.387652
0.386569
0.387744
0.383965
0.420618
0.393672
0.419329
0.387716
0.384798
0.389671
0.386703
0.411823
0.448172
0.439475
0.465145
0.429571
0.41109
0.390325
0.413471
0.411574
0.447831
0.384191
0.426917
0.399851
0.423783
0.414061
0.375003
0.476472
0.375722
0.377153
0.446215
0.406505
0.36696
0.415407
0.499555
0.398657
0.397837
0.393135
0.401028
0.397092
0.408624
0.402899
0.461671
0.451185
0.429327
0.471985
0.407414
0.402003
0.492597
0.434825
0.442762
0.537481
0.47556
0.465783
0.547136
0.55718
0.554029
0.528098
0.497717
0.462689
0.494128
0.389635
0.448472
0.556588
0.550207
0.522352
0.399299
0.496646
0.437267
0.46095
0.440873
0.442338
0.442686
0.408737
0.643024
0.452347
0.389658
0.589627
0.44712
0.393464
0.399058
0.485488
0.700363
0.404013
0.417002
0.412816
0.407319
0.437136
0.44318
0.689956
0.769675
0.756137
0.74975
0.591909
0.684096
0.510778
0.402134
0.440708
0.430308
0.402969
0.433819
0.387049
0.370137
0.443147
0.518672
0.408962
0.388393
0.382646
0.431117
0.390251
0.40224
0.410005
0.381447
0.386167
0.400525
0.400552
0.381722
0.382402
0.379814
0.388218
0.411123
0.558852
0.515262
0.618589
0.474051
0.392438
0.390646
0.384454
0.385007
0.397072
0.377584
0.380356
0.392865
0.378989
0.550456
0.383607
0.381745
0.380197
0.568851
0.440623
0.42245
0.420058
0.431038
0.375894
0.390777
0.402562
0.388568
0.384133
0.404867
0.385866
0.41398
0.388712
0.392165
0.380799
0.431209
0.473884
0.452537
0.387185
0.426609
0.394953
0.418279
0.384435
0.386208
0.395057
0.378723
0.388805
0.380941
0.391823
0.382875
0.379961
0.381608
0.389631
0.37951
0.473203
0.377837
0.518637
0.388713
0.4091
0.415579
0.408975
0.657359
0.463512
0.484344
0.395097
0.510731
0.389565
0.564994
0.462156
0.401249
0.379763
0.410535
0.368981
0.448066
0.403615
0.639691
0.324811
0.367172
0.386874
0.389593
0.388351
0.452148
0.525552
0.469795
0.478411
0.474651
0.473679
0.489863
0.384155
0.384608
0.381043
0.38901
0.382484
0.38466
0.424109
0.37951
0.493653
0.420475
0.423066
0.434607
0.453288
0.413497
0.426612
0.419932
0.410068
0.380897
0.395797
0.3753
0.401777
1.42342
0.877954
0.412687
0.389462
0.396791
0.384429
0.401888
0.397713
0.398181
0.39845
0.38818
0.399561
0.403325
0.441559
0.44417
0.404273
0.440473
0.425696
0.409658
0.411232
0.355051
0.403868
0.371597
0.411411
0.389577
0.391708
0.38723
0.387596
0.389428
0.384333
0.384071
0.35241
0.399008
0.397918
0.39298
0.392379
0.398658
0.387763
0.400612
0.40224
0.405516
0.42743
0.411971
0.414811
0.439568
0.363591
0.391417
0.390113
0.351024
0.382938
0.413882
0.410536
0.419504
0.397227
0.4004
0.378083
0.525418
0.665656
0.434936
0.406747
0.574376
0.407866
0.536672
0.402596
0.395498
0.390249
0.386993
0.428872
0.400596
0.398259
0.393745
0.423313
0.409086
0.399121
0.421521
0.574184
0.388931
0.623572
0.402574
0.40182
0.393148
0.380858
0.431716
0.397099
0.400284
0.397386
0.432008
0.540924
0.391589
0.408709
0.434003
0.419516
0.422374
0.389743
0.675614
0.447942
0.389485
0.387116
0.449546
0.384677
0.410829
0.393659
0.445029
0.387712
0.399099
0.47881
0.554982
0.38486
0.409994
0.389334
0.385047
0.400122
0.389041
0.388804
0.395303
0.380648
0.387335
0.396707
0.396839
0.387144
0.396848
0.405942
0.494792
0.404432
0.398943
0.397945
0.413821
0.427301
0.441534
0.414829
0.403846
0.419403
0.382719
0.397529
0.39298
0.438405
0.390706
0.385464
0.41003
0.443901
0.398428
0.40374
0.573808
0.528692
0.414681
0.414736
0.441082
0.405842
0.410662
0.405755
0.414059
0.450197
0.440817
0.441912
0.516344
0.522851
0.451862
0.393487
0.450497
0.403538
0.390307
0.396196
0.393728
0.395066
0.39999
0.407981
0.357601
0.479807
0.43797
0.415719
0.400291
0.413802
0.401446
0.399686
0.38613
0.395839
0.38933
0.398179
0.392525
0.404619
0.406692
0.422394
0.426315
0.391188
0.406976
0.40967
0.390059
0.426858
0.42306
0.397832
0.387754
0.435595
0.387123
0.385838
0.399193
0.392874
0.420917
0.530002
0.405642
0.449052
0.389664
0.402227
0.405778
0.3902
0.488532
0.400455
0.530147
0.438049
0.454179
0.459076
0.401082
0.398997
0.458686
0.460595
0.515316
0.397472
0.387318
0.385671
0.385962
0.384031
0.403634
0.393705
0.390808
0.394583
0.38613
0.427237
0.397972
0.405722
0.39214
0.408997
0.360481
0.460854
0.459308
0.471152
0.429463
0.394621
0.3904
0.392335
0.391727
0.463022
0.416798
0.405802
0.388127
0.400283
0.409522
0.388696
0.385907
0.385209
0.387798
0.388443
0.385231
0.385376
0.453505
0.462694
0.417746
0.414854
0.377767
0.3902
0.405057
0.437307
0.39546
0.414179
0.39323
0.397598
0.385384
0.394087
0.392046
0.472365
0.412285
0.418896
0.41546
0.416825
0.400344
0.395926
0.42305
0.408632
0.409121
0.446032
0.599616
0.6226
0.408512
0.422283
0.408018
0.407345
0.408383
0.509181
0.389348
0.390045
0.704966
0.641504
0.650985
0.387143
0.402321
0.396161
0.379161
0.375698
0.399411