/*--------------------------------*- C++ -*----------------------------------*\
| =========                 |                                                 |
| \\      /  F ield         | OpenFOAM: The Open Source CFD Toolbox           |
|  \\    /   O peration     | Version:  2506                                  |
|   \\  /    A nd           | Website:  www.openfoam.com                      |
|    \\/     M anipulation  |                                                 |
\*---------------------------------------------------------------------------*/
FoamFile
{
    version     2.0;
    format      ascii;
    arch        "LSB;label=32;scalar=64";
    class       volVectorField;
    location    "0.00481384";
    object      U;
}
// * * * * * * * * * * * * * * * * * * * * * * * * * * * * * * * * * * * * * //

dimensions      [0 1 -1 0 0 0 0];

internalField   nonuniform List<vector> 
3923
(
(11.0376 0.0958588 0.659812)
(10.8705 0.0688538 0.700832)
(9.44759 -0.266669 0.0764979)
(3.0085 -2.14374 -2.3721)
(8.15036 -3.59338 0.433467)
(7.62517 -3.53127 -0.221084)
(6.72996 -0.63342 0.721734)
(7.69835 -5.33875 -0.0387078)
(8.94972 -4.49964 1.6772)
(7.81506 -5.75173 0.461652)
(8.50251 -4.44247 1.56519)
(10.8253 0.0210337 1.00871)
(8.98212 0.41571 0.132959)
(10.7163 -0.0509404 1.5121)
(9.92729 0.466134 0.313873)
(9.48294 0.384193 0.757291)
(9.89879 -0.411111 0.249696)
(9.89056 -0.351111 0.279049)
(9.94697 -0.377848 0.312536)
(9.71971 0.0363998 -0.733621)
(11.0684 -0.152944 1.08241)
(10.5605 -0.17313 1.38977)
(9.94575 -0.267956 -0.078917)
(10.5348 -0.290869 1.33802)
(9.46758 0.0705716 -0.816474)
(10.8991 0.156097 1.03813)
(10.9021 0.0970589 0.975728)
(10.5409 -0.137259 1.07305)
(10.9875 0.157057 0.792537)
(10.9906 0.168513 0.847475)
(10.8609 -0.0410439 0.926607)
(10.9182 0.0603422 0.845029)
(10.9465 0.101147 0.915889)
(7.31847 -3.3302 -0.2897)
(7.40796 -3.08773 -0.615556)
(12.3024 -4.25978 1.79659)
(11.8627 -4.87889 1.74336)
(12.6587 -4.7144 2.25037)
(2.80575 -1.94706 -1.93243)
(9.47497 -1.45009 -2.01156)
(0.0966684 1.35022 0.447782)
(10.1158 -0.576059 0.352694)
(-0.362194 -0.564662 -1.0139)
(-1.69695 1.05631 0.211439)
(-1.56448 0.111574 -0.0858391)
(-0.377619 -0.084723 -0.209761)
(9.73744 -0.117794 0.161972)
(2.0773 -2.48414 -0.649013)
(10.1057 -0.280752 -0.489257)
(7.89445 -7.7209 1.86493)
(9.17803 -7.53446 2.17721)
(9.32407 -4.50296 0.658711)
(10.5148 -0.298608 0.140259)
(10.1583 -0.193014 0.192545)
(10.0521 0.412237 0.432067)
(9.83036 0.299104 0.566847)
(9.76347 0.0476246 -0.184578)
(9.66578 -0.511697 -0.306853)
(9.09789 -0.403037 1.57683)
(10.2573 -1.05686 1.58498)
(9.60187 -1.12261 0.569667)
(5.72279 -3.0346 -0.396153)
(9.73092 -0.352307 0.203604)
(10.0351 -1.36602 -0.0998223)
(9.74333 -0.124098 1.18633)
(10.2412 -0.0915324 -0.000979875)
(9.14293 -0.284057 -1.34273)
(0.810838 0.33942 -2.43808)
(5.53687 -1.32565 -0.719192)
(11.4129 -0.0212792 0.415116)
(10.1592 0.388164 0.397425)
(10.2669 -3.48422 1.03484)
(8.21211 -1.27934 -0.878775)
(8.82867 -3.12191 -0.214345)
(9.43824 -0.721819 -0.523095)
(9.21021 -3.5943 1.58365)
(9.86653 -0.721094 0.0556324)
(10.0339 -0.44392 2.47411)
(7.15264 -7.12154 0.906915)
(8.12802 -1.85679 -1.48051)
(3.61521 -2.59503 -4.32853)
(11.3515 0.664499 1.84255)
(10.8653 -0.0450426 0.726153)
(10.3333 -0.333331 1.32428)
(7.57541 -7.0195 0.961473)
(5.90954 -2.13894 -6.78981)
(10.6304 -1.58898 -0.164719)
(10.2243 -0.456975 0.862735)
(9.26051 -1.76422 -0.535024)
(8.85624 -2.87595 0.815825)
(10.3877 -0.055098 0.602996)
(-0.975071 -1.69711 -2.64428)
(10.2283 -0.348905 1.17844)
(8.60765 -1.20824 0.770416)
(10.1944 -0.218294 0.198347)
(10.0321 -0.196704 -0.156625)
(9.73467 -0.963234 0.999229)
(10.4426 -0.91024 0.495173)
(10.6262 -0.328256 0.997848)
(9.9802 -0.681164 1.26469)
(9.32912 0.693525 0.726713)
(8.52928 -2.12454 -0.911389)
(10.2796 0.347024 -0.432936)
(10.0539 -0.267104 0.763811)
(10.2022 -1.63619 1.40216)
(9.34836 -0.842778 1.50108)
(11.8198 -0.0845275 0.306275)
(-0.195506 -1.9199 -0.335155)
(-0.324124 -1.34674 0.0449844)
(0.349626 -1.17905 -0.395256)
(-0.413225 -1.08417 -0.721217)
(-0.498729 -1.70764 -0.554825)
(9.90378 -0.0134068 0.266555)
(9.8766 -0.275774 0.0285385)
(-0.0926317 -2.16196 -0.248979)
(0.0797234 -2.27952 -0.18988)
(0.258958 -2.11386 -0.21715)
(11.5658 -0.0398369 0.787159)
(7.84067 -4.02123 -0.180783)
(0.0537316 -2.18415 -0.355982)
(9.99429 -0.400439 -0.165531)
(-2.53515 -0.78957 -1.40099)
(9.4539 -1.50532 -0.875777)
(9.63961 -0.754966 -0.552561)
(6.85596 -2.24891 -1.98498)
(11.5169 0.028054 0.818701)
(11.6575 -0.00294128 0.699468)
(0.2141 -1.52424 -0.0930901)
(0.145808 -1.64941 -0.242369)
(11.8019 0.187834 0.652028)
(11.5023 -0.0718951 0.76702)
(-0.211258 -2.90974 -1.56842)
(0.661909 -2.53759 -0.51285)
(9.64648 -0.102244 0.00936418)
(9.85985 -0.422056 0.103581)
(9.99952 -0.422209 0.254591)
(9.2357 -1.15583 0.116189)
(0.610789 -2.43943 -0.337605)
(9.45511 -0.408428 -0.677854)
(10.213 -0.555207 1.00895)
(11.558 -0.182845 0.952346)
(8.89722 -1.40241 -2.49266)
(10.1762 -0.377905 1.21682)
(9.90581 -0.230666 0.0808447)
(10.8722 -0.0323873 0.937007)
(9.63015 0.629958 -0.491932)
(0.7879 -1.69752 -4.53072)
(5.06068 -3.9678 -3.10403)
(9.99692 0.0763498 -0.829515)
(10.1875 0.0185052 0.599106)
(9.80163 -0.530066 0.0881237)
(10.8938 -0.0327716 1.13485)
(8.91058 -2.15926 -0.273919)
(9.99923 -0.860254 -0.453152)
(9.87237 -0.798488 -0.279887)
(10.0897 -1.50585 2.36399)
(10.4927 0.0147338 0.0702415)
(9.76701 -0.282906 -1.29573)
(9.6587 -0.887128 0.877375)
(11.0437 0.597058 0.0641486)
(10.5374 -1.87312 0.400576)
(0.398442 -1.88576 -0.0131894)
(7.58709 -0.718283 -1.13863)
(12.0331 0.0857811 0.269292)
(7.67814 -4.77329 -0.363333)
(9.76487 -0.403883 0.109453)
(9.7699 -0.708422 -0.770522)
(9.77635 -0.468889 -0.0763608)
(10.1087 -0.321718 0.316568)
(-0.0988679 -2.03591 -0.479318)
(10.3644 -0.275989 0.486265)
(10.1618 0.254731 0.119921)
(6.15854 -1.05207 -2.72837)
(1.01007 5.54325 -0.860095)
(0.0609704 4.6184 -0.449587)
(9.46954 -0.241161 -0.274583)
(9.79618 -0.0455239 -0.114296)
(6.59065 -6.32183 -2.28592)
(9.21516 -1.51603 -0.870493)
(9.68817 -0.249522 0.171235)
(6.85822 -1.44069 -1.28993)
(-1.7911 2.13451 -1.10358)
(10.0255 -0.087319 0.311276)
(2.43688 -4.65423 -0.669567)
(9.47308 -1.43247 -1.66742)
(9.46171 -0.563218 0.634303)
(10.2246 -0.00389325 0.429358)
(9.69419 -0.800882 -0.336341)
(9.87379 0.138459 0.529586)
(9.93989 -0.83914 -0.575286)
(11.915 -0.0844637 1.32179)
(9.49696 -1.23539 -0.752391)
(10.4387 -0.350548 0.0439874)
(10.1796 -0.141434 -0.169454)
(10.0324 -0.717338 1.01721)
(6.72201 -5.25181 -2.91948)
(12.2977 0.742079 0.82983)
(3.14383 -6.53511 -0.84085)
(9.28483 -0.652388 0.717558)
(6.22761 -4.50894 -0.812243)
(7.79229 -4.53239 -1.31509)
(11.4265 0.0217557 0.881491)
(8.45317 -2.89604 -1.10774)
(10.1257 -0.915933 1.66566)
(10.0436 -0.447046 0.737394)
(10.8056 2.00838 1.82571)
(10.3934 -0.172846 0.213483)
(-2.61392 -0.0299536 -1.62168)
(9.77137 -0.372785 0.312142)
(9.52283 -0.726428 1.74749)
(0.416695 -3.54203 -1.55814)
(9.90309 -0.98383 0.518636)
(10.9847 -4.34299 0.546068)
(9.69429 0.178823 0.767567)
(4.81952 -1.93577 -1.344)
(7.27302 -1.60381 0.925637)
(9.94042 0.4687 -0.420007)
(9.92814 -0.234615 0.221265)
(12.001 -0.0882417 1.62405)
(0.347005 -1.81232 -0.142644)
(0.0702435 -1.78548 -0.497829)
(1.48868 -2.23231 -0.766404)
(-2.38693 -1.95019 -1.62183)
(-1.10634 0.271046 -1.44931)
(5.6249 -2.28783 -0.276505)
(10.4548 -0.354246 0.491418)
(9.69006 -0.720171 -0.659094)
(9.63035 0.814008 0.804438)
(9.78605 0.399206 -1.54311)
(9.71772 0.189375 0.152706)
(10.1543 -0.24311 -0.426501)
(8.29662 -0.818244 1.05951)
(9.59956 -0.687747 0.15447)
(9.91579 -0.233539 0.206925)
(10.0806 -0.840671 0.309634)
(9.82218 -0.300592 0.10113)
(9.99957 -0.823513 0.296159)
(10.0212 -0.571852 0.40875)
(9.87643 -0.935448 0.452397)
(9.94095 -0.784616 0.475101)
(9.96469 -0.646773 0.472136)
(10.0391 -0.528243 0.345776)
(11.9116 0.234298 0.95288)
(9.90509 -0.855791 0.318978)
(11.2313 0.169458 1.32119)
(0.271179 -2.42159 -0.0459134)
(6.31178 -1.06606 2.00272)
(9.92175 -0.564826 0.384753)
(9.93428 -0.541376 0.407171)
(9.95047 -0.468224 0.42057)
(10.8971 -0.464865 2.00049)
(9.29915 -1.5332 0.214415)
(9.87168 -0.751686 0.232669)
(9.76404 -1.17726 0.165686)
(9.67188 -1.08718 0.220991)
(9.84827 -0.829303 0.320408)
(11.4082 -0.0936196 0.976655)
(4.69516 -2.23706 0.404578)
(9.99649 -0.692152 0.526612)
(9.82179 -0.833567 0.421825)
(11.6551 -0.40112 0.783299)
(11.7292 0.178041 0.699654)
(9.85072 -0.922177 0.438877)
(9.87362 -1.19428 0.160694)
(9.92318 -0.666636 0.43885)
(9.86441 -0.677286 0.4182)
(11.3585 0.153672 0.782834)
(11.0624 -0.0441644 1.13735)
(9.4029 -1.21845 0.392863)
(9.65187 -1.41875 0.131794)
(9.70122 -0.950751 0.0376607)
(11.3654 0.0473453 0.525988)
(9.90569 -0.755719 0.308696)
(9.88578 -0.66285 0.257381)
(9.96377 -0.422967 0.283407)
(10.0678 -0.452141 0.32965)
(9.82262 -0.675408 0.0957437)
(10.0188 -0.45377 0.331857)
(9.91813 -0.461626 0.248528)
(10.0077 -0.491355 0.348307)
(9.73728 -0.515738 0.587847)
(9.75622 -0.601822 0.593276)
(9.96743 -0.454283 0.325528)
(10.1227 -0.490672 0.306393)
(11.6587 -0.454522 2.39424)
(10.2466 -1.05028 1.1311)
(9.75962 -0.870399 -0.0713523)
(9.41018 -1.50261 0.29965)
(10.1868 -0.30558 1.59019)
(9.46738 -1.26934 0.336447)
(9.27775 -1.41433 0.318462)
(9.65177 -0.838967 0.172585)
(9.65422 -1.07105 0.0339947)
(9.636 -0.973428 0.263907)
(10.0308 -0.173627 -0.0843563)
(4.97252 -1.7962 -0.632262)
(3.69851 -1.00575 -0.121556)
(0.0329525 -2.29641 -0.106835)
(0.13355 -2.20495 -0.241961)
(11.2149 0.227162 0.12882)
(7.1468 -1.56618 0.835736)
(11.4845 -0.0457812 0.438354)
(-0.15497 -1.88047 -0.189345)
(11.2838 0.289058 0.285045)
(11.4181 0.278349 0.698221)
(11.8295 0.277649 0.364387)
(5.83821 -0.45908 1.38821)
(4.54715 -1.54586 -1.8403)
(6.86909 -3.07106 -1.37242)
(7.193 -3.00111 -1.06766)
(7.08492 -3.31674 -1.17803)
(6.78408 -3.46719 -1.47764)
(7.12716 -2.7479 -1.09834)
(10.603 -0.0716964 2.45889)
(11.4019 0.0056734 1.77245)
(10.2722 -0.487452 2.17435)
(9.06144 -0.40846 2.42186)
(11.8227 -0.0306088 1.7951)
(11.0801 -0.164089 0.921425)
(10.9147 -0.154504 0.920062)
(10.2819 -0.525526 1.70782)
(10.2477 -0.581438 1.82539)
(10.5143 -0.446211 1.73859)
(10.4963 -0.48625 1.9911)
(10.2144 -0.393236 1.61164)
(10.0017 -0.212055 2.08846)
(10.7799 -0.130924 0.794153)
(8.16637 -4.28921 0.413087)
(7.16405 -3.19231 -0.401158)
(10.4163 -0.692077 1.67958)
(10.3449 -1.06181 1.58864)
(9.9431 -0.687761 0.473305)
(9.05905 -1.78956 0.949938)
(10.4465 -0.240877 0.948549)
(10.5623 -0.194118 0.9009)
(10.5094 -0.172188 0.765191)
(10.3641 -0.203228 0.641077)
(10.1757 -1.0009 1.20343)
(10.1149 -1.01423 1.2349)
(10.0571 -1.05503 0.693734)
(10.4921 -0.242193 1.20884)
(10.168 -0.420502 1.17061)
(10.393 -0.308152 1.10839)
(10.4294 -0.350877 1.38501)
(8.99317 -1.54722 0.461704)
(9.46813 -1.06467 0.422659)
(9.45941 -1.0121 0.327012)
(9.69135 -1.03792 -0.092145)
(9.87351 -0.538689 0.651402)
(9.89608 -0.564514 0.787276)
(9.59735 -0.666581 0.562588)
(9.6005 -0.775063 0.794594)
(9.88038 -0.486639 0.718253)
(10.2546 -0.265195 0.480334)
(10.2796 -0.271964 0.502502)
(10.0504 -0.161577 0.28777)
(10.6187 -0.0853475 -0.130651)
(10.1059 -0.50715 0.213645)
(10.2877 -0.251517 0.159191)
(9.86929 -0.226944 -0.0644977)
(9.98835 -0.134324 0.141525)
(9.63619 -0.405347 -0.0163456)
(9.69483 -0.271691 0.111572)
(9.61603 0.343677 -0.197096)
(9.53591 -0.0136162 -0.205628)
(9.73369 -0.0220442 -0.0621065)
(9.55956 -0.31219 0.0199938)
(9.94811 -0.286072 0.154855)
(9.97043 -0.302248 0.789187)
(10.0465 -1.01092 0.637788)
(9.93949 -0.006147 -0.856002)
(9.63007 -0.812773 1.10063)
(9.79495 -0.67242 0.928159)
(9.56063 -0.862087 0.898746)
(10.0122 -0.0271312 3.85734)
(9.87738 -0.0161196 3.66382)
(9.82572 -0.0963219 3.49541)
(8.48985 -2.15856 -0.452518)
(8.52318 -1.75619 -0.440192)
(8.43177 -1.9918 -0.425921)
(8.62279 -2.50055 0.29755)
(9.00206 -1.90484 0.386661)
(9.11627 -1.90265 0.265605)
(9.88948 -0.479584 -0.00467536)
(9.82395 -0.39126 0.011513)
(9.87755 -0.406581 -0.244696)
(9.91928 -0.332844 -0.159949)
(10.0628 -0.377237 0.0878361)
(9.9685 -0.674647 0.262522)
(3.89227 -3.19616 -1.08387)
(3.32508 -2.89251 -1.49727)
(4.0987 -4.81559 -0.95966)
(10.6932 -0.115606 1.02372)
(10.5116 -0.236797 1.30801)
(10.3602 -0.313826 1.16693)
(10.1153 -0.43735 1.75183)
(10.6028 -0.221801 1.23949)
(10.2429 -0.448733 1.8914)
(6.27032 -1.88329 0.986995)
(9.68352 -0.225365 0.104956)
(9.85824 -0.472666 0.313937)
(9.80733 -0.555484 0.258961)
(9.54587 -0.360804 0.0870038)
(9.76034 -0.288662 0.275394)
(10.583 -0.175653 1.27118)
(10.4213 -0.298285 1.28592)
(10.3273 -0.261905 0.918333)
(10.4166 -0.241237 1.03558)
(10.4788 -0.187949 1.13086)
(10.4157 -1.45808 0.794689)
(10.3102 -2.21127 0.714175)
(10.3407 -1.96612 0.486928)
(9.32521 -2.40565 1.21256)
(9.05115 -2.91997 1.18028)
(8.88328 -2.83728 0.948668)
(9.17589 -2.85817 1.13703)
(9.51232 -2.37663 1.09384)
(9.51838 -2.23563 1.14821)
(8.90751 -2.59668 0.965139)
(10.5539 -0.319759 1.24877)
(10.495 -0.348565 1.17277)
(10.1161 -0.454366 1.54626)
(10.4119 -0.524617 1.30788)
(10.0452 -0.693035 0.567765)
(8.72688 -1.69422 -0.145803)
(9.61137 -0.831881 -0.0153638)
(9.57399 -0.885637 0.0708686)
(10.5354 -0.23389 0.870419)
(9.99854 -0.493554 0.516832)
(6.22063 -8.84018 1.13533)
(9.4893 -0.821949 0.17908)
(12.0966 -0.0540524 0.476292)
(10.8207 -0.10103 0.93356)
(10.6906 -2.578 -0.650465)
(10.5055 -0.206886 0.9041)
(-0.825101 5.5133 -0.978118)
(9.88487 -1.0482 3.53234)
(8.44625 -6.85278 1.24554)
(8.83096 -1.77669 -1.49334)
(10.1308 -1.59325 0.96441)
(2.62723 -1.99016 -0.37347)
(9.73263 -0.554384 0.163521)
(9.85743 -0.0549005 0.816446)
(9.57505 -4.10379 -0.0975653)
(9.75255 -1.20148 -0.122515)
(10.2244 -0.290123 0.315203)
(10.0611 -0.632672 0.986714)
(8.21181 -4.48459 0.925613)
(10.0279 -0.18428 0.231748)
(10.4737 -3.02535 1.30193)
(11.0014 0.533569 0.117124)
(10.063 -3.29239 1.62381)
(6.17893 -3.26274 -3.31918)
(6.17508 -7.10635 0.228721)
(10.2761 -0.408878 1.14343)
(9.79894 0.276266 0.285859)
(5.19866 -2.56802 -1.58002)
(10.1479 -0.0226589 0.508505)
(9.61349 0.895196 0.795856)
(10.0482 -0.205717 0.684578)
(6.89907 -1.09241 1.01507)
(9.54499 -0.63389 0.442724)
(9.88128 -2.51766 0.723213)
(10.103 -0.435792 0.27418)
(11.1357 0.629454 0.538649)
(10.2975 -1.01425 2.53796)
(7.41627 0.331078 -0.728353)
(9.96865 -1.10252 -0.516797)
(6.74321 -2.1719 -0.690229)
(10.8109 -1.58463 -0.642619)
(10.1789 -0.32943 0.517721)
(10.3182 -0.302224 0.623965)
(2.57974 -3.36435 -1.28717)
(10.4071 -0.297467 0.557439)
(10.3967 -1.46506 -0.499038)
(9.73872 -2.57524 2.88215)
(6.03468 -1.94357 -1.14672)
(9.5902 -0.783967 1.5032)
(10.1673 0.420179 0.263611)
(9.08136 0.244969 -0.269516)
(10.2198 -0.322201 0.97071)
(11.5592 0.566756 0.939997)
(9.18417 -1.02625 0.560458)
(9.75721 -2.74179 -2.29372)
(6.2419 -4.26832 -2.09053)
(9.89859 -0.537741 0.634313)
(10.1518 -0.0397049 -0.044383)
(9.54731 -0.508514 -0.365928)
(9.75588 -0.616837 0.296725)
(7.75859 -3.17159 -0.216751)
(-2.6102 -0.438436 -1.86524)
(2.76933 -1.86149 -1.42735)
(10.1867 -0.242114 0.65025)
(3.4826 -2.47633 -2.95367)
(9.68969 -0.504539 0.0928392)
(9.69356 -0.401916 0.204365)
(9.80935 -0.514937 0.0398007)
(5.92908 -2.89832 -0.91369)
(8.97736 -1.401 -0.371178)
(6.11601 -3.17262 -0.114564)
(9.70933 -0.433023 0.107259)
(9.66774 0.467517 0.850274)
(9.94483 -0.263769 0.190461)
(9.78915 -0.274952 0.0208331)
(9.38105 -0.649069 -0.156506)
(9.61107 0.343673 -0.690879)
(11.4632 0.058696 0.86413)
(9.642 -0.430349 0.283316)
(10.1757 -0.288609 0.0173651)
(9.65198 -0.0574059 -1.15294)
(10.3822 -0.321703 0.569371)
(0.363405 2.61227 -1.69953)
(9.88864 -0.525365 0.98348)
(7.91311 -1.99282 0.0304196)
(9.66691 -0.275658 -0.0131305)
(8.11015 -0.92442 2.51349)
(9.68655 0.597237 0.384785)
(10.412 0.583603 -0.494877)
(10.3121 -0.438379 1.35521)
(9.33826 -0.634461 0.857511)
(10.7079 0.0202463 2.71206)
(9.34845 -0.909867 0.0231222)
(9.19639 -1.55 1.03969)
(10.0641 -0.47007 0.726026)
(9.88342 -0.466655 0.352278)
(9.24789 -0.994694 1.28842)
(9.09162 -0.929229 0.248594)
(9.91483 -1.86162 2.21385)
(4.79222 -2.33857 -0.710209)
(9.46007 -1.74804 1.06045)
(8.67189 -1.50218 0.00609512)
(9.78476 -1.51693 4.14363)
(10.5956 -0.22126 0.861605)
(10.273 -0.348303 1.64738)
(9.34281 -2.25325 0.131091)
(8.6631 -1.33153 1.37196)
(10.803 -0.407417 1.65607)
(10.373 -0.213817 0.180261)
(6.73357 -2.21308 -1.72488)
(7.81322 -2.1868 -0.117482)
(10.2092 0.161856 2.75633)
(9.68969 -2.2414 1.27798)
(10.2762 -1.46872 2.76488)
(9.91142 -0.63666 0.725072)
(10.3951 -0.161177 0.763071)
(9.47594 -2.20558 1.7752)
(10.8065 -0.226869 1.41342)
(10.0851 -0.461942 0.862187)
(9.83129 -0.389924 1.07534)
(3.52576 -4.7306 -5.15416)
(7.38041 -3.41534 -0.496942)
(11.1133 0.293124 0.716957)
(7.56637 -2.45973 -0.96216)
(7.53004 -0.180786 2.61727)
(10.7496 -0.149924 0.772599)
(3.29386 -2.65816 -0.199945)
(7.51661 -1.4335 0.27954)
(10.2275 -0.347958 0.887502)
(-0.813213 2.00751 0.388884)
(9.79092 -1.50331 1.57147)
(10.2262 -0.258511 0.649803)
(9.46865 -0.91051 -0.948667)
(8.60991 -3.6894 0.624995)
(9.33944 -2.14728 1.53506)
(9.94341 -0.786456 0.707087)
(10.8266 -1.82018 0.570332)
(1.318 -4.32792 -0.642552)
(8.66588 -5.64192 -1.36633)
(9.81793 -0.400952 0.978732)
(10.3452 -1.30348 2.13627)
(9.92813 -1.53949 1.12637)
(10.1522 -0.519142 1.33721)
(9.95507 -0.525632 -0.0677992)
(10.5204 -0.420321 1.15594)
(9.71317 -0.572312 1.05972)
(10.7259 1.57841 1.56895)
(9.48547 -0.800694 0.421799)
(9.69286 -0.598526 0.551608)
(9.47649 -0.623984 0.114024)
(9.85498 -0.240859 0.340768)
(11.0013 0.0790399 0.864992)
(10.2343 -0.933026 1.75834)
(-0.361159 -2.7076 -2.23698)
(8.96132 -4.67949 2.06606)
(1.33814 -3.47504 -0.412655)
(11.0877 1.07717 0.14039)
(3.85584 -6.05072 -0.726051)
(9.73136 -8.65961 3.31518)
(10.2044 -1.10071 2.46374)
(10.411 -0.315238 0.726027)
(9.83219 0.142289 0.265581)
(6.28216 -0.975041 0.528647)
(10.4731 -0.0224975 0.531129)
(10.1618 -0.0706819 0.548506)
(9.59594 -0.210489 0.454426)
(4.78747 -4.58275 0.0528236)
(8.20831 -1.6239 -0.291477)
(6.84628 -2.33133 -0.374142)
(9.68477 -0.0394174 -0.170651)
(2.7986 0.25391 -1.90071)
(10.1804 -0.36363 1.66091)
(9.73481 -0.208714 -0.159729)
(9.80039 -0.455204 0.241477)
(9.62105 0.235745 0.344318)
(7.83168 -2.73296 -0.892508)
(10.1098 -1.31323 0.776381)
(8.00681 -1.73291 -0.791031)
(9.08588 -0.78069 -1.96531)
(9.86192 -0.389315 0.0508421)
(9.84519 -1.09567 -2.51957)
(9.7896 -0.274448 -0.0674863)
(8.99434 -1.516 -1.23414)
(9.74749 -1.07968 -0.615346)
(9.7527 -2.03507 -0.518984)
(10.1564 -0.328198 -3.12916)
(1.44354 -5.1016 -2.3306)
(-1.3349 -4.85284 -5.62354)
(9.95224 -6.56858 1.50016)
(7.38553 -3.88164 -3.99399)
(9.70373 -4.76936 -1.77275)
(2.5914 -2.49288 -1.54922)
(11.9845 0.0535686 1.55261)
(7.96195 -8.16421 1.77056)
(8.80144 -3.5593 -1.12992)
(8.79198 -1.33252 0.145178)
(6.37817 -3.01333 -0.535917)
(9.55212 -0.221572 -0.386258)
(9.84048 0.142993 -0.121416)
(3.99668 -6.3266 -1.23904)
(10.4128 -6.79078 1.37039)
(5.7921 -3.10401 -4.03664)
(9.36042 -0.0770792 0.503678)
(6.75419 -2.37079 -2.56554)
(10.1092 -0.402896 0.062063)
(9.93074 -0.662665 -0.626117)
(9.71814 0.302649 -0.230254)
(0.503496 -0.0294276 -1.48388)
(-2.8352 -0.928501 -2.51247)
(-3.22573 -4.9613 -3.91178)
(10.0132 -0.701061 -0.588495)
(3.28574 -4.11262 -0.822155)
(1.76684 -2.86582 -0.684917)
(10.1068 -1.03923 0.617872)
(-2.33552 -0.364182 -3.0558)
(10.1356 -0.99319 -0.43916)
(-0.961875 -4.21136 0.587821)
(9.78715 0.0532235 0.359593)
(8.86737 -0.870261 1.37688)
(8.74432 -6.48936 3.82617)
(10.2047 -3.2459 1.67597)
(7.82312 -3.30667 -0.669429)
(10.4089 1.55628 0.195658)
(10.3495 -0.979276 3.55639)
(10.6778 0.228962 2.78427)
(4.04846 -4.88534 -6.1032)
(9.51137 -2.92958 1.97008)
(8.78412 -2.95397 -0.185508)
(0.551442 -4.29533 -2.25856)
(7.60872 -2.86142 -1.30052)
(9.588 -0.524287 0.133036)
(3.98267 -1.52017 -0.820241)
(-0.669281 -1.37699 -0.32354)
(2.95327 -5.26449 -1.26891)
(3.34596 -2.39491 -0.365952)
(7.97444 -1.75712 -1.35805)
(10.2377 -2.32276 -0.749427)
(4.92331 -1.89777 -0.755601)
(11.0239 -6.24345 1.89822)
(9.05026 0.350743 0.0790891)
(9.97473 -0.236125 -0.189349)
(10.0483 0.194273 -0.229901)
(9.90124 -0.733791 -0.976164)
(9.9055 0.121777 -0.389059)
(10.5498 -0.385408 0.0277838)
(10.0232 0.112966 -0.228585)
(10.091 -0.183173 0.37344)
(9.54126 0.455801 -0.0767653)
(9.55551 -2.59864 -2.38842)
(9.21069 -2.50718 -2.36692)
(10.2546 -0.795391 -0.421829)
(9.13095 -3.77978 -0.997602)
(9.82645 0.925361 -0.358138)
(9.83384 -0.106682 -0.365735)
(9.91655 -1.13206 0.43005)
(9.47549 0.0355385 -0.226103)
(9.84395 -0.537935 -0.577465)
(10.2081 -0.89445 -0.67452)
(6.33328 -1.79397 -5.36268)
(9.92534 -0.289076 -0.317082)
(9.67537 -0.630576 -0.489341)
(9.83751 -0.528845 0.263484)
(9.86425 -0.0876858 -0.350766)
(10.3612 -0.00958175 0.00737531)
(9.59787 0.166804 -0.712645)
(10.2737 -0.937934 -0.364022)
(9.64363 -0.547309 0.431527)
(-1.21205 3.58631 -2.7997)
(9.99042 0.0189043 0.379451)
(9.53976 -0.32438 0.290058)
(9.63094 0.412249 0.586344)
(8.85325 -0.873108 0.301957)
(7.72172 -0.438458 -6.17268)
(9.64369 -2.5455 1.32723)
(10.0688 -0.419416 0.74148)
(8.20417 -5.99772 1.86134)
(10.6983 0.0710803 1.51984)
(10.9462 0.530753 0.16591)
(8.56151 -6.92143 1.92082)
(6.43341 -5.08469 -0.233052)
(11.9854 0.288734 2.42384)
(7.0325 -2.6461 0.890557)
(10.7574 1.45856 1.54714)
(9.86916 -0.47576 -0.248765)
(0.455038 -2.80002 -1.23176)
(11.5592 0.0378913 0.338642)
(-0.71745 1.98628 -0.206031)
(-0.0994954 -5.95102 -1.14887)
(1.15881 3.47365 -1.43932)
(5.94712 -0.883227 1.48996)
(11.2294 -5.89581 -0.159684)
(7.48639 -7.16135 1.58305)
(0.610465 0.74833 -0.654976)
(-3.37419 -4.63216 -2.79192)
(8.01168 -2.59918 -0.590658)
(10.1936 -0.394977 0.968456)
(2.22157 0.0639355 -2.00357)
(2.2831 -3.07767 -0.79774)
(7.86805 -2.52051 -0.563708)
(-1.57496 -2.11232 3.12988)
(0.928488 -3.29336 0.103181)
(0.178495 3.36369 -2.40564)
(9.8749 -0.469128 -0.38306)
(9.88999 -0.179419 0.184192)
(9.57784 -0.0768069 -0.372655)
(10.1039 -0.0524572 -0.276464)
(10.0436 -0.642855 -0.685919)
(9.78305 -0.763709 -0.797577)
(1.54184 -2.18384 -1.08777)
(9.89464 1.0321 -1.97162)
(10.1866 -0.25169 0.651157)
(10.1338 -0.0741866 0.0524995)
(9.63201 -0.395834 0.588891)
(9.79843 0.239052 -0.0307098)
(1.21992 -2.2942 -0.0584856)
(10.4195 0.742418 0.322425)
(10.0084 0.0741263 0.0330915)
(10.188 -0.365312 1.06539)
(8.99799 -2.00725 1.12067)
(10.3876 -0.40971 0.195567)
(9.90324 -0.377886 0.295706)
(9.51635 -0.850277 0.199547)
(10.5054 -2.26812 0.758355)
(1.08521 -2.38616 -0.437057)
(0.16427 -2.21377 -0.396716)
(9.62868 -0.66688 0.541746)
(9.7391 -0.598801 -0.930998)
(9.91835 -0.86444 -0.225488)
(10.1792 -0.453041 0.867715)
(9.9525 0.203255 0.182825)
(9.49839 -0.53984 0.564752)
(10.0848 -0.502618 0.576939)
(8.26207 -3.02133 0.00479404)
(5.99305 -4.55665 -1.3659)
(12.3879 -0.0634971 0.727441)
(9.8621 -0.22669 0.530035)
(9.79893 -0.417389 0.526675)
(4.84272 -7.38641 -0.195917)
(1.98793 -7.46335 -0.16451)
(5.34884 -5.97301 -1.08658)
(6.02512 -2.39426 -1.7482)
(9.44106 -0.615729 0.255457)
(9.95433 -0.925271 -0.852161)
(10.8944 1.27323 0.195947)
(4.56313 -0.373426 -2.77257)
(9.21218 -6.22732 4.70948)
(0.658747 1.55387 -1.68556)
(7.00158 -4.75564 -2.29692)
(10.2541 -5.0068 -1.43305)
(9.97261 -1.248 -0.405961)
(6.66707 -6.16885 -2.02245)
(10.1313 0.430366 -0.123529)
(7.41923 -4.12418 -0.520267)
(8.76112 -3.81108 0.41536)
(4.31144 -3.51261 -1.96381)
(10.0547 -0.804478 -0.644353)
(9.42898 -0.735443 -0.568735)
(7.85237 -3.34528 -0.23024)
(7.69181 -2.66613 -2.18742)
(3.22084 -4.96681 -1.10715)
(9.78703 -0.382021 0.906097)
(9.88387 -0.300429 0.475946)
(10.1233 -0.106882 -0.402057)
(6.55156 -3.74036 1.79008)
(9.81372 -0.415904 0.334546)
(9.67303 -0.329024 0.229018)
(5.34098 -1.9116 -1.91789)
(8.22993 -1.59553 -0.576974)
(8.63828 -1.97678 -1.29807)
(10.2385 -0.352841 1.05394)
(9.60534 -1.14728 -0.0699417)
(9.88602 -1.36929 1.06554)
(9.89052 -0.40569 -0.257399)
(9.58894 -0.512989 -0.487183)
(2.01107 -6.96701 -2.93337)
(10.1017 -0.415932 0.140751)
(9.99337 0.0984184 0.283255)
(9.62817 -0.636185 0.39504)
(9.73166 -0.625064 -0.0291579)
(9.89314 -0.201154 0.0502084)
(9.60386 -0.304025 0.315791)
(10.4837 0.469267 -0.835075)
(9.98233 -0.201716 0.226982)
(9.81979 -0.471041 0.661835)
(-0.783128 0.738469 1.7134)
(5.1857 -9.17749 1.82392)
(11.0985 0.233975 0.745248)
(10.3703 -0.0118725 0.489033)
(11.0374 0.217992 0.202809)
(10.6657 -0.333917 1.16572)
(9.74875 -2.78445 -0.973652)
(10.444 -0.152244 0.737376)
(10.1167 -0.114608 0.631056)
(7.98888 -3.27174 -0.306715)
(7.47099 -4.4905 -0.366306)
(7.15758 -7.91412 2.28591)
(10.1829 -0.291919 0.895786)
(10.5146 0.0600899 0.559873)
(10.0638 -0.172697 0.412587)
(9.89198 -0.416593 0.728622)
(9.96181 -0.368658 0.584502)
(10.3746 -0.177638 0.723923)
(10.4016 0.00864814 0.420207)
(9.75251 -0.38367 0.806999)
(5.79403 -4.81883 -0.422938)
(10.9898 0.328022 0.396193)
(7.15392 -0.932944 -0.443532)
(10.4263 -0.551948 2.45576)
(6.56763 -1.34 -0.387727)
(6.06825 -1.22468 0.0043073)
(7.99935 -4.88778 -0.342625)
(10.1932 -0.393264 1.2371)
(11.3858 0.0650877 0.768449)
(7.31054 -2.87174 -0.553841)
(5.72903 -0.475502 0.620105)
(10.4475 0.179059 0.465793)
(0.471299 -1.70127 -0.87603)
(9.80465 -0.191159 -0.257342)
(10.4486 -0.236376 0.843148)
(-1.5582 -0.257957 -1.59756)
(10.7267 -0.0196643 0.520496)
(9.06461 -0.432434 0.387193)
(9.29885 -0.542804 0.3511)
(10.3398 0.252853 0.119894)
(9.92199 -0.131837 -0.435386)
(9.7111 -0.84254 -1.34826)
(11.1177 -0.152781 1.01158)
(10.89 -0.0163899 0.587303)
(11.7743 -0.0622611 0.158786)
(9.85887 -0.411118 0.449084)
(9.82645 -0.431376 0.613452)
(9.64479 -0.385813 0.588842)
(9.67347 -0.482627 0.415687)
(9.82354 -0.0796424 -0.408232)
(10.1143 -0.754386 -0.263796)
(0.80451 -3.58444 -5.37661)
(1.27368 -4.04806 -5.66552)
(9.86818 -0.437932 -2.78276)
(10.1214 -0.741233 -1.41986)
(9.19455 -0.769137 -0.704299)
(9.99382 0.084589 0.386364)
(9.24618 -0.649499 -0.47926)
(9.31394 -0.583903 -0.595636)
(7.05115 -2.09762 -2.00905)
(9.79307 0.77624 0.26238)
(10.3223 0.485107 0.153117)
(-1.58904 -1.38798 -1.49912)
(-1.02239 -2.43211 -0.763295)
(-0.184805 -5.51951 -3.05972)
(0.711898 -5.80221 -4.60582)
(0.172871 -2.35376 -0.456043)
(10.2098 -2.14468 2.51346)
(10.0784 -2.97772 2.99634)
(10.2198 -2.0793 2.39405)
(10.4557 -1.35142 2.35826)
(6.04052 -3.84362 -0.37872)
(9.66866 -1.57669 -0.170671)
(9.91808 -1.44203 -0.14508)
(9.63102 -1.48333 -0.121184)
(9.71303 -1.254 -0.174146)
(1.96787 -6.83003 -0.700425)
(7.60983 -3.35014 0.264172)
(6.06601 -7.45581 0.985598)
(7.3988 -3.52952 1.04271)
(0.890207 -5.51648 -2.94386)
(0.267324 -5.6417 -2.73675)
(7.67222 -4.29229 -0.280832)
(-1.53056 -4.54479 -1.81151)
(7.38003 -6.29738 0.131042)
(7.22878 -5.9526 -0.226436)
(7.15874 -5.12366 -0.125053)
(0.384569 -1.54883 -1.59044)
(0.307689 -2.00391 -0.585305)
(0.710709 -0.158889 -0.864122)
(2.50011 -3.17863 -2.66494)
(7.99987 -2.05472 -1.71532)
(7.51001 -1.86779 -1.31911)
(3.46667 -2.93178 -3.0685)
(9.92495 -0.262444 0.497944)
(0.23779 -1.68093 -0.89197)
(10.4329 -0.263304 1.04679)
(10.1045 -0.678405 1.09761)
(-0.0527258 -1.88208 -0.516403)
(9.25523 -0.358698 -0.692687)
(9.87782 -0.390953 0.0748044)
(9.87249 0.374835 0.446951)
(-0.433666 -1.28449 -0.896293)
(13.2299 -4.34744 0.563912)
(11.2073 -3.4431 -0.175344)
(10.1708 -0.35386 -0.00137692)
(10.3237 -0.246111 0.604689)
(9.79471 -0.338768 -0.108094)
(6.98588 -0.845167 1.19253)
(10.0063 -0.463995 0.825863)
(8.62599 -0.695541 1.41706)
(10.0196 -0.533678 0.710814)
(10.8939 -5.04853 0.39558)
(10.27 -0.229499 0.779038)
(0.0864892 -1.78032 -0.343817)
(11.4875 -0.00569891 1.10309)
(9.72126 -0.47441 0.575705)
(11.4262 0.499678 1.45461)
(8.2148 -3.72836 0.343999)
(10.6542 -3.77468 0.899837)
(5.60876 -1.26048 0.714553)
(3.62787 -3.63777 -3.31805)
(7.21791 -3.19429 -0.0929705)
(8.43652 -4.71266 1.36266)
(11.3827 0.958257 2.05774)
(8.63421 -3.84176 0.263463)
(9.55152 -1.83698 0.652582)
(2.95491 -1.64311 2.36189)
(-1.71971 4.26257 -1.36296)
(11.604 0.716485 0.303715)
(10.937 0.620671 0.501202)
(9.60693 0.00588089 0.30902)
(9.90307 -0.169725 -0.448422)
(9.9439 -2.01846 2.61814)
(8.45142 -5.86926 1.27826)
(9.15807 -0.712847 -0.180969)
(9.05949 -1.76382 -0.601406)
(9.54273 -2.03187 -0.469634)
(10.6768 -2.06933 0.882659)
(4.17608 -6.39782 -2.0232)
(6.18204 -5.39951 -0.520481)
(8.11723 -4.42626 0.231598)
(11.4908 0.263836 0.197539)
(9.82487 -0.417055 0.714994)
(11.1118 0.14647 0.779092)
(9.27983 -0.723607 0.985521)
(5.30483 -2.90894 -1.69539)
(9.92069 -1.2578 -0.637644)
(5.31481 -1.36276 -1.04796)
(10.414 -0.358461 1.67799)
(6.05654 -0.638706 1.15805)
(8.49408 -0.646864 2.40576)
(10.6375 -0.118014 1.25453)
(10.5638 0.672903 2.72114)
(9.31215 -0.921016 1.81241)
(10.5887 -0.453153 1.60928)
(10.0216 -1.75356 1.99443)
(9.77178 -0.501093 2.6371)
(9.96918 -0.304288 0.63675)
(11.0043 0.143296 0.721212)
(6.2427 -2.18283 -0.209044)
(9.99243 -0.28762 0.198533)
(9.26374 0.00990518 0.333069)
(9.97502 -0.135889 0.207869)
(9.59958 -0.731115 1.62765)
(6.63794 -1.0734 -0.825659)
(10.4144 -0.321935 0.0875149)
(9.30859 -0.624158 0.893648)
(9.85545 -1.74916 0.017338)
(10.2161 -0.249337 0.211934)
(10.9587 0.534377 0.851525)
(10.0677 -0.400433 0.528228)
(10.304 -0.0417665 0.362859)
(10.1562 -0.00621399 0.058779)
(9.98445 -0.278018 0.166772)
(9.55546 -0.158861 -0.164411)
(4.43512 -2.16393 -1.71454)
(9.42049 -0.492641 -0.186427)
(9.98321 -0.182788 0.0386468)
(9.75306 0.0813931 -0.466162)
(9.91241 -0.496607 0.331115)
(10.0744 -0.0757327 0.0932811)
(0.965728 -3.04189 0.0378005)
(3.0512 -2.39557 -1.35248)
(10.0388 -0.100557 -0.0401489)
(10.188 0.315007 0.418363)
(9.9854 -0.221278 0.17241)
(9.86406 -0.373662 0.00264817)
(9.52189 -0.545451 0.691189)
(10.4429 -0.140342 0.643306)
(9.76674 -0.0433255 0.150805)
(9.86078 -0.350596 0.0622749)
(9.62477 -0.530788 0.96476)
(11.3837 -0.223821 0.96587)
(9.75932 -0.258999 -0.296857)
(10.2063 -0.428224 0.323675)
(8.0221 -2.10042 -2.88372)
(9.13895 -1.91717 1.31005)
(7.58045 -1.62816 0.498198)
(11.9177 -0.222318 0.495966)
(9.5484 -0.569173 1.09856)
(9.87431 -0.340209 0.200647)
(9.38028 -1.43654 -0.158931)
(10.7492 -0.184327 0.798345)
(1.61177 -4.86568 -3.46207)
(10.4286 -0.113046 3.59276)
(10.0504 -1.54599 1.15334)