/*--------------------------------*- C++ -*----------------------------------*\
| =========                 |                                                 |
| \\      /  F ield         | OpenFOAM: The Open Source CFD Toolbox           |
|  \\    /   O peration     | Version:  2506                                  |
|   \\  /    A nd           | Website:  www.openfoam.com                      |
|    \\/     M anipulation  |                                                 |
\*---------------------------------------------------------------------------*/
FoamFile
{
    version     2.0;
    format      ascii;
    arch        "LSB;label=32;scalar=64";
    class       volScalarField;
    location    "0.0380695";
    object      omega;
}
// * * * * * * * * * * * * * * * * * * * * * * * * * * * * * * * * * * * * * //

dimensions      [0 0 -1 0 0 0 0];

internalField   nonuniform List<scalar> 
3975
(
68.9867
53.7009
78.6288
49.2981
48.91
61.6542
59.0713
61.2459
49.3562
47.4897
48.2027
123.266
48.1829
159.213
47.7267
65.7306
62.382
63.0358
70.7641
95.4294
167.556
131.3
67.9711
68.6456
68.8909
50.6912
383.27
80.4243
59.3188
77.9937
49.6544
107.763
50.6298
87.1405
103.894
80.9791
77.4367
54.0547
80.9811
76.332
78.9264
74.7084
75.4691
46.7829
65.9104
46.3545
47.1975
46.8073
73.9598
140.421
82.203
46.4531
51.9787
122.978
123.075
134.127
119.155
94.6885
80.4076
71.5099
58.7615
550.004
103.772
57.5851
52.953
130.553
52.0317
49.1695
130.955
1057.1
1019.08
1666.52
766.744
75.3073
64.7178
69.9924
64.5724
67.0127
69.8917
65.4268
48.405
49.9891
60.0166
95.5825
45.806
90.1809
62.0974
48.0811
57.8898
105.718
48.6828
49.4616
134.815
72.0175
1051.82
63.063
73.913
542.641
52.2984
465.57
46.1739
329.738
53.9617
57.9319
48.8932
158.235
76.2137
61.0671
61.1608
62.5562
97.5106
69.2916
73.6095
71.9439
84.6188
107.829
109.036
110.247
139.987
66.0716
51.0586
159.341
84.6502
114.218
90.1183
134.653
105.421
136.175
132.937
139.443
135.326
129.166
78.9536
77.1267
77.4108
73.9951
139.8
70.6947
124.551
53.2852
65.1205
49.5337
53.8143
48.1502
179.358
49.2875
49.5036
133.678
65.5221
130.68
56.6114
110.212
95.8798
63.9373
551.49
59.2149
51.6528
65.6315
46.1383
82.5989
47.7691
45.9857
76.3109
142.873
52.1576
79.7982
87.5414
1119.74
126.903
48.4785
46.8849
45.8365
95.5829
62.0552
1040.97
46.7024
61.7127
198.48
89.1254
65.092
60.3384
88.3382
110.19
113.259
125.798
54.6208
108.045
81.1789
77.9372
117.257
59.3838
65.9795
143.139
91.1639
57.54
117.844
206.055
47.4088
51.6589
48.6495
128.422
46.2951
52.6735
46.5107
47.5533
47.7765
99.7951
886.889
56.5105
836.731
51.0384
112.49
50.083
76.2451
148.091
50.0808
62.3475
81.6382
50.2293
58.3507
67.6974
79.3793
49.4317
64.1921
62.5149
75.7488
834.444
48.5948
112.412
46.1951
139.861
54.3388
56.2638
87.6751
48.2797
47.3628
58.5263
63.8892
283.75
69.5927
47.0019
112.75
48.8914
111.03
74.8521
852.698
59.8575
72.2018
741.43
45.5086
46.7574
46.7574
69.0851
982.333
70.9223
78.7773
109.618
124.034
600.137
657.417
97.37
244.971
52.2287
69.2802
109.505
54.1266
891.517
49.0718
79.1124
74.5723
75.4864
179.168
182.296
147.207
129.439
121.302
156.078
58.4267
794.757
439.497
524.694
58.4353
77.3526
47.3225
85.4047
148.153
186.46
162.374
740.918
135.996
100.816
56.2363
75.9912
86.6847
62.3984
67.8431
76.0881
67.164
89.4306
107.528
92.1557
83.6001
82.1194
105.03
110.755
99.4243
117.502
154.812
145.608
68.276
50.8315
50.7476
54.0974
53.8921
61.6491
123.5
64.781
75.7726
48.8983
48.3944
47.4414
119.951
80.0786
72.5024
229.642
62.7848
68.3092
79.0849
207.788
115.115
62.6193
61.7463
63.4876
63.2957
129.339
98.3987
76.9882
140.767
180.396
196.367
90.1998
108.31
69.9938
93.4615
83.9995
64.2632
47.9319
50.0583
47.7645
47.2188
121.341
68.969
92.0318
92.0734
60.9087
60.6061
53.9684
108.818
51.2476
50.2648
53.0877
817.756
60.9321
49.1589
49.3156
49.3657
70.7421
49.0916
63.1796
48.8502
49.7733
155.46
53.6203
68.8575
122.288
74.1167
49.5316
1095.51
223.888
72.7391
462.819
143.86
48.7693
200.356
156.199
159.993
103.18
207.184
153.398
149.927
91.4217
51.5467
160.447
50.2126
50.3301
53.9731
77.2925
76.8932
74.692
72.3309
64.3579
80.3631
115.216
90.5489
65.1167
86.0051
66.2379
69.6571
69.2673
54.9871
76.2757
67.7816
274.634
493.801
51.6758
822.119
63.8655
49.7762
142.876
65.5399
78.9798
69.4332
49.76
243.767
245.38
268.078
62.889
155.704
47.1064
251.787
121.559
59.3585
60.8146
384.459
71.0726
85.6426
53.8513
108.696
217.9
60.2834
97.5723
64.4381
232.006
756.658
785.576
63.1185
50.4627
105.623
901.243
54.4514
52.6046
52.2426
53.9995
54.5858
114.245
47.4897
62.3519
48.3337
65.328
49.6307
49.9602
218.227
49.0726
48.0625
164.966
49.6795
49.8307
46.0057
49.9371
47.633
147.76
47.5143
48.009
82.206
50.4754
470.189
48.7638
49.9437
49.8562
48.6387
136.333
47.2222
50.3908
51.4135
150.745
150.34
129.332
653.724
1155.92
125.755
64.1704
52.1419
56.9174
267.27
53.0112
51.9769
50.0103
52.305
76.3505
305.393
871.592
48.1014
47.1511
53.6403
48.0531
49.0626
62.2471
723.451
54.1583
51.1501
72.3021
48.6823
55.6017
1293.44
78.4583
68.4101
47.0431
58.7286
48.0111
144.935
74.6026
126.033
88.6077
447.948
513.354
145.043
94.2801
1132.85
49.7377
60.7689
47.4219
56.0775
49.1589
45.821
70.5077
60.3561
54.5182
207.146
1070.18
61.9495
46.937
47.4405
48.2723
110.075
377.796
814.147
60.0994
1078.07
362.485
57.8336
166.791
48.9171
73.1529
51.6105
134.214
145.512
71.1843
69.0709
52.9856
65.2785
59.8476
62.5825
192.948
488.756
462.236
815.168
1501.89
283.096
1115.75
793.516
48.1212
47.4196
46.3646
46.8138
48.0811
48.1887
46.4253
52.7591
46.6426
73.5729
48.3479
104.75
77.1377
102.927
47.5074
45.737
45.5214
47.3033
50.9808
55.3557
65.0669
48.0422
49.7936
194.416
63.3456
51.0044
46.8606
57.153
48.7796
48.0707
50.9826
51.9116
882.248
115.704
73.9158
90.1825
85.8211
64.7848
65.9674
80.1044
70.2852
63.8237
47.1096
51.2622
98.7875
50.7256
48.8138
48.4044
49.6938
210.714
46.9914
46.6842
47.4057
46.4705
56.8271
50.1602
67.1039
46.7281
63.6825
45.5254
80.8574
52.9109
98.0391
49.3191
48.6075
49.1512
47.2456
50.3304
67.0178
61.2129
46.5428
125.163
109.439
48.2305
46.8529
107.048
148.439
61.0231
140.981
111.745
60.1701
60.6016
401.362
849.809
77.8045
732.06
180.646
194.411
103.437
703.55
415.905
947.235
54.5266
1045.78
823.206
977.332
878.566
854.88
50.614
51.3412
57.8746
58.5461
57.515
52.8576
57.3097
212.625
47.4375
46.3075
46.0897
48.1545
73.7421
50.5564
47.0468
86.0836
111.049
51.4939
55.254
47.5265
49.5376
129.257
57.8451
91.8209
53.2232
51.2804
138.254
64.7845
280.426
73.8397
53.2231
54.303
221.989
46.6007
58.4057
920.848
50.5534
101.558
60.5297
49.4516
47.5847
422.452
63.6695
51.792
50.28
91.8855
49.4577
50.8327
80.8888
117.292
65.8648
56.5794
49.1515
51.7097
77.7202
46.537
88.5317
47.1645
148.171
47.4157
48.2498
51.2507
64.0605
61.8678
52.7622
60.8774
62.5705
56.2692
59.5178
64.418
655.252
61.74
549.003
62.2907
225.289
77.8832
871.106
59.6996
50.5518
47.299
90.4507
52.9692
270.943
52.945
59.9574
51.8639
361.117
66.9648
48.8769
49.7156
48.4559
46.0061
47.6716
48.3518
112.813
47.74
49.1825
79.2657
47.3369
46.4522
130.532
46.858
119.508
46.7179
47.4182
47.1338
69.8739
47.3931
52.4859
55.5937
50.6597
61.7858
131.811
767.032
149.967
54.0964
48.5462
65.8212
70.3803
47.7151
64.4511
53.4804
59.2066
61.5746
1037.31
48.4111
107.608
159.969
55.9726
67.6135
51.3444
67.7526
68.2715
57.5365
64.0141
65.7338
1125.63
47.3897
51.5236
51.5272
1077.9
92.5131
66.6575
51.428
46.4989
191.85
256.481
95.7167
1015
112.571
113.026
518.133
70.6537
62.2452
72.3646
63.6478
87.4324
464.984
422.028
51.8355
786.45
437.06
579.144
552.578
1130.37
804.977
866.822
429.112
110.483
111.1
872.709
436.975
216.108
877.812
832.232
99.111
162.21
65.2989
97.914
136.594
163.308
66.1129
55.9366
162.608
135.873
351.154
348.818
113.015
75.7302
373.639
384.686
55.7103
160.519
84.4426
74.8044
64.2102
66.5509
63.1019
51.1412
51.7804
50.2869
48.1789
64.2629
63.9087
53.3293
51.979
53.2789
49.3435
53.8458
49.5022
51.5656
50.9993
159.506
73.0413
89.0108
85.6766
64.32
47.3491
49.4851
86.6541
52.0324
77.6547
76.7272
101.497
88.3794
90.376
76.1784
113.93
63.708
60.6289
67.348
117.126
187.024
375.233
254.287
339.487
330.238
370.647
73.4415
86.3142
80.2453
75.565
58.8584
64.7011
66.5911
76.0123
53.1483
54.2958
53.9885
112.908
81.7936
139.595
610.695
86.8759
207.649
78.6055
75.8908
51.8525
49.9535
57.9037
134.581
81.4115
157.387
130.91
91.1805
112.741
68.0597
693.361
67.6171
57.1713
85.1899
81.1541
98.6692
107.411
151.565
140.134
140.175
122.303
75.5597
71.718
80.7567
96.2706
82.1771
64.4221
79.5013
68.3465
59.4065
55.9836
59.0027
58.8924
51.9057
56.1243
61.6902
49.9735
51.9602
49.7063
47.5617
48.4878
47.2367
49.1127
48.2389
48.7588
47.198
46.8988
48.3325
48.2671
70.707
53.649
49.0024
50.9906
52.0917
60.477
156.288
341.063
71.4895
64.9382
59.0985
132.809
84.6902
442.128
159.571
52.7864
138.322
54.118
100.404
64.4962
50.2305
55.0892
98.4686
106.808
54.944
66.664
68.2058
66.6455
61.3506
106.92
49.6726
50.5097
53.6803
198.133
514.425
54.8454
967.229
46.9358
46.7216
66.8888
104.313
52.2868
47.958
55.3171
115.587
58.4516
49.1498
53.3426
61.8428
63.9096
72.3324
76.7555
54.3059
47.9328
124.205
46.3852
741.673
87.7475
61.96
73.6184
103.972
112.127
192.796
143.993
71.5241
62.6836
81.222
59.2102
84.9425
58.6573
64.8538
66.2878
77.9313
80.6847
108.828
89.7966
54.933
54.0132
70.4386
121.663
131.768
49.1098
47.5394
56.7631
77.1905
154.983
45.4095
62.5283
126.887
147.727
76.4463
50.1446
55.8963
48.5129
49.2744
58.271
64.9701
48.0868
60.3359
59.1181
90.6673
48.9697
53.7268
54.0554
62.6971
90.2199
48.1639
111.022
86.7729
48.9117
303.099
706.532
87.6186
73.138
53.1833
66.6539
80.2602
61.6718
63.25
47.961
75.3677
47.7626
49.2228
51.0764
131.177
54.3271
77.9163
53.8524
1346.07
178.992
212.834
360.22
94.378
60.2571
47.1643
48.5887
77.938
101.389
66.2813
87.9122
56.422
47.6625
49.5408
62.0037
47.9019
92.7118
65.2385
54.973
62.8333
62.5572
165.799
52.1133
583.946
866.366
1222.38
1179.28
924.423
52.8072
97.5531
52.3345
76.7983
53.0835
659.404
107.306
283.024
821.388
441.634
394.477
1329.76
554.133
67.0449
80.7685
56.8954
50.5092
52.7129
64.4348
54.5495
49.2015
48.2339
176.757
964.302
194.063
57.5961
57.5799
266.498
433.408
63.2127
91.6026
51.2547
45.2922
45.5626
54.2756
56.0367
48.7418
47.2529
51.6047
47.6714
47.1998
48.9449
52.4977
48.7521
48.7899
66.6815
52.0326
48.4251
129.97
45.261
366.049
47.4118
45.6933
56.7454
818.144
776.416
58.4417
50.5048
53.3085
55.3873
72.2165
56.2154
59.3266
390.511
45.4213
47.6711
46.8865
47.6304
45.9728
75.3559
57.1728
68.0813
47.6941
68.6437
49.4984
48.4225
49.2192
47.2258
49.1717
47.6416
47.681
105.435
61.2305
60.5283
73.8279
101.609
57.787
63.2158
116.108
49.282
47.8823
53.1816
48.7936
114.724
47.94
74.0254
110.358
1530.38
51.1338
51.4761
59.2268
76.3228
48.8744
540.174
51.6846
893.916
324.302
167.957
269.021
113.014
586.994
50.6541
46.1353
46.4556
504.034
46.51
186.228
678.605
1091.87
146.694
1350.87
343.984
909.898
111.563
48.313
80.6963
72.7719
926.19
907.175
811.642
706.186
755.799
763.133
190.522
83.1103
54.2392
95.522
57.0957
53.5555
71.4965
60.6601
54.13
181.707
47.6995
90.702
55.8807
52.5565
130.748
65.2418
1277.8
104.854
47.5654
51.249
54.283
51.4426
53.468
83.6568
64.152
54.1433
80.0931
48.7498
49.0691
49.0519
53.3436
47.8775
205.375
46.131
52.6809
185.323
60.3173
90.7284
55.0769
175.513
53.9973
161.719
61.6783
720.287
739.089
61.1469
85.8414
137.905
185.568
141.205
213.08
124.316
77.0505
96.6993
46.5076
45.5011
53.4712
60.0403
54.3382
61.4053
54.0478
62.866
61.2106
61.2992
135.479
111.087
60.2518
136.016
105.474
126.688
52.0647
50.9176
85.798
50.87
48.1371
53.8551
49.7905
57.8036
49.0403
48.7627
47.6518
47.5685
47.6624
132.448
58.5546
48.3337
54.6765
47.5933
48.8565
55.38
50.3804
49.6871
58.8434
126.734
572.242
206.349
62.3258
1185.77
807.495
57.7623
229.339
108.633
114.088
61.2283
49.7556
93.9814
64.8714
73.5101
64.7893
66.7944
46.5531
815.154
74.0416
325.085
64.7103
893.072
54.0816
77.0963
66.5107
71.8659
112.371
169.415
364.873
87.4258
76.4497
62.3589
61.8701
65.3925
58.2141
1057.28
1083.39
93.3834
75.1041
144.173
70.5518
118.32
63.6432
70.0176
119.993
140.088
146.105
191.909
157.473
226.704
179.267
398.746
440.291
414.87
493.969
46.5089
46.6856
81.3745
46.1067
118.616
61.818
171.147
123.957
172.01
51.1626
66.3103
62.5678
66.1335
97.9069
58.9082
75.605
47.9016
55.833
50.2915
48.0659
120.564
288.42
47.1254
1068.4
71.484
68.6764
98.0211
62.0684
60.8883
58.4761
197.883
89.2707
115.111
54.1946
101.66
88.5878
101.622
82.0699
56.9153
55.7348
50.3214
81.551
47.0409
73.6709
69.2198
64.1182
214.793
67.986
187.491
233.394
51.1714
96.6259
99.568
964.6
127.024
65.2462
50.8569
66.3627
351.118
56.3564
816.054
46.7606
60.9898
54.1356
857.383
47.1669
1005.72
984.112
765.555
85.1031
92.282
63.478
68.9172
69.6491
848.663
64.0837
1583.93
160.371
346.754
66.0152
68.8455
66.0288
53.8098
56.1206
51.4978
62.2018
199.573
89.5957
83.0596
105.355
53.203
224.976
50.016
95.0557
66.0057
83.8857
83.1124
55.8495
93.785
70.7761
229.469
87.4001
58.9107
53.7767
64.9447
48.0455
108.022
49.2397
154.579
66.8763
52.6394
48.2114
341.681
193.518
61.8648
279.741
80.8651
48.7664
50.653
49.2685
52.7619
53.7007
67.4974
73.9198
135.1
131.34
48.974
98.4631
56.4105
105.525
54.3839
124.853
51.4181
46.556
57.7435
103.472
51.7903
65.6712
69.0738
229.821
70.1546
55.3467
834.986
830.195
1040.77
137.879
202.012
120.082
50.3417
53.2748
62.4807
66.3993
102.747
46.0188
114.911
57.6373
505.171
561.266
46.321
46.7029
54.8913
137.436
57.9644
78.8387
57.7768
82.1202
495.268
56.1092
54.2517
55.418
79.467
54.6232
747.291
63.2065
817.599
109.986
127.913
902.846
202.206
551.53
362.537
87.299
103.188
63.2714
78.671
59.1771
622.624
68.0796
64.0299
80.7652
751.696
808.993
591.047
91.7183
442.307
109.691
72.5728
893.212
67.1189
76.3751
65.3927
62.6
66.4845
592.166
1021.96
908.403
54.1016
67.9668
72.2943
93.4315
50.1751
47.1541
52.872
56.1556
108.886
58.427
50.2522
66.3785
48.4914
115.797
58.592
50.0875
162.409
63.0667
45.5969
46.3369
61.5804
46.0627
47.0134
61.9907
58.47
1072.5
60.8189
63.5407
47.1842
137.782
47.7706
140.013
244.017
48.7474
48.4213
50.2471
46.3692
47.4451
71.7028
229.484
266.386
48.2263
48.4221
53.9794
46.0695
45.9684
97.25
46.2586
69.5177
95.8206
45.4009
442.351
608.734
288.064
87.4786
105.381
54.3414
69.5287
60.0157
51.6084
52.8938
60.2908
54.381
51.7124
132.235
145.27
127.709
110.47
68.6492
106.933
69.758
77.7335
69.9747
73.4294
461.102
90.0511
85.0235
50.1136
117.329
103.97
80.454
108.406
306.495
407.027
109.231
46.2598
46.9275
120.172
137.803
153.12
45.7898
46.6271
45.9161
50.4608
53.3175
124.058
66.2222
90.617
150.259
576.916
192.767
57.7724
60.8315
57.2198
57.5134
209.542
137.058
67.0751
92.788
91.3252
108.567
218.788
51.382
86.6209
91.2654
55.6155
65.4361
54.3814
148.618
48.7345
268.56
628.945
46.7145
46.9577
46.8915
48.2227
128.875
46.8541
71.1701
64.7764
67.6129
216.497
747.878
914.291
56.4706
1132.57
832.976
509.665
649.591
1068.48
272.424
55.3493
56.1069
504.13
76.0353
74.271
76.7833
204.784
534.711
232.367
129.266
404.633
498.17
60.5257
56.1505
1031.55
873.28
854.764
917.031
1124.01
837.042
916.865
58.3942
823.901
59.0644
70.6851
63.7091
65.5065
45.4199
47.6005
47.8757
68.7504
77.4591
55.8135
47.8402
53.2247
48.5811
55.3849
52.5047
48.6084
48.0354
58.6077
54.0474
58.3839
157.683
52.0121
51.7035
46.4055
46.4745
62.8001
60.7458
47.2981
45.6653
55.441
54.7596
60.6747
90.1661
159.364
60.3472
46.7496
63.9079
130.103
57.1633
202.019
47.4656
47.62
80.7976
52.9174
95.2401
144.632
107.631
60.5561
101.612
59.9034
63.1918
71.6599
58.6716
96.0468
66.253
82.1306
66.0978
46.7251
119.034
58.0721
61.1953
48.6443
47.4752
66.878
48.1876
1007.18
389.264
898.125
108.141
45.5556
48.4243
63.1981
48.1969
49.1352
49.5714
47.9004
518.676
514.107
46.6695
46.7135
46.4015
59.931
56.7205
71.5582
46.3582
78.5717
59.1378
1008.86
50.9108
85.9864
56.8463
56.0807
84.0383
47.0048
46.5366
46.5323
477.35
47.7709
45.7963
534.511
137.488
63.8674
80.4483
654.287
1090.54
46.8804
47.3078
46.6326
46.9152
72.2463
876.874
45.9304
45.2808
45.8555
47.435
50.8714
452.226
48.5035
47.6397
46.6264
47.0667
56.0468
66.5229
69.5024
60.9724
60.2238
91.577
62.9559
62.785
88.9184
53.219
67.0112
58.206
53.3252
48.1163
49.4693
62.7034
110.047
65.2457
71.5791
77.9267
58.2243
78.0855
54.753
63.8567
62.563
63.3667
195.292
49.0639
50.3408
98.2963
52.6392
362.096
49.4178
101.482
353.907
1055.92
961.911
1158.4
61.8807
177.098
61.2284
179.789
833.452
101.098
613.751
96.7057
448.424
393.801
66.3988
887.647
156.877
63.8491
1427.74
996.49
728.817
71.442
99.6043
75.247
62.3138
592.431
118.424
134.588
206.978
93.6135
184.124
59.1625
63.0912
83.4615
57.1807
70.1467
84.3821
98.5326
69.0688
120.207
65.1187
71.3484
58.4581
60.9462
177.068
61.2195
54.621
75.1195
65.8158
102.623
103.204
64.5987
120.482
72.7411
154.787
64.178
79.32
75.3966
66.1963
73.9931
62.4674
77.9209
91.635
62.5901
65.5375
101.535
64.5494
63.3375
54.4461
112.009
50.6471
82.927
108.087
54.5475
50.2698
49.9762
48.6761
48.5402
52.0388
93.2253
76.36
71.9654
69.4026
67.2276
312.928
70.3816
46.3735
54.4401
63.0602
53.2437
54.0391
52.8367
55.2286
54.9346
54.8494
71.2158
79.064
75.3342
61.9162
54.6906
70.719
73.4904
61.0975
73.6024
141.897
47.6404
72.709
46.1473
46.1001
69.5376
67.8577
63.2305
65.0466
108.33
71.5981
87.3307
58.7948
70.5268
117.556
72.0637
51.6807
49.007
48.4227
74.7168
56.2516
50.0288
48.0298
108.14
145.771
175.104
63.6544
47.0286
54.4138
166.131
101.77
48.1858
53.707
68.5405
135.242
102.039
112.387
152.98
71.8304
83.3364
73.7179
112.505
144.953
53.2744
50.2316
50.3922
49.9119
52.3546
50.276
48.23
130.885
150.405
80.3593
55.7997
311.648
781.227
67.8112
148.131
139.34
79.8641
105.159
1638.44
291.995
69.0865
90.803
67.7441
85.146
63.2292
113.528
82.7268
68.8095
66.3776
96.508
61.377
60.2291
70.7457
88.2882
50.9889
50.13
49.3471
59.1302
64.8538
62.2237
140.91
62.4135
966.855
79.4884
114.491
75.8367
50.8924
66.5178
56.0778
66.207
61.4573
550.433
82.8171
69.4877
74.2551
63.217
167.221
153.071
68.3668
63.7399
77.1638
86.4327
188.143
54.5842
69.9917
63.0382
52.1663
46.3039
51.299
69.4959
150.086
57.8295
75.6355
50.0592
78.8606
48.0701
47.7113
63.2141
510.417
64.319
62.9285
284.132
70.9511
60.758
73.8971
52.2873
109.736
62.9148
170.919
49.3911
47.9248
64.7762
64.413
151.675
113.498
51.5027
48.9526
57.291
51.1732
126.92
58.8472
64.9904
61.3729
60.469
79.291
92.8946
60.3596
49.6032
49.4294
175.609
110.131
59.916
59.7388
56.6852
85.1751
63.6772
77.2231
73.2546
209.359
231.004
64.464
132.288
123.926
364.777
145.406
92.5585
51.1487
49.4172
48.3812
51.7342
51.3579
47.8095
59.6871
47.6916
74.9136
54.2278
80.3561
62.4586
112.915
47.8484
73.0259
49.6377
57.4506
78.3134
57.9537
59.7441
113.705
724.493
102.635
129.141
1009.08
61.782
192.032
47.2494
47.6338
53.3318
47.5217
49.9102
62.972
78.9734
78.4059
53.1124
60.2925
60.1496
54.8029
47.419
61.5691
196.587
47.0251
49.9497
164.308
58.5638
55.5764
65.4951
56.7238
154.984
55.9138
56.3471
77.9402
314.36
1305.93
110.055
63.9699
388.654
75.6222
47.4672
47.6
45.5399
355.356
927.774
63.5253
70.8054
55.8202
83.7417
475.371
49.6786
50.3585
334.26
108.444
66.9018
1140.34
75.6614
52.5975
47.9588
47.5354
46.9469
47.3258
45.9814
47.1575
64.0003
45.7233
56.3939
47.6125
63.4223
58.2035
49.9163
52.3226
55.9908
47.9717
81.713
46.4328
53.0306
49.9956
98.2328
83.289
56.1209
54.3189
1078.29
700.997
160.218
80.9317
157.815
104.964
48.2878
46.2015
46.0223
153.717
69.6503
87.4352
47.897
53.2315
48.7003
60.0657
53.6535
58.4516
50.7749
53.083
46.4893
49.1273
71.9571
56.5483
113.377
99.8601
155.725
58.8721
51.1405
52.6871
70.8756
93.5439
121.747
129.511
101.288
48.9022
54.3208
174.817
72.9442
50.6395
100.905
59.8404
1010.2
1057.39
961.082
47.3612
86.2901
1946.04
55.4417
52.0692
67.0288
970.572
54.3767
782.197
53.0833
61.9616
52.5151
48.6712
50.7318
48.9403
53.7311
101.668
368.303
574.979
48.8718
128.972
88.1038
51.0535
102.318
126.367
468.598
155.818
64.178
183.211
57.156
48.0767
47.4132
96.7615
283.552
46.9037
100.201
99.0894
49.2965
88.6403
52.7672
101.043
48.2083
67.593
56.6155
53.0161
54.4319
54.8263
86.6569
54.1031
66.1415
62.8244
103.721
247.738
346.704
76.7768
63.137
86.1571
74.342
75.0637
76.3259
111.778
56.5379
66.8107
63.5868
46.7171
59.0931
57.8568
55.5581
54.2351
69.2398
64.7332
82.4483
324.08
123.991
51.4557
60.0096
54.3944
53.8971
53.7859
66.8343
192.895
60.3181
47.578
318.83
65.0479
169.384
112.357
49.1755
62.0094
63.9985
64.9706
69.3989
132.226
85.5619
56.3787
66.0411
72.0466
84.6829
179.427
103.917
85.4104
62.9934
174.784
70.6152
50.4673
52.1427
50.3914
47.7362
51.5112
47.7119
50.471
51.6795
46.7907
46.5533
71.2105
59.9744
54.1197
96.5634
178.178
64.416
67.3814
51.4002
551.345
70.474
156.442
69.2439
75.4776
52.9527
730.291
96.0676
194.144
368.21
667.056
65.5889
71.5529
66.2485
76.2008
49.331
780.55
123.116
130.734
102.282
59.9623
911.963
86.4767
75.4424
76.7565
59.5002
52.9605
60.6846
65.1063
70.5043
58.6045
157.923
78.315
71.8786
131.032
220.151
893.309
871.865
370.11
859.673
850.72
560.105
218.672
81.248
78.1238
82.709
67.6602
87.8263
90.1342
867.706
808.057
514.586
180.316
764.495
364.965
488.729
85.3345
83.9729
47.4681
49.4795
50.0127
48.466
47.9458
47.3747
48.218
47.3407
614.908
426.202
67.0671
61.2193
72.3246
64.6416
65.2442
62.8731
62.5622
62.2994
201.048
68.0713
68.3278
71.6621
118.246
61.9153
54.7245
60.9653
48.4731
48.131
85.0162
117.987
51.0316
101.594
64.5502
68.4862
48.3842
166.423
89.1904
832.938
141.219
147.271
146.334
245.377
52.2617
49.6836
48.2874
79.0815
46.5224
64.0093
140.918
46.8024
87.4731
513.642
86.32
82.4911
71.3472
52.6801
87.9543
200.711
885.73
71.216
47.9647
94.8176
145.182
52.1429
96.3019
207.006
54.5356
50.5762
52.6133
51.4219
121.188
91.6875
180.37
48.1531
1145.98
54.5413
46.2974
45.5861
49.3643
46.1009
46.0062
50.3003
82.1325
49.3827
56.4579
85.1714
178.043
67.5594
69.7251
78.2917
101.369
116.759
48.7742
92.6046
108.71
53.6219
46.6473
48.8035
45.8841
48.4351
47.3854
60.6198
91.5738
73.1043
107.57
421.249
49.9292
79.7728
121.398
47.3417
46.5859
62.2785
73.9402
78.2472
339.476
368.242
46.3682
1513.41
190.663
457.825
456.974
50.0234
47.0495
87.471
62.8852
48.1412
47.2754
61.6887
49.6045
48.2279
48.2381
47.1781
79.2444
207.699
88.3041
103.987
92.6046
94.2523
65.7935
51.9735
45.6775
46.9686
59.743
49.6786
45.6767
80.385
76.7159
65.6083
77.8558
65.2592
67.7501
69.2969
59.6474
116.926
79.5576
115.484
62.2516
66.6048
48.5903
55.7448
91.9443
66.7414
112.9
64.1696
72.0599
48.5228
48.6734
52.2964
48.2956
54.9521
83.9912
72.9572
65.5563
68.9067
194.201
180.718
63.809
56.0911
145.303
71.7864
75.7779
48.8524
97.6449
126.064
129.002
59.794
47.7835
84.9252
48.6205
55.8198
131.063
130.026
65.6968
101.616
66.952
79.7597
81.4168
130.289
88.108
225.974
63.4181
50.9257
111.767
49.569
49.3778
49.204
46.9707
53.4904
58.6693
59.5699
52.2453
47.9173
48.1626
49.3999
48.852
58.3639
66.4659
72.3381
67.8437
55.3606
106.097
137.3
75.0141
54.0653
68.7034
230.832
56.3437
531.876
48.5718
69.7755
56.9896
60.7738
70.2761
50.2976
50.5387
49.9807
68.3559
94.0777
66.982
103.26
55.5192
45.6908
55.3658
54.9905
50.0555
46.7434
46.3851
47.2366
45.6027
46.3514
102.956
99.6625
70.0542
254.125
56.4778
54.9986
190.427
79.9135
406.563
587.998
870.834
418.556
217.851
50.3403
61.9875
50.1701
45.6116
100.235
69.8108
48.4499
48.4492
46.2477
1324.56
1128.97
52.4546
47.0265
288.667
50.2227
48.8098
64.5755
62.1656
208.236
48.6133
52.842
55.0036
1397.81
794.828
603.424
999.478
53.7359
46.3641
47.9547
47.7779
48.6655
361.044
48.1039
48.6665
47.9872
65.5425
47.7133
55.0558
57.5537
54.5082
48.1898
52.4662
74.1164
47.7421
357.04
832.191
913.486
46.9006
762.071
1308.8
45.6265
62.019
1133.75
1006.32
1092.54
112.099
82.8451
64.6936
838.097
1504.06
84.4044
47.6752
55.1997
1357.04
960.737
65.3528
64.0194
77.0279
64.2248
47.1684
63.5888
47.3548
45.5958
45.9139
46.1
46.0354
60.7862
50.6606
51.5482
50.8222
52.487
49.2959
58.0066
111.809
52.0993
53.3201
51.6977
52.0879
47.2107
51.1823
76.9079
46.6944
49.0915
46.9064
53.3106
50.2773
47.3686
46.104
47.7552
58.0902
126.174
46.0791
98.4681
53.6635
48.1262
51.2535
386.768
127.414
46.9049
52.8659
45.9492
53.835
48.3437
48.1835
52.3973
51.1445
46.5095
45.9418
47.4039
48.3873
58.1409
1737.76
50.3878
64.6998
53.1291
50.6433
51.78
56.9668
64.7354
64.7136
72.767
54.8123
72.7322
66.301
86.851
52.1487
459.43
53.8713
47.2274
136.385
138.095
82.965
72.023
108.998
49.0523
45.6736
46.1258
54.0599
47.8477
46.8272
47.095
54.9147
98.9987
90.6199
84.5913
48.5139
47.428
46.6075
48.6746
48.8457
48.0916
47.6828
47.0791
46.1703
124.001
48.7057
46.8877
55.6712
62.0146
65.7256
66.4508
74.8882
50.7583
95.2125
93.7868
71.6691
61.8731
140.488
69.2816
175.984
72.6746
45.2639
59.309
97.1147
58.1368
57.7815
48.2566
50.9405
1051.53
49.397
49.9946
90.4705
83.0293
109.999
76.3166
67.4166
59.28
71.8199
47.634
45.7972
50.0705
106.782
46.7009
46.5802
47.3224
48.0591
104.147
46.9279
48.5104
114.198
46.8022
112.959
63.9485
59.7707
48.3291
50.8198
47.8009
45.609
45.8792
48.0706
45.5643
48.1602
60.9225
63.2098
50.8218
51.8316
54.2062
55.7763
53.2013
55.8512
54.7487
48.3738
62.2337
210.591
51.1702
52.1079
84.2964
114.943
53.3097
78.3037
568.745
53.7876
1158.95
1576.09
128.743
1726.33
56.8041
69.799
48.8427
1110.11
166.444
191.6
84.0181
85.7237
52.7563
49.0036
54.2159
51.9461
50.8702
944.55
330.965
98.9787
56.4753
1064.34
178.174
134.122
59.2541
59.6687
54.9955
100.227
755.147
498.983
48.5004
59.4352
172.011
51.4171
82.3471
1106.58
219.484
396.588
70.6117
434.353
586.063
50.6501
1197.21
973.481
49.8007
52.2679
61.5935
55.589
56.3083
58.7301
52.4414
51.8836
56.3285
46.0396
47.1693
51.0451
48.1658
47.6073
55.6797
53.3996
65.341
313.744
470.854
681.962
60.7804
62.802
49.0831
50.2742
52.1759
134.957
47.2801
55.2735
53.8937
58.3682
55.3391
54.3259
48.9459
56.285
140.99
69.7739
54.5259
66.8207
62.3691
59.153
80.4196
152.441
58.9724
68.0929
336.682
880.059
177.278
75.7696
55.5795
53.9145
68.5826
105.708
61.7471
206.652
50.7659
70.3693
54.282
131.414
71.0952
51.5848
50.1397
67.7305
78.7516
79.0743
49.9323
52.0197
61.5796
61.4714
62.0631
63.1968
142.454
82.3606
53.2551
50.3941
82.18
47.1749
48.0635
92.0396
46.6116
46.2231
45.4586
45.4746
45.796
48.8065
46.4734
48.7071
53.7546
80.4995
60.4845
54.1311
100.996
989.175
49.0203
54.2272
48.0713
80.0179
1036.8
63.4944
112.448
63.0197
52.9059
77.0063
66.6019
56.7427
65.6436
64.4901
61.7923
64.5699
69.1632
75.279
60.6114
77.1811
63.2045
52.4784
46.6679
47.4843
156.57
136.377
84.7905
64.1685
68.8587
113.162
100.942
56.2802
46.5585
57.0526
57.4399
50.7629
47.9917
61.7855
46.6956
96.7576
66.1435
119.46
101.468
52.0572
55.1082
75.772
117.979
54.612
51.6585
47.5352
53.5213
50.7916
53.4894
53.9336
54.9476
1066.27
47.0666
45.5367
46.672
46.6847
46.0954
49.4977
61.2196
57.2337
46.873
59.2673
61.5211
140.027
79.8036
1066.24
856.805
47.5734
1021.26
47.4354
48.712
48.144
57.721
51.1634
50.376
47.8183
46.8863
46.6532
56.5315
46.7949
49.3944
48.6381
49.0389
55.0908
55.9088
58.3795
55.5476
46.9326
46.9963
385.556
66.4736
57.9763
47.5308
48.4444
49.3555
54.5633
228.693
72.6638
78.079
54.2733
60.8843
67.1853
60.2291
116.652
47.3337
173.26
63.0668
125.874
434.304
59.5982
54.957
75.2133
320.815
56.2043
64.7131
50.8842
63.3605
70.0577
74.8532
73.1727
156.055
800.198
63.1884
55.1459
83.0597
69.3782
78.6948
177.279
440.223
1039.84
61.8564
162.031
88.6349
47.5335
901.914
806.473
48.2742
47.8435
83.8477
127.438
112.01
742.571
51.6606
130.577
63.1141
890.26
62.6256
509.658
87.5503
83.8076
115.351
166.583
111.616
175.825
65.0767
67.9164
70.6937
178.356
72.141
64.4813
108.182
58.8333
155.976
176.037
90.8517
59.0576
149.42
57.9552
62.0384
212.798
214.534
62.2764
1286.61
50.1947
51.0082
79.3424
51.3686
66.2129
67.1071
55.9455
64.6344
60.1593
62.2096
95.0452
62.328
129.935
77.3019
160.739
190.187
56.0511
54.7451
54.8342
56.9553
58.6187
113.339
62.5068
46.8619
376.817
61.993
112.819
61.5271
105.025
94.1108
47.4845
47.9222
59.9295
65.0352
50.945
48.8462
685.246
58.8208
1103.68
50.5596
101.96
50.6701
878.747
92.395
48.0713
399.2
97.411
454.289
106.899
70.3619
99.9778
108.713
64.5081
76.5361
128.95
133.66
128.562
50.501
802.424
52.5203
54.6409
77.1098
63.6761
103.715
66.1461
61.4732
52.3821
52.39
49.9905
62.3194
117.643
137.543
75.5262
72.2402
71.1225
70.9839
433.277
92.4862
56.6226
122.648
66.7812
594.065
75.6044
103.657
215.973
112.998
76.2066
110.795
111.85
49.7681
48.8612
64.4143
64.5441
99.3539
128.226
71.7725
116.094
50.1761
55.5128
56.1588
57.1569
53.362
74.1298
60.0944
53.1966
135.337
93.8498
62.4409
74.3319
170.573
203.668
142.454
53.1029
53.6623
110.505
79.4257
142.321
77.1216
98.6647
167.006
188.582
58.0317
62.6121
67.0623
64.4979
97.0198
855.608
108.551
65.886
64.9494
234.551
148.444
654.123
319.348
346.097
51.3338
50.9011
92.4888
72.4572
107.628
51.8131
103.463
100.883
52.3211
95.4279
129.737
47.5307
71.6374
126.142
67.2824
142.723
57.5155
55.8887
126.7
52.267
68.9904
103.98
63.6388
54.9287
50.8918
130.597
52.4219
48.7471
70.9132
65.9372
49.4741
73.706
83.5513
52.7612
50.5317
61.2807
141.817
64.3685
77.3257
88.0478
69.9502
52.1207
53.295
82.2114
49.011
52.9425
114.683
256.78
121.093
90.4373
89.4386
49.9573
86.8931
72.3013
609.16
49.8586
74.21
67.7912
51.6673
52.2347
46.7411
129.671
142.686
89.4423
74.2752
49.4926
50.2907
61.2092
156.996
157.199
127.942
56.625
71.2703
53.3045
140.908
95.7635
141.442
356.538
110.025
112.848
90.2485
69.4507
68.438
51.1235
1342.87
253.908
48.5115
79.4948
51.902
53.7354
59.6657
58.4623
66.488
48.2419
69.1557
110.181
48.0078
48.262
48.3592
68.745
47.4633
49.9734
67.0713
51.2261
353.485
51.1799
45.5426
51.7231
84.7165
46.7961
45.9596
46.877
46.05
49.2841
50.1633
52.1939
55.383
77.26
51.7553
62.6572
552.942
47.7421
81.5516
52.7025
58.5831
52.1434
46.4221
51.0336
45.4542
694.591
354.462
52.4808
53.8782
72.0395
362.001
61.6468
315.307
425.349
76.5324
74.6777
407.134
55.4229
72.4047
144.724
138.527
1499.25
820.565
475.721
244.51
595.27
718.67
776.29
179.565
1144.35
1745.86
433.674
737.848
691.689
88.9273
86.7344
86.3522
72.3794
55.2863
63.9833
76.1568
78.6004
62.7456
65.4637
65.334
689.978
470.995
591.01
346.857
339.605
520.969
448.787
426.923
487.871
1300.34
743.156
64.4782
59.4614
86.0329
225.582
524.868
344.172
186.551
159.917
74.3024
54.9729
69.4142
52.0079
61.4926
60.8912
62.0242
63.2246
65.0004
67.0574
1504.57
62.7785
62.4653