/*--------------------------------*- C++ -*----------------------------------*\
| =========                 |                                                 |
| \\      /  F ield         | OpenFOAM: The Open Source CFD Toolbox           |
|  \\    /   O peration     | Version:  2506                                  |
|   \\  /    A nd           | Website:  www.openfoam.com                      |
|    \\/     M anipulation  |                                                 |
\*---------------------------------------------------------------------------*/
FoamFile
{
    version     2.0;
    format      ascii;
    arch        "LSB;label=32;scalar=64";
    class       surfaceScalarField;
    location    "0.0100321";
    object      phi;
}
// * * * * * * * * * * * * * * * * * * * * * * * * * * * * * * * * * * * * * //

dimensions      [0 3 -1 0 0 0 0];

oriented        oriented;

internalField   nonuniform List<scalar> 
7606
(
0.000941873
-0.000951391
-0.000590123
0.000599642
-0.00205902
-0.00426601
0.00107201
0.00525302
-0.0323318
-0.00439519
0.0332671
-0.00125622
-0.000504316
3.44412e-05
0.0017261
0.00113477
-0.000995444
0.00153689
-0.00167621
-0.00228115
-0.00589873
-0.00210687
0.0102868
0.000123097
-0.000244554
0.00170995
-0.00352811
0.0186559
0.00779955
-0.0178625
-0.00859299
0.0012898
-0.00303564
-0.00928599
0.0110318
0.00191902
0.00478331
0.0119396
0.00100418
-0.00411526
-0.000198308
0.00330939
-0.00156564
0.000809733
0.00145944
-0.000703531
-0.00155915
-0.000612198
0.000605709
6.30045e-05
-0.000702958
-2.0409e-05
0.000660362
0.00066762
0.000167329
-0.00044795
-0.000386999
0.000198612
0.000431816
-0.000716873
8.64456e-05
-0.0157383
0.0110887
-0.00398202
0.00863164
0.000766522
0.00068203
-0.000539587
-0.000908965
0.000873391
-0.00145601
0.0080961
-0.00751349
-0.00757646
0.00902744
-0.00057759
-0.00201933
-0.000142019
0.00246561
0.000228604
0.00241263
-0.0414548
0.00258457
0.00361578
0.000261361
-0.00646171
0.00620119
-0.0011161
-0.00445631
-0.000628779
-0.00109924
0.000607793
0.000952529
-0.000461077
-0.00592364
0.00740098
0.00110724
-0.00305787
0.0113004
-5.08972e-05
-0.00819158
0.0212287
0.00905084
-0.000463819
-0.0021467
0.00230264
0.000307882
-0.00310086
0.00197627
0.0026544
-0.00152981
0.000874577
-0.00208694
0.0011694
4.2971e-05
0.00161617
-0.000226311
-0.00246782
0.00107796
-0.000411974
0.00195762
0.00211524
-0.00366089
8.81282e-05
-0.00109632
1.47812e-05
0.000993415
-0.00939545
0.00407676
0.00202837
0.00329033
-0.000335438
0.000602593
-0.000267155
0.00123982
-0.00180784
0.0011952
-0.000627182
-5.73905e-06
-9.98396e-05
0.000431231
-0.000325653
0.000500436
-2.80132e-05
0.000302627
-0.00077505
0.000492305
-0.000478321
0.000150386
-0.00016437
0.00238665
0.000810959
-0.000755367
-0.00244224
-0.00114254
-0.00171425
0.002163
0.000693801
-0.00249316
-6.92627e-05
0.00141988
0.00220337
0.00233116
-0.000101155
-0.00443338
-0.00114371
-0.00130148
0.00073093
-0.000356037
-0.000521062
0.00299544
-0.00211834
0.00229623
-0.000489274
-5.35157e-08
-0.00014863
0.00043015
-0.000281466
-0.000147511
0.000219918
0.000114881
-0.000187288
-0.00352789
0.000687928
-4.0123e-05
0.00288009
-0.000160063
1.24979e-05
-0.000182182
-0.000471049
0.000451762
0.000201468
3.25457e-06
0.00012829
7.14154e-05
-0.00020296
0.000478639
0.000284118
-0.000759503
0.000290503
7.41044e-05
0.00044515
-0.000809757
0.00464557
0.0078861
-0.00803624
-0.00449542
-0.00148574
-0.0024727
0.00244476
0.00151368
-4.51308e-05
-0.000464564
-0.000300809
0.000810504
0.0118282
-0.00258868
-0.0067337
0.000800967
0.00630114
0.00180502
-0.00890713
0.00253142
0.00294338
0.00257104
-0.0258151
0.0252161
0.000599018
-0.00268391
-0.000469051
0.00231392
0.000839041
-0.000521472
-0.00273983
0.000577391
0.000225131
0.00115385
-0.00117166
-0.000207324
0.000645158
-0.00183835
0.0111636
-0.00997042
0.000963975
0.00998036
0.000960918
-0.0119053
-0.00313573
-0.00142579
0.00208037
0.00248115
-0.000324689
-1.0523e-05
-0.000124069
0.000459281
-0.00207453
-0.000953203
-0.00117466
0.00420239
-0.000582977
0.000222113
-0.000374941
0.000735805
0.000542289
-0.000234796
-0.000305328
-2.16473e-06
-0.00189655
0.00250626
-0.0111921
0.0105824
-0.0159833
0.0116228
0.00575519
-0.00139474
-0.00345304
-0.00653074
0.00195061
0.00803318
0.0119376
0.013611
-0.00750845
-0.0180402
0.00122228
-0.00340463
0.00217979
2.55866e-06
0.000601774
-0.00043614
-0.000289732
0.000124098
0.00230288
-0.000134105
-0.00263259
0.000557742
-0.000180838
0.000391298
-0.000768203
0.000492642
0.00017134
-0.00010624
-0.00463822
0.00020642
0.00700321
-0.00257141
-0.00584499
-0.00477173
0.0128052
-0.00218852
-0.000401023
-0.000189457
6.52964e-05
0.000525184
1.22763e-05
7.93423e-05
-0.000666789
0.000131286
0.000535258
2.45418e-07
0.000563349
-0.000362675
-2.93338e-05
-0.00155206
0.00465516
-0.00123163
-0.00187147
0.0265029
-0.00600725
-0.0115293
-0.00896634
0.00857488
-0.00956296
0.000311619
0.000676453
0.00344201
-0.00513102
0.00215852
-0.000469512
0.00115259
0.00220994
-0.00128646
-0.00207607
0.000859262
0.00533146
-0.00562735
-0.000563366
-0.00321346
-0.000124871
-0.00816287
0.0115012
-0.00169256
-0.00300017
0.00391472
0.000778008
-0.00379301
-0.00123464
0.00255939
0.00246826
0.000458449
-7.37116e-06
-0.000102237
-0.000348842
-0.00940869
0.000183309
0.0091609
6.44805e-05
-0.000202648
0.00117072
0.00430139
-0.00526946
-0.000663197
0.00823596
0.000205423
-0.00777818
0.00688512
0.000510171
-0.00798819
0.000592901
0.00234241
-0.000803535
0.0027795
0.00212809
-0.00452973
-0.00243014
0.00483178
0.002025
0.000181595
-0.00283261
0.000626007
-0.000490178
0.00241664
0.000727225
-0.00265369
-0.00037735
0.00158437
0.00181414
-0.00302117
0.0158407
-0.00752622
-0.00613717
-0.00217732
-0.000286985
-0.000316795
0.000726797
-0.000123017
0.00919593
-0.00947748
-0.00436156
0.00464311
0.00768394
0.00232043
-0.00878838
-0.00121599
-0.00109799
0.00185165
0.000310511
-0.00106418
0.0615474
-0.033302
-0.0240666
-0.0041788
9.77648e-05
0.00248085
0.000634652
-0.00321327
-0.0010532
0.00229162
0.00156342
-0.011091
0.0118664
0.000297179
-0.00107259
-0.00321762
-0.000334835
-0.000279941
0.0038324
0.00300845
-0.00164836
-0.000448102
-0.000911982
-0.00141419
0.000195656
0.000340944
2.82959e-05
-0.00036924
0.00539245
0.00205265
-0.00240817
0.00705314
0.00348566
-0.00592959
-0.0046092
0.00422248
0.00287563
-0.00385861
-0.00323951
-0.000738184
0.00218207
0.00151204
-0.00163997
-0.00206681
0.00219474
0.00588815
0.00162892
0.00142499
-0.001129
-0.000275372
0.00441281
0.00110962
0.00114706
0.000279281
-0.00253597
-0.000343898
-0.000934178
0.00100827
0.000269804
-0.00376317
-0.00238355
0.00235371
0.00279006
-0.00115068
-0.000549898
-0.00108948
0.0308765
-0.00679922
-0.00855185
-0.0155254
-0.000442883
0.00136222
-0.000191444
-0.000727896
-0.000851386
0.000236444
-4.98957e-05
0.000664837
-0.00774888
0.00726217
-0.00208378
0.0025705
9.26375e-05
-0.000964253
-0.000137028
0.00100864
-0.00323002
0.00163318
0.00228396
-0.000687112
0.00200391
-0.000626326
7.61221e-05
-0.00145371
5.82657e-05
-0.00200667
-0.000778281
0.00272668
0.00416437
-0.00500381
0.0102085
-0.00936909
-0.000770736
-0.000269151
7.3564e-05
0.000966323
0.000700359
-0.00491917
-0.00145616
0.00567496
-0.00901665
0.0135938
-0.00963396
0.00135778
0.00223021
0.000551062
-0.00413905
-0.00092039
0.000587115
0.000486865
-0.000153591
0.0039184
-0.00425256
-0.00267789
0.00301204
0.014457
0.00103011
-0.015737
0.00060978
-0.000710925
-0.00186168
0.00196282
0.0030698
0.000341377
-0.00295339
-0.000457792
-0.0134371
0.000978105
0.0142545
-0.00179545
0.00327638
0.000744455
0.00634585
-0.0103667
0.0253085
-0.0272757
0.00196722
-0.00264058
0.00223316
0.00247673
-0.00206932
-0.00125281
-0.000843805
0.00133217
0.000764447
0.00260763
0.00797062
0.00709815
-0.00152736
-0.00195811
0.00438224
0.00624175
-0.00967042
-0.000953569
-0.0015316
-0.00304001
0.00307684
0.00149477
0.00284012
0.00129608
-0.00302658
0.000551593
0.00286451
-0.00474242
0.00132631
0.00389097
-0.00173032
-0.00391298
0.00175233
-0.00177811
0.00313877
-0.000819592
-0.000541066
0.00892741
-0.00791526
0.00288303
-0.00389518
0.0019547
-0.00982286
0.0104692
-0.00260105
-0.000163814
-0.0051476
0.00995698
-0.00956412
0.0090105
-0.00529137
0.00189697
-0.0025776
0.00155907
-0.000878438
-0.000360707
1.95969e-05
0.000917153
-0.000576043
-6.51866e-05
0.00667107
-0.00596072
0.000529116
0.00140546
0.00131367
0.00667091
-0.000978286
-0.00700629
0.0179281
-0.00808343
-0.0216303
0.0117856
-0.0209019
-0.0269266
0.005749
0.000168225
0.000505615
-0.000722175
4.83344e-05
0.000760362
-0.000389523
-0.000909177
0.000538338
0.00157049
-0.00486047
-0.0055075
0.00879748
-0.00569553
-0.00144113
0.00214712
0.00498953
0.00373669
-0.000901951
-0.00670566
0.00387092
0.0109842
-0.022755
0.0296988
0.00152523
-0.00341315
0.0032457
0.00191958
0.000354755
-0.00215589
-0.000118451
0.000934804
-0.000480326
-0.000499609
0.00851456
-0.000928455
-0.0059612
0.00407085
-0.00188948
0.00260234
-0.00478371
-0.00652739
-0.00160079
0.00544203
0.00268615
0.000232472
0.00373265
0.000257359
0.00181006
-0.00323063
0.00132085
9.97159e-05
0.0319557
-0.0235204
-0.003201
-0.00523433
0.000401154
0.00271567
-0.00043695
-0.00267988
-0.0378533
-0.00752235
-0.00261267
0.00450065
-0.00284289
0.000954902
0.00366944
-3.02019e-05
-0.00323614
-0.0004031
0.00117206
6.73969e-05
-0.00920005
0.0079606
-0.0153098
0.00830477
0.00491924
0.00208581
0.0017624
0.00206414
-0.0113246
0.00749801
-0.000671038
0.00201041
-0.0041577
0.00281833
-0.00178123
0.0111966
-0.00241345
-0.00181316
0.00361595
0.000610663
0.00400192
-0.00051586
-0.00396849
0.000482431
0.000916347
0.00230361
-0.000677587
-0.000270848
0.00308199
0.00119077
0.0010909
-0.00299706
0.0089593
0.000337192
-0.000452
-0.000372843
0.000487652
0.00646927
-0.00101816
-0.00508797
-0.000363144
-0.00141153
-0.00269802
0.00245549
0.00165406
0.00912116
-0.00980847
0.000777139
-8.98381e-05
-0.00018342
0.000881365
-0.0023905
0.000522279
-0.00024927
-5.90763e-05
-0.000213932
1.52956e-05
-0.00117687
0.000241186
0.00140256
0.001662
0.000913721
-0.00395452
0.0023628
0.00319119
-0.00159948
-0.000454881
-1.79802e-05
-0.000626383
0.00119076
0.00210884
-0.00374342
0.000443812
0.00165056
-0.00261922
-0.00117803
0.0113893
0.00336143
-0.0286252
0.0138745
-9.64e-06
0.000291697
-0.000532574
0.000250517
-0.00208625
0.000757642
-0.011383
0.000666429
0.000765509
-0.00212399
0.000692051
0.000406529
-0.000173965
0.00038687
-0.000619434
-0.0119188
0.00824257
0.00796566
-0.00428939
0.000362403
-0.000197377
-0.000525733
-0.000335112
0.00318838
-0.0021389
-0.000714361
-0.0040087
0.00441562
0.00033903
-0.000745952
-0.0108746
0.0115511
0.00344283
-0.00411926
-0.000332722
-0.00169866
-0.00366414
-0.0110233
0.0154829
0.0128495
-0.0173091
0.0155743
0.000834441
-0.00905011
-0.00131718
-0.0096917
0.00943882
0.00157006
-0.000537053
-0.0123294
-0.000139347
-0.000552832
0.00279198
-0.0020998
-0.000608523
0.000736646
0.000592446
-0.000720569
-0.000512379
0.0008818
1.84075e-05
-0.000387829
-0.00403164
-0.00274944
0.00214285
0.00176845
-0.00423182
0.00301496
0.000857555
-5.85714e-05
-0.000406883
0.0011873
-0.000615247
-0.00016517
-0.00126226
-0.00261462
-0.00369958
0.00202324
-0.00683895
0.00945373
-0.00463803
0.00927652
0.00222873
-0.00974285
-0.000227664
-0.00036653
0.000594193
0.00381321
-0.000371196
-0.00479681
0.0013548
-0.00545798
0.00117859
0.0115616
-0.00728224
-0.00796269
-0.00597383
0.0187666
-0.00483008
0.00402132
0.00179726
-0.00644075
0.000622173
0.000593519
-0.00120624
0.0034793
-0.00286657
-0.0112634
0.000516612
-0.0142974
0.000163478
0.000696783
0.00251803
-0.00214294
0.0011283
-0.0015034
0.000677196
0.00544846
0.00570258
0.00456528
0.0019066
-0.00821498
0.00174311
-0.000796725
-0.00240913
0.00429825
-0.00109239
-0.00393434
-0.00294266
0.00269792
0.00417908
0.0115872
0.00484002
-0.00215842
-0.0142688
-0.00223049
0.00456486
-0.00504289
0.00270852
0.00149569
0.000193057
-0.000472107
-0.00121664
-0.00189924
0.00267647
0.00183547
-0.0026127
0.0023533
-0.00225458
-0.00107317
0.000974453
0.000315727
0.000212945
0.00023169
-0.00255356
-0.00036164
-0.00031482
0.00578327
0.00183276
0.00210758
-0.00972362
-0.00170521
-0.00120832
0.0012174
0.00169613
-0.00221805
-0.000434124
0.0029176
-0.00026543
0.00610893
-0.000670785
-0.00176855
-0.0036696
-7.3484e-05
-0.000466404
0.000539888
0.000768736
-0.000101687
-0.000261856
-0.000405193
-0.00119083
0.00048943
-0.00198168
0.00268308
0.00116875
0.000153289
0.000805444
-0.00212748
0.000462692
-0.00362144
5.78891e-05
0.00164115
-0.00062782
-0.000271094
-0.000742232
0.000307379
0.000558777
-0.000410868
-0.000455288
0.000140125
-0.00223459
-0.00104126
0.00152741
0.00232344
-0.00154605
-0.00230479
-0.0254633
0.000134
0.000940279
-0.000955065
-0.000119214
-0.000481081
0.0018041
0.00104214
-0.00236517
0.00579733
0.00117433
-0.00270567
-0.00426599
-0.00147975
0.000748158
0.00101137
-0.000279777
-0.00330581
4.97789e-05
0.00372597
-0.000469948
-0.00184991
0.00405609
-0.00172777
-0.000478409
0.00140458
0.00026921
-0.00132933
-0.000344461
0.002449
-0.000339166
-0.00214829
0.00264397
-0.00218318
0.00168749
0.000489697
0.000131954
-0.000581743
-3.99069e-05
-0.000511475
-0.00074211
0.000776646
0.00047694
-0.00232486
0.00633091
-0.00379963
-0.00182325
0.00164372
0.0024872
-0.00230767
-0.00260904
-0.00114162
0.00341794
-0.00181137
0.00219476
0.000760957
-0.00114435
0.000978624
-0.00167459
0.00243071
-0.00173475
-0.00548136
0.00137745
-0.00456906
0.00867297
-0.0017912
-0.00203912
0.00161227
0.00112828
-0.00114394
0.00356986
-0.000541086
-0.00109338
0.000694681
0.000939787
0.000385776
-0.000588645
-0.00101995
0.00122282
0.00150202
-0.000341705
0.000513088
-0.0016734
-0.000142134
0.00222309
-0.00255128
0.000470331
-0.000986758
-1.56704e-05
0.00215502
0.00148686
-0.00105206
-0.000434794
0.00258581
-0.00074046
0.000158561
-7.22963e-05
0.000422176
-0.000693777
-0.000134532
-0.000936832
0.000614113
-0.000608814
0.00038115
-0.00574832
-0.011907
0.00678072
0.00286543
0.00157773
-0.00327441
-0.0144536
-0.00320098
-0.00775997
0.00762688
0.000321204
-0.000188117
-0.0101308
0.00258211
0.00565939
0.00188929
0.00319058
0.000200272
-0.00298969
-4.01572e-05
0.000942893
0.00190232
0.00558714
-0.00673008
-0.000759382
0.0120726
-0.000396488
-0.00576574
-0.00591033
-0.0015375
0.00383158
-0.00247645
0.000182374
-0.00133674
-0.00114124
0.000329692
0.0014697
-0.0017849
0.00098163
0.00106697
-0.00464303
0.0010896
0.00248646
0.0040635
-0.0179999
0.000118477
0.0138179
-0.000104393
0.00115141
-0.000280496
-4.42558e-05
0.000699209
-0.000363745
-0.000291209
0.000509271
0.00167573
-8.28311e-05
-0.00210217
0.000670744
0.000844249
-9.04594e-06
-0.00150595
-0.00158326
-0.00029562
0.00202307
-0.000437387
-0.00108193
0.000580368
0.000938949
-0.00145935
0.000653804
0.00270936
-0.00190381
-0.000175047
-0.000239396
-0.000491617
0.000906059
-0.00513144
0.00898546
0.00395462
-0.00780863
-0.00471358
0.00626032
-0.000846373
0.0133376
0.000193924
-0.00425504
0.00494603
0.0092822
0.00334177
0.00188407
-0.00745633
0.00348351
-0.00298248
-0.00129775
-0.000220339
0.000245806
0.000459928
-0.000485395
0.000575876
-0.00063015
0.000252886
-3.07231e-05
-1.05025e-06
0.00198696
-0.00286297
0.00227857
-5.45216e-05
-7.09789e-05
0.000125501
-0.000568218
0.00522868
2.59689e-05
0.000377823
-0.000403792
0.00135847
0.00194161
-0.00207779
0.000627016
0.000325676
-0.000635543
-0.000317149
-0.000422939
0.00149256
-0.00136144
0.000291815
-0.000305309
0.000705993
4.70097e-06
-0.000405386
-0.00282175
0.0017242
-0.00207049
0.00316804
-0.000355321
0.00140288
-0.000644469
-0.00040309
-0.00115432
-0.00246593
0.00341729
0.00020297
1.23025e-05
0.00469778
-0.000224
-0.00448608
-0.000946746
-0.00291287
9.64472e-05
-0.00160366
-9.30853e-05
-0.000441253
0.002138
-0.000290762
3.59154e-05
-0.000356801
0.000611648
0.000891551
-0.000279274
-0.00159904
-0.000629549
-6.09339e-05
0.00303326
-0.00234277
-0.00514871
0.00302679
0.0114193
-0.00929743
-0.000755717
0.000549509
0.00184406
-0.00163785
-0.00140172
0.00398085
-0.000993699
-0.00158543
-0.000823095
0.000453126
0.000835079
-0.00046511
-0.00203834
0.00316822
-0.000436132
-0.000693747
-0.00280846
0.00632225
-0.00864524
-0.00380618
-0.0133854
-0.00155583
0.0187474
-0.00131261
-0.0206595
0.0187735
0.00319861
-0.0083102
-0.0129884
0.0190175
0.00351548
-0.000769194
-0.00138781
-0.000473658
-0.000188126
-0.000108952
0.00418426
-0.00180936
0.000955652
-0.00333055
-0.000403881
0.000362605
-0.000168574
0.00020985
0.00173502
-0.00155142
0.000117086
-0.000300678
0.00381013
0.000246376
0.0117842
0.00230593
0.000458586
0.00142075
-0.0056255
0.00719259
0.00421619
-0.00330441
0.00416648
0.00418344
-0.00504551
0.00456723
0.00145031
0.00183113
-0.00784867
0.0023685
-0.00695135
0.0076013
-0.00301845
0.00373072
-0.0129425
0.00358627
-0.0010319
0.00122907
0.00347408
-0.00367125
0.00440176
-0.0066824
0.00124874
-0.000192613
0.000821081
0.00358437
-0.00421284
0.000504559
-0.00403217
0.003335
0.00399553
-0.00370175
0.0005273
-0.0036779
0.00197867
0.00217276
-0.000473521
0.000514708
-0.00235301
0.00234286
0.00114758
-0.000985525
-0.00421588
0.00405382
0.0245787
0.0193751
-0.0325645
0.000479916
-0.00280425
-4.39568e-05
0.00236829
-0.00148707
-0.000924237
-0.000501251
0.00291256
-0.0024963
0.00254806
0.00107306
-0.00112483
0.00424337
0.000347862
-0.00411132
0.000265898
-0.000273901
-0.000574974
-7.14147e-05
0.000759706
-0.000422393
0.000464802
0.000338607
-0.000508131
-0.000295278
-9.11991e-05
0.000148639
0.000419435
-0.000476875
-0.00104819
0.000892335
-0.000118049
0.00144531
-0.000268445
0.00130898
-0.00248585
0.00271859
0.000707436
-0.00198071
0.0016263
-0.0050361
0.00403407
-0.000624269
0.00231174
-0.00165284
-0.00214597
0.00146133
-0.0027142
0.000984427
0.00814543
-0.00323224
-0.00479921
-0.000113982
0.00357065
0.00463665
-6.18639e-05
0.00399469
0.00215606
-0.00423677
-0.00191397
0.00662457
-0.00442939
0.0017995
-0.00217225
0.00556458
-0.000142952
-3.10506e-05
5.11804e-05
0.000122822
-0.0023741
-0.000269047
0.00502357
-0.00308907
-0.00204848
-0.00110392
0.00553943
0.000588059
0.00096484
-0.00191953
0.00202166
-0.0020431
-0.00103666
-0.00156328
0.002065
0.000872316
-0.0041906
0.00125329
-0.00133665
0.00115921
-0.00116901
0.00134645
-0.000789322
-0.0019573
-0.0007373
0.00348392
0.000283434
-0.000417966
0.00325689
-0.00736804
0.000238736
0.0092574
0.00571711
-0.00431515
-0.00877
0.00253023
0.0017024
0.000519712
-0.00475234
0.00174537
-0.00376927
0.00115391
0.000869987
0.00267099
-0.00331577
0.00317501
0.00444422
0.00153918
0.00275441
0.0513185
-0.049694
0.0158485
0.00370468
-0.0154897
-0.0444073
0.0471617
-0.0112173
0.00215427
0.0250089
-0.0159458
-0.0150683
-0.0273142
0.0152585
-0.0153808
0.00828471
-0.0081624
0.000232904
0.000555992
-0.000861192
0.000563341
0.000348531
8.31487e-05
-0.000384604
0.00096555
-0.000664094
0.0007777
0.001755
-0.00559075
0.000619382
0.00597555
0.000588939
-0.000643002
0.000113887
-5.98235e-05
-0.00488648
-0.00624744
0.00554317
0.00235366
0.000589487
0.000967585
-0.00391073
0.00347609
0.0115325
0.00317445
-0.00100489
0.00164456
-0.00381411
0.00500014
-0.00469396
-0.000293875
0.00256756
-0.000894203
0.000680302
0.000254888
-0.000462032
-0.000117545
0.00155446
-0.00080138
-0.000204331
-0.000548747
0.000576717
2.93098e-05
1.76656e-06
-0.00086213
0.00151087
-0.00102451
0.000375772
0.000474223
0.000372567
0.000263664
-0.00111045
0.00607388
-0.00815442
-0.00738162
0.00946216
-0.00205824
0.00262089
-0.00156063
0.000997976
-0.002726
0.00226183
-0.00275345
7.16787e-05
0.000269265
0.000866586
-0.00253574
-0.0161842
-0.00355662
0.000688482
-0.000637278
0.000119236
0.000564236
-4.61933e-05
-0.0114515
-0.00183919
0.008519
-0.000543335
0.00110992
-8.10286e-06
-0.00055848
-0.00396286
-0.0114151
0.00392644
0.000850952
-0.000588532
-0.000549405
0.0034299
0.0125514
-0.0121712
0.0101126
-0.0141424
0.0131633
-0.0109893
0.00100602
-0.00317999
-0.000388957
-3.30018e-05
0.000376721
4.52381e-05
0.000272532
-0.00356008
-0.00109209
0.00437964
0.00239188
-0.000468793
-0.000834194
-0.00325421
0.000528323
0.00256779
0.00259182
-0.00225387
-0.00290574
-0.00256478
0.00551566
-0.000383088
0.0107377
0.00363339
-0.000711116
-0.00181328
-0.000183239
0.00150634
0.0118991
-0.00578708
0.0023759
-0.0084879
-3.08757e-05
-0.00106474
0.00158433
-0.000488719
-0.0500301
-0.00261746
0.0526475
0.00507875
-0.00118234
0.00101026
0.00352574
0.000542747
-0.00163037
0.0016882
-0.00266687
-0.000189839
-0.0008569
-0.000764627
0.000200041
0.000167313
0.000121799
-0.000489153
5.86542e-05
-0.000419315
0.00310051
-0.000273984
-0.000974876
-3.29812e-05
-0.00103647
0.00106946
5.73204e-05
-0.000970717
0.000238291
0.000675106
-0.00185817
-0.00293046
0.00302829
0.00176034
-0.00234936
0.000510712
-1.95199e-05
0.000501596
-0.00354645
0.00141448
0.00125497
0.00225687
-0.00168841
-0.00182343
0.00318364
-0.00136543
-0.000563236
0.00261907
0.00091308
-0.0011455
0.00211714
-0.000417901
-0.000433227
-0.00126601
0.00144265
0.00127239
-9.59733e-05
0.0175815
-0.0230344
0.016389
-0.0109361
0.00653167
-0.00339283
-0.00492897
0.00179013
-0.000481571
0.00367515
0.00419194
-0.00738552
0.00347567
0.00027797
0.00425465
-0.0013791
-0.00334792
0.00109681
0.00363022
-0.00111137
0.0002239
-0.0006346
0.00152207
0.000624501
-0.001656
-7.98643e-05
0.0018154
-0.00164163
0.000450737
0.000530338
-0.000773149
-0.000574832
0.000817643
-0.0011868
0.00252687
-0.00116969
-0.000690897
0.00208448
-0.00117953
-0.00117695
-0.023404
0.0155438
-0.0229607
0.00081119
-0.000994141
0.000351596
-0.000168644
0.000580839
0.000286515
-5.61646e-05
0.00146657
0.00174405
-0.00165616
-0.000904813
0.00318225
-0.00296302
0.000685588
-0.000906553
-0.00121101
0.00334953
-0.00123197
-0.00102966
-0.00108201
0.00120512
-0.00193165
0.000276899
0.00424658
0.000344012
0.00233607
-0.00424435
0.00156427
0.00217679
0.00074842
-0.00160289
-0.00132232
-6.04075e-05
0.000217819
0.00249166
-0.00264907
0.00124341
0.00392927
-0.00398192
-2.244e-05
-0.00347544
0.000783952
0.00271393
0.000923457
-0.00122918
0.000459014
-0.000770717
0.00126008
0.000173137
0.00121076
-0.00310202
0.00436229
0.000848572
-0.0012134
-0.00354025
0.00209989
0.00265377
0.000978365
-0.00132966
-0.00221348
-0.00147259
-0.00102876
0.00125066
0.00125068
0.000786485
-0.000570405
-0.000936754
0.000720674
-0.00184662
-0.000169299
0.00054317
-0.000872028
0.00267127
0.00973329
0.00893674
-0.00800948
0.000171687
0.00040064
-0.000581967
-0.000559981
0.00114527
-0.000502143
0.000934981
-0.000100135
-0.000973945
0.000139099
0.000197487
-7.31198e-06
-0.000495484
0.000428224
7.66171e-05
9.6932e-05
-0.00119263
-0.000285731
0.00299213
-0.00151377
0.000399899
-7.33371e-05
-0.000617324
0.000278564
0.000307842
-0.000410908
-0.000175498
0.00131985
0.000647513
-0.00324471
0.00127735
0.00165265
-0.00127949
-0.000148027
0.000409466
0.00266238
0.000517764
-0.00358961
0.0004129
0.00213463
-0.00213807
-0.000238509
0.000594986
0.00183828
0.000543614
-0.000885315
0.000214539
0.000127163
0.00258547
-0.00297197
-0.00900895
-0.00495185
-0.00413974
0.00792733
0.00116425
0.000958121
-0.00269173
-0.0023747
0.00410831
-0.000942908
0.010504
0.00412232
-0.00318436
0.00387603
-0.00481399
0.00241256
0.00163448
-0.00226428
-0.00178277
0.00782924
0.0119124
-0.0160109
0.00615777
0.00306771
-0.00825804
-0.000967446
0.000201948
-0.00297688
-0.00260033
0.00537526
-0.00135428
0.00755066
-0.00897546
0.00277908
-0.00239615
0.00174531
-0.0013875
-0.000869611
-0.000726993
-0.0012863
0.0028829
-0.000518147
-0.000231293
0.0026212
-0.00187176
-0.000706307
-0.00156506
0.00309892
0.000288517
0.00774481
-0.00107688
-0.00695645
-0.0048365
0.00877331
0.000227555
0.00668162
0.00340225
-0.0126596
0.00257577
-0.00590348
0.00962506
0.00122445
0.00358491
0.00665048
-0.00355378
-0.00297679
0.0118393
-0.0238239
0.014811
-0.00318355
0.0074101
0.00624964
-0.000496475
-0.00524091
-0.00562259
0.0053792
0.00436571
0.0103705
-0.00716014
-0.00649337
0.00328303
-0.00361899
0.00240932
-0.00190656
0.00311623
0.00170476
-0.00313341
0.00119669
-0.00628032
0.00821704
-0.00183547
-0.00904682
-0.00308561
-0.001113
-0.00212181
0.00632042
0.00596346
0.000754564
-0.00166342
-0.0050546
-0.00864725
-0.001855
0.00535354
-0.000128009
0.00637998
-0.00968303
0.021398
-0.00331841
-0.0047416
0.00623243
-0.000736265
0.0016239
-0.00104082
-3.99113e-05
0.00233141
-0.00294266
-0.00413034
-0.00593796
0.00111474
0.00769746
-0.00287423
0.0057475
-0.00181118
-0.00160491
-0.00397555
-0.00591254
0.00531859
0.0045695
0.000606697
0.00143432
-0.00601658
0.00415809
-0.00397361
-0.00201594
0.00183146
0.0406132
0.00107155
0.00403139
0.000356051
-0.000229351
-0.000676799
-0.00877509
0.00353935
0.00134704
-0.00227424
-0.00318806
-0.00117252
0.0110793
-0.00458817
0.0068829
-0.00772537
-0.00625573
0.00709821
-0.00238225
0.0140984
-0.00483323
-0.00037037
-0.00318063
0.00489804
0.000160453
-0.00909408
0.00120825
-0.000569973
0.00520812
-0.00470333
0.0039071
-0.00746311
0.0132044
-0.00964843
-0.00510731
-0.00382284
0.0128373
0.00463741
0.000144997
0.000217734
-0.00445309
0.00398318
-0.0105257
0.00252102
0.00391054
0.00409416
-0.00104296
-0.00936435
0.0108726
-0.000465244
-0.00240087
-0.00599142
0.00349682
0.00332207
-0.000827477
-0.0138187
0.0285333
-0.00728143
-0.00743313
0.00118998
-0.001258
0.00209303
0.0082482
-0.0121087
-0.00995818
-0.00764893
-0.00610616
0.00394662
-0.00516687
-0.00630489
0.00578823
0.0112791
-0.00806048
-0.00900685
0.000364499
-0.0023712
0.000669957
0.000103168
0.00110482
-0.000433272
-0.000774719
-0.000846146
-7.21628e-05
6.69227e-05
0.00101111
-0.000758971
-0.000725801
-0.000441484
-7.81688e-05
0.00237639
-0.00185674
0.00208769
-0.000663558
-0.0016429
0.000218774
-0.00378164
0.0079376
2.97159e-05
-0.00630027
0.00353438
0.0083915
0.0255127
0.0107233
-0.00973315
-0.0159303
0.0201307
-0.00585125
0.00175582
0.00169196
-0.000917559
0.00104117
0.000799841
0.000124228
0.000848991
-0.00020223
0.000964742
-0.00022582
-0.000551761
-0.000187161
0.000775549
5.86362e-05
-0.000333749
0.00317426
-0.00829284
0.00198755
0.00655464
-0.00536794
-0.00269409
0.00194725
0.000410148
0.000336694
-0.00618223
-0.00875453
0.0301953
0.00331525
-0.00407669
-0.00794154
0.00870297
0.00327733
-0.00218703
0.00089667
0.00132525
0.00545524
-0.00329698
0.00434845
7.83574e-05
-0.00253016
-0.000811363
2.57583e-05
-0.00128893
-0.00387522
0.00263399
-0.00622157
0.0106705
0.00010601
-0.00265311
0.00188747
0.000659626
-0.000599648
0.00313264
-0.000677281
0.00076565
0.00178936
-0.00287495
0.00212713
-0.000443012
-0.00335309
0.000860208
0.00176716
0.000725723
-0.0025832
-0.00192625
-0.00360615
0.0081156
-0.00205256
0.00165353
-0.00295407
0.0024442
0.00468441
-0.00323764
-0.0289173
-0.0074447
-0.013332
-0.001905
-0.000521142
0.00173524
-0.00913622
0.00697629
-0.00721703
-0.00234246
0.00114869
0.00193081
-0.00480982
-0.00420682
0.00188518
0.00284135
-0.0102976
0.0187014
0.00310297
-0.00223765
0.00288238
-0.000621928
0.000360225
0.00218931
-0.00064188
0.000756181
0.047216
0.00917321
0.00307412
0.000362763
-0.00430891
-0.000485821
-0.00287438
0.00659297
-0.00866523
0.0049833
0.00278596
0.0006511
-0.000180171
0.00184377
0.00201014
-0.00106796
-0.000815312
0.00234017
-0.00168412
0.000159259
0.0039921
0.0121233
-0.015869
-0.00542573
-0.00289024
0.00941468
-0.00109871
0.0049803
-0.0019666
-0.00507273
-0.00485729
0.00231137
0.000702586
-0.00809492
-0.00695855
-0.01167
0.0057344
0.023548
-0.0153614
-0.00487133
0.000821203
-0.0201224
0.00454485
-0.00195803
0.00917239
0.00223068
0.00417795
0.000796071
-0.000353626
-0.00349383
0.00492417
0.00187409
-0.00330443
-0.00113838
-0.0017538
0.000724137
0.00216804
0.000741687
0.00197075
-0.00261467
-0.00194721
-0.00110277
0.00120006
-1.0629e-06
-3.19304e-05
7.73392e-05
-4.43459e-05
0.00213865
0.00151198
-0.00019288
-0.00345775
0.00316031
0.00288979
-0.000318668
0.00186462
-0.00266778
0.00112183
-0.00635782
-0.00197604
0.00942476
0.0176308
-0.0164264
0.00146667
-0.00267104
-0.0195217
0.0172488
0.0102617
-0.00135055
-0.00276985
-0.00614135
-0.00128268
-0.00281053
0.00423333
-0.00234367
0.00246552
0.000650446
-0.000772296
0.00154565
0.00149039
-0.00216372
0.00164898
-0.000564785
-0.00160234
0.000934283
-0.0016023
4.91437e-05
0.000618869
0.00568515
-0.00697546
0.00316161
-0.0018713
0.000863007
-0.000252274
0.001143
-0.00175373
0.000174062
0.00325816
-0.0003023
-0.000539221
0.0103501
-0.00700261
-0.00486531
0.00151778
-0.000673335
-0.000394136
0.000423698
0.000148359
-0.000177921
0.00117854
-0.00226541
-0.00118881
0.00227567
-0.000379941
-0.00835597
0.0100496
0.00399637
0.00062424
-0.000850083
-0.00211002
0.000725775
0.00141266
-2.84213e-05
0.00197283
-0.00101739
0.00304093
-0.00174958
0.0014992
-0.000183742
0.00230123
-0.000413882
-0.00301634
-0.00108252
-0.00462009
0.00113913
0.00456348
0.000233053
0.00290194
0.000135564
-0.000892464
0.00224545
0.00121458
-0.00115197
-0.0017074
-0.000334932
0.0032978
-9.74362e-05
0.000235716
0.000544119
-0.00113876
0.000358923
-0.00127003
0.00136822
0.000579248
-0.000677435
0.00924881
-0.01175
0.00204841
0.0110059
0.000321308
-0.000671377
0.00103362
-0.000584411
0.00216943
-0.00059105
-0.0032139
0.00904174
0.00440912
-0.010237
0.00158557
-0.0020487
-0.000406479
0.0101052
-0.00563797
0.00539596
-0.00986319
0.00596537
-0.014787
-0.0117861
0.0206077
0.000171306
-0.00352316
0.00253654
0.00270816
-0.00257369
-0.0036283
0.00348801
-0.010425
0.00763957
-0.00338537
0.00167051
0.00595824
-0.00551917
0.00510653
0.000875326
0.000511155
-0.000126976
-7.24228e-05
-0.000311757
-0.000102203
0.00252056
0.00382294
0.0579531
-0.00397163
0.00561709
-0.0285721
0.0342338
0.000462143
0.000898004
-0.00112724
0.00244065
0.00252359
-0.000100987
-0.00288765
0.00657355
0.0307456
0.000641758
-0.0199796
0.00180033
0.00224903
-0.00108535
0.000167786
-0.00344288
0.00518064
-0.00199052
0.000252753
-0.00324635
-0.000469326
-7.27256e-05
-0.000239849
0.000625226
-0.000312651
0.00045474
-0.000326723
9.47131e-05
-0.00022273
0.000291738
-6.72351e-05
0.000370046
-0.000594548
0.000662937
0.00462968
-0.00414504
-0.000953931
-2.06262e-05
0.000815544
0.000159014
0.00107061
-0.000736702
-0.000994983
0.000661072
-0.000367422
0.000350746
-0.00363529
-0.00245467
0.00256206
0.00206412
0.00159269
-0.00117418
-0.000614197
0.000730708
0.00105767
-0.00415431
0.00363703
0.000701933
-0.000184653
-0.00104795