/*--------------------------------*- C++ -*----------------------------------*\
| =========                 |                                                 |
| \\      /  F ield         | OpenFOAM: The Open Source CFD Toolbox           |
|  \\    /   O peration     | Version:  2506                                  |
|   \\  /    A nd           | Website:  www.openfoam.com                      |
|    \\/     M anipulation  |                                                 |
\*---------------------------------------------------------------------------*/
FoamFile
{
    version     2.0;
    format      ascii;
    arch        "LSB;label=32;scalar=64";
    class       volVectorField;
    location    "0.0100321";
    object      U;
}
// * * * * * * * * * * * * * * * * * * * * * * * * * * * * * * * * * * * * * //

dimensions      [0 1 -1 0 0 0 0];

internalField   nonuniform List<vector> 
3948
(
(6.71514 5.23123 -0.920763)
(9.76206 0.479947 0.469445)
(10.2022 0.00429938 0.413278)
(8.26309 6.34223 0.853922)
(8.72848 6.29667 1.06149)
(10.3621 0.287939 0.277939)
(8.65831 6.19833 0.932635)
(9.40955 5.75414 0.669247)
(10.3374 0.178099 0.180658)
(10.5481 0.449601 0.249063)
(10.6719 -0.089586 0.210674)
(10.8877 0.135281 0.423105)
(9.97489 2.02244 1.2976)
(10.1527 1.84746 1.27154)
(10.4702 -0.497058 1.78396)
(9.87797 -1.37259 1.66795)
(9.65449 3.02312 2.55228)
(10.0098 0.340134 0.478386)
(9.19643 3.64295 2.01706)
(10.6468 0.177395 0.732372)
(10.5681 0.191997 0.800232)
(11.9357 4.35751 0.823105)
(10.3108 0.131428 0.119775)
(10.7787 0.111202 0.60409)
(10.7641 0.112465 0.709911)
(5.4573 6.42717 1.62372)
(10.6545 0.211503 0.704071)
(8.89291 0.210307 1.10851)
(11.523 -0.129052 0.136754)
(11.62 -0.487787 0.618252)
(9.92004 0.791675 0.824176)
(6.10119 2.46353 -0.531945)
(7.61035 3.50423 -0.536493)
(11.5327 -0.17358 0.913601)
(3.65639 3.73757 -0.984267)
(10.8731 -0.00113937 0.469623)
(1.47337 3.54362 -0.102917)
(6.2889 3.33112 -0.956695)
(7.4661 -0.511637 1.73231)
(5.86405 1.68424 2.80882)
(9.50835 0.357885 3.04065)
(10.8467 -0.145095 1.20494)
(6.9665 3.87344 -1.37657)
(7.49052 3.92879 -1.13562)
(10.7302 0.0754224 0.614726)
(6.72897 4.43577 -1.57073)
(7.65184 3.47535 -0.672254)
(6.92165 3.70352 -1.28182)
(3.01675 3.32324 -1.39432)
(4.96751 -0.138068 0.946877)
(11.5037 -0.270683 0.423937)
(1.86809 0.585603 0.353916)
(10.3159 2.38431 2.96961)
(3.7567 0.0909762 1.65219)
(8.73608 -0.0160269 1.27813)
(5.07149 4.66721 -1.76524)
(10.3714 0.334958 0.2039)
(10.484 0.219531 1.03558)
(4.66182 4.2774 -1.36189)
(10.0855 0.929396 -0.413849)
(10.3547 -0.296454 1.47061)
(10.1479 0.0108279 0.94425)
(10.2892 0.138806 0.00721004)
(11.471 -0.0722655 1.44334)
(11.536 -0.222039 1.28619)
(10.901 0.0400369 1.54149)
(9.22285 1.14461 -0.670948)
(8.72089 1.22842 -1.21678)
(10.7607 0.205613 0.841777)
(9.64331 -0.988551 1.75105)
(3.02317 1.77978 -1.84749)
(10.6982 0.162651 1.98061)
(10.0792 3.00434 3.95749)
(10.2791 0.531093 0.136116)
(10.9664 0.0442838 0.405115)
(10.5269 0.253114 0.593087)
(10.5692 0.0774813 0.10656)
(10.9172 0.00514139 0.935975)
(6.46015 6.47441 -0.433753)
(11.7582 -0.524784 0.697679)
(10.852 0.913794 2.24992)
(10.7955 0.955978 2.32677)
(9.42829 1.30268 0.327233)
(9.97446 0.46408 0.164695)
(10.6394 1.08407 2.4956)
(10.7324 1.06691 2.32766)
(10.5314 0.69143 2.82872)
(10.7525 0.728376 2.15213)
(8.05566 2.121 -0.790609)
(10.2546 0.294992 0.193091)
(8.25616 0.581649 1.55816)
(10.7666 0.14319 0.701904)
(9.93505 2.0219 0.797795)
(10.256 0.428589 0.862138)
(10.3152 0.949596 -0.123905)
(10.63 0.153664 1.05396)
(9.31203 0.996163 0.679558)
(9.93386 1.82013 2.59417)
(10.1901 0.524193 0.175727)
(10.7089 0.105285 0.479916)
(10.764 0.0289522 0.319297)
(11.0556 1.9399e-05 0.809405)
(11.877 1.72838 1.11366)
(10.2289 0.565581 0.333665)
(10.7383 0.308344 0.914789)
(11.4517 -0.199137 0.899579)
(10.5025 0.677282 0.507376)
(9.81234 0.402159 0.509636)
(7.13451 6.40739 0.0965074)
(9.01605 0.51502 1.20922)
(7.97407 1.49701 -0.821013)
(7.3178 2.46326 -0.123367)
(10.3017 0.161367 0.0664366)
(10.2679 1.47669 0.510382)
(3.06073 3.90439 -3.74094)
(9.96339 0.364933 0.244717)
(10.2306 0.82637 0.801498)
(9.2782 3.27339 -0.384211)
(8.5783 0.348396 1.464)
(9.29758 -0.445711 0.209198)
(4.23922 1.80635 -2.84566)
(11.1028 -0.309075 -0.0803407)
(10.4474 0.198613 1.14883)
(8.29081 0.31989 0.671699)
(10.7649 1.49856 0.282517)
(11.0678 -0.280167 -0.0154613)
(9.21839 2.86694 -0.313934)
(11.0129 -0.576728 1.21532)
(6.95851 4.73355 -0.43657)
(9.28651 1.10249 0.825415)
(10.8921 0.160696 1.12654)
(10.2253 0.179947 0.191962)
(11.0142 0.496128 1.94409)
(10.5074 1.73162 2.77318)
(10.1043 0.805812 0.0333788)
(7.78808 4.32769 2.56774)
(10.2571 0.9358 0.522197)
(10.5617 1.93326 1.19011)
(11.5424 1.92121 2.56808)
(10.7619 -0.187649 0.266491)
(10.1996 0.24226 2.17982)
(10.305 1.11934 0.300098)
(10.1879 0.590991 -0.0672641)
(10.8494 0.00201849 0.561783)
(10.5294 1.13479 1.79604)
(10.972 0.254939 0.878971)
(9.89441 0.465367 0.161132)
(11.5682 -0.627226 0.100044)
(9.20247 0.00834274 0.949388)
(10.7651 0.00830536 0.114091)
(10.685 0.0569678 0.279748)
(10.7571 -0.125403 -0.0404698)
(11.0011 -0.0382283 0.480617)
(11.1501 -0.0461068 1.60584)
(11.1482 -0.0587953 0.353288)
(11.1705 -0.328685 -0.0451586)
(10.4495 0.24809 0.328705)
(11.9796 -0.61696 0.428073)
(11.3815 -0.47274 1.03272)
(10.1677 0.301072 1.16602)
(10.9764 -0.080083 0.606453)
(9.99693 0.555784 1.32819)
(10.4306 0.295877 0.236207)
(10.1508 0.384 0.209971)
(10.2709 0.30361 0.16992)
(10.0555 0.477271 0.207369)
(7.45943 3.18427 -0.343818)
(8.93516 -0.558788 1.4677)
(8.84214 1.49219 -0.672978)
(3.65557 4.50055 -3.65088)
(6.012 1.5164 -1.75762)
(10.9237 0.0945441 0.45691)
(11.1407 -0.0415809 0.439404)
(5.00827 1.75647 -0.592013)
(7.00775 4.40298 0.173764)
(10.3014 0.288722 0.249902)
(10.9553 -0.0441519 0.766322)
(9.67452 0.094728 0.862516)
(10.8178 0.140461 0.664306)
(10.7896 0.0683567 0.538597)
(11.3952 2.51438 0.694808)
(3.21136 3.41786 -0.716054)
(4.84263 1.10826 -0.107393)
(7.89142 2.46598 -1.60367)
(10.7577 0.101014 0.48208)
(10.3939 0.266667 1.27647)
(10.0676 3.07007 0.69855)
(10.9788 0.100507 0.762979)
(11.2026 -0.0801798 0.880839)
(10.7763 0.122296 0.491878)
(11.3714 -0.125431 0.743641)
(10.542 1.31103 0.397411)
(10.8007 0.00358524 0.316936)
(9.19281 1.02514 -0.701206)
(10.4014 0.276359 0.685948)
(10.7973 0.459682 0.57248)
(10.985 -0.442361 -0.360804)
(9.32689 0.84325 1.21742)
(11.1793 -0.399199 0.150923)
(11.5477 -0.475591 0.498734)
(11.1868 -0.270461 0.34828)
(11.0458 -0.273826 0.02152)
(9.53462 2.67264 3.60467)
(11.0929 -0.0814173 0.23288)
(11.3197 -0.343714 1.07814)
(9.72608 0.401781 0.188793)
(10.6499 0.176092 1.10814)
(3.82344 2.61635 -0.742882)
(10.6344 1.11073 1.74465)
(11.8244 0.346405 1.75805)
(10.9472 -0.058973 0.301886)
(5.1346 6.06487 1.56463)
(11.1441 -0.226207 0.295566)
(11.6594 -0.567017 0.456177)
(10.5087 0.179119 0.543979)
(7.50031 4.13965 0.582872)
(9.6496 0.721886 -0.437082)
(7.49563 3.69045 0.696836)
(8.57157 5.61651 1.8212)
(10.8092 0.102215 0.175855)
(8.882 -0.59759 1.7042)
(11.067 2.54007 0.0706538)
(10.9581 0.107509 1.00505)
(10.0384 0.644468 0.238216)
(11.0236 -0.0982594 0.746805)
(10.3039 0.182953 0.419936)
(11.1108 -0.23152 0.0317602)
(9.63454 0.854102 -0.132321)
(10.2817 0.616611 -0.0535897)
(2.5951 2.44561 -2.38567)
(10.3485 -0.280198 1.17643)
(8.53157 4.04788 2.73684)
(9.50704 1.35386 0.321435)
(10.276 0.296218 1.10125)
(7.52911 2.83554 -0.242352)
(5.37537 5.12298 -1.40508)
(10.6306 0.162142 0.809041)
(9.43337 0.558543 1.06085)
(10.304 0.311658 0.518853)
(9.78118 -0.178037 0.241703)
(10.5092 1.5943 0.0666649)
(7.9554 0.929343 -1.02065)
(10.3891 0.104903 0.195133)
(9.63153 0.638382 0.538469)
(9.08019 2.93953 -1.13206)
(10.7855 0.0535932 0.23661)
(10.7777 -0.101985 0.212077)
(10.1133 0.619448 1.79637)
(10.0316 0.79446 -0.360354)
(10.5882 0.143745 0.312184)
(10.6317 0.360452 0.620271)
(10.6216 0.212517 0.647542)
(10.2066 0.50323 0.0616379)
(9.87774 0.620278 0.545838)
(10.5557 -0.0129325 1.28294)
(10.2558 0.229221 1.21105)
(9.25307 1.44024 1.43619)
(6.42241 4.50797 -0.0152597)
(10.3085 0.967968 0.574639)
(11.0451 -0.136119 0.242512)
(10.983 0.265419 1.3291)
(8.20037 1.2526 1.19337)
(11.0392 0.103643 0.992529)
(8.22009 -0.315102 0.102021)
(9.95604 -0.224408 1.01731)
(11.0647 1.8269 1.60799)
(11.4736 -0.694887 0.965608)
(10.031 0.693717 0.913448)
(9.44787 3.09219 1.22479)
(6.36287 0.720071 0.479505)
(10.8353 0.188298 0.909556)
(11.2299 -0.229076 0.685589)
(11.3843 -0.0723353 0.527255)
(10.5269 -0.319372 1.1185)
(5.40024 3.67168 -1.40842)
(9.29389 1.17938 0.244356)
(10.7076 0.153296 1.46756)
(8.07159 1.92446 -0.223291)
(10.5447 2.42031 0.591738)
(5.29581 6.20992 -1.81558)
(11.7307 -0.298855 0.834563)
(10.1811 0.656764 1.12584)
(5.91684 4.08801 -1.10533)
(7.09542 4.7279 0.0492602)
(9.60792 1.12686 0.56395)
(10.9872 -0.0449391 0.472906)
(11.0571 -0.0985088 0.956818)
(10.9221 -0.101733 1.2042)
(8.30078 2.85267 0.391463)
(9.59709 1.45017 -0.366425)
(8.15396 1.11308 1.34618)
(10.2431 2.1446 -0.570522)
(11.0674 -0.0969933 1.22708)
(10.5329 1.50374 1.36248)
(6.31449 2.37473 -0.314084)
(10.0567 1.42215 0.860875)
(9.76427 2.23354 1.0536)
(10.5636 0.0674822 4.57904)
(10.3333 2.04425 1.34959)
(6.42038 4.93097 -0.916632)
(0.279446 3.68531 -0.424401)
(9.47226 -0.228021 0.303934)
(10.0485 0.674863 0.224115)
(11.4566 -0.682109 1.02488)
(8.38504 0.954305 -1.49924)
(10.6102 0.157102 0.369997)
(10.5332 0.199439 0.318963)
(11.1048 -0.108895 1.01171)
(10.0452 -0.234392 1.03574)
(10.3529 0.283707 0.889533)
(10.2414 0.278053 0.169044)
(10.4018 0.526968 1.17461)
(10.197 0.769815 1.31661)
(6.90333 4.12684 -0.248549)
(10.7295 0.324493 0.531911)
(10.4551 0.218448 0.171273)
(8.81105 3.99076 1.81358)
(4.92803 3.13278 -1.88944)
(4.6286 4.37166 -2.00549)
(8.51523 3.3235 1.34186)
(10.4869 1.73166 4.72833)
(10.9224 0.631707 1.76346)
(9.74372 1.28931 0.716508)
(5.39181 6.70297 -0.766589)
(10.1319 0.452853 0.462079)
(10.354 0.84293 0.404187)
(10.2799 0.283427 0.402048)
(10.6903 -0.122989 0.163532)
(9.93052 0.66296 0.511296)
(10.6328 0.3445 0.492296)
(10.6117 0.683278 2.55447)
(9.65956 2.40707 2.60751)
(1.39152 0.720223 1.1389)
(11.7378 0.383955 1.88906)
(-0.0382454 -0.874292 -0.721609)
(10.1473 0.50864 -0.0393195)
(9.85953 -0.901717 0.253785)
(10.8254 0.131225 1.06098)
(6.46929 5.91029 -0.67837)
(9.06865 5.94959 1.91997)
(6.88011 5.56313 -0.531253)
(8.57727 1.96223 0.565385)
(6.17455 1.47548 -0.080578)
(8.13766 1.53233 0.683385)
(9.62094 0.639514 0.583465)
(9.09391 1.3247 0.946274)
(3.92017 2.19312 -0.898498)
(7.94448 5.85436 0.543911)
(9.72704 2.53118 1.42206)
(8.54904 0.781891 1.32252)
(11.0508 0.0813551 0.91604)
(11.4242 0.609035 2.1737)
(7.34088 1.3456 0.728112)
(8.45538 -0.075954 0.913606)
(10.9066 0.00813215 1.04705)
(10.1331 0.503241 0.506538)
(10.5146 0.111541 0.438985)
(10.6444 0.0325834 -0.0898491)
(10.4059 0.277843 0.165762)
(10.7044 0.193033 0.927155)
(10.386 0.279285 2.17595)
(10.59 0.433039 0.733099)
(8.86724 -0.451579 0.944417)
(10.4819 -0.105254 1.26652)
(9.78078 0.292715 0.391035)
(12.8064 2.54712 1.08096)
(11.0553 -0.0946187 0.305553)
(10.94 -0.127253 0.276669)
(10.8393 -0.0419788 0.26294)
(10.8532 -0.136844 0.209886)
(11.1609 -0.0872959 0.245565)
(11.5707 -0.209502 0.710111)
(11.6048 -0.166597 0.764986)
(11.4919 -0.165075 0.974235)
(11.1906 -0.17433 1.00895)
(10.9488 0.0299789 0.990068)
(10.4037 -0.0816271 0.985471)
(11.0405 -0.100324 1.19283)
(11.2773 -0.132005 0.577673)
(10.4746 0.189986 0.384345)
(9.98592 0.541909 1.15302)
(10.4727 0.33327 1.15379)
(10.5328 0.249362 0.929505)
(9.96839 0.611881 0.888483)
(10.7461 0.166922 2.06804)
(10.5822 0.561643 2.33416)
(10.8258 -0.277232 1.79421)
(10.4617 -0.461073 1.7488)
(10.8718 0.243261 1.76312)
(10.3632 0.270918 1.23688)
(10.4039 0.239709 1.13098)
(10.37 0.310746 0.887386)
(10.5435 0.244468 1.34938)
(10.3793 0.389203 1.15289)
(10.5664 0.272257 0.606496)
(10.533 0.267648 0.59797)
(10.6648 0.270696 0.60792)
(10.5786 0.255479 0.527715)
(10.5637 0.241043 0.501234)
(-0.878228 1.99872 -1.44555)
(10.6332 0.267573 0.667726)
(10.6635 0.173032 0.560706)
(10.63 0.203073 0.543158)
(10.7454 0.354929 0.766058)
(10.7633 0.304751 0.536332)
(10.9136 0.159578 0.646459)
(10.3715 1.24778 5.11872)
(11.8003 -0.668914 0.19606)
(3.09155 4.23396 0.996986)
(12.1243 -0.8122 0.0391557)
(10.2885 0.493282 0.251709)
(10.3354 0.507707 0.224595)
(10.9828 0.661554 1.00974)
(10.8481 0.407776 0.673853)
(10.9931 0.6598 1.08411)
(10.8937 0.235744 0.791713)
(10.1947 0.262919 -0.133112)
(10.4518 0.172729 0.203281)
(10.4739 -0.0700803 0.323347)
(10.1313 0.304669 0.154918)
(10.1846 0.302915 0.149547)
(10.3216 0.29706 0.149014)
(6.1057 4.8312 -1.18308)
(6.02073 4.19246 -1.11979)
(9.78177 4.15911 2.27362)
(9.40403 2.80574 1.23451)
(10.8214 0.120255 0.413342)
(9.0688 4.29198 3.05634)
(10.8603 0.0342481 0.337074)
(10.5389 1.87065 0.834964)
(8.95756 0.365215 1.17062)
(5.27073 1.84986 -1.33652)
(9.35173 0.675393 0.664288)
(10.3845 1.98893 0.792476)
(10.5898 -0.560807 1.34085)
(8.88965 0.866894 2.0584)
(4.20401 6.84954 0.534869)
(3.06712 6.86725 0.0705595)
(2.69709 4.89101 -0.312901)
(10.611 0.253708 1.29728)
(10.3902 0.598623 0.865687)
(10.2467 0.931006 0.924796)
(9.63196 -0.485612 0.187187)
(10.5432 0.180446 1.11393)
(9.15825 1.19962 -0.834573)
(10.27 0.983924 0.91925)
(10.0444 -1.46557 1.83424)
(9.88045 0.574768 0.148051)
(5.25472 5.86612 -1.2619)
(9.87981 0.637255 0.171384)
(6.7778 6.78005 0.0271168)
(9.7937 0.297314 0.250924)
(9.74015 0.365383 0.136665)
(10.3441 0.185515 0.126422)
(9.85857 -0.511131 0.586018)
(11.2563 -0.284155 0.330106)
(11.5136 -0.40675 0.523942)
(11.3085 -0.346744 0.257078)
(11.4455 -0.14659 1.00256)
(11.2355 -0.102775 0.886727)
(11.8478 -0.0103534 1.00291)
(11.4259 -0.287343 0.770586)
(10.1059 0.739151 0.262324)
(11.0056 -0.235809 1.24735)
(10.0173 0.0666324 -0.00975846)
(9.88763 2.46315 -0.437169)
(9.84488 2.42467 -0.428382)
(11.1489 -0.114645 0.948745)
(11 -0.122433 1.16166)
(2.89349 2.54095 -2.14588)
(9.61361 -0.567102 0.621469)
(7.14122 2.10812 0.0594714)
(7.80527 -0.300002 0.252878)
(10.7184 0.648573 1.78016)
(11.469 -0.235341 0.893982)
(11.5421 -0.310509 0.891934)
(11.2182 -0.160053 1.02098)
(10.8969 0.087816 0.611852)
(10.9748 0.0226999 0.72621)
(10.8268 -0.0947284 1.14421)
(10.7556 -0.0363782 1.16917)
(10.8017 -0.0522706 1.14986)
(10.5276 0.18828 0.257126)
(10.523 0.573241 0.262545)
(10.4598 0.484577 0.224205)
(10.8123 0.375401 0.314546)
(10.737 0.565767 0.441851)
(10.3343 1.09815 1.24197)
(10.4253 1.23531 1.18695)
(10.3692 1.21597 1.0408)
(9.82723 2.04418 1.85863)
(9.94529 1.75138 1.49737)
(10.1829 1.25453 1.43778)
(10.1929 1.51285 1.48916)
(10.3003 0.297143 0.65936)
(10.3273 -0.870423 3.26917)
(10.1095 -0.399884 3.51616)
(7.84237 1.06476 1.57628)
(9.69028 2.02135 0.527791)
(8.81217 3.90634 -0.160762)
(8.58403 4.25584 -0.540873)
(11.3491 0.0325889 1.11944)
(11.2537 0.168549 1.48433)
(5.82654 4.18137 -1.3677)
(11.0429 0.808455 1.44159)
(11.1178 -0.157728 0.404538)
(11.4837 -0.43504 0.243782)
(8.77865 -0.635718 0.983868)
(11.5082 -0.417513 0.672388)
(11.971 -0.628789 0.235916)
(11.091 -0.21303 0.319999)
(11.427 -0.423257 0.36318)
(11.192 -0.0890006 0.724536)
(5.29409 5.16879 -1.82276)
(11.0287 0.0381819 1.59111)
(4.79143 5.84393 -1.6515)
(11.6594 1.91452 1.27858)
(10.6284 0.0623806 0.197062)
(7.7618 5.99327 0.507191)
(10.1166 3.07687 2.2528)
(10.6124 0.564976 2.86933)
(7.01961 5.39168 -0.588653)
(6.37168 6.2717 -0.592041)
(10.925 0.0680041 1.13678)
(7.8343 6.17505 0.639968)
(6.85126 6.04245 -0.293895)
(8.94711 4.01915 -0.917103)
(10.919 0.0222309 1.38558)
(11.2144 -0.155684 1.04213)
(11.0819 0.000307628 0.9907)
(10.8569 -0.0619211 1.17503)
(8.96691 4.96133 3.54313)
(10.9376 -0.0283686 0.438444)
(10.9383 -0.100585 0.453597)
(10.7652 0.00488388 0.434487)
(10.9293 -0.0839588 0.291665)
(9.75739 1.37266 -0.120961)
(6.50614 3.67306 -2.72536)
(11.0782 -0.128954 0.152128)
(10.6237 0.571673 0.263429)
(11.0038 -0.159148 0.466076)
(10.6946 0.0785676 0.350664)
(10.9343 -0.048756 1.09269)
(10.665 0.118042 1.08577)
(6.10686 5.0214 -2.0263)
(9.51765 5.31679 -0.19149)
(8.00893 0.593048 1.20035)
(10.8172 -0.0942312 0.31662)
(10.8561 -0.255303 0.233888)
(10.7719 -0.119745 0.269784)
(10.8965 -0.185078 0.262959)
(8.47041 1.10218 -0.613912)
(10.4672 0.138085 0.123704)
(10.304 0.212992 0.146312)
(10.6654 0.174576 0.600259)
(9.8263 1.17384 0.0478101)
(9.92268 1.45874 -0.317381)
(10.0103 1.53316 0.0164832)
(9.8693 1.29821 -0.227019)
(10.078 0.968019 0.148712)
(10.1691 0.849333 0.0657302)
(10.2549 1.50527 -0.112112)
(6.33917 1.15038 -0.072418)
(11.2157 0.0467421 1.09904)
(6.96168 1.0019 0.380825)
(10.4082 0.184487 0.185755)
(7.24607 1.41205 -0.160557)
(11.7805 2.49849 1.34516)
(6.95097 1.7869 -0.263182)
(8.49769 0.807033 0.621838)
(7.54619 1.41233 0.303087)
(10.4656 0.283551 0.414099)
(10.4971 0.22155 0.377001)
(10.4329 0.489071 0.674155)
(10.5302 -0.0898993 0.0667914)
(10.4025 0.521223 0.643306)
(10.4866 0.286439 0.452734)
(10.9486 0.070979 0.387807)
(10.4752 0.289212 0.439173)
(9.0124 1.02077 -0.127516)
(9.11537 0.870304 0.14503)
(10.884 0.161084 0.452305)
(9.05878 1.16796 -0.312063)
(8.27696 1.54607 -0.509947)
(9.36775 0.609552 0.29542)
(9.56614 0.517297 0.294557)
(9.42233 0.613698 0.559656)
(9.56953 0.559672 0.461076)
(10.3021 0.367597 0.231404)
(10.3289 0.416501 0.115159)
(10.3354 0.375061 0.236424)
(10.3951 0.344546 0.520796)
(9.51423 0.404698 0.482054)
(10.6447 0.347695 0.779718)
(9.58849 0.447396 0.755061)
(9.70183 0.521518 0.215981)
(9.58116 0.634704 0.247911)
(10.495 0.0927448 0.183204)
(10.1645 0.902188 1.50618)
(10.127 1.22486 2.37361)
(10.7887 1.42007 2.79603)
(10.5912 0.215251 1.94648)
(10.7607 0.377083 1.3018)
(10.4766 0.664679 1.32924)
(10.5328 0.752838 0.0169763)
(10.4076 0.675971 -0.00771559)
(10.2538 0.319327 0.164252)
(10.2877 0.341414 0.25302)
(10.824 0.592653 0.816838)
(8.22562 -1.12702 0.646853)
(7.22521 -0.915417 0.297142)
(7.89259 -1.30486 0.633711)
(6.78403 0.983517 2.48664)
(10.9756 -0.172289 0.202109)
(10.9519 -0.135071 0.317944)
(11.1197 -0.133696 0.607581)
(10.3256 0.262769 0.134287)
(11.0137 -0.25183 0.0382227)
(11.5993 0.249042 1.70468)
(10.563 0.303959 0.428883)
(10.8578 0.613317 1.00746)
(11.0933 0.577496 1.11395)
(11.2097 0.442222 1.07245)
(10.3244 0.263236 -0.0327314)
(11.8501 -0.321231 1.17598)
(11.997 0.0383279 1.61355)
(11.6774 -0.169882 0.976188)
(11.3075 1.54843 1.4509)
(11.281 0.542752 1.69727)
(10.622 0.184391 0.380146)
(11.3327 0.482813 1.58595)
(10.9612 -0.0609908 0.700388)
(10.2125 -0.0105292 0.140688)
(10.3164 1.01888 1.60626)
(10.3826 -0.100934 0.04948)
(10.6829 0.132233 0.384394)
(10.9399 -0.045581 0.5872)
(10.9718 1.05083 1.00593)
(10.395 0.213436 0.209118)
(11.378 -0.200188 0.426888)
(10.8786 0.178108 1.73148)
(11.5075 -0.375108 0.568606)
(10.2153 0.263637 0.162366)
(11.6293 1.42869 1.58793)
(8.80171 1.13671 1.1699)
(11.1262 -0.419693 -0.272235)
(12.0425 -0.685175 0.403371)
(11.9071 -0.603387 0.517924)
(11.2788 -0.440988 1.15709)
(9.94819 0.343342 0.333104)
(10.0258 0.351926 0.484341)
(9.86536 0.428268 0.575553)
(9.78728 0.468702 0.570012)
(10.0006 0.374084 0.578552)
(10.1029 0.314494 0.548126)
(10.221 0.279156 0.15263)
(10.7737 -0.261144 0.024651)
(10.7742 -0.176838 0.209675)
(10.7413 -0.389992 0.112376)
(5.02894 1.10616 0.169159)
(8.06516 5.8897 0.973331)
(8.65657 1.85915 0.0086618)
(9.39663 2.22791 1.99308)
(10.3403 1.21024 0.544125)
(10.7527 2.74225 0.7724)
(1.07228 -1.02679 1.50695)
(9.76503 1.26064 0.313725)
(10.4602 0.554083 0.256925)
(10.6993 0.138831 1.07328)
(10.971 -0.236768 0.127348)
(10.7339 0.275819 0.229289)
(10.4453 0.193485 0.180931)
(10.9091 -0.0478769 0.223821)
(10.8084 0.140335 0.738894)
(11.5259 -0.36116 0.5638)
(10.8811 0.119528 0.685057)
(6.88536 4.92097 -1.54848)
(11.3328 2.16243 2.48593)
(9.98404 1.89942 -0.490005)
(11.0044 0.0909398 1.02804)
(10.8533 0.199996 0.844574)
(11.31 -0.146132 0.888818)
(10.5905 0.321677 0.30915)
(5.33749 5.91273 -1.60718)
(10.3627 -1.08903 2.31635)
(6.43636 2.94817 -1.09691)
(7.08461 1.42372 -1.92673)
(11.4874 0.308494 1.80525)
(11.3573 -0.531434 -0.0460127)
(10.1956 1.82804 4.87001)
(11.3413 -0.418879 0.0456914)
(7.56944 2.27812 0.893976)
(9.69066 2.52077 -0.132476)
(9.52752 -0.253305 0.432725)
(11.1766 -0.570057 -0.144528)
(10.32 1.93752 0.877922)
(9.36733 3.7959 -0.299802)
(11.3947 -0.565545 1.09435)
(6.5876 6.9343 -0.207398)
(7.11439 1.26673 0.512685)
(10.8425 -0.210446 0.229476)
(11.2086 -0.20681 0.13144)
(12.4055 4.03374 1.09893)
(1.38055 2.87224 -2.47941)
(10.368 0.706084 1.21658)
(11.0535 -0.066971 0.514209)
(10.807 0.0966093 1.10373)
(9.7687 0.698675 0.336094)
(11.1897 0.0832039 0.62307)
(11.546 -0.342266 0.988095)
(8.8646 1.82547 -0.0968374)
(10.0609 0.421235 0.475749)
(9.89281 0.67155 0.775259)
(10.1012 0.678264 0.71728)
(4.6745 3.81311 -0.595356)
(6.54549 2.82193 -0.825795)
(10.2717 0.154143 0.0558623)
(11.2019 -0.0938773 0.183214)
(11.099 0.0890428 0.0651528)
(6.08319 4.93615 -1.22254)
(11.0113 0.0990039 0.0322366)
(11.927 -0.660023 0.541092)
(10.8843 -0.0852688 0.322687)
(11.0512 -0.120016 0.00520482)
(10.2856 0.345561 0.191281)
(7.92815 -1.61866 0.483234)
(11.6713 -0.364516 0.690877)
(10.7241 0.137243 0.611293)
(6.49922 0.0337593 0.986445)
(11.2332 -0.599942 1.22074)
(10.8305 -0.291341 1.47455)
(11.2047 -0.1021 0.660035)
(10.8086 2.65495 2.96984)
(10.6181 -0.564853 1.84139)
(4.92024 3.4102 -1.4506)
(11.5884 -0.325261 0.34207)
(12.2138 2.04821 0.871761)
(10.2483 -0.183765 0.893615)
(6.79574 3.09889 -1.82663)
(6.83642 3.40581 -2.04779)
(10.7074 1.02415 2.86429)
(10.6014 2.21955 2.82469)
(11.3418 0.0216789 1.05126)
(5.31965 4.64106 -3.08712)
(8.68064 -0.171381 0.628094)
(6.37445 4.30545 0.193391)
(1.15562 4.00913 -0.454803)
(5.02418 4.26465 -2.05902)
(10.8448 -0.0916469 0.542721)
(11.0133 -0.0685763 1.02345)
(10.9553 -0.211619 1.15077)
(11.1768 -0.181813 0.525057)
(7.48444 1.05684 -0.276819)
(10.72 0.287511 2.65137)
(10.7579 0.643595 1.48892)
(10.0411 -1.2941 1.86212)
(11.2317 -0.409438 1.32712)
(10.3471 0.299559 0.142057)
(9.96244 0.511163 1.36798)
(10.7613 -0.0664263 0.20275)
(10.2868 0.264561 0.132708)
(4.84941 4.41844 -3.04511)
(10.4891 0.232679 0.791137)
(10.2073 0.230725 0.434789)
(7.80698 1.40527 -0.830477)
(8.74998 5.83629 2.06532)
(9.64942 0.597035 0.512119)
(10.1627 0.220882 0.233008)
(10.2115 0.10813 0.179849)
(10.4389 0.746383 -0.0306176)
(10.5504 0.348395 0.262342)
(10.6589 0.046245 0.290714)
(7.39565 -1.17824 -0.0080429)
(10.4765 0.0896215 0.338817)
(8.37397 4.16897 0.562299)
(8.21901 2.65294 -2.27698)
(6.35292 5.91172 -0.805006)
(10.0998 0.356468 0.181704)
(9.90765 0.261506 1.36808)
(10.1027 0.28178 0.289073)
(10.6301 -0.0309364 0.117654)
(10.3986 0.283218 0.15584)
(10.4372 0.12133 0.20551)
(10.9999 0.0628838 0.645402)
(11.6528 -0.811879 1.05413)
(7.83976 4.12163 -1.57927)
(10.4274 0.790579 0.393058)
(10.0738 1.88527 2.00791)
(10.0579 0.564941 0.199799)
(10.6896 0.401459 0.287736)
(10.3227 0.118473 0.294641)
(7.51183 2.38798 1.06931)
(8.3031 5.48489 1.55913)
(10.1327 0.383114 0.826573)
(7.22565 1.2042 1.69168)
(5.10986 1.73072 0.0805441)
(10.6997 0.171434 0.749271)
(4.89402 3.33334 -2.22148)
(10.6274 0.0277249 1.10323)
(5.1398 2.96369 -3.53108)
(10.5158 0.22097 0.789554)
(10.4046 1.00253 0.569351)
(10.3694 0.149381 0.120769)
(10.278 0.0889735 0.384035)
(3.41046 3.18872 -0.641527)
(5.24262 6.86438 -0.0611646)
(10.2933 0.0917787 0.352227)
(9.16313 1.25279 -0.979212)
(8.75339 -0.0622948 0.638563)
(10.0061 0.679873 1.50741)
(9.85802 0.883459 -0.352154)
(9.91335 0.791028 -0.447063)
(8.002 1.07518 0.420569)
(9.34085 1.04082 -0.492408)
(5.69945 2.90699 -1.14204)
(10.0747 0.48972 0.0262515)
(10.4309 1.42209 0.3959)
(9.59744 -0.807835 0.319542)
(3.21825 1.95479 -0.346808)
(10.3207 -0.485206 4.57368)
(10.9177 0.202428 0.945991)
(8.14383 3.13673 1.64661)
(6.24926 3.05882 0.0100461)
(11.2125 0.0612246 1.71042)
(9.97829 0.31709 0.403623)
(10.189 -0.219184 0.822118)
(9.00982 0.860593 0.826882)
(9.36603 0.00757597 0.325172)
(9.51606 1.0115 0.771377)
(9.3112 1.02057 0.28852)
(8.4998 4.68711 2.54598)
(9.50863 4.14558 3.54631)
(11.1687 -0.263493 0.0948491)
(8.96148 4.75187 2.46241)
(11.8347 -0.478613 0.012339)
(11.7306 -0.532346 0.835305)
(3.71533 3.01813 -1.9101)
(10.6667 0.139329 0.416761)
(11.0926 2.24436 2.16279)
(11.2717 -0.311278 0.118381)
(11.3354 -0.398463 0.00828639)
(11.5841 1.92338 2.56482)
(9.04446 4.75628 5.5706)
(10.2872 3.9955 3.06119)
(9.53802 3.91669 5.92151)
(10.3492 2.91865 1.79554)
(11.253 -0.298696 0.235993)
(11.5196 -0.268879 0.774073)
(8.12394 -0.903012 0.532306)
(10.7678 0.122518 0.751481)
(10.723 0.151029 0.825194)
(11.0162 0.0706242 0.885918)
(10.877 0.100854 0.79965)
(11.2557 -0.0323431 0.877098)
(11.0904 0.0783119 0.873915)
(11.4394 -0.0276384 0.827289)
(12.5102 3.33417 1.29305)
(11.5381 -0.0599129 1.22773)
(11.727 -0.0867617 0.768204)
(10.9365 -0.10616 0.444678)
(9.78057 0.362918 0.573155)
(10.9034 0.112692 0.877134)
(11.5606 -0.0742335 0.428677)
(9.52528 0.967468 5.07157)
(10.1419 0.293601 1.41387)
(10.7482 -0.0460797 0.112124)
(11.0481 2.43152 3.13946)
(11.2403 2.3595 2.90613)
(4.43738 7.42708 -0.154119)
(1.36278 5.27674 -1.41494)
(10.0972 0.214234 0.181128)
(10.9474 -0.0403972 0.995188)
(1.17975 4.59861 -1.4396)
(11.564 0.0200827 1.04521)
(10.0256 -0.321195 1.21806)
(10.4406 0.152239 0.278243)
(10.818 -0.100545 0.128432)
(6.1844 4.70175 -1.96387)
(3.77588 2.53861 -1.27489)
(10.6423 -0.0303527 1.2054)
(10.4224 0.0612416 1.0949)
(1.82232 5.84052 -0.492565)
(8.92093 1.35631 -0.433049)
(8.18992 2.52861 0.589012)
(5.13114 3.36916 -1.16842)
(10.2567 0.384192 0.411678)
(5.20201 3.09242 -1.87043)
(2.52012 4.42681 -0.596985)
(9.1446 -0.190394 0.687807)
(10.7321 -0.464595 2.9269)
(11.1921 -0.321684 0.0204056)
(11.6352 -0.316677 0.980789)
(11.6752 -0.352512 0.795822)
(9.30488 0.0448855 0.761215)
(6.59936 6.89095 0.203079)
(6.80521 7.08271 0.512062)
(7.84902 -1.12811 0.4747)
(10.8912 -0.0842941 0.441061)
(11.2682 -0.0142426 0.67294)
(11.3427 -0.316597 0.533714)
(5.9352 2.92777 -0.294552)
(5.76319 2.95422 -0.00180713)
(4.58357 6.64665 -0.791767)
(11.4631 -1.05551 0.749405)
(9.62532 1.11048 1.05878)
(9.92075 -0.917969 3.42782)
(11.1558 -0.0640118 1.03621)
(9.91339 3.14327 2.29314)
(10.195 0.242093 0.0936362)
(10.1374 0.682292 1.06157)
(10.1815 0.383525 0.241916)
(11.2788 1.37816 0.733239)
(10.315 0.229778 0.153654)
(11.1865 0.125057 0.680571)
(10.5157 0.146243 0.278221)
(10.2872 0.481507 0.195007)
(10.7331 3.04999 3.50944)
(12.1809 -0.578693 0.031083)
(5.3511 5.5165 -1.36865)
(9.2231 -0.1868 0.342863)
(11.1421 2.3347 2.789)
(11.1676 1.32716 0.366574)
(10.8223 -0.0276526 0.573345)
(11.7752 -0.411168 0.578783)
(9.67214 3.55243 0.94221)
(10.4533 0.295843 0.513903)
(10.6839 0.0427051 0.0763996)
(10.7125 -0.353249 3.33415)
(10.0596 -0.219642 1.10276)
(11.6282 -0.464587 0.23487)
(10.4901 0.364337 0.484775)
(10.9288 0.136613 0.938509)
(9.15873 6.98692 2.33824)
(6.68349 6.93393 0.774255)
(3.69473 4.70759 0.686234)
(11.3124 -0.285491 0.631107)
(6.59455 6.64835 1.25235)
(11.0032 -0.242436 0.0479916)
(10.4204 0.290274 0.175554)
(11.4715 -0.480889 0.13166)
(10.4332 0.226582 1.31736)
(7.70966 0.460649 0.614948)
(9.80421 0.468981 0.669521)
(10.0841 0.448402 0.412525)
(10.2878 0.378692 0.455524)
(10.4781 -0.547995 1.73249)
(8.24318 -0.316882 0.324636)
(11.0343 1.43511 0.691845)
(10.7172 0.921115 0.39965)
(11.4502 1.31529 1.49016)
(11.6273 -0.618337 0.346638)
(10.5618 0.23587 0.557425)
(10.5529 0.0124912 2.18233)
(10.6083 0.599938 2.74737)
(10.6691 0.00427354 1.58073)
(7.44884 1.76034 0.339348)
(7.92718 2.86987 1.03617)
(11.9922 -0.469293 0.998325)
(10.8209 2.11326 1.93759)
(10.6924 1.07224 2.77112)
(9.82001 0.0985745 4.19703)
(9.66492 2.27083 0.412886)
(9.90003 0.70509 -0.0232638)
(10.5284 0.515881 0.724205)
(10.4678 0.4782 0.619072)
(10.8243 1.40292 1.74271)
(10.4602 2.04638 -0.244477)
(9.54711 4.2407 2.10607)
(6.48147 7.04522 -0.0205013)
(10.2318 0.357035 0.137866)
(10.7066 1.10713 0.594665)
(9.63964 0.703536 -0.0204975)
(9.83279 0.691763 -0.212082)
(9.93452 0.421569 0.272631)
(8.74551 1.09259 0.642684)
(10.1788 0.229236 0.219733)
(10.836 0.153528 1.17184)
(10.2658 0.147511 0.0330311)
(10.3245 0.518261 0.691163)
(9.79378 0.110248 0.0386672)
(10.7087 0.0918022 0.553555)
(10.6146 0.111635 0.49807)
(9.96979 0.334603 0.19853)
(10.9968 1.12014 0.635387)
(10.1648 0.31821 0.248655)
(10.3749 0.48049 0.782177)
(10.3984 0.260879 0.332014)
(10.6237 -0.314476 1.30916)
(9.7617 2.51031 1.7556)
(10.6869 -0.0274791 1.47404)
(11.2358 3.39777 1.29374)
(4.89529 5.6169 -1.31076)
(10.4553 -0.222987 1.33308)
(10.6486 0.00660975 1.14383)
(10.5084 0.170595 1.18742)
(11.172 -0.299251 0.0807156)
(6.05395 1.12565 0.648541)
(10.2389 0.296974 1.00733)
(10.1321 0.37129 1.25875)
(1.57181 -0.0213793 -1.43293)
(7.20374 3.71028 0.135923)
(10.4791 0.293612 0.567995)
(11.3505 -0.038503 0.556557)
(10.2144 0.335039 0.133063)
(11.2613 2.77597 0.720278)
(10.5454 0.246248 0.65643)
(10.9458 0.0426882 0.79611)
(10.8806 -0.0200726 0.498948)
(10.275 0.390273 -0.00132155)
(10.1135 1.28765 0.510495)
(7.37358 2.32722 -0.267055)
(7.23985 4.9977 0.704643)
(10.4276 0.119209 0.0677905)
(10.4796 0.301099 0.525221)
(10.3639 1.09201 1.73625)
(10.6246 4.03094 1.33045)
(10.5416 0.0841482 0.400892)
(11.1246 -0.288771 -0.0945195)
(10.8145 0.187073 1.12927)
(11.0794 -0.183481 0.436181)
(6.95721 1.30785 0.77528)
(11.3811 0.181873 1.07679)
(5.47535 3.55778 -2.56812)
(9.41371 7.1303 3.19563)
(10.8422 0.641452 0.555614)
(10.764 0.112542 0.200839)
(9.79644 0.797463 0.791479)
(11.2263 0.921224 1.0223)
(10.0758 0.518469 0.307335)
(10.6254 0.214618 0.475426)
(10.7363 0.0737273 1.72099)
(12.4227 0.886027 2.65503)
(10.9043 0.11196 0.93585)
(11.6573 -0.360521 0.957678)
(5.69264 2.5577 -1.08943)
(10.6849 0.123066 0.542798)
(7.01941 6.09253 -0.110269)
(10.3264 -0.0154512 0.0298126)
(10.5405 0.0332715 0.0961061)
(11.4994 -0.114808 0.736401)
(11.0662 0.0400691 0.99589)
(10.4796 0.116243 0.197289)
(8.86401 0.92558 -0.921016)
(9.64994 1.33 0.359426)
(10.1823 1.55272 0.546609)
(10.7476 -0.224837 1.93665)
(10.3382 3.69539 1.27217)
(10.0847 -0.729393 3.4311)
(5.97365 2.47815 0.0190761)
(10.7547 0.0899164 2.08967)
(10.8249 0.625421 1.42951)
(10.9709 2.21833 0.379302)
(10.1909 -1.46515 2.1985)