/*--------------------------------*- C++ -*----------------------------------*\
| =========                 |                                                 |
| \\      /  F ield         | OpenFOAM: The Open Source CFD Toolbox           |
|  \\    /   O peration     | Version:  2506                                  |
|   \\  /    A nd           | Website:  www.openfoam.com                      |
|    \\/     M anipulation  |                                                 |
\*---------------------------------------------------------------------------*/
FoamFile
{
    version     2.0;
    format      ascii;
    arch        "LSB;label=32;scalar=64";
    class       surfaceScalarField;
    location    "0.0207921";
    object      phi;
}
// * * * * * * * * * * * * * * * * * * * * * * * * * * * * * * * * * * * * * //

dimensions      [0 3 -1 0 0 0 0];

oriented        oriented;

internalField   nonuniform List<scalar> 
7516
(
0.00158131
-0.0641548
0.0625735
0.00401657
-0.00902321
0.00522431
-0.000217676
-0.0148299
-0.00451695
0.0100365
0.00931034
-0.0279734
-0.00345938
0.0101837
0.0212491
0.00028981
-0.00062029
-0.000499223
0.000829703
0.0414499
-0.043702
0.00225208
0.0250779
-0.00704984
0.0165551
-0.0345832
0.00555751
-0.00977759
0.00851685
-0.00429677
0.000120106
0.00102941
0.00932491
-0.0104744
0.00232842
-0.00162993
-0.00110097
0.000402482
0.00522213
-0.00170221
-0.00476847
0.00124855
-0.000569346
-0.0040174
0.0101443
-0.00485011
-0.00367214
0.0167309
-0.0511693
0.026598
0.0738552
-0.0492839
-0.0155382
-0.0131636
0.0142041
0.0144977
-0.0134906
0.000106152
0.0265062
-0.0131218
-0.0169909
0.00770133
0.0241408
-0.0148513
-0.000360796
0.00313133
0.00333423
-0.00610477
0.0486349
-0.0335771
-0.00208288
-0.0129749
0.0298119
-0.0160596
0.0232284
-0.0369806
-0.0021679
0.000349805
0.00210311
-0.000285014
-0.00170067
-0.00170578
-0.000717738
0.0585261
0.000119318
-0.0586454
-0.0350714
-0.000168522
-0.00782793
-0.00160093
0.00187245
-0.000203562
-6.79561e-05
0.000833693
-0.00838565
0.0109678
-0.00341586
-0.00371787
0.0195845
-0.0314048
0.0289666
-0.060532
-0.0179558
0.0495213
-0.00147256
-0.000510536
0.000348026
0.00163507
0.00837753
-0.0308609
0.014592
-0.000506402
0.000742709
0.00119387
-0.00143018
1.04363e-05
0.000121167
0.00126803
-0.00139963
-0.0332886
-0.00444966
0.0374691
0.000269143
-0.000372416
0.00160636
-0.00316398
0.00193004
0.0221213
-0.0222779
-0.0107695
-0.00296411
0.00478883
0.00894476
0.000237952
-0.00358303
0.00289186
0.000453218
-0.00829691
0.0170154
-0.0128511
0.00413259
0.00308697
-0.00336099
0.00675137
-0.00647734
-0.00332603
0.00284396
0.000720022
0.000200511
-0.00723378
0.000687254
0.00634602
-0.000526095
0.00695649
-0.00680843
0.000378037
-0.000921064
0.000199301
0.00680228
-0.00608052
-0.00172255
0.00184602
-0.00182414
-0.0432718
0.00394001
-0.00626317
0.045595
-0.0380209
0.0213486
0.0129545
-0.0904515
-0.00652748
0.0969789
0.00268852
-0.00167772
-0.00113362
-0.00172871
0.0349628
-0.0451484
0.0119143
0.00203068
0.00223122
-0.00802188
0.00375998
0.0346278
-0.0038488
-0.0129471
-0.0178319
-0.000311165
-0.00516232
-0.00231998
0.00460147
-0.0052576
0.00270724
-0.00205111
0.0759899
0.0934407
-0.0669299
-0.00401953
-0.00108968
0.00484221
0.000267001
-0.0193346
-0.0103703
0.032352
-0.00264712
0.0503627
-0.050823
0.000460324
0.00336855
-0.000742577
-0.00501528
0.00238931
0.0470791
-0.00037798
0.00216715
0.000141434
0.000870921
-0.00317951
0.0101145
-0.0436753
0.00699462
0.0265662
-5.54719e-05
0.0570735
-0.057018
0.0340009
0.0149773
-0.00796858
-0.0410096
0.0352975
-0.0375378
0.00128478
0.000955455
0.00947279
-0.0214548
0.0105773
0.00140477
0.000133436
-0.0027486
0.00114261
-0.00230853
0.00155235
0.00131914
-0.000562957
0.000272597
0.0490005
-0.0492731
0.00142032
0.0036221
0.000235572
-0.00527799
0.000267799
-5.07056e-05
-0.00460525
0.0563251
-0.00779208
-0.048533
0.00288255
-0.00641064
0.00316729
0.00190948
0.00253184
-0.00306196
0.000191882
0.00941353
-0.0118301
0.00222468
-0.00558101
0.00305704
0.00250115
2.28195e-05
0.00792737
-0.0210626
0.0159533
-0.0028181
0.00317504
-0.00320738
-0.00400445
0.00403679
0.0354981
-0.00501571
0.00541648
-0.0358988
-0.00309506
0.00329382
-0.0151975
0.0149988
-0.00365278
0.00159774
-0.000253484
5.89018e-05
-0.0009647
0.00408083
-0.00848081
-0.00109691
0.00973857
-0.000160841
0.00595712
0.00643295
-0.0267673
0.0143773
0.0051083
-0.012656
0.00335465
-0.00623399
0.00124738
0.00223852
0.00274809
-0.0714113
0.0714996
-8.83166e-05
-0.00351299
-0.086151
0.0182527
-0.000204172
0.000845287
-0.00384849
0.0576607
-0.0582032
0.00054241
0.000300817
-0.0278762
0.0852361
0.000827344
-0.00355968
-0.000264462
0.00299679
-0.00291802
0.00302884
0.00277173
-0.000548939
0.00115429
0.00172307
-0.00218884
0.00399774
0.000606213
-0.00241511
-0.00948326
-0.00360713
0.00847415
-0.00341874
0.0108985
0.00340166
-0.0108814
-0.0339626
0.0659016
-0.0484941
0.0165551
-0.0141854
-0.00125752
0.00801461
-0.0571461
0.0172053
0.0447078
-0.00476699
0.0205269
-0.0878216
0.0451437
0.022151
-0.00102604
0.00898122
-0.00772903
-0.000226149
-0.00389224
0.0110972
0.0130225
-0.0202275
-0.0064907
0.00122123
0.00757122
-0.00230176
-0.0208106
-0.0002575
0.0115849
-0.00228601
0.0396971
-0.00191307
-0.00518799
0.00938428
-0.000183608
-0.00401268
-0.0054832
0.00533463
-0.000772494
0.00641495
-0.00460572
-9.94547e-05
-0.00170978
4.12464e-05
0.00173603
-0.00152046
-0.00241009
0.0108657
-0.00825041
-0.000205185
-0.00200482
-0.00116196
0.00237066
0.000796114
-0.0130621
-0.00907665
0.0103664
0.0117723
0.00135495
-0.0183129
0.00321939
0.0137386
0.0025472
-0.000134815
-0.000694313
-0.00171807
0.00186974
-0.000652068
0.011919
-0.00376806
-0.00701588
0.0169461
-0.00907443
-0.0221042
0.053655
-0.0536358
-1.92256e-05
-0.0252048
0.0941453
-0.0152855
-0.00225159
0.00265756
0.000421367
-0.000218434
0.0021176
-0.00196453
6.53685e-05
-0.0504033
0.0505184
-0.00011504
-0.0461805
0.0605846
0.0145625
-0.0725772
0.00938574
0.0127881
0.0642649
-0.0290223
0.0142187
-0.0494614
-0.00177514
-0.000316727
2.93788e-05
0.00206249
0.0505704
-0.000804024
-0.0497664
-0.000273942
0.00064145
-0.00214265
0.00156807
0.000478202
-0.00232021
0.00185869
-0.00177261
-0.000469909
0.000383823
-0.00271919
0.00259517
0.00165105
-0.00152703
0.00187674
-0.0034731
-0.000408451
0.00125923
-0.00190452
-0.0020739
-0.00281927
0.00179729
-0.00135369
0.00237567
0.0602447
-0.0607143
0.000469648
-0.00746229
-0.00938583
0.0770928
-0.00892197
-0.0467992
-0.0040048
0.059726
-0.0544702
0.0556627
0.000279932
0.0849865
0.0179715
-0.069668
-0.03329
0.00143872
-0.00135385
-0.00158396
0.00149909
0.0499307
-0.0685201
-0.00947056
0.02806
-6.93292e-05
-0.00742859
-0.00324036
0.00107254
-0.00148496
-0.0516229
0.000163128
0.0514598
0.0518562
-0.0487141
0.00219094
-0.00182095
0.0415345
-0.00999757
0.0952569
-0.126794
0.00438988
0.00102324
0.000140266
0.00177039
-0.0029339
0.0313023
-0.0660091
-0.0258252
0.00206436
0.00425179
-0.00391921
-0.00239694
-0.0136851
0.00236377
0.0101516
0.00116978
0.0440233
0.0128735
-0.0801463
0.0232495
0.000109652
0.0439136
-0.00182348
0.00573286
0.00347811
-0.00738749
0.0155398
-0.0210016
-0.0138728
-0.00180987
0.000456815
0.00286715
-0.00151409
-0.00131797
0.00172339
-0.00221529
0.00254426
0.00063467
-0.00165353
-0.0015254
-0.0122597
0.00930559
0.00986016
-0.00690606
0.0148186
-0.00188534
-0.012045
-0.000888272
0.00763185
0.000541244
-0.00813873
-3.43653e-05
0.00394738
-0.00480468
0.00411264
-0.00325533
0.00777265
-2.2689e-05
0.00706869
-0.000654944
0.0029438
-0.00184484
-0.000282163
-0.00110345
-0.00399641
-0.00159015
0.000198382
0.00538818
0.00460203
0.000270399
-0.000986193
-0.00388623
0.00181774
0.000731317
0.00212992
-0.00467898
-0.00424369
0.00206502
-0.015221
0.00536773
-0.0239162
0.0337695
0.033434
-0.0384945
-0.0190377
0.0240981
-0.0193378
0.0130345
-0.00687142
0.0131747
-0.0181518
0.0101071
-0.00717634
-0.00813338
-0.000347238
-0.0096712
-0.0397518
0.0570085
-0.00708097
-0.0101757
-0.0387055
0.0198468
-0.000479073
-0.024218
-0.00888293
0.012397
0.020704
0.0132056
-0.0184771
0.0531355
0.0276705
0.000602439
0.0530801
0.00495484
0.00645252
-0.0037755
0.00183825
0.00140198
-0.00310679
0.0124844
-0.00599722
-0.000408654
-0.00607848
0.0307795
0.00692674
0.0101464
-0.0478526
0.0413565
-0.0255107
0.020763
-0.0366088
0.0301255
-0.0496477
-0.0202296
-0.0109094
-0.0295802
-0.0025715
0.0430612
0.00114569
-0.000196906
-0.000948785
-0.029991
0.00100897
0.00694048
0.0220416
0.0181173
0.0214224
-0.017588
-0.0219517
0.00157988
0.00154791
-0.00350021
-0.00988791
0.029758
-0.00811874
-0.00578706
0.00462073
0.000688047
-0.00968378
-0.0209953
-0.00247456
-0.00247252
0.0143883
-0.0094412
-0.0672647
0.0765342
-0.0167318
0.000107464
0.00421597
-0.00405564
-0.00221643
0.0183272
-0.00287671
-0.013234
-0.00845093
0.00544087
0.00161889
0.00139117
-0.0510313
0.0570408
0.023758
-0.0297675
0.00228292
0.00391227
-0.00262505
-0.00357014
-0.0182603
-0.0492561
-0.0214827
-0.00480536
0.0293259
-0.0492301
0.0410212
0.00319322
-0.0293037
0.00475022
0.00134726
3.41897e-05
-0.00359839
0.00221694
0.00502799
-0.00441766
-0.000502874
0.0453254
-0.0611198
0.00820643
0.00758793
-8.3287e-05
8.45713e-05
-0.0133212
-0.0116118
0.0248485
-0.00373204
0.00299343
0.00219183
-0.00145322
0.00111458
-0.000747721
-0.0040989
-0.00476738
-0.00161615
-0.00793219
0.0143157
-0.0718592
0.0558681
-0.0751372
0.0911284
0.000818492
-0.00112714
0.00247137
-0.00216273
-0.0020691
0.0225799
-0.0102526
-0.000681096
-0.00276617
0.00480537
-0.0013581
0.00451222
0.0127624
-0.0166502
0.0344051
-0.0456767
0.00914067
0.00213092
-0.0017534
0.00231064
-0.00088348
0.000326238
0.00271779
0.0028798
0.00244739
-0.00804498
-0.00292076
-0.00868128
7.75307e-05
0.0115245
3.53875e-05
-0.00222191
0.00173715
0.000449366
-0.0111466
-0.0036996
0.00677679
0.00806939
2.05124e-05
-7.03424e-06
-0.00136445
0.00135098
0.0002456
-0.00232112
0.000723075
0.00135244
-0.000205105
0.00182266
-0.00035856
-0.001259
0.0031336
-0.000908076
0.000318735
0.00159261
-0.0017772
0.000773845
-0.0016724
0.000392157
-0.000817654
0.00115616
-0.00132512
0.000986614
0.000587522
-0.00110474
0.000517223
0.00199754
-0.00924448
-0.00160294
0.00884988
0.00692327
0.0127482
-0.0167615
-0.00290998
0.00105551
-0.00860161
0.00774662
0.00781527
2.48284e-05
0.000733795
-0.00857389
0.000709121
0.00108856
0.00175652
-0.0035542
0.00446338
0.000192378
-0.00684459
0.000902464
0.000543334
-0.00325291
0.00180711
-0.00168188
0.000578438
-0.000221361
0.00177469
-0.00206506
7.19349e-05
-0.00839182
0.00590165
-0.00168185
0.00479477
-0.00210745
-0.00219308
-0.0257748
0.00707417
-0.01498
0.0336806
-0.00538086
-0.00552697
0.00359302
0.0073148
-0.0240135
0.02371
-0.00500236
0.00530582
-0.00208363
0.0146723
-0.000669617
-0.0108232
0.0183446
-0.00516161
0.00532319
-0.0124257
0.00756283
-0.000460348
-0.00155846
0.00217297
-0.000420031
-0.000571063
0.00396735
-0.00297625
-0.044292
0.0444017
-0.00259074
-0.0155927
0.0183074
-0.000123925
-0.00574752
0.000146937
-0.0016332
-0.00200562
0.00135962
0.00100234
0.000660769
-0.00193956
0.00192124
-0.0103172
0.00684546
-0.042682
-0.00218257
-0.0538541
-0.00197895
0.000724016
0.002612
-0.00135706
0.0028059
0.00170112
-0.0713334
0.0696322
0.00596382
-0.0223942
0.00360069
0.0128297
-0.00135086
0.00448569
-0.00219708
-0.00246379
0.00472856
-0.00157416
-0.000690614
0.0117124
0.00723693
-0.0319397
0.0129904
-0.000764683
0.00173863
-0.00162889
-0.00319146
-0.000871803
0.00226014
0.00180312
-0.00297647
-0.0340387
0.0117379
-0.00640895
-0.00524942
0.00408478
0.0075736
0.00218737
0.00194062
-0.00292588
-0.00120211
-0.000714771
0.00129525
0.000730062
-0.00131054
0.00228103
-0.0026801
-0.00156041
0.0037103
-1.64544e-05
-0.00213344
-0.00178785
0.000284777
0.00151351
-0.00506722
4.62623e-05
-0.0465802
0.00655991
0.0399741
-0.00296341
0.00838488
-0.00405894
-0.00136253
0.00445964
-0.0156431
0.0701122
0.00991237
-0.0498991
-0.000126684
0.000470346
0.00209248
-0.00243614
-0.00199396
0.00462586
0.00548553
-0.00811743
-0.000230758
-0.000215288
0.00130914
0.000344888
-0.00029848
0.000272735
-0.000319143
0.00101887
-0.000581699
-0.00165765
0.00122048
-0.0124952
0.00956699
0.00286214
6.60261e-05
-0.0504687
0.0588709
-0.00374336
-0.0046589
-0.00479593
0.0100334
-0.0085341
0.00329666
0.0178648
-0.00451834
0.01072
0.00161709
-0.0139271
0.00159001
-0.0148446
-0.0013941
0.00248141
-0.000175602
0.0397672
0.00723997
0.000252356
-0.0472596
0.00150084
-0.00220354
0.0009991
-0.000296398
0.00098848
0.00110158
0.000620056
-0.00271011
-0.00861071
-0.00107515
0.00267086
-3.69463e-05
-0.00208058
0.00186937
0.000248163
0.000520112
-0.0056003
0.00284734
0.00223285
-0.00047293
0.00101537
-0.000430534
-0.000111902
0.00795724
-0.0108761
-0.0446739
0.0475927
0.00852953
-0.000545948
-0.00920079
0.0012172
-0.00352095
0.000998164
-0.00145825
0.00398104
-0.00455306
-0.0014492
-0.00207766
0.0472831
-0.0345541
0.00101125
-0.0137403
0.0114012
0.0162335
0.00822262
-0.0358573
0.00126491
-0.0012217
0.0021893
-0.00223251
0.00018215
0.000558321
0.00260083
-0.0033413
0.065208
-0.0319227
-0.0584901
-0.0047818
0.0039402
0.00102375
0.0037849
0.000972755
-0.00419933
0.000668027
-0.0383743
0.0380089
-0.000302621
0.00220577
0.00138555
-0.00105744
-0.00253388
-0.0157167
0.00784696
-0.000951623
1.91704e-05
0.000951773
-1.93207e-05
-0.0112993
0.00209478
0.00559736
-0.0157647
0.00697331
-0.00370382
-0.0201701
-0.0126033
-0.00430343
-0.00474315
0.00145621
-0.00880319
-0.0013098
-0.00688932
0.00285154
0.00534758
-0.00228134
0.00286884
-4.97958e-05
-0.000537702
-0.000730606
0.000161162
0.000181073
0.000388371
-0.00259435
-0.00084777
0.00572504
0.000403514
-0.00828729
0.00614275
0.00174103
0.00869095
0.00240833
-0.0106958
0.0241831
0.0336548
-0.033224
-0.0246139
-0.00196611
0.00714329
-0.0194916
0.0143144
-0.0107959
-0.00188184
0.0107924
0.0114913
0.00374959
-0.016308
0.00106712
-0.0447355
0.0451551
-0.00041956
0.00532543
-0.0350811
-0.00261214
0.0323678
-0.00105541
0.00166688
-0.00196557
0.0013541
0.00313927
0.000654293
0.00108724
0.0163795
-0.00111481
-0.0163519
0.00738809
-0.00143267
-0.0110841
0.0051287
-0.0479922
0.0482722
-0.00883119
-0.00480307
-0.00769362
0.0213279
-0.00065722
0.00333859
0.000862878
-0.00354425
0.00775612
0.00691854
-0.0244809
-0.000584455
0.00400283
-0.000892487
-0.00252588
0.00311263
-0.000463922
0.000468896
-0.0031176
-0.00290276
0.00618608
0.00410476
-0.00456732
-0.00181077
0.00327801
0.00310009
-0.00574444
0.0149855
-0.0294112
-0.012884
0.000345732
0.0130795
-0.0104021
-0.00920419
0.011319
-0.00824487
0.00251333
0.00703705
-0.00434075
0.00677907
-0.00300766
0.00919353
-0.0133437
0.00613274
-0.00198254
0.00227009
0.00195245
-0.00349122
0.0130152
0.00310162
-0.00637733
0.0416749
-0.0136911
-0.0290795
-0.0064596
-0.0383543
0.0418685
-0.000400162
-0.000160407
0.000215789
0.00034478
-0.000571511
0.00148059
0.00087693
-0.00178601
0.000204043
-0.00114972
0.000215073
-0.0606696
0.0594262
-0.0082369
0.00948028
-0.00887489
-0.00157408
0.00506812
0.00480128
-0.00718129
-0.00649489
0.0051954
-0.000994798
0.00397839
-0.00817899
0.00180808
-0.000976495
-0.00880475
0.00797317
-0.0056728
0.0130846
-0.00545158
-0.0019602
-0.00243952
0.000941012
0.00333676
0.0066517
0.00130857
-0.0151124
0.00715212
0.0127353
-0.0117605
0.00567696
-0.00510157
-0.0445778
-0.0103667
-0.000762516
0.0077105
0.0164423
0.0120344
0.0227302
-0.0512069
0.024664
-0.0509744
0.00252935
0.0237811
0.00343474
0.00945102
0.00264364
-0.0155294
0.00161859
-0.00363217
0.0115245
-0.0095109
0.018703
-0.0148588
0.0136472
0.00204888
-0.000837202
-0.0316939
-0.00450366
0.00973443
0.0235732
-0.00530778
-0.0279999
0.0417538
-0.00205093
-0.0412676
0.00156468
-0.00300134
-0.057905
0.0609064
-0.0118923
0.00420654
0.0506822
-0.0429964
-0.0441856
-0.0024969
0.0436812
-0.00287014
0.0210451
-0.00196487
-0.0162101
0.00341877
-0.018867
-0.0162457
-0.00365645
0.0211659
-0.0203796
0.00357058
-0.00219146
-0.000744444
0.00552697
-0.00524699
0.0109026
-0.0111826
-0.00302844
0.00306577
-0.00165394
0.00893336
-0.000318351
-0.00696107
-0.000963326
0.00183153
0.000299672
-0.00116787
-0.0370109
0.006588
0.0956309
-0.0117666
0.00615338
0.00521638
0.000396802
-0.00100022
-0.00320221
0.00270016
0.00150227
-0.0128248
0.00132696
0.00094516
0.0105527
-0.00150246
-0.00209323
0.00849217
0.00623018
-0.00470505
-0.0100173
0.00108922
0.00132353
0.00562046
-0.00519734
0.00359505
-0.00401817
6.04084e-05
0.000249324
-0.000309733
-0.00224292
-0.000506899
0.000872516
0.0018773
-0.00737474
0.00202318
-0.00833355
-0.00162999
0.0033359
0.0178786
-0.000329517
0.000742297
-0.00204271
0.0108134
-0.000795005
-0.00619125
-0.00382715
0.0127578
-0.016084
0.00928336
0.00520077
-0.00791527
-0.00303302
0.00249753
0.0027673
-0.00442658
-0.000838253
0.035268
-0.0491542
-0.026642
0.0405281
-0.00521357
-0.0205397
0.00673306
0.0190202
-0.001227
-1.78102e-05
-0.0012663
0.00251111
-0.0129526
0.0108411
-0.000935474
0.00457913
-0.0067275
-0.00106383
0.0032122
-0.00994606
-0.000828535
-0.00324428
0.0140189
-0.00302298
0.00290812
0.000245259
0.010593
-0.0114002
-0.00355637
0.000677679
-0.010194
0.00447313
0.00504324
-0.0528757
0.0941868
-0.000149482
0.000360213
0.000510728
-0.000721459
-0.0162239
-0.00329244
0.0165956
-0.00909663
0.000851757
-0.00457994
0.0112644
-0.0081426
-0.00308998
-3.18477e-05
-0.0175864
0.00375889
-0.000155746
0.0139833
-0.00170805
0.0070939
-0.0101818
0.000198517
0.00399654
0.00120407
0.00331458
-0.00851519
0.0323115
-0.0138688
-0.0331756
0.0147329
-0.0103459
-0.0145893
-0.00545847
-0.00422628
0.00280054
0.0109927
0.000703244
-0.000879196
-0.00242752
0.00260347
-0.00258208
0.000673921
-0.0134062
0.0153143
0.0026938
-0.0011062
-0.000981386
-0.00107757
0.0034036
-0.0106272
-0.00187304
-0.0209347
-0.0305374
-0.05683
-0.000354755
0.0571848
0.0111968
-0.0112178
-0.00474632
0.0324802
0.00278954
0.00678854
-0.0420582
-0.0051606
0.00291687
-0.00323947
-0.000658979
0.00143814
0.00422215
-0.00500131
0.0416336
0.0104013
-0.00439187
-0.0476431
0.0576635
-0.0994352
0.0162609
0.0268433
-0.0224738
-0.0632913
0.0589218
0.00214271
-0.00470303
0.00954272
-0.0069824
0.0376213
0.0435746
-0.0556627
-0.0255331
-0.0288428
0.02794
0.0255667
-0.00545589
-0.00236088
0.00664453
0.00902557
-0.0115586
-0.00411151
0.00615814
0.00446579
-0.00994625
-0.00182805
-0.00493686
0.00148
-0.0227442
0.00617518
0.00238951
0.0141795
0.0210793
-0.0503491
0.00833506
-0.00448613
0.0109994
-0.0201229
-0.00848984
-0.00253403
0.00246792
0.000663364
-0.00439889
-0.00306096
0.00541207
-0.00482907
-0.0045657
0.000853147
0.000794532
-0.00809035
0.00646573
-0.000785467
0.00566906
-0.0649842
0.00215229
-1.73036e-05
-0.000334987
0.000357212
-4.92144e-06
-0.00160858
0.00153332
3.83184e-05
0.00319
-0.00072489
-0.000184085
-0.00582542
0.0022182
0.00573714
-0.00189341
0.00122932
0.000405664
0.000258426
-0.00110188
-0.0010668
-0.000793039
0.00296172
0.0115789
-0.0190831
0.00698731
0.00051696
-0.000349443
5.23793e-05
-0.00547509
0.00571591
-0.0029543
0.00143878
-0.00420038
0.000629138
0.00195669
-0.00144686
-0.00113897
-0.00575903
0.0115043
-0.00752805
0.00178276
0.0122878
-0.00825696
-0.00319716
-0.0217244
0.0215262
-0.0132985
0.0134968
0.00376165
-0.00556955
0.00334358
-0.00153569
9.52562e-05
-0.0580003
0.00641595
0.00356443
-0.00483685
-0.00514353
0.00168448
-0.00241412
-0.000458416
0.00118806
0.00293703
-0.00484706
-0.00287178
-0.0113437
-0.00189658
-0.0002998
-0.00152129
0.00114515
0.000675933
-0.00389848
0.00275457
0.0027962
-0.00165229
0.000863574
-0.000341807
-0.00058906
6.72933e-05
-0.0137015
0.00788099
0.00556642
0.000254046
-0.00176311
-0.00917999
-0.00275836
0.00357987
-0.0010465
-0.00136896
-0.00220166
-0.000847034
-0.00225612
-0.00129472
-0.00221302
0.000866534
-0.000909631
-0.00303903
0.000241846
-0.0356936
0.00819859
-0.0260538
0.0535488
-0.0837935
0.0438757
-0.0400527
0.0799705
-0.00286952
-0.000666501
-0.000362458
-0.0842495
0.00203728
-0.00697781
0.00336848
-0.0168708
0.0204802
0.00360425
-0.0499048
0.0393228
-0.0561436
0.0508899
0.00885801
-0.00288209
0.0017683
-0.00116755
-0.00370247
0.000364334
0.00124534
0.00209279
-0.000116349
-0.000735219
0.00159428
-0.00152804
0.00178722
0.000514981
-0.00077416
-0.00190883
0.00190287
0.00174199
0.0397863
-0.013138
-0.111845
0.0851968
-0.0820605
-0.0577169
0.0662163
0.0735612
-0.0838275
0.00725163
0.0071914
0.0693845
0.0106297
-0.0546709
-0.000487674
7.74231e-05
-0.00149858
0.0145763
-0.00199413
0.027185
-0.000593445
-0.00284265
-0.00617438
-0.00117199
-9.31183e-05
-0.00264594
-9.72393e-05
0.0015636
0.00117958
-0.00443549
0.00714246
-0.00987366
0.00716669
0.00337666
-0.00980612
0.00512065
0.00908734
-0.00561343
-0.00859455
-0.00201804
-7.07028e-05
0.00720939
-0.0025916
0.00218229
0.00367275
-0.00326344
0.0133133
-0.0881222
-0.00532275
0.00319626
-0.00241423
0.00454072
-0.00307338
0.00308561
-0.00220489
0.00106896
-0.00194968
-0.00745116
6.81482e-05
0.00942155
-0.0114059
0.00914401
-0.0071597
-0.00299243
-0.018578
0.0173299
0.00424049
0.00152436
-0.00339066
0.00161282
0.00125516
0.00152797
-0.00125877
0.0025271
0.000603047
-0.00210691
0.00244049
0.00318019
0.00889981
0.0313065
0.00308644
-0.0432927
0.00191047
-0.00638581
0.000954384
0.000505048
-0.00180702
0.00167067
0.000981091
0.0114445
-0.015418
-0.000702875
0.00766201
-0.00675983
0.000655233
0.00269286
0.000598619
-0.000677006
0.00188662
-0.00180823
0.000109617
-0.00907101
3.73901e-05
-0.00040744
-0.00242422
-0.00159672
0.0107186
0.00169155
0.00115636
-0.00484012
0.00310805
0.000575701
-0.00318998
0.00292519
0.00308598
0.00936544
0.00876388
0.00907075
-0.013681
-0.00415359
0.00585791
0.00732305
-0.00441708
0.0067245
-0.0059599
0.00830615
0.0130344
-0.000451948
-0.00233896
0.00415627
0.00584471
0.00127186
0.0521329
-0.000599292
-0.0515336
-0.0134017
-0.00866938
-0.00446052
0.0265316
-0.01102
0.0137461
-0.0161277
0.00185586
0.000116238
-0.0018231
-0.000148998
-0.00796032
-0.0010044
0.0561183
-0.0611721
-0.0141785
0.0192323
-0.0169894
0.0181402
-0.0110626
0.00991181
-0.0136564
0.00103967
-0.00912825
-0.00677899
0.000235775
0.000134268
0.00466681
-0.00800954
0.000281771
-0.00623616
0.0120216
-0.0149137
-0.0101471
0.00510689
-0.00395132
0.0089915
-0.0117192
0.0164021
-0.00727443
0.00259158
-0.00468989
-0.000281253
0.00259495
0.00237619
0.0119985
0.025742
-0.0264933
-0.0112472
0.00654038
-0.00343712
0.000423085
-0.00352635
0.0041095
-0.00341251
0.00388214
0.0055108
-0.00785862
0.00726794
0.00363363
-0.0122114
-0.000128243
0.00232909
-0.00446337
0.00946555
0.00266839
-0.00767058
-0.0027537
0.00221802
-0.00169995
-0.00273147
0.000886956
0.00205414
-0.0113405
-0.0103078
0.0105202
5.7767e-05
0.000921667
-0.00087686
-0.000102575
0.00511176
0.00657182
-0.00552503
-0.00615855
0.00455049
0.00106503
0.00528295
-0.00051094
0.000832858
3.45509e-05
-0.000356469
-0.0148277
0.0154573
0.0109493
-0.00217616
-0.00980606
0.00875768
0.00322453
-0.00811998
-0.00319212
0.00404042
0.00727168
-0.0545493
0.0298458
-0.0542385
0.078942
0.00488656
-0.00278065
-0.0107458
0.00863989
0.00911932
-0.0130857
-0.00512463
0.00909105
-0.00200011
-0.0105932
0.00896113
0.0132593
-0.0124225
0.00988317
0.00147568
0.0117051
7.85515e-05
0.00252048
-0.00784608
-0.00370028
0.00902588
0.0115944
-0.0032891
0.00421466
-3.12383e-05
-0.0129265
0.00540064
-0.0134102
-0.00916435
-0.00350855
0.0100537
0.00261917
-0.00528624
0.00930157
-0.0131797
-0.00869834
-0.00434694
0.00132605
-0.0156631
0.00801481
0.00401754
0.00363071
0.00157685
-0.00278894
0.000248762
-0.00226673
0.00288928
-0.00120701
-0.00323052
0.00207303
-0.000294545
0.00145203
0.00262912
0.000881171
-0.000259436
0.00115095
-0.00133158
0.000440071
0.00213287
0.000323728
-0.00274503
0.0356246
-0.00294011
-0.0299395
0.0396936
-0.0371132
0.0085194
-0.00946207
0.0031891
-0.00224642
-0.0142538
0.0128294
-0.014545
0.0159695
0.00653632
-0.00665321
0.00162519
-0.0304692
-0.0063099
0.00353083
0.0906145
-0.0377858
0.000839569
-4.32977e-05
0.000309824
-0.00110609
-0.00136204
-3.56746e-05
0.000580065
-0.000368495
0.000234855
0.0012898
0.00944176
-0.00737282
-0.00706999
0.00500105
-0.000609501
0.00456341
-0.0207844
0.00235989
-0.00249057
0.0109964
-0.000428321
0.00623582
-0.0078076
-0.00295846
0.00329126
0.00213512
0.0169198
0.0297225
-0.0354987
-0.0111437
-0.050754
0.00179135
0.0489626
0.02394
-0.0674734
-0.00722064
-0.0351264
-0.0016032
-0.0633972
0.0765491
0.0283826
0.0147244
-0.0653784
-0.0127432
0.0448267
-0.00224022
0.0732318
-0.0688463
0.0103389
-0.000581331
-0.00165156
0.00273794
0.00190178
0.0030509
0.000168964
-0.00256463
0.00401641
0.0282579
-0.0274544
0.00741306
0.0184617
-0.0376837
0.0121106
-0.0237322
0.0138345
-0.00221287
-0.0189585
-0.00144413
0.0102556
0.0131034
-0.0105033
-0.00329448
0.000694328
-0.00871906
0.015013
-0.00356517
-0.00272878
-0.00936434
-0.0217867
-0.00483406
0.0415807
-0.01496
0.00299677
-0.00473878
-0.00294787
0.000504459
-0.0023868
-0.000771102
0.00286653
-0.00470189
0.000867801
0.00641576
-0.00716568
0.019577
-0.0188271
-0.00546367
0.00557823
-0.0112673
0.0111527
0.0158431
-0.00149999
0.00894679
-0.000942926
0.000643861
0.00187591
0.000116832
-0.00297534
0.00191559
0.00329069
0.00746452
-0.00872453
0.000481083
0.00896908
-0.0108332
0.00138307
-0.00119
-0.00291634
0.00163948
0.000666118
-0.00316789
0.0020433
0.000458472
0.00128539
-0.00134149
-0.00104207
0.00109817
-0.0031849
-0.000218861
0.00198307
0.000537181
-0.00111854
-0.00140171
-0.00281627
0.00302095
-0.00105753
0.00085285
0.00315028
-0.00560769
-0.00264362
-0.00133796
0.00143321
-0.00361279
0.000916758
-0.00457422
0.00168715
0.00423433
-0.0013553
0.00234098
0.00686584
-0.00785153
-0.00139478
0.00150311
0.00643205
-0.00167138
-0.00591282
0.00213727
0.00544693
0.000659148
0.000782435
-0.00601581
-9.1045e-05
-0.00191839
0.000116021
-0.00145043
0.00152639
-0.00016701
0.0008037
-0.00217061
-0.000551475
-0.00270069
0.0249414
-0.0439652
1.40408e-05
0.00614121
0.0446373
-0.048076
-0.00270245
-0.00305267
0.0061725
-0.00695696
0.00383713
0.000178791
-0.000268856
0.00571053
-0.000163175
-0.0047282
-0.00351991
0.00841129
0.00525084
-0.000806242
-0.00131327
0.00430298
-0.000141745
-0.00398245
0.0368603
-0.0498433
0.0133835
-0.000400541
0.00738969
-0.0244901
0.00773201
0.00936844
0.00929846
-0.00782581
0.00591704
-0.00145014
0.00153738
-0.00803388
0.00794664
-2.12907e-05
-0.00752369
0.00609484
0.00353357
-0.0128439
-0.00964822
0.0165973
-0.00376524
0.00209603
0.00078344
-0.000815107
-0.0581792
0.065933
-0.0460283
0.0382745
0.00383357
-0.0021744
0.000436859
-0.000460926
0.00150524
-0.00200862
0.000964305
-0.00116265
0.0023106
0.00072879
-0.004591
0.00306856
-0.00138981
-0.00299657
-0.000204616
-0.011811
-0.00127495
-0.000595083
0.00367399
0.045225
-0.00716886
0.00241717
-0.00705931
-0.00784009
0.00706506
0.00318496
-0.00240993
0.00310454
-0.0507245
0.04762
-0.0381386
0.0412431
0.00194824
0.00115346
-0.00084995
-0.00225175
-0.0567991
0.0652282
-0.0465676
-0.0390974
0.045534
0.0102183
0.0274646
-0.0409522
-0.00799509
0.00355837
-0.00152838
0.00269858
-0.0166198
0.0115294
0.0272117
0.0149502
-0.0511544
0.00949595
0.0267083
0.00633332
-0.0483055
0.0253524
-0.00501266
-0.023043
0.00122052
-0.0769399
0.0767915
0.0716325
0.0039208
0.001671
-0.0339789
0.00367667
-0.00614957
-0.0135852
0.0160581
-0.0732319
-0.0628653
0.0701298
0.0659674
-0.0508563
0.0398488
0.0151254
-0.00411781
0.000338802
0.00271428
-0.052762
-0.0049549
0.019674
-0.0311059
-0.0108459
0.028697
-0.00350952
0.00881336
0.0369177
-0.160018
0.0388509
0.00179731
0.00474389
-0.00964559
0.00310438
0.00670653
-0.0211776
0.0055294
0.00894164
0.014688
-0.0104077
0.00483223
-0.00911251
0.0282432
0.0737345
-0.0726018
-0.0293759
8.88181e-05
-9.39218e-05
0.000778948
-0.0472098
0.0117672
-0.0029117
-0.00304846
-0.033821
0.0637128
-0.077126
0.0452624
-0.0226857
0.0332841
-0.0575328
-0.0205302
0.0447788
0.019675
-0.0197646
-0.0471202
0.00233864
0.0547349
0.0249198
-0.008919
0.0219347
-0.0379355
0.0412651
-0.0272758
-0.048826
0.0348367
-0.023416
0.0146951
-0.0362495
-0.0546486
0.0476263
-0.00175156
0.0169335
-0.0146382
-0.000543694
0.00343998
-0.00468664
0.000632147
0.000614515
-0.0382608
0.0493574
-0.0110966
0.0134751
-0.0127768
-0.00197322
0.0117259
-0.02722
0.00722641
0.00898995
0.0138534
-0.0300698
0.0093667
0.0102797
-0.0124199
-0.0163597
0.01024
0.0151097
0.0346337
-0.0185133
0.0727183
-0.0791904
-0.0286542
0.0111023
0.0926415
-0.0310256
-0.0376198
0.0198976
0.00950567
0.00821653
-0.0231469
-0.00289798
0.0371473
0.0580651
0.0237071
0.0211521
-0.019757
-0.0251021
0.00303893
-0.037319
0.0393467
-0.00506659
-0.0093705
0.00860814
0.0119363
-0.011174
0.00762443
-0.00671912
-0.00344582
-0.00223758
0.00986151
-0.00317457
-0.00444937
0.00733695
-0.0553521
0.0480152
0.00131714
-0.0328226
-0.0261723
0.0565058
0.00248915
0.00962646
-0.000722238
-0.0118676
0.105984
-0.155443
0.0394613
-0.00705646
-0.010288
-0.0244505
0.0364546
0.00928063
0.0425638
-0.0446044
0.040647
0.0318099
-0.0969074
-0.0021314
0.00197805
-0.00327205
0.00173077
-0.00231972
-0.114217
0.107689
0.00343104
-0.0068243
0.00018814
-0.00240362
-0.00336553
-0.000402859
-0.00187347
0.00196758
0.000308752
0.000471721
8.32044e-05
0.00121003
-0.00154006
0.000246829
-0.00338221
0.000603347
-0.000833929
0.00301004
-0.0053797
0.00288978
0.00230455
-0.00110963
-0.00620751
0.00988801
0.00385741
-0.0142903
0.000544867
-0.00386277
0.000610076
-0.00199673
-0.00145838
0.0519767
0.0105941
-0.0086618
-0.00182269
-0.0280309
0.039389
-0.00340083
0.00100558
0.00211657
0.0483552
-0.0385348
0.000504119
-0.0103246
0.0131916
-0.000802344
-0.00138503
-0.0110042
-0.0305512
0.00329699
0.0287308
-0.00147661
0.0517726
-0.0502287
-0.0576875
-0.00205101
0.0031197
0.0559398
-0.0431196
-0.0694266
0.0736414
-0.0042148
-0.00239966
0.0430599
-0.0511769
-0.00328327
0.000235933
0.000580733
0.0024666
0.00297461
-0.0354742
0.00583155
0.026668
-0.0228266
-0.0554129
-0.00670723
0.00230674
-0.0141775
0.00249203
-0.00601997
-0.00685553
-0.00145277
0.00354893
0.000960876
0.00424353
-0.00243963
-0.00161576
0.0104802
-0.0663269
0.0523337
-0.00350577
0.000977433
0.00145196
0.00107637
-0.00730193
-0.00535617
0.0111568
0.0015013
-0.0123686
0.00516791
0.010276
-0.0298213
-0.00338804
0.0229334
0.0032605
-0.00127726
0.0632895
0.00279447
-0.0660839
0.0261524
-0.0163929
0.000516505
0.0283506
0.00516774
0.00334196
-0.0106009
0.00268895