/*--------------------------------*- C++ -*----------------------------------*\
| =========                 |                                                 |
| \\      /  F ield         | OpenFOAM: The Open Source CFD Toolbox           |
|  \\    /   O peration     | Version:  2506                                  |
|   \\  /    A nd           | Website:  www.openfoam.com                      |
|    \\/     M anipulation  |                                                 |
\*---------------------------------------------------------------------------*/
FoamFile
{
    version     2.0;
    format      ascii;
    arch        "LSB;label=32;scalar=64";
    class       volScalarField;
    location    "0.0501868";
    object      p;
}
// * * * * * * * * * * * * * * * * * * * * * * * * * * * * * * * * * * * * * //

dimensions      [0 2 -2 0 0 0 0];

internalField   nonuniform List<scalar> 
3991
(
-11.8584
45.383
2.09586
-6.87562
32.4236
-5.66713
-56.1736
35.6395
-13.3198
13.8982
15.5095
3.04761
7.5308
0.576943
-33.4525
2.45605
13.8176
2.80028
-7.22473
-51.0762
-8.8643
-51.7369
-10.9499
-21.6903
23.7964
26.1228
40.3338
23.4563
13.5552
8.22184
-34.6662
18.7534
-62.5139
13.6031
-15.6657
-7.86347
-58.2771
-21.0002
1.08985
15.0844
-68.1768
-6.41411
2.92817
-4.84806
-8.02912
27.5694
26.6069
5.28288
1.29409
41.249
33.4446
-61.8569
-67.4436
-10.3591
-4.87147
8.94359
-1.02571
-6.13667
5.23215
8.17623
34.9535
41.2303
31.1557
31.0708
-16.2887
-9.35145
6.56521
-13.2267
-54.8387
-7.26518
24.8891
-5.98016
54.3078
5.26106
35.3653
-14.7577
49.8104
24.0988
-5.37951
-42.0895
-4.76192
7.47477
51.9048
13.1359
34.0223
35.199
0.274835
9.12319
41.8382
-4.49237
-8.72155
19.0347
25.8068
-4.38938
-4.9688
10.6687
22.5458
36.975
58.0588
0.938949
1.46236
3.56578
-35.6519
3.02813
3.79469
6.2699
-6.66616
-62.8713
34.6184
-30.6603
-62.7065
-6.54207
52.501
-3.13776
2.66648
-54.7823
-56.839
-36.4551
1.60705
23.2723
39.724
-18.2228
-8.51991
11.836
-36.7757
7.62034
17.6389
-4.33901
-18.7039
-33.7615
-2.07514
14.0759
17.4433
-4.19909
-8.0412
0.586062
-2.33006
-2.84567
2.51841
29.6236
6.42455
43.4993
36.4668
43.2671
10.0732
29.4122
-11.0816
36.8217
57.1009
25.0454
1.78349
10.8908
36.609
28.147
-43.6859
-19.3184
41.8905
21.1918
26.4677
39.7953
14.26
23.9099
-2.99583
51.5028
22.3586
-12.9689
24.9309
-26.7915
-33.1909
-4.59207
-4.51831
-8.0871
-31.4214
41.0097
41.8081
41.9618
-31.5144
-1.30694
0.896857
-27.3519
-3.57366
19.8327
22.3937
-39.4611
1.55474
5.89259
-1.79273
6.76868
-4.37379
-61.4527
-45.165
-5.75341
-161.238
-68.1275
0.703603
-56.8043
-13.2462
-1.18154
-62.1683
-7.11052
2.3337
-15.3924
29.1118
15.3215
-0.66942
40.4735
35.8203
4.11372
16.8344
30.7028
33.4873
13.6772
19.3843
51.7851
18.5973
-12.4749
-1.44704
44.2195
-17.2776
-69.2201
15.6718
53.1499
28.0521
55.994
10.5588
-14.0987
-27.8644
-3.90741
17.2539
34.3114
13.0543
-9.5705
42.3077
51.1778
11.8648
-23.3339
-7.43545
-0.260317
-1.69937
38.7362
-30.9357
-4.5683
-64.5999
-13.3798
-64.2453
-3.28104
-3.04426
-6.72687
-13.2472
-19.6357
8.40887
-5.49345
-11.2101
-3.56642
9.99969
-4.45021
-18.2913
29.9811
18.689
-22.4442
-21.046
42.1323
-66.6754
55.6008
2.79958
-54.7216
-44.6352
-5.33059
-31.9874
-22.0086
-54.6664
-11.3089
-8.67276
-19.8785
19.1662
-11.594
9.80268
-10.9438
-2.19744
11.0364
30.4199
-9.08298
-3.66761
-63.5027
-6.63776
-28.7944
-7.01895
50.734
-51.3614
17.9274
51.535
-41.4279
-4.82391
-4.65597
5.5905
-1.85436
15.2886
15.9351
21.9107
19.6771
10.7964
9.0126
-7.34104
17.9352
-26.07
-24.0589
-1.24491
20.5931
-10.5417
37.984
2.49681
10.4437
10.346
10.8724
33.5137
2.73918
-25.2062
2.43834
35.9827
4.92314
20.5033
13.9274
-1.81564
-7.09222
-15.6569
0.46428
1.05977
-10.9925
-24.64
-38.1148
-64.8091
49.585
-9.16384
10.0631
-40.5499
-0.92181
19.2225
-3.92933
-15.5882
23.4426
-32.2455
14.78
-18.4118
-13.1963
6.53852
4.81576
-4.90932
27.5189
-6.95709
-2.55543
-6.10662
-1.02854
15.0568
38.6773
-5.96997
42.4732
-10.5461
-1.11836
-53.5562
-34.2618
-25.8108
-12.0798
15.8722
54.5969
6.69271
11.478
30.7694
27.4017
-2.22972
-26.5767
28.9152
19.4705
27.7473
-45.3662
-4.44756
35.2298
-20.6383
-10.5482
-9.38725
-4.32608
-64.4516
-67.1573
21.7581
0.460164
12.5657
17.8418
-25.028
-41.2938
-67.2391
-23.7308
-26.1142
-57.9755
-27.9207
-10.2413
-0.483515
-67.4233
-7.96595
1.01879
-66.5869
-67.1909
4.26585
-27.6111
-62.9508
-20.8043
-67.5749
-5.13222
26.0259
32.5294
-53.1681
21.6285
11.6902
-52.1504
-41.4167
-37.2485
4.74972
-0.861141
-1.00182
-42.5407
-7.12212
2.40887
0.301277
-57.4009
2.80223
2.02856
4.0978
-21.2719
-20.821
-56.4926
-57.4565
-3.42383
-58.6812
-24.1772
-34.7722
-5.47277
-3.4745
-2.50227
0.396288
-3.29393
-23.2557
-32.2742
-30.2315
-27.2148
-24.9879
-30.3391
-5.85484
-8.05403
-6.92923
-11.3073
-25.2486
-1.7344
-17.62
-16.6401
50.2278
-11.3915
-12.4872
-14.9631
-17.3071
-8.10469
-13.4044
-9.77295
-8.47266
-9.69918
-12.6908
-18.7481
-15.7461
-16.1055
-25.3842
-8.40718
-11.9378
-18.665
-22.7766
14.6162
-7.71866
-3.36413
-7.50051
-3.01246
-6.60329
-5.42714
-7.51312
18.6603
21.5033
-42.9464
-48.3982
-30.7545
-36.1899
-38.1024
24.447
24.412
12.1479
4.82291
21.6796
-4.35534
12.7182
8.94781
-31.5659
-13.679
6.12049
0.623453
-4.25784
-5.24136
13.3546
19.7948
0.547422
18.0423
3.03375
7.41086
2.50554
7.70947
4.76981
5.41998
4.82969
5.88287
6.02143
3.39333
4.55819
4.41071
5.61393
6.84913
3.33344
9.30011
11.6153
22.1676
17.5214
12.5759
13.7663
9.34532
-0.218986
15.0162
9.10495
5.61617
-7.94377
13.2123
-4.92617
-5.86887
44.9889
41.5023
52.4539
47.7487
48.2763
47.0042
-5.63879
-62.7679
1.44748
-31.8949
-25.535
-6.00354
-1.05895
-32.7123
-27.3653
-15.4621
-15.9421
1.31868
0.498018
-2.43783
-1.7716
-1.42135
-1.38478
0.604952
0.617678
0.866788
0.574258
-9.40224
-22.4265
-14.7283
-26.3282
-9.65224
-26.2081
-13.0385
-3.50687
-46.1319
0.974447
-58.9476
-34.6748
26.0516
27.8619
-49.765
-14.7356
-17.5649
0.593038
-5.77863
-32.5022
-67.0675
-40.4436
-37.2053
-63.601
-21.4552
-5.18591
-12.2061
41.2874
-65.8032
1.48729
-28.057
-21.3746
30.7344
43.8444
40.0257
0.780729
-5.78699
42.4615
-4.60206
-58.4291
-44.2228
-4.09439
56.8442
-7.91572
6.41719
2.13185
45.9885
37.6681
45.7377
46.8279
9.02655
10.8697
9.89003
-27.9341
-63.364
-54.4085
-61.2102
21.3045
22.4341
-3.17506
1.57615
3.06028
-6.88477
0.62458
43.696
11.5957
5.49459
-6.88614
-7.70597
-5.82302
2.86527
-9.44198
15.7515
2.52656
-19.6882
59.2032
-43.1195
-12.0182
3.30245
-6.70215
4.08821
32.7802
20.3098
37.2351
-65.8655
-17.9168
9.76943
-0.318694
34.4063
-59.4086
59.0896
-13.3697
-26.3288
-9.5975
46.5926
11.8566
3.921
12.987
-5.01809
25.7773
30.2052
26.8475
-17.1499
10.1149
-49.8603
11.7103
12.5919
49.6533
25.9955
-19.8834
29.7497
4.30902
-1.19806
24.6903
4.70645
-6.92733
-3.3228
-63.3454
-18.2124
-37.031
-49.5446
-65.4219
-10.225
6.52502
-64.8417
-33.5115
-55.2214
-96.8223
-28.8218
-54.1991
-2.37561
-40.0746
14.3782
0.112608
-13.0619
15.8994
9.49477
8.75305
-5.55743
-15.4498
6.91386
-6.63151
-2.43576
-56.8544
-33.3474
47.6277
-51.2476
-8.92342
-4.05949
-49.9949
-2.68579
-54.28
-4.80786
-1.55
-13.4325
2.89085
-28.1008
-5.02586
24.2034
-23.6057
11.5945
-61.9299
-15.7283
-17.1376
-22.4646
-19.9558
36.5577
-66.5844
-26.2692
-67.3273
-65.6855
-58.3351
-54.9169
-58.9927
-50.94
-43.4937
25.5074
-62.8091
-63.0277
-27.6166
23.994
-31.7236
39.0913
36.6011
52.2607
24.2344
30.9312
42.0953
35.1842
21.8079
57.7887
15.763
15.5784
16.6013
12.9945
-24.1832
12.5917
20.4635
22.4626
21.7974
26.0965
38.108
-8.42542
30.3818
41.9374
2.28934
47.1256
-68.9254
-34.2679
-50.208
-13.322
-13.3313
-22.0165
-61.2291
2.93439
3.40799
2.22212
3.57685
-9.61956
7.87077
9.75506
5.33538
7.77891
10.8332
3.72818
5.51838
5.8749
5.60795
6.40007
5.14426
5.28763
6.86692
11.8716
13.6559
28.0789
10.6317
10.5398
-1.34425
-28.1952
-66.0008
-54.1366
48.3878
51.3052
50.7022
49.2447
49.0236
52.0083
53.0951
54.37
32.0947
20.8767
26.5104
24.8524
22.5032
23.3076
17.3703
15.8963
13.899
21.3054
44.6063
47.0193
44.0109
45.0937
49.8221
37.9307
5.71012
5.95735
4.3034
6.25456
5.21559
-3.15497
-7.83137
45.1128
45.7224
10.8641
8.11318
10.9459
13.7385
18.9841
11.6354
3.76481
-26.0329
-26.8284
-11.237
12.0589
-17.5979
-4.60919
-4.68529
-34.5178
-4.25776
-47.8696
-10.6004
-18.3727
-51.5963
-0.885899
52.1909
-66.2673
-63.2457
-5.63547
-65.4906
-29.7971
-39.2403
-11.9468
-20.3202
-5.37336
-35.6768
-1.88372
-5.91798
26.7709
35.5435
30.756
20.1854
-31.0511
-9.92197
3.16238
-35.5974
44.7141
11.2794
9.33583
-65.1101
-66.52
-21.5318
-23.9728
-30.1736
-32.179
-37.2589
-0.274013
-14.8381
-64.7636
-103.65
28.6156
-19.8305
-16.065
-21.734
-25.1213
-34.9421
-43.8037
-67.472
-63.8351
-11.7662
-7.18538
-24.1931
-1.29051
44.2239
-52.7363
-63.8133
-9.13482
-38.9941
11.4079
-10.1716
13.1645
3.56991
-62.0844
-10.9093
-2.58616
-19.7683
-49.738
4.47159
-31.5816
-8.46529
21.4254
-15.3287
4.63184
-3.0495
-4.99456
-14.3051
-6.75897
-37.2986
0.697446
9.31373
-6.52014
2.74315
-5.92669
-49.8068
-0.0418163
-67.4898
-39.7484
-30.276
12.8042
17.9383
-2.28944
0.479467
-50.1524
49.7746
2.61329
20.6575
-19.3774
10.8697
-62.1083
-46.2096
-23.834
-22.5829
-38.286
-29.8336
13.5141
-0.510457
-50.1948
7.7281
-6.3138
-59.9338
-12.5336
-9.21944
23.5292
30.6801
-5.18955
3.35513
14.9372
-5.72213
-18.0954
-63.8627
-62.4477
18.0737
23.2395
5.22201
-18.2704
25.6338
-65.1032
-33.2808
6.80256
-44.6296
-26.001
-18.8169
18.5491
9.76082
0.0150575
8.99075
5.83686
6.82961
-11.1545
4.14986
6.94384
15.7194
4.13086
26.1587
22.8075
39.1134
16.5194
16.7625
13.4524
6.98968
-12.8074
27.5035
6.81221
10.2323
38.7922
31.5703
-17.1153
-6.34635
4.5163
4.63922
-0.224874
-5.08946
-19.2633
-9.1612
3.85281
-15.3788
32.8708
1.08165
8.79905
5.38332
2.73585
0.207849
-0.0103637
1.55707
1.58841
5.35571
-8.17927
-103.007
42.717
48.8812
50.712
29.9504
-5.11961
0.370763
-12.7351
12.3639
-6.59028
-30.8343
-16.6841
0.521495
-23.6653
1.92058
-120.652
18.6577
24.5858
5.49663
-23.0908
22.5996
-3.38994
30.2958
25.4027
18.6133
17.4356
33.8172
6.91657
-34.9927
9.54862
33.6736
37.5547
26.5487
-17.0631
34.9373
-17.085
29.8564
-8.40173
1.66056
4.55315
5.46102
16.0649
13.7092
15.7514
12.9666
14.666
15.8942
12.156
-5.70827
-27.7741
-11.9685
-35.7227
32.1017
-80.2541
-128.664
-55.5964
-133.87
-123.395
-29.9333
-20.7665
-67.655
-33.3814
-63.9074
-11.7295
-45.6745
-67.627
-20.3698
-20.9046
-17.9827
-24.7625
-46.4999
6.85524
5.79731
-1.5301
-7.4621
-38.5554
-14.538
-67.4785
-67.3315
-6.58728
-54.7854
-8.24039
-31.8415
-10.4235
-15.4146
-70.7698
-28.6443
-5.97703
-114.358
-9.92171
-81.6287
-36.1422
-81.7581
-63.5402
-66.2216
-54.685
-66.5054
-56.9909
-64.2665
0.304101
12.0094
1.07371
-5.79723
-3.64407
32.1338
2.53545
-2.99053
-21.654
1.20163
-11.8293
-4.33445
2.56588
2.58345
-66.4272
24.6488
59.2066
13.2073
-58.533
-60.8596
-49.745
-26.2307
-33.0364
-38.8818
-48.2213
-59.4621
-59.0561
-42.9997
-41.3222
-23.298
-26.4583
51.7531
26.1991
59.3959
-32.3473
-9.89066
-37.4101
-23.7586
-1.85185
-1.5602
-2.31164
-0.914075
0.00945502
-3.21129
-3.17073
-4.0582
-62.9087
-63.1084
-67.3403
-62.2078
-59.7839
-63.6397
-43.3674
-50.4358
-41.4052
-36.0847
-29.9592
-24.7723
-21.6426
-29.4057
-26.4544
28.679
7.50018
8.4166
15.1417
-46.8305
48.4182
14.5882
-27.0061
46.583
45.0973
53.0461
15.9564
-69.2533
43.0769
-4.86129
-0.652868
-13.2182
-13.8888
-7.40293
-59.8955
-11.2368
24.4182
-5.43007
-24.3847
1.40261
16.316
14.3344
23.4343
15.1822
18.0784
-4.01161
19.1806
17.1914
6.49349
-8.51103
-14.0636
11.634
8.84521
-60.4279
11.5693
-12.3706
-15.6486
-19.2616
-15.2178
11.5151
34.1183
15.2534
48.3325
19.5392
42.8065
-1.16872
-16.539
-14.6669
-6.18755
1.19049
13.4193
8.96569
1.65205
-5.19582
-0.701483
-0.390421
-4.64419
-2.55517
-1.8317
-36.7317
-28.2324
-20.1952
-17.892
-34.9936
-39.7385
35.3932
47.0004
9.76785
9.70183
8.22771
52.8281
9.2459
7.86133
28.7906
23.0918
22.6534
2.42596
-1.88911
-0.563074
8.26133
23.4082
-2.3812
7.61075
10.0535
30.0672
-16.2549
-12.2203
-2.15343
3.32075
6.63998
44.0915
47.101
47.2189
18.703
32.441
22.7531
2.08822
2.6439
1.76932
31.0138
0.0350376
-0.0476167
22.9485
19.1808
-1.0339
28.5485
1.35191
1.53721
-60.5255
-10.1424
-10.5204
-96.7749
-0.947791
-0.0190941
-0.62303
3.02238
-20.5529
3.97789
3.91004
3.05877
16.4357
14.4832
19.7837
4.62184
-4.91142
-9.84569
14.9757
19.7515
44.7602
6.65882
6.36486
2.69369
-7.24556
-1.7545
-4.77441
-15.8203
12.8799
11.5521
11.3636
28.4714
-47.4972
17.2524
29.3435
16.2794
-2.19562
30.5513
-5.00525
45.4962
1.63116
3.68284
-1.71923
53.1677
12.0373
54.0848
6.2172
0.813618
6.68288
-7.03281
-3.06923
-2.023
-11.1259
-1.32226
4.34368
8.4191
24.1911
-9.46476
28.1395
33.837
37.2013
42.8756
24.0032
-79.2585
15.0183
5.84363
27.4867
34.5442
19.097
-108.263
32.8406
56.8916
-1.16557
-0.258603
-31.4966
-65.7699
-8.06776
-4.27152
8.04422
0.730545
-1.8355
15.5765
-5.65099
34.3672
17.3457
-68.7447
-63.8709
10.5413
22.005
12.0097
3.86677
-4.8506
13.9883
1.14303
40.6731
25.1026
6.05727
7.46099
3.89235
2.87627
-5.19704
31.9799
40.2362
35.9203
-1.56134
30.5093
16.4359
-10.1231
-6.09312
4.27841
1.95086
-10.2957
-4.62721
-5.15947
4.51536
-10.9712
8.44528
-29.9294
-71.3912
-21.8867
5.19216
-8.67402
-6.23451
-5.80065
9.3451
-0.744582
5.07239
5.14116
15.5133
17.6765
17.25
-17.6127
53.6015
49.7747
35.376
42.5493
48.5801
53.9547
44.0244
39.9603
-1.09142
-61.2156
-2.13235
-16.9103
34.2496
-4.02596
23.2064
7.60606
-4.93832
-4.15818
4.69108
7.63633
8.61066
-6.09915
19.7923
-0.704018
-2.08145
22.9655
6.19999
4.98304
7.19655
6.22474
3.09617
-25.8698
-16.6085
-11.4353
-8.00764
34.0615
44.4652
41.0858
0.616709
-10.4962
-65.1019
-58.2607
-62.9282
-64.8595
3.58975
-17.9161
-11.0548
-11.537
-5.31374
-2.20269
4.31035
-52.1796
-40.4814
-57.0645
-4.20831
-18.3884
14.0873
-49.4759
-47.0651
20.7646
33.419
-16.2062
-11.6488
-10.664
-9.32338
-13.04
-41.8343
-68.353
0.189426
-18.5905
-58.1972
-7.91956
-16.9612
-16.7658
7.53385
-23.1179
-43.6255
-11.5838
37.4319
-65.8381
-6.71013
1.74742
-7.75726
3.97316
16.0075
16.8821
32.848
4.89992
5.07036
7.16995
11.9176
0.757187
-15.5862
-46.7247
-1.56287
-28.8797
-43.1165
-68.5326
29.1979
22.6914
31.2892
19.1834
24.2572
20.2145
37.6229
29.3733
54.5169
29.817
14.2973
-58.4907
-60.316
-60.3109
-56.031
-56.6177
-9.46438
-14.4345
-13.8518
-6.36065
-17.2243
-19.2472
-13.6033
-18.1992
-62.0319
-60.687
-58.6384
-65.8659
-66.2284
-64.9641
-46.4059
-36.2662
-64.9981
-58.2115
-41.1882
-56.265
-52.4935
-52.4332
-58.0086
-67.4602
-65.7007
-66.8128
-62.1397
-66.6736
47.8969
-27.0853
-40.9669
-1.36138
-9.22079
-30.757
-62.1037
-43.0223
-15.4426
-53.8476
-10.7778
-16.8669
-5.57096
-0.149824
-6.77487
-1.57272
-9.30103
-15.0016
-14.8903
-18.4011
-2.98023
-4.5571
-4.09722
-27.1558
-7.28088
-41.3425
-55.1198
-61.3301
-12.1533
-27.8148
-36.0472
-60.0003
-7.89591
-24.9779
-51.9025
-14.6786
-51.0868
-8.1674
-41.1232
-4.92442
-13.7629
-19.8426
20.6353
-7.23427
14.5622
19.7677
-26.451
9.35542
-35.1922
-23.6361
1.50037
-13.6666
-3.56096
-19.4686
-23.5229
-8.36046
-3.1854
29.4909
-6.35358
5.26342
-20.5512
-44.206
-16.7392
-14.7929
-52.0494
-5.20456
-65.2624
5.47127
-39.7866
-4.83806
-18.7139
-69.3788
30.0367
-1.00073
23.3737
32.642
25.0061
5.51602
0.764988
9.37658
-2.28918
2.00113
4.06281
11.1519
18.7975
4.08703
-40.7868
14.5112
5.59825
-50.4179
16.7812
12.2765
21.3079
47.9117
36.9677
-9.83473
-5.04229
-20.3957
12.8484
-11.4524
-53.0958
21.0056
43.3974
5.03149
3.86316
-1.8788
-22.4076
-39.9034
-10.8331
8.10796
-0.744367
2.23043
18.8284
32.058
44.6769
43.8351
-0.608883
-42.535
-15.2438
-15.5778
20.0903
-62.4071
-13.0162
-34.7322
-128.768
-1.79648
5.68177
1.25431
1.64291
0.998409
-56.7329
-75.4129
-72.482
-11.1777
-1.9505
-1.8371
7.78204
-13.9292
-9.89614
-2.6858
-24.6426
-8.85423
-20.4246
18.1031
16.2448
36.281
27.732
26.0259
8.25415
32.1372
-10.4557
-66.7131
-62.2849
33.7317
31.3651
-58.3011
-13.3926
-15.2928
-31.4608
-62.9961
-49.5052
-44.3168
-52.0639
-47.507
-67.6816
-29.5201
-26.9967
-14.9733
-12.2334
-6.73012
-60.7206
-2.17168
-48.7737
-58.2135
-5.63808
-37.3951
-63.1938
2.2488
7.62528
-13.1839
-44.702
-8.16065
-18.5461
-54.4213
-37.144
1.04956
-5.60832
-3.69423
-62.3435
-47.8169
-19.3227
-51.249
-93.6205
-59.7179
-59.6538
-52.4153
-33.7439
-22.8471
-22.76
-42.2125
-27.3736
17.7207
-8.99824
-30.8226
19.0626
-58.8216
3.49982
-2.7976
-0.688391
3.06215
3.29612
-37.114
-0.275915
-7.30185
-26.9381
-36.8253
-36.8824
-24.3946
-26.5799
-56.319
-25.624
-15.8553
-15.3733
7.31842
-37.2344
-2.61564
-14.5209
-9.12802
-46.113
-13.9268
-23.4389
-41.3918
-35.7331
-44.5902
-20.1839
-36.661
-92.3147
-7.21463
-69.6702
-27.9267
-31.7891
-5.36926
-18.975
-5.52704
-41.9002
-43.7109
-7.05657
-31.4227
-19.8882
-5.30445
-16.4909
-46.5236
-46.2011
-29.1642
-0.304636
2.27629
5.63255
2.5805
6.24368
36.5309
33.6174
46.816
45.574
46.9789
42.933
3.7974
13.5437
27.6163
21.2554
21.7082
8.21648
-70.1488
-26.8667
1.52341
-54.6313
-5.79409
-5.74322
-26.2577
-39.1672
-4.93361
6.1782
-32.4014
18.4163
-9.11497
-4.02812
-4.37697
-3.59936
15.4053
-0.540621
-8.03935
-6.10798
2.62789
25.7131
20.4089
8.55398
-16.468
-18.3143
38.0338
33.3667
-11.3864
35.8811
15.8981
32.0364
40.5165
43.1322
9.61912
15.5123
-8.2104
4.52294
40.7978
19.0119
15.2017
18.1371
17.6375
21.7696
0.394287
-6.40036
8.64946
2.93176
5.56962
4.80319
8.24575
-6.23855
4.83301
5.37943
-2.78028
-4.83315
30.9373
40.3022
-4.31154
33.1983
-35.3234
38.6779
46.2315
42.0292
17.4055
18.1518
32.2288
18.6415
13.4766
13.3083
12.1884
5.71592
5.14664
5.53389
27.0355
19.8826
21.5798
-12.6272
-12.5013
4.45601
3.29535
-0.296693
3.62454
16.9377
21.9893
-65.2634
16.857
14.5939
13.9573
-6.37194
25.6684
34.0625
-6.56046
-5.4053
-17.6102
-14.0725
-16.5347
-26.0297
-11.1306
-9.19325
-22.3144
12.4004
14.2753
19.5246
13.0382
-9.42993
15.1872
16.6744
5.71519
4.77408
2.28204
14.0457
13.6584
20.4872
13.2809
11.3548
9.79655
7.41557
17.7461
-6.54119
7.5842
-7.79717
11.9505
9.51571
-1.96001
1.66484
1.61171
2.4224
1.4927
5.72058
-32.6754
-62.5705
-41.1204
-52.8691
-43.8865
-21.9428
-22.4631
-2.77534
-1.42848
-7.06354
-2.30105
-28.0669
-46.2696
-18.6111
-7.6509
-25.2134
-14.2918
38.6896
-20.6234
-64.875
-67.5958
-62.4185
-43.8154
-39.0364
-41.3837
-32.4761
-26.332
-61.3955
-64.2881
-60.6265
-64.7529
-67.6764
26.8295
31.7014
7.73009
-67.0552
-60.5147
34.3424
18.3909
-38.5292
-48.0078
27.8582
-94.6583
-65.0347
30.7816
46.5376
17.4174
36.8735
25.3345
31.2545
48.8234
52.9239
35.0253
-64.199
-63.8864
-63.3124
-60.4467
-15.5901
46.2437
-30.0464
-66.9695
-68.1127
-67.7534
34.5645
12.855
31.2456
11.1835
36.9379
23.9546
5.28447
-22.5044
-82.5273
-68.2301
-4.39842
-26.5351
50.7899
48.9232
50.3425
27.5057
8.98208
9.74835
-23.453
54.6244
19.1634
20.8367
13.9089
9.27864
57.0955
58.7643
-52.0097
9.29098
58.0648
-12.0651
-60.9616
56.6741
18.4053
-35.7306
14.966
-63.5097
30.7529
30.9691
-1.2523
40.0002
20.7925
-10.3685
-1.75224
-25.3974
9.01293
-15.9844
42.0416
-51.9045
51.7336
4.27814
5.36567
-23.2133
-62.3533
-58.8362
28.1674
-0.530898
-17.7425
-1.68063
-7.40243
9.38974
-23.0146
-21.6439
-36.2383
51.6915
59.1871
14.4691
35.0043
-45.9612
15.2165
27.805
52.7826
18.0262
42.7878
49.0106
23.7976
23.7924
18.1576
35.5041
32.1763
34.7184
30.2801
22.1605
24.194
28.0343
14.0574
22.9974
14.0477
20.0615
16.3385
44.2348
45.9819
-12.123
-3.13551
-4.2789
-5.61531
-11.0139
-11.3768
-7.75162
-12.7017
-11.4907
-20.3732
12.2518
10.3649
-3.81821
-7.12937
2.32487
7.45094
7.12646
-9.82192
-1.73492
0.692157
11.7224
-65.3295
9.3604
-4.30648
-19.9377
-81.5984
-60.6829
-25.9202
-33.0676
-0.488746
18.9112
-14.8173
0.793356
4.32351
47.403
-36.7483
45.9595
16.4417
10.4778
11.6056
-21.3023
18.1518
23.2222
38.1226
14.8229
35.8587
45.7679
34.4717
-18.8618
-24.1331
13.3016
-1.25444
39.1442
4.56545
5.31213
41.0247
42.0611
42.2694
46.76
40.7148
38.4738
7.2903
0.148027
-0.496788
-2.60729
-3.2803
46.4855
-6.78339
-1.6832
26.0472
-15.7534
-63.3098
-65.607
-3.53079
29.5549
27.332
20.3794
16.9667
11.1646
-10.4745
15.4966
20.3116
22.3808
-24.2845
10.6467
11.9657
-6.07406
18.3357
18.4459
23.4723
10.0836
-64.5517
-64.9382
-31.701
-24.0932
28.6385
6.61478
-16.8338
25.7909
18.7732
-5.99197
-4.05433
-11.9618
-5.8988
-24.6304
-13.7667
-0.0421853
-62.8457
0.666774
0.202875
-0.624279
-15.4872
0.212611
-20.7211
7.33688
-2.92662
-4.0664
-4.84423
0.24426
6.5499
-64.0066
21.1527
18.3853
19.152
-2.97909
8.34634
21.496
9.47661
5.45295
2.77956
-8.57337
-9.80605
-13.4781
-9.49597
0.351123
-63.4173
-44.488
-35.5875
-10.0528
14.8777
-46.5361
14.487
-40.8694
-51.0225
-8.70413
-61.5236
-62.777
37.0374
31.1961
-63.591
-56.8381
-72.3199
2.02187
17.1909
-20.4081
6.06614
34.9012
22.2528
4.44594
-6.87726
-4.25496
-13.8355
-15.2146
-2.2258
-15.0712
1.76701
-23.4482
-7.07699
0.000930898
-9.06785
-18.5356
-8.0898
17.1072
-50.1272
3.54421
15.18
-40.7934
-3.86796
-28.9036
6.57784
23.1173
15.4788
-9.77755
-14.3693
19.948
15.4509
-2.75757
32.0115
14.2439
-50.2627
-6.19386
16.506
24.4388
1.04694
3.15987
5.10625
5.42809
4.59359
-30.2673
-63.8681
4.77805
0.50197
6.8194
12.5413
-8.81491
-82.4628
-17.8868
40.7851
-13.213
-9.95186
-14.4396
-5.31997
-5.32524
-60.5802
-27.3216
-46.1692
-13.3717
-6.73453
26.8384
-43.9654
-35.6876
-15.6623
51.3624
-19.4119
25.828
-14.7799
-11.0136
-46.5869
25.439
-8.25663
-38.6975
-30.8158
-48.9623
-14.4704
-43.9145
-66.1865
-32.8985
-17.088
-35.7376
-67.035
-64.0727
-68.9135
-14.5292
-9.239
-38.1022
1.29401
-6.98198
-6.17097
-24.7365
-4.60265
-14.4896
1.07211
-3.03082
-7.7429
-1.50327
-15.2286
-7.4671
-4.65486
-3.30126
-11.6515
8.5034
9.89702
-1.38251
-5.10543
6.13327
-48.5079
-16.1142
-33.9623
-22.5375
-12.9752
0.0635983
19.8113
36.6981
1.0053
0.0829623
3.90847
-5.67451
2.43581
-23.3024
-15.2723
-38.6882
11.0687
-20.0241
-12.6942
-3.19961
-12.253
-10.4157
-36.8811
-58.2117
-61.7651
-92.7337
24.0664
-64.7086
27.9177
58.4201
26.8047
31.3528
20.0857
28.0614
24.0661
-21.3895
25.4795
1.11964
-22.8168
-23.2294
-4.76335
-28.4899
-2.80397
-3.34068
-52.9055
25.8614
12.3896
-30.7474
-42.4536
-62.094
12.6484
3.2955
4.0829
3.7374
2.85651
13.2461
18.1805
-0.387301
1.73319
0.929785
19.0873
29.1947
11.6999
-11.9208
19.316
1.46157
9.2054
-5.40603
46.3679
-7.97133
0.600009
4.6098
-1.83957
1.60916
-2.46994
11.7927
-5.23278
29.5472
31.4785
20.2912
8.32203
10.4107
9.29862
-0.702903
-60.6276
-59.4192
-21.1175
-14.7152
0.733597
-16.5778
-2.51541
15.7416
3.66049
5.84773
8.37462
-1.44229
-13.282
-2.25482
8.32091
6.71451
-5.25789
-2.70734
-1.82488
11.7571
-4.11865
-0.659548
-1.88647
1.02894
16.2434
14.13
33.8029
28.601
34.8467
29.051
18.6205
-99.5551
32.8029
23.1108
32.9342
26.2971
15.0693
20.4359
-54.544
5.17882
22.5304
35.8067
-35.6404
-4.7116
-65.3193
3.75676
-4.15629
-5.83288
-7.47566
-32.3681
-17.0041
-64.6498
-62.3982
-64.1282
-42.0719
-47.3339
-11.3448
-11.1312
-66.5507
-3.16525
-50.7471
-21.5223
-12.4067
-35.9406
-63.0077
-65.1796
-15.3927
-66.4923
-10.8457
-12.5721
-10.1809
-64.3171
-5.73064
-21.2985
28.8928
-66.0647
-10.7771
-15.9374
-5.80802
-65.6523
-14.735
18.0283
-66.4239
-33.0455
-5.97835
-7.43268
-50.1105
-54.4312
-12.5506
-6.01561
-13.7532
-11.0856
-3.25219
-2.25546
44.6174
-2.29964
-7.17214
-2.6668
-1.00713
2.37158
5.02697
6.03264
-1.41137
2.85985
3.85331
8.69754
4.33536
4.26239
-15.5335
-12.7613
3.39182
-2.03929
-1.38511
-3.18352
0.576776
0.311342
12.2807
6.64702
0.827494
2.6298
3.91462
1.32617
3.32597
-2.28389
11.2412
16.8802
-65.7113
-29.4308
-68.4963
-1.33454
47.7555
49.8537
61.8022
58.2585
59.7792
-41.0299
21.0543
-5.42497
-52.4017
-66.0273
48.4552
-81.6933
-14.5909
-92.9265
34.7223
28.0481
14.4422
6.9272
-4.07733
9.22629
12.1286
10.2098
-25.7963
-123.692
-21.3979
-5.01123
-20.0235
32.7173
19.7467
-32.7065
-29.9268
23.9724
13.3015
-43.7592
-49.2848
-52.6394
-0.35144
3.21111
3.75706
5.10497
-50.4971
20.1978
32.878
8.21641
-32.0569
-64.9517
-71.4829
-85.2666
-68.9401
26.6164
27.5623
50.8422
2.22412
-2.94101
-12.0178
2.73716
7.90775
7.71744
9.28518
57.6376
-38.0479
-9.22535
7.4635
-0.491415
9.75941
2.11886
7.30965
-0.300807
49.3093
51.4602
-8.17978
-5.40886
1.94608
12.1403
-64.8817
-11.8979
-3.64202
-65.7929
-5.11036
-5.13237
-5.28358
-5.22496
-21.3055
-46.0573
-4.00246
5.77802
30.3131
7.42271
13.409
2.4396
-31.1705
33.3091
4.23399
7.71017
16.7757
29.4681
24.3469
38.9936
37.1874
26.3503
-35.0275
18.671
9.17951
12.6228
8.47997
14.0656
16.7887
-4.70012
-4.36771
2.6981
-11.6338
-21.6857
10.5922
20.5121
28.9779
-65.8396
36.5736
36.7631
26.9373
29.5603
51.1512
29.2454
33.6935
-25.3386
-74.3389
-7.87197
-4.16295
-32.4651
-45.0784
0.235141
-10.2615
-6.86656
-1.14988
31.5669
21.5544
19.6097
21.8899
21.9454
30.9677
36.7955
21.0532
15.3915
8.549
10.8761
3.72825
-0.261727
10.026
13.7542
20.7738
27.7684
25.3134
31.3582
-22.8506
-16.7205
-57.8788
-13.4256
-5.67125
-33.4158
-16.0019
-0.902462
-82.609
-7.78318
-27.5216
-33.4105
-6.1964
-55.0503
-7.7762
-9.22579
-62.0193
-30.0268
-13.2748
-24.2382
-67.6627
-63.3635
7.70751
8.78881
-42.6578
11.9464
7.45981
19.8477
-65.7818
32.757
20.6192
16.4826
28.1911
55.369
-10.8992
31.3314
20.0086
4.40852
-28.0333
-7.67214
30.4118
0.850862
14.3297
21.5287
29.9484
31.9103
45.8223
17.1752
16.9509
-7.35382
-10.66
1.72079
0.0919227
19.5314
21.7233
15.7806
-21.1693
19.6185
22.5644
20.145
15.8847
-63.1092
-2.06732
-1.95721
2.03514
2.8726
-4.43545
-3.55386
-5.56454
-8.06389
6.37589
-1.25761
-7.0835
-3.35838
-1.989
-9.2116
-14.3345
-11.8351
-17.8103
1.45156
1.92462
0.671783
21.4371
18.6213
22.5899
10.6041
3.17485
2.86952
8.54416
10.6872
9.62221
5.20115
7.26271
6.88631
7.40458
9.3969
16.6565
16.6641
13.2602
14.2313
26.4588
27.616
31.3797
32.2086
31.6354
28.9415
28.2813
-26.9048
-24.8797
4.16754
-35.2028
-25.4826
-7.30815
4.93233
-15.8932
-3.05421
-3.68535
5.16684
-11.4791
-18.0849
-4.9034
-9.28728
-6.48909
-9.72972
-9.66218
39.9798
50.8976
36.443
56.4206
35.2969
44.835
37.0454
50.7633
31.9884
40.0436
-2.42041
31.2603
44.2324
39.1575
28.396
27.8107
31.1555
27.4803
-48.0509
-25.4556
6.51431
-1.01237
-61.6091
-0.214809
-8.44944
1.65258
-7.91351
-5.38562
-1.19033
21.6323
17.6712
18.3429
-3.345
-7.46922
-0.864556
-2.12447
-17.02
-25.4438
5.14725
28.5273
17.6177
18.306
1.54015
-5.9698
0.81133
6.69228
-33.8236
17.81
12.4323
30.2913
-65.6192
-47.2593
14.1942
42.1958
41.8214
43.1298
11.5112
13.4329
26.212
15.406
13.8516
5.10194
-56.7722
-62.7214
-66.4314
-53.4426
-59.1649
-68.1337
-63.5227
-67.8753
-5.20944
-7.42425
-6.72771
-5.53793
-1.00653
-7.19824
-10.3234
-21.1316
-0.928753
-10.8096
-9.68224
-5.26514
2.96528
0.80899
10.5258
-1.39961
-1.50608
-3.92008
-22.061
-4.10727
1.78776
-2.44055
-1.05065
15.9463
-25.263
-2.84282
17.8673
19.4348
7.52865
10.4967
-16.5357
-55.3394
6.45437
20.5603
7.6841
1.57676
-5.46069
-11.1905
39.2938
11.1998
3.88793
10.8545
-0.636956
23.3648
11.3781
25.4949
26.9522
12.5179
-26.1692
-23.9566
4.22014
-34.846
-106.32
-75.7998
40.7857
20.0352
-18.338
-95.1821
7.15721
13.1987
-0.807179
42.9258
7.00535
18.3369
10.6475
18.2804
0.845293
23.803
23.4948
10.5621
10.9677
14.5891
0.174988
20.7444
6.06298
9.56742
8.34836
5.64332
3.52267
8.59994
2.23824
1.7938
4.03659
8.7805
-8.92465
0.237037
0.598029
-0.354685
56.7845
-120.919
30.2588
2.07019
14.2915
-5.4266
-24.9412
12.0327
-10.4098
-22.8651
6.13237
-4.91957
13.593
-18.6907
-59.9757
5.55687
32.5012
22.3241
25.5163
-2.92957
2.8824
-2.91377
-0.712725
-9.1094
-2.54827
-4.37217
5.93754
8.40846
-16.0915
-8.8828
-59.1147
-8.24793
-25.786
-9.64298
-5.55332
-17.7196
-6.85246
6.99414
13.0775
1.33424
17.088
25.7875
8.83159
21.3286
7.29475
30.5916
-41.6522
-39.2092
-8.47277
-15.0281
-17.3776
-46.114
-5.10438
1.53325
-16.0014
-12.8164
1.53921
-8.43647
-8.7698
-26.7245
-138.62
-49.0595
-67.141
-33.4508
-62.2163
-62.8189
-20.788
-11.7696
-1.56151
-5.19313
-2.46503
-3.39023
-11.4676
-49.7897
-60.7379
-37.2196
-17.9842
-68.996
-56.6363
-66.518
-96.7075
-57.2089
-61.5794
-63.4302
35.8858
25.9779
-37.177
-67.7681
-66.3629
-59.2626
11.0181
9.5885
9.35097
21.6058
25.1129
22.0907
5.2597
-13.6403
-19.4406
-23.3793
-23.1438
-6.37185
-3.99947
-4.34302
-0.858187
-9.20364
-9.10967
-5.46745
-8.61371
-5.01439
-1.90146
-1.99369
0.970846
0.0914452
3.14639
-34.5849
-31.3501
-34.1497
-33.7567
32.3206
30.1242
26.6969
15.0367
7.39235
21.8831
23.0686
50.4897
39.2372
38.6001
46.766
54.9045
52.4046
48.6782
51.2209
-15.5494
-23.4873
-11.9363
-0.548796
2.82836
8.16033
7.61787
32.5122
34.2847
35.9636
26.6331
42.3019
-27.1937
-20.0939
-21.9885
31.4885
29.9463
30.2299
10.1685
9.045
-63.5527
9.31369
9.7977
9.01885
-70.1508
-143.259
31.9523
-68.3461
6.34252
5.56354
4.01687
-9.66716
9.38145
6.69006
36.2181
-50.3861
27.2361
24.164
19.8808
-84.9865
5.56272
12.077
6.03845
-15.7841
46.4222
51.4306
4.14876
5.05079
29.5589
16.1494
10.7097
19.8935
20.8301
40.0219
-1.4418
-33.4973
2.34426
-33.7187
-29.9927
7.42749
31.7395
-66.7923
48.4157
-11.7098
9.69414
-5.24533
-13.1756
-14.2229
-12.6222
-6.37604
-19.729
-3.01746
-2.94643
-3.3785
-4.21984
-63.9263
-61.3494
-63.7754
44.8103
14.4127
14.3435
12.9931
16.568
10.5666
52.4059
46.8011
48.182
34.9538
51.7293
55.1617
40.0616
45.2245
49.8934
35.4095
45.6542
45.3348
-35.5927
3.65789
-20.7403
-21.5373
-16.0444
-6.46099
-14.9698
4.14926
-47.7961
-28.6036
-19.5697
1.35062
6.8762
11.1556
-18.958
-14.4792
5.63508
3.07364
-42.9225
-39.6873
44.3572
-37.9404
-21.3333
51.1217
-6.38762
-10.1402
-4.89285
-6.22551
-4.6299
10.3237
43.6698
51.6783
39.1801
55.8451
38.3796
-2.84029
-1.66398
-4.04356
-5.12872
-74.2861
-6.77461
-1.26344
11.9124
8.87015
-2.91149
6.81679
44.3152
5.87238
45.3949
22.0461
28.4003
23.25
26.1523
25.4161
10.3079
-0.577669
30.1768
31.2448
49.3022
29.4817
-52.4088
5.88915
0.939605
-4.69714
-3.26735
-5.09261
-4.40066
-12.881
-96.9156
17.3582
-7.8023
7.9747
0.343813
8.71628
-3.52932
4.82239
-3.49136
4.74658
-0.228367
9.19026
2.89607
11.535
7.08177
-7.14288
-2.11002
2.60863
-55.1568
31.0621
-102.633
-99.8335
-20.4055
-24.6581
-61.9693
-63.7376
-2.69321
-13.0534
-8.32788
-17.3476
-31.3757
-23.08
40.0066
14.373
17.8079
16.9129
23.4854
32.3054
39.3088
40.7198
-13.0075
-9.35596
45.8006
50.2762
11.1651
22.5857
27.3077
23.512
60.8635
-8.35393
30.3697
22.2151
12.0263
-67.1709
17.7032
18.9652
33.7879
29.9241
41.6797
38.734
-40.4427
25.7172
34.0026
29.4148
30.423
26.643
-14.9215
-16.5614
-13.2267
-18.3982
5.83144
5.90368
7.80108
-6.93782
-1.19838
-16.9379
-1.90504
-22.2413
-18.4169
12.6415
12.7536
-8.04443
10.7645
-100.043
-51.2699
-18.9981
-49.5198
23.1101
60.2877
49.6579
47.464
40.5497
-66.0546
-26.0868
-45.8179
-48.5846
-27.586
-54.6531
-31.2442