/*--------------------------------*- C++ -*----------------------------------*\
| =========                 |                                                 |
| \\      /  F ield         | OpenFOAM: The Open Source CFD Toolbox           |
|  \\    /   O peration     | Version:  2506                                  |
|   \\  /    A nd           | Website:  www.openfoam.com                      |
|    \\/     M anipulation  |                                                 |
\*---------------------------------------------------------------------------*/
FoamFile
{
    version     2.0;
    format      ascii;
    arch        "LSB;label=32;scalar=64";
    class       surfaceScalarField;
    location    "0.0501868";
    object      phi;
}
// * * * * * * * * * * * * * * * * * * * * * * * * * * * * * * * * * * * * * //

dimensions      [0 3 -1 0 0 0 0];

oriented        oriented;

internalField   nonuniform List<scalar> 
7683
(
-0.00288226
-0.0154232
0.00750205
0.0108034
0.0015348
-0.000365569
0.000859048
-0.00202828
0.0029328
0.00595035
0.00265427
-0.0115374
-0.0323191
0.00680309
0.014789
0.010727
0.000344116
-0.000902278
0.000114227
0.000443934
-0.0107693
0.0292675
-0.00664102
-0.0118572
0.00210205
-0.00121315
0.000581143
-0.00147004
-7.49143e-05
-0.000983297
0.000635357
-0.00427681
-0.000373536
0.00323492
0.00141543
-0.00187501
0.000676027
-0.0019781
0.00317709
0.000491021
-0.00122523
0.00205128
-0.00131706
0.00847215
-0.00177713
0.00586712
-0.0125621
0.0277735
0.00944615
-0.00653567
-0.030684
1.63856e-05
-0.00619264
0.00733091
-0.00115466
-0.000221215
0.000174816
0.000708376
-0.000661976
0.0223259
0.0231301
-0.0339473
-0.0115087
-0.0052965
-0.00509657
0.00621281
0.00418026
0.0278521
-0.00283233
-0.0250198
0.00103948
-0.000141697
0.00104259
-0.00194037
-0.000198809
0.00070402
-0.000749289
0.000244077
-0.00100767
-0.00467896
0.00167441
0.00401221
0.000357989
1.99292e-05
0.00172413
0.000485089
-0.00133497
0.00261675
-0.00176687
-0.00349674
0.00122016
0.00113386
0.00114272
-0.00661891
0.0019769
-0.00679894
0.011441
-0.000860555
0.000227235
-0.000517705
0.00115103
-0.000875026
0.0015265
-0.000562649
-8.88241e-05
0.000428063
-0.00412127
0.0032018
0.000491403
0.0140399
-0.00493593
-0.00512185
-0.00398209
0.00230706
-0.000322771
-0.00729534
0.00531105
0.00021181
0.000149442
-0.00304502
0.00268377
-0.00047567
0.00176896
-0.000237305
-0.00105598
-0.00119415
0.00158759
-1.55327e-05
-0.000377908
-0.000358684
0.002737
0.00042641
-0.00280472
-0.0125733
0.00315597
0.00254036
0.00687701
0.000225624
0.00247534
-0.00185107
-0.000849892
0.00084008
-0.000248788
0.000193663
-0.000784955
0.000343196
-0.00128856
-0.000867336
0.00492613
-0.0156153
0.0126281
-0.00193893
-0.00363924
-0.0027579
-0.0100821
0.0164793
-0.000227726
-4.27836e-05
0.000328633
-0.0514437
0.016114
0.00200703
-0.00257591
0.000247999
0.000320875
-0.0288894
-0.0225543
0.0427544
-0.0203826
0.0114894
-0.0338612
0.000971246
-0.000474439
0.000346547
-0.000843354
-0.000331788
-0.000682643
0.00101443
0.0155965
-0.00540805
-0.00707591
0.000822797
-0.0004773
0.00166153
-0.00115
-0.000402873
-9.27837e-05
0.00164565
-0.00283953
0.000148309
0.00293416
-0.000242931
0.000768093
-0.000520965
0.000592952
-4.43216e-05
0.000405244
0.00303566
-0.00151109
0.000120664
-0.00121319
0.000544956
0.000547573
0.00703753
0.0153459
-0.0210426
-0.00134087
0.0036928
0.00823124
-0.00369925
-0.00822479
0.00683725
0.0052951
-0.0123155
0.00018317
0.0245922
0.0031813
-0.0238979
0.000261338
0.0330827
2.12188e-06
0.00139492
-0.0011185
-0.000278542
-0.000181235
0.000879479
-0.000696122
-0.00249018
-0.000598654
0.00113478
0.00195406
0.000214202
-0.00285022
0.000145833
0.00119743
0.0144936
-0.0233688
0.00767774
0.00163108
0.00151878
-0.0042156
0.00106574
-0.00100535
-0.00388581
0.00223756
0.00265359
0.00101325
0.00185982
-0.00337939
0.000506323
-0.000243875
-0.000727556
-0.000344671
0.0013161
-0.0116639
-0.00321263
-0.00181745
-0.0011997
0.000887881
0.00212926
0.00474905
-0.00394642
-0.00387225
0.00306962
0.00052859
0.000636701
-0.000793199
-0.000372092
-0.00694229
0.0125728
-0.0138186
0.00818805
0.00111785
0.000386572
-0.000877026
-0.000627391
0.000744895
0.00416144
-0.000655866
-0.00425047
-0.000480735
0.000305498
0.000488173
-0.000312936
-0.000262772
-0.00175005
0.00170705
0.00030578
0.00333226
-0.00805166
-0.00277245
0.00749185
0.00328201
-0.000441591
-0.000866076
-0.00197434
-0.00190505
-0.000827936
0.010809
-0.00807604
-0.00207668
0.00207257
-0.00198559
0.00198969
0.00218913
-0.00175003
0.00230226
-0.00274136
-0.0103473
0.00142052
0.00363029
0.00134432
-0.00105535
-0.00134951
0.00106054
-0.00115824
0.00223548
-0.00137461
0.00029737
0.00432904
0.00281445
0.00964627
-0.0167898
0.0299993
-0.00301468
0.00357444
0.000144161
-0.000312021
-0.000627301
0.000795161
-0.00699819
0.000635017
-0.000996635
0.00735981
-0.00108953
0.00131535
0.00161269
-0.00183852
0.00202622
-0.00143098
-0.00107092
0.00208873
0.00112958
-0.000713847
-0.00250446
-0.00235351
-0.00139857
0.00246857
0.00128351
0.00248433
-0.0027532
0.00382315
-0.00355428
-0.00247549
-0.00114908
0.00283824
0.000786343
-0.000611612
0.000712983
0.000477144
-0.000578515
0.000979243
0.000463517
0.00169886
-0.00314162
5.98588e-05
0.000829388
-0.000106462
-0.000782785
0.00197731
-0.00495295
0.00188851
0.00108713
0.0105235
-0.00886686
-0.00164029
-0.00522044
0.0104267
0.0130165
-0.0182228
-8.14993e-05
0.000625547
-0.00168882
0.00114477
-0.000215056
-0.00729171
-0.00115395
0.0121361
0.00131078
0.00434805
-0.0177949
-0.000584957
-7.14849e-05
0.000209885
0.000446557
-0.00115925
-0.00185594
-0.00162268
0.00463787
0.000181834
-0.00017378
-3.95599e-05
3.15057e-05
0.000215013
-0.000529072
0.000314059
-0.00300897
0.001633
0.00247754
-0.00110158
-0.000537323
0.000433236
-0.00013076
0.000234847
0.00204931
0.000626038
-0.00616672
0.00349138
-0.000513642
0.00130469
0.000340061
-0.00113111
0.00318503
-0.00357985
-0.00323547
0.00885525
0.0233176
-0.00699277
0.000320884
-0.00050131
-1.8383e-05
-0.000141471
-7.49071e-05
0.000537262
-0.00244066
0.00260608
4.63964e-05
0.00735724
-0.00589821
-0.00503146
0.00357244
-0.000339812
0.00193551
-0.00198126
0.000385564
0.000379054
-0.000759911
0.000442931
-6.20731e-05
0.00126404
-0.000408832
0.00032916
-0.00118437
0.0197078
-0.00550441
-0.0108953
-0.00330811
0.00464588
-0.000289842
-0.00070459
-0.00365145
0.000400633
-0.00309013
0.0027615
-7.1997e-05
-0.000920911
0.00272918
-0.00321489
0.00140663
-0.000175161
0.000482511
0.00230561
-0.00261296
-0.0430338
-0.031253
0.0267156
0.000537174
0.000594996
-0.000513113
-0.000619056
0.000883547
0.000937381
-0.00141149
-0.000409437
0.000925678
0.00861731
0.00202468
-0.0115677
5.35674e-05
0.00131856
-0.00648146
0.00510933
-0.00293085
-0.00100885
0.00460623
-0.000666527
-0.01492
-0.00700846
0.0179072
0.00402128
-0.0023256
0.00512328
-0.00360717
0.000809498
-0.00355041
-0.00270799
-0.000300592
0.00655899
0.00223989
-0.00925901
-0.0058975
0.0129166
0.0118528
-0.00324387
-0.0164064
-0.00380577
0.00435591
0.012886
-0.0134361
-0.000143037
-0.00176686
0.00130693
0.000602963
-0.000938633
0.00270399
0.000850627
-0.00261598
-0.00219941
0.00114572
0.00203293
-0.000374471
-4.19866e-05
-0.000304881
0.000721339
-0.000790682
0.000718998
-0.00107831
-0.00438347
0.000363437
0.000133382
0.00325344
-0.00333799
-8.38025e-05
0.00016836
7.5721e-05
0.00109333
-0.010269
0.00909995
-0.000841903
0.00109378
0.00109245
0.000894479
0.000305754
-0.00120023
0.00220209
-0.000177111
0.00118679
-0.00321177
-0.000575807
-0.000746554
-0.00175111
0.00307347
0.0020724
-0.000674487
-0.00184816
0.000450247
-0.000149104
0.00101575
-0.000866643
-0.00054299
0.00133252
-0.000864644
7.51114e-05
-0.00178049
0.00187486
0.000263623
0.00282802
-0.00298583
-3.2059e-05
0.000189874
-0.00165341
0.000411036
0.00045169
-0.00135612
0.00109838
-0.000119926
0.000377662
0.00143971
-0.000475955
-0.000272075
-0.000691682
-0.000274659
-0.00146913
0.00156256
-0.0157212
0.0185952
-0.00651329
-0.000609292
0.000670782
0.000299612
-0.000361103
-0.00813041
-0.00242671
0.0140559
-0.00349878
-0.00138281
-0.00344574
0.0030111
0.00181746
-0.000333415
-0.00081885
0.000770011
0.000382254
0.000632098
-0.00353087
0.00427864
-0.00137987
0.00350813
0.00521343
-0.00830084
-0.000420712
-0.00420627
0.00437351
0.000186963
-0.000354206
-0.00466951
-0.00136574
0.00529087
0.000744381
-0.0219947
-0.0176639
-0.0137069
0.00551605
0.00229169
0.00589914
0.00243871
0.00077129
0.000723861
-0.00393386
-0.000830596
0.00242359
-0.000860298
-0.000732691
-0.00124053
0.00415183
-0.0029113
-0.00134497
-0.00219903
0.003544
-0.00517037
0.000483554
0.00481175
-0.000124933
0.0182652
-0.00626053
-0.00976477
-0.00471988
-0.00481087
0.00152565
0.00800509
0.00137332
-0.00224425
0.000357971
0.000512955
-0.000396256
0.00128284
-0.00207542
0.00118884
-0.000274926
0.0015865
-0.00148082
0.000169245
-0.000216498
-0.000242942
-0.000961633
0.00142107
0.000527501
-0.00359094
0.00167479
0.00138865
0.0013349
-0.00640454
0.0309376
-0.025868
-0.00703699
0.00747482
-0.00541618
0.000672495
-0.00578955
0.00304197
-0.000244762
-0.00600986
0.0053675
0.000887124
-0.00230459
-0.0016862
0.00717582
-0.000500858
-0.000894841
0.000717532
0.000678166
0.00359268
-0.00344197
1.0943e-05
-0.034436
0.00737648
0.0270595
5.10692e-05
-0.00139496
-5.14546e-05
-0.000454886
0.000191799
0.000314542
0.000663936
-0.00112523
0.00127766
-0.000816364
-0.000485748
-0.000440096
7.35162e-05
-0.00417066
-0.0045241
0.00283857
0.00885662
0.00476658
-0.00929416
-0.000136898
0.000394036
-2.44124e-05
0.00430807
-0.00573728
0.0030603
0.017298
0.000789169
-0.0176346
-0.000452581
0.00093394
0.000206056
0.000418697
-0.00155869
-0.00168989
-0.000725693
0.00125735
-0.000123972
-0.00543924
0.0036882
-0.0012396
-0.00222326
-0.00126328
0.00472615
-0.00209736
0.000779735
0.0004849
0.000832723
0.00139741
0.00183514
-0.00298121
-0.000251334
0.000150722
-0.00160991
0.000516807
0.00094238
0.0013047
-0.000717897
-0.0024879
0.0019011
0.000885838
-0.00224669
-0.000329043
-0.0011261
0.000873981
0.000376673
-0.000124554
0.000537087
0.00212405
0.00200697
-0.00466811
-0.000909312
0.00199597
-0.00243875
0.00135209
0.000815191
-2.67101e-05
0.0004379
-0.00122638
-0.00456512
0.00521871
-0.00358445
0.00285338
6.11236e-05
-0.00231151
-0.000603001
0.0177774
0.0108051
-0.0205686
-0.00801388
0.000584097
-0.000849632
-0.000196371
0.000461906
0.00114543
-0.0019392
0.00117335
-0.000379577
-0.000963358
0.000691877
0.000173243
-0.00211451
0.00164015
-0.000349475
0.000823839
0.0025594
0.00052421
-0.000580278
0.00318534
0.000662093
-0.00326715
-0.000749187
0.000501107
0.000586897
-0.000338817
-0.00306743
0.0015701
0.000871089
0.000626243
0.00118189
-0.000855915
0.000211199
0.000699956
-0.00168317
-0.0010022
0.00198541
0.00287565
-0.0105701
0.00462638
0.00306807
0.00771812
0.00355622
0.00498267
-0.000516534
0.000486178
-0.00301997
0.0055211
-0.00883367
0.00633254
-0.00399462
0.00778496
0.00232413
-0.00611447
0.000595382
-0.0014011
0.000395951
0.000409763
-0.000396725
0.000715169
-0.000173689
-0.000144755
-0.00875188
-0.0228084
0.0286887
0.00287155
0.000573963
0.00363159
-0.00393124
-0.00027432
0.0158467
0.00891055
-0.00504943
-0.000504096
0.0207427
0.00201262
-0.0222512
-0.00331324
0.00329926
0.00147623
-0.00146225
0.000311883
0.000317147
-0.000249977
0.000200614
0.00160646
0.00102094
0.000288264
-0.000851369
0.000193591
0.000369514
-0.00148004
0.00035708
-7.11858e-05
0.0102421
-0.00207472
-0.0134574
0.00529003
0.000287508
1.17453e-05
-5.50979e-05
-0.000244156
-0.0019744
0.00128479
-0.00171405
0.00240367
-0.0114212
0.0060347
-0.00228404
0.000253454
-0.00110601
0.0056016
0.00430213
-0.00301885
-0.000141693
-0.00114158
0.00371209
-0.00136699
-0.0011349
-0.00121021
-0.00561381
0.0117152
0.0137888
0.00141684
-0.00336439
-0.0118413
-0.000813445
-0.00660006
0.0031367
-0.00759171
0.0255847
-0.00614024
0.0160395
-0.000471123
0.00462879
0.00275125
-0.000360189
-0.0026919
0.000300837
-0.00116581
-0.00273812
0.00254771
0.00135622
-0.00137993
0.000545029
0.000223292
-0.00304994
0.00360686
0.000331938
-0.000888855
0.00119086
-0.000610744
0.000550087
-0.0011302
0.00199939
0.000726832
-0.000385548
-0.00234068
-0.00195163
0.00100045
0.00051862
0.00043256
-0.00023339
0.000148711
-4.91415e-05
0.00013382
-0.000491536
0.000817678
-0.000326141
0.00527895
-0.00666318
0.0135203
-4.28506e-05
-0.00014898
0.000507467
-0.000315636
0.000617467
-7.46001e-05
0.000484532
-0.0010274
0.00312512
0.000117316
-0.000468844
-0.0027736
0.0050414
0.0026534
-0.00244913
-0.00524567
0.00298247
-0.00280013
0.000686108
-0.000868446
0.000672352
-0.000658822
-0.000260341
0.000246811
0.000428035
0.000316566
-0.000376686
-0.000367915
0.00463212
-0.00079922
-0.00357944
0.000131602
0.000163269
0.000204174
-0.000499046
0.000889905
8.13407e-05
0.00204978
0.000767492
-0.000615853
-0.00220141
-0.000682123
-0.00314631
0.0198679
0.0034384
0.00761667
-0.0023681
-0.00868696
-0.00215009
-0.00733664
0.000227718
0.00115418
-0.00375018
0.00227468
0.000321329
-0.00187421
0.00134328
0.000387889
0.000180484
0.000163738
0.000114716
-0.000458937
-0.00194219
0.00415487
-0.00418709
0.00147348
-0.0022986
0.000783113
4.20132e-05
0.00450946
-0.000195783
-0.000222938
-0.00409074
0.00150932
4.42488e-05
-0.000853615
-0.00574649
-0.0100923
0.0186397
-0.0028009
-0.000130346
0.000389714
0.000586099
-0.000845467
0.000772531
8.62238e-05
-6.61741e-05
-0.000792581
-0.00748469
-0.0117975
0.00356101
0.00131887
-0.00220826
-0.00215267
0.00192027
0.00363039
0.000975426
-0.00185456
-0.000184529
-0.000449753
0.000306692
0.000327591
-0.00808976
-0.000207129
0.00519027
-0.00510473
-0.000801448
0.00195509
0.00395109
-0.000744943
0.00191199
-0.00133182
0.00508514
0.00233659
0.000407377
-0.00389497
0.00521286
-0.00172526
0.00577392
0.00402042
0.00211649
0.0133035
0.00337304
-0.000637364
-0.00376332
0.0220499
0.000796083
0.00066437
0.000356427
-0.00181688
0.0123014
-0.00927805
-0.00674084
0.00371754
0.001425
-0.000154265
0.00351127
-0.004782
-0.000866205
-0.00029066
0.00171303
-0.000556163
0.000220775
0.00349665
0.00172063
-0.00543806
-0.000312682
0.000612782
-0.0003001
8.37365e-05
-0.00430853
-0.000196421
0.00442122
-0.0010549
0.00102134
0.0011514
-0.0091218
0.0101419
-0.0106552
0.00963507
-0.00968965
0.00159779
0.00234048
0.00575138
-0.00447054
-0.0142333
0.0027478
0.015956
-0.0013545
-0.000816059
0.0147082
-0.0125377
0.00074096
-0.000184352
-0.000598594
0.000159004
-0.00132279
-0.0026486
0.00381238
0.00129853
0.000789768
-0.0021698
0.0162328
-0.0181278
-0.00524008
0.0071351
-0.00513048
-0.0028294
0.00441054
0.00354934
-0.00277431
0.0366611
0.00268906
-0.000189232
0.00255457
-0.0050544
-0.00233237
0.00443329
-0.000796223
0.00108165
-0.00403025
0.00470109
-0.0017525
-0.00399356
0.000119092
0.00181661
0.00205785
0.000354922
0.00362297
-0.00163515
-0.00234274
0.00338213
-0.00123959
-0.00271835
0.00330117
0.00508813
-0.00608859
-0.00230071
-0.0027253
0.00227489
0.0012256
-0.000775187
0.00150597
-0.000737358
-0.00306489
0.00229627
-0.00375503
0.000866928
0.000526671
0.00236143
0.000957046
-0.00062976
-0.00111525
-0.000704239
0.000399263
-0.000496806
0.000801782
-0.00455947
-0.00197125
0.00662625
-9.55298e-05
0.00196898
-0.000525647
0.00320255
-0.00315955
0.000299313
-0.000317962
0.0031782
0.00100952
0.0184321
-0.0199457
-0.00133879
-0.000661458
-8.09037e-05
0.00208116
-0.00332654
0.000649623
0.000769179
0.00190774
-0.00390019
0.00246706
0.00190528
-0.000472156
-0.00378792
0.00229463
-0.00349385
0.00498714
0.00054742
-0.000811402
-0.00191549
0.00217947
-0.00018194
0.00155652
0.00385671
-0.00523128
0.00614983
-0.00300728
0.0014326
-0.00457515
-0.00191647
0.00576187
-0.00306773
-0.000777674
0.00863132
-0.00332205
-0.00424627
-0.001063
-0.00234321
-0.000298925
6.62316e-05
0.00128529
-0.00208855
0.00184571
-0.00104245
-9.78883e-05
0.000371507
-0.000499861
0.000226243
0.000651825
0.000373362
-0.00126787
0.000242684
-0.00257219
0.00264847
0.0233621
-0.0234383
0.000577436
-0.000222358
-0.000883949
0.000528871
-0.00518992
-0.00227449
0.00501521
0.0024492
0.0242428
-0.0131386
-0.000717327
-0.0103869
-9.93237e-05
-0.00118875
0.00128807
0.000272677
-0.00228962
0.000744179
0.00127276
0.000355964
0.000423867
-0.000779831
-0.00123795
0.00350027
-0.00151057
-0.000751753
-0.00517248
0.00089345
-0.000551649
-0.000384652
0.00149766
0.000496322
-0.000620667
0.0043811
0.000232989
-0.00275943
-0.00185465
-0.00208498
0.000394461
-0.000609958
0.00230048
-0.00125941
-0.00198498
0.00112987
-0.000943143
0.000661639
0.000281504
0.0027923
-0.00334374
-0.000190264
0.000741698
0.00035308
-0.00193595
0.00355184
-0.000880679
0.00187277
0.00226135
0.00242497
0.000891819
-0.00391544
-8.99936e-05
0.0099148
-0.00096819
-0.00196924
0.00245571
0.00181054
-0.00229701
0.00135587
-0.00165514
-0.000154427
0.000453703
-0.00317141
-0.00117766
0.00193864
0.00241043
0.00109106
-0.000325644
0.00147006
-0.000177116
0.000335756
-0.000894947
0.000736307
0.0025389
-0.00531044
0.00564719
-0.00111324
0.000388349
-0.000187429
0.000912318
-0.00214126
-8.01856e-05
-0.00127529
0.00257749
-0.00106848
-0.00274696
0.00287009
-0.000544105
-0.00363783
0.00131184
0.00117921
-0.000545282
0.00280516
-0.00343908
0.000197189
-7.37096e-05
-5.90822e-05
-6.43976e-05
0.000202262
0.000107436
-0.000309698
0.000103913
-0.000241571
0.0006868
-0.000549141
0.00407314
-0.00339308
0.00279298
-0.00347304
-0.00346363
0.00102597
0.00191201
0.000229812
-0.00231803
0.00191305
-0.000120051
0.000696092
1.89547e-05
-0.00057567
0.00154958
0.000171525
-8.70798e-05
-5.02587e-05
-9.60509e-05
-0.00117707
0.000430629
-0.00108682
0.00183327
-0.00293406
0.000406049
0.00341156
-0.000698053
-0.000311687
-3.08059e-05
0.00104055
-0.00293207
0.0013481
-0.00377098
0.00714553
-0.002603
-0.00077154
0.00696918
-0.00163556
-0.000258869
-0.000525284
0.000784153
-0.00959971
0.0106905
0.00894061
-0.00414614
-0.00885151
0.00405704
0.00125463
-0.000432928
-0.000802301
-1.94015e-05
0.0019646
-0.0011773
-0.000810186
0.00338099
0.00344333
0.000424478
-0.00724881
-0.000809059
-5.04489e-05
0.000739457
-0.000361669
0.00049893
-0.0016173
-0.0033833
-0.00201958
0.00251799
-0.000638698
0.00401792
-0.00967441
-0.0036126
0.0092691
-0.000422334
0.000269826
0.000367521
-0.000203626
9.31754e-05
-0.00101152
8.75189e-05
0.000194088
0.000729917
-0.00432993
-0.000596491
-0.000637384
0.0055638
0.00611527
0.00945999
-0.00205109
-0.00177107
-0.000312555
0.00413471
0.000206828
0.00267573
-0.00248193
0.00215576
-0.00200714
0.00185077
-0.00752777
0.00484386
-0.0200131
0.022697
0.0242699
-0.00352727
0.0237934
-0.0439291
-0.00219102
-0.00105794
-0.00102637
0.000443869
0.00164044
0.0168078
0.0285738
-0.011582
0.00456804
0.0177386
-0.0107247
-0.0202535
0.00649149
-0.00389783
0.0176598
-0.00107876
-0.00162218
-0.000349774
0.00305072
-0.00560584
0.017223
-0.0231991
0.00416518
-0.00697683
0.00348297
-0.0110144
0.00609962
0.00100849
-0.00245102
0.004425
0.00177383
0.00124891
-0.0022316
-0.000791151
0.00103428
-0.000113589
-0.000657007
-0.000263684
-0.000694542
0.00156443
-0.00111376
-0.00487155
-0.00282984
0.00572002
0.00198137
9.09492e-05
3.8943e-05
-0.000360955
0.0041676
-0.00384559
-0.00350027
-0.00152721
7.44169e-06
-0.00500765
-0.00595315
0.00941156
0.00154924
-0.007059
-0.010359
0.00249797
-0.00281927
-0.00958818
0.0087683
0.00363915
0.0147213
-0.0122508
0.00245558
-0.00344962
0.00705096
-0.00286226
-0.000739079
-0.0020702
0.00190109
-0.00263102
0.00335767
-9.88187e-05
0.000156503
-0.00341536
-0.00329301
0.00112491
9.78946e-05
0.000172444
0.00390163
-0.00392463
-0.0024198
-0.00236189
0.00060388
0.00417781
-0.00176333
-0.000670241
-0.00179683
0.00423041
0.00490027
0.0122271
-0.00122855
-0.0158988
0.00767829
0.00188458
-0.0116973
0.00213442
0.0166958
0.00199329
-0.00791199
-0.00402281
0.0120146
-7.97849e-05
-0.00230174
0.000330972
-0.00132224
-0.00276866
0.00113738
0.00123502
-7.27621e-05
-0.000449218
0.00125214
-0.000730158
-0.000330719
0.000991441
-0.00044328
-0.000217441
-0.000396536
0.000739602
0.000472125
0.00308458
-0.000743924
-0.00328385
0.000943193
0.00319512
-2.68069e-05
0.00239031
-0.00316777
3.35386e-05
0.00136329
-0.00111424
-0.000232246
0.00413157
-0.00184282
-0.0020565
0.0017524
0.00145483
0.00109489
0.000358143
-0.000130513
-0.00295293
0.00322694
0.000490216
-0.00188552
-0.00183163
-0.000130721
0.00370777
-0.00130215
0.00118984
0.00305035
-0.000694085
0.00332088
0.000303437
-0.00293024
0.000728831
0.00233347
-0.000445548
0.00101676
-0.00245973
-0.00121717
0.00266014
-0.00264764
0.0029655
-0.00170391
0.00138604
0.00655317
-0.0067346
-0.00131569
0.00149712
0.00079053
0.00196061
0.00380203
0.00246666
0.00130672
-0.000456406
-0.00331697
0.00159183
0.00264604
-0.00177121
0.000930349
0.000295389
-0.00190291
0.000677173
-0.00173354
-0.000119462
0.00274083
-0.000887823
-0.000239311
-0.00212194
0.000627708
-0.0016238
-0.0010457
0.00255004
-0.00234918
0.000486065
0.000928818
-0.00113425
-0.00378812
-0.0015475
-0.000256923
0.00126088
0.000543545
0.00303768
5.95369e-05
-0.0021684
0.000120734
-0.00152047
0.00285793
-0.00145819
-0.00273277
0.00142914
0.000484916
0.000818712
0.000460105
-0.000402043
8.87146e-05
-0.000146776
8.94109e-05
-0.000130615
-0.000492345
-0.000561425
0.000164604
0.000889166
0.0010227
1.85851e-05
-0.000200668
-0.000840615
0.000201731
0.00107068
-0.000249714
0.00100358
0.000522578
-0.000189023
-0.00133713
-0.000971841
-0.00101302
0.00176083
0.000224036
0.00025952
-0.00156274
0.00268173
-0.00137851
-0.00198459
0.00202665
0.000769861
-0.000811919
-0.00251441
0.00105228
0.000601441
0.000860686
-0.0222261
0.0073208
-0.0018362
0.000436817
-0.00166805
3.71915e-05
-0.000929662
0.000493736
0.000398735
0.000145678
-0.000576487
0.000784117
-0.000353307
0.000580127
-0.000980555
0.000907177
-0.000506748
0.000533628
0.000441874
-0.000472546
-0.000502956
0.000321484
2.76148e-05
0.00074696
-0.00256447
-0.000832535
0.00265004
0.0030041
-0.000738927
-0.00151821
0.00435678
-0.0059973
-0.00344522
0.00508573
0.0064632
-0.00501921
0.0165026
-0.000184225
-0.0165844
0.000266048
0.00150235
0.00586664
-0.000905792
-0.0112233
-0.00220004
0.0132083
0.00230717
0.00841653
-0.00841664
0.00288643
0.016494
-0.00967557
-0.00970488
0.00368082
0.0041704
0.00363342
-0.000485037
-0.0142081
0.0113247
0.00336841
0.0305671
-0.00447196
0.0126507
-0.016956
0.0125515
0.00391944
-0.00419398
-0.00999676
-1.73335e-05
0.00362129
-0.00430314
-0.0162741
-0.0118863
-0.00292541
0.00358843
-0.00194829
-0.00499447
-0.00107741
0.00802018
-0.00945727
-0.00437737
0.00112224
0.0213739
-0.0300239
0.00281668
-0.000175499
-0.00357982
0.00324968
0.000220571
-0.000653568
0.00102137
0.00229368
-0.00233636
-0.000978694
-0.00187362
0.00196825
-0.00068592
0.000591285
-0.00129646
-0.00109721
-0.00240786
-0.00112628
0.00305755
0.000476587
0.0020289
0.00194849
-0.0034403
0.000701772
-0.000546491
-0.00345259
0.0013644
0.00237979
-0.000291605
-0.000946432
0.00083695
-0.00125696
0.00136644
0.00353348
-0.00290981
-0.000913514
-0.0031121
0.00236753
-0.000247434
0.000992007
-0.000369507
-0.00238185
0.000387309
0.00236405
-0.00469358
0.00114029
-0.000929499
-0.00110597
-0.00214543
0.000139303
0.00261194
-0.00322659
0.00286334
-0.00224869
0.000714304
0.00168858
0.00020905
-0.00112055
-0.000139755
0.000508171
0.00075213
0.00239796
1.1209e-05
-0.000266376
-0.00214279
0.000966334
0.00109033
0.000103428
-0.00216009
-0.00111286
-0.00269485
0.00229257
0.00151514
0.00117848
-0.00136788
-0.000862151
0.00105155
0.000293018
0.000615531
0.000269931
0.00238393
0.000499678
-0.00215678
4.964e-05
0.000777957
-0.000791577
-3.60203e-05
-0.000342833
-0.000629725
0.00030111
0.000671447
-0.000527456
-0.0003385
0.000476107
0.000389849
-2.00814e-06
-0.000335176
-0.000190272
0.000526645
-0.000909751
0.00067137
-0.00390306
-0.00207065
0.00400134
0.00197237
-0.00017759
-2.35487e-05
0.000982422
-0.000781284
-0.00110662
-0.000319082
0.00124811
0.00113533
-0.000702744
0.000710568
-0.00114316
0.0013666
-3.04066e-06
-0.000228222
0.0147153
-0.00102833
0.00254575
-0.00203722
0.0180875
-0.00611785
-0.00322927
0.00281363
-0.00312903
0.00438853
0.00148166
-0.0019983
0.00180213
-0.00128549
0.00391137
0.000383918
-0.000308026
0.000831203
0.00253498
-0.00305816
0.000546373
0.00178531
-0.00263971
-0.000112612
-0.00218521
-0.00156454
0.000241351
-0.000853488
0.00105715
-0.000445018
-0.000248514
-0.000601927
0.000195844
0.000654597
0.000725792
0.00028174
-0.000427405
0.000157895
-0.000308165
0.000832454
-0.000682184
-0.00054359
-0.000195614
-0.000505485
-5.12033e-05
0.0018931
0.000542037
-0.00192227
-0.00206113
-0.000375325
0.00435872
-0.00134052
-0.000585707
0.00014574
-0.00120602
-0.00195585
0.000119844
0.000342868
-0.00059961
-0.00085306
-0.00271729
0.00222982
0.000220849
-0.000568046
0.000217058
0.000130138
-0.000995591
0.00125842
0.000566935
-0.00082976
0.000407576
-0.00151287
0.00122513
-0.00025904
0.00238788
0.000724538
0.00209699
-0.00178002
-0.00107109
0.00075412
-0.00328671
-0.000761016
0.000373602
0.00367412
0.00110759
-0.000795189
0.000271435
-0.000583833
-0.00470893
0.000717682
0.000922225
0.000972484
-0.000635183
-0.00125953
-0.000200907
0.000695937
-0.00425006
0.000538063
-0.000222393
0.000344526
-0.000660196
0.000748754
0.00226659
-0.00198736
-0.00102799
-0.000544076
0.00103514
8.63738e-05
5.07286e-05
-0.000750133
-0.000128353
0.000827758
0.000799188
0.000395895
-0.000999264
-0.000195819
0.000145177
-0.000152987
6.52189e-05
-0.00274431
-0.00278935
0.0033104
0.0061528
-0.00751265
0.00580975
-0.00444991
9.62815e-05
-0.00076537
0.000420575
-0.000932776
0.00144821
-0.000123234
-0.000392203
0.000256166
8.25332e-05
-0.0013936
-8.21034e-05
-0.000230386
-0.000548894
0.000861383
0.00541183
0.000218282
0.00220263
0.00145218
0.000582641
-0.000139781
0.000318482
-0.000761342
0.00142623
0.00148921
0.000689883
-0.00360532
-0.000200471
6.92153e-05
-1.3913e-05
0.000145169
-0.00258516
-0.000495367
-0.000908979
-0.00231548
-0.00100518
-0.00362394
-0.000477372
0.00384238
0.000258928
0.00545351
-0.000442444
-0.00118835
-0.00282629
0.00417364
0.00145292
-0.000433415
-0.000300509
0.00155656
-0.00217136
0.0007956
0.000630612
0.000300677
0.00129103
-0.000796108
-0.00571294
-5.73591e-05
0.00681937
-0.00104908
0.00294341
-0.00408366
3.4286e-05
-0.00154014
-0.0068925
0.0027197
0.000989747
0.00168476
-0.000131652
-0.00254285
-4.63639e-05
5.79367e-05
-0.000197985
0.000186412
0.000342807
-0.00141539
0.00115029
-7.77015e-05
0.000204067
-0.000434315
-7.07317e-05
0.00030098
-0.0173861
0.0117458
-0.00814406
-0.000207195
-0.00847975
0.00387131
0.0203986
0.00178056
-0.0203625
0.0175536
-0.00798846
0.021462
0.0111187
-0.0118205
0.0148907
0.00428359
-0.0122948
0.00634225
0.00166892
-0.000299667
-0.000752076
-0.000899887
-0.00711754
-0.00366028
0.00801991
0.000289228
-0.00141313
0.00103748
8.64157e-05
0.00708863
-0.00901005
0.0142655
-0.0141435
-0.00562641
-0.0112141
-0.0232218
-0.000390699
-0.00198653
-0.000909483
-0.00195074
0.00209923
0.00101047
-0.00115896
-0.00461437
-0.00121241
0.00481792
0.0169392
0.00641136
-0.00938231
-0.0139683
-0.0183171
0.00892965
-0.00046475
-0.000915139
0.00107554
0.000304344
-0.00195645
0.000724546
-0.00106548
0.00229738
-0.00105504
-0.000720182
-0.00121061
-0.00210946
0.00516209
-0.00209368
0.00112469
0.00239522
-0.00475174
0.00146955
0.00384315
-0.000560953
0.000594627
0.00168613
0.000235308
0.000962412
0.000241992
0.00046024
0.000485663
1.32548e-05
-0.000959158
-0.000279455
2.71297e-05
0.000152858
9.9467e-05
0.00210109
-0.00148603
0.00111397
-0.00172904
0.00127928
-0.00352036
0.00187549
0.000365591
-0.00669451
0.00395974
0.00554922
-0.000554696
-0.000338628
-0.000232775
0.00116081
-0.000565264
0.000540533
8.52105e-05
0.00210797
-0.0022097
-0.00303207
0.0031338
-0.000447649
-0.00225814
0.00244083
0.000264953
2.84428e-05
-4.81644e-05
0.000553793
-0.000534072
0.000223403
-0.00108778
0.00643929
0.00416475
0.00343583
-0.0024808
-0.0011955
0.00121462
-0.000686475
-0.0024346
0.00190645
0.00211105
0.000498547
-0.00124431
-0.00136529
0.00338337
-0.00268291
-0.00413225
0.00343179
-0.000623984
-0.00203245
0.00040975
0.000745245
-0.0019836
-0.00144498
0.002649
-0.000849097
0.0232427
-0.00423652
0.00247795
0.000115618
-3.09789e-05
-0.00256259
0.00348808
0.000202474
-0.00523069
-0.000696275
0.000835417
0.00378959
-0.00392873
-0.0041228
0.00162712
0.000146714
-0.000882058
0.00132739
-0.000592046
0.00234013
-0.00162653
-0.00268284
-0.0014768
-0.000563568
0.0024222
0.000750448
0.00144691
2.78613e-05
-0.00222522
-0.0161129
-0.0113355
-0.00441604
0.00316122
-3.10746e-05
-0.00260765
-0.000522503
0.0299445
-0.00215177
0.0074161
0.0145748
0.0201547
-0.0227269
-0.000320629
-2.57017e-05
0.000217379
0.000128952
0.00441564
-0.00161057
-0.00179658
6.58093e-05
-0.000257971
-0.0022303
-0.000345936
-1.26072e-05
-0.000966633
0.00132518
-0.000139538
-0.000737813
0.00021998
0.000931221
-0.0100662
0.0214255
0.0277948
-0.0129436
-0.000176973
-0.000238533
0.000237714
0.000177792
0.00108398
-0.00114852
0.000122699
-5.81571e-05
7.29359e-05
-0.000457471
0.00141804
-0.0010335
0.000273727
0.00014764
-0.000630802
0.000234739
-0.000156883
-0.000442671
0.000672491
-0.00806188
0.00435174
-0.000110471
0.000511476
0.000226201
-0.000627206
-0.00754211
0.00439218
-0.00719739
0.0145925
-0.00256537
-0.000571971
-0.0114552
-0.00409794
0.00612127
-0.00139123
-0.0010513
0.000841481
0.00117123
-0.000961407
-0.00137959
0.00262257
1.37707e-05
-0.00125675
0.00111086
-0.00344323
0.0128109
-0.0208799
-0.0195919
-0.00392673
0.00297361
0.000351809
0.00296447
0.00644722
0.00204843
-0.000133866
0.0149364
-0.00373022
-0.00205476
-7.80477e-05
0.0019319
0.000281368
1.11298e-05
0.00207602
-0.00236852
-0.000478613
-0.000363794
-5.95825e-05
0.00090199
-0.001586
-0.00189643
-0.00252833
0.00263075
-0.00115746
0.00562451
-0.00773366
-0.00223284
-0.00102009
0.00109669
0.00215623
-0.00475959
0.00252798
0.000323751
-0.00140179
0.000193938
0.000884102
0.000901017
-0.0134678
0.000251275
0.0016638
0.0017479
-0.00162639
-0.00257406
-0.000643719
0.00261375
0.000604028
0.00738609
-0.00796606
-0.00152948
-0.0021155
-0.000727119
0.00115945
0.000433551
-0.00409516
3.76722e-05
0.00266964
-0.00638408
0.00428835
-0.000573905
-0.0216613
0.00816876
0.0229107
-0.00741969
-0.00108016
0.00107407
0.000329847
0.00116282
0.000208555
-0.000973308
-0.000398065
0.000124756
0.000829724
0.000208339
0.000439768