/*--------------------------------*- C++ -*----------------------------------*\
| =========                 |                                                 |
| \\      /  F ield         | OpenFOAM: The Open Source CFD Toolbox           |
|  \\    /   O peration     | Version:  2506                                  |
|   \\  /    A nd           | Website:  www.openfoam.com                      |
|    \\/     M anipulation  |                                                 |
\*---------------------------------------------------------------------------*/
FoamFile
{
    version     2.0;
    format      ascii;
    arch        "LSB;label=32;scalar=64";
    class       volScalarField;
    location    "0.01535";
    object      k;
}
// * * * * * * * * * * * * * * * * * * * * * * * * * * * * * * * * * * * * * //

dimensions      [0 2 -2 0 0 0 0];

internalField   nonuniform List<scalar> 
3927
(
0.358654
0.400998
0.842176
0.504176
0.365886
0.763392
0.669186
0.381219
0.377434
0.401327
0.377151
0.368105
0.377327
0.460812
0.367044
0.658411
0.386278
0.379642
0.392121
0.676344
0.529515
0.632976
0.510896
0.447526
0.380052
0.375249
0.368458
0.37129
0.679736
0.405493
0.404172
0.369505
0.397222
0.373212
0.386566
0.377206
0.414225
0.38086
0.458778
0.383868
0.382483
0.540736
0.387819
0.411631
0.385079
0.538527
0.408516
0.550511
0.381511
0.382681
0.374086
0.46863
0.537381
0.364778
0.369699
0.373127
0.411541
0.477934
0.376422
0.392009
0.510248
0.375021
0.429925
0.380528
0.374483
0.377447
0.378287
0.387311
0.46346
0.633356
0.370708
0.386599
0.602831
0.440507
0.5342
0.494411
0.477655
0.418476
0.413299
0.408363
0.366779
0.638055
0.383371
0.382147
0.416787
0.375524
0.362017
0.665437
0.781658
0.563135
0.69556
0.502879
0.365197
0.375813
0.376024
0.588857
0.785254
0.381326
0.373152
0.502864
0.462438
0.944922
0.41342
0.813765
0.396199
0.382613
0.367676
0.398127
0.394788
0.378421
0.369322
0.664593
0.438429
0.363044
0.521245
0.733914
0.375899
0.38089
0.440919
0.374918
0.401445
0.374939
0.378429
0.682144
0.381101
0.387815
0.379422
0.37581
0.376474
0.366398
0.368231
0.632346
0.698035
0.733215
0.725747
0.441197
0.407099
0.458766
0.700428
0.396727
0.741428
0.774871
0.394785
0.421574
0.372994
0.813605
0.771031
0.759825
0.389244
0.398282
0.377315
0.381953
0.376685
0.380145
0.409419
0.365799
0.74832
0.402703
0.384503
0.377957
0.405896
0.374674
0.394153
0.373606
0.5457
0.483823
0.535189
0.66817
0.442811
0.623696
0.409904
0.846996
0.702257
0.794107
0.493467
0.594102
0.701722
0.660961
0.676313
0.430333
0.366318
0.586433
0.39973
0.803243
0.545483
0.415089
0.393143
0.663613
0.524515
0.398212
0.394939
0.464951
0.645858
0.379581
0.379369
0.590253
0.390146
0.786251
0.684584
0.38292
0.442623
0.45914
0.369558
0.453732
0.507881
0.497998
0.408194
0.767224
0.377827
0.382629
0.427266
0.609475
0.515052
0.764976
0.43882
0.430836
0.490747
0.654033
0.483596
0.442483
0.638443
0.428389
0.470829
0.30245
0.689642
0.773993
0.461582
0.527614
0.448549
0.37489
0.388477
0.378047
0.387615
0.387615
0.38611
0.392197
0.557157
0.370321
0.369691
0.443473
0.39171
0.548494
0.69447
0.571993
0.389075
0.696299
0.374198
0.449675
0.371542
0.380628
0.562084
0.402631
0.379063
0.368689
0.370325
0.391607
0.394767
0.455017
0.424798
0.427379
0.383338
0.489649
0.388303
0.461104
0.431918
0.485291
0.608937
0.583673
0.540318
0.378656
0.535223
0.573878
0.388968
0.386229
0.381965
0.446434
0.391408
0.371051
0.406782
0.391918
0.641741
0.407983
0.389276
0.555684
0.441843
0.519401
0.438249
0.695292
0.602971
0.406221
0.683826
0.583873
0.413834
0.392537
0.392198
0.4052
0.587442
0.665058
0.534047
0.638421
0.42974
0.581625
0.571466
0.439292
0.405528
0.420411
0.466151
0.46232
0.674341
0.40274
0.40687
0.568287
0.42071
0.40698
0.36837
0.418564
0.574423
0.40537
0.369865
0.436473
0.551059
0.780265
0.405353
0.45688
0.444746
0.376531
0.468816
0.436097
0.567379
0.41699
0.45297
0.383185
0.768331
0.622479
0.632642
0.374724
0.630674
0.552139
0.361548
0.386847
0.691438
0.40106
0.603947
0.485534
0.374576
0.418703
0.409996
0.462089
0.555712
0.552257
0.411682
0.437355
0.953955
0.624095
0.413194
0.443936
0.374727
0.631355
0.710173
0.390995
0.453547
0.547316
0.519199
0.395536
0.469809
0.490964
0.406752
0.564789
0.829967
0.712295
0.608236
0.439788
0.377231
0.495234
0.397714
0.412398
0.432155
0.424074
0.589635
0.663397
0.446019
0.559752
0.761725
0.463844
0.410991
0.433247
0.449574
0.411694
0.372837
0.613972
0.451271
0.575285
0.435614
0.523182
0.643239
0.407314
0.650636
0.400432
0.449121
0.757928
0.502997
0.606473
0.651493
0.443351
0.551732
0.395199
0.553048
0.372317
0.434256
0.772837
0.448877
0.417453
0.369727
0.468543
0.370164
0.362296
0.854682
0.564157
0.681917
0.401853
0.535604
0.364606
0.462361
0.447626
0.376191
0.452626
0.573693
0.476543
0.415366
0.703048
0.496608
0.468855
0.543547
0.481778
0.466217
0.513418
0.598766
0.436353
0.376019
0.49376
0.378194
0.386397
0.66042
0.755246
0.382205
0.652079
0.380206
0.472169
0.39584
0.397206
0.633162
0.395455
0.480914
0.665746
0.518124
0.462092
0.401007
0.586871
0.408772
0.486051
0.634885
0.424014
0.597373
0.381087
0.599392
0.505977
0.414322
0.738063
0.80968
0.548726
0.599763
0.442261
0.759705
0.414171
0.531721
0.669832
0.629696
0.403147
0.398922
0.382147
0.381522
0.388044
0.371946
0.389421
0.386131
0.379012
0.671548
0.424264
0.493911
0.393458
0.536775
0.374518
0.383465
0.388522
0.415664
0.556143
0.596471
0.485994
0.623463
0.676151
0.494074
0.582221
0.63705
0.6821
0.416982
0.774849
0.639588
0.420816
0.425042
0.4212
0.4791
0.421604
0.476305
0.389638
0.40394
0.437497
0.575021
0.40393
0.38569
0.592535
0.807859
0.600936
0.489689
0.640501
0.399737
0.480207
0.699982
0.378043
0.518475
0.421883
0.415698
0.407576
0.522661
0.426859
0.441649
0.439358
0.385796
0.395723
0.435047
0.455243
0.485503
0.421638
0.515814
0.518169
0.608877
0.470742
0.483906
0.572323
0.519069
0.378337
0.510749
0.603716
0.625811
0.391065
0.378316
0.50419
0.556368
0.520768
0.473993
0.454282
0.676893
0.538519
0.732335
0.575098
0.504778
0.822751
0.788186
0.461168
0.535929
0.570735
0.393457
0.482858
0.365494
0.368862
0.365625
0.362137
0.365605
0.364451
0.372345
0.366802
0.392014
0.381301
0.378131
0.365474
0.364614
0.370832
0.375225
0.62809
0.768128
0.454282
0.379974
0.3955
0.363071
0.421653
0.363056
0.415822
0.414337
0.502312
0.622242
0.494007
0.564615
0.452559
0.614045
0.681005
0.50576
0.511048
0.548609
0.514636
0.519717
0.506117
0.703504
0.645699
0.386068
0.371013
0.366946
0.383403
0.385188
0.386221
0.363761
0.421023
0.491764
0.436798
0.420983
0.424111
0.429708
0.520537
0.501855
0.374347
0.53851
0.567625
0.549088
0.599984
0.631446
0.481771
0.425744
0.449652
0.413336
0.427535
0.420744
0.420681
0.38587
0.382527
0.381706
0.380584
0.389222
0.376795
0.394471
0.390895
0.374056
0.36589
0.462109
0.408086
0.55183
0.372988
0.371209
0.389608
0.526192
0.525688
0.664403
0.824091
0.383954
0.619885
0.492309
0.480157
0.489129
0.495497
0.702511
0.365571
0.393789
0.396453
0.366611
0.368185
0.367466
0.386111
0.377242
0.382671
0.382505
0.371853
0.374253
0.949527
0.915738
0.863108
0.936714
0.671283
0.53763
0.599544
0.533351
0.625102
0.566974
0.45586
0.479143
0.376847
0.399605
0.391429
0.440847
0.499121
0.447284
0.419489
0.422275
0.407291
0.401547
0.409463
0.515937
0.407986
0.433287
0.39245
0.373174
0.403768
0.411282
0.387111
0.375801
0.403688
0.379846
0.370534
0.409446
0.411309
0.395981
0.398616
0.404437
0.395349
0.402014
0.402764
0.381652
0.373885
0.373853
0.783153
0.635468
0.606142
0.815754
0.64705
0.501555
0.545814
0.374819
0.526124
0.473527
0.437604
0.451701
0.497769
0.48431
0.386612
0.488681
0.370765
0.72429
0.712856
0.623781
0.661216
0.599094
0.53955
0.531095
0.383224
0.680082
0.422491
0.914048
0.653509
0.576503
0.445034
0.409296
0.554938
0.504184
0.434277
0.88001
0.47752
0.527347
0.493822
0.434857
0.456096
0.743114
0.430069
0.433288
0.483734
0.628808
0.739757
0.559336
0.681928
0.46235
0.438677
0.408264
0.464982
0.403332
0.41462
0.403187
0.409695
0.570713
0.528541
0.516799
0.447595
0.544629
0.690243
0.741782
0.500029
0.481785
0.499594
0.765617
0.650045
0.408881
0.463253
0.50442
0.478417
0.550821
0.709353
0.787661
0.566241
0.375639
0.646976
0.621026
0.578533
0.930987
0.771519
0.381639
0.694585
0.558104
0.551742
0.621503
0.393701
0.594524
0.609404
0.676872
0.576209
0.427211
0.463056
0.397525
0.383941
0.361144
0.382692
0.392495
0.37522
0.3914
0.374491
0.384019
0.397695
0.669826
0.76173
0.393994
0.708811
0.420049
0.371549
0.414693
0.431122
0.420556
0.439364
0.427492
0.420545
0.777979
0.381212
0.370685
0.419373
0.4365
0.381326
0.679602
0.485557
0.718096
0.361282
0.555812
0.635665
0.534831
0.400137
0.536045
0.3837
0.473245
0.605077
0.563507
0.445082
0.451639
0.434175
0.410592
0.485855
0.422942
0.434294
0.466141
0.449814
0.377243
0.468085
0.785727
0.390559
0.469945
0.415555
0.534281
0.42615
0.473288
0.614663
0.573799
0.408942
0.365933
0.419485
0.386716
0.417532
0.495587
0.655332
0.690753
0.684376
0.514702
0.582403
0.509355
0.767511
0.544865
0.562847
0.376172
0.535255
0.395945
0.382716
0.688964
0.388094
0.370681
0.388213
0.623413
0.525558
0.377572
0.377104
0.461601
0.806446
0.373942
0.545532
0.535851
0.394729
0.413478
0.403626
0.822082
0.66822
0.378464
0.382711
0.423908
0.529965
0.372741
0.387705
0.502437
0.429469
0.398882
0.41357
0.491471
0.44498
0.381593
0.398721
0.371183
0.360556
0.607181
0.374213
0.496714
0.531632
0.669383
0.524421
0.435682
0.479493
0.508211
0.397708
0.370247
0.386286
0.564985
0.525826
0.598271
0.427016
0.608027
0.496434
0.606354
0.451532
0.376049
0.382041
0.372982
0.413556
0.786038
0.372634
0.424973
0.39649
0.399033
0.380622
0.469352
0.57253
0.37677
0.785011
0.370104
0.4108
0.394881
0.389069
0.435893
0.383275
0.434756
0.41957
0.391607
0.36129
0.726035
0.367511
0.808783
0.796813
0.400553
0.398296
0.457731
0.440052
0.513944
0.463573
0.398226
0.362726
0.389135
0.50298
0.479548
0.534613
0.435925
0.675508
0.542767
0.738744
0.648349
0.373911
0.792582
0.82583
0.677996
0.521017
0.382605
0.521811
0.401128
0.665215
0.509621
0.376517
0.451858
0.543814
0.47644
0.424365
0.493993
0.377535
0.471117
0.437262
0.752409
0.511224
0.461881
0.533463
0.398231
0.389788
0.383048
0.50117
0.385866
0.393117
0.604942
0.567466
0.451345
0.501231
0.423459
0.707155
0.417546
0.891224
0.670014
0.502145
0.373621
0.387004
0.384294
0.703158
0.482874
0.873836
0.50368
0.39003
0.849686
0.457206
0.654198
0.746006
0.358469
0.394881
0.402843
0.384339
0.493149
0.755431
0.396955
0.731936
0.495834
0.64241
0.535015
0.592604
0.409249
0.374769
0.514723
0.698441
0.642574
0.416076
0.540864
0.576411
0.386038
0.554322
0.647671
0.561927
0.37312
0.477113
0.679177
0.653374
0.451426
0.419104
0.383916
0.37366
0.789467
0.713599
0.865233
0.398543
0.589268
0.824672
0.388217
0.811101
0.666917
0.650564
0.414172
0.379498
0.37108
0.38621
0.839622
0.745035
0.746602
0.781878
0.484504
0.753491
0.388766
0.416082
0.385983
0.740368
0.956033
0.650621
0.539171
0.895571
0.358716
0.399685
0.396885
0.402291
0.607836
0.411244
0.388536
0.420222
0.486828
0.38224
0.41639
0.35795
0.426228
0.380506
0.497003
0.381201
0.41416
0.690761
0.570274
0.475415
0.675025
0.38123
0.654266
0.402717
0.881969
0.406205
0.364391
0.763166
0.510796
0.632594
0.364946
0.381331
0.607185
0.590901
0.504268
0.516595
0.63684
0.634438
0.509335
0.531029
0.400983
0.389095
0.417095
0.395142
0.425944
0.365707
0.389072
0.395871
0.411607
0.407882
0.39176
0.408422
0.556966
0.558423
0.375237
0.488343
0.497583
0.824884
0.774845
0.622525
0.595911
0.371653
0.646317
0.372788
0.383618
0.372157
0.470335
0.405462
0.391599
0.378874
0.470202
0.551345
0.627536
0.455437
0.414106
0.594768
0.424323
0.411024
0.359618
0.486489
0.413209
0.435592
0.586629
0.480629
0.574774
0.513946
0.636057
0.443917
0.391575
0.77332
0.387571
0.669055
0.403561
0.584952
0.52594
0.438749
0.414377
0.597945
0.758578
0.658773
0.412136
0.428891
0.38066
0.401222
0.381049
0.37185
0.398326
0.406802
0.514453
0.553808
0.627577
0.404401
0.484148
0.441902
0.402787
0.454546
0.405563
0.412329
0.480915
0.492424
0.529361
0.752833
0.534662
0.683192
0.425592
0.703282
0.518282
0.456708
0.645406
0.532745
0.496518
0.375093
0.429523
0.371855
0.372423
0.373646
0.375483
0.37246
0.413465
0.394304
0.564358
0.670094
0.655595
0.639069
0.465443
0.374484
0.603916
0.873256
0.400544
0.379843
0.453086
0.668563
0.476487
0.761812
0.40392
0.386037
0.372603
0.809078
0.489682
0.608286
0.420026
0.40799
0.418786
0.447874
0.456098
0.583389
0.425645
0.547484
0.451764
0.567948
0.372942
0.38083
0.510074
0.385511
0.384739
0.38561
0.380163
0.370791
0.434807
0.363781
0.36933
0.383651
0.455218
0.389659
0.429371
0.364945
0.605646
0.589315
0.587556
0.693236
0.849422
0.377255
0.448443
0.419247
0.433122
0.40941
0.527105
0.570117
0.407675
0.642693
0.700603
0.540438
0.365723
0.452921
0.519768
0.669815
0.607061
0.38823
0.380155
0.372181
0.396409
0.380584
0.375916
0.373452
0.373362
0.366995
0.376661
0.373474
0.385811
0.389523
0.421126
0.375472
0.378679
0.367237
0.41471
0.371662
0.381399
0.372108
0.378781
0.379569
0.369869
0.379421
0.370848
0.381589
0.419586
0.367192
0.379305
0.370685
0.390673
0.375303
0.366708
0.368997
0.366796
0.492177
0.395548
0.365764
0.401954
0.358906
0.377843
0.37275
0.431677
0.434821
0.373867
0.378259
0.362668
0.36597
0.371761
0.384504
0.365883
0.377672
0.691316
0.484818
0.53268
0.378674
0.38481
0.3747
0.382081
0.571683
0.395272
0.698904
0.679833
0.37994
0.385131
0.369434
0.632943
0.367565
0.402429
0.378016
0.403395
0.716449
0.646442
0.367825
0.462685
0.63636
0.668892
0.623366
0.667424
0.535191
0.855468
0.725303
0.577483
0.592071
0.540851
0.411858
0.698096
0.38531
0.79815
0.63305
0.667533
0.655227
0.743582
0.507644
0.850238
0.476834
0.42237
0.575624
0.716881
0.403691
0.615203
0.754726
0.517397
0.382912
0.42982
0.626633
0.640171
0.58066
0.663369
0.629205
0.533381
0.660697
0.660635
0.618754
0.608459
0.551083
0.564116
0.31763
0.695922
0.379004
0.696116
0.377004
0.379669
0.378702
0.635516
0.532971
0.682005
0.772231
0.464145
0.377095
0.370167
0.376351
0.363644
1.07277
0.537404
0.802917
0.871304
0.539408
0.808609
0.70222
0.799094
0.394579
0.381535
0.387822
0.670707
0.790228
0.372691
0.372076
0.600211
0.388263
0.420706
0.400616
0.472668
0.393542
0.547841
0.567256
0.510011
0.392531
0.742493
0.431543
0.499982
0.376833
0.384399
0.36216
0.767912
0.749357
0.74851
0.711623
0.369571
0.774191
0.673803
0.503568
0.823769
0.799419
0.736563
0.548597
0.713693
0.4898
0.563454
0.418954
0.397335
0.473012
0.502301
0.576994
0.438901
0.747196
0.416766
0.418422
0.390867
0.366701
0.365845
0.369086
0.367514
0.365476
0.394198
0.564644
0.514226
0.696708
0.680021
0.4448
0.375951
0.372281
0.367307
0.375466
0.414234
0.368237
0.430344
0.402403
0.366212
0.376403
0.617546
0.523978
0.473877
0.456341
0.486817
0.414204
0.427452
0.676477
0.413007
0.409903
0.440288
0.398167
0.40899
0.365522
0.59414
0.658289
0.367139
0.401504
0.361935
0.361483
0.387687
0.388143
0.384585
0.37519
0.367056
0.412896
0.409332
0.634619
0.375641
0.42253
0.375337
0.380503
0.377029
0.377553
0.371729
0.445153
0.60979
0.42899
0.401821
0.395045
0.468617
0.382685
0.378118
0.428512
0.637318
0.458371
0.454792
0.406618
0.407722
0.472918
0.585402
0.818629
0.41483
0.607621
0.587362
0.400081
0.422754
0.361421
0.683083
0.489411
0.55189
0.403046
0.391776
0.396232
0.712106
0.706206
0.704411
0.370234
0.370068
0.37883
0.599777
0.377911
0.505343
0.398249
0.497429
0.368112
0.539387
0.724138
0.700585
0.673931
0.397723
0.50714
0.580163
0.61608
0.417584
0.412011
0.388513
0.534838
0.411292
0.526786
0.466898
0.388921
0.381489
0.429041
0.388722
0.375981
0.410625
0.609905
0.411734
0.801674
0.699237
0.459444
0.741042
0.501701
0.784348
0.400838
0.425256
0.455032
0.726087
0.387501
0.699585
0.530212
0.44447
0.749801
0.71032
0.467192
0.588739
0.563266
0.766086
0.611678
0.429486
0.699782
0.38424
0.374559
0.660192
0.518514
0.682772
0.598859
0.537707
0.672193
0.84075
0.65578
0.775264
0.536701
0.791226
0.379301
0.402906
0.623578
0.496499
0.467709
0.791913
0.460512
0.359788
0.384311
0.387096
0.637997
0.419491
0.395912
0.427922
0.555899
0.783608
0.808763
0.728322
0.560602
0.398333
0.39047
0.432102
0.811743
0.42283
0.423213
0.360772
0.370209
0.459825
0.584263
0.426389
0.402139
0.804619
0.556763
0.361395
0.801302
0.521924
0.690567
0.463937
0.56137
0.374788
0.448708
0.498267
0.392077
0.359098
0.375252
0.391063
0.362857
0.390078
0.374535
0.474615
0.651796
0.633495
0.635015
0.656029
0.401369
0.373248
0.393005
0.409601
0.373312
0.4207
0.419469
0.670595
0.40136
0.41795
0.449637
0.533457
0.405724
0.408287
0.68045
0.743498
0.620012
0.763884
0.708177
0.647832
0.665883
0.691197
0.623006
0.669722
0.414807
0.963223
0.395678
0.597756
0.398538
0.413163
0.399894
0.374262
0.366204
0.374092
0.37851
0.381376
0.395967
0.591812
0.609683
0.682344
0.854867
0.571874
0.455505
0.449644
0.463684
0.563257
0.429762
0.53192
0.520141
0.569649
0.542124
0.497348
0.374696
0.659834
0.372855
0.380646
0.377205
0.463471
0.767038
0.763932
0.704379
0.4471
0.711356
0.606404
0.367115
0.365688
0.388062
0.705235
0.726618
0.601299
0.362386
0.462276
0.593155
0.449747
0.649052
0.670485
0.778963
0.604876
0.411799
0.394426
0.406571
0.400885
0.480714
0.487938
0.841922
0.410904
0.381316
0.36745
0.394537
0.438258
0.66115
0.670693
0.755928
0.594941
0.381306
0.387633
0.372722
0.431847
0.652932
0.686913
0.392002
0.376344
0.401143
0.369831
0.38223
0.372893
0.369363
0.381166
0.377015
0.383135
0.409633
0.413655
0.389528
0.432811
0.375243
0.390764
0.381133
0.380103
0.369026
0.485222
0.596896
0.652017
0.487452
0.423706
0.406684
0.542781
0.424426
0.473868
0.582352
0.415083
0.457734
0.505946
0.530385
0.541483
0.505499
0.734028
0.692879
0.514207
0.39521
0.379619
0.395744
0.401657
0.43649
0.47382
0.409991
0.469029
0.466026
0.423772
0.385795
0.477721
0.456283
0.416921
0.477108
0.439451
0.58291
0.434572
0.696064
0.790604
0.803478
0.882034
0.662378
0.753926
0.372256
0.379294
0.378533
0.397499
0.375983
0.3737
0.374164
0.42661
0.38204
0.590534
0.452051
0.427906
0.526974
0.632907
0.480551
0.470062
0.43914
0.534142
0.443871
0.632292
0.542153
0.409348
0.479903
0.480838
0.484751
0.4089
0.625216
0.512127
0.474588
0.478318
0.648206
0.371702
0.378003
0.397708
0.372262
0.370109
0.370445
0.371508
0.368965
0.373342
0.374659
0.374803
0.388199
0.38527
0.379977
0.473727
0.376915
0.385861
0.382038
0.420042
0.375838
0.396902
0.624697
0.376056
0.391538
0.363669
0.385968
0.375253
0.540689
0.602689
0.365539
0.385817
0.374692
0.757456
0.380412
0.373866
0.624877
0.39023
0.429305
0.672434
0.398275
0.544358
0.476704
0.439731
0.404763
0.39363
0.389521
0.369466
0.517625
0.403271
0.40715
0.391446
0.524707
0.361054
0.442755
0.406276
0.398588
0.55273
0.374052
0.359499
0.379424
0.386181
0.381363
0.611106
0.407736
0.383248
0.384256
0.39613
0.481487
0.368011
0.372647
0.375712
0.379164
0.396576
0.50178
0.563106
0.763605
0.742996
0.720027
0.751469
0.672296
0.517293
0.748365
0.609988
0.848687
0.871932
0.762682
0.451049
0.608662
0.72534
0.57761
0.508135
0.409444
0.537558
0.849533
0.782411
0.724749
0.568909
0.403428
0.620947
0.466885
0.509093
0.5527
0.796768
0.718656
0.801852
0.494798
0.816416
0.556444
0.611842
0.558433
0.578911
0.695016
0.5065
0.499171
0.497674
0.6965
0.603035
0.414225
0.474821
0.621377
0.750902
0.46161
0.466134
0.447981
0.556815
0.461496
0.918091
0.425115
0.792564
0.770177
0.682401
0.774111
0.748409
0.653659
0.778181
0.464626
0.811364
0.450476
0.461152
0.479775
0.534071
0.77858
0.778842
0.752263
0.719008
0.455539
0.748655
0.736768
0.634909
0.671677
0.785707
0.692271
0.677642
0.587709
0.866695
0.373655
0.386276
0.37681
0.3828
0.375526
0.385112
0.367662
0.58175
0.505764
0.533654
0.403765
0.375174
0.526577
0.387796
0.37306
0.398063
0.371093
0.616369
0.378842
0.373666
0.509339
0.567136
0.774133
0.520722
0.532607
0.478745
0.576624
0.605822
0.625771
0.582621
0.540049
0.583067
0.752768
0.474346
0.591085
0.476134
0.367757
0.368341
0.370792
0.365552
0.580043
0.423228
0.390869
0.671668
0.372405
0.518533
0.467899
0.364958
0.383092
0.366371
0.395879
0.381597
0.691917
0.380778
0.38451
0.527279
0.397173
0.419892
0.419081
0.367082
0.486998
0.375464
0.365122
0.400451
0.401564
0.425231
0.441132
0.434611
0.479046
0.458741
0.420733
0.399765
0.399423
0.456593
0.429365
0.410148
0.545399
0.389963
0.630216
0.601983
0.479188
0.445781
0.499854
0.661582
0.49412
0.460217
0.644051
0.594377
0.497982
0.562308
0.525416
0.484649
0.443032
0.776762
0.572885
0.691527
0.734036
0.76657
0.41899
0.444349
0.437063
0.395919
0.381857
0.699376
0.457442
0.403702
0.726285
0.457118
0.933329
0.454568
0.461256
0.429868
0.504425
0.526764
0.991787
0.599157
0.497201
0.421048
0.68976
0.667013
0.441752
0.507195
0.430459
0.658033
0.669129
0.664749
0.369851
0.607161
0.386719
0.637687
0.605629
0.376459
0.448616
0.391487
0.512267
0.483809
0.800237
0.643908
0.593169
0.424507
0.441446
0.407624
0.441662
0.408432
0.386174
0.36699
0.456551
0.719247
0.624951
0.530196
0.452672
0.419687
0.471186
0.680896
0.432103
0.532434
0.389103
0.390259
0.476218
0.422555
0.389367
0.408596
0.527343
0.616005
0.392496
0.401429
0.755334
0.433655
0.725672
0.628044
0.575062
0.40788
0.407414
0.364997
0.387452
0.707117
0.774709
0.623853
0.679053
0.44055
0.385877
0.371093
0.401188
0.557467
0.485403
0.507536
0.371048
0.382477
0.397316
0.400861
0.626207
0.659118
0.658283
0.677414
0.554311
0.663694
0.671841
0.393313
0.391157
0.3858
0.388398
0.74103
0.387071
0.667916
0.63252
0.761473
0.516856
0.761639
0.56541
0.445972
0.513597
0.39191
0.382858
0.73625
0.52099
0.516493
0.420431
0.43824
0.368268
0.899738
0.389844
0.391065
0.375868
0.605771
0.390819
0.763424
0.556524
0.651966
0.580201
0.460901
0.453561
0.544467
0.877788
0.363369
0.378148
0.361847
0.378306
0.37662
0.57551
0.381768
0.415525
0.843047
0.399397
0.500569
0.439091
0.630538
0.470993
0.431831
0.459283
0.440811
0.458025
0.404706
0.509541
0.762669
0.474986
0.459498
0.653287
0.422048
0.375311
0.383668
0.438533
0.37236
0.37693
0.37779
0.373767
0.429187
0.384938
0.408551
0.398827
0.377497
0.412883
0.863559
0.372398
0.636371
0.408543
0.589988
0.431342
0.405003
0.45938
0.534145
0.440444
0.647734
0.602103
0.702381
0.732275
0.575394
0.426483
0.799101
0.399577
0.424862
0.459521
0.740403
0.481048
0.456572
0.374916
0.7522
0.590539
0.377597
0.483141
0.385254
0.47046
0.414635
0.418156
0.372628
0.378132
0.404234
0.417491
0.761017
0.751174
0.381872
0.487643
0.376844
0.66681
0.600988
0.755919
0.80174
0.584762
0.775727
0.40544
0.379868
0.706586
0.392093
0.386281
0.393466
0.364826
0.463226
0.794811
0.383147
0.372842
0.421783
0.49384
0.442497
0.381425
0.454917
0.370584
0.370398
0.42857
0.447896
0.436799
0.418479
0.370261
0.471575
0.423734
0.474944
0.383831
0.385909
0.456109
0.493763
0.55925
0.702181
0.370465
0.441561
0.477055
0.381139
0.710461
0.519118
0.374029
0.718829
0.513386
0.435598
0.608991
0.558497
0.615574
0.43869
0.366102
0.441234
0.818141
0.404841
0.382842
0.432697
0.487528
0.416729
0.405555
0.782377
0.484879
0.7773
0.372994
0.413977
0.396874
0.39715
0.394819
0.471215
0.784059
0.511132
0.552764
0.458057
0.446532
0.379926
0.436157
0.424084
0.361499
0.379551
0.412597
0.539447
0.445454
0.689777
0.400342
0.525359
0.6376
0.508608
0.477883
0.512357
0.638818
0.365597
0.622876
0.493567
0.457665
0.744281
0.448932
0.694105
0.427605
0.816752
0.546339
0.391166
0.372013
0.705565
0.66902
0.370587
0.475977
0.390034
0.654213
0.686604
0.503954
0.414118
0.369937
0.559285
0.382007
0.450193
0.398258
0.389302
0.398539
0.430452
0.425337
0.599345
0.407709
0.59533
0.47769
0.408653
0.618205
0.423234
0.406845
0.629996
0.435289
0.4812
0.436822
0.396492
0.518009
0.467991
0.503506
0.661664
0.419649
0.838356
0.420196
0.379635
0.704262
0.467564
0.440609
0.506636
0.624615
0.599632
0.593255
0.558435
0.58862
0.392428
0.641159
0.647173
0.553558
0.731885
0.552774
0.567346
0.656624
0.49223
0.479333
0.575803
0.497566
0.664292
0.384235
0.446727
0.734145
0.44204
0.543382
0.679252
0.821348
0.52089
0.394402
0.430814
0.446555
0.381228
0.415868
0.360204
0.364571
0.384693
0.413011
0.365967
0.358091
0.471131
0.504882
0.644165
0.390368
0.368107
0.373755
0.395312
0.737309
0.371345
0.366444
0.371977
0.364503
0.373752
0.366563
0.390342
0.376674
0.448142
0.501426
0.42382
0.656638
0.402723
0.389142
0.531405
0.610403
0.533041
0.502491
0.498534
0.731969
0.439909
0.734293
0.674152
0.385748
0.387955
0.37228
0.407326
0.668093
0.7714
0.754626
0.371329
0.361782
0.387541
0.366054
0.482348
0.474011
0.499125
0.44486
0.492839
0.389811
0.398576
0.390414
0.387878
0.37117
0.367648
0.372374
0.391203
0.383243
0.476051
0.437369
0.496974
0.647632
0.427932
0.465719
0.626446
0.501959
0.489936
0.372504
0.38314
0.382272
0.380237
0.370259
0.640973
0.465091
0.808808
0.394517
0.385059
0.38796
0.368588
0.363035
0.368209
0.361984
0.360661
0.371163
0.385973
0.375225
0.372092
0.376855
0.373217
0.408236
0.418313
0.413369
0.374229
0.666585
0.377888
0.615602
0.526141
0.377065
0.373224
0.378759
0.449674
0.45725
0.583122
0.399479
0.374722
0.372624
0.376259
0.503719
0.47184
0.490836
0.375944
0.410331
0.431062
0.414735
0.465467
0.377225
0.39281
0.374966
0.792355
0.695256
0.640642
0.64516
0.370262
0.371675
0.382768
0.445671
0.454064
0.44383
0.523672
0.598238
0.495922
0.556453
0.472861
0.676893
0.783988
0.785451
0.791518
0.401546
0.376703
0.401662
0.364619
0.382782
0.413311
0.406367
0.388426
0.391559
0.384504
0.376304
0.393203
0.390677
0.574722
0.537917
0.641098
0.404652
0.390442
0.378345
0.378719
0.36029
0.372222
0.381577
0.368785
0.365524
0.358984
0.38687
0.390679
0.361867
0.372054
0.764986
0.59184
0.783346
0.757311
0.821694
0.529714
0.825779
0.968231
0.846823
0.380467
0.390332
0.746436
0.374252
0.372048
0.55837
0.516342
0.395376
0.604658
0.451871
0.48345
0.666249
0.606421
0.650022
0.744015
0.817175
0.966563
0.582621
0.603285
0.475667
0.632652
0.704826
0.681549
0.603378
0.419018
0.3991
0.62583
0.453145
0.646182
0.648878
0.569396
0.541961
0.447701
0.442775
0.85669
0.491621
0.753355
0.586075
0.729934
0.77844
0.951846
0.717523
0.673591
0.668366
0.663869
0.366073
0.366821
0.378618
0.371947
0.373058
0.668837
0.395379
0.373988
0.39362
0.376381
0.390669
0.390244
0.396705
0.393617
0.387452
0.384216
0.420186
0.415199
0.399716
0.404265
0.405426
0.383494
0.415249
0.425644
0.409212
0.423815
0.38373
0.364479
0.371044
0.398202
0.394794
0.489672
0.483669
0.438734
0.39982
0.400019
0.418192
0.551306
0.407409
0.618875
0.371364
0.365572
0.368747
0.385334
0.381569
0.812415
0.733562
0.424634
0.564497
0.414718
0.438162
0.408352
0.63514
0.417596
0.44808
0.445147
0.430725
0.415697
0.50204
0.686616
0.425521
0.510754
0.588507
0.386802
0.38329
0.393477
0.38842
0.397866
0.415098
0.458497
0.377547
0.385807
0.37453
0.372057
0.38518
0.387321
0.394625
0.399333
0.410069
0.378972
0.3684
0.473672
0.577285
0.890148
0.410772
0.390117
0.381035
0.371617
0.394616
0.412971
0.415941
0.425409
0.368553
0.388408
0.383787
0.366764
0.402184
0.391259
0.453714
0.407189
0.47937
0.410362
0.509056
0.580323
0.44765
0.662706
0.373132
0.373896
0.417791
0.375622
0.417576
0.387339
0.360935
0.369077
0.385443
0.394047
0.389732
0.430459
0.398105
0.405095
0.440835
0.479865
0.452579
0.511837
0.404102
0.401096
0.664908
0.445773
0.733095
0.560126
0.437207
0.551223
0.65244
0.434189
0.465935
0.442709
0.609003
0.418743
0.821097
0.966696
0.867448
0.430522
0.512394
0.795127
0.542248
0.666227
0.437442
0.555784
0.594841
0.445043
0.4056
0.735271
0.397519
0.484588
0.40489
0.416197
0.370539
0.717932
0.586926
0.630154
0.842404
0.430813
0.627367
0.731473
0.572959
0.577334
0.458922
0.39288
0.437383
0.413955
0.830237
0.932261
0.785866
0.484373
0.913232
0.742361
0.36286
0.471816
0.362308
0.544667
0.466183
0.381838
0.509913
0.471897
0.363609
0.387856
0.359044
0.548349
0.399486
0.403744
0.399644
0.537287
0.449131
0.416158
0.379693
0.633154
0.46353
0.708143
0.54094
0.386326
0.686857
0.374648
0.529487
0.744478
0.71703
0.805502
0.700975
0.686484
0.736055
0.512189
0.619602
0.387035
0.369083
0.357831
0.426339
0.48741
0.649415
0.524581
0.711006
0.89059
0.526157
0.559665
0.508565
0.705694
0.448044
0.437481
0.470685
0.808536
0.571779
0.369987
0.378653
0.688502
0.507316
0.483601
0.394609
0.47552
0.465389
0.413582
0.38285
0.433592
0.495784
0.368431
0.472201
0.410398
0.40115
0.401935
0.378195
0.453927
0.390326
0.803961
0.379344
0.363439
0.369181
0.696002
0.429815
0.494369
0.525442
0.660585
0.672002
0.437355
0.59052
0.409507
0.489599
0.369859
0.400789
0.490523
0.512411
0.388058
0.49771
0.505061
0.499028
0.381547
0.381125
0.402904
0.374673
0.382753
0.394872
0.402968
0.615757
0.671586
0.453717
0.77763
0.588116
0.700746
0.385475
0.372489
0.3874
0.426112
0.496215
0.467767
0.640311
0.645463
0.597346
0.58005
0.407569
0.56647
0.667393
0.372879
0.875415
0.565339
0.698617
0.399678
0.392165
0.599799
0.367638
0.372353
0.821702
0.378872
0.548781
0.488462
0.39665
0.414285
0.828593
0.78508
0.581584
0.795635
0.368536
0.684724
0.536307
0.660629
0.59476
0.740811
0.634574
0.501932
0.768479
0.374328
0.37862
0.486822
0.647554
0.670064
0.538808
0.40212
0.370412
0.388819
0.397661
0.469941
0.497461
0.439405
0.429406
0.40909
0.374071
0.372583
0.373643
0.722295
0.387457
0.395695
0.393085
0.389015
0.360393
0.36097
0.395398
0.389322
0.39867
0.416559
0.453598
0.39137
0.393506
0.440735
0.405243
0.542459
0.379233
0.566535
0.393378
0.429344
0.423629
0.461305
0.43274
0.550317
0.426598
0.389655
0.51573
0.602151
0.667484
0.440967
0.537787
0.62837
0.411861
0.383499
0.402829
0.39633
0.386595
0.416045
0.400586
0.454843
0.560845
0.56311
0.669536
0.559733
0.607864
0.420591
0.378775
0.516343
0.476565
0.399715
0.427154
0.372208
0.370932
0.372699
0.649509
0.406809
0.380419
0.527908
0.610215
0.636801
0.382416
0.365664
0.369347
0.388508
0.454085
0.396645
0.429922
0.442672
0.457606
0.442662
0.525499
0.466151
0.792675
0.464995
0.369781
0.398314
0.380386
0.38536
0.383748
0.373862
0.50917
0.371712
0.423795
0.640491
0.385751
0.375306
0.385007
0.37323
0.392462
0.367558
0.381691
0.408528
0.406542
0.390281
0.495687
0.425193
0.376662
0.393445
0.389826
0.41618
0.511024
0.455376
0.460388
0.644413
0.469573
0.605741
0.39522
0.440173
0.514934
0.617217
0.895659
0.373446
0.631113
0.617322
0.380424
0.387992
0.371456
0.390923
0.384943
0.370997
0.372717
0.372102
0.38774
0.376546
0.371555
0.361042
0.451902
0.390127
0.909167
0.480291
0.797862
0.673704
0.664626
0.555217
0.691259
0.545325
0.583041
0.63261
0.665464
0.443668
0.689638
0.769033
0.415553
0.39169
0.650858
0.781552
0.840831