/*--------------------------------*- C++ -*----------------------------------*\
| =========                 |                                                 |
| \\      /  F ield         | OpenFOAM: The Open Source CFD Toolbox           |
|  \\    /   O peration     | Version:  2506                                  |
|   \\  /    A nd           | Website:  www.openfoam.com                      |
|    \\/     M anipulation  |                                                 |
\*---------------------------------------------------------------------------*/
FoamFile
{
    version     2.0;
    format      ascii;
    arch        "LSB;label=32;scalar=64";
    class       volScalarField;
    location    "0.0501868";
    object      nut;
}
// * * * * * * * * * * * * * * * * * * * * * * * * * * * * * * * * * * * * * //

dimensions      [0 2 -1 0 0 0 0];

internalField   nonuniform List<scalar> 
3989
(
0.00742779
0.00735808
0.0070619
0.00688798
0.00741259
0.00710602
0.00745927
0.00713703
0.00537814
0.00494475
0.00260977
0.00452181
0.00297683
0.00738491
0.00555578
0.00534106
0.00746319
0.00503163
0.00742827
0.00723401
0.00460469
0.00557485
0.00624114
0.00643869
0.00703503
0.00526303
0.00438936
0.00747143
0.00591717
0.00741793
0.00499243
0.00477148
0.00649055
0.00742416
0.00242556
0.00499814
0.00739003
0.00693619
0.00479152
0.00695284
0.00571283
0.00746962
0.0047427
0.00582731
0.00404635
0.00747113
0.00745938
0.0038316
0.00748891
0.00354756
0.00716085
0.00733138
0.00590031
0.00742027
0.0068743
0.00739655
0.00746105
0.00413159
0.00270505
0.00407112
0.00410605
0.00210441
0.000638442
0.000796966
0.00531784
0.00737543
0.00496191
0.00713634
0.00526924
0.00411941
0.00297255
0.00639663
0.00704375
0.00699492
0.00611316
0.00683011
0.00688828
0.00526862
0.00674429
0.00671587
0.00656273
0.00385742
0.00495942
0.00725264
0.00740587
0.00192609
0.00737795
0.00502329
0.00709292
0.00563162
0.00726956
0.00481608
0.00439945
0.00616937
0.00717501
0.00664914
0.00672042
0.00524376
0.00703687
0.00396714
0.00543763
0.00423024
0.00478988
0.00284693
0.00471348
0.00748961
0.0053628
0.0052313
0.00562933
0.00285363
0.00513705
0.00744278
0.00319142
0.00419323
0.00740285
0.00313831
0.00349444
0.00444867
0.00472301
0.0037204
0.00638056
0.00741181
0.00683812
0.00747838
0.00625493
0.00713185
0.00744564
0.00722034
0.00433298
0.00489338
0.00344934
0.00285127
0.00372521
0.00335463
0.00332832
0.00343349
0.00741588
0.0060541
0.00567864
0.00526897
0.00469527
0.00564632
0.00357793
0.00748589
0.00747323
0.00254852
0.00743062
0.00343486
0.00508235
0.00546169
0.00719383
0.00487205
0.00481545
0.00487124
0.00228291
0.00223662
0.00728331
0.00585853
0.00561463
0.00294508
0.0074237
0.00713028
0.00537286
0.00386736
0.00386354
0.00535963
0.00712452
0.00434297
0.00723605
0.00364831
0.0062538
0.00747052
0.00371655
0.00608626
0.00435676
0.00615955
0.00746068
0.006748
0.00264564
0.00608359
0.00425466
0.00725478
0.00490738
0.0073338
0.00373916
0.00413798
0.00540391
0.00411489
0.00504328
0.00740451
0.00663951
0.00433584
0.00380247
0.00195753
0.00719084
0.00199672
0.000804512
0.00477342
0.00626548
0.00735455
0.00416087
0.00478135
0.00258601
0.00428541
0.00255694
0.00575632
0.00739752
0.0056135
0.00158979
0.00195278
0.00627921
0.00111569
0.00166075
0.00575394
0.00561549
0.00138382
0.00138656
0.00378657
0.00418876
0.00745695
0.00701054
0.00671634
0.00747095
0.0066065
0.00388085
0.00478732
0.00598517
0.00685173
0.00428654
0.00702703
0.00406327
0.00312247
0.0045544
0.00598748
0.00747211
0.00196179
0.00362432
0.00508308
0.00742895
0.00599583
0.00528023
0.00743717
0.00571945
0.00287967
0.00284779
0.00612656
0.00287975
0.00340051
0.00574266
0.00538721
0.00287979
0.00735574
0.00454927
0.00617158
0.00435011
0.00739776
0.00390528
0.00445937
0.00695688
0.00713705
0.00588019
0.00687585
0.0046508
0.00682068
0.00409917
0.00315096
0.00719362
0.00144207
0.00403905
0.00362334
0.0036205
0.00352584
0.00353181
0.00640095
0.00341421
0.00397007
0.00342372
0.00367251
0.0059461
0.00173615
0.00507968
0.00539678
0.00236289
0.00537497
0.00663793
0.0063093
0.00532481
0.00275277
0.00217459
0.00198182
0.00348145
0.00347568
0.00339915
0.00556847
0.00419724
0.00744516
0.00694962
0.00444862
0.000830097
0.00129219
0.00585691
0.00246741
0.00243078
0.0027813
0.00243951
0.00156916
0.00635559
0.00435463
0.00635682
0.00742106
0.00705242
0.00740155
0.00139743
0.000988927
0.00582445
0.00348116
0.00742826
0.00436817
0.00672908
0.00637862
0.00315222
0.00580142
0.00512637
0.00694748
0.00458665
0.00255852
0.00417108
0.00461352
0.00275126
0.00628551
0.00727284
0.00713816
0.00381437
0.00656866
0.00742691
0.00620743
0.00529446
0.00599202
0.0037488
0.00539656
0.00183733
0.00389241
0.00437127
0.00403389
0.00743286
0.00323634
0.000701857
0.0074196
0.00698115
0.00610061
0.00315073
0.00626123
0.00633714
0.00594841
0.00668794
0.00427872
0.00316947
0.00378365
0.000319653
0.005599
0.00490794
0.00326201
0.00715965
0.000382942
0.0013468
0.00417371
0.0044915
0.003517
0.00673169
0.00537601
0.0036847
0.0057964
0.0029271
0.00590258
0.0051015
0.00733139
0.00590371
0.00717415
0.00380094
0.00554051
0.00332801
0.00566124
0.00612316
0.00399656
0.00258783
0.00264106
0.00389424
0.00228271
0.00470102
0.00359492
0.00701096
0.00247703
0.00747156
0.00359091
0.0034624
0.00708065
0.00746573
0.00294604
0.00312901
0.00543141
0.00625594
0.0047724
0.00531584
0.00335261
0.00602588
0.00614536
0.00691916
0.00134804
0.00427425
0.0024812
0.00681813
0.00174278
0.00611857
0.000620151
0.00394736
0.000980402
0.00723247
0.00684327
0.00641492
0.00331831
0.000845791
0.00408678
0.00411246
0.00034789
0.00699735
0.00688115
0.00700858
0.000897654
0.00235345
0.00532682
0.00562115
0.00351789
0.00699703
0.00678459
0.000887794
0.00687242
0.00742851
0.00408226
0.00690292
0.0071286
0.00673955
0.00329173
0.00456323
0.00357689
0.00738482
0.00726691
0.00582679
0.00539845
0.00222589
0.00746897
0.0039302
0.00430054
0.00395561
0.00683543
0.00199926
0.00587855
0.00307552
0.00387738
0.00732265
0.00708038
0.00528394
0.00598238
0.00249599
0.00362786
0.00249278
0.00491412
0.00413127
0.00415969
0.0021262
0.00618954
0.00307372
0.00210239
0.00546768
0.00255741
0.00574429
0.00448112
0.00386764
0.00319586
0.00316023
0.00335992
0.00237557
0.00445573
0.00591807
0.00381068
0.00732437
0.00747666
0.00358805
0.002378
0.00383068
0.00709127
0.00330574
0.00720535
0.0052072
0.00701926
0.00738787
0.00547348
0.00560859
0.00609052
0.00714194
0.00501758
0.00712985
0.00517539
0.00546687
0.00562759
0.00517534
0.00360147
0.00340406
0.0050752
0.00456674
0.00501415
0.0068127
0.00346336
0.00363688
0.00574408
0.0036003
0.00368732
0.00418273
0.00645808
0.0041174
0.00639313
0.00601688
0.00458555
0.00408113
0.00515461
0.00291536
0.00707253
0.00739394
0.00446108
0.00604625
0.00736534
0.00429768
0.00657278
0.00341278
0.00701175
0.00576867
0.00351145
0.00418821
0.00457377
0.00328848
0.00532284
0.00745824
0.00547858
0.00454651
0.00026568
0.00077656
0.00699981
0.00533222
0.00704918
0.00467826
0.00718258
0.00707505
0.00646501
0.00326836
0.00257765
0.00364114
0.00479821
0.00445779
0.00385778
0.00721385
0.00667864
0.00320965
0.00273063
0.00524984
0.00445322
0.00652086
0.00722067
0.00463462
0.00533747
0.00428787
0.00657046
0.00636552
0.00741189
0.00397018
0.000915548
0.00728547
0.00457207
0.00731689
0.00622693
0.00728264
0.00310577
0.00615972
0.00517994
0.00658531
0.00206428
0.004971
0.00713039
0.00479191
0.00590101
0.0073484
0.00717033
0.00580953
0.00727365
0.00685616
0.000475428
0.000631326
0.00311321
0.00749035
0.00493286
0.00447306
0.00415602
0.00690723
0.0072995
0.00576497
0.00569952
0.00683651
0.00747292
0.00662929
0.00691273
0.00480146
0.00749037
0.00446349
0.00363538
0.00748645
0.00741012
0.00555762
0.00669893
0.0043591
0.0041684
0.00662463
0.0031968
0.00451113
0.00682989
0.00507191
0.00501491
0.00724942
0.00330105
0.00701172
0.00701716
0.00739005
0.00409486
0.0074037
0.00744421
0.00744325
0.00720699
0.00748589
0.00744638
0.00748867
0.00517088
0.00744085
0.00742373
0.00493847
0.00748319
0.00580112
0.00742329
0.00740394
0.00610496
0.00744818
0.00747775
0.00325584
0.00704615
0.00482851
0.00595389
0.00530556
0.00664578
0.00379774
0.00744165
0.00746998
0.00723108
0.00431814
0.00533047
0.00475137
0.00352898
0.00554546
0.00728517
0.00636936
0.00566306
0.00453168
0.00632915
0.00268657
0.00685239
0.00708999
0.00738517
0.00265759
0.00502963
0.0069201
0.00558323
0.00312968
0.00433677
0.00261552
0.00626976
0.00495165
0.00736937
0.0073593
0.00728414
0.00733921
0.00725949
0.00674327
0.00433393
0.00597229
0.00519699
0.00626899
0.00701367
0.00733263
0.00408485
0.00562956
0.00692073
0.00465996
0.0074554
0.00486959
0.00622498
0.00234952
0.00730851
0.00242945
0.00737114
0.0052492
0.00395121
0.00602299
0.00311227
0.00649365
0.00380675
0.00747925
0.00316101
0.00714989
0.00726429
0.00744279
0.00274971
0.0065827
0.00585745
0.00278322
0.00678257
0.0031322
0.00553047
0.00415287
0.00431181
0.00494562
0.00438054
0.00663882
0.00748032
0.00723911
0.00683878
0.00317997
0.00692026
0.00698601
0.00682284
0.00727712
0.00727248
0.00470499
0.00370792
0.00724506
0.00630851
0.0071719
0.00701877
0.00390252
0.00491486
0.000716501
0.00706658
0.00465733
0.000776683
0.00502454
0.00408233
0.00361934
0.00407675
0.00508623
0.0056494
0.00061919
0.00041166
0.000356112
0.00567386
0.00699945
0.00661145
0.0072466
0.00712041
0.00668657
0.00747884
0.00746065
0.00748957
0.0059782
0.00482882
0.0032982
0.00742502
0.00740808
0.00460188
0.00640261
0.00337475
0.00602654
0.00244825
0.00732457
0.00637293
0.00385595
0.00742381
0.0071375
0.00515588
0.0074587
0.00589773
0.00422339
0.00723308
0.00575796
0.00517353
0.00563763
0.00544209
0.00632849
0.00653284
0.00533131
0.00466745
0.00730818
0.00735535
0.00510224
0.00734223
0.00334577
0.00719713
0.00444824
0.0045066
0.00457067
0.00447936
0.00674331
0.00716958
0.00713751
0.00701665
0.00481798
0.00485472
0.00601057
0.00597955
0.00738029
0.00746034
0.0044561
0.00150072
0.00134637
0.0018435
0.0013918
0.00738244
0.0049945
0.00456294
0.00518143
0.00664515
0.00293771
0.00211724
0.00362497
0.00717687
0.00587229
0.00445127
0.00629895
0.00306022
0.00681041
0.00623342
0.00530535
0.00725695
0.0053139
0.00622653
0.00737232
0.00554991
0.00724381
0.00698093
0.00109857
0.00183051
0.00716393
0.00703913
0.00550455
0.00341786
0.00561114
0.0066116
0.00678812
0.00696433
0.00187888
0.00389558
0.00388235
0.00583344
0.00745662
0.00582184
0.00614749
0.00362829
0.00482586
0.00619353
0.00726668
0.00741254
0.00395261
0.00585136
0.00731682
0.00032479
0.000787131
0.00726937
0.00724684
0.00107088
0.00364856
0.00219041
0.000744003
0.00728963
0.00400552
0.00645332
0.00216437
0.00389072
0.00706479
0.000919041
0.0070808
0.00689195
0.00116828
0.0021157
0.00702797
0.00499089
0.00487209
0.00405851
0.00347265
0.0060785
0.00574135
0.00584672
0.00364033
0.00369313
0.00684228
0.00255308
0.00389011
0.00577668
0.00141921
0.00704111
0.00125036
0.00618116
0.00637844
0.00136011
0.000746133
0.00102678
0.00160435
0.000424083
0.00101802
0.00391517
0.00490505
0.00526997
0.000680737
0.000593158
0.00727752
0.0019138
0.0028688
0.00037027
0.00181906
0.00145006
0.00725359
0.00512967
0.005339
0.00472704
0.00708629
0.00507022
0.00472829
0.00734704
0.000797458
0.00593231
0.00359
0.00725803
0.00686221
0.00445566
0.00345844
0.00302936
0.00678842
0.00298788
0.000348273
0.00097805
0.00294792
0.00235885
0.00481269
0.00107786
0.00606073
0.00584668
0.00399975
0.00660605
0.00332288
0.00553904
0.0051067
0.003133
0.00183326
0.00473176
0.00380472
0.00399225
0.00403446
0.00596363
0.00698741
0.00592353
0.00389222
0.00721316
0.00740499
0.00712546
0.00743831
0.0048664
0.00339621
0.00748715
0.00610508
0.00483227
0.00680585
0.00747081
0.00748881
0.00177597
0.00742246
0.00747097
0.00741695
0.00595405
0.00612206
0.00737876
0.00742209
0.00603624
0.00476308
0.00365399
0.00476252
0.00632492
0.00741315
0.00603788
0.0069976
0.00525204
0.006942
0.00719895
0.0061384
0.00331478
0.00602474
0.006297
0.00748518
0.00672183
0.00715018
0.00674791
0.00733303
0.0057801
0.00387451
0.00670143
0.00681611
0.0048773
0.00726674
0.00575595
0.00670627
0.00723072
0.00660885
0.00326926
0.00570232
0.00470974
0.00470418
0.00560081
0.00350997
0.00619515
0.00589961
0.00449842
0.00556201
0.00599556
0.00604729
0.00681385
0.00528087
0.00744597
0.00722378
0.00728977
0.00732975
0.00528446
0.00710719
0.00599651
0.00737553
0.00324323
0.00611657
0.0060193
0.00517492
0.00573668
0.00612251
0.00726609
0.00720395
0.00719876
0.00718608
0.00365408
0.00425242
0.00323895
0.00298957
0.0070711
0.0025653
0.00378382
0.00662013
0.00732502
0.00748014
0.00645754
0.00583429
0.00568204
0.00537454
0.00493669
0.00264712
0.00260319
0.0069115
0.00695766
0.00731821
0.00330216
0.00717649
0.00729177
0.00634779
0.00634027
0.00732787
0.00730545
0.00720517
0.00590001
0.00541565
0.00678985
0.00644909
0.00629217
0.00321146
0.00296906
0.00120757
0.00114885
0.00271709
0.00596681
0.00719806
0.00725958
0.00731581
0.00691248
0.00457385
0.00337205
0.0052688
0.00427544
0.00505452
0.00362514
0.00362908
0.00375552
0.0072068
0.00724866
0.00732395
0.00566176
0.00663393
0.00550199
0.00499369
0.000454332
0.00621164
0.00740048
0.00327148
0.00684848
0.00612305
0.00629801
0.00603819
0.00470127
0.00341573
0.00618492
0.00492173
0.00729885
0.00703533
0.00479571
0.00249194
0.00620015
0.00602154
0.00332789
0.000767697
0.00187497
0.00663083
0.00540411
0.00721645
0.00100172
0.000757651
0.00113364
0.00184548
0.00271311
0.00168918
0.00680374
0.00334521
0.00423009
0.00429392
0.00697481
0.00349575
0.00708573
0.00629855
0.00379231
0.00674933
0.00358801
0.00312904
0.00469881
0.00709764
0.00660948
0.0060101
0.00553488
0.00313452
0.00726547
0.0048496
0.0071566
0.00661683
0.00728604
0.00672372
0.00738464
0.00231287
0.00708873
0.00607989
0.00672563
0.00683012
0.00617146
0.00451428
0.00730223
0.00721892
0.00637842
0.00101766
0.00588991
0.00741105
0.00554365
0.00560577
0.00523083
0.00702215
0.00732206
0.00731187
0.00679207
0.00684219
0.00502666
0.0048275
0.00606504
0.0053565
0.00701765
0.00695409
0.00426863
0.00564203
0.00741848
0.00676672
0.00569754
0.00465166
0.00733686
0.00535875
0.00740761
0.0074184
0.00611523
0.00656721
0.00744176
0.00526284
0.00494527
0.00748302
0.00652695
0.00547742
0.00715238
0.00479193
0.00387873
0.00573434
0.00738194
0.00409679
0.0074874
0.00507332
0.00447751
0.00615586
0.00705369
0.00662532
0.00563879
0.00564799
0.00647465
0.00673538
0.00446865
0.00709933
0.00720878
0.00675559
0.0071169
0.00677932
0.0070247
0.00577305
0.0068484
0.00565948
0.00437807
0.00687893
0.00557129
0.00609839
0.00639623
0.0058033
0.00710778
0.0064514
0.00673764
0.00688398
0.00676103
0.00675147
0.00656106
0.00746747
0.00479583
0.00736466
0.00333231
0.0046954
0.00472702
0.00600997
0.00405819
0.0033851
0.00744451
0.00748487
0.0037575
0.0035343
0.00455445
0.00712471
0.00748293
0.0033795
0.00311538
0.00327726
0.00494979
0.0039074
0.00505807
0.0039093
0.00637451
0.00746148
0.0039596
0.00744707
0.00513546
0.00736875
0.00738049
0.00403094
0.00326098
0.0023552
0.00190612
0.00748586
0.00661413
0.00454295
0.00712768
0.00536381
0.00748909
0.00510435
0.00486392
0.00471586
0.00367101
0.00401524
0.00482856
0.00520833
0.00638866
0.00341124
0.00706416
0.00748866
0.00701854
0.00747577
0.0074875
0.00464094
0.00379743
0.00747139
0.00546303
0.00698321
0.00666099
0.00352368
0.00539269
0.00707046
0.004338
0.00405912
0.00379463
0.00620614
0.00719233
0.00563838
0.00577055
0.00522834
0.00467482
0.00675445
0.00710874
0.00638665
0.00682751
0.00430567
0.00626782
0.00474699
0.00365859
0.00518453
0.00660925
0.0071001
0.00745817
0.00325953
0.00370685
0.00354978
0.0041659
0.00740572
0.00441251
0.00365051
0.00412261
0.0044679
0.00739939
0.00590273
0.00443864
0.00689409
0.00748552
0.00400714
0.00581603
0.00232674
0.00300831
0.00328066
0.000855579
0.00361898
0.000897006
0.000768197
0.0074861
0.00567203
0.00573459
0.0064634
0.00511447
0.00715986
0.00516673
0.0070326
0.00607703
0.00636983
0.00346315
0.00741235
0.00691609
0.00740427
0.00739038
0.00344086
0.00475781
0.00739444
0.00743621
0.00740258
0.00746935
0.00748936
0.00697825
0.00242621
0.0071513
0.00676929
0.00724455
0.00741003
0.00624743
0.00742077
0.00747
0.0057196
0.00738405
0.00738111
0.00736714
0.00731282
0.00747882
0.00456569
0.00465888
0.00515912
0.00683341
0.00593009
0.00547001
0.00740915
0.00633169
0.00470705
0.00733584
0.00729414
0.00731214
0.0056583
0.00728824
0.00748857
0.00736885
0.0074841
0.00746128
0.00701763
0.00710731
0.00726212
0.00673177
0.00669471
0.00711581
0.00730614
0.00423019
0.00648695
0.00609142
0.00722445
0.00560423
0.00589484
0.00225903
0.00702358
0.00725947
0.00463904
0.00380208
0.00466314
0.00716005
0.00404976
0.0071012
0.00466912
0.00588688
0.00476531
0.00539713
0.00731803
0.00725159
0.000480291
0.00055199
0.000393478
0.000310198
0.000180915
0.000612216
0.00698776
0.00570019
0.00459125
0.00742303
0.00725583
0.00740099
0.00580279
0.00684009
0.0046696
0.00331549
0.00493301
0.00135472
0.00197913
0.00267413
0.00585488
0.00647855
0.000655598
0.00666085
0.00458307
0.00336416
0.00708723
0.00632907
0.00720838
0.00521042
0.00738897
0.00334634
0.00396089
0.00433013
0.00550587
0.00737026
0.00565125
0.00465151
0.00527837
0.00335672
0.00390918
0.000961127
0.00540862
0.00143123
0.00552138
0.00455872
0.00336101
0.00467179
0.00405948
0.00367052
0.00547224
0.00650917
0.00157857
0.00666179
0.000706513
0.00419101
0.00739091
0.00511404
0.00456479
0.00249942
0.00367489
0.00713649
0.00595462
0.00676989
0.00707743
0.00292885
0.00537492
0.00685448
0.00383761
0.00370968
0.00384704
0.00718865
0.00258133
0.00657606
0.00334728
0.00615563
0.00633163
0.000643666
0.00505115
0.000829079
0.000867345
0.00712901
0.00660572
0.00432579
0.00696934
0.0072779
0.00534417
0.00677807
0.00605217
0.00499087
0.00350122
0.0074305
0.00643153
0.0064442
0.00565062
0.00472119
0.0063576
0.00539872
0.0024996
0.00730289
0.0059574
0.00326211
0.00373042
0.00494373
0.00442669
0.00401363
0.00510633
0.00410317
0.00726863
0.00424905
0.00597949
0.00340805
0.0061656
0.00549917
0.000823626
0.00401582
0.00608898
0.00408113
0.00559953
0.00669547
0.00373722
0.0039454
0.0047066
0.00405365
0.00609679
0.00598881
0.00452143
0.00510267
0.00719059
0.00611213
0.00566534
0.00148256
0.00364192
0.000906077
0.00101056
0.00741993
0.00543806
0.00086805
0.00121135
0.00550574
0.00677134
0.00579871
0.00730728
0.00449105
0.000650071
0.00380535
0.00396094
0.00726769
0.00349012
0.00586754
0.00570693
0.00607835
0.00410142
0.00731806
0.00401804
0.00310617
0.00366792
0.00500437
0.00379924
0.00662848
0.00676294
0.00744048
0.00118531
0.004255
0.00108848
0.00488058
0.000855326
0.000579785
0.00358711
0.00222051
0.00521432
0.00538659
0.00346242
0.00397066
0.00241204
0.00204192
0.00208223
0.00746516
0.00636668
0.00681596
0.00122433
0.00738592
0.00409021
0.00391333
0.00749059
0.00746871
0.00266604
0.000699498
0.00466073
0.00403365
0.00229792
0.00739176
0.00704715
0.00706468
0.00300715
0.00695696
0.00730716
0.00394303
0.00491283
0.00032606
0.00721485
0.00276076
0.00353877
0.00727405
0.00736582
0.00666166
0.00749011
0.00451752
0.00505421
0.0049477
0.00723748
0.00441031
0.00471376
0.00443904
0.00739389
0.00436657
0.00570573
0.00514216
0.00521025
0.00729827
0.00453034
0.00495263
0.00508816
0.00585332
0.00741078
0.00743424
0.00360609
0.00487302
0.00741626
0.00400082
0.00491913
0.00322377
0.00392316
0.00384428
0.00423114
0.00428387
0.00720641
0.00706963
0.00714091
0.00684528
0.00348791
0.00605129
0.00295128
0.00480202
0.00476145
0.00244751
0.00728105
0.00329244
0.00229544
0.00674284
0.00710454
0.00723186
0.00549442
0.000911992
0.00145232
0.00132164
0.00118258
0.0061935
0.00520366
0.00512023
0.00547383
0.00329267
0.0032484
0.0048704
0.00440527
0.00713918
0.00355177
0.00489626
0.00357766
0.00469277
0.00542285
0.00565747
0.0059091
0.00337737
0.00408706
0.00417697
0.00416442
0.00746807
0.00744441
0.0074568
0.00550651
0.00748499
0.00748334
0.00748434
0.00746593
0.00748104
0.00747231
0.00747661
0.00747482
0.00748362
0.00747716
0.0074713
0.00741675
0.0045783
0.00293094
0.00288152
0.00451494
0.00445166
0.00261277
0.00522104
0.00742808
0.00593936
0.00698794
0.00347879
0.00362785
0.00701719
0.00594701
0.0062265
0.00673661
0.00743338
0.00747082
0.00743067
0.00698303
0.00740056
0.00746593
0.00440533
0.00380938
0.00748889
0.0034179
0.00653547
0.00701356
0.00624742
0.00747941
0.00666629
0.00700673
0.00710177
0.00708919
0.00422628
0.00446555
0.00632416
0.0044041
0.0010882
0.00343457
0.00506234
0.00511278
0.00542072
0.00482639
0.00436018
0.00716382
0.00528079
0.00321963
0.00311037
0.00243048
0.00277569
0.00648273
0.00716044
0.00655406
0.0061656
0.00673931
0.00694809
0.00492255
0.002821
0.00577265
0.00716187
0.00629944
0.00613923
0.0042421
0.00598742
0.0067635
0.00712399
0.00723795
0.00710612
0.00713678
0.00712935
0.00684893
0.00548206
0.00741275
0.00520815
0.00742553
0.00637895
0.00744549
0.00451437
0.00726832
0.0050278
0.00747617
0.00745266
0.00278709
0.00748114
0.00746641
0.00395562
0.00743238
0.00744046
0.00741506
0.0072049
0.00740705
0.00698449
0.00469642
0.00458703
0.00347721
0.00303192
0.00611244
0.00505609
0.00614673
0.00384708
0.00635155
0.00715406
0.00705462
0.00714653
0.00535929
0.00682057
0.00692942
0.00668969
0.00326918
0.00739878
0.0073823
0.00729806
0.00128346
0.00110132
0.000717524
0.00319507
0.00739801
0.00471493
0.00154637
0.00609879
0.00434774
0.00722637
0.00596663
0.00119001
0.00337094
0.0060412
0.00339877
0.0068413
0.00700602
0.00564428
0.00740513
0.00502686
0.00506487
0.00354646
0.00460312
0.00358991
0.00566804
0.00474683
0.00383651
0.00706818
0.00725672
0.00545072
0.00685182
0.0068718
0.00718524
0.00720448
0.00747917
0.00748863
0.00744753
0.0053524
0.00747964
0.00746174
0.0074768
0.00706028
0.00694122
0.00684799
0.00686328
0.00599401
0.00461724
0.00570632
0.00735262
0.00513175
0.00329631
0.00359774
0.00303019
0.00430273
0.00562775
0.00700425
0.00630884
0.00286931
0.00742183
0.00692677
0.00649556
0.00731424
0.00577963
0.00574728
0.00337757
0.00305152
0.00332926
0.00608341
0.0045502
0.00429466
0.00455973
0.00246284
0.00742102
0.00738787
0.00733126
0.00327275
0.00319975
0.00501736
0.00304726
0.00339098
0.00279456
0.0028087
0.00746689
0.00272089
0.0027712
0.00361683
0.00257712
0.00431138
0.00100201
0.00414094
0.0044909
0.00493251
0.00586993
0.00626414
0.0033514
0.00437662
0.00746248
0.00742576
0.00748109
0.00748641
0.00292565
0.00748412
0.00565277
0.00564709
0.00295249
0.00263924
0.00408104
0.00415947
0.00600809
0.00716732
0.00744029
0.00491693
0.00224299
0.00303463
0.00306406
0.00684816
0.00649022
0.00424239
0.00670322
0.00599822
0.00448023
0.00515133
0.0051085
0.00420154
0.00718957
0.00612535
0.00486316
0.00600559
0.00726136
0.0061963
0.0046629
0.00651291
0.00740711
0.00669742
0.00475933
0.00725672
0.0025358
0.00436459
0.00382351
0.00550441
0.00548206
0.0038671
0.00656632
0.00708954
0.00490102
0.00536426
0.00311645
0.00405155
0.00320465
0.000800849
0.00509865
0.00361536
0.00263674
0.000336893
0.00623699
0.00488547
0.00331277
0.00324067
0.00717114
0.00251225
0.0030027
0.00574756
0.00746394
0.0038264
0.00397681
0.00339956
0.00395058
0.00671012
0.00301858
0.00555441
0.00300323
0.00379624
0.00343991
0.00339453
0.00362864
0.002628
0.00278063
0.00733707
0.00739848
0.00733052
0.00734428
0.00224038
0.00327112
0.00301568
0.00411655
0.0073147
0.00526033
0.00736402
0.00392419
0.00495426
0.0073152
0.00736231
0.00731148
0.00748335
0.00261139
0.00706979
0.00740933
0.00741838
0.00732787
0.0020862
0.00737753
0.00134024
0.00568388
0.00449653
0.00345123
0.00705404
0.00346414
0.00587599
0.00229727
0.0006882
0.00150194
0.000930667
0.00363569
0.00719766
0.00361515
0.00421607
0.00704671
0.00454891
0.00744871
0.00747394
0.00579652
0.00739842
0.00613167
0.00732586
0.00719971
0.00664452
0.00337286
0.00674997
0.00522831
0.00537157
0.00595241
0.00649466
0.00301547
0.00734669
0.00739296
0.00455735
0.00352003
0.00689095
0.0051042
0.00698871
0.0068803
0.00681407
0.00333528
0.00594721
0.00743981
0.00741396
0.00744639
0.00479984
0.00742078
0.00745189
0.00702514
0.00513177
0.00611547
0.000832383
0.00340203
0.00717295
0.00677628
0.00567322
0.00731437
0.00391511
0.00384295
0.00738168
0.00440517
0.00731719
0.00716845
0.00651906
0.00561574
0.00368207
0.00741495
0.0048002
0.00704055
0.00718313
0.00747894
0.00729309
0.00667502
0.00737352
0.00620477
0.00495768
0.00723676
0.00552304
0.00560757
0.00321907
0.00469977
0.00154391
0.00213392
0.00669457
0.00663707
0.00367625
0.00554599
0.00701602
0.00377339
0.00366374
0.00474634
0.00723386
0.00721648
0.000610137
0.00692386
0.000751566
0.0028968
0.00172361
0.00194246
0.00722648
0.00656435
0.00570139
0.00612177
0.00124671
0.000768111
0.0018061
0.00687033
0.00594234
0.00429731
0.00724111
0.00740122
0.00689522
0.0028681
0.00212593
0.0061114
0.00576545
0.00724812
0.00738446
0.00419853
0.00148057
0.00355479
0.00726245
0.00726512
0.00719363
0.00534077
0.00688685
0.00723676
0.00401441
0.00638146
0.00435449
0.00658671
0.00579548
0.00733177
0.00166336
0.00589212
0.00736218
0.00501184
0.0035404
0.00360759
0.00353241
0.00406142
0.00724337
0.00672992
0.000983626
0.000661353
0.00740881
0.00737671
0.00654887
0.00636943
0.00704836
0.00504184
0.00443521
0.00678019
0.00734779
0.00722135
0.00719745
0.00671265
0.00564046
0.00703661
0.00685868
0.00664723
0.00557959
0.0028401
0.00737508
0.00735596
0.00202466
0.00691122
0.00182388
0.00736816
0.00686565
0.00333364
0.00288477
0.00481472
0.0016959
0.00503376
0.00460261
0.00522447
0.00158294
0.000381795
0.000240305
0.0066115
0.00720726
0.00653684
0.00712723
0.00715722
0.00698655
0.00732292
0.00578748
0.00714782
0.00711503
0.00722373
0.00146069
0.00475079
0.00752745
0.00532253
0.00558607
0.00383639
0.00703894
0.000618628
0.000490502
0.00693475
0.00111926
0.004783
0.00698042
0.000370936
0.0012976
0.00159353
0.00735954
0.00285555
0.00736857
0.00595721
0.000848962
0.0016239
0.00404589
0.00504346
0.00352701
0.0056898
0.00518877
0.00666679
0.00716208
0.00256268
0.00548991
0.00599419
0.00314647
0.00315735
0.00732446
0.00569528
0.00600448
0.00706711
0.00622717
0.00574261
0.00665121
0.00727999
0.00726181
0.00726804
0.00575836
0.00731396
0.00680127
0.00638368
0.00409851
0.00716636
0.00706773
0.00590726
0.00349089
0.00458666
0.00706626
0.0071575
0.00703865
0.00470052
0.0056977
0.00381519
0.00337871
0.00721103
0.00733836
0.00593853
0.00688679
0.00618345
0.00729833
0.00624761
0.00426217
0.00439582
0.00657647
0.00603243
0.00671332
0.00730829
0.00723986
0.00485928
0.00731259
0.00650164
0.00744514
0.0074597
0.00711127
0.00702585
0.00739889
0.00745686
0.00732492
0.00736809
0.00741164
0.00388186
0.00741441
0.00745084
0.00742838
0.0041608
0.00380661
0.00350217
0.0055489
0.00694698
0.00701526
0.00653905
0.00741817
0.00543104
0.00702351
0.00636406
0.00620083
0.00229863
0.00524741
0.00630056
0.00607568
0.00214928
0.00720861
0.00199235
0.000185991
0.000739477
0.00277983
0.00398759
0.000744618
0.00103255
0.00700216
0.00468468
0.00675097
0.00404367
0.00581906
0.0068832
0.00366918
0.0024193
0.00733415
0.00683778
0.00711033
0.00528964
0.00714057
0.00689227
0.00510597
0.00694612
0.00719574
0.00375135
0.00735513
0.00261507
0.0058936
0.00497108
0.00627397
0.00732784
0.00737401
0.00362141
0.00745882
0.00673386
0.00663569
0.00446645
0.00565289
0.00746801
0.00696977
0.0066858
0.00509651
0.00551633
0.00408123
0.00508151
0.00621671
0.00740744
0.00727276
0.00543174
0.00508212
0.00744732
0.00310328
0.0074665
0.00747448
0.00745608
0.00347701
0.00404713
0.00505719
0.00578707
0.00742711
0.0070277
0.00574096
0.00644592
0.00652208
0.00501789
0.00721088
0.00359444
0.00740541
0.00739035
0.00486384
0.00492951
0.00715647
0.00738896
0.00372243
0.00747053
0.00731585
0.00739204
0.00615462
0.00436568
0.00738643
0.00707265
0.00659611
0.00622421
0.00677229
0.00526507
0.00547317
0.00693955
0.00747302
0.00748535
0.00747273
0.00742763
0.00742373
0.00745224
0.00748264
0.00742488
0.00374622
0.00249892
0.00377384
0.00437742
0.00717997
0.00714448
0.0070775
0.00743869
0.00534938
0.00343496
0.00745245
0.0074722
0.00741632
0.00748007
0.00746856
0.00356295
0.0074716
0.00192445
0.00748432
0.00735635
0.00549578
0.00743453
0.00570727
0.00525699
0.00437658
0.00748844
0.00453087
0.00314348
0.00657354
0.00689888
0.00740779
0.00584741
0.00724918
0.00364088
0.00732591
0.00744779
0.00492542
0.00699899
0.00662625
0.00340499
0.00702227
0.00558757
0.00724644
0.00500139
0.00391419
0.00724339
0.00696807
0.00709768
0.00698559
0.00690211
0.00642774
0.00707654
0.00712254
0.00695009
0.00723563
0.00718885
0.00286101
0.00740447
0.00526329
0.00493381
0.00467178
0.00714652
0.00281682
0.00471089
0.00513632
0.00597911
0.0042253
0.00260013
0.00604955
0.00674284
0.00693997
0.00480094
0.0028828
0.00589582
0.00740297
0.00424932
0.00300288
0.00346962
0.00578087
0.00586456
0.00579752
0.00362757
0.0047376
0.00424218
0.00506654
0.00730478
0.00517523
0.0029878
0.0072538
0.00542752
0.00634342
0.00640884
0.00416105
0.00517603
0.00595532
0.0070611
0.00741515
0.00386921
0.00345395
0.00641054
0.00322705
0.0032469
0.00605598
0.00368787
0.00350466
0.00715321
0.00310879
0.00724825
0.00667807
0.000436528
0.00449761
0.00537257
0.00731781
0.00612879
0.00607208
0.00610007
0.00607828
0.000241066
0.00113531
0.00335722
0.0047564
0.00356
0.00336588
0.00355233
0.00356517
0.00702272
0.00634072
0.00711434
0.0068184
0.00542453
0.00747054
0.00741279
0.00731089
0.00548192
0.00670048
0.00578423
0.0054781
0.00740451
0.00746025
0.00749053
0.00745258
0.00742912
0.00592246
0.00747213
0.00475588
0.00615923
0.00584907
0.00708553
0.00702006
0.00376567
0.00663817
0.000998481
0.0068758
0.0012523
0.00406553
0.00531735
0.00080608
0.00267101
0.0050211
0.0070611
0.00540224
0.00703627
0.00293085
0.00543953
0.00659907
0.00361354
0.0074031
0.00483668
0.00568689
0.00587232
0.00332948
0.00454363
0.00728126
0.0071056
0.00742158
0.00359232
0.00595939
0.00700046
0.00492049
0.00539912
0.0068091
0.00712269
0.0028014
0.00735435
0.00740821
0.00730414
0.00724154
0.00674557
0.00721978
0.00693794
0.00717807
0.00673008
0.00662616
0.00711933
0.00713333
0.00621401
0.00381584
0.00560049
0.00561599
0.00700382
0.00731004
0.00673168
0.00693434
0.00713387
0.00726682
0.00579769
0.00675268
0.00728114
0.00691036
0.00737435
0.00437925
0.00674237
0.00645478
0.00606244
0.005727
0.00728848
0.00742765
0.00550836
0.00446165
0.006509
0.00677633
0.00734898
0.00733581
0.00194688
0.00364228
0.007081