/*--------------------------------*- C++ -*----------------------------------*\
| =========                 |                                                 |
| \\      /  F ield         | OpenFOAM: The Open Source CFD Toolbox           |
|  \\    /   O peration     | Version:  2506                                  |
|   \\  /    A nd           | Website:  www.openfoam.com                      |
|    \\/     M anipulation  |                                                 |
\*---------------------------------------------------------------------------*/
FoamFile
{
    version     2.0;
    format      ascii;
    arch        "LSB;label=32;scalar=64";
    class       volScalarField;
    location    "0.0501868";
    object      p;
}
// * * * * * * * * * * * * * * * * * * * * * * * * * * * * * * * * * * * * * //

dimensions      [0 2 -2 0 0 0 0];

internalField   nonuniform List<scalar> 
3989
(
12.9942
13.5215
15.6805
14.4248
15.5191
12.3758
13.6697
16.4148
13.4127
6.49796
13.338
13.2273
8.4819
12.8378
13.7475
22.9218
12.665
10.1167
12.5678
14.808
11.4722
12.3945
9.22143
9.13913
13.776
13.2843
7.82542
13.6893
13.1596
12.7313
13.7241
5.88548
11.2256
12.7886
5.88316
13.634
13.0301
10.8578
12.765
12.4321
10.2485
13.588
13.8039
13.7747
12.3636
12.6784
12.7353
13.6145
13.4253
12.419
7.94306
12.675
12.5701
13.7555
14.9654
12.6072
13.2683
9.75592
9.60434
9.87219
10.3205
10.3007
32.6316
55.5238
19.6837
12.8602
13.1102
11.9597
11.5959
11.8568
13.6209
13.2458
11.9456
11.6835
13.5624
16.0621
12.1774
12.3946
13.1871
12.6779
12.9924
12.9434
13.3187
9.80913
10.8772
12.8007
10.734
12.6699
16.0279
12.5905
10.6782
13.1457
13.188
10.1526
13.6616
7.53742
6.8216
13.561
7.61606
4.74996
13.5162
13.4846
13.7486
13.7671
7.07037
13.6742
10.7943
13.5445
13.6631
8.32291
11.5651
13.7053
13.1174
11.5048
13.008
9.58469
11.748
11.6791
12.7596
12.7605
13.0116
13.2265
12.3761
13.6614
19.8442
14.3644
13.5914
12.0353
13.6607
6.99984
8.56335
13.6693
11.2638
13.7527
13.8257
12.0605
13.7266
13.7419
13.8002
13.7246
13.6669
14.0541
9.93203
13.5971
13.6881
6.31513
13.5707
3.09306
12.4641
15.6624
18.6728
7.06916
6.2168
7.5398
6.33496
7.52105
16.8506
6.74289
13.2747
13.8411
13.8132
16.4591
13.3386
13.5331
13.389
17.73
7.74379
13.4933
15.9517
10.6728
17.8574
13.0419
11.5202
10.3076
13.9736
14.2165
13.7006
11.1284
4.61658
7.76664
10.6782
9.98592
12.3027
9.17479
10.9041
10.4148
13.3658
10.7452
13.6053
13.6346
14.4114
11.5114
10.8458
11.0242
14.0388
10.5101
46.717
23.0866
15.5514
11.5119
7.95946
13.1022
12.9639
12.8214
13.1153
12.9882
13.4092
13.489
24.2007
21.6251
13.3692
16.3157
27.0419
16.4618
7.99211
-43.0979
25.7638
13.6518
13.7902
13.3992
14.1479
12.44
12.6878
13.5628
13.4615
14.448
13.8196
15.3321
13.2437
11.2556
10.1901
10.0207
10.1185
9.52861
13.2879
12.6193
12.3368
12.5135
12.6269
7.59823
19.9042
12.6546
12.7
12.6265
12.7713
16.6767
13.0867
13.0619
12.8865
12.899
13.1061
15.0889
12.9626
13.596
13.7079
13.2297
12.6155
12.5091
15.2474
14.165
15.5539
9.69798
12.9345
8.73184
12.9479
12.8782
16.5691
30.2794
10.9047
11.1314
10.3084
13.8091
13.8569
8.13883
11.8579
12.2408
12.0091
11.7964
14.6768
6.57283
13.5429
9.4693
9.77699
8.92404
11.8473
11.6196
9.35817
9.35848
9.59837
10.0306
13.6657
13.5315
10.9537
16.0816
11.962
12.8878
11.849
13.6894
34.0899
28.2648
15.6237
12.9642
13.3321
15.7714
13.1788
34.7054
9.41071
13.0596
13.2145
13.335
18.206
8.40386
37.826
39.6727
13.7359
13.7439
10.1387
11.508
7.7382
14.3851
4.74028
12.4146
11.9286
12.3258
8.6373
9.747
11.5779
11.6279
10.3642
9.44455
10.1134
13.5994
29.9189
12.3937
11.9722
8.48167
13.4115
10.968
12.6484
12.5829
32.7037
14.4437
9.91767
14.2639
8.37385
17.0498
9.30303
13.8624
6.79434
13.4402
9.74332
15.3721
15.6386
11.5087
14.8342
13.1318
14.7578
13.4962
3.66084
13.2257
5.2882
15.0407
12.5647
6.9582
4.47573
13.7698
14.1023
12.0697
11.9185
12.9157
14.9727
12.4851
5.36708
13.0424
15.0114
12.5168
5.8631
14.0663
6.82027
8.05808
13.725
13.6041
13.5678
12.2732
11.89
11.4132
11.947
11.9718
12.2673
11.5923
13.1391
11.7105
12.9093
12.4713
11.9274
16.5146
13.7022
13.7766
17.3797
12.2303
13.1117
13.1307
12.6138
12.6768
12.5382
14.4748
16.9106
-16.7326
16.7569
17.5386
9.33352
-1.63424
23.2078
52.2559
10.5318
21.3883
17.3741
14.0212
14.7669
11.2982
45.0976
13.6147
13.5663
39.9202
16.7577
12.5569
15.4639
38.1336
13.4802
19.7589
15.5384
15.2951
11.5569
7.9772
2.0063
16.2696
13.3794
13.5298
14.5315
15.1703
17.7216
22.1007
19.2855
13.4749
13.5293
12.3245
13.4291
12.8371
13.6207
13.5323
10.3342
14.711
14.7981
17.92
31.5121
14.6855
12.7649
12.6513
17.8454
16.2141
15.7858
13.7517
13.7599
13.726
13.8389
13.7614
7.04037
7.36087
12.6615
12.6
12.5788
12.8053
12.729
12.9236
13.5742
12.8219
9.11652
8.78523
9.49415
8.53268
12.8929
11.7794
12.6962
13.3345
18.8132
12.7717
12.7777
12.8629
14.7871
17.3718
6.07466
16.5764
13.3266
13.6549
13.752
14.0211
16.3768
14.352
13.7779
13.2606
14.0872
13.9001
14.497
15.341
15.3076
13.3364
12.2175
13.7566
13.6454
12.086
16.55
11.2924
11.2305
13.8826
14.6805
12.2455
12.2057
6.39594
5.63913
6.41112
7.01284
5.61603
13.5972
8.80728
4.60511
5.15557
10.1243
12.4284
10.8062
8.20958
10.3026
10.3065
7.73073
15.0776
13.5831
6.61869
17.1618
6.49752
6.79774
12.4583
13.4341
12.1013
11.6472
-95.8174
-61.7163
13.3096
15.6452
15.8228
12.9505
15.2249
19.2527
13.7178
15.0842
12.4257
12.4506
13.6271
15.7909
13.2386
14.179
12.4317
4.97716
7.28228
6.40166
16.599
12.7646
9.42997
19.3257
9.72213
10.9759
9.12789
7.81063
8.08708
24.0974
32.9802
11.2743
5.43326
5.85296
13.2643
13.3323
27.4643
15.6036
17.3076
7.01988
25.7733
20.0834
13.4718
5.69842
7.14233
18.0787
13.4812
14.4065
8.7517
11.4906
55.4459
44.7747
8.83637
13.4267
13.3775
13.4731
13.7903
12.9376
13.9091
12.1127
12.37
9.0897
13.3785
15.143
13.5286
11.4256
13.4924
12.5559
13.8895
12.96
7.34057
13.9658
5.08721
13.1104
12.2155
13.1566
12.2986
12.0055
7.38744
6.82488
12.4876
17.2658
10.8909
13.3533
13.8619
12.8495
13.4477
13.0633
13.3232
13.0016
12.429
13.5206
13.452
12.6935
12.931
13.2495
12.7109
12.2099
12.9427
15.3705
13.6584
13.396
13.7319
13.5722
13.6856
14.6271
13.4881
13.8098
14.186
13.5001
13.275
13.4931
13.6685
13.3628
11.8618
11.9716
13.5355
12.893
10.0106
15.053
13.5922
13.824
13.4445
14.496
13.3368
8.21662
12.5728
11.8119
12.5011
5.12326
11.898
11.8537
15.2302
7.97244
13.3574
11.2492
13.8054
13.7455
9.99124
11.4844
12.5493
13.4275
12.3789
9.93175
13.3651
11.1549
10.5685
8.30147
15.0893
10.4393
13.7398
11.4223
7.32381
14.5412
12.5909
11.3128
8.6173
4.29122
8.37195
11.9316
6.75968
10.6409
8.69626
13.4956
13.8636
14.0109
11.0713
13.6836
14.0313
15.9302
15.6946
12.6332
11.9753
12.6267
14.1691
9.63418
11.027
13.7557
14.4373
13.81
12.0075
12.1447
11.9804
16.1945
19.6334
12.8673
14.1863
13.7991
15.1056
15.4381
15.0861
16.2103
11.2073
2.66793
9.69532
15.9681
14.6101
14.8316
15.4533
12.633
20.1548
20.0487
12.8341
7.30431
41.9505
8.09788
27.5877
14.5138
14.2539
11.1275
11.1506
11.8776
20.7736
16.1222
11.3097
15.6081
15.9353
15.7061
14.8825
15.5754
13.6315
13.2478
13.546
13.9647
12.8037
12.3858
13.6131
13.3409
12.2134
13.1174
12.6443
11.6828
13.3407
12.9908
13.9108
13.5646
12.7956
9.58596
12.3404
13.5756
7.58912
5.289
14.467
15.2564
15.1726
17.96
11.921
9.95427
7.70113
10.1002
24.7359
17.5164
18.216
10.9849
16.6889
12.471
14.7159
7.55435
7.63141
7.54125
7.08695
15.8754
15.7192
15.1012
15.336
15.7507
15.6839
16.2497
16.1799
18.1282
12.7509
12.608
21.4417
30.6277
32.2816
26.4638
17.5936
11.8039
11.7435
12.2995
14.2944
12.852
27.9249
12.3452
12.7665
13.1239
10.3281
7.40004
9.74761
10.1548
8.97818
8.00719
9.71829
5.6301
9.34867
12.0903
13.7636
11.7118
14.4583
41.9822
25.7756
11.9645
13.0977
7.54033
13.9065
10.0324
18.8419
11.0387
8.64695
12.6718
13.3075
10.1856
6.41173
8.14225
10.5652
5.34953
23.8422
10.7753
13.0669
17.932
9.37193
6.36848
11.0018
7.72405
24.7576
3.14275
6.81314
13.8471
-3.93461
13.9252
-5.44845
3.93595
9.06146
8.69091
11.2764
5.99306
22.9714
12.9378
-15.6155
7.6591
11.6547
-4.82868
11.1955
7.89691
8.34465
8.2805
10.076
7.79792
13.8446
14.53
13.7157
14.1282
14.3005
13.3808
31.0418
15.306
15.5392
-4.26322
17.0359
-0.657863
14.4511
15.4309
36.3551
-15.9191
1.13107
-37.4366
-42.2452
-27.9289
14.6931
19.7161
10.0136
-61.8529
51.6478
12.538
25.5358
22.0673
41.1804
11.2516
17.0967
16.7086
13.9779
18.917
12.878
17.4485
18.103
10.4069
18.4933
12.6614
8.66705
8.37649
13.4614
14.9385
10.2217
10.8394
4.80706
13.0804
19.918
59.6842
58.0034
11.6861
12.3877
16.6715
39.1518
12.0781
13.9586
25.8105
18.6479
16.1052
17.403
14.7481
27.352
25.1062
14.6727
3.61207
4.96926
3.1218
9.7066
15.9912
14.8242
7.41617
11.3549
10.8474
14.6291
13.6371
14.021
13.9096
13.6879
14.9169
15.2695
19.5569
13.595
13.6658
23.8527
13.2328
13.7886
13.866
16.1837
16.0157
17.9766
13.7983
15.6994
15.1479
14.0967
14.1315
14.321
12.787
15.1115
15.8014
16.426
14.6626
15.043
15.503
29.9507
15.4518
15.7508
13.3373
12.9116
15.4831
14.7935
17.3974
14.7647
13.467
12.8095
12.9878
15.2736
16.0409
15.4337
16.9386
15.5132
16.2342
25.7269
8.75024
6.99569
6.04408
7.13567
14.5744
11.0691
10.9201
10.7808
7.43076
9.15522
9.75951
7.5526
8.31645
15.2797
13.9935
14.4071
15.1873
14.4212
13.4367
14.8095
13.6827
25.3458
15.1124
15.9211
16.1995
16.7987
14.6272
14.9121
12.9867
12.7501
12.9214
12.8981
14.5287
14.524
15.9678
6.3506
21.7178
18.2851
11.0718
10.5338
13.1673
15.1848
15.479
14.7214
14.5581
13.7588
5.79459
5.90887
15.0785
15.7917
15.8557
8.0214
10.3893
11.0141
9.45056
6.44395
12.9714
13.4932
14.5085
12.9206
11.5482
11.5255
8.23523
7.98543
12.5786
8.20609
39.0577
21.9791
15.8357
14.5801
16.8048
17.4004
16.9204
14.674
9.50594
11.8287
10.5237
12.0169
7.87326
9.2796
7.6731
8.35546
14.4411
15.8759
16.0081
10.6563
10.9158
10.8648
10.9182
-67.3262
11.0673
14.2905
17.1067
11.5971
7.72415
7.13342
6.31331
10.8901
7.19162
9.55485
5.52198
9.10635
7.41456
4.98017
12.0475
5.44501
11.2155
8.80043
1.04936
23.8639
11.1943
12.2718
15.414
12.024
17.3137
40.3367
32.8788
27.5905
32.8385
15.6335
13.3963
14.377
12.614
14.9518
24.7317
17.2281
15.4346
13.575
16.2662
4.30345
7.26095
9.52694
8.47797
10.8952
9.97418
18.1334
23.6276
8.25284
9.55207
13.2742
11.0537
14.1591
7.49925
8.81193
18.7998
12.657
8.34001
13.1669
13.2419
10.2166
6.0329
20.9993
21.0126
13.2734
3.66032
15.9197
13.3761
13.3574
13.4572
13.5305
15.8321
13.4836
17.2716
17.1726
18.2203
12.9984
6.16916
13.3793
12.63
9.38589
8.67571
11.2808
13.2728
13.0856
13.1118
13.7429
14.4127
13.4585
13.6657
13.2411
13.8758
15.5058
14.0543
13.7058
12.4764
13.3668
12.7174
11.5178
8.14142
12.9976
12.9099
12.7483
11.7777
12.8079
12.3361
12.6444
12.3598
11.6967
12.5034
12.5768
12.3578
12.3827
10.1117
14.2714
14.2921
14.429
14.4572
14.066
14.1086
14.0886
14.3202
13.5475
13.0774
12.2271
13.258
12.3271
12.2174
12.0938
11.5528
10.9258
12.0798
12.3701
11.0945
6.1485
7.01457
5.97387
6.70005
6.92397
12.6193
8.45896
12.6693
11.1497
14.5482
5.42635
10.9717
12.4782
12.1888
12.5665
12.9437
11.0796
9.83033
11.3414
13.1882
13.0664
13.5839
14.9143
13.1723
12.5563
12.5301
13.7305
13.3471
13.1645
13.0906
15.0459
13.3038
13.9405
13.6435
13.1626
13.6829
12.7385
31.7457
33.5256
13.7189
11.5744
10.8713
12.3803
13.3753
13.7009
13.7273
14.5232
13.8084
13.5716
15.6931
15.3589
14.7941
14.8814
14.3498
14.285
13.415
13.7437
13.4129
13.422
13.7811
27.1587
13.5781
13.8028
13.669
15.8439
13.7773
13.5015
13.6989
14.2231
12.2161
13.2849
13.3352
7.56567
13.1751
10.587
10.2813
13.1612
12.9354
13.7628
13.9113
14.0514
13.3298
13.1193
13.4679
13.3098
9.3892
12.2588
10.8717
12.874
6.99719
10.3419
11.8207
10.6831
12.9262
13.5096
12.2211
7.82652
7.59413
13.1685
14.119
14.1708
18.3856
13.5653
11.4551
14.5408
30.2314
4.33055
5.42489
-9.61106
10.9243
7.37145
47.5769
12.8835
15.803
13.5728
15.4831
14.4128
13.7838
13.8535
12.948
15.5004
12.4429
13.0585
13.1486
12.2426
12.5938
13.113
9.11221
11.6072
12.7922
13.7652
13.4978
13.4679
13.6474
14.0728
7.85335
14.7024
16.1505
16.7594
13.6745
14.6928
13.3613
13.1086
12.3695
12.613
15.6615
14.3561
13.8161
13.1455
11.3331
9.01512
12.0281
12.0393
10.7029
13.8066
13.3628
10.8359
10.1979
13.9886
13.2807
12.8751
7.15183
16.5193
13.2037
16.2397
12.7644
12.8263
11.3908
7.81195
11.8552
10.7668
7.0735
7.20917
16.2262
11.5002
17.9832
14.8146
11.1287
18.6729
21.7775
27.4388
15.359
15.6461
8.13421
4.16649
4.5469
16.3307
14.1716
12.7393
14.9433
13.9653
8.27181
12.232
13.6694
16.2437
-75.0751
-36.1064
-36.258
-21.346
-146.771
18.5269
10.0354
9.74102
12.2018
12.9924
13.7626
12.6232
11.3794
12.369
11.672
11.4718
11.2093
-3.72717
25.014
27.3963
7.99554
8.19792
32.6845
12.1062
13.2503
14.7285
5.63235
9.1498
12.0873
16.2865
9.26557
14.3441
14.3698
11.5292
6.66627
9.58209
13.6622
13.3675
11.8791
17.9081
4.81646
42.1484
14.5484
21.6289
14.6195
13.0776
13.4392
13.3396
8.03153
6.33893
13.2884
9.05032
38.2574
13.892
43.4388
10.4933
8.59926
13.8208
6.61414
16.7661
13.9301
13.1534
11.569
14.3402
12.4243
12.8926
13.751
13.5608
13.2364
14.0513
11.2555
14.599
11.8512
11.4858
13.486
11.4281
12.7992
40.8391
12.4596
50.586
48.1634
13.475
12.1513
18.7682
11.4786
11.8924
12.6701
13.242
13.5028
4.96274
13.3995
13.4845
9.83306
6.95141
13.123
10.5871
10.5608
9.91476
12.7678
8.06613
7.02956
9.16404
12.5068
12.4107
13.1151
12.802
13.4035
13.4027
17.1033
16.5883
15.5929
14.7318
13.9279
13.012
-13.3724
10.6622
11.3983
10.4663
11.3163
15.9319
7.01633
9.82993
12.4936
13.0067
10.7577
13.3083
12.6749
12.2664
12.525
10.2969
11.9135
9.87008
3.50632
50.2289
-59.7016
12.6809
13.2103
-94.8013
12.4944
12.4103
11.8874
12.2317
13.5558
11.8593
10.8454
7.64604
12.4598
16.9963
13.2173
14.2228
13.5493
13.3752
12.2695
17.3509
12.346
15.1407
22.8688
4.29338
12.1235
16.0879
13.4302
13.3317
23.8478
8.6865
24.3541
7.69063
33.2016
26.9534
9.54924
15.5703
9.08241
6.86548
6.90377
6.43518
10.4693
10.3101
9.93346
13.7134
15.2441
15.3728
11.9658
13.6814
21.2736
17.9046
13.6556
13.686
9.47388
2.16061
10.2121
8.96648
15.2497
13.7637
15.1537
15.8128
13.207
14.8473
16.605
27.0406
22.0971
12.5599
13.6792
14.4641
13.3839
17.7458
13.6887
14.4631
13.6919
10.788
14.3974
14.8756
16.8588
15.7072
14.8394
14.6167
13.7466
14.5526
15.6936
15.5232
15.003
13.7024
13.8945
15.442
15.349
15.6398
13.7616
13.607
16.3119
14.7577
13.729
13.0245
13.6345
12.8472
12.7868
6.79488
14.3543
14.1981
14.4007
13.8621
16.7115
14.9941
15.3766
15.9711
13.2164
12.5648
12.9893
13.171
17.3894
26.0953
27.1723
13.5117
15.5032
15.8987
13.7296
28.0673
27.2255
30.4802
31.5537
13.0629
12.852
14.9535
14.2749
11.6732
11.8101
11.8343
11.8324
14.7046
13.7159
13.7564
13.667
13.7803
13.6254
13.6644
13.8477
12.2973
12.3985
13.9755
14.0362
12.9993
13.1303
13.0266
13.224
12.5989
12.6242
13.6727
13.6595
13.6039
13.6953
13.7717
13.7087
13.7158
12.7006
13.729
13.5168
7.86453
7.75833
8.25117
12.6155
12.8515
12.7193
12.7809
9.04133
5.7279
13.7688
10.1784
7.39384
10.231
10.1237
6.75407
7.69467
13.7366
13.7366
13.8459
13.7828
13.6922
13.6694
9.00506
4.05233
13.632
16.3034
15.99
16.686
14.1045
13.5494
11.6369
12.6432
12.8537
11.7832
10.1595
14.544
7.28004
8.86057
12.6161
17.4892
10.9628
10.5897
8.46307
9.76103
9.70838
15.3081
17.1909
22.1253
21.0415
22.3134
16.9328
9.38817
15.224
12.9807
13.7973
16.1239
14.6222
9.53611
10.1232
13.2529
14.0406
14.5086
14.1325
13.7399
14.2695
12.2198
12.8699
12.9567
12.0827
12.7692
12.2711
12.4719
12.8265
13.2056
13.362
13.5521
13.144
13.7369
13.5004
13.7418
13.6786
13.6703
13.6629
24.0529
13.3139
13.2948
21.8846
13.391
13.3988
13.5978
13.6751
13.7233
13.9288
20.924
21.0711
4.92993
5.6247
6.50194
6.50431
5.97694
14.5912
17.5076
18.0087
14.9769
11.2208
4.44217
8.3552
9.04933
7.68226
8.6599
8.87375
11.802
9.73309
33.6484
20.0899
21.5791
16.4611
7.24139
9.89525
9.83208
5.64521
9.76042
9.52628
5.24893
38.8182
24.0851
21.023
13.9852
15.102
16.4971
18.0128
13.7396
15.028
15.3169
13.9182
14.2786
15.4742
13.2367
13.7263
13.4205
13.1681
13.2702
13.4521
14.7733
14.71
13.6267
13.8166
13.1367
13.3492
13.3175
13.7413
13.4916
13.5288
13.2744
13.7017
13.7158
14.7699
14.6897
13.3035
14.0471
14.2692
13.8923
13.8247
11.9787
13.5306
14.1369
14.2003
16.946
16.2543
17.2025
27.9693
13.1109
14.0739
12.8494
11.597
11.6171
11.5974
11.8
11.9387
11.9379
11.943
14.3937
12.6218
9.17176
11.6341
6.50511
6.29188
5.69456
11.6981
14.314
15.3859
8.35278
8.2413
8.92062
8.73724
12.6615
9.03205
9.04436
12.2227
11.5629
10.4081
-42.3626
13.4856
13.4447
12.3421
13.3322
12.6467
12.5965
13.53
13.489
13.5455
12.9473
13.325
12.7274
13.7998
13.7092
13.6962
13.6112
13.2076
13.391
13.3011
14.3656
12.8383
12.6282
12.1318
12.1483
12.3037
12.2711
11.2184
7.36723
10.4014
12.1622
13.9577
13.9237
13.9241
13.6812
13.753
11.0412
9.89982
7.80044
8.11634
13.6856
13.0359
12.0861
11.744
13.378
13.5165
12.5618
9.8751
12.1997
13.7315
13.7422
14.0163
13.7799
13.6797
12.7193
13.9219
15.4617
15.4685
14.0846
14.5434
14.1367
15.8529
12.2189
11.7224
13.0349
-28.8859
10.4275
6.20236
5.85032
14.1299
10.5495
12.5828
15.1324
12.5367
12.5923
15.1666
15.1118
15.0427
13.5992
12.1189
13.8376
12.1131
14.1625
14.6462
14.7715
14.6777
13.2664
13.7724
13.2884
10.5997
10.0422
17.0135
16.7362
30.3884
29.7207
13.7952
15.1254
14.6879
11.8458
15.8199
23.6579
8.50103
8.86563
13.4641
11.5813
13.4212
13.3768
12.5863
13.5701
13.5706
13.4882
31.3011
13.7797
35.2348
11.8493
11.7375
11.9954
14.1233
10.066
15.0732
9.62
14.5797
32.1553
59.1119
13.3273
13.896
13.4766
14.0596
13.1359
13.5133
13.53
13.5169
13.7462
12.9525
13.2339
13.021
9.44914
11.9155
11.8701
14.3145
13.3879
14.7923
14.0035
15.8913
12.5482
12.6317
12.6458
12.3903
11.778
15.8072
13.6292
14.2137
15.411
15.0865
12.6028
13.7541
13.1681
12.6643
13.4202
22.4491
13.6678
13.5496
22.3084
5.12555
13.2424
30.1139
6.89521
12.7902
11.3243
11.8648
10.1263
13.7569
8.03261
13.0346
12.8273
9.09876
17.812
12.5246
12.8538
13.4267
19.2362
15.895
11.1627
14.0631
13.5897
8.44917
13.3091
10.3918
14.3314
11.8056
14.4005
12.1833
12.4878
23.3953
17.9892
26.9012
21.7513
17.1548
16.6514
15.5372
16.7299
15.4002
14.9611
14.5178
12.8763
15.4998
9.15498
46.3123
10.0844
56.375
18.9179
25.3744
20.8798
6.77468
8.60318
15.5517
7.45951
35.3568
32.6566
30.2602
12.7134
15.0158
12.0476
14.2894
14.3397
13.7891
9.60359
22.7513
15.5481
15.1078
17.5321
18.523
19.9587
20.4517
19.9475
12.2288
15.4494
15.0416
13.0842
8.32214
8.70576
7.60047
8.68876
9.75571
13.9988
12.2374
8.6237
33.1703
21.0801
14.09
15.5602
18.8197
12.0859
21.0249
21.8306
12.9384
16.5759
18.1788
5.71588
13.6833
13.2401
10.9519
12.6602
13.5993
12.3761
12.4407
12.373
12.5341
12.8874
11.3098
6.54502
22.9114
13.2715
7.49944
10.0382
14.1068
6.99531
5.79303
9.97426
-2.22355
15.083
2.57546
7.60542
9.39095
12.9851
12.3265
9.19289
21.9462
18.5395
5.21594
8.03686
22.4058
-93.5675
31.5569
15.5474
15.2763
14.9964
11.3628
14.5912
15.8209
16.8967
14.9867
17.1615
15.6137
15.3701
21.0047
21.6433
20.0663
16.6934
13.7826
10.0534
9.67788
45.0549
-32.167
15.0162
24.0962
13.834
14.9895
13.3749
20.2627
-40.4394
18.6883
26.944
18.0637
19.7352
38.4956
24.7897
15.5861
8.75621
6.71626
4.9618
13.7258
15.3583
17.1536
12.2249
13.3775
6.91472
9.0066
10.7043
12.1379
16.6252
11.5102
16.8764
14.3392
14.7695
16.4235
17.367
17.7018
16.7961
15.0803
17.4038
15.9065
14.793
14.946
15.0677
13.5715
14.9822
12.5122
13.476
15.3536
14.5887
13.5866
7.18482
11.4902
13.8924
13.8758
12.8445
10.5038
14.6401
12.771
9.57017
12.4269
14.9056
16.5335
10.1318
13.4495
16.8597
15.138
14.2913
19.5295
11.9264
10.8228
13.5731
13.7074
13.7042
7.92903
15.4846
13.6732
13.4956
13.4916
13.5703
13.5715
10.7935
13.5041
13.5461
13.4553
12.9866
12.9335
13.0461
13.4392
8.40417
11.7779
9.47384
7.989
12.5766
9.70963
10.1851
12.3884
18.5547
16.0894
8.60007
14.712
16.9723
15.3646
15.9401
-134.545
-82.8491
19.5975
14.9566
49.6368
21.6642
15.5269
17.569
17.8129
15.1865
16.7346
15.5505
15.1597
15.1929
8.09961
13.7643
13.0819
11.9489
15.8814
13.2258
14.808
10.4277
12.2486
14.3005
11.4687
27.6121
12.4369
13.6979
13.7815
13.6992
13.7863
13.3992
13.534
13.4783
14.4803
13.5649
13.1698
13.6299
14.2234
14.594
14.1388
14.0851
13.5499
13.5991
13.8262
12.9955
13.6955
13.5101
13.3735
12.8842
13.9312
12.6975
12.7261
12.6201
11.9013
12.15
13.5539
13.7406
13.5857
13.167
13.2645
13.2763
13.2606
11.1883
13.9073
13.1382
13.7159
13.743
13.803
13.7607
13.7591
13.7611
14.112
13.3584
13.5129
13.4706
12.9578
9.93418
12.5351
12.3063
12.021
13.6918
13.8503
13.6905
13.4475
13.6658
12.6175
12.6129
12.589
12.4671
12.4589
12.5941
12.6133
12.6892
12.6495
6.9407
12.5948
12.9868
17.2642
16.8416
17.9124
12.8254
12.8917
11.8804
12.5625
12.6202
12.6997
12.6186
12.9778
11.1046
13.4899
12.618
12.645
10.1912
7.03124
7.57706
7.28335
7.06142
12.8138
13.6429
6.94834
6.2225
7.37069
9.70888
13.6466
13.6901
13.0707
14.0057
13.6608
13.6846
14.3044
13.7276
13.5755
12.4934
13.6705
13.8102
13.2211
15.3443
19.7489
10.3125
9.99726
8.34493
5.86339
6.66792
6.03935
6.85851
6.69863
6.17225
10.7473
10.7271
11.2274
19.5731
17.0728
10.9924
16.5891
12.3215
8.83125
12.5052
4.66107
4.88815
4.75572
5.7027
10.8019
14.6967
14.9404
16.2672
16.7288
12.6666
12.7271
16.0868
12.635
11.1649
6.87773
15.9936
14.2091
13.8797
14.0838
13.2868
11.9203
16.7818
13.9865
11.2228
12.4986
11.7379
15.0005
8.94878
12.9828
12.7953
11.3326
12.8183
12.5558
11.4921
7.9344
14.523
14.9626
6.96959
15.2001
15.2074
15.2033
18.1959
15.0249
6.11481
9.13962
29.9087
11.1428
11.9353
16.9346
6.71316
8.21386
7.61449
8.60192
-116.253
35.8963
13.4699
14.4724
13.9737
13.6627
13.6498
13.454
13.7166
13.8657
16.1588
13.8834
13.9242
13.7239
12.6264
17.7802
11.4241
11.3797
9.63327
12.2421
12.8828
12.6101
13.5268
13.0026
13.1614
15.7388
12.74
15.4655
14.3587
15.2822
14.7325
15.7089
14.7382
14.8663
53.1318
13.314
51.868
16.334
16.8682
54.0368
9.32536
15.8272
12.802
12.5037
11.9911
16.8708
13.3344
15.2337
23.397
19.829
12.4838
13.379
14.2962
5.55005
14.2015
15.8938
14.1838
18.1747
12.2924
18.8151
15.2352
14.6192
14.535
14.5337
14.0571
15.5944
16.4833
14.75
16.262
15.6808
14.6677
15.0926
18.3231
18.9609
16.9662
16.6994
15.7312
16.2051
16.2912
13.6814
17.2579
17.8554
14.3134
15.8185
13.7111
15.0348
14.4297
15.9266
11.2341
12.2052
14.9507
16.5467
19.6194
11.8498
4.74959
5.12436
6.97556
4.46392
7.14599
7.60902
20.0219
9.05007
7.74794
12.1569
11.616
10.7917
29.916
9.93613
17.8367
19.3303
27.6253
26.1222
16.7308
14.3853
14.8273
13.5951
28.721
16.5583
9.63968
41.5449
14.628
16.6592
11.0934
13.4393
13.6369
6.32215
9.23801
8.16932
7.36708
13.8006
12.7587
11.216
12.7597
12.6971
14.9955
15.2534
9.42702
11.1718
12.4503
16.0445
4.9837
14.3262
14.0293
13.5856
13.5676
13.5748
13.2614
16.8014
15.317
8.29256
25.4895
13.2806
4.70972
14.7241
8.22923
11.1677
11.3683
18.4063
8.41918
9.4627
8.80373
21.9258
13.5339
20.4687
20.1219
20.2962
20.2523
14.4345
10.0773
10.6358
16.4643
17.462
58.1227
11.0672
7.8999
12.1431
12.547
7.58726
8.79723
6.31436
6.82425
-87.1471
6.43477
6.80981
25.9912
23.8164
10.1149
12.9298
7.76944
16.0514
3.78837
30.8383
5.17123
12.327
8.01111
15.3917
21.0047
14.7331
24.8778
12.7823
16.8142
9.36919
27.4229
22.9459
24.267
17.4116
3.71859
29.8735
15.0749
54.412
21.2038
5.68015
-76.9394
-144.939
13.5886
16.5449
14.5885
15.9388
21.7343
12.8395
11.5896
37.0333
14.5757
14.0665
13.1569
-21.11
13.3433
30.7029
11.5501
24.1469
12.5311
12.139
16.8544
18.9522
14.57
17.1144
16.371
-6.22451
10.973
23.2825
26.7093
17.9017
10.6568
12.4583
15.1495
14.6525
14.9464
16
16.7484
13.548
5.02605
-43.5014
21.0522
9.07073
6.26042
10.8133
6.4193
13.3335
2.86813
13.9623
16.4285
18.3895
18.9497
17.1543
13.0821
18.5936
15.9031
13.59
13.9355
16.5579
17.785
17.0239
14.7027
12.356
14.7902
19.7752
15.773
15.8814
15.9573
14.7171
16.4066
15.6843
-11.6867
13.6476
6.29675
6.34256
7.32192
7.34642
6.79778
4.29218
4.84943
12.3924
13.2906
14.6526
7.76883
8.02255
11.0226
8.34019
8.4857
6.68507
5.44615
6.99065
10.3897
11.8811
13.9653
12.2694
20.8663
26.8375
20.5396
20.0838
16.8111
15.6078
16.1917
23.8198
13.5947
20.358
19.1346
12.7107
11.64
12.6006
12.8175
11.7723
17.1938
14.2116
16.7043
5.25798
8.52847
7.06067
11.8486
11.8486
17.2765
13.9804
14.0438
16.1913
14.4757
7.19076
13.3048
7.27191
17.9638
6.84467
8.3489
15.6421
15.5485
24.7992
15.9119
13.968
42.9492
17.4387
5.22294
30.4366
5.74581
21.3368
23.6732
14.276
14.7921
15.7943
14.9215
12.507
13.0003
12.9963
7.84735
15.0215
14.2955
7.2808
13.6449
14.1992
13.7423
14.0146
34.7764
13.9703
-126.363
14.6884
5.74487
4.91077
5.72341
5.15446
8.61518
12.1149
12.1498
11.113
7.34678
5.60977
7.09006
11.1022
7.58037
11.5889
9.63406
10.1015
8.27465
10.7138
6.35626
10.0544
5.44741
15.4152
18.6575
6.15996
7.77401
5.79213
7.05032
12.1439
6.7003
15.2159
15.9512
13.4466
15.5535
13.1566
22.0176
8.33301
34.1363
24.8977
24.26
33.2932
13.2141
13.8806
16.208
14.7378
25.3966
43.5321
22.2365
15.0846
14.4927
14.6095
4.78811
5.73786
14.7684
13.784
30.7871
23.9587
9.07184
16.5199
16.212
16.8268
12.8997
8.25179
11.0809
20.9071
12.8838
10.7644
7.84989
9.09115
11.8084
5.88316
6.02462
7.08138
8.29109
6.46118
14.0513
18.4438
13.7907
16.3987
33.3305
15.5603
9.64258
15.402
17.4873
14.609
17.0188
13.4521
13.3755
13.448
13.7585
13.5622
13.6779
14.3836
16.3988
16.28
15.3491
13.6341
13.6845
13.6113
13.5617
13.5126
13.1885
12.9847
13.4153
13.2988
14.0515
13.5133
13.4718
13.1371
13.0531
14.0265
14.294
13.6062
13.138
13.7386
14.0486
13.9722
14.4553
12.1534
3.79839
14.8958
9.433
12.7368
12.3863
12.46
12.3731
12.5216
11.2329
18.2952
18.1853
12.9019
19.0005
19.3533
17.0469
10.8936
6.91979
18.0158
19.4252
20.9748
20.956
20.5329
18.0597
19.2892
10.9692
11.5685
14.59
10.5862
17.1641
13.8589
13.0977
13.2976
13.5697
12.4948
14.8701
13.4575
13.6632
13.6884
13.5434
13.5475
13.708
6.36476
13.5639
13.5362
13.5003
34.3179
29.1925
13.7256
13.7562
31.1533
30.5822
13.6361
6.91701
12.0363
13.2989
11.7982
12.9421
12.2753
12.37
12.1193
11.8474
12.2571
12.6981
7.02372
12.3227
11.3868
13.9494
13.6955
13.7257
12.8162
13.0594
13.2931
9.12161
11.5939
11.7388
9.67488
10.0545
5.46771
5.57674
12.9201
12.7103
12.7198
11.2533
5.02436
14.2106
13.3431
13.4392
13.5017
13.9051
13.7207
13.697
13.9322
10.7076
14.0003
14.9816
14.065
13.6842
13.8452
13.9379
13.8899
13.9817
14.1749
18.421
12.4776
12.7644
7.4497
8.16151
33.3246
17.8293
19.2129
17.066
15.623
12.389
19.5406
16.0182
12.5913
12.6586
13.8969
13.7217
13.2442
4.95943
5.10744
10.5688
11.2431
11.8093
11.7886
10.9533
10.1719
11.7298
26.1607
10.1981
12.3897
11.8585
9.25675
10.5794
9.43303
12.4132
27.1706
9.67636
7.56489
12.5782
16.0569
16.3127
16.5285
16.9941
11.577
9.92849
7.57961
10.4761
12.8463
13.202
13.0872
17.0236
18.3541
11.539
12.8601
14.0555
13.6655
14.4472
14.1337
16.3897
-69.6415
26.1907
12.8312
12.803
12.6614
13.5768
13.0116
10.8356
11.3099
10.1307
10.5169
5.58435
5.01143
5.10133
5.69923
5.4955
9.17705
10.3869
20.7406
11.0812
11.5893
9.51725
14.0398
13.4354
11.9395
12.5189
11.9735
12.4022
12.6451
13.7031
13.7599
13.5227
13.5431
13.2601
9.35313
9.51861
13.3967
13.3072
13.6453
13.5583
13.4139
13.167
13.68
12.5469
12.8646
15.675
12.6204
13.1384
12.5835
12.6332
13.4691
16.0606
13.5804
12.8709
12.667
12.6565
12.7054
12.6957
13.6816
15.7551
13.597
13.595
13.325
13.5817
13.688
8.95317
7.63521
14.8821
15.1357
14.8996
14.8669
14.5522
14.5572
7.26649
7.90016
9.65947
11.1501
8.93996
8.63219
11.0481
9.58826
7.60991
13.3564
14.0657
13.2107
12.121
13.5097
13.6844
7.26143
12.4927
12.3259
11.7556
6.10315
6.84794
12.3293
13.4858
11.2222
11.3256
11.4932
11.3131
12.1373
16.0436
9.38754
7.74126
7.05097
27.2439
26.2851
7.22041
6.09743
7.27746
6.16342
6.48567
15.1966
17.3616
12.6562
9.58848
16.4797
14.0105
14.3961
17.6644
13.2637
13.9825
13.7984
13.1374
20.307
16.5051
14.4133
17.049
14.489
24.0587
14.7552
13.2341
13.8032
15.4267
19.7869
14.5051
3.3926
11.7318
4.98919
7.33181
8.61933
6.57089
7.60828
7.20372
13.7542
13.9023
14.6018
14.4166
11.8657
6.15105
4.77407
5.48182
8.31768
14.1225
10.1908
14.0723
9.75359
13.3958
13.0901
13.6425
7.5282
9.02315
9.02615
7.66003
15.4846
8.20171
9.85134
10.2451
12.4522
15.6763
9.26885
7.6538
19.1807
13.7733
6.23328
21.4329
12.4599
15.8712
14.9104
13.4045
13.477
14.0656
20.8369
13.7064
14.9577
15.0078
13.2229
14.531
12.7297
13.8341
12.976
10.4835
8.28836
8.3694
7.35005
7.14625
10.4462
11.0456
8.63534
16.1182
16.06
7.31315
3.71036
7.76329
8.83288
17.6065
14.0083
14.7864
14.5195
16.6229
11.0062
10.0316
9.27332
12.0169
13.4953
15.4613
15.6389
16.6409
37.8887
30.5335
17.8488
24.7923
22.3831
12.5952
14.5673
14.6464
15.2274
11.0731
24.6563
17.9155
17.2113
7.97111
18.8959
14.721
5.15957
12.3284
15.6068
25.4967
25.7935
25.4894
23.4299
15.7309
16.6523
14.7254
5.87883
17.0177
16.3585
14.2606
14.3764
14.0044
13.8282
17.3097
13.9008
17.1329
6.9083
14.3383
15.7268
14.9357
13.5821
13.1647
13.3848
13.9066
16.1242
14.0874
16.0517
13.0484
12.9278
14.4404
5.05603
3.80942
11.1172
11.2779
8.52434
10.4821
14.5126
14.9079
14.0654
13.7416
13.7911
5.6108
4.12448
11.7712
12.0109
6.54085
4.19345
9.5042
10.1777
10.477
9.30407
10.0033
10.5275
10.9117
14.0566
16.5734
11.5525
12.4103
19.2563
13.2438
12.9857
14.3529
14.1332
14.0191
14.48
9.78186
8.76727
6.661
6.26454
6.32198
14.6482
13.9889
4.39846
13.5897
4.08152
12.5045
12.3549
11.0132
10.932
10.9801
8.48149
11.1949
7.26747
10.769
6.56598
8.53442
6.90584
12.6259
8.88714
18.2703
13.7239
5.86142
9.25098
13.5389
10.9696
13.2129
12.9714
6.76085
13.0593
12.2646
17.3647
-8.6139
13.4932
12.8606
13.4867
12.7546
13.1131
48.7839
45.396
55.5771
21.1703
16.6483
13.2062
9.64627
20.3079
13.152
20.8241
16.0882
13.9175
13.6905
14.2925
13.8305
14.6426
13.6321
13.5169
12.2953
12.97
12.8019
13.6999
13.0848
12.7521
13.619
13.4715
14.9766
15.8376
13.8194
16.2629
15.8211
15.8905
12.6609
10.9113
5.61807
7.4121
6.53273
12.3851
12.1603
12.6402
15.9349
14.0691
14.6212
11.7278
9.72803
9.37464
12.1894
13.7411
12.2802
12.6357
16.4384
30.3541
33.49
13.9504
13.1992
14.8718
13.5667
13.7199
13.7714
14.5458
13.1089
13.2882
13.6697
13.656
13.5753
13.7392
13.7747
12.4757
12.6474
11.3931
12.491
13.7367
13.656
13.774
13.5397
13.5954
13.3721
13.3048
10.9298
11.4621
11.0249
11.6355
12.2857
13.0646
12.276
13.7831
13.8625
13.9362
14.742
12.6025
14.5696
12.6801
14.3453
12.4394
14.6124
11.9239
11.8414
13.628
13.7084
13.6906
13.6679
12.9501
12.9773
12.1304
12.5996
13.4341
12.7626
13.5426
13.5809
13.6997
13.4075
13.6813
13.5829
13.5789
13.5986
9.89223
13.6748
14.2965
14.1427
13.7091
13.629
13.0817
18.4825
16.4584
16.2214
16.0247
19.4793
17.5621
15.9652
15.6131
13.2864
13.781
13.8517
19.8865
28.815
26.8023
16.8835