/*--------------------------------*- C++ -*----------------------------------*\
| =========                 |                                                 |
| \\      /  F ield         | OpenFOAM: The Open Source CFD Toolbox           |
|  \\    /   O peration     | Version:  2506                                  |
|   \\  /    A nd           | Website:  www.openfoam.com                      |
|    \\/     M anipulation  |                                                 |
\*---------------------------------------------------------------------------*/
FoamFile
{
    version     2.0;
    format      ascii;
    arch        "LSB;label=32;scalar=64";
    class       volVectorField;
    location    "0.0501868";
    object      U;
}
// * * * * * * * * * * * * * * * * * * * * * * * * * * * * * * * * * * * * * //

dimensions      [0 1 -1 0 0 0 0];

internalField   nonuniform List<vector> 
3989
(
(10.0056 0.00872207 0.00515705)
(9.94776 0.0661683 0.00769826)
(9.81144 -0.0536499 -0.0114066)
(9.91347 -0.099898 -0.0118895)
(9.73016 0.733281 0.0905097)
(10.0061 0.101305 -7.90189e-05)
(10.0023 0.00636628 0.00591296)
(9.74561 -0.048297 -0.045886)
(10.0025 0.016707 0.00722673)
(10.547 0.352161 0.0185826)
(9.98348 0.0135718 0.00514872)
(9.99634 0.0320211 0.00401506)
(10.1721 0.019141 0.0409079)
(10.0075 0.0104086 -0.00669576)
(9.99481 -0.0177666 -0.00671711)
(9.06415 0.537759 0.364473)
(9.99889 -0.00376917 0.000699672)
(10.211 0.292309 0.020722)
(10.011 0.0198319 -0.00722873)
(9.80688 0.384738 -0.00972394)
(10.005 0.0138927 0.018161)
(10.0481 0.029858 -0.0153322)
(10.259 0.185844 0.0474242)
(10.2795 0.103344 -0.0246639)
(9.91402 0.0849142 0.0361742)
(10.0652 -0.0991025 0.0367794)
(10.3389 0.188212 -0.0102049)
(10.0003 0.00356393 0.00571821)
(10.005 0.0514098 0.00349346)
(10.0072 0.00379049 -0.00679974)
(9.98653 1.79586e-05 0.00261782)
(10.5117 0.0418831 -0.0568913)
(10.1902 0.222757 0.0234554)
(10.0054 0.00506234 0.00575284)
(10.4866 0.0188853 -0.0301923)
(9.97573 -0.0138158 0.00616093)
(10.0086 0.0153087 -0.00797458)
(10.1651 0.281905 0.0401347)
(10.0041 0.023561 -0.00252851)
(10.0317 0.00639441 -0.000543803)
(10.2092 0.0752346 -0.0233601)
(10.001 -0.00853595 -0.00190672)
(9.99781 0.00177785 0.00404381)
(10.0029 0.000823503 0.00754242)
(10.0234 0.111864 -0.0102286)
(10.002 0.0135158 -0.00396607)
(10.0069 0.0354304 -0.00245186)
(9.96759 -0.0112532 0.0106622)
(10.0009 -0.00361505 -0.000200029)
(9.98535 0.203558 -0.0226273)
(10.456 0.370091 0.0651677)
(10.0073 -0.00324266 0.0123207)
(10.009 -0.00243814 0.00566306)
(10.0033 0.00405894 0.00613475)
(9.85445 0.112252 0.00206284)
(10.0103 0.00190668 -0.00677979)
(9.99666 0.0168256 -0.00174541)
(10.2181 0.0760998 -0.0160055)
(10.1502 0.0244769 0.0220298)
(10.2382 0.0683695 -0.0280342)
(10.192 0.0703001 -0.00335057)
(10.0765 0.0103048 0.0272673)
(5.86206 1.24218 -5.04547)
(1.40907 1.7502 -3.3969)
(9.21888 0.810332 0.099026)
(10.003 -0.00155388 -0.00210558)
(10.0765 -0.145093 0.01379)
(9.98413 0.162445 0.0304471)
(10.1288 0.136862 -0.0419038)
(10.0532 0.235654 -0.0241832)
(9.96634 -0.00585211 0.00777054)
(9.93572 0.139868 -0.00375111)
(10.0262 0.250763 0.0132428)
(10.0393 0.279638 0.0179418)
(9.91492 0.275876 -0.0163576)
(9.65235 0.393338 -0.156591)
(10.0099 0.238074 0.00907626)
(10.1023 0.238103 0.0184349)
(9.93509 0.240302 0.00694456)
(10.0067 0.187042 0.0113814)
(9.95751 0.173993 0.00596433)
(9.99949 0.0231899 -0.00632891)
(10.0653 -0.13866 0.0124863)
(10.2211 0.698312 -0.110169)
(10.0752 0.933651 -0.0772779)
(9.97935 -0.00164777 0.00747283)
(10.0704 0.821734 -0.0514183)
(10.0034 0.00569657 0.00405127)
(9.78608 -0.0343925 -0.0334421)
(10.0115 0.00263821 0.00473627)
(10.0592 0.829029 -0.110585)
(10.0076 0.0231739 0.00312466)
(10.003 0.0182944 0.00544415)
(10.1901 0.185814 0.040131)
(10.0029 0.003452 0.00748683)
(10.3138 1.08023 -0.362835)
(10.4067 0.818377 -0.282286)
(9.97803 -0.0587668 0.0325768)
(10.3064 0.958179 -0.282528)
(10.6692 0.719585 -0.293353)
(10.007 -0.0125683 0.00773824)
(9.99632 -0.0138102 0.00459682)
(9.99894 -0.00462853 0.00722589)
(9.98273 -0.00643833 0.00085035)
(10.4581 0.340972 0.0178316)
(9.99949 0.00189281 -0.000263269)
(10.1472 0.0901043 -0.0370289)
(9.99878 -0.0151453 0.000796546)
(10.0061 -0.006902 0.00881793)
(10.3886 0.307421 0.0071694)
(10.1615 0.0513164 -0.000973631)
(9.99831 -0.00929498 -0.00132754)
(9.75805 1.40742 -0.571225)
(9.83473 1.49037 -0.638048)
(10.0083 0.0254172 -0.00745159)
(10.0598 1.27791 -0.856253)
(9.93401 1.16469 -0.597782)
(10.1266 0.0366744 -0.00259051)
(10.0051 0.00964988 0.00685414)
(9.98887 0.00482679 0.00254505)
(10.0434 0.125081 -0.030576)
(10.0048 0.011078 0.00652752)
(10.0408 0.0592784 -0.0321073)
(9.99933 0.00630689 -0.0036739)
(9.29605 0.680026 0.853362)
(9.85491 0.105813 0.0268899)
(9.99904 0.00605228 0.00222927)
(10.0277 0.250975 0.0553508)
(9.97141 0.00447444 -0.000541557)
(10.3681 0.370294 -0.0466051)
(10.3102 0.162989 -0.00941168)
(9.9796 -0.0124858 0.0070067)
(10.0989 0.0666086 -0.0220702)
(9.97702 0.0107536 -0.00393625)
(9.98492 0.00483621 -0.000721322)
(10.017 0.0176316 0.0115401)
(10.0004 -0.00153202 -0.00818429)
(10.0029 0.00166717 -0.00703949)
(9.99958 0.000812115 -0.0065184)
(9.9864 0.0159407 0.000829623)
(9.98549 0.0125228 -0.00448658)
(9.97077 0.0200063 -0.00534126)
(10.2397 0.536788 0.062124)
(10.0021 0.00447946 0.00252391)
(10.0013 -0.00457913 -0.00257514)
(10.5323 0.361615 0.0230625)
(9.99741 -0.0179371 0.00317961)
(10.7543 0.642913 -0.22612)
(10.019 0.054176 0.00307991)
(9.76283 0.214257 0.0381)
(9.46235 -0.0336811 0.100787)
(10.4216 0.041886 -0.0462388)
(10.4749 0.0365933 -0.0466872)
(10.3659 0.0406521 -0.0397285)
(10.4477 0.00217418 -0.0541165)
(10.3982 0.0190144 -0.0380121)
(9.69259 -0.0317867 -0.0192193)
(10.4451 0.0705452 0.0176834)
(10.0029 0.0296375 0.00053865)
(9.98345 -0.00290623 0.00174552)
(10.0023 0.000586319 0.00502674)
(9.58453 0.404727 0.0760094)
(10.0038 0.011774 -0.00804117)
(9.98953 0.0139516 -0.00315098)
(9.98876 0.0197355 -0.00751685)
(9.41254 1.17862 0.529296)
(10.377 0.519479 -0.0648563)
(9.99916 -0.00907456 0.00486053)
(9.53537 0.895283 -0.282826)
(10.2274 0.547734 -0.386512)
(9.57423 0.114379 0.304923)
(9.99098 0.0204138 0.00853057)
(10.0273 0.0199883 0.0242398)
(10.258 0.326191 0.0729562)
(9.89027 0.0855793 0.0067105)
(9.90957 -0.105428 -0.00069816)
(9.99662 -0.00320153 0.000119523)
(10.1019 0.103469 -0.0279815)
(10.5207 0.0486027 -0.0207374)
(10.3475 0.396237 -0.0666755)
(10.2068 0.087388 -0.0187346)
(10.3296 0.630783 0.163122)
(10.0117 0.000917394 0.00640624)
(10.398 0.937541 0.2829)
(10.045 0.0174391 0.0218894)
(10.1597 0.0684542 0.00162083)
(9.77764 0.646373 -0.97444)
(10.1449 0.0609776 -0.00605745)
(9.98764 -0.0442889 0.0127549)
(10.0039 -0.00444877 0.00642217)
(9.8395 0.442024 0.0943584)
(10.0097 0.910169 -0.598284)
(10.1854 0.0543741 -0.0346752)
(10.0244 0.00797724 0.0205108)
(9.87765 -0.171541 0.0184579)
(10.0255 -0.00117076 0.019493)
(0.654815 1.47258 -5.18742)
(8.91462 0.729736 0.466691)
(9.64211 0.730505 -0.511501)
(10.0883 0.585831 0.0419225)
(10.1981 0.024569 0.0196518)
(10.0021 0.00894466 -0.00899698)
(9.97391 0.0172246 -0.00589891)
(10.0054 0.0309797 -0.00404943)
(9.98238 0.00947709 0.000922784)
(10.0126 0.0138888 -0.00839461)
(10.0106 -0.0121342 0.000763297)
(10.005 -0.0084114 -0.00686948)
(8.64583 1.48386 -1.63046)
(8.71896 1.51101 -1.94906)
(10.0147 -0.0129756 -0.000275056)
(9.02283 1.65318 -2.7257)
(7.94628 1.41618 -2.17214)
(9.68437 -0.107232 0.101173)
(10.3762 0.0629277 0.00193084)
(13.3048 1.1982 -3.25812)
(8.27056 1.46716 -2.34298)
(9.96018 -0.0406437 0.0130585)
(9.98068 -0.0220875 0.000311548)
(9.982 -0.0182053 0.00687245)
(9.87096 0.473594 0.0723447)
(10.025 0.492772 0.104111)
(10.0024 0.0167411 -0.0014977)
(9.64806 0.914475 -0.693624)
(9.97862 0.0175054 -0.00248454)
(9.97112 0.0716717 -0.00775524)
(9.88914 0.123482 0.0274346)
(9.59473 0.834607 -0.492292)
(9.96432 0.0725857 -0.0141996)
(10.0391 0.155174 0.0173882)
(10.1532 0.0947309 -0.0178714)
(10.1531 0.0759946 -0.0359905)
(10.1935 0.0751673 -0.0168811)
(10.2481 0.119022 -0.00888372)
(10.0024 0.0110854 0.00135084)
(9.95026 0.000773664 0.00696973)
(9.97361 -0.013118 0.0133774)
(10.0163 0.00920468 0.00551223)
(10.0186 0.040174 -0.0082331)
(10.3885 0.0947068 0.0163672)
(9.29177 0.828253 0.399321)
(10.0061 0.00149987 -0.00792551)
(10.0024 -0.00573752 -0.00699568)
(9.97773 -0.000162923 0.00124518)
(9.99073 0.00141024 -0.00140741)
(9.50497 1.00235 0.116825)
(9.9858 0.0118305 0.00458703)
(9.99533 0.028032 0.00256925)
(10.0108 0.0222404 -0.000624385)
(10.0104 0.0303876 -0.00714017)
(9.97803 0.0205181 0.00226448)
(9.73282 0.795441 -0.0663129)
(10.0049 0.0162047 0.00498299)
(10.0022 0.0111586 0.00774703)
(9.98969 0.00807523 0.00494864)
(10.0063 0.0195543 0.00429323)
(9.99165 0.0187418 -0.00929488)
(10.0017 0.0635863 0.000648443)
(9.7152 0.230108 -0.00766891)
(9.9389 -0.0592415 -0.040387)
(9.81356 0.132179 -0.0104465)
(10.2024 0.134661 -0.00211044)
(10.0411 0.0801406 -0.041265)
(10.3861 0.213651 0.0301116)
(9.94952 0.309506 -0.0223245)
(10.0597 0.153441 0.0368327)
(9.70556 -0.243165 0.000251492)
(7.83079 1.26391 -1.53993)
(10.1112 0.0789524 -0.0177565)
(10.0909 0.0782732 -0.0101534)
(10.0929 0.010725 0.0685526)
(9.98139 -0.000224217 -0.00590516)
(9.98692 -0.00347396 -0.00332077)
(10.3757 0.590038 -0.154129)
(10.0145 -0.000112413 0.0109186)
(10.0358 0.45379 -0.176153)
(9.99369 -0.0011298 0.0167428)
(10.0115 0.0104114 0.0213621)
(9.87896 -0.118012 0.0105502)
(10.4795 0.570225 -0.122259)
(10.0013 -0.0300396 0.0100515)
(10.2441 0.10513 -0.0486504)
(10.2263 0.0627402 -0.022376)
(10.2867 0.0858742 -0.0304793)
(10.0875 0.360262 0.0226908)
(10.1116 0.355889 0.0170324)
(10.2559 0.0489069 -0.0120902)
(10.1729 0.0314235 0.0253807)
(10.1603 0.0248027 -0.00341596)
(10.1957 0.0467692 -0.0300382)
(9.98758 -0.0124252 -0.00528875)
(9.98825 -0.0170374 -0.0101859)
(10.0867 0.00373533 0.00271735)
(9.76079 0.307417 0.107125)
(9.99069 0.00463902 -0.0220401)
(9.99197 0.0420933 -0.0134199)
(9.99762 0.114262 0.0133604)
(9.95389 0.0750066 -0.0113507)
(6.8108 1.47085 -3.09951)
(7.85479 1.05218 -2.43364)
(9.8256 0.0838894 -0.0364553)
(9.96112 0.0251804 -0.0087628)
(9.97989 0.0125402 0.00194352)
(9.25231 0.727257 -1.6708)
(9.97753 0.0209022 -0.00664568)
(7.46591 1.0521 -1.36693)
(10.2675 0.133153 0.0386924)
(9.99844 0.040531 0.00276933)
(10.0097 0.01915 -0.00328333)
(10.0049 0.00841037 -0.00700751)
(9.50014 -0.154442 0.110234)
(10.4138 0.577831 0.0748057)
(6.94953 1.01346 -1.34921)
(6.32949 1.19849 -1.77691)
(10.0017 -0.0047861 -0.00712438)
(9.98388 -0.00437421 -3.02094e-05)
(10.2205 0.777097 0.0797322)
(10.0155 0.270749 0.00864798)
(10.4404 0.209295 0.0282515)
(9.88124 0.352828 0.0233267)
(10.6076 0.245337 0.036337)
(10.1013 0.163184 -0.004535)
(10.0994 0.355558 -0.0208383)
(10.0354 0.66017 0.210151)
(10.3501 0.31138 0.00464137)
(10.0675 1.04379 -1.58815)
(10.0694 0.00584957 0.0238199)
(10.0274 0.25896 -0.0116493)
(10.032 0.355665 0.0284343)
(10.2517 0.0968491 -0.0360065)
(10.2869 0.541246 0.136802)
(9.89692 0.283459 -0.0162229)
(8.10961 0.533674 -0.252141)
(9.95692 0.122253 0.0181619)
(10.0383 0.896726 0.106056)
(10.3147 0.387808 -0.0683832)
(9.9121 0.284867 -0.0529707)
(10.1436 0.128001 0.0217448)
(9.98849 -0.000709883 0.00350763)
(10.0063 -0.00300655 0.00524522)
(7.41872 0.829679 -2.20287)
(9.88563 0.14174 -0.00366652)
(10.2401 0.428995 -0.0783011)
(9.85153 0.178409 0.00515263)
(10.3979 0.726555 0.0474506)
(9.38073 1.08339 -0.834865)
(9.06855 0.851344 -5.47702)
(10.0009 -0.00210346 0.00266854)
(10.5739 0.335849 0.084928)
(9.99386 0.729525 0.452186)
(10.1067 0.412986 0.0509902)
(9.77527 0.184518 -0.00186512)
(9.74946 0.188931 -0.0144121)
(10.1371 0.298165 0.0371882)
(9.80769 0.515674 0.166115)
(10.0056 0.0860802 -0.0218075)
(9.87463 0.112311 0.000343445)
(9.9363 0.147115 -0.050742)
(7.89377 0.402517 -7.91993)
(10.0056 0.0456946 -0.0032783)
(10.4977 0.0656599 -0.0130161)
(9.81813 0.111471 0.010625)
(9.98877 0.071208 -0.0280664)
(9.23132 1.73664 -5.76549)
(10.0245 0.814116 -3.08426)
(9.93016 0.100812 -0.00696766)
(9.93338 0.0961768 0.0309784)
(10.0013 0.460314 -0.0723663)
(10.0827 0.0798402 0.00321192)
(10.0121 0.0363872 -0.0143175)
(9.81228 0.182254 -0.0221223)
(9.8504 0.605771 -0.414612)
(10.5193 0.00285286 -0.0197395)
(9.8597 1.08531 -0.0380433)
(9.84855 0.256692 0.0234614)
(9.95311 0.508091 0.0475661)
(10.5107 0.159363 0.0387442)
(9.96022 -0.0127857 -0.00855839)
(10.502 0.51604 0.0943527)
(10.4134 0.228369 -6.3409e-05)
(9.98609 0.00855932 -0.00604069)
(10.0033 0.0116955 -0.00758441)
(10.0064 0.0138036 -0.00670127)
(9.98413 -0.0108356 0.00443779)
(9.99065 -0.00233523 -0.0109362)
(10.1794 0.636056 0.116404)
(10.0341 0.00641786 -0.0180265)
(9.96096 -0.00947744 0.00418219)
(10.0319 0.00196041 -0.00655713)
(10.0365 0.030669 -0.0142802)
(9.97497 0.0588405 -0.0408938)
(9.88674 0.275791 -0.0240406)
(10.0015 0.0241535 0.00051784)
(9.99021 -0.00495536 0.0118743)
(10.0444 0.0170314 -0.0141757)
(9.68526 0.126676 -0.0554454)
(10.0005 -0.00434436 -0.00301261)
(9.97926 -0.00716753 0.00587508)
(9.25265 0.781089 -1.40528)
(10.0282 0.5943 0.204642)
(9.9922 -0.0184439 -0.0289669)
(9.99749 -0.006412 -0.0344532)
(10.0058 -0.00265047 0.00111069)
(9.98743 -0.00088388 -0.00182884)
(10.0159 0.00104717 -0.00226003)
(9.81364 0.190888 0.0174572)
(9.64339 -0.135286 -0.138811)
(12.0054 0.815756 -3.06014)
(9.65384 0.0249765 0.160901)
(9.31702 1.24196 -1.55188)
(10.3522 0.222766 0.0265059)
(11.012 1.03138 -2.31214)
(8.8435 0.891276 0.0264738)
(1.60938 1.29555 -4.21209)
(10.1404 0.439487 -0.0411045)
(8.38022 1.48368 -3.30427)
(9.4864 0.81536 0.329165)
(9.72881 0.944835 0.0319471)
(9.64434 0.818345 -0.54558)
(10.2179 0.617155 0.251207)
(3.17709 1.3663 -5.27469)
(9.95632 -0.00845014 -0.00372092)
(9.95357 0.00194992 0.00969364)
(0.412528 1.59939 -6.16467)
(9.69222 0.0384935 0.0482954)
(9.90063 0.10687 0.0337771)
(9.71257 0.378644 -0.0372333)
(6.07382 1.37855 -2.97515)
(9.87723 0.826372 -1.26998)
(9.28621 0.581304 -0.495333)
(9.8 0.137901 -0.0241112)
(9.81036 0.116402 -0.0532253)
(10.0519 0.275075 0.0297793)
(10.3664 0.215015 0.0341171)
(10.1357 1.35935 -5.23961)
(9.57301 0.625442 -0.24091)
(10.0036 0.0099536 0.00992969)
(9.98999 0.0134904 0.00257461)
(9.80835 0.859809 0.425482)
(9.78587 0.220599 0.0312971)
(9.57271 0.591595 0.382394)
(8.78862 1.15302 -0.0837562)
(9.18292 0.900937 -0.445465)
(9.98442 -0.0106636 0.00372482)
(10.0063 -0.0119251 0.00750416)
(10.001 0.574225 -0.00635277)
(10.0064 -0.0116809 0.0067482)
(10.0588 0.108845 0.0507589)
(9.97908 -0.0076441 -0.000420636)
(10.002 -0.0108242 0.00293529)
(10.0372 0.54707 -0.785624)
(9.916 0.0734456 0.00406425)
(9.86558 0.021151 -0.0179604)
(9.55095 -0.0488544 0.0995546)
(7.75679 0.923673 0.294836)
(9.89455 -0.0903089 0.0140765)
(9.98662 -0.00388062 -7.0174e-05)
(10.0018 -0.00525868 0.00546328)
(9.52115 0.14249 0.0319497)
(9.73705 -0.150891 -0.0119238)
(9.87211 0.550365 0.525593)
(10.0001 0.0029292 0.00852146)
(9.96914 -0.00119837 0.00225358)
(9.99156 0.000633078 0.00519108)
(9.98199 -0.000990245 0.00237078)
(9.99978 0.00533617 0.00718499)
(10.3355 0.0787728 0.0294576)
(10.2696 0.0702139 0.0488913)
(9.95986 0.00854424 -0.00292689)
(10.0151 0.00767388 -0.00814774)
(9.99267 0.00331798 -0.00503935)
(9.97902 0.0053284 -0.00236217)
(10.0083 0.00569407 -0.0107993)
(9.98154 0.00893284 -0.00590593)
(9.84129 0.388182 -0.0929277)
(10.0055 0.0130879 -0.00804201)
(10.2717 0.120428 -0.00495858)
(10.1842 0.0696507 0.0162741)
(10.1822 0.0711195 -0.017703)
(10.2466 0.0830699 0.0145266)
(9.9813 0.00656259 0.00339759)
(10.063 0.190152 -0.0167855)
(10.0109 0.0173429 0.00477768)
(9.94714 0.144346 -0.0335826)
(9.46118 0.243053 0.0843377)
(9.99927 0.000800641 0.00343691)
(10.0023 0.0240076 -0.000383721)
(9.97549 0.0150099 0.00188147)
(9.87886 0.0686962 0.00303623)
(9.62133 0.0614774 0.0831544)
(10.4026 0.140303 -0.00633514)
(9.71659 -0.0399585 0.0123818)
(9.95902 0.0758693 0.00852995)
(9.97884 -0.0705865 0.0155631)
(9.996 0.000384369 -0.00719595)
(9.96347 0.0120391 0.0284519)
(9.72248 0.491851 0.312467)
(9.79113 0.313038 -0.0675293)
(9.89512 0.232004 0.0283222)
(10.0491 -0.0912251 0.0193127)
(9.95573 -0.0419385 -0.0378422)
(10.0077 -0.00746837 -0.0246198)
(9.94725 -0.0124119 -0.00221365)
(9.81138 0.262241 0.0563564)
(9.79044 0.0321669 -0.00449914)
(9.97613 -0.0146673 0.00241835)
(10.0396 0.0217769 -0.0088674)
(9.95076 0.0190662 -0.00424078)
(9.98637 -0.00973988 -0.0130508)
(10.0585 0.0253127 -0.0149301)
(9.7619 -0.265612 0.148203)
(9.99219 0.0177956 -0.00946357)
(10.058 0.0512187 -0.00776189)
(9.95082 -0.104205 0.0104675)
(9.86593 0.1472 -0.00338733)
(9.94901 -0.0144307 0.00808078)
(9.98708 -0.00283352 -0.00606499)
(10.5066 0.16756 0.0198732)
(10.3689 0.00187165 -0.0259914)
(10.482 0.146747 0.00182689)
(10.4468 0.125532 -0.0113806)
(10.4637 0.0459694 -0.0180601)
(9.97124 0.00810167 0.0106925)
(10.2474 1.14142 -0.159891)
(10.5572 0.00642588 -0.0454499)
(10.6742 0.363502 0.0780469)
(10.2517 0.722244 -0.00979791)
(10.0229 0.088647 -0.00113889)
(10.139 0.405408 0.0880332)
(10.3842 0.411022 0.064149)
(10.076 1.22235 -0.640311)
(10.2047 0.385373 -0.0229962)
(10.3073 0.00888471 -0.00311303)
(9.71546 0.409044 -0.0539485)
(9.83246 0.482637 -0.211923)
(10.4355 0.472105 -0.0584325)
(9.31743 0.733535 -0.882223)
(10.4257 0.0419941 -0.0139326)
(10.3763 0.0307535 -0.0249289)
(10.0672 0.0945085 -0.0389359)
(9.99509 -0.0164923 0.00350685)
(10.0556 0.0155188 0.0238419)
(10.0039 0.0224969 0.024546)
(5.99876 2.2463 -1.57587)
(0.981024 0.800331 -1.43086)
(9.93029 0.720715 0.260127)
(9.60586 0.938166 0.377583)
(9.56608 0.712594 -0.306379)
(10.0418 0.0938947 -0.0321405)
(9.89218 0.0125081 -0.0282773)
(9.40165 -0.19559 0.167639)
(9.99476 -0.0268913 0.000603631)
(9.82231 0.275019 0.0192225)
(10.0565 0.539803 0.0892791)
(10.0517 0.630809 0.216088)
(10.0859 0.687981 0.416183)
(9.72029 -0.0750659 0.00888344)
(9.95306 0.468483 0.1412)
(9.82483 0.608993 0.13864)
(10.014 0.463565 0.0549215)
(10.485 0.0370795 -0.0555206)
(10.3254 0.463523 0.0257504)
(10.455 0.0277275 -0.0358992)
(9.53694 0.994358 0.505299)
(9.9741 0.393848 0.0268028)
(10.2562 0.253333 0.042229)
(9.32103 0.923431 0.500646)
(10.056 1.02258 -1.02215)
(10.0425 0.305844 0.0323613)
(10.3552 0.159885 -0.0139839)
(10.4058 0.156208 0.0244879)
(10.3927 0.812156 -0.0182752)
(8.76518 0.892189 -0.108056)
(7.04746 1.24605 -2.77194)
(10.1463 0.390594 0.0916376)
(10.604 0.397256 0.00986269)
(10.6361 0.439313 0.0484932)
(9.9638 0.511288 0.158447)
(9.94423 0.371821 -0.00737074)
(8.46387 0.649456 0.336677)
(9.73792 0.046862 0.0451421)
(9.62857 -0.0977295 0.119714)
(10.436 0.349668 -0.0242656)
(8.45076 1.11106 -1.35527)
(9.13602 1.07907 0.323707)
(9.93093 0.597467 0.10083)
(10.4683 0.0368967 -0.0222707)
(10.5565 0.414628 0.0847158)
(9.48259 0.319969 -0.103126)
(9.93978 0.426698 -0.0257698)
(9.93392 -0.10396 0.00535013)
(10.4262 0.775318 0.240956)
(10.0679 0.289851 0.0257475)
(0.0640459 0.864224 -4.24837)
(3.0911 1.19668 -5.01822)
(10.2364 0.541239 0.00586688)
(10.0016 -0.0036034 -0.00157374)
(10.0422 -0.119226 0.0207661)
(9.97958 -0.0237541 0.00666011)
(9.98118 -0.0249089 -0.000129394)
(9.96378 -0.0922699 0.00198299)
(9.9665 -0.0293908 0.01189)
(10.1203 0.186617 0.000307654)
(10.0352 0.0122771 0.0245659)
(10.2862 0.14693 -0.00309182)
(9.99571 -0.0149699 0.00180124)
(9.83269 0.408179 0.0573517)
(9.87682 0.228167 -0.035106)
(10.1467 0.62099 0.211781)
(10.0006 -0.00359927 -0.00168613)
(10.0695 0.0847218 -0.0167621)
(9.83752 0.230341 -0.0221045)
(9.998 0.00968386 0.00159315)
(10.487 0.549674 0.0218427)
(9.97549 -0.0377653 -0.00622889)
(10.7222 0.378787 0.0611035)
(9.99791 0.0749047 -0.00921837)
(10.0813 0.155288 0.0143601)
(9.9709 -0.0322245 -0.0229607)
(10.0625 0.178686 -0.00190074)
(10.061 0.218539 -0.00538495)
(10.4396 0.271382 -0.000137325)
(10.4207 0.0141829 -0.0424724)
(10.0158 0.0452678 0.00111236)
(9.63147 -0.0543271 -0.0686726)
(9.99393 0.341693 0.0233432)
(9.94259 0.668523 0.212511)
(9.97834 -0.0233007 -0.0249218)
(10.0029 0.0013039 -0.00232682)
(9.97501 0.0163509 0.00269272)
(9.95239 0.0460069 -0.0177711)
(10.0009 0.0160968 0.00261741)
(10.0018 0.0199496 -0.00304204)
(10.034 0.0345375 -0.0116878)
(9.99941 0.00450706 0.005172)
(10.0039 -0.0105405 0.0028675)
(9.99934 0.00574308 -0.00235655)
(10.0144 0.0569362 0.0196343)
(10.0074 0.0156544 0.00574547)
(10.0009 -0.00177822 -0.00114301)
(10.0421 0.0351828 0.00191379)
(10.0002 0.00201495 0.0022777)
(9.81941 0.153045 -0.00614106)
(10.0001 -0.0182616 0.00222832)
(9.98082 0.0164618 0.0035562)
(9.9991 -0.0376537 0.0109858)
(10.0029 0.0116147 -0.00701576)
(9.9992 0.00138472 -0.000647094)
(9.86239 0.0404142 0.00147731)
(9.96413 -0.0699291 0.058216)
(10.0036 -0.024734 -0.0123918)
(9.83686 0.162322 0.0272327)
(10.0021 -0.0117353 0.0045543)
(9.96042 0.0673321 -0.0312377)
(9.97489 -0.0720628 0.0120856)
(10.0029 -0.00670301 -0.00846562)
(10.003 0.00817123 -0.00522249)
(10.0093 0.230776 0.0480573)
(10.0479 0.00971479 0.0222789)
(9.99976 0.0184754 -0.0050641)
(9.99195 0.0344529 -0.00293426)
(10.2203 0.0483214 -0.000423396)
(9.8557 -0.0362446 -0.0336042)
(9.94436 0.0379902 0.018904)
(9.92021 0.0768833 -0.00687598)
(9.99926 0.0285128 -0.00375244)
(9.90316 0.0866471 0.0241386)
(9.95747 0.0660173 0.0102542)
(10.2579 0.419573 0.0691362)
(9.97885 0.333442 0.00794053)
(9.99216 0.120298 0.0229394)
(10.0329 0.0418771 0.00202232)
(10.6 0.298413 0.00526288)
(10.0641 0.158755 -0.00843166)
(10.0609 0.316397 0.0306827)
(9.93204 0.597908 0.662651)
(10.3683 0.529398 0.0142401)
(9.94912 0.109009 0.00183959)
(9.89591 0.320906 -0.0360961)
(9.96632 -0.0237143 -0.00659245)
(9.95299 -0.0851686 0.0301662)
(10.2883 0.793309 0.147855)
(10.1662 0.882064 0.179297)
(9.947 0.651427 0.0981575)
(9.88774 0.873433 0.189001)
(9.98288 0.74288 0.176071)
(10.1509 0.862333 -0.351578)
(9.97157 0.0318169 0.00403878)
(10.1992 0.977366 0.330762)
(10.1539 1.19929 0.241872)
(10.439 0.963553 0.204767)
(9.86347 -0.145565 0.0193437)
(10.245 0.951283 0.240872)
(9.96673 -0.0107043 -0.00150695)
(10.1456 0.0858127 -0.00758353)
(10.5147 0.324373 0.0734876)
(9.87212 -0.113414 0.00754054)
(10.0098 0.0082747 0.00790218)
(10.127 0.0648459 -0.0262495)
(10.316 0.21827 0.0361994)
(10.6417 0.302719 0.0257499)
(10.443 0.602518 0.0990173)
(9.91982 0.243019 -0.0240175)
(10.4897 0.445115 0.0379908)
(10.0637 0.0215315 -0.0180879)
(10.2778 0.479488 -0.0827463)
(9.99234 -0.0395513 0.0149472)
(9.9601 -0.0380397 0.0161432)
(9.90218 0.232807 -0.035391)
(10.1069 0.437604 -0.0243832)
(9.9995 -0.00247151 -0.000124731)
(9.93641 -0.039826 0.0229389)
(9.75447 -0.217472 0.00509955)
(9.79322 -0.212178 0.0212144)
(10.0109 0.0228299 0.00025918)
(9.91918 -0.0115791 -0.00495772)
(9.92495 0.153513 -0.000221902)
(9.80964 0.442247 -0.161052)
(10.0948 0.0212771 0.0780806)
(10.1339 0.105969 -0.0290766)
(9.95345 -0.0411626 0.0218359)
(9.92087 -0.0568827 0.0216648)
(9.9767 -0.0157864 0.00179094)
(10.0471 0.115805 -0.00733943)
(10.1019 0.219785 0.00799225)
(10.0408 0.089056 0.0124659)
(9.71908 0.244425 0.100273)
(9.26498 0.577556 0.033456)
(9.88884 0.253229 -0.0223582)
(9.94291 -0.0118467 0.0214662)
(9.91685 -0.0424816 0.0176381)
(9.87331 -0.0400245 -0.0362635)
(9.84477 -0.0405919 -0.0228399)
(9.86461 -0.0826722 -0.0242665)
(9.76451 -0.218477 0.0402394)
(10.2065 0.720567 0.179447)
(10.8351 0.77976 -0.759719)
(10.4091 0.525306 -0.502059)
(9.78994 -0.191452 0.0363455)
(9.83945 0.161789 0.00430851)
(9.86325 -0.120757 -0.0132098)
(9.8103 0.0424931 -0.00314531)
(9.98084 0.0221002 -0.00445559)
(9.03961 0.938752 -0.124915)
(8.06163 1.27908 -5.2017)
(9.99101 0.332013 0.0232477)
(10.3946 0.775949 -0.434581)
(5.93795 1.57645 -3.43879)
(10.3506 0.0456388 0.00813634)
(8.36232 0.554505 -0.289472)
(9.83239 0.170079 0.0132372)
(9.84614 0.189628 -0.0194389)
(10.2105 0.0794022 -0.0345017)
(10.1908 0.0759133 -0.0254927)
(8.40245 1.53967 -5.58181)
(5.58414 1.58564 -7.3981)
(2.95071 1.82744 -10.2531)
(10.1592 0.0852672 -0.0238357)
(9.82462 -0.0851531 -0.0241448)
(9.79811 -0.0687725 -0.0269405)
(9.83867 -0.0763996 -0.00675569)
(9.90469 0.0415094 -0.0372769)
(9.80251 -0.0580575 -0.0044171)
(10.0003 -0.00581329 -0.00191925)
(10.0018 0.0161781 0.00151986)
(10.0011 0.00430118 -0.00175009)
(9.89849 0.268338 -0.0329608)
(10.0103 0.0421072 0.00505984)
(10.0232 0.206386 -0.00615688)
(10.0037 0.00818974 -0.00670697)
(9.9971 0.0172822 0.00166649)
(9.97945 -0.00899902 0.0121051)
(9.98938 0.0437231 0.00650628)
(9.96181 0.215899 -0.0215393)
(10.0241 0.0555117 -0.0403085)
(9.94857 0.119482 -0.00263797)
(9.85338 0.107371 -0.0291631)
(9.91587 0.0835833 0.0196878)
(9.98708 0.0138183 -0.00437446)
(10.0038 0.00105025 0.00473325)
(10.339 0.38066 0.0859308)
(10.0329 0.00797638 -0.00240587)
(10.0014 0.0083847 0.00157171)
(10.3687 0.0881201 -0.00628381)
(10.4036 0.0162384 -0.0361296)
(9.81056 0.194303 0.0268078)
(9.85647 0.112611 -0.00702678)
(9.85961 -0.163872 0.0309918)
(9.58004 -0.154509 0.206223)
(9.88563 1.43332 -0.545917)
(10.2295 0.106676 -0.0296946)
(10.4317 0.173966 0.0226227)
(10.1787 0.207634 0.0250465)
(8.69498 0.748307 0.371686)
(9.61742 -0.0779074 0.0101016)
(9.53225 -0.0959539 0.0460747)
(10.1742 0.16498 -0.0468282)
(9.58094 0.358401 0.092139)
(10.002 -0.000149943 -0.00566602)
(9.79843 0.214449 0.0236372)
(10.3468 0.196684 -0.0328874)
(10.3133 0.117747 -0.0309469)
(10.3594 0.11038 -0.0398142)
(10.4068 0.214345 -0.0170975)
(9.82457 -0.225647 0.0530677)
(9.80129 -0.00461049 -0.0182833)
(9.86387 -0.0895677 -0.0176583)
(9.86653 0.0130935 -0.0219689)
(9.74469 -0.00176786 -0.0974276)
(9.77319 0.0144651 -0.0745727)
(9.73042 0.0747476 -0.0910236)
(9.75266 0.0808997 -0.0671605)
(9.52685 -0.235038 0.0159142)
(10.0071 0.0175312 -0.00381708)
(9.99859 0.0534568 0.00230979)
(8.90234 0.550417 -2.07531)
(7.68422 0.808334 -2.04247)
(7.69783 0.806831 -1.65433)
(8.3594 0.810372 -2.23641)
(9.35483 0.687613 -0.0772574)
(9.94576 1.00454 -0.467712)
(10.044 0.23729 0.000424429)
(10.0278 0.0272632 -0.000297598)
(9.92976 0.0184703 0.0353455)
(10.0071 0.0614443 -0.0150473)
(7.92295 0.759878 -1.47241)
(10.0243 0.474109 -0.272343)
(9.86536 0.210113 -0.0307451)
(9.8165 0.465751 -0.465248)
(10.0426 0.329187 0.035286)
(10.5256 0.488842 0.154916)
(10.1514 0.510637 0.0600274)
(10.2403 0.215012 0.0304134)
(10.3978 0.579154 0.187079)
(10.3282 0.0464815 0.0136349)
(10.3253 0.563504 0.134663)
(10.4901 0.0324103 -0.0399464)
(10.3261 0.583673 0.194452)
(10.059 0.699495 0.0425758)
(9.85752 0.363782 -0.0770661)
(10.0691 0.294804 0.0799156)
(9.76024 0.379119 -0.0454999)
(6.08275 1.1908 -1.02622)
(8.24431 0.762875 -2.05766)
(9.97115 0.120405 0.0162057)
(9.9741 0.34695 0.0239144)
(10.4619 0.376061 0.0693292)
(9.90763 0.112595 0.00222368)
(10.1282 0.0164275 0.028081)
(9.47504 -0.0431676 0.178312)
(10.1127 0.788453 -0.220989)
(10.242 0.934247 -0.25373)
(9.79275 1.34533 -1.43925)
(9.89764 0.786885 -0.872573)
(10.2201 0.616198 -0.2579)
(10.462 0.151901 0.0481976)
(10.4145 0.799901 0.0624305)
(10.1175 0.967254 -0.396007)
(10.5433 0.109347 0.0141215)
(8.73349 0.964463 -0.0550056)
(10.19 0.688933 0.277428)
(9.95472 0.456418 0.09359)
(9.5488 0.641651 0.205594)
(10.318 0.72474 0.0335421)
(10.57 0.672652 -0.261008)
(10.0416 0.0175924 -0.0192583)
(10.3787 0.660262 -0.0484317)
(6.91029 1.40517 -5.87355)
(10.6552 1.61062 -3.35141)
(10.4642 0.36873 -0.00640171)
(9.97193 -0.0037047 -0.000101365)
(11.2776 0.883833 -2.83008)
(9.84969 0.244875 -0.0236258)
(11.3365 1.09897 -2.1571)
(10.1203 1.01214 -3.51642)
(10.2824 0.614626 -0.0303898)
(10.2998 0.123697 -0.00739716)
(10.1847 0.238077 0.0177791)
(10.4994 0.885275 -1.70308)
(8.68849 0.679534 -0.359559)
(9.97838 0.37169 0.0299106)
(12.9076 1.40638 -4.73788)
(10.4262 0.25479 0.0285303)
(10.1594 0.57919 0.208032)
(10.6722 1.47662 -4.46754)
(9.98474 0.866923 -1.56415)
(10.3788 0.21121 0.0105424)
(10.3099 0.0617495 -0.00700723)
(10.2901 0.360918 -0.000919376)
(10.1502 0.566336 -0.892119)
(10.3367 0.550695 -0.890782)
(9.7638 0.576906 -0.51859)
(9.77732 0.549381 -0.302136)
(9.82413 0.605176 -0.370195)
(9.86249 0.257795 -0.0467863)
(9.86261 0.272409 -0.126357)
(9.94558 0.099342 -0.00718288)
(7.91992 1.10843 -0.539381)
(9.81061 0.16711 -0.0522493)
(9.82825 -0.0341947 -0.0480972)
(11.1701 1.51253 -3.30412)
(9.63944 -0.0263651 0.0588028)
(10.7805 1.24671 -2.4883)
(9.81695 0.253807 -0.0173695)
(9.82866 -0.0707048 -0.0111007)
(7.07582 1.05845 -0.562053)
(11.7931 1.67599 -5.7843)
(9.68893 0.710147 -5.41313)
(13.6048 1.65756 -3.91998)
(11.0515 2.20112 -7.92699)
(12.7769 1.11529 -2.94008)
(9.69411 0.613755 -1.2368)
(9.22502 0.84058 0.714653)
(10.1426 0.99455 -0.478774)
(7.11228 0.401977 -2.36844)
(2.3886 1.42743 -4.10949)
(9.86528 0.849914 -0.170572)
(8.34979 0.758099 -1.77538)
(8.84122 0.575778 -1.24854)
(1.36941 1.96426 -6.17218)
(9.72344 1.35371 -2.27682)
(8.71426 1.16016 -3.47176)
(9.63677 0.222233 -0.00396607)
(9.97195 0.00438917 -0.0129246)
(9.31924 0.985234 0.368578)
(10.0274 0.0697719 -0.0431657)
(9.55242 -0.13482 -0.150135)
(9.4938 0.553093 -0.55535)
(9.97721 0.707463 -0.944066)
(9.3961 0.617025 -0.0393682)
(9.89948 1.5415 -3.44728)
(10.2231 0.952351 -0.67697)
(10.321 1.0202 -0.733037)
(9.8843 0.602339 -0.0296912)
(9.76263 0.309119 -0.079016)
(10.2426 0.607736 0.194147)
(10.0589 0.955831 -0.739485)
(10.558 1.00515 -1.36746)
(9.9255 0.265858 0.00279169)
(9.02 0.53324 -1.41304)
(0.869805 1.17535 -2.75694)
(2.15015 1.45033 -1.85113)
(10.0938 0.243888 -0.00654693)
(9.47848 0.723519 -2.02448)
(9.48329 0.904426 -0.672411)
(6.59521 1.45747 -2.33258)
(9.95726 0.660198 -0.291511)
(9.82071 0.662715 -0.555608)
(8.44618 0.757884 -0.37651)
(9.42894 0.652639 0.760367)
(9.77949 0.243505 0.0801904)
(9.67876 0.397457 0.271024)
(9.68834 1.20942 0.149221)
(8.29098 0.731494 -0.282195)
(8.24371 1.07924 -2.07726)
(9.67754 1.06118 -0.352219)
(10.7465 0.668437 -0.38457)
(10.6077 0.710208 -0.371347)
(10.8799 0.769965 -0.61798)
(10.2329 0.103907 -0.0138049)
(9.68126 0.35919 -0.0883926)
(9.73898 0.420082 -0.186656)
(10.4875 0.775096 -0.425565)
(9.99939 0.938768 -0.204021)
(10.0773 0.844292 0.12402)
(9.83132 0.540884 0.100998)
(10.0009 -0.0157156 0.00311518)
(9.89823 0.123438 -0.0179227)
(9.93159 0.0647281 0.00154787)
(10.0006 -0.000924338 0.0019395)