/*--------------------------------*- C++ -*----------------------------------*\
| =========                 |                                                 |
| \\      /  F ield         | OpenFOAM: The Open Source CFD Toolbox           |
|  \\    /   O peration     | Version:  2506                                  |
|   \\  /    A nd           | Website:  www.openfoam.com                      |
|    \\/     M anipulation  |                                                 |
\*---------------------------------------------------------------------------*/
FoamFile
{
    version     2.0;
    format      ascii;
    arch        "LSB;label=32;scalar=64";
    class       volScalarField;
    location    "0.0235833";
    object      k;
}
// * * * * * * * * * * * * * * * * * * * * * * * * * * * * * * * * * * * * * //

dimensions      [0 2 -2 0 0 0 0];

internalField   nonuniform List<scalar> 
47425
(
0.356126
0.3807
0.353816
0.346287
0.478519
0.35794
0.445788
0.360043
0.367609
0.96363
0.365178
0.3794
0.404138
0.353992
0.355577
0.365965
0.354541
0.395574
0.991435
0.538751
0.354232
0.356643
0.368229
0.355591
0.367838
0.356104
0.351848
0.827052
0.350786
0.366111
0.365517
0.366657
0.362392
0.361088
0.356979
0.363501
0.358864
0.368493
0.357899
0.351913
0.383901
0.368547
0.427674
0.379593
1.37643
0.387366
0.365996
0.363839
0.354706
0.358724
0.760796
0.445404
0.355762
0.841249
0.390935
0.375105
0.357986
0.363424
0.465438
0.361354
0.919241
0.703759
0.798341
0.380688
0.365362
0.362263
0.365715
0.367695
0.82217
0.383875
0.355578
0.363205
0.359148
0.359078
0.773063
0.369433
0.791985
0.359001
0.865001
0.522485
0.788384
0.360911
0.36211
0.36547
0.355943
0.35914
0.358369
0.353809
0.474882
0.604402
0.367327
0.368522
0.36066
0.384046
0.393681
0.380398
0.354328
0.354869
0.350071
0.384722
0.361637
0.473788
0.356733
0.504043
0.357926
0.364287
0.355893
0.351154
0.353593
0.368761
0.614012
0.358748
0.377334
0.369392
0.361683
0.807565
0.360928
0.656962
0.381815
0.371238
0.350113
0.364603
0.371063
0.396124
0.37498
0.386105
0.364783
0.365845
0.378985
0.361541
0.363912
0.371402
0.549636
0.380882
0.369596
0.39444
0.365469
0.387688
0.359807
0.351412
0.37045
0.389986
0.357063
0.411552
0.367901
0.366788
0.428173
0.361324
0.378956
0.371881
0.405335
0.780168
0.363792
0.789578
0.380678
0.364026
0.393051
0.888859
0.389813
0.37481
0.369131
0.361831
0.356328
0.361345
0.693968
0.817925
0.367052
0.777666
0.365746
0.843989
0.767762
0.381966
0.360886
0.369139
0.387487
0.430598
0.815797
0.352709
0.359008
0.356466
0.804133
0.353496
0.354915
0.35982
0.354491
0.366596
0.361003
0.475311
0.372825
0.356589
0.362565
0.357677
0.440609
0.367062
0.361263
0.3667
0.36345
0.360759
0.37355
0.345665
0.370639
0.372616
0.356462
0.36462
0.391925
0.3798
0.354313
0.364873
0.377107
0.366247
0.355224
0.354369
0.366518
0.34527
0.358479
0.360991
0.36119
0.524684
0.388553
0.385438
0.555403
0.346083
0.398249
0.34716
0.402506
0.537399
0.359849
0.366986
0.383648
0.41629
0.360404
0.366648
0.385043
0.369776
0.379432
0.359227
0.55233
0.37647
0.527794
0.373797
0.353458
0.362789
0.360987
0.355485
0.358497
0.367214
0.3515
0.371526
0.355236
0.362918
0.353762
0.513121
0.36215
0.366649
0.363414
0.358829
0.359392
0.389927
0.348362
0.361844
0.410266
0.370846
0.361699
0.379042
0.401687
0.384251
0.35935
0.401768
0.355819
0.366641
0.36089
0.513506
0.543252
0.361337
0.503218
0.386392
0.505007
0.507683
0.528086
0.578986
0.966345
0.354177
0.883362
0.390787
0.361712
0.345265
0.383135
0.353186
0.38684
0.367069
0.717232
0.375155
0.371337
0.35189
0.354271
0.372011
0.369442
0.35638
0.354766
0.400032
0.385633
0.360308
0.371424
0.357741
0.83334
0.80356
0.780987
0.357896
0.357287
0.36156
0.361399
0.74428
0.362201
0.364863
0.579183
0.380423
0.371428
0.395378
0.357791
0.628935
0.559535
0.361524
0.35476
0.353895
0.377908
0.356672
0.354591
0.353875
0.357056
0.35784
0.357917
0.718662
0.377931
0.355514
0.390311
0.363969
0.721659
0.363517
0.355373
0.358018
0.365793
0.365603
0.352966
0.362761
0.36042
0.359129
0.362533
0.363308
0.357265
0.380717
0.363166
0.365775
0.36107
0.373807
0.359884
0.392279
0.368456
0.364684
0.372004
0.367146
0.424029
0.377346
0.377133
0.365239
0.353417
0.360705
0.388831
0.364699
0.359419
0.360885
0.389007
0.763774
0.348275
0.365093
0.385953
0.364955
0.370424
0.390034
0.367169
0.358371
0.363771
0.363185
0.351584
0.359934
0.37741
0.366122
0.367151
0.358434
0.36265
0.364544
0.3651
0.367244
0.370148
0.354517
0.368091
0.363684
0.357885
0.36164
0.425096
0.357062
0.649184
0.357617
0.760548
0.372837
0.391422
0.385576
0.356186
0.371192
0.352018
0.370463
0.364021
0.763756
0.76637
0.365524
0.385703
0.353366
0.35162
0.35869
0.361417
0.353552
0.374103
0.364113
0.354675
0.349068
0.352013
0.353823
0.44277
0.359399
0.365932
0.546006
0.386117
0.360311
0.672152
0.373233
0.379812
0.428176
0.749698
0.358451
0.354131
0.355838
0.356491
0.646555
0.382179
0.358168
0.357215
0.362734
0.361797
0.35664
0.35655
0.704604
0.633931
0.540207
0.36047
0.448477
0.381108
0.357424
0.369201
0.3951
0.368843
0.36291
0.364224
0.378334
0.358268
0.369844
0.353988
0.366221
0.374616
0.368665
0.357035
0.357446
0.359103
0.360352
0.383981
0.379802
0.355648
0.378437
0.367723
0.735744
0.379146
0.440735
0.366456
0.388805
0.495676
0.379096
0.359422
0.381546
0.37025
0.358924
0.381815
0.392376
0.350352
0.374911
0.359902
0.379501
0.486766
0.352971
0.394242
0.359868
0.408
0.354637
0.355148
0.355074
0.353905
0.381687
0.366886
0.354303
0.352585
0.359036
0.372431
0.361811
0.370361
0.375479
0.360343
0.359238
0.356304
0.356118
0.359944
0.378372
0.35861
0.38652
0.36474
0.377554
0.747011
0.365777
0.361153
0.372704
0.36648
0.481413
0.485838
0.380018
0.360815
0.385071
0.42818
0.363254
0.497681
0.365749
0.609397
0.402961
0.397515
0.363559
0.488717
0.356227
0.359331
0.36413
0.358814
0.35321
0.356507
0.93568
0.355316
0.398599
0.355656
0.46672
0.365811
0.359791
0.449766
0.438838
0.364903
0.356593
0.309085
0.354673
0.356895
0.358076
0.35597
0.356497
0.415763
0.436654
0.379228
0.355361
0.360921
0.357078
0.542428
0.359864
0.358573
0.290061
0.363798
0.356761
0.362785
0.743438
0.36238
0.198015
0.232154
0.351864
0.368663
0.355155
0.359574
0.392169
0.38016
0.66137
0.363327
0.386025
0.354423
0.471848
0.411872
0.383383
0.364986
0.721596
0.796406
0.36172
0.359812
0.354262
0.368639
0.381375
0.39702
0.363184
0.371955
0.381389
0.354117
0.379171
0.498913
0.391613
0.365127
0.506859
0.37862
0.357983
0.377949
0.372138
0.354448
0.365758
0.379942
0.407763
0.367573
0.360015
0.358698
1.01329
0.374732
0.406381
0.772576
0.755335
0.354504
0.385837
0.727931
0.379857
0.464486
0.519118
0.37839
0.798856
0.35422
0.361141
0.365647
0.510713
0.386142
0.377962
0.358989
0.393117
0.357122
0.354887
0.366015
0.367668
0.3869
0.724902
0.736388
0.383487
0.396675
0.372928
0.374587
0.390444
0.364239
0.364358
0.365704
0.364056
0.368826
0.393003
0.369968
0.353409
0.445707
0.392816
0.800733
0.576805
0.375109
0.371888
0.37231
0.35772
0.805868
0.357533
0.764851
0.378203
0.433886
0.389764
0.362941
0.368036
0.354257
0.409627
0.360986
0.3527
0.406925
0.397977
0.369021
0.422432
0.373002
1.07139
0.389443
0.390912
0.407738
0.365262
0.35176
0.394699
0.355356
0.422575
0.362903
0.357261
0.399713
0.362652
0.361243
0.361535
0.354936
0.516413
0.592155
0.362344
0.482601
0.359844
0.371565
0.347909
0.353516
0.377797
0.355296
0.348361
0.358591
0.361169
0.706156
0.663007
0.358654
0.3615
0.35788
0.371669
0.357756
0.364399
0.369831
0.567807
0.363613
0.354794
0.362419
0.356611
0.353577
0.359254
0.357172
0.354913
0.365971
0.359481
0.377633
0.584029
0.354549
0.289226
0.582354
0.572635
0.239614
0.367768
0.484377
0.406479
0.387863
0.543693
0.31415
0.803908
0.364103
0.355226
0.413589
0.381868
0.578709
0.371832
0.375499
0.357703
0.355531
0.41765
0.384976
0.370163
0.384712
0.437542
0.421352
0.362668
0.379126
0.527203
0.508537
0.52558
0.654219
0.626672
0.636666
0.665102
0.36531
0.38107
0.359253
0.354361
0.370053
0.262377
0.382676
0.36217
0.374223
0.359273
0.294628
0.255174
0.356548
0.401364
0.361145
0.357483
0.388529
0.355574
0.358802
0.357025
0.371682
0.478064
0.358323
0.361674
0.358484
0.382384
0.372734
0.564105
0.475857
0.351655
0.385771
0.358759
0.354402
0.354721
0.382066
0.381028
0.629949
0.356465
0.352893
0.366492
0.44074
0.845953
0.361765
0.36081
0.459918
0.374448
0.360699
0.390149
0.36702
0.378211
0.809264
0.459201
0.82394
0.367482
0.440096
0.358015
0.418574
0.357673
0.36914
0.379523
0.360139
0.828722
0.494253
0.408192
0.55499
0.403164
0.360205
0.368798
0.433687
0.35786
0.377702
0.291552
0.355099
0.432197
0.384777
0.409755
0.746285
0.394748
0.39187
0.552915
0.36481
0.361248
0.466509
0.509518
0.364204
0.459157
0.492242
0.354028
0.367066
0.349375
0.371093
0.376688
0.376554
0.791799
1.27379
0.394121
0.420961
0.503392
0.854896
0.756003
0.573716
0.38755
0.364175
0.377443
0.388609
0.566324
0.358027
0.383368
0.380138
0.35354
0.369204
0.363925
0.374361
0.353984
0.395777
0.523731
0.365795
0.85794
0.358472
0.430845
0.377223
0.367503
0.363828
0.362249
0.377546
0.484739
0.387027
0.428765
0.51581
0.380951
0.360948
0.380671
0.478605
0.354403
0.40574
0.363061
0.395573
0.667194
0.576756
0.352638
0.365898
0.36759
0.363713
0.376885
0.706115
0.522531
0.816438
0.363342
0.409481
0.377209
0.589596
0.352236
1.01001
0.414336
0.396251
0.403761
0.632488
0.355508
0.350128
0.357285
0.381482
0.406618
0.366546
0.443969
0.665116
0.43685
0.354921
0.361458
0.69102
0.719426
0.551377
0.566011
0.818355
0.406612
0.385404
0.456782
0.35194
0.512614
0.380475
0.39451
1.05564
0.383475
0.36407
0.356183
0.371669
0.433283
0.390075
0.35546
0.381334
0.493328
0.359222
0.365913
0.361409
0.36424
0.376063
0.4216
0.378059
0.383497
0.368499
0.386363
0.367468
0.345322
0.349789
0.366777
0.419037
0.51371
0.376807
0.412914
0.355411
0.985067
0.390806
0.3779
0.35831
0.999665
0.648263
0.881798
0.278779
0.381419
0.38953
0.64476
0.321289
0.384856
0.430134
0.3793
0.381238
0.701453
0.375487
0.361709
0.384281
0.402398
0.358135
0.617128
0.94573
0.354083
0.94252
0.362075
0.677156
0.868316
0.355022
0.380622
0.376655
0.623881
0.37521
0.375571
0.390717
0.707466
0.372043
0.556014
0.35853
0.366389
0.356385
0.362981
1.02551
1.04289
0.386164
0.410366
0.40898
0.665837
0.361578
0.354044
1.21021
0.97982
0.374387
0.364477
0.879696
1.11601
0.847426
0.385155
0.648815
0.930165
0.742964
0.361886
0.50787
0.474745
0.379457
0.367206
1.06548
1.64039
0.414653
0.419306
0.370553
0.366093
0.38588
0.364986
0.514808
0.362516
0.367184
0.357037
0.356425
0.795811
0.820864
0.368091
0.619503
0.456098
0.353481
0.537918
0.355065
0.367815
0.365701
0.387699
0.400315
0.35362
0.73124
0.360513
0.861728
0.577486
0.707343
0.414938
0.404637
0.372553
0.385553
0.358871
0.584164
1.0089
0.379725
0.68972
0.568832
0.780441
0.504158
0.905254
0.709442
0.367465
0.358564
0.752122
0.358815
0.363106
0.359523
0.695192
0.592977
0.357539
0.386852
0.647093
0.463355
0.759051
0.728114
0.377627
0.516791
0.996634
0.37165
0.390716
0.782332
0.364623
0.797849
0.846502
0.369666
0.363982
0.368685
0.364218
0.400536
0.350217
0.370177
0.390088
0.382056
0.524356
0.405396
0.369356
0.518726
0.54631
0.842383
0.380302
0.384399
0.484908
0.371564
0.894938
0.358034
0.378531
0.37055
1.15742
0.364389
1.49822
0.393834
0.534255
0.401398
1.19149
0.640166
0.597693
0.451126
0.564667
0.418145
0.36483
0.416522
0.6076
0.555759
0.484669
0.741203
0.389502
0.486612
0.660511
0.389814
0.352704
0.710096
0.817967
0.354849
0.365269
0.365422
0.379932
0.607906
0.758296
0.358679
0.378292
0.362404
0.963172
0.362507
0.654373
0.417406
0.363176
0.363617
0.483478
0.41099
0.636661
0.528772
0.395508
0.428232
0.483459
0.359617
0.874097
0.781635
0.364585
0.850118
0.647317
0.377548
0.538617
0.364653
0.4134
0.836416
0.411125
1.2127
0.611215
0.367151
0.418172
0.439024
0.367012
0.36295
0.438229
0.504972
0.465703
0.356017
0.438563
0.359298
0.470544
0.43386
0.391819
0.395674
0.451598
0.357519
0.82028
0.574471
0.415143
0.703276
0.717796
0.358895
0.519496
0.321532
0.396717
0.391335
0.450805
0.749614
0.523038
0.729483
0.354907
0.750394
0.480213
0.359935
0.429673
0.399122
0.51725
0.382118
0.433832
0.591751
0.355837
0.654308
0.389347
1.15106
0.398479
0.361231
0.391012
0.527153
0.410186
0.637531
0.430181
0.359719
0.891715
0.363627
0.388809
0.997386
0.355368
0.379586
0.70143
0.390078
0.617005
1.13913
0.387832
0.456661
0.36629
0.874931
0.479695
0.67699
0.545976
0.45698
0.389549
0.479252
0.795459
1.11438
0.799435
0.376164
0.364465
0.371061
0.36347
0.387461
0.690688
0.375932
0.362314
0.392305
0.356041
0.381442
0.386861
0.376961
0.375404
0.386614
0.48417
0.360093
0.386948
0.474555
0.366116
0.362378
0.398887
0.400591
0.366864
0.355812
0.374873
0.372035
0.368253
0.389533
0.584528
0.367477
0.38357
0.354189
0.359143
0.542892
0.354906
0.35898
0.503459
1.04735
0.715593
0.366686
0.569748
0.526065
0.362121
0.491762
0.482361
0.482167
0.381486
0.366991
0.381642
0.43825
0.360203
0.394025
0.413086
0.383879
0.353843
0.357701
0.379417
0.540669
0.370917
0.436625
0.812263
0.365894
0.602317
0.440537
0.815127
0.362135
0.381647
0.386697
0.361954
0.372624
0.38164
0.35879
0.753801
0.569666
0.84405
0.387801
0.810142
0.357585
0.365263
0.489043
0.355059
0.746376
0.378932
0.620644
0.352839
0.851689
0.8712
0.3707
0.356364
0.486942
0.366709
0.42741
0.356498
0.381826
0.356428
0.353918
0.354897
0.362714
0.373517
0.517971
0.410399
0.403414
0.373279
0.358516
0.363736
0.37638
0.673462
0.37336
0.764468
0.387174
0.353103
0.381824
0.375148
0.363603
0.363797
0.388245
0.360509
0.36442
0.351362
0.356726
0.380236
0.372646
0.909862
0.723621
0.382837
0.391028
0.645968
0.358957
0.358224
0.355351
0.355263
0.386582
0.385651
0.400805
0.400545
0.366989
0.3587
0.438962
0.359604
0.355908
0.364516
0.733995
0.394989
0.809882
0.740623
0.801524
0.370189
0.358106
0.354907
0.352119
0.36662
0.643832
0.373564
0.355016
0.366251
0.372879
0.358371
0.456097
0.356687
0.381937
0.462623
0.369791
0.350742
0.359144
0.367518
0.376545
0.356083
0.375408
0.364132
0.465944
0.352341
0.361711
0.380174
0.360524
0.361548
0.354703
0.377431
0.349401
0.388708
0.397744
0.361566
0.35355
0.351399
0.352411
0.356829
0.380405
0.36206
0.36323
0.35971
0.369236
0.754279
0.361428
0.462083
0.353988
0.361437
0.666336
0.370422
0.380031
0.355688
0.365182
0.380185
0.386606
0.702485
0.382985
0.77499
0.353337
0.360919
0.379166
0.360862
0.366622
0.394556
0.368161
0.359566
0.358247
0.589888
0.47735
0.672027
0.38745
0.547633
0.385938
0.358084
0.405098
0.955155
0.379126
0.359651
0.35699
0.767845
0.353405
0.363791
0.382325
0.368128
0.362171
0.790135
0.356027
0.373234
0.366829
0.369105
0.4101
0.908962
0.80324
0.35699
0.354136
0.357762
0.391173
0.384399
0.36141
0.789157
0.782225
0.354333
0.373999
0.682623
0.354315
0.433976
0.478589
0.357755
0.355391
0.362574
0.36142
0.449256
0.372531
0.360992
0.379616
0.414276
0.364307
0.363469
0.602049
0.364194
0.476013
0.523422
0.371571
0.596301
0.378587
0.389259
0.423544
0.379671
0.377559
0.374447
0.819648
0.602455
0.378488
0.384657
0.365465
0.384215
0.37777
0.436865
0.357878
0.353801
0.36579
0.36587
0.533722
0.471557
0.79401
0.712367
0.389791
0.380607
0.365306
0.370912
0.366516
0.370831
0.367397
0.356412
0.35901
0.404656
0.349763
0.362479
0.356257
0.567586
1.28589
0.396624
0.353109
0.408153
0.525672
0.813769
0.349113
0.644994
0.575011
0.649714
0.673345
0.442551
0.358299
0.358909
0.365575
0.846153
0.357494
0.375047
0.375681
0.356617
0.398671
0.387934
0.38437
0.367329
0.668133
0.362058
0.365137
0.390946
0.383792
0.63654
0.635354
0.249656
0.447776
0.3011
0.427057
0.359686
0.887925
0.361402
0.846854
0.379817
0.836897
0.378726
0.515794
0.36507
0.522361
0.382271
0.389194
0.366439
0.364218
0.370264
0.455069
0.425995
0.364699
0.36815
1.14088
0.353713
0.380519
0.615878
0.512089
0.604854
0.36174
0.366147
0.401717
0.692901
0.669137
0.372914
1.02011
0.362566
0.86879
1.04674
0.255953
0.508687
0.358269
0.406702
0.355301
0.361606
0.367474
0.533779
0.401577
0.358204
0.355523
0.378892
0.359812
0.357447
0.358128
0.489276
0.354681
0.352346
0.375023
0.357388
0.464293
0.372176
0.396207
0.384674
0.35595
0.421833
0.496292
0.344921
0.352131
0.510962
0.749867
0.380484
0.836323
0.399149
0.472708
0.771882
0.454557
0.39198
0.358552
0.464055
0.365226
0.354847
0.369142
0.362707
0.356538
0.370496
0.355318
0.352005
0.355128
0.383811
0.369802
0.388753
0.724357
0.357516
0.360298
0.359404
0.365773
0.476654
0.645067
0.37382
0.357437
0.377077
0.587306
0.524219
0.357995
0.37847
0.831878
0.393715
0.395486
0.381691
0.443574
0.377471
0.366971
0.37699
0.554529
0.386641
0.376302
0.897179
0.365999
0.396055
0.364594
0.392722
0.371555
0.405392
0.375441
0.362145
0.363352
0.404403
0.347122
0.371676
1.14023
0.356532
0.461751
0.387984
0.364178
0.624545
0.412993
0.362538
0.376208
0.624486
0.595566
0.38917
0.368021
0.396947
0.436846
0.38225
0.364598
0.786013
0.501399
0.423298
0.62901
0.370757
0.357853
0.545204
0.434032
0.995165
0.399452
0.417556
0.477556
0.35718
0.55501
0.460804
0.716375
0.439122
0.365913
0.363341
0.558662
0.386723
0.415547
0.354279
0.381968
0.397215
0.429859
0.664729
0.384761
0.372603
0.300308
0.546328
0.742192
0.452461
0.711737
0.407316
0.963109
0.382559
0.378512
0.788003
0.476596
0.606996
0.282951
0.654635
0.611857
0.359732
0.357258
0.257185
0.391211
0.378852
0.734186
0.391746
0.422878
0.363735
0.459848
0.371446
0.363068
0.86114
0.278211
0.530605
0.333267
0.405848
0.383282
0.376615
0.396208
0.38932
0.366121
0.359999
0.388116
0.404808
0.225879
0.223338
0.378212
0.40703
0.362441
0.439587
0.475747
0.390609
0.373897
0.401247
0.234119
0.418255
0.418091
0.315757
0.378886
0.687227
0.398031
0.367648
0.851984
0.398078
0.516157
0.604758
0.396822
0.378368
0.360696
1.05552
0.359352
0.352829
0.406309
0.389621
0.435419
0.370464
0.480573
0.375451
0.534226
0.355741
0.398903
0.38235
0.354436
0.899144
0.394318
0.848788
0.698248
0.357559
0.721467
0.490254
0.360788
1.2158
0.355575
0.354518
0.406424
0.469467
0.824095
0.713874
0.400254
0.703263
0.580826
0.358188
0.541037
0.807558
0.438627
0.828402
0.42554
0.359538
0.619488
0.715006
0.404928
0.898464
0.412952
0.387926
0.566277
0.412629
0.364868
0.384767
0.733701
0.475236
0.352441
0.553848
0.369924
0.397157
0.380866
0.397115
0.536823
0.470775
0.705343
0.363114
0.364748
0.672277
0.364529
0.377139
0.506509
0.3642
0.38679
0.630357
0.3851
0.877514
0.782836
0.765002
0.640948
0.3776
0.439124
0.358121
0.358309
0.461427
0.360436
0.358301
0.402055
0.360211
0.459358
0.778477
0.360876
0.537724
0.36577
0.509623
0.409066
0.843708
0.37284
0.474189
0.366752
0.366673
0.409489
0.361957
0.375488
0.36177
0.354684
0.573973
0.344451
0.387784
0.397971
0.375472
0.376463
0.392937
0.386085
0.692577
0.387091
0.362142
0.371585
0.434099
0.334092
0.657306
0.530872
0.643559
0.911559
0.445696
0.454388
0.158621
0.344774
0.818836
0.439528
0.530968
0.420761
0.715921
0.607998
1.1569
0.412556
0.381506
0.527699
0.861366
0.397309
0.266542
0.469084
0.278483
0.444751
0.451187
0.756719
0.69153
0.330749
0.420917
0.227729
0.369188
1.10663
0.371541
0.387405
0.359214
0.362762
0.489603
0.36079
0.633968
0.503158
0.362396
0.392362
0.367352
0.55906
0.636913
0.373651
0.420922
0.41233
0.888922
0.448194
0.370334
0.537913
0.553807
0.35451
0.366346
0.378715
0.354828
0.644331
0.364873
0.478276
0.647153
0.362619
0.395265
0.368407
0.366773
0.378113
0.392456
0.549511
0.351826
0.360054
0.62249
1.23079
0.365344
0.372805
0.365035
0.364032
0.595079
0.444335
0.758719
0.389903
0.361094
0.481613
0.393042
0.387098
0.367032
0.407059
0.389937
0.553661
0.52615
0.69757
0.440703
0.457115
0.362362
0.381911
0.765844
0.881676
0.442893
0.834398
0.390256
0.851552
0.46862
0.714675
0.504529
0.447574
0.395845
0.368627
0.397334
0.436277
0.565311
0.37289
0.414425
0.928119
0.378455
1.52246
0.381365
0.358882
0.382159
0.422317
0.38199
0.357201
0.696218
0.357819
0.351293
0.35157
0.379489
0.665478
0.523653
0.360105
0.554884
0.380644
0.390482
0.361431
0.37017
0.456318
0.415207
0.447698
0.385553
0.354628
0.432791
0.376017
0.349942
0.42768
0.407975
0.752727
0.384682
0.492616
0.391855
0.44184
0.38501
0.460528
0.356315
0.384021
0.357694
0.380381
0.389991
0.76907
0.354241
0.543695
0.292683
0.396347
0.38042
0.393912
0.385083
0.468381
0.546398
0.363437
0.372042
0.375585
0.504992
0.424146
0.351954
1.04607
0.567714
0.57212
0.364368
0.35497
0.525751
0.368894
0.365673
0.523226
0.366235
0.367831
0.409253
0.701479
0.359985
0.578088
0.360511
0.363979
0.458124
0.370022
0.387964
0.49244
0.357994
0.517073
0.442436
0.44606
0.479203
0.870234
0.365482
0.365091
0.386144
0.408563
0.39814
0.389183
0.359392
0.361809
0.376961
0.591662
0.38503
0.392062
0.744004
0.387609
0.673902
0.363505
0.384157
0.432602
0.362015
0.464587
0.387365
0.409633
0.40868
0.362775
0.377918
0.423882
0.501602
0.451511
0.362525
0.567713
0.380257
1.03786
0.736448
0.499022
0.375825
0.496726
0.380935
0.278766
0.434222
0.2967
0.475828
0.226306
0.4321
0.609257
0.444492
0.630513
0.660247
0.395712
0.30322
0.272645
1.18631
0.630418
0.68592
1.1948
0.72463
0.316874
0.795577
0.363497
0.377239
0.727283
0.428114
0.778064
0.411317
0.691127
0.702974
0.376331
0.390126
0.370106
0.351721
0.377761
0.356171
0.703978
0.407699
0.382698
0.570053
0.35721
0.368901
0.360339
0.378386
0.373222
0.38566
0.399517
0.358377
0.441075
0.856227
0.354828
0.366497
0.367147
0.356683
0.679031
0.661764
0.422525
0.378096
0.573482
0.356268
0.355308
0.37917
0.39823
0.364027
0.370521
0.35844
0.354807
0.44113
0.348095
0.418967
0.371104
0.363967
0.365402
0.435116
0.36689
0.373648
0.35852
0.440827
0.366781
0.393586
0.67799
0.451332
0.388694
0.423972
0.372794
0.400158
0.393828
0.379061
0.36385
0.387558
0.375465
0.37043
0.411071
0.383597
0.446432
0.482672
0.369651
0.380266
0.434351
0.44745
0.512953
0.518245
0.750732
0.911953
0.37832
0.361656
0.86094
0.565079
0.523935
0.362697
0.359651
0.372501
0.355276
0.367054
0.361953
0.371478
0.395969
0.35857
0.368579
0.357507
0.367054
0.362642
0.525301
0.414432
0.379099
0.362778
0.369134
0.671244
0.354403
0.365496
0.413398
0.949422
0.718702
0.378741
0.369577
0.379487
0.409507
0.449752
0.696446
0.439221
0.367884
0.380358
0.3743
0.364057
0.405164
0.428457
0.38201
0.355775
0.429969
0.409712
0.580927
0.429694
0.662615
0.566103
0.396284
0.412397
0.357573
0.372362
0.394116
0.358687
0.357441
0.634341
0.363352
0.377911
0.705416
0.377598
0.388719
0.303295
0.441995
0.355582
0.374929
0.360097
0.390196
0.757821
0.379565
0.460645
1.17711
0.569781
1.02433
0.809169
0.365587
0.380843
0.555987
0.355181
0.577388
0.523138
0.695033
0.370117
0.359454
0.6266
0.365234
0.578091
0.440577
0.367316
0.722557
0.802439
0.361551
0.361895
0.849021
0.362719
0.357811
0.35326
0.35717
0.379647
0.424685
0.582853
0.374046
0.790428
0.362666
0.375781
0.352574
0.84919
0.369828
0.88954
0.362044
0.395889
0.362571
0.470244
0.358559
0.479667
0.350833
0.568316
0.498292
0.499602
0.682539
0.366875
0.372742
0.78909
0.461555
0.377873
0.442782
0.492325
0.373326
0.434466
0.372845
0.615865
0.440407
0.360997
0.351033
0.47575
0.363747
0.413826
0.383742
0.358621
0.37508
0.359801
0.361895
0.370067
0.660831
0.358657
0.360847
0.360313
0.361706
0.356518
0.364606
0.372002
0.382879
0.39288
0.396643
0.393687
0.355463
0.303689
0.386363
0.410652
0.557813
0.337367
0.788692
0.361251
0.917432
0.40799
0.270912
0.387227
0.394861
0.394531
0.363283
0.347007
0.384403
0.380558
0.363988
0.37122
0.358776
0.704698
0.35846
0.365483
0.404153
1.10083
0.246949
0.37556
0.803833
0.504735
0.6283
0.554547
1.06423
0.194815
0.411869
0.393502
0.379926
0.361938
1.35021
0.452967
0.431261
0.361068
0.357432
0.713074
0.380941
0.430936
0.379335
0.387866
0.457621
0.390237
0.620089
0.367075
0.378945
0.360158
0.363722
0.399467
0.354239
0.378757
1.05609
1.0847
0.840599
0.478578
0.723418
0.370495
0.35513
0.35188
0.380063
0.359249
0.405632
0.367025
0.444496
0.388949
0.360542
0.356593
0.374099
0.361007
0.37677
0.380734
0.366579
0.384226
0.548629
0.372028
0.410663
0.769967
0.38345
0.652902
0.83516
0.384559
0.409098
0.354851
0.506747
0.390626
0.403431
0.651108
0.35964
0.416865
0.373246
0.404382
0.362714
0.363693
0.484932
0.550235
0.377096
0.390532
0.770648
0.423233
0.623052
0.585506
0.364346
1.21085
0.434194
0.420965
0.406031
0.362045
0.446265
0.394147
0.34168
0.36487
0.328297
0.599648
0.212187
0.372261
0.402573
0.459862
0.222433
0.810467
0.357267
0.377258
0.427059
0.360299
0.430907
0.455768
1.36999
0.39058
0.378096
0.380272
0.693529
0.366973
0.41573
0.392618
0.371688
0.371291
0.379202
0.388817
0.356142
0.830274
0.401862
0.884355
0.360985
1.08913
0.754082
0.576534
0.392619
0.371659
0.494425
0.388773
0.378161
0.361202
0.380377
0.762141
0.358003
0.494926
0.582212
0.360212
0.365141
0.356708
0.363623
0.37441
0.363898
0.427542
0.410375
0.389546
0.382497
0.417457
0.367029
0.465119
0.361647
0.382669
0.364719
0.795168
1.19756
0.399776
0.389528
0.358474
0.750094
0.353977
0.364655
0.376116
0.359982
0.389957
0.37565
0.353663
0.360622
0.372059
0.754003
0.564896
0.370977
0.740908
0.362308
0.371303
0.355467
0.363381
0.723369
0.398978
0.80123
0.358499
0.361192
0.78575
0.85878
0.36909
0.362242
0.631817
0.380443
0.405305
0.454047
0.410836
0.387903
0.450794
0.384971
0.360035
0.391464
0.373038
0.515712
0.356101
0.380101
0.357746
0.365981
0.656331
0.679641
0.358626
0.363999
0.375993
0.374105
0.375376
0.54212
0.374763
0.386493
0.419807
0.374868
0.475916
0.424644
0.51627
0.416165
0.358769
0.359139
0.356121
0.412024
0.355006
0.523219
0.444504
0.356064
0.930228
0.368205
0.353183
0.391547
0.363093
0.405139
0.637298
0.369002
0.464772
0.372948
1.12361
0.423409
0.406417
0.379766
0.661494
0.38013
0.554384
0.39863
0.438161
0.359079
0.430093
0.425226
0.64606
0.487458
0.36628
0.359619
0.360287
0.547604
0.38673
0.982327
0.757431
0.378007
0.456041
0.362586
0.497796
0.478679
0.412688
0.623378
0.510624
0.695352
0.366346
0.403432
0.912559
0.514993
0.388869
0.500722
0.365158
1.05442
0.424263
0.386045
0.360227
0.356507
0.360107
0.371518
0.360395
0.70784
0.36093
0.569674
0.360259
0.462801
0.417847
0.556206
0.369754
0.373197
0.35895
0.584733
0.486958
0.53231
0.359258
0.368343
0.482513
0.407594
0.39748
0.352149
0.351278
0.354463
0.369591
0.358325
0.40934
0.36209
0.571491
0.452363
0.964349
0.766792
0.595331
0.578975
0.424779
0.429749
0.357004
0.602493
0.364405
0.382591
0.36967
0.491871
0.466411
0.371558
0.452125
0.774577
0.483536
0.356273
0.35513
0.841381
0.827585
0.413875
0.808085
0.86827
0.648631
0.710103
0.593284
0.700842
0.435189
0.64412
0.798093
0.357799
0.360269
0.356247
0.483284
0.625129
0.370657
0.360631
0.432464
0.38979
0.399866
0.811801
0.514043
0.878175
0.372467
0.355529
0.365525
0.34913
0.375378
0.803965
0.409218
0.571832
0.696916
0.356387
1.10975
1.19058
0.355549
0.508497
0.473891
0.787459
0.388166
0.500137
0.769806
0.715012
0.482932
0.736696
0.534357
0.649977
0.376454
0.384376
0.388365
0.898259
0.752325
0.419503
0.377905
0.568253
0.472124
0.588621
0.370596
0.405882
0.975543
0.805289
0.272601
0.353705
0.304489
0.358818
0.229614
0.424641
0.480006
0.612546
0.223804
0.465069
0.50405
0.189033
0.485729
0.737167
0.451564
0.420505
0.598784
0.379735
0.530016
0.370076
0.359621
0.369069
0.385371
0.717182
0.714068
0.776176
0.420643
0.425485
0.574984
0.422533
0.265019
0.435312
0.398269
0.371772
0.549002
0.380573
0.334034
0.366185
0.452094
0.436556
0.748567
0.500807
0.81545
0.871256
0.771175
0.378985
0.432014
0.676739
0.352088
0.571598
0.400981
0.424481
0.363155
0.798218
0.592752
0.37262
1.34311
0.634042
0.360085
0.465404
0.77498
0.790808
0.42761
0.38536
0.493412
1.02135
0.391699
0.364162
0.388602
0.386617
0.526384
0.444844
0.647413
0.443797
0.605362
0.894889
0.574054
0.4867
0.702357
0.629561
0.824511
0.617696
0.623467
0.822323
0.564468
0.417222
0.476949
0.362911
0.354904
0.362961
0.425138
0.556353
0.869027
0.376887
0.393374
0.406395
0.378843
0.381876
0.585079
0.491013
0.365765
0.386991
0.872099
1.02792
0.244348
0.431131
0.360514
0.398586
0.763263
0.674774
0.378386
0.294225
0.372978
0.273323
0.333951
0.602779
0.373777
0.378178
0.365496
0.427252
0.817074
0.473354
0.391728
0.676398
0.356523
0.795181
0.646068
0.488363
0.65147
0.40446
0.356525
0.362555
0.367082
0.382267
0.438113
0.361789
0.375296
0.365583
0.366154
0.555157
0.469456
0.713165
0.368787
0.503816
0.405184
0.429875
0.385531
0.472556
0.389973
0.382575
0.378245
0.354206
0.370053
0.371292
0.479951
0.358422
0.392566
0.401599
0.627318
0.371405
0.429597
0.491349
0.771744
0.825726
0.420677
1.2962
0.26061
0.401201
0.405826
0.549684
0.37995
0.812655
0.469546
0.355428
0.452288
0.577331
0.444624
0.48226
0.65139
0.588724
0.492626
0.726426
0.38634
0.358912
0.427103
0.363173
0.353809
0.440327
0.358269
0.360675
0.574705
0.362842
0.366729
0.678693
0.935736
0.355004
0.358183
0.959376
0.357845
0.365056
0.57082
0.366073
0.670436
0.452029
0.784571
0.361347
0.565195
0.475644
0.673048
0.364072
0.469281
0.361361
0.834042
0.366687
0.361597
0.487501
0.459261
0.506645
0.396523
0.387332
0.377477
0.36275
0.51416
0.362533
0.358861
0.349987
0.4734
0.553124
0.35494
0.370973
0.357005
0.362756
0.371761
0.698189
0.359931
0.472038
0.361435
0.600631
0.377991
0.405852
0.381721
0.496523
0.371199
0.465969
0.365689
0.374022
0.376199
0.396519
0.366487
0.466325
0.453498
0.779175
0.79388
0.763048
0.42865
0.390123
0.384682
0.353483
0.354801
0.921815
0.652089
0.427584
0.403021
0.365393
0.378236
0.358313
0.356258
0.540528
0.525111
0.733933
0.48726
0.406148
0.369195
0.450249
0.359293
0.630777
0.365798
0.415742
0.377237
0.393528
0.960209
0.446463
0.353699
0.374067
0.431169
0.355597
0.254608
0.359892
0.314858
0.412555
0.91603
0.498244
0.763957
0.360474
0.384455
0.395973
0.38038
0.401861
0.361663
0.353183
0.353759
0.369067
0.369716
0.361502
0.581247
0.428836
0.829763
0.454865
0.363448
0.523348
0.382633
0.363666
0.34216
0.963731
0.875604
0.294098
0.326202
0.364261
0.773283
0.463443
0.464257
0.415758
0.402174
0.273873
0.384435
0.382969
0.35294
0.444768
0.493262
0.823884
0.553312
0.46309
0.352864
0.432558
0.650863
0.385463
0.358997
0.772163
0.81013
0.557109
0.634981
0.355555
0.352523
0.442173
0.358525
0.807343
0.357789
0.362027
0.359912
0.672658
0.358426
0.40371
0.49066
0.488743
0.361671
0.361077
0.376219
0.366776
0.348751
0.368923
0.424448
0.581477
0.471197
0.390229
0.611483
0.379491
0.63191
0.408345
0.876439
0.477607
0.462939
0.671373
0.313067
0.459693
0.501601
0.592939
0.44766
0.354002
0.370802
0.359369
0.380659
0.826835
0.396268
0.361992
0.372465
0.414229
0.359103
0.509562
0.384471
0.383006
0.489498
0.383574
0.36056
0.397618
0.389306
0.813811
0.765398
0.419432
0.370509