/*--------------------------------*- C++ -*----------------------------------*\
| =========                 |                                                 |
| \\      /  F ield         | OpenFOAM: The Open Source CFD Toolbox           |
|  \\    /   O peration     | Version:  2506                                  |
|   \\  /    A nd           | Website:  www.openfoam.com                      |
|    \\/     M anipulation  |                                                 |
\*---------------------------------------------------------------------------*/
FoamFile
{
    version     2.0;
    format      ascii;
    arch        "LSB;label=32;scalar=64";
    class       volScalarField;
    location    "0.0235833";
    object      nut;
}
// * * * * * * * * * * * * * * * * * * * * * * * * * * * * * * * * * * * * * //

dimensions      [0 2 -1 0 0 0 0];

internalField   nonuniform List<scalar> 
47425
(
0.00655009
0.00545999
0.00526796
0.0021201
0.0037796
0.00501558
0.00514103
0.00346867
0.00743161
0.00175826
0.00256919
0.00735703
0.00625283
0.00469811
0.00404705
0.003939
0.00549213
0.00282948
0.000289926
0.00315227
0.00416043
0.00749336
0.0034474
0.00564015
0.00737191
0.00749376
0.0048002
0.000502378
0.00526725
0.00651675
0.00753528
0.00731328
0.0074442
0.00574668
0.00683683
0.00537425
0.00749388
0.00538957
0.00555052
0.00475759
0.0051869
0.00673398
0.0060083
0.00261383
0.000781822
0.00352111
0.00376982
0.00456323
0.00458046
0.00722304
0.000634941
0.00248105
0.00713296
0.000997253
0.00335866
0.00303343
0.00751307
0.00645763
0.00218117
0.00579869
0.000852259
0.000633074
0.00100649
0.00398701
0.00738246
0.00736522
0.00560354
0.00587255
0.00108678
0.00535073
0.00467504
0.00714209
0.00720271
0.00412893
0.00121207
0.00745815
0.00103436
0.00448107
0.000229934
0.0023146
0.0011765
0.00577054
0.00748559
0.00728352
0.00740177
0.00435816
0.00671998
0.00709284
0.00529397
0.00134942
0.0074822
0.0046429
0.00748098
0.00330175
0.00263321
0.00193477
0.00702607
0.0070954
0.00422282
0.00471998
0.00570537
0.00112067
0.00695263
0.00104879
0.00717157
0.00670371
0.00739064
0.00394941
0.0074936
0.00741775
0.00197458
0.00576072
0.00637654
0.00237442
0.0069998
0.000339211
0.00707202
0.000768495
0.0045893
0.00646968
0.00459965
0.00747069
0.00605969
0.00349796
0.00374619
0.00660325
0.0043663
0.00742396
0.00349313
0.00747531
0.00747986
0.00364656
0.0010688
0.00303874
0.00706097
0.0063934
0.00720504
0.00645158
0.00523919
0.00358446
0.00507526
0.00287257
0.00497066
0.0059276
0.00679696
0.00742459
0.00459895
0.00560517
0.00245842
0.00506699
0.00605252
0.000539073
0.00738109
0.000417776
0.00394801
0.00428982
0.00362798
0.000294356
0.00402278
0.00489636
0.0070932
0.00751385
0.0071247
0.00732587
0.00123122
0.000529422
0.00746905
0.00121538
0.00340866
0.000874984
0.00121529
0.00427329
0.00482664
0.00482788
0.00511142
0.00140588
0.000374947
0.00541802
0.0067556
0.00746297
0.000312904
0.00738036
0.00617266
0.00741529
0.00729007
0.00679364
0.00642368
0.00122435
0.00252092
0.00673654
0.00747416
0.00548464
0.00429472
0.00474416
0.00729371
0.00717706
0.00583083
0.00493315
0.00722806
0.00453915
0.00547978
0.00302838
0.00746719
0.00713495
0.00315774
0.00238679
0.00692786
0.00714952
0.00417673
0.00746784
0.00564333
0.00576557
0.00744357
0.00399334
0.0058696
0.00602301
0.00544571
0.00192635
0.00408563
0.00397043
0.00212557
0.00332303
0.00654035
0.0039051
0.00239731
0.00172564
0.00726538
0.0028807
0.00705074
0.00510643
0.00572598
0.0049399
0.00352211
0.00749158
0.00228093
0.00377493
0.00198574
0.00316129
0.00228215
0.00205814
0.00433992
0.00671192
0.00750276
0.00353157
0.00743224
0.00726743
0.00550248
0.00586699
0.00747004
0.00494868
0.0075394
0.00248178
0.00558966
0.00742151
0.00396438
0.00749677
0.00745203
0.00314165
0.00374504
0.00736978
0.00316658
0.00746406
0.00489799
0.0027832
0.00624108
0.00409131
0.00744237
0.00590795
0.00601318
0.00448064
0.0047206
0.00251491
0.00197855
0.00717302
0.00264966
0.00213377
0.00264267
0.000552343
0.00203767
0.000679163
0.000895231
0.00674562
0.00088426
0.00306347
0.00459278
0.00428015
0.0035418
0.00402405
0.00414639
0.00693557
0.000728148
0.00668498
0.00737557
0.00641414
0.00561607
0.00360655
0.00324455
0.00738587
0.00549661
0.00454184
0.0041011
0.00737349
0.00406723
0.00626232
0.00100029
0.000815222
0.000543093
0.00748838
0.007232
0.00753017
0.00343978
0.000780333
0.00418151
0.00304016
0.00158042
0.00491067
0.00349842
0.00313643
0.00405376
0.00186539
0.00177661
0.00752502
0.00599363
0.00734726
0.00438387
0.00747914
0.0047157
0.00612648
0.00685559
0.00508434
0.00493415
0.00110961
0.00500312
0.00474991
0.00299725
0.00757285
0.00118592
0.00691378
0.00729097
0.00688177
0.00746078
0.00742321
0.00745418
0.00678805
0.00713891
0.00685451
0.00634988
0.00728044
0.00458705
0.00430088
0.00733384
0.00732367
0.00574659
0.00718753
0.007171
0.00315878
0.00476797
0.00755023
0.00708773
0.00386722
0.00190169
0.00651155
0.00449547
0.00400326
0.00731889
0.0070359
0.00288625
0.00740251
0.00532418
0.00743736
0.00288684
0.0007165
0.00461533
0.00750356
0.0019268
0.00747946
0.00678034
0.00400795
0.00503563
0.00748243
0.00562016
0.00742917
0.00747253
0.00482209
0.00421337
0.00439556
0.00429715
0.00688227
0.00715692
0.00431251
0.00720134
0.00739035
0.00450601
0.00640585
0.00565035
0.00716453
0.00582649
0.00394409
0.00213836
0.00725509
0.000803158
0.00736448
0.00239489
0.00502738
0.00358959
0.00359663
0.00719538
0.00254404
0.00731192
0.00382937
0.00736562
0.0010153
0.000974276
0.00743712
0.00352879
0.00448931
0.00420395
0.00450775
0.00468437
0.00479617
0.00410694
0.00529062
0.0074536
0.00340337
0.00526135
0.00709367
0.00336602
0.00509808
0.00685892
0.00101114
0.000341631
0.00718208
0.000516612
0.000407227
0.00410846
0.000449854
0.000652207
0.00700977
0.00465568
0.00497444
0.00491914
0.00105822
0.00408526
0.00704352
0.00687254
0.00525844
0.0051307
0.00433483
0.00441571
0.0008868
0.000805649
0.00146121
0.0054271
0.00123832
0.00470181
0.00663829
0.0073614
0.00649588
0.00735603
0.00425256
0.00479217
0.00284891
0.00526343
0.00749008
0.00463266
0.00619053
0.00457103
0.00727203
0.0057851
0.00543276
0.0052513
0.00562845
0.00346104
0.00297199
0.00600983
0.00434413
0.00728497
0.00107983
0.00287159
0.0025195
0.00738988
0.00273113
0.00277532
0.00379756
0.00748083
0.00478073
0.00725521
0.00531641
0.00359577
0.0034941
0.00472538
0.00390142
0.00672124
0.00246899
0.000942682
0.00737005
0.00191034
0.00626774
0.00187313
0.00716511
0.00687691
0.00744668
0.00526774
0.00659388
0.00322633
0.00600298
0.00727382
0.00748724
0.00732699
0.00482411
0.00281938
0.00464315
0.00750301
0.00627653
0.00669074
0.00666309
0.00621421
0.00512307
0.0051134
0.00316052
0.00473242
0.00373094
0.000686324
0.00591798
0.00521791
0.00664251
0.00741515
0.00182517
0.00169297
0.00469873
0.00697628
0.00453234
0.00494413
0.00715919
0.00177706
0.00749315
0.00256235
0.00262907
0.00308475
0.00621862
0.00296055
0.00754253
0.00502272
0.00516667
0.00738912
0.00749872
0.00703934
0.000856312
0.00593579
0.00257984
0.00739635
0.00177531
0.00725561
0.00626707
0.00246878
0.00264999
0.00514106
0.00744293
0.000622361
0.00670954
0.00632295
0.00682932
0.00698654
0.00741384
0.00266556
0.00319252
0.00739954
0.00682183
0.00531479
0.00746285
0.00164503
0.00741921
0.0058347
0.000491252
0.00497063
0.00746632
0.000654263
0.00141912
0.007487
0.00024583
0.000282116
0.00503055
0.00736935
0.00689596
0.00755119
0.0044341
0.00406996
0.00155732
0.0075341
0.00287702
0.00684637
0.00207966
0.00246995
0.00441151
0.00526418
0.00164852
0.00334132
0.0069487
0.00393162
0.00426667
0.00339202
0.00306501
0.00308787
0.00702347
0.00385071
0.00286033
0.00467178
0.00547129
0.00337249
0.00418584
0.00722108
0.00279634
0.0039089
0.00474671
0.00295678
0.00352501
0.00563663
0.00493389
0.00662583
0.00203456
0.00515283
0.00707909
0.00731061
0.000299556
0.00449375
0.00592805
0.000549873
0.000755029
0.00750504
0.00484655
0.000229694
0.00215586
0.000930478
0.00221352
0.00316069
0.000580026
0.00629659
0.00718725
0.00590447
0.00335705
0.00337466
0.00333877
0.00737959
0.0032283
0.00560944
0.0044671
0.00695001
0.00445173
0.00462857
0.00216947
0.000600161
0.00306213
0.00336454
0.00424943
0.00739582
0.00349275
0.00728891
0.00598506
0.00565146
0.00534489
0.007358
0.00207322
0.00472229
0.00731686
0.00177731
0.00202208
0.0009383
0.00145998
0.00413669
0.00758241
0.00491346
0.00744359
0.000944465
0.00509797
0.000955521
0.00439215
0.00468757
0.00651699
0.00508745
0.0058955
0.00430708
0.00229419
0.00411794
0.00678957
0.00192928
0.00506686
0.00748694
0.00513535
0.00408021
0.000790245
0.00655716
0.00189087
0.00446121
0.00747771
0.00739267
0.00263889
0.00452713
0.00480254
0.00734597
0.00549428
0.00505012
0.00479984
0.00446871
0.00453422
0.00559022
0.00107964
0.000681619
0.00504709
0.000915558
0.00547287
0.00317227
0.00376127
0.00728398
0.00636659
0.00627079
0.00481723
0.00448553
0.00746488
0.000604436
0.00173128
0.00366124
0.00531929
0.00730002
0.00397112
0.00693146
0.00257926
0.00717453
0.00119146
0.00425812
0.00738695
0.00460486
0.00717685
0.00600397
0.00511785
0.00714104
0.00394287
0.00743347
0.00731849
0.00481204
0.000994775
0.00754211
0.000542597
0.00207357
0.00244315
0.000445255
0.00444085
0.0037199
0.00259501
0.00452134
0.000873976
0.000430861
0.000859717
0.00414792
0.00613669
0.00442026
0.00310982
0.000966266
0.0027523
0.00394405
0.00674175
0.0052209
0.0050547
0.00325021
0.00631211
0.00445225
0.00128593
0.00234184
0.00554353
0.00246691
0.00122785
0.00079635
0.0049015
0.00032761
0.00148385
0.000679994
0.000841061
0.00451733
0.00310662
0.00745519
0.00724158
0.00499244
0.000416543
0.00171101
0.00494223
0.00497831
0.00749335
0.000839758
0.00061751
0.00752261
0.0023144
0.00392501
0.00748094
0.00227704
0.00749372
0.00754046
0.00496254
0.00503781
0.00167859
0.00706054
0.00753992
0.00612579
0.00537502
0.00535354
0.00117841
0.00179035
0.0074684
0.0014884
0.00717556
0.0074792
0.00738456
0.00186546
0.00466911
0.00230305
0.00306997
0.0066731
0.00741349
0.00150099
0.000778661
0.0048944
0.00422175
0.00178022
0.00563108
0.00561615
0.0031929
0.00294446
0.00295051
0.00226538
0.00240035
0.00115861
0.007424
0.00125525
0.00672998
0.00405601
0.00748744
0.00216371
0.00287652
0.00752151
0.00210628
0.00136665
0.00424612
0.00162773
0.00560606
0.00678856
0.00503235
0.00359043
0.00504086
0.00353645
0.000782583
0.00530427
0.0032098
0.0018248
0.00181348
0.000698789
0.00177988
0.00425754
0.000571986
0.00741651
0.00727311
0.00401647
0.0023678
0.00409659
0.0016037
0.00144787
0.00339509
0.00630509
0.00535587
0.00336582
0.00367677
0.0040591
0.00362591
0.0014394
0.00433366
0.00595218
0.00213918
0.00164677
0.0021202
0.000546881
0.00404615
0.00538759
0.00388724
0.00406622
0.00469429
0.00742821
0.00344546
0.00390102
0.000879394
0.00314135
0.00523154
0.00386175
0.0067144
0.00356584
0.000867213
0.00464471
0.00223527
0.00679159
0.00230467
0.00286983
0.00376451
0.00548261
0.00534141
0.00359158
0.00145734
0.00404618
0.00175043
0.00074495
0.00591899
0.00734612
0.00625273
0.00125063
0.00620553
0.00197465
0.00674421
0.00175188
0.00131929
0.00304745
0.00386188
0.00435993
0.00746996
0.00515835
0.00322907
0.000905679
0.00246621
0.000636252
0.007447
0.00272837
0.00328178
0.00238903
0.0041132
0.00288173
0.00171509
0.00167717
0.0043199
0.000785322
0.00400725
0.00428165
0.0050393
0.00584028
0.00488047
0.00524865
0.00149062
0.00403537
0.00382799
0.00604805
0.0067256
0.000800038
0.00166188
0.000766264
0.00187241
0.00132881
0.00210162
0.00404254
0.00139374
0.00419607
0.001399
0.00203459
0.00207007
0.00149575
0.00363416
0.00627349
0.0051364
0.00753426
0.00168685
0.00377569
0.00369326
0.00495516
0.00169124
0.00674941
0.0046719
0.00699088
0.00746625
0.0029843
0.00231555
0.00302829
0.00406343
0.00679686
0.00235415
0.00744536
0.00376285
0.00340997
0.00717709
0.00282837
0.00171294
0.00542348
0.00264741
0.00457858
0.00229276
0.00208758
0.00298347
0.00330548
0.000223351
0.000423355
0.00168622
0.00038288
0.00351431
0.00413009
0.00054525
0.000505862
0.00633309
0.00121587
0.00344505
0.00429541
0.000451897
0.00266939
0.00697053
0.00328388
0.00184409
0.0071077
0.000749887
0.000357957
0.00253176
0.000789641
0.00242706
0.000946114
0.000664165
0.00620631
0.0047152
0.00279446
0.00157569
0.00386481
0.00714681
0.00243536
0.00064446
0.00682329
0.00176343
0.00539453
0.00218539
0.0071593
0.00652555
0.00217364
0.00221406
0.00442752
0.00198987
0.00589665
0.00106493
0.00743921
0.00724794
0.00321575
0.0019512
0.0050326
0.00747432
0.000785415
0.00136181
0.00189692
0.00379028
0.00378592
0.00231489
0.0010439
0.00466485
0.000990725
0.00180567
0.00653681
0.00370853
0.00231096
0.000907628
0.00271789
0.00213011
0.00609027
0.00702042
0.00247557
0.00452081
0.00275221
0.00543109
0.00740529
0.00728897
0.0050647
0.00210718
0.00071661
0.00515454
0.000480635
0.0047986
0.00489548
0.00321181
0.00663908
0.00412649
0.00548111
0.00556034
0.00197662
0.00677424
0.00153807
0.00754824
0.00037606
0.00110109
0.00186044
0.00201245
0.00534721
0.00563616
0.00359864
0.00688878
0.00073226
0.00070395
0.00351705
0.00200512
0.000842978
0.000878126
0.00229553
0.00114282
0.000497207
0.00385456
0.00713773
0.000441407
0.00438562
0.0059715
0.00488047
0.000722612
0.000544755
0.00448532
0.00493299
0.00146822
0.00215121
0.000958738
0.000720415
0.00338892
0.00103211
0.00109359
0.00347945
0.00481602
0.000882724
0.00676944
0.00102409
0.000229807
0.00744167
0.00559937
0.00453218
0.00649326
0.0031287
0.00359801
0.00727755
0.00308755
0.00419907
0.000997333
0.00184081
0.00596666
0.00132899
0.00584712
0.000372678
0.00690548
0.00392724
0.00211356
0.00695994
0.00103246
0.00416151
0.00320489
0.00242479
0.00228637
0.00416884
0.00217667
0.00214099
0.00078281
0.00696925
0.00107112
0.00075803
0.00121769
0.00480745
0.00108474
0.00214229
0.0047884
0.00509025
0.00116667
0.00196864
0.00255546
0.000729799
0.00259042
0.00110489
0.00137276
0.00297122
0.00237186
0.00096001
0.00273476
0.00721533
0.00234437
0.00431889
0.00255841
0.00229918
0.000612796
0.00615854
0.00443153
0.00576735
0.00151512
0.00564886
0.000538072
0.00236124
0.00564568
0.00732353
0.00204938
0.00196269
0.000977963
0.00180162
0.00272044
0.00138153
0.00100874
0.00450689
0.000914482
0.00156503
0.00337551
0.000529248
0.00132986
0.00309191
0.00320136
0.00561269
0.00180156
0.00056127
0.00202229
0.00198976
0.00271501
0.00705919
0.00221372
0.00539025
0.00381629
0.00625818
0.00126058
0.0020616
0.00156208
0.00470502
0.00185027
0.00448563
0.00283262
0.00133801
0.0019422
0.00247204
0.00276187
0.00640341
0.000409143
0.00150901
0.00177245
0.00139561
0.00210237
0.00651454
0.00108944
0.000430566
0.00172883
0.00336302
0.0031409
0.00262908
0.0024604
0.00096706
0.00625125
0.00138876
0.00173184
0.00680264
0.00153586
0.00352405
0.00262366
0.00294171
0.00158365
0.00245856
0.00726286
0.000643906
0.00348053
0.000674676
0.00270348
0.00501278
0.00315319
0.00230246
0.00164038
0.00363363
0.00471925
0.00338669
0.00132749
0.00483855
0.00551565
0.000578622
0.00747282
0.0042872
0.000795063
0.00422953
0.00261556
0.00133782
0.0025109
0.00113694
0.00474203
0.000195459
0.00186023
0.000900426
0.00244293
0.00136399
0.00359455
0.000946067
0.00142413
0.00127428
0.00375907
0.00411572
0.00734535
0.00422243
0.00411215
0.00293909
0.000593914
0.00390746
0.00635188
0.00581314
0.00599884
0.00370549
0.00434754
0.00741251
0.00747569
0.00310139
0.000963538
0.007421
0.0029055
0.00242484
0.00561561
0.00723955
0.00295
0.00299129
0.00746596
0.00651248
0.0035381
0.00376027
0.0072785
0.00394885
0.00104647
0.00403297
0.00454772
0.00643728
0.00751841
0.00140377
0.0053633
0.00667329
0.000845067
0.0011465
0.000955414
0.00735182
0.000905727
0.000458727
0.00722804
0.000288065
0.000819977
0.000535884
0.00405506
0.0053071
0.0044566
0.00169905
0.0074895
0.00459501
0.0047052
0.00404144
0.00308608
0.00406028
0.0035542
0.00125763
0.00448324
0.00295301
0.0008631
0.00410679
0.000380923
0.00217009
0.00128415
0.00734472
0.00312745
0.00205703
0.00702146
0.00535488
0.00196735
0.0075346
0.00192728
0.00188485
0.000381714
0.00687663
0.00134068
0.0064683
0.00317576
0.00316144
0.00633398
0.00141521
0.00596565
0.00239444
0.00631445
0.00125946
0.000256098
0.00461815
0.00750313
0.000407179
0.00498584
0.000229732
0.00446877
0.00387581
0.00494659
0.00488263
0.00623752
0.00701536
0.00470329
0.00216694
0.00597413
0.00223428
0.00423557
0.00423004
0.00741843
0.00240368
0.000803111
0.00410471
0.00162612
0.00665736
0.00522465
0.00313601
0.00445698
0.00494982
0.00644525
0.00246485
0.00272592
0.00746916
0.00411973
0.00514297
0.00535257
0.0039046
0.00175042
0.00126213
0.00473841
0.00413192
0.00275775
0.004056
0.00679612
0.00549765
0.00709987
0.00218977
0.00228013
0.00196356
0.00372547
0.00512122
0.00506336
0.00137462
0.00668504
0.00678745
0.00596838
0.0016458
0.00301185
0.00128499
0.0012777
0.00123433
0.00414529
0.00548843
0.00539171
0.00500403
0.00701723
0.00127076
0.00510097
0.00729486
0.00444958
0.00339165
0.00501757
0.00113858
0.00512974
0.00240149
0.00278228
0.00359466
0.00674682
0.00505214
0.00404507
0.00402387
0.00532969
0.00316207
0.00398611
0.00313405
0.00425484
0.00509733
0.00488434
0.00233211
0.00203894
0.00564678
0.00440983
0.00264369
0.00387697
0.00231592
0.0074005
0.00682193
0.00262044
0.00537784
0.00653945
0.00483239
0.00732282
0.00744222
0.00462561
0.00470379
0.00161192
0.00506009
0.00279729
0.00724977
0.00518472
0.000861096
0.00447124
0.00434877
0.00621407
0.00580407
0.00415021
0.00438625
0.000323474
0.00352169
0.00188113
0.00704464
0.00611695
0.00515481
0.00747555
0.00714824
0.00357446
0.00430755
0.00707157
0.00741048
0.00226855
0.000950016
0.00143371
0.00312534
0.00177977
0.00362265
0.0050346
0.00362195
0.00206831
0.00205613
0.00402946
0.00447412
0.00084768
0.00551706
0.00442808
0.00412645
0.00421374
0.00739655
0.000345612
0.00530472
0.00384812
0.0072804
0.00286825
0.0034027
0.000357419
0.000246941
0.00525677
0.0066928
0.00744701
0.00414685
0.00387881
0.00629216
0.000234599
0.00102149
0.00557319
0.00262028
0.00139235
0.00567651
0.00687776
0.00264607
0.00746812
0.00590018
0.00724368
0.00489508
0.00281825
0.00419665
0.00452803
0.00668138
0.0023294
0.00481522
0.00743413
0.00115769
0.00568713
0.00399644
0.00274404
0.000984336
0.00128018
0.00358114
0.00288529
0.00607495
0.00284955
0.00301786
0.00756448
0.000588248
0.00136604
0.00288195
0.00419728
0.00342294
0.00405601
0.00405921
0.00102906
0.00749729
0.00728701
0.00574875
0.00540065
0.00100073
0.00145207
0.00110289
0.00168124
0.00360682
0.00288995
0.00749743
0.00752647
0.00457061
0.00602165
0.00531039
0.00653697
0.00753535
0.00103663
0.000385803
0.00740493
0.00746943
0.00367733
0.00134965
0.00369921
0.00749163
0.00593277
0.00144474
0.000906475
0.00382724
0.00186691
0.00216916
0.00211024
0.000445655
0.00298178
0.00694486
0.00753661
0.00615687
0.000910905
0.00662069
0.00436351
0.00451897
0.00749773
0.000737635
0.000174813
0.000287069
0.00175414
0.00114308
0.00695891
0.00742403
0.00296378
0.0047133
0.000788808
0.000982158
0.000517129
0.000434895
0.000594579
0.00196251
0.00720811
0.000873735
0.00735023
0.000385402
0.00394585
0.000697498
0.00460202
0.00202999
0.00724136
0.00361114
0.00225358
0.00227384
0.00708089
0.00559132
0.00401819
0.00100133
0.00130022
0.00500862
0.00523827
0.000462795
0.000328457
0.004381
0.00142404
0.000746888
0.00111432
0.00531482
0.00741793
0.000550149
0.000535415
0.00130303
0.00750903
0.00116131
0.00701757
0.000597986
0.00106264
0.000259494
0.00216627
0.00684908
0.00197439
0.00735491
0.00490471
0.00424251
0.00248346
0.00640668
0.00431614
0.00611035
0.00392046
0.00464088
0.00745145
0.00724813
0.00446576
0.00713918
0.00687489
0.00462035
0.00612091
0.00196986
0.00403187
0.00249003
0.00413785
0.00698045
0.00578905
0.000927131
0.00423682
0.00363935
0.00230797
0.000641267
0.0047484
0.00241767
0.0041632
0.00105167
0.00256034
0.00138148
0.00636414
0.00736809
0.00495972
0.00380016
0.00657492
0.00375007
0.00349767
0.00422661
0.00718032
0.00539383
0.0066446
0.00506096
0.00340324
0.00541666
0.00380845
0.000711119
0.00394492
0.00431595
0.00469507
0.00318158
0.00119737
0.00225915
0.00439617
0.00528671
0.00340697
0.00100954
0.00127822
0.00457764
0.00346198
0.000365219
0.00159956
0.00208456
0.00413474
0.00154247
0.00327203
0.00411903
0.00368572
0.00113725
0.00483405
0.00422358
0.00293918
0.00678042
0.00238352
0.00299547
0.00332679
0.00344071
0.00198028
0.00471415
0.00594464
0.00750064
0.00228487
0.00359418
0.00446782
0.00201181
0.00565126
0.000986909
0.00298864
0.00348074
0.000421646
0.00208921
0.00728719
0.00355891
0.000763688
0.00168808
0.00247825
0.00744328
0.0029143
0.00136687
0.00658944
0.00755648
0.0006862
0.00209217
0.00157858
0.00184965
0.00686284
0.00517642
0.00122106
0.000510041
0.000779015
0.00570323
0.00607335
0.000545348
0.00736174
0.00200708
0.00307304
0.00140202
0.0014189
0.00705983
0.00375236
0.00106636
0.00410797
0.00454456
0.00524653
0.00372184
0.00560588
0.00110234
0.0002978
0.00434761
0.00364721
0.000383447
0.000612553
0.000661161
0.00252742
0.00111827
0.00225409
0.000546824
0.00356854
0.00354975
0.00077635
0.00259192
0.00249389
0.000526268
0.000819402
0.000346917
0.00746064
0.00715407
0.000430786
0.00641294
0.00433558
0.000719892
0.00622694
0.00302625
0.00523464
0.00351319
0.00513004
0.00685508
0.000483072
0.000385814
0.0017248
0.0006311
0.00241283
0.00431563
0.00447711
0.00520033
0.00335381
0.00572159
0.00647329
0.00476686
0.00558966
0.000436372
0.000375453
0.00562321
0.00211383
0.00656124
0.00386696
0.00305036
0.0036117
0.00375434
0.00530201
0.000532508
0.00128786
0.00438006
0.000584333
0.00285362
0.0012688
0.00265382
0.00390363
0.000907891
0.00284572
0.00120879
0.00194636
0.00293057
0.00293643
0.00683838
0.00130511
0.007484
0.00637533
0.00276263
0.00439793
0.00149283
0.00355388
0.00204442
0.00352799
0.000817037
0.00427679
0.00350597
0.00373813
0.00744955
0.0036959
0.00451505
0.0016606
0.00054541
0.00357502
0.000625185
0.00345986
0.00515935
0.00195111
0.00521973
0.00589087
0.00579229
0.00320963
0.0012746
0.00217906
0.00154436
0.000657573
0.00186054
0.00532175
0.000164398
0.0010712
0.00594604
0.00281017
0.00149633
0.0040497
0.00080774
0.000445473
0.00271577
0.00124823
0.00142864
0.00309212
0.000845042
0.00205914
0.00719535
0.00356403
0.00102888
0.000958238
0.00736177
0.00102096
0.00740497
0.00268945
0.0063045
0.00268937
0.00195307
0.00102529
0.000989631
0.00583959
0.00566859
0.000231206
0.00747746
0.00457109
0.00112751
0.00667259
0.00294853
0.00214484
0.00420347
0.000488361
0.00154138
0.000395771
0.0014278
0.0031574
0.00130496
0.0070308
0.00615169
0.00121927
0.00733602
0.00396161
0.00266112
0.00569258
0.00150794
0.000538953
0.00740261
0.00271463
0.00728296
0.000852853
0.00532948
0.000596839
0.00292347
0.00243608
0.00679934
0.00264713
0.00268566
0.00708803
0.0059164
0.00355541
0.00752451
0.00121266
0.00377266
0.00359317
0.00649485
0.00488224
0.00358618
0.00300455
0.00294849
0.00267984
0.003378
0.00477891
0.00503836
0.00176326
0.000611003
0.000767373
0.00075399
0.00126011
0.000853439
0.000849573
0.003338
0.000280747
0.000552549
0.00130102
0.00228406
0.0028768
0.000774447
0.00101035
0.00242371
0.00126939
0.00216029
0.00647086
0.00289665
0.00120133
0.00425069
0.000375047
0.00283951
0.000358873
0.00218558
0.00118348
0.00138965
0.000618496
0.000553276
0.00212513
0.000491641
0.00282481
0.00184431
0.00500193
0.00180312
0.0056408
0.00662103
0.0010243
0.00365627
0.000859343
0.0015098
0.0055724
0.00238684
0.00511877
0.00128145
0.00101679
0.00733124
0.00560292
0.00179283
0.000888814
0.00379348
0.00279363
0.00118376
0.00114917
0.00566009
0.00734903
0.0039997
0.00485719
0.000762162
0.00751206
0.000961651
0.000323091
0.00553214
0.00308788
0.00507849
0.00457468
0.000688478
0.00280604
0.000725424
0.00395398
0.00551251
0.000568853
0.000792345
0.00624716
0.00248809
0.00626147
0.00718943
0.00112806
0.00270845
0.000721995
0.00438348
0.00701521
0.00228753
0.00659023
0.00635791
0.0061063
0.00538707
0.00279372
0.00220721
0.00134897
0.00333332
0.0012775
0.00380986
0.00734058
0.00220654
0.00128531
0.00081776
0.000934533
0.00116766
0.0020562
0.0010111
0.00104888
0.000809904
0.000959299
0.00345673
0.00302704
0.00420894
0.00144912
0.00471268
0.00291621
0.00336377
0.00173088
0.000541295
0.00349942
0.00232036
0.00351277
0.00570125
0.00344163
0.00571
0.0062147
0.00539099
0.00285498
0.00329974
0.00285176
0.0063747
0.00310653
0.00133766
0.00080396
0.0045912
0.000620018
0.00730402
0.00382742
0.00743269
0.00469543
0.00105158
0.00275131
0.00129676
0.00386117
0.00426626
0.00409425
0.00464121
0.005644
0.00300603
0.00360973
0.00385781
0.00692402
0.000902922
0.00334888
0.00148722
0.00296515
0.00115073
0.00690407
0.00468563
0.00360357
0.00407953
0.00298441
0.000968824
0.00719888
0.00508156
0.000617272
0.0024831
0.00243274
0.00315588
0.00244756
0.00275095
0.00214522
0.00592124
0.00710122
0.00676886
0.00203323
0.00188371
0.005455
0.000375435
0.00548589
0.00176071
0.00704841
0.00701194
0.00200161
0.00443037
0.00634992
0.00111729
0.00740903
0.00432499
0.00171847
0.00203341
0.00745767
0.00128862
0.007041
0.0069742
0.00130058
0.00385558
0.00289765
0.000858556
0.00749802
0.0017088
0.00156473
0.00174506
0.00104601
0.00119613
0.00579485
0.00578531
0.00294122
0.0063013
0.00229783
0.0029646
0.00643567
0.00714526
0.00349258
0.0012802
0.00301881
0.00446544
0.0021717
0.00347454
0.00222095
0.00737953
0.00210299
0.00136685
0.00377452
0.00490905
0.00547859
0.00595276
0.00382989
0.00437587
0.00229707
0.00401914
0.000546563
0.00463555
0.00720798
0.00095478
0.00288126
0.000692217
0.000920825
0.00590657
0.00417418
0.00132669
0.00310568
0.000403589
0.00152034
0.000699297
0.00168825
0.000414643
0.0029098
0.00158301
0.00177258
0.000612523
0.00109104
0.00304122
0.000553124
0.000374077
0.00183976
0.000340053
0.000882556
0.00156689
0.00120776
0.000545492
0.000908431
0.00751206
0.00380156
0.000999625
0.000868358
0.000971998
0.00148865
0.00158183
0.000733225
0.00296568
0.00375765
0.00472102
0.00734959
0.00328341
0.00716221
0.00105951
0.00302032
0.00444074
0.000758888
0.00409032
0.00233936
0.00534558
0.00682107
0.00323626
0.00502974
0.00179637
0.00728446
0.00224339
0.000592676
0.00561047
0.00735614
0.00403756
0.00582814
0.00137352
0.00309247
0.00604732
0.00656398
0.000622748
0.00716046
0.00478351
0.00699037
0.00195552
0.00349481
0.00463857
0.00635707
0.00572872
0.00143965
0.00413603
0.00256072
0.00711517
0.00729947
0.00733643
0.00466033
0.00490945
0.00374094
0.00681774
0.00358316
0.00377033
0.00306297
0.00118654
0.00134734
0.00386204
0.00203858
0.0043625
0.0027708
0.00350512
0.00377051
0.00706113
0.00319497
0.00434761
0.00654219
0.0020183
0.0047647
0.0031153
0.00120682
0.00496065
0.00288503
0.00141781
0.00400388
0.00119721
0.00205006
0.00109419
0.000383638
0.00291091
0.00606981
0.00240979
0.000491829
0.00306691
0.00707064
0.00704466
0.00684014
0.00411594
0.00481541
0.00743616
0.0074566
0.00425237
0.00307754
0.00736756
0.00718784
0.00750578
0.00621002
0.00323203
0.00195733
0.00316828
0.00660306
0.00414724
0.000924005
0.0061257
0.00667047
0.00359035
0.000515882
0.000707041
0.00377126
0.00537174
0.00577923
0.00340309
0.00393946
0.000601612
0.00201594
0.00537957
0.00409898
0.00728887
0.00387899
0.00202684
0.00351747
0.00330904
0.00403552
0.00140866
0.00197868
0.00144667
0.0010779
0.000304954
0.00164143
0.00194596
0.00411931
0.00418197
0.00363237
0.00332571
0.00698214
0.00466597
0.000451964
0.00742992
0.00186835
0.00109752
0.00342759
0.00303816
0.000339899
0.00204383
0.0044891
0.00394075
0.00751048
0.00312083
0.000954969
0.00395123
0.00180832
0.00375711
0.00288793
0.000605518
0.00088214
0.00379379
0.00372787
0.00112976
0.00526088
0.00071556
0.000705014
0.00123061
0.00742005
0.00731973
0.00025187
0.00683648
0.000489106
0.00229879
0.00341559
0.00117658
0.00100498
0.00708024
0.00745826
0.00100879
0.00710382
0.00674214
0.00550433
0.00729909
0.00444496
0.00458742
0.00241976
0.00654275
0.000359068
0.00332072
0.00567553
0.00414505
0.000316209
0.00440318
0.00055464
0.00548195
0.0041585
0.00410564
0.00118334
0.00568118
0.00433202
0.00560435
0.00085095
0.00215348
0.00215598
0.00149083
0.00294912
0.00700605
0.000854218
0.00315166
0.00337698
0.00315131
0.00566849
0.00333707
0.00377694
0.0073212
0.000403316
0.00156473
0.00490456
0.00559199
0.00204751
0.00515746
0.0029723
0.00367905
0.00584128
0.00239408
0.00539966
0.00603629
0.00439316
0.00137227
0.00493279
0.0053461
0.00559021
0.00370221
0.0071999
0.00537788
0.00647428
0.00283061
0.00500692
0.0027505
0.00259385
0.00409811
0.000464999
0.00571509
0.00346849
0.000899346
0.000783365
0.00132438
0.00399528
0.00246827
0.00197183
0.000348882
0.00400951
0.000910574
0.00404717
0.00733649
0.00300889
0.00182349
0.00394601
0.00584472
0.00730374
0.00630394
0.000333642
0.00623153
0.00706187
0.00269098
0.000502556
0.000456839
0.00422247
0.00026859
0.000892842
0.00107224
0.00124094
0.000730257
0.000389944
0.00583907
0.000807803
0.0040721
0.00697144
0.00361464
0.000487906
0.00217197
0.00710449
0.00673912
0.000923585
0.00563573
0.000475671
0.00705724
0.00295206
0.00585095
0.00300669
0.000623037
0.00727735
0.00320668
0.00292007
0.00650829
0.0037342
0.0069323
0.00297523
0.000584218
0.000580596
0.000605644
0.0016659
0.00174077
0.006885
0.00705553
0.00600223
0.00375165
0.00734497
0.00175737
0.00749602
0.00106229
0.00424155
0.00721056
0.00664883
0.00480956
0.00717145
0.00393499
0.00310644
0.00736989
0.00326923
0.000921036
0.00706191
0.00126323
0.000897464
0.00665134
0.000263612
0.000533779
0.00289651
0.0029876
0.00439529
0.00133028
0.00450479
0.00218708
0.00183886
0.00626802
0.00176538
0.006862
0.00244373
0.00470393
0.00261585
0.0019923
0.000689994
0.00333497
0.00410954
0.000723882
0.00155746
0.0022003
0.00102641
0.0056439
0.00135693
0.00454491
0.00195958
0.00295078
0.00605807
0.00133718
0.00268307
0.00278675
0.00662985
0.00060555
0.000899968
0.000416953
0.00661617
0.00494065
0.00100483
0.000634995
0.00263716
0.00437242
0.00254067
0.00125296
0.000630534
0.00204788
0.00632042
0.00314004
0.00444068
0.00615909
0.00407222
0.000638975
0.006421
0.00215631
0.00318909
0.00721382
0.0026927
0.00278463
0.00689151
0.0043168
0.00337157
0.00231811
0.000891276
0.00498109
0.0016725
0.00254439
0.00198251
0.00307871
0.00202673
0.00166536
0.00367318
0.00685512
0.0064523
0.00658856
0.000713047
0.00436484
0.00109023
0.00386514
0.00464013
0.00606026
0.00368647
0.00723448
0.00253687
0.00747779
0.00252518
0.00241792
0.00367383
0.00492554