/*--------------------------------*- C++ -*----------------------------------*\
| =========                 |                                                 |
| \\      /  F ield         | OpenFOAM: The Open Source CFD Toolbox           |
|  \\    /   O peration     | Version:  2506                                  |
|   \\  /    A nd           | Website:  www.openfoam.com                      |
|    \\/     M anipulation  |                                                 |
\*---------------------------------------------------------------------------*/
FoamFile
{
    version     2.0;
    format      ascii;
    arch        "LSB;label=32;scalar=64";
    class       volScalarField;
    location    "0.0235833";
    object      omega;
}
// * * * * * * * * * * * * * * * * * * * * * * * * * * * * * * * * * * * * * //

dimensions      [0 0 -1 0 0 0 0];

internalField   nonuniform List<scalar> 
47425
(
54.3697
69.7255
67.1637
163.335
124.971
71.3655
86.7118
103.799
49.4655
513.854
142.137
51.5697
64.6328
75.3477
87.8609
92.908
64.5543
53.6032
1083.94
170.909
85.1429
47.5946
106.814
63.0465
49.8973
47.52
73.2986
661.276
66.5976
56.18
48.5074
50.1358
48.6812
62.8343
52.214
67.6375
47.8877
68.3714
64.4803
73.9688
74.0136
54.7295
71.1805
145.225
1760.54
110.013
97.0859
79.7327
77.4388
49.6638
564.955
179.523
49.8758
759.259
116.396
123.657
47.6484
56.2783
83.0714
62.3165
1038.99
1111.65
793.197
50.1723
49.4905
49.1856
65.265
62.6125
756.518
51.4322
76.0588
50.8542
49.8629
86.9664
637.802
49.5341
765.674
80.115
1358.32
225.734
670.108
62.5438
48.3743
50.1776
48.0889
82.4064
53.3288
49.8826
82.9279
364.638
49.0935
79.3731
48.2102
116.316
149.506
196.611
50.4304
50.014
82.8997
81.5092
63.3854
91.1561
51.3091
105.013
49.9091
54.341
48.1545
88.9129
47.1859
49.7133
223.077
62.2748
59.1753
155.571
51.6705
905.565
51.036
231.649
83.1967
57.3812
76.1173
48.8045
61.2347
60.5543
100.096
58.472
83.5452
49.2789
108.494
48.3647
48.6522
101.85
137.506
125.342
52.3435
61.6949
50.7241
60.092
68.6762
98.0376
72.9913
135.762
71.8342
69.4299
54.1272
49.4018
93.1024
64.4627
154.146
73.3929
66.9697
481.985
49.287
678.478
50.67
84.8582
57.882
876.904
96.9016
76.5486
52.0401
48.1551
50.013
49.3245
368.803
805.684
49.1431
639.853
107.299
664.904
631.75
89.3846
74.7697
49.3017
75.808
69.5517
706.3
65.0992
53.1423
47.7646
970.941
47.8968
57.498
48.5241
48.6266
53.9617
56.1988
85.2164
147.892
52.9336
48.5091
65.2143
74.1374
77.3713
49.5308
51.0934
62.3324
73.1296
51.6805
76.1519
67.6375
123.041
47.7371
51.1034
53.633
159.126
51.1433
51.0346
90.2876
49.0432
62.9459
61.4629
49.2396
86.4615
61.0738
59.9353
66.3256
227.672
51.8364
97.0772
247.043
104.147
60.8911
88.899
167.899
206.706
49.5293
127.394
54.4125
63.5419
62.9418
74.2218
109.322
49.3588
166.35
95.1612
278.148
119.087
231.27
181.618
81.4434
54.0514
48.1139
100.659
48.2354
50.5288
63.8803
63.3249
47.5547
73.3364
46.9218
186.177
64.7894
49.4035
91.6699
47.8645
48.2274
124.115
93.0197
49.0984
129.561
49.6842
73.8464
136.189
64.3618
93.919
48.2843
64.6392
59.1732
81.8278
76.45
204.184
274.571
50.3745
189.918
181.084
191.097
124.634
259.162
179.213
1079.44
52.5048
998.984
127.563
78.7566
80.6665
108.175
87.7688
93.2957
52.9255
581.458
50.015
50.3469
54.8616
63.0817
103.149
113.865
48.2516
64.5428
58.6204
94.0315
48.8652
91.321
57.1261
731.351
985.695
658.648
47.7935
49.4036
48.0149
105.065
651.561
86.6199
120.014
200.758
77.4686
106.17
126.06
88.2617
337.161
179.164
48.0429
59.1895
48.1669
86.2042
47.689
75.1937
57.7616
52.0825
70.3808
72.5388
509.302
53.3753
74.8466
130.223
48.0624
534.515
52.5786
48.7415
52.0241
49.0288
49.2514
47.3513
53.4411
50.4868
52.393
57.0929
49.9018
77.8856
88.5208
49.5192
49.9443
62.8319
52.0076
50.186
54.23
77.2773
48.301
52.4857
94.9379
63.5916
57.9502
83.8918
91.2354
48.2883
51.2664
134.718
49.2669
67.507
48.5233
134.752
737.895
75.4605
48.656
200.308
48.7943
54.6321
97.3151
72.9143
47.8951
64.726
48.8864
47.0502
74.6428
89.5746
83.2936
85.4406
52.0807
50.6712
84.5316
50.6989
49.6924
82.1453
55.3428
65.1447
50.7618
61.4237
91.6915
66.3803
49.2153
453.812
48.5597
317.572
74.1613
109.044
107.205
49.502
145.907
48.1431
96.7423
49.4217
752.243
324.816
49.1487
52.5792
78.7128
83.6402
79.5719
77.1538
73.7156
91.0905
68.8224
47.5844
102.565
66.9054
49.8786
76.8473
70.4969
53.3513
148.718
1130.22
50.168
290.836
916.522
92.4462
951.813
851.08
51.1359
76.0644
71.5334
72.4702
592.017
93.5508
50.8507
51.9772
68.9813
70.5162
82.273
80.7458
409.737
619.448
143.625
66.4204
75.5829
81.0556
53.8427
50.1537
60.8232
50.1416
85.3392
76.0041
132.8
68.0674
49.3779
76.4113
59.1583
81.9544
50.6963
61.7163
65.7946
68.3836
64.0233
110.944
127.794
59.1777
87.1145
50.477
439.368
132.033
74.1895
49.5889
142.361
178.601
50.8444
48.0458
51.1417
51.0322
67.5125
52.0358
112.297
74.1426
50.6874
53.5469
153.707
100.359
47.8926
54.6065
57.4158
58.8196
49.495
51.6435
47.6821
67.1835
56.7352
113.716
59.0212
48.4731
47.9531
50.8299
75.0005
131.363
49.6644
48.0264
57.2352
53.2533
53.4464
57.9227
73.8565
70.1314
53.5938
77.0728
101.195
410.155
61.8077
69.214
56.1089
49.4231
115.178
115.799
80.8767
51.7203
84.9606
86.6038
50.7395
126.596
48.8112
237.827
54.8649
55.1857
58.463
113.288
47.2291
71.5411
70.4767
48.5597
47.1027
50.645
1092.69
59.8599
154.505
48.0853
91.7012
50.4178
57.4097
79.1799
71.7749
70.9782
47.9103
405.756
52.861
56.4445
52.4322
50.9509
48.0854
60.8011
95.4229
51.2503
52.0918
67.9088
47.8475
202.664
48.5043
61.4552
490.871
73.1894
47.7827
366.812
523.871
48.4012
636.27
687.186
69.9455
50.0266
51.5018
47.6182
88.4439
93.4064
424.684
48.2244
134.175
51.768
96.936
59.6442
86.9051
69.3339
437.724
203.414
52.0558
91.5175
83.0303
82.4321
124.429
128.574
51.71
96.594
133.338
75.7992
69.3019
124.104
54.1002
50.564
125.648
96.8611
75.417
127.825
105.571
62.8831
74.1318
57.3426
58.0254
71.3342
50.856
49.0654
1347.92
61.3467
68.5523
1037.94
1000.41
47.2355
79.6106
1611.73
176.198
92.1466
234.521
119.717
733.012
56.2559
50.2475
61.927
152.131
114.424
113.204
48.6462
121.772
63.6646
79.4447
52.6639
82.59
56.2923
334.138
654.783
125.235
55.4828
87.7595
49.3416
111.787
49.9716
60.8779
64.7096
68.1129
49.3971
189.562
78.345
48.3006
76.0061
194.264
853.387
200.43
90.6787
49.0461
75.7735
48.0575
853.253
70.1325
492.278
86.1088
92.5611
59.8073
71.3404
62.4266
82.2499
58.5095
87.662
51.9473
210.92
78.545
49.2886
67.2308
91.4174
1026.91
59.3921
206.736
63.1805
48.8468
47.5823
149.57
78.4947
67.4017
49.4016
65.024
61.3674
75.5549
80.8383
79.7347
63.4924
123.935
195.024
71.7926
97.7394
65.7505
117.129
92.4979
48.5333
59.3405
56.6588
72.3155
79.9439
48.3824
307.662
382.957
97.9595
67.9603
49.0245
93.5929
51.6135
141.281
51.5477
214.249
85.3928
48.0298
78.7036
49.6891
58.8905
70.1963
50.0168
90.014
49.2328
49.1195
51.1828
171.169
47.0092
384.321
195.534
234.383
350.189
82.8146
130.212
58.8026
53.1488
142.923
345.722
365.601
87.7797
57.8856
93.5666
122.794
156.778
135.099
95.2064
53.0579
68.0976
82.6259
118.446
58.6433
86.4086
340.254
61.9053
65.4218
153.684
120.705
114.833
107.228
638.089
422.329
225.389
251.382
80.8686
122.664
48.1883
48.9343
74.1226
393.384
190.055
73.2807
75.1708
47.9456
350.849
350.639
47.3969
173.42
92.0113
47.7858
170.629
47.4497
47.5835
71.9442
73.7784
90.2034
50.7501
47.9678
58.5204
71.1409
69.6238
144.118
99.0041
47.0858
259.186
49.9973
47.3851
48.0355
204.811
81.606
242.966
116.114
52.8828
49.4359
70.3972
1086.42
73.914
85.4645
81.1722
66.4966
64.2254
122.193
124.648
128.185
357.231
86.255
711.144
49.4992
70.3303
53.1971
64.6242
47.7698
170.605
131.938
47.8812
393.452
107.875
67.0362
230.34
71.9157
53.0606
73.2855
69.0791
70.9917
106.803
372.55
66.9458
71.3811
210.86
225.95
655.44
221.783
92.0415
186.004
49.1889
49.6689
96.1483
135.041
88.9043
85.6556
96.0848
104.276
50.3859
65.2322
110.254
102.451
92.7678
185.842
805.857
90.9442
70.7239
112.783
519.137
205.593
219.48
95.7825
67.5951
97.0979
95.5699
98.0981
48.1983
51.9634
97.4457
402.027
117.53
69.5636
96.9408
52.7201
110.991
132.484
78.7552
383.819
52.7817
66.9935
131.444
97.623
66.3603
67.819
105.12
99.921
95.6525
64.9074
135.691
50.9621
49.1345
51.6876
88.7728
57.1109
149.958
53.8329
225.799
300.464
189.258
91.3126
83.923
49.2091
70.5096
116.716
469.248
211.876
799.741
48.7903
59.7608
55.3869
246.793
85.6355
312.002
241.583
236.261
93.4655
256.72
88.7162
81.7741
70.8997
51.9529
83.3153
69.8363
73.9855
164.822
80.0614
58.6836
53.7437
269.435
432.9
153.268
182.667
615.854
193.476
95.337
78.0606
83.8737
108.711
187.003
190.578
645.015
51.1276
58.033
69.3449
49.3305
67.0983
103.312
96.2456
54.9397
110.893
53.2227
78.322
51.6972
48.7848
126.014
64.3547
124.842
50.5382
49.1589
164.12
49.3553
91.7716
102.578
49.1636
63.2008
119.659
69.477
64.1218
77.6247
344.862
187.205
126.665
108.399
1828.97
991.402
522.943
405.357
108.533
54.237
1040.09
394.751
55.4136
68.6075
110.1
88.7547
353.674
140.664
51.8912
117.02
58.9812
50.387
205.333
879.58
139.856
1193.61
149.183
250.003
1131.99
57.2034
80.7223
134.786
225.958
97.0837
52.5509
52.5608
810.441
54.5255
315.302
66.4619
167.654
49.7792
55.6247
471.793
471.032
87.2191
58.8737
69.358
378.944
48.6044
48.8475
376.338
502.163
74.3923
48.7639
1025.3
819.504
446.739
101.616
171.376
401.817
461.492
77.5773
105.208
95.9225
58.0493
99.0168
461.053
1557.74
63.3837
62.3154
60.8435
51.0798
52.7683
80.7345
136.794
66.7483
49.584
48.9832
70.3744
377.666
1102.05
51.3778
237.75
93.3961
72.2055
166.283
53.481
89.135
66.7203
53.399
202.525
52.2007
475.427
47.7612
779.891
524.467
380.201
206.186
75.6726
66.1005
107.138
52.095
203.782
1433.2
107.967
343.98
192.761
433.474
143.405
792.122
571.808
95.3324
50.235
1460.06
81.8163
49.9103
73.6656
489.621
998.367
79.7133
53.8959
440.734
83.1638
703.955
715.91
111.43
129.185
911.343
106.813
52.489
628.369
51.4781
779.078
1016.67
49.6752
65.0041
81.3483
56.0918
128.02
97.3362
50.8655
126.342
90.9859
121.099
60.3591
48.6389
147.458
93.4323
673.791
55.0725
97.8803
181.712
49.6965
768.11
86.0346
118.11
152.817
506.224
87.4079
688.306
183.949
138.835
57.5956
1112.38
219.012
245.203
82.0407
155.312
62.2706
76.1905
66.4036
314.494
282.306
102.112
683.024
150.362
102.31
271.473
131.197
148.704
739.676
212.322
49.1799
155.807
84.6101
148.503
264.402
907.946
58.2408
51.1485
62.8371
635.705
64.1735
334.675
62.8812
64.3281
49.6506
129.98
60.6007
207.996
270.956
55.6757
65.2428
95.5772
79.7929
955.839
241.851
108.009
703.728
318.01
122.108
168.246
64.9694
60.1688
948.83
59.7924
609.469
225.124
52.0104
61.5937
76.4441
96.17
57.9962
72.1869
114.123
83.6873
75.6674
69.8105
80.0996
166.117
68.358
201.74
160.059
163.511
55.8325
709.231
380.693
61.2816
503.92
341.422
55.0913
116.917
495.881
229.471
52.012
143.527
285.124
168.966
385.484
56.7737
540.332
103.56
52.9111
68.5961
113.256
160.76
129.896
67.9441
240.69
48.9941
286.039
111.864
1127.68
147.395
72.062
123.277
228.952
59.185
175.453
91.1545
106.216
671.729
75.1519
70.4919
934.781
47.5548
88.5393
393.089
59.9512
235.898
851.484
154.46
80.5643
77.2434
937.414
229.911
374.786
223.493
79.929
65.6101
105.321
558.557
874.518
212.668
91.3969
49.6184
87.8783
88.3892
131.83
325.086
96.2088
57.0405
60.4268
59.3515
50.8488
88.9838
50.8547
50.2167
124.658
93.8172
48.5236
133.178
195.705
65.196
50.0554
135.216
61.8688
49.1382
54.6354
105.953
98.9386
50.5946
98.6445
558.569
91.1182
53.2537
55.0215
47.7685
201.845
66.173
53.7936
593.923
913.52
286.191
49.877
629.05
155.917
50.0994
908.67
104.026
899.76
94.0764
69.151
85.6352
70.065
48.0943
85.7506
87.7935
94.9858
114.658
88.0975
106.752
151.131
82.7341
76.7874
417.197
89.0948
1220.29
72.3135
634.758
49.3056
122.031
187.987
51.5497
69.5858
193.987
47.619
297.583
295.423
1233.19
56.394
604.275
55.2827
115.016
143.513
56.0562
527.396
63.5189
259.202
55.8781
676.232
668.686
80.2703
47.4954
307.025
73.55
287.693
79.7754
98.5152
72.0552
72.4852
56.8971
51.7028
79.4161
239.034
68.696
180.556
88.1296
84.7548
49.0314
156.585
292.244
90.9589
235.101
58.1573
67.584
121.755
84.1709
73.4577
56.4443
157.513
132.252
48.79
85.2875
69.3619
71.0381
95.4378
263.873
286.762
80.7945
94.636
234.237
88.5
52.71
64.6369
50.038
176.54
169.136
204.122
107.515
71.6604
70.8423
69.5346
53.7924
52.4361
61.0745
445.981
131.145
630.265
468.297
588.171
56.0816
65.2475
65.8245
70.367
52.2457
291.123
73.2339
48.6666
82.3114
109.94
71.4232
256.646
69.5332
159.041
101.107
102.872
51.9863
71.0875
90.8558
93.5777
66.8112
118.723
91.3502
148.671
82.8096
70.9608
77.8352
154.591
177.322
62.8151
85.5886
132.164
100.261
171.744
48.857
51.8255
134.099
65.5303
54.5656
78.7198
49.4427
48.8067
77.765
78.4975
333.544
71.4273
86.5242
48.8274
69.712
615.237
82.8454
87.3882
57.2391
62.9182
91.6063
88.1405
907.8
108.75
245.127
50.1569
59.0031
73.5557
48.2722
51.2884
110.382
85.4688
50.8467
48.3432
260.028
106.19
468.734
123.971
214.566
106.535
71.1247
111.845
461.804
184.388
89.2552
79.7899
905.819
64.0567
82.1555
92.6524
87.3638
48.9648
946.515
67.1151
96.9913
50.3858
128.686
60.1525
933.561
1004.23
67.9104
52.913
48.041
94.3301
99.1024
57.4381
1166.93
765.766
63.5781
142.733
399.719
62.4178
63.0984
109.331
47.9043
60.2339
50.0538
73.8333
159.41
88.7688
79.7238
50.3815
61.6046
75.6575
48.8919
263.954
64.0382
119.109
137.825
377.484
275.85
105.717
134.911
69.7198
133.239
125.108
49.5007
577.051
284.908
131.33
91.6444
106.77
94.7274
93.065
287.741
47.7344
48.5523
63.6295
67.7456
133.126
82.5772
364.4
423.716
51.8588
131.7
48.7241
49.2811
80.1898
61.583
69.1846
54.5225
47.6434
297.749
400.613
48.9511
47.6953
154.347
952.76
55.3014
47.1338
68.7963
150.21
897.73
91.2179
345.488
265.084
307.886
346.519
73.6894
51.592
47.6221
59.3768
928.915
53.9965
85.9509
83.1343
47.5634
540.472
958.418
954.344
209.406
250.496
52.028
49.1832
55.3257
81.4273
587.885
534.24
357.093
543.014
371.799
62.3632
49.9001
819.072
49.1688
894.953
96.2574
889.693
82.2956
133.129
50.4145
144.653
169.628
171.162
51.7505
65.14
92.1469
81.7527
67.49
72.8143
70.2808
1139.75
603.56
86.8566
305.889
441.569
286.037
68.0625
49.3597
442.822
498.637
443.047
49.6621
878.415
51.6655
953.929
985.037
470.093
234.822
52.309
60.0441
48.3081
73.7263
86.6173
150.397
62.681
82.9917
58.1837
96.6447
77.531
47.9701
49.4097
109.562
49.6809
51.2511
81.1675
58.3881
88.3123
92.3084
159.117
92.9649
50.9924
72.8674
111.556
81.4104
96.7564
128.302
1169.35
57.6053
345.922
66.3
96.971
301.476
75.0718
57.1458
48.6628
81.9762
96.1082
53.9697
98.4361
103.7
84.3555
51.5989
65.8748
52.9761
70.17
112.778
68.2712
102.077
300.629
90.6268
83.4806
76.5493
114.966
88.7422
285.535
49.5589
67.6105
110.678
271.473
278.574
78.205
109.322
923.255
246.14
189.722
92.3133
74.5718
115.363
89.0917
52.719
140.987
79.9828
89.0955
305.248
53.9788
166.164
121.715
118.048
107.988
204.714
79.6413
60.9197
48.4428
57.2207
96.5789
83.1896
566.77
63.089
90.9592
129.82
104.627
858.419
60.2094
49.75
105.709
282.775
352.807
157.034
49.4434
136.207
69.2592
53.0196
48.2497
520.218
104.488
62.9696
340.069
54.0238
69.1314
156.979
705.814
919.183
70.0396
68.7521
875.691
48.5185
153.365
107.724
510.958
309.48
51.8303
96.83
523.897
94.1398
64.6282
67.5264
102.629
56.44
69.1629
369.122
51.0941
102.161
486.985
151.128
556.064
82.0373
413.955
56.0962
1088.23
107.203
106.631
553.447
183.878
243.393
404.485
388.157
292.927
48.2173
49.9378
376.036
58.5674
87.3821
361.732
62.9115
63.047
69.486
130.892
72.406
52.9633
719.763
370.519
143.144
354.429
168.204
88.8126
84.1202
76.1889
116.083
63.9894
55.613
81.4197
62.1927
305.745
321.389
67.2591
58.1624
55.2396
75.3018
109.344
108.151
99.5906
75.6783
345.413
63.0562
65.1053
367.168
132.774
517.145
149.984
94.181
647.543
139.887
115.136
310.712
135.408
128.853
52.7459
808.758
48.016
55.3429
57.7535
88.592
71.6942
104.242
180.517
106.421
144.508
83.1794
113.778
102.284
47.5782
243.281
87.3342
511.135
1280.22
100.016
351.821
104.594
69.9291
623.13
68.1212
60.1809
70.1664
97.1114
622.072
285.847
56.9582
307.792
312.182
67.3064
1815.25
367.589
72.6744
294.787
65.8713
88.7814
234.175
369.161
149.103
719.792
59.8681
54.8442
159.666
57.9561
50.7088
107.958
297.363
464.128
47.8745
146.03
49.7046
147.672
59.8928
147.661
274.861
91.4487
263.358
62.1815
64.3455
748.909
48.7503
53.6539
121.864
54.5815
131.18
293.894
51.5805
942.459
507.88
844.952
448.906
119.592
71.8427
50.936
58.2456
85.0864
49.1324
90.4432
151.085
63.2773
77.5348
607.318
48.7499
149.964
50.2227
132.52
66.6777
705.852
127.533
91.0536
49.1484
138.517
152.473
51.0659
57.8779
101.752
47.1371
206.425
91.3018
107.922
57.9522
50.52
104.976
52.77
130.943
258.44
51.064
67.4015
51.4347
67.3099
410.462
230.383
139.214
399.521
776.513
317.541
77.8543
564.994
449.219
629.382
70.3367
184.569
339.035
292.882
250.855
911.381
60.4045
52.1073
182.176
717.011
56.2893
358.279
102.598
366.124
75.9138
75.4808
544.539
427.92
379.628
62.3544
312.652
130.695
491.929
49.4531
214.853
63.6814
54.7895
100.151
98.6773
307.151
115.586
65.0341
164.385
71.7657
227.633
322.565
50.967
67.6908
60.2785
907.977
79.5747
132.563
155.429
141.674
62.6332
49.8496
94.6859
73.052
364.8
48.5716
106.912
336.487
65.5476
54.4366
72.5425
69.8057
549.201
139.861
193.218
88.9804
65.3158
1094.29
1234.18
58.4816
149.836
58.2986
50.6343
371.208
76.3237
486.2
56.4291
51.473
98.1484
59.6401
54.0573
60.1071
66.8405
139.576
196.48
249.541
209.272
71.7839
79.2984
49.3642
173.081
537.169
861.92
75.8978
544.639
189.794
607.955
85.231
381.369
111.317
129.479
130.77
87.5819
274.19
71.874
171.711
110.855
62.5426
999.914
108.148
542.268
108.565
62.9479
111.04
73.9608
61.4657
66.2588
238.655
108.438
123.185
55.1508
122.158
497.495
132.996
78.4337
166.982
52.1144
60.3192
48.6271
78.8361
81.0938
150.913
74.9133
99.8537
83.1238
71.3387
81.0171
62.0024
72.9958
59.8976
195.118
55.5576
106.297
54.4555
71.0829
129.845
81.7312
51.6095
81.9572
99.2611
93.2413
130.676
331.649
49.2077
106.994
329.216
159.618
156.375
54.3239
157.333
86.3701
254.705
61.3785
52.3913
55.4873
139.238
62.003
64.5196
802.778
103.486
318.496
51.6951
50.6236
170.69
83.2648
57.5871
127.173
49.431
85.0477
59.1977
344.977
48.2705
155.76
51.2017
52.1894
78.7328
66.306
133.889
107.991
47.7451
236.359
69.2761
74.8685
92.7604
727.541
63.0701
63.1065
131.287
62.1792
57.4513
129.042
55.8438
50.6361
107.932
189.759
127.544
87.7993
342.591
111.557
303.429
49.2585
182.672
68.5306
95.9102
94.6389
54.7974
68.8139
63.3759
82.9036
164.522
67.2375
548.568
97.4018
50.295
468.984
131.976
1499.33
305.688
84.4859
87.7477
102.904
122.658
396.427
67.0849
424.283
92.6565
357.4
67.8251
336.942
69.8973
234.989
217.711
130.116
376.081
421.631
644.816
1255.61
519.841
762.528
263.567
371.751
363.829
48.3884
99.2329
308.091
72.5428
573.459
60.8831
436.917
588.247
126.895
103.822
78.3953
47.8559
115.051
49.7292
259.196
134.985
86.1789
179.832
87.3305
157.693
67.4088
55.4731
115.325
53.9371
222.403
49.1975
71.1772
685.316
63.2439
49.8219
90.9329
61.2001
494.373
213.992
69.8698
57.6016
177.436
49.7549
74.2777
54.2418
56.6682
104.162
79.8783
56.3845
61.9347
306.414
84.1615
61.7357
52.1568
49.8621
49.8065
93.366
74.7313
99.8808
52.5864
74.4627
97.2808
55.3132
238.496
77.2558
53.6377
63.702
85.4542
144.42
112.358
100.533
51.5286
121.303
86.3611
56.6218
59.3394
80.5081
77.4639
98.0132
74.5167
131.807
68.7429
82.1475
118.2
252.795
686.105
1083.39
129.966
59.5828
357.268
174.389
115.816
51.2961
51.053
49.9967
86.3171
76.225
48.6747
49.8187
53.2867
116.512
50.0273
49.7377
48.9029
58.3962
162.53
58.9804
119.655
54.9409
89.0071
274.366
57.8551
54.7932
63.8464
1006.03
1016.49
100.428
68.8002
65.3405
60.235
78.3478
480.371
68.7128
68.3854
92.7934
51.3522
93.8535
56.9781
73.1251
115.444
88.161
66.3571
207.063
220.67
68.4734
1960.54
185.453
203.645
62.269
85.5035
102.512
118.506
51.3721
76.6058
318.536
48.9039
202.27
544.84
110.164
127.946
504.488
72.8319
79.2099
95.1415
47.946
125.03
370.98
96.0625
88.0111
313.303
197.297
1135.97
588.82
96.3648
51.5802
144.331
67.5135
179.484
143.208
518.649
49.8806
49.1075
575.578
53.4242
203.767
73.7944
107.541
614.119
793.295
51.0649
48.5228
841.627
51.0597
53.0708
64.1786
48.9335
85.4108
92.5761
240.873
57.1696
546.004
109.213
51.453
85.0592
680.586
83.9911
607.018
66.0428
59.4649
88.3103
88.672
63.1134
89.6724
62.6002
539.922
108.283
110.931
439.397
124.402
53.2029
556.993
99.4803
111.897
78.0411
86.8529
111.872
74.8877
50.9268
254.861
72.5277
73.6044
62.7744
108.296
70.5283
61.0427
52.1076
61.3942
156.67
66.6341
59.9531
84.2372
396.527
72.7088
67.4973
64.4542
97.7002
49.5171
67.7974
57.4585
135.263
78.4674
144.208
151.777
86.7384
393.662
61.0409
59.4733
344.952
333.305
552.771
90.4196
371.69
58.688
411.922
96.5772
298.903
97.4832
49.5172
115.327
210.806
96.4413
62.2764
50.826
56.9129
451.29
57.5235
51.7544
58.4958
2111.77
379.837
50.0943
1497.58
433.348
322.513
170.117
1457.33
322.552
67.4879
336.568
93.2997
51.9172
373.539
928.39
68.3626
50.8225
53.0384
524.247
52.6973
905.953
53.7512
131.388
78.2132
129.789
329.843
50.4408
118.174
123.339
55.886
106.975
51.0998
127.303
1807.7
1868.24
711.987
95.4545
415.574
48.9668
50.3336
58.6248
101.305
48.9108
58.3593
48.9626
75.0007
91.6997
50.002
53.6324
77.7824
50.3395
95.7487
122.563
49.74
117.528
135.33
50.4208
59.2633
857.936
57.6501
797.918
606.956
132.767
136.932
80.7345
124.723
62.4217
57.1978
338.346
57.377
63.6601
54.3931
57.1414
77.1088
139.034
103.49
184.256
113.073
52.8494
517.228
65.1776
283.167
240.725
64.5557
892.349
73.5607
61.2648
61.4865
59.7624
73.4193
53.6141
122.609
55.0344
381.727
205.077
369.534
56.2654
57.9053
83.7311
350.291
307.326
81.7092
148.488
66.8083
359.636
66.6039
72.1104
436.298
87.9551
55.1468
93.3821
1085.38
57.152
61.0014
123.113
51.5245
137.888
136.177
56.4196
82.5014
228.444
173.358
775.89
72.4711
382.953
296.37
290.811
56.2668
183.379
103.216
105.841
54.3507
55.9804
57.733
473.729
82.0197
100.8
150.631
77.6297
60.2518
96.7614
50.2625
147.587
48.6639
64.9927
169.722
106.033
77.6559
171.18
101.553
85.7046
79.4714
129.255
48.5624
228.945
381.282
111.667
70.8733
49.0543
205.4
58.1275
49.7245
87.503
50.1763
110.174
91.4296
49.0446
51.7996
103.545
209.612
198.492
49.6544
754.902
48.4022
98.9642
91.8546
48.6742
738.561
151.633
655.921
50.7277
69.3023
516.481
659.676
92.8446
101.657
194.977
128.565
56.4867
79.005
62.6035
149.516
83.0205
136.497
50.2488
137.354
103.132
114.592
56.0825
90.8314
48.1511
62.8113
546.579
223.602
98.7779
55.7119
108.031
88.6182
89.0151
147.214
49.4657
52.9163
63.9185
89.6742
86.3111
65.3511
115.89
58.9989
55.903
54.6536
69.937
60.3847
60.0338
160.164
76.8679
68.2126
1431.61
79.9352
64.5855
81.3451
48.604
86.9496
211.299
51.7702
82.4618
81.3005
1008.96
65.447
60.6654
95.8501
1463.64
96.3422
154.927
126.37
69.3428
48.8944
72.22
67.418
793.801
99.5427
69.2144
66.2214
50.7365
248.631
51.7737
667.295
253.897
112.438
76.7761
60.5022
110.205
92.0261
60.9535
435.922
120.79
326.815
49.8138
140.788
646.77
119.868
53.1117
103.699
54.1312
705.125
63.003
57.5622
91.4731
47.7151
59.2981
86.2525
51.4689
205.639
50.3481
335.955
48.5601
79.6828
64.4031
152.205
90.643
131.518
103.507
550.015
101.83
124.261
76.5688
50.2918
102.667
59.6822
55.0249
78.6602
75.0251
62.5888
127.266
48.5883
63.1196
50.0331
268.321
86.6985
500.33
523.623
284.109
161.97
66.0744
69.917
59.3796
193.341
92.4135
51.3175
51.1537
113.973
115.28
50.9547
76.1945
1051.43
101.958
66.5976
71.5626
566.932
838.041
61.567
521.58
558.609
215.604
277.862
170.215
455.481
72.8051
226.679
731.558
73.3604
48.2336
57.9622
99.2776
319.258
51.0047
49.715
69.2495
151.677
156.965
1080.7
114.138
949.079
119.205
66.0553
88.0381
75.8417
65.1936
575.497
80.9799
287.421
476.503
63.7767
651.025
2132.42
61.5301
123.412
99.9289
433.968
154.652
120.78
704.048
1007.08
98.8238
552.744
130.58
363.19
82.6939
50.7889
154.593
684.998
626.021
62.2796
110.407
148.954
96.1134
230.961
54.2058
65.1205
885.447
291.735
412.724
47.9268
383.567
66.0977
379.05
63.155
106.2
192.876
326.703
86.6382
110.524
336.13
100.494
562.059
77.463
63.5375
332.785
51.2063
153.427
49.6429
53.4566
48.8863
83.8037
399.205
453.212
314.971
62.4092
66.0322
265.07
62.4535
416.736
69.3788
56.1993
82.5498
179.39
153.977
572.807
50.9985
76.5807
68.4502
310.223
106.303
568.821
855.506
429.935
105.322
65.6977
370.271
387.422
154.243
53.9504
65.0171
48.0386
732.211
235.332
354.548
2017.95
240.1
96.9617
83.3794
734.765
398.394
66.8664
91.0595
104.168
438.352
58.0081
50.2995
91.4425
73.2348
619.148
326.128
236.455
139.041
244.493
395.478
170.669
96.156
791.855
382.306
679.152
211.967
314.714
582.944
160.301
61.6958
103.646
59.289
54.116
72.4613
72.2025
149.803
244.883
86.3603
179.464
182.406
147.071
71.202
187.983
103.171
73.3722
129.812
673.854
1072.43
500.226
70.5629
119.241
76.3598
226.223
539.201
155.693
414.14
76.6691
395.314
312.575
188.83
50.0921
49.9675
70.9644
65.9254
610.076
88.9015
57.0893
412.409
72.0705
782.324
405.914
100.489
412.25
61.2355
48.0895
49.8013
48.6307
101.444
68.8535
94.1803
135.297
74.5903
49.2562
166.192
576.986
494.626
49.0096
106.985
55.6505
66.7777
54.7893
592.289
55.2376
53.5994
54.4961
100.03
50.4695
53.1901
93.1566
54.8588
57.056
58.2074
231.876
49.2437
63.407
117.519
407.965
426.929
65.7614
652.012
511.064
58.2905
58.0858
163.55
70.3895
249.741
85.371
93.3577
81.5725
229.709
72.4741
92.1516
985.427
393.962
102.873
588.66
51.5996
49.7091
66.0434
49.5762
48.1629
73.2771
56.2521
74.9486
192.085
78.2644
419.504
129.979
330.327
80.7241
47.5305
626.097
129.814
85.9952
550.31
104.193
625.627
73.0314
438.047
48.942
172.836
88.689
248.456
49.8298
88.047
79.2872
591.007
49.3932
47.7963
76.2304
81.9361
122.933
59.7096
63.9405
92.0069
51.6039
128.953
52.3857
64.2456
148.171
90.3528
177.195
65.6909
50.2167
59.9113
48.407
55.9112
160.741
47.5924
88.7069
47.9552
236.679
120.766
55.6879
115.628
111.594
60.9312
82.988
66.8485
130.954
160.19
55.4424
49.9021
89.5844
76.2494
398.377
537.323
481.006
64.4472
52.282
56.4656
62.5603
87.5529
819.76
237.716
65.2575
56.1655
69.411
50.8291
50.4088
75.5036
141.252
176.024
451.648
218.482
58.3446
77.5981
82.4271
47.5545
255.01
74.1049
87.0189
115.929
55.9972
944.574
76.8362
55.9678
68.7022
68.5725
159.995
449.053
48.5228
410.99
59.2922
746.475
111.704
502.069
72.1152
51.5176
59.1851
105.516
54.8964
49.1655
125.313
47.6555
49.8369
52.7458
62.2742
207.581
63.1149
736.638
76.9736
59.585
139.051
171.692
48.8103
451.373
918.292
731.62
532.156
430.621
53.0368
405.173
358.365
82.609
60.6722
56.7872
661.913
93.3391
99.0256
49.2876
73.6982
253.273
689.014
156.743
83.5463
47.4059
67.8057
238.704
51.2412
56.8585
536.476
474.648
248.181
713.427
76.5735
48.0981
71.4916
80.9929
1096.87
50.1702
49.2939
48.1717
300.727
48.7547
56.5626
97.5434
99.7563
48.4031
107.729
50.4358
149.574
76.8493
139.012
60.1773
207.947
92.5868
115.465
180.355
113.865
223.439
55.9137
625.721
93.1985
329.029
326.804
367.953
83.8976
98.6984
192.463
74.9024
47.6904
53.426
51.8942
89.1017
569.724
120.113
49.3006
84.896
63.4345
49.5146
118.542
59.549
137.184
99.9189
51.9963
102.784
55.3986
74.8918
264.304
511.912
68.0944
101.627
81.7584
106.332
526.33
232.68
519.068
826.616
143.492
52.3936
53.4347
49.0234
107.953
816.557
82.3184
784.152
134.506
50.6587
120.12
382.696
51.8294
51.5235
57.6639
76.188
55.5401
232.875
69.4693
90.5948
244.53
49.4762
100.508
59.1421
129.955
66.2845
57.3348
621.224
79.7135
117.833
59.6291
78.0024
49.0974
110.919
123.329
95.1125
95.003
74.875
62.6775
68.7179
56.4603
233.084
57.8803
56.237
118.891
225.318
236.808
58.7653
94.3851
115.776
170.516
71.0653
290.358
64.8726
139.822
103.404
63.2944
158.707
85.6955
66.3455
265.912
99.387
52.7414
50.7618
284.211
91.358
104.445
54.8854
114.52
87.1528
49.5275
96.6553
371.051
85.0791
71.6828
90.2394
623.35
71.5189
89.8858
150.878
62.0226
159.435
54.3964
697.681
85.2595
80.1599
86.6219
57.0971
118.399
56.7287
446.265
47.907
76.4339
603.595
59.0747
115.29
206.713
101.321
52.3972
515.4
55.811
48.8792
93.5459
134.094
55.3711
296.567
48.3084
379.351
101.93
48.8101
79.1111
120.319
688.443
183.384
73.2344
50.9251
130.512
363.602
474.195
119.242
126.466
971.018
208.079
270.098
132
85.9437
105.717
60.4058
525.756
972.536
153.612
176.865
100.847
896.648
481.075
446.895
399.881
169.126
63.6337
56.4889
152.908
73.9797
533.571
334.491
80.7024
728.139
110.386
55.7357
65.6158
53.2575
109.107
89.1364
92.5778
80.0322
143.869
184.728
851.882
57.6843
119.644
638.164
593.485
182.362
182.231
67.3928
682.669
48.0959
65.6681
366.803
148.516
49.5539
301.506
396.45
68.0319
124.795
52.646
102.263
56.5315
81.1117
176.125
88.0802
571.692
48.1886
57.039
90.8049
466.489
174.187
124.713
169.984
230.636
123.249
74.4924
380.83
110.162
73.5512
225.432
767.296
273.236
58.0803
327.413
160.511
89.5212
68.065
127.258
49.9171
98.0386
83.2649
78.5459
72.6461
61.5572
87.8623
49.4132
48.2592
49.4931
101.622
53.1723
161.132
423.708
693.293
96.2403
79.6574
58.1974
55.2768
106.076
628.411
55.9373
147.25
74.6933
196.21
59.9859
100.993
89.3842
368.779
49.7542
56.0138
243.974
54.0775
72.1191
100.283
62.587
350.026
81.6557
378.645
372.934
255.807
602.177
180.51
383.935
81.6803
118.734
145.978
58.0075
382.641
107.991
88.0303
151.475
85.1825
78.3024
48.9736
59.8458
52.8319
48.1759
86.9612
301.334
48.5627
862.177
114.973
316.075
119.781
326.333
1826.77
57.9684
266.254
1214.41
108.146
339.111
80.5278
71.059
734.991
964.789
263.591
162.572
59.3902
311.071
103.724
538.789
54.5124
58.9763
218.72
984.747
62.4484
78.5359
56.0087
185.932
399.707
54.1439
467.168
256.271
534.724
682.398
55.8075
278.511
65.4268
547.605
397.135
234.892
338.984
181.838
412.61
254.297
244.218
76.1227
71.8911
69.1781
56.3063
58.2633
1294.97
70.396
100.187
70.7558
74.9319
104.043
922.461
113.388
248.584
306.563
115.834
275.708
131.796
47.264
69.0881
893.626
535.378
231.274
191.698
204.066
79.7872
432.647
56.5489
207.689
230.519
58.6664
461.341
113.863
247.081
354.162
115.27
154.054
159.654
113.106
54.1994
143.857
67.0479
482.257
68.1474
180.503
77.3962
235.564
62.4388
69.6258
361.112
127.436
276.337
49.2278
1183.57
49.5981
59.8141
53.0825
60.3986
83.4505
476.018
129.279
57.5365
611.312
77.6331
52.5088
64.6959
809.345
49.4332
89.7183
826.57
174.345
834.993
378.994
125.664
150.66
179.568
193.125
705.026
70.4187
283.476
108.883
64.2644
182.544
68.4532
115.876
64.7886
590.356
405.572
491.462
314.64
198.911
231.324