/*--------------------------------*- C++ -*----------------------------------*\
| =========                 |                                                 |
| \\      /  F ield         | OpenFOAM: The Open Source CFD Toolbox           |
|  \\    /   O peration     | Version:  2506                                  |
|   \\  /    A nd           | Website:  www.openfoam.com                      |
|    \\/     M anipulation  |                                                 |
\*---------------------------------------------------------------------------*/
FoamFile
{
    version     2.0;
    format      ascii;
    arch        "LSB;label=32;scalar=64";
    class       volScalarField;
    location    "0.0235833";
    object      p;
}
// * * * * * * * * * * * * * * * * * * * * * * * * * * * * * * * * * * * * * //

dimensions      [0 2 -2 0 0 0 0];

internalField   nonuniform List<scalar> 
47425
(
1.21104
1.38968
0.169861
0.062535
-13.1112
0.263072
-11.4524
0.181594
14.767
-27.1902
-0.0423931
15.3294
-7.84325
0.00804933
-0.104284
14.1235
0.229079
28.3649
-95.2352
-24.5784
6.94387
17.121
-0.0542923
0.721385
16.2018
0.815836
0.101156
-32.2576
0.152969
-0.0877518
17.0085
14.1028
14.876
0.0721041
0.243888
0.0641942
18.2655
14.9715
7.81175
1.00926
1.45499
0.82872
2.56027
15.034
-33.4513
0.986116
0.151521
14.6636
0.764172
0.173571
50.7152
1.80059
-0.192494
-23.7001
1.06124
9.75474
1.42638
0.204155
-13.699
0.0535338
-25.9473
-26.3805
-61.815
22.1191
14.3307
4.44484
14.5238
0.0277177
-41.1882
24.376
4.44419
0.535305
2.74527
8.55853
-49.4859
14.3689
-62.3891
0.110429
-106.11
-14.514
-53.7829
11.0074
23.3336
13.6001
1.25728
1.51041
2.08918
0.378477
-0.465022
-19.8788
16.7816
3.59598
0.144785
1.45402
1.44956
0.911561
0.245642
1.21323
1.48082
13.5804
13.1495
27.1215
10.949
48.1005
10.6193
1.67493
1.11538
1.12852
0.960706
15.1321
-46.011
14.4679
1.46541
1.54401
1.0473
37.9573
1.2958
53.0477
9.89161
-0.53373
1.53928
15.0339
14.5565
-3.648
12.7021
1.2647
0.849613
14.2723
-0.129163
0.480712
22.6499
1.12699
58.7366
8.87033
0.90448
-4.44188
3.00443
1.2193
12.6271
0.939071
14.6896
-7.22966
7.39895
1.40311
12.4336
14.3418
-10.9319
14.2463
7.80316
15.1501
1.70509
45.266
14.4327
2.76927
23.0891
0.736762
7.44034
-104.771
1.19168
0.094795
0.356335
0.707292
0.586146
12.4553
-38.3305
-72.8607
14.3317
-49.5587
0.618726
-35.1873
-51.0581
1.10078
13.792
20.3481
0.720605
14.6198
36.8653
0.0267753
0.0771769
0.273934
31.3266
0.707346
0.217735
0.15058
0.0243297
13.4515
11.6863
53.2771
0.400541
1.12723
14.8328
0.513064
-7.97655
14.9907
0.412042
0.532664
14.9106
0.861333
0.113208
1.13995
-0.0851077
2.1984
1.20405
0.896524
11.1556
3.06829
-0.0489796
1.22609
13.5601
14.0928
0.693837
0.792595
13.8375
0.811701
2.30302
-0.849488
2.83303
-11.4517
23.0225
15.3521
-16.6157
-0.810766
3.12838
2.94732
3.88197
-14.7665
-0.115339
-0.455246
-1.16669
-5.48668
3.96056
0.518508
1.8798
15.1827
-0.10878
13.7178
-18.8686
0.732134
-16.771
-0.312185
0.241416
0.144707
0.0888032
-5.02106
9.46103
14.4623
1.05493
14.3967
0.356505
0.196088
0.988431
-12.7967
0.0622961
15.1845
-0.300148
0.344556
16.8134
-0.23601
7.95242
13.9173
0.313156
15.0524
11.0811
11.1026
-4.90146
1.24237
0.30917
-4.76248
0.175998
11.4716
11.7759
-16.4805
-18.4911
11.8703
-14.3821
11.4334
-15.1019
32.4774
-16.798
37.7086
-24.633
1.34299
-29.3635
1.66048
0.172622
-0.0415765
0.369511
0.186701
1.6973
1.04736
59.9343
21.3578
14.1765
-0.0089255
0.144338
9.6707
-4.47539
11.3585
14.6792
-5.47608
1.214
0.703579
0.311881
0.153023
-69.1313
-79.5446
41.4611
0.174929
0.794038
13.0313
14.1086
53.2629
-0.228407
0.105063
-8.10871
1.5895
0.14471
1.08286
0.243047
-37.438
-8.17077
13.5018
13.0681
-0.399389
1.02894
-0.0867002
12.741
1.12249
0.443106
0.17063
-1.9998
-66.5805
10.2073
0.099794
15.0504
-0.39829
-65.8963
14.6777
0.530138
0.590818
13.541
13.3445
0.881509
15.5088
0.388702
0.136071
0.379246
18.358
-0.0931638
0.255114
14.2309
8.95156
14.371
14.6849
13.941
-1.54054
0.0331771
21.8328
13.9626
14.3882
15.9733
-1.25685
0.166932
0.235851
9.64087
1.54413
0.226065
14.374
14.8933
11.6164
0.564714
-27.819
2.18725
12.4452
14.5129
12.5299
0.321313
14.0052
14.1447
17.7127
13.7563
12.3568
0.472601
14.922
1.02807
14.6631
-0.000640831
11.8953
14.5823
0.226094
8.43756
9.60963
-0.0883633
8.20546
1.10715
8.99528
14.5986
0.133269
-10.7339
0.0779698
-20.6949
0.239455
-27.479
0.0942377
4.62807
0.343274
0.087163
0.205819
0.0254251
-0.294603
9.7771
-83.6166
62.0423
0.671324
9.41585
8.01779
6.72245
0.526338
0.299779
0.317595
0.265302
0.628787
1.76922
6.24039
0.0302222
-0.127839
-2.18068
-0.348611
1.39472
22.2004
-77.3066
1.51579
31.9676
-73.447
1.45308
-79.3054
-24.1562
0.680018
3.86732
4.8849
1.65877
-82.0764
0.791159
0.709132
0.202689
1.31483
3.26656
0.910493
1.04311
-15.4368
-76.5172
-15.9868
14.8295
24.8823
0.280462
1.01953
2.89305
-6.16932
3.21099
14.8674
15.0676
15.168
8.38534
15.0804
0.414312
12.6055
0.197818
1.52093
0.513691
0.656663
14.6845
14.8485
14.0985
9.49796
13.4174
0.986367
2.22387
-15.0842
13.7462
-8.12398
14.7615
0.797827
-0.463147
15.4172
0.862414
13.6417
14.4672
14.0575
12.2827
0.373163
1.37204
14.2343
1.4393
12.734
28.3505
0.43483
15.7156
13.818
17.7138
0.967235
0.313077
0.719919
0.18696
2.86395
0.0991384
0.18724
0.52045
0.851433
1.45911
0.107599
0.142406
27.0396
-0.121479
1.12534
0.938587
0.87693
0.499875
-0.112199
13.3409
10.9784
14.169
14.2173
50.768
-0.13823
-0.00633544
14.4392
14.9004
-16.9854
-20.5304
0.156994
0.920575
1.21573
-3.93046
13.5681
-21.7311
15.0631
-55.0918
30.3987
18.901
0.00787388
-16.2292
0.121215
1.15243
-0.361778
1.02296
0.0661162
0.750096
-69.2764
0.237757
0.0460098
0.0736907
-16.636
0.383858
0.0306792
-16.3129
-12.2266
-0.101646
0.21748
-43.4053
0.387189
1.23399
-0.0488091
0.471722
0.257622
-8.58382
-4.78868
20.5275
0.890292
0.69547
0.264019
-23.1867
21.6984
0.61428
-44.2524
-0.175053
0.0562322
-46.318
-31.5123
15.668
-43.5742
-43.6693
0.156681
14.7929
0.137433
18.9296
14.1108
-0.0243468
-39.539
13.522
0.236741
0.488326
-14.4661
-8.10346
14.9451
9.30156
-54.5665
-15.559
4.75149
0.0194549
1.09108
9.23212
-0.0772392
0.933629
13.91
10.2219
15.1017
0.454717
13.9815
-18.0642
8.99007
6.44074
-20.1263
11.5491
0.393373
7.6235
12.4326
0.149222
14.4772
0.639789
33.1995
13.5836
1.54934
1.19141
-104.879
8.68438
-4.54629
-32.7547
-35.0189
0.0458129
1.47632
-35.3918
-0.256461
9.84929
-5.79397
14.7033
-31.4143
0.538835
0.0233712
13.9613
-22.5055
15.2803
15.234
0.440949
-0.0273679
0.870841
-0.0213646
0.659865
1.21536
0.712994
-21.4061
-42.2894
3.84065
13.4811
0.382096
19.7223
13.3979
14.9302
14.922
15.0458
15.1015
23.488
2.03214
15.073
11.0111
-10.1823
0.320912
-79.5061
-18.6417
-0.0861397
20.7397
7.24491
-0.0578109
-87.4472
0.024026
-48.8242
0.716009
-5.59729
-7.00586
0.664811
15.8045
10.923
31.0476
0.161078
0.383771
1.44066
-7.90561
15.2628
-9.40748
1.85206
-89.9541
-5.70467
1.75972
-7.64768
14.8524
0.875264
7.58437
1.50725
-8.76201
14.9583
13.6551
-8.1859
0.188521
1.63004
0.214076
0.322603
36.4284
35.6502
16.2478
23.4374
0.118742
0.093763
7.1746
1.37067
0.606244
0.204491
1.10794
0.399343
0.91782
39.4125
-1.8537
0.27608
13.8151
0.616326
0.52787
0.938194
0.105983
0.0809466
-15.8426
0.799548
0.154436
-0.137303
0.494609
17.0777
-0.21194
1.6678
0.577263
0.60148
0.414072
22.3077
43.5042
0.931846
-46.125
-1.71411
-22.7535
-44.6373
1.44145
1.77654
11.61
0.226169
49.4223
-46.3614
62.247
-4.44162
2.97882
-8.54539
0.414919
61.5377
8.59255
2.0972
0.499469
0.646681
-4.13759
1.40609
1.21064
0.780414
-48.8219
31.5813
14.1928
14.7342
51.0121
47.2883
-4.38866
-49.5452
-8.43515
53.799
51.3659
14.5386
0.421139
19.9435
0.432559
8.24403
-43.4231
7.96424
7.59749
9.06285
0.206814
-46.3088
-46.7128
0.131527
7.67611
0.643892
0.261428
8.93061
0.18743
18.4905
-0.113505
0.412578
38.0046
0.0923456
-0.685575
-0.0492423
0.312103
0.0405687
57.2649
-14.5989
0.125427
10.7852
0.622512
17.6589
17.8925
-7.23926
0.163249
-57.4114
-8.24213
8.20268
5.02524
30.8192
-60.8983
0.558608
0.128416
-11.4988
1.21077
14.602
3.06553
-0.0769487
15.1958
-63.2132
-13.604
-58.5905
15.1159
32.4128
0.638817
-6.54451
19.2397
-7.80883
0.103651
20.955
-64.6397
-14.5774
-8.64079
-52.2759
-7.76155
1.35339
0.368955
-7.8448
0.282312
-8.78881
-48.9931
-0.0350071
-10.659
1.14513
0.837065
-34.1372
0.871028
1.3979
14.176
17.7666
14.2711
-15.9615
-0.655176
1.2873
-11.0002
51.091
1.87272
18.0185
0.851037
0.879562
1.44055
1.53001
-12.9296
-92.7004
-6.09693
2.23987
-10.635
-9.48818
-10.7631
-2.58644
0.913058
15.0289
15.1458
1.33488
-0.957972
18.222
24.4579
15.1755
-46.9435
-8.39554
1.34411
0.421208
0.287936
0.918971
37.2425
14.4809
-5.58985
0.216673
11.0428
14.6371
14.4981
14.0966
13.6991
14.9772
-20.8176
-5.70134
23.7446
25.4433
18.6625
9.63901
-0.0894573
41.2874
1.52841
-3.76149
1.59224
-7.62583
-25.4182
-0.513975
1.10089
15.1068
18.0708
14.6965
0.995006
-52.8167
-19.1731
-29.8462
11.8536
-4.95013
10.2997
-46.4852
1.29402
-52.5145
1.44099
1.98308
-2.72059
2.47604
0.775054
14.2943
-0.0555085
4.96912
-4.13575
0.723461
5.15824
-16.6584
-11.6532
0.944646
18.5647
57.4382
-73.9043
41.9587
-16.776
-43.258
0.114165
0.674081
22.9262
0.729763
55.5122
0.595536
-0.0604362
-75.2759
15.1741
3.70957
0.192768
15.228
28.6078
13.6255
0.414883
13.5893
-9.95484
11.7144
15.5934
15.4424
14.9265
0.594098
-5.56583
-5.55841
31.96
15.2037
0.981994
12.0299
0.600318
0.456243
8.96082
-5.73058
-17.2228
-4.473
-2.94576
15.7711
-24.8251
0.948285
0.100111
0.336271
-89.1879
-60.8406
-13.436
-41.8074
1.49964
-1.12945
-30.2018
-44.2055
-1.62886
9.80162
0.579791
1.36807
-22.5765
6.7735
0.809045
0.864038
14.8647
3.02207
39.9244
-90.8544
-7.49104
-21.8597
0.73697
59.1656
-86.9154
0.950596
13.0198
4.22143
-31.341
13.0833
-1.759
18.9573
-18.5234
2.02004
-18.4337
4.09863
-3.74495
1.46037
9.6853
-14.5013
-14.535
12.6044
19.5542
-5.40171
-40.8245
11.2613
0.99956
-11.4997
-25.2312
13.4641
10.1886
-50.3598
-71.5912
-29.0513
11.8597
-0.584278
-8.49266
-32.3102
11.8792
23.0345
-17.709
-3.69234
-2.18562
-12.8839
-30.8951
1.88234
15.1532
14.3664
17.1188
13.9093
11.4786
-12.631
14.9569
15.0714
15.6435
1.1
-66.141
-27.8383
14.2436
41.3413
-11.2257
13.7744
-37.2011
7.74685
11.5462
-3.80657
-1.8383
13.2082
10.8252
-36.6144
15.4194
-24.0733
-80.8572
-31.0176
12.2893
-3.54947
13.9155
0.725919
0.895033
-9.28235
-31.4646
0.676603
-60.9724
-29.0393
64.2379
-15.9454
-69.6718
-20.4582
-0.0306284
1.065
-34.266
0.81982
19.3974
-0.165013
-43.8238
-30.6777
-0.0369864
4.43144
-27.6381
-18.5814
-36.1517
52.2199
0.885901
-12.2208
-80.9013
0.119582
24.3177
-16.7845
18.4667
-94.1055
-21.4782
13.1381
0.0205658
0.395182
2.62856
0.92902
3.44596
2.20142
1.18296
9.78668
41.3789
14.5553
27.6049
-24.9003
0.122361
23.5892
-0.0208595
1.43388
-5.04995
15.9951
-55.073
0.846708
1.11466
0.667286
-23.5841
1.35939
-84.8477
0.223908
15.704
5.0134
-96.6622
56.9882
-49.4958
-13.2012
42.4925
3.70179
14.5462
-4.42518
-19.9295
-60.0383
-17.4631
53.3461
14.498
-8.13624
-51.1314
-5.06206
1.25583
-29.9264
-17.4428
1.23967
-7.18451
14.127
14.658
-44.5928
-46.1742
0.839612
10.3883
14.1996
-89.1274
14.2281
-24.809
-9.55028
13.7951
14.8259
-13.3272
1.98228
55.6875
-10.1021
7.89098
35.5823
33.9277
11.9648
-72.2887
-24.0741
-7.64024
-100.3
67.49
14.9456
-33.0669
14.8398
27.3428
-90.4847
5.51075
-94.2755
-32.4334
-0.0432016
24.7371
-2.04418
14.8394
14.3664
20.3108
-16.2106
-2.65271
-0.0625789
30.4782
0.418063
-1.0403
20.6999
-5.25829
1.68903
-9.54846
17.3539
-46.1924
-21.5981
5.29384
-21.7335
-63.8753
0.0971469
50.8083
-45.2665
-0.865756
32.443
-4.53493
-5.77461
-15.7744
-19.3917
9.46298
-33.373
-12.2593
7.9798
5.63541
0.383582
-15.9998
-4.23623
29.3985
-38.8071
1.27204
21.408
0.361582
-43.8313
0.0282972
0.657566
-4.69658
-15.0838
26.5648
2.30158
-5.93642
-5.18662
-94.5188
0.00486195
-5.7645
-45.1046
0.812696
-3.24093
62.1667
-1.16719
-11.2166
-57.4545
0.51473
6.38081
0.146093
-113.98
-56.7838
-22.5344
-54.3742
26.6378
1.55113
-7.53961
-38.2558
-61.7108
-3.39397
0.180228
14.4452
0.71091
0.695367
4.79708
56.7965
15.8727
14.4151
-2.2222
0.366401
16.3102
15.4234
25.7343
14.8536
0.773992
19.5247
15.3995
12.7368
-6.68029
1.19115
13.7441
12.0732
-4.21795
14.2444
0.398764
0.611353
12.7725
16.3415
14.7391
-78.8392
14.1467
22.7629
1.24874
-0.160486
-23.1975
15.8908
15.2273
-72.44
-49.3157
61.2291
17.9599
-76.9641
19.2511
1.14111
-69.3857
4.49503
-74.0274
0.079088
-0.379126
14.6777
25.3726
12.6794
1.92519
1.51188
2.01364
11.1731
10.4905
1.23606
-9.80756
1.08192
-6.7421
63.5912
14.2715
-38.5747
-12.0571
-56.7097
0.695906
13.5202
-0.803509
15.8645
1.0714
14.478
0.731821
-25.8899
-16.4919
-32.0098
-0.0380455
-3.23331
0.61666
4.69688
-19.9786
1.23291
-39.4912
0.907342
-34.5852
0.85209
-45.0323
-72.114
1.91378
-0.137701
-40.8429
0.382059
-37.1189
13.6477
2.66819
0.785337
1.32455
2.67103
1.09755
-5.61258
-16.0945
-2.74445
13.7033
1.09573
13.5694
0.598005
13.5465
-31.1745
12.1197
-20.9883
1.94777
0.594741
11.6845
0.516144
11.8792
11.5422
1.1514
1.10748
14.9164
1.06574
-0.486405
1.86604
1.4621
-17.7328
-33.6519
-5.46801
1.12328
-40.7567
0.933652
0.291245
0.32577
0.330736
0.625897
1.53876
14.3332
13.6459
0.985147
0.263694
45.8189
1.19855
0.704057
1.44752
-35.6918
1.93773
-41.9967
-27.4416
-36.2548
14.0144
0.207895
1.88204
0.125272
0.759529
-32.3599
-4.02579
0.799255
0.969369
1.95137
2.18553
-50.9402
2.16795
0.113536
-9.26674
0.267395
0.225482
0.186108
-0.168558
-0.11412
0.242192
0.415473
-4.26268
-7.89162
0.020608
13.3636
0.675426
-2.65892
-1.60821
0.564891
1.46916
-4.39042
1.36533
0.50398
1.04332
0.643545
-3.71202
-0.0380678
0.946182
0.579355
0.306271
1.04661
-1.92787
-0.112879
-50.941
0.441888
-11.8133
1.49949
-0.433789
-51.6421
0.00956813
1.67772
0.113508
0.22532
0.741436
1.12298
56.9755
1.93018
-10.5666
1.02293
0.372172
1.79054
0.681382
0.27305
1.00057
0.503071
0.529389
0.216524
-3.10775
-8.20483
-29.4824
12.9672
-6.43788
0.0948209
0.573757
0.80967
-13.7914
-0.141392
0.161085
0.127257
-45.5857
0.0578726
1.45924
0.254951
0.0917522
1.30915
-127.823
0.0698289
0.619699
13.6732
0.0813514
-5.11099
24.9272
30.9255
-0.0905995
9.18794
0.239796
1.2084
0.149394
0.303116
-44.1531
-48.3814
0.0125488
0.50643
-32.4575
-0.0475066
2.17193
-15.9572
0.00730579
0.718442
6.60689
-0.43127
-2.19489
-0.155508
1.67511
21.1922
0.166899
-0.256046
13.9857
-15.5717
14.0047
-16.9069
-20.7612
-43.7175
-16.4678
0.52494
13.9138
-9.27289
14.1181
1.70638
18.0926
-24.2256
-18.0872
14.628
-6.55771
14.6104
0.418494
0.929965
-48.28
0.679942
0.583894
13.9176
14.1772
44.472
47.9064
66.3723
-38.2887
30.251
14.5597
16.7985
25.1603
14.3342
0.586746
-0.00464341
0.42219
-0.420779
-48.5342
-48.0108
0.462806
1.29141
1.80045
-73.951
-0.912293
0.89812
1.95983
-25.0114
-45.2425
0.659043
-32.3969
-0.946704
-23.0404
-22.3291
-13.8009
0.149615
0.374138
15.1048
-45.6849
-0.106462
15.2743
0.783181
0.0222416
-63.2453
-63.4997
-70.0983
0.73382
-36.499
19.1526
10.6486
6.26728
-7.27175
-74.0337
-70.1103
-43.5584
65.1328
-45.1258
38.1115
13.9814
-30.7909
14.7723
-48.0701
14.3074
-44.2622
13.889
-17.3789
1.34931
-20.4743
14.9625
14.6314
1.52125
14.2793
14.04
35.0104
5.3684
14.8683
14.1187
-53.9702
-52.4119
-6.37957
-17.2138
-52.9108
-16.7214
0.767692
17.2301
-46.952
-21.4718
-21.2849
15.2177
-82.4261
8.73899
-48.6287
-95.683
-46.5604
-4.80351
17.5109
9.69125
11.2906
14.5633
1.02227
-21.279
1.50183
2.05038
0.802659
0.0647435
0.0836921
0.890408
0.544415
-16.0257
0.0543545
-3.36102e-06
-0.253588
1.04495
-12.1719
0.666639
0.603858
0.538161
1.01621
-1.29764
-13.8444
0.601228
16.6046
-21.0656
-95.4579
-2.65823
-70.8768
-3.64725
-8.30128
-11.8898
38.5716
7.33115
10.3396
-2.32115
0.0708343
0.145868
0.373117
0.0350909
-0.105272
0.267626
0.435085
1.05558
1.36849
11.5175
-5.00791
0.938615
50.5681
-0.0474293
15.0144
-0.0641946
0.0198184
45.6976
-49.5394
27.7881
0.358717
1.08658
-17.3002
-51.2339
0.150476
1.22832
18.8511
-4.69683
1.91076
0.346463
-12.4802
14.3248
-0.585437
17.9759
58.8582
1.18859
1.20668
-4.19763
0.766358
1.09248
0.438374
0.925691
13.006
14.6199
9.33314
14.0371
14.8724
7.41776
5.4404
-1.46718
-43.2004
8.10803
-4.75835
13.3443
13.8241
66.0627
6.21083
1.57306
2.51148
-34.0271
-22.272
5.34211
18.4489
1.57824
34.7457
-2.80386
16.8039
-22.5577
51.3363
33.6448
-1.90792
1.91531
8.50101
-29.8437
-75.5208
-59.8011
1.93482
-5.58741
-77.0429
1.52525
-6.41079
-2.56508
-21.1146
-56.5532
1.53068
16.1734
-82.2835
13.4846
-2.73033
1.49772
11.6744
-2.5452
13.6014
-9.40831
15.8768
11.9208
-43.5504
12.5569
62.6921
-12.0555
58.4829
34.1209
-57.492
15.1166
15.1564
-42.2089
-6.32225
2.46929
-44.2791
-16.4803
-9.92955
1.19431
1.22399
-42.9682
0.0592705
7.94401
61.4013
-3.36537
9.15131
-2.1269
-9.5574
9.65702
10.2418
-21.7215
-42.7805
-22.9406
-46.6219
0.365365
-8.34497
1.461
-8.91317
-5.93793
1.13319
1.25413
-7.48568
-0.537069
-45.3778
-46.3125
-0.0226946
10.1297
0.787953
-6.3761
-14.3609
11.7609
10.5339
-7.95801
-46.2964
11.7659
-3.3168
-47.9525
3.33972
-20.6914
0.568455
-1.30785
-43.2836
3.83416
56.4291
-2.60584
2.53685
2.56269
1.36558
-91.6229
0.691665
0.815552
-3.07901
0.430628
12.8181
0.314614
-16.7455
13.0371
34.7509
14.9148
13.4234
13.362
0.96985
-0.591747
-2.02554
-4.34121
-90.7665
0.382958
-29.2709
-4.58857
-0.424836
-51.679
-0.219286
0.653029
1.87933
-3.1593
-40.9615
-13.7617
14.4174
44.2959
-0.4648
1.12216
-25.4696
-30.458
-0.555689
-37.0135
37.3324
13.6129
-1.77007
41.0254
14.7585
-52.8355
19.1203
10.4845
52.2498
36.9701
15.026
12.701
65.0122
-47.4473
0.987246
57.1145
8.36081
15.0775
-4.33251
15.4905
-16.6183
15.3178
62.9883
13.7277
14.5008
44.9959
12.1789
17.291
-11.3391
-0.476373
17.0394
-53.9009
26.8985
-14.9472
-42.1588
-53.3316
-11.7341
14.7656
39.9857
16.7396
7.25722
15.0021
13.6608
15.9641
1.28492
1.03174
44.9253
-29.1113
13.707
-17.2854
4.09593
12.861
-9.14306
-54.426
0.694184
-9.78796
14.2112
5.21614
0.621524
13.5498
-3.52001
1.1043
1.01382
-36.0691
4.78318
0.900533
-3.94041
12.922
0.787868
23.2439
1.0971
-7.44153
29.4728
7.82985
20.5704
38.964
-48.5573
60.9273
45.1362
-21.4525
-44.8512
-50.0602
-16.0189
-47.7055
-48.0644
-17.9768
-13.4615
-21.0045
-50.0867
63.6845
1.647
-53.6478
8.8899
0.419668
-23.7594
-58.0241
-5.02382
-43.4394
-9.87134
-42.3991
-9.09333
43.5955
-28.6814
-19.0833
-49.3147
28.4355
-47.8554
1.1408
-64.523
27.0092
10.3568
0.754696
0.853186
48.9521
8.42139
-33.4853
-15.0758
15.1047
1.03831
-1.37142
-17.8577
-23.5952
0.0412803
-0.666624
19.6522
-19.8432
-2.48298
1.0309
-14.342
46.925
0.312048
7.64658
1.25706
6.40152
-31.8971
12.2055
10.0655
-11.5933
1.36875
8.23994
3.25856
2.52289
66.9448
5.2503
-23.7746
-1.9302
3.84068
-87.1326
-90.6974
11.0082
11.548
10.2586
13.774
-15.5287
-4.45313
62.2247
-6.51302
13.6037
-18.2213
0.219038
-3.04897
10.7285
-6.06569
10.7069
-12.7138
-52.2611
-28.7838
37.4724
-17.6812
18.7749
11.3318
-42.0797
-52.1968
33.4262
-62.1382
11.9183
-45.6103
38.6582
-14.598
26.4514
-7.4013
3.03971
0.198714
-0.116472
-7.57421
-27.2503
2.98268
15.5347
-77.4079
15.0351
-12.1721
14.9519
0.560465
11.8934
2.64129
1.19185
0.240843
0.0380578
8.29064
3.45096
17.1892
0.557276
-54.7374
37.2564
13.561
43.4701
14.8695
6.54913
13.1623
15.1016
33.2107
1.30197
33.1744
0.869868
0.726942
-10.9046
0.713734
0.358987
-13.333
-8.65057
-17.3378
-0.21173
38.2539
6.42477
32.0211
0.927484
16.3336
17.6784
2.1923
0.437412
0.303364
3.02087
63.7969
0.295466
-1.93189
-44.367
14.658
14.9891
19.9416
14.7506
-12.5622
-18.973
3.7186
-0.390591
-0.247887
-7.65568
38.002
0.296707
-39.8481
1.45063
-18.788
2.45594
11.1885
-17.2329
14.5152
14.2921
-9.5936
15.184
0.994218
9.4062
-38.5106
19.4684
58.9771
1.63358
1.55216
39.2682
12.293
2.86169
36.0606
9.80814
-7.25534
41.071
-15.0367
43.1829
-70.8628
6.53823
14.8381
1.59172
-4.04799
4.35188
0.955895
1.03403
0.261159
15.0381
-23.2861
6.1831
1.95588
-10.0489
2.06261
-0.810465
14.4503
14.7907
26.4485
7.12819
2.89479
-4.36672
1.61586
-5.70278
14.2226
1.79168
-11.2115
64.6762
-11.5585
1.57241
63.3317
14.4552
-89.1073
57.138
2.48914
4.49946
35.9576
14.9525
-45.7837
39.8218
-45.5473
3.0417
-45.3171
-13.1849
-26.7581
39.4938
3.71486
64.6315
0.419037
-46.7459
-42.2874
-92.2642
-90.3081
-28.9708
-64.3809
-18.1788
-44.8713
62.2873
11.3434
12.5901
51.7701
26.3427
-29.2653
10.7366
-31.5499
52.2669
0.824963
12.942
0.0301476
0.686131
0.188223
0.628586
63.4707
0.903627
0.555284
20.6127
1.30747
0.908488
13.4508
-3.25847
0.645624
-3.392
0.727059
9.21296
32.5135
-32.4942
2.3925
3.74478
-1.88957
1.41975
-39.1497
-39.8958
-12.4621
2.03919
44.5647
15.9321
0.237122
-2.83233
7.03385
6.04111
0.782351
13.7262
14.1849
-51.7051
0.724277
16.4965
-0.208325
5.10011
13.5818
0.268318
10.2093
13.7976
13.4894
-8.22186
12.8154
13.8403
53.5907
31.2868
13.0176
28.6429
13.171
1.24706
13.7029
0.731376
0.062208
2.12269
7.92503
-0.332771
22.3038
12.8376
-11.1293
30.3233
0.635284
11.6221
33.6271
-7.72002
36.4834
-16.2134
-34.971
-55.5001
2.34951
0.316466
-12.0691
36.431
-3.09556
0.484435
11.0022
3.17039
0.682879
0.602725
11.3944
15.1968
32.2926
9.63709
3.72472
13.8709
13.3152
0.113341
-23.5106
38.7784
-0.215037
10.4847
-4.84312
42.7201
14.4996
12.6956
-5.76436
-37.7603
-89.7832
14.1532
13.8615
-3.97818
-8.40369
-3.74869
-21.2457
36.5712
1.11542
1.82361
1.15027
-0.706906
19.6251
-9.76107
-0.35875
0.819522
35.9342
0.804115
-1.0993
26.1316
-24.3123
-16.9917
0.56459
-5.4834
16.1219
-0.0848171
0.488488
15.011
11.6589
-6.89936
24.6616
7.35306
-47.7046
0.202298
1.01755
-44.2372
-7.51248
15.9399
0.560245
9.92835
14.7014
66.5227
0.571492
-4.44307
-24.2753
-25.3183
-66.0162
-45.2749
0.583626
19.7835
52.5542
-0.0523065
15.8207
14.5859
-35.9763
15.2203
8.23892
-20.3325
14.237
21.4187
-10.3169
10.844
-32.9826
-56.8832
17.4449
22.1135
-48.9065
17.569
13.5026
4.93105
16.0905
14.5567
2.71344
-23.9146
-2.04274
18.3298
16.6066
16.9829
15.1079
11.4796
0.0489055
44.4164
-0.108935
-0.79458
2.10644
40.3943
14.8412
-6.5732
6.65033
61.4974
-14.7699
-19.3336
-43.157
5.22098
-1.36059
-36.0268
-11.3293
17.203
-9.05086
-0.439081
-0.0235649
-3.47704
13.9548
12.9232
10.1703
0.102362
-0.143705
-12.4827
-0.762503
-6.94025
1.76406
1.6438
0.0299943
1.43705
-1.42787
14.965
-27.9444
15.1331
1.44527
1.82697
14.8393
13.4235
14.0509
1.90808
2.18927
-3.37437
5.73891
1.54319
2.90422
-42.8194
3.28308
-5.55106
-52.0814
-44.5463
-47.2843
17.0428
-64.8425
19.5559
-43.0986
1.20332
-48.5685
0.0469603
4.36139
3.81511
-0.766577
0.540343
4.34999
0.881389
16.8473
1.859
18.0135
-1.17677
-6.3794
-91.3108
-46.8483
27.2443
33.8245
-41.2113
-27.6015
-27.2019
-69.1027
-47.4381
-3.1238
-48.2379
1.61927
1.45187
-51.2707
-80.2008
-7.70398
1.86575
15.4653
54.0515
-1.71852
-80.7022
2.4264
7.12555
0.998391
1.6818
-29.7494
3.02407
1.49428
1.45971
4.10811
9.91294
2.07953
0.722112
-71.8873
-75.3217
-26.3674
29.3139
-32.1103
14.638
0.505619
16.3641
9.20881
6.14825
27.0584
14.0774
29.2768
-0.211834
6.25594
7.71327
2.01137
4.6076
-4.83969
10.1479
15.3436
10.2942
44.051
2.64008
23.7126
-45.4545
-0.746699
-36.1718
39.9217
12.6922
11.7969
7.84323
-21.6324
-5.98507
12.4315
-33.9118
10.0791
6.31345
-0.859392
17.7084
11.8139
-1.81337
-8.33046
-24.0522
15.1361
-0.432771
-39.6813
2.45553
-31.3315
-35.412
14.9376
-74.7687
-1.19907
35.1908
-2.98761
14.6601
13.0671
18.3684
-1.43872
14.4789
-47.628
-4.19304
-46.2903
-2.52088
-7.00866
24.0469
-47.6555
-9.58558
1.28681
2.7112
22.572
-48.3201
14.402
2.77394
-26.9888
0.618156
1.22412
13.5616
-95.5192
-1.23594
6.09425
0.98232
1.47998
13.557
11.986
1.9046
13.3644
-7.95148
13.651
-88.612
13.253
-56.1911
-18.779
-0.979633
10.2065
-2.1042
-5.39686
12.8473
-1.29499
1.44306
-2.80328
58.8632
0.449216
40.2466
-1.79136
0.593671
-1.25615
-0.400982
14.9947
13.4524
14.8301
-0.0757421
0.968949
14.1701
-4.28412
0.602826
0.369025
-14.132
4.3084
-0.329186
14.5424
-32.4546
-61.26
-0.100326
-0.9389
0.403248
-23.7021
0.271074
0.280439
1.53701
0.644645
1.59354
1.34611
0.122209
0.425515
13.9878
-26.6601
-31.0025
15.1177
53.0055
18.6689
14.1539
-0.0859821
14.8078
46.7336
-0.00340212
42.4802
2.29275
-0.698288
10.1107
35.0518
1.06423
-0.0434358
57.4716
15.2196
28.6178
-3.206
-7.33993
0.227482
-0.73184
-0.116392
0.761218
4.38548
1.10174
55.4012
0.749566
0.794117
0.626902
14.3328
-20.3855
-10.4679
-0.924718
1.74825
1.98701
0.509937
14.9893
-17.6784
27.4071
21.3675
0.854532
0.455583
47.9811
-8.19069
46.7668
32.4826
13.1504
14.4337
0.444237
-3.04931
3.79273
-6.25721
-6.21785
14.833
-89.6962
1.23291
0.936382
0.471117
12.9646
1.54276
54.8319
-0.591785
49.937
1.05346
-65.3536
-7.02441
-7.52494
1.21615
-34.9387
0.84808
36.3338
14.4846
37.4262
0.891013
-10.0676
5.99358
-35.217
29.7158
13.8694
14.0491
1.38709
-15.3346
14.056
-87.3007
-11.0404
14.2888
38.9791
13.7185
-13.8648
48.5626
6.08021
-1.29706
47.2484
36.5489
3.92132
5.35378
-59.1697
46.4453
11.8812
45.7499
-1.06997
-52.3519
30.8803
0.729539
0.104442
-0.0826509
0.472891
1.9957
16.2741
-30.497
1.88794
-18.9212
18.9611
43.437
-9.03647
40.0511
0.0515476
0.0502959
-6.16295
60.698
-9.41559
53.7457
17.686
6.68185
28.2816
8.62493
21.0275
-0.0310167
-0.211893
-0.0154619
-0.0673898
10.5552
-7.32104
16.0582
-25.9815
0.476388
-25.6086
15.5853
-13.1397
51.6436
3.96492
2.61301
0.17684
45.6883
-0.0165859
25.0659
0.905587
11.125
-3.12177
3.0713
37.2716
40.1884
-6.96694
0.127519
1.74645
-29.3113
-53.7806
-5.35375
57.2017
32.7699
60.0753
62.0487
50.8563
-48.4873
1.9699
50.8006
-39.326
0.0905009
7.23386
0.370955
-16.0967
-26.0714
0.671482
3.81618
-2.20171
-0.317257
13.4076
-31.2411
44.8124
-34.0113
13.598
1.92993
13.0528
4.84361
-1.58617
-88.2723
2.02343
-19.9617
-9.19076
13.6048
-74.6485
-91.1311
13.4452
-4.60588
-6.60883
20.3838
13.3579
-6.71798
28.4283
-70.8571
-18.8945
-27.6008
42.2952
-26.8271
7.57106
28.5183
7.82915
-37.0245
-39.9921
7.45812
1.29271
55.7489
2.47084
-27.0839
0.58092
-8.21713
-47.6749
-4.79437
-44.9695
1.19817
-45.9445
0.230517
-44.7758
13.3659
-13.799
56.3399
-46.8157
25.8044
-19.057
-48.3389
-9.69127
-22.1793
37.82
35.5763
-22.5922
13.718
22.3114
18.4952
8.1643
15.6186
-3.7271
-48.2018
-130.98
-57.1322
22.4108
25.9293
-25.1679
29.1614
-43.3596
-5.86215
9.48587
4.53214
-36.6445
14.8138
-46.9155
17.5381
36.6039
37.7403
66.2045
35.9249
-15.3292
-43.5945
51.7417
14.8655
40.6565
-33.1477
-46.752
53.8444
32.3675
-0.738902
24.2725
21.0048
-30.6668
-46.489
-90.8123
25.1929
11.4014
41.3047
-40.1346
50.6898
33.7029
15.0564
42.5737
-64.0277
8.91326
5.18484
15.6722
-4.60471
-25.9146
-54.2465
49.1637
-0.605319
-35.2252
-72.4667
49.2902
49.0129
46.3263
-46.2878
-77.9221
49.1035
-10.6587
-42.0758
49.9335
1.96965
-4.42075
14.0256
0.774459
2.64854
-3.02448
47.3777
-19.0093
-0.562201
2.68208
2.53249
3.27487
1.68619
13.0514
-21.327
-1.41859
2.25317
-39.1852
-57.7201
-49.2746
-9.44542
2.98436
-8.22039
-29.634
-18.4897
2.41296
-45.0525
5.09393
-43.5773
-44.3842
47.0355
24.1222
29.4897
-0.146806
12.4892
-52.5703
-14.3195
-4.43435
-51.7556
-0.122344
-43.6313
-27.5731
-14.3927
-28.5898
2.12367
18.3598
14.345
17.4417
13.6487
45.7824
0.519844
-0.190538
0.0208952
17.4663
-18.6327
-62.7134
-41.1124
17.6193
42.4743
26.7127
34.8571
6.57476
-66.9976
-1.90384
17.3279
8.55364
1.06551
22.2157
12.4553
-5.30465
17.7013
-5.47676
-4.9328
2.62805
18.7179
40.0859
-18.9487
59.9151
-74.0168
22.7247
-88.7704
-58.312
-5.27984
13.1241
41.935
-1.77022
-29.8826
1.59132
17.5307
-16.5114
-52.6627
22.6261
51.0637
66.7829
-47.3399
-11.8739
-43.1296
17.2739
3.54109
-7.16322
13.082
9.57588
-13.7903
6.18809
13.6246
-27.8126
-3.29657
-51.1833
0.562342
-67.7347
0.0749441
14.2329
-86.2979
-8.38952
-0.16032
65.7592
11.8905
54.1373
6.73219
-41.5324
20.205
8.43227
39.105
60.4857
18.4854
39.7279
-0.238222
-34.6152
15.0492
14.5809
3.09432
14.3691
-23.5727
3.22764
-2.89907
15.1618
6.31502
-11.8553
7.55444
12.1829
-1.90223
-2.86677
-22.5761
0.0276587
15.623
-0.0833933
16.6264
0.213661
-4.45626
14.5866
-12.5398
14.1529
-41.7844
-0.0712213
36.0069
-5.9557
41.5045
0.271609
3.08663
0.0642681
0.00665189
-3.8217
6.12987
18.9479
40.0798
29.6316
-69.1815
-38.8126
50.741
30.2207
23.837
11.6703
0.100305
3.31734e-06
-56.2176
51.1172
24.9291
20.6755
0.819919
21.6468
0.0352985
0.0940039
-10.5726
-16.8355
-24.6547
-49.0841
13.7805
1.27184
-12.2682
14.6373
42.9239
13.4902
-6.63789
13.5766
-3.07735
-60.2397
-11.4789
0.124049
9.59274
-1.20754
-1.99031
-43.6453
14.4486
-44.796
29.0586
-58.22
-19.9333
-16.7848
0.192463
25.0125
9.6357
15.1245
37.625
14.918
-3.04963
12.7823
14.0241
13.9666
14.7614
-26.9356
15.6734
15.5121
47.104
14.8406
-12.0807
15.1123
14.9729
-45.3796
-58.8436
-16.4945
-48.0772
-43.2092
14.4138
60.7318
-56.185
-7.61152
18.507
25.2926
-43.6002
0.763337
0.351562
12.6197
-13.0361
-51.7483
-32.5223
38.8496
6.36601
0.879085
10.6102
-59.515
31.542
11.9188
-41.0581
-66.1344
-55.3826
67.1362
16.3735
12.3667
10.0211
16.5681
-59.8585
20.4525
13.4658
22.2059
-16.9789
18.9782
27.7132
49.8095
41.4165
12.7196
-8.38659
26.3562
-1.81447
0.67294
0.373885
33.3998
-19.3639
-13.8592
0.389377
60.7078
0.364224
-58.0394
32.0246
29.8824
44.6164
-51.886
-30.7911
-47.612
37.6683
-4.66969
-20.0141
-11.2376
13.0887
2.84449
16.7823
1.33916
24.5599
1.16968
13.695
1.31849
-3.72852
0.27244
41.0159
9.13875
5.6794
-15.218
8.66131
1.1526
9.47663
1.29769
-28.6645
-34.6689
-11.0906
7.14289
41.4743
0.958444
64.1282
-42.8392
63.3855
59.1321
1.06858
4.50448
5.64277
0.914466
1.10727
-72.27
17.7462
-39.9308
-27.3409
7.03768
2.03843
-44.2394
6.82286
6.67965
13.5706
9.60922
0.960925
-48.0856
0.567669
1.45057
-0.561759
1.33315
0.935943
1.31776
1.30506
0.335551
6.41099
-40.647
-0.135147
1.38765
-6.66161
-2.45145
24.1744
-13.8998
14.5589
14.5656
-0.220114
0.0229705
-4.02598
-7.5064
7.90312
0.867754
4.72524
9.30918
-0.159915
60.0785
0.516231
1.7922
0.0957457
-0.0398532
-17.6277
-0.00547307
-50.3065
1.83196
54.1648
5.14151
0.137787
-13.4919
-7.36086
1.03198
-24.9032
2.36194
0.107087
8.04026
-49.6086
0.199543
5.65289
28.3073
43.1297
-1.76523
10.0152
11.7987
-30.8375
-14.1523
0.0695297
51.7993
-44.8936
-12.2208
-4.31511
55.2987
-5.78111
-2.50203
33.9049
-50.4411
6.05385
0.0340358
0.124284
0.306623
0.0218081
-0.268547
-52.2731
19.4446
-0.304368
-39.8758
7.20652
0.341366
-1.96618
3.53039
20.3028
-33.8217
7.9756
18.0658
-15.9376
2.15136
15.7383
64.7773
17.1425
-70.383
45.4862
20.0773
31.9909
0.33315
51.4441
0.319823
13.3111
25.8201
-0.0645741
-31.1154
-53.333
0.795792
0.400681
-117.542
26.6768
-50.3328
2.68203
-3.76834
-0.225001
14.9092
30.5414
56.0041
15.0124
57.2851
15.0473
-67.9179