/*--------------------------------*- C++ -*----------------------------------*\
| =========                 |                                                 |
| \\      /  F ield         | OpenFOAM: The Open Source CFD Toolbox           |
|  \\    /   O peration     | Version:  2506                                  |
|   \\  /    A nd           | Website:  www.openfoam.com                      |
|    \\/     M anipulation  |                                                 |
\*---------------------------------------------------------------------------*/
FoamFile
{
    version     2.0;
    format      ascii;
    arch        "LSB;label=32;scalar=64";
    class       surfaceScalarField;
    location    "0.0235833";
    object      phi;
}
// * * * * * * * * * * * * * * * * * * * * * * * * * * * * * * * * * * * * * //

dimensions      [0 3 -1 0 0 0 0];

oriented        oriented;

internalField   nonuniform List<scalar> 
92401
(
0.147405
-0.0952271
-0.00725035
-0.0449271
-0.0630292
0.0600803
0.037556
-0.0346071
0.0223528
-0.0391982
0.04262
-0.0257745
0.00632251
-0.0123791
0.0122938
-0.00623719
0.00134945
-0.000462696
-0.0056526
0.00476585
0.0194647
0.00977807
-0.0255506
-0.00369214
0.00544677
-0.0044872
0.000389884
0.0324337
-0.0258735
0.0129044
0.0485697
-0.0388237
0.0320867
-0.0418327
0.000660618
-0.00118058
-0.000284295
0.000804253
0.00479234
-0.0418543
0.0378537
0.025418
0.0235664
-0.0868382
-0.016533
0.010577
-9.45516e-05
0.00605055
-0.0342097
-0.0400803
-0.0167733
-0.0161488
0.0558193
-0.0228972
0.00155476
-0.0643588
0.0628041
-0.00207886
-0.00764657
0.00196522
0.00334488
0.00233646
-0.000927522
0.00141614
0.000337944
-0.000826566
-0.00466114
0.0102174
5.05866e-05
-0.00560686
0.0159058
-0.0055676
-0.00457953
-0.00575867
-0.0402965
0.00828843
0.0366545
-0.00464642
-0.0392304
0.0108064
-0.0554436
-0.0538318
-0.00349782
0.0556361
0.00169352
0.0911486
-0.0894684
0.023312
-0.0249921
0.0501265
0.0602372
-0.0713174
-0.0390464
-0.0323741
0.0510655
-0.0579218
-0.00253196
-0.00105715
0.00385468
-0.000265568
0.0316716
-0.0636251
-0.00042065
0.0615395
-0.0612437
-0.0322921
0.0319964
0.0125838
-0.0172313
0.00101446
0.00363307
-0.0366765
0.106854
0.0605829
-0.130761
-0.0844145
0.108552
0.00784541
-0.0319828
-0.130328
0.0315764
0.0300754
0.0686762
0.0156693
-0.0619758
0.0370879
0.00921864
0.0616421
0.00999142
-0.0559642
-0.0441724
0.0104504
0.00208872
0.0316333
-0.0502583
-0.0412825
0.0652184
0.0263224
-0.0334656
0.0400467
-0.0138186
0.00723747
-0.0203695
-0.101637
0.0653171
0.0566891
-0.0863581
0.0860125
0.000345644
0.0316312
0.000539799
-0.0755489
0.0433779
-0.00121746
0.0281958
-0.0297946
0.00281629
0.027209
-0.0504277
0.0232187
0.000163885
-3.90262e-05
-5.52459e-05
-6.96131e-05
-0.000239224
-0.0591147
0.0593539
-0.0688223
0.0428331
0.0626795
-0.0366903
0.0899437
-0.0256193
-0.0125026
-0.0518218
-0.00056418
0.0701617
0.000917049
-0.0705145
-0.0470937
0.073125
0.0386148
-0.0646461
0.000504804
0.000999409
-0.000349997
-0.00115422
-0.00217145
-0.00383823
0.000612198
0.00539748
-0.038411
0.0841952
-0.0461486
0.000364428
0.000358223
-0.00083799
-0.000687851
0.00116762
-0.0544179
0.054034
0.000383842
0.0748915
-0.00718652
-0.0194696
-0.0482354
-0.0976117
0.0891064
0.00613272
0.00237258
-0.0550532
0.0269412
0.01184
0.016272
-0.00130392
-0.0159928
0.0064913
0.0108054
-0.0127625
0.0255656
0.0379457
-0.0507488
0.000986033
-0.000322989
-0.000304821
5.78664e-05
1.99486e-05
0.000768124
-0.000845939
0.00123091
0.000224069
-0.000840549
-0.00061443
0.00401554
-0.00904601
0.00521468
-0.000184207
0.0680423
0.00504215
-0.0173432
-0.0557413
-0.0148828
-0.00449834
0.0100464
0.00933477
-0.0401861
-0.0530433
-0.0555659
0.148795
0.0036752
-0.033278
-0.00375353
0.0333563
-0.000430547
0.000548017
0.000711271
-0.000828742
0.00509109
0.0039227
-0.0284623
0.0194485
0.0185367
-0.0070026
-0.00936189
-0.00217224
0.0412542
-0.0760241
-0.027508
0.0622779
-0.028029
-0.00343088
0.0101915
0.0212684
0.0118297
0.00798199
0.0129043
-0.0327159
-0.00101666
-0.000425342
-4.60225e-05
0.00148802
0.0248262
-0.00946527
0.0367016
-0.00130461
0.000908745
-0.00154876
0.00194462
0.0446389
-0.0332442
-0.0682987
0.056904
0.000624832
-0.000278208
-0.000346624
-0.00105923
-5.22663e-05
0.000558018
0.000553476
0.000995478
-0.000557315
0.00114462
-0.00158278
0.0223658
-0.0218804
-0.0628192
0.0623338
0.00121524
-0.0128035
0.00259532
0.00899295
0.0438151
0.0569667
0.0189026
-0.119684
-0.116416
0.025166
0.129293
-0.0380431
-0.00539591
-0.0436033
0.00413695
0.0448623
0.0523879
-0.028828
0.0254136
-0.0489735
0.0258134
-0.00424501
-0.151416
0.129847
0.00606619
0.0163516
-0.0257111
0.00329323
0.000692466
-0.000245007
-0.000689698
0.000242239
0.0376815
0.0127566
-0.00207566
-0.0483625
-0.00188251
0.0826682
-0.0844355
0.00364979
-0.0187181
0.0497204
-0.115778
0.084776
0.0416655
0.00509322
-0.0521547
0.042063
-0.000397458
-0.00241022
-0.0290936
0.0415703
-0.0100665
0.0710309
0.016681
-0.0313055
-0.0564064
0.127931
-0.141236
-0.0290812
0.0423865
-0.0142515
-0.0457811
0.0576224
-0.0810421
8.65257e-05
0.0809556
0.00160096
-0.0989367
0.165118
-0.0677821
-0.00235659
0.00330855
-0.000515168
-0.000436791
0.0885636
-0.148174
0.0308821
0.0287279
0.00157955
-0.000268338
0.000779683
-0.0020909
-0.0851918
0.143375
-0.105069
0.0468851
0.0285777
0.00356456
-0.0397334
0.00759113
0.0872884
-0.0168573
-0.0793706
0.00893956
0.00613361
0.0311213
-0.0515064
0.0316472
0.0288626
-0.134975
0.0744648
0.0851487
0.113374
-0.0781696
-0.120353
0.000701162
0.00030938
-0.00254814
0.0015376
-0.0952082
-0.0284463
0.111325
0.0123291
0.00202299
-0.00570297
0.0146439
-0.010964
-0.0138668
-0.0336067
0.0575871
-0.0101137
-0.00529157
0.0164811
-0.0139034
0.00271381
0.000296987
-0.000631233
-0.000502909
0.000837155
0.0210141
-0.025123
-0.00118272
-0.00172647
-0.000747975
0.00142694
0.00104751
-0.0570871
0.0594363
-0.00234916
-0.00240016
-0.00606107
-0.00199353
0.0104548
-0.0358014
0.0280603
-0.00612575
0.0188747
-0.0475978
-0.0556914
-0.0510993
0.0416034
0.0980478
-0.0885519
-0.00742758
-0.00163286
0.00486686
0.00419358
0.0469974
0.0119208
0.00157059
-0.0604888
0.000313143
-0.00889553
0.00668532
0.00189707
-0.0380444
-0.0540743
0.0116346
0.080484
0.0646522
-0.0388114
0.0264222
-0.052263
-0.00864615
0.0592612
-0.0583911
0.00777603
-0.0595923
-0.0341168
0.00875681
0.0849523
0.0170574
0.0051639
-0.0337969
0.0115757
0.0595198
-0.058153
-0.00136688
0.0019353
0.0018654
-0.00114067
-0.00266002
0.0414389
-0.043783
0.00234408
-0.0503113
-0.0417359
0.108101
-0.0160535
0.000872488
-0.00962172
0.0093711
-0.000621863
0.00311123
0.00594768
0.00241947
-0.0114784
0.00164449
0.00612223
-0.00745358
-0.0253422
-0.057112
-0.00929418
0.0917484
0.0252696
-0.00712091
0.0166435
-0.0347922
-0.0848063
0.0926103
-0.102366
0.0945623
0.07479
-0.0499743
-0.0248157
0.00124821
-0.0342149
-0.0100364
0.0430031
0.00785793
-0.00555983
-0.00874975
0.00645165
0.0458252
-0.0693477
-0.0613187
0.0848412
0.0744381
-0.0647919
0.0290204
-0.0386666
-0.0132277
-0.00831847
0.0315374
-0.00999116
-0.0589652
-0.0874437
0.0567258
0.0896831
-0.0411182
0.053466
-0.0110995
0.0981383
-0.0488314
-0.049307
-0.00392241
0.0145183
-0.00273795
0.000932639
0.000627853
-0.000692217
-0.000868276
0.0479345
-0.0164475
-0.0052824
-0.0262046
0.00350256
-0.00175207
-0.000517951
-0.00123254
0.00555247
-0.00981675
0.00850956
-0.00424528
0.0726459
-0.0422612
0.0256604
-0.056045
0.00842171
-0.000231506
-0.00688023
-0.00130998
0.00159543
-0.000557546
-0.00103789
-0.0634654
0.063875
-0.000409574
0.0114343
0.0052863
-0.0954043
0.0786837
-0.0109333
0.0138524
-0.0100868
0.00716769
-0.0726546
0.0166088
0.0831076
-0.0270619
0.0189656
-0.0977809
0.0751697
0.0036455
-0.051982
0.0419534
-0.00791328
0.0179418
0.00854869
-0.00175821
-0.0028726
-0.00391788
8.44381e-05
-0.000984687
0.000900249
0.0249832
0.171695
-0.241406
0.0447274
0.000252919
-0.000274097
-0.0246403
0.0606437
-0.0532159
0.0172125
-9.25379e-05
0.00511311
-0.00418333
-0.000837236
0.000792023
0.00182665
-0.00317599
-0.0720602
0.000440464
0.0716197
-0.0329486
0.114649
-0.0481209
-0.0335792
0.000168555
0.000956735
0.00932927
-0.0104546
-0.000793928
0.0905042
-0.0897102
0.0023296
-0.00162931
-0.00110925
0.000408956
0.00127684
0.000589798
-0.000599981
-0.00126666
-0.0366148
-0.00155256
0.0323729
0.0191155
-0.0642508
-0.0719693
-0.0162638
0.0056489
0.0825842
-0.000577312
0.00185416
-0.0989599
-0.0416744
0.112462
0.0281724
0.0274296
0.16766
-0.0842043
-0.057742
-0.0257141
-0.0176497
0.118631
-0.0438629
-0.057118
0.0414738
0.0299168
0.0371612
-0.108552
0.105566
-0.247008
0.107368
0.0340741
0.00150913
-0.00132075
-0.00143125
0.00124287
-0.0120794
-0.0358625
0.0561716
-0.0082297
0.0251441
0.0406062
-0.0254303
-0.0403201
-0.0353364
-0.0263016
-0.0195864
0.0812245
-0.0545081
-0.012893
0.0553218
0.000741319
-0.011792
0.00781969
0.00323098
0.0555626
-0.028625
-0.0509712
0.0240335
-0.0882638
0.104021
-0.0501417
0.0343848
0.0157427
-0.0226645
0.00704499
-0.000123219
0.0519943
-0.0604567
0.0640251
-0.0567318
-0.00347475
-0.0147772
0.0749838
-0.00532221
-0.0123406
0.00210218
0.0155606
-0.000609769
0.057637
-0.0572006
0.000173369
0.136297
-0.0543192
-0.00270974
-0.0792685
0.058946
-0.00777321
-0.0482219
-0.00295086
0.0531849
-0.0210923
-0.0754968
0.0434042
-0.0094856
-0.00201051
0.0145512
-0.00305513
0.00522831
-0.00169865
-0.00476143
0.00123178
0.00209285
-0.0427257
0.0393718
0.00126104
-0.000950979
-0.086409
0.00388031
0.0190849
-0.0128278
-0.0629087
0.0476579
0.0152508
-0.059849
-0.0166745
0.0103573
0.0661662
-0.0983061
-0.00317156
0.103562
-0.00208427
0.00382723
0.0229271
-0.0125422
-0.0142122
-0.0699324
0.150006
-0.0666193
-0.0134542
-0.00503692
0.0139953
0.0224729
-0.0314312
-0.0505469
0.0963326
0.0378452
-0.0836309
0.0274229
0.00227064
-0.0145919
-0.0151017
-0.0356341
0.036661
0.00106598
-0.00370096
0.00673912
-0.00948645
0.00644829
-0.000519965
-0.00406433
0.0101368
0.0367773
0.0380901
-0.0748673
0.00109551
-0.00184019
6.89084e-05
0.000675771
0.018946
0.00815897
-0.0183196
-0.00878539
0.0223434
0.00897378
-0.00274153
-0.0285756
-0.0509858
-0.000848895
0.00657793
0.0452568
0.000387595
-0.0431133
-0.000917431
0.000585009
0.00142793
-0.0525334
0.0377924
0.0515439
-0.0368029
-0.0435129
0.0292505
0.0183966
-0.00413419
0.00131783
-0.0030954
-0.00958043
0.011358
-0.00832701
-0.00488344
-0.00364536
0.0168558
-0.0426248
-0.00453256
0.0115232
0.0722581
0.0398896
-0.0725867
-0.039561
-0.0439205
-0.000121662
0.0440422
0.0866959
-0.0485034
0.0589078
0.00371889
-0.00787346
-0.0383544
0.042509
0.0360767
0.0111113
-0.00570829
-0.0414797
-0.000479266
0.000291663
0.000983783
-0.00079618
-0.0167681
-0.0447182
0.0614863
-0.00028175
-0.00125674
-0.00451521
0.0320154
-0.0237813
0.00604668
0.027968
-0.0418881
0.0968133
-0.0903648
-0.00157205
-0.0048765
-0.0213782
0.100379
-0.0187959
-0.0602051
-0.0314113
0.00679174
0.0155124
0.00910721
-0.0390449
0.0353156
0.014414
-0.0106847
0.0320115
-0.0251241
0.00141141
-0.00829888
0.0186036
0.0717923
-0.120739
0.0303431
0.0751015
-0.0738225
-0.0240421
0.0227631
-0.142716
0.00300743
0.00269393
0.137015
0.0300589
0.0128
-0.0412999
-0.00155903
0.0400815
-0.0579962
0.0196102
-0.0016955
0.0020527
-0.00122148
0.00023588
-0.0010671
-0.0145972
-0.00152496
0.0735238
-0.0415779
0.0189217
-0.0508676
-0.011303
0.0472004
0.000667186
-0.0365646
0.00556428
0.0962425
-0.0931715
-0.0086353
0.0504663
-0.0985112
0.0576323
-0.00958742
-0.0493396
-0.000452717
0.0384893
0.0154331
-0.00451652
0.00879332
-0.0197099
-0.0235145
0.0480275
-0.0133725
-0.0111405
-0.0493115
-2.81539e-05
-0.00569696
-0.122589
0.176178
-0.0478917
0.00985895
0.00892661
-0.061885
0.0430994
0.0505383
0.00531776
-0.0459971
-0.0122776
0.006541
-0.00355971
0.00929635
-0.0554329
0.00033213
0.0551008
0.10942
0.0430938
-0.134799
-0.0177144
-0.00889666
0.000394147
-0.00377513
0.0189431
-0.113651
-0.023233
0.117941
0.0125039
0.0656494
-0.0692267
0.00294046
-0.054053
-0.0107724
0.000459738
0.00181634
-0.00255783
0.00193419
-0.00179936
0.000324906
-0.0511009
0.0260689
0.0741267
-0.0490947
-0.00190122
0.000951526
0.000897428
-0.0350038
-0.00781556
0.0457598
0.000223063
-0.00030794
0.000331939
-0.00090622
8.25175e-05
0.000491764
7.61533e-05
0.0020811
-0.00166459
0.00132446
5.82781e-05
0.000281849
0.00045361
-0.000254021
0.000786444
0.104501
0.120274
-0.0773709
0.000161275
-0.000918189
0.00121052
-0.0528963
0.0531799
-0.000283679
-0.0107414
0.0752526
-0.0703131
0.00580196
0.00180871
-0.0189284
0.00498205
0.0121376
-0.0599073
-0.00373033
-0.0169425
0.00417131
0.0472388
-0.0344676
-0.0645544
3.81458e-06
0.0645505
-0.00622138
-0.0159779
-0.0123772
0.0345765
0.000247652
-0.000329045
-0.0004455
0.000526892
-0.00401972
-0.00752335
0.00893096
0.00261211
0.054977
0.0439117
-0.0175056
0.0471625
0.088488
-0.0377476
-0.097903
-0.011948
-0.0441927
-0.0213478
0.0208822
-0.0565852
0.0570508
-0.0100731
0.0287129
-0.00754101
-0.0110988
-0.015417
-0.0132205
0.0140896
0.0145479
0.0970825
-0.0954398
0.0178962
-0.0195389
0.00101983
-0.00425786
-0.000249778
0.00348781
0.000497406
-0.0651052
0.0646078
-0.0731216
0.00361984
0.0665347
0.0029671
0.0397264
0.0377292
-0.0774556
0.0190975
-0.0601445
0.029099
0.002298
-0.00140184
0.000865585
-0.00176175
1.64697e-05
-0.000510005
0.00181118
-0.00131765
-6.22333e-05
0.00040429
-0.000913636
0.000571579
0.0635466
0.0555536
-0.0391134
-0.0799868
0.00570093
-0.0858827
0.0820516
-0.00186981
-0.0134897
0.0001386
0.0264946
-0.0131436
0.0519458
-0.0516998
0.019541
-0.019787
-0.000460468
0.00124558
-0.000614267
-0.000170847
0.0203381
0.0481797
-0.0494203
-0.0474596
-0.00172595
0.000853984
0.00153837
-0.000666409
7.84803e-05
0.0797588
-0.0798373
-0.050027
-0.0151651
-0.0230834
0.0882755
-0.0503754
0.000348385
0.0117979
0.0170748
0.0161105
-0.0449832
0.000433329
-0.00278209
0.000166153
0.00218261
-0.00163268
-0.000698171
0.000604905
-0.108234
-0.00801455
-0.0445938
0.160843
-0.0105788
0.00710495
0.138894
-0.13542
-0.0384339
0.0427848
-0.0640685
0.0597177
-0.0783826
0.07674
0.00164257
0.00160597
-0.0507927
-0.0301923
0.0653607
0.0187525
-0.00536179
-0.0787514
0.0508296
0.0923992
-0.155042
0.0118127
0.0426573
0.0151505
0.0326378
-0.0904456
0.104428
-0.10754
0.0428384
-0.00335279
0.0127051
-0.0115226
0.00217039
-0.00229734
0.000332913
-0.000844898
0.00280932
-0.00266791
-0.00550496
0.00148476
0.00668811
0.0604477
-0.00580597
-0.0180866
-0.0365551
-0.056576
0.0283486
0.0282274
-0.0922014
-0.00747918
0.0122421
0.000246923
-0.000318613
-0.00222565
-0.117244
0.023832
0.00628276
0.0871297
0.000742255
-0.0536243
-0.00975868
0.0626407
0.0458058
0.0282358
-0.101079
0.0270375
0.0383574
-0.0435826
-0.0191729
0.0243981
0.0475447
-0.0594276
0.0502403
0.0302036
-0.0561776
0.0500162
-0.0240422
0.0341026
-0.0357317
0.000824113
0.000805012
0.0159464
-0.143511
0.0916021
0.0359624
0.00093653
-0.0604015
-0.00330307
0.0528054
2.77363e-05
-0.107886
-0.0336613
-0.00942711
0.0066466
0.0364418
-0.0482913
0.0446755
0.0499892
-0.0463734
-0.0420462
0.081776
-0.0397298
0.0106367
-0.102176
0.0479565
-0.0169084
0.0076706
0.0242243
-0.0149865
-0.088241
0.0931825
0.0369874
-0.0419289
0.0577598
0.0337638
-0.0813412
-0.0101824
-0.0482044
0.141617
0.00525508
-0.0986679
-0.00038336
0.00312124
0.00336599
-0.00610387
0.0546916
-0.0731068
0.0834951
-0.0650799
0.00890437
-0.0403156
-0.00867822
0.0400894
-0.0433094
0.0304661
0.103441
-0.0905977
-0.0502929
-0.0269432
0.0545371
0.022699
-0.0104052
-0.000686833
0.00666617
0.00442586
-0.00935017
0.0206242
-0.0174754
0.00620142
0.00012812
0.0736711
-0.0737993
0.0148546
-0.0441309
-0.0190149
0.0485868
-0.0337331
-0.00181706
-0.0130366
0.00151963
-0.0244979
-0.0205275
0.0435057
0.0353202
-0.0350701
-0.000250075
0.0624612
-0.0414706
0.0628715
-0.0838621
-0.0994819
0.0970297
0.0995346
0.000203728
-0.0107647
-0.00187968
0.0124406
0.0501747
-0.000136395
2.30974e-05
0.000252795
-0.000139497
-0.000197119
0.0467159
-0.108096
0.0615771
-0.00865022
-0.000323105
0.00490118
0.00407214
0.0268407
0.0100231
-0.0368637
0.00113474
-0.00112013
-0.00866483
-0.0314243
-0.034793
0.015906
0.0573445
0.000642496
-0.057987
0.0727735
-0.0439176
-0.0512039
0.022348
0.00184151
-0.0248627
-0.0211512
0.0694529
0.0429247
-0.039604
-0.00798251
0.00932098
0.135724
-0.120136
0.0354024
-0.0509897
-0.0453479
0.0372417
0.0219521
-0.0138458
-0.0527593
0.05203
0.000729258
-0.0480713
0.0299324
0.0105069
-0.0466486
-0.0105646
0.0467063
-0.00260044
0.159484
-0.158572
0.00168839
0.10834
0.0158957
-0.0156839
0.0505905
0.00860445
-0.0513704
-0.00782457
-0.0143135
0.00447478
0.0105032
-0.000664456
-0.00957596
-0.00519146
0.00479211
0.00997531
0.0671287
-0.0383934
-0.0533367
0.0246014
0.0298126
-0.0159835
0.0233957
-0.0372248
0.0271016
-0.0947295
0.090411
-0.022783
-0.00562576
0.000396012
-0.0090838
-0.0944996
0.107934
-0.0234295
0.0099946
-0.0112255
0.0476605
0.0140462
-0.0504812
-0.00441857
7.88289e-05
0.00313446
0.00120528
0.0827755
-0.00592027
0.0520363
-0.128892
5.45442e-05
-0.000720098
1.45638e-05
0.00065099
-0.0665819
0.0577263
0.0746183
-0.0657627
0.00354393
0.00137859
-0.00211888
-0.00280363
-0.0776683
0.0754277
0.00224054
0.0621864
-0.0589944
-0.00319193
0.0600478
-0.000144736
-0.0599031
-0.0127024
0.123496
-0.000688027
-0.110105
0.00993005
-0.0311489
0.0330167
-0.0236514
-0.000350987
-0.0564089
-0.0674366
0.0123687
0.067129
-0.012061
-0.0130895
-0.00211223
0.000435924
-0.000656216
-7.78093e-05
0.000298101
0.00110607
-0.000245472
-0.000231713
-0.000628883
-0.0637092
0.00739116
-0.00148265
0.0578007
0.000504784
-0.00534634
0.00176738
0.00307418
0.0119551
-0.0144668
8.08277e-05
0.00243086
0.00799982
-0.00668659
0.0106419
0.0559652
-0.0101158
-0.0223327
-0.0235167
0.0363844
-0.0054963
-0.0363822
0.00549416
0.000403683
0.0668267
-0.000355206
-0.0668752
0.00742792
-0.0714342
0.0193661
0.0446402
-0.0431245
-0.0322048
0.0422692
0.0330601
-0.0334682
0.0192694
-0.0907525
0.104951
-0.000836608
0.0149227
-0.00772683
-0.0063593
0.0492563
-0.0588951
0.0471896
-0.0375508
-0.0629146
-0.00701927
-0.00706908
0.000680155
-0.000131454
0.00412124
-0.00466994
-0.0116877
-0.00278295
0.00172491
0.0127458
-0.00781057
-0.00904398
0.0106691
0.0061855
-0.000115122
-0.00213399
0.00129609
0.000953019
-0.000468049
0.000528407
-6.03584e-05
0.000997541
-0.0708226
-0.0256974
0.0955226
-0.000143434
-0.000189825
-0.0012784
0.00161165
9.58465e-05
-0.000499592
-6.43033e-05
0.00134435
-0.0658987
-0.000158756
-4.45235e-05
0.000731686
0.000651716
9.7651e-05
-0.000423552
-0.000325815
-0.0286446
0.06412
0.0771408
-0.112616
-0.00893584
-0.00221475
0.00708604
0.00406456
-0.014336
-0.000271219
0.0056714
-0.00509393
0.00537686
0.0127949
-0.0130778
-0.000687729
0.000712986
-0.000184013
-0.0663423
0.0662157
0.000126614
0.0307454
0.0469449
-0.0599895
-0.0177008
0.0125636
-0.0753567
-0.0221656
0.0849587
-0.0132056
0.00271826
0.00539336
-0.00453595
-0.00616152
-0.00250808
-0.0166785
0.0585387
0.0128118
-0.054672
0.0689127
0.00457443
-0.0533361
-0.020151
0.000159372
0.00042943
-0.000790715
0.000201912
-0.000450359
-0.000141523
-0.00262131
-0.00113531
-0.00119317
0.00494979
0.06576
-0.0461474
0.0116572
-0.0312698
-0.000779923
-0.00266045
0.00147114
0.00196923
-0.0162742
0.0109447
-0.0039909
0.00932037
0.00150179
-0.101765
0.102256
-0.00199181
0.00297249
0.000643597
-0.0102596
0.00664347
0.00973831
-0.0103187
0.00161234
-0.00103198
0.0098198
0.00366739
-0.0105147
0.0377042
0.0559253
-0.0278695
-0.0273455
0.0548963
0.0282539
-0.0558047
0.0277117
-0.0550572
-0.000251519
-9.97369e-05
-0.0331143
0.0124475
-0.0100273
0.0792227
0.0242994
0.00702544
0.0687587
-0.0536453
0.0968861
-0.112
0.00468089
0.0926616
-0.0973425
-0.00672271
-0.00673673
0.0130629
0.00039654
-0.0339189
-0.0875987
0.0277196
0.0937981
0.0227049
0.0620365
-0.0256853
-0.0590561
-0.0233684
0.114511
-0.0534383
-0.0420548
0.0450352
0.0519159
-0.0560639
0.0553204
0.00074351
-0.0383647
0.0366307
0.00173395
0.0406489
-0.0800066
0.0733506
-0.0339929
0.066084
-0.0827626
-0.00932859
-0.00806262
0.0106685
0.000900193
0.00064721
-0.000601485
-0.000945918
-0.00617355
-0.0429299
-0.00696042
0.00126761
0.00137851
-0.00247136
-0.000174761
-0.0567518
0.0513177
0.0862364
-0.0808023
0.0342598
-0.0324595
-0.00180024
0.00948479
0.0255353
-0.0132935
-0.0217266
0.00418713
-0.000559268
0.00224152
-0.00586939
-0.0646637
-0.000776925
0.0206558
0.0447848
-0.00282105
0.00673013
0.000278057
0.0411151
-0.110878
0.103879
-0.0341155
0.045376
0.0137717
-0.0590656
-8.21921e-05
-0.00359587
0.00691837
0.00155019
-0.00487269
-0.000920285
0.0609421
-0.0600218
0.0366938
0.0061123
0.0144337
-0.0572398
0.00413485
-0.00729501
0.0026009
-0.181603
0.0282143
0.161612
-0.00822332
0.03894
-0.0110482
-0.0278918
-0.00105366
-0.0015883
-0.00121419
0.00385616
-0.041026
0.0444564
0.124223
-0.127653
-0.00174499
0.000661759
-0.00211641
0.00319964
0.0900172
-0.00183106
-0.0428101
0.000445475
-0.0011568
0.00204954
-0.00133821
-0.0184125
-0.11623
0.0154015
0.119241
0.00365688
0.05179
-0.00372606
-0.0517208
0.0492464
-0.0703687
0.0598148
-0.0386924
0.0319877
-0.036757
0.0489146
-0.0441453
0.008696
-0.00234566
0.00611846
-0.0124688
0.00128742
-0.0445628
0.0534086
-0.0537312
-0.0364344
0.0966413
0.0183594
-0.0252728
-0.089728
0.0473624
0.0176843
-0.135026
0.0699797
-0.00150927
-0.00858605
0.00626121
0.00383412
0.0279395
-0.0501515
-0.00333857
0.0290286
-0.0269626
0.00753066
-0.00576062
0.000132395
-0.00190244
-0.0871059
0.0028878
-0.00161107
0.0732969
-0.15019
0.0785042
-0.0270775
-0.0866507
0.0414103
0.0723179
-0.0717938
0.0208522
0.00251241
0.0484291
-0.0430844
0.0292108
0.0101815
-0.0833562
0.0962525
-0.0128963
-0.0207533
-0.00965007
0.117536
-0.0871327
-0.00346901
-0.00391254
0.00602267
0.00135888
-0.0258728
0.059358
0.040953
-0.0721851
0.0282675
-0.000665313
-0.000406756
-0.000977471
0.00204954
0.0465407
-0.0481882
0.0544529
-0.0380479
-0.00698071
-0.0450652
-0.123738
0.0475067
0.0762312
-0.0430489
-0.0325991
0.0275768
0.003052
-0.00209935
0.000636639
-0.00158929
0.00254832
-0.000271159
0.000774837
-0.0858813
0.0030409
0.0828404
0.0600763
0.0141635
-0.122144
0.0479039
-0.0715921
0.000262188
0.0713299
0.00121961
-0.00173744
0.00823738
-0.00771955
0.0488725
0.153853
-0.222619
0.0198936
0.00171556
-0.00226281
0.00150846
-0.000961215
-0.0917371
0.0656144
0.0256488
0.000473853
-0.00303389
-0.000992968
0.00325121
0.000775646
-0.000753614
0.0083641
-0.00810084
0.000490349
0.00813557
0.00808907
-0.0156993
-0.000525394
0.0412757
0.0112311
0.00295493
-0.00265331
0.00141394
-0.0976575
0.105181
0.00693723
-0.0144605
0.0117721
-0.066813
-0.0224288
0.0774697
0.00111977
-0.00301814
0.0880563
-0.0861579
-0.0429313
-0.0367199
0.0886922
-0.00904107
-0.0407238
0.0246893
0.0404172
-0.0243827
0.053285
0.0215912
-0.0729338
-0.00194241
-0.00206583
0.00030428
0.002041
-0.000279447
-0.123367
-0.0429531
0.0397522
0.126567
0.0482605
-0.0377536
-0.0317337
-0.0375638
-0.0315413
0.100839
-0.00192174
0.00424653
0.000279059
-0.00260385
-0.0306649
-0.0800014
0.0278145
0.0828518
-0.0297238
-0.0288561
0.0205319
-0.000876939
-0.00314415
-0.00165245
0.00337796
-0.00364411
0.0019186
-0.00541172
0.00530387
0.025157
-0.0770027
-0.0850477
0.136894
-0.00026893
-0.000455789
0.000436704
0.000288015
0.0567032
-0.0602789
0.0476637
-0.044088
-0.0143689
0.0425754
-0.00708204
-0.0211244
0.0864887
-0.0859455
-0.0190208
0.0184776
0.0261038
0.0228472
-0.0633826
0.0144315
-0.12758
0.0742185
0.0190212
0.0343398
-0.00514872
0.00280733
0.000113806
0.00222759
-0.00774572
0.00937713
-0.000411798
-0.0135108
-0.00371478
0.0184969
-0.00127131
-0.0634519
-0.00426462
0.0147482
0.0529684
-0.00960627
0.104482
-0.0064726
-0.0884036
0.00816634
-0.0470715
0.0805374
-0.0416322
-0.00168939
0.00414181
-0.0017049
-0.00074752
-0.014922
0.000495616
-0.00247197
0.0168984
-0.107744
0.00386546
0.0125903
0.0912887
0.000118801
-0.000281274
0.000620392
-0.000457919
0.0367418
0.00813997
0.0273764
-0.00527786
0.0459174
0.0535588
-0.0941984
-6.82356e-07
0.000768336
-0.000648853
-0.000591385
0.00210841
-0.00141239
-0.000104635
0.0174238
0.110756
-0.0476551
-0.0805249
-0.000178836
-0.000102438
0.000243193
-0.000422029
0.0620241
0.016825
-0.0921876
0.0133385
-0.155809
0.0859499
0.0759558
-0.00609691
-0.0182884
0.000901489
-0.0518804
0.0692673
0.0250811
-0.014884
0.0173332
-0.0275303
-0.0658087
-0.0242046
0.0900132
-0.0771959
0.0381125
0.0390834
-0.00223193
-0.000238672
0.00012419
0.00234641
-0.0394535
0.0420985
0.00770065
-0.0103456
0.0475624
-0.0552888
0.00772639
-0.0606107
0.0340579
0.0452658
-0.018713
0.00437122
-0.00227846
-0.00192364
-0.000169117
-0.00314477
-0.00259325
0.000589299
-0.0420387
-0.0427676
0.0459554
0.0145674
0.00185416
-0.062377
0.00217588
-0.000301382
-0.00179203
-8.24681e-05
0.000306152
0.00642763
-0.0125438
0.00581003
0.00685851
0.0218923
-0.0399109
0.01116
-0.0191571
-0.0161475
-0.00857737
0.0438819
-0.0743264
-0.0099053
0.029259
0.0549727
-0.00160924
0.0148646
-0.00839858
-0.00485676
-0.052895
0.000498436
0.0332395
0.000284896
0.0256138
-0.134088
0.126334
-0.0178603
0.0281142
-0.0339804
-0.0512209
-0.0273223
0.055034
-0.000110488
0.0392751
0.00312298
-0.0422876
-0.0571269
-0.0598227
0.11695
-0.0030215
-0.00100799
-0.00173544
0.00576492
0.00318085
-0.00466534
0.00168088
-0.000196378
0.0360815
-0.00529858
-0.0284421
-0.00234082
-0.00315599
-0.00220538
0.00233988
0.00408874
-0.0122855
0.0680176
-0.0598208
0.0755518
-1.43618e-05
0.0278256
0.00927854
-0.00635662
-0.0307475
0.0587231
-7.64332e-05
-0.0586466
-0.0538568
0.113261
-0.028736
0.0601088
0.0202787
-0.0516516
-0.0149337
-0.0243495
0.0159165
0.0233667
0.00331484
0.00364023
0.000726549
-0.00768162
-0.0334149
-0.0387748
0.0991803
-0.0269907
0.0432094
-0.035184
-0.000120611
-0.00790472
-0.0523027
0.114722
-0.0489014
-0.0135179
-0.00157655
0.001855
-0.000203358
-7.50912e-05
-0.00101421
0.0215729
-0.00389643
-0.0166623
0.00276176
0.00381758
0.000111525
-0.00669086
-0.000247461
-4.13964e-05
-4.03041e-05
0.000329161
2.98423e-05
7.45958e-05
-0.000351899
-0.00889109
0.0221459
0.0704505
-0.0837054
0.0809636
-0.0805337
-0.000429898
0.000308797
-0.000370043
6.12462e-05
-0.0128256
0.000960352
0.0022278
-0.00141917
-0.00176898
-0.00821753
-0.00628297
0.00376706
0.0107334
-0.05576
0.0270241
0.000220163
0.000316907
-0.000807313
0.000270242
0.034249
0.0544885
-0.0344638
-0.0542737
0.0140638
0.156157
-0.179915
0.00969445
0.0584224
0.0642177
-0.0625312
0.00196921
-0.012959
-0.00175329
0.012743
-0.0329975
-0.0298801
0.0628776
0.0314636
-0.0644611
-0.0544966
-0.0449355
-0.0650173
0.164449
0.0506054
-0.0563772
0.00577176
-0.0731565
0.134583
-0.0715426
0.0327709
-0.0302312
0.0858433
-0.00385329
-0.0688096
-0.0131804
0.0696582
-0.0707778
0.0107467
-0.00962712
-0.000258438
-0.00594699
0.00746433
-0.00125891
0.00254568
-0.00580096
0.00610071
-0.00284543
-0.000175036
7.15877e-05
0.000798184
-0.000694736
0.0220428
0.0224908
-0.0336257
-0.0109079
-0.00514841
-0.00537788
0.00612316
0.00440313
-0.0114567
0.0325461
-0.0430056
0.0219162
0.000861175
-0.00840826
0.0109624
-0.00341536
0.0502241
-0.00459038
-0.0456337
0.0386601
0.0351072
-0.126583
0.0528153
-0.0983937
0.0604068
0.076647
0.0329441
-0.0998741
-0.0465512
0.108617
-0.0384012
-0.0236644
0.00190325
0.00882616
-0.012355
0.00162559
0.0281062
-0.00336101
-0.0247451
-0.0302816
0.0441372
-0.00363881
0.0196299
-0.031408
0.00124047
-3.50908e-05
0.00088631
-0.00209169
0.0118967
-0.0388593
-0.00117069
0.000176821
0.000100996
0.000892875
0.00264918
-0.000258219
0.000947717
-0.00333868
-0.000725717
-0.00258506
-0.0774485
-0.0141604
0.00159371
-0.0111529
0.0237195
0.0198821
-0.0903834
0.0216342
0.0488671
-0.00318586
0.0577141
-0.0822107
0.0276825
0.00104548
-0.000774604
0.00127308
-0.00154395
0.0786952
0.012569
0.00218133
-0.0934456
-0.000988178
-0.000766058
0.00205095
-0.000296713
0.00337625
0.00131605
-0.0692953
0.064603
0.00636339
-0.00096392
-0.00466822
-0.000731253
0.0062264
0.00443057
-0.00344747
-0.00720949
-0.111534
0.0973658
-0.0879415
0.102109
-0.0554277
0.109951
-0.0545236
0.00294426
-0.0449486
0.00920248
0.0328019
0.00350011
-0.00368583
0.000856529
-0.000670808
0.0485147
-0.00271846
0.00140417
-0.129036
0.00235023
0.0728293
-0.0333969
-0.000209796
0.00146847
0.030495
-0.0249468
-0.00701669
0.0779683
-0.0303789
0.0340276
0.00388446
-0.00486557
0.000184683
0.000796422
0.033645
0.0230046
-0.0738354
0.0171858
-0.000518883
0.000113561
0.000581187
-0.000175865
-0.000392514
0.00141458
0.00520434
0.000248097
-0.0077171
0.00615015
0.00545141
0.074966
0.0408252
-0.0371503
-0.078641
-0.131968
0.141373
-0.00847897
-0.000926141
0.0312064
-0.0317276
0.00052113
-0.0359764
-3.47192e-05
0.000261628
-0.00300355
-0.00212365
0.0148866
0.20671
-0.158173
-0.0634229
0.0288238
-0.0604428
-0.0177416
0.0493607
-0.00302491
0.0390005
-0.000766458
-0.0856699
0.0474359
-0.0226053
0.00963346
-0.0380727
0.047572
0.0463657
-0.055865
-0.0666712
0.0892477
-0.152155
0.129579
-0.000124256
0.000145696
-0.00146412
0.00144268
0.000246875
0.00217514
-0.000712881
-0.00170913
0.0448363
-0.0156795
0.0401226
-0.0692794
-0.00349442
0.000400655
0.00319493
-0.00010116
-0.0119349
0.0106921
-0.0368298
0.0121861
-0.046116
0.00569586
-0.00288335
0.0179058
-0.0207183
-0.132707
0.0159468
0.126786
-0.0100257
0.0392357
-0.0259288
-0.0186405
0.00533361
0.0347122
-0.0533937
0.0067466
0.0047921
0.00772597
0.0511783
-0.0636964
0.0249429
-0.00719044
-0.0252372
0.00748473
-0.0794586
-0.00775333
0.0145573
0.00120094
-0.000960484
6.42227e-06
-0.00132369
0.00451772
0.0012668
-0.00446083
0.0183694
-0.0323406
0.0389141
0.0171872
-0.143299
-0.0224595
0.148571
-0.111884
-0.0153197
0.0262869
0.100917
0.0577547
-0.0351696
0.0286893
-0.0512744
0.10943
-0.0062434
0.00457295
-0.10776
-0.0175506
-0.0375432
-0.00407066
-0.0156269
0.00760891
0.0120886
-0.00133809
0.000500521
0.000123665
0.000713906
0.0149664
-0.0768905
0.0619241
0.107094
-0.00755864
-0.112238
-0.0268526
0.055877
-0.046575
0.0400305
-0.122297
0.0137842
0.0684823
-0.00446298
-0.012053
-0.0274942
0.0440102
0.00269874
0.0491248
0.0819285
-0.129955
-0.00109852
0.0496684
-0.0832965
0.089396
-0.0557679
-0.0966531
0.0951342
-0.00647617
0.00799509
0.00156801
0.00354179
-0.0942995
0.0891897
-0.00147118
0.00357919
0.00585551
-0.00796352
0.000134348
-0.000859367
-0.000226558
0.000951577
0.0879661
0.00123025
-0.0182516
-0.0709447
-0.000650425
0.000763475
-0.000471048
0.000357998
0.0008885