/*--------------------------------*- C++ -*----------------------------------*\
| =========                 |                                                 |
| \\      /  F ield         | OpenFOAM: The Open Source CFD Toolbox           |
|  \\    /   O peration     | Version:  2506                                  |
|   \\  /    A nd           | Website:  www.openfoam.com                      |
|    \\/     M anipulation  |                                                 |
\*---------------------------------------------------------------------------*/
FoamFile
{
    version     2.0;
    format      ascii;
    arch        "LSB;label=32;scalar=64";
    class       volVectorField;
    location    "0.0235833";
    object      U;
}
// * * * * * * * * * * * * * * * * * * * * * * * * * * * * * * * * * * * * * //

dimensions      [0 1 -1 0 0 0 0];

internalField   nonuniform List<vector> 
47425
(
(10.0853 0.0414605 -0.00218224)
(10.0557 -0.0295901 -0.168437)
(9.98538 -0.0373756 0.100023)
(11.0365 -0.414129 -0.190356)
(11.8781 0.588947 0.676745)
(10.0824 -0.0138733 0.0228088)
(11.7968 0.431175 0.623579)
(10.1027 0.00537424 0.0311175)
(10.0477 -0.00360517 -0.0212472)
(5.14284 6.80893 -0.738069)
(10.0573 0.00268571 0.016126)
(10.0264 0.224864 0.0170808)
(11.6555 0.444269 0.192016)
(10.0069 0.00582745 0.0729387)
(10.3939 0.431609 -0.102178)
(9.77462 -0.121005 0.00707301)
(10.0097 0.00141576 0.0908825)
(8.6371 -0.494934 -1.23209)
(8.55391 0.995296 -4.51599)
(12.865 -0.457842 -0.913919)
(10.5861 -0.537474 -0.45736)
(9.72126 -0.0117398 0.00281597)
(10.0459 0.086716 0.0194361)
(10.0832 -0.0500238 0.128463)
(10.0051 -0.167327 0.109186)
(9.99664 -0.00618616 -0.0239563)
(9.9572 0.0226492 0.0224219)
(11.1578 -0.276219 -8.01299)
(9.98453 0.0207275 0.032973)
(10.0867 -0.045279 -0.0126231)
(9.71169 0.563592 0.152246)
(9.96498 -0.0419861 0.069455)
(10.0314 -0.0923575 -0.0449753)
(9.92772 -0.0251947 0.0237827)
(10.0266 -0.187908 -0.024115)
(10.2586 -0.0103658 -0.0359376)
(9.73861 -0.0637612 -0.0183873)
(9.95169 0.08168 -0.00173746)
(10.4775 0.239132 -0.0416261)
(10.0268 0.0529425 0.0162801)
(9.86131 0.0780331 -0.0215282)
(9.41027 0.185796 -0.267538)
(8.88464 -0.479269 0.255199)
(10.0173 0.0472282 0.0282918)
(0.385823 -0.842241 0.763181)
(10.1858 -0.0731923 0.022931)
(9.98237 0.000275732 -0.0977287)
(10.0108 0.108584 -0.0317341)
(10.0455 -0.083125 0.0403751)
(9.9908 -0.0564562 -0.0604654)
(1.96119 -0.58603 -5.27358)
(9.41667 0.850315 0.994328)
(10.0478 0.0181191 0.0354538)
(7.20742 -6.19623 2.6992)
(9.96711 0.0019248 0.0475335)
(10.2498 0.111292 -0.148267)
(10.0915 -0.0815605 -0.131919)
(10.009 0.105076 0.00317834)
(12.7284 0.614215 0.795288)
(10.028 0.0201597 -0.0335389)
(5.48863 -6.0721 2.10452)
(5.40818 0.4396 2.4228)
(6.58742 -7.35928 1.56127)
(9.07631 -1.07514 0.169068)
(10.0021 0.003929 0.0133941)
(10.5289 -0.184778 0.107817)
(10.032 0.00186444 0.00435495)
(10.4373 0.233919 0.452152)
(8.6151 -6.75268 3.1277)
(9.12414 0.583444 0.490433)
(10.7767 -0.265266 0.240264)
(9.98453 0.0851033 0.01564)
(10.598 0.0346265 0.0445104)
(10.5479 0.262497 -0.523899)
(7.21142 5.27378 1.44569)
(9.97736 -0.0393204 0.0643553)
(7.20168 -7.28725 2.39988)
(10.0142 0.00213758 -0.00436623)
(8.3484 -5.95755 2.95286)
(11.3856 0.368072 1.7271)
(7.72061 4.6053 1.57874)
(10.1811 0.242103 0.0737922)
(9.3301 0.103247 -0.0753879)
(10.0009 0.178635 0.0792869)
(9.85082 0.0573327 -0.112525)
(9.99617 -0.0537331 0.0904641)
(10.3731 -0.107316 -0.012729)
(10.1371 0.116824 -0.0137367)
(10.0383 0.968026 -1.27832)
(10.6691 -0.0516684 2.53819)
(9.69892 0.434919 0.101225)
(10.4569 -0.0952125 0.00410484)
(10.0798 0.0358818 0.0977232)
(9.99472 -0.0786925 -0.00854363)
(9.92799 -0.131134 -0.0308837)
(10.0752 -0.0105201 -0.0406465)
(10.0476 0.00748928 -0.0561457)
(10.1071 -0.307708 -0.0926857)
(10.0326 -0.0998762 0.18012)
(9.82886 0.19124 0.0957765)
(10.2004 0.0580656 -0.0911457)
(8.61751 0.100965 -3.53916)
(10.2579 0.143013 0.0750046)
(5.46041 1.86247 -0.317826)
(10.2979 0.0455091 0.102135)
(10.1363 -0.477646 0.106087)
(10.046 0.0496546 -0.022268)
(9.90824 -0.052406 0.164503)
(9.88955 -0.0213093 -0.0184445)
(9.92689 0.210443 0.0342443)
(-3.22939 -2.15967 0.177664)
(10.1154 -0.0392607 -0.0150969)
(10.0612 -0.627802 0.180298)
(10.1448 -0.0021924 0.0347241)
(10.4572 -0.435518 0.116717)
(1.77695 -4.07168 -5.23213)
(10.4552 -0.407558 0.0815739)
(4.11346 0.109776 -3.69799)
(10.2641 0.0858358 0.0875267)
(10.6215 0.277736 0.436046)
(10.1741 0.0512695 -0.0495251)
(10 -0.0601292 -0.0116099)
(10.0009 0.0350539 0.0802671)
(11.4077 0.803535 -0.540703)
(10.0766 0.0545251 0.00558996)
(10.2507 -0.724296 0.241247)
(9.98031 -0.0519718 0.0885677)
(9.97892 -0.00400494 0.00214561)
(9.89747 -0.0960971 -0.135419)
(10.0665 0.0108655 0.0650678)
(9.44637 -0.117385 0.480688)
(9.9311 0.221074 -0.0388129)
(4.4644 0.0416624 1.19708)
(10.4689 -0.268385 0.101172)
(9.66186 -0.192627 -0.115184)
(11.5785 -0.476127 -0.738554)
(10.8896 0.491816 0.288175)
(10.285 -0.7218 0.356267)
(10.1157 -0.0265529 0.0191909)
(10.6448 0.242772 -0.0680395)
(10.1795 -0.141921 -0.0656538)
(11.9613 -0.0680178 -0.173704)
(10.4004 0.0162353 -0.118824)
(10.0654 -0.950011 0.341574)
(10.0782 0.208199 -0.0566203)
(10.0233 -0.000642843 -0.0052779)
(11.7653 0.0646328 0.854236)
(10.1539 0.0522554 -0.0948195)
(10.2958 -0.010865 -0.0525779)
(10.0272 0.0123311 -0.0640533)
(9.99214 -0.93725 0.22096)
(2.98229 -0.347637 -6.16553)
(10.0778 0.0678639 0.08005)
(5.68697 0.133295 -10.6955)
(8.89986 -1.03237 -0.422997)
(9.9792 0.00803798 -0.0125147)
(10.6733 0.308029 -1.44332)
(7.36581 -3.55709 -2.29366)
(9.91826 -0.00732985 -0.218976)
(9.88971 -0.0519847 0.0977918)
(10.6789 -0.414134 0.178955)
(9.97406 0.107198 -0.0908933)
(10.0344 -0.00967568 -0.0107382)
(9.98546 0.255826 -0.0499421)
(11.7897 0.106505 -0.260655)
(1.36305 -1.84305 -1.92571)
(9.89422 -0.0314502 -0.111374)
(7.68846 4.99394 1.43791)
(10.0317 -0.101368 -0.0447738)
(11.8683 0.510575 -3.72023)
(8.81339 4.37775 1.16781)
(10.1627 -0.0178848 0.00538975)
(10.1157 0.0707936 0.0236651)
(9.28815 -0.853131 -0.385225)
(10.2293 0.14902 -0.113701)
(9.32877 -2.81557 -0.944653)
(2.79637 0.787967 -6.86842)
(9.99371 -0.0011152 0.0106767)
(10.0792 0.0416977 0.0258065)
(10.048 -0.0694742 -0.0261585)
(2.57321 0.300276 -10.2199)
(9.99662 -0.0154727 -0.0148804)
(10.0176 0.0141704 0.0250874)
(9.85299 -0.103136 0.0233191)
(9.98537 -0.0613816 -0.0435901)
(10.0763 -0.0841898 -0.127868)
(10.1288 -0.088008 -0.0451889)
(5.58392 -0.333958 -0.126611)
(9.95922 -0.0293882 -0.0408254)
(10.0733 0.0288341 -0.0473931)
(10.0164 -0.00602036 0.0554815)
(10.0229 -0.125015 0.028474)
(11.4574 0.556756 -1.18884)
(10.0152 0.0318545 0.00687262)
(9.88837 -0.0484517 0.00292012)
(10.7193 -0.221053 0.0565083)
(10.041 0.00174746 -0.0259553)
(10.0349 0.00226547 -0.03697)
(10.8532 -0.207825 0.129664)
(10.1202 -0.123657 0.0462146)
(10.0883 0.0186023 0.00821334)
(10.1745 -0.127584 -0.00310014)
(9.95304 0.0576416 0.0277531)
(10.6345 -0.298113 0.0598861)
(10.1717 -1.26195 -0.737094)
(10.3629 -0.0135712 0.0954621)
(9.99136 0.00152043 0.0800333)
(10.6501 -0.226964 0.0513156)
(9.99624 0.237854 -0.0970549)
(9.93355 0.101117 -0.0232274)
(10.119 -0.0773539 -0.128563)
(10.7714 0.0248573 0.0927212)
(10.0192 0.167785 -0.00955061)
(10.0678 -0.0981021 0.0162835)
(10.3268 0.00779903 -0.0310301)
(10.8476 -0.326228 -0.164215)
(10.5066 0.0360669 -0.0128048)
(10.4425 0.242022 0.988123)
(8.68157 -1.15083 -0.340379)
(10.0845 -0.0796715 -0.00429927)
(11.3347 -0.120112 2.14755)
(10.7113 0.103705 0.154498)
(9.57502 -0.778541 -0.238782)
(10.5343 -0.0527354 -0.00493201)
(10.3443 -0.00663929 0.137786)
(11.3581 -0.385016 2.09638)
(10.066 -0.0601021 0.0564086)
(10.7241 -0.275836 -0.0725539)
(10.8712 0.514646 0.321819)
(11.3073 0.813339 -0.19529)
(10.5389 0.0053395 -0.0332289)
(9.97031 0.00739445 0.134687)
(10.1558 -0.0528071 0.023512)
(10.0074 0.0169574 0.0186269)
(10.121 0.0580512 0.0139844)
(9.9929 0.162059 0.00231137)
(11.2495 0.51274 1.82186)
(9.91928 0.0595106 -0.0314203)
(11.5177 0.480753 1.64068)
(10.1535 0.00150889 -0.0230213)
(9.91505 0.0229658 0.0878964)
(9.92806 -0.0418809 -0.0232975)
(9.96584 0.0335846 0.0188701)
(11.4551 0.0629149 -0.196881)
(10.3421 0.264817 0.0013684)
(9.93432 -0.0399823 0.0602949)
(10.2043 -0.0516065 0.0555495)
(9.81394 0.0246324 0.022872)
(10.0056 0.0266271 -0.0717289)
(9.90446 0.105361 0.00421734)
(9.93976 -0.081937 0.0828052)
(11.3326 0.0205363 1.80282)
(10.1885 -0.0202488 -0.039147)
(9.99776 -0.0488635 6.2688e-05)
(9.95477 -0.0701128 0.0355105)
(9.97067 -0.00355796 0.0417083)
(9.86876 -0.0273463 0.0870344)
(10.1884 -0.098385 -0.133917)
(10.557 -0.321453 0.150757)
(10.0599 0.00810105 0.0185434)
(10.0728 -0.0738238 -0.189991)
(9.9743 -0.0622368 -0.0158485)
(9.95097 0.0894483 -0.0754514)
(10.3348 -0.00327939 -0.0589803)
(11.2665 0.204609 0.617987)
(9.80721 -0.308692 -0.0510164)
(9.91423 0.00137293 0.0484389)
(11.3323 0.220298 0.493089)
(9.84049 0.0389621 0.11366)
(10.1791 0.169043 -0.103213)
(9.93371 0.0808228 -0.0549811)
(11.5563 0.589105 1.30628)
(11.0927 0.639273 1.50198)
(10.2274 -0.152403 -0.0250465)
(11.4183 0.315877 1.60157)
(10.3038 0.0352326 0.017215)
(11.4767 0.45043 1.45182)
(7.10784 3.19146 2.66264)
(11.0626 0.543509 1.56676)
(5.79144 1.1318 -4.64724)
(4.67069 -5.91849 1.78798)
(10.0817 -0.00566794 0.0110036)
(4.52452 -6.25645 1.01376)
(9.85199 0.18652 -0.0471817)
(9.95217 -0.0229639 -0.111701)
(10.8494 -0.149631 0.095181)
(9.91888 0.146763 0.0240004)
(9.96061 -0.0506319 0.0549079)
(9.77898 0.168294 0.0702815)
(10.3874 -0.545781 0.0473765)
(1.3601 1.64281 -2.99582)
(9.26906 0.645572 0.157929)
(10.0038 -0.00131063 -0.00265269)
(9.86469 0.0326838 0.0191045)
(9.9495 -0.0863933 0.106631)
(10.8537 0.122744 0.441258)
(11.6239 0.188255 -0.103628)
(10.2071 -0.445711 0.177897)
(10.0256 -0.0716419 -0.0379938)
(11.3892 0.0231099 0.463993)
(9.924 0.0813044 -0.0545805)
(10.1541 -0.0516095 0.0737634)
(10 -0.169777 0.0134615)
(9.97027 -0.0948567 0.119146)
(12.9998 3.3867 0.378622)
(7.74603 1.23909 0.822019)
(1.47445 1.04629 -5.71843)
(9.87553 -0.0167203 0.0507334)
(10.0355 0.000725618 -0.0496444)
(9.9913 -0.565614 0.0565605)
(9.99366 -0.416234 -0.0649455)
(1.12708 -0.570903 -5.21129)
(10.0437 -0.00960316 -0.00607559)
(10.0606 -0.0240804 -0.0169243)
(10.5773 2.59919 1.60718)
(9.98682 0.0247396 -0.162208)
(9.96728 0.0116513 -0.0269898)
(9.85509 0.118548 -0.0690274)
(9.84434 0.0795877 0.0476076)
(13.6911 0.942693 -0.0108949)
(10.7999 2.31751 1.53033)
(10.1201 0.141683 0.114044)
(10.2302 0.146031 -0.0560737)
(10.0139 0.122137 -0.117909)
(10.0674 -0.0795303 -0.150055)
(10.0721 0.0455742 -0.0659992)
(9.95514 0.0671028 0.104846)
(10.0007 0.0769602 -0.110017)
(9.99873 -0.0394385 -0.0737665)
(10.0267 0.0393913 -0.0921841)
(10.951 0.0413414 0.31855)
(12.2898 -2.16627 1.31922)
(10.2908 -0.65348 -1.06003)
(9.99058 0.0601219 0.0506012)
(9.95007 0.021444 -0.0514233)
(9.89731 0.0020311 0.00413518)
(12.4355 -1.55759 1.44473)
(9.94583 -0.0198595 -0.213739)
(10.0751 -0.030762 -0.0467363)
(9.95265 -0.0805436 -0.0311787)
(10.0482 0.190312 0.0334856)
(10.0051 0.157284 -0.0279599)
(10.0925 -0.0441332 0.0535193)
(9.78409 0.129257 -0.0293442)
(10.1235 -0.0544791 0.100752)
(9.79687 -0.0389585 -0.0696463)
(10.0462 0.06653 0.0609336)
(9.66946 0.334226 -0.0488794)
(9.98627 0.124425 6.30167e-05)
(9.93663 -0.0256147 0.0545364)
(9.99291 0.175705 0.0363371)
(10.3647 -0.444277 0.00315691)
(10.0233 0.188815 0.0281293)
(9.81363 -0.00783226 0.0180575)
(10.0073 0.187504 0.154699)
(11.1196 -0.837179 0.0445153)
(10.091 -0.0206051 -0.0551555)
(9.41603 0.253631 0.229887)
(9.93228 0.0720907 0.0304032)
(10.1283 0.109023 0.0247233)
(10.4158 0.171302 2.02492)
(10.7269 -0.613619 -0.407573)
(10.0417 -0.0451469 0.0647033)
(9.9674 0.0628703 -0.0646605)
(10.3156 -0.204826 0.117669)
(10.1807 0.279453 0.00369666)
(9.99925 0.0026536 -0.0343807)
(10.0555 0.0378303 0.0897916)
(10.0218 -0.0682789 -0.0338248)
(10.1601 0.615096 -0.0817838)
(10.0164 2.36083e-05 -0.0713713)
(-0.611018 -2.06744 -0.584137)
(10.3719 -0.0892261 0.062837)
(10.0955 0.750951 0.00248597)
(9.99021 -0.0354105 0.00669464)
(10.0838 0.662212 -0.00379447)
(9.79039 -0.177009 -0.280811)
(9.98896 -0.0981725 0.0219619)
(9.99204 0.00314677 -0.0130775)
(9.7695 -0.0682704 -0.00973104)
(10.0109 9.126e-05 -0.0162469)
(10.0541 0.733396 -0.044134)
(10.2331 -0.0254171 0.039235)
(10.1217 0.0586048 -0.0245454)
(9.94092 -0.0732783 0.0372758)
(10.0551 0.0497651 0.0032915)
(9.98288 0.0793165 -0.0186152)
(10.1094 0.180364 0.0465922)
(10.1127 -0.0869782 -0.0691089)
(10.0101 0.0071468 -0.0506463)
(10.3792 0.810804 -0.185082)
(10.2792 0.986528 -0.210621)
(10.1436 -0.0213547 0.0046818)
(10.4566 -0.204854 0.150104)
(10.044 -0.0497719 -0.157694)
(10.322 0.750183 -0.167903)
(10.0548 -0.0122806 0.0189796)
(9.93818 0.0156994 -0.0392812)
(11.6989 -0.570774 -0.697147)
(9.91814 0.0196337 0.0649081)
(10.3146 -0.910256 1.74602)
(10.0028 -0.0950013 0.0272194)
(11.1802 -1.39011 -3.83515)
(9.93683 -0.0504153 0.00848046)
(10.5237 0.108218 0.0199912)
(9.95181 0.0777462 -0.139705)
(9.9778 -0.0592523 -0.0693887)
(9.81891 -0.0304473 0.0576931)
(10.086 0.00235508 -0.0564505)
(10.0793 0.0976746 -0.0957415)
(10.2731 0.87466 -0.151631)
(2.4251 -1.93018 1.88091)
(2.2741 -0.436413 -2.12064)
(10.11 0.0711301 0.116241)
(10.2209 1.40484 -0.679064)
(10.5609 0.637821 -0.322526)
(10.6511 0.597967 -0.306328)
(9.99184 -0.00663543 0.0697178)
(9.96564 -0.0481874 0.0395403)
(9.98982 -0.0093494 -0.0328303)
(9.95147 0.0806231 -0.0299152)
(9.99872 -0.0568933 -0.00570154)
(10.1143 -0.0191763 -0.0366055)
(10.609 0.574721 -0.182138)
(9.97043 -0.0500468 -0.003105)
(9.98538 -0.0145354 -0.0882429)
(10.6664 -1.30401 0.566793)
(11.1668 0.514783 -0.124554)
(10.8216 0.463033 0.0494032)
(7.99686 -1.23344 -4.57945)
(0.0761392 5.76211 0.260181)
(10.2007 -0.199186 0.0374627)
(7.36517 -0.875113 -5.04771)
(0.243111 5.33268 0.536008)
(9.86627 0.0279834 0.0392361)
(-0.0444652 5.83901 0.444848)
(8.83658 -1.93409 1.61414)
(9.98962 0.0614167 -0.0627318)
(10.8064 0.610728 -0.310441)
(10.7753 0.635179 -0.345971)
(11.0015 0.565721 -0.278499)
(-0.837942 5.61371 0.512355)
(10.1434 0.0896494 -0.0483063)
(10.0212 -0.0190723 -0.0453745)
(10.0201 -0.0675641 0.0554891)
(11.0599 0.596046 -0.371511)
(10.9597 0.611166 -0.452922)
(10.0523 0.0395868 0.00346761)
(10.0415 0.0527238 0.0300778)
(9.89624 3.7657 3.23833)
(-0.868399 5.15938 0.13053)
(12.4669 -0.308868 -2.67926)
(10.0458 0.0350989 -0.00594582)
(8.68621 -0.678768 -2.86659)
(10.2949 0.263601 0.742257)
(10.0453 -0.0555726 0.0441433)
(10.6635 0.287493 0.0467723)
(11.5067 0.383033 0.312999)
(10.6433 0.178016 0.0329325)
(10.1057 0.0468998 -0.0068155)
(10.0109 -0.0036146 0.00608029)
(9.98239 0.0167806 -0.00640119)
(10.4259 0.279072 -0.0352192)
(9.99373 0.00148152 0.00237401)
(9.99302 -0.0714259 0.0884182)
(9.99565 0.118457 0.0772588)
(9.95891 0.125083 -0.0725207)
(10.7766 0.0722791 0.0711772)
(10.0419 -0.0673667 -0.0117544)
(10.1031 -0.052028 -0.0859512)
(10.1034 0.0415829 -0.0188712)
(10.0256 -0.00870196 -0.0165244)
(9.91615 -0.12882 0.0138675)
(10.3498 0.220937 -0.0729787)
(10.2318 -0.0262942 -0.0967157)
(9.90139 0.0227011 -0.0186413)
(10.7237 0.0927435 0.0358003)
(9.41979 4.57308 2.67255)
(9.9837 -0.130892 0.0139118)
(11.6391 1.62511 -1.11501)
(10.0127 -0.0157561 -0.0738226)
(10.4669 -0.228876 0.0228912)
(8.78942 -0.244379 1.13062)
(9.72756 1.32191 -0.406988)
(10.0114 -0.0132079 -0.0506946)
(9.80476 1.38906 -0.456941)
(10.0686 -0.0228882 -0.208443)
(9.9365 -0.0232487 0.071354)
(9.96584 1.22277 -0.746492)
(9.99034 0.0956174 -0.279528)
(10.3008 -0.168517 0.00648813)
(9.86761 1.09827 -0.472487)
(10.1784 -0.0922586 0.0720277)
(10.3986 -0.032819 -0.245297)
(8.11299 0.240523 -3.66678)
(10.0178 0.0362047 -0.00748227)
(9.65489 1.7241 -0.36117)
(9.93524 -0.0890398 -0.0354946)
(9.04835 1.91879 -0.767734)
(10.0817 -0.152069 -0.00159757)
(9.90365 -0.0663075 0.0107953)
(9.98088 0.0911016 -0.0267619)
(10.0348 -0.0206043 -0.0227469)
(10.9815 0.47546 0.716155)
(9.99504 0.0299414 -0.0202091)
(10.0068 0.00106158 -0.0191014)
(10.0287 -0.00444029 0.049679)
(10.0422 0.0207184 0.0236775)
(10.9622 0.262316 0.124179)
(10.0908 -0.0341165 0.03234)
(10.1085 0.00770645 0.0346677)
(8.7536 0.263021 -0.352104)
(10.0363 2.78916e-05 0.0264594)
(9.89782 0.0249559 0.0455242)
(9.95841 -0.0684209 0.0340803)
(9.93568 -0.0338546 -0.0905332)
(10.0468 -0.0615485 0.00839438)
(10.0543 0.000357446 0.0549162)
(10.062 0.0370307 -0.0481214)
(10.1876 1.27454 -0.907962)
(10.0671 0.00267467 -0.00783405)
(9.96315 -0.00693174 -0.0351326)
(2.86455 -0.268542 -5.2142)
(9.99294 0.105764 0.0227172)
(10.0566 0.0101885 -0.049627)
(10.0062 0.0800873 0.0128933)
(10.0334 0.0140034 -0.0098765)
(12.3822 0.999045 0.0915712)
(12.462 0.618431 0.414758)
(9.96784 -0.0678195 0.0684436)
(9.84107 -0.0304904 0.0742254)
(10.0305 -0.021635 -0.0917002)
(10.9766 -0.132732 0.963998)
(9.84353 0.0327783 0.0754766)
(12.4024 1.36014 0.0139543)
(9.96838 -0.0918476 0.0281473)
(-0.34823 -2.34051 3.36168)
(8.08996 -0.417111 -0.443714)
(9.65091 -0.652649 2.05599)
(9.96444 0.0726648 -0.0915105)
(12.3429 1.22953 0.0937246)
(9.9948 -0.00737047 -0.0487738)
(10.0625 0.0424012 0.0201153)
(10.0933 0.0334118 -0.00973737)
(10.0338 -0.0059792 0.0805061)
(10.0199 -0.0137544 -0.0247124)
(10.0616 -0.0841212 -0.027604)
(8.98157 -0.251859 0.838161)
(9.96361 -0.00121659 0.0103524)
(9.94931 0.140157 -0.0534543)
(10.0272 -0.00429345 -0.053019)
(12.3397 0.925181 0.112438)
(10.0304 -0.0785582 0.0314318)
(10.0724 0.0343267 -0.0148811)
(12.1544 1.03672 -0.00210445)
(12.0022 0.304178 0.276973)
(9.97715 0.107057 0.00611271)
(10.0199 -0.003046 -0.00190846)
(-0.438111 1.70057 1.29321)
(9.93576 0.0549813 -0.0305376)
(10.267 -0.261335 0.0921928)
(9.98041 0.0724595 0.0129404)
(10.0229 0.0879507 0.0759061)
(10.0744 -0.0121565 -0.0192662)
(11.7422 0.448198 0.037264)
(10.8228 -0.0587834 1.13953)
(9.47962 0.547451 0.993497)
(10.0724 0.0250847 0.0112157)
(10.0693 0.0904992 -0.0522685)
(9.948 -0.00324862 0.00384643)
(12.5008 -0.216721 1.14098)
(9.37638 0.142319 -0.265421)
(9.9319 -0.0653613 0.00566711)
(-0.306305 1.51637 1.0464)
(10.0271 0.0135857 0.121784)
(10.0564 -0.0183407 0.026047)
(-1.32864 1.6167 1.46876)
(11.7695 2.04075 -0.958295)
(9.83293 0.114518 0.0329698)
(0.105771 1.58057 0.636772)
(-0.0648706 1.86819 1.18703)
(10.0147 0.0489072 0.0190563)
(9.93903 0.00841786 0.0609353)
(10.0157 -0.0226763 -0.0984614)
(9.7334 -0.305732 0.113408)
(10.0357 -0.0689892 0.0584009)
(9.85438 0.0149996 0.00855815)
(12.4402 2.82852 0.873331)
(10.1884 0.21224 0.179895)
(10.087 0.141455 -0.0394331)
(10.1056 0.0280233 -0.0308602)
(12.35 0.0760544 0.284843)
(11.6921 0.77621 0.0333981)
(10.1245 -0.174161 -0.124949)
(10.1818 0.241607 -0.150553)
(-4.31084 -2.36801 -0.490712)
(5.07746 -1.43754 -3.28993)
(10.6363 0.273302 -0.14084)
(9.97746 -0.00399606 0.0895625)
(10.1417 -0.154546 0.104263)
(10.7395 -0.150777 -0.584095)
(9.98774 0.0131363 -0.134364)
(9.93971 0.121308 -0.119815)
(10.0433 -0.117216 -0.134141)
(10.2083 0.105229 0.0303273)
(10.0061 0.0218043 -0.0208502)
(10.4648 0.222618 0.213291)
(10.1355 -0.0427774 0.140406)
(12.4273 0.933915 -0.475868)
(10.1889 1.46509 -0.945757)
(10.4971 0.208744 -0.171683)
(12.482 1.12133 -0.75662)
(10.4332 0.0213035 -0.150769)
(9.90648 -0.00620635 -0.0684729)
(10.5506 0.646775 0.171118)
(10.2642 0.0135803 0.00628867)
(9.99319 0.0900564 0.0748708)
(10.0772 0.0235865 -0.017237)
(10.3392 0.75094 -0.335715)
(7.95493 -0.648006 -1.04357)
(10.0507 -0.0115087 0.0787631)
(10.5349 0.214544 0.0891757)
(10.0003 -0.0483348 0.0738485)
(13.4162 -5.20474 -1.44645)
(10.7098 -0.476085 0.828376)
(11.1798 -0.118845 0.649413)
(6.13689 1.54873 0.447408)
(6.00488 1.55842 0.318439)
(10.0436 -0.0174986 -0.0317221)
(9.95227 0.179532 0.152158)
(5.20508 1.33849 -0.174002)
(10.0406 -0.000868571 0.0159977)
(9.82259 -1.68225 -3.02991)
(8.82258 0.255582 0.865401)
(9.96191 -0.0044616 -0.0750847)
(9.86501 1.65956 1.05741)
(10.075 -0.088477 0.00480536)
(10.0063 0.0962346 -0.0179043)
(10.0883 -0.0257678 0.0749837)
(12.6765 0.346313 -0.0852092)
(9.91205 -0.0107221 0.00841798)
(9.97578 -0.0646887 -0.0176574)
(10.0295 -0.0159159 -0.025964)
(10.0046 0.0791027 0.0272956)
(10.0196 0.0117824 0.00983652)
(9.99311 -0.0176164 0.0768363)
(10.0423 0.00432901 0.0451979)
(9.95685 0.0636898 -0.0456667)
(11.2117 0.495532 0.459578)
(10.2427 2.00629 -3.5272)
(14.1293 2.30148 0.402199)
(10.6181 0.251555 -0.0100321)
(10.0374 1.06275 1.40179)
(10.133 -0.0158965 -0.0954224)
(9.3875 -0.851868 0.228952)
(10.2958 -0.00665085 -0.0767323)
(10.0099 0.0406069 0.0482346)
(10.0633 0.0179021 0.00332361)
(10.0339 -0.00778242 -0.0323942)
(10.0251 0.0139447 0.114117)
(9.15435 0.264328 -0.71675)
(11.4569 0.301143 0.224389)
(10.0352 0.011561 0.0438284)
(10.1827 -0.336848 0.139956)
(11.9109 0.992239 1.62861)
(10.1242 0.015626 0.0213938)
(6.21422 -2.76194 3.22596)
(12.6539 -0.949607 -2.51367)
(9.89076 -0.013468 0.0538977)
(9.55387 -0.388207 0.214068)
(10.4744 -0.118636 0.14586)
(10.0553 0.0425391 -0.019892)
(6.80706 -0.556331 2.82862)
(9.95336 -0.0221282 0.0101068)
(9.55649 -5.25379 1.20346)
(10.0873 0.172442 0.0189747)
(11.1543 -0.244532 0.817301)
(11.5853 0.512027 0.0874913)
(10.055 -0.00647006 -0.0807737)
(9.97489 0.105616 -0.00916461)
(10.3358 0.36397 -0.0934042)
(8.53827 -0.588423 -1.93911)
(9.83131 -0.0293232 0.0452587)
(9.97482 0.107664 0.114605)
(10.1695 -0.00327418 0.0887255)
(11.6698 -0.0181978 0.60756)
(9.99241 -0.0222682 -0.00698215)
(11.7479 0.500098 0.370468)
(10.1854 -0.00853995 0.0529891)
(4.25625 2.22837 1.4404)
(11.5305 0.452426 0.17511)
(10.185 -0.00872607 0.0702845)
(11.6045 0.468456 0.282277)
(10.0433 -0.00880513 -0.0275278)
(10.1283 -0.000312109 0.0228084)
(10.4026 0.256861 0.0122389)
(10.1913 0.0340742 0.0133668)
(11.7725 0.559301 0.222843)
(9.97905 -0.0669693 0.0580526)
(10.0224 -0.295224 0.0251115)
(11.6566 0.515637 0.127134)
(10.0165 -0.00384887 0.0385591)
(10.1992 -0.00518822 0.00374521)
(10.0064 0.015735 -0.00407299)
(10.038 0.0138429 0.0238273)
(6.81366 0.258068 -4.61899)
(6.61747 -0.224626 -5.15479)
(10.1161 0.0652938 0.393379)
(8.70433 0.307871 -3.73808)
(10.0224 0.0184892 -0.0140599)
(9.94337 -0.0175555 -0.00485798)
(10.6024 0.461758 -0.248375)
(10.1616 -0.123292 0.124316)
(9.77041 0.0523885 0.526365)
(10.1036 -0.0147617 0.0231068)
(9.96217 -0.0547005 -0.0575373)
(10.0595 -0.0076607 0.00475313)
(9.94844 0.1671 -0.0836191)
(5.17415 0.0671136 -5.76224)
(5.3256 -1.50153 -0.475302)
(10.0506 0.0336486 -0.0136254)
(9.9881 0.0781658 -0.0653856)
(9.88383 -0.0842169 -0.00349847)
(10.0156 -0.0571424 0.0371446)
(10.011 -0.0536164 -0.00806922)
(10.1111 0.0640083 0.00130046)
(10.8065 -0.189624 0.148377)
(11.2414 -1.52598 2.2919)
(10.0235 0.0208879 -0.0150824)
(9.99141 -0.106108 0.0525325)
(10.1509 0.0312307 0.0733432)
(10.0134 -0.0243105 0.0894914)
(9.89594 0.109406 -0.0137089)
(10.0898 -0.0196283 0.100408)
(10.3428 -0.0960871 0.0162659)
(10.0265 0.0200807 0.0218908)
(10.0097 -0.0652837 -0.0886858)
(10.1433 -0.103957 0.0627082)
(9.19234 -0.792345 -0.933954)
(5.09289 0.557513 -4.22649)
(9.94308 0.0211994 -0.044721)
(-0.523702 -1.44989 1.18124)
(9.90599 -2.55723 1.35063)
(12.6725 -1.34134 -0.863713)
(-0.296144 -1.57287 0.758416)
(10.0556 0.067191 -0.00793741)
(8.93179 -0.130528 0.928732)
(10.2767 -0.48454 -2.23783)
(11.0086 -1.03195 0.431139)
(5.5966 0.266079 -3.24262)
(-0.244801 1.56045 2.37756)
(1.37419 0.400866 -2.82818)
(11.1256 -0.00708122 0.520368)
(10.448 -0.00817202 -0.00666527)
(11.0702 -0.0279775 1.01379)
(10.1057 -0.0348498 0.0142261)
(3.92099 -0.257646 0.212491)
(10.5919 -0.0421516 -0.320499)
(10.4423 0.0089938 -0.0268476)
(9.95371 -0.0287466 0.0126238)
(10.1279 -0.0539164 0.00842583)
(11.018 -0.110167 0.82633)
(9.70766 0.114682 -0.0384772)
(10.1323 0.0815148 0.0707803)
(9.99028 0.0190323 -0.0843299)
(-3.14116 0.656334 0.560852)
(8.10248 0.240932 -2.11302)
(10.1727 0.0108164 -0.0899668)
(10.0113 -0.0377865 -0.0151127)
(5.14844 0.307668 -1.84646)
(5.91597 0.136199 -2.54129)
(10.3088 0.501985 -2.0545)
(-1.72191 -3.22561 -1.42123)
(5.50215 1.11213 0.431132)
(4.33257 0.149705 -3.27426)
(4.02784 0.0854225 -4.15029)
(10.0711 0.0289881 -0.0209022)
(9.92596 0.0307083 -0.037346)
(9.58167 -0.0544147 0.167517)
(9.91356 -0.0379555 0.0141244)
(10.3442 0.0305684 -0.0866219)
(-0.518104 1.75206 1.45333)
(10.7256 -0.102426 -0.244889)
(10.3694 0.0187953 -0.0649809)
(10.3442 0.00118643 -0.0136747)
(10.0448 -0.0458254 0.0119003)
(-0.325832 1.67351 2.11182)
(-0.0515577 1.78623 2.16524)
(9.89391 -0.0711596 0.0664431)
(10.3026 -0.0550324 -0.00956907)
(9.94537 0.0273959 0.076856)
(9.90735 -0.0124869 0.0302912)
(10.3333 -0.0580441 0.000497442)
(9.98278 0.0201485 0.0464304)
(9.69605 0.0212358 0.00710873)
(10.0535 -0.0334327 -0.0487603)
(9.96224 -0.0233686 -0.0169482)
(6.7765 -0.56874 -2.69905)
(9.88465 0.00863191 -0.0768585)
(9.99309 0.0292602 0.0331164)
(9.9897 -0.0949748 0.0764432)
(10.0456 0.0823636 -0.000634366)
(10.0613 0.0121247 -0.0332902)
(4.08932 -0.433063 -1.91212)
(12.3316 -1.20495 -0.0256094)
(9.98464 -0.0145667 -0.0174188)
(10.5116 0.412774 -0.182365)
(10.0535 -0.0602788 -0.0411098)
(9.79182 -0.38281 0.219262)
(9.69229 -0.410672 0.339097)
(11.6644 -0.0158335 -0.0427295)
(10.0153 -0.115758 0.0508083)
(-1.12758 -0.557271 3.36499)
(11.8283 -0.0867861 -0.0534412)
(10.3437 0.148834 -0.0079028)
(10.5457 0.166178 0.0217513)
(8.04891 0.270641 -3.00327)
(14.1324 1.39508 0.197278)
(10.0245 -0.0976733 -0.017099)
(10.0355 -0.12375 0.0186924)
(12.2771 1.20198 1.71899)
(9.99092 0.03478 -0.163901)
(10.054 0.0132862 -0.0334418)
(11.2743 0.285554 0.345372)
(9.98336 -0.130108 0.0214338)
(9.9639 0.0362871 0.00341797)
(1.26848 -1.19402 0.0566875)
(12.1335 -0.391276 0.425284)
(13.1237 2.41403 0.562787)
(10.0221 0.00133677 0.00733963)
(7.65863 0.459591 -2.22361)
(10.0046 -0.148269 -0.062831)
(11.3177 -0.943773 -0.205326)
(9.59343 -0.351732 0.467518)
(11.7322 -0.032272 -0.027723)
(10.2455 0.181878 0.0253861)
(9.4251 -0.340825 0.443563)
(3.88391 0.962438 0.918258)
(12.3899 1.32169 2.16482)
(11.9466 -0.317052 -0.729905)
(-1.05904 1.84557 2.76066)
(11.6392 0.273955 0.0835094)
(10.3005 0.0561019 0.112816)
(10.233 0.0269355 -0.0559391)
(11.5493 0.83604 -0.129323)
(9.96957 -0.0199035 0.0926862)
(11.8994 -0.0391346 0.106678)
(-0.0628869 -0.89799 2.30867)
(9.95757 0.0236446 0.107937)
(12.2077 0.0246923 -1.02173)
(9.90054 -0.0444964 -0.081091)
(9.94717 -0.0549431 -0.0994557)
(11.3845 -1.97496 1.64092)
(10.1077 -0.0781316 -0.0707117)
(9.98888 -0.0796438 -0.059922)
(8.56433 -5.66622 0.575734)
(9.58633 0.411322 0.000345894)
(9.90731 -0.181609 0.155493)
(12.1461 -0.818747 0.312037)
(10.2082 1.23116 1.38523)
(10.094 -0.145454 -0.0144897)
(11.8874 -2.03584 -0.365549)
(5.4331 -0.640755 0.273669)
(10.3696 0.0539908 0.114764)
(9.50867 -0.649255 -0.594881)
(10.0383 -0.00754406 0.0263819)
(10.1563 0.138653 0.0283905)
(10.1683 -0.10274 0.0268474)
(10.1566 -0.0617508 0.0501525)
(4.89892 1.68976 -2.80807)
(0.688962 -0.98145 1.35547)
(11.5799 0.201061 -0.62941)
(9.67412 -1.08646 -0.0969804)
(11.3569 -2.01226 -0.00916585)
(3.85797 5.63971 -1.12645)
(1.03671 -0.0847826 -1.59711)
(10.4018 -3.29673 4.3405)
(10.1269 -0.0326534 -0.0611908)
(10.0295 0.0688343 0.000403712)
(9.9235 -0.0362422 0.0243046)
(10.0365 -0.115202 -0.0861498)
(7.12071 0.507506 -1.52477)
(9.66368 -0.511078 0.356352)
(9.32741 -0.448476 1.30379)
(9.91909 0.0663978 0.0706818)
(-1.53924 -0.924935 0.821127)
(11.8352 -0.0355831 -0.00623912)
(9.87535 0.227972 -0.0199074)
(10.0901 -0.02795 -0.0850881)
(10.0371 0.0111293 -0.00308888)
(10.0646 0.0207524 -0.162508)
(6.18823 -1.74198 -2.7585)
(10.0186 0.0697837 0.0293025)
(7.0689 5.82982 -0.244956)
(10.0381 -0.142607 0.0328499)
(10.0043 -0.578149 -2.70002)
(10.0159 0.00510369 0.0111958)
(10.064 -0.0102517 0.0127481)
(10.1101 0.0210777 0.1429)
(10.2076 0.0631746 0.0626688)
(9.94637 0.00344347 -0.0333831)
(12.7764 0.205491 -0.319031)
(12.2117 0.0115783 0.141226)
(9.3313 1.13794 2.648)
(7.54149 3.97642 2.77873)
(9.50189 0.872068 0.645497)
(10.2269 0.440455 -0.041053)
(11.1285 0.653697 0.197219)
(6.32874 -0.260225 -2.56212)
(10.3055 -0.105789 0.0462538)
(10.5093 0.0560813 -0.0369075)
(10.1093 -0.44381 0.0923476)
(11.5771 0.0638088 -0.0393077)
(9.51665 0.198655 5.03143)
(7.75115 -0.384297 0.755366)
(10.2682 -0.243902 0.163858)
(10.0045 0.0610628 0.0184352)
(9.57795 0.857581 -0.171221)
(10.0754 -0.0204804 0.000706102)
(10.0634 0.0726359 0.00567005)
(14.516 -1.82115 1.68554)
(11.8435 -0.688273 0.651405)
(-0.242983 3.68826 0.121607)
(10.1904 -0.673465 0.288185)
(11.597 -0.841475 -0.162296)
(10.2973 -0.93442 -0.909852)
(13.2433 0.140732 -1.71653)
(10.0747 -0.111698 0.111693)
(-0.775786 -1.00547 -1.22921)
(10.0489 0.014322 -0.114824)
(10.0004 0.0610347 -0.075833)
(10.7796 -0.161613 0.767975)
(11.0196 0.239408 5.27487)
(10.1705 -0.0751168 0.045953)
(10.0468 0.432289 -0.317775)
(10.0969 -0.0488223 0.0342226)
(10.7281 -0.878414 0.628676)
(10.9613 0.0119311 0.999204)
(10.0428 0.00240405 -0.0350761)
(10.7777 -0.419774 -2.68756)
(10.1902 -0.778144 -3.08643)
(12.8134 0.0883595 0.419199)
(10.2094 0.390696 -0.125459)
(9.69373 0.0270469 0.290364)
(3.19915 0.671555 -3.14466)
(1.16446 0.123005 3.8323)
(5.55299 3.10686 1.06301)
(12.6584 -0.803099 -2.37805)
(5.87794 -0.362005 -0.089349)
(9.9597 -0.0294591 -0.178954)
(9.94301 -0.0189794 -0.0108071)
(8.71311 1.45031 3.01285)
(10.0367 -0.129246 0.148648)
(4.63291 -0.573271 0.282367)
(10.0168 -0.0936423 -0.197561)
(10.0067 -0.0496983 -0.199699)
(-2.73513 2.37361 -0.463237)
(9.72593 -1.03538 0.95173)
(10.7998 -0.16223 0.183643)
(10.085 -0.0813098 0.0258293)
(9.71979 0.0754598 0.0623285)
(8.24108 0.297826 -2.46741)
(10.0132 0.0640431 0.164844)
(10.0208 0.00487299 0.0244409)
(10.2606 0.538646 1.02185)
(11.9539 -0.713044 -2.49335)
(10.2809 0.263689 0.127431)
(9.85392 0.153631 -0.0172075)
(9.85894 -0.154187 0.0441866)
(9.94049 0.0261176 -0.0885217)
(9.87183 -0.0737105 -0.0342479)
(11.5798 -0.723166 -1.60879)
(11.4678 -0.00544952 -0.117654)
(8.4934 0.0173505 0.266839)
(9.85513 -0.823155 0.6009)
(9.7583 -0.0944074 -0.0339035)
(10.0247 -0.11957 -0.0474182)
(9.85035 -0.0380673 0.0480857)
(9.89476 -0.0581643 0.0137469)
(10.395 0.780297 0.342412)