/*--------------------------------*- C++ -*----------------------------------*\
| =========                 |                                                 |
| \\      /  F ield         | OpenFOAM: The Open Source CFD Toolbox           |
|  \\    /   O peration     | Version:  2506                                  |
|   \\  /    A nd           | Website:  www.openfoam.com                      |
|    \\/     M anipulation  |                                                 |
\*---------------------------------------------------------------------------*/
FoamFile
{
    version     2.0;
    format      ascii;
    arch        "LSB;label=32;scalar=64";
    class       volScalarField;
    location    "0.0207921";
    object      k;
}
// * * * * * * * * * * * * * * * * * * * * * * * * * * * * * * * * * * * * * //

dimensions      [0 2 -2 0 0 0 0];

internalField   nonuniform List<scalar> 
3991
(
0.461244
0.501269
0.368976
0.359081
0.507485
0.369742
0.813456
0.758047
0.423199
0.39661
0.409773
0.385688
0.381385
0.388717
0.725228
0.388403
0.400037
0.394518
0.446221
0.833343
0.460248
0.806077
0.4927
0.481084
0.42886
0.514371
0.547389
0.457275
0.385898
0.370541
0.609348
0.410659
1.07138
0.388259
0.460772
0.515076
0.979643
0.831176
0.368845
0.408096
1.23735
0.389529
0.412175
0.381845
0.362878
0.886569
0.782446
0.36621
0.415008
0.529743
0.456512
1.00548
1.00853
0.494137
0.471784
0.395878
0.37414
0.37298
0.391373
0.361592
0.522165
0.55221
0.456157
0.447733
0.423143
0.406838
0.394531
0.445312
0.848147
0.405926
0.432921
0.388567
0.718972
0.379303
0.496414
0.429134
0.709289
0.429757
0.379723
0.671872
0.380779
0.400803
0.65714
0.392438
0.511205
0.561478
0.359036
0.362748
0.667383
0.382257
0.408729
0.405896
0.429409
0.627131
0.443234
0.521267
0.574941
0.468496
0.545372
0.387187
0.375576
0.389711
0.778178
0.366855
0.369283
0.699249
0.404255
1.15535
0.787392
0.547981
1.04798
0.431465
0.691164
0.384216
0.368211
1.02964
1.05878
0.719849
0.376064
0.410919
0.821243
0.502702
0.39046
0.4043
0.640969
0.418482
0.405916
0.367818
0.547174
0.578939
0.407926
0.447134
0.396047
0.374572
0.401372
0.380877
0.379786
0.368411
0.421828
0.486531
0.414238
0.506724
0.690057
0.511849
0.391921
0.424951
0.414153
0.55252
0.567363
0.481403
0.452088
0.756483
0.757042
0.85175
0.687611
0.619879
0.511021
0.773628
0.754535
0.531062
0.424677
0.528312
0.386069
0.560708
0.781739
0.552065
0.4074
0.54712
0.594457
0.376579
0.462437
0.448338
0.814039
0.735505
0.701785
0.789136
0.583437
0.37168
0.375941
0.555984
0.445552
0.430206
0.483019
0.668093
0.373534
0.379813
0.389447
0.388583
0.389847
1.03576
0.700601
0.398074
0.842201
0.793485
0.481564
1.00977
0.432547
0.371274
1.1427
0.394797
0.354539
0.487449
0.499421
0.396173
0.410232
0.478294
0.462033
0.593583
0.401579
0.488544
0.670135
0.403665
0.442097
0.663895
0.393432
0.439697
0.397104
0.704854
0.83334
0.922327
0.42378
0.669346
0.432915
0.686577
0.45269
0.515805
0.568557
0.375234
0.382744
0.598127
0.435913
0.408275
0.611919
0.654638
0.386764
0.524533
0.387524
0.375358
0.394751
0.776206
0.633176
0.560738
1.13117
0.44538
1.15498
0.396705
0.380776
0.389129
0.423878
0.461719
0.360608
0.385111
0.417196
0.36768
0.365637
0.394516
0.455475
0.589772
0.431323
0.557143
0.863378
0.646942
1.39465
0.617454
0.364711
1.10996
0.946267
0.406177
0.582578
0.497996
1.01
0.506908
0.404933
0.62407
0.896388
0.462234
0.367927
0.455735
0.379215
0.403779
0.469446
0.604558
0.398165
0.867992
0.399386
0.598482
0.376147
0.690266
0.876691
0.415366
0.639198
0.733033
0.391478
0.6177
0.391079
0.384954
0.406395
0.384484
0.398545
0.393634
0.369907
0.368027
0.453828
0.392197
0.492867
0.551696
0.382841
0.943464
0.419846
0.513152
0.370397
0.382891
0.37914
0.378493
0.577819
0.491899
0.765932
0.369827
0.463129
0.38589
0.42061
0.39677
0.382835
0.405336
0.444793
0.496346
0.394601
0.419492
0.507771
0.758922
1.18018
0.665599
0.408191
0.408812
0.636547
0.364587
0.569562
0.396811
0.488871
0.418134
0.560363
0.38551
0.457619
0.432962
0.369498
0.408816
0.421028
0.548313
0.543889
0.345456
0.483223
0.380349
0.38704
0.739674
0.501364
0.646817
0.426579
0.381533
0.821279
0.584675
0.500179
0.444068
0.415383
0.597625
0.414486
0.419343
0.428474
0.431216
0.370197
0.556005
0.506497
0.41355
0.598848
0.905157
0.381788
0.511216
0.475311
0.429104
0.476298
0.411293
1.27767
0.607626
0.643998
0.38632
0.411243
0.405681
0.55672
0.91951
1.25334
0.508466
0.530849
0.935136
0.519416
0.419284
0.375023
0.738443
0.380997
0.369783
1.21752
0.962167
0.389851
0.603252
1.12261
0.544476
0.794594
0.365029
0.835201
0.826787
0.89121
0.404374
0.431416
0.796118
0.708627
0.867664
0.379064
0.386691
0.381859
0.764714
0.369162
0.369834
0.36062
0.805234
0.377865
0.387544
0.371248
0.500805
0.497756
0.898486
0.86747
0.384269
0.954726
0.528998
0.66566
0.38653
0.376906
0.372752
0.36979
0.386713
0.511173
0.568647
0.548449
0.531581
0.567474
0.557405
0.363328
0.392527
0.37983
0.431263
0.540554
0.427567
0.531829
0.54367
0.698356
0.43061
0.430441
0.45686
0.464064
0.407102
0.426462
0.417881
0.443077
0.414267
0.445737
0.48581
0.494794
0.453543
0.504305
0.437474
0.440093
0.578166
0.609939
0.467054
0.452082
0.432444
0.461141
0.439119
0.404707
0.408386
0.413909
0.419965
0.428381
0.995223
1.0376
0.728939
0.772677
0.723169
0.648278
0.521207
0.741787
0.49455
0.449586
0.377315
0.445797
0.652328
0.743681
0.52257
0.635459
0.676383
0.397993
0.401722
0.379473
0.395578
0.362857
0.398086
0.369022
0.371338
0.360223
0.367144
0.382868
0.36408
0.373867
0.381425
0.372811
0.367304
0.371794
0.367598
0.363742
0.404567
0.406594
0.416513
0.401161
0.440461
0.406691
0.395936
0.400097
0.446612
0.456274
0.410272
0.428856
0.438328
0.4597
0.42302
0.410853
0.414528
0.631335
0.487832
0.618954
0.5254
0.54527
0.576488
0.62748
0.962111
0.863771
0.673254
0.685108
0.535858
0.391194
0.712121
0.573348
0.536913
0.556968
0.369698
0.368961
0.380172
0.389407
0.405014
0.39567
0.390804
0.397889
0.391569
0.404262
0.547066
0.546585
0.547612
0.596519
0.528396
0.592492
0.62489
0.432267
0.669958
0.418656
0.979295
0.630423
0.774142
0.610893
1.03059
0.442421
0.456099
0.401176
0.455487
0.634294
1.21152
0.916132
0.746955
1.07594
0.487099
0.497707
0.92402
0.752313
0.840139
0.400351
0.578939
0.540369
0.600281
0.513936
0.761039
0.377755
0.502399
0.706737
0.397444
1.09512
0.744257
0.405902
0.600268
0.583683
0.37542
0.470723
0.572818
0.473166
0.603594
0.648932
0.394846
0.406197
0.390693
0.523717
1.18793
0.851731
1.07654
0.40006
0.397477
0.400557
0.366501
0.37602
0.369152
0.379519
0.6181
0.398227
0.445043
0.387116
0.391576
0.38164
0.399763
0.427176
0.384229
0.364445
0.511849
0.67846
0.726557
0.604676
0.390745
0.404684
0.390779
0.52852
0.820242
0.773178
1.15494
0.521932
0.400532
0.364526
0.636288
1.04098
0.341108
0.441478
0.531228
0.632269
0.58474
0.388721
0.527208
0.393921
0.404584
0.409016
0.473813
0.45425
0.484199
0.366613
0.709412
0.396072
0.390223
0.52501
0.845214
0.515683
0.505536
0.534973
0.364942
0.522485
0.367098
0.376208
0.395612
1.46959
0.452812
0.700425
0.765509
1.24394
0.455219
0.373304
1.29034
0.595343
0.886743
0.96018
0.736704
0.765006
0.396792
0.90367
0.387617
0.358667
0.60534
0.446015
0.48528
0.378281
0.375381
0.447478
0.367105
0.401744
0.370387
0.845245
0.798845
0.709363
0.774393
0.485728
0.380259
0.795806
0.380435
0.8543
0.373314
0.402656
0.435811
0.38611
0.59392
0.586076
0.51255
0.494581
0.387623
0.968738
0.522333
0.533817
0.570811
0.568618
0.446737
1.54601
0.494854
1.11837
1.2242
0.887783
0.903616
1.10341
0.889863
0.73778
0.817054
1.21643
1.10338
0.815979
0.436752
0.625876
0.587912
0.778062
0.623165
0.419574
0.644244
0.521279
0.631643
0.545883
0.659684
0.450565
0.489176
0.515878
0.45258
0.813932
0.48049
0.539817
0.460205
0.484222
0.436342
0.462962
0.395165
0.431121
0.4689
0.793876
0.704168
1.21721
0.5715
0.745945
0.442341
0.446591
0.490968
1.15519
0.368905
0.36893
0.360983
0.364765
0.419183
0.38778
0.383376
0.381787
0.389313
0.379999
0.377693
0.380105
0.372646
0.365535
0.365704
0.382172
0.377285
0.431749
0.377171
0.378381
0.422145
0.384435
0.388596
0.355159
0.548855
0.998363
0.852249
0.663097
0.604292
0.734926
0.527127
0.533593
0.560128
0.62861
0.597107
0.425345
0.400616
0.42721
0.42002
0.3991
0.412237
0.423489
0.401327
0.393536
0.401897
0.683748
0.669812
0.577474
0.636361
0.606845
0.491197
0.382148
0.397518
0.420339
0.4308
0.448695
0.421077
0.406883
0.499218
0.523421
0.408803
0.417569
0.413611
0.422557
0.422443
0.397635
0.491871
0.577264
0.589891
0.557901
0.379948
0.463275
0.378235
0.372524
0.560766
0.493201
0.674063
0.414873
0.479622
0.830056
0.406923
0.696672
1.35153
0.966083
0.375366
1.18043
0.590124
0.680292
0.428847
0.469818
0.450455
0.568304
0.355281
0.383687
0.498785
0.491409
0.430093
0.405205
0.589169
0.414631
0.421427
0.627317
0.497695
0.484902
0.419293
1.11809
1.1287
0.486168
0.50435
0.581449
0.606814
0.756729
0.568008
0.416371
0.729619
0.735492
0.409441
0.5447
0.55145
0.641928
0.779241
0.771173
0.778722
1.08356
1.34419
0.417349
0.39721
0.511756
0.390528
0.786856
0.777782
1.18759
0.411951
0.624924
0.393497
0.416288
0.442433
0.366341
1.16198
0.403143
0.394123
0.483531
0.840245
0.371479
0.631255
0.40573
0.488248
0.451067
0.403234
0.524143
0.40673
0.444324
0.408383
0.871128
0.370192
0.369999
0.392975
0.369114
0.381244
0.808641
0.362255
0.783404
0.741837
0.547075
0.67955
0.718119
0.39464
0.513573
0.886307
0.746398
0.392463
0.442452
0.540131
0.487555
1.1462
0.739487
0.534729
0.540852
0.625353
0.530236
0.455363
0.371629
1.06517
0.48282
0.399736
0.99568
0.457801
0.467456
0.40867
0.460975
0.415062
0.373043
0.391311
0.419956
0.502488
0.860964
1.04262
0.388853
0.422505
0.384763
0.507102
0.51015
0.960951
0.710134
0.387077
0.780562
0.505309
0.481376
0.398583
0.386852
0.390277
0.373654
0.36685
0.366653
0.531715
0.381538
0.382095
0.38061
0.366373
0.435302
0.435274
0.497163
0.388379
0.392398
0.392893
0.373164
0.45458
0.453869
0.398308
0.39151
0.520109
0.463165
0.450729
0.386704
0.368926
0.367743
0.354944
0.357643
0.491599
0.439045
0.415374
0.59637
0.773011
0.385999
0.373211
0.368862
0.428817
0.401865
0.409886
0.393805
0.401303
0.370345
0.436482
0.968947
0.73429
0.628463
0.627511
0.419209
0.397255
0.382748
0.429146
0.415329
0.433428
0.537466
0.452946
0.395629
0.774554
0.402648
1.00026
0.450814
0.510469
0.434445
0.617669
0.465914
0.457548
0.738137
0.471976
0.598894
0.449294
0.436398
0.389409
0.600623
0.438033
0.458477
0.504312
0.418984
0.998305
0.7202
0.486331
0.592278
0.395213
0.376616
0.378269
0.446059
0.38307
0.381444
0.38575
0.380479
0.37946
0.489665
0.469194
0.423071
0.586556
0.429164
0.62661
0.514961
0.976807
1.06755
0.971503
0.868855
1.05998
0.626028
0.516026
0.852468
0.615751
0.731865
0.418537
0.814226
0.832035
0.489476
0.521885
0.475058
0.501281
0.795212
0.367412
0.368033
0.384899
0.42455
0.722384
0.446235
1.05937
0.824578
0.377843
0.906408
0.401305
0.625449
0.549287
0.455784
1.54871
0.576068
0.389418
1.04726
0.465026
1.04943
0.815526
0.921668
1.06794
1.09114
0.818063
0.951315
0.936438
1.26977
0.363285
0.390768
0.364455
0.36111
0.354406
0.426438
0.384552
0.356938
0.499932
0.367042
0.405509
0.371148
0.402004
0.367398
0.870618
0.415065
0.513944
0.416019
0.916484
0.952417
0.802018
0.514742
0.550995
0.656812
0.735404
0.960204
0.904352
0.754055
0.76832
0.500218
0.510942
0.71723
0.663006
0.565955
0.584532
0.803108
0.624526
0.533041
0.377275
0.370099
0.370344
0.369135
0.369208
0.385685
0.387501
0.381956
1.08522
0.999016
1.03875
0.916723
1.04801
0.79725
0.714596
0.72295
0.675196
0.66062
0.549214
0.558369
0.515932
0.576205
0.542128
0.728902
0.614749
0.457954
0.483782
0.763394
0.600455
0.446424
0.67544
0.626435
0.757783
0.774084
0.532181
1.08138
0.701428
0.387518
0.371088
0.4314
0.440907
0.418356
0.957976
0.548297
0.870859
0.573791
0.747083
0.606242
0.418756
0.443624
0.461606
0.437998
0.423444
0.364442
0.446081
0.431336
0.530558
0.53292
0.52817
0.413259
0.413469
1.04471
0.405692
0.429639
0.44206
0.462691
0.449374
0.823429
0.748303
0.414072
0.724649
0.393551
0.733533
0.710205
0.731523
0.774991
0.799874
0.733918
0.486131
0.384093
0.539949
0.436915
0.421446
0.43509
0.457856
0.431686
0.43008
0.801854
0.640764
0.550432
0.5309
0.63444
0.648735
0.816284
0.767164
0.374306
0.372
0.368269
0.712181
0.373477
0.373434
0.426668
0.40283
0.399208
0.370581
0.389467
0.356864
0.386073
0.406056
0.375963
0.391829
0.388576
0.416705
0.51507
0.43411
0.375263
0.368154
0.410265
0.617764
0.764596
0.58369
0.54239
0.569662
0.638963
0.369711
0.396085
0.369395
0.496695
0.400679
0.371373
0.408162
0.421437
0.456922
0.535949
0.370904
0.374591
0.841888
0.418373
0.413761
1.00498
0.456413
0.382134
0.49351
0.374009
0.488023
0.499246
0.437619
0.397471
0.386284
0.52993
0.522286
0.378018
0.396453
0.461163
0.381318
0.410743
0.555953
0.432718
0.367876
0.367156
0.39298
0.391051
0.374392
0.457456
0.389702
0.382712
0.376989
0.416795
0.665588
0.497079
0.526494
0.441714
0.787332
0.613617
0.386934
0.686588
0.422646
0.401091
0.446034
0.689827
0.387698
0.714787
0.475426
0.373851
0.376647
0.383768
0.350228
0.366491
0.479767
0.377451
0.36607
0.390571
0.403861
0.416931
0.491021
0.464453
0.631615
0.472063
0.416502
0.814163
0.395295
0.434065
0.685479
0.490636
0.415563
0.847106
0.468864
0.642635
0.84505
0.380126
0.560659
1.03743
0.378888
0.397452
0.408491
0.378468
0.391308
0.421279
0.409014
0.835039
0.960823
0.713725
1.22443
0.375033
0.402731
0.384821
0.368633
0.382311
0.378185
0.423089
0.753686
0.468041
0.37922
0.406265
0.367309
0.376032
0.439416
0.742036
0.596931
0.769003
0.497164
0.480055
0.439328
0.440869
0.474186
0.365952
0.382806
0.411334
0.409112
0.409842
0.399547
0.415523
0.37493
0.593969
0.889076
0.500751
0.373249
0.383057
0.419256
0.547507
0.487757
0.518729
0.467396
0.508359
0.407016
0.41071
0.428806
0.701503
0.588537
0.546797
0.444317
0.583151
0.751981
0.622315
0.638204
0.494279
0.564869
0.920745
0.412082
0.420214
0.545516
0.596972
0.405366
0.457373
0.360492
0.537214
0.404806
0.432551
0.370172
0.410335
0.396149
0.410554
0.409188
0.424371
0.391783
0.360423
0.377457
0.395302
0.384391
0.676692
0.566803
0.693151
0.549611
0.759852
0.799194
0.821313
0.383094
0.583885
0.798566
0.887998
0.713693
0.611359
0.432601
0.574327
0.437477
0.440534
0.380781
0.379987
0.37329
0.816739
0.6232
0.891738
0.503451
0.804574
0.602515
0.877426
0.794296
0.683536
0.703722
0.481819
0.434562
0.429017
0.396319
0.44941
0.608538
0.863756
0.420901
0.490486
0.909194
0.373667
0.445386
0.459458
0.364044
0.524408
0.772242
0.434679
0.734883
1.46189
0.377672
0.365627
0.386837
0.367881
0.469069
0.413928
0.485864
0.48963
0.366168
0.513703
0.474645
0.55059
0.572366
0.707515
0.363645
0.580881
0.714223
0.811604
0.423104
0.425565
0.526454
0.40156
0.4114
0.388479
0.46395
0.521445
0.501998
0.762105
0.383721
0.890005
1.06667
1.21134
0.902585
0.998154
0.438739
0.48639
0.46337
0.429686
0.492962
0.47009
0.445058
0.47366
1.26983
1.17638
0.947564
1.05799
1.0549
1.01044
0.846551
0.810023
0.894256
0.914457
0.683258
0.870851
0.826042
0.717045
1.10853
1.64293
1.33544
1.17571
1.20864
0.958582
0.677073
0.594213
0.77512
0.767756
0.438771
0.7055
1.30484
0.675667
0.446902
0.794111
0.420415
0.50281
0.389598
0.366151
0.361442
0.365042
0.511444
0.462069
0.457552
0.531817
0.39344
0.406726
0.3554
0.551182
0.392259
0.814934
0.838005
1.08506
0.459589
0.752238
0.626636
0.873939
0.414807
0.524234
0.856405
0.514877
0.742374
0.403505
0.648138
0.591134
0.466284
0.48066
0.461939
0.414896
0.392225
0.471169
0.573402
0.517396
0.627044
0.597039
0.451372
0.434305
0.464192
0.501662
0.52418
0.459188
0.407904
0.441308
0.437251
0.447775
0.530415
0.72398
0.53072
0.520006
0.870626
0.735279
1.15933
0.465013
0.875642
0.56121
0.513979
1.13968
0.563164
0.53304
0.482618
0.436534
0.4198
0.36694
0.389202
0.486725
0.388886
0.369158
0.365657
0.375698
0.399371
0.395766
0.717259
0.399241
0.420028
0.995224
0.392563
0.428608
0.395157
0.743677
0.448105
0.414524
0.419874
0.466811
0.399333
0.434233
0.837524
0.442279
0.708003
0.378797
0.384345
0.415897
0.515257
0.792469
0.415546
0.485832
0.381629
0.507853
0.782786
0.426852
0.524668
0.838291
0.798586
0.705075
0.495897
0.459091
0.441293
0.897517
0.488891
0.754923
0.978301
0.373235
0.367426
0.40627
0.368847
0.365473
0.921474
0.875323
0.899511
0.403549
0.383906
0.422237
0.3879
0.467227
0.485373
0.437412
0.497324
0.44908
0.521306
0.425148
0.38973
0.578325
0.437457
0.414662
0.378237
0.46738
0.441935
1.18751
1.06379
0.688642
0.525312
1.03222
0.492051
0.533159
0.645351
0.596939
0.802784
0.716912
0.737562
0.807582
1.16118
0.585166
0.556723
0.475938
0.425829
0.436524
0.848229
0.417173
0.703656
1.15575
0.482508
0.653624
0.910123
0.441768
0.381242
0.447714
0.772105
0.440601
0.699487
0.933303
0.668121
0.405026
0.39761
0.408716
0.922953
0.843002
0.485146
0.783127
1.02998
1.11211
1.09124
0.903335
0.612782
0.632489
0.611333
0.800854
0.594572
0.80371
0.894141
0.82071
0.796625
0.902134
0.464633
0.394732
0.382765
0.384501
0.460663
0.582078
0.390596
0.402433
0.535371
0.728933
0.609743
0.504416
0.539045
0.890805
0.550889
0.457157
0.440697
0.373389
0.618861
0.406138
0.441344
0.396254
0.743016
0.441373
0.473887
0.838267
0.58232
0.753825
0.485942
0.644812
1.06506
0.441097
1.51377
0.526197
0.578792
0.407636
0.468718
0.393623
0.686343
0.698788
0.412162
0.569279
0.497084
0.398082
0.49525
0.697937
0.718141
0.584407
0.378415
0.390344
0.375114
0.379266
0.389426
0.592029
0.618181
0.663375
0.77935
0.751958
0.605084
0.414654
0.495056
0.626177
0.404517
0.419962
0.412807
0.870257
0.578912
0.433813
0.868103
0.497827
0.49354
0.595484
0.733743
0.502634
0.42667
0.660384
0.396535
0.424433
0.39741
0.414529
0.395198
0.484254
0.420278
0.448718
0.484926
0.410917
0.490244
0.395206
0.427646
0.531993
0.582885
0.571797
0.573715
0.528005
0.498803
0.454824
0.517725
0.576517
0.618417
0.427117
0.712779
0.870444
0.868449
0.545797
0.531528
0.51999
0.537541
0.491358
0.489012
0.412306
0.426361
0.385311
0.362361
0.39773
0.392039
0.397582
0.444373
0.397643
0.392898
0.402764
0.404542
0.43987
0.489972
0.355118
0.449
0.785209
0.5003
0.504644
0.503126
0.417359
0.409198
0.442149
0.427199
0.405596
0.389407
0.394518
0.367632
0.368596
0.376463
0.440584
0.417393
0.44618
0.576268
0.660859
0.410359
0.439371
0.463392
0.410569
0.387031
0.408151
1.47867
0.389388
0.399344
0.403277
0.400292
0.442965
0.44703
0.41019
0.403935
0.459072
0.42282
0.443688
0.517639
0.448616
0.422596
0.51609
0.385948
0.39498
0.419988
0.44421
0.523008
0.448383
0.51536
0.388619
0.553959
0.417206
0.427651
0.406557
0.426593
0.40997
0.435959
0.415392
0.435233
0.455493
0.494521
0.430128
0.561382
0.462049
0.53302
0.36199
0.367824
0.369203
0.377148
0.370634
0.365619
0.605278
0.952494
0.835374
0.843073
0.726686
0.516399
0.486894
0.354031
0.353741
0.405978
0.359671
0.544383
0.752869
0.457769
0.386357
0.557721
0.487789
0.699683
0.546816
0.803052
1.09456
1.09772
0.742684
0.606605
0.717879
0.623712
0.530233
1.05849
1.26292
1.06326
0.908398
1.1695
0.498897
0.743148
0.408644
0.667784
0.943558
0.44878
0.588659
0.740952
0.960946
0.650233
1.06387
0.734478
0.746423
0.599641
0.666785
0.727326
0.444904
0.502232
0.593224
0.600739
0.730146
0.956392
0.632291
0.997983
0.934186
0.527431
0.595623
0.67874
1.07956
1.16363
0.720821
0.47938
0.837123
0.765591
0.41047
0.757826
0.952606
0.868216
0.89602
0.923988
0.981367
0.373424
0.545162
0.729939
0.60608
0.674569
0.534675
0.372187
0.374022
0.588388
0.648228
0.505152
0.465874
0.434648
0.461787
0.712394
0.495876
0.918041
0.472033
0.706791
0.78227
1.0742
0.670683
0.390644
0.597249
0.394933
0.711292
0.54649
0.434701
0.47653
0.69552
0.406517
0.421191
0.382596
0.640956
0.377523
0.505564
0.53164
0.800672
0.716832
0.369311
0.367096
0.492785
1.2387
0.967517
0.411554
0.370253
0.454982
0.376885
0.41576
0.36729
0.504066
0.498609
0.676845
0.57032
0.696336
0.392054
0.564277
0.763248
0.800877
0.442526
0.576727
0.444891
0.573069
0.747266
0.420198
0.41505
0.416224
0.483417
0.477521
0.45256
0.430266
0.413331
0.406779
0.469663
0.37725
0.428508
0.40769
0.450265
0.45785
0.6649
0.721495
0.443893
0.363494
0.451535
0.369323
0.414386
0.435731
0.41281
0.448719
0.946252
0.477953
0.398861
0.384565
0.408156
0.429479
0.38981
0.377485
0.372169
0.542807
0.380956
0.446472
0.388248
0.669726
0.83988
0.398281
0.491798
1.06407
1.16646
0.743601
0.650884
0.439696
0.400185
0.419485
0.383213
0.421029
0.731923
0.948263
0.671627
0.426693
0.38396
0.398505
0.507226
0.44341
0.407246
0.455355
0.592074
0.640679
0.57939
0.820955
0.465037
0.820862
0.381843
0.43528
0.634613
0.43759
0.431048
0.67199
0.667884
0.68317
0.604813
0.53327
0.495021
0.3701
0.38017
0.361618
0.403223
0.415529
0.707673
0.397969
0.382509
0.453109
0.438652
1.19074
1.27414
0.380641
0.483295
0.671554
0.635864
0.436436
0.402777
0.494473
0.510601
0.573843
0.525453
0.674268
0.9011
0.542057
0.383133
0.535619
0.533053
0.611092
0.578556
1.02601
0.808435
0.577561
0.499663
0.445281
0.624934
0.451073
0.873146
0.576124
0.407153
0.387219
0.41426
0.393601
0.539639
0.436832
0.381505
1.28783
0.387523
0.40818
0.391866
0.449213
0.359314
0.469785
0.367222
0.400106
0.394493
0.411188
0.570857
0.540685
0.864863
0.439251
0.420799
0.415638
0.38464
0.436916
0.417141
0.381801
0.398131
0.403358
0.406898
0.40581
0.426368
0.40358
0.402097
0.949153
0.890771
0.757253
0.424419
0.396782
0.832556
0.415749
0.749012
0.735037
0.404843
1.01853
1.04132
0.551399
0.684963
0.834779
0.909942
0.91604
0.428446
0.437947
0.499042
0.414417
0.49444
0.463987
0.852939
0.451961
0.423087
0.435791
0.465661
0.384724
0.50008
0.40701
0.503114
0.394132
0.414491
0.401463
0.487681
0.40589
0.401339
0.902748
0.380422
0.410495
0.716284
0.354661
0.513068
0.58209
0.514055
0.395942
0.406254
0.44932
0.434492
0.460364
0.471896
0.728594
0.434685
0.812235
0.505852
0.590887
0.499732
0.41115
0.411297
0.403515
0.378112
0.367338
0.542415
1.01618
0.374197
0.385575
0.396036
0.429409
0.51715
0.873335
0.48636
0.646477
0.475519
0.503397
0.440992
0.383406
0.40873
0.916397
0.545069
0.720785
0.441542
0.386948
0.444279
0.676721
0.655691
0.45007
0.63912
0.468757
0.610993
0.462064
0.41554
0.736214
0.756768
0.392075
0.650932
0.569144
0.814874
0.434508
0.754812
1.30342
0.645317
0.447496
0.713216
1.15088
0.731129
0.907979
0.441858
0.406868
0.593845
0.3699
0.407755
0.390186
0.520218
0.407581
0.495581
0.375547
0.379201
0.400578
0.396929
0.442202
0.398684
0.381749
0.361776
0.491607
0.375318
0.414048
0.376756
0.376826
0.404742
0.771776
0.591466
0.657259
0.711338
0.462965
0.398046
0.450938
0.818782
0.412673
0.390782
0.409441
0.419804
0.406096
0.506359
0.436727
0.642397
0.411007
0.513427
0.446863
0.386881
0.482442
0.47108
0.658112
1.02077
1.15645
1.01101
0.591055
0.970698
0.528965
0.689845
0.486886
0.624718
0.863563
0.46903
0.857625
0.519973
0.440369
0.459526
0.509374
0.514103
0.421178
0.602041
0.444649
0.473474
0.885004
0.780131
0.622415
0.786517
0.90161
1.1106
0.371876
0.395218
0.406741
0.410334
0.381987
0.386292
0.396697
0.374077
0.384554
0.368937
0.43887
0.488546
0.368484
0.561256
0.421855
0.378749
0.388999
0.468778
0.72425
0.438437
0.380648
0.369607
0.373194
0.370721
0.384195
0.385456
0.399338
0.48069
0.437166
0.431144
0.381089
0.398336
0.380031
0.466547
0.87356
0.993188
0.50084
0.440013
0.39562
0.865618
0.500454
0.856304
0.365792
0.365389
0.396892
0.357883
0.424914
0.373191
0.365726
0.364541
0.460253
0.520937
0.477869
0.39612
0.476655
0.402872
0.364694
0.441797
0.647011
0.497128
0.601019
0.449648
0.560108
0.659801
0.782374
0.864586
0.701513
0.767839
0.457943
0.423944
0.431851
0.419447
0.850918
0.556886
0.485735
0.856072
0.718239
0.520348
0.961413
0.385401
0.379978
0.404723
0.40657
0.640162
0.478992
1.18665
1.1319
0.914852
0.848206
0.749033
0.418827
0.451208
1.0909
0.391468
0.961082
0.585579
0.423048
0.856434
0.923177
1.34739
0.588759
0.69957
0.439029
0.457171
0.427359
0.526046
0.436778
0.543203
0.800381
1.02052
0.609527
0.448236
0.388608
1.19097
0.553178
0.475058
0.945405
0.632317
0.391651
0.407045
0.749433
0.811353
0.413912
0.395384
0.414527
0.42623
0.3954
0.62135
0.689155
0.522215
0.42296
0.409919
0.389992
0.38475
0.387128
0.383876
0.392571
0.371974
0.358498
0.401074
0.374816
0.368786
0.539739
0.505276
0.372853
0.393504
0.391
0.392524
0.390981
0.389573
0.380217
0.380619
0.376919
0.380453
0.399981
0.366787
0.362553
0.385226
0.367193
0.452271
0.639037
0.652391
1.09593
0.369841
0.590948
0.569464
0.536456
0.655277
0.657534
0.70122
0.404973
0.591448
0.858529
1.06295
0.658385
1.03485
0.436998
0.974007
0.830885
0.70878
0.607583
0.491845
0.49357
0.476607
0.867141
0.620282
0.828679
0.965665
0.575035
0.601447
0.885229
0.670897
0.799365
0.59161
0.75028
0.635623
0.397545
0.647543
0.679703
0.681406
0.395054
0.441043
0.394844
0.400925
0.78383
0.607386
0.484301
0.944127
0.891041
1.01429
0.843356
0.987289
0.7098
0.464241
0.447016
0.525128
0.359885
0.426108
0.440016
0.38659
0.366561
0.371758
0.426193
0.76946
0.787763
0.406591
0.405854
0.392153
0.395369
0.489594
0.442651
0.439692
0.637139
0.586004
0.41985
0.682567
0.387972
0.385386
1.3315
0.428514
0.376706
0.643814
0.365757
0.387657
0.379259
0.369258
0.474508
0.727983
0.47472
0.413105
0.443221
0.513302
0.452442
0.429335
0.614409
0.433547
0.367727
0.393957
0.409547
0.448113
0.470704
0.484269
0.488492
0.449125
0.639272
0.389824
0.564384
0.377698
0.364512
0.376338
0.402519
0.403185
0.501099
0.395937
0.431335
0.524918
0.404012
0.447991
0.421224
1.03873
0.631651
0.578741
0.462091
0.480417
0.678274
0.536952
0.581832
0.545688
1.09865
0.3992
0.395467
0.599671
0.657281
0.367179
0.411462
0.379731
0.377121
0.437372
0.424351
0.505384
0.40378
0.410468
0.466288
0.819482
0.397891
0.379802
0.392433
0.398191
0.357591
0.366779
0.385852
0.416127
0.477454
0.6185
0.887961
0.699369
0.927974
0.715513
0.986363
0.480828
0.405229
0.731928
0.486615
0.403349
0.940076
0.379217
0.594426
0.612937
0.376687
0.853192
0.404484
0.405917
0.89155
0.567348
0.509331
0.580247
1.44507
1.1214
0.424711
0.447796
0.69245
0.398601
0.773084
0.432212
0.520473
0.630754
0.568708
0.466425
0.418134
0.686059
0.822299
0.803695
0.400402
0.394418
0.525939
0.401755
0.484858
0.397872
0.428594
0.409323
0.473076
0.461222
0.622741
0.394852
0.424153
0.447789
0.477032
0.427498
0.403466
0.391744
0.482264
0.517578
0.605687
0.514806
0.629852
0.467728
0.387091
1.38283
0.376662
0.371522
0.381935
0.389849
0.395248
0.396262
0.427455
0.429887
0.410963
0.408612
0.449209
0.409814
0.433528
0.500373
0.516445
0.627404
0.512234
0.36816
0.3671
0.369912
0.451699
0.617932
0.516051
0.41329
0.405395
0.403403
0.39669
0.386403
0.385788
0.397832
0.367136
0.367429
0.367982
0.426104
0.389306
0.413438
0.383403
0.383839
0.45292
0.44461
0.438747
0.452917
0.495417
0.502964
0.475176
0.530597
0.527961
0.444415
0.620384
0.583225
0.399164
0.428736
0.565003
0.353542
0.367119
0.660593
0.767727
0.580769
0.391858
0.407952
0.386455
0.416362
0.500622
0.573755
0.785235
0.452781
0.664323
0.490111
0.524927
0.558579
0.724471
0.457977
0.610615
0.443916
0.447412
0.527884
0.478727
0.408702
0.416413
0.421629
0.41593
0.912314
0.628451
0.464127
0.511717
0.922303
0.398626
0.419534
0.399373
0.409701
0.433788
0.412465
0.394039
0.386574
0.398686
0.375718
0.398388
0.361836
0.379991
0.457133
0.51052
0.372052
0.460592
0.444514
0.470556
0.678442
0.390052
0.359306
0.36722
0.728799
0.462739
0.409046
0.500423
0.864206
0.968911
0.679586
0.510339
0.695958
0.508495
0.393069
0.402929
0.423639
0.411616
0.432138
0.529988
0.772172
1.13775
1.12081
0.704731
0.919597
0.844343
0.932335
0.654895
0.389611
0.408988
0.396042
0.383624
0.377067
0.398075
0.408764
0.482429
0.359746
0.41704
0.403567
0.380872
0.355634
0.385872
0.391627
0.39022
0.377992
0.395487
0.575829
0.412044
0.367587
0.530565
0.506469
0.429674
0.547609
0.468852
0.538932
0.401384
0.377411
0.396897
0.460891
0.957201
0.488506
0.408018
0.424178
0.383861
0.409464
0.443143
0.484867
0.373039
0.397431
0.383883
0.365636
0.452
0.370377
0.497161
0.603872
0.37638
0.636514
0.773653
0.437827
0.846464
1.06316
0.878969
0.739288
0.625976
0.840695
1.06911
0.449096
0.381309
0.370137
0.504107
0.366963
0.440946
0.38099
0.406332
0.470402
0.418128
0.458203
0.378679
0.405185
0.421842
0.435957
0.417483
0.384185
0.375434
0.396965
0.385336
0.368035
0.393121
0.388982
0.399296
0.387804
0.386861
0.406811
0.363862
0.385062
0.375206
0.688982
0.841483
0.56511
0.413975
0.439051
0.720572
0.546665
0.501829
0.828005
0.758878
0.585778
0.470453
0.46653
0.572051
1.02994
0.50228
0.764625
0.489767
0.485692
0.390873
0.439235
0.392592
0.41225
0.500587
0.38581
0.398499
0.401427
0.434109
0.591721
0.464859
0.865501
0.413184
0.520046
0.420771
0.408526
0.467878
0.389378
0.393067
0.399859
0.388983
0.391207
0.410756
0.423414
0.491633
0.387162
0.420056
0.762997
0.681901
0.406353
0.455165
0.603141
0.797852
0.420891
0.418847
0.456612
0.43923
0.380407
0.415289
0.556513
0.58104
1.10071
0.825758
1.01013
0.633793
1.15046
0.865589
0.495776
0.439855
0.360472
0.627084
0.451501
0.495151
0.754719
0.811465
0.860031
0.588586
0.46335
0.813237
0.951414
0.817333
0.865561
0.979514
0.910298
1.08477
0.732945
0.571151
0.788718
1.2976
1.0084
0.953276
0.387539
0.392363
0.398877
0.395514
0.402311
0.398221
0.38067
0.438866
0.472105
0.52313
0.659641
0.388876
0.366111
0.379767
0.369392
0.41149
0.40986
0.405716
0.408274
0.39815
0.352003
0.359482
0.379512
0.394004
0.368188
0.652354
0.586583
0.61143
0.620144
0.43681
0.415868
0.409952
0.392013
0.380386
0.393401
0.40059
0.624357
0.489703
0.47499
0.565395
0.597623
0.646368
0.573453
0.569052
0.47285
0.503749
0.435234
0.39179
0.390828
0.396073
0.420171
0.479236
0.538119
0.503856
0.487873
0.607785
0.567371
0.520148
0.537812
0.566902
0.625964
0.59651
0.377553
0.37835
1.17059
0.376805
0.37113
0.3792
1.40759
0.843328
0.777051
0.74892
0.383616
0.373193
0.399761
0.44463
0.405133
0.565814
0.763991
0.781086
0.529191
0.872126
0.798294
0.867811
0.391387
0.491055
0.623323
0.701067
0.560638
0.661376
0.575399
0.505672
0.850381
0.477291
0.549443
0.540401
0.493935
0.506037
0.381513
0.976565
0.950788
0.853337
0.704315
0.932206
0.777029
0.725167
0.566326
0.438153
0.420093
0.399671
0.460695
0.438069
0.405365
0.461377
0.539865
0.397604
0.400576
0.408256
0.408218
0.715995
1.12115
1.01567
0.81626
0.411474
0.424101
0.408211
0.381836
0.569073
0.618188
0.723231
0.648088
0.638587
0.706002
0.697794
0.626902
0.691692
0.576423
0.714892
0.816021
0.629928
0.602363
0.368472
0.645655
0.500248
0.940654
0.858004
0.808464
0.64002
0.99062
0.518075
0.459864
0.370227
0.377334
0.38402
0.470264
0.434634
0.449993
0.373719