/*--------------------------------*- C++ -*----------------------------------*\
| =========                 |                                                 |
| \\      /  F ield         | OpenFOAM: The Open Source CFD Toolbox           |
|  \\    /   O peration     | Version:  2506                                  |
|   \\  /    A nd           | Website:  www.openfoam.com                      |
|    \\/     M anipulation  |                                                 |
\*---------------------------------------------------------------------------*/
FoamFile
{
    version     2.0;
    format      ascii;
    arch        "LSB;label=32;scalar=64";
    class       volScalarField;
    location    "0.0207921";
    object      k;
}
// * * * * * * * * * * * * * * * * * * * * * * * * * * * * * * * * * * * * * //

dimensions      [0 2 -2 0 0 0 0];

internalField   nonuniform List<scalar> 
3989
(
0.36815
0.382036
0.359812
0.37119
0.369578
0.369773
0.365901
0.363545
0.371529
0.363437
0.380391
0.367931
0.375987
0.36614
0.369441
0.389713
0.370048
0.364034
0.371119
0.370384
0.385011
0.363945
0.360645
0.361382
0.372759
0.36152
0.385405
0.366077
0.373953
0.366571
0.374439
0.359042
0.3697
0.367365
0.379059
0.374852
0.365929
0.365262
0.36407
0.371423
0.365524
0.365614
0.368593
0.365683
0.378489
0.368972
0.371639
0.388067
0.370008
0.361733
0.362621
0.370257
0.377563
0.367561
0.363785
0.364518
0.37752
0.369363
0.38002
0.370653
0.367404
0.386357
0.571893
0.694424
0.382128
0.371376
0.357447
0.365158
0.359065
0.361515
0.392829
0.366315
0.372098
0.371544
0.365292
0.366472
0.368262
0.364446
0.37853
0.364091
0.37868
0.369822
0.361643
0.36458
0.367092
0.386102
0.366817
0.369254
0.363135
0.367332
0.365685
0.361959
0.367164
0.360752
0.367711
0.37147
0.368116
0.361095
0.368458
0.35791
0.362956
0.365999
0.365258
0.378842
0.363022
0.370125
0.371302
0.363151
0.362304
0.382779
0.360589
0.372739
0.382561
0.38468
0.376902
0.385751
0.379082
0.364165
0.365882
0.37932
0.375641
0.367086
0.368108
0.367924
0.382227
0.366194
0.37584
0.369093
0.386709
0.370313
0.375768
0.38288
0.380731
0.388441
0.37979
0.390795
0.369488
0.369664
0.369134
0.368103
0.374068
0.371188
0.360325
0.369426
0.366428
0.396523
0.367832
0.352288
0.365221
0.357396
0.363894
0.370641
0.363013
0.375176
0.401522
0.389374
0.363293
0.357072
0.365181
0.379409
0.368201
0.370953
0.366312
0.38015
0.383362
0.38554
0.366892
0.367806
0.371606
0.356091
0.367039
0.377205
0.391302
0.363104
0.369149
0.365478
0.36961
0.373248
0.375278
0.36805
0.388729
0.364691
0.377134
0.367914
0.385496
0.367024
0.368777
0.368853
0.365787
0.367487
0.36092
0.372771
0.371015
0.400246
0.363988
0.414547
0.699962
0.397567
0.368981
0.372338
0.382823
0.365842
0.39035
0.368013
0.38036
0.364465
0.367582
0.367173
0.414321
0.418666
0.366831
0.437887
0.437762
0.362642
0.358228
0.733304
0.432717
0.378261
0.389295
0.384381
0.363726
0.367684
0.370729
0.37279
0.393452
0.357736
0.362921
0.370774
0.384702
0.363646
0.373146
0.382545
0.365237
0.365694
0.365595
0.400899
0.403486
0.366025
0.373475
0.357937
0.385409
0.36499
0.365268
0.390075
0.380087
0.38003
0.378983
0.367419
0.370173
0.371025
0.381954
0.369031
0.367454
0.369066
0.376785
0.365117
0.382662
0.38168
0.369873
0.378766
0.364471
0.35716
0.364743
0.363394
0.362884
0.378965
0.372052
0.422869
0.385883
0.382546
0.372062
0.386596
0.381082
0.367955
0.375909
0.359486
0.399404
0.383321
0.3614
0.390038
0.367545
0.369152
0.37558
0.368611
0.368505
0.365613
0.371272
0.390568
0.382423
0.39304
0.381244
0.384868
0.382203
0.355768
0.364011
0.389652
0.364481
0.373349
0.488848
0.441061
0.362598
0.398122
0.38094
0.396869
0.386506
0.425625
0.358442
0.373345
0.370642
0.367607
0.363576
0.361321
0.441914
0.476792
0.368438
0.378712
0.366114
0.36687
0.363102
0.360379
0.367198
0.361522
0.35861
0.369536
0.369797
0.396767
0.374186
0.38611
0.384472
0.363438
0.364921
0.37631
0.397832
0.361868
0.368817
0.367877
0.359177
0.368163
0.381446
0.374118
0.440718
0.359759
0.360754
0.359565
0.363383
0.384264
0.570931
0.370484
0.363344
0.370529
0.371986
0.36709
0.368373
0.362474
0.361121
0.382536
0.365178
0.355837
0.831
0.362753
0.354881
0.380685
0.377568
0.608857
0.439497
0.372076
0.360986
0.365144
0.359567
0.36953
0.365677
0.3615
0.387568
0.372948
0.355645
0.370097
0.361697
0.369324
0.360691
0.364535
0.378399
0.367171
0.36678
0.381273
0.372651
0.384304
0.359787
0.401461
0.363633
0.390939
0.365779
0.375132
0.365624
0.394255
0.375438
0.367001
0.366035
0.382492
0.389657
0.364916
0.363476
0.359835
0.368488
0.379539
0.365747
0.365313
0.364665
0.483752
0.364257
0.399374
0.363142
0.425787
0.389001
0.781052
0.368383
0.46248
0.375404
0.372829
0.370512
0.366058
0.771583
0.388114
0.391642
0.6738
0.361764
0.365316
0.36882
0.499011
0.387065
0.374132
0.364699
0.359449
0.367861
0.35864
0.558999
0.368713
0.368614
0.380038
0.375721
0.367499
0.370836
0.395338
0.382856
0.383404
0.363809
0.372371
0.364911
0.367303
0.383431
0.364983
0.368522
0.358594
0.361437
0.363485
0.42913
0.363063
0.380003
0.370936
0.365601
0.368807
0.366827
0.364775
0.386533
0.370621
0.381812
0.366394
0.375202
0.38925
0.394358
0.362066
0.371601
0.383894
0.363837
0.380338
0.360593
0.365505
0.367305
0.401603
0.39251
0.377776
0.381867
0.368396
0.368279
0.362112
0.368246
0.370211
0.371969
0.385715
0.362823
0.36369
0.388844
0.360069
0.373939
0.369911
0.3716
0.364789
0.36335
0.359785
0.380471
0.367238
0.380097
0.365946
0.361549
0.356418
0.368104
0.392321
0.373475
0.363759
0.373652
0.37894
0.363189
0.402911
0.399131
0.364812
0.358443
0.388975
0.367316
0.360215
0.377776
0.360607
0.360691
0.35435
0.383937
0.372761
0.372311
0.362653
0.364535
0.372268
0.366122
0.359649
0.381405
0.364605
0.38292
0.36655
0.360713
0.362245
0.378586
0.357469
0.370861
0.364699
0.372507
0.36536
0.380507
0.969977
0.859613
0.369745
0.377343
0.368782
0.368264
0.36178
0.363667
0.366686
0.375392
0.380576
0.364202
0.369161
0.36509
0.3575
0.367066
0.367318
0.372042
0.396408
0.358143
0.38033
0.364363
0.357379
0.381287
0.382313
0.366919
0.362408
0.359828
0.365554
0.392321
0.464885
0.371745
0.364559
0.365156
0.36412
0.370295
0.398818
0.360076
0.362644
0.36908
0.406935
0.388252
0.366888
0.358263
0.364903
0.371105
0.370153
0.362185
0.366373
0.371406
0.603685
0.734511
0.392242
0.369936
0.374198
0.375315
0.384656
0.367285
0.376184
0.360411
0.369143
0.355733
0.371167
0.363031
0.36482
0.363413
0.369779
0.376767
0.38731
0.369275
0.361616
0.366048
0.363685
0.367995
0.372239
0.372369
0.378453
0.369372
0.362147
0.358321
0.366704
0.363633
0.369486
0.368827
0.368861
0.371666
0.3937
0.382511
0.37635
0.376936
0.366879
0.37002
0.366913
0.369975
0.368706
0.36565
0.370765
0.362952
0.371489
0.363053
0.370571
0.38949
0.362195
0.365412
0.366915
0.388898
0.368522
0.370726
0.364292
0.362805
0.367579
0.379488
0.364956
0.370238
0.366438
0.369937
0.371257
0.376887
0.385521
0.358621
0.378751
0.369027
0.374139
0.368642
0.375869
0.387557
0.364572
0.366076
0.368994
0.381106
0.359199
0.367201
0.376475
0.38096
0.366355
0.384773
0.379734
0.377939
0.365846
0.367909
0.367769
0.368382
0.368563
0.367689
0.381167
0.370414
0.372825
0.370014
0.366573
0.368165
0.382771
0.378545
0.363647
0.376774
0.370279
0.373257
0.361591
0.39282
0.362733
0.384593
0.361208
0.374241
0.363767
0.368774
0.377817
0.358975
0.375775
0.367625
0.387092
0.373018
0.373916
0.372949
0.39569
0.362905
0.36074
0.391496
0.368582
0.383249
0.362703
0.382873
0.374672
0.369057
0.380694
0.360006
0.382112
0.365561
0.367102
0.391578
0.362113
0.360232
0.362355
0.374509
0.367644
0.374739
0.364689
0.37452
0.365053
0.374762
0.359155
0.381962
0.387185
0.545611
0.37296
0.360939
0.525361
0.358796
0.394483
0.370383
0.359518
0.366743
0.380277
0.582399
0.756812
0.800824
0.385375
0.363122
0.362364
0.363731
0.361612
0.359635
0.366415
0.371573
0.369916
0.358986
0.361795
0.378815
0.3663
0.379672
0.378941
0.385853
0.3628
0.367043
0.3911
0.389356
0.362091
0.383753
0.371237
0.36367
0.365573
0.370669
0.358758
0.368237
0.370437
0.359971
0.360985
0.365578
0.381846
0.36432
0.359371
0.374768
0.400389
0.362612
0.363926
0.367845
0.372729
0.372721
0.372076
0.393402
0.384844
0.374808
0.382503
0.360131
0.359965
0.364452
0.361462
0.356543
0.356163
0.367887
0.36674
0.371323
0.371288
0.376759
0.410473
0.43163
0.421507
0.42512
0.375944
0.373868
0.378167
0.364349
0.36319
0.38789
0.415572
0.354357
0.371104
0.361103
0.379165
0.366538
0.383872
0.362341
0.364689
0.361581
0.364507
0.358868
0.364479
0.370398
0.360596
0.372527
0.367077
0.491233
0.422598
0.370215
0.365964
0.363259
0.390693
0.379976
0.363842
0.363543
0.367144
0.398253
0.375025
0.356206
0.361333
0.364931
0.371547
0.359051
0.393402
0.365218
0.363334
0.372075
0.363796
0.358
0.367825
0.365191
0.620749
0.465396
0.361515
0.378042
0.459326
0.371232
0.424523
0.463407
0.362969
0.374787
0.366292
0.40071
0.39524
0.365838
0.64658
0.356786
0.366214
0.498267
0.394833
0.355468
0.361049
0.371472
0.373172
0.376837
0.362297
0.361392
0.361744
0.366205
0.361323
0.374882
0.413813
0.358607
0.359151
0.470167
0.361669
0.43661
0.362855
0.360697
0.440953
0.748776
0.542427
0.689381
0.803185
0.541465
0.375648
0.389011
0.373283
0.915191
0.757947
0.367388
0.415298
0.39212
0.712821
0.418621
0.447897
0.368423
0.375451
0.382487
0.363272
0.364834
0.370292
0.37194
0.373194
0.463811
0.3753
0.378996
0.367685
0.367585
0.361799
0.376441
0.390517
0.376336
0.392018
0.631371
0.719132
0.381014
0.403516
0.376379
0.478199
0.361739
0.363829
0.399795
0.376927
0.367502
0.357755
0.376737
0.402448
0.424451
0.374063
0.357547
0.358082
0.367937
0.370758
0.36796
0.360518
0.362739
0.368048
0.368319
0.366043
0.370208
0.360339
0.39096
0.370053
0.361971
0.35456
0.364173
0.364859
0.369837
0.433632
0.386014
0.37037
0.371433
0.367771
0.369126
0.37222
0.367781
0.367693
0.355097
0.382185
0.361198
0.361066
0.37084
0.360367
0.366822
0.359157
0.365499
0.373406
0.359739
0.402668
0.358817
0.363216
0.36972
0.380786
0.365761
0.357233
0.372949
0.359872
0.39175
0.377954
0.373634
0.363794
0.363027
0.359824
0.362267
0.373878
0.366256
0.404563
0.371863
0.365417
0.361853
0.35799
0.380396
0.364493
0.364802
0.361416
0.36357
0.363551
0.364092
0.363838
0.363031
0.37096
0.368459
0.369972
0.372001
0.361258
0.368083
0.361261
0.362594
0.398737
0.374299
0.372243
0.362509
0.369912
0.373549
0.368667
0.368682
0.367971
0.368446
0.379371
0.38189
0.387641
0.388079
0.366352
0.393639
0.386712
0.364664
0.365593
0.370761
0.367253
0.361827
0.364192
0.357405
0.362153
0.402552
0.394773
0.363646
0.366468
0.369605
0.358372
0.365251
0.367881
0.365034
0.366782
0.367036
0.366879
0.37777
0.368378
0.367429
0.36939
0.368641
0.367573
0.385521
0.384575
0.473522
0.460369
0.386644
0.362571
0.363591
0.365955
0.370606
0.361625
0.370925
0.377582
0.368313
0.376548
0.36116
0.359637
0.35698
0.359619
0.36617
0.3677
0.370347
0.365933
0.366659
0.36589
0.364522
0.791126
0.367489
0.370128
0.384325
0.36538
0.364337
0.371963
0.357772
0.391811
0.365767
0.360489
0.369316
0.363437
0.36506
0.356059
0.396325
0.362159
0.364048
0.373938
0.489676
0.409323
0.366216
0.366619
0.367275
0.457667
0.493148
0.498425
0.431231
0.406097
0.43184
0.368862
0.360702
0.369664
0.371513
0.35819
0.389364
0.393719
0.360201
0.374896
0.361597
0.388385
0.371909
0.372941
0.363318
0.362489
0.367515
0.383407
0.396162
0.372857
0.366714
0.36712
0.365809
0.368429
0.363969
0.364822
0.394523
0.371365
0.364122
0.365082
0.372468
0.362895
0.368983
0.382898
0.382467
0.370179
0.428137
0.361638
0.377742
0.367785
0.363201
0.363815
0.367839
0.378934
0.371718
0.373082
0.375197
0.36131
0.368087
0.365354
0.363844
0.363226
0.363543
0.36119
0.378194
0.386359
0.368218
0.363213
0.374588
0.382012
0.373277
0.373323
0.372185
0.360739
0.363349
0.366852
0.366281
0.365801
0.370784
0.377174
0.359161
0.369444
0.360824
0.373487
0.358963
0.376589
0.375275
0.369912
0.381807
0.375558
0.36427
0.370128
0.36462
0.378016
0.380838
0.361583
0.361065
0.360937
0.363689
0.372339
0.367187
0.367895
0.365574
0.379726
0.369974
0.367106
0.369553
0.378682
0.367918
0.361965
0.362689
0.36934
0.360173
0.365882
0.37948
0.364887
0.364141
0.364123
0.362764
0.364967
0.366912
0.382398
0.376373
0.394784
0.378604
0.357535
0.359071
0.379836
0.392964
0.373132
0.369642
0.398292
0.38179
0.380756
0.371208
0.371024
0.396825
0.376223
0.371969
0.369927
0.386898
0.370992
0.399484
0.380995
0.369347
0.356294
0.384588
0.381553
0.379271
0.382956
0.373696
0.371736
0.425379
0.425927
0.369455
0.366681
0.365649
0.371484
0.370415
0.370278
0.383797
0.361613
0.392095
0.360835
0.368743
0.368842
0.377306
0.358364
0.381117
0.364888
0.368864
0.369506
0.366717
0.370076
0.382761
0.391346
0.367843
0.367548
0.374921
0.359963
0.386084
0.359289
0.365134
0.375173
0.358662
0.379607
0.360822
0.363133
0.373448
0.365735
0.362092
0.365155
0.371751
0.369831
0.364677
0.370318
0.370874
0.363036
0.363084
0.385761
0.367024
0.361572
0.360874
0.371016
0.379726
0.381233
0.381098
0.38072
0.373079
0.367358
0.408255
0.383948
0.371643
0.373928
0.363457
0.363594
0.365035
0.370548
0.379777
0.360207
0.417809
0.35787
0.373869
0.64381
0.355908
0.494665
0.736991
0.367989
0.365681
0.378217
0.360739
0.365117
0.370961
0.367275
0.371812
0.362053
0.372106
0.376151
0.371161
0.368961
0.375676
0.375816
0.369477
0.371031
0.369993
0.370146
0.366625
0.366024
0.370019
0.370687
0.376424
0.368957
0.364195
0.362682
0.371723
0.365722
0.370635
0.367265
0.372036
0.375649
0.368564
0.367388
0.369101
0.37084
0.383035
0.370155
0.386079
0.371111
0.37105
0.366097
0.370918
0.364521
0.374116
0.367966
0.370314
0.369127
0.35717
0.367705
0.369536
0.369985
0.370621
0.366848
0.366983
0.363888
0.368925
0.364459
0.363457
0.364731
0.368354
0.366814
0.369521
0.36618
0.36577
0.382199
0.394123
0.409569
0.362923
0.374523
0.373883
0.366974
0.358131
0.367659
0.36121
0.363704
0.378013
0.361338
0.364678
0.363691
0.367711
0.370824
0.811435
0.754093
0.802255
0.736268
0.827731
0.54197
0.362696
0.3712
0.359235
0.399591
0.370285
0.370772
0.367689
0.370753
0.370071
0.393203
0.374516
0.469647
0.404223
0.40429
0.359657
0.371222
0.555099
0.363791
0.362643
0.379378
0.363141
0.364771
0.3699
0.381195
0.362373
0.376579
0.366289
0.364242
0.363909
0.366008
0.359841
0.358366
0.371887
0.395006
0.366968
0.515297
0.3572
0.41282
0.376843
0.370249
0.383278
0.356995
0.381385
0.393333
0.35975
0.360539
0.462705
0.366997
0.613706
0.377438
0.360888
0.371008
0.362478
0.39624
0.385341
0.366791
0.365179
0.363208
0.365321
0.389258
0.362478
0.366005
0.365724
0.390007
0.365822
0.364653
0.385891
0.381649
0.3742
0.362619
0.365459
0.540033
0.369477
0.702573
0.701095
0.365537
0.365452
0.388396
0.370361
0.368495
0.358949
0.366408
0.358794
0.369627
0.393907
0.367535
0.362099
0.361555
0.378759
0.363538
0.370218
0.38002
0.38261
0.358856
0.365498
0.367416
0.37292
0.379482
0.358567
0.379265
0.366814
0.387534
0.362789
0.363303
0.360237
0.386022
0.368626
0.370285
0.501838
0.39149
0.367122
0.389039
0.375264
0.366724
0.357927
0.362919
0.369689
0.38795
0.362881
0.359275
0.382363
0.37922
0.368008
0.361675
0.363616
0.418057
0.3563
0.676486
0.826522
0.394715
0.366651
0.884076
0.481404
0.35973
0.361193
0.36436
0.377352
0.365395
0.487351
0.381405
0.383181
0.36587
0.378223
0.363022
0.376919
0.364826
0.367761
0.376387
0.391457
0.3671
0.392686
0.377453
0.363829
0.370027
0.376381
0.385627
0.442929
0.376842
0.480624
0.381656
0.520273
0.57896
0.393125
0.399477
0.376082
0.356828
0.389671
0.370208
0.375883
0.390779
0.405062
0.364746
0.367864
0.357643
0.444914
0.368088
0.390867
0.383299
0.370718
0.366745
0.385457
0.605216
0.372478
0.378167
0.384055
0.38363
0.37237
0.367094
0.369039
0.368266
0.374156
0.396695
0.387905
0.780785
0.376414
0.37246
0.358806
0.366342
0.380159
0.363258
0.370106
0.369076
0.356784
0.357077
0.365221
0.35355
0.361187
0.368512
0.373723
0.381235
0.356495
0.357956
0.375158
0.370189
0.361315
0.358639
0.35513
0.364858
0.365422
0.367471
0.360145
0.355693
0.36545
0.362826
0.365862
0.377191
0.367681
0.366762
0.388053
0.394344
0.36554
0.373314
0.368809
0.362321
0.362144
0.359918
0.3748
0.363527
0.365287
0.392665
0.366922
0.409832
0.418202
0.369687
0.365384
0.364256
0.363002
0.467413
0.450515
0.437016
0.450297
0.373442
0.366298
0.365984
0.36711
0.388309
0.380278
0.361565
0.383927
0.366785
0.396702
0.375065
0.403602
0.387095
0.364002
0.365627
0.367088
0.381732
0.387453
0.382632
0.383633
0.37689
0.390917
0.400077
0.374084
0.370607
0.370138
0.369918
0.364959
0.367721
0.3665
0.369514
0.367416
0.36985
0.370336
0.369387
0.367964
0.371626
0.397781
0.387291
0.372838
0.376529
0.400347
0.365213
0.36643
0.368775
0.367254
0.371232
0.386423
0.377985
0.370247
0.358555
0.366905
0.370194
0.369855
0.370717
0.374535
0.368466
0.367395
0.376731
0.369453
0.369286
0.385457
0.367705
0.37194
0.3646
0.366661
0.362846
0.366799
0.365523
0.36747
0.389862
0.374444
0.367837
0.37951
0.44985
0.383526
0.366477
0.364182
0.367439
0.371256
0.377045
0.372573
0.362573
0.393739
0.386816
0.39911
0.391602
0.367469
0.360794
0.364102
0.362183
0.364402
0.371815
0.363083
0.388505
0.368453
0.36643
0.365455
0.363551
0.36007
0.362319
0.361126
0.370556
0.381215
0.372477
0.386763
0.374598
0.366709
0.371106
0.385498
0.383436
0.370993
0.368917
0.36783
0.358334
0.380223
0.370203
0.367463
0.36593
0.39103
0.370403
0.367718
0.384726
0.373997
0.385611
0.36657
0.371118
0.371556
0.370219
0.385191
0.380135
0.362614
0.372029
0.360434
0.369843
0.361441
0.3581
0.378181
0.377605
0.369601
0.365739
0.3718
0.365217
0.363524
0.36377
0.360818
0.366306
0.36916
0.364356
0.435578
0.466834
0.512138
0.386397
0.367347
0.373116
0.438837
0.358354
0.373211
0.363014
0.362251
0.470376
0.397285
0.38495
0.369325
0.369698
0.368228
0.361603
0.372602
0.364669
0.362189
0.362554
0.357977
0.359177
0.383684
0.367967
0.386366
0.370424
0.375573
0.368438
0.365062
0.361769
0.37409
0.370385
0.365981
0.369745
0.365087
0.36541
0.367301
0.365771
0.366645
0.372435
0.368584
0.357182
0.363854
0.363538
0.357297
0.364238
0.372127
0.374764
0.378215
0.368531
0.386479
0.364231
0.355776
0.367086
0.367402
0.398902
0.369757
0.363437
0.361219
0.372058
0.36111
0.366904
0.392823
0.372434
0.385961
0.376514
0.381447
0.36806
0.363338
0.394552
0.362973
0.362327
0.364046
0.384688
0.389253
0.359952
0.378282
0.376117
0.399506
0.399646
0.36711
0.39717
0.391913
0.406004
0.376584
0.395061
0.776294
0.395248
0.380235
0.384494
0.365308
0.363027
0.388998
0.361309
0.372375
0.371567
0.37176
0.370145
0.389003
0.372091
0.368539
0.370412
0.392513
0.399261
0.393029
0.374424
0.35791
0.386224
0.374369
0.373347
0.390443
0.395081
0.400575
0.364126
0.360144
0.387728
0.364194
0.358961
0.369827
0.361635
0.362998
0.372064
0.364205
0.374843
0.387307
0.358119
0.372519
0.367688
0.363638
0.376373
0.376025
0.372228
0.365146
0.36104
0.37314
0.366778
0.387181
0.363681
0.363578
0.393553
0.363159
0.369001
0.364356
0.358596
0.378982
0.361995
0.393692
0.481742
0.36013
0.373694
0.392491
0.849096
0.379216
0.381589
0.384862
0.398556
0.365466
0.389837
0.374309
0.362177
0.368377
0.359411
0.355714
0.36838
0.360815
0.382997
0.381873
0.368814
0.378265
0.359058
0.372327
0.387786
0.355001
0.383185
0.368112
0.367065
0.363877
0.369795
0.369458
0.411281
0.396807
0.368545
0.35536
0.37075
0.374301
0.373389
0.39576
0.365084
0.364676
0.368861
0.368671
0.370123
0.387612
0.375747
0.375636
0.366332
0.372892
0.417378
0.373182
0.449186
0.365792
0.365932
0.397772
0.371705
0.377509
0.363666
0.410738
0.527995
0.434624
0.786896
0.384422
0.371988
0.37725
0.391175
0.37285
0.374359
0.367552
0.367097
0.368803
0.384955
0.362391
0.382774
0.363789
0.367488
0.383493
0.372329
0.38448
0.356937
0.359657
0.359983
0.372432
0.367634
0.363895
0.375885
0.387574
0.363554
0.379972
0.372319
0.358354
0.358295
0.350418
0.369584
0.370173
0.369521
0.370164
0.393314
0.371194
0.363217
0.386806
0.366207
0.364381
0.457164
0.355642
0.377039
0.365929
0.365849
0.363203
0.376371
0.379934
0.375481
0.357954
0.358388
0.37416
0.373805
0.365984
0.356572
0.382767
0.358882
0.365946
0.366026
0.370049
0.367369
0.365551
0.364536
0.361805
0.372616
0.363496
0.372063
0.369243
0.389787
0.371458
0.421304
0.401491
0.364344
0.363012
0.362392
0.356744
0.368047
0.362485
0.362106
0.359071
0.362236
0.364481
0.568851
0.367547
0.672554
0.389073
0.413216
0.407519
0.363132
0.363796
0.375348
0.368102
0.445414
0.49977
0.429808
0.367995
0.36206
0.361468
0.369492
0.368791
0.36408
0.396097
0.401228
0.361714
0.359446
0.365623
0.368565
0.385303
0.440744
0.387802
0.377355
0.3726
0.369557
0.366322
0.354892
0.356516
0.355649
0.358498
0.367834
0.363406
0.369234
0.364069
0.419424
0.381579
0.367525
0.359207
0.388231
0.361582
0.391961
0.390098
0.367602
0.366355
0.480035
0.503577
0.373681
0.378954
0.376954
0.363852
0.378014
0.371757
0.384147
0.368246
0.373235
0.383344
0.368136
0.363373
0.38971
0.366678
0.358553
0.366213
0.373514
0.385284
0.365911
0.363576
0.417234
0.367594
0.406743
0.365588
0.363782
0.381678
0.383508
0.361567
0.412011
0.378588
0.362577
0.37102
0.430782
0.857704
0.714231
0.367357
0.366533
0.364206
0.363773
0.3733
0.366935
0.368149
0.360431
0.363964
0.359289
0.371107
0.429512
0.385207
0.384426
0.373686
0.371174
0.364605
0.362934
0.603632
0.865124
0.370887
0.459087
0.363887
0.364744
0.821441
0.438726
0.697278
0.371184
0.400532
0.379101
0.379889
0.498116
0.432005
0.375393
0.361092
0.359391
0.366956
0.36731
0.360033
0.365492
0.361836
0.359045
0.357576
0.384436
0.373793
0.375717
0.375527
0.363069
0.363975
0.364673
0.361061
0.361264
0.362964
0.369067
0.373473
0.361775
0.363101
0.357323
0.366458
0.357744
0.363479
0.367937
0.358914
0.371665
0.366709
0.364795
0.365395
0.369929
0.361951
0.374218
0.369905
0.382299
0.375529
0.364007
0.365589
0.368524
0.362645
0.368573
0.374975
0.379362
0.36561
0.366115
0.377146
0.362597
0.367775
0.37648
0.364413
0.365531
0.370945
0.372833
0.366453
0.366316
0.37239
0.369391
0.37033
0.383767
0.387781
0.385956
0.364381
0.389171
0.382023
0.386748
0.363636
0.370399
0.389742
0.364555
0.368561
0.373045
0.367275
0.361619
0.362037
0.367543
0.361618
0.361032
0.396644
0.383008
0.366458
0.362755
0.40822
0.370266
0.393904
0.88808
0.808676
0.392715
0.356204
0.665062
0.431152
0.358145
0.367443
0.366759
0.352719
0.364098
0.358898
0.354745
0.376026
0.364475
0.375106
0.367416
0.36165
0.367995
0.363421
0.372271
0.363435
0.375568
0.367178
0.368433
0.417785
0.369081
0.367998
0.364868
0.366795
0.372621
0.378371
0.366507
0.364762
0.367925
0.36793
0.383229
0.366317
0.377505
0.360865
0.367956
0.366287
0.36751
0.374574
0.365792
0.397585
0.373584
0.375866
0.363395
0.404645
0.38946
0.368184
0.371188
0.369763
0.371696
0.386972
0.36841
0.367755
0.367071
0.374646
0.365617
0.359273
0.356188
0.364418
0.372623
0.354354
0.37236
0.37032
0.367725
0.370074
0.371789
0.372488
0.377333
0.377604
0.381972
0.387515
0.372364
0.398914
0.374853
0.367888
0.363056
0.37131
0.376631
0.373058
0.373765
0.371512
0.36869
0.370184
0.368927
0.36971
0.371499
0.371942
0.370617
0.370714
0.379276
0.384833
0.389418
0.357585
0.362257
0.361491
0.364051
0.365429
0.369016
0.375967
0.365508
0.374082
0.367263
0.370795
0.370984
0.383385
0.370326
0.392013
0.370575
0.363392
0.367805
0.367038
0.365237
0.36907
0.379441
0.369996
0.374
0.392593
0.362873
0.363751
0.365468
0.368821
0.371886
0.369369
0.383935
0.367674
0.369522
0.364888
0.367886
0.353622
0.365774
0.365994
0.375876
0.354224
0.386166
0.361813
0.363165
0.358442
0.36385
0.359831
0.3626
0.359578
0.361207
0.36189
0.364123
0.36431
0.369942
0.372384
0.354846
0.364488
0.361013
0.37393
0.401207
0.3577
0.357962
0.360037
0.376109
0.383884
0.36794
0.365247
0.360254
0.363
0.374983
0.367724
0.370792
0.370587
0.381952
0.383494
0.362236
0.362454
0.363011
0.377135
0.365777
0.376139
0.385684
0.373851
0.366043
0.386669
0.368158
0.383547
0.36714
0.367816
0.367682
0.361818
0.360974
0.377967
0.371151
0.357222
0.373145
0.361694
0.373078
0.373019
0.36043
0.351647
0.366058
0.364857
0.374334
0.363245
0.364307
0.789949
0.370122
0.360502
0.373662
0.366287
0.364073
0.36523
0.365074
0.882277
0.445252
0.366591
0.357037
0.371689
0.356868
0.36536
0.372209
0.361851
0.365708
0.359266
0.373793
0.362949
0.367769
0.379192
0.363573
0.39185
0.364851
0.368013
0.372324
0.372787
0.365091
0.370031
0.37041
0.364974
0.359239
0.369742
0.3556
0.366203
0.360157
0.367241
0.358613
0.355334
0.35824
0.549296
0.371212
0.566457
0.370149
0.35999
0.612989
0.387188
0.356443
0.363667
0.358929
0.372972
0.381319
0.381023
0.364678
0.390769
0.377431
0.366765
0.360663
0.365225
0.3599
0.359415
0.369194
0.372666
0.375085
0.363468
0.373362
0.359045
0.363767
0.36151
0.363747
0.364991
0.378303
0.37169
0.370055
0.372858
0.370119
0.368266
0.375128
0.366139
0.366212
0.364396
0.361571
0.362764
0.3623
0.361207
0.3768
0.361155
0.36816
0.372816
0.371547
0.36468
0.369465
0.373475
0.373392
0.361303
0.368308
0.369111
0.370789
0.368747
0.364076
0.364412
0.361843
0.368544
0.371407
0.361318
0.364313
0.386209
0.378004
0.362558
0.37065
0.3672
0.366573
0.421573
0.383647
0.371011
0.39637
0.404734
0.405474
0.373377
0.364892
0.374862
0.370028
0.400905
0.377105
0.362078
0.455504
0.374848
0.367284
0.359324
0.362102
0.360262
0.370037
0.362756
0.366692
0.370123
0.367083
0.366112
0.369316
0.373749
0.360987
0.368291
0.370183
0.363153
0.370765
0.372898
0.373791
0.362025
0.369427
0.359798
0.361768
0.36787
0.364975
0.37905
0.381262
0.372882
0.409645
0.459249
0.410355
0.412844
0.364425
0.359644
0.381435
0.37368
0.371678
0.375514
0.363132
0.360656
0.380785
0.373303
0.378999
0.379089
0.378432
0.380011
0.357848
0.365269
0.390169
0.460572
0.379221
0.702915
0.383378
0.361005
0.360618
0.391971
0.359833
0.36347
0.364157
0.368403
0.921617
0.360005
0.359516
0.46024
0.61165
0.36559
0.369826
0.369144
0.380445
0.581306
0.523031
0.358166
0.374168
0.364708
0.380156
0.387759
0.376242
0.402163
0.368896
0.3753
0.363749
0.450515
0.398629
0.462918
0.380417
0.367124
0.425088
0.393421
0.62294
0.444965
0.356739
0.857367
0.821185
0.379498
0.368501
0.38136
0.366073
0.387219
0.362291
0.373885
0.434611
0.359929
0.370906
0.367871
0.50072
0.37135
0.464991
0.367734
0.408084
0.370374
0.360554
0.3676
0.376623
0.356537
0.370932
0.368605
0.493106
0.385152
0.382004
0.41023
0.415673
0.364029
0.369725
0.366424
0.375568
0.372164
0.378017
0.361486
0.376638
0.441513
0.77227
0.390927
0.365271
0.361416
0.360588
0.357911
0.384488
0.386566
0.366435
0.367408
0.376496
0.381017
0.368291
0.360271
0.367944
0.359597
0.369363
0.37233
0.360747
0.368714
0.367894
0.358457
0.376835
0.366525
0.36492
0.36286
0.364783
0.359531
0.368718
0.372381
0.357729
0.477704
0.367048
0.359768
0.361081
0.358123
0.378116
0.357699
0.36132
0.36161
0.37078
0.372724
0.379542
0.366155
0.358803
0.365387
0.3637
0.363652
0.359593
0.363314
0.358777
0.366384
0.366147
0.364001
0.367983
0.392223
0.399721
0.38637
0.390549
0.383724
0.374766
0.368386
0.394633
0.363561
0.385039
0.383768
0.364554
0.367632
0.359797
0.359257
0.367294
0.37837
0.372065
0.375085
0.360635
0.360596
0.369487
0.387768
0.363122
0.371176
0.366192
0.372141
0.356778
0.37643
0.364171
0.369653
0.363936
0.366909
0.361681
0.363391
0.376878
0.369082
0.396315
0.367729
0.364096
0.470509
0.376499
0.363476
0.406949
0.36296
0.392942
0.3985
0.364437
0.366469
0.36534
0.364561
0.364415
0.371608
0.370057
0.362976
0.359183
0.36736
0.363304
0.366614
0.366547
0.363068
0.366503
0.437705
0.378495
0.755415
0.369488
0.364911
0.367121
0.366255
0.367134
0.358208
0.377592
0.375043
0.365014
0.36632
0.355868
0.359831
0.361561
0.368632
0.363522
0.370042
0.381477
0.360998
0.394924
0.361304
0.363226
0.373014
0.363062
0.373766
0.363504
0.359996
0.361362
0.357685
0.362396
0.36306
0.367724
0.365879
0.357832
0.364058
0.362034
0.389071
0.361121
0.717601
0.453179
0.400849
0.799302
0.371561
0.367418
0.360661
0.364642
0.45524
0.509731
0.426573
0.363325
0.358112
0.377587
0.369897
0.362495
0.365966
0.371565
0.483096
0.491226
0.452039
0.373057
0.372226
0.380592
0.367325
0.361088
0.37119
0.385789
0.366508
0.366127
0.365561
0.365879
0.366368
0.364611
0.364321
0.369167
0.367911
0.366407
0.371856
0.381772
0.369273
0.374871
0.433319
0.354217
0.364585
0.361057
0.370208
0.370578
0.380086
0.374867
0.368272
0.366158
0.369841
0.361856
0.365893
0.369811
0.364953
0.36414
0.363284
0.387608
0.366702
0.369967
0.365659
0.375077
0.368443
0.367739
0.379526
0.385565
0.369772
0.375134
0.370348
0.389913
0.388964
0.370601
0.381798
0.388443
0.38236
0.37958
0.369218
0.36338
0.37625
0.378865
0.384216
0.37731
0.402055
0.368889
0.384819
0.368035
0.397324
0.393026
0.374405
0.38129
0.372979
0.365211
0.372441
0.382052
0.371078
0.393202
0.36592
0.377027
0.385053
0.39083
0.386062
0.388515
0.380081
0.382737
0.360522
0.376117
0.37185
0.36042
0.358652
0.365871
0.362156
0.362784
0.363289
0.353199
0.356533
0.365569
0.369036
0.369747
0.366688
0.384689
0.362543
0.370251
0.369304
0.371139
0.369618
0.419662
0.40365
0.379747
0.367633
0.414288
0.41386
0.367332
0.369644
0.362933
0.370335
0.36925
0.372369
0.378737
0.373873
0.390606
0.379469
0.370258
0.371568
0.385594
0.373893
0.368169
0.396305
0.37408
0.370135
0.361774
0.36679
0.364891
0.384687
0.374942
0.371698
0.367782
0.39551
0.364966
0.364944
0.368259
0.383395
0.369699
0.364914
0.365174
0.364669
0.365874
0.375331
0.363647
0.370217
0.362614
0.379538
0.37312
0.370978
0.375034
0.372834
0.365989
0.369364
0.368987
0.373835
0.364992
0.370554
0.367659
0.365292
0.368816
0.379711
0.38893
0.385835
0.428486
0.379826
0.387303
0.385979
0.379558
0.379587
0.402742
0.386164
0.367162
0.36814
0.364317
0.379173
0.37977
0.38203
0.362819
0.389494
0.361055
0.363322
0.360189
0.362193
0.365243
0.374373
0.394421
0.377335
0.381435
0.374659
0.373208
0.362543
0.381221
0.363779
0.398843
0.362494
0.361377
0.375077
0.372643
0.376577
0.373777
0.376501
0.37191
0.367976
0.370101
0.369774
0.369472
0.370862
0.370527
0.380344
0.384462
0.366562
0.373058
0.365226
0.364198
0.362977
0.363851
0.363869
0.811191
0.550167
0.364343
0.361786
0.359587
0.368948
0.369452
0.368258
0.369641
0.367444
0.369982
0.366692
0.372079
0.361709
0.361852
0.360689
0.360129
0.360031
0.786844
0.405144
0.364943
0.369812
0.376068
0.357433
0.364905
0.371154
0.362382
0.361445
0.371904
0.373777
0.367282
0.373376
0.369153
0.379497
0.367524
0.371191
0.373586
0.367614
0.3617
0.385758
0.383895
0.385988
0.370242
0.369378
0.377887
0.364209
0.371167
0.378493
0.380676
0.378016
0.38542
0.362584
0.382774
0.371206
0.385337
0.3705
0.370218
0.370011
0.369338
0.372041
0.36893
0.370717
0.36472
0.366491
0.365288
0.379708
0.370445
0.360613
0.358584
0.357806