/*--------------------------------*- C++ -*----------------------------------*\
| =========                 |                                                 |
| \\      /  F ield         | OpenFOAM: The Open Source CFD Toolbox           |
|  \\    /   O peration     | Version:  2506                                  |
|   \\  /    A nd           | Website:  www.openfoam.com                      |
|    \\/     M anipulation  |                                                 |
\*---------------------------------------------------------------------------*/
FoamFile
{
    version     2.0;
    format      ascii;
    arch        "LSB;label=32;scalar=64";
    class       volScalarField;
    location    "0.0207921";
    object      nut;
}
// * * * * * * * * * * * * * * * * * * * * * * * * * * * * * * * * * * * * * //

dimensions      [0 2 -1 0 0 0 0];

internalField   nonuniform List<scalar> 
3989
(
0.00743318
0.00738341
0.00751442
0.0073929
0.00753526
0.0073802
0.00742828
0.00750777
0.00539354
0.0056337
0.00261655
0.00456759
0.00304732
0.00737785
0.00563278
0.0051895
0.00745174
0.00588257
0.00721386
0.00748972
0.00472178
0.00577454
0.00704622
0.00725514
0.00747446
0.00586786
0.00461086
0.00746789
0.00610763
0.00742777
0.00509625
0.00504729
0.00682652
0.00742391
0.00246458
0.00508717
0.00736327
0.00734242
0.00484179
0.00678063
0.00653014
0.00747236
0.0047483
0.0058328
0.00418443
0.00745793
0.00743022
0.00398401
0.00749287
0.00382433
0.00744095
0.00721561
0.00582223
0.00742157
0.00749571
0.00734459
0.00745436
0.00510135
0.00279802
0.00458609
0.00488415
0.00213551
0.000669988
0.000709871
0.00667714
0.00737569
0.00560936
0.00754792
0.00612986
0.00486728
0.00300688
0.00701681
0.00749601
0.00744827
0.00690339
0.00729179
0.00738683
0.00582102
0.00722027
0.00723392
0.00711292
0.00387117
0.00539181
0.00745644
0.00751958
0.00192717
0.00749861
0.00504015
0.00750501
0.0056061
0.00745405
0.0048183
0.00439347
0.00697086
0.00713613
0.00738662
0.00720579
0.00595836
0.00737038
0.00465052
0.00541984
0.00425866
0.00479527
0.0028508
0.0053386
0.00749072
0.00632799
0.00526809
0.00562718
0.00298362
0.00618306
0.00736969
0.00382185
0.00489666
0.00716721
0.00361465
0.00395101
0.00525625
0.00473669
0.00373957
0.0066687
0.00741684
0.00723196
0.00749999
0.00736968
0.00751662
0.00733254
0.00755072
0.00443064
0.00535192
0.00392708
0.00286587
0.0039225
0.00338465
0.00334676
0.00349437
0.00722263
0.00595137
0.00563377
0.00539
0.00473388
0.0059207
0.00449187
0.00748711
0.00747926
0.00264502
0.00732594
0.00386705
0.00540861
0.00609956
0.00746201
0.00500464
0.00497647
0.00498595
0.00231488
0.00227952
0.00754731
0.00681147
0.00562209
0.00295513
0.00742296
0.00741853
0.00539115
0.00390105
0.00391748
0.0060938
0.00735426
0.00436833
0.00746053
0.00445609
0.00672749
0.00754249
0.00378161
0.00682545
0.00473037
0.00709464
0.00745812
0.00748266
0.00267229
0.00660173
0.00444225
0.00745634
0.00505673
0.00745727
0.00379532
0.00479576
0.00722072
0.00460685
0.00553642
0.00740631
0.00731934
0.00519536
0.00418144
0.00197647
0.00756446
0.00201152
0.000694593
0.00474378
0.00681011
0.0074507
0.0042033
0.00479155
0.00259322
0.0043294
0.00255983
0.00576611
0.00728729
0.00560871
0.00184117
0.00224281
0.00624291
0.00127962
0.00185381
0.00652167
0.00636187
0.00137246
0.00160006
0.00391956
0.00436128
0.00746232
0.00743399
0.00727187
0.00746399
0.0073249
0.00396869
0.00549479
0.00677134
0.00737402
0.00447446
0.00752058
0.00411263
0.00313892
0.00503272
0.00653432
0.007465
0.00196379
0.00373924
0.00510088
0.00722551
0.00679788
0.00674547
0.00742952
0.00566731
0.0028883
0.00285109
0.00753783
0.00288381
0.00343043
0.00573351
0.00538339
0.00289503
0.00751233
0.00457985
0.00613834
0.00437351
0.00730999
0.00396057
0.00461999
0.00742765
0.00751667
0.00691831
0.007392
0.00499602
0.00738711
0.00435894
0.00327854
0.00745481
0.00160127
0.00410359
0.00373612
0.00365607
0.00358726
0.00356169
0.00693138
0.00355432
0.00434698
0.00350826
0.00374285
0.00714816
0.00180926
0.00568718
0.00638983
0.00250807
0.0064026
0.00721622
0.00707887
0.00624751
0.002796
0.00221285
0.00206355
0.00351219
0.00352881
0.00344732
0.00651036
0.0047182
0.00724265
0.00746961
0.0047423
0.000902126
0.00150038
0.00699095
0.00248865
0.00243439
0.00318031
0.00245206
0.00191147
0.00709575
0.00445147
0.00633799
0.007398
0.00747645
0.00750255
0.00157415
0.00103193
0.00576858
0.00350061
0.00752073
0.00554377
0.00731827
0.00721708
0.00357387
0.00645539
0.0058576
0.00734805
0.00495152
0.00308919
0.00439153
0.00478035
0.00290094
0.00713962
0.00745031
0.00748029
0.00438143
0.00723501
0.00751752
0.00666497
0.00627375
0.00674763
0.00378462
0.00535802
0.00199527
0.00424224
0.00473896
0.00460454
0.00751173
0.00386779
0.000709278
0.00742031
0.00734002
0.00686022
0.00345326
0.00711128
0.00712116
0.00684874
0.00732281
0.00446186
0.00334316
0.00424379
0.000308716
0.00575322
0.00575443
0.00338952
0.00737615
0.000398129
0.00156469
0.00443301
0.0050279
0.00373443
0.00729781
0.00537373
0.00407397
0.00688364
0.00295094
0.00692921
0.00613727
0.00749816
0.00673577
0.00741239
0.00456242
0.00636792
0.00334067
0.00563176
0.0060298
0.0040799
0.00271933
0.00280333
0.00445659
0.00231698
0.00509063
0.00368339
0.00732003
0.00254301
0.00747587
0.00369598
0.00360949
0.00749824
0.00745813
0.00296705
0.00397167
0.00652855
0.0066695
0.00534546
0.00528273
0.00336866
0.00597471
0.00709946
0.00743782
0.00152377
0.00474605
0.00300539
0.00739515
0.00206304
0.0068867
0.000575272
0.00418261
0.00110222
0.00743066
0.00745773
0.00725617
0.00379828
0.000791093
0.0042471
0.00426635
0.000294553
0.00743154
0.00735032
0.00744279
0.000954082
0.00279518
0.00659736
0.00661695
0.0038751
0.00733398
0.00738219
0.000928081
0.00733869
0.00741663
0.00411649
0.00707836
0.00750388
0.00735766
0.00362654
0.00500512
0.00361918
0.00733716
0.00741686
0.00579048
0.00623814
0.0022309
0.00743739
0.00564253
0.00470596
0.0045148
0.007389
0.00229496
0.00705967
0.00307956
0.00386486
0.00753748
0.00745505
0.00660589
0.00599037
0.00251103
0.00366082
0.00249572
0.004935
0.00421525
0.00420364
0.00213276
0.00624861
0.00309732
0.00210428
0.00554146
0.00255976
0.00642311
0.00449604
0.00404559
0.00321621
0.00317953
0.0034319
0.00237806
0.00466923
0.00590202
0.00414859
0.00753187
0.00747607
0.00363221
0.00238996
0.0041394
0.00743939
0.00337622
0.00754382
0.00537175
0.00746114
0.00736141
0.00618766
0.00688529
0.00698467
0.00744168
0.00543552
0.00754641
0.00578673
0.0065587
0.00663641
0.00551488
0.00366108
0.00357435
0.00563993
0.00488081
0.00514528
0.00741692
0.00354754
0.00370397
0.00669438
0.00393164
0.00379271
0.00450913
0.00722305
0.00422824
0.00717631
0.00695174
0.00526309
0.00422405
0.00646886
0.00293909
0.00734232
0.00750725
0.00465301
0.00684742
0.00751703
0.0047874
0.00715942
0.00351099
0.00740655
0.00658964
0.00374349
0.00485093
0.00510602
0.00343269
0.0059142
0.00751625
0.00571675
0.00469403
0.000267313
0.000621543
0.00733205
0.00704755
0.00741191
0.00509498
0.00753111
0.00746684
0.00661638
0.0033826
0.00272888
0.00413534
0.00604549
0.00481364
0.00459163
0.00747307
0.0072572
0.00339668
0.00279253
0.00644726
0.00566587
0.00715564
0.00751863
0.00498687
0.00669283
0.00541951
0.00732737
0.00719563
0.00749528
0.00493236
0.00101974
0.00745669
0.00521036
0.00740273
0.00706289
0.00754381
0.00358373
0.00690195
0.00587556
0.00715509
0.00245409
0.00574711
0.00740719
0.00556553
0.00664169
0.00739077
0.00745003
0.00684154
0.0074683
0.00737146
0.000422998
0.000604466
0.00327653
0.00749413
0.005088
0.00463752
0.00433521
0.00735683
0.00742362
0.00650212
0.00575521
0.00742682
0.0075362
0.00731238
0.0074437
0.0057597
0.00749304
0.00463509
0.00377464
0.00749667
0.00749279
0.00623386
0.00713322
0.00453983
0.00433388
0.0071514
0.00327642
0.00442994
0.00737288
0.00611846
0.00521926
0.00751653
0.00374985
0.00734889
0.00738647
0.00739072
0.00418981
0.00741676
0.00727425
0.00730715
0.00719756
0.00748419
0.00738766
0.0074953
0.00543526
0.00740509
0.0074224
0.00518157
0.00748473
0.00681401
0.00733967
0.00735976
0.00659848
0.00737609
0.00750883
0.00339441
0.00739226
0.00522086
0.00692322
0.00573664
0.00729587
0.00392593
0.0073948
0.00745683
0.00758041
0.00451246
0.0053395
0.00483616
0.00371339
0.00667325
0.00732384
0.00683465
0.00585665
0.0048832
0.0066093
0.00276114
0.00731023
0.0075441
0.0071835
0.00280292
0.00570556
0.00728889
0.0059953
0.00333554
0.00459797
0.00266641
0.00650844
0.00511334
0.00748582
0.0074843
0.00746604
0.00745582
0.0074498
0.00730395
0.00448052
0.00700769
0.00624323
0.00709197
0.00744683
0.0074588
0.004174
0.00588184
0.0073229
0.0048169
0.00733063
0.00555063
0.00697911
0.0024303
0.00746454
0.00247956
0.00748876
0.00564511
0.004223
0.00666462
0.00325658
0.00727762
0.00396272
0.00749811
0.00329642
0.00744558
0.00744949
0.00734917
0.00279808
0.00726364
0.00660781
0.00278178
0.00749661
0.00327992
0.00676378
0.00432502
0.00449699
0.00533086
0.0045331
0.00734506
0.00732599
0.00754339
0.00732692
0.00331549
0.00747406
0.00749588
0.00742112
0.00747787
0.00746812
0.00566269
0.00448229
0.00747627
0.00723339
0.00743499
0.00750704
0.003957
0.00610953
0.000746389
0.0074614
0.00533156
0.000823082
0.00570795
0.00479257
0.00383113
0.00478355
0.00624186
0.0059386
0.00063833
0.00040328
0.000328401
0.00593472
0.00747284
0.00738486
0.0075404
0.00752007
0.00726729
0.00748302
0.00740646
0.00748965
0.00690243
0.0050091
0.00337444
0.00738985
0.0071795
0.00476449
0.00663721
0.00359237
0.00698619
0.00252723
0.00746901
0.00699272
0.00391938
0.00742405
0.00744059
0.00539203
0.00740347
0.0066669
0.00442113
0.00755912
0.00688886
0.00556513
0.00640999
0.00559742
0.00708452
0.00718853
0.00554631
0.00595228
0.00754797
0.00755065
0.00582724
0.00744015
0.00337516
0.00754298
0.00465859
0.00460778
0.00467461
0.00476109
0.00744664
0.0075518
0.00752643
0.00748238
0.00613825
0.00607931
0.00685035
0.00690615
0.0075281
0.00736229
0.00459003
0.00178031
0.0014624
0.00215747
0.00158491
0.00743121
0.00548668
0.00473077
0.00535224
0.00730039
0.003027
0.00248002
0.00417614
0.00752685
0.00693682
0.00465662
0.00707781
0.00324122
0.00742814
0.00705821
0.00587731
0.00744941
0.00663
0.007017
0.00748092
0.00618468
0.00754638
0.00740432
0.0011248
0.00191516
0.00758756
0.00740792
0.00627125
0.00352411
0.0058298
0.00723044
0.00729499
0.00735425
0.0022576
0.00467555
0.00440948
0.00664368
0.00752041
0.00632211
0.00715145
0.00433184
0.00601123
0.00705335
0.00748457
0.00751252
0.0045573
0.0070452
0.00745794
0.000337656
0.000891882
0.00749236
0.00733598
0.00121465
0.00401896
0.00269655
0.000835372
0.0074721
0.00359056
0.00691857
0.00269495
0.00569301
0.00740804
0.000907477
0.00748057
0.00734022
0.00128952
0.00254786
0.00747922
0.00554634
0.00520423
0.00547032
0.00466385
0.00703931
0.00674723
0.00689424
0.00410191
0.00424413
0.00740305
0.00289468
0.004667
0.00695525
0.00161926
0.00745289
0.00144423
0.00707155
0.00701345
0.00147931
0.000728117
0.001106
0.00163901
0.000419197
0.00105188
0.00549979
0.00522029
0.00632354
0.000630752
0.000567627
0.00747816
0.00209237
0.00381604
0.000330411
0.00206236
0.00173872
0.00752734
0.00540776
0.00619018
0.00504106
0.00746744
0.0064078
0.00627394
0.0074273
0.000896245
0.00706998
0.00414705
0.00746255
0.00740265
0.00541473
0.00426889
0.00366501
0.00725629
0.00351661
0.000313491
0.000870911
0.00305335
0.00282738
0.00574046
0.00119364
0.00693688
0.00696442
0.00483632
0.00736085
0.00356026
0.00658386
0.00642508
0.0039546
0.00209516
0.00545349
0.00437697
0.00453996
0.00485012
0.00641932
0.00742218
0.00677529
0.00450028
0.00746486
0.00750041
0.00746708
0.00734793
0.00552167
0.00352523
0.00749168
0.00683502
0.0060185
0.00733761
0.00745775
0.00749523
0.00192876
0.00729891
0.00745976
0.00740676
0.00687404
0.00701604
0.00734868
0.00737336
0.00699055
0.00581089
0.00381081
0.0053383
0.00703156
0.00740843
0.00724108
0.00745073
0.0059582
0.00741875
0.00742991
0.00730653
0.00387889
0.00716459
0.00712651
0.00748547
0.00651228
0.00747002
0.00744162
0.00751943
0.00673939
0.00398902
0.00658324
0.00673101
0.00535273
0.00754851
0.00690573
0.0073328
0.00743562
0.00717692
0.00394288
0.00608319
0.00495133
0.00501428
0.0065211
0.00364642
0.00691062
0.00669864
0.00535374
0.00636228
0.00683588
0.00684541
0.00728999
0.00602079
0.00753098
0.00743458
0.00744197
0.00749047
0.00584581
0.00748321
0.00719514
0.00732564
0.00378384
0.00707823
0.00710896
0.00654355
0.00587449
0.00701422
0.00749371
0.00753291
0.00753258
0.00753137
0.00425794
0.00486341
0.0037571
0.0035898
0.00738366
0.00304045
0.00417923
0.00720055
0.00746508
0.00748164
0.00727555
0.00697784
0.00668349
0.00624109
0.0060298
0.00273245
0.00270589
0.00738353
0.0074019
0.00751588
0.0038617
0.0074313
0.00746465
0.0071054
0.0070868
0.00748438
0.00747991
0.00735969
0.0067951
0.00635017
0.00726821
0.00688178
0.00680765
0.00330684
0.00305801
0.00128648
0.00127907
0.0028165
0.00703205
0.00753538
0.00753237
0.00751625
0.00749057
0.0059658
0.00408529
0.00661368
0.00520495
0.00577234
0.00388429
0.00391361
0.00422555
0.00745826
0.00747108
0.00749228
0.00643437
0.00734831
0.00625205
0.00587119
0.000377013
0.00723876
0.00744561
0.0037556
0.00731142
0.00685125
0.00749277
0.00699872
0.0047634
0.00361241
0.00695416
0.00595403
0.00746456
0.00737821
0.0055697
0.00299124
0.00704649
0.00694646
0.00342882
0.00084611
0.00218444
0.00725282
0.00558529
0.00747744
0.00112544
0.000832199
0.00115491
0.00205995
0.00329182
0.00184368
0.00735439
0.0036022
0.00445373
0.00457171
0.00748927
0.0040748
0.00729156
0.00735952
0.00390214
0.00739231
0.00361991
0.00330038
0.0056181
0.00742518
0.00722177
0.00641201
0.00741357
0.00371464
0.00745507
0.00557508
0.00741109
0.00719617
0.00749999
0.00728238
0.00750286
0.00280284
0.00736129
0.00679132
0.00696194
0.00718806
0.0069969
0.00475303
0.00742711
0.00738519
0.00661244
0.00119694
0.00701005
0.00738908
0.00562562
0.00610777
0.00576748
0.00739413
0.00737896
0.00741533
0.00738016
0.00739272
0.0061525
0.00544477
0.0066955
0.00574816
0.00743026
0.00740223
0.00506853
0.00580602
0.00738673
0.00718004
0.00624118
0.00501326
0.00711996
0.00555041
0.00731364
0.00741908
0.00719005
0.00716741
0.00730175
0.00575773
0.00549561
0.00749511
0.00677926
0.00639471
0.00725849
0.00518228
0.00391282
0.00680641
0.00728947
0.00418308
0.00748902
0.00501934
0.00480649
0.00623105
0.00696951
0.00698634
0.00582045
0.0058365
0.0071021
0.00736991
0.00513153
0.00749026
0.00736749
0.007284
0.00738917
0.00735756
0.00738069
0.00649271
0.00733644
0.0062107
0.00454753
0.00737503
0.00617716
0.00700219
0.00683274
0.00662684
0.00748301
0.00678708
0.00729227
0.00734688
0.00736446
0.00735391
0.00721045
0.00744761
0.0050077
0.00728895
0.0016741
0.00482871
0.0051999
0.00705655
0.00410631
0.00347971
0.00731662
0.00749214
0.00381531
0.00369537
0.00469549
0.00714243
0.00749706
0.00342104
0.00320657
0.0033258
0.00506795
0.00398248
0.00526463
0.00399923
0.006595
0.00746687
0.00453477
0.0073604
0.00537728
0.00723305
0.00728069
0.00411769
0.00340038
0.00267088
0.00215851
0.00748521
0.00716986
0.00526983
0.0075204
0.00538748
0.00749432
0.00529194
0.0054437
0.00485766
0.00430685
0.00417537
0.0051706
0.00542965
0.00729505
0.00348902
0.00745215
0.00749064
0.00747465
0.00746161
0.00748876
0.0047991
0.00436727
0.00746481
0.00597045
0.00718088
0.00728423
0.00358489
0.00617697
0.00754785
0.00445314
0.00446622
0.00393071
0.00695269
0.00744041
0.00585374
0.00657893
0.00632183
0.00510035
0.00678836
0.00750997
0.00699521
0.00724026
0.00468004
0.00681685
0.00551609
0.00378182
0.00562127
0.0071327
0.00749928
0.00736439
0.00333635
0.0037843
0.00363672
0.00439599
0.00725526
0.00478716
0.0037615
0.00417487
0.00480626
0.00746019
0.00676914
0.00500692
0.00740475
0.00748589
0.00477432
0.006889
0.00270161
0.00321099
0.00340862
0.000874768
0.00427099
0.000960392
0.000715935
0.00749287
0.0066575
0.00595365
0.00712044
0.00579896
0.00727621
0.00554932
0.00746237
0.0069694
0.00666632
0.00350981
0.00741277
0.00740598
0.00720108
0.00715789
0.00365184
0.00534556
0.00717143
0.00743782
0.00721957
0.0074607
0.00749313
0.00731519
0.00252792
0.00751017
0.00741498
0.00753343
0.00741137
0.00719114
0.00742312
0.00747986
0.00567874
0.00731394
0.00753288
0.00752664
0.00752354
0.0074803
0.00467658
0.00500155
0.00537787
0.00731443
0.00645623
0.00595188
0.00740952
0.00695113
0.00523003
0.00752416
0.00752861
0.00752298
0.00649391
0.00747353
0.00749336
0.00750013
0.00748452
0.00744296
0.00732094
0.00740645
0.00745816
0.0074067
0.00731465
0.007409
0.0074739
0.00527819
0.00727687
0.00710174
0.00742239
0.00653326
0.0073587
0.00263832
0.00753125
0.00745503
0.0050551
0.00433352
0.00538903
0.00744616
0.00456083
0.00747163
0.00482472
0.00673709
0.00536373
0.00647761
0.00746096
0.00750495
0.000478172
0.000566093
0.000375662
0.000315337
0.000173264
0.000653201
0.00737215
0.0062089
0.00511815
0.00741425
0.00742801
0.00734327
0.0069892
0.00675012
0.00512171
0.00336943
0.00571995
0.00159195
0.00214793
0.00309579
0.00658674
0.00718274
0.000674379
0.00725582
0.00489566
0.00348091
0.00742234
0.00697158
0.00754614
0.00665107
0.00750043
0.00353087
0.00444346
0.00535287
0.00631653
0.00748424
0.00655575
0.00513377
0.00560217
0.00375261
0.00435968
0.00103396
0.00635887
0.001624
0.00640584
0.00490043
0.00350224
0.0052324
0.00416085
0.00375834
0.0063029
0.00732338
0.00183544
0.00730513
0.000706344
0.004996
0.00750678
0.00548476
0.0050026
0.00286625
0.00382643
0.00743336
0.00697317
0.0073539
0.00745331
0.00303229
0.00608538
0.00739568
0.00435176
0.00384967
0.00450509
0.007549
0.00267014
0.00680643
0.0035101
0.00698716
0.00709614
0.000686444
0.00609794
0.000766695
0.000775747
0.00742757
0.00723636
0.00554511
0.0075514
0.00747129
0.00613573
0.00739331
0.00699135
0.0061981
0.00357011
0.007388
0.0071972
0.00715508
0.00587705
0.00576021
0.00667506
0.00558503
0.00250196
0.00750091
0.00682251
0.00357831
0.00374094
0.0050198
0.00481183
0.00418863
0.00542469
0.00424397
0.00754813
0.00451909
0.00716564
0.00352045
0.00700556
0.00558619
0.000895621
0.00413326
0.00712059
0.00359322
0.00695535
0.00724543
0.00422772
0.00453446
0.00498977
0.00482406
0.00688026
0.00686571
0.00466947
0.00532974
0.00743978
0.00693953
0.00666554
0.00176939
0.00439362
0.000885943
0.000945741
0.00716856
0.0061117
0.000686859
0.00133442
0.00603837
0.0071702
0.00681574
0.00742551
0.00491967
0.000711995
0.00480818
0.00405192
0.00750342
0.0036164
0.00691708
0.00594333
0.00698872
0.00439411
0.00736616
0.00409575
0.00334162
0.0043675
0.0059746
0.00413802
0.00726209
0.00698469
0.00734712
0.00132788
0.0046902
0.00115653
0.00500287
0.00091497
0.000605345
0.00374999
0.00270766
0.00542722
0.00616443
0.00354185
0.00422501
0.00245547
0.00205772
0.00209502
0.00742633
0.00710209
0.00746968
0.00138328
0.00715064
0.00494292
0.00453644
0.0074986
0.00748426
0.00276007
0.000722375
0.00510255
0.00417746
0.00278164
0.00738068
0.00749196
0.0074676
0.00322929
0.00742448
0.00742626
0.00492268
0.00512034
0.000320849
0.00712138
0.00286824
0.00397829
0.00752678
0.00718769
0.00735805
0.00749484
0.00560128
0.00601692
0.00555588
0.00743531
0.00510791
0.00521724
0.00471262
0.0073537
0.00448897
0.00677693
0.00585444
0.00541422
0.00717603
0.00558499
0.00589575
0.00622852
0.00691227
0.00739303
0.00737219
0.00408822
0.00587927
0.0074008
0.00442995
0.00499734
0.00335654
0.00426509
0.0046105
0.00438966
0.00442517
0.00749966
0.00747288
0.00744537
0.00742275
0.00379801
0.00717707
0.00312708
0.00537801
0.00526626
0.00253229
0.00737211
0.00405244
0.00251795
0.00701816
0.00756431
0.00753901
0.00602243
0.00101497
0.00158913
0.00151519
0.00128122
0.00656018
0.00581657
0.00547466
0.00582522
0.0033484
0.00331353
0.00563422
0.00455232
0.00745587
0.00363395
0.00491731
0.00366563
0.00482655
0.00567183
0.00602444
0.00649738
0.00345341
0.00414736
0.00435864
0.00436432
0.00742263
0.00739339
0.00741855
0.00554835
0.00749125
0.00748637
0.00748459
0.0074467
0.00747677
0.00747248
0.0074756
0.00747143
0.00748674
0.00747387
0.00747066
0.00741013
0.00505819
0.00304164
0.00300114
0.00472531
0.00458866
0.00262623
0.00607641
0.0075225
0.0068533
0.00729843
0.00363283
0.00372513
0.00734176
0.0062944
0.00709244
0.00727498
0.00743191
0.0074682
0.00742904
0.00745686
0.00733998
0.00745748
0.00550531
0.00446683
0.00749068
0.00393129
0.00719394
0.0072832
0.00713056
0.00749205
0.00723119
0.00737138
0.00741047
0.00738539
0.00444868
0.00528502
0.00703134
0.00533299
0.00121868
0.00400207
0.00590234
0.00606786
0.00626746
0.0054674
0.00478736
0.00744255
0.00601223
0.00386915
0.00370273
0.00305837
0.00338215
0.0071758
0.00753467
0.00717464
0.00704345
0.00729029
0.00744782
0.00579939
0.00291641
0.00604851
0.00750115
0.00721779
0.0069813
0.00460907
0.00698673
0.00733299
0.00726947
0.00741267
0.00755433
0.00704101
0.00746088
0.00713552
0.00560425
0.00727749
0.00537414
0.00724375
0.00688058
0.00736909
0.0050839
0.00727727
0.00519652
0.00747638
0.00738694
0.00333336
0.00754377
0.00743904
0.0042543
0.00745064
0.00737408
0.00731969
0.00715001
0.0072649
0.00719205
0.00579937
0.00509685
0.00369647
0.00322709
0.00697291
0.00595662
0.00700641
0.00434668
0.00698271
0.00750774
0.00737115
0.00741858
0.00655298
0.00732144
0.00733781
0.00726332
0.00367972
0.00748555
0.00748656
0.00747009
0.00152766
0.00123677
0.000773173
0.00345051
0.0074617
0.00539374
0.00170923
0.00710202
0.00451546
0.00744926
0.00681764
0.0013318
0.00397239
0.00741124
0.00352357
0.00736416
0.0074056
0.0068003
0.00729164
0.00555043
0.00568344
0.00395798
0.00544543
0.00410898
0.00584816
0.00522677
0.00396141
0.00699023
0.00748449
0.00570053
0.00744257
0.00745923
0.00716686
0.00736088
0.00748138
0.00749651
0.00731812
0.00589044
0.00749265
0.00738146
0.00747667
0.00752008
0.00725602
0.00744612
0.00748232
0.00667024
0.00546454
0.00666471
0.0073659
0.00538227
0.0035187
0.00398726
0.00320461
0.00461054
0.006631
0.00743565
0.00721089
0.00351759
0.00738119
0.0073664
0.00717728
0.0074477
0.00662948
0.00676249
0.00350289
0.0031898
0.00347201
0.00653479
0.00472827
0.00446521
0.00568117
0.00251151
0.00747736
0.0074745
0.00742617
0.00333271
0.00370721
0.00553148
0.00322614
0.00362405
0.00282789
0.00282191
0.00745689
0.00281304
0.00279441
0.00375092
0.00271458
0.00447844
0.000943716
0.00428612
0.0046045
0.00505286
0.00602375
0.00620762
0.00341018
0.00469641
0.0074727
0.00741366
0.00746729
0.00748288
0.00303132
0.007485
0.00571754
0.00570172
0.00300565
0.00268059
0.00418629
0.00420662
0.0070062
0.0072117
0.00739541
0.00510696
0.00228491
0.00311348
0.00313517
0.00729863
0.00723972
0.00443643
0.00730736
0.00697411
0.00490082
0.0059607
0.00573837
0.00457276
0.00757175
0.00658703
0.00503981
0.00677115
0.00738098
0.00672885
0.00524738
0.00675919
0.0074955
0.00737627
0.00509029
0.0075425
0.00262563
0.00478949
0.00397944
0.00638374
0.00623038
0.00401221
0.00722722
0.00748145
0.00515279
0.00665028
0.00326166
0.00471568
0.00332451
0.000871913
0.00573181
0.00374652
0.00275993
0.000326966
0.00657608
0.0049487
0.00335887
0.00334508
0.00743101
0.00252543
0.00315489
0.00584322
0.00742724
0.00444335
0.0046705
0.00367519
0.00429493
0.00702027
0.00309801
0.00599336
0.00308338
0.00449626
0.00366489
0.0035285
0.00413577
0.00271726
0.00293329
0.00747892
0.00750793
0.00747124
0.00750703
0.00281994
0.00390421
0.00309744
0.00471904
0.00743383
0.0056278
0.00745063
0.00497025
0.0054489
0.00747479
0.00745351
0.00747926
0.00747591
0.00264116
0.00739028
0.0071973
0.00721607
0.00714228
0.00229255
0.00730866
0.00155769
0.00674431
0.00506058
0.00352541
0.00750215
0.00361724
0.00685472
0.00270078
0.000735788
0.00177385
0.000854138
0.00377523
0.00747569
0.00373975
0.00440719
0.00744768
0.00489251
0.00739543
0.00746608
0.00584286
0.0070746
0.0068886
0.00748791
0.00743056
0.00729839
0.00346083
0.00735142
0.00538147
0.00630035
0.00681911
0.00718329
0.00304891
0.00719656
0.00736233
0.00488363
0.00366745
0.00745053
0.00526532
0.00740894
0.00745636
0.00744046
0.00380033
0.00683496
0.00750411
0.00751141
0.00752263
0.00609956
0.00740671
0.00740138
0.00730921
0.00603714
0.00671081
0.000943092
0.00365227
0.00749246
0.00725397
0.00659486
0.00753315
0.00471547
0.00446609
0.00752144
0.0054848
0.00752733
0.0074304
0.007373
0.00637702
0.00431264
0.00739025
0.00539831
0.00733199
0.00745094
0.0074696
0.00746436
0.00678503
0.00749789
0.00714498
0.00603766
0.00757319
0.00654061
0.00722665
0.00380016
0.00637176
0.00171233
0.00253671
0.00733099
0.00729414
0.00385778
0.00633372
0.00751827
0.00431683
0.00415597
0.00527322
0.00754415
0.00743444
0.000630251
0.00735854
0.000662609
0.00320313
0.00204078
0.0023018
0.00743114
0.00719658
0.00630473
0.00669246
0.00143855
0.000839082
0.00207729
0.00722701
0.00690496
0.00470591
0.0075118
0.00752146
0.00735348
0.00294484
0.00248402
0.00692707
0.00680873
0.0075037
0.00753038
0.00472614
0.00163132
0.00410694
0.00742192
0.00752185
0.00750648
0.00612402
0.00744706
0.00751213
0.00442207
0.00714894
0.00453643
0.00725656
0.00718786
0.00748639
0.00196262
0.00741542
0.00752726
0.0054651
0.00406229
0.00410698
0.00445557
0.00529491
0.00745378
0.00734257
0.00108413
0.000725873
0.00735012
0.00743417
0.00690159
0.00704837
0.00744776
0.00527696
0.00458034
0.00690446
0.00712656
0.00746239
0.00741882
0.00733778
0.00700287
0.00737861
0.00741345
0.00722749
0.00670586
0.00289174
0.00740038
0.00749635
0.0024602
0.00740724
0.00224265
0.00746261
0.00731378
0.00395716
0.00327869
0.0054554
0.00193816
0.00565671
0.00537612
0.00615782
0.00176373
0.000337815
0.000211096
0.00730581
0.00745712
0.00713525
0.00755508
0.00748475
0.00736112
0.00749666
0.00694734
0.00749756
0.00754081
0.00752145
0.0016698
0.00612197
0.00730932
0.0060792
0.00627979
0.00408178
0.00738201
0.000627901
0.000447528
0.00741299
0.00129388
0.00543589
0.00742778
0.000333505
0.00144298
0.00163229
0.00752449
0.00333702
0.00731719
0.00719234
0.000883068
0.00188569
0.00419582
0.00572529
0.00378641
0.00652242
0.00717866
0.00740134
0.00749718
0.00268785
0.00637767
0.00689084
0.00324488
0.00326249
0.00743208
0.00673263
0.00693459
0.00749345
0.00724442
0.0068472
0.00728394
0.00753063
0.00746162
0.00740676
0.00675459
0.0075427
0.00747844
0.00727573
0.00457934
0.00752268
0.00730767
0.00706275
0.00363892
0.00513371
0.00746719
0.00753604
0.00749026
0.00544252
0.0068154
0.00405906
0.00349777
0.00752818
0.00748936
0.00691145
0.00732028
0.0069275
0.00744703
0.00720646
0.00505715
0.00480046
0.00717922
0.00693804
0.00733348
0.00750703
0.00742112
0.00605258
0.0075331
0.00754165
0.00739784
0.00747416
0.00741421
0.00742944
0.00739092
0.00740674
0.00715491
0.00727079
0.00737585
0.0045907
0.00743587
0.00749132
0.00740497
0.00438879
0.00392367
0.00357278
0.00576201
0.00724467
0.00737796
0.00695499
0.00750267
0.00603924
0.00750237
0.00712874
0.00703123
0.00274985
0.00554497
0.00699851
0.0070069
0.00262045
0.00745672
0.00246958
0.000178581
0.000715862
0.00320653
0.00466722
0.000709574
0.00116975
0.00749604
0.00618376
0.00724713
0.00486853
0.00664167
0.00747609
0.00426277
0.00252634
0.00746908
0.00688275
0.00741736
0.00591257
0.00743781
0.0073609
0.00645661
0.00742637
0.00749216
0.00420602
0.00746742
0.00312748
0.00723134
0.00512051
0.00660724
0.00739243
0.00727225
0.00374536
0.00743269
0.00717408
0.00732528
0.00471885
0.00584476
0.00746553
0.00746038
0.00737798
0.00567112
0.00622638
0.00411012
0.00513783
0.00696493
0.00745723
0.00745645
0.00567358
0.00589072
0.0073312
0.00322169
0.00746942
0.00747515
0.00738334
0.00356379
0.0041996
0.00546406
0.0058491
0.00728713
0.00740954
0.00619566
0.0072312
0.00735243
0.00609264
0.00733693
0.00412357
0.0072446
0.00717035
0.00517461
0.00514954
0.00725444
0.00740362
0.00386641
0.00749755
0.00729927
0.00736502
0.00646191
0.00450041
0.00710649
0.00700564
0.00705891
0.00663706
0.0070511
0.00564872
0.0058319
0.00721502
0.00744598
0.00747929
0.00743163
0.00722084
0.00716304
0.00740778
0.00747755
0.00741534
0.00377387
0.00260565
0.00382399
0.00531303
0.00748925
0.0074975
0.0074508
0.00739613
0.00556096
0.0035605
0.00738559
0.00749165
0.00740081
0.00747133
0.00746842
0.00374285
0.00746818
0.00194177
0.00748441
0.00749319
0.0074582
0.00749054
0.00659522
0.00612878
0.00455212
0.00748739
0.00474228
0.00318952
0.00725688
0.00732021
0.00726345
0.00584243
0.007498
0.0038493
0.00732387
0.00735513
0.00542622
0.00739457
0.00716743
0.0037293
0.00752663
0.00655341
0.0074468
0.00580896
0.00462797
0.00755507
0.00743573
0.00747257
0.00735191
0.00740957
0.00719551
0.00747041
0.0074691
0.00739137
0.00757737
0.00753401
0.00310346
0.00747523
0.0062499
0.00573171
0.00517914
0.00751277
0.0028161
0.00540069
0.0062582
0.00700432
0.00434573
0.00264022
0.00716753
0.00738478
0.00749244
0.00530008
0.00297927
0.00587483
0.00729606
0.00447227
0.00306118
0.00356617
0.00644363
0.0064519
0.00674533
0.00378544
0.0052119
0.00442432
0.00519083
0.00749825
0.00573111
0.003076
0.00742267
0.0056673
0.00724029
0.00682634
0.00425498
0.00574243
0.00679582
0.00728664
0.0073258
0.0043118
0.00361084
0.00717843
0.00335549
0.00340778
0.00711213
0.00441712
0.00376957
0.00742206
0.00319858
0.00742019
0.00725745
0.000411697
0.00504002
0.00630311
0.0075421
0.00696264
0.00692894
0.00695668
0.00693941
0.000265612
0.00133601
0.00354998
0.00575145
0.0036976
0.00366306
0.00366601
0.00370016
0.00723967
0.00676451
0.00752173
0.00692394
0.00621091
0.0074586
0.00740655
0.00754473
0.00572848
0.00747045
0.00637204
0.0056363
0.00726631
0.00743916
0.00749169
0.00741594
0.00741425
0.00708966
0.00743642
0.00582438
0.00703855
0.00704174
0.00751205
0.00750257
0.00423671
0.00741902
0.00108887
0.00714281
0.00125702
0.00425849
0.00610573
0.000812223
0.00277738
0.00554423
0.00746946
0.00629769
0.00743402
0.00308548
0.00571225
0.00719227
0.00439352
0.00741106
0.00506999
0.00659682
0.00680999
0.00372114
0.00531006
0.00749091
0.00747575
0.0074887
0.00403467
0.00704357
0.00751465
0.00549257
0.00635623
0.00742867
0.00754546
0.00291596
0.00746445
0.00752466
0.00751006
0.00749192
0.00737852
0.00751649
0.0074247
0.0074786
0.0072994
0.00726781
0.00754674
0.00753765
0.00698685
0.00392567
0.00641654
0.00588992
0.00743785
0.00745431
0.00730177
0.00743552
0.00751502
0.00743855
0.00666632
0.00728001
0.00752029
0.00736553
0.00739749
0.00486986
0.00729897
0.00724421
0.00670259
0.006842
0.00747498
0.00749057
0.00702378
0.0046781
0.00721748
0.00752481
0.00747465
0.0074916
0.0022892
0.00461233
0.00729614
0.00264566
0.00306276
0.00298363
0.00743185