/*--------------------------------*- C++ -*----------------------------------*\
| =========                 |                                                 |
| \\      /  F ield         | OpenFOAM: The Open Source CFD Toolbox           |
|  \\    /   O peration     | Version:  2506                                  |
|   \\  /    A nd           | Website:  www.openfoam.com                      |
|    \\/     M anipulation  |                                                 |
\*---------------------------------------------------------------------------*/
FoamFile
{
    version     2.0;
    format      ascii;
    arch        "LSB;label=32;scalar=64";
    class       volScalarField;
    location    "0.0207921";
    object      omega;
}
// * * * * * * * * * * * * * * * * * * * * * * * * * * * * * * * * * * * * * //

dimensions      [0 0 -1 0 0 0 0];

internalField   nonuniform List<scalar> 
3989
(
49.5279
51.7425
47.8828
50.2089
49.0466
50.1033
49.2578
48.4225
68.884
64.5113
145.379
80.5526
123.383
49.6269
65.5877
52.462
49.6593
61.8836
51.4453
49.4524
81.5392
63.0258
51.1827
49.8105
49.871
61.6102
83.5863
49.0201
61.2272
49.3514
73.4735
71.1355
54.1564
49.484
153.803
73.6857
49.6965
49.7469
75.1933
54.777
55.9749
48.9289
77.6262
62.6943
90.4517
49.4738
50.0172
97.4063
49.3814
94.5873
48.7331
51.3133
64.8486
49.526
48.5324
49.6308
50.6442
72.405
135.818
80.8212
75.2236
180.92
179.367
571.833
51.1299
50.3514
63.7233
48.3786
58.5763
74.2747
130.643
52.2053
49.6395
49.8833
52.9148
50.2583
49.8538
62.6086
52.426
50.3312
53.2383
95.5325
67.0727
48.8947
48.8181
200.347
48.918
73.2624
48.3857
65.5236
49.0585
75.1219
83.5704
51.7515
51.5281
50.2896
51.0861
60.603
49.9918
76.9613
66.9681
85.9422
76.1705
132.89
67.9995
49.4112
58.6761
68.934
64.3847
128.293
58.3189
50.5773
51.4368
51.7397
52.5869
52.7228
51.2891
69.2824
77.2442
101.434
56.3289
49.4936
50.9002
49.0566
51.8649
48.7178
51.2564
48.8818
87.2807
69.1926
95.6865
133.6
97.0633
114.766
113.48
111.836
51.1569
62.1141
65.5217
68.2938
79.0193
62.6933
80.217
49.3416
48.9925
149.913
50.2095
91.1
67.5258
58.5937
48.7661
74.0594
72.9458
75.2466
173.453
170.814
48.1354
52.4222
64.9546
128.39
49.6031
50.0035
67.947
97.4482
97.8594
52.0226
49.8883
84.1983
49.8096
79.9111
54.5581
50.0106
103.475
53.1985
78.0381
51.5147
49.558
49.8817
140.433
55.7505
87.5073
48.9102
74.5806
49.3363
101.571
76.5309
51.072
80.0661
66.0691
49.618
49.3105
51.8028
88.7291
202.506
48.1182
206.087
705.111
53.762
51.3718
49.9735
91.0769
76.3514
150.527
85.0033
148.588
63.2081
50.4415
65.4648
60.5279
61.9398
58.7595
72.362
70.0866
55.6056
56.3086
534.3
67.9459
96.5062
89.2617
51.5096
48.9274
50.5625
49.669
50.8935
99.1391
65.1046
53.5967
50.2812
85.9773
48.3534
90.7318
121.871
72.5725
55.9651
48.9746
204.145
107.906
71.7571
51.6884
52.6542
51.2958
49.127
64.4518
135.054
133.313
50.4163
131.417
107.106
64.5631
68.9203
131.934
49.1234
80.2328
60.1247
86.1516
49.9476
96.618
82.615
49.7968
50.3902
52.6821
48.3171
73.0067
49.193
83.2507
115.59
49.9077
63.1492
94.0354
102.391
101.765
107.769
106.995
53.0854
105.761
82.6979
113.847
102.414
50.5585
215.578
64.6269
57.7719
149.749
57.5721
51.0663
51.6485
59.4272
139.688
172.819
190.468
108.549
109.064
110.869
54.6464
77.1504
53.7997
48.7952
78.7274
105.78
71.1407
51.8667
159.975
156.483
54.7622
157.625
62.5338
50.5149
83.87
58.4793
49.69
48.6295
48.1598
69.4872
93.1552
63.8697
108.185
48.6806
66.1769
49.6159
49.9342
102.745
56.0032
61.2213
50.2903
74.6835
55.943
85.2064
80.7703
132.533
50.9044
48.9806
50.3069
53.6309
50.0163
49.061
55.1956
57.2508
54.5618
100.789
69.8239
69.5564
84.8039
76.1251
78.0892
48.3754
52.1091
178.661
49.9284
49.5017
54.0112
107.72
51.6208
51.7294
52.9256
49.3146
85.7347
109.231
83.8488
676.315
63.0522
61.6709
112.312
51.1877
254.098
72.3408
83.9332
71.7965
97.7777
49.2705
68.766
89.7594
52.5159
131.337
49.2641
57.9484
49.3584
53.698
49.8253
79.057
57.2454
113.27
65.1964
60.8278
93.4515
137.038
137.089
80.7314
173.269
71.4318
106.136
49.9696
147.515
48.9073
106.671
104.014
48.9449
49.0786
128.913
53.2806
55.8955
54.4982
67.3161
69.7532
112.668
61.2158
51.4564
49.0285
101.203
76.7495
55.3822
49.1055
66.5319
52.4931
515.607
88.0749
86.158
50.521
49.3768
51.0616
96.3748
399.231
91.3833
91.7979
775.608
48.6796
49.7008
49.554
106.731
54.0809
51.1837
55.1159
92.7584
50.1584
48.5818
171.629
50.2424
49.701
92.3208
51.037
48.9746
50.4014
53.3708
51.5369
105.937
49.5845
50.206
63.0192
58.8803
171.873
49.0741
52.9049
76.1999
80.0559
49.1927
61.3419
51.4277
123.395
95.9766
48.5044
49.4707
55.5303
60.8935
153.934
101.24
152.986
74.244
89.0105
92.5981
184.905
57.9434
119.975
182.435
65.6574
148.583
56.14
81.2949
90.7914
124.869
123.449
110.078
160.579
78.8987
62.3987
87.2855
48.8917
49.5195
102.408
161.39
87.6512
48.887
115.171
47.7303
69.6121
49.5783
50.4795
58.9542
52.7719
51.5107
51.1271
67.5626
50.3679
63.2387
55.1251
53.7064
66.7473
107.16
104.488
64.4971
76.5553
73.6479
48.9676
113.575
107.239
54.4952
91.1686
102.559
81.4604
49.8701
89.3459
50.2496
51.885
67.3273
90.8931
49.4426
126.675
49.3922
48.5577
80.0059
53.4685
47.8446
51.838
50.9266
109.063
49.49
54.7395
96.7667
51.7041
70.0094
108.038
61.665
49.5602
63.9104
81.062
1251.69
942.798
50.4287
50.6841
49.7553
72.2796
48.0381
48.7042
55.421
110.977
139.462
88.0707
61.0638
75.8449
77.8592
49.1185
50.6143
109.531
141.953
55.5497
51.1933
50.9197
47.5324
51.3088
52.9203
67.7032
49.4594
50.0065
48.7713
53.0057
84.8673
49.8539
69.9681
49.3272
51.5539
49.0859
53.8234
52.1701
61.7208
51.5829
57.1897
51.8125
49.5314
64.3718
54.9413
50.212
49.6847
52.9391
49.0571
50.3842
859.477
426.777
119.713
49.3635
73.5453
80.9301
88.7284
49.9243
50.674
55.4298
64.1407
47.8985
49.2512
49.6461
49.0107
63.0958
49.3497
81.2857
102.609
49.2585
48.2619
58.7193
50.9847
81.0592
85.8905
52.0694
115.508
79.0029
49.1187
58.564
70.2597
48.3778
98.5335
50.1881
49.9374
50.2882
93.9662
51.5739
51.7373
51.5846
50.9727
49.4402
49.6656
49.361
67.836
49.3782
49.9522
70.0467
49.6329
53.2804
50.4888
52.9215
54.8907
49.5401
48.8645
114.57
49.8524
71.0086
52.619
63.2435
50.3818
96.6621
49.353
49.6508
48.3401
81.9811
69.5302
77.9311
103.819
53.7401
51.7147
53.9936
63.8827
75.4919
56.8696
140.361
49.8715
48.5248
51.3669
135.968
62.956
50.3781
55.9369
114.212
79.6774
144.304
58.3448
73.9123
48.8719
49.1574
49.2589
49.4087
49.4728
50.3411
85.0719
49.7707
49.7743
49.4913
49.2254
49.3598
91.7036
64.3583
49.6589
78.2192
50.5112
67.246
51.8104
161.634
48.5941
155.105
48.2334
66.2948
86.1395
55.3331
116.017
49.3259
94.8274
49.029
117.428
50.0992
50.1935
50.7471
141.415
49.9618
54.593
140.736
49.1664
116.847
53.6243
88.5251
83.3163
69.2304
83.981
49.0134
52.1584
48.4611
50.1032
118.105
48.4493
48.0574
48.8275
50.0823
49.2284
66.1769
81.3622
50.0945
50.4677
50.4051
47.8425
96.528
51.9621
155.857
49.9852
67.6985
133.06
62.859
53.1628
96.6773
75.157
58.7554
64.0348
193.489
481.118
772.713
64.9357
48.5922
49.0685
48.2377
48.0862
49.4869
48.9662
50.1688
49.3902
52.0086
72.2277
112.26
49.568
52.8828
79.5344
58.1348
100.992
52.5384
154.754
52.1296
51.7811
97.9116
50.0047
48.8765
67.7988
50.067
53.8118
83.2903
49.0053
52.2541
64.8655
57.0325
51.1255
51.4248
49.9923
67.5707
54.5073
48.041
48.198
63.125
50.097
110.431
49.3274
84.4464
83.5205
80.1794
80.3394
48.3615
47.6661
48.4229
48.3084
58.0855
58.5861
53.7035
53.1033
49.3249
50.431
82.0821
59.2426
66.3286
61.7676
64.4677
50.5898
50.7123
79.9378
68.0741
49.7494
128.143
59.9148
84.8529
49.3041
52.056
81.4248
51.7869
118.434
48.7796
51.6688
61.5215
48.9309
54.128
51.9423
49.5123
58.3048
49.365
49.5761
99.1095
63.0126
48.7923
49.4016
57.9245
110.863
65.1782
50.3209
49.8346
49.9226
56.2102
52.4646
80.782
54.3875
48.5254
50.5808
50.2068
53.1303
60.756
51.5122
49.7123
48.4253
78.5552
52.2094
48.9667
268.861
93.3731
48.2511
51.5326
84.3252
92.3702
65.8025
88.9883
48.5765
90.8655
52.9433
57.4317
53.948
49.3839
331.848
47.6951
49.8915
115.812
55.6231
47.5274
65.0968
71.3789
53.3184
53.804
51.4677
53.5616
52.4705
89.2766
85.1347
50.6389
57.7549
76.8388
51.6375
95.2357
48.5274
72.3381
51.3119
51.4293
68.6822
514.905
150.376
420.607
650.86
172.614
51.3369
52.1572
50.9574
901.21
452.126
49.128
60.4649
53.7563
707.663
62.4326
74.3651
48.9447
69.4283
51.4354
72.0626
48.8567
51.3467
51.6364
50.2463
91.2267
52.4659
53.662
49.2707
49.6558
66.8175
52.2366
56.883
51.8633
53.7847
878.846
303.988
124.785
56.4321
50.8227
94.3509
52.1472
52.2411
54.5833
51.207
103.223
54.3381
49.8593
54.9805
63.4496
49.9801
81.6883
78.8733
69.2347
57.7566
49.5757
53.2107
80.6037
49.304
49.1066
49.0209
50.3826
65.2589
110.903
49.3952
52.9583
58.9117
49.631
48.9234
49.3429
67.4311
52.8866
49.6491
50.1479
53.5015
52.6117
50.6513
49.8797
52.5986
61.109
100.289
67.6617
51.3493
50.0565
49.767
49.233
60.2794
49.2669
50.2572
49.2353
54.8793
50.082
50.9669
49.3918
58.472
48.9639
48.0048
49.598
53.3983
98.207
57.4115
55.5094
67.9642
48.0925
52.1051
49.4036
50.282
51.0324
55.4033
61.1296
73.8017
72.1644
54.8971
104.32
52.7438
54.4591
67.5073
57.1447
53.1827
53.1878
49.9093
60.2962
49.2578
49.5601
49.7143
49.6632
61.7978
49.1879
50.2091
49.4965
54.0885
52.8802
52.3625
55.3995
52.7991
53.256
49.1969
48.9428
48.8506
48.9215
51.4907
51.8165
52.9275
52.7735
49.6165
53.0407
51.4278
50.6439
48.9737
49.5562
50.4777
51.8538
54.4912
57.2665
60.0606
147.323
145.894
49.2509
49.5099
49.1765
92.8016
49.1504
49.2831
51.3741
51.7557
49.0402
49.0485
51.3296
54.2123
57.8613
50.8226
53.5676
53.9941
116.583
125.76
87.5868
82.4481
137.278
51.5598
48.2511
48.5844
49.3073
48.2774
52.9254
52.8146
52.5304
52.0212
62.5675
92.5877
91.215
85.1058
49.0959
49.2165
49.4305
56.8717
49.8971
58.5231
62.0866
904.629
50.7668
49.7109
51.9324
49.9739
53.1781
49.643
51.1196
82.2545
101.253
51.8379
62.0278
48.6883
49.4782
63.9278
55.2941
51.3956
52.4077
109.057
112.568
58.0864
50.4929
65.6401
49.1178
84.7209
105.573
105.821
63.0246
55.7132
64.9775
50.1554
100.134
83.001
81.2634
47.8271
53.2714
53.9966
48.9435
96.0744
48.9153
107.292
112.687
49.8913
48.9305
50.194
57.3167
51.7168
54.4156
50.0138
65.7773
49.5365
50.8339
49.124
49.9794
48.6244
54.3543
50.4484
53.6159
52.4397
51.8175
51.8651
77.631
51.5541
51.7884
55.9822
68.2361
51.5885
51.1217
65.3768
59.4654
63.0804
49.7474
51.3533
50.1283
50.552
50.7523
58.7258
67.6038
54.5671
63.2974
48.8847
49.1127
71.2613
65.1384
52.3044
51.2835
58.1962
74.7194
53.6537
67.2521
51.0448
50.1659
50.172
50.6946
50.2417
63.6155
66.5624
49.4702
55.6365
56.1653
50.8982
69.6266
95.4522
52.7389
51.6621
89.7125
49.3939
76.067
78.1355
58.4604
53.1067
52.1904
64.9462
65.2512
50.912
48.9918
70.3371
48.555
50.5381
50.4101
49.7884
49.6869
51.4485
56.983
50.0387
59.5026
83.272
49.887
58.5973
51.7965
54.0544
54.3506
48.895
55.912
50.0375
49.5641
49.4433
49.3295
50.6164
49.2657
76.362
51.6362
116.93
78.4069
68.7581
50.8848
92.5006
112.93
50.9979
49.3372
104.393
103.316
81.0898
51.9722
49.4893
115.995
117.329
111.843
72.9934
97.1501
70.4687
99.89
57.7702
49.4648
78.5695
52.251
70.9565
52.4358
52.5988
90.7538
109.322
60.4292
62.2694
49.3581
51.142
69.3855
49.3968
68.7548
49.4079
72.5249
66.4278
80.7168
83.7817
88.3137
71.3345
69.4898
49.1242
109.233
48.964
49.2433
49.4345
49.1471
49.4175
79.7569
52.531
49.2769
61.5611
52.2111
49.4168
107.698
58.1658
48.3759
84.2492
80.3054
96.5747
51.8968
48.8055
63.7964
55.592
57.2765
71.594
54.763
49.2454
52.1324
51.1471
79.2459
53.2556
65.8226
102.004
65.2919
50.6921
48.1212
50.3797
113.815
100.741
104.792
86.6062
51.4219
76.7383
108.535
91.9665
77.3247
50.1231
53.6933
72.6184
49.2973
49.4996
52.5235
52.2873
60.6905
111.452
109.683
310.487
83.3315
107.11
642.153
49.1118
54.9276
63.527
50.6625
62.9625
50.9827
66.1839
49.8249
51.9489
55.8188
107.171
50.0705
49.8194
52.1695
52.5037
101.176
69.4092
51.5926
49.7653
50.7821
49.0603
49.3811
50.6736
148.907
49.1276
49.1161
48.1429
50.1558
50.8572
49.9298
49.1005
65.5139
51.3608
48.9274
48.8117
49.0595
49.5756
80.4475
74.008
71.7903
50.7368
57.4717
61.5095
50.0597
52.4405
71.5323
48.9046
49.1876
49.0667
55.0008
49.2009
49.3152
49.3305
49.5184
49.288
50.1278
49.1313
49.466
49.2067
49.6889
49.2281
49.2853
69.4962
50.7802
51.562
49.2793
50.9517
53.5588
57.2669
48.189
50.2377
73.9614
84.6827
66.4556
49.3757
79.1982
48.678
78.3492
53.6341
67.9897
56.1458
49.2846
49.4107
723.025
566.398
725.33
540.615
950.846
157.929
49.1981
59.7852
70.1886
53.895
49.8498
50.4915
52.6082
54.9254
72.2555
116.697
65.4754
92.8055
57.2256
55.3998
54.6031
51.6825
166.126
50.1379
74.0742
108.988
48.9254
52.3226
49.0184
51.3127
48.3136
106.653
82.4333
68.0461
57.6122
48.9039
54.8893
69.8057
66.3827
54.3415
84.1731
118.27
56.1735
60.1329
50.0228
75.5543
109.438
68.2278
91.6602
104.656
57.0769
49.2313
80.3829
50.2383
219.512
50.3252
48.075
67.6434
72.4579
54.6764
100.705
49.3439
52.3692
49.3898
49.0146
128.371
59.5654
49.4891
84.0406
101.309
81.2019
48.3048
144.521
56.0718
106.607
51.898
51.5011
145.965
50.0509
286.543
291.265
49.2135
50.5022
51.8388
49.0453
49.3215
58.5013
49.5595
51.3198
59.6356
110.335
49.7476
50.3111
50.5312
64.4472
63.1119
55.4629
68.0425
152.924
47.8417
53.5724
102.679
99.686
75.597
74.5177
90.5464
67.6193
91.3141
48.0634
80.3929
50.2728
109.651
52.619
66.2857
118.832
94.717
51.5577
94.4191
50.6724
50.6146
84.662
80.0357
74.0893
53.3767
52.7424
52.3289
81.8858
71.1516
49.4649
52.118
54.5516
62.4286
81.0948
264.296
873.942
55.0619
59.9918
918.417
98.6874
59.574
50.3742
53.4586
50.8184
74.2723
110.333
53.4515
94.5676
48.7605
104.585
52.482
63.4188
52.2021
83.6942
51.0967
95.5765
109.857
53.1765
59.8418
87.9233
50.9532
53.8865
52.4869
73.6467
80.3468
95.5918
76.2876
129.821
190.996
104.834
55.4506
69.1582
57.885
110.019
87.6231
153.08
189.908
193.345
49.1152
51.7965
47.8793
74.1527
51.4762
52.2592
52.0255
49.4383
49.0021
139.655
241.342
72.9984
90.5255
52.9061
51.9776
49.7026
49.1583
114.279
49.6015
50.3828
54.283
52.5744
524.058
52.8568
129.857
90.191
48.6718
52.8903
49.3688
49.3814
53.0435
59.2968
64.2701
49.1198
69.2163
69.2295
78.1968
50.8211
84.9271
52.6041
61.1427
69.2911
51.5868
64.694
60.8301
57.0167
52.7841
49.428
49.8455
88.0933
60.4995
49.3798
81.903
73.2115
112.375
86.2072
79.5493
88.4016
89.1137
48.7409
49.9558
49.5354
48.8123
95.351
50.1484
119.856
67.5951
69.3636
155.063
49.7717
56.3493
58.5549
52.6758
48.3037
48.3161
60.2751
88.3383
75.8687
68.3017
75.1964
56.9255
62.975
66.8506
63.0207
115.969
114.765
64.1731
84.3365
49.1942
109.166
76.2745
110.104
80.2011
64.1773
60.6906
56.4979
110.538
93.4217
87.787
87.9022
50.7758
52.8738
53.9292
67.4226
49.472
49.4416
49.4239
49.0095
49.1817
49.0467
49.4294
49.1762
49.4007
49.5507
49.4451
49.6569
73.4701
130.778
129.048
78.9023
82.0565
152.442
60.1034
48.7111
53.8098
50.3196
102.188
103.734
51.4843
58.8216
50.5545
50.4339
49.8115
49.524
49.9011
50.2269
50.1999
49.2653
52.8186
78.1001
49.2994
52.6563
51.1131
51.0683
51.132
48.94
50.1779
49.7599
49.3253
49.7564
87.6354
52.219
52.3138
50.4693
79.0551
52.312
62.0901
60.0182
58.6265
67.9036
78.7585
50.0599
60.3059
53.5609
52.8936
55.5165
53.6371
51.2096
47.8845
50.7485
51.4212
49.9846
49.9227
62.6072
133.213
60.9164
48.8498
50.6326
52.0749
78.1221
51.8581
49.2468
50.9742
51.4275
49.3064
54.9301
50.2083
51.392
66.2188
52.9713
71.3484
51.2156
53.6171
49.9153
70.4841
52.2479
71.2405
49.1499
49.5374
53.4926
49.1006
49.4308
52.5247
50.1966
52.2928
50.08
51.9046
51.1439
51.4762
52.2671
51.8805
98.0973
115.283
51.6906
62.0894
51.5871
82.3847
51.1028
50.2954
50.1416
49.3003
56.7376
49.8832
49.5413
50.0832
98.0558
48.9351
49.3097
48.7754
67.5583
84.7603
123.843
51.744
49.231
49.4175
72.693
50.4581
82.6519
48.7316
53.1344
86.5563
54.0613
51.9414
104.816
50.2023
49.7229
53.1746
51.0999
65.701
63.727
91.6007
65.7389
87.4126
65.6076
70.4006
97.5323
52.9916
50.1802
64.6323
49.0505
48.4995
52.1972
50.318
48.9189
49.3222
49.888
62.0345
49.0215
49.5527
49.0385
49.5254
50.7969
47.9688
48.6285
54.5014
65.3846
54.6517
50.5202
69.6294
107.487
92.4272
120.601
78.9997
53.6534
49.3684
50.951
54.8312
50.0944
49.3371
50.3281
49.956
54.4704
54.2558
112.143
116.758
111.164
57.6168
80.6737
82.4285
63.9548
157.098
48.5429
48.4751
49.022
115.428
52.9773
65.0733
117.256
103.784
141.273
141.622
49.2309
141.189
140.249
108.241
138.727
88.214
564.846
92.2157
82.579
76.0942
60.6447
58.4809
114.07
76.933
49.8314
50.1192
49.785
49.4656
128.328
49.7115
64.4575
64.965
130.592
148.945
93.8849
89.0083
51.0847
53.5553
50.6219
73.1055
170.879
126.894
127.768
49.8897
49.7455
87.3964
49.8394
51.4706
75.4622
60.6699
63.258
81.3654
48.1005
56.9062
76.8496
52.889
50.4701
54.6436
69.299
55.6832
50.1667
50.4629
71.7339
47.8674
142.114
76.5798
97.2953
56.97
58.3556
98.0887
50.2488
49.3221
70.7105
53.9219
116.193
76.7641
118.421
102.684
62.83
99.7443
142.21
800.641
57.6659
77.1088
114.581
119.147
49.1813
154.365
118.644
61.9825
49.5981
80.8875
76.1619
100.234
84.0096
54.5558
123.264
61.5372
122.679
79.8572
101.593
109.901
85.8367
141.019
125.494
49.0799
48.4657
49.4959
49.215
57.2033
53.3993
118.984
75.3033
49.8733
66.5094
50.1151
53.0251
67.0014
48.7874
49.4882
49.2925
49.5088
146.758
50.8434
52.1913
50.7661
52.2091
59.5629
51.0601
70.6952
54.2371
72.3104
112.83
49.5465
104.364
53.0533
60.0527
142.106
68.0938
410.55
101.828
49.7597
100.876
88.7584
50.0626
76.5168
49.6999
49.1687
63.1202
54.4136
52.6074
51.119
48.9584
50.3519
110.81
50.6472
71.4451
56.6535
52.7425
50.114
122.152
51.0847
49.4265
50.919
105.68
48.7957
72.165
50.2526
48.0601
48.1549
92.2073
49.4179
49.3294
49.1947
49.2068
53.8969
50.1159
49.0742
52.9204
60.6591
54.2976
83.421
97.3755
50.3225
50.4453
55.475
48.214
50.3229
52.7558
49.9214
65.2629
47.6115
50.3552
50.6992
57.3911
82.6806
51.7935
66.4803
49.9108
49.1249
49.5406
49.2164
53.8762
48.6184
50.6376
50.291
47.9977
49.2569
49.698
53.4351
51.1846
62.5059
55.5307
49.6991
49.7676
93.9382
56.3246
48.9536
83.9702
87.1291
68.0934
48.0155
49.0261
176.698
49.9484
515.147
52.831
59.3943
57.5857
48.8663
50.5512
51.0646
55.0024
71.8507
113.188
65.7267
50.9193
52.4348
76.8115
49.1882
49.0319
49.5113
134.506
55.5208
52.2174
52.792
48.7257
48.9438
52.1499
70.6359
52.6077
50.8433
49.5358
49.2317
59.8172
47.6553
47.4588
80.4258
50.1469
81.0844
50.0797
51.3691
48.6308
59.8476
51.4576
48.8259
65.7276
52.5272
88.0409
52.7211
52.4121
49.3176
49.8946
97.5162
119.701
50.8401
50.9746
54.6184
51.6222
50.7554
70.4491
83.8686
53.3344
52.3724
51.3701
49.6219
49.5208
52.1966
49.6947
48.3652
50.6694
49.4065
133.236
49.4449
48.5003
63.1728
49.6263
59.0947
48.9894
49.7393
51.1749
52.2723
66.2769
59.6055
51.0086
67.4421
60.2519
65.8256
942.612
708.359
50.2828
49.1521
51.0431
48.1495
49.8747
49.8478
49.1085
51.8805
48.5444
47.646
49.3399
66.3205
52.7148
52.594
50.1552
50.0138
89.325
49.1647
217.076
904.967
50.0321
80.496
66.9416
49.1053
829.109
70.5541
427.177
49.3302
55.1064
51.8097
51.6157
109.663
66.561
89.4683
63.0696
94.9162
56.2608
51.1669
48.6442
48.7506
134.619
56.2972
51.8915
118.475
114.573
50.5534
49.7767
52.3562
48.5725
50.3384
52.7312
49.5974
48.1984
49.4621
50.4233
53.5599
48.1394
47.7804
50.3672
78.1213
48.3177
50.3494
50.8179
102.136
71.4315
48.853
48.4863
49.388
66.5042
49.5302
91.1309
109.298
49.8831
48.6032
52.8962
50.3429
52.3486
49.4927
49.5558
51.7671
76.1615
50.9965
51.0225
49.444
48.9907
50.7309
60.2078
48.5233
49.1861
50.3976
49.0293
49.4073
50.1235
49.9791
49.9991
53.6369
53.3341
52.327
79.3738
52.3369
50.9954
52.2282
82.8558
94.4012
109.087
63.2687
50.8734
50.562
52.8075
48.1986
59.9474
48.9902
50.7267
51.3468
54.8879
50.7988
52.3623
51.771
58.3041
49.6553
54.7244
759.707
659.808
53.3857
76.3203
262.94
68.7134
47.778
50.937
50.6075
72.4488
54.8202
48.0062
83.2192
148.842
48.7978
54.4994
49.5346
61.1663
49.4763
49.3718
50.4659
48.9384
50.1281
87.2983
49.3387
58.0361
51.0391
71.8673
55.2224
49.6176
51.2388
101.024
49.3101
50.8445
50.2267
77.9702
65.568
49.0678
50.6013
48.911
64.8823
58.8281
89.4159
72.9051
52.5191
53.3153
50.1021
66.2485
61.6895
55.1949
120.887
49.2922
49.6562
50.0808
104.298
92.1449
67.4242
62.8738
50.3725
50.5626
59.0118
49.6837
48.4449
59.8128
50.7872
85.9337
51.3983
51.646
71.0634
71.8656
51.2499
50.3115
97.5924
50.3636
52.3301
52.6156
57.6245
88.6394
52.7479
52.5132
51.4323
55.945
53.4145
66.043
64.0898
51.4916
49.5153
49.4945
49.6428
51.2004
51.8633
50.2096
49.5639
49.9929
100.5
147.692
101.835
67.3033
48.3703
48.2149
48.8607
49.4081
66.3583
105.594
49.4893
49.9331
49.6247
49.6291
49.6737
102.431
49.5872
201.885
49.513
48.4963
49.3155
49.0002
55.379
60.2191
83.3548
49.4159
78.865
123.089
50.004
49.6914
50.3161
63.1281
49.598
95.9575
52.4224
49.9888
68.0994
49.3453
51.3274
94.8227
48.5972
55.8479
50.4747
60.9789
51.4506
47.8902
48.8405
47.9677
49.4906
48.563
50.3925
48.1337
48.3602
48.9611
48.0541
48.3554
119.203
49.8158
56.7762
63.5915
69.7052
49.7726
142.469
66.2322
57.1989
51.4022
86.5466
145.398
51.3343
49.4594
48.0823
68.4895
125.864
62.5931
50.8209
82.8632
124.773
107.537
56.2161
56.178
53.8166
99.6279
70.1811
85.0162
74.301
49.8584
63.8695
125.705
49.5992
67.6771
50.7079
53.8818
86.4123
63.0079
53.1171
51.8713
50.6635
82.8474
103.34
50.3862
111.184
109.461
50.6782
79.61
97.1087
49.1585
117.031
48.9536
50.1976
492.997
73.4365
57.1943
49.5436
52.6076
52.5439
52.5007
52.6088
955.08
72.5508
103.266
62.0778
100.522
97.4234
99.6616
100.593
49.9817
54.0627
47.7638
53.9857
58.4374
49.308
51.1969
48.1891
68.4038
48.8392
57.7544
66.0582
51.3035
49.0769
49.3921
49.9479
49.226
50.6708
49.7205
61.0537
52.0282
51.146
48.8869
47.7986
83.8702
48.2867
142.764
51.97
155.26
86.9203
58.9594
197.761
139.408
64.2908
48.6871
56.9937
50.1709
123.585
66.7028
50.7042
53.6088
50.928
72.3403
54.6723
53.6308
96.7178
67.6857
49.2856
49.85
50.0869
90.0862
50.9764
47.7794
66.2289
56.8749
48.9653
48.3722
129.735
49.7947
49.179
49.6478
49.4025
49.9106
49.9073
49.3136
48.968
49.9213
49.7496
48.069
48.0654
51.6981
95.9837
56.285
53.5925
50.1242
49.8432
49.9441
49.6891
49.6971
50.1969
54.1982
50.5917
49.0819
50.3411
49.8476
74.7609
49.9264
49.9492
54.9854
54.2834
48.337
48.6363
51.5322
80.8028
50.2334
49.257
49.1261
48.9312
60.6204
52.1911
50.8503
54.1714
55.5158
55.827
50.2401
49.6786
49.6977
50.5066
55.0515
50.5968
52.1372
75.2711
51.7024
50.4123
85.9912
54.6604
53.0228
51.3257
48.3955
50.7431
51.0064
49.1234
52.311
49.5473
50.2258
49.9396
49.7545
49.4371
49.008
49.7808
51.8014
51.0985
65.079
49.5766
49.0179
50.8767
50.0026
51.3039
50.7394
51.334
49.9595
59.0886
86.374
59.0058
60.0583
49.3998
48.0144
82.8096
74.3929
49.9814
108.005
59.7674
57.6838
52.2325
49.7785
51.9919
51.9598
51.9072
52.1283
76.3325
49.1776
141.201
86.5366
51.6007
299.946
105.947
48.1333
56.3973
54.7954
47.9282
49.0537
48.7067
145.852
865.802
65.8372
50.996
86.1591
221.819
48.9536
78.8487
50.1205
52.0207
195.364
134.474
58.2116
50.4183
60.8817
51.0312
52.2045
50.3072
55.3537
49.0674
50.2798
53.0875
77.2809
54.1134
82.2016
50.5204
64.6001
62.3621
54.4262
200.631
74.1028
82.593
941.567
947.087
51.0323
49.0138
131.398
55.7279
52.2479
54.0248
105.212
65.6129
50.775
49.5753
54.4595
115.699
55.855
84.4374
52.2943
58.0211
73.7936
53.5165
48.9103
51.0403
66.0814
49.9565
48.9967
112.633
127.851
52.3801
56.127
61.253
49.0218
49.6043
70.4106
84.2948
72.5666
89.4171
47.8875
73.7827
75.4597
596.251
53.5376
97.871
64.0768
71.5245
80.1411
53.2855
59.2007
52.0612
51.2049
50.9979
51.5888
51.026
53.1976
49.8092
51.2839
50.3906
50.4031
49.2226
48.9064
49.459
54.0328
126.463
52.2567
49.0172
60.8371
59.1593
47.9451
91.2867
49.4093
47.975
98.1603
66.3822
51.818
50.1918
60.7581
75.2746
53.5766
60.1935
62.4672
50.4462
50.0719
51.2938
49.2217
47.8851
49.1663
49.1121
49.1251
48.2176
49.0482
48.1415
49.0406
56.4681
48.9765
49.8544
52.8554
55.3789
51.708
52.2443
51.0471
49.9655
49.1561
52.9641
56.6013
51.8568
51.3261
48.8135
50.3681
55.4964
56.7296
55.4716
50.8577
50.5331
50.152
63.5688
64.4917
49.9227
92.2379
71.7975
49.9043
50.8628
49.7433
56.6643
106.925
49.0796
50.4531
49.693
50.432
49.5127
49.1605
50.5846
49.7671
53.7278
48.7375
53.5057
82.287
50.2293
50.3764
55.8282
49.5596
53.068
54.3087
49.2078
48.7214
49.2358
48.3362
48.4935
50.1884
51.3067
48.631
53.0593
49.091
49.5405
49.1668
49.2972
52.7263
50.3917
64.3258
50.6847
908.537
49.6045
53.8767
55.9494
56.4631
59.8281
82.168
50.8591
94.7364
52.328
60.2988
97.2028
66.0398
50.9025
49.4112
52.5609
50.021
138.923
48.602
127.036
62.679
48.774
58.7933
49.852
51.28
48.7824
48.0687
49.8466
48.0485
52.622
48.8273
50.5335
48.8477
47.9474
48.3313
80.6507
52.6944
69.5755
800.358
77.2565
55.789
539.73
49.8622
73.7084
49.593
48.5389
79.9267
110.001
64.1772
48.3448
58.4123
50.7117
59.4475
82.162
48.6492
49.6941
96.743
102.513
77.787
49.7257
49.4042
50.388
49.3252
80.7113
50.8227
51.6323
59.2559
49.4568
49.8282
49.0458
49.3691
49.1588
48.8625
50.189
48.8959
48.9958
49.5851
51.1223
67.6557
51.489
66.1016
59.2009
48.5218
52.4077
49.2146
72.4684
50.3096
65.7803
72.3378
48.9443
49.469
66.7582
48.9232
49.3537
48.9942
48.5648
48.2233
87.3813
49.0501
49.3862
48.8539
65.7355
59.1613
72.5017
101.546
52.9935
53.8191
52.4556
89.1743
52.7747
51.8318
49.1385
80.7123
102.732
108.051
51.2175
82.2444
53.851
112.695
52.6566
59.8406
51.8969
57.5527
60.4573
94.7636
77.4726
102.861
126.563
57.786
50.9921
50.1244
50.6396
50.2586
52.2162
49.5354
169.329
57.8455
51.1257
51.4825
52.3674
52.8893
51.8156
50.7657
51.3142
52.7248
79.7204
49.6665
48.7545
56.5704
61.8757
64.6862
51.9023
48.938
73.874
85.5716
50.1636
49.2989
49.3705
49.2627
92.887
70.5463
51.1263
49.4364
50.0937
49.3396
59.7552
55.6882
86.4915
49.2113
58.5285
57.5521
93.0557
50.1001
66.7397
49.5516
49.8356
49.606
83.4838
74.2894
111.812
51.2797
62.0654
49.6045
121.988
50.492
50.4327
111.655
50.8157
49.4131
50.9377
50.1311
49.7677
83.5059
50.9499
50.8546
72.4081
88.2628
49.5208
50.0288
74.5418
82.799
105.18
49.749
49.8137
48.8898
55.8184
69.7745
64.3858
50.1515
62.344
58.3306
58.4833
49.4751
50.5993
76.014
71.8631
61.7193
53.6228
71.6185
64.0826
51.1523
53.7468
55.5506
53.119
65.825
91.7997
91.4367
62.68
51.0238
52.1976
52.5017
51.6767
83.936
56.7231
52.6314
49.8826
49.6462
51.4269
51.0814
53.1525
106.411
51.1455
106.789
57.1664
67.6849
61.5167
50.9853
56.3695
49.6133
53.6577
50.0035
92.6952
49.8825
50.4093
48.8511
121.662
66.4728
54.2154
48.1449
51.336
70.7591
49.4935
50.0092
49.7652
50.0919
50.55
54.4043
87.0389
58.7264
48.9835
49.2301
49.1165
50.6332
51.2071
98.7043
49.9731
50.9308
59.3256
82.2454
83.484
48.9746
955.67
160.932
49.4584
52.0442
68.1723
49.1739
49.2917
49.2272
49.3222
50.4619
50.5776
56.0591
55.3884
49.9468
49.8362
50.8932
65.0226
71.6239
664.96
57.7511
51.8502
60.9283
49.9636
61.0814
57.8649
74.5969
61.5773
50.0657
49.8329
50.8537
86.4982
52.2686
61.031
51.2955
55.9905
62.9879
50.1996
50.8442
52.3428
97.456
52.8832
97.3817
50.2292
50.1272
81.4061
48.3358
50.7145
50.1434
51.8374
90.3935
52.3932
48.1209
101.981
50.489
125.323
49.4881
49.4617
49.8112
49.449
50.089
49.174
49.4456
49.2204
49.3884
48.7713
91.1888
70.2385
51.4251
53.2135
54.1924
52.3632
53.6855
48.3072
48.4206
49.0033
52.8862
49.8053
52.3184
51.436
82.7065
68.5998
52.4194
65.1434
77.511
50.4967
57.0544
101.603
49.7176
68.1468
62.3349
63.2571
48.6275
69.3476
88.4624
108.556
154.271
49.4986
50.0289
51.127
49.691
50.6401
49.9672
47.7975
88.7794
74.2179
57.56
54.3494
50.775
50.4544
56.065
125.169
49.3672
51.4827
49.2308
49.3187
48.9786
50.6169
87.0676
90.9456
49.207
50.6303
51.7716
67.5254
49.6926
51.3644
50.2241
50.3807
51.391
57.7648
53.1769
54.3811
50.2631
69.67
49.6454
51.6232
52.7158
78.0429
53.0739
56.3316
49.8526
49.4599
48.5736
115.177
49.6961
50.201
50.5084
49.9012
50.6811
56.3872
49.1558
49.7081
109.183
49.5042
79.9635
53.6079
87.6565
87.8317
57.1177
60.1198
51.5936
52.3488
55.885
47.4382
48.8101
51.3062
51.8568
51.405
52.0396
50.2092
49.3099
47.7595
47.9134
53.549
53.8017
60.4678
52.7226
61.3755
48.8741
49.7193
73.8508
50.5309
49.4708
52.454
49.2791
49.1339
49.2366
53.6781
69.7096
48.9292
49.0391
54.488
83.1676
48.8504
48.88
52.5692
58.2862
52.4382
85.92
64.2366
50.5238
49.9998
71.704
163.851
49.3793
49.0456
48.7677
49.5295
83.0961
113.425
49.1383
49.3009
49.857
49.808
52.1573
49.7
50.2507
50.2799
48.4964
557.032
138.479
159.695
54.4479
52.7544
60.9262
53.6073
49.6678
77.332
100.87
55.2195
51.158
51.1868
58.9021
51.921
50.1543
53.7706
111.798
51.2058
56.4545
52.743
54.8541
53.3231
50.6688
72.8313
108.144
227.113
49.451
56.9023
106.838
107.154
52.1467
49.042
48.7449
119.178
48.9542
54.0569
49.5549
50.0971
50.5302
71.5137
56.9377
50.3941
49.7818
49.0591
55.7853
48.9355
49.7336
49.1453
49.3165
56.811
57.875
94.2108
100.333
54.1617
54.709
49.8733
50.3201
64.7358
49.4038
49.9322
66.3648
64.1179
55.5337
91.3754
48.5037
138.033
60.7117
85.0085
86.0652
69.5525
154.623
107.011
106.491
56.778
48.8103
99.4897
83.9995
50.8326
105.012
50.4228
81.5014
48.9169
67.803
53.6305
125.57
79.8098
103.769
100.318
145.473
52.3216
58.4093
116.729
82.741
161.063
50.4816
63.6504
117.735
82.5493
117.863
66.9937
48.4744
47.9666
49.7922
118.064
47.6469
51.8865
49.7876
52.7887
51.8613
49.6265
60.996
51.4099
110.779
49.4567
49.1976
49.1965
146.031
50.978
51.9128
48.5578
186.601
49.4225
49.797
51.0935
49.7185
49.3458
210.931
124.889
928.352
53.1794
50.7714
49.2542
53.5946
55.5137
50.6562
50.6101
48.9071
49.3925
109.686
49.4242
54.1102
49.6671
49.0285
49.7351
61.9444
51.8258
50.176
51.6012
49.363
49.3311
86.2494
135.36
72.696
90.3386
49.4484
59.1503
50.9898
51.8531
49.6279
83.4768
133.66
60.2673
132.026
86.7859
110.746
49.3149
51.7325
88.5439
51.5096
50.1085
49.1838
49.2033
49.9663
49.9668
49.9055
50.2541
47.6785
73.9552
55.7845
62.4167
96.4849
48.0222
54.4851
96.3125
71.9695
80.2667
51.0349
69.3277
49.2449
50.0561
49.4185
78.5898
79.1297
54.5818
95.499
106.925
125.378
69.8886
72.2759
56.567
65.4795
51.9204
50.4532
64.7463
77.015
49.6418
49.404
60.167
153.622
112.467
112.94
65.0901
51.1178
109.685
48.3984
97.2218
48.7748
67.279
49.4437
50.8761
48.4056
50.2027
49.6121
51.7605
52.0495
50.9414
52.0886
50.5639
126.83
50.3174
49.7822
56.2129
50.3281
51.8031
50.5366
60.7136
48.6576
49.1991
49.3094
49.481
48.891
68.4167
50.4869
49.702
49.9394
49.6501
96.3793
61.578
70.4063
68.922
62.5429
63.5178
59.6122
49.284
47.6507
62.5407
98.9206
80.4251
61.4185
55.4801
56.7047
58.2446
48.9373
49.3769
49.2476
49.5379