/*--------------------------------*- C++ -*----------------------------------*\
| =========                 |                                                 |
| \\      /  F ield         | OpenFOAM: The Open Source CFD Toolbox           |
|  \\    /   O peration     | Version:  2506                                  |
|   \\  /    A nd           | Website:  www.openfoam.com                      |
|    \\/     M anipulation  |                                                 |
\*---------------------------------------------------------------------------*/
FoamFile
{
    version     2.0;
    format      ascii;
    arch        "LSB;label=32;scalar=64";
    class       volVectorField;
    location    "0.0207921";
    object      U;
}
// * * * * * * * * * * * * * * * * * * * * * * * * * * * * * * * * * * * * * //

dimensions      [0 1 -1 0 0 0 0];

internalField   nonuniform List<vector> 
3989
(
(10.0722 -0.0143546 -0.0308668)
(10.1219 0.198261 0.00740453)
(9.71757 0.0144946 -0.0173068)
(10.0319 -0.159978 0.113599)
(9.7122 0.491546 0.172639)
(9.97785 -0.0525018 0.0987395)
(10.0371 -0.125503 -0.0601993)
(9.74832 -0.0521004 -0.0205261)
(9.90988 0.131925 -0.0253355)
(10.4557 0.211962 -0.062875)
(10.0339 0.0700992 0.0407451)
(10.0221 0.117103 -0.0474219)
(10.2964 0.124543 -0.178062)
(9.99603 0.00166682 0.033675)
(10.0154 0.0156687 0.0047637)
(9.13313 0.570935 0.524156)
(9.95654 -0.0608726 0.0989777)
(10.1964 0.23964 0.0586473)
(9.99565 0.219918 0.127168)
(9.67605 0.409646 0.0850613)
(9.81907 0.283811 0.173435)
(10.2114 0.0881244 -0.088587)
(10.2793 0.12893 0.0723498)
(10.3189 0.0647311 0.120618)
(9.94517 0.229598 0.0324681)
(10.1129 -0.020151 -0.0185175)
(10.2823 0.0622904 0.146986)
(9.99108 -0.0918605 -0.0170878)
(10.0059 0.0162325 0.0950422)
(9.95637 -0.0125804 0.0140117)
(10.2441 -0.162231 -0.0775995)
(10.3969 0.0165481 -0.115818)
(10.0732 0.198011 -0.0832295)
(10.0321 -0.010678 -0.00833811)
(10.2628 -0.0059404 -0.0359785)
(10.0427 0.0159752 -0.0837316)
(10.1043 0.0886051 0.114343)
(9.92274 0.270586 -0.0410852)
(10.1472 0.0900542 0.0308158)
(10.067 -0.0842886 -0.161579)
(10.1306 -0.152229 -0.0101726)
(10.0225 -0.0165565 0.0761979)
(10.0237 0.0533232 0.00328328)
(10.0648 0.00681279 -0.0512623)
(9.98633 0.244363 -0.112804)
(9.88107 0.147582 -0.0322984)
(10.0298 0.192909 -0.00558976)
(10.0777 -0.121713 -0.0279938)
(10.0075 0.0249195 0.0292241)
(10.0287 0.153657 -0.00413755)
(10.329 0.256658 -0.0209096)
(9.89061 -0.0438631 0.0894424)
(9.70482 0.0975276 -0.0100066)
(9.99266 -0.0844039 -0.00918255)
(9.87167 -0.0934002 0.0810985)
(10.0817 0.0127911 0.0228333)
(9.96968 -0.0700952 0.00364427)
(9.94198 0.096952 -0.0633862)
(10.3591 -0.032545 -0.0639401)
(10.1746 0.166883 -0.0943004)
(9.88077 0.0817556 -0.0493323)
(10.3602 0.0166565 0.00611526)
(5.79536 1.07952 -4.60248)
(1.34812 1.60874 -2.95921)
(9.29864 0.626074 0.148403)
(10.0047 -0.00273178 -0.00333698)
(10.0125 -0.0512332 -0.0208073)
(10.139 0.12831 0.129971)
(10.2488 0.196119 -0.0659905)
(9.99529 0.0426273 0.134828)
(9.96112 0.0239562 -0.0967511)
(9.97292 -0.0618506 -0.227024)
(10.0382 0.16171 0.00161299)
(9.99474 0.111802 -0.0610603)
(9.77579 0.100126 -0.00633762)
(9.68485 0.313416 -0.0511244)
(9.97877 0.142747 0.00436326)
(10.0275 0.178766 0.0167877)
(9.76662 -0.0659965 0.0264028)
(9.97725 0.1563 0.170641)
(9.93546 -0.00376556 0.0433213)
(10.1758 0.138379 0.0288763)
(10.0236 -0.0462471 -0.0381414)
(10.1815 0.582982 -0.0733078)
(10.0883 0.711046 0.0284091)
(9.99767 -0.0464814 0.00596989)
(10.0829 0.625138 0.0191123)
(9.97566 0.0145393 -0.0296632)
(9.78337 -0.0556637 -0.0137242)
(10.0026 0.0204694 -0.0393499)
(10.066 0.702366 -0.0258651)
(10.1776 0.0721799 -0.0124687)
(10.0904 0.0654481 0.0128612)
(10.129 0.183876 0.041186)
(10.1506 -0.0988907 -0.0904901)
(10.2528 0.975349 -0.198446)
(10.2808 0.750079 -0.156633)
(10.1001 -0.00990549 0.0148837)
(10.25 0.865517 -0.137141)
(10.5445 0.609607 -0.330783)
(10.0652 0.0399341 -0.0103188)
(10.1549 0.0447532 -0.00851426)
(10.0174 -0.0055074 0.00211629)
(9.97938 0.033021 -0.0168252)
(10.4095 0.26127 -0.0529333)
(9.98954 -0.00142845 0.00440369)
(9.9884 0.12081 0.114156)
(10.1348 0.0495271 -0.0243421)
(10.032 -0.0140196 -0.0351819)
(10.3303 0.213508 -0.0820258)
(10.2524 -0.0383018 -0.0888698)
(10.0206 -0.00218554 -0.0974289)
(9.71059 1.29748 -0.405913)
(9.78845 1.36341 -0.458179)
(10.0985 -0.0266051 -0.236197)
(9.94478 1.21462 -0.751195)
(9.84834 1.07856 -0.472976)
(10.0394 0.0411964 -0.0707148)
(10.0974 -0.00933236 -0.0101272)
(9.9361 -0.0133368 -0.0681429)
(9.99434 0.0394037 0.0227456)
(10.0538 0.013327 -0.00826342)
(9.82451 0.00236082 0.0804381)
(9.94806 -0.146859 0.0434635)
(9.51441 0.521653 1.00508)
(9.84779 0.0965077 0.0437575)
(9.93847 0.068703 0.101571)
(10.1953 0.219036 0.17563)
(10.1927 -0.222465 -0.169854)
(10.1832 0.21517 -0.123673)
(10.2137 0.0688327 0.0728256)
(10.0266 0.0337932 -0.0468123)
(10.5146 0.0118558 -0.142273)
(9.86411 -0.0180696 0.0545698)
(9.96371 -0.118427 -0.0169047)
(10.2975 -0.0398935 -0.0908522)
(10.0164 0.103354 0.0740637)
(10.0997 0.0380309 0.0162173)
(10.0541 -0.00752888 -0.0407691)
(10.0329 0.0167945 0.153862)
(10.0783 0.00504678 0.0657407)
(9.96543 0.112128 -0.0213103)
(10.3705 0.333842 -0.138514)
(9.98562 -0.0341631 -0.00889545)
(10.068 -0.00862324 -0.0507209)
(10.3686 0.231454 0.0370734)
(9.96983 -0.0710503 0.0627004)
(10.5863 0.434255 -0.23628)
(9.96798 0.0611033 -0.106711)
(9.90728 0.0994842 -0.0189588)
(9.60652 -0.0642664 0.160428)
(10.326 0.0236343 -0.103413)
(10.3666 0.0167751 -0.0555017)
(10.3125 -0.0137146 -0.0238651)
(10.27 -0.0653108 0.0125602)
(10.3055 -0.0856192 0.00760661)
(9.70692 0.0267187 0.0051956)
(10.3275 0.141762 -0.0139567)
(10.0645 8.55445e-05 -0.0371685)
(9.93915 0.0625191 -0.00668263)
(10.0366 0.00165332 0.00987184)
(9.58819 0.405343 -0.000496727)
(10.0372 0.107362 0.0045854)
(9.86719 -0.0422002 0.0577993)
(9.87623 0.118341 0.136714)
(9.52507 0.874112 0.650824)
(10.2254 0.432503 -0.0245095)
(10.0078 0.108356 0.0239182)
(9.5735 0.837647 -0.171108)
(10.0323 0.386964 -0.324394)
(9.68055 0.0561968 0.242828)
(9.60496 0.0899976 0.042391)
(10.0077 0.0806874 0.191949)
(10.2823 0.256317 0.131671)
(9.84831 0.170947 -0.0486217)
(9.83555 -0.168153 0.0303192)
(9.91403 0.0639481 -0.141508)
(10.0055 -0.167883 -0.0406386)
(10.1751 0.0486123 -0.0633814)
(10.0478 0.220178 -0.284546)
(10.066 0.225688 -0.0289681)
(10.29 0.48879 0.152071)
(10.1074 -0.00925787 0.0133979)
(10.2754 0.735629 0.345045)
(10.127 0.221165 0.09065)
(9.83837 0.0549227 -0.0414223)
(9.82571 0.567805 -0.793409)
(9.98791 0.113325 -0.0427983)
(10.04 0.0218052 0.0227874)
(10.0117 0.000881051 -0.00769762)
(9.96805 0.150712 0.232692)
(9.91711 0.841793 -0.583029)
(10.1309 0.0610807 -0.0235669)
(10.1468 0.136739 0.063974)
(9.94605 -0.233218 0.0326695)
(10.328 0.0468253 0.039746)
(0.634245 1.32404 -4.68716)
(9.04615 0.643053 0.465505)
(9.65579 0.671106 -0.414816)
(10.1038 0.380629 0.00417285)
(10.3079 0.0880551 -0.267107)
(10.0761 0.0255164 -0.0122985)
(9.97172 -0.0189178 0.0549758)
(10.1978 0.0672674 0.0522261)
(9.97162 -0.0311587 0.00660146)
(10.1242 0.06909 0.0590375)
(10.0741 -0.0332425 0.0929531)
(10.0347 -0.0797607 -0.0211698)
(8.64216 1.44294 -1.44027)
(8.69349 1.46914 -1.74296)
(10.1127 -0.0753894 0.0618546)
(8.9406 1.619 -2.47237)
(7.93896 1.35998 -1.92458)
(9.66902 -0.0680207 0.104609)
(10.2309 0.129022 -0.0147776)
(12.9853 1.12674 -2.90928)
(8.20792 1.41042 -2.11153)
(9.90415 0.131512 0.0681484)
(9.92639 0.0241352 -0.00917745)
(9.6778 0.0552818 0.0523863)
(9.9438 0.167451 0.156971)
(10.0477 0.278299 0.0904933)
(9.90254 0.094583 -0.0237373)
(9.62713 0.87689 -0.618533)
(9.92634 -0.176089 0.210626)
(10.0341 0.16216 0.0354714)
(9.82749 0.0712415 0.075119)
(9.59452 0.80034 -0.419582)
(10.025 -0.0698588 -0.0368506)
(10.2036 0.05773 -0.00517069)
(9.98762 0.0759109 0.120423)
(10.0021 0.0464955 0.0270525)
(10.0861 0.0679248 0.179132)
(10.1895 0.0625392 0.136213)
(10.0127 -0.0493616 -0.0190099)
(10.0425 -0.0516519 0.00596842)
(9.87077 0.148436 -0.137769)
(10.0642 0.0657581 -0.107684)
(10.0112 0.0732755 0.000447333)
(10.3276 0.146252 0.00104057)
(9.3961 0.567964 0.446722)
(10.0593 0.0428586 0.0137285)
(10.0526 -0.039647 -0.0219096)
(9.96749 -0.0486588 0.0630425)
(9.98995 -0.0286853 0.000356506)
(9.52985 0.674307 0.254463)
(9.98762 0.014804 -0.0345253)
(10.1473 0.0793964 -0.0260979)
(10.0691 -0.00539004 -0.205278)
(10.1341 0.0169109 -0.202138)
(10.0532 0.0448511 -0.0320126)
(9.74184 0.677274 0.0518573)
(10.1119 0.0095225 -0.0539017)
(9.97816 -0.0891444 -0.025991)
(9.9395 0.0219474 -0.0450272)
(10.0705 0.0339124 -0.0178544)
(9.99767 0.0693331 0.158095)
(9.97884 0.150294 -0.0860105)
(9.63056 -0.0426591 -0.124811)
(10.0428 -0.201495 0.208639)
(9.90035 -0.0246995 -0.0327527)
(10.1661 0.144059 -0.0481606)
(10.0897 0.0574713 0.0633316)
(10.1858 0.123008 0.0405032)
(9.98795 0.323901 0.0938216)
(9.7796 0.0449842 -0.00966411)
(9.73219 -0.174877 0.0532082)
(7.84239 1.18541 -1.35145)
(10.0044 0.0420512 -0.0534757)
(10.1549 0.169604 -0.150939)
(9.92861 0.0507147 -0.116282)
(9.92397 0.0548568 0.0653455)
(9.88469 -0.0324999 0.0415045)
(10.2457 0.525488 -0.106016)
(10.0369 0.118169 0.179638)
(9.94497 0.359626 -0.0780367)
(9.92405 0.148046 0.0282968)
(9.99291 0.0216618 0.217219)
(9.62793 -0.148876 -0.0815511)
(10.372 0.427349 -0.080866)
(9.98734 0.0247836 0.0325466)
(10.1975 0.207931 -0.0249413)
(10.1027 0.09773 -0.0546091)
(10.2665 0.163089 -0.0306573)
(9.95983 0.25496 -0.0326741)
(9.96105 0.242402 -0.0184121)
(10.2721 0.0626487 0.00307993)
(10.3744 -0.0435413 -0.0273856)
(10.1741 0.103206 0.01889)
(10.0789 0.132996 -0.0475949)
(9.86402 -0.0743445 0.0246007)
(9.88696 -0.204819 0.047961)
(10.1588 0.0830339 0.102768)
(9.88572 0.157489 0.0637504)
(10.0597 -0.0679814 0.0357902)
(9.57177 -0.422182 -0.00119755)
(10.0759 0.0363035 0.0690572)
(10.0228 0.174292 -0.00900311)
(6.80157 1.37542 -2.8272)
(7.84536 0.959216 -2.12408)
(9.83617 -0.0125689 0.0697655)
(10.1001 0.103451 0.0117455)
(10.0024 0.0235658 0.028228)
(9.27448 0.645183 -1.38868)
(10.051 0.0639402 0.0287226)
(7.55668 0.89105 -1.03455)
(10.2677 0.0930209 0.032995)
(9.99331 0.0910365 0.091669)
(10.0119 0.0563904 0.111062)
(9.98519 0.0461291 -8.32916e-05)
(9.53664 -0.0209247 0.266222)
(10.3769 0.395038 0.0352115)
(7.0831 0.82103 -0.986532)
(6.45287 0.977227 -1.42081)
(10.0243 0.0396348 -0.134157)
(9.92513 0.159649 -0.0957616)
(10.1939 0.546627 0.108853)
(10.0244 0.139794 0.0576216)
(10.1959 0.137729 -0.00788058)
(9.96386 0.138232 0.217951)
(10.4332 0.237197 0.165773)
(10.1049 0.16783 0.022606)
(10.1387 0.215099 0.0158376)
(10.0002 0.377746 0.219079)
(10.3271 0.28466 -0.0986627)
(9.90171 1.04255 -1.457)
(10.0335 0.00568296 0.060983)
(9.90836 0.0866999 0.490125)
(10.1203 0.119662 0.00959245)
(10.2056 0.108943 0.0753901)
(10.3022 0.413686 0.0810371)
(9.86254 0.308024 0.0847911)
(8.15136 0.396816 0.111382)
(9.98115 0.0250598 0.0428859)
(10.0167 0.620271 0.191863)
(10.0334 0.215989 -0.23105)
(9.95587 0.216703 -0.0125563)
(10.0068 0.111593 0.0362512)
(9.89057 0.0315049 0.284315)
(9.95492 0.0131256 0.197901)
(7.46878 0.663242 -1.74206)
(9.98324 0.108365 0.0178048)
(10.1461 0.250458 -0.0593528)
(9.91457 0.0643025 0.0478509)
(10.3642 0.505135 0.0714238)
(9.37162 1.05138 -0.722217)
(8.93147 0.811026 -5.0588)
(9.99846 9.5898e-05 0.00366708)
(10.4027 0.217685 -0.0445085)
(10.1135 0.348009 0.459269)
(10.1702 0.177335 -0.0105432)
(9.65643 0.0226403 -0.0427595)
(9.60422 0.0174189 -0.0611567)
(10.0308 0.131283 -0.0150794)
(9.95119 0.205234 0.277197)
(10.0153 0.00833416 -0.00578746)
(9.89727 0.097416 0.0305898)
(9.90919 0.201645 -0.00378278)
(7.88953 0.338199 -7.3089)
(10.0497 -0.052129 -0.0441496)
(10.4231 0.064028 0.0443602)
(9.82423 0.0280751 0.0118504)
(9.71653 -0.00857787 -0.00228201)
(9.07544 1.63901 -5.41085)
(9.84246 0.829184 -2.79114)
(10.074 0.223277 -0.00285973)
(9.95536 0.0682813 -0.0149109)
(9.91304 0.389162 0.0130983)
(10.1237 0.0906863 -0.0625478)
(10.2044 0.0133212 -0.154254)
(9.95175 0.042552 -0.0690535)
(9.86068 0.533261 -0.320084)
(10.3262 -0.0181797 0.0567982)
(9.85715 0.823029 0.129466)
(9.98445 0.123858 0.0909266)
(9.9232 0.428245 0.0597621)
(10.2617 0.117154 0.124809)
(10.134 0.0179825 -0.050632)
(10.4 0.2492 0.181702)
(10.3589 0.205084 -0.0548309)
(9.98072 0.102731 -0.03182)
(10.0275 -0.0381758 -0.0456403)
(10.1249 -0.019123 0.00899379)
(10.1869 0.115448 0.0361363)
(10.0503 0.0592816 0.0237795)
(10.2059 0.555283 0.128654)
(10.0397 0.0519108 -0.150147)
(10.1267 0.176828 0.0574339)
(10.0219 0.127934 -0.0912788)
(10.0894 0.149877 -0.190281)
(10.0353 0.16554 0.0861078)
(10.0061 0.214668 -0.0308391)
(9.8988 0.0788979 0.0747812)
(9.75694 0.0341583 -0.0642003)
(10.0137 0.066305 -0.208222)
(9.8127 0.0655833 -0.0368603)
(10.0454 -0.0768297 -0.0501287)
(9.93021 0.0383083 -0.0460314)
(9.28148 0.695937 -1.16596)
(10.1131 0.300017 0.189764)
(10.0504 0.073941 0.0253832)
(10.1518 0.00984617 0.124156)
(10.0372 -0.0537201 0.124552)
(9.94873 -0.0370459 0.0882028)
(10.096 -0.0172442 0.0983164)
(9.66985 0.0941553 0.0284824)
(9.61858 -0.158983 -0.0684118)
(11.6483 0.818558 -2.78759)
(9.86594 0.0134916 0.173328)
(9.21724 1.23747 -1.39508)
(10.2064 0.122791 0.0663692)
(10.7378 1.01439 -2.12391)
(8.98309 0.832788 0.0666028)
(1.54157 1.11927 -3.69717)
(10.0895 0.30093 -0.0911058)
(8.30818 1.41237 -3.01641)
(9.66781 0.501387 0.392937)
(9.73215 0.698952 0.198134)
(9.6496 0.772434 -0.453881)
(10.2822 0.501482 0.371008)
(3.19162 1.30082 -4.7143)
(9.98035 0.0178862 -0.130881)
(9.7583 0.0658156 -0.218702)
(0.368093 1.44494 -5.64924)
(9.76109 -0.00850058 0.165737)
(9.75738 0.100814 -0.0375444)
(9.70134 0.316423 0.0673352)
(6.08252 1.21973 -2.59615)
(9.79223 0.799022 -1.10812)
(9.39568 0.436708 -0.381325)
(9.88507 -0.0190795 -0.0739508)
(9.82612 -0.0647989 -0.0739032)
(10.2696 0.212496 0.102828)
(10.4157 0.0686776 -0.0178286)
(9.93586 1.29127 -4.84513)
(9.68644 0.585958 -0.133807)
(9.977 0.0827594 0.014252)
(9.88643 0.0557239 -0.0111087)
(9.8648 0.521253 0.483254)
(9.87212 0.180202 0.0110721)
(9.72072 0.394383 0.488449)
(8.91444 1.04816 0.016247)
(9.24075 0.849256 -0.355582)
(9.91795 0.154425 -0.101438)
(10.0274 0.0616213 -0.015748)
(9.97661 0.494576 0.00133259)
(9.99616 0.140307 -0.00261224)
(10.0651 0.0632723 -0.11285)
(10.028 0.038249 0.0192559)
(10.0156 0.088161 -0.00655279)
(9.98403 0.456135 -0.634712)
(9.95073 0.110693 0.028753)
(9.81249 -0.0315897 -0.00920618)
(9.63567 -0.0393088 0.177188)
(7.99415 0.772174 0.39119)
(9.67855 -0.151709 -0.0423653)
(9.98673 -0.0325004 -0.0103859)
(9.919 -0.12114 1.69215e-05)
(9.64421 0.198563 0.115401)
(9.66054 -0.153926 0.0665945)
(10.233 0.254274 0.585199)
(10.0585 -0.174718 -0.0549058)
(10.0444 0.0178071 0.0230668)
(10.0624 -0.00106295 -0.0230041)
(10.0345 -0.0108466 0.0166547)
(10.0314 -0.141421 0.00227786)
(10.2627 -0.0149502 0.178909)
(10.1892 0.04274 0.100564)
(10.071 0.0647268 0.0209113)
(9.95893 0.0425646 0.08952)
(10.1398 0.0265416 0.0157245)
(9.99905 0.0404641 0.030331)
(9.94672 0.0354442 0.0405)
(9.98714 0.0476573 0.00360376)
(9.91171 0.273971 0.114282)
(9.99341 0.00667128 0.0431791)
(10.1129 0.0464167 0.0633396)
(10.1576 -0.0445636 -0.159914)
(10.0601 -0.0279661 -0.0724901)
(10.2166 0.0231617 -0.0821476)
(10.0174 0.053689 -0.0303415)
(10.1019 0.179475 0.0412758)
(10.0641 0.0463405 -0.130995)
(9.89293 0.15874 -0.0674961)
(9.64304 0.299436 0.135763)
(10.0019 -0.0104017 -0.0139592)
(10.1491 0.0192424 -0.136678)
(10.1435 0.0336075 -0.0407618)
(9.95869 0.079157 0.0254602)
(9.71049 0.0337279 0.188016)
(10.1942 0.274993 -0.0210683)
(9.68584 0.0650642 0.0166561)
(9.99293 -0.112728 -0.117679)
(9.99568 -0.134616 -0.0822355)
(10.1606 -0.0357169 -0.152131)
(9.91762 0.0470578 -0.0170811)
(9.82856 0.212679 0.447102)
(9.81133 0.266621 0.0276458)
(10.057 0.0128643 0.131528)
(10.1818 -0.0977041 -0.00774898)
(10.0668 -0.176773 0.209059)
(10.0405 0.117035 -0.018139)
(9.86179 -0.0389651 -0.0236077)
(9.95345 0.138933 0.049083)
(9.8381 0.0116956 -0.0103257)
(9.95879 0.263043 -0.20642)
(10.2239 0.0189269 -0.0187157)
(9.90959 0.0978472 0.0584397)
(10.0833 0.120245 -0.0115348)
(10.2031 0.0624379 0.0623259)
(9.77668 -0.208918 0.144759)
(10.1089 0.266613 -0.00771271)
(10.2258 0.172759 -0.279461)
(10.0551 -0.0552978 0.0121951)
(9.95202 0.110161 0.0174689)
(10.1574 0.142908 0.00947459)
(10.0801 0.0218737 0.042551)
(10.3321 0.136195 0.0284947)
(10.4009 0.065257 0.0216131)
(10.3409 0.0903595 0.0175664)
(10.2896 0.10269 -0.0714991)
(10.437 0.0523319 0.0673922)
(9.72114 0.0384316 -0.11041)
(10.2564 0.932639 -0.0181857)
(10.4272 0.0275577 0.0585391)
(10.5103 0.257924 -0.0107036)
(10.233 0.524047 0.00118367)
(9.99144 0.222221 -0.10124)
(10.1828 0.29063 0.0128444)
(10.2984 0.29187 0.0132349)
(9.96726 1.14933 -0.513658)
(9.94018 0.389627 -0.0182426)
(10.0267 0.0595111 -0.0856623)
(9.76785 0.374327 0.0597521)
(9.91326 0.378558 -0.0765212)
(10.326 0.393228 -0.0072771)
(9.39814 0.614146 -0.723453)
(10.3751 0.0926002 0.0880945)
(10.2823 0.0986679 0.0496625)
(10.1101 0.166797 0.034943)
(9.95497 -0.0506417 0.0608735)
(10.054 -0.0354459 -0.0624472)
(9.79771 0.153649 -0.0651993)
(5.40441 2.122 -1.24858)
(1.54259 0.935482 -1.08049)
(9.91167 0.393227 0.299215)
(9.67855 0.618591 0.478241)
(9.63414 0.691362 -0.212708)
(10.0006 0.059141 0.0129036)
(9.89545 -0.0757008 0.0190679)
(9.50479 -0.0227597 0.346129)
(9.9967 -0.0100492 0.0269831)
(9.96562 0.103023 -0.0246446)
(10.086 0.424045 0.111608)
(10.2358 0.356737 0.347169)
(10.257 0.296434 0.49282)
(9.86957 0.00295055 0.0477362)
(10.0817 0.244685 0.164983)
(9.83347 0.287758 0.205451)
(10.0631 0.263459 0.0566624)
(10.4603 0.0481596 0.0186024)
(10.2944 0.42784 0.0743752)
(10.335 0.098274 -0.0646878)
(9.63062 0.679555 0.599019)
(10.0774 0.190996 0.0916474)
(10.1862 0.22612 0.0110547)
(9.53931 0.599231 0.544698)
(9.94139 0.99275 -0.967498)
(10.1601 0.182835 0.0103192)
(10.2184 0.135215 0.0922859)
(10.3051 0.116309 0.0527751)
(10.3495 0.576806 0.0407385)
(8.91694 0.843636 -0.0729118)
(7.04188 1.12284 -2.39357)
(10.2944 0.282852 -0.0206408)
(10.4958 0.226799 -0.0710138)
(10.475 0.328047 -0.0082595)
(10.0213 0.302217 0.17328)
(9.89386 0.45255 0.00316816)
(8.48507 0.565542 0.633133)
(9.77713 -0.0513939 0.102652)
(9.78465 -0.0973444 0.0534029)
(10.2505 0.161126 -0.199295)
(8.45701 1.01726 -1.17183)
(9.21481 0.79137 0.450244)
(9.88146 0.288762 0.133184)
(10.3667 0.0681578 -0.041052)
(10.3935 0.240272 -0.00952697)
(9.42851 0.178322 -0.102735)
(9.96718 0.37239 -0.0358605)
(10.0703 -0.00472276 0.0741885)
(10.3293 0.615849 0.263281)
(9.97414 0.127796 -0.0742438)
(0.103161 0.727758 -3.79345)
(3.10647 1.00565 -4.53534)
(10.2454 0.347447 0.0253605)
(10.001 0.0301476 0.00949627)
(10.0057 -0.0386729 -0.0689568)
(10.015 -0.111265 0.292377)
(9.89391 0.0113305 -0.0827212)
(9.76774 -0.0711803 -0.0524038)
(9.89683 0.0281239 0.0170671)
(10.0257 0.145173 0.0155954)
(10.0558 0.0445276 -0.0282007)
(10.2549 0.18186 -0.0143817)
(9.88046 0.0620673 0.164045)
(9.88242 0.186558 0.204618)
(9.97762 0.0936989 0.0131078)
(10.2175 0.35863 0.104858)
(9.99034 0.044087 0.0219948)
(10.271 0.095896 0.079942)
(9.8585 0.272562 0.230145)
(9.97316 0.0106139 -0.0162246)
(10.3839 0.368854 0.0267482)
(9.99459 -0.100368 0.00415725)
(10.5171 0.259017 0.00824042)
(10.1064 -0.0432144 -0.0241411)
(9.79113 0.132762 -0.0383692)
(9.80363 -0.0490255 0.157672)
(9.72698 0.0546103 -0.00874837)
(9.76959 0.0523851 0.141209)
(10.4743 0.0725166 -0.0384755)
(10.2409 0.0944921 -0.100376)
(10.0002 0.0854405 -0.0683459)
(9.6525 -0.020038 -0.0499965)
(10.0766 0.262384 -0.0162231)
(9.91143 0.349134 0.249231)
(10.0643 0.0685455 -0.0137048)
(9.99932 0.00681207 -0.000171736)
(9.82685 -0.0672699 -0.178683)
(10.0363 0.170443 -0.01173)
(9.8576 -0.00377146 -0.177954)
(9.95637 -0.067232 -0.281655)
(9.99159 0.134275 0.0465295)
(9.99066 -0.0330476 0.00696795)
(10.1121 0.0353931 0.123103)
(9.98416 0.0442851 -0.0584634)
(10.1446 0.0713075 0.138098)
(10.0042 0.0301624 -0.00394432)
(10.0057 -0.0146489 -0.00308686)
(10.1619 -0.0531807 -0.00507623)
(10.0313 0.0152228 0.000784221)
(9.86244 -0.0388998 -0.0390083)
(9.99322 0.0426144 -0.0457055)
(9.9 0.180514 0.0947008)
(9.94748 -0.0226537 0.0200407)
(10.0544 -0.0239021 -0.011734)
(10.0104 -0.0355511 0.000677403)
(9.9315 0.0350738 -0.0390703)
(9.99705 -0.0752628 0.0813818)
(10.0487 0.162365 0.0500329)
(9.68684 0.0467349 0.0128276)
(10.148 0.0556106 0.0787882)
(9.77468 0.129334 0.0601124)
(10.0234 -0.053516 0.0787234)
(10.1411 -0.0137262 -0.112951)
(9.97878 0.00654112 0.00348048)
(10.1963 0.160046 0.205433)
(10.1015 -0.0503519 -0.0893997)
(10.1213 -0.0276474 0.0507946)
(10.2667 0.164722 0.0168162)
(10.2351 0.0353168 -0.105242)
(9.71235 -0.129267 0.00960548)
(9.95849 0.0899072 -0.0738982)
(9.93477 0.0307051 0.0249239)
(9.80436 0.0894082 -0.139525)
(9.92154 0.129429 0.0243042)
(9.76837 0.0335102 -0.206369)
(10.2387 0.360955 0.134252)
(10.1083 0.164719 0.119307)
(10.1344 0.0494665 0.0432596)
(10.0515 0.0360007 0.0739693)
(10.4117 0.168896 0.0748303)
(10.1518 0.144063 -0.00859101)
(10.2772 0.269285 0.0728785)
(10.2717 0.26196 0.755203)
(10.3534 0.308588 0.0442392)
(9.91767 -0.0589125 -0.17687)
(9.98268 0.299036 -0.0731417)
(10.0349 0.0607063 -0.011941)
(9.98268 -0.18907 -0.111548)
(10.2105 0.59586 0.170643)
(10.0685 0.634908 0.243749)
(9.90123 0.380429 0.171752)
(9.8283 0.544297 0.299791)
(9.90422 0.443259 0.247971)
(10.0829 0.771977 -0.229065)
(10.0238 0.134183 0.178083)
(10.0799 0.737197 0.412465)
(10.0578 0.928039 0.399383)
(10.324 0.735286 0.29664)
(9.98708 -0.151409 0.0116049)
(10.117 0.727249 0.320521)
(10.0844 0.0132401 0.167104)
(10.1205 0.0316032 -0.158395)
(10.3409 0.199805 -0.0577851)
(9.92612 -0.0161508 0.0619695)
(10.069 -0.0464154 -0.0297004)
(9.9787 0.15208 0.0322246)
(10.362 0.243879 0.125569)
(10.3975 0.138957 0.114419)
(10.3947 0.457823 0.0755778)
(9.94864 0.217908 -0.0449279)
(10.3357 0.30168 0.0366852)
(10.1905 -0.0240739 0.0540132)
(10.2159 0.350829 -0.0716831)
(9.83773 0.0910648 0.0503075)
(9.78424 0.0766874 0.0243774)
(9.96758 0.168859 0.12127)
(10.0533 0.272184 -0.0583776)
(9.96359 0.00842383 -0.000892216)
(9.79744 0.0960811 -0.010253)
(9.78748 -0.201071 0.010737)
(9.94798 -0.243579 0.0263287)
(9.94131 0.0900086 0.00805437)
(10.1644 -0.0209332 0.142964)
(9.90487 0.148985 -0.0317151)
(9.90961 0.341415 0.0171984)
(10.0583 0.122403 -0.158604)
(10.0374 -0.121225 -0.0505474)
(9.81668 -0.106145 -0.00869212)
(9.78959 -0.105273 -0.00926203)
(10.0633 -0.0422071 0.0778457)
(10.1206 0.113331 -0.0520835)
(10.0068 0.206135 0.0497409)
(10.185 0.0299621 -0.263774)
(9.88735 0.176465 0.0248227)
(9.30894 0.528205 -0.0294386)
(10.0924 0.286368 0.0499289)
(9.91181 0.0885354 -0.0558017)
(9.75065 -0.280006 -0.0852706)
(9.76738 -0.0384383 0.029483)
(9.74581 -0.01146 0.0141188)
(9.79032 -0.0159794 0.00883623)
(9.92565 -0.204473 0.0190902)
(10.1415 0.491253 0.191979)
(10.6754 0.614762 -0.706976)
(10.2304 0.332324 -0.450368)
(9.92063 -0.181477 0.00876548)
(9.78858 0.0202726 -0.0106333)
(10.0103 -0.173941 0.060706)
(9.80984 0.0707274 0.105003)
(10.0969 -0.00216349 0.0877282)
(9.13041 0.824373 -0.0525152)
(7.98242 1.19183 -4.75297)
(9.98967 0.169059 -0.121914)
(10.2671 0.639859 -0.495099)
(5.91438 1.47168 -3.12478)
(10.1441 0.0920426 -0.135114)
(8.38452 0.449472 0.013046)
(9.99074 0.104974 0.0070704)
(9.9158 0.180352 0.163248)
(10.4228 0.140835 -0.15945)
(10.0758 0.29331 -0.122424)
(8.24453 1.45842 -5.2453)
(5.5517 1.48302 -6.92661)
(2.95459 1.6942 -9.77299)
(10.086 0.134267 -0.142546)
(9.75474 -0.143539 -0.0102285)
(9.7192 -0.149754 -0.00759167)
(9.79397 -0.0781552 -0.000419932)
(9.95338 -0.0467606 0.0661365)
(9.7523 -0.0270759 -0.0124264)
(9.98209 -0.00197119 0.0532954)
(9.87321 -0.0361804 0.0180334)
(10.0024 0.00539538 0.0239781)
(9.96287 0.154191 0.119438)
(10.0932 0.11915 0.0322014)
(9.79387 0.0979995 0.0736577)
(10.0132 -0.0611143 -0.0353463)
(9.86966 0.0425412 -0.127072)
(9.94888 0.04052 0.0093078)
(10.0723 0.0161264 0.123834)
(10.0426 0.210031 -0.0138065)
(10.0181 0.0483825 -0.113764)
(9.61886 0.0336451 -0.0862041)
(9.74068 0.162189 -0.0284237)
(9.78689 0.0717806 0.110464)
(9.89255 -0.101419 0.0826312)
(10.0046 -0.00985581 0.00287558)
(10.3516 0.257912 0.0521868)
(10.0305 0.0958493 -0.146438)
(9.84922 -0.0277733 0.0696972)
(10.3293 0.135173 0.00360002)
(10.4481 0.0255951 0.01993)
(10.0032 0.115637 0.0569125)
(9.90482 -0.0133776 0.0572033)
(9.86572 0.0130404 0.117817)
(9.7921 -0.119302 0.180579)
(9.86051 1.28187 -0.35082)
(10.1965 -0.0227741 0.0688332)
(10.2406 0.167212 -0.00911519)
(9.89167 0.230583 0.00335587)
(8.87574 0.605347 0.328203)
(9.62121 0.017014 -0.0207524)
(9.61502 -0.0419257 0.0523182)
(10.2091 0.33005 0.066018)
(9.49744 0.380697 0.0156732)
(10.0242 -0.0122314 0.0983239)
(10.021 0.139346 0.0394485)
(10.4049 0.192718 0.138682)
(10.2706 0.0242719 -0.0902827)
(10.309 0.00625708 -0.147563)
(10.4538 0.251787 0.11259)
(9.90508 -0.226294 -0.00994776)
(9.77456 0.0666908 0.049931)
(9.76335 -0.0775525 -0.0132316)
(9.87035 -0.060767 0.0198368)
(9.74284 -0.0514361 0.0798793)
(9.74106 -0.0507289 0.0791759)
(9.80496 -0.056999 -0.0282384)
(9.80541 -0.0175179 0.0297211)
(9.52841 -0.0620779 0.178006)
(9.90771 0.0204094 -0.00889413)
(10.0595 0.125236 -0.0259568)
(8.93053 0.52722 -1.67764)
(7.74055 0.622224 -1.60712)
(7.7721 0.615176 -1.2442)
(8.42206 0.711866 -1.8309)
(9.40089 0.588939 -0.0297243)
(9.88424 0.918835 -0.371436)
(9.76114 0.030446 0.292151)
(10.1343 -0.000711615 0.0109484)
(9.92452 0.0839891 -0.031024)
(10.28 0.0218503 -0.050572)
(7.98392 0.588293 -1.09476)
(9.87952 0.374879 -0.178373)
(10.0956 0.137935 -0.0248627)
(9.8323 0.394977 -0.31645)
(10.194 0.278241 0.180569)
(10.486 0.325643 0.212419)
(10.1658 0.286463 0.0509312)
(10.2328 0.102871 0.119836)
(10.3738 0.453097 0.17292)
(10.105 0.0885367 -0.0343681)
(10.3141 0.438149 0.0966076)
(10.365 0.0862779 -0.0634888)
(10.3261 0.479907 0.157139)
(10.0684 0.441553 0.0590808)
(9.88538 0.243362 0.142513)
(10.2203 0.275197 0.150589)
(9.78548 0.342793 0.0860358)
(6.15477 1.02646 -0.71823)
(8.34277 0.624461 -1.62481)
(10.0836 0.0766545 0.0247115)
(10.0472 0.208498 0.0915792)
(10.3744 0.238048 0.00409793)
(10.1291 0.191318 0.125205)
(10.1113 0.0500939 0.0510355)
(9.62184 -0.0305617 0.292649)
(10.0788 0.696041 -0.114321)
(10.1945 0.836624 -0.118893)
(9.69441 1.35305 -1.31714)
(9.84676 0.725414 -0.751949)
(10.0806 0.408962 -0.207266)
(10.2555 0.127882 0.119262)
(10.3782 0.562583 0.113865)
(10.038 0.883164 -0.260144)
(10.3866 0.0652096 -0.00590354)
(8.87046 0.916133 0.0103062)
(10.2738 0.342131 0.2215)
(10.0095 0.24725 0.110258)
(9.58815 0.420203 0.244267)
(10.2945 0.507848 0.0450986)
(10.4655 0.566738 -0.290684)
(10.2965 0.00429384 -0.0235999)
(10.2849 0.478509 2.46139e-05)
(6.80603 1.30135 -5.51577)
(10.4143 1.5628 -3.0696)
(10.2745 0.218562 -0.0279074)
(9.95812 -0.0145924 -0.0815145)
(10.9764 0.878325 -2.57429)
(9.92037 0.274958 0.132535)
(11.044 1.05072 -1.98007)
(9.90067 0.991127 -3.22696)
(10.202 0.463296 -0.0727118)
(10.0234 -0.0207329 0.0537821)
(10.0204 0.185958 -0.105824)
(10.3198 0.839695 -1.5412)
(8.78622 0.532281 -0.237818)
(10.0281 0.179221 0.0790131)
(12.5524 1.3577 -4.34402)
(10.1823 0.222053 0.00371637)
(10.1833 0.406115 0.176317)
(10.4486 1.42172 -4.13821)
(9.87967 0.841355 -1.38512)
(10.1991 0.20722 -0.0160942)
(10.1385 0.08372 -0.10505)
(10.1055 0.170634 -0.136217)
(10.0764 0.467498 -0.73795)
(10.214 0.44961 -0.764163)
(9.82198 0.505855 -0.384038)
(9.82483 0.465819 -0.202445)
(9.83757 0.535706 -0.287137)
(9.78899 0.223821 0.0151053)
(9.76348 0.252794 -0.0720041)
(9.85423 0.152034 0.107869)
(8.08674 1.04819 -0.409841)
(9.92753 0.0216728 -0.115654)
(9.7243 -0.140117 0.0198705)
(10.876 1.46894 -3.022)
(9.68914 -0.020077 0.0622765)
(10.4997 1.24651 -2.28105)
(9.7902 0.206779 0.0151824)
(9.78688 -0.0355653 -0.0201091)
(7.22027 0.957071 -0.369786)
(11.5412 1.58653 -5.3619)
(9.52683 0.669299 -4.98389)
(13.2231 1.56012 -3.55914)
(10.865 2.09631 -7.4008)
(12.351 1.06445 -2.61501)
(9.73994 0.541034 -1.00975)
(9.40316 0.564052 0.790671)
(10.0434 0.903331 -0.355895)
(7.30767 0.313923 -2.16351)
(2.3071 1.2563 -3.59715)
(9.87267 0.758858 -0.0320103)
(8.46003 0.618931 -1.38229)
(8.92563 0.457861 -0.931928)
(1.36285 1.7901 -5.64793)
(9.55276 1.33994 -2.07164)
(8.62531 1.12443 -3.13469)
(9.67038 0.111883 -0.0612644)
(10.0669 0.0999722 0.0273436)
(9.47588 0.676528 0.490043)
(10.1171 0.0196737 0.0460692)
(9.54175 -0.135388 -0.0870328)
(9.5904 0.456647 -0.414314)
(9.97722 0.62092 -0.800176)
(9.43622 0.512033 -0.00139426)
(9.7124 1.49318 -3.16708)
(10.0836 0.878656 -0.660586)
(10.1661 0.947187 -0.735912)
(9.90308 0.553698 0.025953)
(9.81523 0.192534 -0.00344847)
(10.3213 0.35493 -0.00951945)
(9.94926 0.893837 -0.716413)
(10.3778 0.968278 -1.27302)
(9.68956 -0.0689496 0.0333316)
(9.0906 0.46187 -1.09396)
(0.808345 1.08092 -2.34276)
(2.28532 1.21706 -1.45717)
(10.0622 0.0585464 -0.0274069)
(9.43775 0.681368 -1.74771)
(9.47249 0.869493 -0.584569)
(6.6454 1.37194 -2.05554)
(9.90395 0.595389 -0.280439)
(9.82243 0.592901 -0.454548)
(8.57245 0.607924 -0.216211)
(9.60167 0.48521 0.902204)
(10.0506 0.0719218 0.0768173)
(9.87199 0.23935 0.263652)
(9.6912 0.917927 0.33814)
(8.40958 0.575109 -0.0623393)
(8.23149 0.987935 -1.79953)
(9.67678 0.964416 -0.194161)
(10.5705 0.495609 -0.414767)
(10.4444 0.54584 -0.426805)
(10.7004 0.626696 -0.612769)
(10.1945 0.0896634 0.116182)
(9.68418 0.2803 0.0136307)
(9.79662 0.324584 -0.058851)
(10.3603 0.52477 -0.378815)
(9.99133 0.826749 -0.0648344)
(10.0629 0.588399 0.174115)
(9.87937 0.221434 0.175509)
(10.0796 -0.0367523 0.0319908)
(10.0681 0.129489 0.0351186)
(10.0249 0.109715 0.107771)
(9.99199 -0.0336312 -0.0260758)
(9.80043 0.295484 -0.0194759)
(9.95198 0.129272 0.25033)
(9.54464 -0.00295565 0.455386)
(9.93015 -0.0431871 0.0345267)
(9.97695 0.0100781 0.0105876)
(8.39993 0.789338 -2.11326)
(9.7523 0.0974718 0.084823)
(9.99809 0.0136215 -0.0258537)
(9.98118 -0.0192947 -0.0140137)
(9.7915 -0.00439627 -0.138185)
(9.77717 -0.00980103 -0.124548)
(9.37685 0.161181 -0.128594)
(10.0263 0.0297119 -0.0349531)
(9.83541 -0.030496 -0.0892099)
(9.92156 0.126132 0.180139)
(10.0866 0.0966542 0.0203781)
(10.0758 0.143057 0.00947189)
(9.95763 0.178143 0.111786)