/*--------------------------------*- C++ -*----------------------------------*\
| =========                 |                                                 |
| \\      /  F ield         | OpenFOAM: The Open Source CFD Toolbox           |
|  \\    /   O peration     | Version:  2506                                  |
|   \\  /    A nd           | Website:  www.openfoam.com                      |
|    \\/     M anipulation  |                                                 |
\*---------------------------------------------------------------------------*/
FoamFile
{
    version     2.0;
    format      ascii;
    arch        "LSB;label=32;scalar=64";
    class       volScalarField;
    location    "0";
    object      omega;
}
// * * * * * * * * * * * * * * * * * * * * * * * * * * * * * * * * * * * * * //

dimensions      [0 0 -1 0 0 0 0];

internalField   uniform 50;

boundaryField
{
    outlet
    {
        type            zeroGradient;
    }
    walls
    {
        type            omegaWallFunction;
        value           uniform 50;
    }
    inlet
    {
        type            fixedValue;
        value           nonuniform List<scalar> 0();
    }
    model
    {
        type            omegaWallFunction;
        value           uniform 50;
    }
    procBoundary5to1
    {
        type            processor;
        value           uniform 50;
    }
    procBoundary5to2
    {
        type            processor;
        value           uniform 50;
    }
    procBoundary5to3
    {
        type            processor;
        value           uniform 50;
    }
    procBoundary5to4
    {
        type            processor;
        value           uniform 50;
    }
    procBoundary5to7
    {
        type            processor;
        value           uniform 50;
    }
    procBoundary5to8
    {
        type            processor;
        value           uniform 50;
    }
}


// ************************************************************************* //
