/*--------------------------------*- C++ -*----------------------------------*\
| =========                 |                                                 |
| \\      /  F ield         | OpenFOAM: The Open Source CFD Toolbox           |
|  \\    /   O peration     | Version:  2506                                  |
|   \\  /    A nd           | Website:  www.openfoam.com                      |
|    \\/     M anipulation  |                                                 |
\*---------------------------------------------------------------------------*/
FoamFile
{
    version     2.0;
    format      ascii;
    arch        "LSB;label=32;scalar=64";
    class       volScalarField;
    location    "0.0882685";
    object      nut;
}
// * * * * * * * * * * * * * * * * * * * * * * * * * * * * * * * * * * * * * //

dimensions      [0 2 -1 0 0 0 0];

internalField   nonuniform List<scalar> 
3918
(
0.00378057
0.00503122
0.00228863
0.00332675
0.0026354
0.000369475
0.000300039
0.0018367
0.0040866
0.00277907
0.000800508
0.00557608
0.00650234
0.00270446
0.00390015
0.000563796
0.000528556
0.000759124
0.000727873
0.00344087
0.000869971
0.00309643
0.00114409
0.00232991
0.00287402
0.00784036
0.00100283
0.00436176
0.000646363
0.00600947
0.000643098
0.00365706
0.00162874
0.00315791
0.00283031
0.00581897
0.00338281
0.00451006
0.00072903
0.00285684
0.00216532
0.00196859
0.00104141
0.00294227
0.003385
0.000642943
0.00548203
0.000666095
0.00250077
0.00341139
0.000936966
0.00172263
0.00086131
0.00649356
0.00205667
0.00382212
0.0027465
0.00836368
0.0015398
0.00266974
0.00103282
0.00178476
0.00228724
0.00241942
0.000638503
0.00354968
0.00300659
0.00235695
0.000746316
0.00344815
0.00090863
0.0011932
0.00128597
0.00126335
0.0022155
0.00113234
0.00407478
0.00547942
0.00420502
0.00390071
0.00155527
0.00030235
0.00489399
0.00275867
0.00373293
0.00503292
0.000792132
0.000790291
0.000456848
0.00343714
0.00224525
0.00410762
0.00483264
0.00119067
0.00327136
0.00305884
0.00104532
0.00364812
0.000914231
0.000759513
0.00343474
0.00410437
0.00317794
0.00373679
0.00423282
0.000557041
0.00229093
0.000794644
0.00296024
0.00414896
0.000525108
0.000826705
0.000183315
0.000631776
0.000911402
0.000666179
0.000572904
0.00134042
0.00117105
0.000996693
0.00273315
0.00264968
0.0146457
0.00110947
0.00200696
0.00047101
0.00686621
0.000873149
0.00117034
0.000988276
0.00256736
0.00370798
0.00230414
0.00307036
0.000569317
0.000903445
0.000652123
0.000555347
0.000626118
0.00134981
0.0010476
0.000619006
0.00309221
0.000856161
0.00102522
0.00144591
0.000744039
0.000918084
0.000568694
0.00412538
0.00488175
0.00157243
0.00459187
0.00110447
0.00260242
0.00238049
0.000706594
0.000785927
0.00337168
0.00273014
0.00376885
0.000839788
0.00108064
0.00866737
0.000843822
0.0010394
0.000437277
0.00148607
0.000475404
0.000652714
0.000806224
0.000545694
0.000521268
0.000491384
0.000577504
0.00569054
0.00669126
0.00201146
0.000695848
0.000856865
0.00395667
0.0095371
0.00618124
0.00706324
0.00652738
0.00253096
0.00100637
0.00134151
0.00331981
0.0118541
0.00276828
0.00243048
0.000918411
0.000957382
0.0025881
0.00199382
0.0025644
0.00160548
0.00108423
0.00276475
0.000958012
0.00360965
0.000559579
0.00200754
0.000438872
0.00187531
0.00156209
0.000693945
0.00642566
0.00153844
0.00184398
0.000752922
0.00159725
0.000610134
0.000984388
0.000374975
0.00128387
0.0020139
0.00148501
0.000534062
0.00108789
0.00422383
0.00140949
0.00297878
0.00323556
0.0067082
0.000947258
0.00274212
0.00034109
0.00219741
0.00102949
0.00668793
0.000681582
0.00363014
0.00340328
0.000731023
0.000376126
0.00317405
0.00628688
0.00317247
0.00117064
0.000860643
0.00141591
0.00153323
0.00162233
0.00119194
0.00269355
0.00114609
0.000626167
0.00130914
0.00336477
0.00261713
0.00332945
0.00193549
0.00173633
0.000988676
0.000504329
0.00237602
0.00130469
0.00209717
0.000627114
0.00860155
0.00273256
0.00239986
0.000697698
0.00232419
0.000625836
0.000959293
0.00120871
0.000752483
0.00662204
0.00326581
0.00207341
0.00173141
0.00135834
0.00144231
0.00336242
0.0011635
0.000958426
0.00143226
0.000923695
0.000993156
0.00273362
0.00215793
0.00306352
0.000504636
0.00338422
0.00104226
0.00333981
0.00124058
0.000870702
0.00326169
0.000425608
0.00312258
0.0022847
0.00131367
0.000916793
0.000465648
0.00104374
0.00216338
0.00125679
0.00115514
0.001497
0.00198297
0.00131677
0.00146287
0.001322
0.000827976
0.00218007
0.000832839
0.00302817
0.000312823
0.000867369
0.000436416
0.00110569
0.000373185
0.0019016
0.00077067
0.00104464
0.000329903
0.00390989
0.000815676
0.00415017
0.00363684
0.00905397
0.00128085
0.00320349
0.0011962
0.000758052
0.00413816
0.000866971
0.00208135
0.00219106
0.00411823
0.00108602
0.000826497
0.00132441
0.00390143
0.00055344
0.00373861
0.00202319
0.00097561
0.00149822
0.00223989
0.000922309
0.000664553
0.00062563
0.000542338
0.00158952
0.000768077
0.000995872
0.000913842
0.00111315
0.00378906
0.00448954
0.00252454
0.00756031
0.0015726
0.00308946
0.00369031
0.0018978
0.00189936
0.00186622
0.000878596
0.00414527
0.000788723
0.00187563
0.00905057
0.00417801
0.000490148
0.00444459
0.00204468
0.00180313
0.00186072
0.00215576
0.00196319
0.00143412
0.00228499
0.00286041
0.00371145
0.00411373
0.00247332
0.00216509
0.00135018
0.00469796
0.00625303
0.00484314
0.000920613
0.00542491
0.0015751
0.00179468
0.00613696
0.00596576
0.00120117
0.00485779
0.000451193
0.000345698
0.00287886
0.00134262
0.000763661
0.000605298
0.00299219
0.00321786
0.00155461
0.00256614
0.00301029
0.000849247
0.000366703
0.00516728
0.000653845
0.00631202
0.00267834
0.00152559
0.0147272
0.00249211
0.00255109
0.00852972
0.00252607
0.00329656
0.00407545
0.00328652
0.00222767
0.00412063
0.00448221
0.00430538
0.00423217
0.00221902
0.00380942
0.00217439
0.000957957
0.00257672
0.00344132
0.000512954
0.000476064
0.00114247
0.000820259
0.000343123
0.00305321
0.00256407
0.00451804
0.00258147
0.00296102
0.00439919
0.00203958
0.000521563
0.00401037
0.00214931
0.0025998
0.00127353
0.00288131
0.00680516
0.00182246
0.00535275
0.00261558
0.00186901
0.00163664
0.00038099
0.00179094
0.000830464
0.0075036
0.00380448
0.000605714
0.00209948
0.00380267
0.00702807
0.00634586
0.00304188
0.00065062
0.00354934
0.00401019
0.000751887
0.00359656
0.000385637
0.00683619
0.00394255
0.00104396
0.00066558
0.00968197
0.000432336
0.00239816
0.0026115
0.00127803
0.00130601
0.00225812
0.00423225
0.00356695
0.000583763
0.00539737
0.00110812
0.000643396
0.00673504
0.00556449
0.000719198
0.000482617
0.00193244
0.000893742
0.00800035
0.0039117
0.000331619
0.00399056
0.00299358
0.0043559
0.00460608
0.00760599
0.00371251
0.00402812
0.00871427
0.00722879
0.00521574
0.00272729
0.00135943
0.00130672
0.00349807
0.00246313
0.00388973
0.00309622
0.00391446
0.00111166
0.00413033
0.00337494
0.00156404
0.0062967
0.00349913
0.00402633
0.00222577
0.00274436
0.00475969
0.0028798
0.00243855
0.00379031
0.00238531
0.000427496
0.000895153
0.000585766
0.00370611
0.00262998
0.000583562
0.000627211
0.00275712
0.000935417
0.00801062
0.00322481
0.00199212
0.00181379
0.00124929
0.000422027
0.00195123
0.000778362
0.00294127
0.00223269
0.00373704
0.000854083
0.00121681
0.000697081
0.000777232
0.00122725
0.000842856
0.000900315
0.000844956
0.00103529
0.00288492
0.00386781
0.000604889
0.00445694
0.00924305
0.000621376
0.00247062
0.0033869
0.00160896
0.00389789
0.000441792
0.00109855
0.000898856
0.0040862
0.00149853
0.00123344
0.000785444
0.00485601
0.00726021
0.00376025
0.00127274
0.000925427
0.000694307
0.000992831
0.000907959
0.00133828
0.00510053
0.00194194
0.000708692
0.00121183
0.00198774
0.00103012
0.0032413
0.0022192
0.000576086
0.00405101
0.00488148
0.00111947
0.000550158
0.000883397
0.00253169
0.000470061
0.00344986
0.00288327
0.0056858
0.000529895
0.00132098
0.00174981
0.00166423
0.00147202
0.00491528
0.00205697
0.00626811
0.000870053
0.00419507
0.000426813
0.00117577
0.00177247
0.00202759
0.00178827
0.00679432
0.00753804
0.00460248
0.000941774
0.000424776
0.000448565
0.000711188
0.000788679
0.000671274
0.00183007
0.00408989
0.00238435
0.000657863
0.0010788
0.000522881
0.00152501
0.00262428
0.000929603
0.00276152
0.00101166
0.0041383
0.0042005
0.00261625
0.000875742
0.00554809
0.0021163
0.00229354
0.00318021
0.00397806
0.00314427
0.00289933
0.00598252
0.0027285
0.00352534
0.00330597
0.00355327
0.001561
0.00623822
0.00522111
0.00329639
0.00224945
0.00270217
0.00235047
0.00109868
0.002095
0.00214075
0.000973482
0.000736915
0.00478236
0.00192927
0.00106436
0.00218533
0.00197176
0.00395358
0.0012306
0.00149862
0.00482066
0.00121839
0.00382404
0.00206566
0.00344439
0.00358622
0.00353547
0.00478887
0.00190278
0.00309957
0.00597439
0.00703943
0.00239736
0.00235943
0.00549937
0.00177385
0.0006255
0.00023192
0.00279354
0.000738695
0.00043205
0.00321573
0.00332125
0.00398427
0.00398639
0.00232236
0.00318966
0.0066397
0.00161727
0.00149784
0.00184645
0.00136842
0.000752154
0.00146391
0.000968265
0.0010751
0.000683799
0.000859816
0.000694841
0.000764586
0.000698151
0.00388481
0.00304141
0.00223945
0.00296532
0.000689139
0.00171385
0.00408418
0.00185719
0.00317359
0.00395037
0.00254468
0.00271932
0.00157784
0.00268334
0.00449683
0.00269354
0.00379273
0.00282592
0.00270639
0.000736606
0.00221477
0.00282113
0.00089675
0.00358335
0.000826861
0.0016039
0.00657435
0.00417651
0.00212504
0.000749292
0.00668249
0.00294434
0.000758464
0.000844924
0.00183589
0.00220997
0.000797312
0.000491655
0.00409781
0.00347783
0.00237369
0.00599441
0.00710515
0.00643546
0.00031095
0.00399299
0.00329438
0.00371255
0.00270708
0.00334695
0.00236312
0.00205224
0.00126547
0.00272265
0.00246874
0.00212977
0.000622776
0.000514667
0.0035842
0.0011887
0.000593176
0.00125594
0.00432881
0.000875412
0.000135419
0.00263812
0.0033934
0.000814194
0.00220432
0.00307464
0.00183014
0.00132254
0.000923242
0.00149035
0.000840013
0.000849082
0.00113354
0.000921017
0.0014197
0.00275626
0.0036904
0.00341837
0.00404853
0.0022362
0.0024195
0.000397339
0.000760407
0.000461382
0.00170623
0.00133215
0.00382519
0.000694352
0.0023521
0.00326484
0.00218366
0.0033971
0.00102762
0.00206995
0.00118555
0.00450665
0.00324545
0.00316561
0.00569533
0.00153933
0.000807144
0.0016095
0.00140076
0.00124708
0.00158298
0.000899877
0.00116055
0.00127572
0.000679602
0.00171266
0.000933579
0.00521194
0.00140557
0.00363485
0.00116679
0.00164538
0.000520535
0.00266995
0.00178127
0.00448007
0.00482159
0.00381384
0.00221829
0.000583795
0.00361007
0.00131103
0.00278459
0.00140693
0.00303028
0.00374617
0.000810131
0.000896049
0.000385448
0.000813078
0.00374389
0.000271986
0.000364625
0.00139884
0.00111342
0.00125335
0.00134493
0.0045689
0.00424567
0.00115106
0.00167162
0.00413906
0.00386104
0.00113842
0.0014027
0.00111351
0.00276887
0.0025362
0.000719223
0.00311097
0.00522836
0.00428519
0.00199059
0.00439224
0.00132296
0.000559904
0.00251437
0.00263729
0.0017813
0.00450152
0.00294342
0.00115183
0.000763727
0.000691271
0.000907034
0.000989228
0.00168718
0.00227493
0.000163566
0.00447043
0.00053851
0.000937901
0.00119279
0.000769479
0.00131092
0.00134642
0.00176068
0.0029805
0.000865918
0.00102195
0.000826029
0.000467088
0.000415141
0.00118994
0.000252286
0.00454639
0.00240139
0.00117818
0.00291883
0.00391289
0.00178439
0.000831291
0.00189283
0.00243766
0.0018847
0.00399744
0.00140346
0.000814297
0.00254595
0.00229362
0.000447742
0.00146583
0.00170953
0.000809785
0.000995079
0.000767336
0.00103689
0.000415342
0.00324808
0.00118164
0.00123989
0.000826718
0.00140363
0.000896663
0.0019948
0.00177646
0.00301818
0.00105383
0.00829989
0.00222309
0.00184102
0.00243214
0.00240997
0.00119461
0.00407009
0.00566064
0.000601765
0.00031018
0.00143382
0.00159939
0.00392823
0.00362404
0.00574309
0.000354988
0.00147839
0.00215399
0.00103335
0.000855473
0.00117844
0.00120366
0.000567142
0.00322556
0.000586226
0.000938019
0.00102979
0.00218016
0.00344154
0.00230035
0.00843399
0.000428879
0.000880985
0.00127346
0.0101354
0.0031361
0.00125397
0.00115835
0.0007845
0.000488911
0.00188567
0.00206362
0.00144011
0.00281692
0.00242195
0.00312012
0.0023973
0.00217811
0.00427742
0.000984957
0.000374899
0.00242558
0.000481553
0.000433579
0.000887867
0.00110621
0.000545732
0.00277296
0.00405286
0.000799203
0.00340797
0.00441019
0.00143597
0.00566009
0.00579233
0.00284244
0.00410702
0.00354019
0.0019602
0.00219552
0.00596536
0.00357465
0.00390797
0.00682992
0.00397133
0.00594332
0.00316457
0.0038753
0.00279123
0.00419893
0.000633504
0.00489927
0.00395567
0.00157177
0.00502315
0.00635114
0.000559449
0.000873594
0.00129146
0.00232211
0.00336318
0.000638664
0.00138765
0.00497339
0.000924032
0.00716946
0.00243824
0.00219076
0.00076956
0.00271593
0.0020683
0.000612351
0.000960758
0.00216181
0.00193791
0.00430769
0.00391692
0.00251633
0.00110828
0.00224415
0.00167137
0.00364548
0.00192312
0.00305292
0.00336397
0.00422202
0.00350324
0.00286198
0.00428024
0.00301411
0.00388707
0.00173616
0.00125068
0.00224611
0.00487456
0.00216506
0.00204295
0.00762765
0.00349753
0.00300647
0.00237732
0.0104066
0.000906817
0.000555949
0.00354862
0.0040624
0.00114332
0.00347409
0.00296777
0.00411794
0.000613069
0.00273037
0.00287463
0.00657197
0.0047095
0.00482785
0.00196882
0.00128916
0.000873928
0.000874843
0.00123586
0.000933597
0.00249059
0.00204149
0.00148346
0.00222254
0.00224563
0.00255902
0.00227683
0.00347455
0.00157997
0.0033076
0.00561542
0.00332503
0.00303013
0.00365023
0.00253961
0.00104001
0.00503097
0.0053199
0.00528193
0.00783278
0.0035637
0.00401556
0.00301429
0.0036713
0.000682979
0.00389109
0.00310605
0.00413897
0.00328531
0.00338561
0.00249911
0.00205169
0.000745022
0.00304398
0.00368432
0.00403767
0.00159989
0.0022729
0.00420371
0.0032886
0.00217929
0.00159898
0.00144898
0.0036827
0.000494898
0.00137371
0.00291247
0.00219381
0.00276261
0.00106297
0.000800521
0.00441526
0.00391565
0.00382834
0.00420635
0.00192061
0.00148217
0.00600447
0.0033892
0.00973893
0.00961191
0.000171284
0.000362966
0.00232304
0.00245759
0.0010779
0.00116449
0.0013849
0.00146204
0.00248132
0.0024636
0.00421241
0.00241704
0.00392902
0.00378437
0.0055549
0.000607848
0.00114579
0.00328959
0.0008367
0.00156203
0.003879
0.00335418
0.00473788
0.000826487
0.00460784
0.00209602
0.00323463
0.000556278
0.00446507
0.000246101
0.00191455
0.00122913
0.00129966
0.00349071
0.00157428
0.000792127
0.00159521
0.00154154
0.00194281
0.000703483
0.000417748
0.000635665
0.00172892
0.000930832
0.00153944
0.000841364
0.000914173
0.00550372
0.00312072
0.00426743
0.00232604
0.000904637
0.00204157
0.000868189
0.000905339
0.00126823
0.00473955
0.00625257
0.00625001
0.00193039
0.00347591
0.012103
0.00235779
0.00369904
0.00236558
0.0036984
0.00314407
0.00254059
0.00166538
0.00311994
0.00157629
0.00141269
0.00154759
0.00354078
0.00423613
0.00322805
0.00647247
0.0040347
0.00391152
0.000835022
0.00227744
0.0015151
0.00537063
0.00411654
0.00449586
0.00526966
0.00436264
0.00379367
0.000613267
0.000521836
0.00234034
0.000362142
0.00707541
0.00803226
0.00388909
0.000718762
0.00123724
0.00359806
0.00398288
0.002673
0.00351408
0.00232103
0.000969501
0.00257492
0.00143085
0.00251422
0.0018544
0.00198055
0.00350671
0.00300243
0.00354345
0.00568502
0.00351718
0.00274033
0.00237147
0.00237676
0.00160242
0.00313632
0.00208504
0.00281485
0.00331078
0.000507215
0.00061061
0.000885173
0.000440978
0.000615622
0.000725203
0.00100153
0.00140548
0.000470396
0.000493144
0.0019876
0.0011328
0.0023148
0.001861
0.00218168
0.00131678
0.000991118
0.00261003
0.000777719
0.00151768
0.000184696
0.00362353
0.00214196
0.00142519
0.00160528
0.00247343
0.00251151
0.00583764
0.000819909
0.000732477
0.00123624
0.000918493
0.000333935
0.00160656
0.00200169
0.00118558
0.00422518
0.00472126
0.0010368
0.00479834
0.00336519
0.000730271
0.00187523
0.0023508
0.0022918
0.000485728
0.00244756
0.00149847
0.00203433
0.00178199
0.0085236
0.00256402
0.000969296
0.00482668
0.00194706
0.000582355
0.000524754
0.00525185
0.000940317
0.000718959
0.00249978
0.00283924
0.00352028
0.00253423
0.00347269
0.00152586
0.00085375
0.000820641
0.0010305
0.00057998
0.00149208
0.000844983
0.00228888
0.00808029
0.00228009
0.00242323
0.00366693
0.000973587
0.00215796
0.000687155
0.00332663
0.0044419
0.00306939
0.0038854
0.000727115
0.000289105
0.000687595
0.00364027
0.000437906
0.000264417
0.000390525
0.000980651
0.0020163
0.00155982
0.000605912
0.000833897
0.00230958
0.000596349
0.00165623
0.00103906
0.0011193
0.000983515
0.00114085
0.00377702
0.00233998
0.00109856
0.002215
0.000857089
0.000958342
0.000848975
0.000958583
0.00625912
0.00205175
0.000641644
0.00491054
0.000308633
0.0037534
0.00353344
0.000675054
0.00111954
0.00372811
0.000203893
0.00385526
0.00559425
0.0044119
0.00435984
0.00170431
0.00055621
0.0025478
0.00430219
0.00555653
0.00827729
0.00427571
0.00185684
0.00174947
0.0010801
0.00204921
0.00198121
0.00205176
0.00198915
0.00186276
0.00129621
0.00740963
0.00531853
0.00166684
0.00403869
0.000650424
0.000284614
0.00459351
0.000561072
0.00237619
0.00182934
0.00144764
0.00340292
0.00331866
0.0035093
0.00323517
0.00199685
0.000430016
0.00172422
0.0020888
0.00130579
0.000705545
0.0010418
0.00121657
0.00244393
0.00334471
0.00581545
0.007994
0.0108967
0.00254529
0.00278954
0.00219136
0.00193852
0.00334123
0.0015249
0.00578256
0.000421316
0.00253767
0.00125436
0.00189852
0.00122193
0.00235882
0.0010035
0.00493388
0.000756424
0.00163362
0.00186742
0.00282443
0.00256947
0.00368394
0.00104359
0.00149746
0.00236736
0.000556983
0.00051952
0.00151145
0.000574122
0.00164455
0.00168599
0.00154229
0.000897928
0.000690847
0.000721681
0.000603002
0.00120821
0.00111975
0.00264798
0.00115807
0.00366758
0.00377874
0.00257007
0.00353761
0.00119774
0.000976948
0.00247183
0.00099211
0.000637869
0.0012354
0.00108641
0.00274945
0.00476107
0.000804707
0.000834015
0.000460165
0.00045152
0.00109984
0.00254894
0.000338286
0.00255839
0.000833363
0.00105811
0.000316935
0.00121387
0.000112495
0.00197734
0.00150443
0.000286275
0.000946203
0.00300425
0.00388351
0.00418765
0.00200882
0.0007607
0.000796499
0.0062798
0.000447153
0.00165995
0.000255376
0.00334848
0.00161848
0.00144157
0.00273696
0.00247552
0.0023202
0.00632954
0.000931559
0.00668874
0.00171775
0.00243434
0.00141462
0.000922339
0.000915889
0.00103737
0.000467194
0.00310899
0.00219858
0.00295547
0.00226404
0.000812751
0.00131062
0.000738592
0.000632207
0.00124333
0.00148984
0.000967961
0.00107147
0.00108959
0.00152669
0.0035198
0.00109912
0.000825514
0.000868853
0.00064019
0.000351569
0.000574676
0.00323569
0.00280291
0.00664259
0.00622338
0.00591902
0.00144835
0.00157632
0.000804431
0.000797821
0.000740075
0.00253446
0.00204905
0.000488179
0.00125
0.00184229
0.00152797
0.0015771
0.00230621
0.000991623
0.000449161
0.000612298
0.00187608
0.00218999
0.00098145
0.00094487
0.000989449
0.00345235
0.00649133
0.001024
0.00725127
0.00404105
0.000654843
0.00266736
0.000588044
0.000844738
0.00174421
0.00300954
0.00545816
0.00618435
0.00521526
0.00365498
0.00187332
0.00412507
0.00437939
0.00149331
0.0032248
0.00397847
0.00312332
0.00213548
0.00230541
0.00378225
0.0037498
0.00442527
0.00155791
0.00391501
0.00208609
0.000751573
0.00220038
0.00286982
0.00125308
0.00161725
0.00366132
0.00261404
0.00679155
0.00351509
0.00215999
0.00171568
0.00135078
0.00503446
0.00459924
0.000424108
0.00268189
0.00956469
0.00316294
0.000962575
0.00118281
0.00248462
0.00563377
0.00781555
0.0100653
0.00274607
0.00277339
0.00219909
0.00173458
0.00552532
0.00301538
0.00667305
0.0032442
0.00251563
0.0022507
0.0013674
0.00240261
0.00194039
0.0035931
0.00128536
0.00137723
0.00257071
0.00231833
0.00237571
0.0035603
0.00293526
0.00198924
0.00214213
0.00195046
0.00193109
0.00137428
0.00167231
0.00406174
0.00051179
0.000519168
0.000447225
0.000572232
0.000601867
0.0014873
0.000596409
0.00103909
0.00149672
0.000943963
0.00231894
0.00341883
0.0038025
0.00343518
0.00278344
0.0027926
0.000766998
0.000747398
0.000782468
0.000774704
0.000800708
0.00108244
0.000968126
0.00666472
0.00445307
0.00316492
0.00149131
0.00312762
0.0108117
0.0057434
0.0056429
0.00445777
0.00234973
0.0038965
0.00244717
0.00108819
0.00102685
0.00118887
0.000773968
0.00141858
0.0010963
0.00319858
0.00380711
0.00909616
0.0005775
0.00340456
0.0038984
0.00782973
0.000821427
0.0010979
0.000875629
0.000625171
0.00402774
0.00202781
0.00360979
0.00294502
0.00192264
0.00322843
0.002773
0.00181727
0.000347391
0.00125772
0.00259402
0.00295144
0.00149468
0.00226498
0.00348467
0.00107204
0.00137639
0.000723027
0.00102079
0.000953486
0.00142962
0.00109319
0.00105315
0.000932132
0.0088728
0.0031081
0.00268751
0.00255814
0.00223056
0.00276203
0.00372016
0.00417493
0.00321316
0.00360867
0.00135233
0.000593453
0.00340752
0.00115973
0.012767
0.00129098
0.000885162
0.00101311
0.00395847
0.00240582
0.00664217
0.00263394
0.00149175
0.00614098
0.00804494
0.00428099
0.00350004
0.00261404
0.0033918
0.00384951
0.00515912
0.0054221
0.000890611
0.00341649
0.00193291
0.00059065
0.000828665
0.000928038
0.000914869
0.00131576
0.00112862
0.00317058
0.00365673
0.00314314
0.00321427
0.00115267
0.000697592
0.000968361
0.00283874
0.00979416
0.00103756
0.00103285
0.000908029
0.00109598
0.00322713
0.000923908
0.00105127
0.000774987
0.000863929
0.001948
0.00387819
0.00185456
0.00263849
0.00424271
0.00411627
0.00347752
0.000539686
0.00170033
0.00130924
0.000448172
0.000338263
0.000175841
0.00147199
0.00119615
0.00104383
0.0010968
0.00162928
0.00131339
0.00218201
0.00042554
0.000176451
0.00168503
0.00081705
0.000287872
0.000433539
0.000527002
0.00414142
0.00159235
0.000903404
0.00118769
0.00200408
0.000994457
0.00275809
0.00123172
0.00333598
0.00249895
0.00237523
0.00216574
0.00172631
0.00241343
0.00459521
0.00181829
0.000307647
0.00177942
0.0010467
0.00120379
0.000161481
0.00237939
0.000564015
0.000766447
0.000675763
0.00123983
0.000543694
0.00216576
0.0022452
0.00253497
0.0021745
0.00180187
0.0025517
0.00221494
0.00143195
0.0012938
0.000709393
0.0014896
0.000728441
0.00145216
0.00108123
0.00539244
0.00166703
0.00122963
0.00119091
0.00221821
0.00168225
0.00234322
0.00883756
0.000271441
0.00274578
0.00579628
0.000399113
0.00136992
0.000371977
0.000911219
0.00178536
0.00700658
0.00102545
0.000601016
0.000471269
0.0045481
0.00202362
0.00582258
0.000638269
0.000783902
0.000863656
0.000393387
0.000188424
0.000860548
0.000637632
0.000738761
0.00243409
0.00248419
0.00059862
0.000862508
0.00308686
0.00279174
0.0015714
0.00933808
0.00372905
0.00876839
0.0091652
0.0025
0.0106635
0.00304904
0.00579541
0.00254492
0.00244924
0.00246121
0.00860126
0.00468582
0.00301496
0.00559512
0.00527771
0.00394136
0.00272371
0.00301632
0.00736145
0.000555504
0.00536879
0.00243283
0.00256309
0.00512357
0.00241132
0.00270807
0.00170903
0.00223412
0.00178451
0.000935939
0.00251181
0.00292125
0.00232625
0.00618058
0.00838151
0.00230752
0.00259652
0.00533687
0.00906926
0.00306542
0.00643041
0.00644849
0.00710738
0.00759422
0.00137795
0.00591267
0.00310349
0.00227328
0.000596725
0.000474902
0.000944554
0.00223778
0.000973707
0.00242433
0.00571838
0.000941708
0.000450566
0.00151314
0.00157105
0.000658251
0.000512692
0.00127993
0.000602431
0.000362685
0.000625131
0.00179963
0.00354088
0.00398759
0.00443027
0.000597226
0.00317174
0.00214218
0.00190435
0.000785496
0.00157633
0.00197594
0.00243436
0.00124796
0.00645715
0.00529505
0.00207196
0.00107042
0.00388236
0.00344905
0.00825768
0.00529485
0.00362611
0.00425506
0.0030931
0.00386395
0.00927351
0.00225105
0.00463642
0.00764985
0.000822434
0.00102818
0.00262547
0.000987425
0.00377919
0.000520271
0.00408984
0.00203241
0.000770237
0.000860816
0.000866905
0.00181702
0.00191221
0.00236047
0.000916544
0.000394151
0.000940831
0.000891326
0.00193486
0.00391658
0.00358207
0.00264092
0.00160067
0.00193564
0.00437094
0.0032192
0.00156197
0.0024278
0.000975763
0.0028176
0.000645509
0.000329529
0.0013189
0.000348456
0.000799576
0.00163421
0.00142143
0.000422599
0.00175248
0.000997219
0.000852348
0.000845025
0.000879706
0.000723293
0.000903973
0.00320973
0.00243024
0.0020716
0.00206746
0.000251737
0.000738399
0.00151601
0.000806563
0.00276963
0.00261121
0.00415442
0.00299705
0.00221114
0.00463334
0.0042742
0.00228604
0.00235739
0.00358544
0.00364922
0.000948902
0.00247613
0.000717411
0.000414185
0.001722
0.000926127
0.000919885
0.00163845
0.000346635
0.00098005
0.000328407
0.00102925
0.000427162
0.00511591
0.000456357
0.00100232
0.00192992
0.0023269
0.00422869
0.000661145
0.00176038
0.00140847
0.0147152
0.0031636
0.00223278
0.00294021
0.0041401
0.000813687
0.00122327
0.00288226
0.00064189
0.00066016
0.00073106
0.0010476
0.000823037
0.00129427
0.000426573
0.00124564
0.000968211
0.00263566
0.00263276
0.00127027
0.00229081
0.00321527
0.00330626
0.00180499
0.00228738
0.00209159
0.00196616
0.0102522
0.00113597
0.00182348
0.00266539
0.00202396
0.00211916
0.000838399
0.000625773
0.000615854
0.000741327
0.0031817
0.0030513
0.00163845
0.00278386
0.00256338
0.00324955
0.00797792
0.00269598
0.0025596
0.00590108
0.00291115
0.00127937
0.00605838
0.00109904
0.00155797
0.0007129
0.0017049
0.00151205
0.00103891
0.00180574
0.00295063
0.00101706
0.00120415
0.000728374
0.00145895
0.000957475
0.00308839
0.00231393
0.0048762
0.000581289
0.000700825
0.0018476
0.00224641
0.00385523
0.00176823
0.00568188
0.00265736
0.00240477
0.00235285
0.00379616
0.00326576
0.00510854
0.00287562
0.00561563
0.00221493
0.00105484
0.00392901
0.00429407
0.00120493
0.00169127
0.00105423
0.00127908
0.000741481
0.00452111
0.00350099
0.00275279
0.00415277
0.00255472
0.00363036
0.00138086
0.00218898
0.000863309
0.00191784
0.0041485
0.00247691
0.00340887
0.00285228
0.00283869
0.00170985
0.00486268
0.00170729
0.00106675
0.000927023
0.00339091
0.00312092
0.00359997
0.0116973
0.00190353
0.0046445
0.00347967
0.00218709
0.00211285
0.00233831
0.00277211
0.00521441
0.00359697
0.00775427
0.00538133
0.00250855
0.00334299
0.00243591
0.00550457
0.00464469
0.00377198
0.00193505
0.00575524
0.0030716
0.0013098
0.00678839
0.00640888
0.0029052
0.00303846
0.0032142
0.00642816
0.00249504
0.00467235
0.00435318
0.00594487
0.000751095
0.0025623
0.000397121
0.000584707
0.000503399
0.00338574
0.00144498
0.00108379
0.000482388
0.00321254
0.00398143
0.00495764
0.00112688
0.00329273
0.000291729
0.00104489
0.00140859
0.00258703
0.000732564
0.000501482
0.000525906
0.000581924
0.000911222
0.00421421
0.00913355
0.00717008
0.00141026
0.00101891
0.00243211
0.00310264
0.00225425
0.00468104
0.00203857
0.00383387
0.00315514
0.00315436
0.00369916
0.00450533
0.00148391
0.00215805
0.00100446
0.00118763
0.000135947
0.00111438
0.00273161
0.00223058
0.000654621
0.00202792
0.00125513
0.000874882
0.000954121
0.000743173
0.000788974
0.000972387
0.00153447
0.00143424
0.0049485
0.00412022
0.000567077
0.00102595
0.000819557
0.00284886
0.00389699
0.00390469
0.000337796
0.0053503
0.000172234
0.000903003
0.000987265
0.000563905
0.00213262
0.0030136
0.000713199
0.00168945
0.000686082
0.00171006
0.000619903
0.00370933
0.000830281
0.000521692
0.0108678
0.000911112
0.00145667
0.00464513
0.00380592
0.00190071
0.00404518
0.00378003
0.00264124
0.00268065
0.00305081
0.00368307
0.00240025
0.00151291
0.000898775
0.00331843
0.00746816
0.00499239
0.00516794
0.00615457
0.00139428
0.00314861
0.00302773
0.0033782
0.0026751
0.00187088
0.00117223
0.00191639
0.00102677
0.0021174
0.00141732
0.00128783
0.000412434
0.0046605
0.000965741
0.00230044
0.00310259
0.00122019
0.000896088
0.00156935
0.00187542
0.00127674
0.000435272
0.00106192
0.000240309
0.000805184
0.000857197
0.0010809
0.00107232
0.00126464
0.000433284
0.00172651
0.000674475
0.000861376
0.00167448
0.00085081
0.00195917
0.000519161
0.000461718
0.000464185
0.00322068
0.000703582
0.0019537
0.000482875
0.00266723
0.00291315
0.00242922
0.00310605
0.00624112
0.00466823
0.00369972
0.000712792
0.000499082
0.00115699
0.00117582
0.000601373
0.00439037
0.00360555
0.00339536
0.00518872
0.000493461
0.000970603
0.00378814
0.00350802
0.00332989
0.00216172
0.0037997
0.00434274
0.000973923
0.000653442
0.000554647
0.00197592
0.000265078
0.00139351
0.000329382
0.00111391
0.00407706
0.00640927
0.00710877
0.00368955
0.00423519
0.00501433
0.00439593
0.00779387
0.00401595
0.0040561
0.0065008
0.0010956
0.00555664
0.00508743
0.00526513
0.00435237
0.0042151
0.00415132
0.00413372
0.00214119
0.00114413
0.00552122
0.00754772
0.0037644
0.00667582
0.00990698
0.0105226
0.0073908
0.00701499
0.00347249
0.00360332
0.00447962
0.00298351
0.00438599
0.00382383
0.00278065
0.00425797
0.00289534
0.00310285
0.0042122
0.00239822
0.00265087
0.00465199
0.00204221
0.00272527
0.00237939
0.00360367
0.00217293
0.00280503
0.00286559
0.00274736
0.00283478
0.000985281
0.000543236
0.00042182
0.0036005
0.000427382
0.000360359
0.000752374
0.00293297
0.00298407
0.00121937
0.00240457
0.00107507
0.0129671
0.00458669
0.00386101
0.00438959
0.00390172
0.00387568
0.00385993
0.000967294
0.00152765
0.000158853
0.00190165
0.000986113
0.000744351
0.00226531
0.000679666
0.00095805
0.000584836
0.00175593
0.00344438
0.00210549
0.00303854
0.00254996
0.00121225
0.00254292
0.00248099
0.00274255
0.0033732
0.00261473
0.00328385
0.00181695
0.0020695
0.00598475
0.00541016
0.00434292
0.00399615
0.00306232
0.00514406
0.00273938
0.0065392
0.00274657
0.000602034
0.00330232
0.00294133
0.00412474
0.00363111
0.00481175
0.00556401
0.00329277
0.00455818
0.00120125
0.00226826
0.00117617
0.00091863
0.000894889
0.0010291
0.00090861
0.00459545
0.00721775
0.0073425
0.00429303
0.00363516
0.000541411
0.000579423
0.000177182
0.00042823
0.00027274
0.0008245
0.00100027
0.0013755
0.00174435
0.00097394
0.000701999
0.000700572
0.000804023
0.00226954
0.0010414
0.00373599
0.000810099
0.000154056
0.00288895
0.00148813
0.00109206
0.00239186
0.000825824
0.00071586
0.00417245
0.00454278
0.00303457
0.0055482
0.00239777
0.00331639
0.00281883
0.00346687
0.00335781
0.00714629
0.00586906
0.00285578
0.0033757
0.0065984
0.00595534
0.00353716
0.0037069
0.00204331
0.00256647
0.000319057
0.000229713
0.0007664
0.00110721
0.00151557
0.00141981
0.00420333
0.00391161
0.000291249
0.000872196
0.000680344
0.000906311
0.000977374
0.00187047
0.00228315
0.00152179
0.00348246
0.00115523
0.00142747
0.00288038
0.000131981
0.00194303
0.00139469
0.00141238
0.00158222
0.00149314
0.000676724
0.00112536
0.0021678
0.00049859