/*--------------------------------*- C++ -*----------------------------------*\
| =========                 |                                                 |
| \\      /  F ield         | OpenFOAM: The Open Source CFD Toolbox           |
|  \\    /   O peration     | Version:  2506                                  |
|   \\  /    A nd           | Website:  www.openfoam.com                      |
|    \\/     M anipulation  |                                                 |
\*---------------------------------------------------------------------------*/
FoamFile
{
    version     2.0;
    format      ascii;
    arch        "LSB;label=32;scalar=64";
    class       volScalarField;
    location    "0.0882685";
    object      p;
}
// * * * * * * * * * * * * * * * * * * * * * * * * * * * * * * * * * * * * * //

dimensions      [0 2 -2 0 0 0 0];

internalField   nonuniform List<scalar> 
3918
(
-33.35
-5.07794
-5.99499
-24.3876
-0.675962
25.0001
18.4106
16.3617
-5.6073
-15.574
19.9401
-32.5426
-27.1147
-37.2286
-20.8577
26.1625
29.7614
-30.6794
-30.6087
-12.0013
53.5091
-24.0889
4.15154
-30.5667
2.74971
-34.1361
25.4352
-18.948
-30.1655
-31.8258
-30.4333
-4.96563
-18.0954
-17.2513
-23.4435
-38.4624
-13.954
-7.93414
48.9826
-8.87192
-6.51582
-13.0591
23.2469
-20.2751
2.53131
5.97815
5.62773
49.6679
-31.7745
-26.4582
33.5268
-30.9215
-19.5771
-30.1083
-18.4048
-25.5334
-19.0094
-28.5976
1.5283
-18.9876
12.5517
-14.9894
-28.1928
-18.6527
22.4161
-9.38052
-33.1512
-30.3774
-25.9557
-29.9245
20.0342
-72.2041
-53.3586
-58.524
-30.8911
-30.4814
-31.1065
-31.055
-30.0326
-4.15882
-29.8836
49.4793
-31.9202
-24.8022
-11.2729
-30.0941
-30.9364
-31.0186
-72.152
-16.6808
-26.7817
-11.1084
-46.3079
35.3118
-6.6207
10.1531
-30.3424
-8.22322
-30.7403
56.7794
-19.2206
-20.1996
-11.3593
-18.2514
-18.7985
-30.1021
-32.8218
33.9631
-15.4499
-29.0049
-29.6813
-29.8878
-29.7279
-29.7951
-29.9873
-29.6309
-29.5746
-30.1539
-56.44
-61.7258
-23.8915
-32.5421
-25.006
-31.7067
-29.6496
-61.7042
-13.1386
-21.7558
53.6565
32.9867
5.60237
-35.5573
4.94504
-22.0615
58.4021
57.0905
-30.4874
-30.6381
-30.4461
-34.1952
59.132
-30.5487
-39.5483
55.9927
-49.2095
-51.1152
43.3245
57.3695
-48.5121
-25.0261
-24.4678
-31.6187
-4.73208
-54.9166
-35.5471
-41.72
-96.2632
-62.3023
10.775
-9.74852
-13.898
-30.7595
-31.4809
-33.0096
-32.4465
-30.5272
-29.9831
-34.5682
-29.8059
-29.9963
41.1773
-30.3085
-30.29
-29.7497
-30.067
-32.7514
-32.1939
-0.922864
50.5231
32.9113
-2.64729
-27.9826
-32.4996
-28.8686
-22.8292
-19.3741
53.4662
-30.7265
-38.3053
-32.2435
-17.1347
-33.0356
53.3562
56.887
-29.6366
-32.2737
-33.0631
-34.1074
-57.4571
-1.04121
-66.1932
-32.3012
-30.0652
-32.9177
-29.5936
-31.7778
-31.776
-87.1596
-31.2994
14.7209
-41.1284
-32.5198
-16.6603
-31.4763
29.4029
-29.3449
-49.3127
-43.2154
-33.0552
14.7897
-59.5566
-32.0728
-30.8686
-13.4894
-21.0067
-47.0948
44.7542
-33.7438
-98.6142
-33.643
-56.0186
-30.3055
3.56394
-33.4373
-9.41619
-53.7009
-29.6592
-20.6558
-28.9625
-2.75284
-31.4169
-71.915
-45.1009
-27.0148
-6.06661
41.4258
-1.11948
-15.9472
-8.21117
35.0587
-32.157
-30.0375
13.0752
4.89804
-30.105
45.4543
-30.1994
-3.5009
-56.3918
-44.3892
-29.8971
-13.5896
-30.9973
-19.3228
44.6686
9.16624
-27.489
32.5324
54.1445
32.6872
-6.73047
-39.3283
-5.3629
-23.2397
-24.1705
6.41461
-31.9584
-51.3745
-75.9961
17.4944
-22.7891
-38.9731
-34.3355
5.94247
-6.6825
40.9162
-20.6212
-77.1875
2.75695
-10.7993
-76.9742
-31.8274
-29.6823
7.51519
-40.9185
-23.7673
-78.7763
-30.4864
-32.7365
-23.9167
-30.4289
-3.17147
1.75534
-30.3711
-55.5903
-30.742
-5.25559
34.4839
-10.9279
-32.3977
-30.556
18.7781
-30.0918
-30.0203
-33.9645
13.0635
-13.5173
35.0769
56.4906
-90.724
-13.6952
-30.9046
-30.7071
-28.2185
-10.659
-56.2596
-17.0693
-30.8687
-30.1814
-9.10742
50.5611
-5.72237
-2.1878
-34.2848
-30.3554
39.9319
-40.1862
-25.671
-57.971
-9.32176
-12.0785
-30.058
-44.0279
-27.363
39.4231
-39.8998
-31.6049
16.684
-30.4298
52.5611
-31.7743
-31.8632
-26.9649
-9.29935
-6.28106
-12.9785
-30.1914
-49.3916
-30.3744
-13.8533
-27.9743
-30.9088
-31.1693
8.39007
-27.7887
-30.2606
-30.5199
-24.4871
-31.4044
-37.5421
-12.7118
-30.4309
-10.7695
-4.27901
-27.2793
-30.6158
-28.29
-29.8773
-18.7062
-5.95643
2.48336
-32.0778
-31.6768
-16.8553
-32.2694
-29.6804
-30.1724
-31.1018
-30.9086
-26.834
-30.0949
-24.743
-18.7466
-49.2721
-10.1079
-52.8804
-50.0387
-22.0296
-48.4916
-43.2338
-30.3505
-15.5049
-37.4164
7.82928
-21.6832
-14.698
-31.7754
-30.3656
-30.2141
-76.0037
-32.6324
-34.4838
-17.221
-23.8723
-36.4346
-23.7601
-23.3324
-17.8385
-27.0123
-15.8232
-16.5455
-37.7652
-17.0547
-24.1575
-8.29278
-14.8916
-28.9023
-12.8997
-29.5974
32.4444
4.28915
-18.5437
-30.3766
54.2751
27.1418
46.6922
15.0956
-24.6529
-27.5044
-24.6156
-11.3762
-33.1032
-29.8137
-26.1345
-25.1598
-13.4171
-0.866291
-22.6032
-20.8754
-14.3973
-30.7682
-44.0987
-30.5685
-34.203
-39.0778
-44.3156
-47.1187
-14.0528
-81.7179
-25.5074
-11.5383
60.5644
-30.4834
-1.59768
-32.5756
-31.6435
-8.53615
-29.7233
-11.1034
-15.4145
-30.5905
3.48556
-112.369
-41.8721
-20.5275
32.3231
59.4966
-29.7878
-84.7327
0.993702
-30.8747
-39.4353
-30.519
-1.93052
-30.184
-20.9634
-79.5757
-31.2275
40.7034
-29.9001
-31.2856
-20.7216
61.9111
57.1047
27.8777
59.9104
-29.7132
-9.42731
-88.4817
-14.9454
-10.9416
-19.3192
-7.11968
-15.522
-14.8877
-4.74661
-13.1643
-11.9789
-10.6478
-9.42676
-25.0013
-13.2524
-6.35481
18.1974
-9.82007
4.97113
-20.6309
-12.3832
-18.3999
-19.9225
-12.0167
-10.9694
-6.71457
-32.9513
2.81105
-21.2615
-36.7201
-4.28489
-4.74724
-9.40401
-3.37659
-65.7834
40.1763
-19.1362
-10.3999
-23.7978
-12.6468
-15.8422
-5.42471
-16.3976
-5.57866
-22.2578
-11.0569
-8.12649
-37.8886
-60.0073
-40.3288
-3.88202
-16.6132
-32.9317
-20.1237
-63.3531
-27.8571
49.1765
56.3346
-32.2937
52.9792
-64.7534
-17.4652
55.6201
-30.7342
-34.8459
-29.6806
-31.0526
-22.5536
-42.0802
-31.0804
-23.7514
-34.2445
-21.3793
-28.1577
-61.3427
56.4112
-17.4467
-47.8641
-60.6313
47.8577
-24.6534
-23.5175
-24.0589
20.2855
-61.7102
0.589534
-29.8046
-28.2536
-26.6058
-30.3116
-32.044
-72.0295
-58.2627
-22.3777
-30.0403
-32.2303
-30.5142
-59.7277
-33.8676
-29.8136
-56.1781
-39.8079
-61.1564
-19.1577
-96.729
-34.0658
-31.2107
-24.6877
-80.7183
-29.9779
-34.4479
-30.2395
-42.2073
-35.3701
3.88765
-32.9554
47.2958
-5.36501
56.971
57.8105
-30.0587
-30.1354
-30.1237
-27.8997
-29.917
-28.7919
42.619
-30.0927
26.1594
-32.243
-32.507
-32.3796
-33.8035
20.1657
-12.1708
-29.7043
-29.7985
-29.76
25.4405
-24.2435
29.3951
-17.8456
-30.9679
-25.0642
-24.4788
-27.2219
40.1449
-30.5404
-30.1601
-24.3494
-14.6182
-3.94499
-5.53001
-9.09542
-28.5144
4.22609
-8.343
-11.9492
-9.75758
31.3615
-17.683
-13.162
-32.5792
-1.18361
-31.5904
-27.1089
-15.0293
-11.1289
-8.98657
-77.314
9.33734
-30.4859
-30.0687
-29.8027
31.2312
-30.1445
1.34861
-29.9192
-29.9816
-33.6305
-31.8397
-30.2499
-31.6047
-10.3261
-7.94167
-21.132
-3.69778
20.9478
-26.0719
-28.772
-6.0959
-31.2887
-31.5299
-24.5477
-31.3489
-85.5222
-93.2175
-21.0273
-88.8016
-79.9402
-30.4702
-30.2218
-30.3043
-30.7561
-30.564
-30.5076
-5.83774
-25.5967
-25.2878
-31.4162
-6.22488
52.7617
57.966
59.0367
56.0909
19.7931
17.5735
32.4335
35.6482
27.6106
-20.6076
-16.9041
-17.8944
-2.56465
26.7605
-15.8184
-20.2033
-16.2584
-32.0278
-17.184
-9.44763
-15.6599
-12.7254
-37.0878
-30.6854
-40.3018
-12.2667
-34.4915
-9.41558
13.3954
-32.7909
-17.023
-1.77836
-10.474
-3.63973
3.52314
-37.8437
-7.14307
-31.09
-11.4573
-33.7306
-18.462
22.5338
22.8858
-30.7436
-30.6324
-32.2494
26.8754
-33.2023
-32.535
-25.1138
-30.0409
-28.2595
-19.2798
-102.171
-17.3626
-16.1995
-5.27542
-33.6249
-10.2708
-8.63688
-27.0592
-4.47508
12.2906
-22.3434
-36.7907
34.449
30.4656
3.59191
28.5285
19.1536
-34.0629
-35.162
52.997
-175.965
13.2033
14.9842
-129.786
6.18508
-3.95932
32.8315
2.88982
43.4781
-63.7449
-71.102
19.1679
-56.0709
-9.46204
-11.3066
-14.1589
-20.4481
-22.3296
-23.8247
-24.6676
-18.5328
-146.027
-103.437
-50.2605
-44.509
-30.7737
-9.89407
-46.0067
-39.8203
-27.5716
-34.6683
-19.5478
51.9764
-13.0612
-58.9258
-22.4943
-12.7365
-3.48249
-1.97285
-53.2016
-67.5411
-43.9975
-56.0264
-65.728
-56.3617
-16.1092
-12.843
-37.6153
-11.8823
35.5291
-26.0555
-33.8489
-6.81643
-14.894
11.1449
-37.6794
-11.8021
5.88296
-25.8588
-20.6917
-40.0873
-10.0204
20.9892
23.1024
-26.9
-17.1956
-23.3694
-36.7129
-1.18029
-6.31034
-12.4866
-8.63889
-31.9495
-16.2706
-22.0166
-57.1274
-76.2481
-48.3535
-56.9341
-59.8083
-50.2351
-21.2535
-17.399
-56.9913
27.1145
-18.6882
-18.0989
42.5334
36.7357
-20.6226
-16.5826
-16.5155
47.7723
-32.4175
-34.0305
-19.4157
-43.1728
-19.5293
-3.45529
34.6206
-11.3449
-11.611
-39.905
-22.3075
-20.0805
-49.5899
-92.1292
49.0633
53.5276
-30.4969
36.4371
-35.4797
35.0171
-23.2506
-109.506
51.8834
47.6932
49.9871
-22.221
-49.3851
-11.0553
-21.7395
55.0123
-25.155
49.6801
-80.776
-89.3709
-71.3046
28.1902
-25.5551
-16.4081
-13.1245
-14.6083
-23.1177
-40.2348
40.5178
-15.2381
-3.19148
-35.4487
-12.1592
-4.8134
57.7674
-30.9152
-31.7674
30.2045
31.8691
-4.59189
17.8225
-10.8787
-24.2644
-9.90127
25.282
-32.2048
-50.8586
-65.5302
-8.18404
38.354
-70.9195
12.8196
-1.46628
-30.6848
50.4413
-22.1289
-36.0807
-30.1984
-31.0201
-17.3703
-32.1972
-12.4216
-35.3263
-47.9138
23.0282
-0.0781621
-5.64385
-8.61857
-14.4889
-35.2487
-47.4869
-30.877
-13.5421
-10.011
-15.6062
-16.4651
-6.98878
38.6496
-34.7011
-32.0605
20.6659
42.8838
-43.4706
-30.7141
-26.6507
-22.3271
50.6707
-29.4256
-97.3732
-31.7639
-18.1147
-70.326
-65.8071
-60.0235
-29.8603
-31.3859
-12.8938
-32.59
-35.7708
2.98231
1.23641
-1.41318
-40.9211
-22.2234
-103.684
-66.4987
-28.1735
-29.6931
-99.1296
58.517
-27.5229
-30.3856
-13.5756
-32.6207
-28.5552
-12.6566
-13.5443
-30.17
-30.503
-29.8272
-30.6156
-16.3359
-29.6727
-28.3428
-27.4264
-30.2109
-5.60751
-10.8995
-25.8545
-25.5861
-29.3712
-10.584
-27.0016
-30.8406
-7.46718
11.5525
-29.3294
1.06118
-6.01747
2.1177
-6.36541
-30.2967
-1.5816
-30.3432
-23.0646
-23.0358
-86.0366
-32.8086
14.8784
10.8174
-25.729
-11.353
-30.6921
51.6239
-20.3641
-33.4312
-20.6627
-32.6464
-28.3669
-20.9501
-18.3808
-8.18484
-32.8578
-58.3405
-26.755
-30.6317
-17.0917
-29.8212
-9.72379
-7.97303
-23.6428
-15.6189
-31.6794
-25.6108
-28.1101
-10.2211
-30.1265
-10.4867
-39.4328
-10.1477
-16.1085
-30.9138
-7.81645
-30.2013
-20.229
-26.1294
-24.7914
-25.0396
-29.8023
-32.5729
-4.60288
-14.1773
-29.1577
-17.9665
-25.9205
-64.8773
-20.4118
-17.4971
-28.8894
-18.6073
-27.2614
-34.1155
1.17938
14.3583
36.9398
-4.77265
-31.1474
-32.1762
-31.4052
-3.90264
-32.2243
-0.729072
-36.463
-22.1481
-25.0279
-40.7486
-38.2446
-32.993
-32.4735
-35.0255
-19.6096
-17.6969
-12.7197
-19.3875
-18.1984
-20.0255
-28.2
-23.6769
-9.62061
-8.07762
-9.79695
10.936
-30.3569
-28.9427
-22.0327
-25.8521
-14.8723
-21.5112
-23.4833
-61.7995
-2.509
-7.36484
-21.2034
-14.9754
-5.23367
-18.5597
-15.9055
-14.6101
32.4968
32.1776
-19.3836
-29.8304
-48.4428
-23.4516
-26.125
-9.52459
-37.9861
-34.5303
-14.8297
-5.33393
-8.90268
-14.6857
-36.454
-49.1683
-28.2793
-29.1159
-12.4178
-15.6301
36.7642
-111.308
-16.6143
-40.7046
-59.182
-30.6054
-44.3062
-42.7169
-27.7031
-38.4262
-5.14341
3.75148
-11.1448
-8.78211
-6.73084
-58.7418
-33.5854
-2.59034
3.55122
-31.0833
-8.83503
18.1601
13.1071
44.1006
13.9898
-1.59121
-25.1774
-30.016
-2.98822
36.4706
5.07924
8.41017
-30.7321
-43.9634
-30.7004
46.5539
-51.8515
2.71194
1.18041
59.1251
-84.537
-33.5924
-28.5312
57.3893
38.4389
60.9889
53.3601
-31.9603
-10.8278
13.2808
-1.03518
-29.9606
-23.1892
20.6263
50.8206
-50.2067
-6.73656
-6.9712
-7.45362
5.21619
5.35535
-19.8821
-28.6594
-11.7542
1.76392
-9.05795
4.38102
29.7217
-46.3145
31.6486
35.1313
-50.1604
25.3035
-3.1314
-9.58501
-7.79894
-5.39904
-9.86785
-12.3726
-30.3846
-21.4862
4.75
-32.368
-9.86942
-12.541
-11.4412
-15.6141
-12.7082
-30.1653
-29.8565
-30.4146
-29.8378
-36.3522
-34.8302
-31.4218
-14.9116
-62.4571
-25.5616
-17.8325
2.01803
-9.76833
-5.21554
-56.4599
-25.6822
-37.8084
-10.7202
-44.9786
-32.9223
-26.8396
-9.69125
-19.3481
-2.20111
-21.1637
-16.6432
-12.5847
-18.2466
0.459758
3.08208
-44.9854
-26.9837
-11.6644
-29.6741
-67.2302
-29.7307
-29.7115
39.0969
-33.2075
-15.0719
58.8948
-29.6889
-29.6071
-13.9805
-28.8802
8.09402
-30.4038
-30.7507
-30.7576
-30.5592
-18.6209
-75.2378
-48.8284
38.6498
-30.9779
-19.7393
-31.0174
-32.4049
-15.0913
-18.3913
-30.2424
52.0307
-20.9552
-63.6891
-63.6131
-81.8423
35.2377
-51.5033
-64.1152
-25.9627
-25.4499
40.3461
-33.2878
-21.5528
39.5478
-34.0423
-34.3677
-26.9559
-47.4622
-35.2375
-37.0828
-40.6114
-30.152
-22.7778
-33.2255
56.756
-30.6294
-30.5929
-30.4779
-29.9295
-27.3406
-9.45186
47.7965
16.2949
-11.0741
-8.85482
-26.0428
-12.0591
-27.7843
49.3803
-29.805
56.7393
59.2918
58.8981
41.9845
-21.3854
-42.8488
-23.617
32.9251
-38.472
51.9169
-8.24388
43.2198
-14.2134
-11.7238
7.40074
-14.6024
33.5057
16.703
35.3482
-10.4655
59.0466
34.5237
22.886
28.8686
-44.538
-50.4996
-68.7213
-66.0536
-17.2375
-68.3764
6.61833
-66.6521
-65.914
-87.6453
-63.0042
-26.3251
-32.0182
-65.9346
11.105
-64.5704
-64.9339
-29.9075
-26.3553
-31.8598
-25.9469
-76.6874
-4.69938
-57.5029
-11.9226
-14.2771
-16.1337
-36.1101
-38.6501
37.1697
-14.0998
-30.3247
-8.65498
-14.7084
-30.843
-29.8299
-31.7438
-24.2597
-33.6352
-32.8452
-5.30894
-10.0234
22.9598
41.2927
-12.9073
-13.7623
-15.4034
0.700073
-14.4858
-32.5852
-31.0046
-31.5513
-14.405
-17.5828
-30.6734
-69.9933
-10.1173
-38.4294
-16.1285
36.4384
-50.9997
-3.62858
-8.86798
-3.43654
-6.42003
-29.7718
-2.51893
-12.195
-11.9102
-66.7154
41.1009
-31.0526
40.3075
-7.34245
17.9408
-17.0061
-23.888
-21.2094
-26.8973
-22.9506
-32.1356
-14.8667
-14.5778
-41.6748
-31.4551
-45.7366
-32.361
-0.0343821
-14.3312
3.11326
-30.3874
9.26625
-28.0225
5.84959
-49.6631
-15.1224
-4.48618
-13.8862
1.29473
11.481
-7.5081
-33.7633
0.656742
34.5937
28.522
-0.770914
-15.6852
5.70065
-43.3852
-47.2777
38.52
-66.1385
5.34532
-23.4582
54.7968
-16.9294
4.14434
-12.0108
-0.653354
-19.566
-24.6146
1.08143
-32.9915
-40.5268
-29.2117
-63.1451
-51.4459
-57.2155
-28.9708
-22.2636
-5.2497
-30.7024
-27.2999
-26.1911
-31.6531
-30.4122
-12.8495
-35.9664
-4.72011
-30.2073
-30.1111
-30.3483
-150.138
23.3408
25.3919
38.8478
59.3445
22.0547
1.77752
-9.8355
-7.25044
46.2239
44.8893
-32.3549
53.1738
21.8639
-80.1576
-34.5173
7.43031
-52.2863
-33.9861
-19.8635
-23.2071
-6.19307
-9.22176
-35.5481
29.4974
-31.3074
11.6411
35.1202
-44.5848
-4.40133
-56.1632
10.3642
-26.3075
-32.4733
-30.8911
-5.17713
-63.0077
-54.6029
-30.1822
-30.057
-30.1608
42.4383
16.3703
28.9475
35.7762
15.6582
-8.85555
35.2551
57.5454
3.96056
54.9209
-74.4776
4.07875
-9.78916
-5.73204
-4.74978
-31.3169
-50.2455
-46.2928
-91.3774
-29.8535
-30.0578
-8.0934
-30.5773
-29.8841
-30.2578
-25.0957
-48.5965
-36.4157
2.23356
-28.1461
-8.05197
11.8181
-3.46795
27.2532
21.767
20.1087
-29.7047
0.165362
-29.8156
-29.8265
-37.4336
-30.429
-29.5012
-7.03526
-28.6787
-24.6196
-3.8517
-20.4638
-24.9145
-6.72271
-30.4797
-20.8709
-29.8183
-31.7126
-31.1641
-30.2245
-30.8733
-33.8156
-3.65114
-33.5287
-29.6467
-10.1941
-12.379
-15.1904
-29.5925
-10.0621
-20.6182
-30.1163
-33.4472
-26.4851
-28.0184
3.36893
-0.476284
-33.6728
-18.1382
-30.6206
-30.3834
-30.6126
-29.9538
-6.60678
-11.1138
-29.5681
-4.19524
-13.7163
-22.7073
-28.1674
-32.9677
1.53062
-11.6291
-8.58962
-20.8938
4.28848
-13.4354
-32.4853
34.5513
-31.7255
-32.0271
-18.1805
-26.7068
-34.1532
-28.9931
-30.1653
-34.6316
-31.239
-15.989
-51.5629
-55.1
-28.8215
-32.9814
-29.1207
-15.8683
-14.3216
-30.3636
-30.5802
-30.3018
-30.1774
-30.1625
-30.1162
-28.6693
-30.1151
-30.2087
-30.2579
-30.2052
-30.6008
-50.9588
-60.5852
-49.5063
-45.9563
-61.6564
-29.2837
3.06087
-3.9812
-0.122058
-22.5549
-23.2136
46.6658
47.8231
40.2341
40.0278
46.7822
44.2062
52.9209
-38.1109
-35.6165
2.75365
-38.2954
-23.3381
-24.6623
-42.3368
-15.7485
-15.9452
-14.9307
-21.4713
5.12181
-7.47788
-74.7656
-57.2118
-0.843964
-52.1046
-35.979
-30.3625
-33.0253
-23.9443
-30.3245
-10.2685
-16.7311
-17.879
-30.2854
-30.0292
-29.8961
-29.8212
-30.6754
-21.3441
-7.96146
-19.0867
-25.5395
-19.634
-23.4958
-29.1419
-98.5033
-39.3839
-22.8683
-20.4007
-48.4168
-36.7771
-34.3096
51.8188
22.6833
-4.8359
-37.6064
51.2938
-31.104
55.919
56.1587
54.0118
-22.5237
-34.474
-32.5324
-32.3762
-30.397
-19.3206
-34.5389
-16.8598
-19.1599
-18.5107
-54.5817
36.6656
-15.2168
33.2545
-35.482
-58.2133
38.6156
17.0302
2.05113
-27.1058
-25.8051
-30.191
-29.8406
-30.9356
-33.0142
-16.4605
-8.67879
-31.6262
-14.5788
-17.4934
-40.0773
-35.3037
-60.5898
-20.1495
-28.2384
43.2545
46.9764
53.6664
37.066
43.6743
27.0092
6.16357
1.93703
6.09959
2.96976
31.3977
14.2522
22.7823
-9.10417
-16.7437
51.165
37.3841
36.561
41.9401
-7.49507
42.9939
53.3685
48.2754
46.172
-30.0803
-29.917
-29.8941
18.8576
-9.5562
-7.05929
-10.4893
32.1211
34.2207
39.1571
-30.1043
-30.1918
35.0894
54.7938
-46.974
52.2309
56.5808
-30.4887
34.684
18.5182
-119.919
-164.482
-18.4858
-95.2738
18.2409
33.042
-82.2068
-18.4114
-15.691
-60.7177
-61.3692
-30.6687
56.1327
-30.7127
-44.9565
-7.2582
-30.6954
-31.4077
-34.6786
-29.1357
-25.9506
-33.8499
-45.8728
-85.6354
-30.6636
-70.2851
0.92032
31.0353
-36.6482
-45.5834
46.6992
44.4108
29.1615
-29.9379
-34.6579
-34.0617
-30.4272
-34.6991
12.0458
-26.2173
-21.513
18.409
-30.5433
55.0846
-33.3784
-30.3133
-31.0823
-30.5949
-31.5639
-30.4289
38.8312
-47.2454
-4.31778
17.2927
0.038837
-21.2067
-103.335
-31.3158
-30.26
-60.2557
-65.7708
-61.4561
-30.1555
-33.9818
-19.1747
-31.7292
-84.9595
-30.4447
-30.8792
-34.2621
-33.1659
-30.5892
51.4443
55.6529
29.1844
30.1246
52.1922
50.995
-30.4791
-24.907
-31.2585
44.2418
57.0697
-11.2322
-8.04247
-6.93926
-11.7031
-2.228
-27.3658
-21.0962
-23.5857
-14.2599
-27.841
-20.4135
-20.8393
-26.9038
-29.292
-28.2097
-8.9495
-20.3924
-25.5799
2.77304
-5.08708
9.73033
-21.9492
-29.5054
-31.5918
-29.3247
-1.26695
-31.2166
-25.9495
-27.8678
-25.0914
-29.3797
-28.1607
-30.3285
45.0231
-15.3161
-15.41
-16.6147
-16.1632
-27.4249
-28.1201
-38.3588
-24.4246
-22.1889
-11.8027
-27.6893
-23.2361
-29.4609
-25.5093
-24.5155
-34.8964
-21.75
-30.0668
-66.9526
56.3609
43.7448
-30.195
45.6206
-30.2867
-28.6584
52.0911
-5.23916
-52.9155
-28.5254
-4.4044
37.0172
39.5497
47.6437
55.4836
51.1011
-26.7605
-41.743
-13.9145
-9.41389
6.41667
0.168853
-28.1002
-44.8201
-58.6583
-46.5102
-42.5395
-27.2455
-18.9336
-26.9213
-27.0601
-30.9857
-30.1514
-30.3167
-30.5072
-10.2854
-12.4453
-18.0069
-11.9999
-7.11129
-14.4303
-15.6798
-28.8789
-25.2444
-9.21721
-23.2163
-30.4463
-30.6853
2.69892
-21.5438
-45.2884
-21.2945
-18.8097
-38.4986
58.7332
48.482
-15.5036
30.1616
-7.28304
19.4877
20.6016
-20.5483
-0.0859895
-13.2985
-16.6404
-25.7303
-36.259
-47.0797
-33.2085
-27.6628
-27.0409
-52.1914
-20.9541
-7.95026
-30.6588
-68.9168
-74.8305
17.5772
14.2873
21.2069
-33.4483
-52.4502
-21.1754
-37.1169
43.5398
56.1299
43.7495
21.6292
18.6467
59.4432
-5.35534
-14.3692
9.90215
16.5947
25.5357
47.0606
-51.6945
-7.17822
-28.7638
-18.9527
-23.0495
-21.5756
-25.8166
-23.8485
-19.3056
-18.2873
-36.1967
-14.3657
-2.50817
-30.2526
-16.171
-65.0795
-63.0434
10.4073
46.0029
43.7775
-11.5801
-39.9284
43.6911
10.2598
-18.0986
13.9607
-21.3635
-18.1633
-44.9189
-17.5964
-13.9952
-15.8475
49.5039
-44.286
-53.5257
-19.0482
-11.3522
-34.9174
-27.8469
-34.8892
-30.4913
-53.8103
-31.4031
33.804
33.2327
46.3944
42.8269
45.1822
41.937
-71.7125
-22.8443
-31.6091
-19.53
-31.9968
-37.0864
-28.9303
-33.4197
-19.0385
-35.7959
-32.1153
-19.4417
-4.69128
-19.4206
-17.2719
4.60462
3.10041
0.643329
-31.4189
36.8045
35.3031
-80.946
33.0249
-0.776914
23.4319
39.1812
-27.5002
-26.5114
-12.5821
-31.2607
-37.1709
-9.47158
-12.4581
-31.1998
-31.2256
-33.6251
-65.6298
-51.9687
-72.3692
-23.6766
-45.1788
-66.5605
-11.8082
-10.1578
24.3027
54.9655
-31.0158
6.04923
-30.5608
5.70568
-3.81904
1.04815
41.226
-64.0257
-25.7719
-26.3755
-21.7178
-27.7405
-28.4397
-28.5857
-28.3492
-29.3374
-11.7794
-19.1057
-17.4426
-9.34524
-32.8285
-32.3839
-29.8525
-30.8129
-27.1696
-30.1204
-29.1485
-30.0496
-30.0084
-30.0025
-27.4419
-15.0239
-18.995
-21.2089
-29.6425
-19.9857
-31.3717
-5.93496
-14.0887
-13.3796
2.10375
-5.60634
-9.61579
-2.8918
-2.47581
-0.0585295
-29.0356
-3.97694
-28.1645
-29.791
-10.9963
-7.42144
-11.5326
-16.9149
-27.5287
-23.0422
-16.173
-32.4333
-28.7617
-30.5631
1.4412
-33.6026
-31.0067
-26.2156
-29.9744
-28.8116
-19.9278
-32.3645
-23.7931
-30.6414
-15.5897
-18.6162
-30.0519
-30.3706
-10.6845
-29.9248
-29.7781
-25.7363
-22.8438
-31.196
-30.4047
-22.315
-9.97819
-14.239
-27.4272
-31.7321
3.58263
-29.7755
-29.6071
-30.0497
-3.94514
-43.3199
-77.1687
-59.2705
-7.81418
-17.3115
-29.4105
0.457171
-10.8867
2.04982
11.52
-30.8767
-14.9622
-89.6189
-66.4168
-17.8359
-30.5395
-30.3639
-30.0064
-26.2721
-30.0696
-24.3881
-26.2892
-30.1568
-33.4155
-31.9739
-25.0489
-31.1617
-20.7106
-34.7538
-10.8644
-9.43665
-25.7302
-45.7321
-8.61503
48.1429
-59.8606
-124.543
-61.0659
-31.5657
-14.6093
62.7371
9.58452
-29.7891
-30.9357
-29.9322
-29.8244
-34.5802
-30.0292
-30.1945
-30.2458
-39.8803
-10.6278
-30.2523
-30.1129
-30.2522
-3.80768
-0.179817
-4.81111
-48.7584
-31.221
-175.387
-34.6376
31.2822
-29.8649
-31.6381
-31.4412
-39.356
-28.395
55.4038
-33.9516
-29.7921
-37.5626
-29.9173
-30.752
-29.6826
47.1447
-29.9708
-8.65793
-7.1689
-3.24756
-13.0525
-6.30966
-5.65633
-6.33589
-19.3707
-10.1068
-4.05125
-29.9498
35.4983
-30.6468
-24.1355
-31.1966
-31.2217
-26.7522
59.43
-6.20907
-38.2989
-2.16345
4.4461
-4.29398
-30.2859
-18.6602
-67.811
-43.2336
-64.035
-43.8378
-82.16
-26.8411
35.1921
-31.2435
-10.3254
-42.9089
-30.0151
-44.4576
-38.6466
-28.1569
-29.8044
-29.9359
52.4731
-30.5024
-30.9674
-56.6991
38.9776
-59.7132
-30.4525
-30.9871
22.9018
-29.9342
-35.493
58.6207
-35.7251
58.627
59.8719
-29.6513
-36.2593
34.6856
-31.9422
-30.0956
-28.4907
-27.0067
-28.0151
-24.3681
-31.1737
-26.254
-31.0384
-71.2408
-67.1613
56.8926
-59.5773
44.1285
-29.1821
-17.5852
-20.5973
-29.7157
-29.9104
-29.6654
7.55775
3.4922
-2.0214
3.67666
7.96
5.25507
-26.2494
-63.5405
-67.4241
-33.7205
-123.034
-30.9237
-29.5944
-30.7258
-30.8318
-31.0463
-30.9415
-31.6559
-31.1806
-30.8635
-31.4273
-30.1294
-7.3568
-31.149
-30.396
-29.9311
-31.2585
-30.4737
-30.9844
-23.4037
-24.4018
-22.9779
-24.8054
-33.5732
-25.3807
-13.9827
-13.1408
-10.8723
-9.46293
-20.0092
-15.0072
-5.44748
-6.73507
-40.8261
-16.0792
-5.36839
-11.3033
-31.791
-6.1393
-8.10316
-27.182
-29.7202
-29.3391
-23.5134
-39.1604
-31.5444
-23.0308
6.23343
-3.07159
-29.518
-32.3014
-26.9571
-28.7662
-16.0736
-16.52
-12.4106
-60.7823
-87.5914
-14.7188
-4.38411
-109.868
-134.135
-27.0545
-10.3118
-12.1203
-62.5848
-21.9659
-29.1095
-26.8711
-29.283
-13.2938
-15.5057
-12.4813
-17.0487
-14.898
-63.2204
-54.1589
-176.344
-38.0876
-37.4863
-44.8099
-36.65
9.74058
39.7064
38.5092
10.7228
-31.0936
-0.969696
-21.7972
-19.9001
-32.4004
-31.8399
-30.9148
-35.2792
-31.0564
-21.8035
-7.79931
12.1667
-2.12099
-34.0237
-37.9961
-30.5204
-13.9019
-14.6786
-8.22138
-30.2229
-33.2689
-34.9969
30.1114
-14.0693
-22.4065
0.721889
-20.0866
-42.8704
-32.4115
-41.148
-25.0622
-45.614
-29.3073
55.9507
51.3285
56.5666
54.5398
57.0784
-20.5365
-5.06738
-4.41569
-7.2265
-8.69331
-35.6822
-37.6785
-173.239
-113.2
-3.7308
-48.7607
-31.5308
-22.7315
-22.2968
-0.543422
13.298
-1.61887
-19.7385
38.7098
54.5425
-9.84115
-8.52393
28.1437
14.6068
-34.6442
-19.8361
-45.1654
-37.8943
-26.535
-19.056
-23.9675
-28.3188
-2.93615
-15.7153
-33.5934
-25.2219
-18.7358
-19.8549
-13.1427
-20.04
-32.318
-9.68725
-4.51549
-11.1884
-2.01988
-5.00255
-28.9759
-23.2687
-17.5293
-169.383
-11.0877
-9.0672
-59.3589
-3.55934
-14.7723
-13.3735
50.1337
48.4653
45.0825
39.5741
0.852649
6.38893
6.58591
-2.35931
-5.20636
3.71783
-1.8817
3.69658
-158.034
-16.7056
-57.7311
-31.3202
8.08202
-20.0306
15.148
6.4943
-15.3087
-57.4416
-12.7475
-21.0607
7.78718
-11.9114
-67.7567
25.4762
20.8617
38.5325
7.71773
30.1697
-7.0457
-10.0807
-7.12593
24.183
28.7023
23.7759
43.7216
20.5984
29.1647
30.3104
-7.96342
-3.17681
-10.6493
-23.4814
-6.40654
-19.8581
-24.6412
-23.4268
-45.3422
-22.2352
-20.0289
-16.4552
-15.6384
-54.5362
-67.2435
-117.651
-30.0853
-10.2723
-24.793
-38.7846
-7.45745
-122.207
-80.1327
-63.1865
-30.9989
-6.86384
-0.803205
-4.15297
-10.7289
-19.0884
-6.47674
43.819
-11.0051
56.4482
-3.55248
-1.14517
57.5131
44.5426
46.1821
-7.06392
-60.2688
-4.39377
-21.2848
3.74252
11.8357
-6.64162
-28.6776
-17.4673
-17.1561
-30.8014
-31.9074
-31.1755
20.4522
43.8583
45.9973
12.177
15.301
-1.19077
-0.999374
8.89196
24.2665
-14.8474
-25.467
-46.1508
-30.7468
-32.1115
-32.6176
-33.9529
-51.6504
-93.173
15.1907
25.8201
-16.9614
27.4195
-17.8287
-34.9332
-5.07861
46.9675
-62.5259
-20.693
1.76102
-123.534
-30.8892
-34.27
-35.2982
-35.6228
-35.6729
-32.8669
-29.6263
-9.19684
3.77505
-40.0342
-37.4803
-42.5311
-22.0975
-13.8294
29.708
-0.96434
57.5331
-38.6841
-36.5542
-29.6778
-4.8893
-1.12314
27.5531
23.246
10.9204
11.7226
38.6871
-21.1506
-28.4206
11.9777
6.11293
2.77488
5.15356
30.2716
-42.4705
-28.8941
-29.8582
-22.6704
-23.3508
-25.0696
3.8103
-30.4185
-29.8068
-29.8904
-34.5418
-29.9843
-23.1924
-19.9336
-34.7262
-42.9262
-22.1598
-20.5429
0.638201
-15.6107
-19.7268
-29.7919
-31.4272
-27.6717
-30.3263
-32.0486
-31.4075
-30.2586
-30.6022
-30.6611
-29.1992
-30.3446
-14.8908
-20.5238
-23.7541
-20.5108
-23.2858
-7.58325
-8.16716
-26.7226
-18.0985
-16.7285
-24.0935
-32.2579
-30.2207
-30.684
1.22559
-29.9695
-32.4715
-17.3744
-33.0339
-31.8031
-30.1865
-27.4804
-11.3259
-16.8622
-13.1057
-14.7565
-13.4923
-14.9387
-17.3521
-13.6196
-18.3202
-17.486
-14.7186
-15.0221
-28.4474
-32.2845
-25.2805
-29.1302
-21.2697
-17.7737
-8.83495
-32.1904
-17.6383
-22.886
-11.8124
-21.7701
-8.77195
-14.5692
-23.0679
-29.788
-34.7187
41.3151
-41.584
-43.1827
39.2581
49.0701
37.914
-33.1373
10.5153
49.0558
24.1261
-19.1051
52.5165
-32.0499
53.2555
-30.2789
-30.3032
-65.1546
-62.9544
-31.1084
-47.7674
-58.8115
-34.6177
-29.7855
-30.7578
-24.9817
-31.9818
-27.2051
-29.423
-9.10952
-20.7899
-7.21964
-30.1916
-31.611
-63.4007
-7.95765
-8.51127
-30.9302
-37.6288
-75.7575
-8.30469
-39.0383
-17.2203
-15.7908
-33.7343
-18.8554
-12.8272
-44.6152
-73.0995
-17.5849
-34.8543
50.8198
-61.3519
-30.1337
-26.6401
-27.1338
37.1773
47.0752
38.7925
39.896
51.7024
58.8729
21.8398
59.1281
48.3541
46.2335
-31.7023
-31.0415
-31.8202
-32.0193
-29.8069
-27.7542
-30.8025
-33.1081
-31.0432
-33.6324
33.1311
33.7365
32.9774
-31.1914
-29.9991
-32.8469
-27.2616
-31.1739
-13.036
-11.1734
-14.1952
-5.98436
-9.63537
-10.6147
-10.6442
-8.76944
-5.25454
-13.6863
-11.2432
-31.7037
-10.9659
-36.3411
-14.9028
-10.1617
-36.2834
-23.4418
-29.0673
-31.3471
-33.4881
-33.0372
-26.8844
-30.7734
-10.7676
-34.0749
-25.453
36.6133
-25.9578
-27.5548
-29.3953
1.31848
-28.4491
-22.0386
-14.4022
-15.3339
-33.1758
-31.0489
40.1003
-23.612
-31.1948
-44.9687
-43.0593
-30.5381
-30.93
-33.949
-32.3417
-32.58
50.5881
-29.936
-30.3403
-30.0571
-30.9868
-30.306
17.9145
-0.259146
-29.9593
-30.1891
-29.2303
-7.82221
-30.4216
-30.2892
-30.4564
-25.8886
-50.362
-44.7944
-48.3095
-55.3333
-34.4674
-33.0913
-68.0285
-23.1647
-15.6445
-34.5486
-42.1356
0.841108
12.3159
15.1076
54.2766
12.4383
-14.9946
-20.0885
-24.2555
-5.49966
-19.1908
-6.57756
-7.55797
2.1296
13.7819
-30.6258
-32.8471
-34.8073
-39.8963
-36.3335
-27.8108
-28.1318
-17.1451
-13.2921
-10.3674
-7.1714
-12.8928
-13.5439
-19.9387
-18.5839
-10.3566
-10.0127
-6.11104
-39.0978
-38.1026
-35.4457
-3.26439
-23.8343
-10.8415
-14.0514
-19.4139
-13.0318
-14.6152
-17.7079
-16.1434
-20.9322
-7.462
-22.1962
-34.296
-32.7432
-52.9263
-20.3543
-9.21284
-37.6681
-24.8638
-10.5766
-10.342
-32.6649
-22.4755
-36.1079
-23.4338
-21.9278
-29.0595
-36.8267
-13.6373
-16.8289
-34.4038
-18.5068
-20.6271
-20.8571
-30.5776
-32.1721
-32.7091
-26.1014
-15.4507
-19.34
-16.4543
45.5128
40.3212
49.6119
44.2959
-33.2134
-32.2931
53.289
43.4653
53.4977
-12.4622
-1.51671
-22.1387
-14.596
-21.8239
-39.1946
-34.9391
-122.02
-99.2118
-40.3484
-37.8505
-45.0447
-37.5737
-41.2128
-49.4554
-32.9751
-78.2569
-79.8795
-77.0604
-94.754
-90.0633
-94.6834
-89.4905
-94.5526
-103.155
-106.45
-13.131
3.6295
-30.8856
31.916
-30.2132
-32.7894
-30.2914
-34.1144
-30.912
-28.6935
-29.794
-28.7821
43.9139
-124.672
-124.235
-30.525
-29.9563
-29.902
-30.0268
-30.1401
-29.0587
-30.0387
-29.8302
-30.7122
-28.2629
-16.8343
-61.4332
-29.7584
-69.2746
-122.851
39.5101
-31.5238
46.6366
54.9682
-30.353
-29.9744
-29.9845
-17.3843
51.7122
-36.0923
-15.3914
-18.7279
-16.2826
-27.3544
-31.9455
-21.3944
-31.2548
-4.67705
-33.6662
-30.043
-30.5946
-30.8859
-30.8806
-102.734
-0.674541
-80.2462
2.53921
1.36691
-7.56122
-15.9875
21.3346
25.5196
-26.0726
-30.9695
-10.5531
-30.8392
-29.6189
-29.4611
-29.5679
-29.549
-31.1442
48.0793
44.7566
-32.0672
-17.6583
-22.2642
-14.8333
-16.1402
-14.355
-29.3665
-34.3424
-35.892
-31.6688
-9.31267
-39.0135
-17.8469
-27.4261
-43.8429
-8.7743
-20.8701
-10.3472
-23.4352
-32.2541
-30.3688
-30.6678
-32.6131
-47.2781
-6.88484
4.76598
-15.8123
-11.7188
-20.4845
-15.33
-11.9032
-7.98147
-10.9908
-19.7109
-51.6398
-40.2951
-38.9376
59.6952
-20.7652
-31.6353
-36.1863
-27.3359
-30.0088
57.0253
52.7047
53.1587
56.749
40.9158
38.8274
-30.2009
2.24161
50.778
-30.0331
-12.2408
-37.9461
-28.2798
-19.8962
-9.77295
-26.0495
-19.6225
-48.326
-35.7027
-52.3798
-35.307
-45.1531
-36.1796
-53.1013
5.76961
24.9728
11.0038
-70.3148
10.2345
17.8595
-11.3865
-17.7212
-59.6519
-29.8416
-36.2461
-36.403
-69.0754
-26.5615
-45.6185
-21.682
-63.6477
4.11988
-61.4006
-48.0897
-185.826
-131.738
-27.0454
-7.72975
-89.9514
-23.1889
-26.2162
5.68108
4.47643
53.2228
48.2857
32.8383
-62.2103
-84.6028
-47.7194
-20.5324
-6.54367
-23.6062
-16.3382
-29.3438
-12.7187
-31.5622
-43.4625
-38.1932
1.10207
-56.7515
-56.5763
-46.3598
-31.0197
-35.7781
-75.7162
-71.6106
-65.043
-25.6008
-42.7522
-14.4815
-25.7403
-37.6374
-17.0075
-12.593
-7.00939
-9.17799
-10.5314
-21.1813
28.501
41.8172
48.5971
-24.611
-14.9564
11.3513
33.4223
42.7878
15.0656
41.4917
1.43459
-45.0949
-38.1614
-1.28382
2.18708
-20.4978
32.9314
-29.7664
4.34948
-13.9484
-5.53483
-12.6603
-66.0995
-103.935
23.2061
48.3867
44.1016
-8.72201
25.5705
38.5377
-34.6237
-23.6835
-26.8588
-73.0665
-87.9593
30.24