/*--------------------------------*- C++ -*----------------------------------*\
| =========                 |                                                 |
| \\      /  F ield         | OpenFOAM: The Open Source CFD Toolbox           |
|  \\    /   O peration     | Version:  2506                                  |
|   \\  /    A nd           | Website:  www.openfoam.com                      |
|    \\/     M anipulation  |                                                 |
\*---------------------------------------------------------------------------*/
FoamFile
{
    version     2.0;
    format      ascii;
    arch        "LSB;label=32;scalar=64";
    class       surfaceScalarField;
    location    "0.0882685";
    object      phi;
}
// * * * * * * * * * * * * * * * * * * * * * * * * * * * * * * * * * * * * * //

dimensions      [0 3 -1 0 0 0 0];

oriented        oriented;

internalField   nonuniform List<scalar> 
7321
(
0.000519699
-0.000306141
-0.000179637
-3.39215e-05
-0.0556423
-0.0398182
0.076291
-0.0492446
-0.0270464
-0.0136792
-0.0097756
0.0340117
-0.0105569
0.00898639
-0.00684395
-0.00163962
0.0013731
0.000701903
-0.00071024
-0.00136477
-0.000627192
0.0020003
-0.000531118
0.00620854
0.00385744
-0.0428403
0.0175749
0.012462
0.0223896
-0.0146341
-0.0202176
-0.00125457
-0.00150102
0.00394891
-0.000263246
5.54851e-06
0.0017871
-0.0015294
0.00353263
0.00705388
0.00237111
-0.0129576
0.0018175
-0.0136498
-0.00192277
0.0137551
0.0020698
0.0327812
-0.0272624
-0.00758861
0.000194308
0.00229276
-0.00061313
0.00124498
-0.00111088
6.02031e-05
-0.000664742
0.000682797
1.92792e-05
-3.73338e-05
-0.000598776
-6.59668e-05
-0.00378484
-0.00922629
0.0346706
-0.0216594
-0.000985844
0.000625122
0.000287494
7.32278e-05
-0.00818006
-0.00373293
-0.0165663
0.0284793
-0.00625687
0.0232888
0.000405984
-0.000423119
0.000720927
-0.000703792
-0.0440272
0.00709424
0.000629386
-0.00181878
-0.000533603
0.001723
0.00308312
-0.00179275
0.00214142
-0.00343179
-0.0100343
0.0126287
-0.00983268
0.000648366
-0.000218644
-0.000429721
0.00092337
0.00160855
-0.00360063
0.00106872
0.000294586
3.75599e-05
-0.0003754
4.32535e-05
-0.0179188
-0.0307824
0.0605322
-0.011831
0.0292291
-0.0020632
-0.00846294
0.026784
-0.00585904
0.00249653
0.00318264
-0.0126729
0.00699371
-0.00253926
-0.00192483
0.00110915
0.00335494
0.00236395
0.00881817
-0.00344713
-0.00773499
-0.0218789
-0.00289738
-0.0115016
0.0362778
-0.00116538
0.000746611
-8.17807e-05
0.000500551
-0.00769785
0.0344626
-0.0131118
-0.00102602
-0.00670074
0.0208386
0.0115283
-0.0131396
0.000699821
0.00146245
0.0070595
0.000308512
0.0227611
-0.00745874
-0.00453538
-0.0107669
-0.0286341
0.0217961
-0.0227733
0.0296113
0.00100736
0.00241843
-0.00304398
-0.00038181
0.0240407
-0.0267727
0.000338576
-0.000952589
0.00211867
-0.000155935
-0.00101015
-0.000638096
-0.000119649
0.000484684
0.000273061
0.000108885
-0.0100486
0.012833
-0.00289331
-0.00183922
0.00222781
-0.000126469
-0.000262117
0.00168962
-0.000426451
-0.00048296
-0.000780213
-0.000457261
0.00219445
0.000981693
-0.00271888
-0.00105854
0.00262904
0.00194333
-0.00351382
0.0113464
-0.0126933
-0.0505114
0.0518583
-0.00544134
0.00645822
-0.00505897
0.00404208
0.0590094
-0.0455931
0.0153196
-0.00791319
-0.00726597
-0.000140478
-0.0173953
0.0110099
0.0126124
-0.006227
0.0192155
0.013454
-0.0175749
-0.0150947
-0.00171104
-0.00683697
0.00224998
0.00629802
-0.000416554
0.0314763
0.0131624
-0.0154255
0.0048821
-0.00261898
-0.0129893
0.0125744
0.00750595
-0.00709101
0.00897824
0.00252898
-0.008078
-0.0366968
-0.0196358
0.0644106
0.00785044
0.00832693
-0.01221
-0.00396734
-8.41832e-05
0.000364911
2.29619e-05
-0.00030369
9.81534e-05
-4.5606e-05
0.00572532
-0.00577787
0.000500589
-0.000132803
-0.000638387
0.000270601
0.00902532
-0.00593875
-0.00367351
0.000586935
0.00261749
0.00234104
-0.000431091
0.00275656
0.000608619
-0.00187123
0.000455959
-0.000512789
0.00192806
0.000679816
-0.00120546
0.000525641
-0.000314396
0.000994212
-0.000654325
-0.00204194
0.00238187
0.00107617
0.0013729
-0.00260604
0.000156969
0.00182387
-0.000313919
-0.00043378
-0.0649356
0.0666724
-0.0290474
0.0273106
-0.000353183
0.000137773
-3.42784e-05
0.000249689
0.000776011
-0.000102931
-0.00067308
0.00147082
-8.79424e-05
-9.97197e-06
0.00390823
0.00429014
-0.00905373
0.000855362
0.000477974
0.0116338
0.0555222
-0.067634
0.001666
-0.000741486
-0.000290143
-0.000634373
0.000515229
-0.000406916
-0.000108313
0.000577012
0.000117372
-0.000179155
-0.00261705
0.000175904
0.000881331
0.00155981
0.014962
0.00149906
0.00116392
-0.017625
-0.0130794
0.0144468
-0.011548
0.0101806
-0.0229207
0.0197446
0.0400716
-0.0368954
0.00254434
-0.0017463
0.00133938
-0.00213743
0.00289148
0.00152161
-0.00396312
-0.000449969
-0.0620725
0.0372971
0.0358789
0.00584619
-0.0417251
0.000405073
-0.000111682
0.000300695
-0.000594085
-0.100585
0.0147413
-0.00035983
-0.000730255
-0.000155487
0.00124557
-0.00205806
0.000173944
-0.00115429
0.00303841
0.0110507
-0.0121612
0.0113572
-0.0102467
-0.0132426
0.00438061
0.0158357
-0.00697363
0.0453452
-0.0561809
-0.00997619
0.0116956
0.00572753
0.00668801
-0.0223917
1.47469e-05
5.89166e-05
0.000165252
0.0126655
-0.00185674
-0.00619094
-0.00461777
-0.00850117
-0.00160439
0.00913208
0.000973481
0.0121603
-0.0363288
0.00717582
-0.00670404
0.00403727
0.00313712
-0.000470347
8.95657e-05
1.9881e-05
-7.71649e-05
-3.22817e-05
8.05165e-05
-0.000150987
0.000160036
3.44549e-05
-1.4574e-05
-3.33699e-05
0.000194061
-0.000126236
0.000201924
-0.000154778
-0.00018363
0.000178053
-0.000191833
0.000197409
-0.000100354
-8.32752e-05
-7.05354e-05
-0.000127574
-0.000241956
0.000440065
0.00312809
-0.000409772
3.82441e-05
0.00409916
-2.71207e-05
-0.0017389
-0.00233314
0.00694509
-0.0203925
0.0028186
0.0106288
-0.00218499
0.00308562
0.000570185
-0.0141512
0.00122939
0.000442156
0.0124797
0.000673953
-0.00036059
-0.000313363
0.00510579
-0.00813629
0.0108718
-0.0078413
-0.000795744
-0.000707161
0.00150291
0.00023355
-0.0106539
0.00802097
0.00239937
0.0010239
0.0001287
-0.00303117
0.00187857
-6.21499e-05
-0.00122801
0.00150655
-0.000216385
0.00214597
0.000824781
-0.000831225
0.00966803
0.0115201
-0.00441385
0.00362457
-0.00260389
0.00358418
-0.00460486
0.0092484
-0.0137582
0.00308321
0.00142664
-0.00394825
-0.0104454
0.00513794
0.0092557
0.000680329
-7.74021e-05
-0.000602927
-6.1048e-06
0.000799383
-0.000112949
0.000487256
0.000195541
0.000389422
-0.000312635
-5.75081e-05
0.000541113
-5.38564e-05
-0.00906798
0.00881899
-0.00167054
0.00191952
-0.000344513
-0.000800088
0.000577456
0.000567145
0.000163297
0.000501997
-0.000124181
-0.000309313
0.000483213
0.000316497
-0.000490397
-0.00114437
0.000509775
0.000557188
-0.00349316
0.00233587
-0.00416673
0.00187739
-0.00736755
9.60984e-05
0.00539406
-0.000909673
0.00133437
-0.000108173
-0.000316527
7.49796e-05
-0.00100764
-0.000211708
-0.000735222
-0.00317961
0.0021664
0.00174843
-0.00244257
-0.0119449
0.0234409
-0.00905344
-0.00882515
0.00762944
0.00969806
-0.00850235
-0.00163896
-8.54093e-05
0.00172437
-0.0171671
0.011509
0.0172972
-0.0116391
0.000558907
-0.000505992
0.00753116
-0.00871379
-0.0072608
0.00844343
0.00146854
-0.00573789
0.00213833
0.00213102
0.000158839
0.000202823
-0.000339028
-2.26347e-05
-0.00521098
0.00166248
-0.000490682
0.00403918
0.00158661
0.00674527
-0.0016891
0.00322266
0.00435912
0.00145264
-0.00903442
-0.00476466
-0.0158627
0.0229913
-0.000540868
0.000662368
-0.0001215
-0.000490595
-0.00030147
0.000251196
-0.00337789
0.0017689
0.000223433
0.00138556
1.39081e-05
0.000178737
0.000596008
-0.000139645
-0.000293066
-4.97337e-05
-3.43675e-06
5.31705e-05
0.000613845
5.23695e-05
-0.000666215
0.000107827
-2.61151e-05
-8.17123e-05
0.00016919
-0.000159561
9.8198e-05
-0.000758299
-0.00211526
0.00500584
-0.000563257
-4.22403e-05
-2.03355e-05
0.000625833
-0.000526789
-3.64681e-05
0.000334297
-0.00028477
-4.95272e-05
-0.00045494
0.000170097
0.000367284
-8.24403e-05
0.00164637
-0.00122117
0.000548629
-0.000973834
-0.00410295
-0.000674933
0.00373492
0.00104296
0.000284208
-0.0099959
-0.0138035
0.0235152
-0.000379805
-0.00102344
0.000628115
0.000775126
0.00143264
-0.000695162
0.00135489
-0.00209237
-0.00667838
-0.0625382
0.0189902
0.0502264
-0.000905769
-0.00226495
0.000137668
0.00303305
-0.000919809
0.00215539
-0.00185719
0.000621603
0.000937029
0.00240847
-0.00425127
0.00702082
-0.00637099
-0.00769459
0.00704476
-0.012212
-0.014515
-0.00174914
0.0284761
-0.0011102
-0.00328225
0.00233439
-0.00166166
-0.00340566
0.00495951
0.000107816
0.0024111
-0.00241015
-0.0034437
0.00344275
-0.000385063
0.00155351
-0.0334986
0.0205452
0.0200716
-0.00711817
-0.000127461
-0.0021376
-0.00066935
0.00293442
0.000424029
-0.000427094
0.000885214
-0.000882149
-0.000257089
0.00120225
-0.000951262
0.00669445
0.00878168
-0.00783784
-0.00763829
-0.00210305
-0.00707989
0.0142887
0.00287853
0.00418935
-0.000373428
0.0103338
0.001741
0.00353108
-0.00337001
0.000850371
0.00439703
0.00199733
0.00179303
0.000847136
-0.0046375
0.00109562
0.000551667
-0.00120267
-0.000444615
0.00451816
-0.000677354
-0.000216239
-4.77522e-05
-0.000407188
-0.000811566
-0.0088054
0.00463623
0.00498073
-5.0456e-05
0.000129821
-7.93648e-05
-0.00649401
0.00331753
-0.00392124
0.00709772
0.00580536
-0.00548825
0.00485279
0.00212906
0.00715585
-0.0092849
-0.00227137
-6.09525e-06
0.0038917
-0.00161423
0.00400657
-0.00713432
0.00141671
0.00961584
0.00307107
-0.0125462
-0.000140743
0.000194176
0.000107652
-0.000301827
-0.00272249
0.00614059
0.00405433
-0.00747242
0.000390505
-9.02804e-05
-0.000300225
0.000801916
0.00147646
0.000804736
0.00132266
0.000586784
-0.00308161
0.00117216
0.00259595
0.00547759
-0.00436865
-0.0037049
-0.00573239
-5.48946e-05
0.00294993
0.00283735
-0.000343123
-0.000175629
-0.000156864
0.000675615
0.00224806
0.000425733
0.000690252
-0.00071494
-0.000110145
0.000714132
-0.00106275
0.00045876
0.000215465
-0.000871285
0.00119142
-0.000535599
-0.00303104
0.00160088
0.0114108
-0.0099806
-0.0118438
-0.0095964
0.00664912
0.0147911
0.00255058
-0.00101171
0.00253619
0.00256199
-0.000935371
-0.00416281
0.00114874
-0.000603613
-2.54275e-05
0.00214297
-0.00110038
0.000791717
-0.00183431
-0.000153539
0.0083148
-0.00193009
-0.00623117
0.00247395
-0.00206967
-0.000311776
-9.25027e-05
0.00590379
0.00212299
-0.00461595
-0.00341082
0.00454108
-0.00223003
0.000244124
-0.00255517
0.00262682
-0.00395002
-0.00247819
0.00380139
-0.0584261
0.032176
0.0123957
0.0138544
-0.00234321
-0.00129824
0.00197053
0.00167092
-6.72931e-05
8.52857e-05
-1.79926e-05
0.0138003
-0.00463862
-0.00550966
-0.00365203
-0.000495846
-0.00208878
0.00352165
-0.00389817
-0.0107892
0.00639801
0.00828938
-0.000278184
0.000461542
-0.001629
0.000675102
-0.00195674
0.00291064
-0.00330037
-0.00021507
0.010967
-0.00745157
0.0045933
0.00289576
-0.00341751
-0.00407155
-0.00173191
0.00952977
-0.00232567
-0.00547219
0.000189558
-0.00729385
0.00474169
0.00236261
0.00290591
0.00970621
0.000146577
-0.0127587
0.000593138
-0.00212831
0.00575492
-0.00421975
-0.000793568
-0.00373286
0.00125674
0.00326968
0.000128022
0.00205809
0.00261881
0.00951679
-0.0068211
0.00620339
-0.00889908
-2.57609e-05
0.00394784
-0.00130984
-0.00261223
0.00923197
0.0146023
0.0049627
-0.0169336
-0.00542438
-4.49591e-06
0.000434638
-8.17644e-05
-0.000348378
0.00253443
-0.00201949
-0.00152552
0.00101057
0.00064303
-0.000259163
-0.000383867
0.011667
0.0122837
-0.0133121
0.000326299
-0.00173683
0.00162487
-0.000214335
0.0054662
-0.0013686
-0.00465793
0.000560331
0.000540181
-0.00024121
-0.000298971
-0.00154798
-0.000194175
0.00236029
-0.00061814
0.00159806
-0.000225746
-0.00068478
-0.000687534
-0.00800398
0.0106556
0.0328442
-0.0354958
0.00109343
-0.000238699
1.99977e-05
-0.000874725
-0.00186825
-0.0137523
0.0224829
-0.00686233
0.00643126
0.00321555
-0.00882837
-0.000818447
0.00103351
0.00120339
0.000511583
0.000319929
-0.000426644
-0.000404868
0.00101535
-0.00263305
0.00241962
-0.00820284
-0.00861443
0.0144654
0.00235183
-0.00749187
0.00864315
0.000197002
0.0101083
0.00502379
-0.0061457
-2.37043e-05
0.00115865
0.00332844
-0.00446338
-0.00492073
-9.4642e-05
-0.000403585
0.00541896
0.0161762
0.00562794
-0.0127789
0.00216869
-0.00239286
-0.00250349
0.00272766
-8.0695e-05
0.00556939
-0.0025312
0.000369338
0.000532869
-0.00134136
-0.00207006
-0.000362303
0.00105513
0.00198768
-0.00268052
-0.000732282
0.00256917
-0.00148266
-0.000354236
-0.00204181
-0.000140696
0.00112441
0.00105809
0.00183894
0.00251111
0.00402987
-0.00837993
0.0122832
-0.0185197
-0.0137879
0.0200245
-0.00516517
0.00567343
-0.000279642
-0.000228614
0.0245957
0.00440494
-0.0184578
-0.0105429
-0.00057251
0.0010476
0.000187977
-0.00066307
-0.00717253
0.0136456
-0.00264522
-0.00382786
-0.00161907
-0.00362399
0.0058362
-0.000167576
0.000720949
-0.000553374
-0.00301539
-0.00357591
0.00921812
-0.000787813
0.000647477
-0.00238039
0.00252072
-0.00281884
0.0141844
-0.00375733
1.11201e-05
0.00266392
0.00108229
0.00324854
0.0011163
-0.00438854
-0.000722703
0.000939182
-0.00147374
0.00125726
0.000231947
6.26391e-05
-0.00240521
0.00035086
0.00205435
0.00450942
-0.00915336
0.000695695
-6.18322e-06
-0.000128586
0.000505533
-0.000370764
0.00289215
-0.00393862
-0.00397974
0.00502622
0.00222434
-0.00567863
0.000143083
0.0033112
-0.000584688
4.97634e-05
0.000505861
2.90635e-05
-0.000220638
0.000488649
0.00286008
0.00102652
0.00397548
-0.00243178
-0.010344
0.00880028
0.00164929
-0.000283629
-0.00201076
0.000645089
0.0207163
-0.00295151
0.000866034
-0.00137482
0.000712627
-0.000153858
-0.000563265
-0.00127722
0.00182316
-0.00173883
0.00119289
0.000694022
-0.00017025
-0.000374803
-0.000148969
8.30054e-05
-0.000104336
3.6078e-05
0.00176748
0.000750114
-0.00395827
0.00144068
-0.0010818
0.00245268
0.000454817
-0.0018257
0.010107
-0.00698455
-0.00218425
-0.000938203
-0.00128296
0.00271335
-2.46097e-05
9.96905e-05
-0.000257446
0.000718934
-0.000877878
7.75708e-06
0.000870121
0.013949
0.00663554
-0.0129327
-0.00765191
0.000255453
-0.000181006
-0.000791306
0.00113699
-0.000164676
-0.00668733
0.000477203
0.00764002
-0.00142989
0.00254017
-0.00520572
0.0150488
-0.0123832
0.00310947
-0.00103654
0.00202623
0.0266713
-0.0292302
0.00865003
-0.00609113
-0.00244512
0.00213065
-0.0013472
-1.08814e-06
0.000462651
-0.000291466
0.00785013
-0.0501006
0.00801385
0.000393387
-0.00293004
-0.000546945
0.0030836
-0.00147231
0.0154653
-0.00501822
-0.00897479
0.025919
-0.00648754
-0.00842154
-0.000148785
0.000416215
-0.00287132
-0.000174907
-0.000492144
0.000624811
-0.000587052
-0.00211116
-0.00246696
0.00297933
0.00236009
-0.00788672
-0.00349261
-0.00384168
0.015221
-0.00170962
0.0546728
-0.0475644
-0.0340412
0.0269328
0.015167
-0.0109903
-0.0221671
0.0179904
-3.99288e-05
-0.000287694
0.000327623
0.00268427
-0.00106611
0.0039557
-0.00557386
-0.00518159
0.00667563
-0.000808833
-0.000973546
0.000911787
0.000870592
0.0056636
-0.00118938
0.00134972
0.00161722
-0.00177756
0.00173592
0.000738152
-0.00211661
-0.000357458
0.000373241
-0.000501835
-4.63126e-05
0.000807629
-0.00152954
0.00325811
0.0034239
-0.0098524
0.00523913
0.000318054
6.42316e-06
-0.000324477
-0.00588823
0.00735718
0.000766189
-0.00223515
0.0283637
-0.0217143
-0.0119638
0.0053144
0.0249022
-0.0621121
-0.0488337
-0.0141209
0.0219158
-0.00998651
0.00219159
-0.00149276
0.00255113
0.00109874
-0.00215711
-0.00325358
0.000921817
0.00234288
0.000386617
0.00029008
-0.000187233
-0.000489464
0.0711193
-0.039415
-0.0126052
-0.0190991
-0.00425587
0.00259095
-0.00617032
0.00783524
-0.000212766
0.00150738
0.000395009
-0.000572442
-6.89599e-05
0.00252392
-0.00188251
0.00358809
-0.00178131
0.00841747
-0.00644748
0.00383134
0.0071343
-0.000416512
0.00111053
0.00054046
-0.0085786
0.00043362
-5.03083e-05
0.00301583
-0.00339914
0.0107239
-0.00431382
-0.00476373
-0.00865871
-0.00159978
0.0102585
-0.0189071
0.0107372
0.00176047
0.00640947
0.000977407
0.00309737
-0.0117779
0.00770316
0.00342069
0.00948343
-0.00277394
-0.0101302
-0.00487412
-0.00789636
0.0112982
0.00346851
-0.00940373
0.0149785
-0.00904324
0.00101168
-0.000280002
-0.000405536
0.000558077
0.000475978
0.000158826
-0.000134215
0.00406093
-0.0133578
0.00887699
0.000419924
-0.0452624
-0.0614075
0.0277623
0.0181021
-0.00517205
0.00476617
0.00138329
-0.00231846
-0.0085397
0.0129845
-0.00212633
-0.00454012
0.000903644
-0.00128425
-0.00129422
-0.00156908
-0.00100698
-0.000196326
0.00208924
-0.000885932
0.000855881
0.000119831
-0.000949617
-2.60952e-05
0.00156879
-0.0010156
-0.000553191
-0.000183539
0.00180894
-0.00131175
-0.000313647
-0.00210786
-0.00242021
-0.000596292
0.00512436
-0.000484119
0.000152989
0.000190393
0.000140737
0.00317829
0.00256927
-0.00384108
-0.00190648
0.00143688
0.00380366
-0.00678852
0.00528813
-0.00245444
-0.00143876
-0.00139493
0.0198257
-0.0279297
0.0195839
-0.0114799
0.00276303
-0.00113816
0.00169692
0.00716754
-0.0166968
0.034125
0.00332763
0.00365742
0.00493065
-0.00160302
-6.18117e-05
9.32256e-05
0.0117529
0.00238209
-0.0101135
-0.00402143
0.0107117
0.000622627
-0.00714487
-0.00290874
0.0160578
-0.00600422
-0.0107331
-0.0110975
0.000651663
0.021179
0.0344562
-0.00687833
-0.00836236
-0.00222471
-0.00141883
0.00294688
0.000696659
8.3459e-05
9.37445e-05
0.00124634
0.000849256
-0.000900348
-0.00119525
-0.00072789
0.001753
-0.00116157
0.000136467
-0.000986219
0.00331517
-0.00324876
0.00053807
-0.000202654
-0.00782729
-0.00364078
0.0254331
-0.0217923
0.005321
-0.0022661
-0.00182551
-0.00322509
-0.00293839
-0.0031641
0.00932759
-0.00761818
-0.00955974
4.12307e-05
0.0171367
-0.00663322
0.00219637
-0.000362382
0.00479923
-0.0258488
-0.00125082
-0.0200832
0.0471828
0.00212585
-0.0021955
0.0123921
-0.0123225
-0.0173236
-0.00567393
0.0266136
-0.00361613
-0.0252595
0.0233895
-0.00289467
-0.00404616
-0.00122978
0.00496663
0.0061311
-0.00715446
-0.0106267
0.0116501
0.0110476
-0.00881283
-0.00655474
0.015269
-0.00836974
0.0101764
-0.0104881
-0.00436373
0.00467542
-0.00401953
0.0115631
-0.00347062
0.0032897
-0.0177698
-0.00292775
-0.00157261
0.00255621
-0.000158819
-0.0177552
0.0323819
-0.0143425
-0.0100115
-0.0150428
0.020427
0.00462731
0.000589081
-0.00022095
-0.000368131
-0.000500058
-0.000521839
0.0010219
0.00358807
-0.00387789
-0.00106275
0.00135258
-0.000791397
0.00069559
0.00064555
-0.000549743
-0.000843713
-0.000345243
0.00189086
0.0144975
-0.01214
-0.00216618
-0.000191382
-0.0173946
0.000986984
-0.00515627
0.0215639
-0.0166899
-0.0035008
0.00898463
0.0112061
0.00115172
-0.000604881
0.0082839
-0.00883074
0.000664405
-0.014813
0.000498791
0.00223022
-0.00637716
-0.0012944
0.00635419
-0.0159196
0.0056356
-0.000213283
-0.00665941
0.00123709
0.0565212
-0.00861851
-0.0546779
0.00677515
-0.0115069
0.00534925
0.00392642
0.00223125
0.00217049
0.0149108
-0.0236981
0.00661687
-0.00814744
-0.00361833
0.00689164
0.000809255
0.011963
0.00421869
-0.016991
0.00183909
-0.00597423
-0.00547406
0.0143752
-0.00292695
-0.000941827
0.00121475
0.000493047
-0.00076597
0.00218268
0.00940593
-0.0120528
0.000464182
0.0047106
-0.00458688
0.0025402
0.00128928
-0.00774913
-0.00175941
0.00821926
0.000608109
0.00241991
-0.00170536
0.0141838
0.000795403
-0.0118679
-0.0016083
-0.000332725
0.000408744
0.00153228
-0.00704378
-0.000609014
0.00101957
-0.0568369
0.0163826
0.0362009
0.00425339
0.00109038
-0.000664288
-0.000426093
0.000710876
-0.000343818
0.0404381
0.0132391
-0.0603556
0.00100836
-0.0027736
-0.00233771
0.0010033
0.000686999
0.0497241
-0.067756
0.0180318
-1.14918e-05
-0.000172663
0.000184154
-0.0461329
-0.0507789
0.0489022
0.0480096
-0.0314771
0.038732
0.0267341
-0.0339891
-2.17633e-05
-0.00784398
0.0141295
0.000269041
-0.00105451
0.00232542
-0.00153995
-0.00192507
0.00387367
-0.00131921
-0.0316884
0.0189086
-0.0233942
0.036174
0.00591508
0.00299004
-0.00518878
-0.000323444
0.000301953
2.1491e-05
0.00142113
-0.00197756
0.00142948
-0.000873048
0.00141297
0.000223848
-0.00235952
0.00832687
0.00330691
0.00300172
0.00129183
-0.000471965
-0.000616097
-0.000203765
-0.00206762
-0.000211386
0.002279
-0.000700734
0.000461354
-0.000270019
0.000509399
-0.0170598
0.00451961
0.0180195
-0.00547929
0.000263289
0.000459789
-0.00390216
-0.0261501
0.0420811
-0.0120288
0.00275512
-0.0109026
-0.0011529
7.45363e-05
0.00112763
-4.92724e-05
-0.0036853
0.0032276
0.000670133
-0.000212426
2.73565e-05
0.000189365
-0.000216722
0.00161714
-0.00119432
-0.000119156
-0.000303671
-0.000660638
0.00272195
0.00597296
-0.00803427
0.000593336
-5.73779e-05
-0.000535958
-0.00211233
0.00137143
0.000740894
0.00674236
-0.00454135
0.00407149
0.000596328
-0.000422384
-0.000117734
0.0029945
-0.000571354
-0.00230541
-0.0798974
-0.00441414
0.0843115
0.000971872
0.000480846
-0.00129388
-0.0100268
-0.0449804
0.00684777
0.0481595
-0.0555187
-0.00465601
-0.0197227
0.010634
0.00298023
0.0239036
-0.0375178
-0.0395934
-0.0366978
0.00159949
0.00137081
-0.00369533
0.00072503
0.0521361
-0.00568547
-0.00350745
-0.0312931
0.0182043
0.0165962
-0.00328675
-0.0183005
0.0186024
0.00163972
0.00600424
-0.00604447
-0.0569397
0.0399207
-0.0225744
0.0207723
-0.00569518
-0.000881448
-6.21512e-05
0.00663878
-0.00113457
0.00132874
-0.00473429
-0.0624
0.0673588
-0.00495878
-0.0203256
0.0135927
0.00331824
0.00341466
0.0998959
0.0235778
-0.0578502
-0.0656234
-0.0453384
-0.00163208
-0.00220357
0.0159045
-0.00124013
-0.00253662
0.000677268
0.00309948
0.0147928
-0.000308331
0.0448816
-0.0187348
-0.0253099
-0.000836952
-0.00199983
0.00324184
0.00380488
-0.00504689
-0.0147152
0.00674595
-0.0995104
-0.053932
0.0910424
0.00279184
0.00156089
-0.00146907
-0.00288366
0.00700679
0.00340804
0.00848331
0.0119857
-0.00894818
-0.0176591
0.0146216
0.000856992
-0.00133746
0.000339512
0.000140956
0.00783917
-0.0111865
0.00284264
0.000504703
-0.00516053
0.00850037
-0.0203996
0.0126097
-0.0217052
0.00393497
0.0206687
0.0233687
-0.0314277
-2.16267e-05
5.50161e-05
-0.00265044
0.00197822
-5.42674e-05
-0.00273279
-0.00185317
-0.0016314
0.00319645
0.00028812
-0.0276505
0.0184595
0.0199421
-0.0107511
-0.00774384
-0.0154765
0.000810491
0.0224098
0.00257209
0.000959368
-0.00106934
-0.00246212
-0.00183368
-0.00359343
0.00357394
-0.00426132
0.0167659
-0.0172132
0.00470864
0.00299112
-0.004488
0.0177622
-0.0057212
0.00403018
-0.0160712
-0.0264063
-0.0297711
0.0269353
0.0292421
0.00245209
0.00426394
-0.00349338
0.0262265
-0.0227141
-0.00400077
0.0125904
-0.00419318
-0.000688935
0.00122361
-0.0118171
-0.00167843
0.00700154
0.0078346
0.00399826
-0.00360258
-0.0105815
0.0114059
0.0092826
0.00141129
0.012436
-0.00552397
-0.00832336
0.0165385
-0.00279503
-0.0185942
0.00485069
0.001112
-0.0016489
0.00031644
0.000220456
0.000866014
0.00763339
-0.000664804
-0.000717322
-2.40309e-05
0.000600375
0.000199008
-1.04299e-05
8.35765e-05
-0.000423926
0.00035078
-8.6342e-05
0.000680861
-0.00109458
-0.00333055
0.00329357
-0.000792811
0.000829796
-0.00634223
0.0018057
0.000256786
-0.000784521
-9.65272e-06
0.00724752
0.000271706
-0.00178926
-0.00572996
0.000911183
-0.00058464
-0.00014515
-0.000181393
-0.000129285
-0.000163185
0.000192115
-0.000648994
0.000944592
0.00150313
-0.000426611
0.00147715
-0.00394934
0.0028988
0.00063529
0.00483237
-0.00347479
-0.00199287
0.000475538
0.0171285
-0.0101066
-0.00749745
-0.0125346
-0.00383885
0.00632493
0.000132459
0.00090563
-0.00103809
-0.000666003
0.0144857
-0.011282
-0.00253769
-0.0020097
5.0477e-05
0.00266041
-0.000701183
0.000841787
0.00124461
-0.000974398
0.000888294
-0.000628779
-0.0202014
-0.000934043
0.0200548
0.00108071
0.00559935
-0.00295478
-0.00062241
-0.00202216
-0.000911947
-0.00264899
0.000307358
0.000362148
0.00189317
0.000279115
0.00657125
0.0069339
0.000992397
0.00334299
-0.00265116
0.000410443
-0.00110227
-0.00875458
-0.0186666
0.0137419
0.00126345
-0.00507116
0.00219037
0.00161734
0.00852607
0.00211719
-0.00140597
-0.00368203
0.00297081
-0.000195985
0.00024439
0.000129648
-0.00411495
0.0030013
0.00665391
0.00057624
-0.0103013
-0.00156747
0.00129598
0.000591372
-0.00222929
0.00115601
0.000481911
0.00188104
-0.00168681
-0.000766741
-4.2534e-05
-0.00143294
0.00147547
0.0109426
-0.0106543
0.00662456
-0.00691288
0.00025483
-0.000121884
-0.000132946
-0.00680647
-0.00151589
0.00163502
-0.00737682
0.0159018
-0.00105386
-0.0018804
0.00113187
-0.000599481
-0.000642531
-0.000671763
0.000178691
-0.000248414
-0.00486682
0.002072
-0.00115434
0.00394916
0.000973324
0.00100285
-0.00271139
0.00327
0.00022974
-0.00430656
0.000806817
0.0329952
0.00214733
-0.0288815
-0.00626105
-0.00207019
0.00329382
0.00063199
0.000727481
0.00194298
-0.00157058
-0.00109988
-0.000572595
0.00128173
0.000510662
0.00216245
-0.000371543
0.00138739
0.000255138
-0.000301191
0.00101793
-1.53852e-05
0.000650906
-0.00017801
-0.00045751
-0.00453362
-0.00610324
0.0120481
-0.000176075
9.8738e-05
-0.000507351
-0.0075465
-0.000458328
-0.00381229
0.00131763
-0.0104074
0.0176585
-0.00228842
0.000607502
-0.00125309
-0.000998928
0.00164451
3.05218e-05
0.000665717
-0.00180301
0.00110677
-0.0124003
-0.0273974
-0.000470301
9.04955e-05
-0.00100418
0.00285883
-0.0021121
0.000287483
-0.000164688
0.000580017
-0.000405057
-0.00032336
0.000148399
-4.85381e-05
0.000375664
-3.96435e-05
0.000768092
0.000139694
-0.00196866
0.00106087
-0.000919039
0.00163953
4.76047e-05
-0.00234627
0.00930011
-0.00416201
-0.00120742
0.000416516
-0.000904342
0.00169525
-8.64631e-05
1.3259e-05
7.32041e-05
0.000521782
0.000583091
0.000839464
-0.00194434
0.000208084
0.000397527
-0.000289875
0.000197654
0.000496232
-9.70749e-06
-0.00110295
0.000616423
-0.00652098
0.0153671
0.00970317
-0.0185493
0.0298195
0.037263
-0.0286084
-0.0384741
7.56258e-06
7.59259e-05
5.46482e-05
-0.000138137
-1.8205e-06
-0.000274668
0.000284051
6.44341e-05
0.000625833
0.00806602
-0.00277677
-0.0105542
0.0168286
0.00636451
-0.00406009
-0.00870656
-0.00867669
-0.00246393
-0.00051527
0.00186927
0.00110992
0.0114169
-0.00465991
0.0120749
-0.00306506
0.00659521
-0.00749984
0.00316718
-0.0130619
-0.00064972
-0.00157604
0.00478775
0.000845157
-5.76498e-05
0.000164444
-0.000951951
-0.00296287
0.0148217
-0.0182773
-0.00460364
0.0121478
-0.00932015
-0.097419
6.80933e-05
-0.0148932
-0.00688007
0.0637431
-0.0134852
-0.0615471
0.0158597
0.0100394
-0.0620791
-0.0023322
0.00154465
-0.00842659
0.00943915
0.0339847
-0.027831
-0.00993857
-0.00991719
0.00894859
0.00873477
-0.00776616
-0.000154518
-0.00861095
0.00607042
0.000297879
-0.000837667
-0.00206996
0.00278013
0.0231652
0.00748726
-0.0225878
-0.00806467
0.00367445
0.00122225
-0.00161313
-0.00328358
-0.00880075
0.033989
0.00279487
-0.000596445
-0.0011639
-0.00103452
0.00347209
-9.40011e-05
0.00942847
-0.0128066
-0.00889431
0.00101168
0.0100117
0.0116048
0.00162228
-0.00176531
-0.00245202
0.00129239
0.010408
0.00915275
-0.00315772
0.000139852
0.00037569
0.000329616
-0.000240332
-1.75154e-05
-0.000226271
-0.0001428
-0.000330163
0.0003003
-0.00524377
-0.00119055
-0.00500468
0.011439
-2.3301e-05
0.000379744
0.000223574
0.0268736
-0.0610236
-0.0283882
-0.000267824
0.00046798
-0.000377871
8.63645e-05
-0.000176473
0.00149492
-0.002476
-8.51354e-05
-0.000353374
0.00142119
-0.000982682
0.000333375
0.000270185
-0.000463708
0.000318949
0.00110616
0.000172948
0.0230758
-0.00665925
0.00745858
-0.0179985
0.0424177
-0.0155496
-0.0350481
0.014922
-0.0254625
0.00943254
0.00110803
0.0112479
0.00270081
0.00105527
-0.0050142
0.0118204
0.0086139
-0.0154201
-0.0020733
0.00162971
0.0135051
0.000197164
-0.011449
-0.00225319
0.000130496
-0.00631848
0.00193211
-0.00335444
0.00933364
-0.00338825
0.000457925
-0.00148381
0.00150308
-0.00481505
0.00617121
0.000371775
0.00154286
-0.00398483
0.000348293
-0.00145106
0.00110277
-0.0157504
-0.00163825
0.0073771
0.00212874
-0.000928816
-0.0020778
-0.000523796
0.000872088
0.000137025
0.000299356
-0.000311362
0.00038428
6.41064e-05
0.000964226
-0.000936503
8.01264e-05
-0.000107849
-5.96054e-05
-0.000867656
6.89343e-05
0.000858327
0.000193177
0.000194273
-0.000447055
-0.000384653
0.00110098
0.0002479
0.0151689
-0.00884218
-0.0106883
0.00688057
0.003051
-0.0053867
-0.00454486
0.0087838
-0.000314737
-0.0015885
-0.0030506
0.00680757
0.000836339
-0.00673752
-0.00469574
0.00370202
0.00773124
-0.00202707
0.000199179
0.00176574
0.00221499
-0.00111596
-0.000291403
0.000213018
-0.000110356
-0.000343422
-0.000664203
2.17808e-05
-0.000471146
-4.67834e-05
-0.00235606
0.00287399
-0.000107128
-0.00325217
0.00288816
0.000464339
0.00173902
-0.000554068
-7.76375e-05
-0.00129725
-0.000141063
0.0018333
-0.00533289
0.0207642
0.00109073
-0.00595731
0.0317665
-0.014452
-0.0122462
0.00587506
0.00586928
0.000501908
0.00278456
-0.0021128
-0.0106705
-0.00160667
0.0133679
0.00682874
-0.000787295
0.00979421
-0.01656
0.0201612
0.0242305
-0.0278317
0.0105922
-0.0127679
-0.00669138
0.00886713
0.0110574
0.00499118
0.00294294
-0.0189915
0.0201049
0.00359408
-0.0190771
-0.00462194
-0.0217614
0.0120848
0.020734
-0.00902545
-0.0159447
0.00276753
0.0222026
-0.00335025
0.00542184
-0.0023507
0.000279107
-0.00106577
0.00272051
-0.000210959
-0.00144378
-0.00239823
-0.00110556
0.00327352
-0.00543762
0.00660624
-0.00223586
0.00105146
0.00041324
0.0552402
-0.0556534
-0.00652918
0.0105601
-0.00297921
-0.00105174
-0.0165642
0.00210271
0.0041254
0.010336
0.00971732
-0.0119391
0.000957234
-0.000947274
0.00198737
0.0616645
0.00351277
-0.0570355
-0.00814175
-0.00145367
-0.007808
-0.000590732
-0.000161563
-0.00348475
0.00227191
0.0013744
0.00331433
-0.00861151
0.00275792
0.0239838
0.0238915
-0.0773592
0.0294839
0.0016942
-0.000526225
-0.000393704
-0.000774267
-0.00977737
0.00754973
0.00531086
0.00122074
-0.000768661
-0.0014383
0.0362846
-0.0257034
0.00146912
0.00153093
-0.00328361
0.000283561
0.0017053
0.00124428
-0.0023136
-0.000635976
0.0021097
-0.000415503
-0.00758304
0.00253194
-0.000181624
0.000490143
-0.000308519
0.00186028
-0.00050661
0.000874133
0.000164045
-0.00149329
0.0050037
-0.00483349
-0.0173002
-0.00564219
0.00261063
0.0203318
-0.0015747
-0.0011101
0.00111734
0.00202366
-0.0019561
-0.000986596
-0.000106871
-0.0016795
0.000125194
0.00114786
0.000406448
-0.0106052
-0.00276486
0.0157521
-0.0197821
0.00474526
0.0113649
0.00367188
-0.00706193
-0.0222244
-0.000910228
0.0123363
0.00555351
-0.00787197
-0.0100178
-0.000341974
-0.0108764
0.014639
0.0153006
0.00741179
-0.000497424
0.00256907
-0.00802457
0.0120909
0.0276336
-0.0086938
-0.0038448
-0.00133934
0.0138779