/*--------------------------------*- C++ -*----------------------------------*\
| =========                 |                                                 |
| \\      /  F ield         | OpenFOAM: The Open Source CFD Toolbox           |
|  \\    /   O peration     | Version:  2506                                  |
|   \\  /    A nd           | Website:  www.openfoam.com                      |
|    \\/     M anipulation  |                                                 |
\*---------------------------------------------------------------------------*/
FoamFile
{
    version     2.0;
    format      ascii;
    arch        "LSB;label=32;scalar=64";
    class       volVectorField;
    location    "0.0882685";
    object      U;
}
// * * * * * * * * * * * * * * * * * * * * * * * * * * * * * * * * * * * * * //

dimensions      [0 1 -1 0 0 0 0];

internalField   nonuniform List<vector> 
3918
(
(-0.081965 -0.45621 -0.611291)
(9.79008 0.194964 -0.527318)
(11.8062 0.310514 0.26956)
(12.6367 0.290824 0.49044)
(11.051 0.519571 -1.72824)
(2.75646 0.967893 -7.67209)
(2.60357 0.430703 -10.9869)
(9.4992 0.315564 1.90434)
(10.9664 0.478045 -0.272819)
(7.72844 -0.363847 2.35673)
(8.25036 0.375935 -4.20731)
(-1.96206 -0.316758 1.07248)
(-2.33208 -3.18394 1.66483)
(13.4048 0.654787 -0.293287)
(12.6931 -0.0534313 0.501254)
(6.71472 -0.0941975 -5.81587)
(5.28797 0.260609 -6.46355)
(-0.128375 -1.8003 0.207407)
(-0.136361 -1.76682 0.177287)
(6.20849 -0.339649 2.27619)
(1.49881 0.63401 -3.66831)
(11.7799 0.129337 1.03703)
(10.8869 0.462217 -0.217831)
(-0.390878 -1.08242 0.850513)
(10.7659 0.798722 0.336937)
(-2.63654 0.785242 1.27574)
(7.71934 0.634017 -2.72838)
(12.4882 0.32284 0.153339)
(-0.0453263 -1.41333 0.552416)
(-1.47087 -0.0807362 -1.06912)
(-0.187829 -1.46669 0.0537136)
(11.5076 0.362664 0.703204)
(12.391 0.0821464 -0.0638976)
(6.14537 -1.26326 2.43607)
(10.0557 -0.418119 0.958295)
(-3.5763 -2.46803 0.859821)
(11.1738 -0.19798 1.42886)
(11.7837 0.46426 1.30409)
(3.10588 0.952743 -3.86078)
(11.7661 0.906608 0.0919267)
(11.3007 -0.0623739 2.83935)
(11.9888 0.403812 -0.111464)
(7.72714 0.303623 3.29539)
(11.589 -0.239727 1.66126)
(10.7273 -0.10912 0.535042)
(9.23817 0.516467 -5.38716)
(10.4138 0.756518 1.71762)
(3.89632 0.929485 -3.40667)
(-0.626785 -1.28584 0.154611)
(13.1202 0.611212 -0.406918)
(5.82998 0.722278 -4.83168)
(0.119707 -0.094199 1.25137)
(12.1013 0.46707 -3.65255)
(-1.72754 0.403467 -1.67568)
(12.4367 0.0644539 0.0642969)
(6.30571 -0.0364867 0.0904837)
(12.4725 -0.0380733 0.332244)
(6.55005 1.97137 -0.128561)
(10.7273 0.614862 2.45395)
(7.96145 0.0473666 2.29592)
(9.49818 0.629978 -3.34603)
(12.233 0.266024 -0.0516366)
(10.901 -0.085377 0.899215)
(10.9687 0.0482024 2.05582)
(8.23601 1.79669 4.69141)
(11.9235 0.0549386 0.129228)
(8.30651 0.264722 1.22787)
(-0.451304 -0.0677724 0.194618)
(6.77207 0.363838 0.144243)
(-0.953789 -0.371268 -0.187758)
(8.99696 0.464631 3.37898)
(12.5068 0.510276 -3.10778)
(12.5469 1.00269 -2.28797)
(7.97811 0.473572 -0.773784)
(0.00578742 0.53616 -0.988116)
(0.216663 0.503621 -0.865115)
(0.323822 0.517521 -2.10861)
(-0.536257 0.453027 -1.83755)
(0.0551891 0.126749 -1.18068)
(11.2088 -0.410987 0.921006)
(-0.885124 -0.346608 0.342671)
(1.00993 0.946669 -5.03745)
(0.53601 0.0852936 -1.18092)
(5.57497 -0.277206 2.33183)
(12.0606 -0.267661 0.236552)
(0.0796419 0.216508 -1.73117)
(-0.235498 -1.64741 0.223973)
(-0.227459 -1.67164 0.177719)
(9.99318 0.0288715 -1.68416)
(12.436 0.387468 -0.447695)
(9.24583 0.480867 1.98767)
(11.1667 -0.0872644 0.224888)
(-1.49239 0.987354 1.94611)
(6.97609 0.719431 1.81181)
(11.7716 0.432096 -0.15229)
(10.0932 0.632967 0.188295)
(-0.0923511 -1.36393 0.807952)
(11.1133 -0.163426 0.375803)
(-0.126958 -0.910943 1.32782)
(2.38072 1.07465 1.63133)
(12.6381 0.3043 -0.242714)
(12.6953 0.358335 -0.230515)
(12.2804 -0.527135 0.255496)
(12.5848 0.346046 -0.323094)
(12.6759 0.362889 -0.44161)
(0.0691357 0.528808 0.365739)
(11.3806 -0.268182 0.801609)
(6.95817 0.271157 3.84115)
(10.3828 0.0145851 1.71141)
(2.67766 0.570054 -0.757356)
(0.00715444 -0.277511 0.426919)
(-0.27081 -0.363526 0.592379)
(0.0490877 -0.149613 0.0334493)
(-0.254744 -0.166297 0.305144)
(-0.409794 -0.308793 0.51767)
(-0.224609 -0.376702 0.336936)
(-0.0857666 -0.411215 0.238929)
(-0.349485 -0.308625 0.824901)
(12.1286 0.891287 -1.60874)
(8.79276 0.962482 0.255738)
(11.5602 0.38206 1.32324)
(2.40113 -0.413212 -0.543893)
(3.63496 2.07737 -0.508182)
(-0.623277 -1.41538 0.108686)
(10.435 0.310736 0.304961)
(4.0223 1.71338 -0.104693)
(0.272701 -1.58999 1.71004)
(11.9675 0.976648 -4.19836)
(3.4795 0.818357 -0.579299)
(7.11653 0.939603 -2.59977)
(10.5228 0.518022 -1.0378)
(4.12811 0.225283 -0.107599)
(10.8381 0.400305 3.91667)
(12.7527 0.475208 -1.0746)
(0.316814 1.76623 -1.36623)
(0.514975 1.88879 -2.01707)
(-0.0946329 -1.80059 0.158009)
(-0.278753 -1.67448 0.0364029)
(-0.0620505 -1.84055 0.139253)
(8.43572 -0.264679 0.270547)
(2.38622 0.917619 -0.749633)
(-0.0599167 -1.81902 0.1493)
(0.101528 0.0156254 0.14019)
(2.00018 1.35751 -2.21816)
(8.97428 0.460404 0.831104)
(12.1218 0.509142 0.0846534)
(1.31296 0.72619 -6.15933)
(2.39756 1.12198 -1.61972)
(11.8991 0.0155407 -9.04965)
(7.96491 -0.175885 0.255976)
(12.9039 0.440044 -0.491144)
(-0.0516634 -0.961912 1.9266)
(5.99838 -1.07424 1.76084)
(3.81103 -0.985827 0.186187)
(13.3244 0.426369 -0.598494)
(13.8256 0.902564 -1.45992)
(-3.13563 0.630942 1.83902)
(13.1515 1.90455 -6.62076)
(9.9037 0.586523 -1.56396)
(11.6184 0.678369 -1.32232)
(11.5039 -0.0555468 1.24849)
(-0.196555 -1.26716 0.234761)
(-0.382618 -1.23487 0.356216)
(-1.64205 -1.00627 0.430804)
(-0.331323 0.160946 0.341956)
(-0.265442 -1.66226 0.379319)
(-0.0282707 0.0328236 0.169365)
(0.94495 -0.733826 0.212207)
(-0.126181 -0.365529 0.204469)
(-0.103057 -0.0943823 0.428724)
(5.6603 1.14389 2.53193)
(-0.00883457 -1.60166 0.226247)
(-0.00129369 -1.67269 0.182392)
(0.0980938 -0.840748 0.32993)
(-0.00217506 -1.25669 0.285216)
(-0.147908 -0.409463 0.186862)
(-3.05029 -1.3425 -0.38019)
(10.8639 0.532606 3.07814)
(1.39889 0.910471 -4.01186)
(6.66392 0.835162 -3.48735)
(11.0834 0.678074 0.890916)
(-1.30381 -0.575811 -1.03715)
(-1.76661 -1.28867 0.596823)
(-2.1622 -0.684667 -1.01893)
(4.65255 -0.195239 -0.306629)
(11.0854 0.200377 1.57551)
(3.34355 1.23355 1.50874)
(13.0191 0.529187 -3.59037)
(1.52199 -1.4332 2.50282)
(5.45125 2.07425 -0.341051)
(12.3203 0.132004 0.399407)
(1.8268 -0.388722 -1.11818)
(2.96421 0.809613 -2.1189)
(1.90914 1.43256 -1.29209)
(13.1732 0.76575 -2.07096)
(8.66585 0.787051 -0.049998)
(13.3548 0.633992 -1.81901)
(9.43566 0.323791 0.489654)
(8.15289 0.529726 0.947873)
(10.7124 0.845264 -2.8629)
(4.7821 -1.1915 -0.258443)
(3.14975 0.565782 0.248698)
(-0.00535674 -1.38608 0.218585)
(13.4682 0.397566 -1.91603)
(-0.187156 -0.262302 0.155624)
(7.88066 0.711393 0.951794)
(8.82224 1.89756 2.45804)
(9.78705 -0.154828 7.16162)
(2.22131 -0.246609 0.461757)
(9.18036 0.461629 -2.99632)
(13.0592 0.485525 -0.0611402)
(-0.561999 -0.568765 0.210538)
(12.0842 0.557608 -2.43609)
(-0.515318 -1.51434 0.091487)
(7.32758 0.520001 -3.38601)
(9.75739 -1.49562 -8.94742)
(12.9411 0.865972 -0.959443)
(13.4591 0.46304 -1.42085)
(-0.383928 0.356582 1.28565)
(7.88651 -0.18644 -6.42671)
(2.56851 0.529729 -0.403018)
(1.18382 -0.283615 0.178573)
(-0.319631 -1.49162 1.11851)
(9.23959 -0.520565 1.93119)
(9.24046 0.528263 0.552634)
(-0.139815 1.3075 1.76948)
(5.47073 0.951467 1.35109)
(0.807419 -0.182987 -0.545097)
(11.5307 -0.866619 -4.73547)
(8.3383 0.792114 1.36568)
(10.5508 1.00389 -0.275275)
(-3.34969 -2.23509 0.2952)
(9.14135 1.47516 -5.95989)
(13.374 0.434335 -1.53649)
(10.7445 -0.454702 0.773073)
(7.39841 0.914447 0.671465)
(-0.117929 -0.446286 0.0733985)
(12.5787 0.534543 -1.36197)
(-1.6535 -0.426376 -1.61003)
(11.3275 0.392614 -0.918634)
(-0.594177 -1.50149 0.110892)
(13.3464 0.0966945 -1.81877)
(12.8432 0.534708 -0.660757)
(12.8137 0.496856 -2.82925)
(11.5729 0.716333 -1.54971)
(6.48007 0.702652 0.210743)
(10.9806 0.645746 -1.41933)
(11.904 0.964815 -3.5106)
(10.1324 1.02474 -6.35938)
(7.17604 0.785133 -0.938169)
(13.5071 0.386866 -0.686498)
(3.06918 0.0554219 0.653963)
(9.66448 0.427841 1.56199)
(10.2305 0.527712 2.84839)
(-0.547101 -0.309406 0.796719)
(5.45285 0.589463 -1.01944)
(3.45194 -0.585579 -0.557802)
(10.9853 -0.00367266 3.0121)
(4.6609 -0.18302 0.00890352)
(13.9476 0.659501 -2.48291)
(-0.169593 -0.438605 0.843151)
(-0.074479 -0.869115 0.364643)
(0.294199 -0.906831 0.956917)
(12.6082 0.0900634 -0.0761028)
(0.967538 0.579782 -5.70039)
(9.98408 0.330049 2.88841)
(7.33974 1.02428 3.22762)
(6.97003 0.809472 -3.13171)
(2.19844 1.37622 -2.60311)
(7.14311 0.592311 -3.10562)
(2.37277 -1.81187 1.80022)
(13.6315 0.698713 -1.28408)
(11.3852 0.480599 -1.6414)
(12.5241 0.480908 -4.10554)
(12.7635 0.421446 -2.63756)
(9.79709 0.662682 3.38388)
(2.62932 -0.037659 1.28285)
(9.02267 0.195331 0.374095)
(12.2419 0.461169 -2.62874)
(9.23386 0.651102 -3.08904)
(12.1147 0.483437 -4.38098)
(12.2629 0.273939 -6.36474)
(-1.18794 -1.26072 0.354812)
(10.29 0.509935 -2.51335)
(11.4985 0.466068 1.63911)
(5.95508 0.198059 4.44913)
(12.2337 0.238306 1.06864)
(4.51537 0.585799 0.66661)
(10.9539 0.636869 -0.980707)
(11.7656 0.878084 -2.46824)
(1.33071 -2.01934 -0.841357)
(13.4087 0.376295 -1.2465)
(10.1329 1.7594 -8.11098)
(10.2673 0.577069 -1.25922)
(13.7624 0.334419 -3.37756)
(12.6151 0.747879 -4.00228)
(4.96243 1.03242 -0.334093)
(-0.15235 -1.50793 0.065679)
(-0.142336 -1.67256 1.89997)
(12.9029 0.401068 -1.51525)
(-0.173741 -0.900503 0.293465)
(11.0226 0.597682 -3.85956)
(10.3806 0.441331 -2.89276)
(-0.0356141 -0.664024 0.79607)
(11.7049 0.838408 -1.29537)
(-0.220078 -1.30068 1.11326)
(9.66778 -0.145946 3.86722)
(6.50649 0.72847 -3.33316)
(12.0619 0.251535 -0.329992)
(13.359 0.532146 -3.88838)
(-0.619681 -0.302228 0.64251)
(4.93226 0.323419 -8.37875)
(-0.171271 -0.340073 1.02936)
(0.0714259 0.359253 0.130654)
(12.8507 1.08209 -4.69516)
(5.00806 1.45222 -8.29462)
(12.1311 0.494214 -1.47155)
(7.30478 0.557869 -2.92128)
(2.07444 0.512659 -0.00489679)
(5.92822 2.01008 -1.00892)
(11.5697 -0.168623 2.34255)
(-0.252409 -1.46471 0.363428)
(0.353477 0.331808 -0.444382)
(3.49521 0.506199 0.97685)
(4.63719 0.343834 0.372555)
(6.91093 0.606435 0.484687)
(11.2542 -0.139064 1.41367)
(12.799 0.727647 -3.85456)
(-0.011014 -1.21058 0.557827)
(10.8049 1.0257 -0.305534)
(4.62086 1.16709 1.96068)
(10.9455 0.745748 3.80165)
(11.1124 0.333917 2.26688)
(-0.100586 0.0328659 -1.90351)
(-0.202806 -1.535 0.399057)
(6.16787 0.661105 2.75073)
(5.49295 0.297716 0.545077)
(13.1517 0.11195 -0.0735806)
(4.58551 -0.185217 -0.25762)
(12.0029 0.892404 0.17849)
(12.0242 0.289708 -0.270663)
(-0.692324 -0.24405 0.242995)
(7.4195 0.855502 0.610917)
(13.1973 0.457056 -1.54579)
(5.94452 0.710152 -2.86645)
(5.91622 0.851715 0.508072)
(2.14881 -0.412937 1.36931)
(7.57641 0.657609 -6.18608)
(-0.40482 -1.33919 0.281541)
(4.07205 0.887332 1.7452)
(7.89611 0.722912 0.953975)
(-0.395322 0.424266 1.02186)
(7.82005 0.335356 2.49315)
(11.8484 0.247112 0.745676)
(10.2218 0.0329794 -0.100022)
(11.9734 0.474363 -0.283198)
(-1.36087 -0.303931 -1.4433)
(13.7973 0.689287 -3.03874)
(-0.1101 -0.455602 0.123815)
(11.7932 -0.309835 0.596384)
(13.0307 0.481727 -1.68601)
(0.405481 0.298454 0.940229)
(0.136257 0.381116 1.34246)
(10.1183 0.533632 4.5669)
(3.07697 0.141249 0.70283)
(-0.14355 -0.268494 1.17895)
(9.06709 0.30176 0.108479)
(-1.77134 0.025969 -0.619453)
(3.89143 -0.0955526 1.24336)
(9.65293 0.0800823 3.36457)
(11.7496 0.469961 2.0044)
(9.54153 0.0605405 0.73996)
(10.7041 -0.185569 3.62516)
(9.50526 0.433778 3.74843)
(10.7491 0.137796 1.7815)
(0.183737 0.0575806 -1.53806)
(2.03254 -0.204376 -0.398163)
(-1.03688 -0.375849 -0.0373124)
(11.7525 1.25109 3.03843)
(11.4513 0.00731136 -0.100291)
(10.6289 -0.209308 0.982426)
(5.93137 -0.134751 0.631789)
(10.826 0.604166 1.10399)
(12.4226 0.46755 -2.88874)
(3.95772 -0.0264862 1.01157)
(-1.27967 0.596256 -1.38459)
(-0.85641 -0.498722 -0.373938)
(0.104304 -0.319719 1.78617)
(0.324508 -0.0396514 -0.589474)
(5.91469 -0.374114 0.129241)
(-0.808597 -0.366666 0.162451)
(1.43822 0.347436 -0.596705)
(-1.16129 -0.869764 0.296639)
(8.67575 0.672911 0.505526)
(11.9081 -0.0290989 0.867482)
(5.0142 -0.00884419 -0.22736)
(4.48598 0.358068 0.238571)
(11.5385 0.325833 1.34429)
(7.36502 0.381401 0.593373)
(6.16386 0.357752 0.708714)
(0.239901 0.296853 0.0965032)
(12.3607 0.295837 -0.460431)
(13.4441 0.353064 -0.269145)
(9.75242 0.50992 3.24629)
(7.55876 0.168973 2.0804)
(7.82889 0.137636 2.1719)
(12.6498 0.0635839 -5.8034)
(0.0535133 0.69905 0.149602)
(0.440294 -0.35878 -1.29408)
(8.09981 1.94659 -0.201352)
(-2.0174 -1.39133 -0.0874576)
(13.4951 0.798435 -1.71686)
(12.347 0.221805 -0.0791472)
(0.859004 0.524185 0.26843)
(13.4845 0.46312 -1.40768)
(10.8528 0.217403 1.91391)
(-1.77148 -1.80478 0.864891)
(12.3665 0.273456 0.161052)
(13.1243 0.500358 -0.616569)
(12.065 0.0691363 0.863582)
(11.3464 0.0615552 1.60479)
(4.40738 0.660185 0.158292)
(12.4671 0.400962 -0.285565)
(12.8739 0.461304 -0.326481)
(6.34694 -1.07956 1.81498)
(12.1589 0.120978 0.554333)
(10.6513 0.41213 1.86607)
(11.9428 0.0350519 0.552399)
(9.55519 0.420515 2.0026)
(7.21401 0.899089 -2.93646)
(10.6803 0.778798 1.58335)
(11.6691 -0.124815 0.868584)
(-0.0042674 0.165795 0.946018)
(0.60208 0.664503 -4.14634)
(8.13696 0.707738 -2.82301)
(1.40577 0.628889 -4.71751)
(4.91041 0.408536 -9.24029)
(12.9565 0.490339 -0.62853)
(12.3206 0.00575971 0.526526)
(12.8971 0.416395 0.174542)
(11.9287 0.486606 -1.22961)
(13.5184 0.634296 -0.737609)
(4.00957 -0.288579 0.0552375)
(10.516 -0.062525 2.57301)
(7.29554 1.63141 4.27228)
(11.9417 0.429436 0.888378)
(10.9462 1.9173 3.79695)
(10.8332 1.18954 1.3795)
(8.27825 1.34227 4.16618)
(6.72648 -0.291409 2.44959)
(-1.6734 -0.199264 -1.41272)
(13.5168 0.632611 -0.89981)
(-0.171307 0.660337 -1.56808)
(13.1544 0.554058 -0.0508026)
(13.708 0.501117 -2.85106)
(11.8828 0.520338 -0.28607)
(12.7549 0.28757 -8.89361)
(9.22671 1.084 8.8072)
(8.11773 1.36498 -1.42367)
(-2.11278 -2.31042 0.828666)
(12.0359 0.834358 0.0267829)
(1.12107 0.799835 1.22671)
(-0.427953 -1.17183 0.433896)
(11.1887 0.491357 0.768159)
(-3.41082 -1.62771 -0.249432)
(-0.540251 0.531471 -1.43215)
(11.9335 0.568413 0.0335993)
(-0.727255 -0.207055 0.255082)
(12.0081 0.763513 0.213971)
(11.2378 1.02177 0.397626)
(-0.15639 -1.65508 0.226743)
(10.4438 0.839597 1.90304)
(11.1852 -2.54534 -4.34483)
(-2.42006 0.408561 1.7979)
(11.2736 1.38443 0.30915)
(7.22883 0.834272 2.49291)
(0.330453 0.92304 -0.354773)
(-1.18941 0.162275 -0.686906)
(9.63572 -1.00254 -2.00133)
(10.7667 0.138847 4.08522)
(-0.72287 -1.33201 0.877115)
(-0.435817 2.53445 2.37981)
(-0.24924 -1.53238 0.560882)
(11.4722 0.296679 1.78709)
(-0.870095 -0.41111 -0.166434)
(11.0288 1.0683 0.725385)
(9.03781 0.955552 7.79866)
(-0.594234 -0.968135 0.212916)
(6.13587 1.05212 -0.26337)
(-0.816991 -0.431794 0.217485)
(-0.950826 -0.201313 -1.12414)
(0.747467 -0.506972 1.04547)
(0.424771 0.965926 -0.541777)
(1.63273 1.24197 2.91443)
(7.97375 0.717851 0.374617)
(0.109784 1.87714 0.19606)
(-1.25938 -0.493633 -0.857269)
(12.0852 0.269422 0.113155)
(7.29968 0.252602 -2.25312)
(11.6376 0.601422 0.526634)
(12.1033 0.330334 0.14781)
(10.8942 1.1974 -0.404932)
(10.3251 0.0567832 -0.0268711)
(-0.131336 -0.340148 0.68537)
(11.7929 -0.300051 0.54692)
(11.3772 0.138618 1.16188)
(3.29729 0.488497 -0.531233)
(0.892873 -0.390872 1.58836)
(9.61737 0.0213539 0.187237)
(12.0816 0.399743 0.121516)
(12.6201 0.456193 -2.75138)
(11.9377 0.50689 -3.00571)
(11.9298 0.18904 0.0752595)
(9.07705 0.772937 1.78612)
(11.8569 0.946253 0.792484)
(10.5488 0.65422 0.336392)
(12.8115 0.0671493 -0.158224)
(11.5344 0.495103 -3.25308)
(12.4328 0.440074 -0.12446)
(10.7535 0.0597261 1.61174)
(11.5954 0.484201 -2.7323)
(2.28986 -2.03931 2.23981)
(11.9574 0.23998 0.0786469)
(2.4474 0.252461 0.124221)
(11.0497 -0.467976 4.59442)
(7.34304 -0.244362 1.86921)
(-0.622351 -0.567092 -0.366862)
(11.2505 0.775456 -1.20934)
(11.172 -0.156912 2.74107)
(11.3512 -0.277225 3.21765)
(11.0774 -0.40973 2.74399)
(9.81885 -0.294157 -2.49191)
(6.11886 0.985988 -1.70331)
(11.6338 0.540666 -6.19053)
(6.50697 -0.120388 1.91174)
(12.4891 -0.121603 0.618113)
(10.4222 0.355247 -6.37509)
(11.2686 0.477343 -5.03031)
(11.3578 0.503759 -0.419794)
(11.6133 0.559792 -3.7981)
(4.78895 0.0718596 0.317849)
(12.5324 -0.161791 0.574568)
(11.776 0.601313 -1.52606)
(11.7722 0.423677 -0.205538)
(8.87321 -0.400729 0.729634)
(9.40239 0.282666 -2.96306)
(8.83943 0.749484 0.838714)
(5.61674 -1.38185 2.98236)
(12.455 0.484686 -1.55326)
(12.5044 0.41116 0.160995)
(12.689 0.279025 -0.256959)
(6.92029 0.643441 -0.928535)
(8.13704 -0.820173 1.94458)
(3.47198 0.71574 -3.22251)
(0.49236 1.65237 -2.81069)
(-0.500943 -0.592081 0.608522)
(1.78792 0.00791338 -3.48902)
(12.4472 0.937391 -1.23622)
(12.0964 0.545411 -3.15627)
(2.06391 1.23369 0.838832)
(4.06296 -0.580918 0.0849894)
(0.841397 -0.0132623 -0.750236)
(-0.0734671 -0.567487 0.403849)
(0.635816 1.2119 -0.528363)
(-0.787672 0.182241 0.2743)
(12.4519 1.54774 -6.92694)
(12.8193 0.448572 0.834079)
(12.9534 0.517876 -0.688906)
(-1.55978 -1.97574 0.162457)
(12.712 0.486732 -0.721007)
(12.11 0.407161 -5.19817)
(4.9811 1.1202 -0.160744)
(2.73681 0.48052 -2.0238)
(12.1831 -0.0399657 1.4186)
(12.4884 0.641402 -0.779286)
(13.9311 0.290215 -3.93223)
(4.83857 0.559554 -1.34887)
(12.9814 0.512169 -0.460147)
(-1.18466 -0.190799 -0.0470975)
(12.8015 0.307025 0.373147)
(8.68554 0.639676 -3.42622)
(8.93214 1.05247 8.33671)
(9.5159 0.596045 -6.01094)
(-0.369176 -0.370062 0.562641)
(5.22779 -0.156995 0.463035)
(9.18069 -0.0659629 2.22138)
(1.01193 -0.351893 -1.0554)
(1.61329 0.244779 0.905175)
(6.92208 -0.493034 -0.548796)
(4.31697 0.608009 -0.500291)
(9.66927 0.165104 3.06454)
(-0.602208 -0.344974 -0.00100928)
(3.69774 0.623338 0.525283)
(12.6523 -0.114831 0.160072)
(6.73337 0.254555 0.711277)
(-1.86492 0.322797 0.888242)
(0.228761 0.0404823 -0.943104)
(8.15321 0.914107 0.221892)
(9.58279 -0.173601 -9.42548)
(13.5294 0.477823 -2.85503)
(12.539 0.225012 0.143579)
(10.1452 -0.934281 -4.12215)
(1.18986 0.0401667 -1.71166)
(0.0803482 0.90539 0.597734)
(0.394421 0.825578 -1.34804)
(4.85139 0.734599 -1.32087)
(-0.226285 -0.513135 0.854979)
(9.88868 0.81369 0.817925)
(-0.063776 -0.753319 0.577684)
(9.5097 0.662457 0.843192)
(0.879043 -0.32678 -0.896178)
(10.2209 0.625405 3.71931)
(-1.14908 -0.785214 -1.41384)
(4.44333 0.975946 -2.86321)
(11.4649 0.381847 1.18422)
(0.443152 0.387157 -3.08519)
(3.34631 0.0328063 0.503267)
(-1.03122 -0.391233 0.186544)
(-0.587018 -0.414079 0.409174)
(-0.799899 -0.40012 0.430262)
(1.05848 0.487948 -0.657308)
(-0.409597 1.05191 -1.19373)
(5.39226 0.406931 -0.131747)
(4.95149 0.950237 -2.72716)
(-0.475053 0.124271 0.251702)
(5.74142 0.579203 -6.31853)
(-0.353211 -0.511388 0.208881)
(-0.698569 -0.977126 0.0339344)
(-0.435997 -0.398507 0.695069)
(-1.59975 -1.63904 0.409591)
(8.89154 0.67743 1.33963)
(11.7389 0.0400681 0.335108)
(-0.173064 -0.440632 0.315858)
(-0.402042 -0.396436 0.52725)
(-0.308101 -0.498185 0.279612)
(7.99088 0.83089 2.88872)
(11.1808 -0.270827 1.41891)
(7.30211 0.986586 2.69491)
(11.2671 -0.342125 2.37339)
(12.8698 0.332456 -3.66296)
(13.1632 0.18206 -0.417235)
(13.1323 0.145007 -0.289681)
(12.4502 0.0154632 0.351834)
(5.73131 0.481 2.5359)
(-0.800996 -0.253678 -0.396585)
(9.89669 0.152001 0.420759)
(9.32498 0.017381 1.51634)
(11.9182 0.0448449 0.290675)
(11.0377 -0.258396 3.64262)
(10.7516 -0.056118 0.46381)
(11.2866 -0.0401934 0.49554)
(-1.67375 0.414503 -0.232739)
(10.5672 0.595043 -1.17842)
(8.24572 -0.379906 2.04398)
(12.0557 0.364796 -0.862056)
(11.9497 0.36534 -0.939716)
(7.21479 0.494875 -1.22001)
(-0.84484 -0.353073 0.487812)
(3.9025 -1.74155 2.34535)
(3.84486 0.201877 -0.288697)
(11.3466 -0.564853 1.90732)
(3.1061 0.58099 -0.587095)
(12.5139 0.238548 0.063478)
(10.0384 -0.216682 4.41927)
(10.435 0.483496 7.833)
(10.8894 -0.216556 3.69958)
(10.7562 -0.072313 7.16517)
(9.77898 0.189771 4.24974)
(-0.710638 -0.243605 -0.223192)
(-0.892197 -0.376652 0.0342466)
(-0.8129 -0.258747 0.182003)
(7.67092 0.805711 0.711134)
(-0.517771 -0.431597 0.642181)
(10.8848 0.583869 0.928895)
(-0.650493 -0.380505 0.480135)
(-0.666519 -0.253186 0.156281)
(-1.82286 -0.793235 -0.62141)
(1.26754 -0.533392 0.622986)
(-0.659469 -0.234793 -0.207281)
(0.725336 -0.671889 0.96177)
(6.84921 0.271574 1.93492)
(7.92689 0.119364 1.85695)
(12.338 0.0747823 0.785717)
(5.28764 -0.645646 2.01766)
(8.86847 0.156654 2.74163)
(12.4864 0.475497 0.827704)
(-0.91376 0.218089 -1.79138)
(2.48733 -0.0830237 0.766074)
(13.06 0.639996 -2.2103)
(13.5149 0.489694 -1.79179)
(0.640863 -0.500985 0.684893)
(13.4828 0.473387 -2.29263)
(13.1248 -0.455852 -7.31072)
(5.71297 0.272608 -1.4808)
(10.7723 -0.262255 0.929326)
(8.70884 1.28029 -1.85763)
(4.09783 -0.0273149 -0.979663)
(-0.103174 -0.530779 0.381306)
(-0.390724 -0.395759 0.0449644)
(-0.111468 -1.15937 0.412268)
(-0.860486 -1.08016 0.363359)
(-0.138431 -0.518082 0.18048)
(0.132534 -1.11518 0.508414)
(2.53326 0.124815 0.675698)
(12.6505 0.581687 -2.20525)
(13.0131 0.589248 -1.77459)
(13.273 0.554903 -2.40459)
(11.4321 0.593941 -2.24194)
(3.52535 0.966033 0.688773)
(3.07859 0.276884 0.875073)
(2.43209 0.474158 1.38928)
(1.9077 0.763038 -2.79719)
(8.61106 0.557021 -4.45978)
(8.77635 0.896036 -3.74462)
(6.67403 0.757671 -4.00816)
(5.831 0.650279 -4.06173)
(7.0814 0.801085 -4.66496)
(12.7361 0.311878 -0.131579)
(12.4912 0.291764 -0.365347)
(12.519 0.25216 -0.0993152)
(11.1465 0.482045 -1.40005)
(7.20707 0.401998 -4.25593)
(12.3183 0.233217 -0.114489)
(12.7078 0.314605 -0.07869)
(12.2749 0.383038 -0.116069)
(13.4303 0.526945 -1.26535)
(12.4935 0.384856 -0.296308)
(11.7713 0.438458 -0.317106)
(12.2654 0.353528 -0.15064)
(11.99 0.441848 -0.165813)
(5.34364 0.870738 1.18884)
(2.17243 -0.207771 0.393003)
(4.13969 0.526538 0.552702)
(12.0875 0.920198 0.0533134)
(4.76293 0.731507 1.49487)
(12.0792 -0.0970128 0.0862562)
(9.56225 0.0802483 5.47435)
(12.9389 0.540602 0.374983)
(9.56387 -0.184983 2.00769)
(10.8706 0.790214 -3.03805)
(11.9473 0.757453 0.0320314)
(5.30306 0.593928 2.22697)
(10.1201 0.770224 -3.39884)
(-3.38163 -2.46955 1.14938)
(11.1985 0.171546 0.0581526)
(-0.491047 -1.16428 1.06614)
(8.09739 0.799198 4.72986)
(-1.7263 -1.03111 -0.523124)
(12.6127 0.2555 -0.131346)
(7.77661 0.772631 -3.26595)
(7.92934 0.83251 -3.45836)
(-0.253942 -0.987055 1.35572)
(13.3703 0.441714 -2.07535)
(-0.694317 -1.58388 0.151083)
(5.64451 0.643003 -5.97744)
(2.99241 0.194525 0.00216219)
(3.87362 0.48805 0.0434045)
(10.3587 -0.128372 1.54649)
(-0.182403 0.370853 -1.88134)
(-0.57149 1.25864 -1.65725)
(-0.724604 -0.23147 0.0694067)
(9.37429 1.25043 -1.46439)
(12.6011 0.34442 -0.53097)
(12.4662 0.371465 -0.816052)
(8.89318 -0.635689 1.66097)
(13.1642 0.547492 -0.218042)
(11.22 -0.177393 3.07144)
(11.0765 -0.206288 3.2556)
(11.1789 -0.460441 3.14502)
(8.55206 -0.606873 3.0797)
(10.0059 0.350816 1.46564)
(11.4551 -0.469474 2.1218)
(12.8507 0.403384 -0.268425)
(6.0555 0.894822 -4.31896)
(6.4845 1.11113 -5.48632)
(10.9323 0.256294 1.40765)
(7.48559 0.870159 -2.63661)
(7.92455 0.927299 -4.97746)
(13.4294 0.517647 -3.097)
(-1.64599 0.39565 1.52069)
(3.2426 0.841043 -1.78869)
(7.02959 -0.186718 -2.22386)
(9.8299 0.51508 -1.34126)
(9.66231 0.515755 -1.34572)
(11.5691 0.338632 -4.39312)
(10.2943 0.554681 -2.01814)
(11.2948 0.333639 -0.747326)
(7.47218 0.724911 -2.0087)
(10.166 0.716693 -4.96014)
(5.70762 0.977353 -1.89974)
(13.9197 0.568326 -3.51298)
(11.7692 0.465878 -2.62338)
(7.64284 0.975846 -5.45659)
(14.0023 0.821073 -5.35993)
(10.5949 0.80365 -5.79351)
(12.1404 0.239983 -0.138342)
(12.28 0.367323 -1.02397)
(12.6764 0.502856 -0.655062)
(12.6968 0.578718 -1.19277)
(12.9396 0.504355 -0.647863)
(12.9933 0.496218 -1.06071)
(12.5251 0.457717 -0.981495)
(10.4164 0.558772 -3.44274)
(8.00478 1.08456 -1.88308)
(4.49399 2.33192 0.625511)
(8.20398 0.545911 0.548123)
(-0.519996 -0.540507 1.19167)
(11.8838 0.926697 0.324616)
(6.54064 0.58708 -0.0849533)
(7.6434 0.676577 0.927277)
(13.0736 0.502887 -0.204991)
(10.1456 0.514072 1.91937)
(12.0455 0.201797 1.08882)
(1.78084 1.02692 -3.3551)
(11.9182 0.885389 -2.14023)
(9.97531 0.655681 0.274388)
(12.8037 0.390996 -0.114967)
(7.43019 -0.222196 1.92455)
(10.591 -0.0870765 0.423868)
(4.96412 -1.28237 0.998173)
(13.9191 0.735289 -3.57245)
(12.2545 0.518464 -3.48246)
(13.9667 0.575624 -2.71515)
(12.7632 0.339562 -2.7517)
(12.036 0.702968 -2.04152)
(13.5887 0.598455 -1.77791)
(11.9581 0.756076 -3.69321)
(11.5944 0.711397 -3.56981)
(13.6783 0.761441 -3.19396)
(10.9175 0.586273 -5.2975)
(6.78398 0.662671 0.504592)
(12.1438 0.787193 -5.03773)
(-2.31726 -2.99082 1.59803)
(11.2804 0.454954 -3.55705)
(12.3326 0.349298 -0.633558)
(9.66668 0.838379 -2.48166)
(13.7004 0.462065 -2.65594)
(11.1344 0.627757 -5.36464)
(10.235 0.837446 -2.1156)
(9.53641 1.49721 3.04067)
(0.575489 -0.260445 0.859145)
(-1.32708 1.11605 1.94412)
(11.936 0.14434 0.472736)
(8.24097 0.622059 2.94179)
(8.02935 1.38996 4.74606)
(5.3503 0.307889 0.067955)
(11.9702 0.80296 -3.64462)
(11.0912 -0.241351 1.17714)
(12.9795 1.09675 -4.02057)
(11.0688 0.629369 -0.404778)
(11.637 0.341694 -0.837502)
(11.5452 0.779188 -3.89567)
(11.1146 0.856367 -4.1263)
(11.1223 0.887925 -8.35609)
(12.0196 0.869522 -4.01079)
(12.7285 0.0423263 0.411759)
(8.79357 0.46407 -11.4246)
(3.10893 0.419492 -0.171534)
(12.3427 0.948636 -0.477387)
(4.75793 0.199207 0.103361)
(4.8366 0.310478 0.130596)
(13.3429 0.614704 -1.71837)
(12.5856 0.255032 0.497111)
(12.3096 0.202614 0.472233)
(12.4726 1.05912 -1.40362)
(8.12261 0.710006 -1.24696)
(12.5619 0.367114 0.018565)
(12.4151 0.349122 0.0199687)
(5.84114 0.716579 -0.299358)
(6.69111 0.72877 -1.13454)
(12.0832 0.777187 -3.85728)
(12.3407 0.628851 -0.912342)
(12.3124 0.524915 -1.5624)
(4.17561 1.18089 -2.70804)
(4.55112 0.238153 2.20522)
(-1.83513 -0.368807 1.26964)
(12.1955 0.157032 0.723796)
(13.8243 0.567759 -1.29628)
(12.4801 0.201624 0.565287)
(11.1978 0.942865 -2.81018)
(5.92401 0.921328 -4.44974)
(11.8222 0.702248 -1.74749)
(11.937 0.454518 -0.333956)
(13.6001 0.752495 -2.80573)
(12.776 0.419957 -0.106436)
(11.5004 -0.283221 1.69241)
(6.09013 0.089673 0.940625)
(8.42254 -1.83267 -1.25526)
(3.25921 -0.227058 3.58369)
(4.04017 0.74114 0.499732)
(-0.184573 -1.64928 0.393496)
(6.92408 0.458242 -1.11198)
(13.531 0.816915 -1.94041)
(2.22761 0.816265 -7.58723)
(12.8292 0.4973 -0.237412)
(10.6476 1.39533 -5.24621)
(1.43314 1.54756 -3.43466)
(4.71393 0.517222 -0.309993)
(4.67036 0.589124 -2.23148)
(12.5396 0.813933 -2.82928)
(13.4958 0.75549 -2.69134)
(11.6615 0.794698 -2.52794)
(12.2042 0.23939 1.16564)
(1.1571 0.889224 -2.92657)
(12.6099 0.812741 -3.77571)
(2.33278 0.910586 -4.03355)
(0.209065 -1.4443 0.434714)
(1.94074 3.00989 -1.83585)
(4.77139 1.70075 0.388415)
(1.45399 1.33288 -9.17127)
(13.0167 0.338136 0.0254972)
(12.2567 0.38421 0.0469242)
(11.8046 0.985231 -2.86729)
(7.12038 -0.477049 2.32412)
(1.17602 -0.944997 2.32991)
(7.23988 0.617685 0.891386)
(5.62013 0.697335 -2.98037)
(12.1384 0.326215 0.0172822)
(11.1176 0.647251 -2.07045)
(12.4302 0.504503 0.583112)
(12.0958 0.445547 -0.840249)
(11.6106 0.57833 -2.40798)
(0.0674226 1.71455 -0.276337)
(13.255 0.539311 -1.77587)
(-0.617168 -1.13296 0.0702985)
(2.56396 0.354696 -7.34316)
(7.28312 0.814005 0.262157)
(11.1744 0.49855 -2.40559)
(8.19288 0.415802 -4.4819)
(11.3278 0.573314 -3.11884)
(11.7179 0.444364 -5.28501)
(11.4366 0.980917 -3.00632)
(2.88196 0.541282 -8.14246)
(13.4491 0.549092 -0.51549)
(13.9066 0.846022 -4.48286)
(2.67504 0.644033 0.405004)
(11.2933 0.723811 -3.62469)
(6.85426 0.620835 0.338394)
(7.29364 0.999973 0.119923)
(9.74923 0.590987 -1.90295)
(10.8659 0.760198 -2.67115)
(10.4781 1.34084 1.78441)
(4.24856 0.676193 2.08448)
(2.62165 0.311102 0.29041)
(3.71576 0.448269 -0.427958)
(-0.319042 -1.09293 0.562597)
(-0.622021 -1.32818 0.975588)
(11.1383 0.30199 3.0634)
(-0.979366 -1.58784 0.257509)
(12.0551 1.12117 1.10976)
(-2.04603 -1.28093 -0.00804577)
(5.96664 1.15258 0.9387)
(4.6895 1.21953 -8.44343)
(11.1818 0.597559 -3.03121)
(11.2731 0.819233 -2.52472)
(5.37022 -1.01819 2.28687)
(11.6079 0.0135358 1.12685)
(-2.18288 -1.94615 -0.584653)
(7.97848 1.46855 -12.5903)
(-0.120375 -0.366583 1.31385)
(12.0107 0.502505 -1.75153)
(11.3121 0.377104 -3.61818)
(11.7908 0.491177 -3.97664)
(12.1583 0.52962 -2.62335)
(10.8263 0.501364 -4.0334)
(4.21016 1.08575 -5.35681)
(13.5089 0.349397 -0.909853)
(11.3783 0.623204 -7.02681)
(8.44391 0.56715 -3.51069)
(5.91465 0.509376 -2.15739)
(13.424 0.451423 -0.850146)
(-0.548455 -0.144849 0.561997)
(10.8598 -0.201543 1.2769)
(1.37758 -1.10452 -0.0216035)
(0.582382 0.728755 -4.83973)
(3.72351 0.219973 -0.494971)
(-0.0546784 1.18132 -1.71339)
(-2.98877 -0.551494 0.594137)
(11.7785 0.07461 1.37279)
(13.9514 0.760378 -3.94843)
(5.25941 1.01683 0.373145)
(6.33502 0.338838 -0.104168)
(-0.868487 -0.416951 0.148793)
(-0.339079 -1.43647 1.11111)
(12.1192 0.471004 -1.35436)
(9.06379 -0.195003 0.618273)
(5.44146 0.345758 0.747771)
(10.509 0.687871 -2.36259)
(11.0837 0.434296 -0.65568)
(11.218 0.595867 -1.03871)
(13.5979 0.421825 -2.59025)
(12.7949 0.336876 0.1025)
(9.89847 0.421191 -2.82482)
(3.60307 0.448535 0.351247)
(12.5177 0.470689 0.473635)
(0.064487 -0.732677 0.365471)
(10.2071 3.46847 -3.45782)
(2.16294 0.725389 -0.831597)
(2.27902 0.40363 -1.60461)
(-0.0137662 -1.73516 0.189514)
(11.8991 0.0715607 0.425744)
(1.74473 -0.535497 0.645)
(1.3637 -0.00912635 -0.402092)
(9.96421 -0.427868 1.61279)
(11.5851 0.614344 2.33209)
(-0.3045 -0.304706 1.07078)
(-0.210439 -0.25129 -0.938852)
(-0.701785 -0.334248 -0.858497)
(-0.384099 -0.71739 -0.201282)
(12.3408 0.577902 -1.40793)
(4.2791 0.0635968 -0.43453)
(9.07536 -0.561566 1.3657)
(9.74063 0.282442 1.10051)
(-0.112424 0.862617 -1.91377)
(11.8003 0.184023 -0.00866933)
(12.0877 0.12185 0.26886)
(-1.941 -0.861134 -0.376689)
(13.0708 0.0727731 -0.282719)
(-0.972013 0.314888 -1.28481)
(11.8169 0.256762 1.70742)
(3.36875 0.555553 -0.329459)
(-0.398976 -0.40396 0.89337)
(5.57605 -0.168896 1.91883)
(9.53235 2.01884 4.18889)
(2.69621 -0.235668 -0.0335244)
(10.9293 -0.289969 0.682674)