/*--------------------------------*- C++ -*----------------------------------*\
| =========                 |                                                 |
| \\      /  F ield         | OpenFOAM: The Open Source CFD Toolbox           |
|  \\    /   O peration     | Version:  2506                                  |
|   \\  /    A nd           | Website:  www.openfoam.com                      |
|    \\/     M anipulation  |                                                 |
\*---------------------------------------------------------------------------*/
FoamFile
{
    version     2.0;
    format      ascii;
    arch        "LSB;label=32;scalar=64";
    class       volScalarField;
    location    "0.0625936";
    object      k;
}
// * * * * * * * * * * * * * * * * * * * * * * * * * * * * * * * * * * * * * //

dimensions      [0 2 -2 0 0 0 0];

internalField   nonuniform List<scalar> 
3991
(
0.308186
0.427521
0.308967
0.603405
0.320026
0.778144
0.336675
0.404484
0.675229
0.371261
0.515738
0.673719
0.324681
1.13512
0.329266
0.950627
0.335422
0.377994
0.578444
0.488374
0.576205
0.339407
0.642684
0.836175
0.518117
0.899385
0.505983
0.817159
0.392909
0.780732
0.593631
1.34532
0.404018
0.426343
0.945488
0.969985
0.65313
0.657208
1.14823
0.636881
0.472102
0.598437
0.425943
0.577258
0.400396
0.837155
0.721844
1.01223
0.761267
0.399938
0.329912
0.550185
0.32602
0.939295
0.323537
0.575686
0.505209
0.520791
0.530788
0.617437
0.342223
0.375575
0.609118
0.409644
0.554894
0.641185
0.499484
0.664843
0.35899
0.332921
0.730324
0.451828
0.32854
0.528193
0.35879
1.28987
0.359387
1.20801
0.344323
0.320394
0.582576
0.463997
0.518656
0.595969
0.514453
0.535899
0.683005
0.342001
0.44189
0.411042
0.388903
0.714777
0.674262
0.515993
0.535567
0.337253
0.620702
0.650528
0.32583
0.586247
0.773641
0.663424
0.64011
0.528886
0.352825
0.34231
0.668229
0.327935
0.34198
0.32709
0.334206
0.324119
0.322683
0.350583
0.346988
0.345914
0.304201
0.300124
0.301997
0.312303
0.341557
0.591496
0.328024
0.495029
0.785905
0.490865
0.335696
0.315306
0.330001
0.344969
0.315702
0.327341
0.352989
0.797588
0.988086
0.631078
0.314376
0.333681
0.345931
0.353909
0.427848
0.964901
0.454585
0.851268
0.743494
0.363776
0.325645
0.363795
0.690773
0.31306
0.315149
0.311342
0.315672
0.559418
0.708701
0.600882
0.495945
0.880183
1.29208
1.15561
0.317347
0.384525
0.326465
1.05314
1.30401
0.868663
0.771128
1.12079
1.20798
0.356275
0.355723
0.731035
0.660645
0.377699
0.326472
0.40805
0.49593
0.597948
0.334026
0.304022
0.386092
0.608958
0.574748
0.317956
0.424503
0.315104
0.404325
0.525779
0.434144
0.332439
0.412689
0.459936
0.587074
0.416628
0.437814
0.809378
0.405993
1.14929
0.317523
0.404908
0.745632
0.467039
1.22616
0.679263
0.775558
0.81947
0.763033
0.516314
0.776009
0.33937
1.11353
0.495277
1.14351
0.421841
1.1159
0.385041
0.783057
0.664736
0.694023
1.28741
0.542327
1.04701
2.52845
0.603734
1.04921
0.876927
0.466231
1.18479
0.671723
0.307098
0.763573
0.350177
0.455598
0.341111
0.581165
0.75277
0.372345
0.951574
0.617162
0.402074
0.533753
0.489316
0.652047
0.432533
0.629053
0.926713
0.321124
0.605076
0.332112
0.97901
0.80659
0.564519
0.388242
0.42814
1.05569
0.791513
0.309883
0.504713
0.400948
0.361013
0.47096
0.39532
0.605903
0.495647
1.13491
0.499543
0.522515
0.871358
0.885754
0.927666
0.90931
0.941486
0.666661
1.00941
0.692648
0.594181
1.05424
0.967782
0.417991
0.490263
0.462114
0.714985
0.507249
0.518384
0.613811
0.559533
0.550281
0.431589
0.410702
0.404975
0.406727
0.331932
1.13902
0.431771
0.730631
0.771058
0.63487
0.324433
1.09496
0.328712
1.00145
1.09678
0.341404
0.787224
0.609136
0.567623
0.768396
0.309857
0.345786
1.09563
0.351513
0.345604
0.757857
0.365057
0.340042
0.317288
0.539133
0.413606
0.32718
0.397968
0.483529
0.328069
0.429222
1.07459
0.440756
0.461014
0.374437
0.338391
0.352407
0.332811
0.48793
0.455744
0.314995
0.313277
1.08788
0.588633
0.524537
0.394951
0.370198
0.650343
0.358057
0.329601
0.31146
0.358236
0.377928
0.36363
0.318152
0.459611
0.413348
0.620612
0.994295
0.34955
0.759108
0.452204
0.314086
0.900262
2.06945
0.73582
1.33577
0.306177
0.318314
0.439884
1.12149
0.356003
0.370687
0.350813
1.02939
0.588356
1.10421
0.422627
0.386951
0.415889
0.556675
0.642835
0.522446
0.347593
0.378658
0.74723
0.415214
0.353747
0.336472
0.320315
0.984723
0.354515
0.337962
0.345089
0.73278
0.322945
0.318259
0.423979
0.367703
0.939546
0.318671
0.418927
1.18749
0.309824
0.617698
0.880095
0.982427
0.667027
0.348705
0.520029
0.852429
0.706265
0.392662
0.586758
0.323552
0.87828
0.585217
1.11591
0.373114
0.42831
0.338828
0.38755
0.335909
0.367265
0.497858
0.326463
0.462141
0.346013
0.320454
0.437362
0.368981
1.12629
0.384073
0.494311
0.358636
0.386572
0.421405
0.309514
0.533945
1.03278
0.541882
0.344814
0.413127
0.359204
0.537978
0.627071
0.396344
0.339727
0.415543
0.309566
0.314968
0.577389
0.471487
0.618108
0.443057
0.694124
0.447918
0.633566
0.871771
0.523573
0.331834
0.384123
0.572645
0.434814
0.355828
0.779281
0.696723
0.369964
0.914187
0.328195
0.329669
0.793673
0.392285
0.796879
0.476629
0.326655
0.342701
0.328219
0.550033
0.343725
0.399845
0.902784
0.312153
0.526519
0.443324
0.374559
0.340231
0.322429
0.361505
0.478342
0.322997
0.76293
0.652511
0.351417
0.387386
0.332856
0.319472
0.329215
0.43455
0.338017
0.343128
0.342199
0.362766
0.351754
0.646008
0.372393
1.39554
0.356769
0.324662
0.681757
0.398658
0.610269
0.35131
0.371761
0.360553
2.14115
0.385061
0.349823
0.388695
0.497957
0.647753
0.953897
0.644711
0.59107
0.427447
0.34836
0.659898
0.539572
0.476702
0.982043
0.936265
0.65166
0.558514
0.539043
0.874344
0.316426
0.310461
0.343308
0.307935
0.511953
0.440587
0.782641
0.481858
0.39824
0.50316
0.306187
0.347402
0.567507
0.335565
0.83896
0.48868
0.382697
0.327461
0.322058
0.528921
1.05912
1.36313
0.650087
0.712417
0.51773
0.717312
0.623244
0.499995
0.542272
0.310248
0.514122
0.612493
0.452063
0.559744
1.31394
1.04612
0.437721
0.933571
0.490184
0.591118
0.639775
0.51463
0.421831
0.418686
0.338705
0.33411
0.338335
0.341529
0.347363
0.808767
0.455816
0.424698
0.414916
0.482543
0.425917
0.872488
1.11077
0.890531
1.02695
1.4173
0.322616
0.361549
0.311097
0.360855
0.354249
0.305235
0.365522
0.385077
0.315713
0.29868
0.308682
0.315222
0.344288
0.318934
0.313476
1.09352
0.528489
1.19416
0.362435
0.854131
1.6086
0.519021
0.525239
0.358829
0.375111
0.362154
0.4827
0.50892
0.510724
0.362788
0.337755
0.350668
0.333679
0.35295
0.364206
0.359315
0.339807
0.35497
0.438604
0.397655
0.365117
0.66862
0.477217
1.23015
0.363205
0.448858
0.651583
0.446728
0.342831
0.354322
0.357388
0.334911
0.359349
0.365402
0.399708
0.418481
0.319181
0.436125
0.40268
0.52288
0.3247
0.751904
0.632153
0.373269
0.494958
0.640802
0.332765
0.331707
0.323182
0.350069
0.682041
0.847959
0.849373
0.63671
0.857632
0.893276
0.66139
0.494405
0.350286
0.346836
0.696861
0.970254
1.82215
0.34635
0.337668
0.346763
0.550236
0.346655
0.396084
0.647677
0.552929
0.438088
0.431358
0.406062
0.323755
0.345521
0.59627
0.765537
0.320715
0.354601
0.348114
0.335445
0.391271
0.309182
0.310827
0.341591
0.318553
0.339947
0.324428
0.424916
0.340642
0.754548
0.874471
1.22227
0.308439
0.383339
0.316843
0.317575
0.394542
0.679828
0.725931
0.589079
0.718903
0.330092
0.432579
0.424457
0.423167
0.327874
0.726692
0.366578
0.466981
0.402708
0.889133
1.06613
1.13433
0.35046
1.44494
0.353723
0.75032
0.351067
0.483919
0.737678
0.731209
0.476211
0.761155
0.306701
0.594206
1.12558
0.491302
0.340208
0.335892
0.358325
0.512264
0.326809
0.384971
0.320254
0.348909
0.663591
0.566487
0.768668
0.714938
0.649994
0.66206
0.40533
0.475474
0.58697
0.387149
0.576554
0.941972
1.05433
1.03541
1.13577
0.773135
0.511668
0.440788
0.637009
0.374457
0.892348
0.87211
0.94638
0.86727
1.13638
0.687903
0.881806
0.718334
1.09563
0.450991
0.465783
0.3155
0.796881
0.372162
0.370497
0.372936
0.333334
0.364444
0.50105
0.54448
0.46578
0.383926
0.41891
0.463542
0.430029
0.47393
0.372735
0.385464
0.374532
0.350556
0.315718
0.320869
0.390717
0.42558
0.335949
0.902682
0.304127
0.716641
0.372547
0.319624
2.21962
0.941278
0.756076
0.853781
0.414928
0.443178
0.354533
0.823358
0.32926
0.634562
0.598883
0.400939
0.322
0.619817
0.325033
0.667124
0.503035
0.980988
0.79134
0.795916
0.346937
0.356159
0.818267
0.714684
0.504593
1.08073
0.413692
1.11755
1.01463
0.608705
0.331796
0.312583
0.449454
0.60021
0.794094
0.399728
0.379941
0.377522
1.20636
0.686075
0.316466
0.327398
0.416452
0.311139
0.303932
0.306879
0.331325
0.306938
0.304534
0.312294
0.983485
0.879567
0.949842
0.935031
0.903089
0.649358
0.90508
0.685857
0.686187
0.582093
1.11655
0.397373
0.370306
0.452331
0.408972
2.54074
0.310436
0.51659
0.557013
0.841064
0.779513
0.797419
0.538436
0.646289
0.883619
0.58199
0.789803
0.902762
1.52487
0.770993
1.10082
0.90054
0.307399
0.306483
1.07684
0.648907
0.310472
0.310302
0.375114
0.367009
1.40076
0.366633
0.401096
0.350078
0.336315
1.26671
0.324089
0.329689
0.343602
0.349222
0.387386
0.391911
0.343059
0.991125
1.01761
0.554941
0.618843
0.490332
0.571734
0.389313
0.523697
0.380862
0.452931
0.301289
0.371382
0.310051
0.335639
0.326583
0.420595
0.328505
0.34
0.669466
0.331161
0.373957
0.744886
0.39657
0.399362
0.840367
0.547073
0.37909
0.430189
0.511283
0.67219
0.385297
0.47499
0.32273
0.729345
0.540901
0.390513
0.338236
0.461393
0.431945
0.477737
0.855875
1.23628
0.574615
0.528148
0.420073
0.470207
0.32765
0.32542
0.362122
0.315989
0.398078
0.368855
1.07727
0.509192
1.21653
1.37761
1.01831
0.803166
0.844769
0.612092
0.55349
0.753083
1.58596
0.5287
0.436343
0.352844
1.04557
0.402378
0.306019
0.313578
0.357328
0.335233
0.458192
0.371367
0.424081
0.344935
0.323921
0.962666
0.560271
0.317203
0.760366
0.335238
0.701619
0.328888
0.338972
0.308707
0.471211
0.308443
0.369143
0.352979
0.954939
0.416455
0.791833
1.23352
0.5939
1.15671
0.387719
0.456291
0.970658
1.18674
0.386188
0.36038
0.428711
1.16934
0.384628
0.597885
0.43679
0.431683
0.40611
0.515758
0.409965
0.353441
0.418941
0.401818
0.438713
0.321102
0.444972
0.591779
0.400714
0.847162
0.353007
0.318426
1.07055
0.368338
2.36706
0.860069
0.629461
0.807256
0.360214
0.798332
0.589248
0.372689
0.461871
1.21309
0.571438
0.695699
0.972683
0.845212
0.430624
0.609844
1.43278
0.756647
0.360913
0.746012
0.787474
1.06986
0.459036
0.854293
0.473123
0.704793
0.355523
0.355255
1.08519
1.47676
0.92417
0.992782
1.0466
1.28314
0.595106
0.69339
0.371442
0.749555
0.685225
0.506042
0.651534
1.66577
1.51759
0.987341
0.323501
0.505326
0.694381
0.350926
0.306962
0.400456
1.06253
0.38135
0.362479
0.491988
0.399578
0.35402
0.604595
0.958818
0.396978
0.860331
0.313265
0.339338
0.456977
0.334003
0.341996
0.499842
0.910339
0.343435
0.394862
0.342708
0.365993
0.321388
0.419229
0.419332
0.460426
0.941002
0.594726
1.26705
0.569736
1.14027
1.32889
1.0208
0.577726
0.506554
1.24172
0.599876
0.651496
0.920883
0.78668
1.04359
0.971027
0.51036
0.605071
0.735267
0.637697
0.818741
0.924814
0.422235
0.534293
0.450988
0.300894
0.48472
0.448078
0.402868
0.338216
0.371289
0.970172
0.360553
0.74381
0.634349
0.312024
0.320823
0.709438
0.671754
0.341784
0.491677
0.611055
0.850816
0.56721
1.14941
0.530321
0.637658
0.516477
0.68461
1.31245
0.578955
0.335033
0.344994
0.400311
0.340586
0.40247
0.933775
0.6303
1.79954
0.771316
0.630478
0.989703
0.61423
0.33455
0.345972
0.396595
0.611943
0.400428
0.332151
0.339963
0.525492
0.570929
0.493295
0.340599
0.43655
0.405991
0.310931
0.313598
0.316781
0.322692
0.318526
0.833653
0.358083
0.439525
0.475829
0.714762
1.12428
0.489879
0.44881
0.410124
0.556289
0.594095
0.367388
0.389106
0.396692
0.612723
0.623779
0.435844
0.491393
0.442099
0.332481
0.34323
0.330619
0.332915
0.339665
0.339166
0.334728
0.344617
0.346311
0.341731
0.356959
0.331143
0.325725
0.52527
0.464411
0.428774
0.589527
0.614744
0.531136
0.552683
0.334753
0.346292
0.352934
0.371934
0.44316
0.499463
0.811841
1.09885
0.636532
0.558061
0.967027
0.434866
0.6483
0.864003
0.664476
0.872951
0.588994
0.894307
0.656443
0.576152
0.877466
0.41162
0.871532
0.45233
1.03048
0.665697
0.54001
0.488556
0.399202
0.634706
1.12567
0.445837
0.678227
0.907627
0.523679
0.350674
0.613003
0.445261
0.701314
0.883438
1.06124
0.416928
0.58575
0.417174
0.600586
0.429912
1.46544
0.537579
0.46696
0.389768
0.383995
0.565742
1.18866
1.1391
0.834488
0.547158
0.943364
0.645163
0.47824
0.670272
0.624165
0.526801
0.634194
0.608846
0.302282
0.305449
0.303115
0.570966
0.30525
1.23011
0.798668
0.781603
0.674683
0.308204
0.305789
0.436665
0.543662
0.748109
0.920384
0.3236
0.614818
0.305377
0.517698
0.575355
0.841859
0.579873
0.535453
0.371153
0.371599
0.30762
0.526438
0.866273
0.903713
1.21512
0.642605
0.823629
0.308104
0.331314
0.306266
0.312267
0.314807
0.327594
0.324215
0.407992
0.341539
0.411212
0.938165
0.896525
0.532153
0.349761
0.32013
0.373389
0.517194
0.326985
0.319937
0.345977
0.322371
0.394109
0.390996
0.416425
0.801313
0.366267
0.695637
0.602173
0.441375
0.351693
0.375729
0.483398
0.349222
0.360172
0.392054
0.354897
0.408677
0.772975
0.686951
0.32103
0.298021
0.921519
0.931176
1.25962
0.336387
0.336795
1.02244
0.519614
0.517992
1.12955
0.562379
0.995369
0.478112
0.386666
0.89535
0.771747
0.501323
0.480679
0.441884
0.764691
0.468416
0.540699
0.438645
1.02665
0.897915
0.375806
0.316836
0.468141
0.646127
0.424409
0.743971
0.689115
1.02169
0.901105
0.324149
0.396954
0.307485
0.313709
0.43412
0.370292
0.401873
0.326977
0.96976
0.813934
0.908207
0.93955
1.05211
0.658857
0.924689
0.662003
0.624359
0.965699
1.22606
0.364396
1.23697
0.387612
0.379683
0.542931
0.93603
0.394808
0.436004
0.335771
0.445626
0.3847
0.638914
0.741465
0.380022
0.408205
0.485777
0.512945
0.482073
0.967214
0.641865
0.597556
0.530159
0.414593
0.342434
0.465458
0.879894
0.870926
0.543089
0.607848
0.735327
0.544034
0.51423
1.01462
0.524488
0.671648
0.813612
0.5166
0.613214
0.917492
0.731403
0.74734
0.857605
0.385213
0.348095
0.33459
0.387753
0.349178
0.343485
0.365895
0.50498
0.422737
0.308357
0.303355
0.303375
0.313068
0.694936
0.660104
0.638176
1.54221
0.306998
0.310105
0.332759
0.314308
0.323247
0.30305
0.306999
0.305301
0.355951
0.346857
0.622016
0.463352
0.757649
0.319465
0.443501
0.373505
0.590799
0.326822
0.625581
0.503252
0.797838
0.513701
0.304219
0.352407
0.866651
0.834965
0.547827
0.316602
0.642978
0.316402
0.343586
0.869857
1.0652
0.744386
0.985544
1.02277
0.51571
0.928204
0.764522
0.54997
0.322732
0.536256
0.304573
0.389588
1.07312
0.480226
0.364044
1.02485
0.529686
0.341464
0.602852
1.40308
0.336728
0.37187
0.348727
0.418076
1.48743
0.471073
1.11042
0.344914
0.590506
0.373436
0.536319
0.659613
0.797389
1.14131
0.452339
0.654808
0.636104
1.50782
0.668212
1.02402
0.958507
0.604799
0.786611
0.438197
0.428149
0.387601
0.343655
0.377553
0.349287
0.67477
0.361869
0.335613
0.331561
0.338506
0.493037
0.403808
0.457852
0.450598
0.397535
0.374027
0.338202
0.363921
0.303038
0.321627
0.338184
0.315616
0.368538
0.306433
0.374083
0.408347
0.449852
0.404857
0.489711
0.320221
0.312718
0.32563
0.328227
0.847737
0.318642
0.354221
0.510972
0.409632
0.321727
0.841368
0.550475
0.409732
0.332008
0.375123
0.360094
0.341234
0.325096
0.893416
0.303924
1.13544
0.32418
0.335426
0.313475
1.02103
0.988313
0.404931
0.966399
0.306886
0.896852
0.803952
0.38458
0.642016
0.469992
0.900915
0.400759
0.405074
0.404348
0.366568
0.343274
1.40062
0.653036
0.37985
0.631178
0.32812
0.378652
0.321651
0.348466
0.792143
0.563425
0.397784
0.33502
0.469162
0.359648
0.402095
0.600506
0.551346
1.03516
0.312904
0.398372
1.19747
0.417346
0.337587
0.366002
0.324749
0.32716
0.389983
0.308503
0.32107
0.363631
0.399003
0.306598
0.357138
0.368856
0.341557
0.339114
0.316086
0.318534
0.32681
0.490918
0.327894
0.305645
1.12933
0.845409
0.506899
0.475453
0.332807
0.463063
0.328267
0.389252
0.34377
0.30895
1.07226
0.34163
0.791616
0.308705
0.414242
1.16486
0.501565
0.519769
1.01801
1.04687
0.718501
0.977833
1.20857
0.606714
0.475236
0.469539
0.326771
0.302846
0.863018
0.480763
0.458351
0.467618
0.347453
0.604101
0.406544
1.21878
0.427408
0.410625
0.403716
1.02884
1.26478
0.683436
1.3408
1.06472
0.708584
0.676787
0.311449
0.891311
0.345798
0.322889
0.339168
0.332055
0.355693
0.314875
0.320486
0.35407
0.371723
0.909428
0.623952
0.817648
0.382025
0.753398
0.42574
0.398647
0.361255
0.368704
0.562168
0.412029
0.362795
0.464645
0.583571
0.857183
0.419515
0.581398
0.909271
0.90192
1.37397
0.785835
0.845918
0.793504
0.358466
1.03977
1.21941
0.40463
1.63163
1.45211
0.6853
0.575968
0.554855
0.7873
0.869049
0.888967
0.876997
1.07245
0.972263
0.315904
0.490881
0.754637
0.972178
1.12343
0.676581
0.360245
0.445371
0.337537
0.312423
0.932988
0.548303
0.521124
0.879193
0.378222
0.326523
0.338241
0.367069
0.372867
0.495593
0.323202
0.515758
0.464689
0.410087
0.858392
0.319789
0.324942
0.362655
0.387919
0.371384
0.405589
0.343475
0.369892
0.367405
0.365822
0.348092
1.2372
0.430453
0.423688
0.797095
0.420601
0.634688
0.44265
0.567449
0.713477
0.595345
0.644864
0.513282
0.402029
0.439523
0.366333
0.489894
0.485002
0.355713
0.321363
0.403125
0.429163
0.368935
0.424063
0.374606
0.38564
0.390032
0.939447
1.46689
0.909615
1.3004
0.463785
0.314146
0.310713
0.328666
0.337132
0.339211
0.964307
0.305797
0.316437
0.347401
0.629469
0.355723
0.367011
0.370779
0.395817
0.537081
0.487778
0.306199
0.715756
0.449055
0.470549
0.417754
0.482394
0.400269
0.379402
0.401558
0.87531
0.582337
1.52914
0.661758
0.755975
1.24208
0.575985
1.18665
0.581178
0.583486
0.550314
1.08422
0.54054
0.540386
0.771102
0.969573
0.491405
0.440226
0.510464
0.343765
1.02382
0.585093
0.930421
0.610454
0.363194
0.349743
0.759989
0.306168
0.377656
1.2517
0.484179
0.925319
0.416781
0.983295
0.579968
1.09788
1.15249
0.316515
0.419535
0.325432
0.362732
0.32241
0.346821
0.464752
1.05414
0.408698
0.527901
0.972865
0.406298
0.477598
0.504196
0.344895
0.455945
0.603195
1.22455
0.500984
0.560328
0.61608
0.347026
0.337152
0.782563
0.757469
0.588735
0.440003
0.899319
0.487861
0.459414
0.438993
0.327341
0.334876
0.312485
0.336248
0.322552
0.322904
0.650402
0.654875
0.517458
0.468062
0.337151
0.30381
0.524081
0.850426
0.962701
0.50473
0.479109
0.82058
0.497496
0.418778
0.465343
0.502029
0.553673
0.585727
0.613188
0.460671
0.465769
0.851851
0.516302
0.483672
0.560236
0.907118
0.515629
0.366191
0.353502
0.309621
0.320622
0.648435
0.552902
0.351785
0.401399
0.520831
0.355348
0.362873
0.352176
0.367859
0.357784
0.375359
0.38132
0.394505
0.609517
0.699543
0.321806
0.343968
0.306711
0.753089
0.442383
1.10464
0.368813
0.908045
0.946919
0.685639
0.622346
0.558557
0.436865
0.861565
0.457471
0.418303
0.59979
0.373986
0.407867
0.919464
0.529455
0.911664
0.42115
0.543507
0.407618
0.675662
0.467283
0.515275
0.441709
0.421328
0.518148
0.460703
0.31692
0.821625
0.808923
0.339165
0.334699
0.337352
0.359755
0.887639
0.913161
0.566483
0.917238
0.365415
0.363412
0.370502
0.825408
0.844979
0.743785
0.680099
0.367401
0.630572
0.679797
0.746897
0.623261
0.331481
0.914672
0.472603
0.543287
0.513911
0.805848
0.809661
0.733897
0.524072
0.338615
0.335273
0.690908
0.367034
0.337932
0.565697
0.535865
0.524848
0.516288
0.757401
0.398122
0.413591
0.36717
0.841377
0.364181
0.307343
0.312796
0.317945
0.321457
0.321506
0.374886
0.350294
0.319145
0.385282
0.395601
0.406305
0.393604
0.348093
0.360324
0.357731
1.00328
0.306732
0.706518
0.307813
0.534508
0.48506
0.305086
0.353111
0.459914
1.06123
0.557834
0.384575
0.354608
0.390251
0.390558
0.411148
0.889244
0.397467
0.400883
0.566583
0.420221
0.341649
0.389105
0.500773
0.506422
0.847943
0.637587
0.823662
0.718296
0.720566
0.412203
0.405014
0.460383
0.387883
0.41893
0.384438
0.737562
0.340463
0.444095
0.446652
0.52484
0.460405
0.356227
1.04117
0.861955
0.921525
1.17533
1.01537
1.07373
1.10059
0.357621
1.14861
0.470021
0.406209
0.391387
0.3816
0.341795
0.318203
0.315267
0.30406
0.342487
0.317056
0.768177
0.825925
1.01248
1.34162
0.459649
0.408343
0.402223
0.427156
0.337813
0.336031
0.65702
0.487498
0.66754
0.334821
0.71001
0.320753
0.852229
0.517931
0.350619
0.355648
0.915416
0.503635
0.7607
0.377097
0.301972
1.2737
0.363275
0.382022
0.331025
0.337161
0.343515
0.30807
0.322552
0.89258
0.316264
1.52808
2.21452
0.310082
0.312831
0.919981
0.39256
0.355599
0.85435
0.480746
0.366675
0.346212
0.424797
0.366014
0.550615
0.777147
0.580933
0.622815
0.78307
0.638296
0.808474
0.596836
1.15772
1.1792
0.739937
0.971696
0.354509
0.358832
0.361394
0.564096
0.604499
0.326651
0.860175
0.614311
0.307496
0.425902
0.402221
0.344489
0.562664
0.974799
0.464566
0.456773
0.880095
0.552521
0.674579
0.962997
0.339944
0.437755
0.385717
0.426372
0.437926
0.785215
0.638165
0.65929
0.927348
0.626461
0.312731
0.31593
0.399391
0.369275
0.356022
0.722962
0.607669
0.617675
0.908632
1.2674
0.332129
0.344289
0.365066
0.358694
0.366136
0.34325
0.364677
0.707051
0.889644
1.06304
0.755924
0.756689
0.661086
0.534828
1.50888
0.98581
0.995794
0.669642
0.658312
0.908052
0.643056
0.330088
0.717209
0.446119
0.782724
0.636028
0.647162
0.447055
0.546972
0.912111
0.468189
0.398338
0.446141
0.539243
0.909452
0.324489
0.602464
0.403438
0.364279
0.435633
1.15184
0.836574
0.35501
0.516335
0.357928
0.328774
0.348222
0.357784
0.318695
0.542065
0.502572
0.71393
0.469955
0.543316
1.02002
0.640379
0.760424
0.393185
1.16277
1.19114
1.23346
0.654056
0.66765
0.682515
0.765858
0.780195
1.23708
0.973909
1.13339
1.06477
0.767616
0.385918
0.3583
0.331306
0.322872
0.392258
0.497108
0.354532
0.32251
0.328855
0.659648
0.33322
0.315839
1.00985
0.4877
0.636227
1.10717
0.46008
0.528614
0.5218
0.839821
0.396883
0.395356
0.626865
0.393989
0.380859
0.423958
0.355927
0.525471
0.360153
0.366647
0.329351
0.3259
0.416692
0.605093
0.440275
0.562269
0.380431
1.07749
0.691689
1.17299
0.385931
0.491733
1.05385
0.383612
0.403399
0.449101
0.459812
0.615671
0.516403
0.567967
0.383592
0.378492
0.400711
0.385761
0.468981
1.16872
0.857423
0.435829
0.344528
0.494661
0.633885
0.819335
0.834864
0.70917
0.948713
0.485258
0.437332
1.11831
0.710286
0.845609
0.319335
0.420863
1.09955
1.06883
1.00968
0.424886
1.00594
0.414254
0.684268
0.499162
0.326074
0.340698
0.320757
0.339061
0.345367
0.332255
0.305576
0.309962
0.304873
0.466924
0.315601
0.360665
0.334557
0.338669
0.352334
0.364546
0.457653
0.56971
0.449947
0.559396
0.959923
0.917166
0.541764
1.13775
0.393692
0.408899
0.516239
0.507644
1.0517
0.34337
0.342009
0.362311
0.715099
0.536876
0.557248
0.393411
0.603079
0.581279
0.546423
0.376544
0.339287
0.771238
0.607872
0.431872
0.875685
0.326001
0.451668
0.370281
0.682759
0.34734
0.363648
0.347514
0.388436
0.918341
0.665997
0.464127
0.437559
1.50771
0.495161
0.561495
0.729111
0.808626
3.45448
0.5787
0.337142
0.408528
0.837871
0.339389
0.59822
0.522123
0.490159
0.789385
0.735671
0.578863
0.384055
0.334398
0.487615
0.339365
0.36121
0.497289
0.41254
0.439113
0.348905
0.356783
0.706772
0.734478
0.470482
0.348184
0.802354
0.373928
0.599428
0.570182
0.761501
0.744137
0.87795
0.763147
0.368542
0.391229
0.557181
1.23317
0.794568
0.428826
0.920813
0.418056
0.327095
0.409804
0.391329
0.778812
0.749975
0.6772
0.81356
0.957399
0.342732
0.908571
0.608651
1.63083
1.09411
0.549206
0.721904
0.347677
0.331297
0.570172
1.73917
0.878094
1.02745
1.12039
0.56171
0.852644
0.954934
0.897539
1.05699
0.780114
0.759384
0.490067
0.606106
0.770773
0.357824
0.556107
0.323679
0.411062
0.382973
0.698102
1.05934
0.680544
0.365074
0.403527
0.381776
0.813273
0.843911
0.721746
1.72836
2.26847
1.24504
1.01373
0.65378
0.330003
0.448955
0.850349
0.424511
1.01604
0.421533
0.588998
0.336761
0.525639
0.304812
0.798574
0.914321
0.942089
0.810901
0.917137
0.311286
0.447848
0.417554
0.44449
0.464978
0.312269
0.375882
0.375362
1.13829
0.705441
0.491747
0.844961
0.63476
0.440693
0.511495
0.34997
0.352641
0.471204
0.344915
0.350784
0.340931
0.350204
0.394523
0.334669
0.335676
0.339824
0.379308
0.345715
0.3136
0.757641
0.885536
0.744296
0.309498
0.698534
0.420538
0.344869
0.334902
0.340605
0.320654
0.919472
0.302718
0.333013
0.346121
0.36951
0.303835
0.304521
0.304802
0.319953
0.329482
0.326542
0.319867
0.326155
0.539206
0.315341
0.329774
0.885966
0.478381
0.901294
0.623228
0.777393
0.747219
0.597695
0.736926
0.49799
0.572294
0.905319
0.524717
0.520279
0.791822
1.09724
0.887081
0.844206
0.896336
0.708416
0.692114
0.387089
0.536382
1.19057
0.955646
0.338202
0.906819
0.627308
0.334423
0.481739
1.08532
1.0721
0.637704
0.46906
0.929742
0.546322
0.684039
0.460362
0.31777
0.89486
1.04289
0.992209
0.543366
1.08724
0.894939
0.698184
0.90855
0.800159
0.717163
0.393211
0.985303
0.995603
0.985371
1.07105
0.726701
0.860672
0.331735
0.57996
0.33135
0.379648
0.411436
0.330261
0.447256
0.340001
0.342407
0.37844
0.344234
0.428739
0.342833
0.340281
0.319926
0.32478
0.362693
0.425128
0.333194
0.38521
0.355347
1.17717
2.00581
0.546798
1.14163
0.316632
0.327874
0.328395
0.800753
0.630658
0.676985
0.60521
0.304594
1.22448
0.304418
0.330397
0.51447
1.15461
0.515011
0.429459
0.617312
0.332282
0.32859
0.401833
0.372571
0.397909
1.17075
2.29758
0.712791
0.51251
0.801493
0.967015
0.671116
0.557925
0.525066
0.921097
0.768352
0.360915
0.321126
0.340354
0.502219
0.379964
0.356655
0.350272
0.856322
0.387347
0.368108
0.329728
0.330415
0.319857
0.656153
1.00536
0.668858
0.972115
0.388459
0.30271
0.389763
0.526429
0.372962
0.708466
0.430608
0.930606
0.389235
0.736782
0.990126
0.697633
0.695669
0.716594
0.626399
0.795987
0.68457
0.643025
0.765894
0.551725
0.39412
1.02837
0.922593
0.824441
0.485082
0.74442
0.655255
0.764248
0.47765
0.597446
1.12964
0.351832
0.330317
0.337632
0.354354
0.53648
0.347197
0.314335
0.807482
0.621117
0.305399
0.783877
0.303755
0.383492
0.296094
0.574983
0.413162
0.341089
0.331951
0.44966
0.478435
0.351301
0.617407
0.433
0.779556
0.985304
0.325413
0.882319
1.13255
0.954947
0.973895
1.14125
0.781615
0.936189
0.989233
0.476167
1.00393
0.405251
0.538591
0.566395
0.588948
0.474446
0.615344
0.505658
0.513021
1.0395
0.329242
0.455563
0.41529
1.54726
0.45208
0.991707
1.16828
0.392535
0.494731
0.398208
1.21512
1.13653
0.491254
0.723088
0.483785
0.420234
0.469763
0.439846
0.331508
0.805651
0.454382
0.403422
0.608539
0.454912
0.460367
0.454387
0.511638
0.347819
0.463334
0.375321
0.329467
0.342244
0.47301
0.712613
0.311876
0.89698
0.642102
0.397154
0.464051
0.794019
0.748279
1.06669
0.833102
0.823802
0.839405
0.757787
0.501634
0.422561
0.419236
1.00544
0.847812
0.703889
0.737503
1.38255
1.18814
1.24166
0.537147
0.468252
0.613193
1.36283
0.97694
0.378456
0.340094
0.56095
0.386469
0.406201
0.338292
0.343131
0.364565
0.390941
0.526196
0.365401
1.17784
0.826303
0.441615
1.06201
0.802692
0.571674
0.327072
0.802856
0.938876
0.315172
0.324895
0.435837
0.357384
0.592076
0.46953
0.644906
1.20977
1.07404
0.722366
0.882562
0.98635
1.0006
1.13786
0.889588
0.722361
0.985718
1.19449
0.817863
0.826024
1.07546
1.48172
0.534043
0.605785
0.947261
0.360873
0.37449
0.425719
0.369458
0.354134
0.400004
0.362641
0.33419
0.341875
0.402365
0.458123
0.353385
0.307616
0.349451
0.431501
0.354919
0.419607
1.10551
0.790259
0.543494
0.392272
1.10168
0.943506
0.843365
0.938064
0.733741
0.778035
1.03472
1.20755
1.28626
0.930332
0.673864
0.499396
0.361777
0.359863
0.343896
0.376336
0.38996
0.359567
0.392484
0.381639
0.358003
0.336718
0.305482
0.401745
0.388516
1.11737
0.434711
0.902521
0.597037
0.746341
0.323388
0.325834
0.396581
0.504998
0.388121
0.326018
0.384615
0.403681
0.38104
0.398341
0.401715
0.697497
0.631555
0.829924
0.420861
0.544284
0.979393
0.893861
0.333945
0.374107
0.443889
1.23106
0.934592
0.348574
0.322188
0.332634
0.352847
0.414196
0.486211
0.435385
0.396789
0.598195
0.515197
0.430552
0.432678
0.406034
0.334697
0.376446
0.333718
0.351457
0.402678
0.342246
1.11068
0.569153
0.81738
0.723446
0.624084
0.548554
0.480981
0.5019
0.82013
0.366068
0.87099
0.908801
0.725262
0.884268
0.939782
0.706379
0.326257
0.626653
0.416496
0.399004
0.368426
0.339981
0.518003
0.403691
0.304556
0.821272
0.31969
0.314697
0.342467
0.351025
0.330993
0.358616
0.322965
0.309855
0.350367
1.93068
0.469876
0.463245
0.367971
0.34323
0.447215
0.322483
0.394594
1.4491
0.56938
0.83282
0.518316
0.392921
0.688269
0.385958
0.718456
0.42842
0.372765
0.494378
0.388833
0.393179
0.485498
0.489014
0.373815
0.375866
0.361345
0.393896
0.387206
0.385074
0.443466
0.738022
0.582967
0.56149
0.514834
0.652792
0.553243
0.621083
0.779881
0.614485
0.322244
0.619123
0.596708
0.764476
1.41233
0.921506
0.967019
0.717075
1.50748
1.13125
1.57241
0.760059
0.699084
0.409791
0.322546
0.333809
0.341403
0.785071
0.354007
0.777179
0.307526
0.30414
0.348422
0.317925
0.329384
0.321971
0.362291
1.0531
0.622612
0.766001
0.487941
0.346947
0.602839
0.326608
0.361127
0.362459
0.820491
0.410516
1.0227
0.489852
0.864415
1.36288
0.58473
1.13218
0.316416
0.403514
0.979632
0.557717
1.18087
0.886717
0.596327
0.451207
0.92643
0.798772
0.464436
0.582336
0.328778
0.370493
0.337996
0.432494
0.486259
1.05376
0.506498
0.469405
1.049
0.770271
0.674712
0.758338
0.481794
0.682196
0.809871
1.00691
0.911567
0.902277
0.828621
0.968629
1.02477
1.21436
0.737567
0.893972
0.927374
0.960786
0.828903
1.12075
0.799807
0.31665
0.305881
0.383149
0.372964
0.358868
0.355874
0.36211
0.353712
0.430706
0.467469
0.434898
0.365592
0.358394
0.343313
0.313266
0.363135
0.317815
0.310093
0.447911
0.30731
0.353407
0.409026
0.31181
0.311673
0.303181
0.353739
0.306894
0.311001
0.312821
0.339448
0.334251
0.386718
0.305949
0.312784
0.871443
0.809228
0.48446
0.5506
0.937978
0.913631
0.924184
0.727588
0.413821
0.40442
0.829909
0.489753
0.700083
0.702854
1.05453
0.748043
1.02278
0.59555
0.651074
0.64339
0.747656
0.78887
0.71996
0.956977
0.825716
0.766579
0.732798
0.909683
0.606329
0.815739
0.477168
0.691525
0.438273
0.750008
0.987649
0.93699
0.685315
0.473956
0.737638
0.782253
0.408372
0.377158
0.394577
0.662886
0.303498
0.32201
0.314006
0.56364
1.71366
0.481489
0.534451
0.494578
0.337057
0.319442
0.320962
0.305258
0.333991
0.326891
0.351745
0.340318
0.338044
0.313718
0.303211
0.522025
0.478652
0.44062
0.919166
0.501065
0.314999
0.321946
0.344534
0.35587
0.38061
0.455159
0.337878
0.338012
0.792099
0.885079
0.845466
0.89359
0.632619
0.533918
0.427254
0.314307
0.330017
0.997925
0.352189
0.364733
0.618075
1.10314
0.366684
0.363821
0.348875
0.437794
0.777968
0.38145
0.34856
1.11899
0.355496
0.874714
0.600842
0.551505
0.377578
0.40063
0.632533
0.408826
0.352789