/*--------------------------------*- C++ -*----------------------------------*\
| =========                 |                                                 |
| \\      /  F ield         | OpenFOAM: The Open Source CFD Toolbox           |
|  \\    /   O peration     | Version:  2506                                  |
|   \\  /    A nd           | Website:  www.openfoam.com                      |
|    \\/     M anipulation  |                                                 |
\*---------------------------------------------------------------------------*/
FoamFile
{
    version     2.0;
    format      ascii;
    arch        "LSB;label=32;scalar=64";
    class       surfaceScalarField;
    location    "0.0625936";
    object      phi;
}
// * * * * * * * * * * * * * * * * * * * * * * * * * * * * * * * * * * * * * //

dimensions      [0 3 -1 0 0 0 0];

oriented        oriented;

internalField   nonuniform List<scalar> 
7651
(
0.0187926
-0.00956899
-0.00264755
0.0011072
-0.0121111
0.00910326
0.00190066
0.0151088
-0.00356177
0.00864785
-0.0201948
0.000177941
-0.000485705
-4.27167e-05
0.000350481
-0.000615784
0.0215363
-0.00480588
-0.0161147
0.000998448
-0.00479404
0.00676082
-0.00296523
-0.00495965
0.000721905
0.000155979
0.00408177
-0.00770599
-0.00749292
0.00563176
0.000292042
-0.000497596
0.000480568
-0.000275013
-0.0281619
-0.0112769
-0.0289916
-0.00042235
-6.29026e-05
0.000415377
6.98753e-05
0.0019224
-0.000615136
6.27469e-05
-0.00137001
0.00639895
-0.0044024
-0.00676314
0.00476659
-0.000547217
0.000813527
1.39108e-05
-0.000280221
0.000772751
-0.000869386
0.00548482
-6.67029e-05
-0.000302813
1.02868e-06
0.000368487
-0.00401527
0.00310565
-0.00184384
0.00275346
0.000750751
0.00244833
-0.00244224
-0.000492096
-0.000145886
4.3945e-05
0.000594037
0.00468454
0.0131883
-0.0169304
0.000476145
-0.00068789
0.000156543
5.52024e-05
0.00298558
0.003257
-0.00353476
0.000154943
0.000167395
0.000219528
-0.000541866
0.00296618
-0.00087003
-0.00206095
-3.51968e-05
-0.00330949
0.00146521
0.00432874
-0.00248445
9.4254e-05
0.00149572
-0.00511359
0.00352362
-0.000529725
0.00251375
-0.00210723
0.000123201
0.000508197
-0.000379775
-0.000257682
0.00012926
0.0120351
-0.0119113
-0.00450161
0.00437786
-0.000404719
-0.000460385
-0.000130506
0.00099561
0.000128516
-0.000544097
-0.000642751
0.00105833
0.000274104
-0.000594802
-0.000135529
0.000456227
0.00795734
0.00405272
-0.00963693
-0.00237313
0.000902604
-0.00153887
-0.000173199
0.000809464
0.00206766
-0.00224479
-0.000338999
0.000516129
0.000440727
0.000549775
-0.00108871
9.82109e-05
-0.000424766
0.00012052
0.000660198
-0.000355952
0.000457022
0.000422631
-0.000479294
-0.000400359
-0.00060795
0.000872053
-2.18819e-05
-0.000242222
-0.000201772
0.000234028
-0.000453551
0.000569624
0.000275732
-0.000391806
0.000581343
-0.000158712
-0.00295093
-0.000347734
0.00269017
0.000608493
0.000324851
0.000256492
0.00192256
-0.00308972
-0.000937115
0.00210427
-0.000859247
-0.000794125
0.00106381
0.000863231
-0.00132027
0.000457035
-0.000733011
-0.000198452
0.000290735
0.000640728
0.00393393
0.00292769
-0.00289127
-0.00397035
-0.00145908
-0.00147233
0.00120153
0.00172988
-0.0150211
0.0284118
-0.0133906
-0.0184085
-0.00805884
0.00730222
0.0191651
-0.00253137
-0.0107609
0.0066111
0.00668113
-0.00010258
-0.00351733
-0.00593319
0.0095531
0.0598639
-0.0245674
-0.0275747
0.000713083
0.000875202
-0.000673173
-0.000915111
-0.00262565
-0.00367673
-0.00288059
0.00918297
-0.000413818
0.000550475
-0.000136657
0.000158966
-0.000474132
-0.000221892
0.000537058
-0.000409611
0.000378053
0.000186501
0.0038489
-0.000651393
-0.00444276
0.00124525
0.00225346
-0.00311371
0.00097171
-0.000111458
0.000377166
0.000228408
-0.00031434
-0.000291234
-0.000289925
-0.000287531
0.000577456
-6.29187e-05
0.000282714
-0.000567186
0.00034739
0.000747007
-0.000570092
0.000585246
-0.00076216
-0.000193115
0.000254906
-6.17916e-05
4.91736e-06
0.000173552
-0.000461727
0.000283257
-0.0037266
0.000781722
-0.000786974
0.00373185
-0.0031033
-0.00769897
0.0101865
-0.000302105
-0.000990726
0.000630598
0.00575154
0.00229453
-0.00745768
-0.000588397
-0.0410788
-0.00563117
0.0342679
0.0124421
0.0023897
-0.00283656
-0.00286262
0.0096119
-0.000405268
-0.0113016
0.00209494
-0.0015536
0.000400811
0.000955272
0.000197516
-0.00414123
-0.00525365
-0.00262303
0.0120179
-0.000235175
-0.000457582
0.0017911
-0.00109834
-0.00281064
0.00365549
0.00217596
-0.00302081
-0.024153
-0.00428548
-0.00666163
0.0351001
-0.000570647
6.0955e-05
-0.000588173
0.00109787
-0.00234132
0.0158752
-0.00410618
-0.00942774
0.00146266
-0.00113011
0.000122964
-0.000455516
0.000453663
-0.00136185
0.000217103
0.000691083
-0.000504551
-0.0019815
0.00110217
0.00138388
-0.000288924
0.00024069
4.82343e-05
-0.000155805
6.65448e-05
0.000364201
-0.000274941
0.00730038
0.00634313
-0.010103
-0.00354049
-0.00707527
0.00130249
0.000825046
0.00494774
-0.0145845
0.0132105
0.00564676
-0.00427279
0.000224625
0.00249659
-0.00233866
-0.000382548
0.0117809
-0.000689225
-0.0103863
-0.000705318
-0.000221892
0.000150345
-9.60965e-05
0.000167644
-0.000236888
0.000153161
8.37269e-05
0.000172972
-4.78655e-05
-0.000361994
0.00766561
0.0169266
-0.0198219
-0.00477029
6.95947e-05
-0.000118515
0.000105504
-0.00017644
7.48704e-05
-3.93443e-06
0.00640064
0.0239478
-0.0414254
0.011077
-0.0218254
0.00163214
0.00178478
0.000240486
1.53623e-05
0.00100853
-0.000585675
0.000309611
-0.000732466
0.000529236
-0.000325242
-0.000260433
-0.0451014
-0.0355206
-0.00570234
0.0135397
-0.00476757
-0.00306976
-0.00700895
0.0144439
0.000297939
-0.00773285
-0.00163739
0.00241205
-0.00463071
0.00385606
0.00416113
0.00033787
-0.00442975
-6.92499e-05
0.000130524
0.000721446
0.00554698
0.00502593
-0.00234334
0.00215488
-0.00483748
-0.00764991
0.00211091
0.00113661
-0.00184443
-0.00461559
-0.000303127
-0.00293963
0.00275618
1.34129e-05
0.000170037
0.00217828
-0.000956785
-0.00146395
-0.000408886
-0.00317268
0.00504552
0.021726
0.0035826
-0.00610467
-0.0192039
-0.0203369
0.00616859
0.00946103
0.00470723
0.00167204
-0.000282901
-0.0152206
0.0156625
0.00572668
0.0464359
-0.0426686
0.0729222
-0.0766895
0.000883264
-0.000438828
0.000623222
-0.00106766
0.0014894
-0.00183457
0.0039424
-0.00359723
9.54487e-05
0.00109825
-0.000291416
-0.000902278
-0.00318671
-0.00152359
-0.000160767
0.00487107
-0.000202591
-0.000530075
0.000439422
0.000293244
0.0287256
-0.00354349
-0.0215995
0.0164362
-0.00799073
-0.00753714
-0.000908345
0.000758204
-0.00581497
-0.00145436
0.00651112
0.000255981
0.00314675
-0.00251287
-0.000889858
-0.00403443
0.0021791
-0.00465975
0.00651508
0.00286205
-0.00329629
0.00210445
-0.00167021
0.00290967
-0.000553465
-0.00210022
0.000252497
-0.000352522
3.92816e-06
0.000173674
-0.000491516
-0.000554886
0.000872727
0.00262652
0.000309702
-0.00269227
-0.000243948
0.0149956
0.0406457
0.000477031
-0.00244234
0.00791779
-0.00595247
-0.00855036
0.00785058
3.91043e-05
0.000660667
0.0105505
-0.00729928
-0.00885719
0.00560602
-0.00176814
0.0260309
-0.00121136
-0.0230514
0.000290905
0.000733629
-0.000871905
-0.000152629
0.000107921
0.000807291
-0.000482646
-0.000432567
6.32e-05
-0.000790382
0.00101809
-0.00201672
-0.000738589
0.000568058
0.00218725
0.00235245
0.00255751
0.0642399
-0.0181595
-0.00289899
-0.0431814
0.00558597
0.00930577
-0.0129513
-0.00194048
-0.000746583
0.000170953
0.000395582
0.000180048
0.00571236
0.00271194
-0.00340485
-0.00501945
0.000689853
0.00545093
-0.000428423
-5.07079e-05
-0.00548416
-0.00197567
0.00751054
-0.00457447
-0.00168764
0.0062114
-0.00122579
0.00304878
0.00125999
-0.00308298
-0.000203067
0.00128822
-0.00310188
-0.00391285
0.002484
-0.00188438
0.00754164
-0.0025469
-0.00311036
0.0021884
-0.00018404
-0.00274295
0.000546331
-0.00104945
-0.000223104
0.000726218
-0.00146084
0.000463296
0.00154388
0.00409921
0.00688223
0.00154302
-0.0125245
0.0143727
-0.00898582
0.0254673
-0.0308542
-0.00113843
-0.00720015
-0.000266035
0.00860461
0.000368657
-0.000116328
-1.18431e-05
-0.000884434
-0.000742329
0.000401627
0.00122514
0.000252729
0.000265749
-0.000518478
0.00217116
-0.000569994
-0.000995266
-0.000605905
0.00116716
-0.000695632
-0.00152097
0.000145226
-0.000438911
-0.00141721
-0.000351051
0.00127966
0.0004886
0.00869225
-0.00359267
0.00220079
-0.000590589
-0.00141192
0.00214773
-0.000843319
0.00201964
-0.00176691
-0.00172899
0.00151811
0.0024039
-0.00219301
-0.00233607
0.0453477
0.00629392
-0.00384551
0.00140552
-0.00385392
-7.96709e-05
2.75969e-06
-0.000345438
-0.00715941
-0.00897801
-0.00300483
0.0191423
8.20365e-05
0.00349013
-0.0032343
0.00768899
0.0154649
-0.00738949
0.00211732
-0.00119976
-0.000526275
-0.000391291
-0.0012924
-0.000789723
0.000636336
0.00144579
4.63523e-05
0.000312838
-4.30987e-07
-0.000358759
0.00250637
0.00292214
-0.00795987
0.0149068
0.00621552
-0.0164378
0.0115772
0.00503613
-0.000177068
-0.00935807
0.0108528
0.00581264
-0.00730733
0.00188052
-0.0010339
-0.000454562
-0.000392058
-0.000826352
0.00197701
7.72539e-05
-0.00122791
-0.0108519
-0.00135102
0.0133664
-0.00116355
-0.00216125
-0.00151086
0.00101065
0.00266146
-0.000441194
0.000102271
-0.000786889
0.00112581
0.000820474
-0.000213326
-0.000460668
-0.000146481
-3.86301e-05
-0.00211045
0.00132272
0.000754317
4.31877e-05
0.0011795
-0.000580485
-0.000408549
0.0015735
-0.000584469
0.00235716
-0.00185368
0.00238573
-0.00288922
-8.43857e-05
0.000482792
-0.000335206
0.00741413
-0.0122895
0.0119941
0.00166998
-0.00115557
-0.000156103
-0.00322434
0.00221822
0.00116222
0.000328427
0.00277275
-0.00220603
-0.000895146
-0.000150628
0.000213539
-0.000147297
-0.000604833
3.59034e-05
0.000568929
-0.00114768
0.00095124
0.000483036
-0.000286598
0.00266163
-0.00262764
-0.00120714
0.00117315
-0.000720259
0.000624868
-0.000485094
-0.000160498
0.000166369
-0.00012081
0.000390313
-0.000720772
0.000330459
-0.000738557
-0.00183493
-0.000983908
0.00355739
4.91676e-05
-1.96085e-05
-0.000180187
-0.00185849
-2.24242e-06
0.000557165
0.000322978
-0.000344827
0.00028266
-0.000260811
0.000994742
-0.000379438
0.00219485
-0.00281015
-0.000230493
0.000134132
0.000419339
-0.00159757
0.000162433
0.000268674
0.00116646
0.000918083
-0.00034889
-0.000448673
0.000804587
-0.00166389
0.000859308
-0.000140497
-0.000206182
0.000116186
0.000838753
-0.00125232
0.00149569
-0.00108212
-0.000573353
0.000248111
-0.000144849
1.3561e-05
-0.000618684
0.000264211
0.00261451
-0.000125857
-0.000805492
0.00144295
-0.000511605
-0.000144962
-0.00167372
0.000604821
0.00121386
-0.000829093
0.000660776
-0.000105887
0.000274204
-3.42732e-05
-0.00262153
0.000127475
0.00252833
0.000138147
-0.000543283
0.000487597
-8.24615e-05
-0.000478551
-0.00036733
0.000720024
-0.00814736
0.0181195
-0.0138867
0.00391456
0.00096159
0.000245083
-0.0003368
-0.000869872
-0.00614003
-0.00379298
0.0120753
-0.00214233
-0.0001629
-0.00125416
0.00271167
-0.00129461
0.00180827
-0.00144089
0.00147313
-0.00184051
-2.19009e-05
0.000427239
-0.00088389
0.00064599
-0.000313775
-0.000720574
0.00038836
-0.00176313
0.000212752
0.00217237
-0.000621993
-0.00196495
0.00353652
-0.0017427
0.000171138
-0.000478614
0.000813767
-0.000153602
-0.000181552
0.00175806
-0.00323108
-0.00794282
0.00941585
0.00153154
0.0109568
-0.000465351
-0.012023
0.0137192
-0.00566208
-0.00972015
0.001663
0.000156274
0.00111949
-0.00127576
-0.00774991
0.013344
0.00519786
-0.0107919
0.00394154
-0.00521367
0.000146845
0.00112529
-0.00089586
-0.000544287
0.000719888
0.0157626
-0.00689101
-0.00176643
-0.000520837
-0.000375802
0.000418025
0.00694351
-0.00385694
0.00261776
0.00473358
-0.00375897
-0.000685309
-0.000289306
-0.000418526
-0.000210239
0.000321026
0.000307739
0.000777471
-0.00160486
-0.000197309
0.00277291
-0.00066955
-0.00190605
0.000100561
-0.00347525
-0.000105658
0.00348034
-0.00096075
-0.000638282
0.000706282
6.26607e-05
6.3605e-05
-7.70981e-05
0.0161137
-0.00146157
-0.0221328
0.00748067
-0.00057298
-0.00143898
0.00156663
0.000445332
0.000601645
0.00048399
-0.00225791
0.00117228
0.000249182
0.00308033
0.000722972
0.0014011
-0.00137244
6.6208e-05
-0.000655245
-0.00123911
0.00182814
0.000757341
-0.00165096
-0.00301924
0.00136181
-0.00356252
-0.000575806
0.00277651
0.000732689
-0.000940908
-0.00117168
0.0013799
0.000410945
0.00117963
-0.00215455
-0.00474233
7.55362e-06
0.00688933
-0.00191843
0.00220088
0.00166866
-0.00195112
-0.000886376
-0.00103205
-0.000626001
-0.000431847
-0.000907105
-8.19583e-05
0.00162273
-0.000386374
-0.0011544
-0.000838648
0.0020068
-0.00410269
0.00293454
0.00273528
0.00568806
-0.00926199
-0.000313086
0.000341395
-0.000425163
0.000396855
-0.000351022
9.67019e-05
0.000546362
-7.69097e-05
0.00052259
-0.000943277
0.000913485
-0.000972315
0.000196977
0.00014854
-0.000235216
0.00100016
0.00672558
-0.00109295
-0.0053488
-0.000283828
-0.00565656
0.0054797
-0.00404164
0.0042185
-0.00315214
0.010048
-0.00626031
-0.000635527
-0.00278885
-0.00244489
0.00234912
0.00288463
-0.000542018
-0.00306869
-0.00204585
0.0011453
0.00105267
-0.00017861
-0.00201936
-0.000423985
0.00208079
0.000605188
-0.00226199
-0.00334695
0.00326117
0.00209367
-0.00200789
0.00084505
-0.0030467
0.00292587
0.00017555
-0.00130426
-0.00179716
0.000331233
-0.00191426
0.0065254
-0.00494238
0.0101555
-0.00424325
-0.00592416
1.19482e-05
-0.00654826
-0.00963896
0.00160274
0.00340963
-0.00384075
0.00651014
-0.00607903
-0.00123842
0.000440219
-0.00591507
0.00368567
-0.000554343
0.00278374
-0.00915369
-0.00349691
0.00764779
0.00500281
0.00105963
-0.00105205
0.00265405
0.000319075
0.00475648
0.00136865
0.00102282
-0.00114072
0.000519383
-0.000401489
-0.00173398
0.0190615
0.00340237
-0.0207299
-0.00271355
0.0039965
-0.010789
0.00950609
0.00237267
0.000948785
-0.00200028
-0.00132117
0.00596261
-0.00390785
-0.00157773
-0.000395117
5.79184e-05
-0.000322333
0.000659532
0.000152834
0.000272523
0.000424414
-0.000749988
0.000478408
-0.000291427
0.000773759
-0.023453
-0.00285149
0.0208916
0.00541297
-0.0108424
-0.000943569
-0.00781996
0.019606
0.0072703
-0.00192021
0.00158652
-0.00693661
0.0119155
-0.00478644
-0.0102459
0.0031169
0.00517225
7.27408e-05
-0.000738157
0.00124674
-0.000581321
-0.00164007
0.0120904
-0.000696701
0.00245519
-0.00011324
0.000446753
0.00483732
0.00749984
-0.0021686
-0.00144094
0.00176335
0.0018462
-0.000557773
-0.00354247
0.00193899
-0.00142585
-0.0105644
-0.00991977
0.0156617
-0.000155982
0.00588041
-0.00228341
-0.0124842
0.000580099
0.0208508
-0.00894665
7.48211e-05
-0.00104195
0.000907586
5.954e-05
-1.16468e-05
6.23169e-06
-0.000414436
0.000419851
-0.00704288
-0.0121657
0.0175474
0.00166118
0.00349173
0.000437068
-0.0036551
-0.0002737
-0.00113319
0.0018955
-0.00105774
0.00029543
0.000237942
-0.00280317
0.00235964
0.000205588
0.0275971
-0.0267349
-0.0008622
0.00079819
-0.00326288
0.00353673
-0.00107205
-0.00109505
0.000882187
-0.00217304
0.0023859
0.00430977
0.0176752
-0.0368176
0.0442027
-0.0250603
0.00267236
-0.0463203
0.041158
0.00248989
0.00111153
-0.00077223
0.000460264
-0.00042977
-0.00184623
0.00301063
0.00254415
0.00031444
-0.000587316
-0.00227127
-0.00161508
0.00291163
-0.0131972
0.00122422
0.00119667
-0.00100819
-0.0014127
0.00159119
0.000730039
-0.000288837
-0.00203239
0.000517234
0.00199553
0.00158307
-0.00409584
0.0068825
-0.0133582
-0.000919927
0.0073956
0.00686559
-0.0089261
-0.00175747
0.00381797
0.0014851
-0.00327043
0.00109141
0.000693929
0.00133852
-0.0021665
0.00330785
-0.00247987
-0.0101487
-0.00641276
0.0111111
0.00545043
0.0016121
-0.00242254
-0.00269145
0.00350189
0.00255025
0.0015175
-0.000916633
-0.00315112
-0.00117078
0.0013552
-0.000510437
0.000326021
0.00128174
-0.00224068
0.00109232
-0.000133389
-0.00369632
0.0041137
0.000200463
-0.000617842
0.000752431
0.000209159
-0.000801525
0.00102044
-0.000684486
0.000465567
-0.00276342
-0.0099501
0.0201277
0.00138145
0.00226321
-0.00378963
0.000292051
0.000307274
-0.000301519
-0.000297806
-7.82504e-05
0.00265938
0.0013528
0.000567194
-0.000175342
-2.49841e-05
-0.000366868
-0.0108087
-0.00895055
0.00340228
0.0163569
-0.0116472
0.0053587
0.000945128
0.00534341
-7.33568e-05
-0.00248449
0.00278247
-0.000350067
0.000892991
-0.000596323
5.33992e-05
0.00330627
-0.000301912
-0.00132093
-0.00168343
0.000971919
-0.00017183
-0.00193328
-0.00151393
-0.00213908
0.00209246
0.00156056
2.3118e-05
0.000154141
-0.000143141
-3.41181e-05
-0.000511611
0.00154317
-0.00156128
-0.00200992
0.00279816
-0.000810264
2.20235e-05
-2.03646e-05
9.31102e-06
-0.00188044
0.00189149
0.00143075
0.00134933
-0.00201925
-0.000760835
-0.00044194
-0.00032192
-0.000410753
0.00117461
7.97914e-05
0.000171379
5.8675e-05
-0.000309845
-0.00015825
0.000641214
-0.000482965
-0.000124822
-0.000223678
0.000294016
5.44833e-05
-0.000906312
-0.00309449
-0.0032213
0.00722211
-0.000866046
0.00179862
0.000568685
-0.00150126
0.000136945
-0.000379678
0.000934732
-0.000691999
-0.00336151
0.00440833
-0.00124412
0.0024145
-0.000565042
-0.00156255
-0.000286909
0.0169755
-0.00547352
-0.0193909
0.00788884
0.0200584
0.0087308
-0.0223885
0.000898368
-0.000685373
0.00332352
-0.00329595
0.00471633
-0.0023267
-0.00397566
-0.00191804
0.00115893
0.000584778
0.00194628
-0.00368999
-0.000393297
-7.60143e-05
-0.000293845
0.000763156
0.0177781
0.00256592
0.00119233
0.00692531
-0.00752425
0.000729466
0.000431469
-0.00141075
0.00128847
-0.000309186
-0.013831
-0.00184846
0.00322082
0.0124586
0.000816663
-0.000913252
-0.000101651
0.000198239
-0.00137591
0.00649836
0.00277407
-0.00789652
0.00433309
-0.00248756
0.000967426
-0.000809264
-0.000393338
-0.0106093
-0.0174812
0.0373982
-0.00930774
-0.0002205
-0.000267553
0.000315838
0.000172216
0.001779
-0.000859269
-0.00010307
-0.00117279
0.00135118
-0.000467349
0.000288964
0.00086246
-0.000667866
-0.00126148
0.00106688
-0.00115415
-0.000209924
-0.00122005
0.00258412
-0.00242502
0.00218788
-0.00146373
0.00170088
-2.58985e-05
0.000705424
-0.000117921
-0.000561604
4.16339e-06
0.00199462
-0.000637782
-0.001361
-0.00194756
0.00103139
0.000423035
0.000493132
0.000757143
0.0018067
8.29009e-05
-0.00264674
-0.00536304
0.00392571
6.14246e-05
-0.000503656
-0.000220781
-0.000188815
0.00128603
-0.00349906
0.00180134
0.000411692
0.000167767
0.00101028
-0.00098822
-0.000189823
-0.0233279
-0.0101425
0.0108815
0.022589
0.000895996
0.000729084
-0.00105715
-0.000567928
0.00184065
-0.0036578
-0.000649474
0.00246661
0.00153566
0.00270294
-0.00465396
0.000415356
-0.000979456
-0.00175114
-0.000936963
0.00366756
0.00197641
-0.000212409
-0.000465982
-0.00129802
-0.000692172
0.00160859
0.00159733
-0.0118582
0.0134608
-0.0150473
0.0134447
-0.000213305
0.00101475
5.29084e-05
-0.000854349
-0.00362179
0.00186822
-0.00194274
0.0142741
-0.00269868
-0.0161667
0.00459135
0.00293144
-0.00371279
0.00282257
-0.00215508
0.000384908
-0.0010524
-0.000822015
-0.000695765
0.001058
-0.00161612
0.00270952
-0.00215141
-0.000292876
-0.00146787
0.000501261
0.00125948
0.00253334
0.00203316
-0.00269461
-0.00187188
-0.0012685
0.00133857
-0.0013562
0.00128612
0.00115937
-0.00141013
-0.00120713
0.00145789
-0.00681844
0.000422318
0.00708598
-0.00236512
7.99539e-06
-6.78936e-05
-7.5663e-05
-0.00180595
0.000758951
0.00112266
0.00198381
0.000528241
-0.00138902
-0.00112303
0.00417527
-0.00254809
-0.000828996
-0.00319592
-0.000644973
0.000889965
-0.00199037
-0.00141318
0.00268754
0.000716018
-0.00111547
-0.00112382
0.000886665
0.00135263
0.000437471
1.92099e-05
0.000171989
-0.00062867
-0.000833343
0.000206337
-0.00063885
0.00126586
-0.00499892
-0.00121914
0.00377572
0.00196933
-6.63719e-05
-0.000981288
-0.000921671
0.00116964
0.011543
-0.00522349
-0.00721366
0.00974136
-0.0017695
-0.00170181
0.000429209
0.000979724
0.000265211
-0.00162662
0.000626878
0.000734529
0.000135494
-0.000268669
-0.00239986
0.000912024
0.00093006
-0.00100534
-0.000933183
0.000982194
0.000956331
0.000418094
0.000513594
-0.000994606
-0.000176435
-0.000634333
0.000398543
0.000412225
0.00116182
0.000833414
-0.000216226
0.000867954
-0.000449838
-0.000631442
0.0076288
-0.00500889
-0.00134962
-0.00127029
0.00167953
-0.00214857
0.000678406
-0.00020936
0.00132984
-0.00113783
4.1644e-05
-0.000619153
0.00140132
0.00355093
0.00070993
-0.00181566
-1.66967e-06
0.0011074
-0.000506165
0.000743462
-0.000101803
7.19309e-05
0.000492844
-0.000654045
8.92699e-05
-0.00102822
0.00261957
-0.00160846
1.71128e-05
-0.00121829
-0.00037908
0.00107434
0.00052303
1.67433e-05
0.00478571
-3.58657e-05
-0.0147728
0.00156393
0.000382922
0.0128259
-0.000468533
-0.00122705
0.000690242
-0.00239033
0.00295474
-0.000695938
0.000208983
0.000206253
-0.000400401
-7.5172e-05
-0.0248625
0.0277223
0.00285576
0.00663278
0.00743805
0.00909024
0.0033964
-0.0075868
-0.0016574
0.000558791
0.00121476
0.011802
0.00469311
-0.0136394
0.0147908
-0.000994801
-0.00583865
-0.000347486
-0.000913385
0.00126503
0.00284617
0.0351163
-0.0332471
-0.00471541
-0.00114993
0.00272847
0.00298099
-0.00455954
7.64023e-05
-0.00154902
0.00305763
-0.00158501
0.000790775
-0.0023603
0.00142428
0.000145246
0.00246542
0.00162013
0.000461129
-0.00454668
-0.0120661
-0.0035162
0.021852
-0.00626969
-0.00985709
0.011944
0.00362492
-0.00571187
-0.00077867
0.000647508
-0.00431676
0.00444792
-0.0306038
0.027618
-0.0211672
-0.00187921
-0.00173869
0.00334059
0.000277308
0.00120825
-0.000585999
9.08311e-05
0.0254611
0.00147894
-0.0182719
-0.00251015
-0.00485219
-0.00199573
0.00669663
0.00729263
-0.00764227
-0.00634699
0.00495884
0.00269713
-0.00115761
-0.00591674
-0.0609761
-0.00346723
-0.00548673
-0.00725515
0.00933431
0.00575065
-0.00281459
-0.00603937
-0.0232292
0.0237641
-0.000534885
-0.00409292
0.0017874
0.000960195
-0.00177567
-0.00212593
0.00149486
0.00267643
-0.00204536
0.000119197
0.000712072
-0.000154063
-0.000677205
-0.00250667
0.0103983
0.00535129
-0.0132429
-0.000795752
-0.000250804
0.000504961
0.000541594
-0.00417858
0.00198635
0.000827264
0.00136497
0.00331332
-0.0086579
-0.00185557
-0.000850349
0.000565092
0.000148979
0.000136278
-0.00618648
0.00313149
-0.00321597
0.00627095
0.000284204
-0.000182056
0.00032226
-0.000424408
-0.0340063
0.019447
-0.000384667
0.014944
-0.00189069
-0.000912017
0.00152119
0.00128152
0.00608198
-0.000480973
-0.0289289
-0.00240965
0.000599351
0.00655066
-0.0492114
-0.00793371
0.00360266
0.0276561
-0.0285864
0.0105166
-0.00208244
-0.0139209
-0.000177222
0.000223574
0.000239553
0.000718041
-0.000957594
-0.000175482
0.00029449
-4.34009e-05
-7.56076e-05
-0.00171447
0.00103053
-0.000457735
0.00114167
-0.00259224
-0.000958146
0.000649175
0.00290122
-0.0014037
0.000694187
0.00146383
-0.00327191
-0.00288882
0.00144605
0.00328933
-0.00184656
0.000811484
0.000588428
-0.000946249
-0.000392294
-0.00243788
0.00444228
0.000114865
-0.000181568
-0.000867135
-0.000620878
0.000390933
0.00109708
-0.00108306
-0.000289256
-0.000342147
0.00117282
-0.00288278
-0.00245526
-0.00115401
0.000812804
-0.000149328
0.00049053
0.00273829
0.00101906
-0.00168969
-0.00521618
0.00692373
0.00106652
-0.00849498
0.00181002
-0.0167681
-0.0049972
0.00807095
0.00203969
-0.00511344
-0.0120921
-0.0070122
-0.00656769
0.00829753
0.0058118
0.000265475
0.00105522
-8.50912e-05
-0.000115167
0.000200258
-2.51792e-05
0.00017834
-0.000665467
0.00192751
0.00114115
-0.000423779
-0.000264597
-0.000452773
0.00483005
0.0115283
-0.00104287
0.00167906
0.000860256
0.000607439
0.000794781
-4.18995e-05
-0.00354173
0.00353628
0.00181315
-0.00248738
-0.00011477
-0.00035128
-0.000494424
0.000960474
-0.00120554
0.00273015
-0.0014482
0.00299682
-0.000508281
-0.00143053
0.00181725
0.00779032
-0.00521528
-0.00439229
-0.00468297
-0.0010009
0.00507515
0.000608718
-0.00105696
-0.000310349
-0.00126402
0.000458068
0.000349016
0.000456939
0.00108728
-0.000159872
-0.00138499
-0.00120217
0.00110575
9.64226e-05
0.000417957
0.000617888
-0.000498494
-0.000537352
0.000113274
-0.000641189
0.00134072
-0.000634667
-0.000951213
1.34178e-05
0.00157246
-0.000372047
0.000767912
-0.000619775
0.00113418
-0.000401128
0.0019696
0.000129256
-0.000115047
-0.0044194
-0.0157315
0.0228809
-0.00273004
-0.000799295
0.000365792
0.000257068
-0.000100332
0.0015846
-0.000378633
-0.00110563
0.000956185
-1.60648e-05
0.00457282
0.00023037
-0.000555772
0.000514636
-0.000189234
0.000422612
0.000592943
-0.000119559
-0.00163145
-0.000280253
0.00215513
-0.000819636
0.00267683
9.85071e-05
-0.000420656
-0.000572849
0.000359173
0.000113586
-0.000417375
-0.000104888
0.000408677
-0.000378494
-0.00273644
-0.00041301
0.000180776
-0.00060137
0.000843207
-0.000893871
-0.000464222
-0.00268002
0.000319058
0.00428719
-0.00192623
0.00234194
-0.00405536
0.00183299
-0.000119567
0.00390175
0.000280842
0.00272688
-0.00260507
-0.00280183
0.00251743
8.21222e-05
0.000127326
0.00053482
-0.000159389
-0.000375431
-0.000251613
0.000743215
0.000188099
-0.0006797
-0.000891333
0.000366527
0.000808538
-0.000283732
-0.00130574
0.000162789
-0.000442189
0.00071477
-0.000189563
-8.30175e-05
0.000698438
0.000281556
-0.00109355
0.000113553
-0.00108032
0.000956557
-0.000526123
0.00310098
-0.00106777
-0.000686122
0.000129044
0.00192363
-0.00230312
-0.000338673
-0.0050928
0.0179894
-0.00578623
-0.00711037
0.00303313
0.00283567
0.00320401
-0.0090728
-0.00952292
-0.0104319
0.018851
0.00110379
-0.00197462
0.008272
0.00425307
0.00370376
0.00133182
0.00191957
-0.00695515
0.00805847
0.0127414
-0.0226123
0.00181247
-0.0763277
-0.0503481
0.0519098
-0.00500482
0.0131067
-0.0104432
-0.0117798
0.00652067
0.00395316
-0.0239368
0.030838
-0.0136768
0.00677553
-0.0094517
-0.00116578
0.00658305
-0.00301942
0.0129364
0.0290557
-0.00935636
0.00300036
-0.00219436
0.0263653
0.0120656
0.00314353
0.0306472
0.000815384
-0.000389212
-0.000238343
-0.00130444
0.000584848
-0.00209334
0.0025423
0.000638323
-0.0101578
-0.00312353
0.00208055
0.0112007
0.00530141
-0.0115326
0.0129879
-0.00675668
0.0100433
0.000239563
-0.00498149
-0.00135706
-0.00128171
0.000233925
-0.000774856
-0.00602675
0.00252367
-0.00381645
-0.00200317
-0.0007071
-0.00212867
0.00200243
8.89248e-05
-0.00268671
0.000853999
-0.00137499
-0.000836064
-0.000343831
-0.00134291
0.00116637
-0.000412699
0.00210758
0.00755668
0.0108544
-0.010973
0.0228038
-0.00594391
0.00576929
-0.0226292
0.0107921
-0.0111534
0.00791799
0.000831696
0.00430589
0.000568914
-0.0057065
0.00182034
0.000457134
0.00121454
-0.00349201
-0.00663382
-0.00100683
0.0042396
0.00340104
0.00596572
0.00216666
-0.0031213
-0.00501108
-0.00470387
0.00403577
-0.00184093
0.000257327
0.000115737
0.00546462
0.000867812
-0.00259598
-0.00373645
0.00106275
-0.000481742
0.000137538
-0.000129945
0.000474148
0.00042353
-0.000946619
0.00165727
0.000134494
7.94347e-05
0.00157717
-0.00379575
0.00385452
0.00297436
0.00048747
0.000481585
0.000587895
-0.00155695
-8.19166e-05
-0.00099416
0.000708747
0.000717118
0.00119034
-0.00301108
0.00110363
0.000976145
0.00187169
0.00198414
-0.00483197
-0.000418623
-0.00283442
0.000962691
0.00229035
0.00105609
0.00264033
0.000362148
-0.00405858
-0.00432403
0.0068988
0.00104788
0.00235139
0.000192157
-0.00359143
0.00220688
0.017014
-0.0141751
-0.000245435
-0.00259344
-0.0144731
0.0166628
0.0148242
-0.0195369
-0.00961112
0.00186257
-0.0187638
0.00242814
-0.00767632
0.00671174
-0.00166894
0.000655033
0.000946571
6.73405e-05
0.00126528
0.00610211
-0.00980619
0.0024388
-0.000891432
7.51271e-05
-0.000878377
0.00169468
2.69804e-05
8.39597e-05
-0.000218504
0.000107564
-0.00161553
-0.0164919
0.0104311
0.00724324
0.00467426
0.00180172
0.002236
-0.00182777
0.00842982
-0.0171844
0.0205415
-0.0117869
-0.00749119
0.0204386
0.00409475
-0.0170421
0.0209996
-0.000992634
0.00516751
0.0307309
-0.0358984
0.00208192
0.000717283
-0.000147179
0.000367972
-0.000473943
0.00025315
0.000487343
-0.000634522
-7.60249e-06
0.0003624
-0.000575298
0.00072528
-0.000412738
-0.000365007
5.24648e-05
0.00027252
0.000445158
-0.000382419
0.000112642
5.29553e-05
0.000216822
-0.00230367
0.000607289
0.000279174
-0.00151335
-0.000425483
0.000784679
-0.00708957
-0.0192609
0.0191911
0.00185285
-6.47684e-05
-0.000145059
0.000287905
-0.00314145
0.00156269
0.00241046
-0.00648934
-0.00121796
-0.00205619
0.00059775
0.00267639
6.9999e-05
-0.00268506
-0.000447014
0.00191412
0.00368893
0.00456145
-0.00334727
-0.00490311
-0.00127519
-0.000103625
0.000864091
0.00051472
0.00222283
0.00010178
-0.00136843
0.00103427
-0.000815889
-0.000659579
-0.00144363
7.80416e-05
0.00247036
-0.00181422
-0.00209977
-0.0242298
0.029113
0.0214821
0.000507553
-0.0014612
-0.00135003
0.0124178
-0.0126384
7.1696e-05
0.000148916
-0.0024219
0.00196687
-0.000388287
-0.00548404
-0.012093
-0.0137774
0.00977012
0.0108728
-0.000664169
-0.00330549
0.00184373
-0.00150308
-0.000307919
0.0045419
-0.00273091
0.00147067
0.00126677
-0.0244945
0.0249455
0.00760748
0.00666788
-0.00377832
-0.000177623
0.000183745
0.025213
-0.0253967
-0.015841
0.00613897
-0.000438753
-0.00291421
0.000542326
0.00997985
-0.00606211
0.000919587
-0.000749863
-0.00154563
0.00597059
0.00141459
-2.90291e-05
0.000405209
-0.000271542
0.00215091
-0.00218775
-0.000619141
0.000655981
-0.000633635
0.000903661
-1.02704e-05
-0.000259756
0.0204412
-0.00551639
-0.00199147
-0.00223269
-0.00241555
-0.00398381
0.0115607
0.0118054
0.0354793
-0.00384747
0.000857544
0.000453604
-0.00292727
0.000400964
0.00127073
-0.0016717
-0.00826019
-0.000284954
0.00866117
-0.000116029
0.00077283
0.00223079
0.00225657
-0.00320132
-7.16971e-08
-0.00281035
-0.00202441
0.00483483
-0.00121777
0.00335265
-0.00404914
-0.000604304
0.00136255
0.00648487
-0.00884336
0.00405749
-0.001699
0.0038803
-0.00919605
0.00386606
-0.0110564
0.00633618
-0.00443351
-0.055158
0.0100566
-0.00688155
0.00864702
0.00168976
0.000603269
0.000203553
-0.000545944
0.00142844
-0.00196282
0.00128676
-0.000609889
-0.00136461
-0.000981424
-0.000388939
0.000926749
0.000443615
0.00630042
-0.0087282
-0.000956618
6.46131e-05
7.57101e-06
-0.0381647
-0.0169933
0.00033451
0.000212789
-0.000547299
0.00259875
-0.00365816
0.00369975
-0.00249143
-0.000737545
0.000132713
-0.000874884
2.69951e-05
-0.00029979
0.00692304
0.00145946
-0.00647717
-0.00190533
-0.00746243
0.00216751
0.00179801
0.00162056
0.0102061
-0.00275093
0.000830893
0.00141548
-0.000133786
-0.000141085
-0.000130298
0.000405168
0.000231193
-0.000302324
7.11317e-05
2.30717e-05
0.00172904
-0.00244881
0.00188215
0.0533269
-0.0379668
-0.0172422
-0.000721939
0.00123208
-0.000669258
0.00200317
-0.00453487
-0.00499642
0.00752812
0.00460751
-0.00795832