/*--------------------------------*- C++ -*----------------------------------*\
| =========                 |                                                 |
| \\      /  F ield         | OpenFOAM: The Open Source CFD Toolbox           |
|  \\    /   O peration     | Version:  2506                                  |
|   \\  /    A nd           | Website:  www.openfoam.com                      |
|    \\/     M anipulation  |                                                 |
\*---------------------------------------------------------------------------*/
FoamFile
{
    version     2.0;
    format      ascii;
    arch        "LSB;label=32;scalar=64";
    class       volVectorField;
    location    "0.0625936";
    object      U;
}
// * * * * * * * * * * * * * * * * * * * * * * * * * * * * * * * * * * * * * //

dimensions      [0 1 -1 0 0 0 0];

internalField   nonuniform List<vector> 
3991
(
(10.8157 -0.585823 0.154933)
(12.2558 -0.538941 -0.768783)
(10.4297 -0.63269 0.134832)
(1.42298 -1.90698 1.20975)
(10.482 -0.87642 0.884359)
(9.61249 -0.358775 -2.78902)
(10.9562 -1.55995 0.401193)
(12.1845 0.0139501 -0.236098)
(0.995074 -4.45487 1.8785)
(12.3136 -0.678297 0.206562)
(9.42991 -3.61757 4.28249)
(13.1579 -2.40535 2.91398)
(10.5737 -1.35781 0.607051)
(-0.104928 -1.35109 0.95061)
(9.57195 -1.30307 0.831886)
(9.23428 -1.69363 3.13668)
(11.1426 -1.31323 0.698609)
(9.72226 -2.85325 0.43458)
(0.498834 -4.05572 2.21705)
(11.217 -0.979646 3.59906)
(4.56016 -4.87689 1.9958)
(11.354 -1.05054 0.190086)
(-1.65878 -1.89532 0.206462)
(10.2452 -0.180544 -2.26094)
(12.5862 -2.26036 2.78964)
(11.2767 -1.73019 2.34384)
(12.6602 -2.84976 0.633135)
(3.8081 -6.64102 3.43651)
(11.8485 -0.0270164 -0.779732)
(1.57524 -3.96077 1.12739)
(11.3088 -2.9605 4.72434)
(0.777608 0.89322 -2.3134)
(9.84465 -1.0702 2.98497)
(10.7199 -3.22455 2.39154)
(9.6396 -1.5276 -1.51806)
(5.46247 -2.98475 -1.1289)
(-0.888298 -2.79384 1.26034)
(-0.971924 -3.13854 1.06248)
(2.74152 -0.867972 -2.43371)
(-0.592626 -3.45191 1.79905)
(7.60089 -3.89056 2.80222)
(-0.561759 -3.11632 0.778936)
(9.68879 -2.04288 3.58733)
(-0.493279 -3.67034 1.11988)
(12.2109 -1.5141 0.264302)
(-2.51996 0.700741 1.1726)
(-3.29156 1.424 0.247357)
(1.71934 -2.00183 -1.37047)
(11.4454 -0.111147 -1.63812)
(12.3262 -1.39127 0.484832)
(11.1875 -0.666158 0.0773784)
(12.1949 -1.87218 0.0793478)
(11.4142 -0.944665 0.542626)
(10.2715 -2.40039 -0.975932)
(10.2754 -0.255434 0.906293)
(12.4814 -2.81605 3.13365)
(12.9666 -1.78244 1.94499)
(-0.326978 -3.23374 0.6839)
(-1.03788 -2.84109 0.295013)
(-1.52162 -1.94342 0.138516)
(11.2281 -1.15787 0.997794)
(9.24163 -3.05681 0.718465)
(8.82442 -3.70157 5.84854)
(0.0693149 -1.87924 1.02944)
(9.65601 -4.30503 4.31249)
(0.294177 -3.79138 2.34834)
(0.149504 -2.95076 1.86681)
(3.53588 -5.28983 2.93079)
(9.0546 -1.73112 1.56862)
(10.2069 -1.08681 1.27381)
(-2.54605 1.5023 0.195569)
(11.2198 -1.86506 3.43358)
(10.6732 -0.684439 0.252824)
(12.5501 -2.26917 3.32059)
(11.7991 -0.200797 -0.33661)
(6.06916 -2.61939 -0.791046)
(10.0278 -1.27308 2.12345)
(6.25161 0.455224 -0.532387)
(11.5562 -1.10646 0.707834)
(10.4985 -0.671745 0.461531)
(12.083 -3.14584 3.8974)
(12.0862 -1.51668 2.83403)
(4.4402 -1.97765 2.37263)
(9.34367 -6.44166 2.2573)
(11.9533 -4.09291 0.717775)
(0.342094 -2.65431 1.92308)
(1.28486 -2.08253 1.25704)
(11.8942 -0.733114 0.0790188)
(12.7336 -1.43818 0.652914)
(12.4254 -1.47385 1.46623)
(8.19015 -1.51769 2.22619)
(9.84271 -0.55758 3.62898)
(1.51942 -2.05429 2.47699)
(0.437248 -2.99962 1.44206)
(0.430546 -3.11293 1.97064)
(10.2215 -0.984947 1.42752)
(0.985833 -2.68193 2.40038)
(0.893513 -2.25416 1.57696)
(10.705 -0.581268 0.820348)
(12.0247 -2.2785 0.663794)
(1.90076 -1.80148 1.54265)
(-0.924409 -2.81258 1.29373)
(-0.870313 -3.28931 1.45148)
(-0.415639 -2.99563 0.774003)
(12.1948 -0.523712 0.176054)
(10.3206 -1.23457 1.58885)
(11.6376 -2.52924 3.09696)
(10.245 -1.47058 0.734207)
(10.0882 -1.87958 0.859764)
(10.6706 -1.32763 0.629959)
(10.4612 -1.54334 0.915315)
(10.4861 -1.29635 0.62017)
(10.5117 -1.33396 0.52693)
(10.2227 -2.08391 1.00244)
(10.137 -2.02971 0.946354)
(9.97882 -2.0539 1.00706)
(10.7617 -0.777196 0.220019)
(11.0064 -0.77992 0.206045)
(10.8903 -0.77916 0.208271)
(11.0106 -0.712661 0.114305)
(11.4192 -0.463039 0.761321)
(7.74185 -6.24214 2.6908)
(11.0773 -1.11961 0.693976)
(7.7891 -4.79875 2.74597)
(11.3578 -3.17425 5.86763)
(8.87548 -4.68235 2.71563)
(10.7475 -0.680733 0.0103903)
(11.3999 -0.854916 0.441328)
(11.3704 -1.09592 0.623654)
(11.2362 -1.30616 1.03598)
(10.9793 -0.929548 0.521706)
(11.0715 -1.13754 0.757637)
(11.3514 -1.37919 1.17423)
(1.66626 -3.10986 2.44225)
(3.24952 -3.48122 1.0139)
(12.8358 -1.19263 -0.119802)
(9.72358 -0.55937 0.596311)
(11.4893 -0.865583 0.254961)
(11.7381 -0.47539 -0.054346)
(11.8576 -0.729355 0.102184)
(12.4172 -0.862651 -0.523506)
(11.7545 -2.91386 2.49581)
(11.6559 -2.94848 2.27607)
(12.2154 -2.9051 2.3876)
(11.4941 -1.94028 -0.63887)
(7.9172 -1.8184 0.89732)
(10.5145 -0.544175 0.318501)
(10.2345 -1.12987 2.23065)
(12.9607 -3.02159 2.31496)
(10.9175 -0.905877 0.397311)
(11.0291 -0.905135 0.39152)
(11.1751 -0.777102 0.320727)
(11.1803 -0.816167 0.295888)
(13.1403 -1.44134 -0.181464)
(11.9632 -1.90775 -0.155191)
(12.801 -1.52144 -0.136361)
(12.9842 -1.17898 -0.377943)
(10.6803 -2.11686 -0.5181)
(8.39996 -0.354207 -0.450561)
(8.77013 -0.325158 -0.916438)
(11.6947 -0.649544 0.0640045)
(11.7395 -0.119094 -0.813891)
(10.9314 -0.984093 0.847138)
(4.21165 -2.10675 1.08283)
(2.06319 -0.304498 -2.64827)
(3.23412 -8.00407 7.61836)
(12.047 -1.40824 0.465347)
(9.32608 -0.899927 -0.351582)
(8.96092 -0.501927 -0.472782)
(9.02991 -1.93032 1.43745)
(12.015 -0.645648 -0.0444839)
(12.5117 -0.766459 0.037625)
(13.113 -1.48462 0.472286)
(8.70344 -1.55326 2.44364)
(10.519 -0.267285 1.13596)
(12.4138 -1.48286 1.05019)
(9.07141 -3.53319 4.06355)
(11.8129 -1.67257 1.95529)
(10.2493 -1.77215 0.639413)
(10.3693 -0.679893 0.206344)
(7.85568 -2.41593 1.23452)
(12.7138 -2.45187 3.63292)
(-0.0216235 -2.20132 1.62342)
(11.2275 -0.895162 0.407536)
(11.5143 -0.710097 2.28977)
(11.5232 -0.827691 0.400895)
(12.3972 -1.34 0.962408)
(6.40483 -1.94393 3.17021)
(12.1026 -2.21939 2.09186)
(11.0623 -1.1589 0.864648)
(11.956 -1.69757 1.81954)
(11.3308 -2.51435 3.1898)
(8.76496 -5.09123 4.1583)
(11.9757 -2.22614 1.79212)
(12.2577 -2.1268 2.03145)
(-0.284449 -2.8687 2.28339)
(12.2366 -1.75638 0.269783)
(8.27954 -1.93864 1.17785)
(11.4264 -0.299098 -0.0593493)
(12.2268 -1.38863 0.14962)
(10.8413 0.578273 -2.14039)
(6.42237 -1.75913 3.47116)
(4.80526 -1.96651 0.653824)
(-3.03591 -0.958066 -0.690839)
(12.5246 -2.53323 1.16387)
(11.5807 -0.48933 -0.0798242)
(-0.133721 -3.43293 2.90137)
(-0.161619 -1.58106 0.935856)
(1.23357 -4.51108 4.37742)
(11.0407 -1.20943 1.05125)
(4.37379 -1.88337 0.371296)
(7.17566 -5.29935 0.679719)
(6.72841 -1.53233 0.190987)
(10.2661 -3.97729 0.430923)
(4.78922 -2.06133 -0.173519)
(9.14647 -2.75505 1.63278)
(-0.240425 -2.77553 1.39255)
(-0.191642 -3.92818 3.08391)
(1.81551 -2.14989 0.111003)
(-1.53623 -0.0537098 0.565866)
(-1.14357 -2.15495 0.379572)
(3.97853 -1.75011 0.589269)
(-0.883577 -1.52044 0.59057)
(4.55912 -2.54264 3.52201)
(6.0853 -3.64852 -0.16384)
(4.36792 -3.54092 5.89613)
(12.4692 -2.68364 0.165772)
(0.451479 -0.378342 -1.37665)
(3.44531 -2.31416 3.56067)
(11.2893 -0.741671 0.195493)
(1.17654 -2.54315 5.37294)
(11.729 -0.838383 0.203764)
(12.192 -2.05839 2.16775)
(10.4431 -1.42857 1.25103)
(4.09967 -2.00191 3.17093)
(2.30175 -2.84754 2.69677)
(10.971 -2.38891 0.556364)
(5.96599 -4.10029 -0.315063)
(3.86216 -4.58863 1.31208)
(12.3864 -0.722052 -0.248025)
(13.1346 -1.76552 0.0645564)
(12.8179 -1.11827 -0.672991)
(-0.864394 -2.14552 1.92198)
(11.6551 0.229764 -1.03519)
(12.3529 0.120505 -0.317534)
(-0.534869 -2.24425 2.51565)
(11.3826 -0.0961459 -0.138751)
(3.53998 -3.95133 1.23352)
(10.7417 -1.48912 0.35492)
(7.21289 -2.71629 -2.28487)
(2.42545 -6.78608 1.76508)
(4.7082 -1.98502 3.46862)
(11.5792 -1.54937 1.8051)
(12.4614 -1.6374 1.24343)
(5.44169 1.30529 -0.399126)
(2.08911 -1.75964 0.00246612)
(11.2996 -0.485716 0.0331592)
(7.58441 -5.5543 1.28029)
(8.82277 -3.99526 0.528408)
(10.5234 -2.52327 0.122205)
(8.11527 -4.85168 0.708392)
(11.129 -2.87886 1.39806)
(12.8938 -1.63906 0.349686)
(13.1174 -1.14854 -0.111316)
(4.6569 -0.268275 -3.32801)
(8.7684 -5.37704 0.514261)
(12.3925 -1.80054 4.00101)
(5.03501 -3.5233 0.984787)
(5.74276 -2.17211 6.05908)
(3.43464 -3.72249 -0.802147)
(0.841635 -3.24435 1.01809)
(9.56406 -3.07222 0.827682)
(12.1767 -2.64891 2.23671)
(0.609672 -2.08314 0.83085)
(0.930206 -3.76821 2.04363)
(0.646446 -4.4164 2.34377)
(0.256785 0.810922 -2.5511)
(-0.275438 1.27104 -2.70112)
(12.456 -0.556018 -0.211501)
(12.6627 -0.375854 -0.984006)
(12.2781 0.32156 -0.895142)
(12.0119 -0.540427 -1.19133)
(12.6317 -0.431612 -0.996242)
(13.1717 -1.35041 0.0578382)
(12.6141 -3.65298 0.252168)
(13.1849 -1.01747 0.0310019)
(13.245 -1.30338 0.124892)
(12.5673 -1.43039 0.150344)
(12.424 -1.07559 0.0878042)
(12.2563 -0.429779 -0.0793096)
(12.1513 -1.49177 1.70861)
(9.85789 -1.16224 1.2814)
(5.17069 1.35772 -0.140587)
(11.8883 -1.56373 2.2663)
(10.4918 -1.34533 -2.5032)
(11.7935 -0.204122 -0.12932)
(0.495723 -3.73965 2.38463)
(10.2967 -1.35241 0.599215)
(6.26996 -1.45723 0.825567)
(11.4934 -0.0663326 -0.216232)
(9.83146 -2.62343 1.21588)
(5.84437 -1.52106 -3.07594)
(11.5348 -0.920017 0.250147)
(8.45406 -7.03842 4.63453)
(9.49137 -5.02575 4.27323)
(9.8681 -4.56235 4.3907)
(9.62843 -5.25202 6.2326)
(11.7083 -0.437141 -0.123978)
(11.8981 -0.680259 -0.0779341)
(3.25258 -3.17019 2.17584)
(11.9337 -0.813123 0.195155)
(11.9019 -0.647801 0.0393842)
(2.752 -2.42785 5.18448)
(12.0765 -0.63218 -0.215466)
(9.62304 -1.80055 0.812288)
(9.84698 -0.985661 0.689138)
(13.2855 -1.83094 1.58471)
(11.7624 -1.79242 2.02167)
(10.8742 -1.13575 0.822088)
(10.5752 -1.20522 2.7297)
(11.6571 -2.00804 3.65738)
(11.5389 -0.952362 0.583877)
(10.4974 -2.87141 2.72967)
(8.04735 -2.34687 1.55415)
(12.4116 -1.49278 1.88225)
(12.8839 -1.3079 0.144002)
(9.39436 -2.16358 2.13011)
(11.2395 -1.27632 0.744396)
(11.2556 -0.268157 0.0258159)
(10.9906 -1.28751 0.414248)
(13.1036 -1.28904 0.395277)
(12.6973 -1.17876 0.0373529)
(11.5864 -0.363899 -0.115568)
(11.8966 -0.575966 -0.185144)
(-0.251021 2.04113 -2.64246)
(0.890146 -4.41852 2.09694)
(12.9665 -1.28466 -0.468906)
(12.3163 -1.12087 0.520441)
(11.8996 -0.265001 -0.182287)
(13.1634 -3.63935 -0.194225)
(11.2324 -1.56649 1.3485)
(10.7882 -1.20701 0.880426)
(11.2635 -0.514641 0.0823312)
(11.4361 -1.24188 1.3414)
(11.7734 -1.57592 1.22094)
(11.9145 -1.16409 0.614799)
(10.091 -0.891623 0.836381)
(12.836 -0.848148 0.060384)
(12.4928 -1.43325 0.6409)
(13.0116 -1.79652 0.863632)
(10.8008 -2.0537 0.229471)
(11.4149 -1.49784 0.527185)
(0.810688 -2.93494 6.6453)
(10.2782 -2.66842 3.63007)
(11.4411 -0.25744 -0.0898429)
(10.0176 -2.77995 0.693792)
(2.69189 -2.10278 1.08243)
(11.3341 0.258646 -1.77032)
(-0.819404 0.0769021 -0.685929)
(10.5666 -0.758919 0.295703)
(10.837 -1.00169 0.327347)
(6.91159 -1.65627 1.97805)
(3.62758 -2.17289 -0.357087)
(11.6975 -1.22215 0.458085)
(9.29069 -2.18914 1.88639)
(10.7908 -1.82652 1.13195)
(1.02825 -0.786606 0.203089)
(12.7965 -3.31429 0.693005)
(9.46518 -0.865831 0.293839)
(11.9739 -2.81664 0.541326)
(8.34938 -2.32318 1.98069)
(11.3061 -2.76547 1.81845)
(1.00993 -2.63916 1.20754)
(0.493434 -3.52086 1.23577)
(0.220446 -2.8813 2.05804)
(11.6755 -0.80481 0.145462)
(10.8133 -2.73614 1.17469)
(12.4719 -4.43742 2.51751)
(11.6459 -1.74863 2.44854)
(9.64699 -2.22659 1.29547)
(11.7466 -0.916596 0.715965)
(10.8242 -0.648968 0.550747)
(5.45258 -4.19025 -0.241595)
(11.7328 -0.886495 0.115384)
(10.0439 -1.7997 0.764724)
(11.4338 -1.34542 0.630566)
(12.0855 -3.96462 3.77783)
(10.7142 -0.89682 0.947856)
(10.7297 -1.07177 0.493324)
(10.1292 -4.14405 1.21427)
(10.9294 -1.18371 1.8464)
(5.44236 -3.02733 9.26009)
(10.6973 -1.059 0.730326)
(12.4571 -1.3254 0.118878)
(1.79723 0.339696 -1.84122)
(11.6078 -0.537689 -0.0219818)
(9.22595 -4.06783 5.53692)
(10.365 -0.816173 7.6076)
(5.45006 -3.54094 -0.562317)
(13.0395 -2.0547 0.424773)
(9.89434 -1.7948 1.44912)
(13.1769 -2.19803 -0.00164888)
(2.98661 -3.24114 4.4183)
(0.354505 -3.84231 2.73621)
(10.1478 -2.60854 2.38359)
(13.0645 -1.90572 3.12166)
(10.5319 -1.18128 0.788637)
(3.96092 -2.73103 8.09519)
(13.0358 -0.388088 -0.183219)
(4.77928 -1.29871 -1.19821)
(12.1088 -1.09034 1.14428)
(9.4392 -3.62808 2.2841)
(11.1672 -1.39474 0.626405)
(12.0024 -1.71289 0.233395)
(10.2691 -1.41307 1.11505)
(9.16285 -2.31334 1.30082)
(12.8338 -2.51509 0.499761)
(10.3994 -0.709305 0.240186)
(10.5397 -4.01526 2.12613)
(11.2791 -1.47266 0.548919)
(11.5958 -0.333509 -0.154825)
(12.6877 -1.49848 0.857612)
(11.2448 -2.02599 1.2902)
(4.74021 0.821291 -3.23808)
(10.8793 -1.61785 2.17208)
(7.4111 -2.2946 3.92893)
(11.695 -1.30097 0.89148)
(11.2533 -2.58741 1.03235)
(10.7922 -3.82169 1.08246)
(10.9893 -0.766607 0.273666)
(13.0651 -2.73789 -0.0569101)
(9.16579 -0.691944 0.202318)
(12.9254 -2.20921 1.74294)
(11.0584 -1.66522 0.620017)
(9.16225 -2.05861 3.48869)
(10.7805 -2.21331 0.680975)
(12.3734 -3.30768 1.94338)
(11.4665 -3.59365 4.70235)
(7.85726 -1.90818 1.99444)
(11.4949 -1.04393 0.329984)
(11.6573 -2.50902 1.50523)
(10.3439 -0.914925 0.532897)
(11.2478 -0.908889 0.442729)
(6.24145 -1.72629 4.28467)
(5.71025 -3.9116 0.819866)
(11.8662 -3.24814 4.16484)
(12.0499 -1.83078 2.25062)
(13.1771 -2.4424 0.941512)
(10.388 -3.27332 2.91725)
(5.44768 -4.99454 3.78829)
(11.9762 -1.34627 6.69716)
(9.11038 -4.15523 4.04215)
(11.425 -0.943585 0.414654)
(7.56568 -2.06294 1.49411)
(5.20676 -5.07147 0.296913)
(12.5618 -0.990723 0.0260986)
(9.11326 -2.08351 1.13865)
(12.323 -3.33043 5.09201)
(0.859599 -5.10158 2.14265)
(11.9354 -1.13614 0.570507)
(10.7302 0.297376 0.0801437)
(10.6304 -1.44397 0.696199)
(11.4946 -0.725537 0.166202)
(12.9564 -2.83876 1.30172)
(9.37797 -3.55044 0.493194)
(11.662 -3.88095 5.5875)
(-0.568897 -2.76356 0.267709)
(10.4626 -0.977119 1.04153)
(10.4668 -0.912913 1.47456)
(9.4256 -1.18732 1.00341)
(4.23948 -2.2777 1.12132)
(10.6607 -0.785455 1.62569)
(10.4992 -0.793381 2.65548)
(-0.481312 -1.8599 2.06182)
(10.1251 -0.749385 0.510862)
(12.9456 -2.20734 2.526)
(12.5125 -1.76679 1.94314)
(8.67442 -1.77069 2.07769)
(11.6093 -0.960816 0.432767)
(10.9917 -0.821525 0.562677)
(11.6952 0.0853953 -0.387658)
(12.1013 -1.87146 3.34226)
(10.3275 -0.628759 0.234658)
(7.69998 -2.7612 7.20152)
(12.8137 -2.7641 3.18193)
(9.80903 -0.723281 1.8328)
(12.1487 -1.24939 1.03918)
(11.6886 -0.521155 -0.0726889)
(10.8017 -1.0811 0.718468)
(11.7437 -0.148052 -0.370269)
(11.544 0.709796 -0.967351)
(9.86537 -1.20575 1.49743)
(10.6901 -0.715871 0.1343)
(10.019 -1.18047 1.67041)
(9.64433 -2.15398 1.64497)
(8.62602 -1.63974 1.23616)
(0.31101 -3.40648 2.44067)
(12.1256 -0.947256 0.276718)
(1.0896 -1.2658 -0.667418)
(10.5729 -1.81314 1.60928)
(10.8003 -1.05756 0.872288)
(12.1594 -3.99847 2.47088)
(11.574 -1.52552 2.20149)
(5.52221 -3.76116 4.83841)
(12.2595 -0.938503 0.36362)
(8.66653 -1.79559 2.25013)
(11.8079 -1.02115 1.23116)
(1.78571 -1.81755 1.7656)
(11.852 -0.0842659 -0.765288)
(12.1066 -0.650934 -0.188189)
(11.6997 0.25929 -0.704061)
(0.220204 -2.00004 1.84685)
(0.0290002 -3.39292 2.43429)
(1.28221 -0.361825 -0.541621)
(11.1434 -6.41113 1.78187)
(12.6341 -0.0606184 -0.843929)
(12.2225 -1.96142 1.54071)
(11.6682 -0.926576 0.224167)
(11.833 1.0994 -1.34668)
(9.6091 -5.69755 2.52706)
(12.8497 -0.593363 0.0130983)
(3.02557 -2.54801 1.41528)
(11.3243 -4.54592 0.977082)
(10.7415 -6.56012 1.71728)
(11.7604 1.46719 -1.1796)
(10.7988 -5.25865 2.23636)
(9.88057 -1.54636 -1.98877)
(10.8352 -0.96743 0.581401)
(11.6551 -0.525505 -0.0694907)
(11.6769 -0.857146 0.27737)
(11.5907 -0.571336 -0.014045)
(12.8717 -1.04601 -0.614496)
(10.8534 -3.36729 2.62676)
(3.28172 -3.12608 3.01107)
(0.398114 -2.7137 1.24806)
(11.8135 -1.61113 1.80762)
(10.4269 -5.0891 1.72122)
(10.7067 -0.768347 0.290134)
(11.3324 -1.32123 0.98636)
(12.9661 -0.75079 -0.508927)
(11.2139 -1.16531 0.858602)
(11.2461 -2.20788 1.01287)
(12.7254 -1.80273 2.25002)
(11.102 -1.6958 1.98891)
(11.4405 -0.918554 0.430218)
(11.2144 -0.943703 0.40081)
(10.2921 -5.3013 2.32485)
(8.25126 -3.34001 0.146231)
(6.98241 0.808607 -1.0456)
(-0.546398 -3.44949 2.93613)
(-2.7665 -0.986843 -0.0952779)
(11.3236 -4.4564 2.14049)
(12.0187 -6.00853 1.86125)
(11.394 -5.59548 1.44878)
(11.132 -4.27867 1.56199)
(13.1563 -2.08632 1.41961)
(11.3622 -0.608945 0.067388)
(10.7281 -5.02775 1.69604)
(5.60522 -5.16767 2.96463)
(6.29933 -2.51569 1.86475)
(6.05619 -1.97579 3.90104)
(4.09746 -3.73693 1.31817)
(1.44937 -2.56911 -0.532354)
(9.53447 -3.71308 2.45649)
(11.0898 -5.56138 -0.60643)
(11.0803 -4.70028 -0.0732071)
(5.39894 -4.26583 3.67824)
(0.735581 -2.19966 1.82541)
(12.8964 0.11104 -0.288347)
(10.1502 -3.32452 2.17357)
(10.5473 -3.08292 2.35562)
(10.9796 -1.41702 0.885171)
(11.1615 -1.19033 0.450337)
(11.2695 -1.25582 0.480388)
(10.8279 -1.56595 0.959381)
(10.9815 -1.58264 1.0598)
(1.48548 -5.23997 4.02692)
(8.44933 -4.28298 2.23196)
(9.37347 -4.05593 1.64196)
(9.03845 -3.77458 1.55138)
(7.8392 -3.22739 3.82394)
(8.43047 -3.09555 3.08789)
(11.5495 -8.03707 1.10796)
(-2.67356 3.03542 -0.0226474)
(11.1557 -0.789059 -0.0814355)
(-2.13652 1.08235 1.01762)
(-1.90494 1.17671 -0.201705)
(11.306 -0.757908 0.243126)
(11.0655 -1.40016 1.72094)
(10.5128 -0.835451 0.591464)
(11.9294 -0.641967 0.0263809)
(8.68626 -1.46371 1.53472)
(10.2916 -0.761965 0.308019)
(12.1001 -0.475795 0.919107)
(11.4939 -1.26033 1.9121)
(10.8953 -0.910064 0.276006)
(11.2002 -0.280711 -0.00367421)
(10.9036 -0.814759 0.411042)
(9.99615 -0.386233 0.324803)
(11.6998 -0.578028 0.00320837)
(9.97637 -0.475392 0.344373)
(9.86975 -0.409954 0.49826)
(5.52473 -3.10927 1.14295)
(5.05881 -3.88896 0.187633)
(7.34254 0.929614 -1.24282)
(9.58224 -0.989467 2.256)
(10.8618 -2.08672 -0.76026)
(6.95371 -2.11512 -1.76442)
(5.35995 -1.8749 2.37109)
(12.8782 -1.10063 -0.460984)
(11.7486 -1.05428 0.184074)
(8.27254 -1.85593 2.02114)
(8.52035 -1.82194 1.80088)
(5.8397 -1.87774 1.89402)
(4.84282 -2.21908 1.05454)
(5.36579 -2.29215 1.91985)
(10.5755 -1.07751 2.03282)
(10.6713 -1.02588 1.35962)
(11.1395 -0.86852 1.42439)
(10.8885 -0.873716 1.12871)
(10.758 -1.38118 1.73633)
(11.1845 -1.58348 1.63101)
(9.9035 -1.54009 2.02836)
(9.67085 -1.25986 1.47084)
(9.69028 -1.43588 1.90996)
(7.63143 -2.33057 3.22824)
(9.02263 -1.61964 3.11278)
(8.87718 -1.46423 1.99416)
(4.67896 -6.44751 2.24095)
(11.6557 -3.97201 1.3612)
(5.8325 0.918597 -0.430598)
(11.1054 -1.42033 1.73483)
(6.97112 -3.45826 2.04693)
(3.00011 -2.60589 2.32828)
(5.37116 -1.80688 1.13712)
(10.671 -1.38913 1.34355)
(11.2967 -1.34966 1.17313)
(11.1776 -1.33726 1.42436)
(10.8101 -1.20643 1.04533)
(11.1855 -1.46436 1.39115)
(11.3129 -1.47109 1.48165)
(12.5401 -1.23723 0.788456)
(12.6747 -1.3439 0.628647)
(10.2527 -0.877345 0.807364)
(12.7266 -1.50401 0.732397)
(12.3804 -1.33254 1.05592)
(4.48027 -3.18523 1.19793)
(10.2619 -1.06915 0.908285)
(-3.47798 2.19008 0.287496)
(0.844443 -2.35904 0.865336)
(12.0204 -1.17905 1.18926)
(12.8452 -0.936458 -0.989119)
(13.2529 -1.76418 -0.238815)
(11.8144 -0.928002 0.503621)
(11.9259 -0.817116 0.200368)
(11.7212 -0.814488 0.314607)
(11.4479 -0.641377 0.253766)
(0.237805 -3.97992 2.8706)
(4.10745 -5.45748 6.85225)
(2.77351 -6.05106 7.89593)
(8.41697 -3.83461 6.12702)
(6.75125 -3.61633 7.88515)
(8.03579 -4.16834 8.55826)
(0.72135 -2.11338 1.43109)
(0.288374 -3.06454 1.81132)
(8.9628 -1.83228 1.10876)
(9.7447 -1.81841 1.30546)
(11.0712 -1.75848 2.88148)
(-1.97663 0.00852804 1.5676)
(-1.2067 0.520849 -1.10319)
(10.7624 -1.28733 1.2938)
(10.6563 -1.28419 1.19605)
(11.017 -1.37414 1.1516)
(-0.460508 -3.48625 0.922855)
(10.886 -1.4013 1.24028)
(10.472 -1.68503 2.59115)
(-0.132939 -3.82807 2.74543)
(6.92443 -2.30748 4.4574)
(11.1163 -2.28665 2.94736)
(11.5547 -1.9162 2.66029)
(11.2376 -1.94914 2.45774)
(10.1933 -0.540688 0.272454)
(9.03535 -1.74937 1.01035)
(11.2686 0.964938 -2.14508)
(12.6421 -1.35692 0.288839)
(11.3452 -0.886318 0.482105)
(11.5458 -1.22687 1.20543)
(8.75249 -1.51975 1.07614)
(9.92832 -1.45466 1.15972)
(9.21479 -3.7406 0.860435)
(10.3779 -0.708009 0.190875)
(11.0272 -0.835332 0.354212)
(10.5029 -0.574361 0.019257)
(9.90709 -0.924082 0.797316)
(11.4295 -1.12457 0.705575)
(9.68728 -1.06632 0.960353)
(7.60554 -2.17672 2.79005)
(11.2961 -1.17061 0.899113)
(-0.45205 -1.27533 -0.0659743)
(7.54425 -2.41415 1.41459)
(-0.228612 1.32144 -2.42908)
(10.0618 -0.73457 0.450618)
(8.9566 -3.49451 0.614028)
(10.2676 -1.07949 0.66674)
(10.1571 -0.582952 0.231549)
(10.7698 -1.57695 2.4413)
(-0.342911 -3.67649 3.06127)
(9.75322 -2.2984 4.21366)
(7.58105 -2.23252 5.03086)
(12.2564 -0.103301 -0.256988)
(11.0361 -1.13516 0.356612)
(12.5557 -1.01224 0.197646)
(11.0662 -3.59662 1.15717)
(12.0403 0.330625 -0.920781)
(11.254 -0.882776 0.269208)
(11.0925 -1.54084 -1.7095)
(12.15 -0.557373 0.164669)
(12.9167 -1.26299 -0.210856)
(8.18118 -1.58645 2.65949)
(10.6783 -10.4154 0.49281)
(5.98932 0.352347 0.209641)
(8.62582 -3.62468 0.113359)
(9.44174 -0.854274 1.84546)
(2.68435 -1.60081 -2.0568)
(11.8827 -0.52312 0.257699)
(0.499947 -7.5386 1.39553)
(11.2883 -1.29204 1.20335)
(12.9368 -1.21916 0.345423)
(-2.80476 -0.494459 -0.746178)
(12.4929 -2.67888 1.35496)
(12.6238 -0.01367 -0.49145)
(9.86199 -1.25287 -2.10544)
(10.9092 -0.568382 0.149798)
(12.2954 -5.00339 0.445952)
(2.77058 -1.80394 0.691179)
(0.235018 -2.22604 2.00577)
(9.44072 -1.93931 0.934099)
(11.8397 -0.68239 0.109874)
(10.9007 -1.40218 1.78627)
(10.038 -5.13982 2.18614)
(10.2401 -1.13843 1.04495)
(11.2305 -1.4808 2.1457)
(11.4524 -0.781214 0.251658)
(10.5269 -1.23398 1.58095)
(-2.99741 0.880285 0.213984)
(-1.69008 -2.42363 0.225434)
(0.136346 -3.23172 2.49192)
(0.138955 -3.42813 2.6092)
(0.106399 -3.98854 2.53613)
(0.104561 -4.03924 2.84896)
(12.2085 -0.190031 -0.641304)
(12.0958 -0.096314 -1.29519)
(11.0256 1.27475 -1.88524)
(11.5829 0.384934 -0.712004)
(11.7021 0.909068 -1.94037)
(-0.0248552 0.0612503 -0.96726)
(0.47765 -1.39934 -0.162409)
(10.0708 -3.79338 -0.0793997)
(2.79665 -0.784321 -1.04034)
(1.42525 -1.5022 -0.0138128)
(0.261669 -3.0656 1.98828)
(12.4442 -0.772235 1.84792)
(1.20086 -1.66996 0.546533)
(11.7519 -0.531295 1.15167)
(11.1211 -4.74163 0.586361)
(-3.39523 1.24511 1.6652)
(11.4021 -5.19199 1.41087)
(9.34618 -9.07948 0.869468)
(7.54121 -1.40073 1.15114)
(11.3921 -6.50131 0.621992)
(12.0113 -7.986 -1.15063)
(10.5013 -6.54189 0.238245)
(5.23358 0.388053 0.561217)
(8.37265 -1.83648 4.12323)
(11.8524 -1.22206 2.94278)
(11.1107 -0.749699 0.153465)
(-1.81333 -1.06847 1.0513)
(12.0066 -1.25967 0.462743)
(11.8336 -1.34018 0.670009)
(12.0991 -0.93367 0.048216)
(10.73 -0.539337 0.264705)
(11.9473 -0.80795 0.115511)
(12.7004 -2.41476 1.51683)
(12.8637 -2.41873 1.46278)
(12.8789 -1.70005 0.783623)
(12.2355 -0.739434 0.0165323)
(12.5512 -0.955012 -0.0082793)
(12.9014 -1.1119 -0.0809583)
(12.5091 -1.57737 0.804147)
(12.8238 -1.79618 0.809965)
(11.4469 -1.76988 1.3712)
(11.8695 -1.58623 1.21845)
(11.5636 -1.61788 1.3235)
(11.5525 -1.3135 0.799943)
(9.86849 -0.496781 0.555356)
(10.1455 -0.405561 0.252116)
(7.69875 -1.83477 1.22611)
(12.498 -0.737584 -0.0903585)
(10.1705 -0.587989 0.141438)
(-1.48511 2.97659 -2.45652)
(11.5129 -0.233042 -0.142647)
(0.3049 -3.45968 2.41509)
(11.1504 -1.02113 2.19334)
(11.3094 -0.190542 -0.048728)
(1.75623 -1.51614 -2.04566)
(0.682081 -1.44751 0.396948)
(-3.19537 2.05245 0.63807)
(-3.78577 3.57236 -0.131561)
(8.55331 -1.75671 3.50293)
(12.4604 -2.20601 0.442663)
(11.1816 -1.2754 1.53111)
(3.82878 -2.25413 6.94942)
(9.30779 -1.04386 1.02266)
(9.02356 -1.98227 5.36499)
(4.94576 -5.51429 0.311218)
(12.0898 -2.0821 0.119658)
(10.128 -0.719998 1.0143)
(12.587 0.260425 -0.238575)
(11.5547 -0.180045 -0.228465)
(-0.277095 -3.89267 2.97367)
(12.5229 0.289457 -0.7718)
(9.64145 -2.40519 2.66979)
(9.53006 -1.0988 3.49807)
(1.47342 -0.916221 -0.425513)
(11.1772 -1.08917 1.34795)
(11.5019 0.24794 -0.473742)
(4.38341 -0.133024 4.59425)
(10.5297 2.03733 -1.02412)
(12.6443 -0.980774 -0.925913)
(-0.986915 0.351513 -0.438307)
(11.4816 -0.59531 2.51504)
(7.20088 0.111648 -3.19617)
(6.94992 -0.14094 -2.9553)
(9.19055 -0.979258 4.98928)
(11.4264 0.125617 -0.230453)
(11.6399 -0.624222 0.0546194)
(9.36049 -1.26883 3.75752)
(10.6922 -1.67658 4.81531)
(10.1913 -0.83332 -2.32713)
(12.3429 -1.0248 0.271745)
(11.6437 0.200199 -0.64692)
(11.8036 -0.0353044 -0.533137)
(4.82496 0.219096 -2.33522)
(10.6022 -0.601148 -2.53173)
(11.3359 -0.552496 0.0997474)
(11.4322 -0.805325 0.269526)
(11.415 -1.53706 2.40322)
(11.196 -0.565744 0.164729)
(11.3329 -0.392442 0.0213013)
(11.5192 -0.410329 -0.0672501)
(9.5686 -1.12096 1.26811)
(10.9325 -0.651624 0.238004)
(11.1211 -0.476611 0.0879867)
(11.1161 -0.841864 0.364067)
(1.22385 -0.400231 -0.584938)
(-3.3012 2.90591 -1.01035)
(5.48582 -3.9324 0.430526)
(1.75166 -0.953633 0.425208)
(0.576615 -1.75709 0.766135)
(1.30402 -1.97757 0.787349)
(-1.18468 1.38867 -2.39069)
(1.10266 -1.96834 1.12493)
(0.690281 -2.77284 1.42805)
(0.400409 -3.38083 2.20387)
(0.485927 -1.20253 -0.338016)
(12.3908 -1.17559 0.425747)
(12.0931 -0.920711 0.246149)
(12.8318 -1.31076 0.241529)
(12.5416 -1.26351 0.44188)
(2.58582 -2.25579 0.0942485)
(10.1336 -0.759499 0.563974)
(12.208 0.0843802 -1.71456)
(11.4036 0.0572785 -2.11189)
(-1.40575 -1.8515 1.55091)
(10.1284 -1.67715 -1.57674)
(10.8422 -2.12229 -1.3163)
(13.0581 -1.80778 -0.55338)
(11.9555 -1.76843 -1.51578)
(8.77335 -3.04394 -1.03797)
(6.1245 -1.68588 5.008)
(12.039 -1.02168 -0.139629)
(2.40992 -3.25697 9.69249)
(7.72225 -0.847356 0.363829)
(12.0617 -3.87843 3.78412)
(9.80373 -2.71426 2.79477)
(1.01813 -2.96658 0.613638)
(10.4583 -0.818041 0.443417)
(10.3953 -0.86597 0.473387)
(10.2206 -2.46391 2.56544)
(13.0369 -2.65154 2.82462)
(10.4335 -0.922838 0.57001)
(10.9801 -0.930132 0.467006)
(8.63667 -1.55169 2.19968)
(9.65379 -1.89631 1.98598)
(-0.632228 -1.71209 0.103199)
(9.31416 -2.86388 0.709202)
(7.17521 -2.22036 2.04879)
(9.11335 -1.17609 1.53416)
(10.0433 -1.3471 1.28854)
(7.54159 -2.63366 1.97372)
(10.9397 -0.709914 0.366066)
(11.2848 -1.0726 0.583332)
(11.457 -1.14517 0.789253)
(11.0565 -0.685668 0.107869)
(8.78232 -3.56784 0.575315)
(12.2811 -1.10923 0.215529)
(11.3865 -1.17021 0.868861)
(7.00842 -3.75665 0.765457)
(10.2883 -2.07163 1.46709)
(12.2866 -3.41544 1.90251)
(12.1562 -2.37522 3.0474)
(0.208308 -3.00646 1.94034)
(13.3982 -1.78692 1.20352)
(12.1941 -1.51881 0.490252)
(1.32912 -2.14581 0.256598)
(11.1254 -2.0923 1.66053)
(11.2492 -3.15878 3.04822)
(11.2479 -0.256493 -0.0620325)
(11.8592 -1.23094 1.13162)
(10.8817 -0.901229 0.47857)
(10.1473 -1.20294 1.28243)
(11.4307 -0.647246 0.122585)
(11.9262 -0.182108 -0.972213)
(10.2345 -1.23098 1.04288)
(10.2373 -1.2632 1.49446)
(12.7104 -1.68661 0.610511)
(9.80053 -1.14059 1.22752)
(8.22013 -2.6318 0.792816)
(11.7957 -1.94912 0.209126)
(11.8749 -1.66608 1.56246)
(11.7495 -2.4042 0.224091)
(10.0403 0.191728 -2.536)
(13.1781 -1.78551 1.30706)
(11.9424 -1.52027 0.842054)
(9.08488 -1.57913 3.85255)
(0.959622 -2.3143 0.806546)
(13.1715 -2.22672 2.23227)
(10.8917 -2.95764 0.30465)
(12.3616 -2.66514 1.93777)
(11.453 -0.522265 0.0711496)
(11.0665 -0.448624 -1.97603)
(11.3562 -2.366 4.21251)
(11.09 -2.43279 1.63921)
(10.1996 -1.61636 1.10879)
(11.8217 -3.01499 2.16676)
(8.83253 -2.84372 3.18904)
(8.0064 -2.72622 4.03397)
(2.71894 -10.6543 -0.0384803)
(6.33258 -3.44899 -0.343754)
(13.122 -2.00223 2.69883)
(12.3528 -2.87968 2.54764)
(11.2894 -1.65403 2.55584)
(12.13 -2.95664 2.28032)
(11.1735 -1.09205 0.621731)
(10.7964 -0.926779 0.985521)
(10.0623 -2.5523 1.04055)
(10.8593 -1.03433 0.695663)
(12.1153 -1.8387 0.315675)
(11.8056 -1.20307 0.209811)
(7.23722 1.71922 -2.19418)
(13.0115 -0.128255 -0.161273)
(5.20167 1.41956 -2.8251)
(3.06877 -1.28411 0.962504)
(4.44702 -1.3782 0.969869)
(0.636115 -9.28644 0.301646)
(12.3616 -2.77479 0.583942)
(0.276927 -3.21355 2.1478)
(0.154242 -2.91223 2.06751)
(-2.33061 -1.33104 -0.452095)
(5.99495 -0.586182 0.219852)
(12.4925 -3.29789 1.1994)
(9.23281 -3.472 2.78683)
(10.4002 -1.81762 1.58689)
(10.143 -1.72204 -0.936743)
(11.4502 -1.88906 2.18038)
(11.1424 -0.787837 0.298215)
(10.2856 -0.644337 0.122248)
(11.6619 -1.36302 0.331805)
(11.0059 -1.27545 0.287219)
(11.8079 0.755033 -0.996288)
(12.0016 -0.344546 -0.147198)
(8.9395 -3.30685 2.56828)
(10.588 -1.549 1.23181)
(11.3955 0.137805 -0.347071)
(0.437446 -2.39222 0.95235)
(11.3114 -3.05747 4.40716)
(10.452 -1.13551 0.53434)
(-3.54382 2.05133 -0.229793)
(10.1047 -1.52236 1.04775)
(8.54424 -0.896115 6.4721)
(10.1043 -1.46485 0.850004)
(9.6383 -1.67469 0.924171)
(11.1743 -0.796121 0.284588)
(5.3756 -1.72792 1.51637)
(11.0653 -0.858247 0.445587)
(11.8294 -1.32184 0.780773)
(11.4716 -1.37801 1.07896)
(9.83501 -1.17817 -1.42681)
(12.4136 -1.54346 1.14929)
(11.2001 -3.79991 6.01953)
(3.87284 -0.269019 -2.07324)
(13.0088 -2.34463 1.22975)
(7.81919 -1.06358 0.136122)
(9.55699 -1.49069 2.66543)
(12.1839 -2.81489 0.774472)
(11.2612 -4.9787 0.417554)
(8.57008 -1.35863 0.418321)
(10.867 -1.59254 2.34717)
(10.6962 -2.11375 1.16124)
(9.76816 -3.57466 1.70342)
(2.61725 -1.40697 -2.01613)
(10.0305 -2.96884 0.572356)
(11.8328 -5.05711 0.599386)
(12.1955 -1.72113 2.17606)
(12.3899 -1.60573 1.8682)
(12.3392 -1.58046 0.471455)
(13.2495 -1.86272 1.10276)
(12.1958 -1.53521 1.62882)
(11.3875 -1.67475 0.262718)
(12.4301 -1.4274 0.558979)
(12.185 -1.74514 0.555931)
(9.49324 -3.74061 2.29475)
(10.4452 -1.20159 0.693705)
(0.36233 -2.74639 1.13493)
(11.4718 -3.68716 3.81535)
(8.42287 -2.06784 2.93039)
(10.2626 -3.89342 7.03855)
(11.2732 -1.57808 1.04959)
(10.3391 -1.17954 0.646387)
(4.761 -1.43793 1.072)
(9.01971 -2.89633 0.478069)
(2.843 -1.89718 -0.846878)
(11.3474 -4.43015 2.03917)
(6.31636 -6.86491 1.69331)
(6.36337 -2.02993 7.95081)
(11.7159 -1.24512 0.909455)
(2.46924 -4.61655 3.02487)
(12.2863 -4.51136 1.34574)
(10.0258 -2.51583 1.78602)
(7.35873 -3.5015 2.71376)
(8.07162 0.630638 -0.952158)
(8.60044 -6.40347 2.32789)
(12.7137 -3.17029 2.63868)
(11.801 -2.02749 0.55564)
(12.2086 -2.1111 1.08191)
(0.172459 -2.6388 1.23597)
(0.784679 -3.33441 1.91704)