/*--------------------------------*- C++ -*----------------------------------*\
| =========                 |                                                 |
| \\      /  F ield         | OpenFOAM: The Open Source CFD Toolbox           |
|  \\    /   O peration     | Version:  2506                                  |
|   \\  /    A nd           | Website:  www.openfoam.com                      |
|    \\/     M anipulation  |                                                 |
\*---------------------------------------------------------------------------*/
FoamFile
{
    version     2.0;
    format      ascii;
    arch        "LSB;label=32;scalar=64";
    class       volScalarField;
    location    "0.0882685";
    object      nut;
}
// * * * * * * * * * * * * * * * * * * * * * * * * * * * * * * * * * * * * * //

dimensions      [0 2 -1 0 0 0 0];

internalField   nonuniform List<scalar> 
3989
(
0.00742777
0.00738791
0.00664051
0.00661619
0.0068836
0.00714149
0.00745914
0.00663108
0.00537829
0.00438786
0.00260976
0.00451853
0.00289174
0.0073849
0.00555492
0.00489126
0.00746319
0.00459594
0.00742906
0.00671399
0.00447917
0.0055647
0.00562909
0.00574891
0.00704504
0.00515515
0.00419136
0.0074714
0.00590238
0.0074179
0.00499002
0.00454713
0.00612049
0.00742414
0.00234277
0.00499667
0.00738985
0.00643033
0.00479059
0.00696047
0.00524189
0.00746955
0.00474277
0.00582732
0.00400401
0.00747105
0.00745915
0.00379959
0.00748889
0.00337292
0.00638624
0.00733162
0.00590011
0.00742026
0.00661973
0.00739659
0.00745955
0.00385939
0.00262771
0.00387305
0.00386166
0.0020544
0.000552116
0.000698704
0.00463835
0.00737543
0.004776
0.00692749
0.00504455
0.00391032
0.00297232
0.00630856
0.00671111
0.00665018
0.0056597
0.00624631
0.00662394
0.00497189
0.00642516
0.00651097
0.00636032
0.0038573
0.0047758
0.00667235
0.00689735
0.00192608
0.00685686
0.00502326
0.00662277
0.00563153
0.00672958
0.00481455
0.00439933
0.00559369
0.00717397
0.00554559
0.00610491
0.00515455
0.00602636
0.00372454
0.00543752
0.00422913
0.00478994
0.00284693
0.00421303
0.0074896
0.00498311
0.00523083
0.00562931
0.00268873
0.00499213
0.00744304
0.00269715
0.00356726
0.00740266
0.00259627
0.00290497
0.00433726
0.00472292
0.00372038
0.0061937
0.00741179
0.00683719
0.00747828
0.00569512
0.00705084
0.00744586
0.00682456
0.00433117
0.00457008
0.00325718
0.00285124
0.00359253
0.00335451
0.0033283
0.00342003
0.00741649
0.00605397
0.00567845
0.00526681
0.00469472
0.00544927
0.00322462
0.00748587
0.00747321
0.00240362
0.00743286
0.0032767
0.00506635
0.00507162
0.00655634
0.00463929
0.0045874
0.00469418
0.00220329
0.00215686
0.00678684
0.0052613
0.00560954
0.00294507
0.0074237
0.00650244
0.00537182
0.00386731
0.00386328
0.00501671
0.00652872
0.00434281
0.00655658
0.00339991
0.00562305
0.00746824
0.00365813
0.00545917
0.00421302
0.00573852
0.00746033
0.00648413
0.00256592
0.00560077
0.0040825
0.00663108
0.00489901
0.00674575
0.00366391
0.00390863
0.00446164
0.00392278
0.00499061
0.00740451
0.00595325
0.00361286
0.00365092
0.00191752
0.00686365
0.00195646
0.000721091
0.00423575
0.00545141
0.00682458
0.00406346
0.00478133
0.00258599
0.00428479
0.00255693
0.00575602
0.00739773
0.00561305
0.00136264
0.00165995
0.00627769
0.000961321
0.00144023
0.00527436
0.00513328
0.00123231
0.0011849
0.00375538
0.00415377
0.00745237
0.00636378
0.0060569
0.00747109
0.00529476
0.00387981
0.0045846
0.00575228
0.00607294
0.00423757
0.00673501
0.00394964
0.00303936
0.00427586
0.00560631
0.0074721
0.00196174
0.00361908
0.00508198
0.00743038
0.0053446
0.00480621
0.00743715
0.00571894
0.00287962
0.00284778
0.00556173
0.00287974
0.00339963
0.00574167
0.00538215
0.0028797
0.00683936
0.0045491
0.0061717
0.00435008
0.00739758
0.00390475
0.00444167
0.00638849
0.00703123
0.00538407
0.00625287
0.00459681
0.00598532
0.00385586
0.00306447
0.00662274
0.00124511
0.00393912
0.00353638
0.00351153
0.00352553
0.00353175
0.005854
0.00337998
0.00373402
0.00340577
0.00362571
0.00536699
0.00149715
0.0050225
0.00497014
0.00227223
0.00493293
0.0061627
0.00585764
0.00492536
0.00268888
0.00212403
0.00191169
0.00348142
0.00347541
0.00333285
0.00507153
0.00413952
0.00744378
0.00684125
0.00437977
0.000717809
0.00111579
0.00532714
0.00246715
0.00243077
0.0023563
0.00243944
0.00135351
0.00574251
0.00435071
0.00635542
0.00742105
0.00640294
0.00682891
0.00120406
0.000854882
0.00582477
0.00348112
0.00689398
0.00404602
0.00586649
0.00577763
0.00294379
0.00557949
0.00476224
0.00624663
0.00426857
0.00215409
0.0040935
0.00442395
0.00262911
0.00566172
0.00665552
0.0067829
0.00331933
0.00633288
0.00691046
0.00571517
0.00491433
0.00557637
0.0037487
0.00539699
0.00156513
0.00369653
0.0041174
0.00382875
0.00688982
0.00275202
0.000620266
0.00741959
0.00614746
0.00530264
0.00294224
0.00573582
0.00575225
0.0055423
0.00596501
0.004208
0.00300251
0.00362628
0.000286283
0.00559036
0.00450564
0.00309846
0.00717955
0.000338857
0.00114867
0.00408267
0.00432352
0.0033244
0.00675456
0.00536793
0.00348123
0.00527777
0.00283186
0.0053152
0.00472739
0.0068555
0.00530755
0.00720339
0.00342731
0.00491974
0.00332799
0.00566128
0.00612336
0.00399028
0.00255788
0.00249641
0.00385116
0.00227204
0.00468802
0.00353569
0.00703526
0.00238474
0.00747109
0.00358892
0.00340776
0.00656232
0.00746567
0.00294599
0.00265826
0.00480416
0.00622537
0.00469985
0.00531597
0.00335257
0.00602594
0.00570961
0.00619713
0.00115144
0.00394504
0.00209392
0.00602022
0.00148632
0.00566797
0.000550113
0.00373276
0.000847792
0.00644313
0.00597602
0.00585753
0.00308564
0.000749134
0.00406633
0.00410024
0.000317404
0.00644392
0.00680964
0.00644907
0.000782112
0.00199697
0.0045034
0.00512687
0.00330661
0.00645988
0.00605611
0.000782765
0.00628833
0.0074285
0.00408221
0.0064286
0.00669596
0.00590597
0.00293485
0.00388938
0.00357676
0.00738504
0.0067613
0.00582669
0.00526047
0.00222588
0.00746909
0.00323145
0.00408047
0.00369698
0.00618738
0.00177069
0.00537671
0.00307551
0.00387747
0.00674234
0.00652387
0.00454558
0.00598228
0.00249594
0.00362785
0.00249278
0.00491407
0.004012
0.00404861
0.00212617
0.00618884
0.00307355
0.00210239
0.00546731
0.00255741
0.0052689
0.00448093
0.00364935
0.00312112
0.00307945
0.00324839
0.00237556
0.00430683
0.00591736
0.00367326
0.0067223
0.00747666
0.0035868
0.0023779
0.0036366
0.00649877
0.00315303
0.0066946
0.00515406
0.00701417
0.00738518
0.0053993
0.00487255
0.00550516
0.00690883
0.00495576
0.00710862
0.00509209
0.005119
0.00513911
0.00490343
0.00360095
0.00337346
0.00500207
0.00453062
0.00495227
0.00602002
0.00338259
0.0035666
0.0054759
0.00341956
0.00367108
0.00414723
0.00575445
0.00391019
0.00571517
0.00532301
0.00426038
0.00407506
0.00434392
0.00282345
0.00626793
0.00684462
0.00442834
0.00539126
0.00675873
0.00359005
0.00605664
0.003229
0.00644934
0.00528212
0.00332848
0.00353332
0.00426165
0.00313746
0.00523141
0.00745518
0.00546936
0.00444509
0.000216131
0.0009254
0.00627971
0.00484643
0.00646633
0.0045856
0.00689625
0.00640328
0.0064598
0.00311497
0.00243999
0.00335874
0.00420282
0.00420203
0.0035513
0.00658315
0.00604666
0.00305234
0.00259556
0.0047415
0.00404585
0.00594978
0.00659793
0.0043143
0.00448305
0.00389363
0.00576136
0.00570424
0.00688658
0.00345201
0.000790849
0.0067227
0.00406397
0.0066311
0.00554832
0.00686656
0.00284474
0.00567005
0.00476766
0.00596845
0.00177228
0.00462928
0.00650624
0.00438292
0.00518188
0.00677525
0.00670849
0.00545664
0.00666616
0.00646552
0.000426906
0.000558076
0.00294765
0.00749032
0.00479464
0.00446535
0.00410621
0.0068279
0.00733019
0.00550457
0.00569823
0.00610066
0.0074709
0.00597762
0.00670709
0.0042511
0.00749036
0.00441212
0.00348259
0.00748621
0.00684416
0.00546477
0.00590124
0.00434227
0.00408226
0.00657798
0.00312029
0.00435001
0.00609562
0.00461163
0.00500478
0.00669277
0.00307162
0.00632064
0.00700312
0.00739005
0.00409365
0.00740421
0.0074464
0.00744317
0.00722429
0.00748589
0.00744605
0.00748865
0.00515327
0.00744082
0.00742373
0.00491701
0.00748319
0.00537678
0.00742704
0.00741385
0.00608788
0.00744821
0.00747762
0.00310296
0.00701533
0.00478134
0.00558868
0.00529356
0.00660758
0.00376969
0.0074416
0.00746999
0.00691168
0.00430092
0.005331
0.00474969
0.00334462
0.00500442
0.00734046
0.00631046
0.00566655
0.00435872
0.00630927
0.00255246
0.00631056
0.0069338
0.00740545
0.00250074
0.00490491
0.00634094
0.00471512
0.00294946
0.0042465
0.00252287
0.00623342
0.00480398
0.00679365
0.00677211
0.00670978
0.00673901
0.00663085
0.0061042
0.00432466
0.00509691
0.00473403
0.0054363
0.0065909
0.00673354
0.00408019
0.0054705
0.00608829
0.00444315
0.00745648
0.00465349
0.00559172
0.00222122
0.00669465
0.00233553
0.00677818
0.00493976
0.0037372
0.00598342
0.00301636
0.00604289
0.00361094
0.0074792
0.00306056
0.00660591
0.00680156
0.00744686
0.00272936
0.00632576
0.00535259
0.00271381
0.00653192
0.00301981
0.00511733
0.00413062
0.00423646
0.00469671
0.00433279
0.00604019
0.00693201
0.00709196
0.00678158
0.00305329
0.0066169
0.00661605
0.00646906
0.00679486
0.00665621
0.0043322
0.003147
0.00677866
0.00596136
0.00683046
0.00660261
0.00390155
0.00423987
0.000629463
0.00667723
0.00435567
0.00067027
0.00459296
0.00363906
0.00345402
0.00383273
0.00483532
0.00543689
0.000558813
0.0003649
0.000321488
0.00548768
0.00654578
0.00602663
0.00687555
0.00694262
0.00623651
0.00747882
0.00746091
0.00748957
0.00551561
0.0048246
0.00317337
0.00742503
0.00741351
0.00458742
0.00638504
0.00320906
0.00589224
0.00237564
0.00731636
0.00632174
0.00385566
0.00742381
0.00642957
0.00514973
0.0074586
0.00527356
0.0039868
0.00699886
0.00536737
0.004823
0.00512966
0.00450776
0.00577845
0.00577652
0.00503504
0.0043603
0.0067694
0.00679238
0.00481308
0.00679536
0.00334564
0.00690349
0.0042424
0.00436977
0.00442408
0.00423754
0.00603234
0.00675283
0.00681005
0.00664509
0.00429772
0.00435908
0.00532829
0.00534706
0.00684634
0.0074602
0.00444905
0.00128069
0.00116403
0.0015431
0.0012071
0.00664222
0.00412505
0.00438663
0.00516918
0.00652752
0.00292128
0.00180866
0.00338182
0.00711333
0.00519796
0.00423063
0.0054981
0.00290295
0.00619017
0.00545265
0.0049416
0.00663139
0.0047772
0.00546297
0.006833
0.00510583
0.00679634
0.00642806
0.00096252
0.00152596
0.00703823
0.00650147
0.00488319
0.00332099
0.00533148
0.00595643
0.00616235
0.00633493
0.00160307
0.00323504
0.0036672
0.00526978
0.00692999
0.00474442
0.00544706
0.00322013
0.00424002
0.00554408
0.00660914
0.006861
0.00371303
0.00557115
0.00674601
0.000286073
0.000672552
0.00661471
0.00727286
0.000912768
0.00347681
0.00184127
0.000633572
0.00671158
0.00379079
0.00605245
0.00182423
0.00354051
0.0065038
0.000837563
0.00630265
0.00618909
0.00100584
0.00178624
0.00626333
0.00457947
0.00455533
0.00317899
0.0028282
0.00546116
0.00524717
0.00533179
0.00343023
0.00346597
0.00679078
0.00219139
0.00363587
0.00516864
0.0012009
0.0064574
0.001054
0.00565567
0.00596859
0.00118176
0.000689361
0.000886147
0.00141163
0.000372158
0.000908822
0.0032892
0.0044857
0.00432317
0.000593096
0.000527406
0.00673916
0.00166445
0.00248632
0.000324174
0.00158676
0.00121557
0.0067157
0.00502996
0.00486229
0.00468736
0.00637889
0.00418026
0.00392832
0.00678899
0.000695885
0.00499851
0.00302149
0.00674813
0.00629821
0.00394493
0.00286529
0.00252538
0.00641667
0.00252572
0.000309229
0.000875249
0.00280665
0.00194504
0.0038856
0.000932155
0.00553731
0.00510877
0.00357325
0.00587497
0.00316274
0.00497984
0.00484689
0.00277537
0.00155784
0.00403642
0.0036115
0.0037766
0.00322252
0.00561564
0.00641193
0.00536121
0.00358471
0.00623906
0.00688019
0.00647703
0.00743909
0.00470765
0.00333208
0.00748715
0.00555287
0.00433197
0.00612356
0.00747087
0.0074888
0.00152294
0.00741527
0.00747097
0.00741695
0.00530553
0.00548709
0.00680769
0.00742212
0.0054641
0.004319
0.00356485
0.00459288
0.0061991
0.00741315
0.00539099
0.00635286
0.00486385
0.00643774
0.00680059
0.0054158
0.0028632
0.00527465
0.00551026
0.00748518
0.00671404
0.00659891
0.00632581
0.00682232
0.00551011
0.00381621
0.00669534
0.00681389
0.00458291
0.00688329
0.00525784
0.00609981
0.0068005
0.00582698
0.00271469
0.00530205
0.00448456
0.00447734
0.00503249
0.00334894
0.00547132
0.00519232
0.00400131
0.00491424
0.00526913
0.00533635
0.00597422
0.00472378
0.00691151
0.00657447
0.00664062
0.00668516
0.00503202
0.00705318
0.00539643
0.00737561
0.00286484
0.00518202
0.00513327
0.00450878
0.00492701
0.00524115
0.00673155
0.00697657
0.0068666
0.00691786
0.00309682
0.00363241
0.00271082
0.0025071
0.00644843
0.00222034
0.00329264
0.00607017
0.00672186
0.00748014
0.00596748
0.0053835
0.00508229
0.00488152
0.00462863
0.00251754
0.00247723
0.00617876
0.00621842
0.006758
0.00303061
0.0065324
0.0066766
0.00557636
0.0055212
0.00680463
0.00678161
0.00645853
0.00517785
0.00474456
0.00605914
0.00591388
0.00576143
0.0031124
0.0028429
0.00104387
0.000981278
0.00259561
0.00519324
0.00666742
0.00669818
0.00678129
0.0063936
0.00379999
0.00280244
0.00447731
0.00369225
0.00468224
0.00344027
0.00344424
0.00355843
0.00667175
0.00670763
0.006785
0.0052396
0.00625691
0.00514915
0.00477463
0.000405648
0.00586547
0.00679285
0.00276264
0.0061548
0.00537023
0.00508062
0.00538359
0.00454267
0.00324475
0.00561587
0.00438327
0.00669075
0.00628985
0.00441491
0.00206343
0.00552215
0.00549514
0.00317435
0.000666114
0.00160761
0.00600817
0.00539565
0.00670971
0.000860858
0.000647858
0.000994545
0.00157548
0.00234312
0.00142454
0.00596393
0.0031471
0.00401762
0.00418749
0.00666822
0.00298156
0.00631327
0.00552588
0.0037719
0.00599611
0.00341328
0.0029326
0.00439914
0.00631029
0.00600629
0.00555587
0.00498494
0.00268466
0.00623006
0.00442852
0.00652482
0.00588375
0.00680353
0.00593183
0.00684507
0.00196455
0.0063699
0.00534998
0.00672
0.00681271
0.00559869
0.00431182
0.00659807
0.00647667
0.00635713
0.000860412
0.00519836
0.00740589
0.00553963
0.00559586
0.00520818
0.00624881
0.00736
0.00675356
0.00602146
0.00597239
0.00450749
0.00449608
0.00605083
0.00533366
0.00629427
0.0061424
0.00382468
0.00563507
0.00741529
0.0067013
0.00566756
0.00445295
0.0073576
0.00534864
0.00740793
0.0074184
0.0055685
0.00645092
0.00744222
0.00514717
0.00490044
0.007483
0.00622034
0.00505696
0.00716031
0.00449355
0.0038786
0.00564684
0.00738561
0.00409244
0.00748738
0.0050707
0.00441364
0.00615137
0.0070558
0.00663679
0.00562705
0.0053908
0.00639713
0.00656773
0.00428195
0.00703317
0.00723665
0.00670868
0.00713234
0.00670271
0.0066948
0.00553708
0.00662205
0.00538969
0.00419585
0.00660412
0.0054123
0.00571728
0.00599686
0.0055082
0.00707128
0.00615323
0.00586382
0.00601422
0.00590333
0.00591795
0.00569831
0.00746746
0.00452179
0.007396
0.00327679
0.00450373
0.0044912
0.00558654
0.00405761
0.00337513
0.00744452
0.00748478
0.00368887
0.00335294
0.00444569
0.00712648
0.00748289
0.00337906
0.00295943
0.0032761
0.00494267
0.00390576
0.00504878
0.00390654
0.00636576
0.00746135
0.00372423
0.0074493
0.00505368
0.00736953
0.0073938
0.00402855
0.00322834
0.00205717
0.0016302
0.00748585
0.00600676
0.00430524
0.00713109
0.00536086
0.00748908
0.00507894
0.00463736
0.00469204
0.00348361
0.0038178
0.00456834
0.00499223
0.0057764
0.00325502
0.00704655
0.00748866
0.00699592
0.00747577
0.0074875
0.00463484
0.0033944
0.00747131
0.00541513
0.00701011
0.00616563
0.00352331
0.00513837
0.00687068
0.00417032
0.00392546
0.00373434
0.00610501
0.00641901
0.0055911
0.00510383
0.00475199
0.00456147
0.00675747
0.007084
0.00628472
0.00679333
0.00424069
0.00621995
0.00459115
0.00362631
0.0048695
0.00662118
0.00657908
0.00745849
0.00309777
0.00353876
0.00350286
0.00396123
0.00740619
0.00438145
0.00364014
0.0040026
0.0042188
0.00738961
0.00576048
0.00428662
0.00621194
0.00748552
0.0034053
0.00514952
0.00202119
0.00286447
0.00312925
0.000759247
0.00337982
0.000775225
0.000693446
0.00748598
0.00512299
0.00565577
0.00598958
0.00492705
0.00720473
0.00513307
0.00667676
0.0054598
0.0061233
0.00346223
0.00741235
0.00661375
0.00741579
0.00739144
0.00326132
0.00460451
0.00739599
0.00743621
0.00740428
0.00746927
0.00748935
0.00699336
0.00230985
0.00676755
0.00614564
0.00671961
0.00741003
0.00574182
0.00742077
0.00746994
0.00571793
0.00738409
0.00685606
0.00687293
0.0068405
0.00747882
0.00436962
0.00435334
0.00499652
0.00681005
0.00564369
0.00527086
0.00740916
0.00590209
0.00441586
0.00685659
0.00685839
0.00685533
0.00515682
0.00673257
0.00748852
0.00681526
0.00748407
0.00746125
0.0064538
0.00635161
0.00664787
0.00622311
0.00580843
0.0064899
0.00675126
0.00388524
0.00570608
0.00525729
0.00667099
0.00517718
0.00534803
0.0019491
0.00672861
0.00677057
0.00432171
0.00343523
0.00444132
0.00655948
0.00383287
0.00674741
0.0044539
0.00571247
0.00434497
0.00479547
0.0067291
0.00670079
0.000413346
0.000481466
0.000348706
0.000272045
0.000162165
0.000532584
0.00641757
0.0053124
0.00445367
0.00741086
0.0073061
0.00740102
0.0056049
0.00684711
0.00454454
0.00326626
0.00465562
0.00110871
0.001646
0.00232096
0.00525406
0.00536701
0.000574224
0.00604533
0.00456859
0.00319961
0.0063284
0.00575416
0.0063386
0.00467607
0.00680771
0.00319384
0.00378409
0.004057
0.00486117
0.00679923
0.00515939
0.00432298
0.00507559
0.00285888
0.00354864
0.000829104
0.0048913
0.00121746
0.00497883
0.00433402
0.00321243
0.0043318
0.00384478
0.00349272
0.00502562
0.0057715
0.00133782
0.00608911
0.000615329
0.00337363
0.00680469
0.00502211
0.004306
0.00208739
0.00356334
0.00657553
0.00542698
0.00667472
0.00709725
0.00291557
0.0052296
0.00671049
0.00347789
0.00359237
0.00349924
0.00702124
0.00246481
0.00628048
0.00317904
0.0055928
0.00561858
0.000562621
0.00416594
0.00073566
0.000777382
0.00657429
0.00599003
0.00397662
0.00601552
0.00666339
0.00491143
0.00663847
0.00562812
0.00442222
0.00350027
0.00743049
0.00579619
0.00572774
0.00556134
0.00416499
0.00597696
0.00508947
0.00249959
0.00667291
0.00520696
0.00301924
0.00373019
0.00494297
0.00440081
0.00393857
0.00509036
0.00409267
0.00673533
0.00401538
0.00539447
0.00325471
0.0060439
0.00549339
0.000709701
0.00386554
0.00587293
0.00397442
0.00473868
0.00611736
0.00354308
0.00373794
0.00461901
0.00346049
0.00558869
0.00562179
0.0044481
0.00496638
0.00661202
0.00556404
0.00555026
0.00125693
0.00346543
0.000803966
0.000961837
0.00742509
0.00534121
0.000864954
0.00104948
0.00548132
0.00680271
0.0051456
0.00735362
0.0044368
0.000564455
0.0031415
0.00395968
0.00667603
0.0033105
0.0055629
0.00560227
0.00603492
0.00408134
0.0067863
0.00401479
0.00294655
0.00315576
0.00407398
0.0037818
0.00606686
0.00676726
0.0074415
0.00102519
0.00396981
0.000948469
0.00470628
0.000738672
0.000506235
0.0033926
0.00186773
0.00493443
0.00497734
0.00328223
0.00373475
0.00235763
0.00199895
0.00204028
0.00746514
0.0057067
0.00633686
0.00105015
0.00738946
0.00369883
0.00331245
0.00749058
0.00746846
0.00253592
0.000633245
0.00437731
0.00383914
0.00195722
0.00740284
0.0065943
0.00655283
0.00284066
0.00659708
0.00680452
0.00347655
0.00440936
0.000287486
0.00721713
0.00263575
0.00338606
0.00668691
0.00737111
0.00650799
0.00749011
0.00369597
0.00472196
0.00466064
0.00660532
0.00405595
0.0044785
0.00423271
0.00739285
0.0041849
0.00515476
0.00480495
0.00497196
0.00729981
0.00406339
0.00455567
0.00460895
0.00528415
0.00741078
0.00743429
0.00337342
0.0044777
0.00741624
0.00379528
0.00491598
0.00307629
0.00374242
0.00336404
0.00410067
0.00418153
0.00684205
0.00678237
0.00654763
0.00643204
0.00328866
0.00528023
0.00283977
0.00458862
0.00458314
0.00236757
0.00660387
0.00296324
0.00199315
0.00671862
0.0067655
0.00682919
0.00525824
0.000779079
0.00125578
0.00114126
0.00101837
0.00611938
0.00515006
0.00481053
0.00525666
0.00324687
0.00321312
0.0047807
0.00433532
0.00673307
0.00355065
0.00489409
0.00357449
0.00467976
0.00541426
0.00563942
0.00583273
0.00337221
0.00408521
0.00411401
0.00407549
0.00746797
0.0074367
0.00744599
0.00550353
0.00748498
0.00748333
0.00748434
0.00746595
0.00748106
0.0074723
0.00747661
0.0074748
0.00748362
0.00747716
0.0074713
0.00741675
0.00424914
0.00278068
0.00273141
0.0044801
0.00444391
0.00261267
0.00513601
0.00691461
0.00517048
0.00699386
0.0033055
0.0034393
0.0066713
0.00555585
0.00551547
0.00607808
0.00743337
0.00747082
0.00743068
0.00698007
0.00740776
0.00746582
0.00365862
0.00332078
0.00748888
0.00288619
0.00598237
0.00642361
0.00561054
0.00747939
0.0060739
0.00638642
0.00652098
0.00644431
0.00400938
0.0037176
0.00573316
0.00362772
0.000941314
0.00289312
0.00471627
0.00471016
0.00459513
0.00444581
0.00411777
0.00676423
0.00481593
0.00273457
0.00263128
0.00203993
0.00233959
0.00586158
0.00693255
0.00608377
0.00564907
0.00590518
0.00649049
0.00443117
0.00268918
0.00575538
0.00684977
0.00581814
0.00565827
0.00400154
0.00575153
0.00670242
0.0071011
0.0072234
0.00705503
0.0071474
0.00715334
0.0068521
0.00547363
0.00741939
0.00517506
0.00742735
0.00631549
0.00744553
0.00420514
0.0072836
0.00501919
0.00747614
0.00745274
0.0023912
0.00748001
0.00746564
0.00333175
0.00742914
0.00743499
0.00742044
0.00720278
0.00741355
0.00698112
0.00411039
0.00395352
0.00329905
0.00283327
0.00548892
0.00450459
0.00549863
0.00360483
0.00541857
0.00667909
0.00624906
0.00649922
0.00470751
0.00607701
0.00618542
0.00589792
0.00301536
0.00684768
0.0068513
0.00669102
0.00109373
0.000933001
0.000618704
0.00274634
0.00685585
0.0040651
0.00137032
0.00542022
0.0041173
0.00664177
0.00534107
0.00104159
0.00292045
0.00554627
0.00323516
0.00626579
0.00624384
0.0050356
0.00741032
0.00475185
0.00475653
0.00331989
0.00425695
0.0033283
0.00565476
0.00458272
0.00379567
0.00706705
0.00723134
0.00544353
0.00665621
0.00667594
0.00721393
0.0072053
0.00747903
0.0074886
0.00744782
0.00525057
0.00747961
0.00746181
0.00747668
0.00702805
0.00693194
0.00655838
0.00666297
0.00588708
0.00443391
0.00543925
0.00737828
0.00508914
0.00310816
0.00333682
0.00286784
0.00405057
0.00510914
0.00639879
0.00556414
0.00244282
0.007421
0.00635933
0.00596096
0.00675232
0.00530752
0.00562388
0.0032894
0.00300519
0.00325991
0.0059791
0.00439988
0.00429039
0.00399231
0.00237504
0.00687241
0.00680944
0.00667581
0.00323326
0.00271313
0.00472446
0.00293477
0.00323484
0.00273091
0.00275273
0.00746688
0.00261606
0.00271269
0.00360786
0.00244903
0.00412597
0.000934753
0.00412047
0.00448809
0.00492833
0.0058611
0.00626369
0.003351
0.00424204
0.00746232
0.00742576
0.00748116
0.00748638
0.00290682
0.00748412
0.0056516
0.00564667
0.00295171
0.00263866
0.00407844
0.00415841
0.0057505
0.00718698
0.00744159
0.00487375
0.00223726
0.00302492
0.00304719
0.00616417
0.00577421
0.00409842
0.00639608
0.00547516
0.00439443
0.00506937
0.00506055
0.00409966
0.00679848
0.00576936
0.00457968
0.00536486
0.00731061
0.00611214
0.00460373
0.00623633
0.0074026
0.0066708
0.00448137
0.00669191
0.00241903
0.00433077
0.00379116
0.00537257
0.00539587
0.00382064
0.00636586
0.00687185
0.00460676
0.0047088
0.00304149
0.00383387
0.00309018
0.000701956
0.0047538
0.00343762
0.00251923
0.000298676
0.00595017
0.00479369
0.00322428
0.00310969
0.00652837
0.00251216
0.00285305
0.00574503
0.00746392
0.00359147
0.0037267
0.00322287
0.00372483
0.00663271
0.00287199
0.00553909
0.00286064
0.00354705
0.0032698
0.00323727
0.00338536
0.00250615
0.00264703
0.00675231
0.00683824
0.00677378
0.00678269
0.00193694
0.00287318
0.00286887
0.00386121
0.00666395
0.00512738
0.00671459
0.00331768
0.0045637
0.00671892
0.00676128
0.00669917
0.00748335
0.00261122
0.00710475
0.0074135
0.00741937
0.00735517
0.00180076
0.00739119
0.00116091
0.00550819
0.00440517
0.00343334
0.006991
0.00329911
0.0052033
0.00193143
0.000606358
0.00131483
0.000807141
0.00359182
0.00721273
0.00360314
0.00410534
0.00694222
0.00451241
0.00744909
0.00747394
0.00579589
0.00739897
0.00599959
0.00733207
0.00661294
0.00663194
0.00331654
0.00654215
0.0052069
0.00504291
0.0057567
0.00597975
0.00301547
0.00734712
0.00739289
0.00375863
0.00344581
0.00647481
0.00509778
0.00694644
0.00648975
0.00648858
0.00315307
0.00519645
0.00690559
0.0068889
0.00693676
0.00434488
0.00742079
0.00745168
0.00601056
0.00475096
0.00604783
0.000717552
0.00324348
0.00716585
0.00613268
0.00516326
0.00675053
0.00325756
0.0031626
0.00736886
0.00401632
0.0067006
0.0064815
0.00598774
0.00542126
0.00350332
0.00680647
0.00449409
0.00646611
0.00665418
0.00747894
0.00656107
0.00667142
0.00681369
0.00576239
0.00403363
0.00685777
0.00479811
0.00475109
0.00279728
0.00398607
0.00131903
0.00179796
0.00608145
0.00606663
0.00349167
0.00511467
0.00659696
0.00354882
0.00345132
0.00442038
0.00689011
0.00663894
0.000534416
0.00628685
0.000683382
0.00237611
0.00149398
0.0016577
0.00646157
0.00578539
0.00464226
0.00562914
0.00106884
0.00066365
0.0015445
0.00681996
0.00521262
0.0040299
0.00669555
0.00690112
0.00634186
0.00273364
0.00182328
0.00552629
0.00512261
0.00666386
0.00683778
0.00352375
0.00126241
0.00297591
0.00679093
0.00681437
0.00671938
0.00520766
0.00612377
0.00658554
0.00378683
0.00574212
0.00412163
0.00602164
0.00485743
0.00676967
0.00144763
0.00534712
0.00687377
0.00472548
0.00319536
0.00335715
0.00308634
0.00369971
0.00667866
0.00592662
0.000849703
0.000565172
0.00741218
0.00739126
0.00630672
0.00623385
0.00692783
0.00492989
0.00423893
0.00679585
0.00737503
0.00723346
0.00657569
0.00585103
0.00467106
0.00639899
0.00609819
0.0059084
0.00488784
0.00275088
0.00678902
0.00677705
0.00170549
0.00634095
0.00152744
0.00681124
0.00624314
0.00282843
0.00245487
0.00449713
0.00144714
0.00422953
0.00431204
0.00443893
0.0013237
0.000390035
0.000213575
0.00584136
0.00665316
0.00597896
0.00677821
0.00668986
0.00640396
0.00677311
0.00531269
0.00661564
0.00677285
0.00679364
0.00125525
0.00398084
0.00698235
0.00443551
0.004762
0.00362903
0.00644483
0.000547008
0.000440315
0.00646615
0.000965967
0.00456393
0.00643739
0.000335888
0.0011155
0.00140339
0.00677184
0.002524
0.00683131
0.00518823
0.000743723
0.00138544
0.0038469
0.0046748
0.00334795
0.00496071
0.00425728
0.00601165
0.00660348
0.00244602
0.0051628
0.00533111
0.00300238
0.0030061
0.00682437
0.00556069
0.00548127
0.00638937
0.00567186
0.00532625
0.00608564
0.00673017
0.00664119
0.00674206
0.0053828
0.0067931
0.00600306
0.00596702
0.00386132
0.00689429
0.0070768
0.00522639
0.00330882
0.00449253
0.00658401
0.00703297
0.0069513
0.00439097
0.00495398
0.00364758
0.00322531
0.00719871
0.00675497
0.00541496
0.0062026
0.00550643
0.00667586
0.00560969
0.00395585
0.00413376
0.00582021
0.00570042
0.00599196
0.00681835
0.00656416
0.00429199
0.0067713
0.0058745
0.00744487
0.00745909
0.00645061
0.00652737
0.00739745
0.00745713
0.00735866
0.00738354
0.00741566
0.00350543
0.00741951
0.00744958
0.00743052
0.00413189
0.00379655
0.00349617
0.00554158
0.00637156
0.0065854
0.00600975
0.006859
0.00507423
0.00605792
0.00577719
0.00566465
0.00191892
0.00457358
0.00571868
0.00546362
0.00181951
0.00664854
0.00170665
0.000162933
0.000661135
0.00239734
0.00370008
0.000661065
0.00088264
0.00662847
0.00415571
0.00610199
0.0037395
0.00529838
0.00634457
0.00341812
0.00229418
0.00674647
0.00683108
0.00662483
0.00496332
0.0065626
0.00632398
0.00418997
0.00629405
0.00677845
0.00343196
0.00682839
0.00232316
0.00487869
0.00496528
0.00626373
0.00734401
0.00738785
0.00360018
0.00745909
0.00669676
0.0064924
0.00445225
0.005631
0.00746799
0.00690466
0.006493
0.00499375
0.00543251
0.00408147
0.00507814
0.00580613
0.00739995
0.00732964
0.0052779
0.00499668
0.00742934
0.00297549
0.0074665
0.00747448
0.00745617
0.00344663
0.0040214
0.00500711
0.00578549
0.00742855
0.00696448
0.00569583
0.00629295
0.00627937
0.00483755
0.00723332
0.00334584
0.00740987
0.00739343
0.00484102
0.00491612
0.00715294
0.00739896
0.00358481
0.00747033
0.00735829
0.00740731
0.00613046
0.0041682
0.00739219
0.00709485
0.00661894
0.00616863
0.00675077
0.00520687
0.005447
0.00695308
0.00747303
0.00748534
0.00747273
0.00742829
0.00742627
0.00745203
0.00748262
0.00742488
0.00374616
0.00235434
0.00377348
0.00401216
0.00659083
0.00658414
0.00645046
0.00743859
0.00533648
0.00340319
0.00745252
0.00747207
0.00741631
0.00748006
0.00746856
0.00345758
0.00747159
0.00192435
0.00748431
0.00676157
0.00442526
0.00692992
0.00501276
0.00469026
0.00416309
0.00748844
0.0043307
0.00296654
0.00571493
0.00616076
0.00740841
0.00584891
0.00681354
0.00350827
0.00735487
0.00744805
0.00479098
0.00699637
0.00584661
0.00322893
0.00686249
0.00527408
0.0072334
0.00467064
0.00343724
0.00672723
0.00627672
0.00631396
0.00619973
0.00612908
0.00572997
0.00631787
0.00636327
0.00616913
0.0067995
0.00668791
0.0026931
0.00681994
0.00477336
0.00477937
0.00436147
0.00676063
0.00275604
0.00436865
0.00459552
0.00528758
0.00402197
0.00251638
0.0056351
0.00647511
0.00668309
0.00447816
0.00274546
0.00589452
0.0074034
0.00401837
0.00300116
0.00337459
0.00519656
0.00530894
0.00557467
0.00353441
0.00460154
0.00421046
0.00497974
0.0068021
0.00505276
0.00284802
0.00672342
0.00527027
0.0057156
0.00588861
0.00415313
0.00510849
0.00574458
0.00709497
0.00742762
0.00365273
0.00329125
0.00623668
0.00306614
0.00309403
0.00556379
0.00341908
0.00330615
0.00652961
0.00295149
0.00649333
0.00590964
0.000388449
0.00437517
0.00530851
0.00681025
0.00530416
0.00531411
0.00532824
0.00526454
0.000189708
0.000983651
0.00324752
0.00450915
0.00340815
0.00324122
0.00341891
0.00342224
0.00703488
0.00632026
0.00664081
0.00681146
0.00531352
0.00747053
0.00742107
0.00675038
0.00530298
0.0065957
0.0053455
0.0054698
0.00740472
0.00746026
0.00749053
0.00745118
0.00742901
0.00522141
0.00747206
0.0043159
0.00601787
0.00532776
0.00691999
0.00656788
0.00352602
0.00594828
0.000861283
0.00686518
0.00104738
0.00386809
0.00488969
0.000671018
0.00256985
0.00472379
0.00674729
0.00493655
0.00665454
0.00278637
0.00523941
0.00602731
0.00306917
0.00685278
0.00456788
0.00520602
0.00540527
0.0031093
0.00434109
0.00674296
0.00667594
0.00686214
0.00335401
0.00554446
0.0066787
0.00466125
0.00512992
0.00666388
0.00686356
0.00265929
0.00680146
0.006902
0.00682564
0.00673784
0.00622313
0.00677322
0.00621446
0.00653343
0.0061286
0.00608128
0.00669633
0.00665368
0.00568362
0.00380774
0.00510803
0.00494972
0.0065022
0.00677605
0.00616761
0.00638849
0.00675384
0.00674584
0.00531618
0.00607305
0.00671989
0.00632209
0.00670299
0.00433132
0.0058923
0.00572483
0.0055754
0.00500282
0.00658588
0.00689015
0.00503817
0.00420808
0.00568793
0.00627912
0.00682493
0.00681227
0.00171694
0.00297236
0.00647859
0.00206355
0.00221106
0.00205717
0.00644303
0.00627492