/*--------------------------------*- C++ -*----------------------------------*\
| =========                 |                                                 |
| \\      /  F ield         | OpenFOAM: The Open Source CFD Toolbox           |
|  \\    /   O peration     | Version:  2506                                  |
|   \\  /    A nd           | Website:  www.openfoam.com                      |
|    \\/     M anipulation  |                                                 |
\*---------------------------------------------------------------------------*/
FoamFile
{
    version     2.0;
    format      ascii;
    arch        "LSB;label=32;scalar=64";
    class       surfaceScalarField;
    location    "0.0882685";
    object      phi;
}
// * * * * * * * * * * * * * * * * * * * * * * * * * * * * * * * * * * * * * //

dimensions      [0 3 -1 0 0 0 0];

oriented        oriented;

internalField   nonuniform List<scalar> 
7391
(
0.0480779
-0.0386436
0.0324578
-0.0418922
0.0386013
0.0243091
0.0243161
-0.0872264
-0.0407141
0.00833425
0.0369555
-0.00457565
0.0906846
-0.0892386
0.022012
-0.023458
0.0124767
-0.0172745
0.00137712
0.00342072
-0.0362243
0.106847
0.0618333
-0.132456
-0.0846927
0.107527
0.00896981
-0.0318039
-0.0441472
0.0100841
0.00243452
0.0316286
-0.0504176
-0.0411726
0.0654828
0.0261074
-0.0332099
0.0406664
-0.0137078
0.00625135
0.0268841
-0.0503976
0.0235135
0.0901235
-0.0254243
-0.0128098
-0.0518893
0.0753198
-0.00775184
-0.0187296
-0.0488383
0.0679097
0.00506301
-0.0172014
-0.0557714
-0.0409687
-0.0528809
-0.0547726
0.148622
0.00422803
-0.0278457
0.0191116
0.02523
-0.00973273
0.0365654
0.0226129
-0.0231141
-0.0622589
0.0627601
0.0430089
0.0585946
0.0185142
-0.120118
0.0381307
0.0122792
-0.00129802
-0.0491118
-0.0824455
-0.000778336
0.0832239
0.00106882
-0.0978441
0.163123
-0.0663476
0.0899408
-0.149317
0.0303542
0.0290219
-0.0872381
0.142854
-0.104184
0.0485678
0.087144
0.113365
-0.0800057
-0.120504
-0.0936156
-0.0284925
0.110621
0.0114875
-0.0577176
0.0604766
-0.00275897
0.0183407
-0.0472363
-0.0557972
-0.0513011
0.0415515
0.0983362
-0.0885866
0.0647087
-0.0388776
0.0266257
-0.0524569
-0.0840047
0.0925691
-0.101283
0.0927188
0.00163066
-0.0346671
-0.0101388
0.0431753
0.04621
-0.069928
-0.0619746
0.0856926
0.0740263
-0.0647105
0.0293642
-0.03868
-0.0416121
0.0543357
-0.011093
0.0976987
-0.0482771
-0.0494216
0.0473394
-0.0157941
-0.00524865
-0.0262966
-0.0526806
0.0429428
-0.00842052
0.0181583
-0.0323846
0.113777
-0.0477402
-0.0336523
0.0397249
0.0299312
0.0386238
-0.10828
0.104748
-0.249109
0.109552
0.0348088
-0.0353574
-0.0257995
-0.019766
0.0809229
0.0553732
-0.0284453
-0.050847
0.0239191
0.0517903
-0.0600557
0.0636386
-0.0631157
0.0464974
0.0166183
-0.0595552
-0.0170387
0.0109781
0.0656157
-0.0713307
0.149755
-0.0659887
-0.0124352
0.0360437
0.037787
-0.0738308
0.0861903
-0.0486823
0.0595923
0.0358536
0.0113007
-0.00531055
-0.0418437
-0.0390303
0.0358829
0.0137161
-0.0105687
0.0325689
-0.0251266
0.0013439
-0.00878613
0.0762943
-0.0752766
-0.0243122
0.0232945
0.0733997
-0.0416416
0.0188072
-0.0505653
0.0495466
-0.0989871
0.0579111
-0.00847069
-0.0234247
0.047789
-0.0133074
-0.0110569
-0.00558832
-0.12287
0.175901
-0.0474431
0.0100751
0.00979394
-0.0634214
0.0435523
0.0494109
0.0054407
-0.0447765
0.0127054
0.0661523
-0.0690638
0.00279728
-0.0557383
-0.0104803
-0.0341323
-0.00772756
0.0446571
-0.00182418
0.00146634
0.0001459
0.000211934
0.000343649
-0.00039537
-0.000547627
0.000599348
-0.00389033
-0.00737094
0.00913397
0.0021273
0.0549853
0.0439049
-0.0175071
0.0963907
-0.0946173
-0.0204498
-0.106457
-0.00941096
-0.0433309
0.159199
-0.00977383
0.00735908
0.136849
-0.134435
0.0669734
0.0193066
-0.00596724
-0.0803127
-0.0567446
0.0282166
0.028528
-0.118214
0.0265051
0.00514101
0.0865681
0.0385674
-0.0435001
-0.0191463
0.0240791
0.0485457
-0.0601858
0.0502075
0.0347167
-0.0360335
0.000323092
0.000993613
-0.0339611
-0.00864264
0.00687793
0.0357258
0.0104739
-0.102286
0.0483123
-0.0877781
0.0934033
0.0361045
-0.0417296
0.0587898
0.0329238
-0.0829253
-0.00878825
-0.0462155
0.141954
0.0042071
-0.0999458
-0.0434617
0.0314852
0.1034
-0.0914234
-0.0499882
-0.0264424
0.0528751
0.0235554
-0.0988866
0.0983888
-3.33716e-05
-0.0107754
-0.00178254
0.0125914
-0.00851805
-0.00072467
0.00502178
0.00422094
0.0268861
0.00996053
-0.0368466
0.00127279
-0.000911132
-0.0088797
0.0728485
-0.0441359
-0.0511907
0.0224781
0.00173178
-0.0251435
-0.0207355
0.0693857
0.0430343
-0.0395715
-0.00801448
0.0092539
-0.0450172
0.0364877
0.0218857
-0.0133562
-0.0477763
0.0296433
-0.00213244
0.161184
-0.161123
0.00207166
0.107659
0.015935
-0.0160672
-0.00953788
-0.00545876
0.00469212
-0.00598136
0.000512638
-0.00908052
-0.0943208
0.106865
-0.0228224
0.0102778
-0.0133717
-0.00214757
-0.0147815
-8.82572e-05
0.00251245
0.0650896
-0.0459274
0.01205
-0.0312122
0.0367745
0.0562731
-0.027958
-0.0272774
0.0548041
0.0281925
-0.0557193
0.0277533
-0.0550306
-0.00103524
0.000701556
-0.0328762
0.0124714
-0.0100478
0.0792193
0.0696745
-0.0541269
0.0976961
-0.113244
-0.0235273
0.113235
-0.0529331
-0.0418474
0.0448965
0.051755
-0.0391563
0.0366872
0.00246915
0.0396914
-0.0779443
0.0724425
-0.0341897
-0.0574109
0.051878
0.0855325
-0.0799996
0.00422218
-0.000374458
0.00216356
-0.00601128
-0.00295706
0.00052586
0.0389717
-0.109392
0.104742
-0.0343214
-0.00363988
0.00173775
-0.00506697
0.00436131
-0.00733346
0.00259769
-0.020849
-0.00941388
0.117635
-0.0873725
-0.0258019
0.0591832
0.040645
-0.0721676
0.0280317
-0.123335
0.0476145
0.0757208
-0.0429206
-0.0325213
0.0276656
0.0488192
0.156551
-0.226538
0.0211677
-0.0916411
0.0649467
0.0265251
0.000169369
-0.0134526
-0.00372314
-0.000714876
0.0171259
0.11143
-0.0478357
-0.0807203
-0.15717
0.086011
0.0772114
-0.00605203
-0.0379625
0.0411225
0.00779515
-0.0109552
-0.0422124
-0.0417923
0.0472439
0.0142325
0.0025599
-0.0640363
0.0285857
-0.0344964
-0.0518069
-0.0271127
0.054866
0.00351254
-0.0107726
0.0659254
-0.0586654
-0.0334004
-0.0301148
0.0635152
0.031122
-0.0645224
0.0484793
-0.00414598
-0.0443333
0.0380447
0.0357475
-0.126569
0.0527764
-0.0979019
0.0599819
0.0759647
0.0329833
-0.0997632
-0.0469304
0.10788
-0.0370638
-0.0238855
-0.0305201
0.0435716
-0.0540569
0.109011
-0.0549545
0.00230615
-0.0438012
0.00860535
0.0328897
0.0781841
-0.0307717
0.0342046
0.0746271
0.0407453
-0.0370563
-0.0783161
0.0315225
-0.0327656
0.00124306
0.0146454
0.20679
-0.158933
-0.0625018
0.00595324
-0.00329736
-0.021301
0.0179744
-0.143338
-0.0230054
0.148369
-0.00399619
-0.0121676
-0.0268919
0.0430557
-0.00812767
0.0318399
-0.0304712
0.0347331
-0.032884
0.028692
-0.0305411
0.000124144
-5.81787e-05
0.0412285
0.0168094
-0.090922
-0.0414879
-0.000259387
0.00702744
0.0351615
-0.0321049
0.0338418
-0.0244237
-0.023878
0.0144599
0.123415
0.0591193
-0.0924106
-0.0569974
0.0285521
-0.0385347
0.0269042
-0.0392165
-0.0372599
-0.0132465
0.0431162
0.00739027
0.0314883
-0.0197058
0.080717
-0.0924994
0.0415111
0.0336598
-0.0751709
0.0729994
-0.00317207
-0.00594949
-0.000856
0.00697965
-0.0121656
0.0245173
-0.0193313
0.0351527
0.0390465
-0.0216948
-0.0525044
3.39128e-05
-0.0105018
0.0086346
0.00183333
-0.0449456
0.00147288
0.0122784
0.0311943
-0.0325415
-0.0131456
-0.00515194
-0.0524327
0.00126794
0.109567
-0.0584026
-0.066202
0.0663153
-0.000113392
-0.0114255
0.0664355
-0.0323971
-0.0385615
-0.0405395
0.0467692
0.0323318
0.0740926
-0.032632
-0.0354276
-0.00603302
0.0885934
0.0169927
-0.162997
0.0772748
-0.0276584
0.0711326
-0.120749
-0.00185706
0.00138022
-0.0346398
-0.0677038
0.0118511
0.0627076
-0.00685493
-0.0560618
0.00278464
0.0532772
-0.0141953
0.00910948
-0.00544014
0.0105259
0.0437899
-0.0988296
-0.0122869
0.0673266
-0.00405008
-0.00341251
-0.00136199
0.0231051
0.0341339
0.0088095
-0.0660485
-0.0559328
-2.90963e-05
0.000223582
0.00563445
0.00606727
-0.0185597
0.00685795
-0.00458172
-0.028246
0.0621087
-0.11742
-0.0390094
0.0207996
-0.0197463
0.0372014
-0.0382546
-0.000424501
0.0367344
0.00419948
-0.0405094
0.0103327
-0.000680026
-0.00733633
-0.00231634
-0.0217227
0.0546886
-0.0375476
0.0341614
-2.75029e-05
0.021391
0.0997739
-0.117715
-0.000595248
0.000999725
-0.000670661
0.000266184
0.00350935
-0.00167521
-0.0147297
0.0128955
0.00643387
-0.000535665
0.00778312
-0.0136813
0.00935624
-0.0169411
0.0193401
-0.0117552
0.0754028
-8.30199e-05
-0.0187124
0.0501573
0.0177043
-0.0491493
-0.0306053
-0.0157147
0.0463199
-0.0475085
0.0319523
-0.0168284
-0.0493177
0.0840476
-0.0350294
-0.0409854
0.10265
0.0335141
-0.106404
0.00606548
0.00141196
-0.0038968
-0.00358064
-0.00119364
0.0056456
0.142344
0.00334957
-0.00443039
0.00165081
-0.000569994
-0.000251226
0.00387297
0.0358082
0.0282596
-0.0103777
-0.0536901
-0.000819293
-0.0365032
0.061103
-0.0237805
-0.00133982
-0.00341052
0.00305781
-0.00182452
0.00416944
-0.00259614
-0.0358555
-0.0372424
0.0730979
0.0409745
0.0413096
-0.0822841
-0.0269421
0.119706
-0.0438851
0.017286
0.00181682
-0.0195273
-0.0230049
-0.00123111
-0.0018241
0.0260601
-0.086244
0.0747775
-0.0598642
-0.00443028
0.00388457
-0.00316756
0.00371326
0.0343059
-0.0736631
0.0393573
-0.0966785
0.0258297
0.0314594
0.0393894
-0.0177149
-0.0244536
-0.037376
0.0795445
0.00164076
-0.0102926
0.00498082
0.00367104
0.0404171
0.0412108
-0.0816278
-0.130853
-0.0172736
0.136506
0.0116199
0.0516138
0.0155115
-0.000253545
-0.0668717
0.0514958
0.000118014
0.0614859
-0.0434356
-0.00253876
0.0423243
-0.132189
0.0766357
0.0132287
0.0566851
-0.0847348
0.0647806
-0.0367309
2.09979e-05
0.0268651
-0.0524963
0.0525229
-2.66638e-05
0.0777496
0.0113114
-0.0196753
-0.128271
0.118031
-0.0649196
0.0751598
-0.0274415
0.0195772
-0.035933
0.0437972
-0.0103437
-0.00615923
0.0100627
0.00644025
-0.00605191
0.0269701
-0.0443428
-0.00731579
0.00532407
0.0383702
-0.0363785
-0.0476695
-6.16372e-06
0.0476757
-0.00723528
0.010024
-0.000290051
-0.00249867
0.0252829
0.0303781
-0.055661
0.0243454
-0.0549262
0.0670684
0.0664957
-0.0535441
0.0523138
-0.0652654
0.129813
-0.0020031
0.0127369
0.00760617
-0.01834
0.0249118
-0.0429894
-0.112903
0.0402286
0.115664
0.0416758
-0.0846652
-0.0815583
0.0846057
-0.0284717
0.0207884
-0.069963
0.0491745
0.0694308
-0.0514564
-0.00905691
0.00469487
0.0323981
-0.028036
-0.0763014
-0.0262487
0.0148216
0.0877286
0.0360779
-0.0348361
0.0199704
-0.0212122
0.0432645
-0.0381299
-0.13741
0.132276
0.0412222
-0.109107
0.11102
-0.043135
-0.0610376
0.0352502
0.0430185
-0.0172312
-0.0585738
0.0385471
-0.0479948
0.0680215
0.0325796
-0.0521184
0.0195388
-0.0255761
-0.000792459
0.00112727
-0.00480435
0.00246508
-0.00218033
0.0045196
-0.0664631
0.0663734
8.97319e-05
-0.059113
-0.00383764
0.0148073
0.0485082
-0.0635691
-0.0347065
0.0676898
-0.0685405
0.0338339
-0.0310552
0.000125464
-0.00322276
0.0341525
-0.060569
0.0660286
-0.00641872
0.000959085
-0.0181891
-8.6877e-05
-0.0289016
0.0471776
-0.0605048
-6.41521e-05
-0.000173326
-0.0750356
0.0373014
0.00872023
0.029014
-0.0250949
0.000440059
-0.0970562
0.0899339
-0.0993906
0.106513
0.0381281
0.017306
0.0136556
-0.0690897
0.00366639
-0.0253704
0.0344094
-0.0607981
0.0630103
0.035916
-0.0288912
-0.0236002
0.0452029
0.00728851
-0.0278541
-0.0156468
0.0146097
0.000105517
0.00016696
-0.0610706
0.0495164
-0.0251841
0.0342912
-0.000209033
-0.0251614
0.0344244
-0.0675703
0.0331459
0.0679385
0.0286614
-0.0415746
-0.0265213
0.0345913
-0.0241752
0.0161052
0.01583
-0.0632648
0.0207106
0.0267241
0.113201
0.00723958
0.0447843
-0.165225
0.115885
-0.0694324
-0.0608779
0.0144257
0.0724719
-0.0750028
0.0358397
-0.0333087
0.00132961
-0.00107449
0.000521549
-0.000776669
-0.00205226
0.00356796
-0.00100136
-0.000514343
-0.0217964
-0.0156607
0.0360477
0.00140935
-0.0448541
0.0184117
0.0271497
-0.0468556
-0.00435345
-0.00242388
0.00619921
0.000578123
0.0015563
0.00104773
0.00130281
-0.00390685
-0.0885024
0.148233
-0.0164657
-0.0497312
0.0498536
0.0182892
-0.107762
0.138748
-0.0890865
0.0371757
-0.0405887
-0.00107979
0.0425349
-0.00580339
-0.0356517
0.00529639
-0.0109422
-0.0110685
0.0167143
0.00210843
-0.00201898
0.000496696
-0.000324991
-0.0335977
0.0339903
-0.111749
0.111357
-0.0675779
0.0339801
0.00173043
-0.00399784
-0.00600518
0.00827258
0.0527029
-0.0522264
0.000548591
-0.00102508
0.0131932
-0.0224274
-0.0210961
0.0303303
0.0337618
-0.0360416
-0.0292691
0.031549
-0.00757308
0.000622805
-0.0348753
0.151853
-0.147946
-0.0501234
-0.0803019
0.00354562
0.0160084
0.0607479
0.00131986
-0.00194255
-0.00975047
0.0103732
0.0470188
-0.0615633
-0.0246118
0.00393101
-0.00995443
0.00163094
0.00439248
-0.0304842
0.0838258
-0.0741906
-0.0523266
-0.00558692
0.0579136
0.0326582
-0.0354681
0.00280993
-0.103433
0.0335008
0.0271768
-0.0200598
0.00419047
-0.0113075
-0.0137562
-0.0298867
-0.0289231
0.0725659
-0.00825175
0.00203689
0.00480723
-0.00754709
0.093248
-0.0894204
0.00371946
-0.00472961
0.00691231
-0.00787564
0.00569293
0.00231392
-0.0182428
-0.0517749
0.039347
-0.0120516
-0.0407478
0.0134525
0.25119
-0.128007
-0.0535089
0.0358337
0.0306809
-0.0665146
-0.0615291
0.0319331
0.0654297
-0.00114954
-0.00237399
0.001384
0.0539514
-0.0223193
-0.0364245
0.00479238
0.0545951
-0.0363317
0.0047456
-0.023009
0.0211957
0.0266544
-0.00142845
-0.0464217
0.00237614
0.008236
-0.00679204
-0.0038201
-0.006863
-0.00222371
0.00802283
0.00106388
-0.0027281
0.000333002
0.00196839
0.000426701
-0.0151746
-0.0298761
0.000532945
-0.00112512
0.0304683
-0.0139728
-0.000301007
-0.00260387
0.0365789
0.0228581
-0.0267787
0.0285373
-0.0210318
-0.0356402
0.0281347
0.00351585
0.000172316
0.0248492
-0.0365419
0.0187487
-0.0100609
4.46026e-06
0.0197088
0.0170212
0.0816393
-0.0169874
0.0380728
-0.0325695
0.0114841
-0.0609851
0.0187032
0.0486846
-0.00640265
-0.000256747
-0.00172865
-0.000282741
0.00226813
0.0395395
0.0174869
0.0663883
-0.0491553
0.0112909
0.0531657
-0.0153013
0.0242478
-0.0591401
0.0348923
0.130296
0.0690582
-0.150536
-0.00123948
0.00192236
-0.00171576
0.00103288
0.00188748
-0.00110904
-0.00504911
0.0279334
-0.0299995
0.0745379
0.0668271
0.00388715
-0.0558824
-0.0148318
-0.0167539
-0.0691884
0.0677532
-0.0350274
-0.145595
0.113355
0.0672675
0.0425944
0.051223
0.0359954
-0.0386071
-0.0312689
0.0365243
0.0333516
-0.0204302
0.022345
-0.0247886
0.0228738
0.0546851
-0.000349381
-0.00481716
-0.00732983
0.00592244
0.00622455
0.0417209
-0.114894
0.0662244
0.00694833
-0.0214276
0.00854376
-0.0061571
0.019041
-0.0549218
0.005858
0.0499491
-0.000885348
-0.094677
0.0485351
-0.00614048
0.0522824
-0.0381363
0.0451365
-0.0144942
0.00749394
0.0230275
0.0488952
-0.0302622
-0.0416605
0.0344031
-0.0645179
0.102247
-0.107848
0.0400033
0.110748
-0.0513411
0.0428403
0.0278695
0.0120875
-0.090384
0.050427
-0.0109911
-0.0326866
0.0527458
-0.00906805
0.0135734
-0.0406463
0.0540656
-0.0492267
3.94266e-05
-0.0327261
0.0211081
-0.0652065
0.0719678
0.0587057
-0.0587773
7.16356e-05
0.0672975
-0.0741251
0.0415635
-0.0347358
0.0309481
0.00589448
-0.0287887
-0.00805387
-0.0477006
-0.0298401
0.0393037
0.0382371
0.0347251
-0.0872214
0.00603155
-0.065727
0.0596955
-0.000577231
0.0253924
5.05633e-05
-0.0248658
-0.0588292
0.0287456
0.104711
0.00773354
-0.00630998
-0.00577701
0.00861372
0.0132943
-0.0344385
0.0125306
-0.0729846
0.0945322
-0.0137336
-0.0514319
0.0693845
-0.0771259
-0.0256505
0.0633432
0.0189341
-0.0566268
-0.0593477
0.0336972
0.0467933
0.064339
-0.0740083
0.0443952
0.0583238
-0.0287107
0.0354482
0.00490655
0.004991
-0.0453458
0.0018374
-0.00452919
0.000818581
-0.0709045
-0.0261222
0.0282916
-0.00902148
0.00184782
0.0012541
0.00591956
-0.0352023
0.00960313
-0.0354384
0.000475133
0.00472026
-0.0012346
-0.0039608
0.0023554
0.00504677
-0.00768762
0.000285446
0.000387132
-0.00050268
-0.0004797
-0.0812027
0.0384343
-0.0329965
0.0757649
-0.00222507
-0.000813591
0.0035312
-0.00049254
0.0107115
-0.0156624
0.00328661
0.0016643
-0.00505639
0.0135531
0.00347289
-0.0119696
0.00364435
0.0178761
-0.0364918
-0.00100043
0.00144209
-0.0395629
0.0798743
-0.0403114
-0.0798003
0.0402374
0.000882918
0.000116807
0.0410829
0.00482654
-0.0194626
-0.0264469
0.00789366
0.017565
-0.108611
0.0831524
0.0196215
-0.0179986
0.00507758
-0.00670047
-0.0014748
-0.000415144
0.00139083
0.000499118
0.00901904
-8.0278e-05
-0.00424601
-0.00469275
0.0084568
0.00261203
-0.0130721
0.00200323
0.0314803
0.00899357
-0.00439592
-0.00434735
-0.0330429
-0.0024441
0.0436963
-0.0528162
0.0483563
-0.0392365
0.0413765
0.0173577
-0.00867277
-0.0500614
-0.00078447
-0.000955886
-0.00256824
0.0043086
-0.00945438
0.0133992
-0.00416484
0.000220004
0.032663
-0.000259962
-0.0828206
-0.0793516
0.038179
-0.00209299
0.0127389
-0.00826588
-0.00238002
-0.0690713
-0.0131219
0.0556999
0.0264933
0.0165967
-0.00729252
-0.0131867
0.00388262
0.00220474
-0.00120228
-0.00575318
0.00475072
-4.61149e-05
-0.0103315
0.00803609
0.00234156
0.0698505
-0.0262022
0.00107437
0.00997885
0.00205663
0.0278841
-0.0399196
0.120312
-0.0692153
0.0234793
0.0367199
-0.125282
0.0650827
-0.0428183
0.0211235
-0.0598754
0.0395448
-0.00587148
0.0139217
-0.0180662
0.037415
-0.00561912
-0.0487833
-0.0113099
0.000379645
0.0545221
-0.0435918
0.0388296
-0.0340002
-0.00590917
0.00222201
-0.00890338
0.00515035
-0.0671361
0.0359126
-0.043812
0.0542514
-0.0542304
0.0639269
0.0228934
-0.0283682
0.0017272
-0.0216805
0.011215
-0.0313858
0.0315497
-0.0113789
0.0327712
-0.0390395
0.0044251
0.00855755
-0.0550159
-0.0627848
0.109243
0.0478073
-0.0238882
0.108155
0.0241125
-0.0480007
0.0424963
-0.0692114
0.0560371
-0.0159686
0.029143
-0.0697232
0.000511768
0.0359663
-0.0306422
0.00739043
-0.0562543
0.0962925
-0.0474286
0.0706143
-0.0272576
0.00970675
-0.040349
0.0181611
0.0335925
-0.0493072
0.0237423
-0.0349615
-0.00700213
0.0182213
0.0518019
0.0497004
0.0251183
0.0692224
-0.0520163
-0.0518128
0.0516492
0.000163533
-0.000316989
0.0690157
0.0199236
-0.0457255
0.0121158
-0.0657107
0.0535949
0.0119785
0.12494
-0.0777356
-0.0120788
-0.0282839
-0.0206224
-0.039449
-0.00582828
0.00768465
0.00532839
-0.0057176
-0.0448355
0.109128
-0.0207519
0.0370996
0.0210673
-0.00615685
0.0434711
0.00376869
-0.056775
0.00107344
0.0169896
-0.0204855
-0.016117
0.0196129
-0.0947583
-0.00333576
0.0319576
0.0661364
0.10977
-0.041618
-0.0868316
0.0186797
0.0634753
0.0199978
-0.0920052
0.00853205
-0.139931
0.0152229
0.0463282
0.0783796
0.0299452
-0.00547035
-0.0252072
0.000732424
-0.00235034
0.0325403
-0.0286436
-0.00154632
0.0453436
0.0350302
-0.0863563
0.00598246
0.0351629
-0.0351031
-0.0936754
0.0345232
-0.0140336
-0.096791
-0.0939183
0.0719596
-0.0251413
0.0471001
0.0124184
0.0034209
0.0466993
-0.0625386
0.055651
-0.0179263
0.0649516
-0.100989
-0.0419611
0.0779981
0.0337592
0.0987422
-0.039266
-0.0584074
0.0205032
0.0732628
-0.13565
0.0418844
-0.0875776
0.0655425
0.101909
0.0806645
0.0180777
-0.0386049
-0.00209378
0.06042
-0.000715391
-0.0597046
-0.000407271
0.117205
-0.00459833
0.0459813
-0.158588
-0.01317
0.0510363
0.0160851
0.0266875
0.0450111
-0.0596111
-0.0154691
-0.01641
-0.0137348
-0.00987558
0.0400204
0.000269716
0.0780076
-0.0782773
-0.0121278
0.035447
-0.0397293
-0.0324907
-0.0229322
0.0349773
0.0204456
-0.0492784
0.000392774
-0.0405393
-0.0392609
0.00540849
0.00187763
0.00655544
-0.0138416
0.000862811
0.0519652
0.0183031
-0.0120131
-0.0313068
-0.0109517
0.0093603
0.000680263
-0.0115598
0.0178749
0.0645044
-0.044413
-0.031517
0.011282
0.0257814
-0.00170506
-0.0353584
0.0041804
-0.00345898
0.0026822
0.0154971
0.0501693
-0.0683486
0.064041
-0.0638904
-0.000150626
-0.0255348
0.00432307
0.0132652
0.00794653
-0.0025144
-0.00334519
0.0279263
-0.0220667
-0.0303221
-0.0136435
-0.00442313
-0.0010182
-0.0101137
0.00843454
0.00269736
-0.0135805
-0.0358846
0.000186763
-0.0062233
-0.0602334
0.0528761
0.155368
-0.0415922
-0.0305806
-0.0831957
-0.0577158
-0.0750638
0.0106987
0.122081
-0.0542201
0.0922849
-0.121835
0.0837702
-0.0849962
0.00255069
0.000480711
-0.00152903
1.5672e-05
0.000123406
-0.0139411
-0.00194005
0.00685043
0.00903071
0.00960028
-0.00779888
-0.00389439
-0.00450601
0.00861949
-0.00856834
0.00445487
0.0388588
-0.0805549
0.0292805
-0.0156065
0.0277891
-0.0414631
0.0224526
-0.0099658
-0.0827534
0.114103
-0.0299779
-0.0013717
0.0402022
0.0151905
-0.0553927
0.000906663
0.0394353
-0.0403419
0.00838806
0.0259292
-0.0249674
-0.00934986
0.0043428
-0.0355137
0.00276833
-0.0505743
0.0635353
0.0299192
-0.0428802
-0.0382094
0.0237705
-0.0430977
0.0575366
-0.00160607
-0.011561
0.0178201
-0.00465309
0.00821968
-0.0333612
0.00213667
-0.0106839
-0.0533573
-0.0339763
0.0329411
-0.0549079
0.0518517
0.0243487
-0.0212925
-0.000923944
0.00426242
0.00626181
-0.0381734
0.00795616
-0.0115458
0.0417631
-0.0301953
0.0490396
0.022549
-0.0413933
0.000644595
0.00765854
0.00240835
0.000147124
-0.00924397
0.00944989
-0.00035304
0.040796
0.00299861
-0.0676723
0.0238777
-0.0209278
0.099895
-0.11417
0.054085
-0.0328157
-0.0220886
-0.00684596
-0.00127114
0.0104932
0.00278801
-0.00918652
0.00875392
0.000730797
0.000766831
-0.00287536
0.00137774
0.037255
0.0262229
-0.025982
-0.0374959
0.0334077
-0.0063439
0.0136026
-0.0140183
0.00240647
-0.0143785
-0.0470023
0.0215505
0.0254563
0.00474178
0.0374787
0.00369417
-0.0459146
-0.00767416
0.00363352
-0.00223186
-0.0257697
-0.0303469
-0.0269691
0.0830857
0.0289284
-0.0358098
-0.03975
0.00716607
-0.0392204
-0.0157697
0.047824
0.00549356
-0.00600394
7.40242e-05
0.000436357
0.000202988
0.00430509
-0.011612
0.0201718
-0.00689174
-0.0148862
0.017296
-0.000932045
-0.0646588
0.0482949
-0.00535055
-0.00132508
-0.0205244
0.0272
0.0281826
0.0136408
-0.051253
0.0102083
0.0217672
-0.0228402
-0.0091353
-0.105423
0.0868689
0.135759
-0.00280309
0.00865302
-0.00990001
-0.0101974
0.0151256
0.0436174
2.5523e-05
-0.000696184
-0.000229972
-0.000960364
0.00145652
0.0363125
-0.0386504
0.00233795
0.0515294
-0.0508983
0.0749745
-0.0689453
-0.0299413
0.144005
-0.0668302
-0.0617703
-0.0154047
0.0817792
-0.0408047
-0.114134
-0.0333975
0.0334917
0.0761642
0.029094
-0.0202068
-0.0850514
-0.00547555
0.148971
0.00835756
-0.154251
0.0417355
0.058295
-0.0304522
0.0569432
-0.0485929
0.0221019
-0.0331285
0.0308952
-0.0097286
0.0125952
0.000213554
-0.0899193
0.0467498
0.042956
-0.0178306
0.0086609
0.0177834
0.0481003
-0.00481471
0.0341586
0.0519205
-0.0860791
0.0496203
-0.0253096
-0.0243108
-0.0189929
0.0556031
0.018752
0.00595062
-0.000265586
-0.024437
-0.106825
0.0430491
0.125884
-0.0120496
0.0315041
-0.0311719
0.0392073
0.04727
-0.0379285
0.0510712
-0.0604127
-0.0835696
-0.0447054
0.0814623
0.0468127
0.0126172
0.0346527
0.0624475
-0.0503318
0.00111394
-0.00920917
0.0494717
8.01147e-05
-0.0552916
0.000303505
-0.0570847
-0.0357227
-0.0505307
0.0153139
-0.013456
-0.0296053
-0.0322693
0.0375973
-0.00428169
-0.00953625
-0.000123151
-0.0890724
-0.0195195
0.00272074
0.105871
-0.000812042
0.0398762
-0.0784075
0.0385314
-0.0865141
0.0159535
0.0680128
0.00254781
-0.0560546
0.10206
0.0355466
-0.081552
-0.00841619
-0.0442843
-0.0566914
0.15336
-0.104389
-0.0822843
0.0333135
0.00238414
-0.0026911
0.081972
-0.129245
-0.0242617
0.118478
0.017723
-0.0127372
0.153671
-0.0316204
-0.16717
0.0451194
0.0077898
0.0335754
-0.0311181
-0.0975503
0.0915956
-0.00881482
0.0147695
0.0326868
0.00670729
0.0135963
-0.0694642
-0.100168
0.1469
-0.0320868
0.00932409
-0.0295579
0.0990218
-0.078788
0.0162244
0.0381682
-0.150798
0.0964052
-0.0173454
0.124172
-0.0533386
-0.0534883
0.0167643
-0.0347436
0.0758964
-0.0579171
0.0374891
-0.058241
0.106959
-0.0915018
-0.0885881
0.0731313
0.0515385
-0.104147
0.00591333
-0.0325932
-0.0473284
0.0495751
-0.0630904
-0.0858795
0.0993948
0.0686943
-0.0385989
0.0372021
-0.0389735
-0.033309
0.0722824
-0.0398025
0.106318
-0.0257702
-0.0170786
0.0052467
0.0222521
-0.0793609
0.078837
0.0752602
-0.0618123
0.0462091
0.0988449
0.0848274
-7.78549e-05
0.0666595
-0.0665816
0.0292837
0.0115732
-0.00588496
-0.0349719
0.0627273
0.0173109
-0.0627054
-0.0173328
0.101934
-0.100247
-0.0288575
0.0271706
-0.0107128
-0.020153
0.0751291
-0.0442633
0.0711299
-0.0843741
0.0800713
0.0615259
-0.0228192
-0.00763916
-0.0310675
-0.00180366
-0.0321726
0.00139627
-0.00256863
-0.037001
-0.121425
-0.00381078
0.0954547
-0.0611998
-0.0304441
0.0292855
0.00938435
-0.00714736
-0.105133
-0.0391274
0.0785495
0.0484891
-0.00339654
-0.00804649
0.00209029
-0.00180234
0.00217467
-0.027932
-0.0366589
0.0401555
0.0244354
-0.00132127
-0.0609463
-0.0615354
0.122482
-0.0630919
0.109812
-0.04672
0.00983822
-0.00384219
-0.0042656
-0.0068531
-0.00345542
0.00844877
0.00185975
0.00230984
-0.0159207
0.0104819
0.00312889
-0.0114072
-0.00246204
0.010495
0.00337426
-0.000557058
0.00970615
-0.00782922
0.00495424
-0.0046848
0.00274827
-0.0030177
-0.0716624
0.0982859
-0.0373362
-0.00657578
-0.00973969
0.00520637
0.00156316
-0.00118199
-0.00604491
0.00381675
0.000699558
-0.00853095
-0.0835629
0.0199468
0.0597693
0.00384683
-0.00861528
-0.00137301
-0.064086
-0.0670993
0.0902166
0.0696067
-0.0793805
-0.0280105
-0.00721613
-0.0501925
0.0931473
-0.0429548
0.0442915
-0.112161
0.0708027
-0.00293352
-0.115271
0.112494
-0.0079954
0.000634547
0.0904599
-0.00115362
-0.00262769
0.0319132
-0.0110552
-0.00309883
0.0194504
0.0282401
0.00213529
-0.0303754
-0.00443388
0.0303214
-0.0258835
-4.01511e-06
0.0522384
-0.0830914
0.104278
-0.0734246
0.0615301
0.0345708
-0.0415058
-0.0308153
-0.0166658
0.0295404
0.0328616
-0.062402
0.0555789
-0.0373378
-0.0613295
0.0430885
-0.0310132
-0.0501895
-0.0662961
-0.059237
0.0244639
0.101069
-0.0325166
0.062057
-0.0212518
0.0207491
-0.0250733
0.0188604
-0.0389567
-0.00115554
0.129736
-0.0106671
0.0450505
-0.0889245
0.084328
-0.00295067
-0.00682919
0.00637866
0.0241928
-4.85724e-05
0.0486748
-0.0486262
0.132212
0.054098
-0.109035
0.0702193
-0.0373577
-0.0589464
0.0042287
-0.0410656
-0.0412185
-0.0125487
-0.0501717
0.0627204
0.0506228
-0.063327
-0.0750739
0.0532659
-0.0658146
-0.0155195
0.0341594
-0.0529637
0.0343238
0.00919721
-0.00504403
-0.0229626
0.0188094
0.0355877
0.0330118
-0.0683859
0.0877332
-0.00503441
-0.118119
0.0354202
0.0214375
0.0487818
0.0748233
-0.0174627
0.0146446
-0.0720052
0.0394955
-0.00538636
0.0898011
0.0117933
-0.119057
-0.0260432
0.0221227
0.0227809
-0.0148154
-0.00391014
0.00821013
0.0105154
0.00153431
-0.00822967
-0.00493435
-0.00113468
-0.00335104
0.0217856
-0.0172999
0.0110204
0.0071986
-0.0442622
-0.0246174
0.0491311
0.0190013
-0.0435151
0.00104467
-0.0189149
0.0535177
-0.0356474
0.037791
-0.0245081
-0.0396939
0.026411
0.0663281
-0.0455397
-0.000780751
0.00818972
-0.000270526
-0.00713845
-0.000680036
-0.00146185
-0.000586204
-0.0486233
0.00189618
0.0187131
0.028014
-0.00337468
0.0131597
0.00803804
-0.0178231
0.00144207
0.000301156
-0.00200326
-0.0839512
0.000465201
0.000175513
0.0833105
0.00487513
-0.00800391
0.051586
-0.0527096
-0.065297
0.00244619
0.0555916
0.00725912
0.00156572
0.0171233
-0.0702725
0.0515835
-0.0749837
0.0204876
0.00225019
-0.00217394
0.00093567
-0.00106619
-0.00159812
0.00238013
-0.0015204
7.59429e-05
-0.00537699
0.0188252
-0.0111252
0.0214843
-0.0291842
0.0357533
-0.0151963
0.01293
0.013419
-0.0374742
0.0736286
-0.00498659
0.00428421
-0.0729262
-0.0499648
0.0636907
-0.0354335
0.0471952
-0.0471191
0.0568717
-0.0168673
-0.0960589
0.0709429
-0.00240659
0.0123986
0.0607804
0.0341454
-0.00331981
0.068232
0.0488648
-0.0465178
0.0345716
0.0119462
-0.0624049
-0.0627881
0.0317554
0.0550462
0.0152584
-0.0549311
0.106112
-0.0666502
-0.118632
0.0673305
-0.0347584
0.0255555
0.0450565
-0.00307895
0.139136
-0.0413463
-0.0947108
0.0239178
0.0178477
-0.0417655
-0.069942
0.0640296
0.0923142
-0.0864018
0.0551279
0.0393188
-0.0929985
-0.00144826
-0.0154197
0.0212834
-0.0306092
0.0231293
-0.0138034
0.0608765
-0.0863581
-0.110889
-0.023496
-0.0227853
0.0538204
-0.0942971
0.0130353
0.0144016
0.080902
0.0502368
0.0380873
-0.0334166
-0.0549075
0.0380539
-0.0362616
-0.00554246
0.00375018
0.00215014
-0.0589513
0.0338252
0.0229759
-0.0113484
0.0119048
-0.00294157
-0.0064771
-0.149758
0.151073
-0.0133554
0.0461259
-0.0944771
0.0923447
-0.0130214
0.00451779
0.00066614
0.00783745
0.0283456
0.00537546
0.00969527
-0.0434163
0.00191422
0.00341894
0.0513237
-0.0553671
0.122436
-0.118392
-0.0106839
-0.0279022
0.00199585
0.0365902
-0.0170526
0.126679
-0.0628328
0.0305322
-0.0414746
0.0611793
0.0016642
0.0588124
0.0594572
-0.057793
0.0372669
0.0389996
0.0342537
0.0410288
-0.0164701
0.0432583
-0.0532824
0.000169423
0.00985469
-0.00293253
-0.0230413
0.0343081
0.0451416
-0.0294523
-0.00512439
0.0300161
0.00438874
-0.0424863
-0.00276429
0.0137495
-0.000960013
-0.0406823
-0.00084399
-0.0390303
-0.00504642
0.00890923
-0.0393875
0.00221353
-0.00185642
-0.00107133
0.00122286
-0.0354482
-0.086426
0.00825599
-0.050101
-0.0774755
0.026019
-9.58069e-05
0.00202125
-0.00488162
-0.00382967
0.000633668
-0.00415823
0.00148073
-0.00223858
0.00356333
-0.00165555
0.000330795
-0.0166763
-0.00331538
0.0160991
0.00389256
0.00396515
0.00214546
-0.00534922
-0.000761395
0.0101209
-0.00459374
-0.0336847
-0.0592718
0.0726296
0.075831
-0.0607274
0.0538883
-0.0246076
-0.0292808
0.00169417
-0.00124653
-0.00460587
-0.00102915
0.0456383
-0.0390885
-0.00552061
-0.0110312
0.0186631
-0.0949568
0.0873249
-0.00361538
-0.0201058
0.0226921
0.0340328
-0.0541483
0.026351
-0.00656315
-0.021113
-0.00207156
0.0540421
-0.0653478
-0.0615805
0.0728862
-0.0193315
0.00089753
-0.0013163
-0.0359988
-0.0609818
0.0604774
0.0157921
-0.00281063
0.04512
-0.00324863
0.0099804
0.0121558
-0.0105392
-0.0209482
-0.00291795
0.0161657
-0.00389155
-0.0224976
-0.0244388
0.011975
0.00122023
-0.00522295
0.0451253
-0.0231205
-0.0110684
0.00865414
0.000471955
-0.00310726
-0.000309714
0.00294502
-0.00501808
0.00341317
0.00200197
-0.153731
0.0303036
0.0367536
-0.0343934
0.00238161
0.0317146
-0.0559303
-0.0187166
0.0429324
0.0588717
-0.0309383
-0.000179667
-0.103809
0.103988
0.0494464
-0.0111157
0.000499002
-0.00308265
0.00228732
-0.00953138
0.0103267
-0.000161369
-0.00202563
-0.0111847
0.00110196
-0.0062094
-0.00135535
-0.0072318
0.0038687
0.00652075
-0.00315765
0.00837914
0.0320209
-0.0406179
0.000217874
-0.0126868
0.013164
-0.055399
0.00421977
0.0069197
-0.00290347
0.00540102
-0.000809162
0.000362381
-0.0406703
0.0300663
0.00967189
0.00356375
-0.0025589
0.00404191
-0.00585683
-0.0138349
0.000196426
-0.0440339
0.0165588
-0.0113197
-0.0184007
0.0131616
-0.0131025
0.000585735
0.00572475
-0.00159762
-0.00601085
-0.00717299
-0.118362
0.11823
0.000489477
-0.000357478