/*--------------------------------*- C++ -*----------------------------------*\
| =========                 |                                                 |
| \\      /  F ield         | OpenFOAM: The Open Source CFD Toolbox           |
|  \\    /   O peration     | Version:  2506                                  |
|   \\  /    A nd           | Website:  www.openfoam.com                      |
|    \\/     M anipulation  |                                                 |
\*---------------------------------------------------------------------------*/
FoamFile
{
    version     2.0;
    format      ascii;
    arch        "LSB;label=32;scalar=64";
    class       volScalarField;
    location    "0.0351115";
    object      k;
}
// * * * * * * * * * * * * * * * * * * * * * * * * * * * * * * * * * * * * * //

dimensions      [0 2 -2 0 0 0 0];

internalField   nonuniform List<scalar> 
47425
(
0.340646
0.367246
0.340095
0.337475
0.495582
0.347668
0.456902
0.350728
0.366941
1.09776
0.356393
0.360221
0.399312
0.339549
0.339426
0.355129
0.339217
0.378746
1.07228
0.551948
0.343643
0.344315
0.354664
0.342838
0.349722
0.338035
0.334251
0.861036
0.332862
0.34325
0.352954
0.350195
0.356968
0.34274
0.341268
0.35181
0.342272
0.363835
0.340966
0.342163
0.37985
0.404251
0.571571
0.378519
0.967083
0.378379
0.353457
0.353799
0.339935
0.340239
0.815555
0.560333
0.336769
0.921268
0.386471
0.371591
0.33937
0.341167
0.469691
0.345773
1.03673
0.780029
0.845496
0.366049
0.364525
0.345916
0.350812
0.3687
0.865764
0.35981
0.337897
0.341901
0.340744
0.346429
0.860067
0.368762
0.845364
0.34287
0.904282
0.553506
0.886569
0.346557
0.34819
0.352465
0.339347
0.34733
0.338751
0.337687
0.545446
0.654642
0.351229
0.361641
0.344395
0.381122
0.392281
0.376891
0.338774
0.338053
0.334064
0.38001
0.348449
0.472507
0.344901
0.498347
0.3428
0.36528
0.338984
0.339711
0.342779
0.353879
0.858038
0.346788
0.402812
0.36336
0.354662
0.851825
0.352681
0.679144
0.366948
0.365028
0.339153
0.362864
0.355829
0.381867
0.367936
0.399873
0.349287
0.36496
0.368817
0.343684
0.348754
0.35848
0.551798
0.373845
0.397174
0.379105
0.350626
0.404982
0.341698
0.338507
0.358361
0.389498
0.352065
0.449793
0.359206
0.36626
0.449561
0.349194
0.376513
0.364029
0.44631
0.817092
0.36071
0.831398
0.370582
0.351452
0.375468
0.942147
0.379213
0.361054
0.366378
0.342386
0.33979
0.345625
0.750107
0.871837
0.351014
0.866142
0.356948
0.889179
0.864135
0.37274
0.355085
0.358051
0.376885
0.4214
0.865765
0.333612
0.339886
0.341735
0.855745
0.336612
0.335445
0.344028
0.339434
0.348712
0.343717
0.470021
0.366149
0.337087
0.358454
0.336609
0.452819
0.365405
0.345991
0.353768
0.360745
0.353241
0.364675
0.326874
0.359036
0.369218
0.343687
0.354064
0.375632
0.378534
0.333943
0.351703
0.367357
0.362393
0.334533
0.338482
0.355417
0.329824
0.34222
0.347605
0.338072
0.598421
0.377917
0.37227
0.58587
0.319681
0.490255
0.331948
0.401061
0.56468
0.343026
0.354634
0.379583
0.41493
0.336416
0.351529
0.375792
0.369418
0.377992
0.347606
0.591172
0.364425
0.558213
0.372753
0.348068
0.339403
0.343079
0.346885
0.341856
0.363135
0.337303
0.359797
0.338279
0.341328
0.340064
0.541244
0.345644
0.365746
0.34859
0.339305
0.343043
0.383994
0.335731
0.358072
0.400753
0.35659
0.340566
0.374272
0.406343
0.37441
0.343315
0.404709
0.337388
0.351407
0.343344
0.541516
0.58375
0.340038
0.532198
0.384271
0.533238
0.50151
0.56867
0.58595
1.09948
0.33879
1.03185
0.386158
0.34691
0.328151
0.375015
0.343494
0.379872
0.363179
0.7844
0.357235
0.371309
0.336461
0.338795
0.359867
0.363504
0.339324
0.344236
0.392514
0.369613
0.342717
0.359119
0.339063
0.868839
0.871337
0.841528
0.341225
0.339167
0.343254
0.351178
0.810056
0.349209
0.354872
0.604085
0.372416
0.36465
0.387977
0.346023
0.652491
0.581302
0.348173
0.340058
0.335689
0.364556
0.338298
0.337423
0.337546
0.337755
0.338969
0.340085
0.806672
0.361491
0.340708
0.384861
0.34356
0.808629
0.351346
0.339233
0.340838
0.346448
0.346153
0.336357
0.347843
0.340945
0.341098
0.340606
0.349027
0.341717
0.370218
0.347254
0.348578
0.348695
0.351451
0.347107
0.378148
0.353172
0.347367
0.349523
0.361573
0.400648
0.373668
0.360536
0.351101
0.338416
0.346177
0.384439
0.359225
0.350534
0.347769
0.382027
1.31459
0.335284
0.354746
0.385704
0.353644
0.395357
0.380076
0.364658
0.342735
0.358384
0.351627
0.3355
0.356039
0.370522
0.364667
0.354517
0.346968
0.352237
0.35193
0.349782
0.353072
0.357401
0.337642
0.348742
0.348056
0.344514
0.349562
0.426113
0.338217
0.68642
0.34136
0.801862
0.36318
0.384296
0.376124
0.339182
0.367948
0.33552
0.359861
0.350007
0.654505
0.847724
0.340499
0.368841
0.338183
0.336678
0.346997
0.348489
0.334658
0.371289
0.351711
0.339044
0.336615
0.338909
0.335536
0.460591
0.338006
0.349648
0.534106
0.526291
0.341737
0.669368
0.53022
0.37212
0.538471
0.793121
0.340646
0.336479
0.338304
0.33673
0.755525
0.367758
0.341769
0.341897
0.34337
0.343415
0.344146
0.342413
0.745212
0.73336
0.551429
0.356888
0.440717
0.443995
0.341898
0.351147
0.389175
0.349585
0.356595
0.363194
0.377834
0.343277
0.369624
0.341198
0.343545
0.364455
0.355413
0.343124
0.34206
0.350752
0.357924
0.383154
0.367994
0.338306
0.369943
0.351737
0.775855
0.374383
0.433654
0.35022
0.380662
0.683979
0.364481
0.34125
0.366994
0.354752
0.343809
0.365031
0.379457
0.330831
0.359013
0.33816
0.361809
0.480436
0.336579
0.380677
0.344012
0.394067
0.339599
0.339824
0.339013
0.339709
0.360691
0.356347
0.340293
0.336975
0.3437
0.354044
0.352923
0.362044
0.363591
0.340626
0.344447
0.335151
0.334074
0.344747
0.365296
0.341029
0.368916
0.363431
0.375547
0.797195
0.349857
0.344199
0.359854
0.365785
0.482411
0.48711
0.367171
0.342635
0.370475
0.451262
0.347072
0.498772
0.362734
0.549885
0.385612
0.383324
0.342656
0.489302
0.343369
0.345372
0.35158
0.343151
0.33613
0.33676
1.00721
0.34167
0.389292
0.341004
0.465585
0.343085
0.341415
0.446009
0.434426
0.350453
0.33929
0.316489
0.338417
0.342266
0.339632
0.339403
0.341357
0.406462
0.468575
0.362667
0.339978
0.349447
0.342063
0.554571
0.348146
0.344176
0.289728
0.349324
0.338821
0.391168
0.776861
0.348951
0.224547
0.251568
0.334581
0.351822
0.338419
0.343363
0.378613
0.369905
0.739712
0.34551
0.374641
0.338345
0.475483
0.401581
0.373075
0.34545
0.913571
1.23522
0.347159
0.350155
0.339968
0.352026
0.381489
0.39565
0.347414
0.35706
0.379194
0.332738
0.366442
0.505914
0.375049
0.346429
0.512965
0.366296
0.342634
0.359969
0.361366
0.337074
0.362342
0.387045
0.399248
0.351873
0.344818
0.341825
1.04328
0.354824
0.415316
0.815248
0.795906
0.340741
0.379171
0.774774
0.371469
0.454002
0.698415
0.376928
0.844934
0.338082
0.344537
0.356898
0.525941
0.382089
0.375745
0.33934
0.385069
0.341835
0.342429
0.344753
0.362688
0.366998
0.732689
0.746743
0.366777
0.378955
0.365754
0.357213
0.384886
0.353731
0.354325
0.361078
0.350006
0.356517
0.379198
0.358312
0.337621
0.433958
0.384824
0.830458
0.580419
0.367261
0.350608
0.36808
0.341973
0.869682
0.343209
0.835047
0.372447
0.45567
0.377748
0.352295
0.355158
0.332277
0.397252
0.344602
0.334382
0.402928
0.404006
0.368594
0.423499
0.368002
1.31364
0.378326
0.385966
0.404299
0.363811
0.336647
0.38406
0.345438
0.421992
0.347883
0.347742
0.392154
0.350787
0.351892
0.344404
0.341081
0.511875
0.591634
0.340906
0.473874
0.340645
0.356733
0.333999
0.338792
0.400378
0.332642
0.336622
0.347018
0.341369
0.712127
1.01431
0.348827
0.346651
0.340251
0.361018
0.337168
0.356011
0.362788
0.589731
0.353364
0.339304
0.351854
0.340434
0.340054
0.345043
0.340055
0.341337
0.345307
0.339002
0.365292
0.58309
0.339516
0.280878
0.627932
0.585035
0.250318
0.361126
0.674813
0.39648
0.37431
0.551516
0.323731
0.860894
0.353997
0.335996
0.455779
0.366874
0.599102
0.355036
0.366599
0.339347
0.343331
0.441013
0.375547
0.35823
0.374419
0.48229
0.408309
0.351139
0.378473
0.533525
0.509633
0.541128
0.85521
0.908773
0.665644
0.697795
0.363287
0.372196
0.341014
0.339045
0.365923
0.276952
0.367652
0.358658
0.36937
0.343073
0.29185
0.261161
0.339327
0.398542
0.35217
0.340845
0.38446
0.339643
0.342357
0.341342
0.365853
0.475659
0.340449
0.342713
0.339619
0.376949
0.367342
0.577436
0.476551
0.335964
0.370725
0.338285
0.340398
0.340104
0.373085
0.375336
0.591803
0.342248
0.338483
0.344397
0.430072
0.891673
0.351455
0.350378
0.447943
0.365487
0.347931
0.377425
0.357512
0.376893
1.08002
0.461967
0.855688
0.366882
0.430282
0.341906
0.41659
0.343221
0.360406
0.368609
0.346137
0.991786
0.484117
0.39598
0.54359
0.396287
0.340259
0.358866
0.431945
0.344389
0.37282
0.274096
0.340758
0.426178
0.385408
0.408548
0.762611
0.390423
0.387218
0.549863
0.344928
0.344597
0.46984
0.552849
0.354541
0.453381
0.494646
0.346371
0.353808
0.336435
0.361189
0.370509
0.368042
1.20664
0.925253
0.394913
0.503795
0.525484
1.24236
1.33245
0.571057
0.378192
0.361123
0.373858
0.384546
0.840894
0.342379
0.368679
0.373819
0.380768
0.36127
0.351348
0.371062
0.338195
0.394776
0.51685
0.363664
0.939828
0.34259
0.422837
0.37662
0.365832
0.358138
0.352357
0.375003
0.485964
0.383697
0.414748
0.512673
0.363492
0.343074
0.366444
0.470098
0.338509
0.41223
0.361643
0.390182
0.684485
0.872097
0.336348
0.363661
0.353747
0.362058
0.372119
0.716356
0.556602
1.1585
0.345712
0.403462
0.361001
0.709226
0.338143
1.16961
0.411677
0.392499
0.460753
0.643177
0.344299
0.331823
0.342645
0.362193
0.439458
0.353238
0.438233
0.736744
0.436834
0.337235
0.340692
0.71453
0.875099
0.550919
0.56776
0.902403
0.406834
0.377952
0.440608
0.337285
0.520046
0.379837
0.394111
1.18977
0.36686
0.340082
0.340115
0.360175
0.421199
0.386196
0.350917
0.360613
0.489163
0.343133
0.354549
0.343301
0.354495
0.379136
0.411473
0.376904
0.366983
0.352415
0.389351
0.345359
0.331402
0.34111
0.353457
0.413749
0.519258
0.365471
0.400997
0.338675
1.25516
0.389174
0.37494
0.35126
1.01093
0.62394
1.05044
0.301133
0.365377
0.372924
0.707935
0.344634
0.373465
0.420702
0.370839
0.373179
0.806596
0.374808
0.349166
0.375508
0.388599
0.341315
0.634806
1.0012
0.339234
0.982369
0.356324
0.698299
0.721002
0.340582
0.372736
0.375875
0.654658
0.36514
0.366518
0.376263
0.769661
0.417238
0.618206
0.337001
0.352554
0.340017
0.344449
1.0721
1.09593
0.373364
0.399564
0.412105
0.703367
0.347517
0.337882
1.25592
1.0303
0.363141
0.351916
0.920221
1.24123
0.874966
0.381811
0.69569
0.989937
0.785431
0.346364
0.49582
0.476969
0.365085
0.360486
1.11472
1.3356
0.403946
0.408156
0.357334
0.352953
0.376303
0.351573
0.523728
0.349757
0.366949
0.340709
0.345712
0.941639
0.852334
0.351882
0.623017
0.459681
0.343003
0.553662
0.337647
0.356617
0.345408
0.374712
0.398066
0.337743
0.761173
0.34543
0.892275
0.700556
0.713458
0.41341
0.418629
0.36207
0.377741
0.341345
0.581309
1.02137
0.370311
0.842154
0.570384
0.843785
0.507093
0.944082
0.748926
0.354804
0.341336
0.836066
0.349595
0.352318
0.344033
0.730719
0.673268
0.343816
0.368652
0.667135
0.457418
0.925835
0.803958
0.365922
0.507787
1.04262
0.362849
0.366789
0.724206
0.347553
0.799464
0.87178
0.352204
0.344081
0.351959
0.343881
0.388851
0.334364
0.348944
0.377842
0.378345
0.522628
0.388703
0.354571
0.529295
0.742647
0.862771
0.376857
0.378301
0.552975
0.35393
0.978433
0.350404
0.369782
0.366984
1.22834
0.356287
1.60269
0.390691
0.536944
0.389824
1.01034
0.653167
0.536391
0.449795
0.577306
0.403014
0.363639
0.422328
0.619075
0.538711
0.493869
0.792877
0.388294
0.481016
0.726614
0.385988
0.338302
0.773773
1.21326
0.339449
0.357479
0.36035
0.379515
0.737199
0.890723
0.341138
0.359643
0.359512
0.915524
0.356919
0.654405
0.409811
0.351327
0.355079
0.503801
0.397942
0.661344
0.610343
0.378997
0.415906
0.477347
0.350125
0.935047
1.07262
0.358557
0.887924
0.776399
0.376824
0.567608
0.361041
0.400837
0.961073
0.399069
1.08942
0.760573
0.358242
0.407062
0.454315
0.365478
0.355177
0.429838
0.517813
0.458219
0.347182
0.430157
0.351756
0.675126
0.424958
0.382301
0.38839
0.53137
0.34058
0.8631
0.671829
0.404339
0.78637
0.798449
0.339271
0.517546
0.498887
0.381372
0.378537
0.511933
0.747931
0.53583
0.777538
0.34255
0.7925
0.476796
0.341007
0.424056
0.388275
0.528545
0.375329
0.425154
0.639638
0.33962
0.643944
0.377811
1.30472
0.396171
0.335634
0.388952
0.556257
0.400024
0.697286
0.455048
0.353475
1.00707
0.341434
0.369162
1.10811
0.338025
0.385454
0.738859
0.37404
0.790051
1.30553
0.384979
0.444646
0.344077
0.914704
0.58541
0.755664
0.641859
0.445895
0.37601
0.471571
0.839108
1.14245
0.837004
0.365226
0.35846
0.368947
0.350701
0.384705
0.734526
0.365312
0.349843
0.376317
0.33792
0.363952
0.37337
0.356748
0.355757
0.376909
0.481497
0.344111
0.379597
0.567636
0.354129
0.342369
0.391214
0.386168
0.360614
0.3397
0.363931
0.361207
0.352231
0.378833
0.641768
0.359214
0.364777
0.34064
0.341748
0.553717
0.343275
0.344667
0.583256
1.14845
0.739643
0.351972
0.606583
0.52196
0.343064
0.557275
0.475808
0.539816
0.36986
0.350363
0.368063
0.430817
0.346454
0.378545
0.398089
0.381305
0.340161
0.342297
0.375243
0.536395
0.367299
0.44139
0.869054
0.354072
0.669235
0.435244
0.866222
0.339912
0.376713
0.376924
0.342348
0.355608
0.373701
0.341338
1.01332
0.605649
0.888131
0.392004
1.02611
0.338845
0.357561
0.527299
0.341769
0.791784
0.407704
0.638284
0.334402
0.932165
0.931597
0.353508
0.338158
0.582499
0.355717
0.619009
0.339484
0.375782
0.341316
0.340002
0.341637
0.350131
0.362021
0.594717
0.422087
0.399253
0.36382
0.34437
0.347486
0.371198
1.38008
0.37438
1.12439
0.462406
0.340832
0.38228
0.360898
0.35496
0.355794
0.38205
0.355552
0.363045
0.345079
0.332759
0.373142
0.37015
1.76636
1.0472
0.379412
0.382164
0.74187
0.354071
0.340002
0.338429
0.338471
0.37555
0.383284
0.400261
0.38623
0.356444
0.339596
0.430581
0.340241
0.333463
0.351564
0.74928
0.394684
0.855411
0.776522
0.844265
0.353172
0.339474
0.336483
0.335367
0.343635
0.667023
0.355608
0.340905
0.356645
0.367969
0.341468
0.464974
0.339271
0.379551
0.475114
0.361082
0.336022
0.34328
0.356532
0.365439
0.340653
0.364445
0.347984
0.509324
0.338618
0.352448
0.383991
0.347228
0.350073
0.339408
0.364633
0.334314
0.381453
0.397583
0.342278
0.336328
0.337062
0.340561
0.341579
0.375397
0.341018
0.342253
0.343085
0.35534
0.908382
0.347161
0.460595
0.337465
0.34213
0.779192
0.355087
0.374952
0.338191
0.35238
0.369719
0.381831
0.756726
0.377256
1.61054
0.338537
0.346495
0.374533
0.343198
0.343268
0.386134
0.358634
0.342488
0.343679
0.855176
0.472957
0.692221
0.383244
0.590267
0.377715
0.332813
0.395262
0.917971
0.373542
0.344042
0.341861
0.80754
0.337908
0.351
0.367905
0.35637
0.343561
0.818338
0.340408
0.359067
0.351927
0.356555
0.400015
0.952852
0.845159
0.342524
0.340598
0.343064
0.386818
0.37085
0.342424
0.823483
0.846675
0.337305
0.368207
0.763589
0.342361
0.562219
0.482894
0.340673
0.340008
0.345647
0.346963
0.589639
0.363022
0.353746
0.360821
0.402242
0.350761
0.361691
0.628783
0.363008
0.50142
0.53265
0.39246
0.622427
0.373127
0.387919
0.423252
0.379231
0.365126
0.359124
0.861065
0.630379
0.377952
0.382226
0.361443
0.375615
0.366942
0.442101
0.345651
0.337201
0.358343
0.353537
0.535782
0.466507
0.8711
0.743712
0.373174
0.378271
0.352433
0.356356
0.365255
0.345563
0.354118
0.33984
0.341854
0.409479
0.353106
0.344714
0.342477
0.637828
1.27259
0.383314
0.335262
0.45112
0.532891
0.853987
0.34133
0.745501
1.03451
0.667163
0.778559
0.435801
0.34078
0.340306
0.361068
0.885338
0.338258
0.372904
0.363582
0.339072
0.62373
0.584564
0.559481
0.353841
1.07544
0.339959
0.346201
0.375529
0.37341
0.728548
0.797919
0.257604
0.471709
0.300005
0.413694
0.344405
0.92855
0.354813
0.889291
0.373408
0.880411
0.365432
0.523248
0.374968
0.545354
0.380385
0.383746
0.407915
0.355173
0.358518
0.439989
0.415432
0.361124
0.351799
1.23016
0.58665
0.362193
0.647274
0.71609
0.63349
0.347779
0.34728
0.755623
0.730421
0.757049
0.349856
1.05776
0.345442
0.915938
0.858441
0.484185
0.632378
0.337554
0.394965
0.34499
0.349812
0.356177
0.545331
0.424345
0.338948
0.337559
0.373439
0.35068
0.340659
0.344158
0.494122
0.339119
0.334732
0.365483
0.342049
0.462314
0.359437
0.391205
0.380613
0.340377
0.454743
0.487784
0.331102
0.338637
0.517274
0.782436
0.363139
1.09117
0.384202
0.466384
0.757843
0.44754
0.373982
0.340533
0.510973
0.353084
0.337019
0.365432
0.349906
0.342531
0.357609
0.342526
0.337835
0.347002
0.367609
0.358134
0.383737
0.743741
0.346205
0.351349
0.350778
0.357952
0.464217
0.731804
0.361611
0.346666
0.364595
0.615938
0.475044
0.349873
0.363188
0.875568
0.37839
0.393631
0.379047
0.437655
0.367349
0.364472
0.361869
0.557128
0.384086
0.372644
0.959095
0.357742
0.398657
0.356779
0.378914
0.360728
0.396889
0.359881
0.345288
0.345239
0.390479
0.340131
0.364122
1.21281
0.344086
0.456768
0.379268
0.353394
0.68506
0.401018
0.365149
0.370421
0.625784
0.667754
0.372827
0.349444
0.396828
0.426339
0.37381
0.345704
0.825405
0.499964
0.410847
0.934025
0.380834
0.345662
0.553408
0.512226
1.11636
0.465423
0.419042
0.571864
0.348231
0.578309
0.495559
0.834672
0.413086
0.366887
0.349346
0.646889
0.382975
0.421025
0.343898
0.374961
0.380995
0.419142
0.667262
0.368764
0.374877
0.347621
0.541545
0.790253
0.447953
0.763201
0.392621
1.02376
0.374681
0.374987
0.825611
0.550849
0.71286
0.368204
0.695542
0.610678
0.342907
0.340516
0.29652
0.399889
0.374572
0.820586
0.385491
0.412016
0.343783
0.487997
0.367852
0.343901
0.896961
0.320588
0.540914
0.332931
0.408072
0.369401
0.371129
0.385349
0.394525
0.344142
0.339071
0.372544
0.415455
0.228123
0.234375
0.392571
0.3936
0.357312
0.445826
0.482932
0.388594
0.371545
0.38753
0.232243
0.407149
0.422937
0.291771
0.377671
0.7866
0.503846
0.356702
0.94111
0.396376
0.516899
1.00419
0.396687
0.378392
0.344399
0.934913
0.343873
0.338163
0.393778
0.382345
0.426639
0.362348
0.546962
0.37059
0.531309
0.341368
0.390674
0.378463
0.335912
1.06227
0.430904
1.02576
0.652913
0.338999
0.839937
0.508609
0.343194
1.49366
0.340331
0.338226
0.454783
0.48964
0.931718
0.720647
0.385034
0.726293
0.909063
0.345663
0.582257
0.926619
0.491162
1.20034
0.418092
0.348314
0.638312
0.718012
0.397391
0.95209
0.400221
0.370501
0.561658
0.401257
0.3492
0.374562
0.790667
0.720947
0.336145
0.560593
0.351394
0.387377
0.366663
0.386943
0.592716
0.464567
0.74296
0.353565
0.361016
0.725804
0.344152
0.363112
0.502631
0.349718
0.37342
0.799578
0.373874
0.920973
0.830995
0.822022
0.821998
0.376467
0.432059
0.341453
0.339578
0.45715
0.343815
0.342344
0.402458
0.3474
0.45378
0.877362
0.34478
0.543891
0.350732
0.502711
0.396667
0.883661
0.370761
0.482164
0.350353
0.353172
0.411751
0.346168
0.360819
0.349884
0.337933
0.577565
0.334176
0.382858
0.393423
0.359305
0.371085
0.380591
0.381172
0.70439
0.37052
0.344318
0.355103
0.427682
0.299932
0.683722
0.522231
0.68219
0.992196
0.437945
0.454223
0.147163
0.336778
0.908503
0.434399
0.550764
0.40182
0.761773
0.703393
1.24215
0.398354
0.366798
0.550237
0.944823
0.381764
0.285891
0.478939
0.307755
0.442908
0.442235
0.829647
1.02692
0.301138
0.412226
0.215927
0.360971
1.13086
0.358465
0.374697
0.346872
0.348822
0.484674
0.346737
0.63528
0.504136
0.343877
0.389695
0.346917
0.580723
0.665997
0.361456
0.438513
0.400388
0.946336
0.465024
0.364258
0.554249
0.559449
0.337628
0.348698
0.369307
0.338212
0.672928
0.346478
0.473519
0.647369
0.350003
0.379631
0.347053
0.347772
0.510773
0.392233
0.554202
0.331285
0.336809
0.59379
1.04087
0.347108
0.359852
0.347162
0.344294
0.646674
0.458769
0.811707
0.378639
0.342336
0.484167
0.401704
0.376791
0.348206
0.403538
0.385658
0.574249
0.481115
1.03476
0.432089
0.45364
0.347896
0.379211
0.820447
0.952583
0.433935
0.935736
0.377242
0.930824
0.463139
0.752513
0.50553
0.506595
0.396012
0.356346
0.388589
0.438767
0.588724
0.366294
0.402473
0.990998
0.374838
2.57225
0.374439
0.352209
0.379878
0.51989
0.405061
0.34483
0.802087
0.340673
0.342573
0.335909
0.375802
0.847542
0.519439
0.349205
0.552219
0.356422
0.375631
0.347699
0.355354
0.448026
0.414393
0.438209
0.374698
0.343096
0.428421
0.368999
0.334569
0.433463
0.400652
0.859403
0.389373
0.491013
0.38009
0.432171
0.380369
0.454761
0.336797
0.380827
0.353865
0.368607
0.390786
0.818494
0.337924
0.610375
0.320986
0.392242
0.379845
0.381548
0.382837
0.465064
0.629111
0.346083
0.36925
0.370188
0.527671
0.409906
0.336162
1.14556
0.817724
0.63747
0.345283
0.343254
0.530544
0.357062
0.355888
0.520362
0.364571
0.355144
0.397253
0.85965
0.343962
0.594586
0.343643
0.350586
0.450432
0.355317
0.387225
0.486156
0.344658
0.579494
0.43157
0.436275
0.472566
0.934479
0.349277
0.360479
0.384133
0.414281
0.38392
0.379656
0.341779
0.341812
0.374685
0.598605
0.38203
0.382108
0.942753
0.379547
0.669422
0.359142
0.383116
0.421947
0.355133
0.632008
0.375869
0.473676
0.396174
0.356214
0.366574
0.414717
0.563873
0.468718
0.344327
0.62134
0.377283
0.893544
0.773581
0.730847
0.35647
0.489092
0.378076
0.263454
0.421132
0.30484
0.468393
0.233903
0.430552
0.696709
0.432472
0.640749
0.694512
0.38732
0.282051
0.329126
1.04272
0.586201
0.718604
1.20868
1.08266
0.432828
0.83778
0.352053
0.368405
0.76134
0.415566
0.885399
0.399176
0.746636
0.759734
0.363539
0.382321
0.355623
0.33543
0.372454
0.338759
0.738981
0.403187
0.379163
0.572178
0.347537
0.366952
0.33548
0.369542
0.365719
0.379277
0.401974
0.340365
0.431081
0.903973
0.338014
0.348154
0.358556
0.342307
0.713984
0.705404
0.417858
0.401629
0.574755
0.339482
0.336161
0.368371
0.389199
0.351089
0.358569
0.346056
0.340492
0.444415
0.335295
0.403757
0.359212
0.340847
0.347024
0.544012
0.354936
0.366297
0.342201
0.445569
0.36429
0.377052
0.732054
0.441534
0.370566
0.40979
0.364065
0.393678
0.396644
0.375669
0.352972
0.384437
0.37156
0.355258
0.388067
0.372426
0.45027
0.476768
0.356721
0.36457
0.422802
0.457888
0.510165
0.56384
0.814998
0.950943
0.363654
0.346553
0.892802
0.564605
0.567553
0.3516
0.343429
0.357432
0.339345
0.358361
0.346959
0.352093
0.380312
0.34145
0.347226
0.343499
0.355678
0.344596
0.545096
0.404036
0.368703
0.345181
0.353869
0.669943
0.337556
0.349211
0.415687
1.01574
0.628054
0.374671
0.363007
0.364788
0.400405
0.475067
0.742087
0.428896
0.354627
0.375357
0.355668
0.350171
0.393692
0.444113
0.376904
0.343211
0.419656
0.410681
0.638156
0.420354
0.722133
0.586526
0.39697
0.41527
0.349567
0.36414
0.385501
0.34037
0.34609
0.640148
0.351395
0.366573
0.723729
0.367184
0.382163
0.428761
0.428445
0.34189
0.367416
0.347957
0.38004
0.737504
0.365457
0.456046
1.81368
0.584801
1.10418
0.849334
0.355244
0.365652
0.554628
0.339981
0.584788
0.522426
0.714836
0.369867
0.342011
0.721204
0.3441
0.579149
0.438534
0.34998
0.738567
0.844212
0.340618
0.349503
0.899497
0.341238
0.340838
0.339939
0.341014
0.367294
0.507131
0.593789
0.366868
0.816513
0.352258
0.36387
0.341234
0.891436
0.358736
0.938723
0.342798
0.380293
0.343533
0.463627
0.343743
0.517395
0.336254
0.63126
0.50049
0.5023
0.712684
0.355857
0.360346
0.835273
0.47285
0.366974
0.445835
0.614302
0.361509
0.447657
0.354075
0.626871
0.4323
0.345944
0.336438
0.484485
0.355463
0.408693
0.371636
0.340505
0.362219
0.342829
0.345995
0.35841
0.717442
0.348717
0.343638
0.342425
0.348713
0.343746
0.349571
0.350219
0.377656
0.419593
0.391896
0.39056
0.344256
0.286379
0.3667
0.400091
0.778952
0.311144
0.802571
0.347376
1.33235
0.395654
0.321193
0.383725
0.390984
0.390367
0.349043
0.333063
0.370677
0.371193
0.340346
0.358818
0.343221
0.711827
0.342855
0.356471
0.393161
0.942861
0.235467
0.36269
0.831914
0.681082
0.639776
0.569144
1.09135
0.188897
0.424687
0.38487
0.370937
0.368563
1.76882
0.522673
0.419667
0.344527
0.340588
0.768946
0.367604
0.522561
0.45383
0.386753
0.558438
0.384184
0.630627
0.348045
0.37327
0.354531
0.341885
0.398702
0.338074
0.368395
1.12916
1.14762
1.02514
0.472439
0.749129
0.359301
0.335844
0.337192
0.37918
0.342518
0.391226
0.35027
0.432244
0.384609
0.339372
0.338629
0.371935
0.342109
0.360705
0.375306
0.351645
0.376734
0.553754
0.357879
0.399195
0.818533
0.383138
0.713482
0.85653
0.374373
0.402412
0.338107
0.506233
0.385795
0.39493
0.661566
0.343154
0.40821
0.369792
0.392874
0.345444
0.348929
0.498581
0.550112
0.375618
0.37606
0.798468
0.4136
0.644726
0.600143
0.360842
1.12863
0.451608
0.406681
0.389738
0.35331
0.431948
0.380074
0.32164
0.346593
0.291337
0.605123
0.217319
0.359802
0.39469
0.449112
0.226505
0.797076
0.347507
0.374171
0.412271
0.352903
0.415934
0.620312
1.57191
0.385084
0.360085
0.372334
0.713483
0.345669
0.400596
0.384757
0.354077
0.366006
0.360351
0.479876
0.344276
1.43596
0.398129
0.956002
0.348352
1.19906
0.78667
0.908279
0.374568
0.357149
0.500617
0.381592
0.363205
0.363529
0.364261
0.806323
0.338285
0.49097
0.625552
0.338702
0.351301
0.345202
0.351732
0.368544
0.361092
0.414162
0.408819
0.376118
0.374803
0.415964
0.357462
0.46355
0.34847
0.381189
0.347726
1.01637
1.03938
0.392712
0.415193
0.340554
1.08212
0.334727
0.34566
0.369558
0.341716
0.386956
0.370982
0.339658
0.340188
0.359566
0.752093
0.607384
0.370897
0.793525
0.342735
0.363426
0.345596
0.359917
0.777714
0.395037
0.850063
0.339355
0.351452
0.812661
0.897539
0.36021
0.354546
0.666265
0.377386
0.392605
0.49078
0.406621
0.383879
0.444316
0.38307
0.338811
0.389012
0.367196
0.508016
0.341025
0.374568
0.339833
0.354754
0.752074
0.687728
0.34849
0.350767
0.364441
0.368354
0.356758
0.54561
0.359736
0.372949
0.406101
0.367904
0.47106
0.421684
0.51727
0.404536
0.336654
0.343252
0.340819
0.399617
0.333837
0.552613
0.454819
0.342768
0.8053
0.358279
0.336676
0.379428
0.343747
0.388016
0.658029
0.362033
0.455768
0.372139
1.08134
0.413883
0.400918
0.37621
0.712462
0.378092
0.561129
0.391116
0.429649
0.34526
0.434925
0.414328
0.706809
0.481944
0.36345
0.350928
0.348432
0.572088
0.36966
1.01677
1.04339
0.37608
0.450105
0.357992
0.499539
0.47099
0.406109
0.810482
0.509639
0.699235
0.345941
0.399245
0.922397
0.513718
0.374489
0.499994
0.353061
1.0943
0.411812
0.391724
0.348494
0.340014
0.344097
0.361375
0.34173
0.824796
0.346553
0.644553
0.342578
0.45437
0.419679
0.557799
0.360782
0.365256
0.352717
0.616211
0.487383
0.538378
0.34168
0.346348
0.478026
0.394417
0.382695
0.33759
0.337257
0.339846
0.356803
0.340604
0.397895
0.346915
0.581027
0.448921
0.941126
0.788329
0.639534
0.59376
0.412994
0.420375
0.338945
0.620128
0.350738
0.362283
0.353771
0.484029
0.501775
0.353305
0.443611
0.808535
0.500025
0.342063
0.340459
1.40202
0.849267
0.402496
0.875435
0.900992
0.663901
0.782504
0.609809
0.73736
0.426271
0.67024
0.813524
0.339318
0.343496
0.335222
0.484066
0.633393
0.353946
0.344092
0.42419
0.381105
0.395978
0.858619
0.51083
0.937234
0.36351
0.33819
0.353912
0.336099
0.377688
0.815754
0.474865
0.658495
0.742838
0.34232
1.06964
1.10844
0.339842
0.536624
0.490377
0.807267
0.383803
0.499963
0.797134
0.76895
0.484457
0.821121
0.533306
0.732103
0.375585
0.3667
0.387398
1.02382
0.7826
0.410716
0.361222
0.586711
0.467291
0.605275
0.367119
0.39952
1.06652
1.24786
0.270228
0.339379
0.29437
0.3407
0.239692
0.412427
0.483295
0.637314
0.231524
0.461175
0.503404
0.167443
0.480748
1.40001
0.443707
0.410171
0.701387
0.361817
0.528141
0.352743
0.340608
0.355418
0.374165
0.776707
0.732039
0.98012
0.411004
0.416675
0.608128
0.404401
0.318111
0.42531
0.382486
0.357581
0.58113
0.379978
0.361686
0.349451
0.443355
0.426424
0.785719
0.500457
0.831754
0.935734
0.808326
0.374368
0.423026
0.71834
0.350321
0.589556
0.383434
0.415242
0.348798
0.828837
0.61501
0.40641
1.30597
0.636276
0.340059
0.461554
0.837507
0.837933
0.417904
0.371594
0.491714
0.936609
0.376363
0.347489
0.37394
0.365454
0.660061
0.39036
0.649308
0.653646
0.703916
1.17007
0.568822
0.487724
0.780157
0.977365
0.869551
0.616999
0.750853
0.895333
0.56006
0.406789
0.473334
0.357286
0.335079
0.346072
0.438684
0.551402
1.27412
0.373563
0.392374
0.406126
0.378409
0.421366
0.586163
0.494767
0.360741
0.385456
0.972851
1.10074
0.234999
0.414725
0.350681
0.390631
0.967463
0.797547
0.375937
0.447226
0.354227
0.334735
0.321986
0.60095
0.360613
0.365517
0.349313
0.409269
0.866665
0.470494
0.381173
0.890458
0.338601
0.869305
0.695062
0.483605
0.699176
0.389401
0.33949
0.348611
0.349352
0.372805
0.431584
0.348638
0.36334
0.350844
0.350633
0.551254
0.585127
0.751608
0.352164
0.502064
0.387264
0.418806
0.369725
0.552785
0.377006
0.36573
0.361985
0.338691
0.355578
0.354519
0.477787
0.336996
0.383513
0.392094
0.636651
0.354689
0.41836
0.506
0.821576
0.898734
0.410043
1.28245
0.482722
0.392611
0.382308
0.550235
0.356854
1.00776
0.461376
0.34078
0.44917
0.535199
0.436378
0.485295
0.704437
0.707056
0.490329
0.799555
0.370534
0.342261
0.419915
0.343895
0.33886
0.434604
0.347075
0.346735
0.586113
0.345283
0.332206
0.844856
0.730429
0.33962
0.342417
0.865571
0.351572
0.351447
0.605174
0.351007
0.738254
0.438883
0.801014
0.348352
0.572966
0.468789
0.709695
0.349125
0.463693
0.347309
1.00081
0.364483
0.343162
0.698865
0.447245
0.516952
0.377351
0.391745
0.373997
0.349874
0.516067
0.350137
0.346055
0.330943
0.463706
0.568327
0.339654
0.353756
0.342299
0.345217
0.357426
0.848001
0.3428
0.468433
0.343136
0.609101
0.370219
0.393526
0.376989
0.492563
0.358094
0.462064
0.339088
0.359491
0.365668
0.380427
0.348093
0.457103
0.439823
0.929499
0.879654
0.807777
0.416412
0.369021
0.370018
0.33772
0.340143
0.987281
0.663485
0.418479
0.388826
0.338618
0.361186
0.340093
0.343308
0.544866
0.532789
0.771195
0.572019
0.393718
0.358797
0.446316
0.342901
0.643856
0.360882
0.444294
0.370215
0.38172
1.03065
0.443546
0.336599
0.357124
0.423799
0.341822
0.278053
0.342952
0.486983
0.397984
0.91176
0.505158
0.784577
0.346238
0.367614
0.381234
0.375123
0.388548
0.35869
0.338757
0.339812
0.351065
0.354951
0.355822
0.597792
0.409534
0.873064
0.444581
0.347547
0.528464
0.381749
0.361771
0.348142
1.02635
0.913172
0.325631
0.341188
0.348368
0.840603
0.409974
0.460345
0.39787
0.385245
0.296759
0.373281
0.373564
0.338296
0.439108
0.523102
0.923354
0.551682
0.45747
0.335686
0.421587
0.653718
0.37477
0.344963
0.832366
0.880776
0.519565
0.684631
0.342977
0.337917
0.433656
0.344946
0.853227
0.345783
0.344117
0.347314
0.701193
0.340057
0.386169
0.484267
0.489751
0.344319
0.35416
0.362384
0.354255
0.332049
0.362003
0.397134
0.596181
0.465331
0.379918
0.62628
0.371193
0.605991
0.391596
0.909584
0.472097
0.417319
0.702917
0.31635
0.451864
0.541621
0.602991
0.434953
0.339313
0.347576
0.341356
0.374193
0.855695
0.386713
0.343719
0.366588
0.397456
0.343634
0.50837
0.370076
0.377453
0.487152
0.365771
0.345407
0.382381
0.376098
0.964645
0.85511
0.414689
0.365857
0.44814
0.364005
0.811152
0.834785