/*--------------------------------*- C++ -*----------------------------------*\
| =========                 |                                                 |
| \\      /  F ield         | OpenFOAM: The Open Source CFD Toolbox           |
|  \\    /   O peration     | Version:  2506                                  |
|   \\  /    A nd           | Website:  www.openfoam.com                      |
|    \\/     M anipulation  |                                                 |
\*---------------------------------------------------------------------------*/
FoamFile
{
    version     2.0;
    format      ascii;
    arch        "LSB;label=32;scalar=64";
    class       volScalarField;
    location    "0.0351115";
    object      nut;
}
// * * * * * * * * * * * * * * * * * * * * * * * * * * * * * * * * * * * * * //

dimensions      [0 2 -1 0 0 0 0];

internalField   nonuniform List<scalar> 
47425
(
0.00610173
0.00538948
0.00477645
0.00205095
0.00353649
0.00481009
0.00497627
0.0033818
0.00742813
0.0019
0.00252517
0.00731031
0.005832
0.00430395
0.00362407
0.00388027
0.00498521
0.00279361
0.000289446
0.00314916
0.00394974
0.00735596
0.00328861
0.0053219
0.00720366
0.00734641
0.00429801
0.000519241
0.0047282
0.0060884
0.00751696
0.00712801
0.00745937
0.00527157
0.00639256
0.0051616
0.00737322
0.00537991
0.00525164
0.00454204
0.00515938
0.00596292
0.00517397
0.00261016
0.000739212
0.00347991
0.00361108
0.00453928
0.00432215
0.00693731
0.000676519
0.00265136
0.00671038
0.000992954
0.0033394
0.00299944
0.00739732
0.0060223
0.0022453
0.00553322
0.000846407
0.000715999
0.000991183
0.00364117
0.00738499
0.0072764
0.0055635
0.00501064
0.00110106
0.00549259
0.00432289
0.00670563
0.00703546
0.00384791
0.00125732
0.00746306
0.00101801
0.00420907
0.00024914
0.00223859
0.00124041
0.005394
0.00751187
0.00740934
0.00722242
0.00415389
0.00631228
0.0067765
0.00526071
0.00140774
0.00741642
0.00458732
0.00739234
0.00327948
0.00262846
0.00191445
0.00676244
0.00661406
0.00383109
0.00469078
0.00560064
0.00110383
0.00659848
0.00106359
0.00683441
0.006724
0.00712854
0.0036538
0.00736929
0.00718087
0.00263144
0.00545108
0.00617412
0.00232284
0.00711499
0.000360876
0.00713118
0.000793614
0.00449902
0.00618289
0.00428087
0.00747167
0.0059649
0.00325136
0.00370421
0.00676038
0.00408552
0.00741848
0.00342609
0.00744133
0.00742921
0.00358246
0.00109171
0.00301046
0.00646808
0.00584429
0.00714048
0.00661467
0.00497158
0.00340864
0.00501523
0.00287071
0.00484259
0.00557781
0.006674
0.00742431
0.00420957
0.00547918
0.00244501
0.00501344
0.00565175
0.000565421
0.00739128
0.000438276
0.00353493
0.00411334
0.00342922
0.000308522
0.0039676
0.00479259
0.00733159
0.00738789
0.0067455
0.00718811
0.00127212
0.000554512
0.00744911
0.00125913
0.00332237
0.000888293
0.00125308
0.00422139
0.00479884
0.00426359
0.00504091
0.00137711
0.000404068
0.00481626
0.00642894
0.00733716
0.000334148
0.00709227
0.00559854
0.00722783
0.00706603
0.00689836
0.00608776
0.00120158
0.00244517
0.00628509
0.00747081
0.00481157
0.00486268
0.00474194
0.00707271
0.00731923
0.00582712
0.00476066
0.00744159
0.00405874
0.005347
0.00299498
0.00732076
0.00724207
0.00289437
0.00237727
0.00634296
0.00725108
0.00412221
0.00747194
0.00526092
0.00520138
0.00745857
0.00350708
0.00550172
0.0055375
0.0048483
0.00174257
0.0038315
0.00390193
0.00211825
0.00278747
0.00561615
0.00350287
0.00239301
0.00167919
0.00703863
0.00270758
0.00719306
0.00471473
0.00503061
0.0047495
0.0034794
0.00748922
0.00226211
0.00364961
0.00193889
0.00311029
0.00220759
0.0020487
0.00413052
0.00602918
0.00743197
0.00329984
0.00736951
0.00732612
0.00498468
0.00590145
0.00737231
0.00446281
0.00747117
0.00248617
0.00518892
0.00742042
0.00378683
0.00740789
0.00720427
0.00311428
0.0034966
0.00739482
0.0031295
0.00746728
0.00440169
0.00274205
0.00598219
0.00403843
0.00731264
0.00570578
0.00547262
0.00423585
0.0043381
0.00244469
0.0019549
0.00698807
0.00256428
0.00212361
0.00256136
0.000564736
0.00200449
0.000679558
0.000935418
0.00626808
0.000927162
0.00304509
0.00430426
0.00382055
0.00349495
0.00375607
0.00410882
0.00709336
0.000780704
0.00611547
0.00737545
0.00595014
0.00506608
0.00352001
0.00316379
0.00718954
0.00518167
0.00461698
0.00401484
0.00731154
0.00399917
0.00568607
0.00113538
0.000844701
0.000593481
0.00742328
0.00692979
0.00745756
0.00336339
0.000852896
0.00397358
0.00296355
0.00162155
0.00485852
0.00342455
0.0031068
0.00374989
0.00173774
0.00179327
0.007389
0.00559098
0.00704638
0.00430574
0.00736238
0.00434357
0.00561327
0.00645394
0.0047075
0.00429067
0.00112866
0.00472503
0.00446338
0.00297637
0.0074414
0.000944141
0.0065842
0.00714995
0.00658704
0.00727979
0.00723885
0.00735037
0.00643317
0.00690687
0.00657952
0.00584668
0.00711735
0.00416645
0.00424105
0.00712947
0.00726811
0.0054989
0.00704241
0.0069544
0.00307071
0.00440933
0.0075398
0.00687699
0.00385907
0.00193681
0.00633235
0.00439546
0.00374215
0.00704071
0.0068332
0.00286982
0.0074334
0.00512548
0.00736262
0.00286076
0.00109993
0.00431151
0.00744269
0.00192618
0.007425
0.00588735
0.0039563
0.00502494
0.00734263
0.00563193
0.00735359
0.00735496
0.0048223
0.00417464
0.00439959
0.00417744
0.00655545
0.00717891
0.00413438
0.00702199
0.00720751
0.00431704
0.00600788
0.00530521
0.00696975
0.00544726
0.00381468
0.00243451
0.00692531
0.000818778
0.00718322
0.00220726
0.00496169
0.00355669
0.00355225
0.0069677
0.00249328
0.00705049
0.00373054
0.00724857
0.00104108
0.00105554
0.00739899
0.00321914
0.00415582
0.00386871
0.0042848
0.00453752
0.00422215
0.00408869
0.00510896
0.00737472
0.00323569
0.00479076
0.00676291
0.00333934
0.0044132
0.0064621
0.00100699
0.000400656
0.00698825
0.000521689
0.000487856
0.00406668
0.000480466
0.000698971
0.0068228
0.00417271
0.00445034
0.00429789
0.000928055
0.00400722
0.00674122
0.00664301
0.0046271
0.00457458
0.00417332
0.00420856
0.000894053
0.000743328
0.00144497
0.00543681
0.00118108
0.00380262
0.00615696
0.0074062
0.00595985
0.00743491
0.00423674
0.0047895
0.00284705
0.00499922
0.00748963
0.00435092
0.00577581
0.00450859
0.00742011
0.00527738
0.00507207
0.00523373
0.00562906
0.00345707
0.00292538
0.00545303
0.00429512
0.00740586
0.00113658
0.00283839
0.00244616
0.0074351
0.00270232
0.00292701
0.00357192
0.00743572
0.00456239
0.0073906
0.00499567
0.00341619
0.00343598
0.00407549
0.00378266
0.00633176
0.00241062
0.000936084
0.0071455
0.00185117
0.00580572
0.00184137
0.00698421
0.00655434
0.00732391
0.00497202
0.00595332
0.00313767
0.00562609
0.00695485
0.00741333
0.00752667
0.0046656
0.00277596
0.00436313
0.0074184
0.00605143
0.00612686
0.00608164
0.00580994
0.00503355
0.00468676
0.00293697
0.00472459
0.00372113
0.000723043
0.00565406
0.00497952
0.00652694
0.0074121
0.00186071
0.00187487
0.00461853
0.00682797
0.00444548
0.0044827
0.00692269
0.00188429
0.00748019
0.00236077
0.00260994
0.00293566
0.00589532
0.00307354
0.00750012
0.0047495
0.00483045
0.00718472
0.00735619
0.0066409
0.00088686
0.00547188
0.00254948
0.00721651
0.00180316
0.00715945
0.00585261
0.00241572
0.00257968
0.00494706
0.00720771
0.000755621
0.006299
0.00587999
0.00632007
0.00672298
0.00732578
0.00248952
0.0028409
0.00677128
0.00640116
0.0051091
0.00733979
0.00193207
0.00737504
0.00557914
0.000550741
0.00477473
0.0073694
0.000833644
0.00142396
0.00732804
0.000332082
0.000352044
0.00466046
0.0074355
0.00644154
0.00744123
0.00435669
0.0040146
0.00141014
0.00744202
0.00283416
0.00662105
0.002133
0.00237801
0.004352
0.00504356
0.00172529
0.00441387
0.00654761
0.00371441
0.00379798
0.00305853
0.00306354
0.00308236
0.00674936
0.00361344
0.00285216
0.00377974
0.00537881
0.00337846
0.00397177
0.00700194
0.00282595
0.00383171
0.00437405
0.00285959
0.00347356
0.00507168
0.00493164
0.00656004
0.00195751
0.00508951
0.00691705
0.00710128
0.000315207
0.00417905
0.00570332
0.0005942
0.000780219
0.00742307
0.00480439
0.00024788
0.00213191
0.000898058
0.00246062
0.00315465
0.000622568
0.00580638
0.00691128
0.00591583
0.00334821
0.00335705
0.00332907
0.00719568
0.00319509
0.00522753
0.0041259
0.00680637
0.00439722
0.00429796
0.00189939
0.000927322
0.00294347
0.00323677
0.00417977
0.00662376
0.00346768
0.00740079
0.00604533
0.0056759
0.00528084
0.00666291
0.00203633
0.00470022
0.00704613
0.00181994
0.00200136
0.000970678
0.0013738
0.00408443
0.00758489
0.00488166
0.00736166
0.00101981
0.0048326
0.00110238
0.00432052
0.00429636
0.00588442
0.00495121
0.00579136
0.00386813
0.00223125
0.00388413
0.00611948
0.00191974
0.00470413
0.00748602
0.00459333
0.00405194
0.000836907
0.00591162
0.00187886
0.00401664
0.00747377
0.00726418
0.00260299
0.00432273
0.00435632
0.00741021
0.00532405
0.00464779
0.00467045
0.00433014
0.0043022
0.00528798
0.00103509
0.000680194
0.00475386
0.000898399
0.00509269
0.00307128
0.00355836
0.00697215
0.00445445
0.00558679
0.00442885
0.00430477
0.00730625
0.000617098
0.0023799
0.00355109
0.00514335
0.00708239
0.0038762
0.00635983
0.00252962
0.00739548
0.00124227
0.00419769
0.00723677
0.00444574
0.00692749
0.00571151
0.00486328
0.00679925
0.00375873
0.00741384
0.0071553
0.00474582
0.00104577
0.00748883
0.000595681
0.00220556
0.00240672
0.000577042
0.0043819
0.00350741
0.00246546
0.00405502
0.0008468
0.000406369
0.000939941
0.00356553
0.00563279
0.00383903
0.00304808
0.000977063
0.00265443
0.00383498
0.00642944
0.00488409
0.00449466
0.00321005
0.0061688
0.00439206
0.00129668
0.00226344
0.005567
0.00246481
0.00119847
0.000774952
0.00395693
0.000426037
0.00183669
0.000706221
0.000897984
0.0045047
0.0030703
0.00738467
0.0070108
0.00495608
0.000481222
0.00146873
0.00488256
0.00494479
0.00737961
0.000806159
0.000487223
0.00741429
0.00230621
0.00381433
0.00740638
0.00226505
0.00740153
0.00746681
0.00468451
0.00495834
0.0016939
0.00680224
0.00741428
0.00558325
0.00533661
0.00531148
0.00118177
0.00184418
0.00732929
0.00145904
0.00695508
0.0072903
0.0072031
0.00184336
0.00463411
0.00196813
0.00284411
0.00623255
0.00742444
0.00143818
0.000737381
0.00473924
0.00409116
0.00187994
0.00553713
0.00562601
0.00314022
0.00287965
0.00294542
0.00355933
0.0023791
0.00114953
0.00742377
0.00123087
0.00627683
0.00395612
0.00740176
0.00210889
0.00283035
0.00749566
0.00243441
0.00138835
0.00403968
0.00184227
0.00535022
0.00630814
0.00489391
0.00350057
0.00486526
0.00334608
0.000758492
0.00505227
0.00310734
0.00182342
0.00181073
0.000808406
0.00177003
0.00423211
0.000587532
0.00735106
0.00703324
0.00441599
0.00259117
0.00401242
0.0015646
0.00145995
0.0033063
0.00604801
0.00494928
0.00332048
0.00364578
0.00400484
0.00466844
0.0012559
0.00413922
0.00505632
0.00217104
0.00182102
0.00398722
0.000575251
0.00399696
0.00537669
0.00386893
0.00404481
0.00575151
0.00730165
0.00337679
0.00386869
0.000859587
0.0029709
0.00501887
0.00377133
0.00620144
0.0035612
0.000856048
0.00462698
0.00212533
0.00642428
0.00220198
0.00286757
0.00376008
0.00546883
0.00531253
0.0035796
0.00162905
0.00405407
0.00174899
0.000762896
0.00552706
0.00727463
0.00584868
0.00118981
0.00586049
0.00174008
0.00669442
0.00173993
0.00177058
0.00352221
0.00351304
0.00434521
0.00739973
0.00514993
0.0032067
0.00101898
0.00239855
0.000744773
0.00737832
0.00260994
0.00296651
0.00237454
0.00382688
0.00321502
0.00170953
0.00166918
0.00360194
0.00091239
0.00379547
0.00386652
0.00469496
0.00523682
0.00395571
0.00511427
0.00144541
0.00364725
0.00395103
0.00533821
0.00657826
0.000848191
0.0020226
0.00076968
0.00179769
0.00130519
0.00210216
0.00400319
0.00138255
0.00383525
0.00143861
0.00203306
0.002069
0.00133269
0.00343483
0.00589771
0.00469789
0.00748802
0.00163823
0.00375686
0.00357689
0.00471229
0.00161429
0.0064562
0.00449587
0.00658431
0.0074643
0.00298889
0.00218441
0.00304813
0.00369223
0.00639382
0.00236326
0.00716552
0.00337203
0.00321611
0.0073771
0.00271217
0.00197539
0.00486106
0.00249603
0.00422162
0.00274744
0.00208317
0.0029706
0.0032054
0.000230692
0.000605224
0.00166769
0.00042391
0.00343963
0.0036021
0.000614386
0.00056911
0.0059898
0.00116851
0.00340148
0.00424963
0.000538948
0.00266291
0.00710299
0.00324622
0.00175458
0.00688292
0.000761727
0.000352437
0.00239909
0.00080866
0.00230759
0.00101279
0.000895819
0.00593167
0.00466593
0.00278811
0.00215062
0.00381253
0.00726677
0.00236271
0.000701972
0.00596806
0.00176757
0.00473642
0.00211789
0.00685466
0.0062968
0.00202636
0.00204774
0.00435341
0.0018836
0.00570373
0.00131483
0.00736695
0.00682252
0.00299178
0.00186047
0.00495062
0.00742461
0.000809379
0.0014581
0.00170266
0.00377048
0.00338386
0.00213878
0.00113423
0.00435057
0.0011231
0.00198961
0.00585741
0.00335561
0.00214973
0.000777195
0.00255958
0.00207839
0.0059586
0.00599212
0.00221546
0.00429985
0.0029721
0.00517172
0.0074045
0.00705104
0.0045915
0.00245708
0.000745606
0.00475439
0.000506261
0.00473884
0.00463809
0.00307642
0.0060379
0.00395825
0.00474518
0.00495061
0.00197102
0.00637788
0.00157762
0.00744197
0.000390469
0.00127154
0.00159433
0.00200868
0.00464472
0.00555615
0.00356189
0.00649745
0.000721364
0.000722317
0.0034732
0.00218485
0.000931125
0.000961961
0.0023931
0.0011832
0.000509708
0.00375611
0.00678878
0.00050535
0.00414793
0.00517182
0.0046351
0.000778938
0.00065735
0.00424231
0.00457834
0.00144154
0.00238567
0.000847707
0.000789084
0.00332757
0.0010778
0.00116645
0.00343802
0.00494077
0.00120951
0.00663235
0.00118533
0.000240566
0.00744628
0.00511071
0.00418861
0.0061341
0.00308265
0.00327345
0.00743082
0.00303869
0.00417861
0.000968484
0.00176239
0.00542607
0.00142873
0.00532349
0.000399155
0.00699244
0.00384953
0.00240096
0.00672828
0.00107761
0.0040485
0.00316754
0.00240182
0.00225653
0.00407622
0.00283491
0.0021324
0.00078151
0.00683973
0.00133215
0.000770987
0.00109094
0.00475503
0.00111018
0.00200789
0.00478308
0.00517788
0.00116873
0.00202324
0.00255135
0.000805712
0.00258644
0.00108275
0.00279894
0.00295638
0.00228963
0.00097775
0.00337254
0.006874
0.00225031
0.00429374
0.00255702
0.00239044
0.000664985
0.0058225
0.00410739
0.00576011
0.00154237
0.00561751
0.000585149
0.00249502
0.00560123
0.00738751
0.00198197
0.00189127
0.000995891
0.001964
0.0025165
0.00127753
0.000976826
0.00429446
0.000946157
0.00359994
0.00313162
0.000512577
0.00158187
0.00308898
0.00285105
0.00561463
0.00167739
0.000487356
0.00187524
0.00232874
0.00270349
0.00726933
0.00205949
0.00560921
0.00379853
0.00627989
0.00119692
0.00221936
0.00156716
0.00440565
0.00176326
0.00426083
0.00294623
0.00129124
0.00191843
0.00244916
0.00268773
0.00603848
0.000425282
0.00163817
0.00170851
0.00147975
0.00291086
0.00594375
0.00113906
0.000597958
0.00169497
0.00313783
0.0028587
0.00219124
0.0025797
0.00103533
0.00590766
0.00142468
0.00163699
0.00628801
0.0014641
0.00347577
0.00263424
0.00291519
0.00149254
0.00248145
0.00688776
0.000714101
0.00342861
0.00068732
0.0026956
0.00426628
0.00265284
0.00222811
0.00154567
0.00309728
0.00434851
0.00315782
0.0014444
0.00437089
0.00489878
0.000640144
0.00736151
0.00381459
0.000866076
0.00429162
0.00278089
0.00154015
0.00248436
0.00116808
0.00422714
0.000192333
0.00186176
0.00152004
0.00213456
0.0013097
0.00330662
0.000938011
0.00135514
0.00132202
0.00323084
0.00405166
0.00740455
0.00420306
0.00393245
0.00292863
0.00067482
0.00385179
0.00610875
0.00536557
0.00555069
0.0035413
0.00427094
0.00751344
0.0074717
0.00306213
0.00100134
0.00729468
0.00287776
0.00238977
0.00552284
0.00702231
0.00292149
0.00277878
0.00746968
0.00606435
0.00348604
0.00368757
0.00696037
0.00389447
0.00109793
0.00397492
0.00424827
0.0060837
0.00737548
0.00157327
0.00502097
0.00630887
0.000743591
0.00123903
0.00099427
0.00713921
0.000933879
0.000462332
0.00707725
0.000321031
0.000836069
0.000535898
0.00400255
0.00517433
0.00437652
0.00163376
0.00731807
0.00450409
0.00461879
0.00402774
0.00291064
0.00379216
0.00353462
0.00121595
0.00445365
0.00293993
0.000912128
0.0040459
0.000428027
0.00202677
0.00131774
0.00713537
0.00310718
0.00203082
0.00653995
0.00510699
0.0019506
0.00743556
0.00227195
0.00187701
0.000402483
0.00713397
0.00160223
0.00595539
0.00313935
0.003014
0.00596686
0.00144215
0.00533832
0.00236114
0.00548538
0.00131796
0.000274563
0.00437884
0.00736923
0.000345412
0.00491038
0.000309254
0.00396381
0.00384495
0.0047236
0.00461622
0.00584573
0.0071101
0.00434354
0.00227228
0.00587778
0.00222262
0.00418154
0.00391042
0.00734461
0.00236688
0.000899856
0.00409802
0.00317737
0.00580218
0.00501516
0.00313792
0.00437145
0.00473972
0.00620735
0.00244501
0.00268021
0.00747216
0.00399884
0.0043393
0.00530226
0.0038914
0.00382465
0.0026333
0.00422543
0.00408478
0.00253169
0.00399616
0.00634728
0.00515256
0.0067878
0.00215821
0.0022731
0.00196223
0.00365832
0.00502238
0.00460598
0.00135216
0.00624597
0.00605488
0.00576156
0.00166311
0.00301063
0.00132338
0.0013234
0.00128532
0.00386708
0.00497039
0.00489
0.00460442
0.00681378
0.00128068
0.00453001
0.00705383
0.00436512
0.00331117
0.00466505
0.00115414
0.00474158
0.0023934
0.00284925
0.00355207
0.00643524
0.00477929
0.00389926
0.0039639
0.00496774
0.00311554
0.00362082
0.002949
0.00390406
0.00508939
0.004909
0.00225429
0.00199446
0.00517856
0.00433421
0.00247805
0.00384065
0.00231541
0.00727314
0.00621573
0.00246502
0.00493979
0.00619947
0.00480028
0.00715867
0.00725606
0.00410918
0.00457315
0.00207648
0.00478961
0.00275347
0.00690295
0.00482022
0.00100511
0.00430608
0.00431956
0.00566953
0.00551845
0.00409257
0.00435903
0.00034221
0.00349539
0.00375929
0.0066699
0.00572913
0.00512311
0.00743077
0.00687924
0.00353625
0.00425144
0.00691093
0.0072368
0.00270012
0.000983383
0.00142907
0.00310826
0.00183428
0.00356639
0.00434218
0.00357777
0.00174117
0.00202295
0.00371476
0.00424807
0.000870355
0.00517436
0.00425188
0.00404777
0.00414587
0.00725295
0.000341849
0.0049883
0.00377431
0.00740277
0.00278835
0.00315689
0.000396344
0.000254366
0.00499809
0.00634732
0.00733534
0.00412367
0.00380979
0.0058233
0.00023946
0.00106091
0.00517798
0.00259986
0.00143766
0.00529843
0.00590604
0.00299442
0.00735383
0.00542197
0.00712867
0.00460611
0.00262198
0.00409589
0.00440801
0.00591299
0.00220633
0.0045599
0.00743706
0.00121416
0.00571739
0.00383605
0.00312246
0.00098906
0.00134413
0.00355518
0.00288036
0.0059297
0.00284792
0.00296775
0.00692222
0.000621585
0.0014325
0.00287993
0.00403416
0.00340649
0.00401032
0.00400043
0.00108023
0.00743361
0.00710497
0.00574894
0.00540636
0.00099549
0.00141385
0.00124435
0.00179895
0.00337225
0.00288113
0.00744507
0.00757324
0.00455234
0.00558127
0.00529257
0.00615683
0.00744194
0.00119108
0.000395089
0.00734143
0.00731556
0.00347755
0.00158969
0.00358062
0.00738795
0.00554951
0.00159038
0.000932682
0.00359154
0.00199726
0.00306997
0.00185228
0.000503108
0.0030567
0.00675264
0.00743146
0.00617215
0.000935529
0.00612454
0.00435116
0.0044364
0.00741428
0.000894605
0.000251695
0.000487838
0.00172162
0.00191125
0.00681629
0.0073832
0.00267905
0.00448422
0.000991943
0.000855898
0.0006283
0.000454246
0.000711964
0.00188282
0.00681712
0.000897588
0.00739611
0.000418901
0.0039126
0.000746802
0.00452051
0.00196402
0.00689095
0.00327923
0.00224807
0.00225797
0.00614748
0.00560691
0.00399698
0.000979309
0.00123533
0.00500914
0.00519349
0.000490272
0.000338
0.00403388
0.00151854
0.000601785
0.00114324
0.00494834
0.0072744
0.000775442
0.000559144
0.00143066
0.00736038
0.00124812
0.00674793
0.000637079
0.00114027
0.000349057
0.00229038
0.00639491
0.0018555
0.00717688
0.00472433
0.0041007
0.00248108
0.00641798
0.0040146
0.00560649
0.00387765
0.00440508
0.00734454
0.00696663
0.0039946
0.0069914
0.00650699
0.00455786
0.005094
0.00186724
0.0039623
0.00247417
0.00411584
0.00659007
0.00491639
0.000950513
0.00370567
0.00351534
0.00227533
0.000655111
0.00455327
0.00277903
0.00381267
0.00105402
0.00206879
0.0013715
0.00523651
0.00720135
0.00538662
0.00361409
0.00611904
0.00352939
0.00336152
0.00401945
0.00735388
0.00506091
0.00620436
0.00482548
0.00322366
0.00486212
0.00378367
0.000726819
0.00376429
0.00421234
0.00451551
0.00310044
0.00118315
0.00223172
0.004374
0.00500666
0.00330754
0.00107733
0.00125439
0.00418801
0.00339131
0.000383961
0.00156809
0.00207963
0.00411868
0.0015503
0.00322771
0.00407235
0.00336773
0.00119878
0.00481799
0.00417941
0.00260001
0.00686275
0.00239136
0.0028104
0.00326767
0.00336738
0.00195937
0.00448533
0.00587442
0.00743952
0.00214778
0.00339912
0.00442243
0.00213017
0.00535212
0.000952167
0.00295373
0.00337776
0.000457878
0.00199287
0.00673857
0.003513
0.000845738
0.00174837
0.0024255
0.0073696
0.00291388
0.00122987
0.00629541
0.00751961
0.000707832
0.00210708
0.00150992
0.00236538
0.0056241
0.00486174
0.00136583
0.000492624
0.00076514
0.00403324
0.00609772
0.000612674
0.00709291
0.00196161
0.00307282
0.00153219
0.0012621
0.00609878
0.00358849
0.00118284
0.00408778
0.00453551
0.00484722
0.00367305
0.00602876
0.00103863
0.000306566
0.00409413
0.00364418
0.000663831
0.000600614
0.000703222
0.00241151
0.00120248
0.00217503
0.000630528
0.00353186
0.00353335
0.000824566
0.00240184
0.00255796
0.000545449
0.000846839
0.000375779
0.0073103
0.00686073
0.000398481
0.00627319
0.00431105
0.000825389
0.00601194
0.00295583
0.00460356
0.00328263
0.00510965
0.00662329
0.000501058
0.000381285
0.00182898
0.000745493
0.00241945
0.00404281
0.004435
0.00485281
0.00337241
0.00539207
0.00601016
0.00439516
0.005336
0.000517507
0.000599746
0.00417914
0.00197666
0.00540614
0.00405262
0.00304048
0.00360225
0.00372843
0.00498199
0.00054617
0.00123891
0.00431825
0.000664802
0.0028404
0.00140777
0.0026166
0.0036371
0.000962199
0.00283957
0.00119116
0.00287285
0.00293004
0.00292908
0.00670046
0.00136896
0.00738199
0.00597633
0.00271099
0.0043567
0.00151249
0.00348276
0.00188517
0.00346823
0.000879867
0.00408831
0.00346946
0.00371902
0.00733527
0.0032536
0.00335943
0.00179232
0.000520236
0.00323916
0.000659499
0.00349866
0.00482694
0.00236467
0.00488893
0.00554183
0.00523554
0.00318959
0.00131642
0.00212189
0.00146484
0.000669021
0.00246116
0.00486647
0.000175446
0.00107518
0.00511863
0.00329091
0.00145261
0.0038686
0.000817412
0.000468669
0.00269023
0.00128487
0.00141898
0.00295348
0.00084896
0.00193227
0.00702786
0.00350968
0.00108444
0.00117877
0.00711727
0.00103636
0.00749851
0.00265611
0.00577475
0.00265458
0.00193621
0.00098866
0.0010586
0.00587977
0.00568687
0.000247727
0.00736914
0.00433131
0.00119368
0.0064228
0.00289713
0.00256671
0.00382526
0.000525643
0.00157958
0.00056397
0.00166504
0.00315272
0.00126981
0.00649604
0.00561366
0.00117619
0.00709492
0.00384055
0.00266238
0.00539859
0.00146407
0.000518302
0.00727434
0.00263972
0.00729343
0.000839394
0.00507564
0.000621909
0.00286687
0.00249398
0.00661786
0.0025975
0.00269299
0.00691006
0.00562851
0.0034188
0.0074492
0.00131356
0.00345008
0.00357031
0.00644803
0.0044556
0.00355609
0.00281896
0.00292964
0.00228958
0.00330062
0.00428913
0.0044129
0.00166041
0.000619487
0.000822415
0.000756661
0.00130694
0.000885986
0.000793691
0.00329372
0.000270065
0.000599826
0.00127673
0.00221005
0.0028934
0.000807571
0.00105106
0.00246855
0.00129928
0.00217799
0.0061661
0.0029116
0.00121054
0.00408933
0.000429247
0.00294876
0.000380429
0.00212541
0.00120146
0.00145069
0.000919925
0.000609476
0.00203975
0.000512554
0.00273346
0.00206522
0.00485311
0.00177324
0.00530449
0.00639777
0.00102822
0.00351863
0.000931906
0.00162559
0.00524742
0.00237866
0.0044334
0.00130524
0.00110951
0.00746719
0.0056141
0.00171993
0.000948515
0.00378095
0.00274312
0.00117485
0.00117792
0.00489141
0.00735296
0.00394973
0.00439799
0.000706648
0.0075018
0.000959166
0.000352609
0.00526841
0.00294701
0.00451464
0.00408976
0.000800779
0.00280526
0.000749212
0.0034739
0.00483912
0.000532359
0.000862756
0.00576113
0.00242406
0.0057578
0.00697674
0.00117901
0.00273567
0.000775245
0.00395217
0.00668745
0.00235194
0.00685258
0.0056624
0.00564989
0.00503684
0.0027783
0.00233787
0.00147479
0.00371286
0.0012237
0.00415643
0.00721224
0.00219058
0.0013307
0.000870416
0.000919242
0.00163989
0.00202157
0.00107241
0.00103292
0.000809214
0.000943759
0.00318785
0.00302764
0.00413825
0.00143299
0.00495117
0.00325084
0.00326264
0.00162095
0.000563171
0.00348283
0.00350989
0.00348094
0.0050737
0.0034265
0.00468103
0.00616795
0.0050304
0.0028371
0.00311983
0.00275011
0.00595033
0.0030334
0.00141958
0.000797572
0.00433016
0.000620858
0.00743076
0.0035413
0.00721313
0.00455626
0.00100099
0.0027485
0.00125503
0.00380635
0.00384674
0.00393866
0.00459481
0.00518124
0.00317976
0.00342003
0.00335157
0.00723757
0.000883774
0.00325534
0.00139058
0.00294708
0.00108535
0.00638061
0.00466362
0.00349902
0.00401567
0.00298725
0.000997661
0.00689955
0.00443397
0.000733367
0.00247027
0.00243093
0.00297355
0.00244048
0.00262277
0.00218851
0.00533672
0.00736091
0.00688066
0.00205983
0.00173002
0.00502429
0.000431153
0.00547995
0.00182285
0.00707765
0.00669071
0.00203176
0.00437627
0.00636004
0.00109081
0.00742049
0.0042498
0.00161259
0.00226939
0.0073006
0.00136426
0.00691187
0.00700707
0.00125604
0.00357799
0.00289485
0.00086691
0.00747339
0.00200427
0.00150782
0.00173796
0.00104693
0.00119258
0.00529368
0.00581816
0.00293345
0.00618098
0.00211171
0.00297875
0.00602088
0.00664448
0.00348213
0.00127162
0.00300698
0.00440824
0.00229356
0.00343835
0.00240823
0.00738903
0.00210017
0.00130208
0.00369923
0.00376625
0.00558771
0.00522633
0.00360197
0.00433787
0.00226225
0.00380448
0.000612625
0.0044446
0.0069978
0.00105057
0.00287008
0.000678914
0.000982643
0.00575374
0.00367993
0.00135872
0.00309409
0.000441881
0.00150282
0.000663575
0.00163766
0.000494925
0.00297043
0.00184071
0.00168751
0.000601762
0.00115741
0.00300866
0.000603981
0.000372716
0.00209126
0.000359109
0.000933912
0.00174316
0.00247356
0.000643819
0.000969332
0.00747366
0.00375477
0.00106258
0.000829474
0.00106381
0.00140917
0.0016434
0.00079504
0.00291472
0.00371979
0.00454269
0.00719656
0.00321774
0.00685229
0.00110557
0.00300344
0.00442003
0.000745022
0.00396515
0.00233242
0.00475319
0.0067979
0.00320364
0.00445879
0.00180184
0.00710045
0.00203958
0.000617099
0.00517218
0.00733703
0.00353763
0.00543318
0.00117749
0.00277824
0.00589418
0.0064227
0.00062563
0.00682106
0.00411448
0.0071577
0.00184309
0.00328309
0.0045183
0.006049
0.00538078
0.00144506
0.00369218
0.0025007
0.00739348
0.00732867
0.00720842
0.00373563
0.00476546
0.00366944
0.00622481
0.00347595
0.00367991
0.00284147
0.00129147
0.00130575
0.00351654
0.0019917
0.00426766
0.00274818
0.00351756
0.00374785
0.00677037
0.00318206
0.00432195
0.00649644
0.0021245
0.00469479
0.00307492
0.00116732
0.00496142
0.00282483
0.00134718
0.00400295
0.00118588
0.00202352
0.00115018
0.000376326
0.00285401
0.00566007
0.00214324
0.000491349
0.00357861
0.00718058
0.00668563
0.00604218
0.00372084
0.00470495
0.00738793
0.00734697
0.00401439
0.00293983
0.00747682
0.00690504
0.00746557
0.00573658
0.00319917
0.00188979
0.00311099
0.00641819
0.0037348
0.000964354
0.00566691
0.00636894
0.00360567
0.000557022
0.000657938
0.00375113
0.0053908
0.0052009
0.00333573
0.00408281
0.000635592
0.00197622
0.00515278
0.00407194
0.0067783
0.00365725
0.00192894
0.00389761
0.0032844
0.00377556
0.00139328
0.001981
0.00159985
0.00102805
0.000353195
0.00196475
0.00194761
0.00398595
0.00402348
0.00353286
0.00328912
0.00652381
0.00449797
0.000474778
0.00733603
0.00184009
0.00127298
0.00338004
0.0030123
0.000480237
0.00203631
0.00421177
0.00389796
0.00748145
0.00307979
0.000961372
0.00387589
0.0017189
0.00449196
0.00292449
0.000703938
0.000916414
0.00360554
0.00343035
0.00113632
0.00494637
0.000720235
0.000683778
0.00132009
0.00741963
0.00720749
0.000326756
0.00655717
0.000507928
0.00222846
0.00329194
0.00116842
0.000998383
0.00675999
0.00746868
0.0010014
0.00684026
0.00632632
0.00523085
0.00709421
0.00437198
0.00394495
0.00238803
0.00615527
0.000370648
0.00324946
0.00473976
0.00392059
0.000330097
0.00431433
0.000587612
0.0051777
0.00366645
0.00388183
0.00118446
0.00561168
0.00505016
0.00520888
0.000936825
0.00213191
0.00213321
0.00148432
0.00282812
0.00661071
0.000830522
0.00313542
0.0033279
0.00322394
0.00485861
0.00324261
0.00387964
0.00717565
0.000405288
0.00148614
0.00465628
0.00517147
0.00220908
0.00463016
0.00289789
0.00331499
0.0052808
0.00235262
0.00490521
0.00530881
0.00427506
0.00149201
0.00468075
0.00495232
0.00515736
0.00359948
0.00686068
0.00539527
0.00570097
0.00280849
0.00422387
0.00273399
0.00258344
0.00378781
0.000553517
0.00537539
0.00318414
0.00126194
0.000767225
0.00150977
0.00380809
0.00355138
0.00196593
0.000304157
0.00399137
0.000898475
0.00402575
0.00740025
0.00282495
0.00179057
0.00389312
0.00503226
0.00745581
0.00556814
0.000348748
0.00551521
0.00691444
0.00260603
0.000436259
0.000473458
0.00408187
0.000289812
0.000869949
0.00112242
0.00152829
0.000780454
0.000428285
0.00547372
0.000964005
0.00402351
0.00629479
0.00429698
0.000487533
0.00212684
0.00700607
0.00617963
0.00100483
0.00502754
0.000524797
0.00639865
0.00294776
0.00522997
0.00298318
0.000650745
0.00740549
0.00318254
0.00285619
0.00613266
0.00373056
0.00645092
0.00293421
0.000556462
0.000533962
0.000652993
0.0016028
0.00144399
0.00667335
0.00678894
0.00551671
0.00371529
0.00729921
0.00168605
0.00747499
0.00102308
0.00421792
0.00709272
0.00629388
0.0047887
0.00709908
0.00363678
0.00303996
0.00722189
0.00319689
0.000955478
0.00621043
0.00116335
0.000926209
0.00679061
0.000282462
0.000567944
0.00285781
0.00296303
0.00401708
0.00131571
0.00433498
0.00213463
0.00159336
0.00592726
0.00170936
0.00714955
0.00225014
0.00437735
0.00243775
0.00196277
0.000775848
0.00332851
0.00394618
0.000723039
0.00147018
0.00218374
0.00149395
0.00565977
0.00141031
0.00440747
0.00195266
0.00310816
0.00611377
0.00135873
0.0026255
0.00249332
0.00649306
0.000695237
0.000893917
0.000512716
0.00640165
0.00447174
0.000964923
0.000640902
0.00214099
0.00406285
0.00252396
0.0011898
0.000772262
0.00200342
0.0053508
0.00316517
0.00440913
0.005484
0.00402745
0.000647402
0.00565123
0.0020002
0.003157
0.00703125
0.00263422
0.00271455
0.00610264
0.00401592
0.00421304
0.00230719
0.00133185
0.0047677
0.00357576
0.00226952
0.00263526
0.0029173
0.00198683
0.00185605
0.00363913
0.00629995
0.00618012
0.00589823
0.000776415
0.00395608
0.00108562
0.00350842
0.00411486
0.00566998
0.00350112
0.00701047
0.00251145
0.00747435
0.0024634
0.00241322
0.00361019
0.00468993
0.00243424
0.00353256
0.00308167
0.00427414