/*--------------------------------*- C++ -*----------------------------------*\
| =========                 |                                                 |
| \\      /  F ield         | OpenFOAM: The Open Source CFD Toolbox           |
|  \\    /   O peration     | Version:  2506                                  |
|   \\  /    A nd           | Website:  www.openfoam.com                      |
|    \\/     M anipulation  |                                                 |
\*---------------------------------------------------------------------------*/
FoamFile
{
    version     2.0;
    format      ascii;
    arch        "LSB;label=32;scalar=64";
    class       volScalarField;
    location    "0.0351115";
    object      omega;
}
// * * * * * * * * * * * * * * * * * * * * * * * * * * * * * * * * * * * * * //

dimensions      [0 0 -1 0 0 0 0];

internalField   nonuniform List<scalar> 
47425
(
55.8278
68.1413
71.2024
164.546
134.485
72.2787
91.8162
103.711
49.3989
577.77
141.136
49.2758
68.4691
78.8923
93.6588
91.5217
68.0447
50.8577
1176.65
175.269
87.0039
46.8076
107.846
64.4202
48.5478
46.0136
77.7689
669.483
70.3993
56.3778
46.9543
49.1294
47.855
65.0167
53.3851
68.1591
46.4209
67.6284
64.9256
75.3324
73.6232
67.7942
110.471
145.018
1308.26
108.732
97.8812
77.9418
78.6495
49.0447
579.69
211.338
50.1862
823.76
115.731
123.887
45.8774
56.6505
84.6625
62.4904
1137.46
1089.43
853.017
48.0177
49.3602
47.5395
63.0561
73.5834
786.3
47.9695
78.1646
50.9872
48.4323
90.0306
684.048
49.4116
830.406
81.4598
1388.8
247.257
714.739
64.2486
46.3519
47.5704
46.9852
83.6156
53.6655
49.832
103.683
405.073
47.3583
78.8348
46.5881
116.214
149.244
196.866
50.0964
51.1113
87.1981
81.0121
62.2158
91.6488
52.2698
100.831
50.158
54.3248
47.5531
92.9747
46.5145
49.2808
326.071
63.6182
65.242
156.429
49.8471
917.082
49.4562
231.094
81.5618
59.0383
79.2253
48.5653
59.6537
61.5121
99.3292
59.1495
85.4938
49.1961
107.65
46.1859
46.9437
100.065
134.322
124.182
61.4053
64.8677
49.104
61.2248
68.7303
99.3085
71.4546
135.68
72.7018
80.6398
53.8218
49.3325
106.795
63.7311
153.992
72.6106
78.9686
483.41
48.8021
694.09
49.3252
85.4421
57.7307
902.83
95.5775
75.3357
49.9726
46.3443
50.3728
48.0828
390.114
831.858
47.1216
687.89
107.438
687.845
689.61
88.2981
73.9939
47.9995
74.7654
68.5012
714.65
69.2678
52.8681
46.5759
1001.6
47.4618
59.9165
47.5977
48.0374
50.55
56.4604
83.2041
149.744
53.6327
47.9806
69.9583
77.8195
77.0582
48.9192
48.334
61.908
74.1999
49.005
80.5357
67.1473
123.279
46.9469
48.8899
51.9669
159.231
52.6478
48.5036
89.1166
48.5005
63.5882
65.0753
47.6522
94.0453
62.2023
62.773
69.73
253.311
50.2591
95.4066
276.582
114.685
87.2939
94.7643
167.597
232.825
48.7348
130.978
52.7707
60.9158
66.8738
74.0139
108.005
49.3267
167.097
95.2448
304.903
117.167
252.861
181.946
84.2674
56.2934
46.1626
105.122
46.3879
49.5671
67.668
60.9676
45.8851
76.4828
45.5168
207.728
66.6119
49.2891
92.0531
45.8032
47.6167
123.301
96.0166
48.422
128.057
47.7536
77.3716
136.494
67.9255
92.7117
46.9481
68.2257
61.6501
82.9602
79.1462
221.507
298.609
48.6599
207.543
180.951
208.185
119.469
283.698
179.399
1175.38
54.05
1112.91
126.813
80.5968
85.8909
107.302
91.4505
92.4528
51.1998
608.883
47.4409
50.344
56.5468
66.8752
102.235
114.895
47.1969
66.4334
57.7877
92.0615
46.8734
89.7985
59.6304
765.244
1031.53
675.937
45.9669
48.9433
46.0277
104.412
680.294
87.8827
119.745
222.137
76.6521
106.481
124.88
92.2754
375.482
196.905
47.1205
60.8226
47.6399
84.6674
45.9495
77.6833
60.1337
52.3332
72.0063
79.2615
594.826
54.7349
76.3341
129.305
46.1687
624.15
53.362
47.4455
51.7437
47.5903
47.8188
45.7605
54.0702
49.3633
51.8423
58.2563
49.0389
82.0163
87.2939
48.7068
47.9599
63.4117
49.9049
49.9119
50.9324
80.0966
46.0711
50.825
93.6943
59.3042
59.0094
82.0245
93.8233
48.0657
50.661
133.959
48.3259
68.3904
47.2345
133.54
943.215
77.7649
47.6636
200.243
47.6288
67.1536
96.0685
72.5696
46.6774
63.6342
47.8171
45.6154
73.8318
88.7554
82.8865
84.8646
52.9283
49.0656
85.1228
49.8124
48.4751
82.7885
56.1999
65.7358
49.938
63.2455
91.6359
65.5793
48.8378
482.77
47.5219
363.283
73.1969
108.049
105.883
48.6792
147.576
47.5882
96.4636
48.2864
628.681
346.49
46.0196
50.8037
81.3756
87.0259
80.9832
76.8015
79.2626
90.8086
68.8421
45.9738
104.032
70.7422
49.6142
80.2794
76.59
54.1076
142.211
1313.57
48.9016
280.179
1086.84
91.5047
1120.73
887.011
49.9276
80.6379
76.0176
78.3478
704.731
91.7737
50.6984
51.4672
74.2084
75.0703
82.4634
81.361
453.362
757.455
148.219
65.643
74.1944
116.76
55.5303
47.4126
65.2994
47.0193
84.1673
75.8312
132.711
68.666
49.3514
78.4199
59.4799
80.8356
47.8986
65.0179
67.4398
67.0177
63.5851
110.832
125.794
62.0401
86.1309
47.4944
481.253
131.9
73.9659
47.1037
140.865
233.678
49.2913
45.8933
49.4889
48.0003
68.8214
50.4505
110.436
81.1758
49.3321
53.407
150.09
99.4871
47.1036
52.7522
59.254
56.4587
48.6239
51.8471
46.2885
68.3242
57.3924
113.57
60.4848
48.4517
46.3624
47.0386
75.6436
130.421
47.9688
45.9164
56.9199
54.7019
54.9315
59.3374
72.5723
72.7644
52.0516
76.9233
100.923
426.032
61.8771
69.1228
55.1336
49.3497
121.725
122.008
79.4996
50.181
83.3375
100.667
50.1355
133.123
48.4926
232.926
51.8003
53.1726
58.1234
118.34
45.7818
72.7176
72.7841
47.7613
45.6935
50.71
1135.7
62.4411
152.695
47.2534
94.0926
47.9206
58.3356
80.0578
71.4654
70.8406
47.0733
418.846
53.7255
58.2087
53.7387
50.484
46.5967
58.9589
114.682
49.5973
53.1119
68.397
46.6038
222.403
47.206
61.6897
526.07
73.1611
45.9768
387.514
545.565
47.6186
676.181
714.593
71.7914
47.3165
52.5369
46.1434
86.9038
92.1398
524.565
46.4269
132.188
51.1015
102.375
57.7593
85.7251
68.4933
529.518
279.85
53.0207
94.2692
89.5129
85.5674
124.526
128.359
51.4736
98.8146
132.95
88.032
68.127
129.484
52.2019
49.4761
129.899
95.5959
78.3333
125.882
104.033
66.4619
73.473
59.0004
56.6215
69.1369
49.8505
48.1357
1339.94
61.6787
72.8201
1059.36
1020.11
45.903
78.9218
1662.27
174.243
90.8945
283.837
119.483
765.017
58.226
49.8515
60.3292
157.081
113.817
112.868
47.1588
120.519
65.3912
82.995
50.6515
82.4812
57.4405
385.749
686.434
124.607
51.9982
87.5058
46.8173
110.992
47.7964
58.6113
63.6159
66.2784
47.7673
186.216
76.233
47.9158
72.392
192.281
855.544
203.803
89.9174
46.2246
75.4006
46.4532
852.79
71.0197
550.353
86.2042
106.059
64.1946
71.1534
61.3255
85.9011
56.9132
88.7205
54.6421
209.886
85.8833
49.2377
69.7244
90.8213
1056.79
63.9971
205.426
66.6217
48.6784
46.3434
147.545
79.9118
69.6501
46.9464
65.3152
65.0112
75.1076
81.2657
80.0531
64.5013
123.956
192.718
71.7114
96.5849
66.8889
116.151
93.8631
48.5921
89.8827
59.5409
76.0067
80.6124
46.7229
298.11
426.198
98.2311
67.3979
48.0419
93.1373
53.0153
140.737
49.0554
237.736
84.1806
46.8861
79.144
49.1425
59.5385
70.9487
50.0136
90.8117
46.576
47.3778
50.1471
165.927
45.3363
395.589
222.933
243.084
357.849
82.4131
192.396
59.0565
50.1328
147.589
350.988
367.461
99.2831
59.65
118.723
120.362
160.586
133.753
95.5936
52.7802
70.2958
98.1194
116.991
58.0712
85.2489
371.941
59.8084
63.0751
153.55
122.244
116.674
136.754
729.217
494.787
231.208
256.058
80.6462
121.225
46.1786
48.3604
73.8331
404.015
186.303
73.4569
74.6988
46.4893
362.026
354.602
45.7666
172.813
92.3282
46.0204
169.736
45.8881
45.8505
72.866
73.7854
88.8665
50.0495
46.2233
60.8282
70.6346
69.1599
144.593
101.819
45.8385
254.088
48.6385
46.6918
47.2164
202.394
80.9943
265.554
120.336
54.3089
46.3869
69.1362
1209.24
74.1587
85.6426
76.3477
66.0066
61.8432
120.191
124.151
127.959
303.433
89.4572
744.38
49.4199
68.6724
54.4712
62.5097
46.3702
170.898
130.235
46.1784
325.66
102.055
68.8027
262.318
74.0694
53.9396
73.3292
66.6305
70.7855
111.42
361.369
67.4464
72.16
211.365
225.627
663.286
220.574
91.4954
181.993
46.9223
48.9955
99.2099
159.707
88.361
85.0082
95.8609
104.761
49.6006
67.9765
108.776
101.627
91.8993
258.467
626.216
95.4076
99.6367
128.285
682.234
276.764
216.278
94.6198
67.1644
96.6308
95.0715
146.204
46.8906
50.18
96.6268
442.966
121.603
70.0053
98.3904
54.535
110.855
129.24
78.5964
442.203
53.3274
66.4494
131.338
97.2936
65.4873
66.3256
104.761
101.044
94.6451
61.9578
132.82
48.109
47.1604
48.4531
86.0451
57.7612
151.15
54.0216
224.252
297.658
247.599
95.7427
83.6924
47.8053
70.3034
116.044
478.772
232.058
923.456
46.8552
59.3926
55.9729
298.679
88.3598
302.59
240.813
235.145
127.918
243.16
90.713
85.8195
72.9814
48.6455
111.095
69.0691
74.0508
202
78.9078
63.1739
51.7906
264.45
432.66
151.043
184.226
646.785
193.531
94.4127
73.3418
87.9434
108.659
186.83
190.484
636.046
49.0028
57.6634
72.3974
48.1002
65.1074
102.797
98.1067
53.9022
111.096
53.1478
78.8611
52.1393
47.4921
126.848
64.584
123.651
48.1078
47.3808
164.752
48.1973
98.2795
106.063
47.5963
63.3428
121.081
75.1835
65.5616
80.2238
456.846
186.818
126.217
109.584
1855.56
972.622
629.878
421.154
106.226
51.3642
1050.55
413.235
55.3521
66.8725
109.023
87.8145
379.331
140.751
49.1577
115.675
58.5924
49.5886
207.392
917.549
141.401
1180.65
154.414
247.684
804.853
57.4176
79.8845
134.813
268.205
95.7737
50.4376
50.2591
853.033
69.9119
349.748
71.151
166.464
49.6038
54.7022
529.078
535.189
85.7635
56.9047
72.2517
434.469
47.1724
49.5245
419.789
553.788
73.3527
47.3986
1048.83
851.267
513.882
101.263
205.59
462.851
503.343
79.6135
97.1472
99.5886
62.3288
107.428
518.54
1374.17
63.6453
61.4736
59.9694
51.7415
50.9589
81.764
137.958
67.6288
49.5576
48.3204
75.2938
383.235
1082.31
51.3466
232.458
97.0029
73.9535
179.969
55.9213
90.0946
72.7912
50.23
201.96
52.9553
482.482
46.4164
784.597
550.952
447.498
205.811
90.1302
65.1656
106.051
52.5353
204.423
1414.02
106.619
385.452
191.81
440.07
149.522
797.905
615.8
94.4605
50.2794
1486.06
84.2818
49.7269
74.2234
535.573
1024.21
81.0447
52.3818
462.795
81.0586
855.933
748.678
109.967
123.367
893.834
105.54
48.6519
566.349
52.4028
674.466
1022.74
47.2993
67.3254
84.0276
56.0606
126.142
102.144
46.959
124.344
90.5432
120.292
58.4617
46.538
164.091
139.504
634.218
53.8949
98.2718
222.57
47.8934
807.035
86.5515
116.741
152.794
544.35
87.4063
565.341
183.217
141.644
56.9941
756.689
215.521
255.178
80.886
158.813
61.1351
76.0261
67.9022
327.289
266.262
106.21
707.534
150.127
102.751
259.604
130.561
147.754
791.381
267.977
49.3816
158.858
83.9244
148.421
308.395
991.723
58.5895
48.1787
62.4141
572.49
63.537
323.822
60.7015
62.7233
48.0647
140.298
58.0514
211.375
301.662
54.0611
63.5267
94.1524
81.5295
988.258
297.956
114.496
722.797
359.295
121.99
199.088
64.3035
58.9554
1080.8
58.2139
467.814
281.33
49.2813
60.6304
80.9945
96.2156
56.5578
72.007
124.836
82.2557
78.8038
68.7949
82.5558
229.15
67.3822
199.278
158.581
197.702
56.4016
724.463
410.109
58.9509
531.42
274.3
57.0804
112.55
616.809
225.002
50.2209
179.079
341.328
181.421
428.063
57.984
556.265
104.559
54.2313
68.6801
111.709
171.686
128.749
67.4134
257.767
49.3078
261.311
110.194
1198.35
146.969
78.6712
122.954
249.654
58.0699
225.129
104.644
111.936
697.226
78.1156
75.3578
1001.68
45.9179
99.9325
387.219
60.9004
284.1
847.663
154.961
77.3897
81.3971
958.488
288.03
380.257
300.698
78.5383
68.9333
104.365
619.202
864.173
259.067
90.1423
48.4107
87.7805
89.1812
131.36
335.295
94.8422
57.2691
60.9851
60.8788
48.3175
87.4211
47.4813
47.6139
123.087
90.91
47.1729
131.907
237.527
64.1208
48.7544
133.909
62.3734
48.2771
56.0159
104.397
97.9526
50.6053
97.2744
584.523
90.3701
51.0319
55.9924
46.3357
218.69
68.3683
54.6321
642.518
926.896
280.746
49.3013
649.531
154.827
48.4742
966.042
100.907
950.993
92.4061
67.7117
84.0995
69.221
47.3423
84.0446
86.1889
94.6696
116.868
90.2644
106.162
151.001
82.4714
77.7803
431.609
87.5137
1261.51
71.0769
657.353
47.6376
121.24
185.601
52.3472
69.6317
191.583
45.9061
446.012
322.667
1272.33
54.9489
640.424
56.8972
113.897
159.917
57.2779
549.029
76.3732
270.328
60.9624
707.278
691.549
80.731
45.8878
336.053
72.4418
346.207
85.6459
97.7339
72.2576
73.6538
58.4422
49.2442
83.3469
261.726
71.8106
179.632
87.0062
88.0648
47.3116
156.83
827.67
91.3563
304.767
79.6951
67.9604
121.826
82.5578
74.8906
57.3182
156.257
132.658
48.5864
86.2949
76.6849
70.3742
95.12
393.806
397.677
82.5663
93.5579
293.034
88.6027
53.5666
65.6817
49.8646
174.01
168.617
203.983
105.576
70.9712
73.7295
68.0151
54.4737
55.0734
61.0189
450.53
131.097
646.383
484.284
604.688
58.2767
68.2991
68.8105
72.8359
50.4324
302.446
78.5006
48.3291
81.7033
111.13
73.1971
333.076
71.5523
158.583
106.432
101.654
52.216
71.8265
91.4359
92.1917
68.573
116.977
96.1064
172.711
86.7347
69.2515
78.2219
154.03
175.523
65.541
84.129
134.91
99.32
171.712
47.0605
54.1092
136.738
68.9425
55.0981
78.2031
47.6371
47.1679
83.4923
77.7015
431.439
72.482
87.5496
48.8871
70.9781
665.854
82.4618
86.8032
59.6507
63.8549
90.339
87.5953
942.171
107.93
387.816
50.7559
60.4796
73.1066
46.1861
49.8991
109.193
84.3558
49.5574
47.4904
316.718
107.47
484.384
123.298
247.539
105.91
76.6464
110.477
527.215
184.652
92.615
80.4745
927.828
65.3043
82.5517
90.891
85.9578
47.3684
963.306
68.2413
95.1345
47.5398
127.873
57.7444
936.872
1030.14
68.531
53.6602
46.7686
93.8042
97.3412
58.8023
1192.01
798.067
65.1422
141.626
424.992
64.6155
95.194
113.923
46.3259
62.7092
48.4869
75.3267
224.883
88.6307
80.2506
47.8744
59.0715
76.9228
48.6336
292.66
63.4919
130.713
146.512
396.801
303.163
104.953
134.677
71.3783
133.161
123.031
47.3759
587.201
313.632
131.236
94.7473
106.104
93.6621
91.7256
343.409
46.4984
47.4599
62.3321
65.3927
133.393
80.6896
370.986
413.415
49.136
131.292
47.3377
47.0547
80.2347
61.9148
66.9086
55.1972
45.9361
343.788
402.621
46.9546
46.8148
183.413
800.526
52.1875
45.3795
81.2901
160.333
915.624
95.0374
373.262
336.978
360.185
372.681
72.1163
50.4662
45.7926
58.4995
946.35
55.23
85.7022
81.9542
45.7323
697.213
1171.96
1146.86
205.527
350.806
49.8744
46.8904
55.0107
83.272
734.466
640.402
362.754
557.392
375.703
59.6647
50.5206
835.072
47.973
917.151
95.4373
912.575
80.8386
138.821
54.4145
166.306
169.205
169.952
66.3548
63.3457
89.6974
77.3155
66.3509
72.0929
67.7384
1175.03
776.579
89.7877
337.006
691.165
315.093
70.2818
47.7401
612.401
529.176
479.427
47.5324
847.482
51.1922
981.535
752.837
643.763
276.102
52.7848
60.7627
48.0696
74.0448
86.8574
157.806
66.1181
84.4287
60.2086
96.3055
79.6081
46.3827
49.401
113.233
48.5052
51.4419
80.1875
67.1475
89.5492
90.7143
158.116
92.4752
51.65
92.4953
106.681
89.3503
96.3314
133.411
1194.36
58.7602
318.407
67.3847
94.8894
366.322
73.4441
55.067
47.2875
94.8596
97.6966
55.0771
103.54
104.092
85.2183
48.6287
67.6808
54.4513
71.9104
110.375
73.658
101.419
295.409
91.9709
83.4094
77.6829
115.452
85.3256
327.91
47.8895
69.2409
110.231
297.672
306.867
83.5418
107.094
937.578
241.306
189.28
92.0313
73.4791
113.811
89.499
53.7466
136.479
79.7192
89.1618
368.882
52.128
166.707
126.95
115.958
107.124
202.559
80.2353
58.7782
46.4061
55.7962
100.064
82.3353
569.35
64.2898
91.6384
128.403
104.624
898.957
59.0237
54.1879
105.443
280.975
381.93
153.711
47.417
136.186
68.1395
50.2638
45.9736
535.471
102.561
61.3001
394.874
67.7146
71.0984
160.54
766.258
987.045
115.397
68.7211
933.39
49.0956
169.203
126.534
544.758
327.3
60.1575
97.3518
546.893
93.6878
62.8722
70.9476
102.084
55.1902
67.1287
364.014
48.6274
102.87
523.658
148.698
561.451
83.2324
418.651
53.5852
1099.31
106.086
106.128
569.68
229.345
278.683
463.706
424.268
287.507
46.9074
49.6326
403.373
57.999
86.8864
356.035
64.1209
61.8962
74.6776
148.66
71.9918
51.923
729.581
397.458
153.32
378.753
168.663
91.3722
83.6818
79.4075
116.986
63.8238
56.4163
84.7623
63.1073
307.152
329.125
93.9357
56.9245
66.0938
76.9554
114.142
107.875
99.6517
77.7862
343.998
61.742
65.756
382.168
132.964
558.756
192.557
98.0733
704.174
139.59
114.315
349.544
135.386
129.184
51.3993
682.937
46.5827
56.5838
54.832
87.7602
70.5274
104.04
205.018
106.853
136.956
83.4986
112.604
101.764
45.7941
326.49
128.267
572.309
1238.83
104.656
379.671
112.018
71.0997
631.655
69.6126
61.0314
86.8647
105.904
659.956
339.625
55.6786
312.266
369.363
71.0296
1880.87
393.823
95.9557
364.742
64.5878
90.0361
239.759
352.073
147.716
741.003
57.803
53.2038
153.874
55.6751
49.6879
106.723
312.788
561.46
47.2295
144.974
46.6532
145.844
62.959
145.764
306.122
90.7267
266.504
60.1325
63.4823
778.157
46.7018
54.583
117.861
54.4495
128.893
311.519
49.8016
944.885
526.085
875.859
493.679
119.41
69.9932
52.5633
60.4913
85.3831
48.4593
89.1392
151.165
64.3502
75.7632
644.813
47.3968
152.388
48.0887
131.649
68.0353
718.685
129.326
93.7432
47.3687
135.966
152.898
50.0962
60.7312
102.341
45.365
208.265
96.8602
107.234
56.3364
48.3459
104.352
50.8468
130.109
307.65
48.7271
73.7646
50.1915
66.5069
437.179
227.372
132.526
420.416
807.075
394.374
78.1325
544.915
462.266
711.584
70.4735
190.352
386.242
310.329
284.942
956.031
57.8969
48.9695
188.981
780.495
54.4046
370.861
107.757
384.672
77.1478
72.8074
571.896
530.304
380.617
60.4939
304.439
132.057
491.875
47.7596
211.307
65.3923
54.5225
97.9453
98.5432
304.463
115.696
65.5326
163.83
78.2507
248.969
354.969
48.4059
69.283
58.2176
942.146
83.8883
132.79
168.704
140.699
69.0247
47.4229
93.5016
76.9014
410.631
46.186
107.06
327.605
66.4342
52.7061
76.8728
73.617
637.845
139.821
203.445
95.3641
69.6013
1068.17
1037.41
60.2499
148.45
60.2943
49.3488
404.91
78.6857
511.624
56.5797
51.1909
99.7648
58.6209
51.0102
61.6306
67.9048
138.811
216.651
322.364
278.696
71.0624
78.8661
48.2369
173.11
562.469
898.308
73.8037
570.61
186.608
633.999
83.187
382.414
111.855
158.914
130.799
86.1103
271.174
72.8997
181.099
112.269
61.2827
1025.25
107.624
616.253
107.568
69.4186
110.865
111.063
65.6719
68.5492
282.714
109.196
124.567
56.4521
123.888
597.035
131.332
80.6449
163.874
47.9658
61.6126
48.2037
77.9924
80.1928
150.77
73.4276
98.4404
89.1914
72.3691
80.3077
64.5733
76.3404
60.5647
256.418
53.7988
106.942
52.0807
70.0831
129.066
81.1132
52.7845
81.6591
101.133
91.7922
130.818
335.31
48.9777
137.659
344.553
158.785
156.255
53.2677
156.87
87.1348
287.461
64.8494
50.1636
53.8012
156.688
59.717
66.9074
840.16
149.221
349.711
48.785
51.3031
178.092
81.5904
55.9569
126.99
49.1303
83.5672
57.6135
378.801
47.1142
154.868
49.7178
50.0332
77.5303
66.4618
133.763
105.447
46.118
274.927
67.4795
72.0333
90.7021
783.579
65.2638
61.9576
130.949
61.273
56.6033
127.455
56.7657
51.443
107.602
195.013
127.048
86.6804
411.044
110.386
277.973
48.6048
182.421
66.6348
96.0021
167.808
51.5664
90.6326
63.7591
82.1173
162.04
67.532
581.714
105.458
49.2051
496.024
131.454
1316.14
303.824
127.021
88.1942
97.9217
122.193
385.351
64.538
459.391
91.2199
363.205
68.0236
366.691
67.7574
240.269
216.913
128.735
383.125
462.686
498.609
1212.15
550.269
693.384
323.512
413.321
344.806
47.1058
98.1166
310.829
70.352
608.68
59.4745
454.324
608.072
124.725
102.78
78.2847
46.6098
115.75
49.4373
252.381
134.242
85.783
180.921
87.6477
157.326
70.58
54.3612
114.157
52.0617
223.091
47.9358
69.8147
695.332
65.3524
46.6457
101.355
63.0031
606.359
253.903
70.8933
62.5327
173.373
49.7697
81.702
51.4649
54.5198
106.939
79.3592
57.2087
63.2792
307.542
90.8124
59.7058
48.585
46.5088
48.1415
145.628
74.481
99.8235
54.9737
76.0338
98.9944
54.7003
253.389
75.0039
50.4419
61.3114
85.308
143.25
112.761
100.236
52.1348
120.814
85.9704
54.685
55.4843
79.3275
79.4288
99.1209
71.8989
129.059
67.0755
87.0985
117.346
278.642
708.582
1115.72
127.418
61.2277
416.567
172.599
133.53
48.9655
51.3682
47.2322
91.201
76.1669
46.963
47.9236
50.5597
116.146
46.4403
49.7462
47.6425
60.0699
170.387
57.498
118.516
53.7816
94.7493
257.416
59.5661
54.8303
62.3883
1033.35
954.58
99.8823
67.3381
67.7956
60.2814
82.8805
524.142
66.8904
68.8226
92.1815
47.4365
95.7471
54.7449
81.5676
114.756
90.9035
64.8546
207.309
254.437
66.8983
2044.57
209.111
203.824
61.9055
86.8819
103.072
117.205
52.1735
76.9436
314.516
47.9
199.215
568.53
108.633
126.867
598.788
68.939
81.1748
94.2585
46.5092
123.398
385.293
94.2898
88.8456
403.761
199.967
1139.69
599.468
98.5274
50.3388
141.157
68.7334
182.082
146.309
541.504
49.8498
47.4521
617.467
52.4769
200.271
74.9951
106.314
632.109
845.58
50.3874
46.7958
898.237
49.8868
53.8762
64.9873
48.0693
84.011
128.552
248.652
59.6021
555.907
108.405
51.5706
87.0364
693.069
83.15
611.612
66.2065
59.6571
88.4976
87.3569
61.255
101.446
64.554
567.505
109.604
112.667
480.142
125.828
54.5095
578.177
107.202
110.272
81.0431
126.436
111.487
77.3671
49.3439
258.642
72.6921
74.2962
65.0566
116.672
76.7712
59.7095
49.3509
64.4799
153.964
69.8907
65.1736
83.8374
419.733
74.5003
69.3893
66.3954
96.8787
50.1037
64.7921
61.4314
134.469
99.3384
143.342
151.178
90.8853
382.349
61.6527
57.6823
429.183
337.611
531.586
91.2204
375.164
56.62
447.783
96.1386
359.947
96.9674
47.1663
117.901
207.017
95.3458
67.6327
48.1259
61.6401
441.567
62.1652
51.5545
55.6954
1790.82
370.995
48.3934
1523.42
503.208
330.571
190.431
1398.35
317.623
72.0662
363.574
92.1924
58.5504
411.644
995.9
66.0011
49.1755
55.1146
521.111
48.7382
995.74
70.9259
131.202
106.776
128.783
336.741
46.9983
117.287
124.127
55.7482
106.874
52.4071
125.552
1954.25
1991.58
802.572
95.7098
518.79
47.8182
49.4693
61.1219
102.059
46.9254
56.528
46.8589
73.3216
91.1847
47.8479
53.8029
77.6694
48.1906
99.1826
123.458
48.6915
117.844
131.245
47.4688
57.236
883.745
56.4217
834.133
608.838
131
135.811
84.1673
125.037
67.0797
55.9291
415.201
57.8942
61.4706
51.7224
54.708
78.9161
143.135
111.116
182.37
112.849
50.3962
528.618
64.0466
295.24
290.057
63.7557
800.271
75.8237
58.8057
60.7546
57.7893
68.8695
51.1969
129.001
53.379
393.15
208.574
373.837
56.2046
57.6811
82.4816
353.416
372.294
85.5328
148.248
64.7137
377.39
64.1172
115.929
496.628
87.3379
55.8191
92.449
1102.07
61.1671
59.021
121.874
50.3576
138.943
132.748
78.6342
85.7278
281.667
172.56
717.799
73.065
335.33
346.624
344.664
54.9143
179.758
104.567
104.858
53.6853
58.8223
61.7578
470.489
85.5102
98.9528
178.3
82.3119
61.9581
98.5975
50.1724
146.746
48.3108
63.1922
169.408
104.183
79.9166
170.881
101.191
86.873
81.5297
129.174
47.405
283.527
296.989
110.679
93.9345
47.5809
266.836
60.0233
48.2522
87.0644
49.5934
109.753
91.0663
49.3868
52.6982
101.792
255.494
226.762
49.643
785.12
46.5524
97.7475
95.695
48.2035
765.786
150.883
665.201
50.2917
69.4841
526.176
668.785
91.7227
103.388
196.08
128.043
54.4039
87.7677
62.7529
148.738
82.9793
136.207
49.7123
136.925
102.766
111.035
60.6055
90.1687
46.6059
62.3137
569.317
266.934
105.224
64.4629
106.363
88.1563
88.6396
150.409
47.5164
51.8227
61.4438
89.1009
85.0421
65.9897
115.227
57.1439
56.9071
54.1721
72.6715
58.5547
66.5639
182.188
79.0096
69.6808
1244.64
80.4031
65.3673
80.9475
46.4759
85.091
210.399
49.7679
79.903
81.6263
922.743
64.2068
62.3376
95.4039
1510.62
96.0821
155.926
125.181
68.1622
48.0714
75.3877
65.9232
830.212
96.9386
68.4248
66.2201
49.1894
267.733
49.6459
569.852
292.536
112.148
76.0984
59.4568
111.944
89.7812
59.8125
427.33
120.442
313.98
46.8223
140.058
674.046
119.182
51.3925
103.104
53.9684
727.277
60.3343
56.6861
91.3471
46.1385
60.1762
87.5411
51.8763
264.422
48.8641
367.127
47.1733
77.8089
66.9295
150.476
89.7683
130.434
111.529
564.728
104.571
123.466
76.007
47.7939
103.052
58.6015
54.1961
81.9241
77.5317
63.7886
127.669
47.3196
63.7248
48.6488
282.272
86.9612
569.472
529.868
323.734
162.291
65.7634
69.6527
61.1172
196.078
92.9686
47.9663
47.8656
113.081
136.524
49.2228
74.6526
1074.25
109.659
67.917
74.4152
769.297
851.385
59.9645
537.291
552.897
206.206
310.397
170.335
497.884
72.3491
230.377
740.904
74.9741
45.9123
60.1604
100.227
317.606
47.3812
47.3084
68.9518
149.981
156.201
1119.26
111.113
973.537
120.257
70.6192
87.4253
78.7461
69.8799
583.738
134.192
307.774
461.275
67.7905
574.468
1908.3
66.0646
137.951
108.539
423.046
153.784
123.392
712.868
1045.64
99.3885
594.23
127.767
392.498
82.6267
47.981
154.401
730.015
653.182
62.0452
107.946
153.097
97.1229
243
52.7182
68.8069
918.847
385.285
410.871
47.3843
413.815
66.9037
387.104
60.4733
108.724
198.136
332.202
87.4886
110.021
316.536
100.616
839.054
75.4198
62.4909
365.036
49.3984
151.115
47.4098
54.6995
47.3244
83.3651
423.463
458.939
341.427
61.1864
65.3358
274.775
59.4431
455.901
68.8114
54.3359
83.2964
202.142
153.855
595.891
51.5385
75.1518
66.7591
297.076
104.989
565.369
885.709
435.665
104.673
64.1155
389.675
386.424
157.405
51.0254
64.0805
46.0756
728.652
247.691
393.403
1906.11
236.968
97.7584
82.6436
763.859
398.4
65.8661
89.4203
102.931
339.116
58.6936
49.3873
89.7016
78.2829
692.923
330.822
230.204
217.165
291.087
349.914
164.578
95.9593
834.509
513.544
698.986
205.681
340.001
611.68
154.449
60.4496
105.156
58.2613
56.6118
74.0788
74.7453
143.807
283.548
86.4836
179.236
182.347
147.242
92.478
185.537
105.408
89.7416
129.556
706.738
1102.45
490.675
67.4503
121.318
81.5182
273.123
551.052
156.067
511.093
78.5484
436.99
331.674
182.07
48.9421
48.0516
71.5086
63.1376
633.683
89.8209
58.3157
510.99
73.4411
787.031
422.773
99.9007
436.01
61.1423
46.6954
49.6448
46.3239
100.181
67.9057
94.0173
134.451
75.1305
48.2452
156.89
653.557
520.194
46.8908
106.305
52.4832
65.1147
54.7962
639.347
52.1999
54.0457
54.6744
102.863
48.4403
54.6205
94.6109
55.2278
58.3185
55.6936
232.002
47.0677
61.6737
123.08
413.082
368.98
64.6023
644.97
693.092
56.4269
55.3838
163.034
76.5582
303.372
82.7958
93.7178
81.5936
287.27
70.6218
93.6343
1024.56
431.787
99.121
615.568
49.6537
47.7201
64.3587
47.416
47.5802
72.1716
56.2767
78.9825
194.979
84.2448
399.438
187.842
249.736
82.267
45.8242
626.062
132.693
86.0545
566.696
104.428
661.136
69.7348
441.563
47.2204
176.631
87.1917
242.337
48.9582
87.5593
79.8306
755.636
49.0657
45.8265
116.568
80.3753
126.868
58.9775
67.5513
91.5774
50.4482
131.602
51.3876
64.5932
148.136
89.3278
213.462
68.6059
47.9484
61.6259
46.7777
54.2504
225.893
45.7134
89.5706
46.0854
230.591
119.708
53.7129
115.941
112.306
59.3409
80.9356
72.5264
131.48
157.588
53.315
48.7465
89.8081
72.464
370.96
567.762
490.735
62.5908
48.8698
57.9558
63.699
91.1084
856.258
236.109
64.2837
54.2498
75.5052
48.8382
49.7747
76.4924
144.823
184.912
473.486
291.828
57.2086
77.0821
81.0419
45.7564
249.279
73.6469
107.132
114.841
53.1404
972.097
77.0221
57.7322
69.8351
69.2412
162.355
468.735
46.9624
429.644
57.0525
744.878
114.6
502.602
72.2198
48.5966
59.3259
104.779
52.9059
48.5936
126.982
46.6675
47.4402
53.4829
61.0855
217.026
59.2549
750.686
74.7687
61.3266
144.054
171.491
48.449
469.96
938.703
738.583
559.639
446.212
54.1384
402.324
337.127
79.4585
57.8836
54.3685
688.578
91.974
97.9467
49.3187
74.1492
298.161
734.032
155.688
83.7663
46.0587
66.1896
251.284
49.6929
56.9068
563.176
477.797
279.453
740.754
76.984
47.8145
70.5725
82.812
1127.56
50.9557
47.6297
46.4871
297.683
47.6608
53.6237
95.5161
101.298
46.7707
112.995
48.6883
148.698
83.3563
141.178
55.1893
217.144
91.4549
113.927
179.496
112.611
242.261
52.9959
615.997
93.2466
346.907
332.327
418.017
84.1892
112.774
194.765
70.8804
46.7384
51.161
53.4544
88.3411
564.414
118.658
47.7481
84.4325
62.5399
49.5801
120.241
60.965
136.184
99.2483
49.2511
101.705
52.5687
77.3123
288.931
541.192
69.5973
100.962
80.4698
105.305
534.322
306.454
560.985
859.193
143.428
49.0008
50.6453
46.8627
106.617
840.442
81.0774
797.162
134.143
48.102
119.161
374.718
48.4839
48.4334
56.3624
77.1254
58.6534
288.799
75.3156
92.6715
274.232
49.1868
99.0327
62.6985
130.452
98.2947
54.7051
648.086
81.9967
115.78
57.6702
110.127
47.802
116.631
123.24
93.857
94.5324
77.7796
66.0478
68.1638
53.7473
231.109
59.1334
53.6968
117.724
220.449
235.129
92.1075
96.4221
115.349
175.278
71.3277
339.25
88.4425
140.548
104.506
75.5698
163.975
83.6636
91.7153
372.998
102.591
53.3528
49.2872
340.855
91.4974
105.016
53.2258
114.147
87.3767
48.7895
96.0358
395.269
91.6645
73.0875
88.9
651.449
74.3277
92.8862
146.83
60.6007
159.279
51.4443
732.248
83.2665
80.8048
86.1001
56.8361
118.081
56.7283
488.511
45.7149
78.4397
632.989
58.2805
114.409
206.33
103.319
50.5439
547.118
58.0504
47.1749
95.364
135.574
57.2092
302.574
46.6927
369.42
99.7246
46.8978
75.7559
119.159
721.574
184.388
71.2549
48.6819
131.636
389.464
364.167
118.458
125.384
1002.57
210.085
334.232
130.582
85.5369
104.582
59.8345
526.016
1015.59
153.07
174.712
100.265
944.608
483.025
448.051
420.543
172.789
64.9195
53.9833
152.811
73.7459
551.047
325.896
81.8779
782.788
109.513
70.3328
69.668
51.2193
108.273
89.0367
92.2174
78.7751
142.87
184.386
873.199
57.3976
119.138
640.423
605.83
182.274
182.781
65.7554
670.946
47.4995
65.8257
361.803
148.448
47.2771
327.538
429.028
70.0368
125.846
50.0846
98.173
57.2297
80.9341
177.201
85.6252
602.422
46.3418
54.2807
90.5072
476.81
168.753
124.277
169.105
247.291
123.043
79.0035
399.531
109.876
72.4387
243.055
779.117
280.094
59.3737
387.142
160.419
89.6562
66.0895
128.347
48.9222
108.138
81.5081
77.1766
69.7465
60.2633
88.7923
47.612
45.9209
49.4748
100.368
50.8114
160.658
410.729
722.151
98.3121
81.0922
59.6924
52.8782
105.238
658.628
53.4936
146.317
73.6935
212.862
62.9224
111.109
153.974
396.224
48.9973
56.7048
253.402
53.0826
73.0165
111.237
73.6839
366.901
82.4303
309.848
409.741
241.701
633.111
188.023
385.578
87.8186
133.385
145.768
55.4863
422.649
119.783
88.1607
158.806
91.3061
84.3045
46.4977
56.4751
51.8394
46.3152
86.8191
314.719
46.3357
897.703
114.043
324.129
116.517
345.555
1751.93
56.0925
261.367
1039.26
121.804
339.174
78.8387
70.5111
776.079
995.524
268.535
163.423
56.3431
358.766
103.352
570.102
53.9494
57.1492
227.387
1006.36
62.2619
80.3316
54.302
224.365
475.916
50.581
492.493
233.707
534.489
699.213
52.6378
349.719
70.9309
674.728
379.705
214.825
373.142
239.654
452.401
325.16
236.722
79.377
74.2629
74.3375
52.4064
55.1742
1253.13
70.8397
103.711
71.5924
80.0068
118.301
989.224
131.774
262.754
307.472
137.806
339.837
130.67
45.9757
74.389
932.104
562.803
249.217
191.57
236.251
84.5266
454.86
59.0254
251.468
266.756
58.7026
500.126
108.961
286.934
346.859
135.515
180.363
186.6
128.552
52.4932
144.402
64.9285
516.006
71.7645
189.979
80.4281
248.877
60.711
69.0104
356.247
125.814
302.861
48.2155
1038.48
47.094
61.2759
54.8308
57.9106
88.5991
491.851
147.018
71.3961
638.242
77.353
50
61.3209
848.564
51.2544
92.4022
843.333
242.322
879.174
434.128
141.999
174.896
171.511
194.261
728.427
68.6205
400.956
121.962
65.9387
181.89
66.7135
131.893
70.9165
650.379