/*--------------------------------*- C++ -*----------------------------------*\
| =========                 |                                                 |
| \\      /  F ield         | OpenFOAM: The Open Source CFD Toolbox           |
|  \\    /   O peration     | Version:  2506                                  |
|   \\  /    A nd           | Website:  www.openfoam.com                      |
|    \\/     M anipulation  |                                                 |
\*---------------------------------------------------------------------------*/
FoamFile
{
    version     2.0;
    format      ascii;
    arch        "LSB;label=32;scalar=64";
    class       volScalarField;
    location    "0.0351115";
    object      p;
}
// * * * * * * * * * * * * * * * * * * * * * * * * * * * * * * * * * * * * * //

dimensions      [0 2 -2 0 0 0 0];

internalField   nonuniform List<scalar> 
47425
(
1.3188
1.18463
0.0451532
-2.69058
-17.6025
0.124214
-15.5639
0.0192196
13.7974
-33.8602
-0.0394151
14.5006
-11.4088
-0.0199564
-0.987424
12.9292
0.0143893
26.4819
-101.279
-29.8877
4.9224
16.5432
-0.0854386
0.944622
15.3199
0.984441
0.029444
-37.4818
-0.0408666
0.287776
16.3441
13.4178
14.4059
0.242961
0.0644209
-0.0287593
17.4655
14.2164
7.05222
1.23624
1.4754
1.21
4.06957
14.1413
-39.1358
1.16959
0.100228
14.0027
1.23387
0.446158
47.7252
1.28895
0.0946132
-27.7493
1.17643
9.33377
1.2477
0.218348
-13.5579
0.0897154
-29.6263
-30.7636
-70.1473
21.334
13.6205
3.59888
14.4524
-0.659925
-47.2572
23.6891
3.7283
0.730291
1.92101
5.66321
-55.8986
13.4257
-70.4509
0.158533
-109.524
-18.5352
-59.1863
10.5208
22.2559
13.3763
1.64072
1.42911
1.6123
1.18751
-2.01008
-24.2966
15.7462
2.83061
0.428669
1.36413
1.44041
1.28103
0.337761
1.3748
1.52628
12.3269
12.9251
23.9823
10.0985
46.7506
9.90104
1.5793
1.35798
1.37661
1.64117
14.6335
-45.2394
13.8869
1.24417
1.48891
0.294704
35.2658
0.596233
49.5169
8.67827
-1.68278
1.52659
14.4508
13.8719
-6.40593
12.0789
0.621154
1.45259
13.5222
1.11805
0.478147
22.3605
1.17488
57.1732
8.3357
1.38646
-7.84565
2.33488
0.566092
11.955
0.139842
14.4624
-7.30488
6.66267
0.924587
12.0303
13.56
-15.4729
13.7361
6.77241
14.4229
1.3828
41.2204
13.7748
-2.62804
22.0537
1.0492
4.19451
-114.02
1.28867
0.348576
-0.795088
0.972277
0.615905
11.7861
-45.6829
-81.2846
13.707
-55.3365
0.681594
-41.0854
-56.6678
0.73735
13.4833
19.2668
1.22753
13.505
32.0367
0.0213709
0.0349611
0.354912
26.1332
1.18516
0.0432389
0.111875
0.166402
13.1511
11.1183
51.6944
0.416118
1.24439
14.3451
0.407009
-10.5914
14.5519
0.483023
-0.599733
14.5277
0.864913
-1.22528
1.39623
0.20158
1.62325
1.72301
-0.158309
9.80986
2.49053
-0.00755623
0.199256
13.2558
13.4561
1.30003
-0.501188
13.4519
1.09699
1.90542
-2.00398
2.41331
-16.7769
22.0172
14.4813
-20.7601
-2.15493
4.15611
2.27887
2.99864
-18.6228
0.345106
-1.5077
-2.70904
-7.47506
3.11361
0.248397
1.55388
14.2652
0.0878132
13.1686
-23.4205
0.73674
-21.0203
-0.0291867
0.155132
0.422253
0.405844
-6.45355
8.65938
13.4469
1.35787
13.3395
0.669534
-0.0397491
1.07367
-16.5623
-0.0117044
14.5384
0.153608
0.263753
15.9796
0.248182
7.5399
13.3779
0.290099
14.0597
10.535
10.3827
-7.73675
1.33322
0.138654
-7.5848
0.330694
10.6993
11.1318
-20.892
-23.2216
11.0445
-18.5082
11.0219
-19.4553
32.3213
-21.4764
35.1793
-29.0394
1.38829
-33.9047
0.81762
0.678476
-1.70531
0.713297
0.100809
1.4706
0.402044
57.9873
20.5341
13.6255
0.0650051
0.102325
10.3931
-5.58423
10.882
13.9402
-7.63245
1.36429
0.878292
0.214014
0.0555977
-63.8586
-75.2967
38.6363
0.379312
0.99746
12.0988
12.579
50.4324
-0.154817
0.0812658
-11.4321
1.44185
0.373036
0.51175
0.0967394
-38.3663
-11.3972
12.8299
12.399
-0.0145347
1.1366
0.0432506
12.5165
1.22226
0.639349
0.237357
-3.86923
-66.7741
7.87039
0.125016
14.3921
-0.0354872
-65.7418
14.0106
0.655021
0.735405
12.8526
12.6543
1.24118
14.5245
0.560876
0.101697
0.228152
17.2794
-0.0318971
0.211618
13.1824
8.24765
13.4198
14.0621
13.467
-2.52811
0.3453
21.2586
13.8625
13.7167
17.9996
-2.62269
0.837318
0.103285
9.04595
1.39747
0.156487
13.7746
14.1731
10.7048
0.251292
-39.0345
1.71009
11.6769
13.5637
11.6221
0.074443
13.171
13.4188
17.023
13.3045
11.5096
0.965999
14.0156
1.20688
13.9785
0.0121336
11.1445
14.4366
0.11168
7.28399
8.53919
-0.0361874
7.46507
0.623057
7.89478
14.1547
0.00457488
-12.7311
0.257852
-25.1507
0.363384
-34.2645
0.231525
3.58123
0.219169
0.270389
-0.00678271
0.140962
0.200398
8.65759
-76.1499
59.7589
0.895514
8.15327
6.33752
4.92305
0.74755
0.106909
0.461472
0.182024
0.609148
1.52008
4.70851
0.0213038
0.0339022
-4.00187
-2.53078
-0.133581
19.6989
-71.8408
1.42592
29.5523
-70.1571
1.52307
-74.5067
-28.7432
0.809871
2.0743
3.04147
-0.539771
-77.6922
1.14361
0.919626
0.415801
-0.941761
1.16953
1.02978
1.16216
-19.6615
-73.895
-20.9855
14.2618
22.3363
-0.540126
1.0927
1.78769
-9.09768
2.12341
14.2574
14.5021
14.5335
7.66842
14.4334
0.703153
11.6746
0.242743
0.270515
0.51214
0.523964
14.2649
14.4268
13.3594
9.04829
12.4785
1.06516
1.13556
-19.444
13.093
-10.6718
14.4448
-0.0861919
0.712162
14.2613
0.91094
12.5459
13.8406
13.2733
10.9141
0.583942
1.00077
12.9841
1.519
10.2244
25.0831
0.772972
14.7646
13.2734
16.5945
1.30633
0.362744
0.922339
0.14521
2.67746
0.0315395
0.0854921
0.875185
1.12302
0.385943
0.136365
-0.0527124
25.6879
-0.01493
1.52902
1.32242
0.999796
0.0928639
0.0712197
12.5304
9.44439
13.5009
13.5079
47.9768
0.0183199
0.0695487
13.8074
14.0386
-19.4083
-23.1415
0.0632743
1.14029
1.26459
-6.41636
13.1129
-24.7014
14.426
-41.2281
29.0314
19.4965
0.20618
-19.0631
0.20823
1.15625
0.153021
1.52698
0.086132
0.812031
-68.154
0.255072
-0.0171053
0.285297
-18.6586
0.750476
0.118456
-18.5053
-14.4126
0.051237
0.196582
-33.299
0.565742
0.820749
0.0798926
0.415682
0.350761
-10.2022
-7.66698
20.2859
1.43218
1.40212
0.093493
-26.0642
20.4229
1.53534
-33.4396
0.0783922
0.232144
-35.1835
-35.6337
15.1999
-32.9369
-33.0279
0.218137
14.2947
0.130316
18.227
13.4293
0.0740386
-44.3986
12.8277
0.0945811
0.629048
-16.4724
-9.6138
14.43
8.07531
-58.6545
-24.7965
3.56507
0.285802
1.2837
6.25117
0.401484
0.605472
13.465
9.42756
14.4377
-0.068342
13.4489
-22.5403
7.52473
5.47845
-24.4769
11.8573
0.478386
7.46719
11.5626
0.450461
13.7622
-0.0885481
31.6636
13.4451
0.735236
1.36615
-97.5168
8.74807
-7.19086
-37.1621
-39.0652
0.274484
1.49478
-39.7504
-0.121432
7.4544
-12.6295
13.8475
-35.5578
0.289073
0.263203
13.5596
-28.7573
14.4906
14.5642
0.525082
0.10904
0.826411
0.0242028
0.815721
1.0702
0.356078
-28.2211
-39.0837
3.02936
13.5221
0.20699
19.0655
12.8642
14.4666
14.4915
14.5252
14.5051
21.9177
2.12907
14.4422
10.5664
-9.28782
0.182574
-79.2705
-22.4401
-0.0718496
19.922
6.33979
0.158009
-83.4625
0.0438472
-56.2264
0.415392
-8.49203
-10.0947
0.683688
14.7809
10.3508
29.1339
0.370431
0.576601
1.38551
-11.3607
14.3684
-12.7283
1.59897
-83.6648
-8.57326
1.46212
-10.7936
14.4128
1.14067
6.86692
1.42648
-12.0121
14.3366
13.2355
-11.431
0.304376
1.46206
0.152429
0.68236
32.9883
31.9113
16.5479
19.9368
0.156723
-0.0107907
5.09833
1.4421
0.678732
0.216753
1.15976
0.217166
1.05856
35.576
-8.56269
0.158029
13.2731
0.937788
0.92045
1.1587
0.0869595
-1.22396
-19.7967
1.21536
0.259841
-0.0330622
0.845123
16.4259
-0.0133075
1.47961
0.795683
0.715562
1.05305
20.732
40.0346
0.907693
-33.7674
-4.12808
-26.5879
-32.8248
1.32856
1.90582
8.87343
-0.100142
46.4631
-34.6808
58.801
-6.54946
2.49366
-12.2267
0.479953
59.7378
5.67761
1.78692
1.20617
0.359067
-6.68782
1.52017
1.20591
0.844717
-38.184
29.0721
13.6956
14.0106
48.4989
44.7434
-9.64188
-56.8832
-13.7649
50.6532
47.8215
13.8771
0.526457
19.4179
0.503573
7.78924
-33.2522
4.91505
6.97537
8.2955
0.334934
-35.5093
-36.0236
0.196576
7.12084
0.645936
0.462597
8.26517
0.305121
17.7788
0.0539149
0.482271
35.5993
0.242324
-0.171455
0.0017889
0.55823
0.197023
55.1174
-17.1734
0.0741187
8.34864
0.625602
17.28
17.4289
-11.2568
0.51957
-41.0562
-12.2816
7.41458
3.89473
27.879
-57.6321
0.0554007
0.0947335
-10.8704
1.17161
14.0489
3.28806
-0.0355606
14.6019
-51.8645
-16.2752
-56.4866
14.5648
29.8889
0.29604
-8.81987
18.7552
-11.7922
0.046725
20.4295
-53.3235
-13.5219
-12.7372
-39.2285
-11.3835
1.37129
0.0778214
-10.1589
0.118456
-13.0585
-34.9468
0.00920831
-15.5658
1.05071
0.912958
-36.8903
1.12934
1.48633
13.8523
17.2064
13.6519
-19.4407
-2.25724
0.989697
-12.3077
49.9409
1.16468
16.543
1.23806
0.957041
1.12401
1.31952
-24.1679
-79.8139
-8.45304
2.25488
-14.2362
-15.2234
-17.4822
-0.358498
1.16954
14.1147
14.2993
1.27211
-5.49999
17.8254
24.6155
14.1895
-34.2911
-12.6018
2.09045
1.05237
0.443489
1.11612
35.2859
13.862
-9.8049
0.231962
7.97787
13.978
13.9544
13.7909
13.5604
14.2401
-22.4111
-6.05958
23.6733
25.6992
18.2266
8.67301
-0.980159
38.9127
1.40145
-5.77552
1.4408
-11.5924
-15.1437
-1.17476
0.854375
14.2747
17.024
14.0158
1.3748
-48.8623
-24.3984
-39.7394
11.341
-7.0346
8.43046
-41.6484
1.40267
-49.2435
1.46198
1.51453
-3.80866
6.98416
1.34685
12.4893
0.181936
4.78842
-5.74054
0.885075
2.01298
-23.1416
-10.9409
0.52722
18.4031
53.9146
-68.859
41.1456
-20.8175
-51.5338
0.319401
0.862968
23.0309
0.515569
54.0848
0.395103
0.129787
-73.9068
14.9956
3.07094
0.335778
13.951
25.8266
12.4384
0.544068
13.4896
-13.6027
10.9886
14.8607
15.0228
14.4457
0.651157
-9.09011
-7.11935
31.0694
14.8817
0.991901
12.0186
0.600121
0.639792
8.45773
-7.90426
-10.1649
-7.07786
-6.27453
13.5689
-37.1718
0.710837
0.557058
0.643879
-76.2645
-65.9731
-17.1169
-31.9275
1.34381
-1.46509
-35.0915
-34.1512
-3.53753
9.97266
0.75401
1.63752
-30.7209
5.58623
-0.0104787
0.914736
12.5535
2.30873
36.6196
-99.3882
-11.4516
-26.4364
1.01951
57.371
-75.8455
1.35244
12.2789
3.64888
-34.7878
12.3845
-3.37392
18.371
-23.0678
2.7209
-23.4837
3.56923
-6.96836
1.52506
8.68297
-21.0711
-20.6265
11.4325
19.1141
-7.99252
-47.5287
10.6063
1.41711
-21.0637
-32.5498
13.0484
9.63109
-54.5938
-69.3307
-37.2753
11.5433
-3.50945
-13.4391
-38.4833
11.2233
24.8676
-20.2149
-6.0831
-4.0809
-18.5548
-36.577
-2.00201
12.1813
13.6087
15.2959
13.7195
11.3596
-8.49671
14.2936
14.4049
15.0743
1.69447
-51.7662
-32.5435
12.8721
40.6957
-14.9278
12.9229
-29.1153
7.07366
11.5298
-6.32398
-2.63598
11.9744
10.3036
-42.0639
14.8353
-27.0888
-76.4508
-36.1948
11.4048
-6.74062
13.248
1.42328
1.50557
-12.6879
-35.9859
0.937811
-46.7131
-27.327
62.5811
-18.8148
-62.3761
-24.8743
0.061126
1.47562
-40.2657
1.05147
17.5448
0.0659802
-48.0621
-36.1525
-0.0467975
2.64848
-31.1151
-17.9318
-41.6953
49.5431
0.55144
-10.6743
-69.8852
0.266482
23.7496
-24.6872
17.0199
-84.3088
-21.635
12.3395
0.250781
0.387552
1.67242
0.447847
2.55124
1.1336
0.542473
8.8798
38.6031
14.7322
26.7425
-25.0033
-4.28994
24.534
-1.29652
2.45069
-7.87313
14.8239
-62.8645
0.926358
1.31082
0.892885
-32.7121
1.01272
-80.5893
0.984411
12.003
6.10885
-82.0261
54.1213
-36.8264
-17.9293
38.9147
-0.0392268
13.8668
-6.67565
-22.8254
-39.7182
-23.231
49.2226
13.7357
-12.402
-44.8834
-6.16725
-2.04605
-34.763
-26.0853
1.76851
-10.6819
13.592
13.8912
-47.1084
-52.087
-0.0110414
10.1365
13.7139
-76.5716
13.8511
-21.3488
-11.5683
13.7243
14.1384
-17.3613
2.12458
53.4608
-14.7832
6.09781
33.1878
30.7563
11.3001
-79.7234
-32.5818
-11.1743
-104.818
65.3008
14.2152
-35.3266
14.1807
25.8767
-92.4377
4.14874
-82.1333
-41.474
-1.36533
23.2453
-4.0819
14.0847
14.0235
18.3753
-19.4847
0.586449
0.0934055
28.7948
0.324504
-1.61502
17.5672
-9.21541
0.643598
-12.4692
17.0438
-52.7329
-28.3066
5.00492
-28.1545
-49.1148
0.0805267
50.0695
-41.8741
-2.11028
31.5444
-7.42741
-10.1949
-19.4968
-24.9577
8.81089
-38.2073
-16.1023
7.15219
1.72272
0.486107
-19.6901
-4.99513
27.6164
-28.5265
1.34463
23.8662
0.66954
-48.7823
0.186162
0.347583
-6.34668
-19.0831
24.4957
-0.212048
-9.04848
-6.97729
-84.1633
0.121284
-9.22045
-53.5348
0.947955
-5.70428
60.8667
-3.83234
-15.5092
-62.0926
0.131869
8.29895
0.0389107
-117.654
-43.0304
-34.8522
-42.1537
23.4832
-1.94479
-6.09026
-42.8767
-62.7618
-8.17975
0.588014
13.9145
0.917375
0.583331
3.68737
56.0091
14.6903
13.6165
-4.99883
0.521876
15.995
14.6676
24.4081
14.216
0.541642
21.5676
14.8709
11.8447
-10.2003
1.44518
13.1219
11.2561
-7.22029
13.4681
0.524004
0.980614
12.1235
14.9439
14.1923
-75.855
13.4172
20.5892
1.06912
0.183116
-25.4322
15.3249
14.6045
-69.7805
-55.5208
60.0956
16.6645
-74.0528
20.0318
1.5595
-65.6407
5.70029
-69.98
0.936211
1.04109
14.109
22.8882
12.0508
1.45236
1.24505
1.68678
9.1906
10.1651
1.20133
-13.3893
0.856163
-9.44633
61.2576
13.427
-43.148
-13.3748
-63.5281
1.05255
12.5255
0.0579381
15.0203
1.3222
13.5349
1.08995
-34.8868
-20.5333
-36.5299
-1.37415
-5.90658
1.17283
3.73974
-26.539
1.48842
-45.7026
0.288636
-40.5153
1.59101
-51.9467
-79.3594
1.3886
0.0342321
-52.5629
0.355954
-59.2505
13.0841
2.47286
0.955236
1.34158
1.29988
0.566223
-8.47392
-21.9721
-4.63494
13.1757
1.16466
13.0941
0.80254
13.0145
-44.7117
11.0006
-30.9795
2.52996
1.03214
11.0112
0.493899
10.8351
10.71
0.292365
1.10414
14.0778
1.09501
-1.5831
1.43432
1.24475
-18.9583
-41.3787
-5.40592
1.18616
-46.8343
0.895206
0.576274
0.459826
0.433922
0.00250754
1.48208
13.3811
13.0812
0.853451
0.630525
44.0748
1.29203
0.977975
1.44499
-39.8084
1.66806
-47.9534
-33.0556
-42.2706
12.0593
0.312483
1.68107
0.117338
0.95478
-38.4418
-7.33999
0.908392
0.886823
1.69364
1.80431
-36.8208
1.79581
-4.73624e-05
-12.5034
0.580542
0.455012
0.291117
0.454264
0.277675
0.281352
0.489881
-7.51412
-11.7916
-0.0305603
13.2221
0.0379828
-5.96462
-4.80832
0.606006
1.08851
-7.54328
1.42203
0.188631
1.29067
0.987481
-6.83319
0.00700427
1.0866
0.537406
0.660538
1.52931
-3.74007
0.0590401
-51.7282
0.620878
-14.1473
1.5225
-0.0336497
-53.9783
0.0259214
1.28525
0.104155
0.72467
0.764266
1.10992
53.9549
1.54589
-17.3181
0.99334
0.249444
1.62397
0.867865
0.508635
1.28175
0.505003
0.718099
0.318743
-4.54107
-9.78882
-32.7616
11.7733
-9.25214
1.16218
1.28288
1.22234
-21.2799
0.0462067
0.115789
0.127494
-49.1789
0.138796
1.60575
-0.0605051
0.161605
1.65955
-132
0.0982725
1.12682
13.3433
0.0137832
-6.66262
25.9999
28.4392
0.0488466
8.40199
0.169523
1.14515
0.453968
0.364528
-47.7321
-55.3228
0.134417
0.890784
-41.0919
0.00295712
1.53347
-19.2461
0.0362578
0.921785
5.85025
-0.211821
-3.8006
-0.0127748
1.5624
20.5674
0.353207
-0.072962
13.4238
-19.8622
13.4777
-22.4999
-23.9483
-34.2895
-20.4138
0.528673
13.3939
-13.1966
13.5451
1.33649
17.4069
-30.1555
-22.1571
13.8593
-9.55009
13.8686
0.631266
1.28982
-36.2031
0.816975
0.460613
13.5599
13.6199
42.9554
46.3902
64.5224
-24.9073
29.5551
13.8944
15.9069
24.2874
13.6928
0.742087
0.134245
0.418205
-0.137884
-36.2028
-35.2604
0.723844
1.6577
0.361598
-71.9052
-1.91784
1.13101
1.65995
-26.4492
-48.7732
0.737797
-41.2417
-0.14391
-27.8408
-30.8266
-15.0531
0.329925
0.731546
14.3887
-49.5153
0.172969
14.4826
0.564325
0.116215
-63.1208
-61.1695
-67.786
0.240207
-44.0605
18.0383
10.1501
4.34703
-11.6746
-73.0221
-71.1269
-32.2578
63.3957
-33.3351
36.4478
13.3712
-34.709
14.047
-52.1605
13.4449
-48.1986
13.3567
-21.685
2.13446
-24.7667
13.9101
13.8014
2.15399
13.6402
13.4914
34.2358
3.97062
13.8181
13.503
-59.6788
-51.0233
-10.3777
-21.2454
-53.5094
-20.719
1.08027
16.2932
-43.9929
-25.9289
-29.6996
14.9049
-72.8139
7.58223
-55.0889
-80.6186
-43.2332
-8.45849
16.7047
7.08004
10.6035
13.7921
1.49154
-26.0493
0.807327
1.1022
1.43238
0.178424
0.124545
1.11767
0.518639
-20.5068
0.287172
0.156603
0.306421
1.47286
-16.1821
0.982641
0.064178
0.322681
1.49565
-4.68229
-12.8187
0.696953
15.2355
-25.6458
-80.9784
-3.07819
-62.0178
-7.86023
-7.05313
-17.2578
38.1135
8.06981
9.55685
-4.75936
0.0211487
0.116721
0.326354
-0.00399923
-0.12728
-0.675631
0.158826
1.54958
1.66972
11.7156
-6.06866
1.36591
47.1353
-0.0338973
13.9719
-0.0163623
0.00996411
45.2083
-53.1912
26.3085
0.128917
1.25994
-21.341
-36.4627
-0.0843453
1.41108
16.3143
-8.32142
0.872421
0.0671137
-14.2265
13.6757
-0.305139
16.0044
57.1884
1.41634
0.980688
-9.0378
-0.034859
0.973027
0.800396
1.01156
13.2893
13.5131
10.1246
13.5659
14.0856
5.9445
4.5141
-2.78602
-53.5282
6.77402
-6.2329
13.4536
13.3629
64.5462
4.71463
1.82867
1.65612
-31.3758
-29.2692
5.05571
17.5906
1.50241
32.313
-4.20954
16.0546
-27.5496
49.8453
31.9801
-5.18471
2.76238
6.70171
-28.3371
-70.4231
-70.5644
2.18339
-8.09052
-72.5765
2.09538
-9.68647
-4.41295
-29.659
-38.7164
2.09441
16.2939
-76.4805
12.0265
-4.75004
2.14893
11.9084
-2.63165
14.0497
-6.28364
15.1279
11.1205
-40.8278
9.20029
60.6464
-15.2943
56.9875
33.596
-62.2616
14.5447
14.5602
-48.0957
-9.356
1.1459
-34.8773
-20.4739
-7.41296
1.82627
1.6954
-33.8359
-1.01323
7.94889
59.931
-5.54385
11.5338
-4.10405
-13.6364
8.71861
9.16853
-26.2713
-34.2489
-26.4874
-34.9648
0.510121
-12.6376
1.37784
-13.2759
-8.87051
1.62283
1.30695
-11.5801
-2.02342
-34.1728
-34.5247
-0.0955407
8.63207
1.08102
-8.96254
-18.0421
10.3085
9.77495
-12.1704
-33.7908
10.4274
-5.2959
-34.8694
2.68574
-30.1722
0.0234061
-2.69719
-50.1706
2.77483
54.7938
-4.90583
1.97032
1.84683
1.03635
-78.5038
0.870908
0.924443
-4.11819
0.232648
11.6347
0.626657
-21.9993
12.6913
35.9578
13.6275
12.7789
12.6258
1.02071
-6.95053
-2.73999
-6.58929
-78.2246
-0.362456
-37.1763
-7.24974
-0.0383921
-60.5888
0.00826534
0.773937
1.63283
-5.23391
-48.2032
-19.1938
12.8572
41.7376
-2.80982
1.81419
-30.4524
-37.246
-4.10211
-49.5967
35.8379
13.1175
-5.69089
40.6441
13.51
-58.4406
19.1854
10.5218
50.644
35.9596
13.8073
13.4315
63.117
-46.3937
1.20366
55.8884
7.80761
13.6448
-6.88362
13.6676
-23.4805
12.4173
61.5271
13.6186
13.7649
41.8032
11.8388
18.1978
-9.77447
-1.58894
16.4088
-53.7762
25.7361
-16.5241
-48.2028
-60.947
-19.4027
13.868
38.5422
15.7102
6.19915
12.0724
13.1651
14.3301
1.32684
1.3649
43.2532
-34.8487
13.3156
-21.7636
3.10678
10.476
-13.2037
-59.0576
1.31923
-12.7658
13.8267
5.4339
1.18833
12.3358
-5.7764
1.45398
1.26492
-33.613
3.89046
0.9153
-5.68748
11.8486
0.784056
22.7164
0.820286
-12.0426
29.1342
5.42365
18.6802
38.2546
-34.3941
59.2229
43.4092
-26.0743
-51.1179
-35.6514
-20.7747
-33.9065
-34.062
-22.1923
-17.6566
-26.4299
-35.6298
61.7669
0.38299
-56.35
9.77112
-0.232982
-29.4322
-61.319
-5.58376
-33.3231
-13.0764
-32.2331
-11.7327
43.0856
-34.835
-25.8873
-35.1338
26.6031
-34.2017
1.18124
-66.0312
25.3807
8.41568
1.13637
0.0745767
47.6044
8.74354
-30.3083
-13.1186
14.3465
1.28537
-4.07249
-21.7854
-27.9718
-0.905762
-2.18874
18.9281
-24.0447
-4.50282
1.36692
-18.2391
46.5029
-0.616562
6.72011
1.24243
4.71692
-35.9998
11.4884
8.71528
-7.33555
1.44533
6.83171
0.79088
0.0895786
64.9947
4.32997
-22.6674
-3.96818
3.25308
-77.6243
-78.231
10.2625
10.5769
9.64985
12.789
-19.5973
-6.64546
59.9629
-7.94604
12.5526
-19.3017
-0.907437
-4.34256
10.1904
-8.7591
10.1528
-16.2878
-36.8967
-38.0205
34.8907
-17.5742
18.4937
10.4619
-48.6813
-58.3983
33.1719
-65.2674
10.8597
-52.5871
36.4028
-8.35176
23.1101
-10.7552
2.04667
0.251742
-3.64474
-10.3073
-33.1722
1.94981
12.3924
-84.7394
14.3648
-21.0965
14.2466
0.0162009
11.6734
3.04745
0.89171
0.252538
-2.02802
8.16889
2.79665
16.687
0.792843
-58.1745
36.1851
12.8008
42.3978
13.6889
3.31532
12.5547
14.4598
32.2215
1.07239
32.1737
1.36308
0.815163
-15.9037
0.883126
0.357555
-15.8183
-9.65899
-28.5844
-1.46713
36.1825
6.26418
30.186
0.84533
18.0731
16.7463
1.14247
0.589776
0.34462
1.81322
60.9972
0.299212
-5.2645
-33.347
13.781
14.1131
17.9117
13.9639
-17.5135
-24.8267
1.7414
-1.71173
-1.5916
-10.5728
36.3087
0.30468
-48.3147
-2.01807
-26.534
1.47623
10.3223
-20.2724
13.8066
13.9134
-14.1427
14.1448
1.3076
8.08942
-46.3832
18.9698
57.0672
1.29328
1.1257
37.01
9.87587
2.3076
34.7279
9.09614
-10.271
39.3854
-14.951
41.364
-63.7004
4.53922
14.4084
0.906739
-6.03643
2.23077
0.953309
0.398883
0.26242
14.433
-28.6745
5.45905
1.40066
-21.8425
1.52709
6.11795
13.9159
14.0752
25.6903
5.89142
3.76415
-5.59357
1.34626
-8.86485
13.7256
1.59812
-15.9445
62.4447
-15.7825
1.62135
61.0936
13.9355
-75.7178
55.7944
2.24789
4.68745
35.5729
14.1278
-33.3058
39.8487
-33.3304
-1.21512
-32.9305
-14.8698
-35.4464
37.103
-0.648913
62.569
0.731023
-34.0695
-32.3347
-81.7706
-76.6319
-33.1086
-69.4239
-25.0571
-35.9871
59.7671
10.7911
11.9446
50.6617
25.224
-36.6756
9.17943
-38.9307
48.7232
0.943225
12.2388
0.0164265
1.11003
0.38913
0.768528
61.0428
0.822249
0.67889
16.6806
0.960248
0.945529
12.3543
-4.66145
0.991332
-5.20146
1.05761
8.49453
29.8463
-38.1336
1.58255
2.88513
-3.37371
1.15393
-42.8337
-42.7862
-17.1197
1.98277
41.9797
15.2327
-0.726304
-4.10281
7.01835
5.41127
0.966945
13.2627
13.0241
-37.0553
1.1387
18.4106
-1.37991
4.24037
12.9844
0.306705
9.46526
13.4018
13.0238
-10.7283
12.658
11.8063
52.7725
28.7818
12.9818
25.9262
12.398
0.337613
12.8922
1.11688
-1.35458
1.45976
6.65693
0.0372456
23.3927
12.4385
-14.0304
27.1353
0.217982
11.0727
31.1325
-10.5365
35.2299
-21.033
-42.1753
-51.0548
1.59274
-0.118478
-17.6308
35.8724
-5.48638
-0.516094
10.1622
2.33678
0.185231
-0.078119
10.778
14.454
31.1855
9.28642
2.74836
13.0949
12.5963
0.0738758
-29.6436
37.3868
-0.0296745
9.50684
-7.91352
42.1135
14.1241
12.0671
-7.77289
-42.2677
-76.4698
13.3996
13.3047
-4.70113
-9.19719
-5.95626
-25.9279
34.589
1.34396
1.70377
0.0285063
0.0381245
19.32
-14.2029
0.212078
0.440848
33.4345
0.532613
-3.43099
25.9877
-29.8343
-21.3606
0.679633
-7.79148
15.3578
-0.00535307
0.719432
14.0627
10.9398
-5.8003
23.1255
5.97435
-48.9534
0.727345
0.815684
-37.7293
-6.8248
15.1699
0.649238
9.11505
13.5605
63.8349
0.710937
-7.12438
-38.4235
-31.1791
-73.1724
-50.6963
0.722746
18.443
49.7425
-0.0424877
12.5972
12.5087
-38.4102
14.6235
7.46579
-29.8349
13.9169
21.9701
-13.1692
10.3241
-35.5578
-64.8083
16.5338
20.8685
-49.2246
16.7244
12.4917
4.09006
15.4783
14.0001
2.80283
-27.8418
-3.85065
13.3171
15.7697
14.8852
14.355
7.80934
0.0419797
40.1758
-0.0234298
-4.0168
1.5773
38.7247
14.0278
-9.6667
6.0377
59.9225
-18.7334
-23.5262
-44.9066
4.44008
-3.06923
-41.5913
-14.7251
16.206
-11.9519
-2.02375
0.0164972
-5.69681
13.4027
10.0995
7.3347
0.146678
0.269602
-15.6348
-2.1206
-9.14203
1.0926
1.40803
0.245184
1.12359
-3.20241
14.5116
-33.8576
14.8552
1.07388
1.17931
13.4659
12.8218
13.6257
1.37715
1.30999
-5.18369
5.41924
1.11424
1.51281
-31.8683
3.14808
-6.94474
-48.3118
-33.3791
-42.4968
16.1349
-60.2136
18.7059
-32.4841
1.26708
-35.2286
0.910839
3.52869
2.17848
-2.42607
1.20657
3.85896
-0.308993
14.7904
3.71918
16.0802
-2.74018
-7.03849
-76.427
-33.8173
25.6779
33.7747
-42.3727
-28.7885
-30.2202
-69.5279
-33.8223
-5.25038
-34.5693
1.6776
1.66708
-58.1999
-74.6739
-7.68004
1.27749
14.0101
53.3001
-2.74341
-75.1105
3.02646
6.17496
0.103707
1.13391
-30.7714
2.04303
1.51777
1.45207
3.25974
8.49441
1.69642
0.970138
-64.3202
-67.1391
-32.5895
26.1419
-36.1197
13.8018
0.832581
15.7234
8.12305
5.32678
24.5552
13.3168
26.2508
0.905402
5.23411
6.7582
1.38391
3.66346
-8.09672
10.191
14.8855
10.053
43.4869
1.90136
23.4967
-50.0654
-2.18352
-41.1035
39.5283
11.934
10.8062
7.33669
-20.8751
-7.72459
12.0348
-36.9995
9.00041
6.74702
-2.23366
17.6266
11.0761
-3.14506
-11.4285
-22.2039
14.4691
-1.33249
-44.5916
1.09658
-37.6058
-36.1188
14.3446
-76.3786
-2.96721
35.0853
-2.97535
14.3212
13.3007
17.8808
-3.40234
13.644
-34.5467
-8.80351
-33.6865
-3.70901
-8.11262
20.7834
-34.4087
-15.3926
1.90485
1.96573
19.5319
-35.0154
11.0157
2.29864
-40.1737
0.686788
0.607498
13.0725
-79.9526
-2.92867
2.33407
1.26958
0.083713
12.6929
11.6565
2.41952
12.7562
-12.3735
12.8248
-84.1125
13.0168
-49.2286
-25.6747
-5.61914
10.589
-4.71668
-2.5899
12.3687
-2.1961
1.37807
-5.18051
55.3861
0.344751
37.4072
-4.51507
0.185025
-2.29577
0.0630848
14.0442
12.5154
13.7587
-4.19479
0.431529
13.1929
-3.54535
0.0527141
0.562567
-18.1343
3.10965
0.152483
14.0258
-40.4755
-48.6367
0.0109335
-1.68064
0.667837
-31.996
0.39967
0.375776
1.26661
0.404329
1.27626
1.24453
0.0636243
0.70455
12.9577
-35.9355
-29.1541
14.053
49.4182
17.6385
13.7228
-0.0361053
14.418
42.5293
-0.039164
38.4412
1.78942
-0.218433
5.46333
30.7475
0.931876
-0.0201467
56.1571
14.5448
28.1369
-5.94457
-10.0671
0.106953
-2.24524
-0.0747468
1.04189
3.56899
0.76239
52.9326
0.958555
0.591082
0.694968
13.4738
-30.7863
-15.8293
-2.10729
2.33798
1.53413
0.578477
15.5277
-22.7263
26.9611
19.422
1.37937
0.567121
45.6628
-10.7182
43.9561
32.698
12.7133
13.865
0.355142
-4.63261
3.01326
-9.14494
-8.7292
14.0187
-76.5025
1.4182
1.41025
1.20702
12.2174
1.18757
51.7669
-2.09108
48.224
1.21069
-68.9072
-8.63032
-10.3518
1.0027
-39.8248
1.46964
32.6924
13.7135
35.1358
1.32349
-13.4295
4.86487
-40.0946
29.6017
13.3664
13.2687
0.801578
-19.2672
12.9917
-84.6516
-17.9169
13.4584
36.7542
13.3095
-17.532
46.067
6.0709
-2.8003
45.4281
36.3097
2.87403
4.35531
-66.7769
44.9409
10.8815
43.1515
-2.6224
-59.4748
30.1938
-0.16205
-0.0418412
0.178779
0.0382549
1.75318
15.5257
-41.0152
1.20257
-25.9041
18.032
41.3324
-10.8174
38.501
-0.0549438
-0.00982884
-9.22464
58.9719
-13.1703
51.0932
17.2334
5.67566
26.6707
6.77741
19.3021
-0.0113664
-0.16349
-0.0643854
-0.0270069
10.0686
-10.5684
14.9349
-29.2736
0.904512
-33.8948
12.8866
-16.8086
48.5792
1.11805
0.531524
0.123346
42.4533
0.153672
24.1826
-0.228824
9.91762
-5.26193
1.81793
34.7013
38.0955
-9.77049
0.210997
1.40569
-42.3961
-57.4888
-6.91186
54.8389
30.25
57.2716
60.109
47.8839
-47.3323
0.345814
47.7664
-42.0869
-0.00828197
6.41194
0.0878314
-20.9249
-23.2316
-0.390645
2.89411
-4.99001
-0.068776
12.8082
-35.6802
43.4033
-38.6437
12.761
0.322105
11.7252
3.38815
-3.16551
-81.8065
2.65102
-26.3732
-12.2751
13.0857
-75.2664
-76.2023
13.0675
-7.14209
-9.30065
20.8516
13.0523
-9.75996
27.1977
-66.5283
-24.135
-34.379
41.1063
-35.2358
6.27184
27.4063
6.11023
-44.934
-43.5659
4.3783
0.943939
53.0511
0.181279
-31.3345
-0.193982
-11.8873
-53.669
-11.1387
-33.8222
1.59913
-34.5679
0.279917
-33.8513
13.7049
-17.429
53.4386
-33.9631
23.6959
-24.2521
-34.28
-14.5797
-37.3775
36.0618
33.8503
-31.3376
12.5178
22.9373
17.9316
7.34128
14.8596
-3.86078
-38.8585
-97.4763
-55.14
19.5432
23.418
-31.9081
26.7753
-32.9095
-9.90516
7.99431
4.96806
-38.7351
14.0855
-36.0651
16.1451
33.8858
35.5133
63.6604
33.3587
-20.466
-49.3423
48.0179
14.0826
39.2492
-39.9071
-34.6187
52.8475
31.9899
-2.33349
23.6992
21.5382
-36.8371
-36.2952
-76.9303
21.1163
11.3631
39.1548
-46.8825
47.8755
31.7545
14.3933
40.3741
-47.7101
5.80782
4.14819
14.4654
-7.96595
-45.7137
-38.1788
47.2618
-0.0643491
-34.9511
-65.0061
46.0473
48.1779
43.1834
-49.3131
-84.143
47.1437
-19.1319
-48.8662
48.2165
0.310651
-6.64337
13.8149
1.25541
2.06831
-4.99769
45.6413
-27.4091
0.797233
2.23884
2.04459
2.54734
1.50626
9.47576
-26.9869
-2.60366
1.74864
-46.4224
-64.874
-35.1905
-13.7484
1.42008
-12.7672
-35.8177
-28.6872
1.84131
-38.425
2.02113
-36.7881
-33.1225
45.1152
22.0177
28.4252
0.0851179
9.0274
-60.1113
-19.3505
-6.69215
-54.9732
-0.000706334
-50.1973
-33.7936
-19.0946
-34.5786
-0.750671
17.6652
13.6256
16.6783
12.6239
44.706
0.0581964
-0.0455685
0.101476
16.4992
-16.6047
-62.9744
-46.3237
17.1315
40.2805
25.8101
32.6443
3.80432
-64.8678
-3.53803
15.4571
6.78846
0.669144
21.0802
10.4504
-9.02393
16.7001
-7.83188
-6.97241
-1.29547
18.2643
38.4595
-24.6845
56.7728
-51.5427
21.1061
-82.8462
-57.6722
-7.4292
14.5473
38.3579
-4.93865
-40.5539
4.74278
16.5568
-18.1806
-37.9374
19.6492
49.2072
63.5041
-60.371
-6.17802
-50.3599
16.164
2.61419
-8.84383
12.2842
8.83542
-15.4954
5.13785
11.3479
-33.4909
-5.59825
-36.1247
-6.15747
-45.6155
0.0872095
13.6723
-81.5121
-12.5157
-0.0354865
63.659
12.5877
50.0875
9.53804
-28.5928
19.1458
5.29917
36.6838
58.1502
17.4896
37.0419
-0.131385
-45.1945
14.1676
13.9757
2.15365
10.7535
-29.1752
-0.177696
-5.04304
14.3139
5.36751
-16.5078
6.65616
11.3413
-4.00523
-7.32388
-25.8815
-0.0277484
15.0492
0.0228657
15.992
0.20143
-11.2369
13.957
-17.1069
13.3668
-38.4372
-0.0788226
35.5384
-7.85302
38.8407
0.154386
6.05939
-0.0617377
0.0128116
-4.71821
6.59657
18.4301
37.3467
30.2912
-52.6064
-46.0311
46.6241
27.6054
23.0012
8.8979
0.0284378
0.168634
-63.3816
47.6317
22.1516
17.9235
0.203903
20.5327
0.144407
0.122892
-15.2621
-20.1382
-29.776
-41.2879
10.9013
1.82099
-10.2332
13.9684
43.0127
12.4318
-9.43403
12.587
-4.78255
-66.8733
-13.7237
0.236842
7.11766
-4.64667
-3.78206
-38.3561
13.9037
-39.3145
26.5556
-64.2081
-25.4849
-21.4168
0.284287
23.8746
6.33558
14.2575
36.7493
14.29
-6.49102
12.1545
13.2347
11.7322
14.1879
-32.5088
17.7597
10.4263
45.5085
13.8578
-16.7744
14.392
14.3008
-34.3956
-65.6494
-22.1524
-35.7033
-33.2347
12.393
60.097
-37.8987
-6.42864
15.4461
22.6692
-33.5213
0.675378
0.566667
12.0797
-17.9033
-38.2514
-39.7977
35.3699
2.65193
1.14317
7.2448
-41.8129
30.1096
11.2807
-47.819
-44.4884
-38.5305
63.7603
15.6753
11.7577
6.35125
15.794
-60.6366
18.9975
12.5841
21.0212
-7.25898
18.6294
25.5027
47.3628
38.7663
12.0421
-12.4913
24.5989
-5.60404
0.630246
0.506059
32.4296
-24.5603
-14.7259
0.478593
58.4425
0.515668
-41.6836
31.8506
25.5152
42.0695
-36.5523
-27.3115
-34.589
34.8352
-8.3623
-24.7732
-10.3063
12.5349
2.26105
15.781
1.23498
20.1315
1.1073
12.8165
1.25278
-7.69596
0.320647
38.0799
6.02553
5.81615
-20.5062
8.53616
1.35073
9.49514
-2.49449
-36.3463
-42.9463
-16.1972
6.2908
39.1462
1.12267
61.3987
-48.3013
61.0567
55.8179
1.06283
4.29303
5.58037
1.01174
1.07528
-79.0174
14.2769
-37.0246
-20.444
6.08157
1.53478
-32.6918
6.60793
6.48051
11.8391
8.39522
1.09419
-48.4988
-1.60166
1.47367
-2.99015
1.59872
1.07485
1.58041
1.38579
-1.35039
6.51941
-47.8646
1.06329
1.71206
-8.95504
-3.97637
24.1238
-16.596
13.5259
13.4327
-0.089778
0.305365
-6.72675
-12.1505
8.10511
0.185848
1.31718
9.40008
0.107911
58.9091
0.140502
2.80306
0.0582261
-0.0198232
-22.6708
-0.0328638
-36.2597
-0.598608
53.2764
4.74658
-0.119184
-8.40627
-3.915
0.229377
-35.4103
1.93566
0.0792262
7.61559
-35.7361
0.0627737
6.63094
28.7398
42.9792
-6.04675
9.73631
10.6464
-38.6942
-19.4501
0.0564809
50.0943
-51.9259
-17.1962
-6.2731
52.542
-7.81197
-6.30972
33.2309
-57.6954
1.99429
0.0742948
0.0900593
0.196085
-0.00735994
-0.000434899
-41.4891
18.748
-0.0722016
-47.6643
3.75844
0.288796
-5.75199
3.14395
18.1648
-41.4869
7.10297
17.2257
-21.0423
1.73099
15.9229
62.1087
16.3676
-56.2185
43.234
19.1512
32.7222
0.257626
47.6864
0.518178
9.77715
25.1553
0.0760769
-38.8749
-34.2588
0.760162
0.675084
-126.164
22.7699
-36.7582
1.43582
-3.61895
1.11477
14.5061
26.0907
52.1551
14.5136
56.1337
14.4952