/*--------------------------------*- C++ -*----------------------------------*\
| =========                 |                                                 |
| \\      /  F ield         | OpenFOAM: The Open Source CFD Toolbox           |
|  \\    /   O peration     | Version:  2506                                  |
|   \\  /    A nd           | Website:  www.openfoam.com                      |
|    \\/     M anipulation  |                                                 |
\*---------------------------------------------------------------------------*/
FoamFile
{
    version     2.0;
    format      ascii;
    arch        "LSB;label=32;scalar=64";
    class       surfaceScalarField;
    location    "0.0351115";
    object      phi;
}
// * * * * * * * * * * * * * * * * * * * * * * * * * * * * * * * * * * * * * //

dimensions      [0 3 -1 0 0 0 0];

oriented        oriented;

internalField   nonuniform List<scalar> 
92401
(
0.147382
-0.0955827
-0.00690375
-0.044896
-0.0621682
0.0600291
0.0371416
-0.0350025
0.0225588
-0.0399027
0.0430636
-0.0257198
0.00641721
-0.0126004
0.0124535
-0.0062704
0.00142499
-0.000455514
-0.00579503
0.00482556
0.0195971
0.00969855
-0.0255894
-0.0037063
0.00549528
-0.0045149
0.000444605
0.0324451
-0.0257736
0.0129257
0.0481764
-0.0386676
0.0323761
-0.0418849
0.000504897
-0.00110082
-0.000164675
0.000760599
0.00466413
-0.0418648
0.0375033
0.0246546
0.0241303
-0.0862882
-0.0168189
0.0107951
-6.83711e-05
0.00609216
-0.0343835
-0.0403502
-0.017129
-0.0165064
0.0571909
-0.0235555
0.00177763
-0.0653047
0.063527
-0.00212617
-0.00766659
0.00193286
0.00340535
0.00232838
-0.000930053
0.00145012
0.000287987
-0.000808051
-0.00473523
0.0103275
4.23062e-05
-0.00563459
0.0160672
-0.00571158
-0.00465136
-0.00570422
-0.0403891
0.00806087
0.0368884
-0.00456013
-0.039164
0.010741
-0.0550414
-0.0543805
-0.00308055
0.0555703
0.00189082
0.0904812
-0.0893884
0.0229072
-0.024
0.0498993
0.0600588
-0.0713282
-0.0386299
-0.0324377
0.0513097
-0.058036
-0.00257722
-0.00104652
0.00388106
-0.000257317
0.0317286
-0.0637582
-0.00040814
0.0610991
-0.0611139
-0.0320853
0.0321001
0.0126405
-0.0172883
0.00124666
0.00340113
-0.0361752
0.106438
0.0608745
-0.131137
-0.0846747
0.107751
0.00874382
-0.0318197
-0.131025
0.0318567
0.0297597
0.0694085
0.0151442
-0.0616539
0.036764
0.0097457
0.0602189
0.00946986
-0.0545445
-0.0440032
0.0104254
0.00200509
0.0315728
-0.0504107
-0.0411756
0.0654528
0.0261335
-0.0334344
0.0403669
-0.0139719
0.00703935
-0.0195297
-0.101918
0.0645698
0.0568779
-0.0865612
0.0864449
0.000116279
0.0321164
-0.00264657
-0.0747253
0.0452555
0.00130278
0.0251757
-0.0263882
-9.02916e-05
0.0269142
-0.0504058
0.0234915
0.000106659
-9.47625e-05
-1.54846e-05
3.58818e-06
0.000224566
-0.0589192
0.0586946
-0.06862
0.0426487
0.0627449
-0.0367736
0.0900397
-0.0255158
-0.0125903
-0.0519337
-7.90169e-05
0.0700309
0.000113669
-0.0700656
-0.0475169
0.0730123
0.0393941
-0.0648895
0.000523956
0.00102806
-0.000364898
-0.00118712
-0.00226567
-0.00355984
0.000380275
0.00544524
-0.0382761
0.0839612
-0.0461164
0.000431269
0.000318746
-0.000769743
-0.000680593
0.00113159
-0.0548705
0.0544343
0.000436203
0.074836
-0.0077401
-0.0187169
-0.048379
-0.0974965
0.0900692
0.00544673
0.00198057
-0.0554744
0.0275531
0.0113013
0.01662
-0.00236882
-0.0157924
0.00703445
0.0111268
-0.0123825
0.025879
0.0374818
-0.0509783
0.000890978
-0.000255092
-0.000317139
0.000106461
8.71635e-06
0.000699915
-0.000815093
0.00114805
0.000215751
-0.000804758
-0.000559039
0.00411347
-0.00916889
0.00519105
-0.00013563
0.0679145
0.0050609
-0.0172095
-0.0557659
-0.015007
-0.00457031
0.0102121
0.00936519
-0.0409825
-0.053106
-0.0549135
0.149002
0.00355805
-0.0337557
-0.0039614
0.034159
-0.00043183
0.000543927
0.000700317
-0.000812414
0.00472569
0.00427253
-0.0283416
0.0193434
0.018699
-0.00683981
-0.00953114
-0.00232807
0.0418742
-0.0762548
-0.0275344
0.061915
-0.0283262
-0.00337743
0.010273
0.0214307
0.0119818
0.00805056
0.0129229
-0.0329552
-0.000857286
-0.000403477
-5.25231e-05
0.00131329
0.0251857
-0.00970959
0.0365865
-0.00121147
0.000828377
-0.00144739
0.00183047
0.0444156
-0.0330129
-0.0684145
0.0570118
0.00062894
-0.000293479
-0.000335462
-0.0010769
-5.87317e-05
0.000562876
0.000572753
0.00091717
-0.000384553
0.000901599
-0.00143422
0.0223015
-0.0219313
-0.062735
0.0623648
0.00119627
-0.0127475
0.00265987
0.00889136
0.0431697
0.0579825
0.0188055
-0.119958
-0.116365
0.0259902
0.129104
-0.03873
-0.00515381
-0.0439736
0.00389323
0.0452342
0.0531111
-0.0285674
0.0253049
-0.0498485
0.0247517
-0.00403509
-0.150832
0.130116
0.00643995
0.0174356
-0.0267165
0.00284089
0.000697166
-0.000244073
-0.000691761
0.000238668
0.0379026
0.0128065
-0.00183453
-0.0488746
-0.00194139
0.0836476
-0.0854062
0.00369997
-0.018059
0.0499775
-0.116357
0.084439
0.0419038
0.0053807
-0.0524383
0.0420133
-0.000109532
-0.00236021
-0.0290042
0.0413206
-0.00995624
0.0709991
0.0167483
-0.0313476
-0.0563998
0.128357
-0.141835
-0.0280544
0.0415323
-0.0148655
-0.0452985
0.0578038
-0.0813509
-0.000793446
0.0821444
0.0012787
-0.0981815
0.164293
-0.0673906
-0.00240568
0.00331781
-0.000560234
-0.000351902
0.0885211
-0.147612
0.0309021
0.0281884
0.00155087
-0.000315978
0.000824265
-0.00205916
-0.085867
0.143035
-0.103936
0.0467674
0.029418
0.00319825
-0.0398363
0.00722
0.0870581
-0.0162654
-0.0799086
0.00911586
0.00584581
0.0311473
-0.0518586
0.0310432
0.0280584
-0.132751
0.0736495
0.0854299
0.112964
-0.0790625
-0.119331
0.000293909
0.000768513
-0.00282501
0.00176259
-0.0945709
-0.0294243
0.111971
0.0120246
0.00135318
-0.00590481
0.0153182
-0.0107665
-0.0139348
-0.0334381
0.0574751
-0.0101022
-0.0053602
0.01667
-0.0141564
0.00284664
0.000326893
-0.000667039
-0.00052055
0.000860696
0.0212655
-0.0255169
-0.00110884
-0.00177609
-0.000724831
0.00145941
0.00104151
-0.057189
0.0598996
-0.00271057
-0.00243043
-0.00617588
-0.00201107
0.0106174
-0.0360968
0.0278033
-0.0056413
0.0183948
-0.0472817
-0.0557878
-0.0511043
0.0414435
0.0982427
-0.0885819
-0.00746965
-0.00169114
0.00498862
0.00417217
0.0469262
0.0115345
0.00197646
-0.0604372
0.000345984
-0.00911699
0.00668351
0.00208749
-0.039235
-0.0532736
0.0116751
0.0808335
0.064694
-0.0388699
0.0266151
-0.0524392
-0.00946598
0.0596733
-0.0589798
0.00877248
-0.0591376
-0.0339778
0.00807926
0.0850362
0.0165902
0.005102
-0.0333543
0.0116621
0.0596719
-0.0594596
-0.000212259
0.00186629
0.00183425
-0.00126226
-0.00243828
0.0411554
-0.0436062
0.00245077
-0.0526768
-0.0376984
0.105534
-0.0151583
0.000847605
-0.00970621
0.00948366
-0.000625056
0.00301479
0.00594998
0.0025561
-0.0115209
0.00181323
0.00616115
-0.0076284
-0.0250766
-0.0574002
-0.0092283
0.0917051
0.0256378
-0.00736503
0.0171575
-0.0354302
-0.084187
0.0923788
-0.101412
0.09322
0.0780768
-0.0518177
-0.0262591
0.00142121
-0.0344509
-0.0100607
0.0430904
0.0081215
-0.00551757
-0.00908974
0.00648582
0.046214
-0.0698278
-0.0615271
0.0851409
0.0741146
-0.064716
0.0292807
-0.0386793
-0.013236
-0.00836195
0.0315739
-0.00997587
-0.0583606
-0.0871494
0.05664
0.08887
-0.0415769
0.0539957
-0.0109975
0.0977801
-0.0484443
-0.0493358
-0.00422091
0.0147639
-0.00242149
0.000953054
0.000652914
-0.000700631
-0.000905337
0.0474731
-0.015936
-0.00526479
-0.0262724
0.00354944
-0.00179954
-0.000500777
-0.00124912
0.00551755
-0.0100227
0.00859841
-0.0040933
0.0728266
-0.0421841
0.0255853
-0.0562278
0.00855399
-0.000327035
-0.00680962
-0.00141734
0.00163259
-0.000577411
-0.00105518
-0.0640689
0.0643895
-0.000320618
0.0122411
0.00571631
-0.0965205
0.078563
-0.0111733
0.0140935
-0.0102076
0.00728747
-0.072438
0.0166384
0.0828048
-0.0270051
0.0182515
-0.0973948
0.0756597
0.00348356
-0.0525747
0.0427056
-0.00815321
0.0180223
0.00859299
-0.00177683
-0.00288193
-0.00393424
8.33149e-05
-0.000944421
0.000861106
0.0278297
0.170358
-0.243924
0.0457365
0.000303666
-0.000243781
-0.0250103
0.0604352
-0.0526223
0.0171974
-7.18565e-05
0.00514284
-0.00426377
-0.000807219
0.000636262
0.00179567
-0.00281649
-0.0715437
0.000354599
0.0711891
-0.0325117
0.114061
-0.0478478
-0.0337015
0.00034476
0.000728668
0.00943579
-0.0105092
0.00012926
0.0899887
-0.0901179
0.00234264
-0.00163612
-0.00115185
0.000445327
0.00129415
0.000626668
-0.000634475
-0.00128634
-0.036554
-0.00149163
0.0323439
0.0192554
-0.0639818
-0.0720649
-0.0165541
0.00618687
0.0824321
-0.000593214
0.00188736
-0.0993425
-0.0419437
0.112523
0.0287629
0.0275186
0.169138
-0.0845638
-0.0573385
-0.0272358
-0.0176792
0.118642
-0.0435184
-0.0574444
0.0402043
0.0302143
0.0379195
-0.108338
0.104984
-0.248105
0.108802
0.0343184
0.00155644
-0.00135861
-0.00142481
0.00122699
-0.012097
-0.0357569
0.0559265
-0.0080726
0.0253268
0.0404501
-0.0257957
-0.0399811
-0.0353245
-0.0259307
-0.0197256
0.0809808
-0.053893
-0.0134869
0.0552829
0.000732465
-0.0120168
0.00839511
0.00288919
0.0554042
-0.0284753
-0.0508588
0.0239299
-0.0887169
0.104613
-0.0500436
0.034147
0.0159989
-0.0229687
0.00713403
-0.000164195
0.0518081
-0.0601028
0.0636989
-0.0566934
-0.00370984
-0.0141696
0.0745728
-0.00537081
-0.0126004
0.00214461
0.0158266
-8.48883e-05
0.0576515
-0.0572451
-0.000321554
0.136347
-0.0535601
-0.00338051
-0.0794064
0.0594973
-0.00776063
-0.0484645
-0.0032722
0.0525232
-0.0207894
-0.0749348
0.043201
-0.00961949
-0.00201898
0.0147775
-0.00313899
0.00527534
-0.00161373
-0.00478588
0.00112427
0.00219388
-0.0432217
0.0398053
0.00122248
-0.00092254
-0.0863736
0.00354871
0.0193729
-0.0129935
-0.0633209
0.0472527
0.0160682
-0.0596006
-0.0169774
0.0108565
0.0657214
-0.0983971
-0.00173539
0.103032
-0.00289935
0.00377048
0.0232855
-0.0126047
-0.0144513
-0.0707697
0.149966
-0.066172
-0.0130238
-0.00508773
0.0140569
0.0224536
-0.0314228
-0.0509734
0.0975911
0.0382457
-0.0848634
0.0279838
0.00219843
-0.0147871
-0.0153951
-0.0360026
0.0371229
0.00107358
-0.00387598
0.00685352
-0.00925452
0.00627698
-0.000388501
-0.00427817
0.0101842
0.0361036
0.0383433
-0.0744469
0.00111358
-0.00185475
5.59794e-05
0.000685183
0.0190731
0.00837766
-0.018472
-0.00897874
0.0218162
0.0102408
-0.00243779
-0.0296192
-0.0511155
-0.000863901
0.00616581
0.0458136
0.000207893
-0.0434296
-0.000920837
0.000581595
0.00145283
-0.0521061
0.037345
0.0519049
-0.0371438
-0.0443312
0.0297942
0.0185988
-0.00406176
0.00132186
-0.00320072
-0.00971581
0.0115947
-0.00877974
-0.00498759
-0.00355032
0.0173176
-0.0430472
-0.00468922
0.0117339
0.071838
0.0394271
-0.0716756
-0.0395896
-0.0440998
-0.000406599
0.0445064
0.0863289
-0.0486362
0.0594077
0.00358795
-0.00776944
-0.0379109
0.0420924
0.0357193
0.0112708
-0.00576373
-0.0412264
-0.00048076
0.000287466
0.000994021
-0.000800728
-0.0169002
-0.0446518
0.061552
-0.000289595
-0.00126806
-0.00452723
0.0314999
-0.0233847
0.00608169
0.0280965
-0.0419476
0.0979158
-0.0909395
-0.00204862
-0.00492767
-0.0210705
0.100806
-0.0187621
-0.0609736
-0.0320085
0.00683356
0.0151689
0.010006
-0.0392736
0.0358065
0.0143538
-0.0108867
0.0324656
-0.0251253
0.00137615
-0.00871643
0.0183541
0.0720591
-0.120664
0.0302514
0.0760523
-0.0749034
-0.0242174
0.0230685
-0.142859
0.00253082
0.00306458
0.137263
0.0302101
0.0125277
-0.0410474
-0.00169037
0.0400924
-0.0578635
0.020213
-0.00244182
0.00208397
-0.00123993
0.000231994
-0.00107603
-0.0148543
-0.00143544
0.0733903
-0.0416357
0.0188323
-0.0505868
-0.0115691
0.0475342
0.000638873
-0.0366039
0.0057219
0.0955037
-0.0930778
-0.00814779
0.0498665
-0.0989569
0.0582864
-0.00919605
-0.0487697
-0.000393288
0.0375938
0.0153609
-0.0039561
0.00872737
-0.0201322
-0.0234369
0.0478317
-0.0133387
-0.0110561
-0.0487027
-6.69913e-05
-0.00524022
-0.122735
0.175855
-0.0478799
0.010116
0.00940011
-0.0630009
0.0434848
0.0500377
0.00535898
-0.0452807
-0.0125209
0.00670282
-0.00357427
0.0093923
-0.0557312
8.43929e-05
0.0556468
0.109936
0.0439875
-0.13574
-0.018184
-0.00903778
0.000427106
-0.00391018
0.018655
-0.115509
-0.0225193
0.119373
0.0126288
0.0659607
-0.0691894
0.00298482
-0.0553871
-0.0105985
0.000452785
0.00184781
-0.00259019
0.00195401
-0.00183668
0.000335451
-0.0508441
0.0253952
0.0744287
-0.0489799
-0.00193962
0.000976482
0.000904408
-0.0345007
-0.00769943
0.045185
0.000211871
-0.000303687
0.000331608
-0.000896689
9.62333e-05
0.000468848
5.35556e-05
0.00211233
-0.00171463
0.00136204
8.64043e-05
0.000266189
0.00049025
-0.000314483
0.00071521
0.105483
0.12069
-0.0787905
0.000112548
-0.000824467
0.00120217
-0.0528988
0.0530777
-0.000178868
-0.0110464
0.0758486
-0.0710071
0.00620486
0.0018207
-0.0192578
0.00505969
0.0123774
-0.0604761
-0.00346917
-0.0170812
0.00401883
0.0476302
-0.0345677
-0.0645402
-0.00158053
0.0661207
-0.00623004
-0.0164721
-0.0125945
0.0352966
0.00027077
-0.000350564
-0.000473646
0.00055344
-0.00407323
-0.00731838
0.00891318
0.00247843
0.0549814
0.0439119
-0.0175103
0.0476077
0.0889308
-0.0380131
-0.0985254
-0.0124847
-0.0444993
-0.0206968
0.0201479
-0.0559787
0.0565276
-0.0104268
0.0291528
-0.00707851
-0.0116475
-0.0152001
-0.0134416
0.0138389
0.0148028
0.0971454
-0.0959096
0.0185622
-0.0197979
0.00105868
-0.0043185
-0.000287021
0.00354684
0.000794384
-0.0654507
0.0646563
-0.0730446
0.00367675
0.0669358
0.00243206
0.0394256
0.0380677
-0.0774933
0.0189506
-0.0603524
0.0289172
0.00220916
-0.00130704
0.000717449
-0.00161957
0.000125359
-0.000447293
0.00158118
-0.00125925
-6.24666e-05
0.00039869
-0.000948024
0.000611801
0.0632776
0.0559492
-0.0389118
-0.080315
0.00542948
-0.0865129
0.0823669
-0.0012835
-0.0135242
0.000229745
0.026541
-0.0132466
0.0528226
-0.0523384
0.019309
-0.0197932
-0.000488347
0.00129447
-0.000645872
-0.000160254
0.0203558
0.0479083
-0.0493135
-0.0472367
-0.00175414
0.000873779
0.00156296
-0.000682592
0.000672831
0.0795672
-0.0802401
-0.0499528
-0.0154172
-0.0223592
0.0877291
-0.0501991
0.000246358
0.0116666
0.0169623
0.0166416
-0.0452706
0.000491942
-0.00280001
0.000243309
0.00206476
-0.00167347
-0.000696359
0.000615684
-0.106918
-0.00863731
-0.0436372
0.159193
-0.0105386
0.00718782
0.137803
-0.134453
-0.0381256
0.0423171
-0.0648749
0.0606834
-0.0786361
0.0781685
0.000467672
0.00157431
-0.0504346
-0.030336
0.0656401
0.0191985
-0.00540334
-0.0794352
0.0501787
0.0938035
-0.155819
0.0118369
0.0419019
0.0157729
0.0329832
-0.090658
0.104343
-0.108094
0.0431762
-0.00340828
0.0129031
-0.0116589
0.00216411
-0.00207324
0.000150057
-0.000750532
0.00267372
-0.00276699
-0.00550908
0.00155759
0.00671848
0.0606864
-0.00597604
-0.018376
-0.0363343
-0.0567287
0.0282646
0.0284641
-0.0924897
-0.00788146
0.012368
0.000376058
-0.000438595
-0.00201071
-0.117205
0.0255326
0.00506403
0.0866081
0.000970425
-0.0536977
-0.0098488
0.0625761
0.0453831
0.0287257
-0.101367
0.0272583
0.0380266
-0.0441191
-0.0187694
0.0248619
0.0478595
-0.0602671
0.0504342
0.030663
-0.0559478
0.0497681
-0.0244834
0.034361
-0.0358448
0.000532436
0.000951383
0.0165096
-0.142092
0.0909004
0.0346823
0.00121401
-0.0611938
-0.00348107
0.0524449
0.000540343
-0.10846
-0.0337432
-0.00912887
0.00672854
0.0361436
-0.0485963
0.0445086
0.0503684
-0.0462807
-0.0424741
0.0823041
-0.03983
0.0108356
-0.102793
0.0478381
-0.0167982
0.00762278
0.0243526
-0.0151772
-0.0885173
0.0933068
0.0368549
-0.0416445
0.0583653
0.0330613
-0.0826468
-0.0087798
-0.0476309
0.14228
0.00449095
-0.0991399
-0.000485274
0.00307551
0.00350351
-0.00609375
0.0541975
-0.0726369
0.0830843
-0.064645
0.0086971
-0.0400553
-0.00847763
0.0398359
-0.0436742
0.0318648
0.102735
-0.0909259
-0.0500539
-0.0265541
0.0533021
0.0233059
-0.0101179
-0.000444917
0.00642017
0.00414268
-0.00983072
0.0213121
-0.0179223
0.00644095
9.23266e-05
0.0737298
-0.0738222
0.0149364
-0.0442568
-0.0192759
0.0485288
-0.0339996
-0.00126514
-0.0132641
0.00153484
-0.0252314
-0.020317
0.0440136
0.0348039
-0.0347812
-2.26552e-05
0.0615533
-0.0416524
0.0638623
-0.0837632
-0.0996763
0.0973785
0.0994431
0.000109911
-0.0107445
-0.0018047
0.0124393
0.0497403
-9.6731e-05
-4.33858e-05
3.20501e-05
0.000108067
-0.000198497
0.0470216
-0.109097
0.0622742
-0.00859183
-0.000509896
0.00495623
0.0041455
0.0268641
0.00998401
-0.0368481
0.00119795
-0.00102771
-0.00876206
-0.0321612
-0.0328786
0.0123629
0.0571754
0.000765678
-0.0579411
0.0728578
-0.0441176
-0.051196
0.0224558
0.00180962
-0.0247145
-0.0210984
0.0694574
0.0429871
-0.0395867
-0.0079633
0.00927116
0.134351
-0.119627
0.0358339
-0.0505575
-0.0450428
0.0366829
0.02189
-0.0135301
-0.0528182
0.0522965
0.000521769
-0.0478323
0.0297038
0.0105404
-0.0467476
-0.0105875
0.0467946
-0.00256936
0.159745
-0.159047
0.00187105
0.10772
0.0159745
-0.0159445
0.0509174
0.00860094
-0.0513587
-0.00815958
-0.014382
0.00455314
0.0105918
-0.000762983
-0.00953189
-0.00529662
0.00475925
0.0100693
0.0663187
-0.0378009
-0.0529821
0.0244644
0.0297921
-0.0157587
0.0237755
-0.0378089
0.0268086
-0.0936936
0.0896402
-0.0227552
-0.00573506
0.000417367
-0.00906426
-0.094017
0.107462
-0.0235789
0.0101337
-0.011362
0.0478564
0.0138533
-0.0503476
-0.00436202
-0.000136681
0.00319661
0.00130209
0.0829844
-0.00491164
0.0514095
-0.129482
4.9466e-05
-0.000725615
1.85381e-05
0.000657611
-0.0664257
0.0581769
0.0740898
-0.0658409
0.00358619
0.00122681
-0.00226926
-0.00254373
-0.0780191
0.0757476
0.00227151
0.0622991
-0.0588869
-0.00341223
0.0603136
-0.000615035
-0.0596986
-0.0114833
0.123509
-0.000722367
-0.111304
0.00988296
-0.0311133
0.0328969
-0.023847
-0.000145878
-0.0564218
-0.0675832
0.0122072
0.0665307
-0.0111547
-0.013161
-0.00210596
0.000430542
-0.00067189
-0.000184722
0.00042607
0.00113444
-0.000185821
-0.000235391
-0.000713224
-0.0635416
0.00739187
-0.0011873
0.0573371
0.000471566
-0.00541539
0.00184454
0.00309929
0.0120217
-0.0145387
1.15841e-05
0.00250543
0.00811012
-0.00671741
0.0106289
0.0557403
-0.00941802
-0.0224854
-0.0238369
0.0362417
-0.00550589
-0.0364839
0.00574812
0.000390326
0.0667943
-0.000358669
-0.0668259
0.00759079
-0.0717648
0.0193831
0.0447909
-0.0427138
-0.0323448
0.0420981
0.0329605
-0.034868
0.0206776
-0.0908623
0.105053
-0.000874722
0.0150502
-0.00777786
-0.00639766
0.0491147
-0.0590833
0.047465
-0.0374964
-0.0627767
-0.00670441
-0.00799573
0.000711099
-0.000146952
0.00424245
-0.00480659
-0.0118744
-0.00274662
0.00177421
0.0128468
-0.00796586
-0.0091729
0.0107221
0.00641666
-0.000134951
-0.00215425
0.00132943
0.000959776
-0.000463506
0.00056178
-9.82739e-05
0.00134269
-0.0717576
-0.0262912
0.0967061
-0.000162931
-0.000142602
-0.00131409
0.00161963
0.00014007
-0.000490156
-0.00011342
0.00195156
-0.0664917
-0.000126361
-9.02115e-05
0.000778352
0.000653707
9.31324e-05
-0.000418258
-0.000328581
-0.0280664
0.0643731
0.0769862
-0.113293
-0.00903372
-0.00221492
0.00718129
0.00406735
-0.014428
-0.000257363
0.00565165
-0.00523223
0.00542957
0.0129814
-0.0131787
-0.000690304
0.000858562
-0.000294619
-0.065763
0.0664323
-0.000669317
0.0303054
0.0468304
-0.0598354
-0.0173004
0.0123774
-0.0755567
-0.0217416
0.0849209
-0.0133372
0.0027027
0.0054023
-0.00450634
-0.00630502
-0.00252587
-0.0165028
0.0581141
0.0128805
-0.0544919
0.0692168
0.00462533
-0.0535146
-0.0203275
0.000154174
0.000430497
-0.000793352
0.00020868
-0.000297361
-0.000252872
-0.00260449
-0.00114686
-0.00124586
0.00499721
0.0652428
-0.0459837
0.0119556
-0.0312147
-0.000798006
-0.00264317
0.00143357
0.00200761
-0.0160984
0.0104963
-0.00401495
0.00961709
0.00179979
-0.101465
0.101391
-0.00172599
0.00300363
0.000710189
-0.01038
0.00666617
0.00983589
-0.0105013
0.00165711
-0.000991656
0.00988731
0.00374782
-0.0106315
0.037112
0.0560241
-0.0278933
-0.0272959
0.0548183
0.0282094
-0.0557319
0.0277361
-0.055032
-0.000279573
8.82452e-05
-0.0332431
0.0124671
-0.0100394
0.0792152
0.0233221
0.00740789
0.0688487
-0.0541564
0.0978283
-0.112521
0.00475253
0.0924228
-0.0971753
-0.00682862
-0.00685546
0.0132293
0.000454805
-0.0339263
-0.0874218
0.0277452
0.093603
0.0225192
0.0615843
-0.0250556
-0.0590478
-0.0234482
0.113628
-0.0530682
-0.0418808
0.0449062
0.0517929
-0.055952
0.055562
0.000389902
-0.03873
0.0367619
0.00196812
0.0403442
-0.0792214
0.0729646
-0.0340874
0.0668142
-0.083317
-0.00944878
-0.00814708
0.0107672
0.000901185
0.000646311
-0.000607642
-0.000939854
-0.00603881
-0.0425839
-0.00732926
0.00127134
0.00140461
-0.00252052
-0.000155434
-0.0573697
0.0517025
0.0857482
-0.0800811
0.0345394
-0.032881
-0.00165847
0.00857272
0.020717
-0.0113864
-0.0179033
0.00423023
-0.000516377
0.00220338
-0.00591723
-0.0644184
-0.000557098
0.0203174
0.044658
-0.00283758
0.00672506
0.000342752
0.0398467
-0.109799
0.104057
-0.0341047
0.0457005
0.0141208
-0.0593911
-0.000430169
-0.00358456
0.00694667
0.00156831
-0.00493041
-0.000164242
0.0607779
-0.0606137
0.0371352
0.00632023
0.0147577
-0.0582131
0.00422219
-0.00731745
0.00257888
-0.182181
0.0281234
0.161488
-0.00743078
0.0389987
-0.0109719
-0.0280268
-0.0011168
-0.00154703
-0.00119748
0.00386131
-0.0413845
0.0448456
0.124241
-0.127702
-0.00180525
0.000655132
-0.00205281
0.00320293
0.0910824
-0.00252331
-0.0428586
0.000473722
-0.0011818
0.00204905
-0.00134097
-0.0186842
-0.11608
0.0161067
0.118658
0.00400863
0.0519629
-0.00394504
-0.0520264
0.0488539
-0.0703333
0.0602096
-0.0387302
0.0317881
-0.0364645
0.0486836
-0.0440072
0.00858623
-0.00209133
0.00605858
-0.0125535
0.00110667
-0.0444877
0.0532749
-0.0536029
-0.0361365
0.0970404
0.0179747
-0.0249019
-0.0901133
0.0476979
0.0179247
-0.13502
0.0693977
-0.00164564
-0.00861909
0.00632004
0.00394469
0.0280724
-0.0503214
-0.00334038
0.0290115
-0.0267127
0.00743542
-0.00579036
0.000104754
-0.00174981
-0.0867041
0.00294165
-0.00109349
0.0723621
-0.149844
0.0785753
-0.0269937
-0.0872092
0.0414044
0.0727985
-0.0721723
0.0211119
0.00233774
0.0487226
-0.0434602
0.0293554
0.0103985
-0.0829627
0.0962431
-0.0132804
-0.0208039
-0.00949358
0.118069
-0.0877714
-0.00349941
-0.00393407
0.00608695
0.00134652
-0.0258184
0.0592052
0.0407278
-0.0721758
0.0280582
-0.000724384
-0.000405908
-0.000982654
0.00211295
0.0466556
-0.0489438
0.0547332
-0.0376705
-0.00693
-0.0452267
-0.124413
0.048019
0.0763941
-0.0429394
-0.0325175
0.0276246
0.00307686
-0.00213168
0.000693146
-0.00163833
0.00265377
-0.000294971
0.000718064
-0.0860814
0.00329233
0.082789
0.0608042
0.0138841
-0.122884
0.0481956
-0.0712558
0.000427282
0.0708285
0.00137314
-0.00188917
0.00838072
-0.0078647
0.0486466
0.155027
-0.2251
0.0214257
0.00177686
-0.0022788
0.00147912
-0.000977184
-0.0916467
0.0650276
0.0264139
0.000205316
-0.00279423
-0.0009021
0.00303014
0.000666195
-0.000758624
0.00838155
-0.00818045
0.00055753
0.0081075
0.00789027
-0.015324
-0.000673744
0.0410812
0.012351
0.00300217
-0.00269672
0.00147142
-0.0983738
0.105412
0.00714376
-0.0141822
0.0118098
-0.0667381
-0.0229154
0.0778437
0.00194657
-0.00424784
0.0879992
-0.0856979
-0.042221
-0.0364697
0.0876474
-0.0089567
-0.0407892
0.024703
0.04047
-0.0243838
0.0537465
0.0210826
-0.0727459
-0.00208319
-0.00178807
0.000203829
0.00185462
-0.000270378
-0.123864
-0.0429086
0.0399276
0.126845
0.0483275
-0.0377871
-0.031495
-0.0377662
-0.0310259
0.100287
-0.00192846
0.00428213
0.000337317
-0.00269098
-0.0308918
-0.0801184
0.0281866
0.0828236
-0.0295996
-0.0288975
0.0208267
-0.000844304
-0.00321584
-0.00168305
0.00335121
-0.00370051
0.00203235
-0.00562531
0.00553334
0.0253614
-0.0772604
-0.0853729
0.137272
-0.000332607
-0.000400784
0.000416686
0.000316705
0.0572191
-0.0604915
0.0475143
-0.0442419
-0.014637
0.0432241
-0.00738993
-0.0211971
0.0862183
-0.0858898
-0.018622
0.0182934
0.0263029
0.0224929
-0.0635848
0.014789
-0.127525
0.0742148
0.0183
0.0350103
-0.00524217
0.00293012
0.000133736
0.00217831
-0.00789371
0.00963199
-0.000365136
-0.0134639
-0.00370729
0.0182863
-0.00111514
-0.0626765
-0.00468281
0.0146943
0.052665
-0.00938557
0.103557
-0.00525862
-0.088913
0.00917374
-0.0471921
0.0801527
-0.0421344
-0.00164439
0.00417128
-0.00168803
-0.000838855
-0.0148995
0.000310803
-0.00228568
0.0168744
-0.107679
0.0049639
0.0125404
0.0901749
6.43085e-05
-0.000326723
0.000685961
-0.000423546
0.0367586
0.00805663
0.0270228
-0.00472084
0.0455703
0.0531179
-0.0939674
-4.12539e-05
0.000723934
-0.000618372
-0.000586116
0.00212626
-0.00143437
-0.000105772
0.0173433
0.110335
-0.047157
-0.0805217
-0.00021946
-0.000107263
0.000224941
-0.000444401
0.0619035
0.017128
-0.0923004
0.0132688
-0.156974
0.0864413
0.076533
-0.00599995
-0.0182919
0.000499362
-0.0518028
0.0695954
0.0251593
-0.0149474
0.0171236
-0.0273355
-0.0662299
-0.0234598
0.0896898
-0.0776827
0.0381997
0.039483
-0.00217301
-0.000250358
0.000283854
0.00213951
-0.038812
0.0417521
0.00758665
-0.0105267
0.0470071
-0.054775
0.00776791
-0.0606762
0.0337987
0.0452589
-0.0183815
0.00448048
-0.00245612
-0.00182226
-0.000202092
-0.00318554
-0.00259168
0.000535051
-0.0420698
-0.0421172
0.0461921
0.0142961
0.00219497
-0.0626831
0.00229877
-0.000349844
-0.00194243
-6.49569e-06
0.0025288
0.00440778
-0.00830994
0.00137336
0.00714353
0.0218335
-0.0399538
0.0109768
-0.0190897
-0.0155122
-0.00912135
0.0437232
-0.0753083
-0.01059
0.0304127
0.0554856
-0.00171836
0.014874
-0.00827022
-0.00488545
-0.0528668
0.000419654
0.0333574
0.000210869
0.0251114
-0.135155
0.126173
-0.0161288
0.0287106
-0.0342989
-0.0516006
-0.0271435
0.0548796
8.61604e-05
0.0398148
0.00320797
-0.0431089
-0.0558563
-0.0598627
0.115719
-0.00307857
-0.00107818
-0.00171969
0.00587644
0.00319343
-0.00471061
0.00171432
-0.000197141
0.0361894
-0.00553212
-0.0283004
-0.00235687
-0.00316734
-0.00228796
0.00237672
0.00397698
-0.0118415
0.0666103
-0.0587458
0.0759865
7.30058e-05
0.0279431
0.00920119
-0.00619429
-0.03095
0.0587301
-0.000476934
-0.0582532
-0.0528874
0.113362
-0.0284551
0.0597823
0.020126
-0.0514532
-0.0153857
-0.0251138
0.0165799
0.0239196
0.00323654
0.00367178
0.000769397
-0.00767772
-0.0337772
-0.0383104
0.0992818
-0.0271942
0.0437472
-0.0355382
-8.60516e-05
-0.00812287
-0.0513645
0.115063
-0.0497
-0.013998
-0.00149513
0.00178708
-0.000190976
-0.000100976
-0.000997094
0.0217299
-0.00429097
-0.0164419
0.00284374
0.00394456
9.49273e-06
-0.0067978
-0.000249776
-3.70905e-05
-3.66988e-05
0.000323565
3.46767e-05
6.43366e-05
-0.000348789
-0.00879408
0.0222546
0.070418
-0.0838785
0.0805942
-0.0798401
-0.000754092
0.000310885
-0.000366169
5.52837e-05
-0.0128533
0.000949446
0.00223662
-0.00139013
-0.00179594
-0.00779684
-0.00549789
0.00476279
0.00853194
-0.0557727
0.0273176
0.000221896
0.000297964
-0.000805933
0.000286073
0.034214
0.0542291
-0.0343398
-0.0541033
0.0128373
0.157837
-0.179527
0.00885267
0.0583512
0.0635462
-0.062115
0.00196176
-0.0130858
-0.00175944
0.0128835
-0.0333606
-0.0300941
0.0634547
0.0311583
-0.0645189
-0.0544709
-0.0445974
-0.0652584
0.164327
0.0502718
-0.0563362
0.00606446
-0.0730101
0.134664
-0.071072
0.0329382
-0.0302248
0.0852609
-0.0039867
-0.0684855
-0.0127887
0.070228
-0.0710953
0.0109748
-0.0101075
-0.000141051
-0.00606235
0.00742105
-0.00121764
0.00222979
-0.00566392
0.00643209
-0.00299796
-0.000205515
0.000131683
0.000752477
-0.000678644
0.0222247
0.0227637
-0.0338044
-0.011184
-0.00514531
-0.00527559
0.00613787
0.00428303
-0.0110622
0.0320873
-0.0426295
0.0216043
0.000969486
-0.0085124
0.0109949
-0.00345198
0.0494741
-0.00429433
-0.0451798
0.03812
0.0354693
-0.126565
0.0529758
-0.097933
0.0599404
0.0761126
0.0330104
-0.0997851
-0.0467602
0.108117
-0.0374087
-0.0239484
0.00175915
0.00886396
-0.012295
0.00167194
0.0281393
-0.00317693
-0.0249624
-0.0305125
0.0436927
-0.00356629
0.0199245
-0.0315583
0.0011416
-7.54321e-05
0.000963185
-0.00202935
0.0118388
-0.0385515
-0.00108542
0.000184556
0.000308492
0.000592369
0.00266973
-0.000283316
0.000977527
-0.00336394
-0.000980633
-0.00222247
-0.0778465
-0.013416
0.00152738
-0.011721
0.0236097
0.0204405
-0.0908674
0.0206409
0.049786
-0.00322269
0.0581139
-0.0821543
0.0272631
0.00107789
-0.000747892
0.000962196
-0.0012922
0.078848
0.012555
0.00211969
-0.0935227
-0.000877078
-0.000763793
0.00194622
-0.000305352
0.00482422
-0.000257289
-0.0699894
0.0654225
0.00644951
-0.000900387
-0.00477298
-0.000776147
0.00634233
0.00441493
-0.00351234
-0.00724492
-0.111046
0.0969742
-0.0878233
0.101895
-0.0551412
0.109793
-0.0546519
0.00245978
-0.0444118
0.00926434
0.0326877
0.00354523
-0.0036043
0.00082088
-0.000761812
0.0492023
-0.00318407
0.00151591
-0.129435
0.00284439
0.0737036
-0.0333876
-5.05847e-05
0.0015383
0.0306451
-0.0250952
-0.00708819
0.0781576
-0.0307315
0.0341909
0.00399715
-0.0049478
0.000203128
0.000747526
0.0335419
0.0231946
-0.0740351
0.0172986
-0.000180049
-0.00011279
0.000338834
-4.59941e-05
-0.000399269
0.00150067
0.00524092
0.000154353
-0.00782279
0.00621005
0.0056099
0.0746354
0.0407927
-0.0370791
-0.078349
-0.13172
0.140853
-0.00828318
-0.000850048
0.0314839
-0.032194
0.0007101
-0.036037
-0.000110347
0.000321101
-0.00304204
-0.00222686
0.014848
0.206618
-0.158843
-0.0626231
0.028886
-0.0605739
-0.0174667
0.0491547
-0.00308676
0.0392045
-0.000738591
-0.0858184
0.0473526
-0.0227287
0.00988635
-0.0380029
0.0476488
0.0462988
-0.0559446
-0.0667467
0.0891006
-0.151906
0.129552
-0.000158491
0.000124193
-0.00145515
0.00148945
0.000236768
0.00219783
-0.000669984
-0.00176462
0.0444728
-0.0156452
0.0395916
-0.0684191
-0.0034964
0.000383215
0.00325699
-0.000143808
-0.0118386
0.0108668
-0.0370311
0.0121666
-0.0463196
0.00583008
-0.00309558
0.0181405
-0.020875
-0.134024
0.0173257
0.12703
-0.0103319
0.0385923
-0.0256762
-0.017818
0.00490197
0.0344241
-0.0532411
0.00697838
0.00467484
0.00766892
0.0516706
-0.0640143
0.0248816
-0.0070797
-0.0248612
0.00705927
-0.0791406
-0.00814495
0.0148475
0.00121465
-0.00100847
3.05898e-05
-0.00186475
0.00263313
0.00158875
-0.00235713
0.0185048
-0.0320236
0.0384004
0.0177957
-0.143636
-0.0223735
0.148213
-0.112051
-0.0152782
0.0258646
0.101464
0.0571402
-0.0355387
0.0292078
-0.0508092
0.110351
-0.00636049
0.00430004
-0.10829
-0.0171368
-0.0371242
-0.00414412
-0.0158517
0.00774323
0.0122526
-0.0013557
0.000510103
0.000110979
0.000734618
0.0151948
-0.0771859
0.0619911
0.108412
-0.00738762
-0.112508
-0.0264824
0.0553314
-0.0459858
0.0398744
-0.122187
0.0145002
0.0678124
-0.00421691
-0.0122472
-0.0272739
0.043738
0.00319659
0.0492348
0.0831565
-0.130731
-0.00165989
0.0492946
-0.0830179
0.0893532
-0.0556298
-0.0966351
0.0954458
-0.00646288
0.00765215
0.0016849
0.00408191
-0.0941907
0.0884239
-0.0015583
0.00357426
0.0059314
-0.00794736
0.000175602
-0.000889065
-0.000261699
0.000975162
0.0881418
0.000719148
-0.0175439
-0.0713171
-0.000699568
0.000830408
-0.00038845
0.000257609
0.000914349