/*--------------------------------*- C++ -*----------------------------------*\
| =========                 |                                                 |
| \\      /  F ield         | OpenFOAM: The Open Source CFD Toolbox           |
|  \\    /   O peration     | Version:  2506                                  |
|   \\  /    A nd           | Website:  www.openfoam.com                      |
|    \\/     M anipulation  |                                                 |
\*---------------------------------------------------------------------------*/
FoamFile
{
    version     2.0;
    format      ascii;
    arch        "LSB;label=32;scalar=64";
    class       volVectorField;
    location    "0.0351115";
    object      U;
}
// * * * * * * * * * * * * * * * * * * * * * * * * * * * * * * * * * * * * * //

dimensions      [0 1 -1 0 0 0 0];

internalField   nonuniform List<vector> 
47425
(
(10.1225 0.0878509 -0.0443599)
(10.0304 -0.0782367 0.00555766)
(10.0513 -0.050284 0.0131892)
(11.1797 -0.472972 -0.181413)
(12.0805 0.739744 0.655697)
(10.1228 -0.0316276 0.00742763)
(11.9996 0.54728 0.607629)
(10.1117 -0.0207678 -0.00200788)
(10.0118 0.00861228 -0.000190449)
(4.14541 6.44089 -0.605005)
(10.0775 -0.00965842 -0.00709876)
(9.89758 0.172165 0.0350309)
(11.8485 0.490769 0.164388)
(10.044 -0.0328686 0.0244374)
(10.6413 0.454383 -0.113966)
(9.92995 -0.147806 -0.0160653)
(10.0569 -0.0443839 0.030906)
(8.65277 -0.439013 -1.30308)
(8.51174 1.11604 -4.66966)
(12.9991 -0.507827 -0.943477)
(10.6979 -0.630693 -0.465128)
(9.76871 -0.0731622 0.0314301)
(9.9963 0.0841685 0.0065195)
(10.073 -0.0143558 0.0663095)
(9.93161 -0.150251 0.0510866)
(9.97764 0.0543283 -0.0124593)
(9.98433 0.046655 0.0232599)
(11.2193 -0.280081 -8.2393)
(10.0092 0.0333111 0.0279724)
(10.0565 -0.00740574 -0.0419253)
(9.70207 0.747202 0.124854)
(9.95345 0.0384052 0.0120744)
(10.0084 -0.0136917 -0.00367963)
(9.98894 -0.0152129 -0.0199833)
(9.97254 -0.0480799 -0.0475149)
(10.0014 6.57802e-05 -0.0367676)
(9.70926 -0.0904649 -0.0131775)
(9.99727 0.0202175 0.00837004)
(10.5391 0.302023 -0.00440522)
(10.0049 -0.0113421 -0.00806381)
(9.89396 0.0950027 0.0302508)
(9.24133 0.280106 -0.605693)
(7.76112 -0.985102 -0.544365)
(9.98811 0.0153998 0.00660045)
(0.0086353 0.178259 1.73419)
(10.0976 0.00411406 0.0143485)
(9.97741 -0.0386351 -0.0692365)
(9.99753 0.0567124 -0.00475516)
(10.0228 -0.0153187 -0.00479205)
(10.029 -0.00614204 -0.0398459)
(2.01304 -0.623166 -5.43835)
(9.14175 0.993261 1.39124)
(10.0315 0.00253166 0.0253829)
(6.81605 -6.07868 2.97861)
(10.0155 0.0345405 -0.0281969)
(10.157 0.0577386 -0.0368788)
(10.1136 -0.0719041 -0.000575994)
(10.0922 0.00214136 0.0295311)
(12.6301 0.924234 1.30808)
(10.0146 -0.0075943 0.0298577)
(4.802 -5.95197 2.42777)
(4.93013 0.0682506 2.61982)
(6.27454 -6.77046 1.52387)
(9.13835 -1.09788 0.0735239)
(10.0068 0.00940365 -0.00611224)
(10.6539 -0.222649 0.092609)
(10.0209 -0.0251255 -0.00651053)
(10.6051 0.121167 0.458453)
(8.54416 -6.5874 3.15785)
(9.08393 0.557387 0.402466)
(10.8421 -0.380414 0.186896)
(9.98923 0.0239995 0.0639865)
(10.7011 0.00337517 0.0154376)
(10.642 0.265889 -0.569625)
(6.49099 4.37148 1.43027)
(9.99771 -0.00694323 0.00809038)
(6.88454 -6.5196 2.41356)
(10.0009 -0.00486176 0.0168903)
(8.41833 -5.75248 2.84157)
(11.5467 0.446978 1.72553)
(6.8932 3.56243 1.5177)
(10.1794 0.26093 0.0863446)
(9.25461 0.0971158 -0.154406)
(10.0079 0.0653337 0.00138234)
(9.90824 0.00469656 -0.0270705)
(10.0982 -0.043223 0.0442741)
(10.5132 -0.200704 -0.00955236)
(10.122 0.0446639 -0.00191058)
(10.4895 0.975554 -1.64069)
(10.684 -0.0021634 2.53583)
(9.78334 0.410046 0.0744376)
(10.5706 -0.048559 0.0291035)
(10.0651 0.0512197 0.00480647)
(10.0012 -0.0120045 -0.00372682)
(9.96659 -0.030304 -0.0043622)
(9.98882 0.000805459 0.00114531)
(10.0392 0.00299667 -0.0507075)
(10.1523 -0.236577 -0.0452688)
(10.1002 -0.0491677 0.047102)
(9.92524 0.0179711 -0.0123401)
(10.121 0.0151276 -0.0597326)
(8.60845 0.0838023 -3.76049)
(10.2285 0.170602 0.0732903)
(5.38634 1.92355 -0.454924)
(10.2507 0.0387723 0.0159531)
(10.2634 -0.657075 0.139833)
(10.0563 0.0823341 0.0308225)
(10.0055 -0.040172 0.0599539)
(9.73942 -0.0281617 0.022325)
(9.88808 0.146868 0.0644494)
(-4.19191 -1.66578 0.272759)
(10.1157 -0.0858035 0.0278593)
(10.1892 -0.845529 0.2556)
(10.1469 -0.0062901 0.0190423)
(10.6221 -0.456445 0.157209)
(1.73727 -4.23957 -5.39054)
(10.6184 -0.427172 0.11853)
(4.09015 0.0629008 -3.939)
(10.2831 0.177349 -0.0139613)
(10.8004 0.26907 0.458287)
(10.2039 -0.0141484 0.00422929)
(10.0023 -0.0047351 0.00412616)
(10.0026 0.056821 0.0317694)
(11.5268 0.841982 -0.646143)
(10.067 0.0127982 0.0118135)
(10.446 -0.8391 0.279171)
(10.0282 -0.0762018 -0.00582099)
(10.0047 0.00373907 -0.00721013)
(9.96292 -0.00585507 0.0274971)
(10.021 0.00874178 -0.00408015)
(9.31609 -0.228318 0.407672)
(10.0555 0.34728 -0.0359909)
(4.35096 0.0266301 0.945675)
(10.4302 -0.35448 0.0618379)
(9.55644 -0.260364 -0.51356)
(11.7097 -0.510591 -0.765305)
(10.9488 0.617278 0.257017)
(10.4869 -0.832101 0.414733)
(10.1459 -0.0542282 0.0100462)
(10.849 0.185474 -0.0540999)
(10.0265 -0.0456356 -0.0128811)
(12.3558 -0.0281919 -0.000699063)
(10.4607 0.0296644 -0.0770612)
(10.2612 -1.15729 0.415534)
(10.118 0.218768 -0.00414646)
(10.0082 0.00610215 0.00339136)
(11.7704 0.0799705 0.812681)
(10.0887 0.00194941 -0.0622634)
(10.4294 -0.00509265 -0.0344344)
(9.98607 -0.00239265 -0.00772914)
(10.1679 -1.18894 0.276104)
(2.98147 -0.391503 -6.40143)
(10.0226 0.0259305 0.0103899)
(5.65984 0.117428 -10.9459)
(8.94329 -1.11467 -0.56338)
(9.99525 -0.00697968 -0.0131438)
(10.7135 0.390083 -1.53254)
(7.46979 -3.64332 -2.44352)
(9.94772 0.0384765 -0.0174975)
(9.93827 -0.0143372 -0.00894822)
(10.8685 -0.389768 0.182129)
(9.94914 0.0932534 -0.0469471)
(10.0394 -0.0121634 0.0487199)
(10.1233 0.25955 -0.00177289)
(11.8519 0.0950533 -0.344061)
(1.00112 -1.81659 -1.96487)
(9.93326 -0.0310616 -0.0432257)
(6.93316 4.0895 1.38089)
(9.95454 -0.00186309 0.0306364)
(11.938 0.568515 -3.89462)
(8.01023 3.39093 1.03507)
(10.0666 -0.00640527 -0.0267198)
(10.0291 0.0339712 0.00327716)
(9.39558 -0.937313 -0.520471)
(10.1108 0.0110676 -0.0145884)
(9.2584 -2.9638 -1.06493)
(2.744 0.8472 -7.08926)
(9.99894 0.0396549 0.0217585)
(10.0349 0.0181523 0.0431257)
(10.0463 -0.0432609 0.021536)
(2.54746 0.320498 -10.388)
(10.0006 -0.0546415 -0.00878409)
(10.0229 0.0271069 0.0267433)
(9.95236 0.000985187 0.0186717)
(10.0018 -0.0674974 -0.0169858)
(10.0578 -0.0416084 -0.0314161)
(10.1702 0.0362357 -0.0468617)
(5.62211 -0.419564 -0.2829)
(9.94536 -0.02059 -0.0708968)
(10.0666 0.0698858 0.0150532)
(10.0028 -0.00277174 0.0115322)
(10.025 -0.0416855 0.029525)
(11.8899 0.245954 -1.16471)
(9.99981 0.00536846 0.00524637)
(9.94509 -0.00704423 0.0186601)
(10.8762 -0.190301 0.0702261)
(10.0067 0.00076006 0.00458698)
(9.9824 -0.0176323 -0.0470067)
(11.0467 -0.179166 0.131409)
(10.1292 -0.176722 0.0446019)
(10.0317 -0.0542571 0.031606)
(10.2966 -0.0814989 0.00919299)
(9.87845 0.0487545 0.0868591)
(10.7987 -0.28999 0.0635314)
(10.1579 -1.41998 -0.756856)
(10.4684 -0.0150472 0.0660962)
(10.0241 0.0136747 0.030206)
(10.8042 -0.219009 0.0549594)
(10.0367 0.161765 -0.0371341)
(9.99464 0.0255721 -0.00678171)
(10.1279 -0.106241 -0.0269631)
(10.9165 0.105813 0.0528283)
(10.0091 0.0822486 -0.00700298)
(10.073 -0.0895122 0.0270064)
(10.4576 -0.0348107 0.0140309)
(11.05 -0.273939 -0.148088)
(10.644 0.014348 -0.0073185)
(10.238 0.504985 1.15432)
(8.70709 -1.22355 -0.472151)
(10.0392 -0.00673529 0.0124234)
(11.4812 -0.0559841 2.08313)
(10.8844 0.0587684 0.123379)
(9.60657 -1.25371 -0.565379)
(10.6126 0.00418737 0.0538334)
(10.4655 -0.00463346 0.0741045)
(11.5311 -0.335444 2.03323)
(10.0664 -0.0190402 0.0179642)
(10.9562 -0.22905 -0.0797835)
(11.0694 0.466383 0.310318)
(11.6207 0.649411 -0.218385)
(10.6534 -0.000173519 -0.029952)
(9.94084 -0.0177347 0.020282)
(10.2459 -0.0967363 -0.0016391)
(10.0029 0.000704874 0.00299063)
(9.98607 0.0272947 0.00388567)
(9.90585 0.165189 -0.0116834)
(11.3834 0.586976 1.81583)
(9.92428 0.0159542 -0.0158064)
(11.6892 0.565157 1.61762)
(9.9348 -0.00499818 0.035177)
(9.93716 0.0147433 0.0443904)
(10.0092 0.00154745 -0.0273154)
(10.0039 -0.00976214 0.0173177)
(11.6872 0.301146 -0.079293)
(10.4183 0.323824 0.0590462)
(9.99777 -0.0134185 0.017361)
(10.1948 -0.0196776 0.0184149)
(9.98189 -0.0191665 0.024498)
(10.0055 0.014259 -0.038885)
(9.90174 0.0329326 -0.01775)
(10.0004 0.0309965 0.0348887)
(11.5135 0.0917878 1.80252)
(10.0283 -0.00212859 -0.0430142)
(10.0023 -0.000933041 0.00713752)
(9.97885 -0.0599025 0.0136962)
(9.94448 -0.022909 0.0482576)
(9.86915 0.0967934 0.0601177)
(9.92112 -0.0456628 -0.039705)
(10.5381 -0.52101 0.155596)
(10.0171 0.00326497 -0.00200631)
(9.85475 -0.0146309 -0.0407237)
(9.98772 -0.0169254 -0.0132345)
(10.1222 0.0858145 -0.0400461)
(10.2226 0.032268 -0.00606569)
(11.4549 0.307156 0.674141)
(9.89754 -0.349192 -0.0535852)
(9.943 0.0311441 -0.011268)
(11.5267 0.310673 0.523227)
(9.93921 -0.00918873 0.00873663)
(10.1964 0.114462 -0.0481562)
(10.1277 0.0804518 -0.0157043)
(11.7385 0.682604 1.27947)
(11.2116 0.717668 1.50517)
(10.2265 -0.09818 0.00622322)
(11.5882 0.391059 1.62866)
(10.1396 0.0274409 0.0369251)
(11.6539 0.538773 1.45885)
(6.89218 3.22918 2.54938)
(11.174 0.612743 1.58834)
(5.83244 1.21134 -4.83141)
(3.82357 -5.6913 2.23312)
(10.1483 0.0793839 -0.0418777)
(3.67539 -6.1822 1.52235)
(9.90692 0.0363662 -0.0428016)
(9.99804 -0.0292375 -0.0689411)
(11.0482 -0.163189 0.103038)
(9.94017 -3.41722e-05 -0.0319462)
(10.0057 -0.0588743 0.0129186)
(9.9377 -0.047464 0.0159937)
(10.5687 -0.628985 0.0557157)
(1.40547 1.7356 -3.16794)
(9.19314 0.776998 0.167943)
(10.0028 -0.0012909 -0.00220338)
(9.91913 0.0339614 0.0286028)
(10.0279 -0.0775463 0.0106136)
(10.7003 0.207944 0.450056)
(11.7882 0.410456 0.0804072)
(10.213 -0.548034 0.197461)
(10.076 -0.113798 -0.0381843)
(11.5801 -0.00877255 0.417539)
(9.93446 0.113635 0.00734681)
(10.1218 0.0114947 0.0965798)
(9.9989 -0.0693437 -0.00785287)
(10.0339 -0.0899194 0.0185868)
(12.0998 3.76446 0.0994256)
(7.07034 1.6865 0.660155)
(1.4519 1.19461 -5.92311)
(9.90166 -0.00856865 -0.00306729)
(10.0542 -0.0766068 -0.025253)
(10.0291 -0.581335 0.0520884)
(10.0962 -0.477492 -0.11443)
(1.14835 -0.662164 -5.4373)
(10.0111 -0.0262013 -0.0377611)
(10.0061 -0.0261567 -0.0335569)
(10.7659 2.63212 1.59559)
(10.0341 -0.0629101 -0.0283794)
(9.92479 0.0495948 -0.0280941)
(9.84429 0.0703616 -0.0280857)
(9.94049 0.0166229 0.00661668)
(13.4835 1.47719 -0.277592)
(11.0194 2.33706 1.49699)
(10.0321 0.15519 0.0683738)
(10.1705 0.102827 -0.0635477)
(10.0088 0.0146386 -0.0958594)
(10.1538 -0.0508051 -0.0200653)
(10.0445 0.0370872 -0.0348808)
(9.94797 0.145887 0.0112293)
(10.0279 0.0781276 -0.00696516)
(10.0367 -0.0308166 -0.0291424)
(10.0194 -0.0194763 -0.0540764)
(11.1208 0.0784061 0.305751)
(11.6734 -1.36755 0.954623)
(10.3461 -0.711608 -1.14358)
(9.98349 0.0242089 0.0234436)
(9.9609 0.00398374 0.00560478)
(9.96023 0.020272 0.0473734)
(11.6286 -0.746922 1.01082)
(9.90657 0.118167 -0.0918229)
(10.0694 -0.0277085 -0.0192941)
(9.98083 -0.0471688 -0.00743398)
(10.0636 0.239192 0.0659492)
(10.0519 0.248852 0.0491758)
(10.08 0.00956237 0.0288524)
(9.85095 0.21055 -0.0378946)
(10.0438 0.00192855 0.0099441)
(9.91332 0.010817 -0.0563911)
(10.1024 -0.0301569 0.032052)
(9.65482 0.386982 -0.0895197)
(9.99167 0.0486453 -0.027998)
(9.98997 -0.0264583 -0.0104544)
(10.0394 0.224368 0.052088)
(10.3916 -0.393833 -0.0246464)
(10.0619 0.209543 0.0365483)
(9.91176 0.193431 0.00655033)
(10.0442 0.201311 0.0771508)
(11.2339 -1.07217 0.0141386)
(9.99528 -0.00429195 -0.0482028)
(9.34436 0.221937 0.199895)
(9.94382 0.197516 0.0292811)
(10.0261 0.0427158 0.0024335)
(10.0315 0.199559 2.08437)
(11.045 -0.590906 -0.478234)
(10.0471 -0.0247229 0.0182583)
(9.97901 0.0218834 -0.0341741)
(10.367 -0.317742 0.0840214)
(10.2963 0.391397 -0.03074)
(9.88308 0.00110659 0.00529025)
(10.0226 0.00269936 0.0237385)
(10.056 -0.107449 -0.0188603)
(10.1401 0.679064 -0.0978143)
(9.91185 -8.31947e-05 -0.0136309)
(-0.941204 0.580154 0.443308)
(10.466 -0.0635748 0.0526661)
(10.0711 0.865861 -0.0635215)
(9.98009 -0.00766104 0.00706107)
(10.0572 0.762317 -0.0560086)
(9.88057 -0.258911 -0.704466)
(9.96824 -0.0468853 0.0218379)
(10.0043 0.00411894 0.00306482)
(9.74824 -0.0885554 -0.00156521)
(10.0137 -0.00289825 0.00449141)
(10.0235 0.795299 -0.0967728)
(10.1408 -0.0470144 -0.00285767)
(10.0234 0.0253783 -0.015078)
(9.98746 -0.0818728 0.00995851)
(10.0067 0.0217283 0.000545973)
(9.97933 0.0576584 0.0106323)
(10.1195 0.188561 0.059553)
(10.0254 -0.0266063 -0.0104515)
(10.0005 0.00186144 0.012265)
(10.4417 0.852828 -0.242549)
(10.2898 1.06374 -0.279983)
(10.0451 0.0143303 0.0306784)
(10.5155 -0.356087 0.0919911)
(9.97185 -0.0380065 -0.0263807)
(10.3647 0.797997 -0.218595)
(9.98394 -0.0216354 0.0417064)
(9.91737 0.0251524 0.00907803)
(11.9613 -0.271588 -0.669374)
(9.97382 0.00874083 0.0291824)
(10.3898 -0.94594 1.68916)
(9.98886 -0.0393692 -0.00843397)
(11.211 -0.415991 -3.52795)
(9.98979 -0.0278474 0.0156942)
(10.5079 0.148513 -0.0104456)
(9.94319 0.0112003 -0.0430268)
(10.0117 -0.0390584 -0.042908)
(9.8202 -0.0109658 0.0211659)
(10.083 0.0102319 0.000592877)
(10.0045 0.0185608 -0.0890613)
(10.2749 0.94358 -0.215513)
(2.04053 -1.94408 2.28572)
(2.14894 -0.526274 -2.28075)
(10.05 0.0239781 0.0232716)
(10.2957 1.48131 -0.732702)
(10.6005 0.69724 -0.296907)
(10.6886 0.65295 -0.288471)
(9.98352 0.00886774 0.0183286)
(10.0058 -0.0458922 -0.00994886)
(9.98084 -0.0168569 -0.00172257)
(9.95793 0.029612 -0.00462775)
(9.97455 -0.0687885 0.0200894)
(10.1528 -0.145858 -0.0184271)
(10.6889 0.589609 -0.183134)
(9.97788 -0.00103248 0.0338892)
(10.0437 0.00788328 -0.00467775)
(10.9897 -1.32275 0.554641)
(11.2991 0.54303 -0.191028)
(10.9516 0.533676 -0.0536406)
(8.02561 -1.29992 -4.68098)
(-0.0268716 5.86535 0.72127)
(10.3305 -0.242637 0.0505909)
(7.3849 -0.974091 -5.17727)
(0.00782429 5.57607 1.04177)
(9.96194 -0.113093 0.0116125)
(-0.13603 5.89261 0.899855)
(8.80472 -1.95785 1.54506)
(10.0259 0.0807461 -0.0159042)
(10.9036 0.640164 -0.298504)
(10.858 0.680845 -0.326498)
(11.1085 0.610772 -0.31107)
(-1.15296 5.3362 1.21764)
(10.0922 0.129068 -0.0171257)
(9.98226 0.0363961 -0.0310552)
(10.0197 -0.0802368 0.00699297)
(11.1633 0.646217 -0.424926)
(11.0514 0.676967 -0.478723)
(10.0287 0.00856692 0.0127526)
(10.0746 0.0574769 -0.000917348)
(9.90634 3.78484 3.28959)
(-1.10471 5.13081 1.1439)
(12.5376 -0.346382 -2.83843)
(10.013 0.000520199 0.00438065)
(8.6484 -0.710325 -2.99504)
(10.1212 0.0860653 0.88936)
(9.97661 0.000891544 0.00363642)
(10.7838 0.318096 -0.00643066)
(11.6852 0.424093 0.230861)
(10.7652 0.210711 0.00646709)
(10.013 0.00993323 0.0016801)
(10.0001 -0.00254468 0.00710223)
(9.98329 -0.0032724 0.00105069)
(10.4604 0.298281 -0.00204393)
(9.99837 0.00277263 0.000110438)
(9.98873 0.0050239 0.0412241)
(10.0841 0.100487 -0.0270222)
(9.93872 -0.000648692 0.00113749)
(10.9089 0.0733418 0.0446937)
(10.0393 -0.0421086 -0.0287188)
(10.0476 -0.0314794 0.00273982)
(10.0216 0.00620963 -0.00425578)
(10.0088 -0.00417047 0.00593582)
(9.94019 -0.0837464 0.0219242)
(10.3888 0.241739 -0.0123409)
(10.1972 0.0131627 -0.0600951)
(9.97616 0.00171656 0.0426909)
(10.8395 0.0788326 0.0239525)
(9.37031 4.57 2.75646)
(9.9554 -0.0648338 0.0403727)
(11.7841 1.65204 -1.22651)
(10.0031 -0.0178741 -0.0123661)
(10.6133 -0.253133 -0.0263418)
(7.37229 -0.48424 1.0357)
(9.75833 1.40536 -0.470577)
(9.98079 0.0259692 -0.0477706)
(9.83518 1.48221 -0.524899)
(10.0162 0.0106296 -0.0804376)
(10.075 0.0328544 0.0903877)
(10.0236 1.29298 -0.77563)
(9.96674 -0.00928083 -0.0287594)
(10.4649 -0.184525 0.0284232)
(9.91069 1.17522 -0.517123)
(10.196 -0.0721448 0.0566036)
(10.4164 -0.00976074 -0.251803)
(8.10542 0.285752 -3.82733)
(10.0172 0.0286646 -0.0271703)
(9.6657 1.8335 -0.444406)
(10.0141 -0.000860015 0.0287464)
(9.05712 1.99282 -0.843176)
(10.0478 -0.0907647 0.0233349)
(9.9704 -0.0564458 -0.0180892)
(9.98249 0.0357118 -0.019272)
(9.97859 0.0073168 -0.0330953)
(10.976 0.690119 0.812799)
(9.98399 0.00821737 -0.0496308)
(9.97358 0.0163268 -0.0189609)
(10.0533 -0.00644119 0.0232953)
(10.014 0.0167267 -0.013677)
(11.0534 0.390551 0.0528573)
(10.1305 -0.0257264 0.00800179)
(10.1002 -0.0134581 -0.00227314)
(8.67488 0.259314 -0.464699)
(9.97392 -0.0181842 0.0648335)
(9.88227 0.039518 0.00651661)
(10.0195 -0.103454 0.0413586)
(10.0047 -0.0893969 -0.0654891)
(10.1206 -0.0487154 0.0117593)
(10.0211 -0.0151101 0.0080407)
(10.1267 0.0308871 -0.0385661)
(10.2666 1.33946 -0.922072)
(10.0157 0.0116094 0.00313231)
(9.98791 0.00446998 -0.000590961)
(2.87071 -0.367289 -5.4372)
(10.0314 0.0155993 0.0203328)
(10.0253 0.0602267 0.00160317)
(10.0555 0.120246 -0.00341101)
(10.0066 0.0119809 0.00100667)
(12.5458 1.16677 -0.1161)
(12.639 0.803012 0.193506)
(9.95206 -0.0727174 -0.029923)
(9.9256 -0.0477493 0.0505366)
(9.92882 0.0166492 0.00752722)
(11.1994 -0.305001 1.04538)
(9.96791 0.0569155 0.00699018)
(12.5708 1.40889 -0.168329)
(9.99492 -0.00543466 0.000489801)
(-0.237177 -2.16834 3.29625)
(8.11725 -0.421528 -0.506248)
(9.39967 -0.75355 2.0608)
(10.0472 0.0141251 -0.00452206)
(12.516 1.29705 -0.0898814)
(10.0491 0.00122883 -0.0420907)
(10.0825 0.075669 -0.011152)
(10.0483 0.0170818 -0.034234)
(9.90778 0.0162418 0.07452)
(10.0297 -0.00908027 -0.0276976)
(10.0943 -0.00677961 -0.0181317)
(8.08551 -0.665772 0.480767)
(9.9941 0.0104061 0.00882946)
(9.93386 0.05835 0.007493)
(9.97803 -0.04622 -0.00116949)
(12.4822 1.13472 -0.0665237)
(10.0388 -0.0282545 0.0360813)
(10.0413 0.0386814 0.0131416)
(12.2961 1.1982 -0.162563)
(12.1823 0.488863 0.181813)
(10.0104 0.035338 0.0205484)
(10.027 -0.00808244 -0.00114002)
(-0.427993 1.8655 1.20126)
(10.0109 0.0492311 -0.0398741)
(10.414 -0.311892 0.126151)
(9.94383 0.0366901 0.0364868)
(10.0561 0.0534844 0.035387)
(10.0575 -0.00887761 0.0137263)
(11.8829 0.620029 -0.0379764)
(11.042 -0.203403 1.23668)
(9.37509 0.605115 0.923683)
(9.96815 0.0289281 0.0696081)
(10.0149 0.0170239 0.0150827)
(9.98083 0.0387879 -0.0127273)
(12.5788 -0.33829 0.912044)
(9.30192 0.120226 -0.345591)
(9.89798 0.00101805 -0.0835949)
(-0.265208 1.84809 0.879629)
(9.94512 -0.0105167 0.0342642)
(10.0079 0.00219723 0.0413306)
(-1.3228 1.71937 1.31868)
(11.8657 2.06612 -1.06793)
(9.81933 0.136232 0.0261849)
(0.0611861 1.94121 0.648528)
(-0.0433747 2.02574 1.11772)
(10.0207 0.0221983 0.014724)
(9.98437 -0.0274241 0.00639281)
(10.0497 -0.021996 -0.0451254)
(9.73023 -0.383327 0.0761773)
(9.98414 0.0109927 0.0217735)
(9.92125 0.0303072 0.0079087)
(12.012 1.98096 0.673919)
(10.1171 0.234609 0.127432)
(9.99335 0.0986668 -0.0192979)
(10.0822 0.00822057 -0.00467641)
(12.5349 0.425362 0.186979)
(11.8136 0.948633 -0.0449781)
(9.99495 -0.0439294 -0.0204112)
(10.2627 0.3266 -0.101896)
(-4.78194 -2.3282 -0.7147)
(3.03333 -1.57432 -2.26061)
(10.5924 0.30198 -0.210497)
(9.95169 0.00846802 0.0173185)
(10.2778 -0.188915 0.181303)
(10.7731 -0.151664 -0.675849)
(9.91802 0.0308693 -0.0527873)
(9.90777 0.0529325 -0.0519227)
(10.0176 -0.0128025 -0.0399582)
(10.2566 0.183948 -0.0238846)
(9.98157 -0.00531107 0.0058753)
(10.6438 0.172694 0.247768)
(10.045 -0.0141363 0.0534616)
(12.633 1.04012 -0.606476)
(10.2652 1.52455 -0.981366)
(10.5413 0.254287 -0.150099)
(12.6802 1.21744 -0.904654)
(10.1838 0.0553769 -0.0880324)
(9.99162 -0.0298521 -0.0955048)
(10.585 0.594479 0.153565)
(10.219 -0.0297324 0.0347229)
(9.98429 0.00405875 -0.0169809)
(10.0215 0.00603525 -0.00136419)
(10.6213 0.803939 -0.411934)
(7.93476 -0.690605 -1.18719)
(10.0258 0.00901757 0.0365055)
(10.6505 0.248401 0.0917903)
(9.99249 0.0529265 0.0351481)
(12.7007 -5.43933 -1.51607)
(10.6669 -0.649876 0.961436)
(11.3791 -0.268085 0.65584)
(6.12519 1.44649 0.384746)
(6.01085 1.43921 0.248647)
(10.0423 -0.0473043 -0.00969614)
(9.89006 0.0892415 0.0419412)
(5.19827 1.25886 -0.161374)
(10.0605 -0.00533711 -0.00870949)
(9.80248 -1.7113 -3.13347)
(7.41264 0.377481 1.34417)
(9.98579 0.000177343 -0.00794896)
(9.84345 1.59537 0.879751)
(10.0487 -0.0993702 0.00518208)
(10.0057 0.0396992 0.00533523)
(10.036 -0.0108323 0.0208352)
(12.7956 0.383113 -0.0972509)
(9.9734 0.00702879 -0.00961127)
(9.98498 -0.000674191 -0.0036832)
(10.0124 -0.0114661 -0.00207897)
(9.94407 -0.00529828 -0.0582841)
(10.0234 0.0267819 0.00496288)
(10.0435 -0.0251442 0.00995693)
(10.0055 -0.0353381 0.0640879)
(10.0317 0.0405165 -0.036152)
(11.2118 0.694087 0.541971)
(10.3332 1.37737 -3.45971)
(13.6412 2.88945 1.02663)
(10.7166 0.323437 0.027903)
(9.89765 1.16956 1.42657)
(9.99318 -0.0104806 -0.0429736)
(9.44342 -0.873772 0.18137)
(10.1611 0.0251638 0.00385378)
(10.0005 -0.0133349 -0.000188973)
(10.0075 -0.00490922 -0.00719902)
(10.0021 -0.00237884 -0.00938615)
(9.99357 0.00849941 0.0266046)
(9.08464 0.279004 -0.809348)
(11.4854 0.397455 0.243291)
(9.98366 0.00779423 0.000183545)
(10.2196 -0.437107 0.163407)
(11.7702 1.15907 1.82276)
(10.0407 -0.0133174 -0.013682)
(5.29836 -1.26447 2.84653)
(12.7526 -1.00033 -2.60116)
(9.91187 0.0365907 0.00512062)
(9.50562 -0.506249 0.103279)
(10.478 0.0130222 -0.00944916)
(10.0442 -0.0100582 -0.0292028)
(5.83335 0.515365 2.33806)
(9.96198 -0.00222936 0.0157951)
(9.0197 -4.66443 1.14316)
(10.1067 0.0300487 0.0213546)
(11.3586 -0.407332 0.866189)
(11.7462 0.526329 -0.0394651)
(10.0177 -0.0205676 -0.0407054)
(9.97527 0.0828698 0.00391721)
(10.2961 0.444766 0.0266096)
(8.49785 -0.54057 -2.07053)
(9.95463 -0.0570598 0.0353547)
(9.99854 0.00835597 0.0510124)
(10.135 0.00377426 0.0302817)
(11.7578 -0.0317829 0.589343)
(10.0004 0.000863992 0.000528392)
(11.9411 0.578552 0.266045)
(10.2277 -0.0147038 0.00500724)
(2.35817 0.350039 0.95211)
(11.6921 0.46506 0.0592967)
(10.1773 -0.00526549 0.0172759)
(11.7807 0.521577 0.180025)
(10.0059 -0.0050715 -0.00193275)
(10.105 -0.0272151 -0.0309254)
(10.4992 0.311814 0.00491483)
(10.2262 -0.0169663 0.017572)
(11.9613 0.634458 0.0980146)
(9.99441 -0.0261589 0.0229396)
(9.98947 -0.2291 0.0671148)
(11.8282 0.548641 0.0144124)
(10.0092 -0.00573271 -0.00153503)
(10.2482 -0.0307811 0.00725556)
(10.0038 -0.00538108 0.000102543)
(10.0358 0.0110143 0.00870104)
(6.8111 0.354022 -4.80286)
(6.62532 -0.146755 -5.34788)
(9.97912 0.0497261 0.419439)
(8.69889 0.340488 -3.89532)
(10.018 -0.00216234 0.0104205)
(9.97459 -0.0094571 0.0017719)
(10.6595 0.586706 -0.234245)
(10.2449 -0.110865 0.0511089)
(9.62902 0.0820072 0.66459)
(10.0238 0.00365116 0.00947082)
(10.0096 0.0228554 -0.0395824)
(9.97775 -0.0347297 0.0599267)
(9.94361 0.0956532 -0.0403627)
(5.21701 0.15518 -5.97229)
(2.77553 -2.00389 -0.721987)
(9.99517 -0.0179019 0.035148)
(10.0231 0.0865418 0.0158963)
(9.91789 -0.0457322 -0.0144305)
(9.93551 0.0111642 -0.0144713)
(10.0986 -0.0831839 0.0178095)
(10.0132 -0.00834257 0.0168022)
(10.9663 -0.1664 0.138812)
(11.4648 -1.45379 2.20735)
(10.0462 -0.0167578 0.00121538)
(10.0527 -0.0109202 -0.0219743)
(9.98722 -0.00957504 0.0541313)
(10.0069 -0.00126054 0.0390761)
(9.83636 0.173758 0.0156305)
(9.96531 -0.0246798 0.0588283)
(10.4315 -0.159488 0.0260269)
(9.97997 -0.00196375 -0.0390961)
(10.0267 -0.0587304 -0.0378713)
(10.0746 -0.0304097 0.0258445)
(9.19689 -0.796549 -1.07506)
(5.10552 0.664843 -4.43783)
(9.96348 -0.0374641 0.00425758)
(-0.519372 -1.66965 0.981005)
(10.0423 -2.65038 1.40025)
(12.7476 -1.39215 -0.928322)
(-0.289272 -1.75175 0.675818)
(10.0978 0.0368434 0.0147731)
(7.50973 -0.224059 0.337553)
(10.3139 -0.483974 -2.36852)
(11.0479 -1.23806 0.442162)
(5.61275 0.276852 -3.46615)
(-0.487959 1.82462 2.07698)
(1.3972 0.483892 -3.10781)
(11.2822 -0.0180602 0.440777)
(10.5663 -0.0490232 -0.00160583)
(10.9091 -0.0138407 0.92267)
(9.99238 -0.00199831 -0.0459594)
(3.82053 -0.270659 0.0157739)
(10.6068 -0.0235358 -0.325645)
(10.4848 -0.0191789 0.0120943)
(10.0002 0.00831262 0.00270409)
(10.0501 -0.0269737 0.00710719)
(11.2024 -0.31255 0.859553)
(9.87354 0.132957 0.0228541)
(10.0809 0.0116084 0.0465835)
(9.99123 0.0399498 -0.0165873)
(-2.52216 0.989045 0.605624)
(8.09077 0.280894 -2.25726)
(10.0603 0.00841122 -0.029505)
(9.98882 -0.0074008 0.00102003)
(5.07468 0.275161 -2.07165)
(5.91526 0.134862 -2.75615)
(10.7788 0.197589 -2.11893)
(-3.19329 -3.89745 -1.33398)
(3.66005 1.28866 0.586186)
(4.16557 0.0385275 -3.53149)
(3.86452 -0.0370801 -4.40465)
(10.0164 0.00110507 -0.00036403)
(9.79181 -0.0113951 -0.00629127)
(9.49916 -0.0234019 0.152325)
(9.97043 -0.050568 0.0381642)
(10.414 0.0454995 -0.0579291)
(-0.586174 1.84652 1.21223)
(10.7317 -0.107798 -0.255349)
(10.4393 0.0325197 -0.0555513)
(10.4012 0.0306065 -0.0359823)
(10.0666 -0.0143421 0.0498686)
(-0.397763 1.80682 2.12352)
(-0.253584 2.06888 2.14449)
(9.99084 -0.0268616 -0.0146589)
(10.4173 -0.0166824 -0.037996)
(9.94367 0.0502562 0.0615884)
(9.94448 0.00269151 -0.00979905)
(10.4087 0.00399194 -0.0241806)
(9.98761 0.0198763 0.00556563)
(9.66657 -0.038931 0.0141614)
(10.0527 0.0175846 -0.0482952)
(9.94908 -0.0207998 0.013947)
(6.79325 -0.669156 -2.86592)
(9.96254 0.00242424 -0.0237359)
(9.97693 0.0384941 0.0465082)
(10.0404 -0.0898344 -0.00293699)
(9.93758 0.0507782 -0.0199596)
(9.97079 0.00983754 -0.0311675)
(4.13919 -0.494286 -2.09662)
(12.413 -1.28288 -0.176846)
(10.0225 -0.031185 -0.0339056)
(10.5638 0.404076 -0.197383)
(10.0706 -0.0134582 -0.0194168)
(9.82042 -0.362546 0.167465)
(9.7681 -0.428187 0.266279)
(11.8526 -0.0562073 -0.0447405)
(10.0022 -0.0358251 0.00969661)
(-0.753116 -1.15157 2.95613)
(11.9524 -0.1191 -0.0574552)
(10.3909 0.10109 0.00940209)
(10.6581 0.240805 -0.021016)
(8.06601 0.316212 -3.16016)
(13.1361 2.19208 0.774526)
(10.0404 -0.0428488 -0.015026)
(10.0447 -0.0432792 -0.0120336)
(12.1352 1.36472 1.93579)
(10.0667 0.0138144 -0.0404299)
(10.0188 0.0261303 -0.0155138)
(11.2185 0.388102 0.36523)
(10.0201 -0.0549734 -0.00883518)
(9.98354 0.00197658 0.0033598)
(-0.159114 -0.148697 2.65265)
(12.3689 -0.1145 0.343527)
(12.3209 2.89648 0.265454)
(10.0039 0.00102369 0.00507733)
(7.62346 0.521404 -2.39801)
(9.94493 -0.0203769 -0.0407663)
(11.6267 -0.691533 -0.192946)
(9.62632 -0.407558 0.369104)
(11.9014 -0.0680703 -0.0204816)
(10.0745 -0.00210343 -0.00985648)
(9.43506 -0.424488 0.335922)
(0.779234 0.8426 2.99069)
(12.2012 1.47397 2.39233)
(12.1026 -0.373603 -0.768654)
(-1.17816 1.88278 2.37864)
(11.8268 0.355473 0.0931335)
(10.3281 0.135085 0.0732479)
(9.94138 0.0266917 -0.0292311)
(11.8817 0.61428 -0.163502)
(10.0126 -0.0547155 0.00315992)
(12.0319 -0.0692523 0.124998)
(-0.247206 -0.982754 2.02035)
(10.0127 -0.0510897 0.0169201)
(12.379 0.0244214 -1.16335)
(10.0399 -0.00636386 -0.00592827)
(10.0559 -0.0015059 0.01262)
(11.3362 -1.99126 1.32556)
(10.0942 -0.00658343 0.0428303)
(10.0456 0.0108021 -0.0916822)
(8.33237 -5.79128 0.410471)
(9.60719 0.405714 0.0606775)
(10.0235 -0.212807 0.0706281)
(12.3318 -0.847526 0.263929)
(10.4055 1.3248 1.48954)
(10.1108 -0.0510908 0.0627762)
(11.859 -2.26394 -0.51228)
(5.29499 -0.787533 0.139267)
(10.4956 0.037269 0.0790004)
(9.54331 -0.688896 -0.728163)
(9.99966 0.045072 -0.0129982)
(10.274 0.129153 0.0186445)
(10.1012 -0.0247062 0.0737418)
(10.0534 -0.0251606 0.0149557)
(3.59622 2.10286 -2.13189)
(0.853563 -2.53299 1.70714)
(12.0618 -0.046548 -0.368828)
(9.81511 -1.50969 -0.196679)
(11.8108 -1.84848 -0.0693116)
(2.51987 5.54328 0.440331)
(-1.46478 0.291255 -0.764273)
(10.0211 -3.4878 4.36745)
(10.0246 -0.0173121 -0.0171651)
(10.0097 0.0153776 -0.00502043)
(9.98496 -0.00088972 -0.00181213)
(9.94767 -0.100046 -0.117174)
(6.53258 0.612747 -2.44941)
(9.71765 -0.535083 0.256341)
(9.13009 -0.533918 1.25754)
(9.98298 0.0139667 -0.00237689)
(-1.4022 -1.23864 0.694812)
(11.9784 -0.0674214 0.00742945)
(9.83788 0.199171 -0.059037)
(10.0066 0.0152335 -0.0171367)
(10.0083 -0.0302385 0.0242835)
(10.004 0.0459607 -0.0205445)
(6.19787 -1.81295 -2.88094)
(10.0068 0.00520742 -0.00112915)
(6.59437 5.84459 0.0888912)
(10.0171 -0.0883136 0.00675983)
(10.0115 -0.580623 -2.87492)
(9.99142 -0.00258038 -0.000372269)
(10.0092 -0.00883555 -0.00300176)
(10.0335 -0.00559924 0.0291796)
(10.0715 0.0141898 0.0108383)
(9.98547 -0.0122508 -0.000684514)
(12.8549 0.617053 -0.0182771)
(12.3136 0.114538 0.490397)
(9.22306 1.29903 2.59484)
(7.29518 3.98902 2.69885)
(9.45067 0.99317 0.57858)
(10.261 0.49745 -0.0625049)
(11.1946 0.83871 0.119371)
(6.4315 -0.330918 -2.66302)
(10.4033 -0.115148 0.0484435)
(11.3091 0.0408188 -0.110837)
(10.2335 -0.621714 0.121738)
(11.7908 0.0400789 -0.0429271)
(8.65435 0.0286985 4.88884)
(6.11699 -0.742349 0.414459)
(10.4067 -0.257621 0.18377)
(9.9992 -0.00268995 0.00583158)
(9.57804 0.882745 -0.212921)
(10.019 -0.00592582 0.00643498)
(10.0985 0.0145864 0.010737)
(14.0588 -2.11856 2.20011)
(11.9891 -0.754286 0.683443)
(-1.18443 3.26816 0.606597)
(10.1584 -0.789631 0.295132)
(11.6782 -0.9047 -0.237046)
(10.2981 -1.03865 -0.970212)
(12.3303 0.149382 0.256783)
(10.1516 -0.035964 0.0072015)
(-2.57844 -2.26389 0.833591)
(10.0002 0.0082704 -0.0273424)
(10.0333 0.0171347 -0.00795876)
(10.5556 -0.0686231 0.548131)
(10.2922 0.0556177 5.20173)
(10.173 -0.0126155 0.00354232)
(10.1114 0.534014 -0.335517)
(10.0017 0.0205428 0.0429054)
(10.6763 -1.0984 0.630308)
(10.8401 0.0337373 0.863118)
(9.97404 -0.0192595 0.00673562)
(10.809 -0.437832 -2.80471)
(10.4024 -0.179719 -2.92534)
(12.871 0.306059 1.00268)
(10.3805 0.486171 -0.115319)
(9.67163 0.0485886 0.342442)
(3.12108 0.802628 -3.3562)
(0.771618 1.5148 3.70745)
(5.43601 3.14757 0.964022)
(12.7566 -0.847502 -2.4714)
(5.53988 -0.413572 -0.0766107)
(9.90457 -0.0140341 -0.147221)
(9.91552 -0.0518623 0.0162202)
(8.60642 1.53992 2.93688)
(9.95977 -0.0277511 0.0646417)
(4.52449 -0.720853 0.0932387)
(9.92498 -0.032542 -0.103781)
(9.92536 -0.0186291 -0.126436)
(-1.39451 1.10864 -0.427407)
(9.70055 -1.16716 0.966124)
(10.8554 -0.292548 0.158752)
(10.0142 0.00914263 0.0356725)
(9.93462 0.0360121 0.0445808)
(8.22155 0.313257 -2.59987)
(10.0087 0.0511051 0.0583376)
(9.9822 -0.0167661 -0.0180135)
(10.1783 0.715605 1.02407)
(12.0198 -0.746489 -2.58523)
(10.2777 0.279156 0.129168)
(9.88709 0.13114 0.015645)
(9.90156 -0.105458 0.0230251)
(9.98849 -0.00392426 -0.00662623)
(9.94537 -0.0349301 -0.0224587)
(11.6817 -0.75692 -1.67321)
(11.8103 0.233974 -0.0478371)