/*--------------------------------*- C++ -*----------------------------------*\
| =========                 |                                                 |
| \\      /  F ield         | OpenFOAM: The Open Source CFD Toolbox           |
|  \\    /   O peration     | Version:  2506                                  |
|   \\  /    A nd           | Website:  www.openfoam.com                      |
|    \\/     M anipulation  |                                                 |
\*---------------------------------------------------------------------------*/
FoamFile
{
    version     2.0;
    format      ascii;
    arch        "LSB;label=32;scalar=64";
    class       volScalarField;
    location    "0.0563527";
    object      nut;
}
// * * * * * * * * * * * * * * * * * * * * * * * * * * * * * * * * * * * * * //

dimensions      [0 2 -1 0 0 0 0];

internalField   nonuniform List<scalar> 
3991
(
0.00241731
0.00100383
0.00671359
0.00310075
0.000552934
0.00298312
0.00108358
0.000573954
0.00332209
0.00164827
0.00166635
0.00544526
0.00274281
0.00398055
0.000988337
0.00282431
0.00304262
0.00195642
0.00188421
0.000674442
0.00194569
0.0010963
0.00130898
0.00193366
0.00167066
0.000751932
0.000723757
0.00131247
0.00437756
0.00721481
0.00201636
0.0018157
0.00171688
0.00203886
0.00257669
0.00110362
0.00122351
0.00023815
0.00551895
0.00164203
0.00139019
0.00285064
0.00172244
0.0028027
0.00302598
0.000409432
0.0002406
0.00676072
0.00198165
0.00091116
0.000916747
0.00133703
0.00110165
0.000958645
0.00100723
0.0046804
0.00708171
0.00445831
0.00233096
0.00294105
0.000765457
0.000586878
0.000930223
0.00117519
0.00368629
0.00324099
0.00301781
0.00170389
0.0011659
0.00592202
0.0011781
0.00485949
0.000980502
0.00334467
0.0012591
0.00303414
0.000998429
0.000760496
0.00618287
0.00102005
0.00685584
0.00169639
0.00128914
0.00326805
0.00113352
0.000461954
0.00340099
0.00280171
0.000936578
0.00479158
0.00312445
0.00182854
0.000957196
0.000475757
0.00203742
0.000616857
0.000509664
0.00111107
0.000969066
0.00288125
0.00493389
0.00483352
0.00151181
0.00720089
0.00439113
0.000347647
0.00244469
0.000462299
0.000292265
0.00223256
0.00107882
0.00208446
0.00101204
0.00424234
0.00557181
0.000480676
0.000469057
0.00127275
0.00538493
0.00105866
0.000559291
0.00125382
0.00448955
0.00201512
0.00125675
0.00164034
0.00204266
0.00229946
0.000849899
0.00168294
0.00319765
0.00131536
0.00272973
0.00573739
0.00415205
0.00498677
0.00597195
0.00504123
0.003263
0.00123075
0.00198044
0.000645839
0.000540673
0.000742732
0.00193588
0.00156707
0.00366588
0.00087249
0.000596657
0.000690851
0.000678009
0.000293888
0.000168402
0.000536021
0.001372
0.000728588
0.000982527
0.000522951
0.000388162
0.00109122
0.00207215
0.000635426
0.00403596
0.000843189
0.000414702
0.0013415
0.00259222
0.00198516
0.00203781
0.00222141
0.00247444
0.00224942
0.000451559
0.000786914
0.000585487
0.000451694
0.00256364
0.00551077
0.0054724
0.00201553
0.00148172
0.00121235
0.000851902
0.00103979
0.00322675
0.00405811
0.00361449
0.00273868
0.00360405
0.000370229
0.00140864
0.00210244
0.000262752
0.00067876
0.000847829
0.00125583
0.00371218
0.00416928
0.000382555
0.00468559
0.00296225
0.00107628
0.000940687
0.00216036
0.00208369
0.000921938
0.00145871
0.00156117
0.00178174
0.000868308
0.000501773
0.00235351
0.00160111
0.000816113
0.00291006
0.00273531
0.00497495
0.000845371
0.000490969
0.00123693
0.00135524
0.000920575
0.00115791
0.000928667
0.00116424
0.00079985
0.00120857
0.00476519
0.00407355
0.000505229
0.00172402
0.00312505
0.000688133
0.00091406
0.00400863
0.00257586
0.00515147
0.00200744
0.00301666
0.000586325
0.000997095
0.000526301
0.00154639
0.00495164
0.000478355
0.00269957
0.00540193
0.00480228
0.00246572
0.00175273
0.00300298
0.00428344
0.00320482
0.00459483
0.00466067
0.00288558
0.00206198
0.000651278
0.00126496
0.00107394
0.000363715
0.000807908
0.000770264
0.000573342
0.00371529
0.000291948
0.0006501
0.00216449
0.00260251
0.00236299
0.000315959
0.00115706
0.0033755
0.000536583
0.000204123
0.00116042
0.00481336
0.00267849
0.00583564
0.00173917
0.00122607
0.000479084
0.00339873
0.000481637
0.00439263
0.00165218
0.00457287
0.000845948
0.000775941
0.00207337
0.000332035
0.00123826
0.00468629
0.000317074
0.00279573
0.00414602
0.00132501
0.00386541
0.002149
0.00322637
0.00533017
0.00642796
0.00183665
0.00272602
0.00379056
0.000984828
0.00485857
0.000196391
0.00203856
0.00100954
0.00560075
0.00437532
0.00460531
0.00570177
0.000439535
0.000773912
0.00114438
0.00422867
0.00141993
0.00264934
0.00161812
0.00209773
0.00405455
0.00239496
0.00182132
0.00121001
0.00278933
0.00347664
0.00240948
0.0013333
0.00108856
0.00116281
0.00389934
0.00184662
0.00190023
0.00286426
0.000432864
0.00374965
0.00119184
0.00198934
0.00198748
0.00352501
0.00163178
0.00293979
0.00621136
0.00191097
0.00171356
0.000775931
0.000696144
0.00200838
0.00136862
0.00364952
0.00436871
0.00019423
0.00148922
0.000380676
0.00187103
0.00482345
0.000624182
0.00142298
0.00260183
0.00169246
0.00148678
0.00066502
0.00146005
0.00110903
0.00150866
0.00133174
0.00422232
0.00198293
0.000679877
0.00199004
0.000560891
0.000756319
0.0048654
0.000599606
0.00155289
0.00243049
0.00111082
0.00197555
0.000878914
0.000453302
0.00047134
0.0035869
0.00149309
0.00200644
0.000955375
0.000345054
0.000737935
0.00110562
0.00191166
0.000869949
0.00231237
0.00297162
0.00500217
0.000666381
0.00493653
0.00656153
0.00178894
0.0021499
0.0031788
0.000955671
0.0013962
0.00238085
0.00123308
0.00381124
0.000446321
0.000323606
0.000825685
0.00275008
0.00213111
0.00150695
0.00100661
0.000602432
0.00196612
0.00183772
0.00340277
0.00121805
0.00294114
0.00253779
0.00208521
0.00174869
0.0020826
0.00421199
0.00651617
0.00190261
0.00145271
0.000826382
0.00131952
0.00421095
0.000882918
0.00254575
0.00139592
0.00471289
0.00581802
0.00642657
0.00502293
0.00489216
0.00166578
0.00201056
0.00191266
0.00263816
0.00257858
0.00192053
0.00332711
0.00534473
0.00439155
0.00314504
0.00145984
0.00144801
0.000724706
0.000779961
0.000801517
0.00195117
0.00274288
0.0012939
0.00161066
0.00293468
0.00268545
0.0023547
0.00175916
0.00297744
0.00209723
0.00177643
0.00131265
0.00246729
0.00163104
0.00310793
0.00287331
0.00101546
0.00145632
0.000931885
0.0012114
0.00142197
0.000958294
0.00129641
0.00305716
0.00220169
0.00196526
0.00180021
0.00100344
0.000359098
0.000287779
0.000686184
0.000859338
0.00109835
0.000426156
0.000618042
0.000312892
0.00130353
0.00124325
0.00527297
0.00174962
0.000442785
0.000685999
0.000737614
0.000458734
0.000224671
0.00278061
0.00316461
0.00536323
0.00302327
0.00263649
0.00349223
0.0068383
0.00726195
0.00219166
0.00705762
0.00488514
0.00357888
0.00476153
0.00523431
0.00471838
0.00704018
0.00525056
0.00700923
0.00282786
0.0015735
0.00209314
0.0016092
0.00285115
0.00114292
0.00228237
0.00313718
0.00206832
0.00101666
0.00092548
0.00130462
0.00117555
0.00149529
0.0014642
0.000831234
0.00225306
0.00179696
0.000741101
0.00115382
0.000913127
0.00138311
0.000812309
0.000924696
0.000829388
0.000956641
0.000249507
0.000572864
0.000536632
0.000804603
0.00383546
0.00100267
0.00169811
0.000897793
0.000649353
0.00420004
0.00422034
0.00658876
0.00332982
0.00263431
0.00325878
0.0037825
0.00290993
0.00217869
0.00226013
0.000840302
0.00081447
0.000802178
0.00104841
0.000526635
0.000721929
0.000843695
0.00132698
0.00145606
0.00125188
0.000823717
0.00148018
0.000375954
0.00077685
0.000320933
0.00258325
0.00197095
0.00389161
0.0010347
0.00160688
0.00187312
0.000299626
0.00129449
0.000730311
0.00175957
0.000858621
0.000190456
0.000686648
0.000704551
0.00221798
0.00293102
0.000865457
0.000486713
0.000801946
0.000372101
0.0048442
0.00122332
0.000839818
0.00365689
0.0006128
0.00112793
0.00182647
0.000408884
0.00144483
0.00444847
0.000947874
0.00089189
0.000958508
0.000774362
0.000758352
0.00239569
0.00160591
0.00220818
0.00135995
0.000834382
0.00136743
0.000311445
0.00368743
0.0029412
0.00188284
0.00357376
0.0024678
0.00330732
0.0060257
0.000634964
0.00344673
0.00105079
0.00528257
0.00568109
0.00205209
0.0030965
0.00220084
0.0028603
0.00391595
0.00298186
0.000865768
0.00104034
0.00068056
0.00307111
0.00290999
0.00274746
0.000828282
0.00033587
0.000584483
0.00117084
0.00106045
0.00186652
0.00383731
0.000544377
0.00168574
0.000703961
0.0022845
0.00119093
0.00025209
0.000572499
0.00404213
0.00066721
0.00255762
0.00274162
0.00185276
0.00153659
0.000768174
0.00108925
0.00475745
0.0013022
0.00224882
0.00210302
0.00105331
0.000289997
0.00165566
0.000929701
0.000557353
0.00433472
0.000768951
0.00339337
0.00442675
0.00176649
0.000793927
0.00191118
0.0011125
0.000896328
0.00167075
0.00284417
0.00317925
0.000522942
0.00151364
0.000823468
0.00069834
0.000793114
0.000950814
0.00360432
0.000258678
0.00479178
0.0018991
0.00108063
0.000943906
0.000690729
0.00427358
0.00266591
0.00244118
0.00721955
0.00427106
0.0053015
0.000565765
0.0012014
0.000976514
0.00106377
0.00122534
0.00555627
0.00142451
0.004693
0.00100393
0.00444396
0.00244983
0.00295582
0.00623273
0.00177729
0.000832311
0.00154623
0.00417829
0.00614946
0.000887085
0.000907568
0.00062632
0.00112033
0.000864972
0.00167771
0.00130402
0.00190965
0.000813698
0.00136948
0.00131031
0.00124508
0.00145983
0.000796831
0.00118337
0.000373807
0.000585567
0.000611523
0.00100508
0.00146169
0.000960956
0.000486399
0.000563134
0.000691861
0.00162513
0.000636522
0.00129557
0.000620548
0.00063367
0.000999652
0.00147719
0.000718477
0.000612
0.00117451
0.000435514
0.00091621
0.000566177
0.000783051
0.000886919
0.00111129
0.00153006
0.00529084
0.00232548
0.00116115
0.000359938
0.000574973
0.00113968
0.00258428
0.000878355
0.00360758
0.00373954
0.00426189
0.00120514
0.00407254
0.0055613
0.00309447
0.00396609
0.00237993
0.00381465
0.00408804
0.0045035
0.00419606
0.00641635
0.00433117
0.00375354
0.00648771
0.00721961
0.00698003
0.00302833
0.00614016
0.00141074
0.00479697
0.00396465
0.00224043
0.00283322
0.00216661
0.00292762
0.00204584
0.0009313
0.00132879
0.0007591
0.00097149
0.000606993
0.00130238
0.00137779
0.00120678
0.000851553
0.000931236
0.00171056
0.00260944
0.00129314
0.0020292
0.00294016
0.00183488
0.00212204
0.00190345
0.00189429
0.00191069
0.000667094
0.000804381
0.000769889
0.000871313
0.00110926
0.000959697
0.00362966
0.00217231
0.00453786
0.00198403
0.00183349
0.00274661
0.00390284
0.000851605
0.00121234
0.00203107
0.00142258
0.0013389
0.0011811
0.00242252
0.00226919
0.000562248
0.0008597
0.00090435
0.000597141
0.00503097
0.00142705
0.00523992
0.00514124
0.00202835
0.000641593
0.0013898
0.00341689
0.00292964
0.000566397
0.00215058
0.00106678
0.00156093
0.00225051
0.00492128
0.00139433
0.00153698
0.00140486
0.00222262
0.0020712
0.00250842
0.00219336
0.00281296
0.00506402
0.000513677
0.000816288
0.00176121
0.00170485
0.00189332
0.00268423
0.0012814
0.00137369
0.00125012
0.000803313
0.0019278
0.00120899
0.0010576
0.00263633
0.00242975
0.00253808
0.0025541
0.000621613
0.00170988
0.00538933
0.000815827
0.000554451
0.00259035
0.00101866
0.00057737
0.000971395
0.00105696
0.001509
0.00149503
0.000854738
0.000757554
0.00301209
0.00399316
0.00228221
0.00370507
0.000204622
0.000962307
0.000849624
0.00291969
0.00231567
0.00231654
0.00347576
0.00131338
0.00657884
0.000629236
0.00423163
0.00385392
0.00215659
0.00143499
0.00579969
0.00144977
0.00348973
0.000960503
0.0016426
0.00220464
0.00102135
0.00283109
0.00253026
0.00242365
0.000478709
0.00592981
0.00489093
0.00491617
0.00479063
0.00636443
0.00114082
0.0030117
0.00108857
0.0018139
0.0018743
0.000360563
0.000386981
0.00266908
0.000631227
0.00083278
0.000833455
0.0034129
0.00134991
0.00108744
0.000546064
0.000353719
0.00103398
0.00130876
0.0011689
0.0012816
0.00174796
0.000862759
0.00458147
0.000191887
0.000733271
0.00323317
0.000697255
0.00184844
0.000963915
0.00229113
0.00125702
0.00179208
0.00469837
0.00246505
0.00170685
0.00123721
0.000818592
0.00109153
0.00337306
0.00139465
0.00464843
0.001318
0.00051243
0.000941247
0.00168155
0.00229216
0.0014772
0.00121636
0.00104713
0.00265854
0.00331134
0.00382762
0.00485496
0.00425899
0.00438973
0.000619087
0.00587851
0.0033079
0.00368199
0.00643231
0.000986122
0.00125306
0.000702481
0.00202769
0.00176538
0.00328753
0.00477972
0.00166949
0.00109307
0.00295043
0.00416696
0.00108694
0.00084094
0.0021766
0.00692148
0.0058543
0.00223715
0.00310876
0.00286923
0.00179382
0.00181518
0.00171259
0.000857467
0.000519644
0.00404838
0.00497885
0.00436639
0.0014449
0.00237908
0.00254366
0.00272857
0.00298885
0.00724782
0.00171312
0.000137186
0.000651103
0.00112483
0.000934842
0.0015668
0.00349483
0.00427393
0.00208647
0.00125672
0.00148994
0.00254023
0.00213903
0.00305898
0.000514347
0.00231915
0.000103977
0.000954003
0.000814259
0.00140909
0.000791419
0.000918952
0.00104275
0.00055429
0.000841661
0.000368631
0.000755688
0.00142297
0.00209848
0.00194196
0.00116246
0.00112204
0.000904951
0.00166097
0.000292412
0.000208529
0.00135559
0.000600485
0.00456223
0.0029045
0.00380242
0.00238145
0.00427161
0.00656613
0.00551583
0.00539076
0.00451814
0.00074792
0.000732056
0.00207052
0.00114288
0.00198395
0.00148126
0.000497392
0.000311583
0.000116811
0.00021631
0.000244987
0.000106106
0.000557184
0.00377405
0.000465987
0.00157493
0.000430116
0.00210223
0.00103439
0.000930304
0.00217139
0.00319981
0.00209636
0.00202028
0.00124631
0.00662182
0.00671279
0.00380213
0.00158926
0.00126968
0.00232355
0.00207595
0.000882959
0.00473086
0.0017394
0.00505139
0.00181273
0.00222592
0.00185132
0.000990402
0.00194554
0.0052515
9.54742e-05
0.000902717
0.000265335
0.000800064
0.000250222
0.000574465
0.00203938
0.00151773
0.00153487
0.000812234
0.00129659
0.00363523
0.00389806
0.00392002
0.00308339
0.00298578
0.00225811
0.00345375
0.0026194
0.00228186
0.0019628
0.00293289
0.00210499
0.00243445
0.00354912
0.000796056
0.0015539
0.000708823
0.00154178
0.00117851
0.00093417
0.000906147
0.00247684
0.00191097
0.00102789
0.00105096
0.00103968
0.00103857
0.000868701
0.000915351
0.0016187
0.00360318
0.000802583
0.000475768
0.000521987
0.00158263
0.000327913
0.00191228
0.00143171
0.00502802
0.00583396
0.0054357
0.00540175
0.00513864
0.00539653
0.00373804
0.00531981
0.000499241
0.000485955
0.000250834
0.000552007
0.000466066
0.000504683
0.00107972
0.00111756
0.000984152
0.00108287
0.00229548
0.000993061
0.00128601
0.00175401
0.00127821
0.000639405
0.000508764
0.00118661
0.000912861
0.000892817
0.00107228
0.000842122
0.000648927
0.000888581
0.000607933
0.000710475
0.000781118
0.000589921
0.00080069
0.0045731
0.00638916
0.00258889
0.00220466
0.00198121
0.000943953
0.000635828
0.000300378
0.0015727
0.000502809
0.00043087
0.00150133
0.00095536
0.000630484
0.00123381
0.00138544
0.00372276
0.000842961
0.00163032
0.000760018
0.000509674
0.000826948
0.00157828
0.00185112
0.000962311
0.00208528
0.00220391
0.00233783
0.00173735
0.0021073
0.00031257
0.000212045
0.00133915
0.000904446
0.00329899
0.000547795
0.000412324
0.000441084
0.000426839
0.000329222
0.000439556
0.000824001
0.00313885
0.00135963
0.00197989
0.00188534
0.0022211
0.00152932
0.00214722
0.00158079
0.00117018
0.000724109
0.000910566
0.000975023
0.00164975
0.00151028
0.000450061
0.000900429
0.00598119
0.00545772
0.0072304
0.00110682
0.00675155
0.00668829
0.00163385
0.00328513
0.00267623
0.00529439
0.00224524
0.00281048
0.00393924
0.00216923
0.00171586
0.0025733
0.00265661
0.00208702
0.00152661
0.00536447
0.00392459
0.00567644
0.00210813
0.000702525
0.000579579
0.000582316
0.00114701
0.000639171
0.000545326
0.00492794
0.00374865
0.00595105
0.00131698
0.00307234
0.00602979
0.00244223
0.00152292
0.00105509
0.000800599
0.00533556
0.00613527
0.00101905
0.00188168
0.00321806
0.00041475
0.00215496
0.00571641
0.00156744
0.00683648
0.00153768
0.000882865
0.000952518
0.00276847
0.00222367
0.000685546
0.000621591
0.00701804
0.00366962
0.00118703
0.00470875
0.00149927
0.000845864
0.00158714
0.00731927
0.00412786
0.00345887
0.00442686
0.00577964
0.00325002
0.0020068
0.00571872
0.00535703
0.00186281
0.00146949
0.000610617
0.000501803
0.00113289
0.00025294
0.000586081
0.0046669
0.000748664
0.00129744
0.00356876
0.00171137
0.000862236
0.00319548
0.00101169
0.000850135
0.00511944
0.0050854
0.00472911
0.00248829
0.00405337
0.00113764
0.00202141
0.00679392
0.00253564
0.0022114
0.00256439
0.000773783
0.00112825
0.000780709
0.00132557
0.00143558
0.000279914
0.00270054
0.00103905
0.000407619
0.000737174
0.00132953
0.000169597
0.00100542
0.000421363
0.000390117
0.0047175
0.00229233
0.00114065
0.00462133
0.0028608
0.00207186
0.00474773
0.00247457
0.00141722
0.00281753
0.000465622
0.000300229
0.000505166
0.00139472
0.00433841
0.00407362
0.00332154
0.00541282
0.0069471
0.00458413
0.00141832
0.000648581
0.000789912
0.00629776
0.00168732
0.00561822
0.00407284
0.00185154
0.000528279
0.000339423
0.000428798
0.00126364
0.00154478
0.000870741
0.00248533
0.000968453
0.00723867
0.00680245
0.00368593
0.00255329
0.00270648
0.00274906
0.00314493
0.00505487
0.00264976
0.00103952
0.00368335
0.00217123
0.00507228
0.00215186
0.000747984
0.00080773
0.000784043
0.000806371
0.000779924
0.00133206
0.00165671
0.00131332
0.000636296
0.000732019
0.00096067
0.00137391
0.000654689
0.000606366
0.000966531
0.000518247
0.000962161
0.000632642
0.00144666
0.0027053
0.00366403
0.000769136
0.00263399
0.00377637
0.000740211
0.0025279
0.00167837
0.00241789
0.00228381
0.00370085
0.00369194
0.00346365
0.00274171
0.00209804
0.00187351
0.00177423
0.00288715
0.00270511
0.00177971
0.0048371
0.00112947
0.000651531
0.000601146
0.000814507
0.000558318
0.0005452
0.000744471
0.00469386
0.00047129
0.00100575
0.00138311
0.000741775
0.000933549
0.00173622
0.00110963
0.00206803
0.00509102
0.00202222
0.00471985
0.00323845
0.00198378
0.00250605
0.00148877
0.000827678
0.00131643
0.00053405
0.00053426
0.00128814
0.000226385
0.000636539
0.00219694
0.00445402
0.00437534
0.00493082
0.00405406
0.00236344
0.00111219
0.00179314
0.00155254
0.000936279
0.00410624
0.00206925
0.00370164
0.00415842
0.00305468
0.00112473
0.00333438
0.000568823
0.00138893
0.00445313
0.00421761
0.00488616
0.00437567
0.000822132
0.00158734
0.000804696
0.000745742
0.00640737
0.000788008
0.000804947
0.000710667
0.000472874
0.00194366
0.00422924
0.00157749
0.00121602
0.0012372
0.00180455
0.00164021
0.000694848
0.00246981
0.00186866
0.00468262
0.00099854
0.000751579
0.000340574
0.000196148
0.00489926
0.00064656
0.000391812
0.000258478
0.000913544
0.00069745
0.00268969
0.00115546
0.00226862
0.00196773
0.00160545
0.00308098
0.00344897
0.00281533
0.00123956
0.001126
0.000779631
0.00116056
0.00117006
0.00130361
0.000878781
0.000944036
0.000971398
0.000565405
0.00214401
0.00113572
0.00119211
0.00188351
0.000935635
0.00105654
0.00065119
0.00121883
0.00109582
0.00124887
0.00108608
0.0013931
0.000779889
0.000337788
0.00196271
0.0014633
0.000805585
0.00139057
0.00320321
0.000967878
0.00408226
0.00321215
0.00360257
0.00324152
0.00301435
0.00434007
0.00142352
0.00183008
0.00183347
0.000845177
0.00340525
0.00428709
0.00270372
0.00211047
0.00454115
0.000429572
0.000762351
0.000606347
0.00131183
0.000831796
0.00148402
0.00133024
0.00258376
0.00190325
0.000953667
0.00102786
0.00117846
0.00372311
0.00124017
0.000329012
0.00130352
0.00224469
0.000789713
0.00305065
0.00187421
0.000904344
0.00117662
0.000758236
0.00154485
0.000808764
0.00120099
0.00221057
0.00103062
0.00138632
0.00101171
0.00107734
0.0029825
0.00136248
0.00126588
0.00115825
0.00254563
0.000779046
0.000703717
0.00159964
0.000357759
0.000649872
0.000479204
0.000889549
0.00072743
0.000471044
0.00119498
0.000441656
0.000738313
0.000526941
0.000690702
0.0015865
0.00134094
0.00670908
0.0042262
0.000953028
0.00351321
0.00593724
0.00706995
0.00478378
0.00173714
0.0018972
0.00116977
0.00175336
0.00127629
0.000627959
0.00307089
0.00102511
0.0038493
0.000771128
0.00123956
0.00206041
0.0018317
0.00224411
0.00244911
0.00150524
0.000835004
0.00114304
0.000714917
0.00539427
0.0042463
0.00242483
0.00145281
0.000911497
0.00320667
0.00118064
0.00477153
0.000965643
0.000380323
0.00128032
0.00101159
0.000503711
0.000399576
0.00190882
0.00113392
0.00140339
0.00113586
0.000959371
0.000952482
0.000723626
0.000131362
0.00658831
0.00488101
0.00176091
0.00539699
0.00357994
0.000244928
0.000461351
0.000569361
0.00370362
0.00242673
0.00218235
0.00392974
0.00152353
0.000850628
0.00124718
0.0011741
0.00106851
0.00270536
0.000977434
0.00219385
0.000775576
0.00140151
0.00191893
0.00424087
0.000990152
0.00155925
0.00138885
0.000761102
0.00100493
0.000823116
0.000648033
0.000894732
0.000634999
0.000854753
0.000214761
0.00109617
0.00107669
0.0010915
0.000824826
0.00093851
0.00152455
0.00121843
0.0011768
0.00221916
0.00137898
0.000963289
0.00180061
0.0012831
0.000348855
0.00112834
0.00170824
0.000674052
0.000863849
0.00314708
0.00141484
0.00077687
0.00167315
0.00139372
0.000830578
0.000924176
0.00245442
0.00420546
0.00218582
0.00137871
0.000783649
0.00126657
0.00100576
0.000363244
0.00109716
0.00030254
0.000854285
0.00159861
0.000718091
0.000684559
0.000863986
0.000970309
0.000425389
0.000291937
0.000356225
0.000254048
0.00104091
0.000882162
0.0021653
0.00379905
0.00366713
0.000856192
0.00142757
0.00482823
0.00250365
0.00169885
0.00103574
0.00144245
0.0021066
0.0016151
0.00109361
0.00332614
0.00249133
0.00323909
0.00501611
0.00223846
0.00311224
0.00374287
0.00452605
0.00197039
0.00203751
0.00187623
0.00130489
0.00153266
0.000942788
0.00173717
0.00143858
0.000261213
0.00244424
0.00190531
0.00306601
0.00152481
0.00182289
0.00202025
0.00498667
0.00130647
0.00152953
0.00178601
0.00199296
0.000921769
0.00405868
0.00134731
0.00077657
0.0012074
0.000828395
0.00216905
0.00192366
0.00322552
0.00263282
0.00230196
0.000961195
0.000688488
0.000570416
0.000728658
0.000620397
0.000753291
0.00137012
0.000859101
0.00042649
0.00142838
0.00143291
0.00127669
0.0003667
0.00111473
0.00130107
0.000528701
0.00074988
0.00079198
0.00126893
0.00107531
0.000987722
0.00128055
0.000665913
0.00234427
0.00304515
0.00402086
0.00271539
0.00316255
0.000547357
0.00139337
0.00187707
0.000597105
0.00205816
0.000853204
0.00191626
0.00118124
0.00104111
0.000893717
0.000591331
0.000632009
0.00057268
0.000610587
0.000865217
0.000596509
0.000637181
0.000845115
0.00159063
0.000312783
0.000338694
0.000290311
0.000597545
0.000712128
0.000636324
0.000905037
0.000739675
0.000623053
0.00175669
0.00197897
0.00276343
0.0032163
0.00179171
0.00322644
0.00185613
0.00112441
0.00223235
0.00259257
0.00357019
0.00366644
0.00110102
0.00125072
0.0030299
0.00116508
0.000781368
0.000972489
0.00120363
0.00103097
0.00118383
0.00130113
0.00137365
0.00118134
0.00217517
0.0030155
0.00310668
0.00580563
0.0067533
0.00607462
0.00145895
0.00217161
0.00233655
0.00062741
0.000708266
0.00194539
0.00218157
0.00144869
0.00306223
0.00419199
0.00246836
0.000835722
0.00383462
0.00261972
0.00367883
0.00345915
0.00116398
0.00140555
0.00300993
0.00310071
0.00203643
0.00257532
0.00249539
0.00257519
0.00135951
0.00163393
0.00226714
0.00279378
0.00282039
0.00164782
0.00104689
0.000579287
0.000966769
0.000772254
0.00402965
0.00050801
0.00203274
0.00144299
0.00149052
0.0011374
0.00167476
0.00113339
0.00219464
0.00168386
0.00100145
0.00100087
0.00106244
0.000489839
0.000745198
0.000560353
0.00370716
0.00681256
0.00685716
0.00570417
0.00563955
0.00694784
0.00156712
0.000308325
0.0007516
0.000795299
0.00108662
0.00115312
0.00242863
0.00288135
0.00187815
0.00290881
0.00333339
0.00168856
0.00120952
0.00164756
0.00475365
0.00126069
0.00116117
0.000523659
0.00139808
0.000772319
0.00080899
0.000462287
0.00122481
0.00199077
0.00124601
0.00208149
0.0022173
0.000936065
0.00129502
0.000777272
0.00039753
0.000779543
0.00104318
0.000495054
0.00164016
0.000637302
0.00133442
0.00158994
0.00041679
0.00117957
0.000534858
0.000601364
0.000541048
0.000325888
0.000374304
0.000304851
0.000546091
0.000549987
0.000949728
0.000935412
0.000938224
0.000873368
0.000326743
0.000163758
0.000303413
0.000644226
0.0011003
0.00141676
0.000752426
0.00136547
0.00152477
0.000325349
0.00113602
0.00106384
0.000298186
0.000436445
0.0025381
0.000546616
0.000372523
0.000158453
0.00027939
0.000453809
0.000427892
0.00442881
0.00338537
0.000788402
0.000589036
0.000985318
0.000945317
0.0049741
0.00335155
0.00167159
0.00117442
0.000636906
0.000955746
0.00111764
0.000750165
0.000686679
0.000417484
0.000497045
0.000701669
0.00136893
0.000391084
0.000452602
0.00122071
0.00221224
0.00178352
0.00273908
0.000413856
0.000679637
0.00216874
0.00131999
0.000668702
0.00148924
0.00304863
0.00384087
0.00101884
0.00345537
0.00266587
0.000899962
0.00141343
0.000250846
0.00551888
0.0070902
0.00129406
0.000782569
0.000353909
0.00204722
0.00582065
0.00192839
0.00245338
0.00250129
0.00477163
0.00149448
0.00405051
0.000991702
0.000966159
0.00128828
0.00227945
0.000575804
0.0012562
0.000421686
0.00112816
0.000770875
0.00107581
0.000992234
0.000283898
0.00219787
0.00175547
0.00168133
0.000867282
0.00111544
0.000885985
0.00151409
0.00199113
0.00230682
0.00122718
0.00397207
0.00128476
0.00119453
0.000989435
0.00105338
0.000634115
0.000218189
0.0016891
0.00366288
0.00142687
0.00224122
0.00274917
0.00508662
0.0022705
0.00311001
0.000274264
0.00395825
0.00224073
0.00226344
0.00177591
0.0016961
0.00281897
0.00488024
0.00561716
0.000549556
0.00561036
0.00106058
0.00431133
0.000329825
0.000340419
0.0027473
0.00221826
0.000477072
0.000326073
0.000608051
0.00221532
0.00142001
0.00337288
0.00450071
0.0033267
0.00146077
0.000758136
0.00071041
0.000293705
0.00193156
0.00281976
0.00183126
0.0012394
0.000992845
0.00133906
0.000947147
0.000587466
0.000670897
0.000206298
0.000569896
0.00165914
0.000444007
0.00334024
0.00113954
0.000267787
0.00156595
0.00168346
0.000234631
0.000473738
0.000806743
0.000257586
0.000660399
0.00123873
0.00458802
0.00579281
0.00359055
0.00242713
0.00183942
0.000627748
0.00295409
0.005825
0.00224423
0.0031047
0.000997275
0.000962244
0.00675803
0.000889302
0.000527075
0.000643957
0.00104562
0.0023934
0.000952186
0.000591643
0.000626408
0.000588916
0.000487655
0.000229405
0.000392738
0.00678021
0.000601058
0.000373324
0.00036007
0.000469664
0.000612202
0.000480332
0.00181681
0.00160441
0.000911623
0.000629331
0.00172083
0.000369049
0.000319554
0.00216122
0.00511881
0.00384378
0.00315941
0.00262325
0.00294721
0.00726455
0.000426986
0.00477873
0.00196905
0.00387596
0.00235457
0.00326628
0.00223421
0.00666852
0.00371072
0.00306836
0.00167744
0.000519976
0.000438221
0.000534931
0.000950591
0.00137266
0.00208037
0.0036964
0.00115843
0.00197417
0.0041018
0.0033186
0.00215994
0.00580804
0.00400382
0.00296787
0.00310329
0.00210102
0.000831488
0.000879867
0.00119862
0.00577442
0.00221153
0.000674701
0.00193629
0.0011909
0.000978806
0.00261006
0.00103945
0.000887609
0.00091423
0.000650723
0.000381273
0.000759506
0.000627087
0.00144381
0.00142331
0.00269809
0.00140834
0.000830604
0.000863216
0.000263191
0.00145507
0.00236378
0.00234762
0.00152645
0.00482067
0.00145071
0.00189679
0.00185627
0.00467111
0.0019487
0.00472191
0.00189654
0.0035914
0.00263655
0.000752801
0.00395942
0.00206617
0.00125136
0.00281985
0.00186443
0.000594179
0.000829873
0.0017633
0.00404202
0.00322744
0.00115429
0.00122997
0.00157947
0.000399837
0.0010652
0.000853069
0.000931283
0.000579728
0.000873931
0.00179069
0.00177612
0.00300416
0.00478515
0.00675028
0.00183751
0.000487502
0.00683718
0.00424977
0.00213974
0.00134451
0.000580282
0.00024254
0.00231413
0.00058916
0.0014823
0.000739601
0.00167313
0.00502169
0.00275928
0.000358794
0.00207928
0.00185409
0.00319036
0.00582899
0.00120279
0.0017453
0.00126048
0.00303434
0.000285572
0.00285493
0.000619498
0.0019585
0.00296033
0.00175594
0.000396704
0.00515714
0.00130875
0.001862
0.000938822
0.00302381
0.00160894
0.00170455
0.00129271
0.00305847
0.00146162
0.00126529
0.000768334
0.00162113
0.00210979
0.00309379
0.00228125
0.00480564
0.00367188
0.00437845
0.00235947
0.0031403
0.00117885
0.00628443
0.00710825
0.00467385
0.00303406
0.00334433
0.00336312
0.00506041
0.00355615
0.000944796
0.00384293
0.00122304
0.00589986
0.00511914
0.00190421
0.000946516
0.000768733
0.00132531
0.00053086
0.00137009
0.00264168
0.000825965
0.000703968
0.00216968
0.00336133
0.00211312
0.00161764
0.002576
0.00292026
0.00272212
0.001726
0.00150803
0.000876353
0.00174355
0.00360779
0.0011354
0.00108505
0.00103797
0.000534988
0.000287693
0.000109555
0.000450255
0.000531576
0.0012042
0.000914487
0.000691462
0.000441793
0.000307333
0.000856383
0.000394755
0.00136582
0.00144212
0.00097966
0.00299539
0.00161642
0.00194827
0.000797236
0.00161209
0.00104303
0.000457946
0.000388393
0.000456559
0.000810822
0.000295659
0.000529842
0.00597019
0.00255676
0.00264421
0.00379984
0.00394126
0.00275764
0.00212175
0.0053073
0.00502073
0.00557411
0.00126746
0.000681787
0.00488352
0.00046648
0.0017876
0.00463095
0.00358568
0.000799046
0.000721819
0.00141642
0.00439161
0.00741767
0.00664022
0.00563706
0.00511615
0.00510456
0.00347633
0.00113718
0.0011636
0.00103948
0.00523439
0.00206677
0.00574215
0.00115969
0.000862208
0.00103251
0.0015582
0.00278885
0.00275435
0.000284172
0.00106469
0.000175111
0.00713421
0.00656198
0.00299793
0.00181967
0.00409545
0.0065632
0.00575055
0.00419762
0.000842399
0.000574859
0.00078584
0.0020456
0.000885231
0.00217518
0.0030282
0.00113372
0.00052961
0.00070221
0.000888215
0.000975125
0.000868968
0.000199116
0.000241935
0.000169959
0.00015993
0.000427966
0.00081982
0.00123023
0.00117528
0.00123403
0.000408752
0.00059874
0.000811602
0.000374829
0.0010066
0.000537162
0.00086081
0.00289516
0.00654731
0.00311557
0.00289959
0.00130417
0.00132263
0.000619507
0.00105653
0.000913181
0.000824969
0.000961612
0.00229249
0.0014514
0.000297656
0.00392107
0.000327307
0.00117625
0.00258699
0.00101327
0.000578773
0.000878006
0.000744059
0.00065882
0.00125004
0.00137173
0.00199817
0.000352387
0.00210681
0.000841313
0.000335911
0.000279054
0.000756126
0.00360651
0.00485462
0.00135792
0.00216902
0.00103558
0.0013592
0.00232755
0.00484082
0.00325646
0.0011232
0.0010243
0.00454352
0.0034468
0.00466362
0.00271053
0.0047432
0.000551337
0.000870439
0.000480329
0.00162728
0.00208867
0.00508462
0.00427686
0.0054178
0.00372937
0.00366829
0.00422465
0.00309123
0.00232723
0.00467129
0.00667241
0.00074199
0.00113785
0.00591101
0.00330572
0.00402635
0.00260363