/*--------------------------------*- C++ -*----------------------------------*\
| =========                 |                                                 |
| \\      /  F ield         | OpenFOAM: The Open Source CFD Toolbox           |
|  \\    /   O peration     | Version:  2506                                  |
|   \\  /    A nd           | Website:  www.openfoam.com                      |
|    \\/     M anipulation  |                                                 |
\*---------------------------------------------------------------------------*/
FoamFile
{
    version     2.0;
    format      ascii;
    arch        "LSB;label=32;scalar=64";
    class       volScalarField;
    location    "0.0207921";
    object      p;
}
// * * * * * * * * * * * * * * * * * * * * * * * * * * * * * * * * * * * * * //

dimensions      [0 2 -2 0 0 0 0];

internalField   nonuniform List<scalar> 
3975
(
-6.87793
2.42713
4.03651
1.38581
1.64325
-2.80509
1.5319
1.489
0.800919
1.06103
0.662992
2.56911
1.36151
3.41052
1.71248
1.30953
2.6353
-0.294876
3.09219
3.39497
4.38416
0.0231242
4.32613
-4.114
-3.98561
1.37398
-36.6059
-1.40647
-0.660829
2.41605
8.9946
5.20177
9.99333
7.3848
6.8052
-1.57096
0.419949
1.98988
4.53652
5.56861
2.40811
2.08439
4.006
3.43179
-5.26627
3.68121
2.08371
2.72463
-7.21891
1.24676
1.57882
1.98712
11.5888
-15.9691
-19.4347
-20.6143
-15.172
-15.7134
-15.3491
-11.309
-7.82879
-30.3203
-13.57
-7.39303
5.27534
-16.8491
9.62163
6.95136
-18.9451
-31.2827
-33.6357
-34.0165
-29.9041
7.53809
-6.03206
-8.35412
-4.81214
-6.65281
-7.78823
-7.18085
0.618331
1.94272
3.25527
2.29253
5.56265
-12.5265
-5.64965
0.429332
1.81011
1.85268
1.23995
3.3887
4.56587
4.3931
-49.2059
-2.86914
-3.02039
-41.8587
5.12509
-26.4296
2.73148
-18.9557
8.55601
6.10688
0.493119
2.15233
-4.82732
-0.363558
-1.3706
-3.34765
2.78214
2.19305
2.53685
2.47342
-1.34635
2.23627
1.15599
0.894237
-16.3124
5.95657
9.25796
-20.0572
2.53605
-14.8773
-11.1677
-19.9518
2.96763
1.66373
3.83532
4.4366
2.84867
3.00272
-0.551016
7.02959
4.03562
3.27416
5.77951
4.15896
3.81583
0.246017
4.45412
0.168856
0.225706
2.89856
-16.2096
1.971
1.87093
3.22445
7.22733
1.8719
5.09717
2.42483
7.62307
-4.77212
-27.3751
11.3452
-2.70207
2.84358
4.21035
0.753798
0.313801
5.51812
-7.30845
1.74302
0.70161
-10.0561
-6.74782
-56.4715
2.77872
0.955665
3.63141
4.20668
-4.0156
-4.90076
-36.4671
1.71068
-4.65385
7.99703
-3.51381
5.29493
-1.43037
2.48557
-13.6733
-18.2085
5.75705
-0.705356
-10.1762
-8.061
-2.78295
-11.3765
-6.11031
-0.789387
5.95646
3.42148
-4.87481
4.44129
-0.198567
1.41686
-0.596744
2.26108
2.02249
3.49452
2.31384
6.6038
6.81964
5.07143
-3.97747
-44.2981
-0.258812
-34.8175
-0.275419
-7.29035
0.0687819
-0.642189
3.11881
2.08964
-2.0092
4.92046
2.62095
-2.3261
4.11471
-5.36441
0.0261574
-6.30531
-6.57571
-8.98694
-33.7952
1.73691
-12.9014
4.38351
5.71905
-0.530698
1.11425
2.24232
2.25559
7.17928
9.31249
-6.36031
-24.7281
3.39481
1.45272
11.6206
3.63186
-6.03837
2.0056
-52.6549
-4.67468
2.63595
-38.2335
7.69291
1.18609
4.23841
-1.31675
-32.5885
2.55363
5.45586
-5.70314
-5.76167
-25.8476
-38.8687
3.31782
-26.1068
0.970737
-7.19341
-12.6838
10.1019
-42.2817
5.68983
-3.67825
3.04613
-2.37822
2.93362
2.80073
3.6932
2.59726
3.57339
2.83552
-3.62005
-42.1341
-27.2016
-40.1486
-4.63292
-0.864054
3.95616
-2.62233
-1.17586
-15.7572
-1.48094
-30.6559
5.61896
7.397
14.2407
1.32422
3.76897
0.414093
-0.258995
-0.0703495
-0.22513
-1.16779
0.776477
-3.26606
-1.64752
4.71133
-6.92859
-11.3217
-6.19897
-9.2384
-11.9451
-14.1602
-3.41124
1.36988
1.62334
-2.98787
0.320871
1.03835
-8.19987
-5.45247
-2.761
0.632158
0.931887
1.92611
0.506012
0.305651
0.171186
-29.3505
-1.97787
-1.2491
0.0324335
-0.481041
-11.4886
-6.29629
-5.53412
-4.46216
-4.50571
-13.7574
-5.74049
-3.82981
-9.32876
-17.0877
-13.5083
-10.1894
-14.7388
-7.38857
-12.171
-9.99961
1.98979
1.18281
-1.10361
-0.287128
1.96703
-10.2299
-5.41829
-4.37466
-3.69969
-2.16862
0.335032
4.97081
-8.41603
-1.09526
0.522332
-3.18344
-67.04
-6.16321
1.88913
1.36148
1.62313
-5.2156
1.75247
2.02398
1.97214
1.65363
-23.5099
-3.01531
-6.94143
5.28679
-4.90945
1.82428
-43.7148
-23.9219
5.44261
-25.9835
-16.78
1.82199
-15.0336
-17.2165
-19.6201
2.09635
-28.6772
-18.1692
-15.1945
-3.603
1.54503
-16.1855
-4.16673
1.89433
5.56613
-2.21294
-13.1471
-3.01124
-3.79408
4.3233
-4.15491
-3.46714
-2.76666
-3.3884
-3.25948
-7.30977
-5.07898
-5.46351
-0.0754874
-3.6742
-5.57188
-27.6881
-27.5514
2.26748
-34.6813
-3.55548
1.95303
-10.9818
-4.02226
-2.15333
-3.26401
0.896885
-19.5246
-16.1083
-18.9135
-2.33123
-16.0517
2.07441
-15.4549
-9.75318
0.556185
-0.186023
-23.848
-6.48933
1.69563
0.499187
-2.65045
-18.6033
0.333004
1.40724
-5.05216
-25.5164
-69.683
-66.0656
-2.34877
0.515197
-11.2203
-65.677
-1.28407
0.842511
1.0755
0.955619
-1.53878
-9.25171
0.546938
-6.45037
-0.369816
-2.34892
-1.28713
2.23984
-20.1546
0.132819
0.518192
-15.0033
-0.0966642
1.20342
6.12254
1.53256
1.91107
-13.1567
2.22866
-1.72244
-2.0492
3.05664
-14.5823
-1.34931
-1.09586
-1.8972
0.306252
2.59211
0.730004
4.62569
-0.691292
0.499847
-14.6761
-11.5256
-51.6573
-23.2269
-7.73776
3.1869
-1.55077
0.545149
-22.1225
4.92481
1.64596
-0.547086
0.148326
-6.26087
-16.8935
-30.2237
1.25037
0.216281
-0.8801
1.90723
-1.01469
-4.92269
-29.4355
0.390114
-6.36458
1.52347
-0.363711
1.34691
-36.2193
2.02351
2.54108
5.11294
4.46088
2.31469
1.18701
-2.02237
3.70931
-10.8792
-37.1264
8.99943
-15.6298
-0.0179854
-44.1951
3.17661
-2.19407
7.08338
-7.18278
7.78557
6.41774
0.0551276
-4.19868
-0.150987
-1.75835
-124.741
-8.22509
1.28745
-0.726821
1.53268
-13.7428
-19.6041
-31.2316
-1.95372
-51.8094
-22.9812
-5.67137
-15.3895
5.7234
-7.1785
-4.84934
-11.9686
-16.7318
-2.78437
-1.31874
4.39227
-3.631
3.28786
-6.18618
-14.6197
-19.2076
-30.3437
-46.95
-31.2087
-23.1679
-57.6195
-31.0951
4.88253
2.95197
4.96668
3.52726
2.98002
2.5603
3.62706
-2.54049
5.07053
7.34967
5.78659
6.15457
-9.00034
7.0706
2.66845
5.5799
7.81509
0.618354
12.8446
1.65921
-1.72668
0.469518
-0.274619
-15.7924
2.78579
6.70496
3.49221
2.36758
3.35624
0.172119
0.208212
0.983516
-47.8813
0.393369
-8.17949
-13.096
-1.1833
-4.15315
-4.93333
-7.2573
-1.07411
-10.3055
3.38012
1.70231
3.62574
2.13603
0.806517
2.25666
2.19518
-3.46153
1.45943
1.92567
1.56294
4.83779
2.47756
2.17533
-2.24945
1.9078
5.99667
6.55072
-0.949303
2.83301
4.20222
-2.30272
4.2298
4.41658
2.93075
2.6375
0.699576
3.57265
2.5637
-0.339338
2.98604
-2.01292
2.49799
-15.6672
3.47014
1.50586
-21.5948
-13.155
1.14786
0.757911
-26.6311
-32.3314
-11.2299
-27.789
-19.7791
12.9133
5.00832
-27.8195
-37.5738
-47.8058
-4.37685
-64.2762
-42.8724
-54.1842
-40.5021
-47.4612
3.5516
-0.56853
-3.08895
3.50335
5.24178
4.7986
2.37909
-28.0235
2.56596
4.08081
6.79875
1.74153
5.18591
4.94289
1.88994
2.1021
2.9001
-0.769369
0.241715
5.84706
0.81071
2.43571
-0.106792
-6.71855
-0.563974
-2.73019
0.172504
0.170245
-15.0022
-9.15765
0.852551
-2.96866
-15.2056
3.04528
-4.84723
-36.743
8.86371
-9.72807
-3.74896
1.68224
2.17018
-34.8076
-3.59255
2.54594
0.970182
-3.85845
5.66468
0.186466
-1.32746
-0.137722
-6.15622
-5.65514
1.16912
12.0892
1.84974
4.74519
4.67912
2.9469
2.6279
4.47264
2.52397
3.5181
-6.20204
-5.98367
-2.60876
-5.59229
-8.0157
8.41479
0.982924
-1.88005
-52.4553
-1.87115
-40.6378
-4.72336
-15.029
-9.53851
-47.6636
1.13706
1.78329
1.8804
-13.3901
6.14346
-31.5356
-4.8277
4.36506
3.74399
-23.7122
3.02056
0.0183506
2.22581
4.82054
3.93059
3.38556
-0.287118
3.47295
0.416977
-0.357678
1.93384
0.588154
2.94008
1.83032
1.39089
-20.7463
3.82507
5.88762
2.57049
-3.48929
2.96057
1.56554
2.16854
1.07356
-1.88677
0.939425
-28.327
-17.1433
3.35395
2.22798
-0.81683
-9.97278
-0.635232
-3.84839
-0.586236
-5.96625
-7.11054
-41.9977
-1.13559
-14.755
-15.7184
8.75577
-8.78136
1.66394
-9.88898
-7.55167
-7.37369
-3.5164
-9.24635
-74.2083
4.37998
10.4939
4.03726
-47.3472
4.30963
-4.50416
-2.82937
7.34074
-22.0652
-24.3993
-12.8219
-58.4338
-9.19213
-18.0108
-28.9884
-7.2033
-3.37499
-4.90184
-5.67659
-5.1653
-35.1751
-23.9987
7.26108
-42.9749
-28.5933
-21.0596
-33.9368
-43.8569
-36.851
-25.9018
-29.0383
-4.48283
-1.28358
-39.5234
-34.8828
-29.3033
-44.1861
-31.8203
13.8318
-15.9363
6.49121
-12.5684
-13.2453
-16.2318
-8.26714
-0.162525
-14.1872
-15.0713
-24.3436
-23.2894
-6.23017
-5.72195
-28.902
-32.5903
0.0922951
-3.15955
6.49154
2.29851
4.33389
-4.65618
-1.63297
-1.77101
-1.9422
-2.13759
0.211759
3.91551
3.08292
-4.15307
0.126737
-0.148073
7.03136
4.68981
7.28146
10.439
12.7829
-13.4635
-2.83311
-4.58162
-1.0644
-6.56282
-0.788532
-1.02609
-0.062404
-2.20208
-3.64912
-6.94495
-5.79806
-5.05768
-3.23001
-5.83411
-7.42778
-0.697026
-0.312338
-0.901402
2.01593
-25.1831
-20.7938
-3.06099
-22.3184
-25.702
-23.8585
-4.87839
-7.85231
-9.8078
-11.3024
-0.864149
-2.19115
-0.361964
3.14523
11.5763
6.90417
8.29396
0.92347
-11.7882
-16.7374
-29.4242
-1.16958
3.92108
1.55447
-1.9267
0.597917
0.665485
-1.23862
2.39388
-8.80548
-20.545
-15.7506
-11.4662
-13.799
-4.81706
-33.8394
-9.78499
-7.21142
-10.9484
-13.1176
-12.6054
-19.0162
4.08709
3.88748
5.19513
4.88867
-12.9479
-9.90422
-9.26862
-16.1107
-14.1749
5.74109
6.56241
6.72608
0.700775
0.643131
-0.983729
-1.02544
-0.625826
0.1158
-1.1936
1.17728
1.10966
1.33365
2.29832
3.51292
1.50047
0.500871
-2.24399
-0.43529
0.784498
1.31619
1.71811
2.00482
-0.569634
3.20083
2.14721
1.37732
3.90085
4.33782
-18.3132
-24.692
-6.56181
-4.89726
1.17829
-16.5426
-7.92745
-29.2397
-18.1161
-3.44627
1.4026
0.905236
-13.3926
-3.08227
-1.54184
2.95568
-13.2765
-1.67435
-0.495628
-4.7485
-7.80712
-4.38529
1.15458
1.91915
1.08619
1.20459
0.358289
-22.5589
-22.0542
-4.30902
-49.746
2.66004
5.28091
2.41907
2.15848
1.20506
2.19588
1.95033
3.48883
3.01082
-2.03683
-0.759077
-1.44159
-6.45796
-12.2855
-4.75755
0.952767
2.02053
4.39634
4.37084
-32.8504
-7.83606
-3.12222
-4.28959
-7.14215
-7.30663
-18.0493
-16.8003
-9.64192
-0.532634
-7.18132
-0.078139
1.18665
-1.80591
-1.93653
-4.37568
-6.88438
2.17642
3.24398
-0.239917
-0.370816
1.56667
-2.58061
-0.893503
3.13931
8.06283
2.26003
-3.83638
-9.9397
-12.5033
6.97137
3.5381
-2.9606
-11.4216
-3.05056
-1.96487
-3.40909
-1.17885
-1.87083
-3.32503
-1.58609
1.21866
3.61832
3.94203
1.02015
0.739632
1.08845
5.05123
-6.60055
-3.51378
1.16825
-15.5035
-12.4797
1.29241
-19.8383
-29.9863
-4.56046
2.9664
-0.212483
-0.632871
-0.310002
-2.44016
3.98003
1.3008
-0.311995
3.58151
-0.0782144
0.838041
-13.8213
-3.77037
-3.14874
0.450076
-52.8232
-12.5579
3.00919
-23.2586
-10.8762
-3.07431
4.16766
4.02673
5.21552
4.93511
6.59522
0.673602
0.886387
5.74921
6.3142
1.82613
6.43162
6.60347
5.68408
0.608229
-2.63354
-7.18302
1.66037
3.45589
-28.8629
-99.0659
-37.2719
-44.3096
-42.8429
3.01267
-13.96
1.86399
-10.5355
4.33885
-33.6139
-16.8035
-22.1379
-45.7122
-24.8248
-25.6304
-55.1937
-31.2978
0.416424
-9.78464
-4.24988
1.33564
2.63667
-3.36426
-2.35669
3.1633
-0.120704
-18.0178
-66.7656
-23.5419
4.34827
-4.99834
-25.6762
-32.3794
-4.95989
-4.168
1.21687
7.91412
6.8497
2.54783
5.039
1.58014
0.867718
2.89293
2.10495
4.05967
2.27703
2.72249
2.91041
1.23663
-8.44374
9.97811
2.89688
-15.2347
7.12477
-23.8541
3.0898
7.13236
-5.00439
-55.0663
-47.6465
1.25216
-2.13059
4.16516
7.36713
4.41643
-1.30981
-1.32872
-39.3077
6.52859
1.76975
0.686685
1.18175
4.03747
-9.83117
-6.3184
-5.01355
0.613126
-11.4368
3.51584
2.57517
2.59052
2.21373
3.25805
2.81455
2.70974
2.6062
3.06143
3.42452
-5.48001
4.52488
2.94301
5.15868
5.64796
1.62704
2.74935
5.66716
0.824333
2.84264
1.44762
-2.49068
-2.15466
-29.7075
1.87244
-0.367199
2.84376
-2.72682
7.9033
-49.9956
8.05753
-42.8263
-32.8531
-7.63692
-11.3987
5.87952
-23.7865
1.81377
4.25985
3.41097
-50.198
3.22308
-24.5298
-41.4805
-34.1928
-15.8176
-25.6055
-20.4814
-59.8597
1.26265
0.0282672
1.4911
1.95716
-37.0469
-37.9544
-41.1635
-36.6086
-28.2008
-28.305
-24.3569
7.10683
1.99836
1.14776
1.12157
12.9742
-6.00429
-2.48587
-3.21377
-1.48639
0.657982
-9.11709
0.994721
-0.350149
-18.3019
-0.383954
-52.5994
0.556046
1.75766
-3.67006
-1.9582
-2.54042
-4.94125
3.0819
-1.23125
-4.38982
1.80527
7.23107
5.1211
6.44365
3.21042
1.48562
-1.63591
8.61132
4.83932
-0.778275
5.38348
0.472565
-2.38821
-16.0809
-2.5636
-15.5964
-4.95622
-26.0087
-35.7994
-6.80539
-2.75132
-1.65571
-0.507813
-1.5661
0.069525
-1.00533
6.45284
5.40588
7.62478
5.76262
5.80521
1.98303
2.56177
4.93416
2.32181
0.440813
8.16496
-4.92522
-12.3613
-13.0786
7.12431
-1.14772
4.35959
1.55218
4.86308
1.45359
-13.2829
3.56798
3.79286
8.36445
1.68871
0.0888987
0.256985
-0.0478713
2.84385
3.34432
3.96319
2.28041
-6.44386
1.25177
0.558138
3.75143
3.12012
-6.04431
-0.675364
2.62211
-4.24777
-16.1517
-44.9709
-24.5558
-5.01516
-64.5
-37.7353
-4.01864
5.2795
0.525686
3.75384
4.55054
3.33008
6.5453
-3.78165
-6.1934
9.05947
7.51245
8.33398
-43.9364
-8.5956
-23.5754
-4.25577
-26.9593
7.98968
-9.69863
-2.56072
0.148716
3.07745
5.86018
-29.4992
1.43782
-6.29986
-7.06626
6.71203
-5.166
-3.69992
-42.1211
25.0939
7.53905
-8.3318
5.94091
4.43461
1.07636
-5.57359
-4.64031
4.49639
4.74917
5.62837
-20.3692
-18.937
-23.7155
-21.6217
-27.5333
-32.3634
-31.1608
-39.4013
3.07028
2.67478
-1.60594
5.5575
2.88564
-2.13624
-16.2758
-6.42569
-12.3351
1.24766
-4.93568
-0.00827058
-3.63215
1.91523
-0.322
0.774337
4.71078
-3.73523
-0.645641
-0.572533
-16.2333
-28.4195
5.49781
-37.8832
-9.73395
-9.97291
-18.9937
-2.76685
-6.47994
1.36519
-16.6789
-1.02495
-13.0171
0.609329
-9.91536
-12.65
0.000485969
2.43299
0.423067
0.804277
2.05548
2.46444
2.49871
3.33064
3.1052
-7.19931
-22.4263
-6.88161
-18.2878
-16.3131
1.36029
-12.1911
-13.2672
-30.7247
1.75922
0.851102
1.09668
-5.60044
-18.8895
-6.14076
-34.497
3.7827
4.81163
6.02933
-34.1526
2.02906
-37.6798
-36.2561
-27.5718
-9.24144
-10.4934
-6.57054
-7.54791
-7.19239
-35.8773
-5.3782
-30.0781
-18.8581
-26.5812
2.60981
-7.83441
-4.7861
0.606123
-0.282984
2.03003
-5.80397
-0.867483
-7.823
-4.48408
-7.63252
-0.569857
-13.097
1.195
2.12583
-7.175
-11.5808
2.37202
2.63349
0.703237
-4.86046
-13.9921
-15.3417
-2.56283
0.103257
-0.451254
1.5165
-15.0812
1.17979
1.60214
-3.3141
-2.93608
-0.827375
-20.1202
-2.15886
-7.06203
-17.0663
2.71635
1.92969
0.196103
-2.14666
2.46664
2.83059
-2.99839
-2.11255
-8.05792
-13.9641
0.180977
1.94815
1.88376
-8.14509
-8.22189
1.51772
0.475313
3.86939
4.52513
-8.23245
-1.59363
-2.64962
-7.01534
-14.023
-1.63819
-2.77803
-27.7169
-66.2471
-57.3464
6.01617
0.998588
2.17252
7.14507
3.73467
10.4105
4.61434
5.31075
6.64943
-10.3019
5.53774
-36.5873
-28.212
8.67862
5.433
-7.93168
-23.0546
5.09747
4.94913
2.10698
-8.63083
-31.7622
3.35795
5.73991
6.50958
15.2785
14.0084
-21.2252
-9.08175
-27.8878
-17.7715
-11.1318
-68.122
-18.2937
-42.0126
-23.812
-3.57582
-12.5146
-3.91436
-9.02139
2.39007
-26.0434
-8.3619
-9.40165
-11.3876
-30.8511
-29.1227
-40.0102
-12.9143
-44.4867
-11.8912
12.2517
2.64896
-6.27329
-10.9001
-7.3449
-5.63203
-8.43585
-52.7908
-41.0343
-63.791
-1.84819
0.111916
-9.55976
-7.91675
3.68022
5.01419
-4.28362
-5.54958
-15.8066
-6.16228
-3.10692
-10.5685
-0.026144
5.06531
5.81287
11.501
-21.0667
2.43557
5.55999
3.69869
-6.43236
7.8379
0.920575
-5.92014
3.52823
-156.412
5.03669
7.04721
3.5976
7.10915
5.00471
5.60842
-21.8135
3.62123
1.9255
2.61556
4.18498
2.36449
-10.4261
-30.7888
-16.2017
-0.0526554
-1.81267
-5.61069
3.03055
2.95331
-9.0819
3.07609
-2.28543
-4.5374
5.8754
-27.2768
-28.7009
-26.2427
-5.18407
-10.8984
-6.20465
-2.58429
-3.92936
-0.463351
-4.73923
-4.84886
-3.3506
-1.84944
5.3122
5.65775
5.09224
0.644955
2.13153
2.53295
2.07693
2.68591
1.91759
2.66427
-36.5303
2.89506
2.40251
2.27475
3.36892
3.86903
4.20355
3.87863
-18.2576
-1.32662
-9.79816
6.50868
6.00008
0.762732
1.00364
0.954519
4.52742
1.93285
4.82156
4.16034
5.28322
4.92549
-4.34917
-9.70808
-16.4877
-17.7877
-0.105372
0.838478
0.846318
2.39642
0.177409
-1.17421
-0.375196
1.85267
5.66951
4.80971
3.39181
2.16
3.17195
3.60271
5.24142
7.46266
2.20481
7.16979
1.46153
0.428186
0.0314979
-23.9516
2.5787
1.22554
0.826416
-0.91281
-1.42963
2.05075
-7.52799
-0.100055
-7.95895
-0.660549
-66.8902
-58.788
0.2425
-38.8877
-88.5064
-27.1429
-28.6269
-89.1611
-25.5655
3.44815
-1.72647
-0.157178
-0.587434
-5.38274
2.45311
-31.071
-58.9534
-33.2817
0.0461102
-38.3429
-36.7397
-6.26038
-5.24558
-46.6431
-34.8721
-55.6088
-46.7459
-50.7054
-28.7215
-32.3814
-1.75255
-34.5433
-4.34155
-11.9722
-3.64248
5.14924
7.36011
3.84563
-0.0976093
0.618109
4.15327
-5.12247
3.40611
0.317347
2.58056
-2.8817
0.168061
3.39387
8.11979
6.2265
-0.51905
5.41562
-18.7848
3.27825
1.91923
5.27156
8.08247
0.20006
-0.963619
5.82742
4.5992
2.95428
-1.2137
0.969624
-7.12238
-21.7937
0.852225
2.31542
5.05396
0.210457
7.75766
-25.0859
3.92836
4.95226
1.31361
1.18872
-3.58412
-1.12351
-15.7147
1.71267
-2.27629
-0.108246
3.02621
-7.21686
4.65376
3.60965
5.99054
2.42366
-12.5623
4.73948
7.89777
-4.24004
5.12012
-1.17195
2.70178
3.09477
3.18888
-54.4207
-38.5266
-24.8824
-14.3497
6.92818
3.44887
3.23586
-0.866421
0.86289
1.19101
3.55748
-33.0665
-51.2311
6.49939
5.49055
2.1289
14.9177
4.92899
5.78046
5.31995
-1.62701
-8.57634
-131.752
1.61467
-9.39274
-3.48045
3.69804
-11.7908
2.30571
1.77752
2.52976
-47.2843
0.421311
4.33562
-27.7161
-16.4883
-7.82669
-10.8769
-47.3064
-95.2419
2.86286
2.9702
3.31126
6.30066
-10.8001
-41.9229
5.86119
6.95553
4.65975
4.14898
-3.30592
-49.2097
-0.462607
0.0560296
2.29568
0.804743
-0.0380466
-7.6046
-7.91131
0.0178855
-3.14374
-10.8291
-6.02894
4.05689
0.0944821
0.657692
-1.151
6.50337
0.808163
1.93574
3.84407
-3.59308
-2.38944
2.89775
1.21335
0.622541
-0.289444
-9.6272
-3.50403
-4.51624
-3.89827
-3.24054
-15.9389
0.0624671
-0.881152
-4.14701
2.72003
-6.02862
-0.464201
-11.6751
-32.3416
-49.0431
-45.6861
-38.7894
3.88548
-18.3671
1.20911
-26.9002
-36.1504
-14.1458
-36.6352
-3.43037
-37.1911
-22.467
-9.70643
-32.2505
-18.4714
-8.13691
-31.5322
-36.5031
-31.9979
-9.05761
7.37747
1.67534
-3.44317
-26.0431
-6.50422
-12.8101
-23.5199
-4.91787
-20.317
3.44398
-3.88103
-10.331
3.54529
-4.71251
-9.54786
-4.93393
-4.56359
-8.72234
-4.56805
1.40017
-0.257403
-5.09296
-20.9918
-7.34028
1.53511
-12.0245
-9.13707
-13.6289
-13.2071
-3.35096
-20.6104
-3.42307
-17.0324
-7.03398
-10.0397
1.55295
-8.66669
0.301367
-4.05
4.84471
4.9013
-1.81836
-5.47883
-13.3663
-5.39155
-5.64315
1.62417
-12.9288
1.7973
-8.22806
-2.74843
-0.646155
0.27544
2.78811
4.79487
1.1359
-0.944483
8.24715
4.32381
3.97712
-7.55903
-8.19769
-20.6913
-5.66115
2.13661
-1.71852
-2.47331
-0.9052
0.00926419
-1.81679
-3.88278
-3.68975
-1.19829
-4.59992
-6.87799
-2.62179
-2.81375
-1.81341
-5.80423
-1.93938
-5.1337
-6.66472
-9.98563
2.88709
-3.69177
3.86524
5.57941
-3.14359
-3.27114
-2.71393
-3.48641
-0.188085
-1.19285
-2.33707
0.0713318
-4.29698
-0.225841
-7.90928
1.46038
1.8425
2.02663
0.260446
-2.24022
-3.71008
-0.68863
-11.315
-15.0194
-17.5348
-6.57027
3.47882
-1.57664
-15.8686
-12.8929
1.84616
-0.703156
-4.42305
4.11955
-11.4285
-10.4413
-13.3062
-0.833209
-13.3109
3.49713
3.48314
3.69517
2.53159
3.64257
2.9317
2.4278
3.91476
2.6047
2.26485
-12.8772
2.93775
-5.64241
-6.82372
-31.7343
-31.1555
-5.92063
-16.113
-15.3673
-12.1748
-14.3292
-32.8345
-29.634
-2.09725
-1.15609
-2.13299
-1.11004
-1.03916
-16.403
-1.81805
-6.68268
-5.39663
-10.3903
-2.47913
-3.98344
-7.22915
-11.0785
1.36894
1.70894
1.29812
1.51
-7.0427
-5.67709
-13.8073
-4.73627
-41.9876
-9.8086
-9.20028
4.28499
-0.269008
-4.71781
-0.740235
-2.69282
-3.29081
-28.0185
2.14581
-6.10065
-1.32512
-1.40312
-16.7052
-12.3878
-9.77059
-7.56179
-6.74098
-8.20818
-13.7897
-2.93697
-3.41057
-3.48048
1.45464
5.96931
1.76966
0.00648322
-0.443145
-0.339542
1.56123
1.65523
-1.47416
0.958478
1.7765
-7.66462
-46.0296
-8.30083
-3.71153
-21.819
-3.73514
-3.43277
-3.18224
0.243253
-15.8373
2.36216
2.5176
0.762764
1.59378
-6.35997
1.19278
-2.29641
0.0271207
1.28951
1.33009
-1.08165
-1.50939
0.708192
-1.99515
-0.405569
1.93779
0.273265
-0.749597
-4.68433
-0.610138
3.94984
0.878572
0.965722
-6.40781
-3.91373
-4.4083
-0.496927
-8.36175
-4.19734
-8.68204
-5.70174
-14.2739
-16.0378
-3.07135
-21.1239
-9.65672
-23.185
0.548665
-5.9175
-3.82465
0.954474
1.95876
-1.08832
0.435989
2.46363
-0.609904
0.382349
-8.36747
-3.85358
-3.537
-4.83941
0.798721
1.80704
-2.28631
1.81657
-8.23286
-9.69993
-5.75019
-5.18069
0.566349
-27.6217
-9.68716
-6.29693
-38.5069
-7.33119
6.41967
2.42089
3.07579
2.57357
4.42934
-2.53256
3.38229
4.01961
5.82619
7.70857
7.61607
11.9172
11.5989
2.49925
-0.992898
-13.5241
3.58637
-0.8677
-1.03081
-5.37261
-1.85127
-1.06677
-3.87918
-18.3164
3.03726
-0.0656605
-8.79522
-22.4916
-39.117
-16.423
-3.52178
-25.7609
-6.55624
5.44877
2.99721
5.72849
-33.3312
-59.5082
-10.6395
-9.81773
-4.17184
-11.485
-24.4031
-0.372407
-2.66059
-22.3731
-10.5054
-9.43459
-138.453
-0.782244
4.32502
1.50339
1.88679
2.97654
-0.167953
4.29418
1.91175
-8.58939
5.06236
-5.01966
1.46526
6.02215
1.37775
9.10801
2.30078
10.12
-0.769958
-10.9816
2.50679
-3.20233
-2.99154
-7.43462
-7.36161
-1.92428
-6.82716
-66.1911
-55.3339
2.7947
-9.76443
2.98292
1.69955
6.86241
3.13906
3.14448
4.11001
2.89512
3.45014
3.13144
2.64821
-1.83861
0.934853
0.683285
1.47027
4.83046
-1.22395
2.71798
1.96783
2.11452
1.8112
2.51053
4.80209
2.9843
0.988666
2.49346
0.346422
0.697383
0.971689
-13.8979
-10.4925
-14.6058
0.342544
0.511755
-2.67643
-2.76076
-1.61077
-8.1065
-0.739545
-37.9743
-44.7785
-62.5547
1.51612
-10.7148
-31.7285
-2.68119
-2.08824
-7.72619
-36.449
4.35288
-42.5396
2.57342
2.43032
1.30793
2.06912
1.87803
2.08609
1.56921
-15.0168
-21.9498
-23.246
0.089581
-3.41397
3.38671
2.56536
2.8739
-3.23812
-33.4176
-2.62326
0.935493
-22.1739
1.96349
1.85187
2.24659
7.34577
-24.5508
2.76911
3.47771
-13.111
3.23124
-1.4638
1.30933
1.76415
0.0841838
5.9997
-4.88771
1.1856
2.81251
-2.17512
-2.03291
-0.312257
-6.19784
-4.37562
-6.68039
-2.54292
-22.3345
-8.96165
8.07723
6.13778
-7.42688
-7.97737
3.12469
-11.3745
-3.92856
2.70016
3.94437
5.05181
1.89159
-5.1783
-2.68176
-2.05955
-6.05651
1.75882
-4.58902
-34.622
-18.384
-3.82128
1.58364
1.7018
0.955892
-8.53712
-12.0879
-0.105598
2.80728
2.30919
-25.8815
3.67322
-19.5248
-11.0137
1.60482
1.22712
-3.72994
-3.37177
-3.08121
1.49298
-1.73311
-4.26013
-1.79679
3.86382
-1.01415
2.6034
1.21455
-1.35847
-1.36878
-19.2204
-3.80324
4.0751
-0.151155
-0.776747
5.66306
5.53404
4.55151
4.34708
3.19719
5.91977
3.96717
-7.72707
-5.97736
0.0317981
-13.8794
1.73311
-4.35661
-7.75138
8.04719
-11.0551
-10.1112
-22.3858
4.04784
-6.33783
6.94647
-26.5732
11.1377
1.07446
-16.0258
-38.3178
-9.38203
-11.5991
-0.0818343
-2.1188
2.23811
-38.0596
-15.1045
-17.2848
-14.8055
0.129182
-40.2243
-11.6329
-2.94942
-0.906237
5.23493
10.5127
3.52764
-6.71091
-7.4813
4.40401
-19.5537
-11.0538
-6.39321
-7.15253
-22.054
-74.1558
-62.1707
-22.3263
-68.2993
-56.387
-30.3122
-20.6031
3.98156
8.63239
1.34847
-7.7127
7.5305
2.02071
-54.0729
-36.7214
-33.8487
-19.7729
-63.7365
-19.1049
-21.7268
-6.8668
-3.92683
3.22192
-1.0686
0.0410487
0.061972
3.83932
4.30325
4.95735
5.23089
-24.7377
-24.4694
-7.65138
-2.2078
-5.10809
-0.771832
-6.02265
-2.4282
-3.41693
-2.4628
-18.9801
-7.48281
-6.38987
-10.9987
0.454577
0.788678
0.44862
2.2922
2.00828
2.15839
1.48554
-7.96193
1.68468
2.29512
0.744541
-4.47576
2.07616
-19.2291
-9.98399
-48.375
-13.3591
-12.846
-13.8367
-15.7901
0.375575
5.2522
5.50807
-2.68474
4.7029
-2.94648
2.4436
3.14705
-4.99738
-31.9134
-7.0062
-8.73148
-4.90607
-1.27051
-6.21355
-4.73819
-20.421
-0.834799
0.113541
-12.7221
1.40835
0.238259
-16.8608
-12.0458
10.2267
-1.70039
3.53681
2.63249
-9.39148
-2.96554
-15.4056
1.26979
-61.1726
5.5059
6.49703
6.62638
-2.23732
6.99093
7.36251
5.74764
-6.62334
9.97244
-2.32948
-6.98984
-1.05743
-2.62065
-6.0467
-9.61082
-2.86687
-11.406
7.08981
7.54916
-18.1141
-3.02939
5.44261
5.66254
4.74845
3.63934
1.34305
-5.9946
-15.1339
-10.0005
-11.3412
-25.7427
8.98689
-5.93924
1.43366
5.91307
6.16546
-3.56606
-7.80456
-9.5214
-22.1405
-22.1908
8.56767
-59.1639
-23.5106
-32.4609
-39.2538
1.92427
3.27592
2.31226
3.15731
2.66915
6.3374
3.01766
0.917166
1.48754
2.2343
3.71142
-7.66176
-18.2235
-8.0222
-12.3833
-10.5083
-11.5968
-7.92586
3.4906
4.87068
4.37895
3.71287
2.48016
6.13522
-11.1397
-6.24186
-5.48167
-7.42556
-7.71245
1.60813
1.81814
2.66191
2.38561
2.41478
2.45239
0.490179
-0.213836
-0.894688
2.46525
-3.5051
-0.33086
0.184838
-3.66864
-5.07373
1.46116
1.78934
-1.26475
1.72
-2.27587
-2.06889
-2.9386
-6.42366
-6.52052
-14.2331
-15.0422
-3.69703
3.27106
0.760075
-0.266362
14.8628
3.56462
2.96691
-6.36533
-8.99234
-5.82553
1.82435
-12.4088
0.670229
-2.60132
-14.568
12.6239
-0.841384
-6.53762
-7.01798
-4.96212
1.44266
-9.20125
-11.4617
-14.5782
-4.67147
1.55931
1.55034
2.70127
1.259
1.39443
1.88863
0.487056
-2.03417
0.908197
0.946737
1.84778
2.41492
3.87185
1.58967
5.7851
-4.79441
-3.93184
-7.27166
5.18348
-14.075
-9.39306
-3.57652
4.05784
-3.48351
4.06645
-1.3714
-48.9776
0.846663
-6.16707
-5.75566
5.78083
5.4114
6.16203
7.36927
8.27546
-5.65166
9.26896
0.281383
6.5346
5.24988
8.08471
-6.24158
3.68167
6.03904
2.42121
6.02549
5.45736
6.30293
5.91969
-17.9353
3.95812
-11.8095
-17.8275
-5.76591
-5.0953
-18.6542
-9.47563
-30.0303
-33.423
-44.0452
-27.1135
-20.6891
3.46068
2.86445
-1.99869
5.73993
-13.5469
-6.55027
1.79676
7.78051
3.16324
-56.5184
-32.0941
3.31936
4.72045
-25.8984
0.234795
7.22783
-6.71701
-3.29717
-28.8533
5.37448
4.45528
4.49718
-37.9349
-26.4609
-35.2807
-29.9468
-4.56454
2.64366
4.56026
6.05308
5.57243
-28.3939
1.64546
2.8268
1.90405
3.21458
2.53753
-3.87779
1.32441
2.08275
1.11682
0.980764
-4.97572
3.46616
-26.5014
-48.7204
-139.928
3.49475
-44.3217
-49.4481
4.50284
-1.02089
-92.6492
-27.2032
-141.948
-8.96861
-10.6275
-5.78272
-24.6568
-28.4943
-8.99919
3.0789
2.51837
-28.0401
-24.0654
-6.51814
-5.80559
-8.51524
-4.99194
1.45188
-6.43809
0.0467309
4.79095
3.42961
4.3672
4.09443
1.71445
6.84788
1.20571
1.38321
6.72991
1.55916
2.58034
2.9812
2.45161
5.53719
5.28534
3.6493
2.54893
-1.65693
2.67096
5.80209
3.6871
6.65343
-4.2062
5.80324
3.55955
3.64578
1.23097
3.63309
-17.1683
7.76305
6.72725
0.954768
3.42831
-1.7671
-30.2097
-15.4677
4.59281
4.71705
5.44426
-5.18613
3.96584
0.603185
2.44784
7.04909
4.76194
4.02331
-0.0100269
-1.34117
0.433807
-35.495
-0.905193
-11.5136
-4.93817
1.97645
2.05948
-5.55149
-4.72767
-3.31814
-5.14766
-0.152486
-7.13537
0.870524
-10.0199
7.19819
-44.9854
-1.48903
8.54166
3.92458
-13.2014
6.18046
-7.46027
3.31324
-1.18018
5.85492
6.49557
-4.60412
1.38673
3.61103
3.70573
-3.65198
-0.734647
0.374529
0.939396
8.1152
8.55264
7.7588
6.44264
1.67602
2.24691
2.08264
3.17773
4.61802
-8.4063
4.61904
3.10221
8.79805
8.90011
7.63329
2.12074
8.84287
2.12909
9.08979
7.93384
2.41656
2.36228
3.02524
1.8908
3.33116
3.06297
6.5162
4.81011
4.50764
4.29584
6.06512
5.93968
4.46145
-52.9241
5.8132
5.50034
-10.8825
-10.0158
-13.6951
-7.68608
7.21454
4.62092
3.26824
1.36442
4.39137
3.52336
6.33128
2.65801
4.06918
1.96582
0.818259
7.49133
8.02839
6.87104
4.40188
7.13204
4.98502
2.58608
5.4922
6.32978
9.322
2.83073
6.47998
6.21199
7.12067
6.57029
6.7415
2.54535
3.43698
-0.146216
-1.51718
-3.07409
-4.39501
-3.72848
-5.18597
-4.44789
3.18463
2.20881
2.21904
1.36378
1.9948
1.55182
7.55342
2.02873
2.63403
-25.5734
5.65722
-32.6445
-34.8939
2.92732
-35.2074
2.02937
1.95435
1.85957
-37.3483
-0.976935
1.00244
-13.6416
-10.4762
-6.68658
-2.24175
-7.42615
-4.96047
-5.56999
-40.2881
-20.669
2.42257
-0.424637
-43.5838
-21.6111
2.13754
-5.92887
-6.30028
-3.84861
-11.6869
-38.993
-36.6458
8.11987
0.327948
-22.1772
1.4965
-15.7813
-62.1551
-25.2483
-51.516
-8.80933
-43.0679
-35.9123
5.35829
-91.9191
-38.2749
2.72014
3.55803
1.25511
2.18845
-0.0409646
1.53729
3.99152
4.27998
-1.21877
5.43163
4.25163
0.922795
3.39212
2.20891
12.634
12.9954
-5.97667
-35.1445
-30.3904
-39.525
7.10706
7.90397
1.99016
2.29207
-0.531355
-9.58852
8.11892
-3.34353
-2.00461
3.48289
-1.90707
-1.34397
4.85357
-3.78632
5.54398
-1.88375
-1.53002
0.581731
1.68345
7.21173
-8.12012
-19.4929
-6.67853
-7.90203
-35.8441
-46.9836
-18.6225
-1.51783
0.0936165
0.731245
0.380241
-0.837533
2.34497
-0.168009
2.10809
-3.10951
1.78953
-6.7887
-2.0986
1.89228
1.75495
1.14389
-9.74269
-10.1819
0.661869
0.84442
-4.36185
1.13999
-3.85133
-2.78232
-10.4037
-4.47212
-1.90372
-3.38481
-3.7346
8.55303
-1.65472
-12.0544
4.23204
4.88283
5.76658
7.22443
6.88227
4.4429
4.39937
3.27081
0.450336
4.44863
4.38003
-3.51307
5.02255
-64.4553
0.716472
-3.76119
1.0528
-9.81521
-137.979
-5.36409
-11.5608
-5.13441
3.42836
-2.69371
-0.646271
-4.28579
-2.40607
-2.39201
-3.75237
-6.96402
3.46047
0.645444
4.13381
3.98001
-3.27943
8.64654
8.64013
6.45996
-21.4686
-12.7632
-10.72
0.474676
-1.69582
-19.9148
-12.4762
3.7313
8.30701
-2.42287
0.532696
4.57671
1.80846
-3.21437
4.07535
0.414541
-3.90029
0.791317
1.3844
-0.608794
2.6581
-3.63961
-13.2124
-5.0031
-1.73002
2.46401
-3.21401
-0.37559
-1.88365
-2.52279
-1.26717
-57.8144
2.52068
8.31472
4.63794
1.8682
5.25505
-0.832816
-7.3708
-5.87276
1.11609
1.70441
-4.25243
1.5573
2.11883
-57.1883
-56.401
5.93243
-38.0781
7.52713
5.17159
1.7756
2.15943
0.810626
6.41946
1.85018
2.82294
3.55679
2.56805
3.51826
-0.636223
2.42802
3.39934
2.58571
2.9078
3.23482
2.92087
2.47832
2.8796
-20.6144
-5.12541
-4.1682
7.03721
1.88624
2.45579
2.26561
5.49445
-1.28434
0.235657
-1.88757
0.953735
-5.92815
-0.70207
3.4292
1.80301
1.62819
1.45693
7.02339
-33.4753
-3.14615
-0.811348
-8.56289
-36.9116
4.43466
-8.5908
8.0317
-2.5616
-4.60141
-0.159044
1.63488
-16.2689
-41.3942
-1.59261
2.57908
-7.18036
1.65514
-10.9326
-22.1924
-26.5102
-42.3679
-5.07321
-2.67321
-2.97826
1.43714
-39.2515
-44.0282
0.48665
1.42398
4.89259
5.09156
-4.13768
-32.8826
-2.57562
-13.2633
-2.35026
-56.443
-2.07793
-29.1978
4.31107
3.56015
-5.04053
-18.0425
-14.1426
-18.8756
-4.21199
-3.3263
-4.15619
-13.6854
12.3854
10.1847
-5.32448
-1.85489
-3.92083
-3.66186
-4.11491
-1.49701
-2.21266
-1.61112
-2.63598
7.07091
8.20951
-2.66503
-61.0088
-0.0676151
0.051114
-2.65693
1.35863
-0.925352
-6.55064
1.26185
-3.72421
-4.51132
-3.26743
-10.9508
-3.06992
8.23408
4.76899
4.41472
11.5712
0.0840453
-0.882066
1.88786
1.82292
-3.44825
4.85725
5.13462
1.52898
-22.8481
-4.03704
-5.38183
-2.58893
-9.69822
-6.27747
1.53833
1.11841
-3.12438
-5.10825
-1.07135
0.303387
-30.8097
-2.46969
-47.831
2.20299
2.09394
2.11828
-51.1371
-6.59169