/*--------------------------------*- C++ -*----------------------------------*\
| =========                 |                                                 |
| \\      /  F ield         | OpenFOAM: The Open Source CFD Toolbox           |
|  \\    /   O peration     | Version:  2506                                  |
|   \\  /    A nd           | Website:  www.openfoam.com                      |
|    \\/     M anipulation  |                                                 |
\*---------------------------------------------------------------------------*/
FoamFile
{
    version     2.0;
    format      ascii;
    arch        "LSB;label=32;scalar=64";
    class       surfaceScalarField;
    location    "0.0207921";
    object      phi;
}
// * * * * * * * * * * * * * * * * * * * * * * * * * * * * * * * * * * * * * //

dimensions      [0 3 -1 0 0 0 0];

oriented        oriented;

internalField   nonuniform List<scalar> 
7552
(
-0.0164345
0.0104768
-0.000107812
0.0060656
0.0522183
-0.0290362
0.02551
-0.0486921
-0.00196767
0.082369
-0.0841405
0.00373918
-0.00522874
0.0164308
-0.0138454
0.00264337
0.0209789
-0.0250057
-0.00120198
-0.00743475
-0.00160374
0.00481208
0.0042264
0.000299342
-0.00883614
0.00671703
0.00613738
-0.00741265
-0.0108696
0.0137883
-0.0100593
0.0071406
0.0156818
-0.022583
0.00700988
-0.000108688
-0.00531822
-0.0122621
0.0020868
0.0154935
0.0586186
-0.00765565
-0.0480427
-0.00292018
-0.00945333
-0.00199828
0.0144786
-0.00302702
0.0020728
-0.0425593
0.0392362
0.00125034
0.0189981
-0.0127696
0.00380316
0.0228265
-0.0125043
-0.0141254
-0.0504798
0.0960714
0.0376799
-0.0832715
0.0272689
0.00226196
-0.014544
-0.0149869
-0.0354605
0.0365477
0.000985586
-0.0510015
-0.000937158
0.00681898
0.0451197
0.000386999
-0.0429463
-0.0432593
0.0290924
0.0183113
-0.0041444
-0.0424517
-0.00450417
0.0114954
-0.0121903
0.00647763
-0.00355596
0.00926863
-0.00885045
0.000376985
-0.00371685
-0.00622888
-0.0158312
-0.0123421
0.0344021
0.000413402
-0.00277336
0.000144342
0.00221562
-0.00334274
0.0126473
-0.0114999
0.00219533
0.0204829
-0.0173519
-0.000236703
0.0467025
-0.107946
0.0614799
0.00443385
0.0104581
-0.000650739
0.0622418
-0.0591698
-0.00307203
0.000504513
-0.00532768
0.00175775
0.00306541
0.00795996
-0.00668018
0.0106429
-0.000819184
0.0148885
-0.00769683
-0.00637253
0.000673967
0.0040884
-0.00462748
-0.0116195
-0.00281851
0.00170187
0.0127362
-0.00778428
-0.00898995
0.0106748
0.00609939
-0.00889766
-0.00222558
0.00707262
0.00405061
-0.0142991
-0.000258125
0.00565955
-0.00502603
0.00538994
0.0126841
-0.013048
-0.0131607
0.00278059
0.00535413
-0.00455885
-0.00614944
-0.00245246
0.00296746
0.000627503
-0.0102307
0.00663578
0.0097137
-0.0102684
0.00157631
-0.00102161
0.00978188
0.00367835
-0.0104928
-0.00671037
-0.00671004
0.0130286
0.000391841
-0.00932462
-0.00802662
0.0106409
0.00126543
0.00137637
-0.00245388
-0.000187916
0.0342383
-0.0323753
-0.00186308
0.036529
0.00610803
0.0143726
-0.0570097
-0.00147275
-0.00856124
0.00624799
0.003786
-0.00346495
-0.00390269
0.00600726
0.00136038
0.00304688
-0.00209425
0.000615547
-0.00156818
0.00251366
-0.000268097
0.000801317
0.00168954
-0.00227191
0.00152769
-0.000945315
0.00294109
-0.00264726
0.00139571
-0.00191862
0.00423738
0.000256907
-0.00257567
-0.000892992
-0.00311988
-0.00164172
0.00338584
-0.00362716
0.00188304
-0.00511938
0.00277408
0.000103771
0.00224154
-0.000586538
0.0021099
-0.00140883
-0.000114531
0.00433427
-0.00222594
-0.00194826
-0.000160071
-0.00313562
-0.00258913
0.000605369
0.00674577
0.0219112
-0.0399378
0.0112809
-0.00301424
-0.000970003
-0.00174968
0.00573392
0.00317282
-0.00465251
0.00167415
-0.00019446
0.0361232
-0.00534199
-0.0284577
-0.00232355
-0.00316522
-0.00216879
0.00231977
-0.000251464
-4.40795e-05
-3.59339e-05
0.000331478
2.80652e-05
7.24404e-05
-0.00035197
0.000308115
-0.000365998
5.78835e-05
0.00022764
0.000321154
-0.000809462
0.000260667
0.0197108
0.0218627
0.0484893
0.00618663
0.00442907
-0.00344069
-0.00717501
0.00386575
-0.00484007
0.000167163
0.000807158
-0.000401619
0.00140523
0.00518302
-0.00767552
0.00613833
0.00540294
0.000257157
-0.00300448
-0.00209274
-0.0029893
-0.0040322
-0.0155792
0.00755165
0.0120598
0.0490683
0.0814499
-0.12966
-0.000858487
-0.00100709
-0.0707454
0.000883047
0.0708695
0.066886
-0.033744
0.0264431
-0.0595851
0.0066244
0.0143806
-0.0143589
-0.0066461
0.00618189
-0.00712574
-0.0027146
0.00365845
0.00122943
-0.00457949
-0.00382143
0.00717149
0.00289083
0.00612927
-0.00716713
-0.0452776
0.13766
-0.0124962
-0.0798865
0.0571274
-0.0587223
0.0281692
-0.0289901
0.00565992
-0.00483902
-0.0486084
0.0380295
-0.0363161
0.046895
0.00443746
-0.0513366
0.00376991
0.0431293
0.0430273
0.00471537
-0.0433052
0.000404881
0.000380664
-0.000514441
-0.000271103
0.000411389
0.0049668
-0.000936434
-0.00444176
0.00981166
-0.00900735
0.000701656
-0.00150597
0.000711256
-0.00189417
-0.000608218
0.00199757
0.00257458
-0.00701072
0.00243856
0.000141955
-0.000372635
-0.00112367
0.00135435
-0.00264336
0.000320796
0.0154254
-0.0131028
-0.00302929
0.00284817
-0.00243538
0.0026165
-0.000374302
-8.97856e-05
0.00450367
-0.00403958
0.000861089
-0.00358862
0.00142887
0.00129866
-0.0138486
0.0125832
0.001143
0.000122387
-0.000543499
-0.0410874
0.0416309
0.0118783
-0.0149965
-0.00480115
-0.00356884
0.00198886
-0.00585477
0.0054438
-0.00628367
-0.00272898
0.00521731
0.00148179
-0.0012553
-0.0714282
0.0704211
-0.0505078
0.045324
-0.014482
0.0507039
-0.0462623
0.00737342
-0.0118151
-0.00018125
0.000377363
0.00682553
-0.00722619
0.0135267
-0.013126
0.0575329
0.00108568
0.0574431
8.98335e-05
0.000838725
0.00170179
0.00102891
0.00117758
-0.00390828
0.00148958
0.00162044
-0.00224894
0.0110406
0.008943
0.00171971
0.00268294
0.0128842
0.0562283
-0.0283969
-0.0407156
-0.00230824
0.00572674
-0.00397537
0.00269604
0.00337186
0.00253672
-0.00473099
0.0620153
-0.0598774
-0.00979354
-0.0479157
-0.000127056
-0.0469509
0.0488995
-0.0010692
-0.000879331
-5.32029e-05
-0.0468977
0.0492819
-0.0490943
-0.000187681
0.0490316
-0.00234412
0.00259445
-0.00644503
0.0170573
-0.00669794
-0.00391432
-0.00715831
0.00608497
0.00570232
-0.0069219
-0.00486538
0.0024263
-0.00618912
-0.00568732
0.00945013
0.000376833
0.000758514
-0.000182934
-0.0419668
0.0443827
0.0316807
-0.0340966
0.00614307
-0.0129759
0.00596885
0.000863992
-0.0124268
0.00747907
0.00468959
-0.0176727
-0.0023824
0.00918554
-0.00358539
0.0108604
-0.0125021
0.00522711
0.0412751
-0.0138015
-0.00887756
-0.0185961
3.57543e-05
0.00149199
0.000692295
-0.00222004
-0.0649713
-0.0425008
0.0171552
0.0903169
-0.0475064
0.0522416
-0.0131897
-0.000194802
0.0114845
0.00253187
-0.00539831
-0.0355357
-0.000826145
0.0363619
-0.00172429
-0.00548967
0.00759039
-0.000376426
0.0609453
0.00107006
-0.0298237
0.0455072
-0.017779
0.00209555
0.00677721
0.000232777
-0.00179268
0.000220324
0.000719718
-0.00196555
0.00102551
0.000422121
0.00199494
-0.00052142
-0.00189564
0.00251403
-0.00613098
-0.00237034
0.00598729
-0.000294947
-0.0345472
0.0377807
-0.00293861
-0.00444972
0.00324682
-0.00487996
0.00608286
0.00286039
-0.014906
-0.0282607
0.0403063
0.00527223
-0.00248804
-0.00865173
0.00586754
-0.0367053
0.0256924
0.0212754
-0.0102625
-0.00333951
-0.00106576
0.000148832
0.00425643
0.0334887
0.000749611
-0.0109825
-0.00391815
0.0132776
0.00162306
-0.00329884
-0.00289376
0.00285309
-0.00284482
0.0014966
-3.0892e-05
0.00137912
-0.000641087
0.00114509
-0.0011471
0.000206431
-0.0370889
0.0368825
-0.00248832
0.0143869
0.015169
-0.0270676
-0.00736505
-0.00808892
0.0103254
0.00512854
-0.00519392
0.00964378
-0.0123782
0.00792835
0.0117994
0.00906818
-0.0102618
-0.0106058
0.00138653
-0.00645552
-0.00351932
0.00858832
-2.06083e-05
-1.59785e-06
-0.000955425
0.000977631
0.0104074
-0.00221306
0.00147542
-0.00966973
0.0027502
0.00125069
-0.00271705
-0.00128384
0.00329012
0.0243097
-0.0275998
0.00144617
-0.00197668
-0.00165948
0.00218999
0.0634424
-0.000457727
-0.0630439
5.91974e-05
-0.00315206
0.00267706
0.00712509
-0.00665009
0.0529755
-0.0339337
0.029006
-0.0480477
0.00133335
0.00153142
-0.00450089
0.00163613
-0.00430346
0.00292984
0.00270697
0.0303756
0.0402684
-0.00210365
0.0101594
0.00116685
-0.00922262
0.00186301
-0.00321314
0.000235233
0.0011149
0.000212856
-0.00289965
-0.00083879
0.00352558
-0.0053582
0.000852096
0.00285707
0.00164903
-0.000588911
-0.000964198
-0.00125674
0.00280985
0.00293641
-0.00204869
0.000679611
-0.00156733
0.0151159
0.00360152
-0.0179553
-0.00076211
0.000211421
0.0487029
-0.0489143
0.00293595
-0.0412951
0.00819821
0.030161
-0.00536355
0.00469395
-0.00246602
-0.011257
0.0312498
-0.00707936
-0.0129135
0.0233421
-0.0239892
0.000647096
0.00462779
-0.0049264
-0.00641143
0.00220428
-0.00745627
0.00595733
-0.000705338
-0.000249757
0.0438548
-0.0449131
0.00130805
0.0505137
-0.0013291
-0.0491846
0.00360327
-0.00464592
0.0122319
-0.0111893
0.0382441
-0.0889606
-0.00515262
0.0238881
0.00561059
2.67621e-06
-0.0156411
-0.0278068
0.0434452
-0.0247669
-0.00767173
-0.0151496
0.0475882
0.00326161
-0.00499789
0.0136146
0.000101673
-0.00104298
0.000829134
0.000112177
0.0029449
0.00498627
-0.0115166
0.000621059
-0.000469637
-0.000151421
0.00874659
-0.0230201
0.000403139
0.0138704
-0.00190162
0.00335133
-0.00267254
0.000814115
-0.00854424
0.0034218
0.00430832
0.00642909
-0.00589746
0.00685396
0.0328096
-0.0312809
-0.00838269
0.0069437
0.000348838
-0.000778308
-0.00651423
0.00221309
-0.00468118
-0.00307928
0.00554737
0.0795477
-0.0205923
-0.0104013
-0.0485541
0.0277987
-0.0261835
-0.0489599
0.0473446
0.00238397
0.00152679
-0.00295501
-0.000955745
-0.0495841
0.0379115
0.00716839
-0.00277821
-0.000730335
-0.000560862
0.00406941
-0.00443825
-0.000712831
0.00731069
-0.00215961
-0.00176352
0.000695598
-0.000817214
0.00188514
0.00121108
-0.0067046
0.000888861
0.00460467
-0.00354902
-0.000912873
0.00055506
0.00390683
-5.13148e-05
0.000672373
0.0192979
-0.0260656
0.00983786
-0.00307019
0.00309528
0.00175532
-0.001655
-0.00319561
0.0142677
-0.0129556
-0.0113121
0.0100001
-0.0461945
0.000227133
0.0459673
0.00666914
0.00709608
-0.00464827
-0.00911695
0.00462699
-0.0135639
-0.00495912
-0.0669608
0.0377648
0.00979144
-0.0465678
0.0101486
0.0266278
-0.00222982
-0.00262034
0.0186265
-0.0137763
0.00452518
-0.000475151
-0.00442433
0.00537206
-0.000923051
0.0023282
0.00127379
0.000344173
-0.00355572
0.00193776
-8.57607e-05
-0.00223097
-0.000726734
0.00304346
0.0200613
-0.0159239
0.000556948
-0.00469441
0.00173232
0.000491505
0.000398309
0.0031607
-0.00174162
0.00634943
-0.00776851
-0.00373904
0.0016267
0.000297355
-0.0288251
-0.0248013
-0.0257477
0.000625339
-0.000911102
0.00160112
-0.00131535
0.000109774
-0.000217995
-0.0016553
-0.00199023
0.00122528
0.00225453
0.00103794
-0.00109715
0.00151507
-0.00145586
-0.00132921
0.00112701
0.00856068
0.00907161
-0.00453434
-0.00664182
0.00210455
0.0280291
-0.00374804
-0.0114937
-0.0127874
-0.00299011
0.00219456
-0.00274002
0.00353557
0.000629675
-4.90424e-06
-0.000676085
-0.000908
-0.0117199
0.0100832
0.00254471
-0.0266473
0.00638783
0.0101552
0.0101043
-0.000341435
-0.00233987
0.00016871
0.0025126
-0.00163498
0.00400146
-0.00092031
-0.00305336
-0.00212683
0.000398072
0.00151177
-0.000935932
-0.000348329
-0.000227505
-0.00278874
0.00405581
-0.00155289
0.000285818
-0.00415395
0.0027299
-9.3318e-05
0.00151737
-0.0150841
0.0277542
-0.00804316
-0.00776335
-0.00216666
-0.00650453
-0.000285157
-0.00178788
0.00328503
-0.00121199
0.00261273
0.000966836
-0.000406747
-0.00171236
0.00122852
0.000289119
0.000194727
0.0090063
0.00351953
0.0235974
-0.0136023
-0.000990168
-0.035815
-0.0215118
0.0110645
-0.00173677
0.00562786
-0.00294486
-0.000946237
0.0393945
-0.000158341
0.0389884
0.000406073
0.0313145
-0.0327123
0.00264818
-0.0532158
-0.0415298
0.0264127
0.026257
-0.0111399
0.00758043
-0.000798732
-0.00582956
-0.000952137
-0.000178474
-0.000862937
0.0010336
0.00487484
-0.000720681
-0.00509906
0.000620697
-0.000563904
-0.0029962
0.00293941
0.000763482
0.00106293
0.00575402
0.0116034
0.0021273
-0.0108347
-0.00289598
-0.0209042
-0.00421771
-0.00443957
0.0295615
-0.00665111
-0.00162293
0.00201426
0.00625978
-0.000463609
0.0189854
-0.0128647
-0.00565706
-0.00143186
-0.000641632
-0.00022124
0.00229473
-0.00525965
-0.0162693
0.0210035
0.000525444
-0.000415938
0.00278618
-0.00117976
-0.00119048
-0.0457966
0.0453716
0.000424979
-0.00736106
0.0024509
0.00298056
-0.0007634
-0.0054662
0.00231827
0.000902906
-0.00160074
-0.00353793
-0.00461456
0.0119787
-0.00382621
-0.0046749
0.0058414
-0.00470443
6.84177e-05
0.00975547
-0.00304124
-0.00402781
0.0086253
-0.00224765
0.00249206
0.00212568
-0.00755233
0.00162741
-0.00489427
-0.010938
0.0120387
-0.00182404
0.00329808
-0.00144547
-2.85778e-05
-0.0010193
-0.00274782
0.00424726
-0.000480149
-0.00287392
6.82257e-05
-0.000237544
-0.000310904
0.000961308
-0.00208114
0.00143074
-0.00251848
0.00123668
0.0009709
-0.00219234
0.00276004
0.00209761
-0.00266531
0.00146244
0.000877989
-0.000668029
-0.0016724
-0.00915883
0.0112028
0.00396669
-0.00601068
0.00336625
-0.00433406
-0.00819103
0.00157215
0.0071315
1.05967e-05
-0.00871424
8.81212e-05
-0.0112798
0.00908807
0.0101315
-0.0124665
0.0024231
0.00174967
0.000753036
-0.00237522
-0.00268101
0.00411905
0.00019709
-0.00163513
-0.000973603
-0.00117947
-0.00189568
0.00404875
-0.00406176
-0.000647379
-0.00913946
0.00609313
-0.00411724
-0.00603765
0.010302
-0.0157602
0.000982188
0.00447603
0.00496373
-0.0180073
-0.0243233
0.0373668
-0.00816305
-0.0108779
0.0240046
0.0110538
0.010201
-0.00785366
-0.0134011
-0.00444044
0.00425987
0.000593974
0.00660471
-0.00380841
-0.00848161
0.00103501
-0.00824896
0.0138187
-0.00614661
0.0215753
-0.00437499
-0.0347541
0.00453602
-0.00107345
0.0034909
-0.00200108
-0.000416369
-0.00143154
0.000584331
0.00405012
-0.00320291
-0.00444638
0.00422592
0.0042961
-0.000774621
-0.0036318
0.000110323
0.000656642
0.00323784
-0.00221987
2.51416e-05
0.00162445
0.00344317
-0.00146767
-0.0016898
-0.000285696
0.00234021
-0.00185137
0.000595378
0.000689784
-0.00182052
-0.000986957
-0.00148655
0.00304002
-0.000566512
-0.000127153
-0.000947087
-0.00118698
-0.00081057
-0.00285537
0.000314008
0.00335193
-0.000476381
0.00253501
-0.0028692
-0.00287317
0.00373442
-0.000648395
-0.00292747
-0.00128524
0.00359429
0.000618418
-0.00232896
-0.00122467
0.000698256
0.0099362
-0.0774347
-0.0845803
-0.0207673
0.00946962
0.0063101
0.00498758
-0.00756973
0.00346351
-0.00338552
0.00749173
-2.21793e-05
-0.0110826
0.00250818
0.00859659
0.01632
-0.0137655
-0.0251376
-0.00102123
0.00185538
-0.00376643
0.00151085
-0.00162597
0.00388156
0.00470829
-0.000565426
-0.00180266
0.00184533
0.00256062
0.00458144
-0.00411352
-0.00107223
0.000604305
0.00855265
-0.00763679
-0.00169946
0.000783594
-0.0210053
0.00376703
-0.00677773
0.024016
0.00230453
-0.000172743
-0.00205889
-7.28928e-05
-0.00129292
0.00410904
-0.0100828
0.00726672
-0.00527492
-0.00759307
0.00122938
0.0116386
-0.010988
-0.000880507
0.0016367
0.0102318
6.64264e-05
-0.00026458
-0.00167221
0.00187036
-0.00151683
-0.00330297
0.00171167
0.00310813
-0.0334341
-0.0331427
0.03852
0.0280568
-0.0375663
0.00362757
0.00050466
0.0286349
-0.038032
0.000987482
0.00348012
-0.00340813
-0.00105947
-0.0035092
-0.000998598
0.0404831
-0.031443
0.0124311
-0.0214712
-0.0246953
0.0305344
-0.0336964
-0.0476697
0.0209624
-0.000487153
0.00108135
0.00252545
-0.00311964
-0.00156358
0.00555525
-0.00147764
0.00396126
-0.00170356
-0.0102271
0.00796939
0.0554723
-0.000130824
-0.0553415
-0.00247303
0.00474328
0.000865177
-0.0177511
-0.0111603
0.000209369
0.000970697
-0.00107839
0.00173042
0.00292774
-0.0012863
-0.00240355
-0.000367081
0.000780408
0.000653715
0.000288145
0.0012421
-0.00218396
0.0016232
0.0018658
0.000578241
-0.00406724
0.0130008
0.0272761
-0.00125518
0.00185997
-0.00159175
0.00230679
0.00110366
-0.00178725
-0.00177732
0.00266407
-0.00149763
0.000610881
0.0671017
-0.0667243
-0.00224684
-0.00215377
0.00342818
0.000972431
-0.00143832
0.0015268
-0.00207273
0.00309754
-0.000551447
-0.000473362
-0.010692
0.00861391
0.0104313
-0.00835326
0.029189
0.00457297
0.00134032
-0.0351023
0.0015028
-0.00130683
-0.0022687
0.00842254
-0.00958068
0.00903044
-0.0078723
-0.0576888
-0.0540237
0.0151245
0.0310376
-0.00228624
0.00758075
-0.00205629
-0.00624752
0.000723058
0.000108823
0.00169312
0.000780863
-0.0025828
-0.00604067
0.00493869
0.00868273
0.000406053
-0.0075284
0.00108168
-0.0133784
-0.000256965
0.00542133
0.00821403
-0.00211671
-0.0110401
0.0164184
-0.00463067
-0.0173934
0.0199073
-0.0129295
-0.00121517
0.00749351
-0.00672661
0.00883143
-0.00116193
-0.000942887
-0.0101745
-0.00938116
0.00952007
-0.000719114
-0.00382751
0.00167345
0.0116421
-0.00171422
0.000477449
-0.0104053
-0.00716134
-0.000361288
-0.00340255
0.00564784
-0.001884
0.00767414
-0.00898231
-0.00898634
-0.00459495
0.00473085
-0.00107137
0.00350509
-0.00302026
-0.000133603
0.000498337
-0.00182881
0.00146408
-0.0124234
0.0924404
-0.00038726
-0.000809079
0.00119634
0.00106831
-0.00104913
0.00430459
-0.00432377
-0.0115249
-0.00116067
0.0160518
-0.000197592
-8.19115e-05
-0.00242304
-0.00469375
0.00570406
5.79971e-05
-0.00463381
-0.0074035
-0.00216924
0.00143758
0.00512168
-0.0114464
0.00581215
-0.01638
0.00738007
0.00318781
0.0014099
-0.000515931
0.00113669
-0.00203066
-0.000752743
9.73818e-05
-0.00158734
0.0022427
-0.0006804
0.00296821
-0.000877907
0.00154736
0.000866848
-0.00622261
0.00211253
-0.00326804
0.00102174
0.000133762
0.00593891
-0.0122192
-0.00377144
0.0100517
0.000721291
0.00184323
-0.00224727
-0.000317243
-0.00101678
0.0013213
-0.00132574
0.0052562
-0.00161964
0.00491609
0.0133239
-0.00729626
-0.00582716
-0.000200444
0.000664932
-0.0020004
0.000819533
0.00223223
-0.000164791
-0.00188247
-0.000184973
-0.0151136
-0.0476997
0.0584239
0.00438942
0.0100672
-0.016792
0.00744306
-0.000718283
-0.0251679
0.00248669
0.0119892
0.00143099
-0.0019587
0.00264025
0.000798153
0.00277466
0.00975106
-0.00688984
0.05905
-0.0384309
-0.0137293
-0.0022833
0.00167146
-0.00206916
0.00242726
-0.00411304
-0.001765
0.00195891
-0.000546879
-0.00144152
0.00154033
0.000371179
-0.00427284
-0.00251715
-0.00169162
-0.00697949
-0.0035357
0.00986781
-0.00135362
-0.00117725
0.00224571
0.000665094
-0.000338587
-0.0102372
2.38232e-05
0.00162946
0.00858394
-0.00776006
-0.00139201
-0.00183045
0.0127252
-0.00369032
0.00509094
-0.0141259
-0.00898754
-0.0100524
0.00149435
-0.00199966
0.00155994
0.00250383
-0.00206412
-0.00827046
0.00494181
-0.00547188
0.00880053
-0.00423657
0.000958774
0.00404128
0.00295752
0.00835286
-0.0108884
-0.000421981
-0.00154866
0.00507686
-0.00506205
0.00153386
0.00653424
-0.00673788
0.00316116
0.0164774
0.0346188
0.00693856
-0.0580348
-0.000674081
-0.00181267
-0.00452209
0.0130165
-0.00196021
-0.00617198
0.0100028
-0.004677
-0.00174156
-0.00036707
-0.00337107
-0.00801333
0.0012597
0.0101247
0.00910901
-0.00177279
-0.000392529
-0.00421895
-0.00381329
0.0215925
-0.0135603
-0.0178863
0.0201489
0.0141682
0.00924967
0.00646375
0.00200272
-0.0177161
-0.00158292
0.00122788
-0.000664261
-0.0124771
0.0114523
0.0102745
-0.00918808
-0.00144147
0.0106328
-3.21866e-06
-0.00298792
0.00340587
0.00682777
-0.00186467
-0.00644966
0.00148656
-0.00241401
-0.00121562
0.00178086
0.00184877
0.00540834
-0.0019231
-0.00593871
0.00245347
-0.0117302
-0.00184279
0.00600328
-0.00084242
-0.0108564
0.00496091
-0.00643739
0.0130437
-0.0110446
0.0331215
0.0252988
-0.0162707
-0.0421496
-0.0108451
0.00255247
0.00500884
0.0306638
-0.0514822
0.0158096
0.0175383
-0.00837872
-0.000972093
-0.00818745
0.0395709
-0.0288249
-0.0389617
0.00144571
-0.000225171
-0.0017388
0.00162065
-0.000470763
0.000350776
0.00154782
-0.000481659
-0.00141693
-0.000553906
-0.000317342
0.00032743
-0.00103921
0.00296292
-0.00358067
0.00862995
-0.00262298
-0.00225054
-0.00642403
-0.000156006
0.00883058
0.00563991
-0.00569439
0.00583926
-0.00578477
-0.000259095
0.00282677
0.0206416
0.0292999
-0.0449327
-0.0143672
0.0187052
0.000453753
-0.00479172
0.00236677
-0.0111896
0.00545174
0.0112075
-0.00398605
-0.0126095
0.00538804
0.00522092
-0.000827717
-0.00481721
0.00042401
0.00118593
-0.0010198
-8.51259e-05
0.000519261
-0.000478215
-0.00775755
-0.0123159
0.0133231
0.0067503
-0.00421316
0.00351134
0.00577372
-0.00507191
0.0157388
0.00663671
-0.0136289
-0.0086641
0.0257932
-0.0173856
0.00025651
-0.00172197
-0.00459992
-0.00409158
0.00128034
0.00052794
0.00103932
-0.00121388
0.000394887
0.00782661
0.00183294
-0.00351648
0.00776151
0.000787322
-0.000126289
-0.000507532
0.00327156
-0.00153875
-0.00514639
0.00865154
0.00337403
-0.00687918
0.000758133
-0.00333328
0.00109692
0.00147823
-0.000407656
0.00057002
-0.000141178
-2.11864e-05
0.0768216
-0.0793879
0.00256626
0.086852
-0.118333
-0.0533256
0.0848063
0.00865322
-0.0169345
-0.0035713
0.0118526
0.00452777
-0.00508139
-0.00117067
0.00316582
-0.0289846
0.00537347
0.0204454
-0.0140136
0.000310033
-0.0115892
0.0252928
-0.00482746
0.000431756
-0.00107006
0.00546576
-0.00190831
0.0176488
-0.0126992
-0.00304131
0.00177711
0.00193943
-0.00414287
0.000426323
-0.00119908
-0.00191507
0.000422696
0.00269145
-0.00262744
-0.000124546
0.000337979
-0.00294813
0.00273618
0.00151947
-0.00130753
-0.000509096
-0.000322363
0.00308598
0.000267831
-0.000885893
-0.000220071
0.000838134
0.000370317
-0.000349673
-0.00598369
0.00596305
-0.000207356
0.00604529
-0.00755125
0.00171332
0.00215175
0.00515924
-0.00906609
0.0017551
0.0033702
-0.00338259
0.00288911
-0.00287672
0.0137876
-0.00423187
-0.0117856
0.0119915
0.000580981
0.00544031
-8.47333e-06
-0.00442048
0.00245228
-0.00221349
-0.00450509
0.00742385
-0.000705276
0.00327563
0.00134853
-0.001907
-0.00271716
0.0216712
-0.023324
0.00165283
0.000986031
-0.00106907
8.304e-05
-0.000165247
0.00120281
-0.00315367
0.0021161
-0.00626835
0.0033811
0.0014145
-0.00920992
-0.00430041
0.00242774
0.0118412
0.00428325
-0.0200513
0.00392681
-0.000126078
0.00379162
-0.0020516
-0.00161394
-0.000294171
-0.00224447
2.48205e-05
-0.000942067
0.000832121
0.00248118
0.000654629
-0.00152542
-0.00161038
0.00113216
0.000122795
-0.00121954
-3.54174e-05
-0.00249809
0.00143129
0.00147405
-0.00040725
0.00162898
-0.00132669
0.0029469
-0.00324919
0.000935618
-0.00303237
0.000435093
0.00166166
0.00264733
-0.0152177
-0.00121973
0.0137901
0.000639348
0.00367001
-0.000827571
-0.00348179
0.00163329
0.00279205
0.00333617
-0.00293886
-7.75848e-05
0.00474555
0.00187365
-0.00227353
-0.00434568
-0.00204826
-0.00742426
0.000960789
0.00851172
0.0115761
-0.00628931
-0.0030737
-0.0130709
0.00954472
0.00520134
-0.00167519
-0.00545625
-0.00146778
0.0068958
2.82295e-05
0.00305312
-0.00110055
-0.0530248
0.0510722
0.00257592
-0.00374394
0.00213185
-0.000963823
0.00136596
-0.00213958
-0.00112597
0.0018996
-0.000867497
-0.00386676
0.00170497
-0.000399056
0.00254684
-0.0032035
0.00105572
0.000312525
0.00163974
0.00120831
0.000251355
-0.000327495
7.61397e-05
-0.00256217
0.000469872
0.000267611
-0.000649521
0.000741813
-0.000359904
-0.00126977
-0.000509408
0.000866035
0.000913139
0.00811245
-0.0432269
0.0132149
0.0218996
-0.00911052
0.00955284
-0.00431974
0.00387742
-0.00843792
0.0175632
-0.00915856
3.32589e-05
0.0140173
0.00697408
0.00703779
0.00367105
-0.000261903
-0.0038887
0.000479553
0.0109852
0.0334557
0.0158604
-0.00972608
-0.00253102
-0.00468128
-0.00792822
0.0122899
0.000319553
-0.0171328
0.0019085
0.00678633
0.00279507
-0.00717099
0.046837
-0.0424611
0.0122026
-0.0100742
0.00955614
0.0649834
-0.00644661
-0.0585368
0.00134043
0.0025554
-0.00263041
0.0239181
0.00452144
-0.0251494
0.0129389
0.0178464
-0.0136737
-0.0171116
0.0130643
-0.00576019
-0.0127467
0.0054426
0.00935432
0.00112873
-0.0118123
0.000955803
-0.0044388
0.0104689
-0.00698591
0.00408933
-0.00230909
0.0043936
0.000486027
-0.00257054
-0.000990718
-0.00490622
-0.00105044
0.00694738
0.0100128
-0.00660382
0.00151688
-0.00492581
0.00318107
0.00717283
-0.0021073
-0.0082466
-0.00504755
0.00234826
0.000506946
0.0142453
0.0061956
-0.0175049
0.0305223
-0.0157093
0.0185236
0.0161679
0.00435943
-0.0217515
0.00122417
-0.0440709
-0.0528499
0.0231213
0.0737995
-0.00934965
0.0119867
0.0006071
-0.0015251
0.00326873
0.0011472
-0.00548803
0.0125461
-0.00181371
0.00199282
-0.000256315
-0.000509066
0.00410268
-0.00150204
0.00134916
-0.0041444
0.000580653
0.00284463
0.00448558
-0.00500844
-0.00083372
0.00135657
0.00385569
-0.0130133
0.0103806
-0.00122298
-0.00239274
-0.00172742
0.000957679
0.00316248
0.000199335
0.00466107
-0.00387292
0.000515802
0.00273388
0.000500226
-0.0037499
0.00223814
-0.00523672
-0.00202519
0.00562583
0.000476772
-0.0015158
0.00987745
-0.00883842
0.00268089
0.0253759
0.00113224
-0.0509775
-0.000442385
0.000418346
-0.0313652
0.032299
0.0373103
-0.00164818
-0.00760737
0.00410916
0.0268669
-0.00639945
-0.0503136
0.0298461
-0.0648379
0.0499501
-0.0146261
0.0029199
-0.00897551
-0.004056
-0.00197673
0.0109463
-0.00491361
-0.00879004
0.0111648
-0.00643075
0.008566
-0.000995025
0.00327754
0.00284
0.0108926
-0.0170102
-0.00706167
0.0195328
-0.0415073
-0.0505278
0.00292312
-0.00241326
0.00112839
-0.00163825
-0.00280884
0.00518091
-0.00694568
0.00457361
0.0040147
0.00741601
0.0395887
-0.00940933
0.0389243
-0.00134395
-0.028171
0.00109567
0.00603071
-0.00282069
-0.0043057
-0.0336935
-0.0140057
0.0163026
0.0313966
-0.0715093
0.0722678
-0.00688663
-0.00128439
0.00624793
0.00443456
-0.015413
0.00162874
0.00294344
0.0120628
-0.0105717
0.00202903
-0.011639
0.00172494
-0.067175
0.0652003
-0.00154005
-0.00548003
-0.00846609
0.0534862
-0.0564757
-0.0118815
0.014871
-0.0118763
0.005296
-0.00636164
0.0238946
-0.0127866
-0.00474634
-0.00305352
0.042395
-0.0396364
0.00287936
-0.00433868
0.00131822
-0.00455587
-0.000633506
-0.00107897
0.00661093
0.00623284
-0.000300463
0.0134432
-0.0117885
0.0123537
0.0269775
0.00334944
-0.0426806
-0.00484011
0.000102888
0.00225905
0.00255394
-0.00251562
0.00177603
0.0061722
-0.00840139
0.000453158
3.15021e-05
-0.007358
0.00187806
-0.00332049
-0.00105566
-0.000973698
-0.000879393
0.00143715
0.00511262
-0.00109564
-0.00423903
0.000222048
-0.00203276
0.000312335
0.000234199
0.000750408
0.0021961
0.000794735
-0.00374124
4.66695e-05
-0.000605538
0.00130231
-0.00334211
-0.000748936
-0.00153675
-0.000182239
0.00171899
-0.00195604
-0.000226054
0.00188439
0.000297707
-0.000498607
-0.000544377
0.00216346
-0.00483799
0.000828252
0.00184628
-0.00019597
-0.00141473
0.000798476
0.00081222
-0.00018985
0.000166609
0.00106118
-0.00037011
-0.000917125
0.0016846
-0.000397363
0.000364144
-0.000542618
0.000760885
0.000289064
-0.00104995
-0.0071385
0.00561093
0.00367762
0.00418113
-0.00660837
0.00324135
0.00301913
0.0051549
-0.00399289
-0.00250252
-0.00104453
0.0036863
0.0060542
-0.00378987
-0.00476686
-0.00514741
0.00354442
-0.0488405
-0.000750607
0.0526442
-0.00238321
0.00675679
-0.00804607
-0.00782125
-0.00961537
0.0056944
-0.00639578
0.0103168
-0.00011125
-0.00892614
0.00720701
0.00183038
-0.00316903
-0.000948797
0.00778888
0.0179128
0.0339882
-0.0451552
0.0220665
-0.0217938
0.0216385
-0.00375775
0.0133047
-0.0142949
0.00474796
0.0524711
0.000504392
0.00431057
-0.0407835
0.00186621
0.0167407
-0.0139094
-0.00540678
0.0307826
-0.0235096
-0.00549094
0.0190941
0.0298971
-0.00730471
0.0043165
0.00880036
-0.00111593
-0.0478106
0.0489266
-0.0227727
-0.00325199
0.0244998
0.00152494
0.00175115
0.000724334
-0.00277429
0.000298811
-0.000691567
-0.00235391
0.0038819
-0.00083642
-0.00658488
-0.0041308
0.011244
-0.000528286
-0.0276701
0.0234581
-0.00913462
-0.00412256
0.000177672
-0.00119607
-0.010706
0.00121851
0.0142065
-0.00574543
0.0123436
0.00422946
-0.0108277
0.0054168
0.0025121
-0.00837733
0.000448426
-0.00188387
-0.000286801
-0.000193375
0.00236404
-0.00143667
0.0151034
-0.0038848
-0.00472622
-0.00302033
0.00439633
0.00335021
-0.000609554
0.013072
0.00240241
0.00348876
-0.000320433
-0.00309354
-7.47824e-05
0.00299875
-0.00193482
0.00168627
-0.0357974
0.00215768
-0.0138666
0.0393949
0.00164819
-0.0253003
-0.0157428
-0.00154053
0.00113612
0.00152221
-0.00111781
0.000228503
-0.00463151
-0.00105324
-0.00150481
0.00105027
0.0103841
-0.00992955
0.0114813
-0.00381419
-0.00726918
0.00515093
0.0139176
-0.00597149
0.00165841
0.0106885
-0.0161704
0.00949077
0.00108112
-0.00987209
-0.000699809
-0.00191186
0.0174285
-0.00185575
-0.0136609
0.00415118
0.000685128
-0.00245234
-0.00586061
0.00141423
0.0055093
-0.00324289
0.0108669
-0.0149287
0.000542426
-0.00110561
-0.0439277
-0.000312089
0.0434136
-0.0154477
-0.0108443
0.0417808
-0.0154887
-0.0781632
0.0772824
0.000880818
0.00938859
-0.00376525
0.0196708
-0.0252941
0.000512193
0.0108319
-0.0021079
-0.00578054
-0.00013035
0.050862
-0.0380151
-0.0127165
-0.0340408
0.0390919
0.00264025
-0.0076913
-0.003748
0.000729189
0.00319959
-0.000180783
0.000267895
-0.000850668
0.00315869
-0.00815768
0.000962827
-0.00379315
0.00626548
-0.000155959
-0.00233107
-0.00377845
0.00266144
-0.000830958
-0.00237279
0.000542312
5.83953e-05
-0.00248326
-0.00116375
-0.000581519
0.00258237
0.00252692
-0.00895807
0.00670871
0.002042
-0.000580025
-0.00172661
0.00155111
0.000755526
0.00552749
0.00155042
-0.00263531
-0.0044426
0.000642575
0.00157772
-0.00188486
-0.000335436
-0.00584747
0.00121401
0.00302972
-0.00136754
-0.00027541
-0.000906198
0.00105254
-0.00354674
-0.000868819
0.000458913
0.000876764
-0.00327057
0.00121927
0.00382733
0.00198262
0.00253577
0.00230938
0.00426274
-0.0246747
0.0273607
-0.00694873
0.00243521
-0.00342102
-0.00106375
0.00204955
0.0206967
-0.00747904
-0.00681467
-0.00640299
-0.00213988
0.000838429
-0.00094538
-0.00308189
-0.000936533
0.0100973
-0.0060789
0.0629389
-0.0633363
0.00926309
-0.00886565
-0.00200301
0.00557581
-0.0121378
0.00856501
-0.00222409
0.00174443
0.00113338
0.000127159
-0.0344945
-0.000179884
0.0131669
-0.0144756
0.00935247
-0.00804375
-0.00506318
0.00092061
0.0106864
-0.00895971
-0.0340847
0.0309452
0.0139463
-0.0108068
3.62695e-05
0.0149753
0.00198902
-0.0170006
-0.00475446
0.00132393
0.00086207
0.0412258
-0.0420879
0.00607742
-0.0028869
0.000190577
0.00796989
0.00390408
0.0089105
-0.0115304
-0.0413077
-0.00522183
0.0106282
0.00315967
-0.00589037
0.0188336
-0.0136627
0.000719566
0.0372401
-0.0221172
-0.00384414
-0.0112788
0.00238225
0.0018567
-0.00328368
-0.000956232
-0.0176667
0.0199696
-0.0211075
0.0188046
0.0189903
0.00752003
0.00612006
-0.0326304
-0.011835