/*--------------------------------*- C++ -*----------------------------------*\
| =========                 |                                                 |
| \\      /  F ield         | OpenFOAM: The Open Source CFD Toolbox           |
|  \\    /   O peration     | Version:  2506                                  |
|   \\  /    A nd           | Website:  www.openfoam.com                      |
|    \\/     M anipulation  |                                                 |
\*---------------------------------------------------------------------------*/
FoamFile
{
    version     2.0;
    format      ascii;
    arch        "LSB;label=32;scalar=64";
    class       volScalarField;
    location    "0.0381003";
    object      k;
}
// * * * * * * * * * * * * * * * * * * * * * * * * * * * * * * * * * * * * * //

dimensions      [0 2 -2 0 0 0 0];

internalField   nonuniform List<scalar> 
47425
(
0.336364
0.363622
0.336986
0.33536
0.496204
0.345058
0.45611
0.348407
0.366915
1.12402
0.354287
0.354271
0.395763
0.336632
0.335725
0.352629
0.335958
0.37393
1.08339
0.552295
0.341155
0.340895
0.35104
0.339778
0.344652
0.333836
0.330219
0.864699
0.328809
0.337838
0.349316
0.345602
0.356609
0.337663
0.336984
0.348576
0.33869
0.363593
0.337446
0.339875
0.378412
0.417887
0.624902
0.378464
0.963733
0.375439
0.350411
0.352684
0.336308
0.335542
0.822467
0.581893
0.332322
0.923771
0.385101
0.370975
0.335016
0.335823
0.46769
0.341944
1.04252
0.802881
0.855843
0.361388
0.364493
0.341671
0.348178
0.370549
0.863656
0.354311
0.333982
0.336291
0.336529
0.343002
0.874634
0.368735
0.858319
0.339027
0.904386
0.555935
0.902401
0.342619
0.344178
0.351098
0.335355
0.34419
0.333983
0.333402
0.552236
0.65825
0.346783
0.359539
0.340427
0.379761
0.391314
0.375691
0.335151
0.333504
0.33094
0.377766
0.345344
0.469167
0.342009
0.492975
0.338629
0.367046
0.334883
0.337045
0.341371
0.349602
0.911037
0.343619
0.409803
0.361921
0.353071
0.855316
0.350709
0.679
0.363229
0.361446
0.33685
0.362785
0.352632
0.37757
0.365932
0.402662
0.345842
0.364924
0.366278
0.339356
0.344932
0.35494
0.547874
0.371457
0.410015
0.374924
0.346487
0.408262
0.337908
0.335305
0.356832
0.388782
0.350771
0.456553
0.356354
0.366243
0.452374
0.346818
0.375539
0.363149
0.454002
0.820484
0.36053
0.835262
0.367169
0.348391
0.372125
0.949055
0.376269
0.357181
0.364442
0.337603
0.335691
0.341939
0.755901
0.878007
0.348031
0.881771
0.354578
0.893398
0.882159
0.370544
0.354602
0.354363
0.373939
0.417239
0.871941
0.329193
0.335264
0.337672
0.862852
0.332246
0.330898
0.340024
0.335549
0.345616
0.339577
0.464663
0.364608
0.332351
0.358236
0.332236
0.4534
0.365349
0.341683
0.349422
0.360637
0.350671
0.360702
0.322638
0.355946
0.368737
0.340404
0.350698
0.371347
0.378292
0.32945
0.347604
0.364309
0.362172
0.33051
0.335241
0.354292
0.327711
0.338251
0.3436
0.332609
0.605151
0.374379
0.368957
0.586374
0.313992
0.515299
0.328592
0.400887
0.564675
0.33887
0.351511
0.377357
0.412815
0.331082
0.347464
0.372626
0.369398
0.37729
0.34478
0.594734
0.361367
0.560462
0.372686
0.347122
0.33364
0.338263
0.344092
0.337792
0.362895
0.334028
0.358888
0.334074
0.336813
0.336545
0.542745
0.341801
0.365718
0.344812
0.334935
0.339371
0.381468
0.332971
0.357863
0.397757
0.355118
0.3368
0.372904
0.40462
0.371399
0.338876
0.402559
0.333273
0.347986
0.339969
0.543874
0.588054
0.335339
0.53464
0.383353
0.53565
0.496662
0.572968
0.582901
1.10982
0.334542
1.04589
0.383926
0.343221
0.325418
0.372472
0.341111
0.378123
0.362805
0.793597
0.354183
0.371309
0.332669
0.335073
0.356014
0.360023
0.335399
0.341417
0.389475
0.365196
0.337624
0.355625
0.334385
0.873301
0.878918
0.848991
0.337073
0.33455
0.338954
0.348404
0.820357
0.345773
0.35205
0.605357
0.369609
0.362281
0.38544
0.342971
0.654566
0.582029
0.344654
0.336681
0.331251
0.361479
0.33399
0.334772
0.333632
0.333308
0.334726
0.335089
0.822819
0.357534
0.337133
0.384415
0.338845
0.823103
0.347803
0.334918
0.336717
0.342681
0.342301
0.332504
0.343413
0.336021
0.336745
0.335549
0.344851
0.338099
0.367093
0.343907
0.34395
0.345691
0.346225
0.344161
0.375194
0.349424
0.342731
0.345072
0.361071
0.39507
0.371795
0.356629
0.347665
0.334607
0.343037
0.382791
0.358883
0.348058
0.344271
0.379917
1.31334
0.331935
0.35111
0.385687
0.349715
0.404616
0.376994
0.364551
0.339232
0.358053
0.347914
0.331688
0.355719
0.368318
0.364593
0.350897
0.343126
0.351281
0.348663
0.346176
0.349772
0.353905
0.334133
0.343729
0.344303
0.341178
0.346396
0.423547
0.333848
0.688829
0.337081
0.812112
0.360088
0.382199
0.373848
0.335179
0.366629
0.331566
0.357157
0.346675
0.649509
0.860608
0.335122
0.365109
0.334664
0.333303
0.343676
0.345088
0.331003
0.370067
0.348554
0.335146
0.333706
0.336591
0.33142
0.461609
0.333733
0.345578
0.531519
0.557719
0.337806
0.668065
0.563571
0.370463
0.567406
0.796369
0.336266
0.332877
0.334619
0.332882
0.785294
0.363392
0.337099
0.337827
0.339343
0.339521
0.341836
0.338516
0.747845
0.763184
0.548597
0.356675
0.43726
0.462208
0.338186
0.345759
0.385336
0.344256
0.35604
0.363158
0.377817
0.339975
0.369618
0.338
0.338281
0.361838
0.350723
0.339864
0.338339
0.349954
0.357807
0.381489
0.364692
0.334445
0.367903
0.346817
0.779157
0.372184
0.42965
0.348383
0.378145
0.730036
0.361277
0.336879
0.363746
0.353122
0.34031
0.361403
0.375907
0.32643
0.355661
0.333271
0.357056
0.477282
0.332302
0.377315
0.339877
0.390164
0.335545
0.335908
0.335336
0.336555
0.354798
0.353724
0.33712
0.332868
0.339398
0.350152
0.350334
0.359784
0.360489
0.335891
0.34063
0.330157
0.329424
0.34101
0.361386
0.337298
0.364919
0.363374
0.375469
0.803214
0.345584
0.340211
0.35664
0.365759
0.480027
0.484582
0.363738
0.338122
0.366748
0.452289
0.343099
0.495975
0.362572
0.560075
0.381035
0.380084
0.337935
0.486472
0.339575
0.341425
0.347938
0.339104
0.332209
0.331975
1.01641
0.337939
0.386421
0.33749
0.46306
0.337828
0.336895
0.443181
0.431724
0.346384
0.335128
0.312742
0.334183
0.339047
0.334816
0.335166
0.337223
0.403427
0.4707
0.35762
0.336046
0.346458
0.338288
0.553959
0.344878
0.340419
0.287651
0.345336
0.334685
0.390103
0.780479
0.345676
0.228135
0.252783
0.330631
0.350084
0.333952
0.339385
0.375303
0.367031
0.758429
0.341757
0.3712
0.334296
0.474421
0.398587
0.371801
0.341763
0.901704
1.42378
0.341931
0.347614
0.336954
0.347764
0.380359
0.393984
0.343104
0.353392
0.379076
0.327647
0.36437
0.504739
0.37117
0.340922
0.511585
0.362987
0.338868
0.355515
0.3586
0.332864
0.362155
0.387661
0.395509
0.34944
0.340772
0.337588
1.0445
0.35068
0.414221
0.82278
0.80184
0.337045
0.376882
0.778634
0.369424
0.450879
0.73569
0.376863
0.847498
0.334425
0.339878
0.356144
0.526495
0.381827
0.375656
0.334574
0.383271
0.33783
0.339865
0.3396
0.361186
0.360946
0.735298
0.746025
0.363562
0.374465
0.363721
0.352322
0.38303
0.352888
0.353536
0.360844
0.34781
0.353619
0.375047
0.356943
0.333753
0.429195
0.382638
0.830497
0.579342
0.364738
0.345558
0.367104
0.337642
0.871754
0.339711
0.852191
0.370399
0.456777
0.373253
0.349157
0.351724
0.327739
0.392228
0.340792
0.329874
0.401748
0.404904
0.368576
0.420817
0.366772
1.3288
0.373836
0.384754
0.400858
0.363745
0.332823
0.381064
0.343157
0.419065
0.345845
0.345227
0.388117
0.347602
0.349675
0.340464
0.33753
0.509472
0.588858
0.336292
0.470854
0.336303
0.353103
0.330742
0.334721
0.411202
0.327813
0.334369
0.343679
0.336661
0.709398
1.06927
0.345731
0.343646
0.336114
0.358494
0.332004
0.353229
0.359662
0.588461
0.350818
0.335587
0.348646
0.336509
0.337021
0.341217
0.335481
0.338476
0.340296
0.334145
0.361363
0.580552
0.335534
0.27962
0.632681
0.583773
0.251615
0.358979
0.736632
0.392609
0.370271
0.548178
0.321052
0.8637
0.352347
0.331998
0.465452
0.363029
0.598468
0.35021
0.364348
0.334926
0.339872
0.44293
0.372534
0.354543
0.370886
0.486284
0.40507
0.350098
0.378451
0.530041
0.505607
0.539519
0.893299
0.96795
0.665037
0.697785
0.363198
0.370538
0.336988
0.335162
0.364081
0.281122
0.362878
0.357281
0.367515
0.338827
0.292366
0.266842
0.335291
0.397403
0.349696
0.336881
0.382971
0.335875
0.338803
0.3375
0.363949
0.471481
0.336078
0.338152
0.335096
0.375184
0.365797
0.574045
0.473977
0.33214
0.367284
0.333355
0.336797
0.336554
0.370501
0.373662
0.578928
0.338743
0.335168
0.339282
0.426783
0.898096
0.349075
0.348092
0.443204
0.363583
0.346288
0.373445
0.355364
0.376845
1.12617
0.460373
0.859835
0.366868
0.426834
0.337495
0.414638
0.339452
0.357816
0.36563
0.342275
1.02577
0.479293
0.392724
0.531341
0.392466
0.33496
0.355712
0.429958
0.341036
0.370827
0.266097
0.337383
0.423023
0.384517
0.407164
0.761069
0.388544
0.385479
0.546544
0.340476
0.340539
0.467827
0.556905
0.351704
0.450008
0.492071
0.344382
0.350275
0.333246
0.358093
0.368372
0.365739
1.32497
0.861487
0.393239
0.519512
0.52788
1.32398
1.55257
0.567239
0.375947
0.360957
0.373699
0.383104
0.890472
0.338329
0.364907
0.373357
0.382808
0.358774
0.349725
0.369778
0.334076
0.39374
0.514138
0.363573
0.953229
0.338279
0.418715
0.376601
0.365769
0.357766
0.351424
0.374904
0.483629
0.381704
0.409547
0.508257
0.359902
0.339205
0.363474
0.464492
0.334727
0.414063
0.363268
0.388788
0.684585
0.942901
0.332381
0.363578
0.350679
0.361981
0.370693
0.715766
0.558038
1.24252
0.341532
0.400309
0.35734
0.751756
0.335158
1.18886
0.410578
0.391225
0.476142
0.640676
0.341602
0.328292
0.339162
0.357735
0.448358
0.349951
0.435215
0.756661
0.434244
0.333084
0.335906
0.716656
0.893185
0.547211
0.566709
0.914967
0.406567
0.375735
0.434986
0.334217
0.518455
0.379522
0.393794
1.24988
0.362694
0.334808
0.3364
0.359079
0.417833
0.384935
0.349629
0.355565
0.487348
0.338955
0.351673
0.338631
0.35379
0.379206
0.40797
0.374924
0.363289
0.348363
0.389924
0.340509
0.329019
0.339301
0.350068
0.410415
0.516218
0.361712
0.39725
0.334867
1.29193
0.388331
0.373879
0.349387
1.00886
0.641121
1.07124
0.305707
0.361862
0.368733
0.720062
0.348434
0.370336
0.41687
0.368519
0.370696
0.824115
0.374159
0.346443
0.373855
0.385126
0.337011
0.632577
1.00768
0.335913
0.99166
0.355094
0.697901
0.68769
0.336752
0.370005
0.375797
0.657751
0.36228
0.363764
0.371761
0.775185
0.4345
0.624399
0.333071
0.348888
0.335575
0.340613
1.08676
1.11149
0.36991
0.395513
0.409722
0.709254
0.343531
0.333492
1.28128
1.04645
0.361119
0.348579
0.923709
1.26767
0.880897
0.380816
0.6967
1.00315
0.787935
0.343132
0.490947
0.474743
0.360299
0.359875
1.12396
1.39535
0.399775
0.403901
0.354491
0.349123
0.373108
0.348606
0.523611
0.346541
0.366944
0.336601
0.345441
0.960231
0.8734
0.348175
0.621346
0.457755
0.340388
0.554835
0.333055
0.354194
0.340281
0.371014
0.397158
0.333726
0.763486
0.341473
0.893815
0.712389
0.719379
0.412565
0.419228
0.359142
0.375235
0.33761
0.580411
1.05353
0.368158
0.856774
0.567095
0.847648
0.504899
0.946063
0.750957
0.351368
0.337539
0.868736
0.347299
0.349484
0.340272
0.731377
0.687653
0.34018
0.364309
0.66678
0.453807
0.955019
0.816067
0.363674
0.502991
1.04953
0.360665
0.361977
0.72597
0.343511
0.795468
0.871857
0.347229
0.339024
0.348086
0.338791
0.385909
0.331386
0.343899
0.375183
0.37752
0.517616
0.383542
0.350886
0.530374
0.766003
0.862921
0.37453
0.375418
0.560586
0.349614
0.990181
0.3485
0.367101
0.365873
1.26213
0.354452
1.66911
0.389895
0.53486
0.385179
0.944062
0.655396
0.546262
0.448094
0.577252
0.399456
0.363586
0.421037
0.618057
0.526638
0.492911
0.800482
0.38823
0.479443
0.755412
0.383017
0.334968
0.780062
1.33346
0.335869
0.356201
0.359934
0.379501
0.780974
0.923179
0.336474
0.355248
0.359348
0.876519
0.356522
0.650791
0.406753
0.349862
0.354209
0.504756
0.393632
0.661781
0.619783
0.374877
0.411774
0.473356
0.347559
0.942054
1.1426
0.357261
0.891768
0.803189
0.376798
0.586762
0.360845
0.396655
0.984681
0.39527
1.03793
0.844146
0.356182
0.402924
0.454332
0.365414
0.354461
0.425778
0.518429
0.4533
0.34483
0.425766
0.349606
0.731944
0.422301
0.379827
0.386666
0.545016
0.337185
0.867152
0.686698
0.400516
0.795913
0.804211
0.334781
0.51445
0.536276
0.377273
0.375313
0.520699
0.741842
0.534934
0.782475
0.339373
0.796207
0.474481
0.336152
0.420683
0.385586
0.527418
0.371731
0.420762
0.644982
0.335242
0.637384
0.375283
1.3224
0.395102
0.330584
0.387687
0.55779
0.395523
0.696982
0.458117
0.351818
0.976723
0.336641
0.364072
1.12097
0.333871
0.386197
0.742112
0.369685
0.804261
1.35093
0.383551
0.440699
0.338685
0.91937
0.615872
0.765411
0.664309
0.442172
0.372019
0.467862
0.851794
1.1358
0.8338
0.362787
0.35808
0.367938
0.347103
0.384081
0.739342
0.362403
0.346473
0.372039
0.33371
0.359334
0.369831
0.352212
0.353611
0.374274
0.477972
0.339892
0.377663
0.581233
0.350897
0.337935
0.389314
0.381981
0.360149
0.335376
0.361032
0.358248
0.348465
0.377724
0.659349
0.356233
0.359704
0.337207
0.33767
0.553228
0.340161
0.341287
0.627377
1.17375
0.742241
0.348494
0.631656
0.518409
0.339029
0.594294
0.470932
0.574795
0.368042
0.346548
0.364565
0.426985
0.342731
0.376072
0.394316
0.379984
0.336889
0.338476
0.374096
0.535043
0.365933
0.44002
0.877611
0.351936
0.67823
0.432825
0.872027
0.334852
0.375375
0.374335
0.337665
0.351114
0.371667
0.337057
1.03209
0.608096
0.889473
0.391405
1.05365
0.33488
0.355186
0.532794
0.338421
0.796562
0.414914
0.638519
0.329906
0.942928
0.93931
0.348582
0.333929
0.587146
0.352286
0.625296
0.336145
0.374038
0.338017
0.336467
0.339079
0.347779
0.358327
0.606553
0.42111
0.397294
0.36135
0.341305
0.343099
0.369317
1.30758
0.373782
1.32257
0.485984
0.337647
0.382159
0.35728
0.352085
0.353057
0.379744
0.354573
0.36298
0.343806
0.326685
0.370823
0.369248
1.81312
1.13336
0.377349
0.379628
0.794189
0.352823
0.335586
0.334552
0.334314
0.372317
0.382487
0.400193
0.383764
0.353791
0.335465
0.427801
0.33552
0.328168
0.348023
0.750626
0.394222
0.8601
0.779867
0.848806
0.349169
0.335905
0.33209
0.331543
0.338488
0.668542
0.351513
0.336998
0.353676
0.366569
0.337207
0.47597
0.335039
0.378957
0.47446
0.358815
0.332652
0.339395
0.353742
0.361879
0.337031
0.361818
0.3444
0.515038
0.336448
0.351597
0.385794
0.344107
0.347109
0.335499
0.360698
0.33137
0.379844
0.397097
0.337635
0.33196
0.334172
0.338235
0.337911
0.373345
0.336095
0.337738
0.338118
0.351523
0.901621
0.343806
0.457686
0.333279
0.337575
0.782633
0.351006
0.37339
0.333532
0.348179
0.366882
0.380411
0.763549
0.376558
1.94537
0.334564
0.342775
0.372875
0.338899
0.33804
0.385028
0.356142
0.33805
0.339331
0.911585
0.469072
0.692844
0.381748
0.59398
0.375731
0.328566
0.393621
0.916873
0.3717
0.340283
0.338549
0.810881
0.334467
0.347305
0.364004
0.353413
0.339398
0.819416
0.337017
0.355386
0.350397
0.353424
0.397044
0.956764
0.848188
0.339098
0.337123
0.338874
0.385451
0.367457
0.337664
0.825662
0.861179
0.333657
0.366355
0.775823
0.339565
0.586651
0.480952
0.33635
0.336279
0.341139
0.343328
0.618059
0.359934
0.351741
0.356985
0.398078
0.347123
0.361618
0.627908
0.362966
0.504993
0.531558
0.398253
0.623142
0.371419
0.387831
0.421005
0.379214
0.362041
0.356055
0.864409
0.631326
0.377929
0.380636
0.361085
0.373293
0.363603
0.43496
0.342012
0.333108
0.357812
0.352245
0.53236
0.461901
0.883856
0.745024
0.369022
0.378107
0.348948
0.352245
0.365195
0.340028
0.351053
0.335517
0.337528
0.404875
0.348948
0.340101
0.338949
0.644294
1.25139
0.380393
0.331143
0.458389
0.532652
0.857192
0.339946
0.762242
1.20647
0.672867
0.796446
0.432875
0.336575
0.335681
0.36085
0.888466
0.333652
0.372811
0.360325
0.335126
0.661787
0.619651
0.59496
0.350831
1.22542
0.334816
0.342012
0.371547
0.370476
0.757279
0.828097
0.256534
0.471594
0.295407
0.408772
0.34058
0.931949
0.354333
0.892741
0.372813
0.884053
0.362599
0.521375
0.384826
0.549263
0.380301
0.383321
0.429562
0.354287
0.357041
0.434103
0.411583
0.360946
0.349022
1.24596
0.632789
0.357761
0.648582
0.765239
0.634538
0.343783
0.342318
0.802352
0.732164
0.770232
0.344619
1.06331
0.341288
0.91413
0.813817
0.552672
0.655496
0.333114
0.391247
0.341474
0.346641
0.35265
0.544386
0.427752
0.335008
0.333569
0.371952
0.348082
0.336364
0.340018
0.492454
0.335377
0.330593
0.362562
0.339114
0.459588
0.356491
0.389152
0.379212
0.336303
0.456549
0.483108
0.328912
0.335816
0.515464
0.764892
0.358391
1.17782
0.380727
0.462772
0.752903
0.442458
0.368686
0.336329
0.516112
0.350059
0.33251
0.366304
0.346758
0.338946
0.354064
0.339538
0.334076
0.344312
0.363431
0.354565
0.381814
0.740784
0.343661
0.34874
0.34815
0.355627
0.459109
0.752582
0.358574
0.343461
0.361023
0.617148
0.459863
0.347943
0.359339
0.878189
0.375068
0.392795
0.378029
0.435042
0.36404
0.363707
0.357916
0.554726
0.383231
0.371616
0.958217
0.354453
0.399444
0.355715
0.375084
0.358684
0.395172
0.355657
0.342759
0.340937
0.386263
0.338836
0.363256
1.25415
0.340651
0.452983
0.378111
0.351043
0.692214
0.39681
0.371236
0.369499
0.623521
0.674476
0.36824
0.344927
0.396795
0.421918
0.370774
0.341258
0.828261
0.497494
0.406239
1.05088
0.387391
0.342851
0.551122
0.538799
1.15234
0.495165
0.416999
0.590273
0.349236
0.579366
0.498449
0.852168
0.401373
0.370445
0.345913
0.6507
0.381211
0.419882
0.343514
0.37305
0.376559
0.414957
0.6643
0.364104
0.374694
0.36232
0.539174
0.794754
0.444722
0.767606
0.388428
1.03071
0.374094
0.374821
0.829981
0.560139
0.725092
0.423274
0.698267
0.607583
0.339728
0.337045
0.310797
0.40057
0.373704
0.833035
0.381768
0.407836
0.338743
0.49076
0.367034
0.339421
0.900053
0.333894
0.540119
0.324834
0.408835
0.365275
0.36971
0.3811
0.39529
0.339741
0.333771
0.368034
0.415658
0.232131
0.237227
0.404227
0.389311
0.355676
0.44474
0.481482
0.387237
0.370515
0.38306
0.232297
0.402658
0.42129
0.289821
0.377046
0.801032
0.532979
0.354489
0.958934
0.395541
0.51442
1.06126
0.396354
0.378174
0.340948
0.887977
0.340015
0.334589
0.390738
0.380772
0.422385
0.35999
0.555876
0.368563
0.52734
0.338319
0.388097
0.376849
0.331591
1.07183
0.451419
1.0473
0.635639
0.334269
0.861165
0.508971
0.338774
1.63989
0.336728
0.334252
0.463387
0.490657
0.94868
0.719374
0.380853
0.726647
1.03085
0.343845
0.588206
0.946428
0.497957
1.2533
0.4148
0.345066
0.637482
0.715892
0.395068
0.958915
0.395761
0.366491
0.560051
0.397025
0.34523
0.373027
0.796323
0.74976
0.332018
0.558183
0.347117
0.385347
0.363606
0.384358
0.599758
0.461715
0.74932
0.352752
0.360852
0.734068
0.339424
0.357956
0.49825
0.344993
0.37051
0.852729
0.36945
0.923423
0.835615
0.830294
0.837363
0.376423
0.429371
0.336763
0.334831
0.453804
0.339706
0.338972
0.401884
0.344241
0.45027
0.891738
0.340525
0.543387
0.347002
0.499813
0.393495
0.887375
0.369966
0.481219
0.346165
0.350032
0.411592
0.341984
0.357614
0.346877
0.333873
0.574678
0.332541
0.381773
0.390056
0.354922
0.369943
0.376364
0.379962
0.702989
0.366285
0.34015
0.350912
0.42428
0.289713
0.684878
0.518874
0.685414
1.00064
0.434118
0.452406
0.148303
0.332881
0.917036
0.431651
0.552206
0.403028
0.764751
0.713785
1.26076
0.394259
0.362968
0.551538
0.960865
0.37756
0.295594
0.478225
0.320398
0.43999
0.437646
0.837968
1.11825
0.298246
0.40911
0.214828
0.35907
1.13358
0.355628
0.371359
0.343428
0.344253
0.481608
0.343521
0.632758
0.501649
0.339792
0.3886
0.342406
0.58102
0.666978
0.357608
0.439866
0.396273
0.95018
0.465515
0.362617
0.554139
0.558265
0.333661
0.344625
0.367236
0.334585
0.674311
0.341913
0.469647
0.645308
0.346553
0.375395
0.342781
0.343808
0.536969
0.392126
0.553206
0.328016
0.332154
0.596137
0.976749
0.342671
0.356584
0.342605
0.339715
0.651158
0.458723
0.816887
0.374139
0.338129
0.481379
0.40238
0.373429
0.343799
0.400525
0.384312
0.574708
0.47366
1.13714
0.429305
0.449728
0.344155
0.378388
0.826564
0.964018
0.429419
0.942801
0.373984
0.942048
0.458443
0.756042
0.501476
0.516307
0.395709
0.353303
0.385244
0.436762
0.588267
0.364616
0.397695
0.998194
0.374683
2.46013
0.37392
0.351653
0.378999
0.540249
0.409995
0.341285
0.816472
0.33644
0.340995
0.332382
0.374199
0.868731
0.515328
0.346422
0.548265
0.353207
0.371977
0.343865
0.35158
0.443771
0.413271
0.433771
0.371713
0.340629
0.425411
0.365863
0.330953
0.431704
0.395872
0.928065
0.388851
0.486669
0.376624
0.428234
0.377937
0.450991
0.332662
0.3782
0.352826
0.364689
0.389159
0.826609
0.333773
0.614877
0.341267
0.391858
0.379822
0.37817
0.382695
0.461602
0.640374
0.342042
0.367017
0.368968
0.527856
0.40595
0.332584
1.16496
0.857494
0.646163
0.340585
0.340305
0.528373
0.355681
0.355038
0.519594
0.364501
0.352251
0.393008
0.903487
0.339971
0.595529
0.339264
0.348191
0.447302
0.352178
0.386746
0.483371
0.341094
0.587444
0.427592
0.431717
0.468642
0.94227
0.34532
0.360232
0.382498
0.413604
0.379582
0.377041
0.336876
0.33674
0.374579
0.597228
0.381058
0.379157
0.956153
0.378347
0.663234
0.358827
0.383074
0.417712
0.35358
0.670811
0.372262
0.486053
0.392128
0.355724
0.363275
0.410673
0.569873
0.469253
0.340796
0.628963
0.377118
0.870017
0.776604
0.79352
0.351376
0.484236
0.377901
0.262634
0.417572
0.302441
0.46444
0.237562
0.426835
0.708038
0.428107
0.639826
0.698874
0.384255
0.279896
0.351417
1.01134
0.566665
0.717494
1.22785
1.16134
0.482231
0.84212
0.348461
0.366196
0.764319
0.411688
0.90095
0.395232
0.753846
0.7668
0.359835
0.380125
0.351849
0.331864
0.370362
0.334314
0.742116
0.401257
0.377462
0.570211
0.344867
0.366045
0.330607
0.365632
0.364368
0.375487
0.401748
0.336167
0.428199
0.908389
0.334155
0.344157
0.357451
0.338723
0.721783
0.735176
0.413932
0.40797
0.57355
0.335465
0.33142
0.364769
0.38636
0.347887
0.355398
0.343016
0.337147
0.44044
0.332769
0.398328
0.355355
0.335802
0.342435
0.588929
0.351417
0.363832
0.338061
0.443801
0.363624
0.372843
0.735407
0.436712
0.366258
0.406562
0.361186
0.391524
0.3965
0.374716
0.349134
0.383573
0.370528
0.351932
0.382919
0.369833
0.448416
0.473619
0.353709
0.360622
0.419833
0.456272
0.506459
0.569431
0.831302
0.952846
0.360659
0.343279
0.896702
0.561068
0.572907
0.348312
0.339116
0.354442
0.334726
0.35573
0.342715
0.347428
0.376093
0.33738
0.342728
0.340091
0.351613
0.341157
0.545083
0.400373
0.366096
0.341589
0.349266
0.666213
0.333782
0.34454
0.414075
1.02893
0.604802
0.374445
0.36265
0.359693
0.395444
0.478251
0.741493
0.425497
0.35104
0.374052
0.351211
0.346687
0.389779
0.445403
0.375128
0.340383
0.416685
0.410493
0.64453
0.415974
0.730309
0.588101
0.396395
0.412612
0.347271
0.361483
0.383539
0.335875
0.343566
0.637323
0.348778
0.363777
0.723871
0.364796
0.379887
0.464583
0.423577
0.338865
0.365255
0.344602
0.376646
0.733493
0.362323
0.452585
1.94048
0.586148
1.10176
0.853268
0.351956
0.361991
0.552408
0.336347
0.582006
0.519144
0.715133
0.369862
0.337714
0.739607
0.339222
0.575594
0.435713
0.345848
0.738163
0.852088
0.335822
0.346077
0.90511
0.336243
0.337183
0.336442
0.336878
0.364009
0.525216
0.592416
0.363611
0.817902
0.34951
0.360517
0.338677
0.893577
0.355546
0.93945
0.338725
0.376752
0.339068
0.458667
0.341278
0.520925
0.332969
0.642397
0.498181
0.50005
0.715901
0.35295
0.356183
0.841077
0.471463
0.364149
0.4427
0.626946
0.358638
0.447736
0.349243
0.624014
0.428727
0.342529
0.332814
0.481959
0.35277
0.405025
0.369129
0.33601
0.358895
0.338959
0.341538
0.355082
0.721872
0.34575
0.339921
0.338607
0.345925
0.340072
0.347582
0.344187
0.376162
0.426177
0.390748
0.38924
0.341352
0.286708
0.361234
0.397259
0.808322
0.314231
0.800252
0.344604
1.36224
0.391517
0.358266
0.382997
0.390456
0.38946
0.345195
0.33028
0.367128
0.36891
0.334532
0.353967
0.339091
0.709173
0.338708
0.353324
0.389781
0.921764
0.232045
0.359796
0.83286
0.738815
0.638808
0.570291
1.09576
0.186205
0.425501
0.378142
0.368069
0.376517
1.7957
0.550112
0.414883
0.340061
0.336522
0.775295
0.364494
0.551584
0.482819
0.386036
0.573156
0.382044
0.62942
0.34347
0.371778
0.353526
0.336556
0.397966
0.33378
0.365724
1.13382
1.14759
1.05227
0.469703
0.760831
0.35599
0.331426
0.333725
0.378527
0.338222
0.388348
0.345691
0.429228
0.383913
0.334498
0.334847
0.371236
0.337248
0.356096
0.373483
0.346961
0.374165
0.548232
0.354726
0.395062
0.824816
0.38245
0.717462
0.856313
0.371464
0.400557
0.334571
0.503106
0.383199
0.391926
0.660431
0.339341
0.405073
0.367575
0.389189
0.341703
0.345865
0.497998
0.547252
0.37556
0.373003
0.799127
0.409691
0.645657
0.600617
0.360682
1.11099
0.452551
0.402866
0.384307
0.352612
0.426689
0.376415
0.318117
0.342711
0.27991
0.603544
0.220755
0.355373
0.390131
0.445925
0.226816
0.794209
0.345848
0.373253
0.409188
0.340189
0.412763
0.649713
1.61778
0.382861
0.354778
0.370584
0.698198
0.340792
0.396923
0.383043
0.350048
0.3642
0.356234
0.509537
0.341426
1.58754
0.396231
0.956345
0.345443
1.16845
0.794728
0.977306
0.370438
0.354677
0.497377
0.379922
0.358366
0.366397
0.359567
0.812187
0.334222
0.488709
0.629702
0.334428
0.346937
0.342371
0.34754
0.366613
0.360863
0.410415
0.407151
0.374544
0.371083
0.414492
0.354711
0.460727
0.345503
0.379842
0.343482
1.07894
1.02241
0.39046
0.424498
0.336031
1.21505
0.330678
0.340528
0.367939
0.33686
0.385593
0.369449
0.335928
0.334929
0.356554
0.774699
0.614791
0.370893
0.802059
0.338328
0.362627
0.343441
0.359748
0.786934
0.394011
0.854413
0.33464
0.348828
0.813132
0.900606
0.357576
0.352869
0.665743
0.377221
0.38819
0.494592
0.403874
0.382728
0.440309
0.382211
0.333578
0.388187
0.365401
0.503651
0.337289
0.37294
0.335685
0.351906
0.765222
0.684512
0.345855
0.348195
0.360809
0.366951
0.352139
0.544857
0.355436
0.369371
0.401281
0.36575
0.466408
0.418651
0.513009
0.400475
0.331798
0.33976
0.337117
0.395728
0.328998
0.554068
0.453881
0.339622
0.781376
0.355472
0.333372
0.375744
0.339324
0.384778
0.657752
0.359095
0.452595
0.371832
1.06012
0.410587
0.396879
0.375642
0.718707
0.377801
0.55845
0.388146
0.425351
0.343446
0.432714
0.410296
0.713671
0.477419
0.363323
0.348298
0.345215
0.572889
0.364915
1.03014
1.20946
0.375991
0.445746
0.357737
0.496891
0.46821
0.403751
0.839957
0.504987
0.696117
0.340704
0.398101
0.932837
0.509598
0.371275
0.49563
0.350389
1.09864
0.40721
0.392239
0.345466
0.336247
0.34033
0.358706
0.337546
0.900431
0.34268
0.65217
0.338484
0.44952
0.416954
0.554719
0.358017
0.362666
0.350497
0.613915
0.484561
0.534528
0.337718
0.341817
0.474383
0.390309
0.378462
0.334466
0.333976
0.336376
0.353845
0.336446
0.393881
0.342753
0.578692
0.446665
0.941458
0.78855
0.641422
0.591095
0.409079
0.416281
0.334346
0.617918
0.3471
0.358923
0.348902
0.479877
0.506406
0.349262
0.440713
0.810422
0.499934
0.33819
0.336823
1.39818
0.848924
0.399076
0.883317
0.903103
0.664305
0.78658
0.607278
0.741413
0.422358
0.669451
0.810659
0.3351
0.340073
0.330466
0.482903
0.631518
0.350004
0.339374
0.420397
0.37824
0.394624
0.860919
0.506135
0.947249
0.361345
0.334776
0.350993
0.33284
0.376527
0.804402
0.510501
0.669607
0.743652
0.338813
1.04299
1.06267
0.336219
0.538638
0.489829
0.806826
0.382122
0.497036
0.797971
0.781723
0.483415
0.834631
0.529493
0.743416
0.375197
0.362489
0.387093
1.03956
0.784679
0.408354
0.356707
0.584686
0.463779
0.604782
0.366491
0.395738
1.08289
1.32183
0.270579
0.335957
0.291751
0.336567
0.244389
0.40746
0.48141
0.636274
0.232405
0.457143
0.502934
0.163373
0.477262
1.51755
0.439711
0.405479
0.714738
0.357352
0.52412
0.348909
0.335755
0.352093
0.369665
0.788896
0.730448
1.04006
0.40823
0.411955
0.611844
0.399029
0.349962
0.423211
0.378511
0.354109
0.586861
0.379952
0.371793
0.345402
0.439889
0.423227
0.787081
0.496608
0.830257
0.946625
0.808015
0.37407
0.420242
0.723717
0.350858
0.58651
0.37939
0.411276
0.344561
0.830086
0.616156
0.437834
1.27332
0.633693
0.335889
0.457668
0.848149
0.841464
0.41337
0.368244
0.488554
0.917783
0.372917
0.341947
0.370873
0.360417
0.697291
0.374937
0.646582
0.732274
0.739498
1.27867
0.565488
0.485158
0.793234
1.06318
0.874971
0.614747
0.75977
0.903638
0.557613
0.402776
0.470044
0.356938
0.330343
0.341743
0.43939
0.548315
1.32879
0.372106
0.392101
0.405931
0.378233
0.433838
0.584989
0.492117
0.362108
0.38479
0.986973
1.1094
0.234336
0.411215
0.348481
0.387353
1.05191
0.810962
0.375158
0.509762
0.350432
0.360537
0.333479
0.598019
0.358001
0.361822
0.345361
0.405667
0.877559
0.467094
0.376721
0.877817
0.334946
0.887289
0.70143
0.482568
0.704982
0.385622
0.335907
0.344671
0.344653
0.370602
0.427444
0.345479
0.360008
0.347017
0.346243
0.546587
0.632341
0.754815
0.347842
0.498232
0.382924
0.414376
0.366198
0.60063
0.374024
0.36152
0.358237
0.334929
0.351972
0.350839
0.475429
0.332484
0.379063
0.388969
0.63549
0.350427
0.414178
0.50559
0.823685
0.90805
0.406845
1.23749
0.526936
0.389505
0.376409
0.548432
0.351824
1.10149
0.456625
0.337565
0.446438
0.531809
0.431738
0.482931
0.713337
0.728987
0.487417
0.810264
0.366122
0.337489
0.416957
0.339496
0.33576
0.43171
0.343902
0.342656
0.586862
0.340055
0.323376
0.855242
0.697205
0.335952
0.338559
0.825949
0.350004
0.348028
0.606554
0.346949
0.745804
0.433655
0.798943
0.344525
0.570257
0.465778
0.709577
0.345596
0.460434
0.343603
1.06322
0.364402
0.339066
0.743444
0.443608
0.516502
0.373733
0.390582
0.373838
0.346265
0.514101
0.346298
0.342837
0.327004
0.46053
0.569273
0.336879
0.349643
0.339264
0.3412
0.354113
0.872885
0.338849
0.466194
0.338878
0.60782
0.367894
0.390075
0.37488
0.489685
0.355013
0.458213
0.333039
0.355911
0.361525
0.376331
0.343404
0.453921
0.435694
0.921923
0.892663
0.811837
0.413042
0.365466
0.365789
0.334374
0.336669
1.00109
0.662168
0.415824
0.385966
0.333203
0.357533
0.335239
0.340314
0.543266
0.531209
0.775439
0.620568
0.390932
0.356276
0.442322
0.338975
0.64123
0.360091
0.45003
0.369113
0.378639
1.04023
0.440437
0.332217
0.353534
0.421068
0.338253
0.299064
0.338609
0.564644
0.394267
0.911509
0.503017
0.786773
0.34242
0.36368
0.377696
0.374792
0.385308
0.358505
0.335511
0.336257
0.346242
0.351296
0.355436
0.597926
0.403834
0.876985
0.440245
0.343485
0.527129
0.381718
0.361643
0.34286
1.03704
0.914682
0.332007
0.339414
0.344507
0.848829
0.395012
0.456519
0.394441
0.382123
0.297583
0.371114
0.370875
0.334675
0.435464
0.539954
0.940378
0.549877
0.455139
0.331656
0.418992
0.65769
0.371656
0.341249
0.839321
0.870974
0.499569
0.693808
0.339808
0.33425
0.428399
0.341433
0.858889
0.342079
0.339686
0.343581
0.70131
0.33618
0.381824
0.480874
0.487593
0.339965
0.352239
0.359379
0.351653
0.329035
0.360663
0.39198
0.596138
0.461773
0.37803
0.622542
0.36968
0.616209
0.387229
0.91315
0.468275
0.403961
0.706991
0.318681
0.448879
0.544916
0.60235
0.430117
0.335653
0.342263
0.336654
0.372667
0.85886
0.384445
0.339348
0.365073
0.393357
0.33917
0.5056
0.366389
0.376378
0.483888
0.361541
0.341532
0.377939
0.371218
1.01667
0.869319
0.411847
0.364872
0.445116
0.362822
0.81655