/*--------------------------------*- C++ -*----------------------------------*\
| =========                 |                                                 |
| \\      /  F ield         | OpenFOAM: The Open Source CFD Toolbox           |
|  \\    /   O peration     | Version:  2506                                  |
|   \\  /    A nd           | Website:  www.openfoam.com                      |
|    \\/     M anipulation  |                                                 |
\*---------------------------------------------------------------------------*/
FoamFile
{
    version     2.0;
    format      ascii;
    arch        "LSB;label=32;scalar=64";
    class       volScalarField;
    location    "0.0381003";
    object      nut;
}
// * * * * * * * * * * * * * * * * * * * * * * * * * * * * * * * * * * * * * //

dimensions      [0 2 -1 0 0 0 0];

internalField   nonuniform List<scalar> 
47425
(
0.00597914
0.0053569
0.00469929
0.00203847
0.00352281
0.00476586
0.00492907
0.00336242
0.00742796
0.00191565
0.00251563
0.0073164
0.00573484
0.00424206
0.00355169
0.00386659
0.00490324
0.00278038
0.000287964
0.00312575
0.00392096
0.00730521
0.00325724
0.00527118
0.00714157
0.00729689
0.00421833
0.000519844
0.00464689
0.00599166
0.00750708
0.00710957
0.00745952
0.00514946
0.00627776
0.00511559
0.0073323
0.00537923
0.00518549
0.00450863
0.00514958
0.00574032
0.00516685
0.00260998
0.000741304
0.00346633
0.00358365
0.00453366
0.00426772
0.00685854
0.000679819
0.00267491
0.00661105
0.000995549
0.00333346
0.00299401
0.00735026
0.00589898
0.0022769
0.00547696
0.000853971
0.000728689
0.000990713
0.00356993
0.00738497
0.00724242
0.00556035
0.00482645
0.00110124
0.00545808
0.00426055
0.00657254
0.00695299
0.00378866
0.00127067
0.00746315
0.00101815
0.0041508
0.0002545
0.00221397
0.00125681
0.00531043
0.0075049
0.00741814
0.00716596
0.00411646
0.00621951
0.00668248
0.00517989
0.0014144
0.00738766
0.00457293
0.00736668
0.00327303
0.0026252
0.00190934
0.00670655
0.00648718
0.00377532
0.00467686
0.00559224
0.0010881
0.00652081
0.00105682
0.00675333
0.0067553
0.00704349
0.00360988
0.00731319
0.00713358
0.00271218
0.00539911
0.00614107
0.00231469
0.00716377
0.000362185
0.00717195
0.00079285
0.00447616
0.00605384
0.00424128
0.00747158
0.00595102
0.00317527
0.0036936
0.00681709
0.00403688
0.00741821
0.00341312
0.00742558
0.00739604
0.00356472
0.00108891
0.0030008
0.00626067
0.00570756
0.0070779
0.00666637
0.00490749
0.00337794
0.00500679
0.00286804
0.0048289
0.0055529
0.00663901
0.00742425
0.00418971
0.00546435
0.00244233
0.00500742
0.00561465
0.000565878
0.00739091
0.000439404
0.00346274
0.00407394
0.00335609
0.000309161
0.00395216
0.00476571
0.00738694
0.00734917
0.00665316
0.007141
0.00127308
0.00055314
0.00744619
0.00127267
0.0033035
0.000880778
0.00126712
0.00420893
0.00479599
0.00414029
0.00502115
0.00137198
0.000407036
0.00471183
0.00634424
0.0072964
0.000335674
0.00700357
0.00549625
0.00716946
0.00700286
0.00691735
0.00601076
0.00119251
0.00243252
0.00616158
0.00747031
0.00470489
0.00504886
0.00474218
0.00701492
0.00736185
0.00582709
0.00472549
0.00748736
0.00397287
0.00531483
0.00299138
0.00727046
0.00728138
0.00282076
0.00237592
0.00621626
0.00728655
0.00410506
0.00747165
0.00519567
0.0050983
0.00745911
0.00346424
0.00542245
0.00545002
0.00470012
0.00172513
0.00377112
0.00388455
0.00209746
0.00270576
0.00544098
0.00344295
0.00239249
0.00167811
0.00698249
0.0026771
0.00721959
0.00463723
0.00486955
0.00470138
0.00346468
0.00748907
0.00225924
0.00362618
0.00192169
0.00309721
0.00218445
0.00204778
0.00411452
0.00585875
0.00740736
0.00327447
0.00734101
0.00732869
0.00490249
0.00590142
0.00734108
0.00437337
0.00744965
0.00248012
0.00510898
0.00742034
0.00374594
0.00737918
0.00713303
0.00310374
0.0034623
0.0073957
0.00311777
0.00746559
0.00433028
0.00273407
0.00589214
0.00402214
0.00727298
0.00563508
0.00537191
0.00419599
0.00428014
0.00241891
0.00194309
0.00692187
0.00253625
0.00212005
0.00253323
0.000562667
0.00199209
0.000671916
0.000941386
0.00613427
0.000934503
0.00303626
0.00425246
0.00376697
0.00348207
0.00371823
0.00409935
0.00715922
0.000788904
0.00591934
0.00737544
0.00585574
0.00497385
0.00349697
0.00314436
0.00712082
0.00512558
0.0046623
0.00399078
0.00728225
0.00397965
0.00556989
0.00112948
0.000847677
0.00059778
0.00740349
0.00683624
0.00742574
0.00334728
0.000860552
0.00393259
0.00294655
0.00163288
0.00484014
0.00340826
0.00309662
0.00369976
0.00170953
0.00179931
0.00734095
0.00551151
0.00696399
0.00428754
0.00731869
0.00428444
0.00550132
0.00636817
0.00463679
0.00416558
0.00112903
0.00468209
0.00441486
0.00297466
0.00740669
0.000890757
0.00652859
0.00710134
0.00649241
0.00723362
0.00718936
0.00731116
0.00636365
0.00681664
0.00650405
0.00572683
0.00705903
0.00409802
0.00422308
0.00708081
0.00723818
0.00544619
0.00698949
0.00690306
0.00299463
0.00433803
0.00752765
0.00680677
0.00385834
0.00194865
0.00626544
0.00437158
0.00369328
0.00695686
0.00680404
0.00286365
0.00743403
0.00508664
0.00734812
0.00285284
0.00107597
0.00425575
0.00743819
0.00192614
0.00742187
0.00565461
0.00394021
0.00502415
0.00729879
0.00563191
0.00734404
0.00732343
0.00482063
0.00416218
0.00439971
0.00413495
0.00647694
0.00717824
0.00409985
0.00697263
0.00709524
0.00428176
0.0059262
0.00522158
0.00691844
0.0053879
0.00378767
0.00272076
0.00683632
0.000824049
0.0071305
0.00218135
0.00494048
0.00354696
0.00354148
0.00690968
0.00248318
0.00698056
0.00370778
0.00720732
0.00105596
0.00106482
0.00737388
0.00317281
0.00410767
0.00382432
0.00422867
0.00450628
0.00413403
0.00408174
0.0050704
0.00733261
0.00321202
0.00473476
0.00668206
0.00335591
0.00430873
0.00639377
0.00100011
0.0004126
0.00693643
0.000520785
0.000503727
0.00405762
0.000491877
0.000708341
0.00677613
0.00411037
0.00438319
0.00421685
0.000930164
0.00398335
0.00666777
0.00658963
0.00454124
0.00449806
0.00415129
0.00416288
0.000902857
0.000742733
0.00142448
0.00543729
0.00116361
0.00372871
0.0060405
0.00739375
0.00584508
0.00742981
0.00423449
0.00478958
0.00284699
0.00493916
0.00748962
0.00429237
0.00568349
0.00449236
0.00743441
0.00520614
0.00500337
0.00523275
0.00562911
0.00344952
0.0029122
0.00536004
0.00428326
0.00741287
0.00114754
0.00282808
0.00238876
0.00743867
0.00269334
0.00302299
0.00349471
0.00740788
0.00450097
0.00739739
0.00495933
0.00336189
0.00341986
0.003971
0.0037412
0.00623231
0.00239473
0.000933248
0.00706501
0.00182727
0.00574484
0.00181994
0.00692277
0.00647345
0.00728613
0.00490211
0.00586249
0.00311808
0.00553959
0.0068812
0.00739284
0.00754116
0.0046288
0.00276386
0.00430276
0.00739254
0.00600225
0.00600121
0.00594711
0.00571783
0.00500652
0.00461714
0.00289422
0.00472395
0.00372075
0.000725599
0.00558123
0.0049165
0.00649773
0.00741195
0.00185267
0.00190966
0.00459687
0.0067704
0.00442308
0.00444382
0.00688947
0.00189337
0.00747934
0.00233851
0.00259316
0.00290073
0.00580764
0.00305218
0.00748351
0.00468555
0.00475661
0.00712128
0.00731427
0.00652443
0.000891295
0.0053842
0.00254003
0.00716095
0.00179937
0.00710206
0.00575621
0.00237446
0.00255706
0.00488586
0.00714433
0.000752678
0.00619783
0.00579665
0.00619491
0.00666756
0.00729924
0.00244987
0.00290384
0.00664937
0.00630953
0.00506549
0.00730607
0.0020153
0.00736258
0.00551716
0.000545424
0.00472618
0.00733964
0.000883507
0.00141742
0.00728322
0.000334772
0.000352888
0.00460006
0.00744031
0.00634619
0.00740154
0.00433763
0.00399896
0.00139083
0.00740716
0.0028211
0.0065704
0.00213416
0.00235186
0.00434461
0.00500809
0.00169022
0.00474971
0.00645767
0.00367268
0.00370063
0.00298304
0.00305877
0.00307583
0.00672178
0.00357148
0.00285172
0.00363549
0.00536365
0.00334378
0.00389735
0.00693504
0.00281767
0.0038092
0.00431026
0.00283873
0.00346024
0.00496529
0.00493141
0.00656482
0.00193702
0.00508494
0.00687595
0.00704249
0.000316568
0.00411663
0.00563943
0.000594224
0.00078693
0.00739438
0.00478982
0.000241593
0.00212602
0.000886947
0.00253321
0.00315438
0.000633625
0.00571258
0.00684135
0.00591495
0.00332446
0.00335591
0.00332868
0.00712474
0.00318763
0.00513255
0.00407301
0.0067636
0.00438868
0.00425621
0.00185297
0.00093862
0.0029213
0.00321777
0.0041578
0.00661194
0.00345931
0.00740794
0.00604944
0.00567722
0.00527616
0.00661233
0.00202514
0.00469805
0.00696665
0.00182699
0.00199566
0.000980932
0.001356
0.0040683
0.00756398
0.00487485
0.00733189
0.00103489
0.00477666
0.00111847
0.00430741
0.0042699
0.0057665
0.00492041
0.00576327
0.00379621
0.00220807
0.00384095
0.00597199
0.00191693
0.00465685
0.00748595
0.00453596
0.00404502
0.00086048
0.00578845
0.0018759
0.00395367
0.00747351
0.0072365
0.00259281
0.00429025
0.00429211
0.00741805
0.00529414
0.00458307
0.00464015
0.00430219
0.00424549
0.00522616
0.00101691
0.000675855
0.00469881
0.000888268
0.00500488
0.00304673
0.00352678
0.00688744
0.00413909
0.00544689
0.00437599
0.0042705
0.00726028
0.000615259
0.00248496
0.00352843
0.00512336
0.00701725
0.00385774
0.00621753
0.00251702
0.0074337
0.00125964
0.00418253
0.00719564
0.00441111
0.00687844
0.0056543
0.00481102
0.0067111
0.00372626
0.00740307
0.00710279
0.00465484
0.00105296
0.00746999
0.000632825
0.00224398
0.00238888
0.000666028
0.00436728
0.00360922
0.00241885
0.00396724
0.000833642
0.000415137
0.00095084
0.00349726
0.00553177
0.00383595
0.00303207
0.000969918
0.0026294
0.00381176
0.00633509
0.00481627
0.00445534
0.00319713
0.00612488
0.00437125
0.00130742
0.00223855
0.00556609
0.00246474
0.00118431
0.000764442
0.0038039
0.00044993
0.00193153
0.000704416
0.0008999
0.00450316
0.00306347
0.00735457
0.00695313
0.00494299
0.000513937
0.00144581
0.00487302
0.00493226
0.00734431
0.000807746
0.000484018
0.00738349
0.00230289
0.00379362
0.00738214
0.00226064
0.00737655
0.00743889
0.0046264
0.00494063
0.0016905
0.00674138
0.00738035
0.00548223
0.00532406
0.00530007
0.00117144
0.00184225
0.00729066
0.00145225
0.00687456
0.0072209
0.00714039
0.00183695
0.00462373
0.00206292
0.00280629
0.00614503
0.00740977
0.00141932
0.000729418
0.00471082
0.00406907
0.00189364
0.0055124
0.0056243
0.0031236
0.0028682
0.00294524
0.00382953
0.00237103
0.001143
0.00742373
0.00121967
0.00616265
0.00396122
0.00735829
0.00209636
0.00281772
0.0074632
0.00240256
0.00137869
0.00396074
0.00188122
0.00525904
0.00620552
0.00486253
0.00350792
0.00482726
0.00330997
0.000704795
0.00500404
0.00303571
0.00182087
0.00180764
0.000835779
0.00176575
0.00422256
0.000586797
0.0073182
0.00696938
0.0044598
0.00262547
0.00399358
0.00155191
0.00144944
0.00329123
0.00592042
0.00488321
0.00330619
0.00363521
0.00399045
0.00485532
0.00145147
0.00411295
0.00494758
0.00219997
0.00190128
0.00464762
0.000578921
0.00398509
0.0053752
0.00386812
0.00403721
0.00568734
0.00724844
0.00338441
0.00386632
0.000859527
0.00294023
0.00497509
0.00375348
0.00610558
0.0035565
0.000850879
0.00462575
0.00210567
0.00632676
0.00217502
0.00286749
0.00376006
0.00546634
0.00530637
0.00357913
0.00167874
0.00405032
0.00173959
0.000763575
0.00547887
0.00725107
0.00571942
0.00117789
0.00578232
0.00182986
0.00671795
0.0017368
0.00183055
0.0036746
0.00343983
0.00434423
0.00737066
0.00514906
0.00320041
0.00103971
0.00239496
0.000806046
0.00733181
0.00257395
0.00291378
0.00244981
0.00378159
0.00342744
0.00170724
0.00166646
0.00359725
0.000931656
0.00375683
0.00380462
0.00463299
0.00520589
0.00389583
0.00507988
0.00142909
0.00361137
0.00391659
0.00518545
0.00651677
0.000851473
0.00207461
0.000764175
0.00176965
0.00129733
0.00210147
0.00399141
0.00137132
0.00377765
0.00142074
0.00203208
0.00206816
0.0013632
0.00338625
0.00579819
0.00463195
0.0074815
0.00162124
0.0037507
0.00356117
0.00459133
0.00158427
0.006381
0.00446269
0.00649027
0.00746294
0.00298879
0.00214004
0.00304737
0.00361472
0.00624643
0.00236498
0.00707441
0.00332499
0.00319146
0.00740311
0.00266887
0.00201902
0.00473766
0.00244365
0.00416477
0.00270948
0.0020809
0.00296627
0.00319098
0.000230277
0.000621991
0.00166791
0.000444949
0.00342306
0.0035297
0.000621687
0.000598058
0.00590205
0.00115404
0.00339039
0.00423546
0.000546394
0.00266065
0.00711804
0.00323908
0.00172563
0.0068145
0.000756748
0.000352974
0.00237605
0.000816758
0.0022942
0.00101723
0.000898371
0.00587096
0.00464877
0.00278743
0.0023023
0.00379755
0.00729149
0.00233992
0.000708032
0.00571741
0.00177021
0.00462345
0.00210259
0.00677676
0.00625219
0.00202449
0.00204067
0.00433322
0.0018743
0.00562433
0.00138736
0.00734973
0.00669961
0.00301402
0.00186847
0.00493664
0.00740729
0.000811679
0.00148927
0.00167534
0.00376538
0.00325952
0.00211833
0.00115034
0.00429945
0.00114291
0.00203677
0.00571175
0.00331962
0.00213844
0.000756078
0.00249046
0.00204578
0.00594021
0.0058444
0.00217835
0.0042572
0.00292477
0.00513475
0.0074045
0.00697007
0.00449392
0.002543
0.000758969
0.00466106
0.000509085
0.00469874
0.00459142
0.0030434
0.00591136
0.00392152
0.00460167
0.00482927
0.00196876
0.006283
0.00157388
0.00739974
0.000390516
0.00129814
0.00154447
0.00200662
0.00453663
0.00553364
0.00355003
0.00640069
0.000715652
0.000736754
0.00346309
0.00221149
0.000945356
0.000970604
0.00239164
0.00118712
0.000513811
0.00373167
0.00667926
0.000522675
0.00409734
0.00502963
0.00458036
0.000798898
0.000664348
0.00419408
0.00447681
0.00143188
0.00242397
0.000880201
0.000799532
0.00331663
0.00108365
0.00117916
0.00342764
0.00492003
0.00127984
0.00653719
0.00122078
0.000241586
0.00744229
0.00499371
0.00412244
0.0060306
0.00307097
0.00322944
0.00745176
0.003028
0.00417407
0.000954661
0.00173956
0.0053129
0.00142257
0.00514414
0.000401418
0.00697696
0.00382374
0.00243297
0.00665852
0.00107714
0.00402797
0.00315602
0.00239748
0.00231061
0.00405733
0.00309955
0.00213023
0.000774994
0.00676138
0.00131852
0.000765745
0.00113213
0.00461581
0.0011086
0.00197315
0.00478248
0.00518839
0.00116067
0.00199002
0.00252027
0.000817227
0.00258623
0.00106881
0.00287003
0.00294492
0.00227292
0.000982627
0.00361098
0.00677998
0.00223969
0.00429076
0.00255698
0.00250789
0.000699605
0.00574805
0.00406008
0.00575876
0.00152484
0.00561337
0.000592711
0.00244378
0.00559325
0.00739209
0.0019882
0.00187053
0.000990544
0.00198324
0.00245411
0.00125985
0.000964744
0.00425654
0.000949481
0.00369009
0.00309709
0.0005046
0.00161394
0.00308888
0.00282897
0.00561434
0.00165334
0.000486764
0.00184786
0.00233399
0.00289379
0.00728667
0.00203074
0.00555408
0.00379721
0.00628035
0.00117848
0.00228297
0.00157357
0.00436296
0.00173591
0.00422679
0.00307028
0.00127274
0.0019122
0.00244372
0.00272651
0.00597275
0.00042483
0.00165734
0.00168802
0.0014872
0.00308097
0.00584102
0.00113672
0.000641033
0.00168583
0.00308016
0.0028733
0.00208293
0.0026318
0.00106176
0.00583901
0.00142333
0.00160689
0.00616752
0.0014349
0.00346371
0.00263648
0.00290114
0.00146673
0.00248845
0.00677519
0.00072391
0.00341712
0.000689661
0.00269194
0.00415814
0.00261249
0.00221259
0.00152295
0.00299931
0.0043184
0.00313735
0.00141563
0.00428326
0.00477382
0.000646166
0.00732705
0.00374995
0.000875316
0.00423065
0.00282003
0.00161136
0.00247955
0.00117584
0.00412463
0.000189578
0.00208028
0.00170628
0.00213207
0.001292
0.00323918
0.000932219
0.00134886
0.00133878
0.00312953
0.00403791
0.00740743
0.00419398
0.00389555
0.00292625
0.000688554
0.00383642
0.00607583
0.00527697
0.0054651
0.00351551
0.00425066
0.00750452
0.00746763
0.00305141
0.00100571
0.00724486
0.00287041
0.00242673
0.00549756
0.00696083
0.00291438
0.00270491
0.00747014
0.00598028
0.00347212
0.00367109
0.00687546
0.00388882
0.0011165
0.00395875
0.00415795
0.00602831
0.00733568
0.00164817
0.00496169
0.00622936
0.000766049
0.0012841
0.000997017
0.00707612
0.000952895
0.000460785
0.00702551
0.000332904
0.000835355
0.000556062
0.00399337
0.00513758
0.00435568
0.00161847
0.00726223
0.00448941
0.00459689
0.00402073
0.00288013
0.00374481
0.00352919
0.00120146
0.00444536
0.0029458
0.000915854
0.00403545
0.000425808
0.00198807
0.00131688
0.00706787
0.00310164
0.00202383
0.00642984
0.00504824
0.00194474
0.00740638
0.00222502
0.00186634
0.000405642
0.00718796
0.00163792
0.00583645
0.00312852
0.00305044
0.00589259
0.00143984
0.00520565
0.00234348
0.005313
0.00132321
0.000276308
0.0043217
0.00732316
0.000314686
0.0048866
0.000299392
0.00390922
0.00383601
0.00468824
0.00456675
0.00579278
0.00713687
0.00424825
0.002301
0.00583439
0.00221715
0.00416731
0.00387468
0.00733336
0.00235766
0.000961271
0.00409384
0.00394158
0.00561034
0.00496886
0.0031374
0.00434948
0.00470032
0.00616123
0.0024376
0.00267515
0.00747216
0.00398404
0.00417367
0.00528573
0.00388663
0.00450235
0.00275454
0.00404735
0.00407118
0.00262664
0.00398419
0.00624917
0.0050912
0.00671155
0.00214889
0.00227073
0.00196206
0.00364668
0.00499538
0.00452018
0.00134091
0.0061279
0.00589301
0.00571959
0.00165488
0.00300886
0.00132283
0.0013127
0.0012868
0.00378559
0.00488548
0.00479254
0.00454212
0.00675876
0.00127438
0.00441916
0.00698854
0.0043423
0.00329528
0.00458124
0.00124142
0.00465712
0.00239149
0.00288145
0.00354089
0.00638485
0.00472259
0.00387292
0.00394452
0.00490312
0.00310428
0.00355296
0.00294473
0.00386283
0.00508737
0.00492054
0.00223661
0.00198385
0.00510056
0.00431074
0.00244817
0.00383254
0.00231398
0.00722499
0.00606803
0.00243706
0.00488633
0.00613713
0.00478711
0.00711837
0.00718362
0.00399523
0.00454079
0.00207643
0.00473254
0.0027016
0.00679504
0.00474865
0.00099145
0.00426825
0.00431054
0.00556886
0.00546434
0.00407685
0.00435091
0.000343032
0.00349217
0.00432954
0.00656879
0.00564384
0.00511173
0.00741006
0.00679176
0.00353121
0.00423663
0.00685327
0.00718356
0.0028245
0.000988148
0.00141918
0.00310217
0.00183793
0.00355541
0.00424441
0.00357036
0.00169746
0.00201495
0.00365285
0.00420582
0.000871158
0.00511307
0.00421369
0.00402624
0.00412863
0.00721136
0.0003387
0.00493292
0.00375491
0.00741401
0.00277022
0.0030809
0.000402289
0.000254461
0.00494526
0.00627014
0.00729873
0.00411635
0.00379232
0.00571488
0.000237697
0.00107692
0.0051086
0.0025933
0.00144291
0.00524027
0.00567589
0.00304926
0.00731419
0.00533987
0.00707622
0.004553
0.00268571
0.00407148
0.00438902
0.005726
0.00217692
0.00451522
0.00743712
0.00123169
0.00571872
0.00380353
0.00318777
0.000990723
0.00136621
0.00354701
0.00288004
0.00586668
0.00284785
0.00295518
0.00671193
0.000620687
0.00145447
0.00287985
0.00401393
0.00340437
0.00399789
0.00398217
0.00113692
0.00741463
0.0070557
0.00574675
0.00540133
0.000985323
0.0013992
0.00126768
0.00181661
0.00331677
0.00288052
0.00743639
0.0075767
0.00455094
0.00548526
0.00528379
0.0060646
0.00741428
0.00118034
0.000408957
0.0073187
0.00726671
0.00342974
0.00165515
0.00349079
0.00735485
0.00551168
0.00160977
0.000933715
0.00356755
0.00201841
0.00343142
0.00178822
0.000517233
0.0030504
0.00669439
0.00739528
0.0061721
0.000936196
0.00600927
0.00435062
0.0044145
0.00738757
0.000919043
0.000275289
0.000503178
0.00171428
0.00164241
0.00673304
0.00733763
0.00262544
0.00443295
0.000995719
0.000838427
0.000695678
0.000453613
0.000727739
0.00186414
0.00673866
0.000891989
0.00739735
0.000416848
0.00390951
0.000750002
0.004503
0.00194439
0.00673808
0.00322188
0.00224783
0.00225673
0.00584111
0.0056053
0.00399443
0.000968029
0.00121865
0.00500786
0.00518807
0.000491808
0.000340061
0.00397848
0.0015517
0.000625824
0.00115337
0.00489407
0.00721683
0.000818447
0.000565088
0.00146379
0.00730859
0.00126258
0.00668486
0.000653881
0.00111918
0.000397609
0.00234159
0.00627429
0.00181657
0.00712399
0.00470447
0.00406943
0.00245823
0.00644567
0.00395773
0.0054961
0.00386902
0.00436815
0.00729703
0.00689013
0.00388882
0.00695565
0.00641422
0.00453156
0.00483985
0.00182843
0.00394602
0.00246765
0.00410825
0.00649705
0.00475289
0.000955613
0.00364758
0.00349468
0.00224473
0.000647607
0.00452446
0.00294796
0.00373428
0.00104807
0.00196843
0.00136721
0.00507714
0.00713561
0.00531663
0.0035816
0.00602822
0.00349745
0.00333387
0.00397356
0.00733725
0.00499809
0.00609421
0.00478151
0.00319216
0.00480522
0.00377415
0.000721898
0.00373134
0.00419074
0.00447925
0.00308353
0.00117793
0.00225468
0.00435374
0.00494922
0.00328487
0.00109507
0.00130766
0.00411262
0.00337329
0.000384704
0.00156119
0.0020774
0.00411318
0.00155216
0.00321311
0.00406669
0.00329633
0.00120195
0.00481262
0.00417081
0.00253235
0.00682655
0.00239372
0.00278588
0.0032511
0.00335648
0.00195514
0.00443546
0.00586999
0.00741021
0.00210764
0.0033796
0.00441717
0.00223806
0.00530648
0.000936192
0.0029489
0.00336333
0.000460354
0.00197203
0.00650137
0.00350497
0.000862662
0.00175525
0.00241053
0.00734383
0.00291375
0.00120097
0.00611742
0.00750162
0.000708135
0.00208015
0.00149636
0.00260438
0.00527435
0.00482674
0.00139469
0.000517653
0.00075359
0.00391408
0.00604203
0.000626358
0.00697541
0.00194004
0.00308629
0.00155018
0.00122279
0.00574895
0.00356121
0.00118992
0.00407834
0.00453555
0.00478288
0.0036626
0.00577939
0.00102218
0.000306851
0.00411262
0.00364223
0.000677868
0.000594886
0.000706031
0.00236584
0.00120047
0.00214506
0.000629852
0.00352912
0.00353258
0.000830483
0.00240734
0.00255693
0.000604016
0.000850889
0.000387663
0.00724598
0.00677101
0.00040892
0.00627909
0.00430606
0.000842239
0.00589293
0.00298807
0.00446733
0.00327647
0.00510422
0.00657811
0.000500441
0.000376932
0.00183982
0.000780018
0.00242171
0.00398702
0.00442589
0.00479758
0.00337528
0.0053045
0.00590508
0.00433889
0.00526277
0.000577973
0.000650104
0.00398156
0.00194245
0.00506711
0.00410759
0.00300307
0.00359593
0.00372176
0.0049323
0.00057094
0.00122929
0.00432552
0.000710333
0.00283626
0.00142049
0.00267754
0.00359891
0.000967049
0.00283657
0.00118623
0.00298699
0.0029288
0.00292768
0.00666222
0.00135909
0.00734898
0.00589581
0.00266892
0.00434774
0.00152093
0.0034658
0.00188942
0.00345593
0.000889529
0.00405814
0.003458
0.00371105
0.00729745
0.00318727
0.00331151
0.00180559
0.000442735
0.00317093
0.000662358
0.00350389
0.00475909
0.00260921
0.00482495
0.0054624
0.00516509
0.00320704
0.00132118
0.00204593
0.00143683
0.000668908
0.00272261
0.00475081
0.000176342
0.00107763
0.00494912
0.00337207
0.00143375
0.00384191
0.000811776
0.000470182
0.00268236
0.00128945
0.00141233
0.00292052
0.000843048
0.00190065
0.00699493
0.00350175
0.00109132
0.00119369
0.00704772
0.00103401
0.00752129
0.00264916
0.00559809
0.00264572
0.00193669
0.000974985
0.00106331
0.00588467
0.00568808
0.000249811
0.00733203
0.0043588
0.00119984
0.00636684
0.00288583
0.00276737
0.00376447
0.000529412
0.00157677
0.000593155
0.00170212
0.00315254
0.00125457
0.00636918
0.00549348
0.00116423
0.00703323
0.00381709
0.00266046
0.00535034
0.00144949
0.000522484
0.00722253
0.00259621
0.00728527
0.000833101
0.00493836
0.000621912
0.00285778
0.00251971
0.00660277
0.00258616
0.00269245
0.00687064
0.00555877
0.00339487
0.007421
0.00133164
0.00342032
0.00356525
0.00633028
0.00440382
0.00355132
0.0027847
0.00292499
0.00220609
0.00326364
0.00419067
0.00432059
0.0016302
0.000660112
0.000829489
0.000754934
0.00130519
0.000885034
0.000808102
0.00323568
0.000271165
0.000621789
0.00127563
0.00216954
0.00287883
0.000849025
0.00104997
0.00246678
0.00131755
0.00217292
0.0061434
0.0029023
0.00121488
0.00405292
0.000460838
0.00300205
0.000391196
0.00209068
0.00120163
0.00145407
0.00101038
0.000638501
0.00201055
0.000543855
0.00271802
0.00208607
0.00476815
0.00176531
0.00524736
0.00628139
0.00102433
0.00349306
0.000943176
0.0016474
0.00519673
0.0023753
0.00433605
0.00131578
0.00113611
0.00749667
0.00560562
0.00169461
0.000959076
0.00376834
0.0027321
0.00117313
0.00117483
0.0047729
0.00734118
0.00393865
0.00433758
0.000718538
0.00747514
0.000955753
0.000358255
0.00522072
0.0028963
0.00442713
0.0039965
0.00082107
0.00280487
0.000754754
0.00340989
0.00469717
0.000519948
0.00090211
0.0056692
0.00241038
0.00566069
0.00690604
0.00119017
0.00273568
0.000779965
0.00389701
0.0066015
0.00236094
0.00691548
0.00543864
0.00556955
0.00505594
0.00277344
0.00238144
0.00144082
0.00344982
0.00120865
0.0042749
0.00716492
0.00218762
0.00133345
0.000875102
0.000914812
0.00166784
0.00201282
0.0010766
0.00102382
0.000809377
0.000933114
0.00319847
0.00302647
0.00412053
0.00142678
0.00499053
0.00321981
0.00323941
0.00158574
0.000561744
0.00348212
0.00347835
0.00347855
0.00496605
0.00342194
0.00456941
0.006166
0.00496235
0.00280728
0.00308716
0.00273781
0.0058627
0.00301749
0.00144658
0.000792119
0.00429376
0.000615265
0.00743918
0.00348499
0.00715052
0.00453033
0.000987947
0.00274476
0.00124278
0.00379114
0.00376606
0.00389317
0.00457497
0.00510603
0.00324221
0.00338574
0.00343498
0.00730121
0.000873033
0.00322591
0.00136465
0.0029376
0.00107031
0.00625424
0.00464739
0.00348727
0.00399424
0.00298097
0.00100221
0.00682138
0.00430832
0.00073425
0.00246907
0.00243085
0.00292649
0.00244003
0.00257566
0.00220614
0.00525172
0.00741282
0.00685662
0.00205489
0.00169209
0.00495318
0.000441049
0.00540083
0.00182716
0.00707569
0.00661862
0.00200479
0.00436883
0.00635931
0.00107857
0.00742084
0.00423245
0.00158746
0.00235536
0.00725116
0.00136972
0.00688436
0.00703505
0.00123467
0.00345622
0.00289306
0.000859738
0.00746638
0.00204227
0.00148574
0.00173219
0.00103622
0.00119024
0.00526938
0.005821
0.00292716
0.00616683
0.00207677
0.00296847
0.00589399
0.00652482
0.00348164
0.00125693
0.00300315
0.00439117
0.00232316
0.00343293
0.00243846
0.007389
0.00210006
0.00128192
0.00368794
0.0036923
0.00554199
0.0051525
0.00352428
0.00433295
0.00225203
0.00373214
0.000622462
0.00440261
0.00696711
0.00105572
0.00286946
0.000674853
0.000990096
0.00575823
0.00360396
0.00133968
0.00309339
0.000473647
0.00149697
0.000658696
0.0016073
0.000520134
0.00298575
0.00190509
0.00165957
0.00059462
0.00116758
0.0029967
0.000635625
0.000388415
0.00215986
0.000366355
0.000955304
0.00184826
0.00268732
0.0006825
0.000971925
0.00746946
0.00374297
0.00105839
0.000816242
0.00107866
0.00139721
0.00164353
0.000803522
0.00289982
0.00370908
0.00450554
0.00716412
0.00320058
0.00678158
0.00110421
0.00299622
0.00441006
0.000736395
0.00395737
0.00232953
0.00465084
0.00674582
0.00319772
0.0043681
0.00180132
0.00703603
0.00199226
0.000614797
0.00508892
0.00726247
0.00346824
0.00536055
0.00114756
0.00278774
0.00585262
0.00640861
0.000622639
0.00672694
0.00401128
0.00715749
0.00181908
0.00324844
0.00449282
0.00598756
0.00531947
0.00143849
0.00365895
0.00250484
0.00744413
0.00730491
0.00716086
0.00375793
0.0047289
0.00365534
0.00611381
0.00345485
0.00366598
0.00277843
0.00130578
0.00128196
0.00348302
0.00197205
0.00424602
0.00274063
0.00351688
0.00374322
0.00669456
0.00317848
0.00431573
0.00647337
0.00214359
0.00467843
0.00308431
0.00115382
0.00495365
0.00280948
0.00132744
0.00399573
0.00117503
0.00201264
0.00116192
0.000372982
0.00284224
0.00558987
0.00208865
0.000487934
0.00381582
0.00718799
0.00660231
0.00590723
0.00365871
0.00467905
0.00737294
0.00731393
0.00397633
0.00291493
0.00748019
0.00682656
0.00746317
0.00565552
0.00317862
0.00187455
0.00309843
0.00637743
0.00365383
0.000964304
0.00557814
0.00629075
0.00363117
0.000559739
0.000645572
0.00375001
0.00539297
0.00514058
0.00329603
0.00423037
0.000640621
0.00194825
0.00510188
0.00406484
0.0066022
0.00361404
0.00191475
0.00392523
0.00327647
0.00372707
0.00138688
0.00198054
0.00163157
0.00101524
0.000355234
0.00206324
0.00194618
0.00393245
0.00399365
0.00351099
0.00328076
0.0063907
0.00446941
0.000477223
0.00731393
0.00183305
0.00125837
0.00336902
0.00300331
0.000545653
0.00202939
0.00416635
0.00388591
0.00747623
0.00306599
0.000967146
0.00385917
0.00168977
0.00467627
0.00290154
0.00072499
0.000912047
0.00355766
0.00339124
0.00113012
0.00488238
0.000717927
0.000674028
0.00130864
0.00741961
0.00717324
0.000348629
0.00646365
0.000509413
0.00219826
0.00326237
0.00116065
0.000999686
0.00665413
0.00746698
0.000995594
0.00673922
0.006236
0.0051679
0.00701813
0.00435237
0.00390412
0.0023705
0.00602559
0.000370822
0.00323309
0.00460656
0.00388591
0.000329429
0.00429132
0.000588224
0.00510972
0.00358578
0.00383838
0.00118163
0.00560909
0.00503098
0.00513725
0.000953112
0.00209962
0.00211763
0.00146357
0.00280567
0.00652062
0.00082345
0.00315095
0.00331505
0.00323607
0.00472371
0.00322309
0.00389343
0.00716207
0.000402199
0.00145334
0.0046095
0.00510028
0.00225858
0.00452089
0.00287069
0.00323933
0.00516938
0.0023418
0.00481883
0.00517512
0.00425216
0.00150808
0.00463504
0.00488101
0.0050781
0.00358034
0.00680951
0.00539184
0.00553666
0.00280259
0.00417816
0.00272997
0.00257907
0.00374346
0.000552243
0.00527346
0.00310419
0.00130434
0.000791833
0.00151823
0.00377843
0.00375691
0.00196068
0.00032116
0.00398758
0.000923281
0.00402108
0.00738024
0.0028025
0.00178197
0.00388168
0.00489345
0.00746967
0.00543383
0.000349973
0.00538693
0.00683993
0.00259414
0.000428691
0.000495469
0.00401485
0.000292711
0.000794997
0.00112824
0.00161735
0.000807371
0.000464654
0.00543165
0.00099602
0.0040079
0.00604961
0.0044093
0.000526087
0.00212145
0.0069914
0.00607579
0.00101667
0.00489483
0.000539236
0.00617539
0.00294501
0.00517185
0.00297485
0.000653165
0.00742274
0.00317618
0.00284886
0.00603868
0.00372709
0.00633635
0.00292355
0.000545294
0.000527716
0.000663983
0.00158112
0.00140059
0.00652662
0.00670638
0.00541426
0.0037074
0.00727436
0.00165269
0.00745641
0.00101993
0.0042141
0.00703598
0.00620716
0.00478326
0.00706124
0.0035668
0.0030284
0.00719961
0.00318146
0.000952547
0.00607289
0.00114505
0.000929874
0.0067676
0.000284823
0.00057168
0.00284667
0.00295619
0.00396243
0.00131245
0.00431512
0.00212279
0.00152685
0.00584691
0.00170134
0.00720679
0.00221516
0.00432208
0.00240937
0.0019599
0.000790706
0.00332826
0.00392837
0.00072015
0.00144289
0.0021646
0.00156768
0.00566056
0.00143739
0.00440142
0.00194406
0.00313778
0.00611803
0.0013514
0.00259781
0.00245147
0.00648817
0.000713731
0.000884767
0.000560341
0.00630579
0.00440021
0.000952089
0.000641303
0.00204249
0.004005
0.00252029
0.00117332
0.000803712
0.00197137
0.00517906
0.00324307
0.00439635
0.00542807
0.00401788
0.000639778
0.00549413
0.0019595
0.00314997
0.00699139
0.0026237
0.002699
0.0058735
0.00397844
0.00506324
0.00230168
0.00137372
0.00474459
0.00370538
0.0022267
0.00279812
0.00288488
0.00197996
0.00192459
0.00363115
0.00622818
0.00613984
0.00576589
0.000783437
0.00389751
0.001072
0.00337135
0.00404436
0.00557568
0.00346885
0.00699497
0.00250421
0.0074734
0.00239384
0.00240826
0.00360267