/*--------------------------------*- C++ -*----------------------------------*\
| =========                 |                                                 |
| \\      /  F ield         | OpenFOAM: The Open Source CFD Toolbox           |
|  \\    /   O peration     | Version:  2506                                  |
|   \\  /    A nd           | Website:  www.openfoam.com                      |
|    \\/     M anipulation  |                                                 |
\*---------------------------------------------------------------------------*/
FoamFile
{
    version     2.0;
    format      ascii;
    arch        "LSB;label=32;scalar=64";
    class       surfaceScalarField;
    location    "0.0381003";
    object      phi;
}
// * * * * * * * * * * * * * * * * * * * * * * * * * * * * * * * * * * * * * //

dimensions      [0 3 -1 0 0 0 0];

oriented        oriented;

internalField   nonuniform List<scalar> 
92401
(
0.147415
-0.0956698
-0.00693196
-0.0448134
-0.0621283
0.0600178
0.0371739
-0.0350634
0.0225571
-0.0399612
0.0431238
-0.0257196
0.00644021
-0.0126645
0.0125042
-0.00627983
0.00142518
-0.000462059
-0.00581509
0.00485197
0.0196041
0.0097141
-0.0255951
-0.00372315
0.00552507
-0.00453841
0.000438525
0.0324451
-0.0257614
0.0129205
0.048142
-0.0386578
0.0324044
-0.0418887
0.000477822
-0.00107354
-0.000140378
0.000736098
0.00465149
-0.0418544
0.0376763
0.0244922
0.0242372
-0.0864057
-0.0168759
0.0108234
-7.51686e-05
0.0061277
-0.0344492
-0.0403819
-0.017172
-0.0166856
0.0575104
-0.0236528
0.00186913
-0.0655157
0.0636465
-0.00217806
-0.00767655
0.00193853
0.00341887
0.00231916
-0.000931538
0.00145727
0.000281744
-0.000807479
-0.00475017
0.0103621
4.49677e-05
-0.00565694
0.0161104
-0.00573191
-0.00469244
-0.00568603
-0.0404713
0.00808967
0.0369388
-0.00455715
-0.0391925
0.01077
-0.0549785
-0.0544565
-0.00298326
0.0555339
0.00190594
0.0904854
-0.0894418
0.0227432
-0.0237868
0.0498764
0.0600562
-0.0713253
-0.0386073
-0.0324473
0.0512954
-0.0580407
-0.00259479
-0.00104264
0.00389373
-0.00025631
0.0316986
-0.0637544
-0.000391508
0.061026
-0.0610511
-0.0320731
0.0320983
0.0126487
-0.0172987
0.00126352
0.00338648
-0.0360329
0.106328
0.0610166
-0.131312
-0.0846875
0.107663
0.00883664
-0.0318118
-0.131085
0.0319597
0.0297028
0.0694221
0.0150175
-0.0616231
0.0367927
0.00981295
0.0599871
0.00942556
-0.0543952
-0.0440355
0.0104147
0.00204329
0.0315775
-0.0504157
-0.0411734
0.0654662
0.0261229
-0.0334114
0.0404047
-0.0139946
0.00700134
-0.0194768
-0.101919
0.0645035
0.0568922
-0.0865303
0.0864155
0.000114896
0.0325232
-0.00362512
-0.0748365
0.0459385
0.00221711
0.0244425
-0.025596
-0.00106362
0.0268987
-0.0504035
0.0235047
0.000103024
-9.5353e-05
-1.81484e-05
1.04774e-05
0.000366758
-0.0588652
0.0584984
-0.0685975
0.0426669
0.0626937
-0.0367632
0.0900675
-0.0254936
-0.0126494
-0.0519245
-2.87975e-05
0.0700667
3.19522e-05
-0.0700698
-0.0475528
0.0730459
0.039448
-0.0649411
0.000526939
0.00103759
-0.000366692
-0.00119784
-0.00228212
-0.00352893
0.000362259
0.0054488
-0.0382461
0.0839525
-0.0461276
0.000421164
0.000315335
-0.00076746
-0.000675954
0.00112808
-0.0548633
0.0544726
0.000390647
0.0748961
-0.00780846
-0.0186146
-0.048473
-0.0975547
0.0902605
0.00532419
0.00197004
-0.0554473
0.0276351
0.0112084
0.0166038
-0.00253107
-0.0157267
0.00715689
0.0111009
-0.0123634
0.0258554
0.037453
-0.050945
0.000887189
-0.000258228
-0.000313626
0.00010937
3.94525e-06
0.000696296
-0.000809612
0.00111148
0.000217903
-0.000790157
-0.00053923
0.00414117
-0.00919691
0.00518592
-0.000130173
0.0679105
0.00506215
-0.0172056
-0.0557671
-0.0150189
-0.0046085
0.0102756
0.00935179
-0.0410434
-0.0530531
-0.0548317
0.148928
0.0035344
-0.0338067
-0.00406627
0.0343386
-0.000429112
0.000547065
0.000689967
-0.00080792
0.00469002
0.00432209
-0.0283335
0.0193214
0.0187294
-0.00680263
-0.00954795
-0.00237877
0.0419038
-0.0762728
-0.0275262
0.0618952
-0.028415
-0.00336315
0.0102942
0.021484
0.0120319
0.00805016
0.0129313
-0.0330134
-0.000819189
-0.000397319
-5.18287e-05
0.00126834
0.0252084
-0.00972212
0.0365763
-0.00118214
0.000800659
-0.00140348
0.00178496
0.0444334
-0.0330022
-0.068431
0.0569998
0.000627733
-0.000299732
-0.000328001
-0.00108183
-5.41409e-05
0.000562899
0.000573076
0.000895345
-0.000353395
0.000847824
-0.00138977
0.0223362
-0.0220167
-0.0627292
0.0624097
0.00120449
-0.0127434
0.00267124
0.00886771
0.043104
0.058139
0.0187448
-0.119988
-0.116292
0.026139
0.128947
-0.0387934
-0.00517795
-0.0440356
0.00385775
0.0453558
0.0532673
-0.028639
0.0253588
-0.0499871
0.024662
-0.0038949
-0.150972
0.130205
0.00658561
0.0175635
-0.0269676
0.00281852
0.000697625
-0.000241575
-0.000695891
0.00023984
0.0378826
0.0128491
-0.00175011
-0.0489816
-0.00203012
0.0838267
-0.0855284
0.00373178
-0.0180014
0.0499526
-0.116337
0.084386
0.0419363
0.00539516
-0.0525094
0.042002
-6.57094e-05
-0.00234761
-0.0290226
0.0413339
-0.00996364
0.0709621
0.0168171
-0.0313551
-0.056424
0.128541
-0.141953
-0.0279906
0.0414022
-0.0149801
-0.045231
0.0578634
-0.0815467
-0.000821767
0.0823685
0.00122244
-0.0980986
0.164075
-0.0671988
-0.00242363
0.00333116
-0.000568288
-0.000339242
0.0885586
-0.14766
0.0309142
0.0281876
0.00154789
-0.000326779
0.000828683
-0.0020498
-0.0860665
0.142989
-0.103865
0.0469429
0.0296187
0.00315051
-0.0399326
0.00716339
0.0869687
-0.0161684
-0.0800607
0.00926035
0.00578344
0.0311671
-0.0519306
0.0309323
0.0277726
-0.1321
0.0733955
0.085587
0.112935
-0.0792231
-0.119299
0.000429389
0.0006774
-0.00278196
0.00167517
-0.0943867
-0.0295173
0.111998
0.0119061
0.00125836
-0.00594609
0.0154613
-0.0107736
-0.0139276
-0.0334389
0.0574608
-0.0100943
-0.0053659
0.0167204
-0.0142086
0.00285409
0.000336262
-0.000674363
-0.000528788
0.000866889
0.0213441
-0.0256019
-0.0011081
-0.00179119
-0.000718994
0.00146887
0.00104131
-0.0572621
0.0600506
-0.00278847
-0.00244439
-0.00619848
-0.0020138
0.0106567
-0.0361418
0.0278155
-0.00560131
0.0183653
-0.0472605
-0.0557923
-0.0511688
0.0414863
0.0982718
-0.0885893
-0.00749129
-0.00169671
0.00500149
0.00418651
0.0469273
0.0114606
0.00205368
-0.0604415
0.000350293
-0.00916683
0.00670748
0.00210906
-0.0393592
-0.0533042
0.0116924
0.080971
0.0646988
-0.0388733
0.0266216
-0.0524471
-0.00958109
0.0597752
-0.0590212
0.0088271
-0.0590604
-0.0339165
0.00797331
0.0850035
0.0165178
0.00508409
-0.0333018
0.0117
0.0597939
-0.0598265
3.25817e-05
0.00185793
0.00182653
-0.00130001
-0.00238446
0.0410484
-0.0435243
0.00247582
-0.0534563
-0.0366998
0.105083
-0.0149272
0.000843516
-0.0097273
0.00951456
-0.000630782
0.00300216
0.0059474
0.00257927
-0.0115288
0.00182982
0.00618664
-0.00766617
-0.025135
-0.057426
-0.00916974
0.0917308
0.0257113
-0.00742865
0.0172783
-0.0355609
-0.0841217
0.0924094
-0.101343
0.093055
0.0785978
-0.0520368
-0.0265609
0.00146093
-0.0345051
-0.010079
0.0431231
0.00816968
-0.00553108
-0.00915246
0.00651386
0.046337
-0.0699589
-0.0616211
0.085243
0.0740835
-0.0647126
0.0293089
-0.0386798
-0.0132383
-0.00830374
0.0315594
-0.0100173
-0.0583016
-0.0870674
0.0567173
0.0886518
-0.04164
0.0541263
-0.0110253
0.0977465
-0.0483914
-0.049355
-0.00427656
0.014845
-0.00239879
0.000960944
0.000657873
-0.000702726
-0.000916091
0.0474278
-0.015886
-0.00526078
-0.0262811
0.00356732
-0.00181424
-0.000498663
-0.00125441
0.00550646
-0.0100677
0.00863581
-0.00407455
0.072822
-0.0421877
0.0255757
-0.05621
0.00859047
-0.000337158
-0.00681268
-0.00144063
0.00164861
-0.000586423
-0.00106218
-0.0642187
0.0643996
-0.000180897
0.0123028
0.00567364
-0.096677
0.0787005
-0.0112281
0.0141468
-0.0102407
0.00732193
-0.0724414
0.0165645
0.0828656
-0.0269887
0.0181364
-0.097295
0.0756976
0.00346095
-0.0526288
0.042849
-0.00820631
0.0179861
0.00863764
-0.00178292
-0.00290235
-0.00395238
8.17516e-05
-0.000937879
0.000856127
0.0281505
0.17031
-0.244358
0.0458966
0.000310458
-0.000234302
-0.024965
0.0603811
-0.0525909
0.0171748
-6.18416e-05
0.00515802
-0.0042919
-0.000804276
0.000593204
0.00177434
-0.00272094
-0.0713701
0.000404379
0.0709658
-0.0324652
0.11397
-0.0478129
-0.0336914
0.000374548
0.000695194
0.00946071
-0.0105304
0.000261777
0.090064
-0.0903258
0.00234928
-0.00163851
-0.0011642
0.000453436
0.00130629
0.000636584
-0.000647551
-0.00129532
-0.0365409
-0.00154255
0.0323514
0.0192238
-0.0639387
-0.0721715
-0.0165825
0.00634043
0.0824135
-0.000595917
0.00190221
-0.0994295
-0.0419995
0.112539
0.0288901
0.0275091
0.169352
-0.0846216
-0.0573129
-0.0274172
-0.0177443
0.118727
-0.0434751
-0.0575072
0.0400415
0.0301876
0.0380763
-0.108305
0.10494
-0.248341
0.108972
0.0344298
0.00156802
-0.00137347
-0.0014221
0.00122755
-0.0121575
-0.0357072
0.0558993
-0.00803459
0.0253734
0.0404149
-0.0258497
-0.0399386
-0.035332
-0.0258866
-0.0197397
0.0809583
-0.0537528
-0.0136158
0.0552111
0.000761587
-0.0120477
0.00850502
0.0027811
0.0553911
-0.028463
-0.0508527
0.0239246
-0.0888306
0.104758
-0.0500495
0.0341218
0.0160667
-0.0230243
0.00712827
-0.000170609
0.0517987
-0.0600819
0.0636744
-0.0567539
-0.00368529
-0.0140608
0.0744999
-0.00537999
-0.012664
0.00217435
0.0158697
1.16924e-05
0.0576919
-0.0572935
-0.000410091
0.136215
-0.0535093
-0.00335942
-0.0793466
0.0595256
-0.00771294
-0.0484336
-0.00337903
0.0524032
-0.0207969
-0.0748132
0.0432069
-0.00964978
-0.00202273
0.0148265
-0.00315402
0.00528991
-0.00159803
-0.00478686
0.00109498
0.00223885
-0.0433153
0.0399118
0.0011647
-0.000905916
-0.0863497
0.00351575
0.0194295
-0.0130126
-0.0633476
0.047132
0.0162155
-0.0595788
-0.0170019
0.0109072
0.0656735
-0.098511
-0.00150444
0.103036
-0.00302062
0.00374391
0.0233335
-0.0126131
-0.0144643
-0.0709185
0.149927
-0.0661194
-0.0128891
-0.00508277
0.0139994
0.0224763
-0.0313929
-0.0510901
0.0978954
0.0383586
-0.0851639
0.0281201
0.00214925
-0.0147958
-0.0154736
-0.0360199
0.0372348
0.00102402
-0.00401928
0.00693901
-0.00929529
0.00637556
-0.000376335
-0.00432727
0.0102101
0.0360053
0.0383138
-0.0743191
0.00111436
-0.00186146
5.47172e-05
0.000692385
0.019111
0.00839332
-0.0185155
-0.00898883
0.0217939
0.010559
-0.00239217
-0.0299607
-0.0512618
-0.0009495
0.00624479
0.0459665
0.000125733
-0.043441
-0.000927001
0.000580367
0.00146099
-0.0519948
0.037221
0.051957
-0.0371833
-0.0444775
0.0299011
0.0185965
-0.00402007
0.00132272
-0.00323191
-0.00974889
0.0116581
-0.00888347
-0.00500499
-0.00352618
0.0174146
-0.0431183
-0.00472728
0.0118257
0.0719307
0.0394418
-0.0716729
-0.0396995
-0.0441764
-0.000432733
0.0446091
0.0862879
-0.0486504
0.0594627
0.00358058
-0.00776189
-0.0377945
0.0419758
0.0357033
0.0113356
-0.00574099
-0.0412979
-0.00048039
0.000290107
0.000996855
-0.000806572
-0.0169112
-0.0446958
0.061607
-0.000285616
-0.00127661
-0.00449729
0.0313798
-0.023302
0.00609158
0.0280724
-0.0419258
0.0979558
-0.0909275
-0.00206385
-0.00496454
-0.0210749
0.100898
-0.0187551
-0.061068
-0.0321108
0.00681659
0.0150963
0.0101979
-0.0393152
0.035896
0.0143339
-0.0109146
0.0325063
-0.0251256
0.00136439
-0.00874513
0.0184123
0.0720491
-0.120754
0.0302929
0.0761453
-0.0750347
-0.0242485
0.0231379
-0.142932
0.00242337
0.00321705
0.137291
0.0302871
0.0124504
-0.0410447
-0.00169276
0.0400363
-0.0578656
0.0202782
-0.00244894
0.0020917
-0.00124043
0.000231979
-0.00108325
-0.0148077
-0.00139397
0.0733885
-0.0416387
0.0188232
-0.050573
-0.0116437
0.0475962
0.000586602
-0.0365391
0.00563482
0.0954693
-0.0930042
-0.00809993
0.0497534
-0.0989949
0.0583212
-0.00907961
-0.0486754
-0.000397293
0.037429
0.0153266
-0.00388127
0.0087083
-0.0201536
-0.0234331
0.0478167
-0.0133298
-0.0110538
-0.0486151
-6.02489e-05
-0.00526614
-0.122775
0.175834
-0.047793
0.0101591
0.00950717
-0.063181
0.0435148
0.0499089
0.00540606
-0.0451559
-0.0125599
0.00672029
-0.00358605
0.00942571
-0.0557539
-3.6266e-05
0.0557902
0.110035
0.0441211
-0.135943
-0.0182132
-0.00906932
0.000427518
-0.00391815
0.0186023
-0.11574
-0.022452
0.11959
0.0126281
0.0660753
-0.0691962
0.00297649
-0.055558
-0.0105995
0.000456987
0.00185662
-0.00259922
0.00196276
-0.00183666
0.000330891
-0.0507929
0.0254368
0.0743822
-0.0490261
-0.001943
0.000980774
0.000908083
-0.0344376
-0.00768449
0.0450986
0.00021493
-0.000301305
0.000333126
-0.000895824
9.90025e-05
0.000463696
6.32623e-05
0.00211443
-0.0017244
0.00137316
9.0884e-05
0.000260354
0.000488298
-0.000315472
0.000714363
0.105595
0.120767
-0.0789465
0.000109081
-0.000817655
0.00119687
-0.0529222
0.0530724
-0.000150215
-0.0109699
0.075937
-0.0711574
0.00619029
0.0018265
-0.0193307
0.00509174
0.0124124
-0.0604959
-0.00339615
-0.0171005
0.00399779
0.047652
-0.0345492
-0.0644371
-0.00188006
0.0663172
-0.00625979
-0.0165554
-0.0126531
0.0354683
0.000276762
-0.000355256
-0.000479852
0.000558347
-0.00407564
-0.00730013
0.00892701
0.00244876
0.0549825
0.04391
-0.0175094
0.0476924
0.089057
-0.0380531
-0.0986962
-0.0125449
-0.0445168
-0.0205118
0.0199398
-0.0557806
0.0563527
-0.0104929
0.0292203
-0.00699922
-0.0117282
-0.0151778
-0.0134839
0.0137999
0.0148617
0.0972036
-0.0958535
0.0186889
-0.020039
0.00106898
-0.00433308
-0.00029665
0.00356075
0.000872449
-0.0655943
0.0647218
-0.0729309
0.00361601
0.0669004
0.00241446
0.0393634
0.0381354
-0.0774989
0.0189402
-0.0603394
0.0288543
0.00218575
-0.00128515
0.000684698
-0.0015853
0.000145279
-0.000425333
0.00153005
-0.00125
-6.32739e-05
0.000401149
-0.000955876
0.000618001
0.0632936
0.0560532
-0.0388988
-0.0804481
0.00544173
-0.0866445
0.0824174
-0.00121462
-0.013531
0.000247205
0.0265614
-0.0132776
0.0530178
-0.0524749
0.0192585
-0.0198014
-0.000496232
0.00130756
-0.000653026
-0.000158299
0.0203589
0.0478768
-0.0492954
-0.0471978
-0.00175503
0.000879266
0.00156369
-0.000687931
0.000805242
0.0796297
-0.0804349
-0.049938
-0.0154291
-0.0222742
0.0876413
-0.0501421
0.000204091
0.0116561
0.0169219
0.0166933
-0.0452713
0.000500888
-0.00280004
0.000264315
0.00203484
-0.00168109
-0.000690689
0.000616757
-0.106716
-0.00868192
-0.0434607
0.158858
-0.0104037
0.00711601
0.137671
-0.134383
-0.0381246
0.0422184
-0.0649396
0.0608457
-0.0786645
0.0783352
0.000329306
0.00153714
-0.050337
-0.0303746
0.0658769
0.019304
-0.0055101
-0.0796708
0.0501387
0.0940061
-0.15603
0.0118849
0.0417611
0.0158441
0.0330641
-0.0906692
0.104326
-0.108218
0.0432552
-0.00343186
0.0129444
-0.01169
0.00217743
-0.00201367
0.000108949
-0.000730779
0.0026355
-0.00278762
-0.00552095
0.00158093
0.00672765
0.0607175
-0.00600651
-0.0183787
-0.0363324
-0.0567379
0.0282522
0.0284857
-0.0925029
-0.00790605
0.0123689
0.000409209
-0.000459158
-0.00196372
-0.117291
0.025865
0.00490945
0.0865168
0.00104526
-0.0537202
-0.00989178
0.0625667
0.0453809
0.0288098
-0.101393
0.0272025
0.0380449
-0.0440991
-0.0187663
0.0248206
0.0479283
-0.0603352
0.0504517
0.0307534
-0.0559025
0.0497213
-0.0245722
0.0344219
-0.0358836
0.000454719
0.00100703
0.0164997
-0.141981
0.0908682
0.0346129
0.00126016
-0.0612642
-0.00355296
0.0523828
0.000567726
-0.108398
-0.0337508
-0.00905921
0.00670851
0.0361015
-0.0486393
0.0444916
0.0503673
-0.0462196
-0.0425315
0.0823694
-0.0398379
0.0107951
-0.102761
0.0478667
-0.016821
0.00761532
0.0243683
-0.0151627
-0.0885493
0.0934097
0.036787
-0.0416474
0.0584061
0.0329518
-0.0827982
-0.0085596
-0.0474683
0.142234
0.00437725
-0.0991431
-0.000504613
0.00305967
0.00352905
-0.00608411
0.0540877
-0.0724927
0.0830257
-0.0646207
0.00859757
-0.039961
-0.00841182
0.0397753
-0.0437171
0.0319312
0.102725
-0.0909394
-0.0500318
-0.0265151
0.05316
0.023387
-0.0100587
-0.000404363
0.00637847
0.00408457
-0.00995863
0.0215134
-0.0180026
0.00644789
0.000138744
0.0737271
-0.0738659
0.014936
-0.0442569
-0.0193184
0.0485155
-0.0340182
-0.00119733
-0.0132999
0.00149679
-0.0253665
-0.0203079
0.0441776
0.0347561
-0.0347383
-1.7872e-05
0.0614376
-0.0416736
0.0639957
-0.0837597
-0.0997203
0.0974939
0.0994301
9.99253e-05
-0.0107504
-0.0018038
0.0124543
0.0496921
-0.000108327
-8.86668e-06
5.5592e-06
0.000111634
-0.000219322
0.0471274
-0.109373
0.0624653
-0.00858381
-0.000539612
0.00496479
0.00415863
0.0268727
0.0099748
-0.0368475
0.00120668
-0.00101196
-0.00877854
-0.0324119
-0.0326892
0.0116448
0.0571797
0.000820154
-0.0579998
0.0728546
-0.0441275
-0.0511929
0.0224658
0.00178499
-0.024758
-0.0210625
0.0694339
0.043002
-0.0395813
-0.00796166
0.00926827
0.134142
-0.119599
0.0359314
-0.0504743
-0.0450281
0.0366143
0.0218929
-0.013479
-0.052764
0.0523845
0.000379495
-0.0478115
0.0296821
0.0106106
-0.0468026
-0.0106501
0.0468421
-0.00255946
0.159959
-0.159344
0.00194443
0.107674
0.015975
-0.0159866
0.0509358
0.00861789
-0.0513546
-0.00819907
-0.0143841
0.00456945
0.0106017
-0.000787033
-0.00952443
-0.00531032
0.0047464
0.0100884
0.0662027
-0.037698
-0.0529031
0.0243983
0.0297824
-0.0157284
0.0238284
-0.0378824
0.0267723
-0.093561
0.0895619
-0.0227732
-0.0057589
0.000425789
-0.00905103
-0.094079
0.107379
-0.0235556
0.0102553
-0.0113786
0.0478892
0.0138618
-0.0503724
-0.00434354
-0.000189508
0.00320428
0.00132877
0.0831385
-0.00484253
0.0512263
-0.129522
4.87528e-05
-0.000723692
1.63981e-05
0.000658541
-0.0664628
0.0583226
0.0740124
-0.0658722
0.00357637
0.00118049
-0.00228327
-0.0024736
-0.0780836
0.0758246
0.00225901
0.0623666
-0.0589786
-0.00338803
0.0603534
-0.000636194
-0.0597172
-0.0113181
0.123543
-0.000714139
-0.111511
0.00989491
-0.0311261
0.0328874
-0.0238965
-0.000105865
-0.0563678
-0.0676171
0.0120862
0.0664849
-0.0109539
-0.0131713
-0.00211203
0.000404557
-0.000664366
-0.000181537
0.000441346
0.00114346
-0.000173775
-0.000233954
-0.000735735
-0.0634948
0.00743345
-0.00120605
0.0572675
0.000458768
-0.00542662
0.00186173
0.00310612
0.0120332
-0.0145569
7.93391e-06
0.00251576
0.0081259
-0.00672788
0.0106352
0.0556801
-0.00930365
-0.0225661
-0.0238103
0.0362018
-0.00545917
-0.0364427
0.00570004
0.000364569
0.0668483
-0.000361771
-0.0668511
0.00764105
-0.0718374
0.0193669
0.0448295
-0.0426912
-0.0323058
0.0420561
0.0329409
-0.0351056
0.0208473
-0.0908103
0.105069
-0.000878747
0.0150724
-0.00778382
-0.00640983
0.0491159
-0.059102
0.0475062
-0.03752
-0.0626783
-0.00672407
-0.00810506
0.000720821
-0.000155056
0.00426681
-0.00483258
-0.0119018
-0.00275694
0.00177665
0.0128821
-0.00799608
-0.00918732
0.0107412
0.0064422
-0.000138068
-0.00216365
0.0013441
0.000957622
-0.00045267
0.000551828
-9.91575e-05
0.00141288
-0.0719808
-0.0264463
0.0970142
-0.000163008
-0.00012663
-0.00133092
0.00162055
0.000140206
-0.00047653
-0.000116346
0.00203509
-0.0664722
-0.00012007
-9.45222e-05
0.00076642
0.000651138
9.57334e-05
-0.000416143
-0.000330728
-0.0280338
0.0642614
0.077175
-0.113403
-0.00904762
-0.00221928
0.00719501
0.00407189
-0.0144463
-0.000254831
0.0056535
-0.00524469
0.00544531
0.0129991
-0.0131997
-0.000667033
0.000857644
-0.000310681
-0.0657191
0.0664574
-0.00073835
0.0302839
0.0468656
-0.0598583
-0.0172912
0.0122138
-0.0755818
-0.0216023
0.0849703
-0.0133623
0.00271962
0.005398
-0.00451195
-0.00632996
-0.00252039
-0.0165013
0.0580902
0.0129014
-0.0544903
0.0692128
0.00464217
-0.0535451
-0.0203098
0.000155555
0.000430157
-0.000790733
0.000205022
-0.000261173
-0.000265654
-0.00261118
-0.0011511
-0.00125696
0.00501923
0.0651902
-0.0459656
0.0119885
-0.0312131
-0.00079952
-0.00264824
0.00142504
0.00202272
-0.016076
0.0103625
-0.00398109
0.00969461
0.00183636
-0.101458
0.101251
-0.00162964
0.00301621
0.000726839
-0.0104091
0.00666609
0.00987565
-0.01054
0.00165276
-0.000988412
0.00988641
0.00378767
-0.0106579
0.0370134
0.056088
-0.0279112
-0.0272894
0.0548119
0.0282048
-0.0557273
0.0277418
-0.0550312
-0.000298733
0.000129534
-0.0332422
0.0124691
-0.0100411
0.0792149
0.0232011
0.00751399
0.0689632
-0.054207
0.0979603
-0.112716
0.00476247
0.0924443
-0.0972068
-0.00685804
-0.00689527
0.0132733
0.000479969
-0.0339997
-0.0873173
0.0276767
0.0936403
0.0224229
0.0615462
-0.0248904
-0.0590787
-0.0234693
0.113508
-0.053025
-0.0418671
0.044899
0.05178
-0.0558739
0.0555996
0.000274283
-0.0388186
0.0367581
0.00206051
0.040226
-0.0790293
0.0729717
-0.0341684
0.0669644
-0.0834657
-0.00950792
-0.00814395
0.0107938
0.000896183
0.000645931
-0.000605106
-0.000937008
-0.00593633
-0.0425554
-0.00738221
0.00127164
0.00141136
-0.00253058
-0.000152419
-0.0574007
0.0517613
0.0856715
-0.0800321
0.034657
-0.0329841
-0.00167293
0.00877391
0.0197
-0.0111232
-0.0173507
0.0042285
-0.00050346
0.00220176
-0.0059268
-0.0643719
-0.000533819
0.020218
0.0446877
-0.00285125
0.00671798
0.000361772
0.0396187
-0.109661
0.104196
-0.0341539
0.0457686
0.0140692
-0.0593965
-0.000441302
-0.00359072
0.00695296
0.00157834
-0.00494058
-4.41446e-05
0.0607447
-0.0607005
0.037243
0.00635134
0.0148579
-0.0584522
0.00423298
-0.00732032
0.00258388
-0.182354
0.0280198
0.161736
-0.00740099
0.0390792
-0.0109911
-0.0280881
-0.00113668
-0.00154044
-0.00119154
0.00386867
-0.0415393
0.0449893
0.124329
-0.127779
-0.00182222
0.000657706
-0.00203403
0.00319854
0.0913195
-0.00263153
-0.0429194
0.000479148
-0.00119093
0.0020498
-0.00133802
-0.0186609
-0.116101
0.0161967
0.118565
0.00403047
0.0520332
-0.00399835
-0.0520653
0.0487864
-0.0702811
0.0602773
-0.0387826
0.0318078
-0.0364488
0.0486478
-0.0440068
0.00856322
-0.00201717
0.00601892
-0.012565
0.00113024
-0.0444527
0.053257
-0.0536123
-0.0360935
0.0971456
0.0178671
-0.0247818
-0.0902309
0.0477092
0.0179379
-0.134958
0.0693104
-0.00167669
-0.00862418
0.00633417
0.0039667
0.0280639
-0.050338
-0.00332104
0.0290008
-0.0266983
0.00741349
-0.00580283
0.000105648
-0.00171631
-0.0866426
0.00294385
-0.000999559
0.0722527
-0.149879
0.0786256
-0.026957
-0.0873319
0.0413694
0.0729195
-0.0722629
0.0210702
0.00242834
0.0487644
-0.0435028
0.0293271
0.0104526
-0.0828962
0.0961445
-0.0132483
-0.0208607
-0.00950102
0.118111
-0.087749
-0.00351218
-0.00393255
0.00609714
0.00134759
-0.0258131
0.0591973
0.0406992
-0.0721732
0.0280456
-0.000738349
-0.00040359
-0.000988767
0.00213071
0.046703
-0.0491115
0.0547914
-0.0376483
-0.00697349
-0.0451828
-0.12445
0.0480127
0.0764374
-0.0429315
-0.0325169
0.0276369
0.00307979
-0.00214069
0.00070719
-0.00164629
0.0026783
-0.000305982
0.000707475
-0.0861565
0.00338195
0.0827745
0.0609438
0.0137464
-0.123007
0.0483164
-0.0712147
0.000423723
0.0707909
0.00139101
-0.0018874
0.00838488
-0.00788849
0.0485346
0.155304
-0.225487
0.0216484
0.00178778
-0.00228431
0.0014733
-0.000976769
-0.0916426
0.0649858
0.0264684
0.000188334
-0.00262532
-0.000904226
0.00300975
0.000519791
-0.000748117
0.00838354
-0.00822612
0.000590695
0.00808695
0.00786986
-0.0152511
-0.000705728
0.0410498
0.0124406
0.00301051
-0.00270712
0.00148439
-0.0984861
0.10545
0.00721682
-0.0141802
0.011861
-0.0667046
-0.0230154
0.077859
0.00203238
-0.00442956
0.0879947
-0.0855975
-0.0420895
-0.0364997
0.0875048
-0.00891566
-0.040766
0.0247146
0.0404721
-0.0244207
0.0537699
0.0209546
-0.0726257
-0.00209875
-0.00172789
0.000190997
0.00181122
-0.000274321
-0.123893
-0.0429171
0.0398836
0.126927
0.0483977
-0.0377871
-0.031519
-0.0377551
-0.0309672
0.100241
-0.00192476
0.00428673
0.00035039
-0.00271235
-0.0309814
-0.080154
0.0282452
0.0828902
-0.0296059
-0.0288345
0.020792
-0.000834534
-0.00323092
-0.00168398
0.00333609
-0.00371469
0.00206258
-0.00569232
0.00559265
0.0253652
-0.0772498
-0.0853645
0.137249
-0.000355643
-0.000371377
0.00040927
0.00031775
0.0572346
-0.060432
0.0475821
-0.0443847
-0.0147216
0.0433845
-0.00744038
-0.0212225
0.0862183
-0.0859412
-0.0185831
0.0183061
0.0263728
0.0224386
-0.0636004
0.014789
-0.127461
0.0741607
0.018231
0.0350689
-0.00525726
0.00296391
0.000129817
0.00216353
-0.00791932
0.00965584
-0.000345502
-0.0134592
-0.00370687
0.0182437
-0.00107759
-0.0625849
-0.00469776
0.0146773
0.0526054
-0.00927125
0.103371
-0.00512019
-0.0889794
0.00919971
-0.0472216
0.0802192
-0.0421973
-0.00163332
0.00417489
-0.00167962
-0.000861961
-0.0149022
0.000282421
-0.00225851
0.0168783
-0.10759
0.00488727
0.0126893
0.0900133
4.87658e-05
-0.000326717
0.00068294
-0.000404989
0.0368912
0.0080463
0.0269931
-0.00469162
0.0456219
0.0530191
-0.0939493
-5.60409e-05
0.000694608
-0.000589802
-0.000581217
0.00213235
-0.00144005
-0.000111084
0.017371
0.110378
-0.047195
-0.0805541
-0.000222454
-0.000104263
0.000216945
-0.000439399
0.0618836
0.0171393
-0.0923056
0.0132828
-0.157075
0.0863945
0.0766982
-0.0060172
-0.0182872
0.000420885
-0.0517704
0.0696367
0.0251367
-0.0149424
0.017091
-0.0272853
-0.0663073
-0.0233565
0.0896638
-0.077776
0.0382705
0.0395054
-0.00214542
-0.000259253
0.000320686
0.00208398
-0.0386454
0.0416339
0.00760105
-0.0105896
0.0469057
-0.0547055
0.0077998
-0.0606885
0.0337736
0.045245
-0.01833
0.00449623
-0.00249503
-0.00179954
-0.000201662
-0.00319665
-0.00258182
0.000521207
-0.0421037
-0.042018
0.0462491
0.0142334
0.00228801
-0.0627705
0.0023171
-0.000321868
-0.00193651
-5.8719e-05
0.00289475
0.00417287
-0.00694449
-0.000123126
0.00716354
0.021894
-0.0400306
0.0109731
-0.0191256
-0.0154409
-0.00917006
0.0437366
-0.0755165
-0.0106563
0.0305236
0.0556493
-0.00172781
0.014901
-0.00827335
-0.00489981
-0.0528989
0.00041571
0.0333576
0.000173489
0.0251
-0.135395
0.126178
-0.0158836
0.0287468
-0.0343447
-0.0516643
-0.0271311
0.0548729
0.000136041
0.0399387
0.00317674
-0.0432515
-0.0556661
-0.0598887
0.115555
-0.00309519
-0.0010751
-0.00172451
0.0058948
0.00319257
-0.00472047
0.00171866
-0.00019076
0.0362598
-0.00565339
-0.0282448
-0.00236155
-0.00317817
-0.00229311
0.00237608
0.00398355
-0.0117001
0.0663948
-0.0586782
0.0760809
2.96062e-05
0.0279545
0.00922199
-0.00623203
-0.0309445
0.0586771
-0.000554529
-0.0581226
-0.0528572
0.113497
-0.0284371
0.0597506
0.0201145
-0.051428
-0.0155108
-0.0252624
0.016732
0.0240412
0.00321987
0.00368353
0.000786938
-0.00769034
-0.033898
-0.0382208
0.0992965
-0.0271777
0.0438643
-0.0356244
-0.000111614
-0.00812825
-0.0512071
0.11516
-0.0498661
-0.0140865
-0.00147782
0.00177028
-0.000183732
-0.000108732
-0.000957825
0.0217439
-0.00439376
-0.0163923
0.00287175
0.00392819
1.99584e-05
-0.0068199
-0.000252427
-3.6976e-05
-3.2455e-05
0.000321858
3.53952e-05
5.90737e-05
-0.000346896
-0.00877907
0.0223893
0.070359
-0.0839692
0.0805465
-0.0798783
-0.000668204
0.000310719
-0.000361748
5.10289e-05
-0.0128536
0.000948795
0.00224455
-0.00138148
-0.00181187
-0.00785918
-0.00537532
0.00508997
0.00814452
-0.0557709
0.0273339
0.000226852
0.000292667
-0.00080558
0.000286062
0.0341427
0.0542906
-0.0344147
-0.0540186
0.0126198
0.158141
-0.179516
0.00875512
0.0583401
0.0634745
-0.062064
0.0019626
-0.0131356
-0.0017592
0.0129322
-0.033382
-0.0301055
0.0634875
0.03114
-0.064522
-0.0544134
-0.0445676
-0.0653502
0.164331
0.0502232
-0.0562913
0.00606809
-0.0728812
0.134605
-0.071027
0.0329736
-0.0302317
0.0853039
-0.00393408
-0.0685346
-0.0128353
0.070279
-0.071014
0.011011
-0.010276
-0.000104316
-0.00609494
0.00740393
-0.00120468
0.00210947
-0.00558374
0.00648726
-0.00301298
-0.000209865
0.000141436
0.000742463
-0.000674033
0.0222587
0.02285
-0.0338533
-0.0112554
-0.00516783
-0.00523883
0.00614759
0.00425907
-0.0109257
0.0320431
-0.0427221
0.0216047
0.000995319
-0.00854079
0.0109897
-0.00344428
0.0492671
-0.0042557
-0.0450114
0.0380948
0.0355402
-0.126565
0.0529298
-0.0979116
0.0599349
0.0760715
0.0330098
-0.0997814
-0.0467923
0.108044
-0.0373036
-0.023948
0.00172872
0.00888376
-0.0122981
0.00168565
0.0281094
-0.00312563
-0.0249838
-0.030521
0.0436636
-0.00358535
0.0199869
-0.0315793
0.00111784
-8.7994e-05
0.000980575
-0.00201042
0.0118125
-0.0385108
-0.00105828
0.000193224
0.000342686
0.000522373
0.00267888
-0.000290382
0.0009843
-0.00337279
-0.000991389
-0.00219744
-0.077928
-0.0132702
0.00149116
-0.0117864
0.0235655
0.0204795
-0.0908195
0.020501
0.049839
-0.00320713
0.0581259
-0.0821402
0.0272215
0.0010652
-0.000733852
0.000896197
-0.00122755
0.0789024
0.0125855
0.00213365
-0.0936215
-0.000839694
-0.000771594
0.00191184
-0.000300548
0.00494185
-0.00052613
-0.0699302
0.0655145
0.00646564
-0.000909647
-0.00479865
-0.000757349
0.00636172
0.00442822
-0.00352628
-0.00726366
-0.1109
0.0968626
-0.0877747
0.101812
-0.0550387
0.10979
-0.0547516
0.00238854
-0.0443267
0.00922652
0.0327116
0.00356426
-0.00359222
0.000812938
-0.000784975
0.0492762
-0.00315871
0.00147874
-0.129563
0.0028649
0.0738409
-0.0334232
-1.57256e-05
0.00147936
0.0306832
-0.0250445
-0.00711804
0.0781706
-0.0307529
0.0341993
0.00401739
-0.00496525
0.000197311
0.000750551
0.0335851
0.0232518
-0.0741938
0.0173569
-0.000130073
-0.000132993
0.000290298
-2.72313e-05
-0.000403553
0.00150914
0.00525613
0.000161854
-0.0078476
0.00623719
0.0056278
0.0746223
0.0407828
-0.0370717
-0.0783334
-0.131702
0.140826
-0.00827884
-0.000845954
0.0315247
-0.0322632
0.000738493
-0.0360782
-7.93119e-05
0.000327275
-0.00305819
-0.00223434
0.0148231
0.206631
-0.1589
-0.062554
0.0289677
-0.0606544
-0.0175149
0.0492015
-0.00309211
0.0392251
-0.000705749
-0.0858446
0.0473252
-0.0227385
0.00991211
-0.0379974
0.047651
0.0463135
-0.0559671
-0.0667271
0.089016
-0.151803
0.129514
-0.000166165
0.00011555
-0.00145398
0.00150459
0.000233449
0.00220824
-0.000660429
-0.00178126
0.0443516
-0.0155827
0.0394171
-0.0681859
-0.00350222
0.000377037
0.00327944
-0.000154259
-0.011866
0.0108818
-0.0370132
0.0121604
-0.0463298
0.00585644
-0.00312594
0.0181842
-0.0209147
-0.134296
0.0175474
0.127123
-0.0103746
0.0382156
-0.0254862
-0.0176868
0.00495737
0.0344001
-0.0532467
0.00698049
0.00464692
0.00763893
0.0517677
-0.0640536
0.0248293
-0.00707696
-0.0248687
0.00711635
-0.0791366
-0.0082607
0.0149559
0.00121947
-0.00102332
3.72977e-05
-0.00164904
0.00236176
0.00164642
-0.00235915
0.018469
-0.0319755
0.0383358
0.0178626
-0.14359
-0.0224861
0.148214
-0.112148
-0.0152267
0.0258226
0.101552
0.0570855
-0.035566
0.0292685
-0.0507881
0.110485
-0.00633474
0.0041518
-0.108302
-0.0170699
-0.0370332
-0.00414728
-0.0159119
0.00777718
0.012282
-0.00135803
0.000509278
0.000105544
0.000743205
0.0152245
-0.0772436
0.0620191
0.108547
-0.00733249
-0.112532
-0.0264056
0.055309
-0.0459733
0.0398549
-0.122179
0.0146115
0.0677122
-0.0041695
-0.0122987
-0.0272002
0.0436685
0.0034087
0.0492663
0.083458
-0.130979
-0.00174491
0.049226
-0.0829758
0.0893665
-0.0556167
-0.0965909
0.0954817
-0.00650672
0.00761595
0.00174742
0.00415679
-0.094196
0.0882918
-0.00158824
0.00357951
0.00596005
-0.00795132
0.000187177
-0.000898575
-0.00027018
0.000981578
0.0882404
0.000708654
-0.0174987
-0.0714504
-0.000703259
0.000816951
-0.000343544
0.000229853
0.000913838
0.0032884
-0.00232357
-0.00187867