/*--------------------------------*- C++ -*----------------------------------*\
| =========                 |                                                 |
| \\      /  F ield         | OpenFOAM: The Open Source CFD Toolbox           |
|  \\    /   O peration     | Version:  2506                                  |
|   \\  /    A nd           | Website:  www.openfoam.com                      |
|    \\/     M anipulation  |                                                 |
\*---------------------------------------------------------------------------*/
FoamFile
{
    version     2.0;
    format      ascii;
    arch        "LSB;label=32;scalar=64";
    class       volVectorField;
    location    "0.0381003";
    object      U;
}
// * * * * * * * * * * * * * * * * * * * * * * * * * * * * * * * * * * * * * //

dimensions      [0 1 -1 0 0 0 0];

internalField   nonuniform List<vector> 
47425
(
(10.131 0.0972768 -0.0419998)
(10.0257 -0.0854451 0.0180891)
(10.0592 -0.0473913 0.00540668)
(11.2222 -0.488702 -0.183372)
(12.1361 0.718918 0.657369)
(10.1302 -0.0249336 0.00931553)
(12.0514 0.529444 0.61193)
(10.1117 -0.0198306 -0.00298105)
(10.0092 0.00886699 0.00191942)
(3.92482 6.28979 -0.614914)
(10.0779 -0.011288 -0.0088031)
(9.90173 0.14219 0.0301073)
(11.8897 0.483696 0.170675)
(10.0548 -0.0324886 0.0135724)
(10.7032 0.445092 -0.118022)
(9.96083 -0.159576 -0.0215188)
(10.0687 -0.042583 0.0200205)
(8.66544 -0.440567 -1.33013)
(8.52124 1.13237 -4.70921)
(13.0473 -0.505733 -0.944204)
(10.7248 -0.652224 -0.481633)
(9.78111 -0.0746458 0.0263252)
(9.98798 0.0748037 0.00654183)
(10.0656 -0.00709933 0.0479623)
(9.92422 -0.138934 0.0320342)
(9.97738 0.060779 -0.0120503)
(9.9876 0.040398 0.0227096)
(11.2467 -0.293441 -8.31485)
(10.0107 0.0292189 0.0263744)
(10.0513 -0.00168171 -0.044247)
(9.70531 0.758444 0.122602)
(9.96089 0.0581246 0.00671152)
(10.0054 -0.00574595 0.000472601)
(9.99481 -0.0100457 -0.0201695)
(9.95926 -0.0255953 -0.0398794)
(9.96045 0.0055107 -0.0293161)
(9.71279 -0.0876978 -0.0165053)
(9.9991 0.0179647 0.00802904)
(10.5445 0.310224 0.0024316)
(10.002 -0.0127268 -0.0124178)
(9.89115 0.0876144 0.0317668)
(9.22992 0.288385 -0.709402)
(7.4693 -1.16899 -0.790892)
(9.98605 0.014058 0.00565167)
(-0.0388072 0.173248 1.76662)
(10.0764 0.0260153 0.0186644)
(9.97497 -0.0348732 -0.0588762)
(9.99719 0.0477969 -0.00189776)
(10.0269 -0.00729304 -0.00987588)
(10.0356 -0.00356161 -0.0368334)
(2.03252 -0.618513 -5.48894)
(9.11327 0.997885 1.44126)
(10.0319 0.00454249 0.0188207)
(6.80149 -6.03138 2.981)
(10.0217 0.0308817 -0.02827)
(10.1525 0.0474286 -0.0151574)
(10.122 -0.0753906 0.0149413)
(10.0952 -0.0122804 0.0260827)
(12.5861 1.00023 1.38921)
(10.0098 -0.00962097 0.0297526)
(4.80519 -5.91266 2.42305)
(4.89621 0.00417222 2.6131)
(6.1956 -6.49405 1.46633)
(9.15587 -1.10168 0.0519433)
(10.007 0.00970745 -0.00658713)
(10.6849 -0.234935 0.0749205)
(10.0131 -0.0253642 -0.00753932)
(10.6291 0.0823338 0.443872)
(8.56801 -6.46506 3.12423)
(9.07912 0.550596 0.392522)
(10.8478 -0.412104 0.180203)
(9.99385 0.0191349 0.0620604)
(10.732 -0.00632587 0.00866297)
(10.6641 0.258427 -0.580109)
(6.30044 4.14941 1.39826)
(9.99843 -0.00520747 0.00450521)
(6.77765 -6.21616 2.35003)
(9.99961 -0.00242875 0.0153932)
(8.44141 -5.60896 2.75741)
(11.5919 0.421273 1.7089)
(6.6635 3.33752 1.47917)
(10.1867 0.267438 0.075727)
(9.23754 0.0892049 -0.173675)
(10.0083 0.0499804 -0.00332673)
(9.9081 0.00103988 -0.00781732)
(10.1206 -0.045607 0.0329861)
(10.5438 -0.206635 -0.00832803)
(10.1231 0.0410726 -0.00570126)
(10.5934 0.942928 -1.69304)
(10.7167 -0.0358715 2.51127)
(9.79581 0.394975 0.0566339)
(10.5957 -0.039028 0.0232453)
(10.0588 0.0495195 -0.00366337)
(10.0125 -0.0175346 -0.00300933)
(9.97185 -0.0240711 -0.00170577)
(9.98936 -0.00179104 0.0045933)
(10.0373 -0.00469558 -0.0491233)
(10.1629 -0.227998 -0.0362528)
(10.1121 -0.0366857 0.0289877)
(9.9474 0.00961106 -0.0108425)
(10.1018 0.0170345 -0.0484438)
(8.63554 0.0868455 -3.80532)
(10.2315 0.174843 0.0711217)
(5.36653 1.91792 -0.484961)
(10.2523 0.0491084 0.00168317)
(10.3021 -0.68796 0.147238)
(10.0585 0.0948448 0.0326273)
(10.0264 -0.0411241 0.0376575)
(9.69771 -0.0307751 0.0356722)
(9.88842 0.132627 0.0651184)
(-3.96715 -1.72004 0.113334)
(10.1084 -0.0934232 0.0356234)
(10.2355 -0.880831 0.264298)
(10.1502 -0.0083558 0.0146669)
(10.6583 -0.455068 0.161293)
(1.74018 -4.26978 -5.45132)
(10.6552 -0.426339 0.121984)
(4.08965 0.0483341 -4.00555)
(10.2968 0.188397 -0.0177504)
(10.8427 0.271577 0.465495)
(10.2149 -0.0224226 0.00629651)
(10.0015 -0.00080984 0.00517462)
(10.0038 0.0552861 0.0233931)
(11.5596 0.843348 -0.646809)
(10.0715 0.00424569 0.012598)
(10.4998 -0.850467 0.280998)
(10.0479 -0.0757976 -0.0110763)
(10.0058 0.00372822 -0.00720165)
(9.97636 0.000718957 0.0346279)
(10.0106 0.00632352 -0.0123028)
(9.30051 -0.249314 0.389366)
(10.097 0.376528 -0.0352874)
(4.33409 0.0258015 0.880467)
(10.4068 -0.364144 0.0581422)
(9.55715 -0.283743 -0.632682)
(11.7457 -0.516433 -0.775849)
(10.9596 0.636209 0.249241)
(10.5389 -0.840344 0.418318)
(10.1481 -0.0599628 0.0187877)
(10.8918 0.171167 -0.0481981)
(10.0102 -0.0300849 -0.00671511)
(12.4041 -0.00680309 0.0432689)
(10.4777 0.0336374 -0.0692349)
(10.3149 -1.17988 0.418447)
(10.1335 0.219153 0.00585999)
(10.007 0.00582462 0.00435251)
(11.7691 0.0870598 0.842116)
(10.0734 -0.00511466 -0.049389)
(10.452 6.73225e-06 -0.0301941)
(9.98188 -0.00568781 -0.00195353)
(10.2224 -1.22101 0.276486)
(2.97588 -0.389731 -6.47394)
(10.0174 0.0218269 0.00355108)
(5.66267 0.105918 -11.0267)
(8.96718 -1.12541 -0.595273)
(9.99383 -0.00294427 -0.0109039)
(10.7404 0.397653 -1.55185)
(7.51726 -3.67701 -2.48856)
(9.95367 0.0254446 -0.000191653)
(9.95934 -0.0173303 -0.0147181)
(10.9128 -0.388064 0.178317)
(9.9553 0.0815976 -0.042904)
(10.0327 -0.01204 0.0553743)
(10.1389 0.265412 0.0139324)
(11.9156 0.101094 -0.344041)
(0.928933 -1.80997 -1.9807)
(9.95065 -0.0293424 -0.0273617)
(6.73041 3.87423 1.34402)
(9.94261 0.00307834 0.0323579)
(11.9835 0.589121 -3.94177)
(7.77687 3.17484 0.977801)
(10.0374 -0.000902007 -0.0278645)
(10.0195 0.0305114 0.00112368)
(9.42343 -0.945858 -0.543652)
(10.1155 -0.00486244 -0.00058023)
(9.25349 -2.99839 -1.10177)
(2.7403 0.87961 -7.17017)
(10.0009 0.0371782 0.0230171)
(10.0282 0.0144841 0.0420603)
(10.0516 -0.0324321 0.0264795)
(2.54945 0.348938 -10.4687)
(10.0066 -0.0629204 -0.00311814)
(10.02 0.0239332 0.0266965)
(9.96377 0.0110646 0.0180237)
(10.0113 -0.0634907 -0.0105564)
(10.0503 -0.0295615 -0.0195549)
(10.1823 0.0494146 -0.0374488)
(5.63651 -0.423068 -0.325144)
(9.93418 -0.015481 -0.0632296)
(10.0657 0.0783389 0.0245239)
(10.0018 -0.00448574 0.00665767)
(10.0158 -0.0254512 0.0312508)
(11.9587 0.156226 -1.13117)
(9.99867 0.0038055 0.00477703)
(9.9567 0.000235563 0.0229954)
(10.9102 -0.177336 0.0659031)
(10.0045 0.000845953 0.00604728)
(9.9784 -0.0146632 -0.0376103)
(11.0853 -0.164109 0.118294)
(10.1396 -0.190353 0.0461833)
(10.0188 -0.0524843 0.030071)
(10.3096 -0.0657871 0.0088766)
(9.86363 0.0548836 0.0982933)
(10.8359 -0.286377 0.0632548)
(10.1559 -1.4585 -0.771036)
(10.4888 -0.0128629 0.0524027)
(10.0232 0.0128566 0.0253169)
(10.8382 -0.209813 0.0541333)
(10.0384 0.146974 -0.0262857)
(9.99766 0.0197502 -0.00553241)
(10.1363 -0.111299 -0.0108718)
(10.9318 0.112939 0.0354149)
(10.0086 0.0674373 -0.00566842)
(10.0691 -0.0811351 0.0312987)
(10.49 -0.0396137 0.0170519)
(11.0927 -0.246923 -0.145028)
(10.6639 0.0147109 -0.0154954)
(10.2828 0.52348 1.25374)
(8.72734 -1.23295 -0.503464)
(10.0214 -0.00276228 0.0115992)
(11.5262 -0.0809085 2.05247)
(10.9075 0.0609376 0.124859)
(9.65611 -1.35717 -0.639289)
(10.6385 0.0194259 0.0487644)
(10.4834 -0.00234119 0.0533849)
(11.5796 -0.358446 2.00246)
(10.0595 -0.00727243 0.00975129)
(11.0049 -0.208495 -0.0808211)
(11.1215 0.447183 0.303024)
(11.6862 0.606489 -0.221751)
(10.669 0.00113154 -0.0395296)
(9.95449 -0.0222098 0.00139104)
(10.2663 -0.101072 -0.00528835)
(10.0022 -0.00095386 0.00171091)
(9.95396 0.0221079 0.00363242)
(9.91124 0.168368 -0.0196306)
(11.4223 0.556939 1.79787)
(9.93333 0.0139048 -0.0121332)
(11.7345 0.53706 1.59926)
(9.8968 -0.00437646 0.0334842)
(9.92835 0.00831367 0.0400776)
(10.0129 0.00275968 -0.0238263)
(10.0114 -0.0167993 0.0179941)
(11.726 0.347843 -0.0490273)
(10.4325 0.335282 0.0653483)
(10.0019 -0.00952449 0.0148745)
(10.1997 -0.0228025 0.0158758)
(9.99372 -0.0143055 0.0184494)
(10.0058 0.00734637 -0.0292063)
(9.91075 0.0180289 -0.015627)
(10.003 0.0349659 0.0232613)
(11.5615 0.07013 1.78515)
(9.98651 0.00142164 -0.0378101)
(10.0025 0.00164421 0.00692262)
(9.97098 -0.0501574 0.00891352)
(9.94203 -0.0198102 0.0428258)
(9.86638 0.106386 0.046302)
(9.87852 -0.0328981 -0.0258368)
(10.5207 -0.54535 0.155708)
(10.0139 0.00264722 -0.00416065)
(9.82595 -0.00828728 -0.0257267)
(9.99023 -0.00688942 -0.00930692)
(10.156 0.0842154 -0.0293685)
(10.2016 0.0318056 0.00553397)
(11.4892 0.301617 0.677584)
(9.91929 -0.366362 -0.0528764)
(9.95459 0.0288981 -0.0194801)
(11.5635 0.303539 0.524348)
(9.95778 -0.0100642 -0.00471054)
(10.2013 0.0989755 -0.0387495)
(10.1523 0.0782801 -0.00789991)
(11.7842 0.655133 1.26581)
(11.2506 0.687243 1.49027)
(10.2188 -0.103447 0.00721158)
(11.6342 0.365704 1.61705)
(10.1186 0.0214504 0.0386693)
(11.7013 0.513846 1.44577)
(6.85446 3.23926 2.51413)
(11.2128 0.581877 1.57493)
(5.83951 1.2131 -4.87652)
(3.80732 -5.6665 2.25234)
(10.1553 0.0911126 -0.0438303)
(3.63409 -6.14577 1.54719)
(9.91347 0.0161533 -0.0392559)
(10.0004 -0.0236376 -0.0495201)
(11.0876 -0.153101 0.100945)
(9.94018 -0.00872315 -0.0245541)
(10.0053 -0.0573021 0.0087062)
(9.94512 -0.0834081 0.013352)
(10.6173 -0.635336 0.0563485)
(1.40951 1.7473 -3.21205)
(9.19007 0.799155 0.161639)
(10.0028 -0.00140488 -0.00217811)
(9.934 0.0339813 0.0268497)
(10.036 -0.0727525 0.00242583)
(10.6534 0.232173 0.452703)
(11.8149 0.4513 0.112591)
(10.2206 -0.568497 0.196254)
(10.0828 -0.122405 -0.0271423)
(11.6266 -0.0159383 0.404927)
(9.94983 0.122017 0.012076)
(10.11 0.0140022 0.0876282)
(9.99929 -0.055011 -0.00957811)
(10.0397 -0.0847852 0.0077211)
(11.8877 3.82887 0.0258581)
(6.93779 1.75066 0.578061)
(1.45682 1.20875 -5.97031)
(9.9144 -0.0053718 -0.0104235)
(10.0603 -0.0805413 -0.0155232)
(10.04 -0.586259 0.0525489)
(10.1188 -0.491294 -0.125965)
(1.15992 -0.679368 -5.4938)
(10.0066 -0.0289515 -0.042631)
(9.99719 -0.0277174 -0.0377774)
(10.7862 2.62355 1.57278)
(10.0553 -0.0805574 -0.0060887)
(9.91376 0.0474893 -0.0216478)
(9.8359 0.0556045 -0.0157268)
(9.94351 0.00866489 0.006065)
(13.4096 1.59236 -0.354696)
(11.0476 2.32859 1.47088)
(10.0149 0.155288 0.0598488)
(10.1595 0.108428 -0.0638408)
(10.0082 0.000701049 -0.0871631)
(10.1582 -0.0406794 -0.00776881)
(10.0413 0.0324639 -0.0272356)
(9.96792 0.169935 -0.00396968)
(10.0395 0.0789035 6.48943e-05)
(10.0403 -0.0229692 -0.0203199)
(10.0182 -0.0228715 -0.0418839)
(11.1557 0.075425 0.294177)
(11.5058 -1.19363 0.841583)
(10.3709 -0.720495 -1.17311)
(9.985 0.0222067 0.0173832)
(9.96301 0.000731306 0.00726628)
(9.96416 0.023164 0.0499446)
(11.4301 -0.578974 0.882317)
(9.90816 0.135529 -0.063847)
(10.0693 -0.0243875 -0.0107724)
(9.98886 -0.0413039 -0.00814535)
(10.0601 0.243972 0.0577168)
(10.0558 0.258947 0.048829)
(10.0786 0.0183241 0.0191129)
(9.86764 0.227938 -0.0323963)
(10.0317 0.00258878 0.00692704)
(9.92949 0.0101129 -0.0471358)
(10.0968 -0.0340009 0.0267476)
(9.65317 0.38594 -0.104724)
(9.99274 0.037212 -0.0277399)
(9.99734 -0.02326 -0.0126373)
(10.0387 0.230265 0.0446025)
(10.3926 -0.401382 -0.0232724)
(10.0738 0.216774 0.0338392)
(9.92119 0.218949 0.00927709)
(10.0392 0.198223 0.0619508)
(11.2419 -1.12066 -0.00124538)
(9.98153 -0.00185043 -0.0375301)
(9.32382 0.21355 0.185694)
(9.94704 0.198947 0.0285573)
(10.0158 0.0356455 -0.000820971)
(9.95646 0.212045 2.09182)
(11.1103 -0.565849 -0.49176)
(10.0493 -0.0204867 0.00616825)
(9.98039 0.0152894 -0.0305734)
(10.3704 -0.332712 0.0816657)
(10.3284 0.416097 -0.0285191)
(9.86863 -0.000365256 0.00453473)
(10.0186 -0.000720044 0.0144295)
(10.0642 -0.11425 -0.0123569)
(10.1529 0.682225 -0.104273)
(9.89895 -0.00200146 -0.0101986)
(-0.745833 0.822197 0.434289)
(10.4921 -0.0595989 0.048421)
(10.0664 0.884589 -0.0726069)
(9.9797 -0.00488871 0.0071735)
(10.0552 0.778324 -0.0608877)
(9.94248 -0.276978 -0.801839)
(9.97487 -0.0373488 0.0186108)
(10.0041 0.00493587 0.00362083)
(9.75453 -0.0819825 -0.00520943)
(10.0128 -0.000798266 0.00484122)
(10.0256 0.801699 -0.106352)
(10.1303 -0.0493194 -0.0126903)
(10.0161 0.0233 -0.00954764)
(9.98411 -0.06638 0.00899503)
(10.0043 0.0200275 0.00198763)
(9.98928 0.0369908 0.0101428)
(10.1343 0.189255 0.0592843)
(10.0159 -0.0163966 -0.00340318)
(10.0012 -0.00290846 0.0146458)
(10.4443 0.864074 -0.258834)
(10.2886 1.07384 -0.299194)
(10.0237 0.0193276 0.0281568)
(10.5212 -0.377417 0.0852451)
(9.96287 -0.0394361 -0.00801859)
(10.3675 0.807362 -0.233491)
(9.98125 -0.0303767 0.0441546)
(9.92152 0.0235943 0.0103646)
(12.0082 -0.200773 -0.656444)
(9.98266 0.00917444 0.0169682)
(10.3956 -0.918311 1.66952)
(9.99468 -0.028688 -0.0126447)
(11.1577 -0.208543 -3.41833)
(9.99831 -0.0207789 0.0116195)
(10.5184 0.144349 -0.00739567)
(9.94657 0.00467937 -0.035172)
(10.0155 -0.0280164 -0.0362659)
(9.82574 -0.00590347 0.0141322)
(10.077 0.00624751 0.00989965)
(10.0007 0.0106499 -0.0744211)
(10.2746 0.951431 -0.23251)
(1.96985 -1.99606 2.2342)
(2.12896 -0.556953 -2.32059)
(10.0454 0.0269382 0.0189665)
(10.3054 1.49406 -0.755286)
(10.6117 0.702108 -0.291595)
(10.6992 0.657166 -0.285117)
(9.98218 0.0017496 0.00978252)
(9.99944 -0.030761 -0.0106381)
(9.9868 -0.0121935 0.00232826)
(9.96065 0.0169658 -0.00239101)
(9.96725 -0.0668771 0.021129)
(10.1525 -0.166103 -0.0205539)
(10.7034 0.590754 -0.186945)
(9.98307 0.00143108 0.0323731)
(10.0469 0.00538859 0.00528074)
(11.0545 -1.3191 0.544842)
(11.3277 0.545125 -0.190325)
(10.9787 0.533045 -0.0696541)
(8.03638 -1.31113 -4.73593)
(-0.0316916 5.74593 0.750371)
(10.3625 -0.253872 0.0512293)
(7.39059 -0.983251 -5.23727)
(-0.0161537 5.47064 1.08468)
(9.95771 -0.134038 0.0102)
(-0.148226 5.75291 0.933311)
(8.80724 -1.91637 1.52468)
(10.0292 0.0648049 -0.00677579)
(10.9205 0.640803 -0.297701)
(10.8729 0.684445 -0.324186)
(11.1295 0.616108 -0.308528)
(-1.23373 5.12323 1.28614)
(10.0839 0.129206 -0.00963803)
(9.98313 0.038294 -0.0265649)
(10.0187 -0.0671221 -0.00229989)
(11.1872 0.655728 -0.419038)
(11.0726 0.686076 -0.472394)
(10.0304 0.00426317 0.0142624)
(10.0754 0.0651602 -0.00318808)
(9.89725 3.76471 3.26385)
(-1.16693 4.95424 1.23082)
(12.5874 -0.356859 -2.86389)
(10.0106 -0.0043675 0.00557875)
(8.66024 -0.703278 -3.03986)
(10.0836 0.0456039 0.934635)
(9.97297 -0.000334207 -0.00404863)
(10.8113 0.332158 -0.0197684)
(11.7245 0.414864 0.218948)
(10.7938 0.230283 -0.0083397)
(10.0058 0.00188677 0.00279245)
(9.99944 -0.00317396 0.00705095)
(9.98315 -0.00460232 0.00103393)
(10.4609 0.302078 0.00448296)
(9.99866 0.00261694 -4.63649e-06)
(9.98637 0.00573074 0.030208)
(10.1033 0.0979499 -0.03522)
(9.94154 -0.00694302 0.00966425)
(10.9393 0.0823231 0.0267491)
(10.0375 -0.0304549 -0.0216691)
(10.0333 -0.0183009 0.0125125)
(10.0127 -0.000637154 -0.00229489)
(10.0073 -0.00486896 0.00720005)
(9.93694 -0.0632099 0.0237118)
(10.3898 0.256147 -0.00234742)
(10.192 0.0238815 -0.045164)
(9.99502 0.000448026 0.0467684)
(10.8679 0.0905199 0.00783514)
(9.34305 4.53855 2.73551)
(9.952 -0.0411988 0.0344754)
(11.8154 1.65018 -1.24505)
(10.0016 -0.0151385 -0.00692383)
(10.6532 -0.250686 -0.032801)
(7.09111 -0.571964 1.11587)
(9.76012 1.40959 -0.492108)
(9.97639 0.0381576 -0.0421187)
(9.83557 1.48985 -0.548852)
(10.0124 0.0163127 -0.0570565)
(10.081 0.0355357 0.0793396)
(10.0344 1.29661 -0.788936)
(9.9721 -0.0126301 -0.00669078)
(10.503 -0.187983 0.0396494)
(9.91803 1.17627 -0.532557)
(10.2056 -0.0641285 0.0515476)
(10.4376 -0.00731769 -0.251626)
(8.1154 0.289399 -3.87916)
(10.0205 0.0183397 -0.0283516)
(9.66246 1.8513 -0.473644)
(10.0277 0.0110217 0.0386391)
(9.06032 2.00463 -0.869975)
(10.0461 -0.0821821 0.0219614)
(9.98402 -0.0534191 -0.0214018)
(9.98284 0.0292183 -0.0118389)
(9.97534 0.0119851 -0.0245366)
(10.9643 0.748363 0.825026)
(9.97816 0.00713934 -0.042556)
(9.97345 0.0181737 -0.0125543)
(10.0543 -0.00963664 0.0149898)
(10.0094 0.0189819 -0.017125)
(11.0705 0.419946 0.0345451)
(10.1309 -0.0155846 0.00740534)
(10.0928 -0.0104053 -0.00354473)
(8.66114 0.252765 -0.492448)
(9.96786 -0.0201026 0.0646563)
(9.88365 0.0443212 -0.00331794)
(10.0301 -0.106666 0.036108)
(10.0158 -0.0809056 -0.0541369)
(10.1279 -0.0313914 0.0198697)
(10.0087 -0.0100424 0.00497636)
(10.1319 0.0318971 -0.0330391)
(10.2844 1.34624 -0.932438)
(10.0115 0.0110678 0.00459188)
(9.9885 0.00488279 0.000892946)
(2.88578 -0.400614 -5.49428)
(10.0382 -0.000484509 0.0201718)
(10.0237 0.0499924 0.00557694)
(10.0602 0.120717 -0.00903195)
(10.0053 0.0117164 0.00302344)
(12.5746 1.19423 -0.173344)
(12.6717 0.833172 0.130803)
(9.95161 -0.0597525 -0.0313646)
(9.94264 -0.0533589 0.038675)
(9.92147 0.0131133 0.0146969)
(11.2292 -0.293513 1.07975)
(9.99178 0.0565789 -0.00854655)
(12.6044 1.40435 -0.207638)
(9.99661 0.000173104 -0.00145058)
(-0.31035 -2.02741 3.23983)
(8.12767 -0.431972 -0.538264)
(9.35589 -0.783264 2.04678)
(10.0532 0.00119125 0.00180875)
(12.5503 1.29539 -0.129334)
(10.06 0.00841722 -0.038844)
(10.0813 0.0878057 -0.00931337)
(10.0418 0.0162614 -0.0424275)
(9.88917 0.0220208 0.0811569)
(10.0305 -0.0115098 -0.0239534)
(10.0866 0.00785752 -0.0183862)
(7.88968 -0.744389 0.378739)
(9.99915 0.0118809 0.00607678)
(9.94859 0.0394078 0.00854152)
(9.97579 -0.0422331 0.00607216)
(12.5047 1.17769 -0.123048)
(10.0445 -0.0169933 0.0388058)
(10.0362 0.0285136 0.0136067)
(12.3205 1.22916 -0.213558)
(12.2131 0.532836 0.139288)
(10.0204 0.0155126 0.0194905)
(10.0235 -0.00791922 -0.00222533)
(-0.404485 1.88501 1.14208)
(10.0182 0.0393114 -0.0327614)
(10.4495 -0.320784 0.137847)
(9.94546 0.0291574 0.0393152)
(10.0596 0.042473 0.0330385)
(10.0531 -0.0090333 0.0148199)
(11.9024 0.665571 -0.0754215)
(11.0756 -0.191879 1.2667)
(9.35498 0.620469 0.907577)
(9.9528 0.0320108 0.0735758)
(10.0089 0.00509595 0.0229936)
(9.98769 0.0340348 -0.0128516)
(12.5892 -0.358151 0.852764)
(9.29244 0.117702 -0.359248)
(9.8915 0.0153623 -0.0786546)
(-0.25395 1.8708 0.825675)
(9.9523 -0.0160108 0.0121694)
(10.0054 0.00526686 0.0365436)
(-1.27183 1.7194 1.23652)
(11.8938 2.04636 -1.08711)
(9.82416 0.132779 0.0277013)
(0.0502288 1.95794 0.631085)
(-0.0370714 2.01282 1.06883)
(10.0204 0.0195077 0.0121518)
(9.99087 -0.018556 0.0038505)
(10.0522 -0.0226848 -0.0353772)
(9.71814 -0.389734 0.0766521)
(9.98477 0.0155589 0.0141767)
(9.9338 0.0247751 0.00761884)
(11.8743 1.80418 0.60041)
(10.0964 0.24054 0.109872)
(9.97961 0.084987 -0.0138375)
(10.0788 0.00706229 -0.000341159)
(12.5643 0.510773 0.141668)
(11.8281 0.992961 -0.0829884)
(9.98433 -0.0268866 -0.0115876)
(10.2857 0.341233 -0.0846572)
(-4.74727 -2.40573 -0.669831)
(2.43651 -1.60983 -1.86083)
(10.6095 0.310704 -0.208191)
(9.9536 0.00513368 0.00872365)
(10.3072 -0.190523 0.18522)
(10.7951 -0.146716 -0.684722)
(9.91063 0.0222192 -0.0478113)
(9.90545 0.0340828 -0.0481973)
(10.0218 -0.000953178 -0.0161877)
(10.2714 0.18688 -0.0219536)
(9.98055 -0.00817003 0.00664187)
(10.6747 0.161859 0.242541)
(10.033 -0.0104443 0.0401681)
(12.6874 1.01852 -0.617181)
(10.2782 1.5334 -0.999162)
(10.5646 0.27649 -0.139079)
(12.7316 1.19623 -0.919473)
(10.1523 0.0624805 -0.069044)
(9.99915 -0.0255558 -0.0785007)
(10.5871 0.599712 0.151931)
(10.2033 -0.043624 0.0346343)
(9.99406 -0.00318038 -0.0202818)
(10.0161 0.00527799 -0.00119576)
(10.6904 0.803083 -0.42811)
(7.94663 -0.698091 -1.23481)
(10.024 0.00569612 0.0274735)
(10.6758 0.244735 0.0854488)
(9.99069 0.0687004 0.0337229)
(12.5518 -5.48005 -1.58192)
(10.65 -0.694636 0.969671)
(11.4077 -0.263253 0.691409)
(6.14953 1.37162 0.373382)
(6.02858 1.36084 0.233592)
(10.0451 -0.0442705 0.000262164)
(9.88772 0.0870475 0.0254583)
(5.16925 1.18996 -0.162503)
(10.0575 -0.0060002 -0.0101494)
(9.81997 -1.72363 -3.18399)
(7.22086 0.428558 1.50129)
(9.98596 1.28477e-05 -0.00484338)
(9.86324 1.53507 0.838654)
(10.0408 -0.08996 0.00436033)
(10.007 0.0289916 0.0112939)
(10.0306 -0.0088491 0.0141013)
(12.8422 0.390942 -0.0941709)
(9.97563 0.00846514 -0.00744692)
(9.98504 0.0019417 -0.00239036)
(10.013 -0.0150659 0.00169049)
(9.93553 -0.00893026 -0.0636187)
(10.0199 0.0224149 0.00413678)
(10.0521 -0.0234933 0.00232007)
(10.0092 -0.0317072 0.0604295)
(10.0271 0.0359929 -0.0270747)
(11.2072 0.754492 0.566802)
(10.2857 1.18318 -3.40713)
(13.5188 2.97641 1.12796)
(10.738 0.342868 0.0274963)
(9.86779 1.20598 1.41945)
(9.99223 0.00491479 -0.0259261)
(9.44807 -0.886966 0.164792)
(10.1216 0.023777 0.0117589)
(10.0002 -0.0107159 -0.00349136)
(10.0047 -0.00370964 -0.00695255)
(10.0007 -0.00122724 -0.00785661)
(9.99023 0.00893927 0.0168618)
(9.08172 0.282416 -0.830756)
(11.4743 0.427524 0.241544)
(9.98316 0.00791548 -0.00233946)
(10.2275 -0.455555 0.160753)
(11.7183 1.20954 1.85592)
(10.0283 -0.00882005 -0.0118197)
(5.09044 -0.968763 2.67012)
(12.7946 -1.00448 -2.63041)
(9.91978 0.0392561 0.00195179)
(9.48555 -0.52971 0.0879253)
(10.469 0.0258663 -0.0226599)
(10.0416 -0.0127754 -0.0323813)
(5.58275 0.681732 2.16208)
(9.97034 -0.00307768 0.0144855)
(8.85736 -4.45741 1.09914)
(10.1034 0.0121288 0.0160775)
(11.387 -0.393617 0.907064)
(11.7844 0.52295 -0.0443262)
(10.0065 -0.0236074 -0.0311644)
(9.97576 0.072323 0.00412736)
(10.2923 0.464293 0.0413016)
(8.50869 -0.534835 -2.10592)
(9.96041 -0.0522054 0.02705)
(10.0098 0.00178499 0.0448953)
(10.1385 0.00284529 0.0206972)
(11.7542 -0.0461318 0.610657)
(10.0007 0.00241636 0.00121604)
(11.9864 0.566077 0.258692)
(10.2498 -0.0161951 0.00246003)
(1.97519 0.0283913 0.860694)
(11.7299 0.459533 0.0523698)
(10.1916 -0.0071034 0.0106838)
(11.8226 0.513003 0.172586)
(10.0036 -0.00457845 -0.00158429)
(10.1048 -0.031894 -0.0329568)
(10.5137 0.319854 0.00984125)
(10.2394 -0.0228832 0.0124548)
(12.0066 0.622519 0.0912044)
(9.99581 -0.0211919 0.0163727)
(9.9972 -0.220532 0.0599935)
(11.8679 0.542413 0.00904779)
(10.0093 0.00204588 -0.000666413)
(10.2652 -0.0345045 0.00409619)
(10.0039 -0.00347781 0.00166744)
(10.0316 0.0128386 0.0053084)
(6.8192 0.367368 -4.86116)
(6.63511 -0.13083 -5.41054)
(9.94243 0.050752 0.421431)
(8.71353 0.342921 -3.94684)
(10.016 0.00195241 0.00996222)
(9.97749 -0.00821116 0.00122453)
(10.6752 0.603759 -0.22812)
(10.2626 -0.117056 0.0430173)
(9.52375 0.0937876 0.627353)
(10.0233 0.00728783 0.00717658)
(10.0245 0.0281539 -0.0311299)
(9.96318 -0.0291658 0.051909)
(9.95295 0.0772724 -0.0377736)
(5.23143 0.180842 -6.03832)
(2.49275 -1.86265 -0.451959)
(9.97695 -0.0169488 0.0341429)
(10.0236 0.079518 0.0168368)
(9.92401 -0.0465694 -0.0162203)
(9.93468 0.0181905 -0.0183074)
(10.1051 -0.0896672 0.0201768)
(9.98612 -0.0128881 0.0168716)
(11.0043 -0.16317 0.126937)
(11.5199 -1.44819 2.16185)
(10.0534 -0.0184341 0.00405021)
(10.0568 -0.00034412 -0.0242642)
(9.96668 -0.0151394 0.0400492)
(10.0066 0.00525573 0.0309306)
(9.82042 0.187326 0.0244416)
(9.95911 -0.0251133 0.0355555)
(10.4554 -0.169772 0.0236647)
(9.97407 -0.00478846 -0.0477095)
(10.0271 -0.0549653 -0.0340047)
(10.0659 -0.0184607 0.0215615)
(9.20961 -0.805044 -1.11356)
(5.11174 0.690483 -4.50156)
(9.97455 -0.0453879 0.00648755)
(-0.478998 -1.68641 0.913305)
(10.0633 -2.65426 1.39402)
(12.7743 -1.38535 -0.939859)
(-0.264482 -1.77455 0.636447)
(10.1206 0.0382632 0.0147089)
(7.08678 -0.231484 0.281984)
(10.3346 -0.475791 -2.40597)
(11.0369 -1.28993 0.440618)
(5.6317 0.281462 -3.52148)
(-0.496009 1.84076 1.95836)
(1.41494 0.508482 -3.19154)
(11.2856 -0.0193916 0.431395)
(10.5931 -0.0527573 -0.00351239)
(10.8551 -0.0159332 0.941176)
(9.97453 7.81896e-06 -0.0417545)
(3.80739 -0.264258 -0.0372158)
(10.6292 -0.0227718 -0.323971)
(10.508 -0.0214337 0.0173556)
(10.0061 0.00804843 0.00271882)
(10.0389 -0.0164082 0.00211006)
(11.2276 -0.310055 0.898833)
(9.88685 0.126855 0.0238191)
(10.086 -0.000992653 0.0372468)
(9.99017 0.0476376 -0.0146571)
(-2.29445 1.04555 0.57274)
(8.09109 0.283417 -2.30073)
(10.0465 0.00508526 -0.01985)
(9.98715 -0.00611221 0.00232093)
(5.06823 0.27335 -2.12906)
(5.92543 0.136057 -2.80933)
(10.8485 0.0932401 -2.08243)
(-3.33535 -3.91197 -1.2773)
(3.45716 1.15944 0.741564)
(4.14645 0.0240008 -3.59511)
(3.85277 -0.0527139 -4.46789)
(10.0123 -0.00111661 0.00268716)
(9.76948 -0.0115232 -0.00405707)
(9.48573 -0.0236768 0.143529)
(9.97997 -0.054405 0.0367074)
(10.4215 0.0449723 -0.0558784)
(-0.565635 1.87243 1.13362)
(10.752 -0.105758 -0.25478)
(10.4546 0.0346744 -0.0530012)
(10.399 0.0338734 -0.0424456)
(10.0707 -0.00219593 0.0444808)
(-0.388354 1.83266 2.06511)
(-0.288359 2.10955 2.07704)
(10.0046 -0.0191613 -0.0223173)
(10.4341 -0.0108737 -0.0425448)
(9.93958 0.0563148 0.0500066)
(9.95572 0.0052997 -0.0141541)
(10.4145 0.00971994 -0.0306333)
(9.99394 0.0197641 -0.00597096)
(9.66768 -0.0467104 0.0122701)
(10.0493 0.0220435 -0.050528)
(9.95166 -0.0129591 0.00798153)
(6.81521 -0.668359 -2.90502)
(9.97851 0.00358846 -0.0165414)
(9.9762 0.0365498 0.0468465)
(10.0417 -0.0797596 -0.00775394)
(9.92445 0.0487274 -0.0210233)
(9.95403 0.0145329 -0.0285699)
(4.16273 -0.502412 -2.14324)
(12.4313 -1.29976 -0.206868)
(10.0223 -0.0297451 -0.0301281)
(10.5929 0.404237 -0.199717)
(10.0659 -0.00271944 -0.0175588)
(9.81296 -0.357754 0.160316)
(9.77207 -0.426775 0.247855)
(11.8908 -0.0647894 -0.0460985)
(9.98798 -0.0178992 0.00237736)
(-0.673381 -1.16783 2.83668)
(11.9882 -0.127351 -0.0563525)
(10.4027 0.086881 0.0139906)
(10.6829 0.265347 -0.0328512)
(8.07456 0.320074 -3.20646)
(12.9152 2.30024 0.867317)
(10.0346 -0.0384733 -0.00633526)
(10.0397 -0.0350668 -0.00761686)
(12.0787 1.40746 1.9712)
(10.069 0.0113101 -0.0294869)
(10.0136 0.0269227 -0.0113413)
(11.1959 0.422854 0.366114)
(10.0212 -0.0430872 -0.00813276)
(9.9837 -0.000123493 0.00268537)
(-0.464924 0.0154502 2.86208)
(12.411 -0.0448107 0.303238)
(12.1288 2.98776 0.187936)
(10.003 0.000893029 0.00506203)
(7.62349 0.526485 -2.45049)
(9.93829 -0.00598306 -0.0308458)
(11.6886 -0.627428 -0.197508)
(9.62606 -0.412531 0.349556)
(11.9371 -0.0774861 -0.0188856)
(10.0258 -0.00609955 -0.0122002)
(9.43438 -0.436892 0.31457)
(0.179075 0.776295 3.15934)
(12.1351 1.51241 2.43037)
(12.1423 -0.380816 -0.786183)
(-1.18244 1.87436 2.28766)
(11.8675 0.358186 0.119657)
(10.3377 0.141956 0.0654021)
(9.91438 0.0226776 -0.0180779)
(11.9443 0.554248 -0.170561)
(10.0076 -0.041731 -0.00270351)
(12.06 -0.0815748 0.136365)
(-0.238733 -1.0134 1.89592)
(10.013 -0.0431606 0.00596943)
(12.4418 0.0326991 -1.17422)
(10.043 -0.00132281 0.0112512)
(10.0469 0.00301243 0.0243366)
(11.3254 -1.97078 1.24168)
(10.0714 -0.000921462 0.0424162)
(10.0657 0.0398578 -0.0807216)
(8.29301 -5.8153 0.362751)
(9.60949 0.40125 0.0720557)
(10.0286 -0.223611 0.052204)
(12.3591 -0.837221 0.257372)
(10.4369 1.34014 1.49095)
(10.0992 -0.0318814 0.0630754)
(11.8529 -2.32923 -0.557488)
(5.27669 -0.805808 0.104792)
(10.5286 0.0384809 0.0772284)
(9.56019 -0.698508 -0.759104)
(9.9947 0.0528404 -0.0115071)
(10.3042 0.138111 0.0171941)
(10.0767 -0.0189602 0.0608787)
(10.0336 -0.0202874 0.0149396)
(3.26045 2.11518 -1.86856)
(0.937503 -2.88635 1.71083)
(12.1459 -0.124353 -0.293858)
(9.87408 -1.57556 -0.227476)
(11.9015 -1.7889 -0.085973)
(2.31385 5.31553 0.703913)
(-1.83494 0.373957 -0.41184)
(9.94025 -3.52137 4.37548)
(10.0064 -0.0141747 -0.00610066)
(10.0076 0.0131621 -0.00607187)
(9.98712 0.00432716 -0.00260139)
(9.92828 -0.0907855 -0.105983)
(6.39194 0.625233 -2.50081)
(9.71925 -0.537394 0.235588)
(9.10318 -0.557748 1.2327)
(9.98611 0.0145793 -0.00523352)
(-1.36353 -1.29299 0.646293)
(12.0095 -0.0778248 0.0118034)
(9.8436 0.202203 -0.0778806)
(10.0129 0.0273054 -0.00478085)
(10.0067 -0.0381438 0.0276698)
(10.0172 0.0504232 -0.00495296)
(6.20978 -1.82744 -2.9336)
(10.0059 0.00109301 -0.00293056)
(6.45303 5.77666 0.123445)
(10.0166 -0.0671316 0.00241256)
(10.0355 -0.568885 -2.90861)
(9.99008 -0.00330512 -0.00124926)
(10.0054 -0.00809735 -0.00405433)
(10.0257 -0.00726763 0.017515)
(10.0536 0.00639992 0.0048478)
(9.98681 -0.0125168 0.000900384)
(12.8578 0.692421 0.0406487)
(12.2985 0.138446 0.550837)
(9.183 1.32968 2.57685)
(7.25055 3.99209 2.66414)
(9.44229 1.04158 0.566437)
(10.2834 0.506105 -0.0652049)
(11.2088 0.88154 0.0965268)
(6.46326 -0.332477 -2.6956)
(10.4261 -0.118894 0.0489607)
(11.5162 0.0219647 -0.102527)
(10.2704 -0.655516 0.129145)
(11.8242 0.031262 -0.0454072)
(8.5125 -0.0073356 4.84259)
(5.8124 -0.859304 0.515904)
(10.4361 -0.257595 0.188581)
(9.99912 -0.00593305 0.00516623)
(9.5654 0.883683 -0.229059)
(10.0139 -0.00569844 0.00764764)
(10.1027 0.00910032 0.010152)
(13.9489 -2.18259 2.31053)
(12.0254 -0.727769 0.709143)
(-1.33609 3.13141 0.674694)
(10.1598 -0.809401 0.292892)
(11.6952 -0.930077 -0.248296)
(10.3124 -1.06138 -0.999331)
(12.014 0.104017 0.658114)
(10.1565 -0.0226341 0.00136403)
(-2.98216 -2.41043 1.03273)
(10.0008 0.0049547 -0.0144671)
(10.0412 0.0104155 -0.000801196)
(10.4897 -0.0482556 0.538452)
(10.159 0.0186165 5.16369)
(10.1708 -0.00811016 0.0041529)
(10.1336 0.543836 -0.344031)
(9.98902 0.0185913 0.0341002)
(10.6581 -1.14103 0.633874)
(10.7714 0.0484817 0.870686)
(9.96607 -0.0242105 0.00932852)
(10.8355 -0.423164 -2.84389)
(10.4176 -0.00806896 -2.83385)
(12.8345 0.330959 1.11269)
(10.4321 0.500009 -0.115533)
(9.65438 0.0651094 0.336778)
(3.11625 0.845884 -3.42631)
(0.654716 1.84312 3.63023)
(5.40978 3.14558 0.93368)
(12.7981 -0.849593 -2.50191)
(5.5006 -0.428633 -0.0795574)
(9.88469 -0.0105048 -0.128726)
(9.91198 -0.050774 0.0104478)
(8.56423 1.56524 2.91598)
(9.95305 -0.0181582 0.0437201)
(4.50695 -0.743182 0.0515761)
(9.90588 -0.0233264 -0.0859918)
(9.90273 -0.013659 -0.106333)
(-1.15 0.834206 -0.369033)
(9.68931 -1.18745 0.959181)
(10.867 -0.33174 0.153298)
(9.99849 0.0156455 0.0333378)
(9.95582 0.0305861 0.0344516)
(8.22493 0.312204 -2.6433)
(10.0125 0.0430727 0.0425532)
(9.9724 -0.0135151 -0.021673)
(10.1545 0.754462 1.0202)
(12.0548 -0.743745 -2.62063)
(10.2764 0.286879 0.123706)
(9.88932 0.125886 0.0143255)
(9.90478 -0.100703 0.0155799)
(9.99222 -0.00369956 -0.00259727)