/*--------------------------------*- C++ -*----------------------------------*\
| =========                 |                                                 |
| \\      /  F ield         | OpenFOAM: The Open Source CFD Toolbox           |
|  \\    /   O peration     | Version:  2506                                  |
|   \\  /    A nd           | Website:  www.openfoam.com                      |
|    \\/     M anipulation  |                                                 |
\*---------------------------------------------------------------------------*/
FoamFile
{
    version     2.0;
    format      ascii;
    arch        "LSB;label=32;scalar=64";
    class       volScalarField;
    location    "0.0321508";
    object      k;
}
// * * * * * * * * * * * * * * * * * * * * * * * * * * * * * * * * * * * * * //

dimensions      [0 2 -2 0 0 0 0];

internalField   nonuniform List<scalar> 
47425
(
0.344775
0.370942
0.343244
0.339567
0.493584
0.350163
0.456347
0.352992
0.366994
1.06835
0.358502
0.366034
0.402218
0.342654
0.343239
0.357706
0.342613
0.383581
1.058
0.551014
0.346153
0.347565
0.358252
0.345948
0.354753
0.342368
0.33848
0.855899
0.337108
0.348907
0.356297
0.354755
0.357567
0.347764
0.345445
0.354847
0.346028
0.364284
0.344693
0.344459
0.381103
0.391557
0.523654
0.37862
1.05729
0.381044
0.35661
0.355394
0.343514
0.344991
0.805844
0.534187
0.341363
0.911304
0.387681
0.372349
0.343911
0.346687
0.470446
0.349544
1.01923
0.762086
0.834654
0.37037
0.364588
0.35017
0.354028
0.367123
0.8624
0.365665
0.342178
0.3475
0.34512
0.34963
0.841346
0.368814
0.831548
0.34681
0.900209
0.549085
0.865485
0.350443
0.351982
0.354438
0.343462
0.350346
0.343666
0.341979
0.534448
0.647661
0.355603
0.363572
0.348357
0.382234
0.392987
0.378006
0.342492
0.342557
0.337429
0.38183
0.351881
0.474614
0.347677
0.502499
0.346859
0.363856
0.343153
0.34248
0.344968
0.357854
0.799722
0.349915
0.395437
0.364867
0.35625
0.845659
0.354608
0.676985
0.370704
0.367725
0.341609
0.36301
0.359529
0.386058
0.369873
0.396549
0.353
0.365031
0.371544
0.348104
0.352531
0.361979
0.554201
0.375952
0.386158
0.383216
0.354643
0.400967
0.345727
0.34172
0.360486
0.389942
0.353228
0.44158
0.361787
0.366294
0.445378
0.352001
0.377336
0.365293
0.437096
0.811369
0.361024
0.824918
0.37348
0.354585
0.379219
0.932523
0.382118
0.364872
0.367655
0.347301
0.343865
0.349429
0.741243
0.86283
0.354516
0.846696
0.359216
0.882641
0.843032
0.374941
0.355835
0.361381
0.379737
0.425123
0.856857
0.338223
0.344578
0.345715
0.846385
0.340942
0.340153
0.347961
0.343266
0.352487
0.34795
0.474466
0.36773
0.341917
0.358844
0.341287
0.451034
0.365522
0.350166
0.357737
0.36096
0.355492
0.368034
0.331261
0.362135
0.36978
0.34709
0.357076
0.379945
0.378841
0.338667
0.355469
0.37031
0.362778
0.338978
0.341801
0.357054
0.33241
0.346236
0.351274
0.343807
0.58718
0.380967
0.375719
0.582472
0.325856
0.463179
0.335332
0.401316
0.561839
0.347239
0.357667
0.381388
0.416637
0.34218
0.355553
0.378651
0.369454
0.378577
0.35054
0.585377
0.367437
0.553986
0.372812
0.349081
0.345371
0.34785
0.349031
0.346002
0.363542
0.340678
0.361258
0.342561
0.346283
0.343537
0.537395
0.349506
0.365805
0.352295
0.343901
0.346909
0.386245
0.338536
0.358442
0.403685
0.358699
0.344787
0.375586
0.406853
0.377286
0.347696
0.405716
0.341668
0.35504
0.347026
0.537441
0.577503
0.345052
0.527937
0.385085
0.529052
0.504942
0.562397
0.587526
1.0763
0.342894
1.00291
0.388115
0.350638
0.331378
0.37752
0.345853
0.381688
0.363616
0.771592
0.360534
0.371311
0.340293
0.34258
0.363534
0.366251
0.343292
0.346969
0.395303
0.374005
0.347697
0.362516
0.34386
0.863599
0.862026
0.83056
0.345439
0.343801
0.347704
0.353903
0.797103
0.352631
0.357616
0.600951
0.374952
0.366784
0.390371
0.348994
0.649606
0.578754
0.351586
0.343497
0.340196
0.367751
0.342751
0.340532
0.341501
0.342338
0.34338
0.344896
0.788707
0.365648
0.344283
0.385578
0.348428
0.791928
0.354663
0.343471
0.345054
0.350554
0.350376
0.34031
0.352128
0.345878
0.3455
0.345962
0.353047
0.345389
0.373154
0.350766
0.353113
0.35171
0.357027
0.350061
0.381262
0.357022
0.352016
0.35439
0.362342
0.4065
0.375096
0.364501
0.35456
0.342149
0.349574
0.385912
0.359812
0.352893
0.351138
0.384017
1.23008
0.33856
0.35799
0.385733
0.357225
0.386572
0.383027
0.364864
0.346308
0.358949
0.35504
0.339397
0.356545
0.372547
0.364802
0.357927
0.350442
0.353683
0.35503
0.353408
0.356359
0.360864
0.341263
0.353797
0.351806
0.347873
0.352679
0.427374
0.342742
0.681533
0.345573
0.791536
0.366007
0.386323
0.378455
0.343281
0.369001
0.339544
0.362574
0.353278
0.663076
0.83156
0.346338
0.372899
0.341776
0.340124
0.350215
0.351765
0.338681
0.372361
0.354836
0.342953
0.339527
0.341464
0.339842
0.458082
0.342785
0.353942
0.537133
0.483574
0.345958
0.67093
0.485576
0.373868
0.499319
0.787501
0.34508
0.34029
0.342167
0.340895
0.71619
0.371968
0.346268
0.345883
0.347612
0.347497
0.346669
0.346183
0.739797
0.693923
0.552224
0.357253
0.443346
0.424436
0.345652
0.356685
0.392281
0.354965
0.357454
0.363265
0.377867
0.34667
0.369636
0.344322
0.349157
0.367013
0.359578
0.346463
0.345856
0.35194
0.358139
0.384358
0.371105
0.342365
0.371971
0.356316
0.77012
0.376403
0.437099
0.352836
0.3829
0.63294
0.367889
0.345663
0.370465
0.357103
0.347627
0.368932
0.382963
0.335477
0.36259
0.343343
0.366609
0.483305
0.340833
0.384201
0.348202
0.39812
0.343545
0.343636
0.34276
0.342989
0.36652
0.358983
0.343562
0.34105
0.347888
0.358363
0.355287
0.364191
0.366609
0.345536
0.348317
0.340318
0.339096
0.348464
0.369096
0.344985
0.373185
0.363536
0.3757
0.788309
0.354153
0.348167
0.363088
0.365838
0.484116
0.488868
0.370573
0.34724
0.374338
0.448441
0.351056
0.500656
0.363024
0.548432
0.390285
0.386599
0.347515
0.491263
0.346929
0.349147
0.355094
0.347212
0.340161
0.341629
0.994426
0.345286
0.39188
0.344497
0.46759
0.348468
0.345912
0.448431
0.436858
0.354414
0.343525
0.317424
0.342611
0.345612
0.34446
0.343657
0.345379
0.409583
0.464051
0.367496
0.343852
0.352356
0.34581
0.553952
0.351189
0.347909
0.288587
0.35325
0.343112
0.386552
0.771148
0.352175
0.218792
0.24828
0.33866
0.354362
0.342817
0.347499
0.382151
0.372687
0.720618
0.34948
0.377931
0.3424
0.476138
0.404733
0.374866
0.349654
0.911536
1.08339
0.352102
0.352597
0.343416
0.356318
0.382144
0.396859
0.351722
0.360787
0.379407
0.337946
0.369056
0.505734
0.379227
0.352012
0.512916
0.36964
0.346444
0.364602
0.36417
0.341359
0.362672
0.385803
0.40226
0.354968
0.348878
0.346057
1.04023
0.35928
0.415353
0.806591
0.788566
0.344342
0.381187
0.76861
0.373496
0.457339
0.65645
0.37705
0.839329
0.341816
0.349048
0.358048
0.524523
0.382541
0.375921
0.344208
0.386956
0.34584
0.345096
0.35003
0.364046
0.373005
0.731333
0.746014
0.37036
0.383692
0.367692
0.361946
0.386708
0.355082
0.355589
0.361507
0.352811
0.35945
0.383231
0.360259
0.34149
0.438129
0.38693
0.831761
0.581579
0.369628
0.355899
0.369068
0.346204
0.862073
0.346775
0.818145
0.374306
0.452847
0.382017
0.355344
0.358509
0.337246
0.401872
0.348477
0.33898
0.404107
0.402895
0.368628
0.425139
0.369219
1.28087
0.382508
0.387201
0.406964
0.363935
0.340502
0.386991
0.347798
0.423977
0.350608
0.350118
0.395691
0.353923
0.354156
0.348475
0.344591
0.513932
0.59371
0.345763
0.476829
0.345184
0.36042
0.337289
0.342761
0.393099
0.337827
0.338972
0.350199
0.346229
0.713851
0.947454
0.351698
0.350108
0.344509
0.363702
0.342496
0.358517
0.365208
0.588339
0.35587
0.343073
0.354844
0.344427
0.343226
0.34878
0.344559
0.344369
0.350443
0.344042
0.369027
0.584997
0.343408
0.280693
0.620435
0.585152
0.247803
0.363005
0.61482
0.399847
0.378205
0.553091
0.323961
0.853603
0.355982
0.340277
0.445052
0.370755
0.597285
0.359825
0.368877
0.343913
0.346624
0.437473
0.3783
0.361653
0.377642
0.476809
0.411727
0.352715
0.378518
0.53542
0.512439
0.543087
0.802595
0.839086
0.663099
0.694363
0.363457
0.374054
0.345333
0.342928
0.367398
0.272234
0.372243
0.359757
0.370952
0.347314
0.291096
0.257042
0.343521
0.39948
0.354526
0.344856
0.385705
0.343498
0.346109
0.345268
0.367561
0.478528
0.344952
0.347346
0.344339
0.378517
0.368772
0.578087
0.478278
0.339809
0.374316
0.343333
0.344031
0.343709
0.375495
0.376805
0.609069
0.345926
0.341862
0.349849
0.433437
0.882028
0.353744
0.352647
0.452059
0.367476
0.35017
0.381239
0.359671
0.376989
1.02924
0.463007
0.851082
0.366914
0.433591
0.346214
0.41839
0.346991
0.362841
0.371501
0.349859
0.964912
0.488224
0.399058
0.555307
0.399748
0.345593
0.361863
0.433626
0.347688
0.374552
0.28077
0.344164
0.428845
0.385877
0.409519
0.76217
0.392035
0.388692
0.552364
0.34953
0.348669
0.470797
0.546516
0.357249
0.45635
0.495992
0.348308
0.357269
0.339582
0.364078
0.372491
0.37037
1.1014
0.990828
0.395857
0.484485
0.521735
1.14552
1.14976
0.573362
0.380533
0.36142
0.374164
0.385879
0.781748
0.346421
0.372417
0.374591
0.376071
0.363533
0.35369
0.372164
0.342267
0.395561
0.519456
0.363839
0.925138
0.346798
0.426171
0.37666
0.365957
0.358767
0.353753
0.375201
0.487575
0.38511
0.419733
0.515536
0.36735
0.347117
0.369754
0.475027
0.342343
0.410363
0.360579
0.391293
0.682397
0.790617
0.340462
0.36383
0.356879
0.3622
0.373487
0.71509
0.552533
1.08543
0.349909
0.406328
0.364841
0.667858
0.341288
1.14389
0.412641
0.393667
0.444824
0.643704
0.347041
0.335715
0.346185
0.366806
0.430467
0.356535
0.440487
0.718865
0.438463
0.341543
0.345717
0.710653
0.846721
0.553144
0.568887
0.887214
0.406999
0.380034
0.446043
0.340538
0.520014
0.380049
0.39436
1.1371
0.371067
0.345964
0.343943
0.361804
0.424598
0.387242
0.352012
0.365818
0.490836
0.347295
0.357343
0.347986
0.355659
0.378595
0.414761
0.378048
0.370727
0.356363
0.388535
0.350516
0.33409
0.342985
0.356793
0.416649
0.520447
0.369171
0.40459
0.342615
1.22504
0.389876
0.37592
0.353093
1.00969
0.618176
1.02105
0.295897
0.369124
0.377197
0.694358
0.340802
0.376689
0.423901
0.373255
0.375584
0.785947
0.375267
0.351858
0.377387
0.392147
0.345492
0.634438
0.991704
0.342823
0.973144
0.357531
0.696765
0.765755
0.344374
0.375188
0.375939
0.650819
0.367861
0.369163
0.380449
0.761326
0.401076
0.608527
0.341602
0.356298
0.34443
0.348643
1.05845
1.08074
0.376803
0.403469
0.413488
0.696735
0.351357
0.34218
1.2418
1.01468
0.365598
0.355195
0.914233
1.21307
0.868558
0.382766
0.692023
0.97675
0.779078
0.349815
0.500378
0.478354
0.369818
0.361307
1.10479
1.28872
0.407469
0.412033
0.360574
0.356654
0.379166
0.354712
0.522442
0.352983
0.366962
0.344884
0.347086
0.921259
0.833817
0.355681
0.623515
0.460624
0.345586
0.551143
0.342179
0.359187
0.350807
0.378254
0.398897
0.341716
0.758166
0.349356
0.88937
0.680777
0.710473
0.414136
0.416576
0.364963
0.380062
0.345376
0.582205
0.993971
0.372493
0.822145
0.571974
0.835274
0.508285
0.939523
0.743833
0.358232
0.345374
0.801784
0.351801
0.354986
0.347902
0.727454
0.655989
0.347427
0.37327
0.66584
0.460293
0.890771
0.788648
0.36846
0.511699
1.03346
0.36497
0.372043
0.726219
0.351753
0.799894
0.869499
0.357157
0.349269
0.356028
0.349031
0.391919
0.337767
0.354274
0.380745
0.379274
0.526368
0.393647
0.358202
0.527522
0.707724
0.86066
0.378698
0.380587
0.54138
0.358287
0.962708
0.3524
0.372334
0.368106
1.19721
0.358282
1.55131
0.391567
0.538232
0.393887
1.07531
0.650681
0.536307
0.45128
0.575715
0.406934
0.363738
0.422452
0.618607
0.548132
0.493657
0.78353
0.38841
0.482541
0.713838
0.388187
0.341592
0.764485
1.10985
0.343286
0.358805
0.361004
0.379543
0.695484
0.852857
0.345739
0.364112
0.359799
0.953701
0.357566
0.65618
0.412895
0.353346
0.356341
0.501065
0.402025
0.65844
0.597661
0.383367
0.419924
0.480763
0.352638
0.924574
0.991616
0.359833
0.881949
0.744287
0.376877
0.553365
0.361392
0.404906
0.931182
0.402919
1.13895
0.697238
0.359995
0.41095
0.452764
0.365602
0.356251
0.433395
0.516274
0.462359
0.349452
0.433999
0.353717
0.615708
0.427526
0.384724
0.390205
0.514289
0.344265
0.856319
0.65278
0.407617
0.773177
0.783238
0.344009
0.519876
0.451884
0.385584
0.381633
0.500332
0.752953
0.535011
0.769664
0.345657
0.785692
0.478976
0.345869
0.426511
0.391067
0.528057
0.378351
0.429113
0.630922
0.343951
0.649538
0.380443
1.28024
0.396971
0.34123
0.389804
0.552655
0.403826
0.693517
0.450337
0.354729
1.02669
0.346641
0.374479
1.09083
0.342282
0.384285
0.733508
0.378412
0.762299
1.26262
0.386099
0.448552
0.349728
0.908198
0.553957
0.743853
0.614735
0.449588
0.379815
0.474559
0.826983
1.1446
0.840166
0.367894
0.359095
0.369753
0.354204
0.385317
0.727644
0.368215
0.353309
0.380632
0.342278
0.36852
0.377017
0.361404
0.358762
0.379602
0.483964
0.348314
0.381465
0.548726
0.35728
0.347039
0.39309
0.390269
0.361352
0.343968
0.366769
0.364128
0.356072
0.380492
0.629195
0.361982
0.369869
0.344061
0.345905
0.553169
0.346306
0.348093
0.537165
1.12335
0.735946
0.355482
0.58724
0.52439
0.34753
0.521257
0.479729
0.508503
0.372003
0.354278
0.371607
0.433688
0.35006
0.381504
0.402163
0.382372
0.34358
0.34624
0.376258
0.537839
0.36843
0.441721
0.857834
0.356679
0.657396
0.43721
0.858193
0.345234
0.377948
0.379502
0.347189
0.360163
0.375987
0.34568
1.0007
0.60093
0.883583
0.391783
0.984895
0.343056
0.359743
0.52002
0.34517
0.784948
0.399209
0.636832
0.339034
0.918355
0.921509
0.358388
0.342525
0.584782
0.358905
0.59217
0.343092
0.377464
0.34475
0.343533
0.344358
0.352799
0.365628
0.580002
0.421703
0.400982
0.366192
0.347596
0.351697
0.372901
1.32612
0.374567
0.97525
0.438472
0.343963
0.38213
0.364532
0.357581
0.358177
0.384097
0.356565
0.363164
0.346395
0.338931
0.375277
0.370916
1.61877
0.967818
0.381054
0.38449
0.696721
0.355266
0.344549
0.342444
0.342699
0.378656
0.383983
0.400359
0.389335
0.359119
0.344006
0.433152
0.345049
0.338976
0.355086
0.747675
0.395012
0.847944
0.770978
0.837236
0.357393
0.343399
0.340942
0.339318
0.349089
0.663544
0.35983
0.34462
0.359412
0.36929
0.34573
0.456981
0.343536
0.380156
0.474328
0.363279
0.339492
0.347247
0.359396
0.368785
0.344382
0.36712
0.351698
0.50156
0.341181
0.353744
0.38245
0.350281
0.35288
0.343377
0.368389
0.337462
0.383089
0.397896
0.347041
0.340695
0.340107
0.343019
0.345279
0.377203
0.3462
0.347064
0.347786
0.359128
0.902076
0.350637
0.462778
0.341613
0.346843
0.77149
0.35916
0.376386
0.342853
0.356186
0.372597
0.383148
0.747491
0.378155
1.27455
0.342477
0.350137
0.376013
0.347573
0.348814
0.387575
0.361038
0.346902
0.347794
0.78912
0.475978
0.690209
0.384546
0.58342
0.379894
0.33766
0.397292
0.922446
0.375256
0.34783
0.345303
0.801699
0.341446
0.354518
0.371765
0.359342
0.347979
0.815379
0.343928
0.36275
0.354145
0.359702
0.403193
0.94627
0.839417
0.345989
0.34398
0.347102
0.388001
0.374271
0.34717
0.818994
0.832151
0.341138
0.36988
0.748431
0.345164
0.530863
0.483674
0.344994
0.3438
0.350203
0.350653
0.554063
0.365917
0.355617
0.36485
0.406132
0.354369
0.361833
0.6266
0.363094
0.496732
0.532777
0.389193
0.619208
0.37467
0.388068
0.424967
0.379265
0.368193
0.362179
0.854648
0.626857
0.377994
0.383347
0.361996
0.377843
0.370148
0.444259
0.348883
0.34136
0.359218
0.355417
0.537599
0.470235
0.85572
0.739977
0.377324
0.378544
0.355696
0.360309
0.365368
0.351518
0.357307
0.34415
0.346183
0.410086
0.355309
0.349301
0.345993
0.628014
1.28746
0.386346
0.339567
0.442066
0.532627
0.848338
0.34279
0.725399
0.877392
0.663969
0.757568
0.438359
0.345063
0.344994
0.361471
0.879945
0.343004
0.373082
0.366846
0.343131
0.575862
0.537853
0.512044
0.356998
0.94833
0.345391
0.350523
0.379681
0.376234
0.690326
0.757057
0.257938
0.469589
0.303098
0.418414
0.348202
0.922991
0.355601
0.883351
0.374319
0.874168
0.368628
0.523599
0.368337
0.540418
0.380543
0.384429
0.390853
0.356461
0.360536
0.445583
0.419162
0.361446
0.355208
1.21162
0.541188
0.366979
0.64324
0.672873
0.629847
0.351661
0.352314
0.691265
0.725797
0.741226
0.355381
1.05028
0.349633
0.912577
0.911782
0.398803
0.603628
0.342274
0.398478
0.348148
0.352911
0.359523
0.544691
0.419966
0.343208
0.341731
0.374919
0.353193
0.344953
0.348072
0.494645
0.342887
0.338978
0.368162
0.345271
0.46421
0.362446
0.392969
0.381934
0.344397
0.449866
0.491637
0.333705
0.341648
0.517738
0.789973
0.368142
1.00965
0.387764
0.469303
0.763337
0.451545
0.379039
0.34485
0.503343
0.356082
0.341562
0.36518
0.353077
0.346111
0.360981
0.345445
0.341498
0.349396
0.371831
0.361208
0.385457
0.744177
0.348726
0.353718
0.353132
0.36003
0.469096
0.709539
0.364647
0.34958
0.368081
0.612264
0.492637
0.351776
0.367071
0.870744
0.381904
0.394308
0.379884
0.440282
0.370419
0.365111
0.365907
0.558441
0.384883
0.373576
0.956591
0.360556
0.39783
0.358187
0.382657
0.36321
0.398951
0.36398
0.348537
0.349659
0.394639
0.341492
0.365195
1.17966
0.347365
0.459822
0.380875
0.356052
0.674537
0.40504
0.361596
0.37147
0.626501
0.656692
0.377461
0.354107
0.39682
0.430458
0.376591
0.350377
0.819456
0.501873
0.415402
0.835016
0.376063
0.348479
0.553952
0.48875
1.08399
0.442216
0.420212
0.550535
0.348943
0.575688
0.490565
0.812799
0.423611
0.364689
0.352852
0.636522
0.384587
0.421212
0.345351
0.376907
0.385824
0.422776
0.668338
0.373232
0.374661
0.337441
0.543313
0.782867
0.450711
0.756209
0.396722
1.01636
0.375652
0.3753
0.82097
0.537275
0.695208
0.328424
0.690014
0.612139
0.346607
0.34437
0.28187
0.398411
0.375492
0.803444
0.38871
0.415742
0.34925
0.483336
0.368639
0.348581
0.891765
0.306803
0.540669
0.336015
0.407388
0.373655
0.372494
0.389442
0.393231
0.349085
0.344476
0.377226
0.414143
0.225014
0.230713
0.384506
0.397769
0.358822
0.445768
0.483147
0.389645
0.37236
0.392107
0.231894
0.411301
0.423536
0.294782
0.378193
0.768766
0.47143
0.359181
0.92195
0.397082
0.518738
0.920853
0.396904
0.378499
0.348133
0.982366
0.347665
0.34179
0.396887
0.384011
0.430389
0.364599
0.534469
0.37238
0.534162
0.344697
0.39327
0.379777
0.340403
1.04842
0.413764
0.997823
0.66058
0.343674
0.815049
0.506715
0.347683
1.37635
0.344029
0.342287
0.444262
0.487012
0.91077
0.72168
0.389316
0.724041
0.797378
0.347932
0.574842
0.902543
0.481105
1.12708
0.420636
0.351595
0.636676
0.718814
0.399812
0.943155
0.404478
0.374672
0.563072
0.404853
0.353061
0.376569
0.781606
0.671122
0.340282
0.56194
0.355781
0.389736
0.369864
0.389817
0.582714
0.466734
0.735819
0.354813
0.361328
0.716076
0.349042
0.367861
0.505866
0.353999
0.376517
0.745915
0.377796
0.91656
0.823247
0.811735
0.793442
0.376553
0.434121
0.346067
0.344346
0.459364
0.347968
0.345997
0.402762
0.350554
0.456339
0.858782
0.348948
0.544033
0.354561
0.505715
0.399779
0.877933
0.371425
0.482257
0.354454
0.356457
0.411631
0.350224
0.364205
0.352894
0.342126
0.578741
0.336019
0.383928
0.39621
0.363417
0.372289
0.384361
0.382433
0.705067
0.374747
0.348699
0.359362
0.430487
0.309172
0.680368
0.525249
0.676714
0.980043
0.443407
0.455445
0.147156
0.340144
0.895206
0.43669
0.548309
0.404087
0.7557
0.688426
1.22365
0.402427
0.370689
0.547734
0.92794
0.386214
0.278066
0.478294
0.297384
0.445103
0.446377
0.819035
0.935803
0.305856
0.41469
0.21718
0.362906
1.13201
0.361418
0.378043
0.350276
0.352991
0.487215
0.350095
0.636183
0.505991
0.348236
0.390668
0.351802
0.578206
0.662148
0.365129
0.435837
0.404151
0.938895
0.462991
0.365909
0.552714
0.559414
0.341694
0.352798
0.371481
0.341965
0.669603
0.351139
0.476651
0.648261
0.353479
0.383897
0.351761
0.352002
0.479895
0.392261
0.554134
0.33527
0.342068
0.587244
1.1052
0.351713
0.363202
0.351838
0.349156
0.639436
0.457446
0.803053
0.382847
0.346842
0.485648
0.400307
0.379906
0.352827
0.40593
0.386924
0.571774
0.492445
0.942001
0.434858
0.456732
0.351496
0.379962
0.812104
0.939561
0.437943
0.914534
0.3806
0.916535
0.466753
0.745156
0.50807
0.494117
0.396173
0.359325
0.391536
0.439625
0.586696
0.367997
0.406791
0.980094
0.37514
2.50816
0.375297
0.353005
0.380667
0.495718
0.39933
0.34822
0.783679
0.345026
0.344267
0.339612
0.377163
0.803474
0.522281
0.351853
0.554742
0.360688
0.379167
0.351385
0.35914
0.451698
0.415184
0.442173
0.377629
0.345728
0.430882
0.371664
0.338238
0.434149
0.404525
0.813623
0.388949
0.494257
0.383351
0.435869
0.382272
0.458013
0.341151
0.382879
0.354761
0.372269
0.391686
0.808843
0.342092
0.603428
0.308741
0.392827
0.379891
0.38478
0.38308
0.468156
0.614173
0.350278
0.370732
0.371194
0.524892
0.414039
0.339847
1.12553
0.766824
0.62616
0.350079
0.346108
0.531532
0.359007
0.357193
0.52107
0.364707
0.358115
0.401215
0.817567
0.34808
0.592012
0.348051
0.353393
0.453195
0.358581
0.3876
0.488692
0.348145
0.56899
0.435477
0.440092
0.476029
0.923417
0.353317
0.360924
0.385252
0.413814
0.388297
0.382217
0.346454
0.346895
0.374883
0.59919
0.382956
0.384959
0.915325
0.380997
0.674099
0.359651
0.383198
0.425924
0.356744
0.586846
0.379405
0.458659
0.400009
0.357006
0.369772
0.418626
0.555011
0.466619
0.348295
0.610607
0.37758
0.922505
0.768299
0.66642
0.361676
0.492673
0.37838
0.264138
0.424699
0.30406
0.471832
0.230071
0.433144
0.682034
0.436917
0.640482
0.688437
0.39005
0.285299
0.30892
1.08525
0.609348
0.716428
1.19382
1.01907
0.391457
0.8307
0.355376
0.370628
0.7566
0.419426
0.865949
0.403108
0.738139
0.750417
0.367149
0.384498
0.359431
0.339169
0.374292
0.34325
0.733551
0.404866
0.380556
0.573535
0.350102
0.367646
0.341046
0.372861
0.367207
0.382479
0.401798
0.344689
0.433971
0.896915
0.342045
0.352367
0.359953
0.345989
0.705246
0.678214
0.421338
0.3948
0.574876
0.343636
0.34078
0.371727
0.391677
0.354334
0.361729
0.349148
0.343958
0.445475
0.337986
0.40879
0.362927
0.346313
0.351698
0.505896
0.358236
0.368492
0.346317
0.44641
0.364832
0.381315
0.724212
0.445843
0.375161
0.413263
0.366726
0.395636
0.396303
0.376542
0.356475
0.385241
0.372616
0.358706
0.393464
0.375135
0.451312
0.479746
0.359825
0.36849
0.425863
0.457591
0.512598
0.556409
0.800557
0.94637
0.366805
0.349803
0.889031
0.566676
0.560523
0.354548
0.347686
0.360678
0.343801
0.360644
0.351105
0.356896
0.384689
0.345669
0.352209
0.346851
0.359401
0.34828
0.543445
0.40748
0.371333
0.349099
0.35842
0.671783
0.341506
0.353835
0.4165
1.00133
0.656252
0.375077
0.363646
0.369398
0.404606
0.470983
0.737784
0.432112
0.358206
0.376615
0.360465
0.353728
0.397574
0.441545
0.378554
0.346133
0.42261
0.410607
0.628347
0.4244
0.71187
0.583606
0.397151
0.416505
0.351719
0.366545
0.387645
0.344893
0.348725
0.641459
0.35409
0.369344
0.722613
0.369567
0.384324
0.389988
0.432884
0.345076
0.369559
0.351156
0.383185
0.744505
0.368976
0.45871
1.67104
0.582969
1.10125
0.843023
0.358302
0.36943
0.556378
0.343689
0.58606
0.524457
0.713184
0.369879
0.346421
0.700214
0.349195
0.580982
0.440652
0.354148
0.737622
0.83675
0.345662
0.352743
0.891828
0.346446
0.344741
0.343475
0.345153
0.370518
0.485809
0.594263
0.369374
0.813133
0.354957
0.36703
0.343885
0.885719
0.361833
0.934247
0.347062
0.383983
0.348282
0.467651
0.346796
0.511736
0.339685
0.618311
0.501486
0.50318
0.70818
0.35874
0.364578
0.829428
0.472428
0.369757
0.447626
0.594107
0.364408
0.445714
0.358939
0.627438
0.435555
0.349367
0.340047
0.48536
0.357563
0.411926
0.374353
0.345164
0.365531
0.346916
0.35049
0.36165
0.71018
0.351487
0.347575
0.346437
0.351717
0.347244
0.352265
0.356271
0.379139
0.412377
0.393042
0.391758
0.346985
0.289732
0.37216
0.403158
0.7424
0.313097
0.802556
0.350358
1.26583
0.399486
0.295519
0.384472
0.391394
0.391342
0.352807
0.335963
0.374328
0.373531
0.346346
0.363177
0.347372
0.712358
0.346983
0.359032
0.396555
0.972857
0.238824
0.365696
0.82893
0.62615
0.639433
0.566976
1.08389
0.190398
0.422704
0.390753
0.373583
0.363086
1.73631
0.49012
0.423817
0.348919
0.344823
0.759241
0.370881
0.485051
0.427449
0.387314
0.538877
0.386131
0.630501
0.352844
0.374778
0.355652
0.347474
0.399177
0.342287
0.371062
1.11972
1.14133
0.988718
0.475048
0.740193
0.362389
0.34042
0.340785
0.37962
0.34686
0.394386
0.354892
0.435404
0.385387
0.344506
0.342711
0.372565
0.346984
0.365371
0.377009
0.356038
0.379192
0.557267
0.361186
0.403301
0.810151
0.383333
0.705154
0.854552
0.377197
0.404238
0.341801
0.508356
0.387734
0.397697
0.662616
0.347017
0.410914
0.371267
0.396479
0.349459
0.35223
0.497615
0.551872
0.375733
0.37949
0.797043
0.417179
0.642207
0.598201
0.361143
1.1496
0.44911
0.410409
0.39482
0.354412
0.436898
0.383976
0.32582
0.350978
0.303316
0.605847
0.21429
0.363802
0.39856
0.452419
0.224931
0.801234
0.349519
0.375046
0.415666
0.361119
0.419492
0.582615
1.51877
0.387056
0.36527
0.374374
0.719002
0.351116
0.404472
0.386635
0.358364
0.367591
0.364696
0.450558
0.347158
1.25857
0.399812
0.953782
0.35155
1.21717
0.778786
0.830396
0.378823
0.360066
0.50227
0.383233
0.367838
0.361222
0.36904
0.799092
0.342624
0.492554
0.619242
0.343335
0.355236
0.347965
0.355535
0.370379
0.361441
0.418077
0.409998
0.378358
0.377892
0.416984
0.360144
0.465881
0.351559
0.382142
0.351941
0.963142
1.0832
0.394837
0.406353
0.345065
0.978882
0.339084
0.350791
0.371213
0.346564
0.388164
0.372359
0.343274
0.345418
0.362594
0.740695
0.597154
0.370902
0.782869
0.347411
0.364603
0.347817
0.360231
0.766493
0.396015
0.842469
0.344184
0.35404
0.809712
0.891538
0.362676
0.356198
0.663232
0.377686
0.396681
0.484929
0.408742
0.384911
0.447681
0.383776
0.344105
0.3898
0.368874
0.512079
0.344732
0.376071
0.344103
0.357645
0.736551
0.690507
0.351196
0.353767
0.367825
0.369738
0.361517
0.545904
0.363778
0.37644
0.410447
0.369871
0.474927
0.424089
0.52012
0.408218
0.341807
0.347006
0.344522
0.40354
0.338916
0.548319
0.45434
0.345977
0.834808
0.361022
0.340177
0.383066
0.348377
0.39177
0.656102
0.364233
0.458784
0.372315
1.10077
0.417141
0.404189
0.376907
0.703954
0.378395
0.561962
0.393721
0.433428
0.348083
0.435705
0.418041
0.696329
0.485224
0.363692
0.35335
0.351579
0.569239
0.374374
1.00969
0.943277
0.376247
0.453755
0.358446
0.500844
0.473498
0.408271
0.771323
0.512843
0.700336
0.351254
0.400428
0.917114
0.51643
0.377938
0.503168
0.355625
1.08905
0.416301
0.390659
0.351524
0.343882
0.347964
0.364013
0.346148
0.773144
0.350331
0.632426
0.346851
0.458729
0.421168
0.559292
0.363411
0.367683
0.354499
0.614429
0.489269
0.540681
0.345831
0.351223
0.480768
0.39851
0.386908
0.340818
0.340518
0.34332
0.359836
0.344862
0.401644
0.351001
0.581946
0.450692
0.944026
0.785918
0.63365
0.594096
0.416726
0.424133
0.343685
0.619888
0.35429
0.366216
0.358474
0.487573
0.495476
0.357543
0.446225
0.804293
0.498434
0.345875
0.344118
1.31963
0.847571
0.405958
0.863436
0.896561
0.66191
0.772098
0.609677
0.73146
0.429889
0.667779
0.814539
0.343644
0.347133
0.340184
0.484978
0.633598
0.358074
0.348663
0.427479
0.383649
0.397113
0.852871
0.514153
0.925869
0.365671
0.341845
0.356847
0.339301
0.377931
0.824943
0.44857
0.643865
0.753814
0.345801
1.0922
1.14523
0.343536
0.532601
0.488884
0.80577
0.385249
0.501721
0.794132
0.75581
0.485203
0.804666
0.535583
0.717518
0.375881
0.371005
0.38766
1.0032
0.778591
0.412924
0.365702
0.586243
0.47
0.603591
0.367646
0.402764
1.04779
1.13288
0.268806
0.342854
0.295989
0.345061
0.235014
0.416982
0.483968
0.635273
0.229285
0.464395
0.504063
0.171782
0.483854
1.21891
0.446908
0.41422
0.683462
0.366252
0.53059
0.356549
0.345496
0.358676
0.37815
0.763405
0.731523
0.916266
0.413626
0.420552
0.60316
0.410008
0.294752
0.427486
0.386715
0.361065
0.573901
0.380027
0.35457
0.353587
0.446607
0.429484
0.781128
0.502785
0.831652
0.922768
0.805285
0.37488
0.425688
0.711275
0.349057
0.589792
0.387633
0.418908
0.352862
0.825286
0.612354
0.386627
1.33111
0.637985
0.344506
0.464416
0.825478
0.830764
0.421653
0.375193
0.493746
0.972867
0.379882
0.352875
0.377476
0.370811
0.613854
0.406544
0.651511
0.586556
0.668682
1.06881
0.571589
0.489246
0.764244
0.891521
0.862129
0.618978
0.733071
0.88368
0.562262
0.410581
0.475974
0.357875
0.33991
0.350403
0.436488
0.554097
1.17974
0.374776
0.392661
0.406302
0.378589
0.407719
0.586877
0.496588
0.360354
0.386039
0.954796
1.08819
0.236388
0.418788
0.352854
0.393491
0.900801
0.774369
0.376675
0.389216
0.358335
0.311763
0.316033
0.603421
0.36344
0.369014
0.353352
0.413419
0.855011
0.473571
0.385409
0.883349
0.342516
0.848991
0.686609
0.48479
0.690645
0.393251
0.343309
0.352417
0.354096
0.375086
0.434906
0.351828
0.366613
0.354681
0.354939
0.554576
0.530377
0.745306
0.356364
0.505025
0.39213
0.422948
0.37327
0.501098
0.380438
0.369877
0.365916
0.342534
0.359107
0.358441
0.479746
0.341823
0.387584
0.39533
0.636829
0.358848
0.422509
0.505112
0.815644
0.883986
0.413215
1.31767
0.420509
0.395656
0.388423
0.551574
0.362379
0.934031
0.465411
0.344177
0.451687
0.544856
0.440408
0.486431
0.693551
0.681405
0.492077
0.786488
0.37491
0.34682
0.422936
0.348559
0.342137
0.437467
0.349998
0.350664
0.584989
0.350379
0.342078
0.830705
0.77133
0.343312
0.346323
0.91223
0.352948
0.354849
0.601126
0.355102
0.726012
0.443794
0.801714
0.35191
0.573895
0.471368
0.705975
0.352649
0.466522
0.350993
0.938664
0.364647
0.347456
0.644967
0.451036
0.516262
0.381489
0.391858
0.3743
0.353228
0.517673
0.35364
0.349257
0.335272
0.467139
0.565962
0.342731
0.357885
0.345501
0.349395
0.360736
0.824244
0.346849
0.470637
0.347566
0.608887
0.372419
0.397014
0.378704
0.495123
0.361198
0.464969
0.345655
0.363183
0.369443
0.384639
0.352817
0.460316
0.443967
0.920779
0.864017
0.800808
0.419908
0.373283
0.374139
0.34125
0.343669
0.971847
0.663381
0.42108
0.391966
0.344628
0.365051
0.344935
0.34638
0.545825
0.532988
0.765003
0.535148
0.396465
0.36142
0.449225
0.346893
0.644035
0.361787
0.437387
0.371525
0.385137
1.01819
0.446108
0.341028
0.360883
0.426305
0.345245
0.264565
0.347284
0.417286
0.401866
0.914375
0.506274
0.781483
0.350102
0.371691
0.384785
0.375702
0.391737
0.358999
0.34193
0.343357
0.355909
0.358617
0.356464
0.596652
0.415311
0.866352
0.448744
0.35161
0.529324
0.381813
0.36198
0.351341
1.01866
0.908517
0.317542
0.340896
0.352302
0.829061
0.423766
0.463093
0.401795
0.388793
0.293497
0.37578
0.376307
0.341967
0.442492
0.503957
0.902572
0.553146
0.459681
0.339839
0.424155
0.650167
0.377751
0.348542
0.823029
0.881778
0.53938
0.674293
0.346159
0.341618
0.438359
0.348476
0.845904
0.349169
0.348648
0.35079
0.698328
0.344218
0.390801
0.487364
0.490852
0.348738
0.35577
0.365472
0.357043
0.335463
0.36346
0.403316
0.59537
0.468404
0.382071
0.627578
0.372886
0.601696
0.396036
0.904754
0.475292
0.431681
0.697547
0.313399
0.454862
0.53617
0.602762
0.439263
0.343006
0.353344
0.346096
0.375732
0.851131
0.389121
0.34822
0.368055
0.402042
0.347938
0.51065
0.373621
0.378613
0.489685
0.37004
0.349293
0.386664
0.380459
0.915242
0.838581
0.416992
0.366858
0.450992
0.365332
0.801713
0.762371
1.12298
0.781781