/*--------------------------------*- C++ -*----------------------------------*\
| =========                 |                                                 |
| \\      /  F ield         | OpenFOAM: The Open Source CFD Toolbox           |
|  \\    /   O peration     | Version:  2506                                  |
|   \\  /    A nd           | Website:  www.openfoam.com                      |
|    \\/     M anipulation  |                                                 |
\*---------------------------------------------------------------------------*/
FoamFile
{
    version     2.0;
    format      ascii;
    arch        "LSB;label=32;scalar=64";
    class       volScalarField;
    location    "0.0321508";
    object      omega;
}
// * * * * * * * * * * * * * * * * * * * * * * * * * * * * * * * * * * * * * //

dimensions      [0 0 -1 0 0 0 0];

internalField   nonuniform List<scalar> 
47425
(
55.4197
68.484
70.5129
164.462
132.59
72.1047
90.9198
103.8
49.4037
566.213
141.435
50.0714
67.7855
78.284
92.5516
91.8532
67.4237
51.5486
1157.77
174.199
86.8389
46.967
107.798
64.2934
48.868
46.3129
77.0333
666.72
69.8474
56.3447
47.359
49.5635
47.9397
64.4542
53.0827
68.1272
46.693
67.6977
64.7712
75.2076
73.7441
63.2935
100.012
145.037
1409.82
109.114
97.8962
78.1809
78.4633
49.1653
577.412
204.173
50.0866
816.806
115.911
123.871
46.2383
56.4077
84.6593
62.5109
1125.94
1089.54
840.52
48.5856
49.3689
47.9281
63.5805
70.2005
784.256
48.7132
77.8443
50.8449
48.5753
89.3985
676.886
49.42
816.002
81.1936
1385.63
242.872
707.942
63.923
46.8482
47.9328
47.215
83.5308
53.6223
49.8229
100.068
398.48
47.7944
79.016
46.9671
116.351
149.377
196.903
50.2028
50.8134
86.5477
81.2049
62.6917
91.4948
52.0401
101.86
50.1431
54.3104
47.6081
92.3978
46.5427
49.4551
311.451
63.4752
63.5924
156.445
50.3644
916.218
49.9462
231.36
81.978
58.4235
78.8872
48.5843
60.1072
61.3722
99.5706
59.1099
85.2124
49.2024
107.986
46.7015
47.2935
100.552
135.304
124.53
57.9724
64.0024
49.3121
61.0636
68.6434
99.2416
71.7177
135.757
72.6864
78.4959
53.9395
49.3365
105.02
64.0182
154.168
72.7373
76.4571
482.341
48.8431
690.911
49.6953
85.3196
57.4996
898.197
95.9425
75.7084
50.5708
46.7782
50.2629
48.32
386.432
827.536
47.57
680.077
107.51
682.887
680.006
88.5584
74.0868
48.408
75.0474
68.8549
711.948
68.4861
52.9101
46.8763
996.106
47.5099
59.5142
47.7809
48.1648
51.2749
56.4347
84.2079
149.485
53.3584
48.0279
69.0908
76.6262
77.0864
49.1089
49.1634
61.9426
74.0994
49.8043
79.6972
67.3136
123.272
47.1393
49.5665
52.3252
159.247
52.2459
49.255
89.4734
48.5501
63.5231
64.2132
47.8786
93.0571
62.0003
62.3268
68.7606
251.848
50.6524
95.8475
271.756
112.973
79.3707
93.8661
167.651
228.552
48.9389
130.437
53.2537
61.4491
65.7555
74.1045
108.414
49.3299
167.107
95.3762
299.532
117.65
248.527
181.882
84.0203
55.6494
46.6679
104.829
46.8098
49.6553
67.0232
61.2249
46.2856
75.8363
45.8585
203.572
66.2492
49.2962
92.0392
46.2607
47.6904
123.648
95.6854
48.4835
128.523
48.0264
76.8071
136.547
66.9927
93.0665
47.3048
67.34
61.1567
82.9258
78.7526
217.824
294.047
48.9661
203.946
181.055
204.572
120.407
279.197
179.442
1163.09
53.5963
1095.44
127.133
80.3628
85.1508
107.62
90.9827
92.6736
51.6824
603.367
47.8763
50.3441
56.2121
66.2161
102.611
115.16
47.3308
66.1435
58.1198
92.6064
47.406
90.2217
59.1118
757.867
1024.65
672.911
46.4242
48.9757
46.4484
104.698
674.503
87.7466
119.953
217.556
76.912
106.586
125.264
91.6844
367.925
193.134
47.3078
60.4964
47.7233
85.0378
46.3098
77.1611
59.5644
52.3047
71.7424
77.8608
576.98
54.3716
76.1978
129.427
46.6083
605.816
53.3223
47.7504
51.6921
47.8502
48.0696
46.0917
54.1037
49.5296
51.9075
57.9137
49.2258
81.3568
87.6388
48.8641
48.4277
63.3126
50.3725
49.9637
51.6221
79.5263
46.6409
51.0365
93.8655
60.2357
58.6608
82.4743
93.4282
48.045
50.8846
134.215
48.4154
68.2847
47.5921
133.887
886.989
77.422
48.0418
200.25
48.0702
63.0569
96.4402
72.5912
46.904
63.7381
48.2002
45.9471
73.9136
88.9972
82.9241
84.8927
52.8185
49.2697
85.1015
49.9827
48.6687
82.8406
55.9896
65.6308
50.1079
63.0216
91.7643
65.7716
48.8633
478.211
47.7772
353.537
73.4805
108.333
106.211
48.862
147.38
47.6876
96.5698
48.4773
644.844
342.205
46.6798
51.0808
81.1401
86.7135
80.6754
76.9835
78.2231
90.9327
68.9058
46.2987
104.034
70.1919
49.6325
79.522
75.4055
54.0963
143.003
1260.02
49.1341
281.324
1041.79
91.7196
1074.72
884.189
50.2413
80.0237
75.4502
77.4181
681.926
92.2967
50.8083
51.6414
73.419
74.4298
82.5364
81.3673
445.253
728.506
147.653
65.7212
74.4089
107.761
55.0565
48.1232
64.4423
47.7667
84.3118
75.846
132.717
68.484
49.3528
78.0519
59.4696
81.1186
48.6256
64.5359
67.1769
67.2246
63.6237
111.004
126.323
61.5177
86.3666
48.225
472.928
132.155
74.0112
47.4931
141.277
222.963
49.5536
46.3534
49.7807
48.4045
68.9109
50.6645
110.945
79.8518
49.5148
53.3938
151.081
99.7543
47.2225
53.1105
59.158
56.9556
48.8148
51.7928
46.5726
68.0009
57.2084
113.674
60.09
48.4898
46.81
47.7904
75.5425
130.676
48.3844
46.4288
57.0873
54.368
54.4824
58.9875
72.9483
72.3078
52.2383
76.9293
100.944
422.862
61.8308
69.0688
55.3807
49.3549
120.542
120.981
79.8668
50.4796
83.7708
98.8865
50.3864
132.071
48.5219
227.285
52.5203
53.5057
58.0922
117.511
46.1717
72.5206
72.3337
47.9385
45.9905
50.5747
1129.08
62.0001
153.2
47.3917
93.6187
48.3655
58.1076
79.8114
71.5357
70.7838
47.2473
420.947
53.5314
57.873
53.4231
50.6663
46.992
59.3041
112.352
49.9189
52.9163
68.3474
46.9052
218.471
47.5483
61.6632
521.994
73.2355
46.3795
387.574
540.047
47.7691
667.675
709.985
71.5965
47.7097
52.3737
46.4691
87.309
92.4853
502.916
46.7747
132.766
51.3214
101.202
58.0818
85.9318
68.7607
521.284
261.102
52.9977
93.7704
87.9356
85.2637
124.622
128.554
51.787
98.523
132.988
85.4477
68.3705
128.177
52.5054
49.8119
128.65
95.9137
77.8902
126.492
104.436
65.7544
73.5371
58.8641
57.0243
69.6433
50.1213
48.3395
1341.92
61.5625
72.0732
1059.57
1019.49
46.2312
79.1307
1655.7
174.717
91.1493
274.688
119.503
760.99
57.8388
50.0015
60.5205
156.057
113.885
112.895
47.4258
120.814
64.9582
82.3903
51.1378
82.6137
57.214
374.103
680.875
124.756
52.7344
87.5188
47.4231
111.254
48.0591
58.8883
63.7181
66.718
48.1869
187.202
76.594
47.9365
73.2249
192.805
863.415
202.962
90.1556
46.8342
75.4945
46.8684
860.049
70.8777
536.69
86.3328
104.356
63.4766
71.3103
61.6138
85.3544
57.5497
88.6753
53.97
210.193
84.5505
49.2414
69.351
90.9683
1075.45
63.2035
205.754
66.0671
48.692
46.6828
148.107
79.7755
69.3269
47.3849
65.36
64.441
75.2713
81.2296
79.9006
64.3777
123.665
193.079
71.8482
96.6411
66.5593
116.404
93.8388
48.5767
80.7803
58.8159
75.4257
80.6698
47.1067
300.186
419.155
98.3995
67.7175
48.2216
93.3281
52.6359
141.057
49.6976
233.836
84.4785
47.1479
79.1918
49.3314
59.4401
70.923
50.0266
90.7146
47.2195
47.7528
50.5064
166.812
45.757
396.217
217.306
241.945
356.044
82.585
178.789
58.9845
50.83
146.787
351.085
368.31
97.3201
59.2459
114.695
120.997
159.776
134.251
95.5757
52.7576
69.9383
96.0263
117.418
58.2437
85.6141
370.34
60.2184
63.3675
153.56
122.252
116.501
131.08
706.348
482.954
230.548
255.594
80.6449
121.527
46.6019
48.5114
73.9693
400.578
187.46
73.5475
74.8566
46.8513
361.245
351.834
46.1454
173.015
92.4136
46.426
170.009
46.2579
46.2033
72.7502
73.8664
89.2966
50.2433
46.6406
60.4044
70.781
69.2902
144.945
101.322
46.1272
255.314
48.8551
46.7855
47.3452
203.045
81.1521
263.633
119.755
54.0225
47.0683
69.4044
1181.65
74.1647
85.6825
77.3574
66.0759
62.2414
120.795
124.363
127.975
316.058
88.8345
737.178
49.4237
69.1402
54.1579
63.1165
46.654
170.973
130.711
46.5346
340.813
103.309
68.1147
261.04
73.5501
53.8445
73.4666
66.995
70.895
110.577
365.693
67.4217
72.0504
211.422
225.892
662.413
221.027
91.6687
183.091
47.3815
49.1443
98.564
156.142
88.6402
85.2801
95.9309
104.835
49.8902
67.5811
109.209
101.896
92.1458
242.762
659.082
94.914
92.9561
123.977
657.902
260.324
217.277
94.9124
67.1947
96.6709
95.2358
135.105
47.1509
50.5564
96.7274
437.891
120.938
69.8068
98.1738
54.2455
110.964
129.923
78.5993
430.164
53.1921
66.695
131.345
97.3227
65.5624
66.4974
104.789
101.146
95.0392
62.7549
133.483
48.6334
47.5752
48.9837
87.1355
57.6112
150.808
53.9674
224.569
297.953
236.093
94.7667
83.6995
48.0519
70.3138
116.25
475.872
229.822
930.839
47.1871
59.5618
55.9386
288.499
87.962
307.2
241.093
235.494
121.551
246.573
90.3971
85.1682
72.68
49.2563
105.801
69.2423
73.902
193.972
79.4643
62.0403
52.1223
264.915
432.737
151.243
183.417
641.306
193.57
94.6719
74.4064
87.2871
108.426
186.894
190.544
636.336
49.5013
57.6468
72.0286
48.2602
65.5002
102.936
97.9107
54.0223
110.555
53.1781
78.8341
52.0777
47.6372
126.731
64.286
124.137
48.6082
47.7606
164.578
48.3328
97.3243
105.639
47.9009
63.4028
121.335
73.8671
65.0416
79.9257
437.131
186.986
126.382
109.568
1847.1
968.373
612.144
417.488
106.769
51.8757
1043.51
412.078
55.403
67.2193
109.359
88.0966
374.43
140.828
49.7051
115.965
58.5883
49.7466
207.203
909.457
141.338
1178.53
153.657
248.56
863.957
57.4483
80.1461
134.802
258.586
96.1294
50.9822
50.828
847.966
64.3878
344.995
70.0823
166.931
49.6827
54.9479
518.932
523.23
86.1573
57.44
71.6445
422.905
47.5849
49.2941
413.756
545.189
73.5942
47.7181
1044.53
848.442
500.047
101.383
197.934
450.329
494.673
79.3412
98.9215
98.7899
61.3882
106.02
508.788
1331.52
63.5698
61.7714
60.2827
51.5413
51.3248
81.6232
136.847
67.6539
49.5591
48.394
73.9115
389.276
1075.35
51.1869
233.131
96.4293
73.6659
177.073
55.4102
89.8619
71.4508
50.9303
202.17
52.7721
481.154
46.721
784.045
549.541
430.303
205.991
87.2614
65.4252
106.375
52.3889
203.238
1394.13
106.933
381.932
192.219
437.668
148.28
798.013
607.916
94.7512
50.1489
1462.9
83.7769
49.7516
74.14
527.33
1014.1
80.9028
52.587
459.361
81.6558
832.196
741.574
110.314
124.565
897.311
105.848
49.4105
575.588
52.1961
697.203
1022.6
47.9715
66.7351
83.5062
55.998
126.638
101.398
47.8815
124.821
90.6546
120.808
58.7939
47.0332
159.255
129.287
643.015
54.1024
98.2897
217.485
48.3624
798.628
86.5591
117.143
152.952
539.172
87.4521
596.318
183.422
141.124
57.0692
812.702
214.749
247.517
80.8617
157.706
61.2304
76.0341
67.4307
324.426
268.437
105.668
702.185
150.149
102.05
260.147
130.929
148.072
785.606
253.603
49.2882
158.472
83.9967
148.426
301.812
972.724
58.6018
48.7393
62.4448
591.281
63.5886
326.336
61.2924
62.9791
48.2852
138.099
58.6114
210.882
298.825
54.2941
63.9468
94.5005
81.299
982.565
284.886
113.397
718.035
351.079
121.998
190.703
64.3634
59.2474
1056.82
58.5808
494.335
269.022
49.7562
60.8661
80.1403
96.1955
56.743
72.0893
122.15
83.0024
78.3985
69.1071
82.2437
216.893
67.4857
199.908
158.951
193.592
56.3148
720.844
404.892
59.45
527.065
289.585
56.7342
113.403
587.073
226.239
50.5945
175.421
326.362
179.072
419.079
57.7769
552.618
104.096
53.9173
68.6319
112.11
169.723
129.264
67.6716
255.1
49.1616
267.212
110.577
1186.6
147.117
77.5132
123.087
246.191
58.518
216.559
102.651
111.331
702.103
77.5284
74.2888
993.473
46.2945
97.6402
389.129
60.7441
278.806
855.31
155.131
78.2137
80.5304
955.066
277.596
381.357
283.398
78.787
68.4029
104.45
605.701
875.769
251.07
90.464
48.5315
87.8254
89.176
131.464
333.711
95.2179
57.4416
60.8495
60.6329
48.9038
87.8469
48.1063
47.9899
123.526
91.7184
47.4668
132.231
233.127
64.4052
48.9933
134.229
62.2352
48.38
55.8547
104.802
98.2955
50.5162
97.4887
578.831
90.7095
51.5292
55.9523
46.6574
214.96
68.0526
54.4361
616.119
934.524
281.039
49.3545
638.441
155.144
48.8
934.75
102.034
923.465
92.6985
68.0124
84.5032
69.4618
47.5022
84.3736
86.6291
94.8014
116.595
90.0182
106.305
150.238
82.5915
77.371
429.839
87.8863
1251.47
71.193
652.421
47.9619
121.438
186.234
52.1507
69.6779
192.143
46.3193
423.996
318.126
1267.86
55.3935
635.045
56.3964
114.228
156.981
57.0667
544.612
72.4348
268.045
59.7352
701.296
687.782
80.7538
46.2159
336.587
72.7651
338.612
84.9639
97.9521
72.3544
73.5423
58.2347
49.8178
82.335
259.125
71.4809
180.019
87.2891
87.8331
47.7991
156.962
826.718
91.3487
281.14
72.7378
67.9499
121.801
82.9722
74.7772
57.2488
156.674
132.739
48.6028
86.2438
74.949
70.5748
95.2184
376.516
380.473
82.3493
93.8416
280.079
88.6354
53.3647
65.5633
49.9045
174.726
168.77
204.008
106.001
71.1398
73.1186
68.2872
54.2373
54.4041
61.1576
448.308
131.151
642.28
480.039
600.418
57.8795
67.6981
68.2495
72.5388
50.8259
299.19
77.2995
48.4204
81.9313
110.959
72.7853
316.226
71.141
158.704
105.498
101.962
52.2716
71.7282
91.4633
92.6119
68.3078
117.405
95.1108
169.619
86.1683
69.4751
78.0654
154.14
176.008
65.1603
84.5604
134.336
99.5327
171.779
47.4439
53.4711
136.22
68.4757
55.0731
78.3904
48.0816
47.4097
82.1732
77.9642
421.465
72.2688
87.4123
48.7678
70.7877
662.522
82.6448
86.9687
59.2934
63.8645
90.6898
87.7461
936.406
108.059
339.471
50.5839
60.141
73.2505
46.6694
50.0966
109.398
84.6379
49.8272
47.7322
306.854
107.322
480.634
123.507
241.248
106.148
75.6298
110.762
512.381
184.767
91.997
80.3912
924.068
65.1218
82.6028
91.3661
86.3153
47.727
961.545
68.0908
95.6209
47.9517
128.124
58.2612
936.805
1026.62
68.4435
53.5131
47.1033
93.9472
97.789
58.4945
1188.75
795.719
64.8965
141.946
420.019
64.3103
86.5405
113.042
46.6884
62.2836
48.7938
75.1534
214.932
88.7993
80.2901
48.3437
59.6358
76.8655
48.6535
287.779
63.5375
128.468
144.529
392.129
298.084
105.169
134.703
71.0744
133.167
123.547
47.768
584.101
308.313
131.244
94.4143
106.179
93.9392
92.1248
340.299
46.8244
47.7194
62.4565
65.6877
133.203
81.3931
370.094
416.474
49.7277
131.34
47.7204
47.6282
80.2193
61.8491
67.4394
55.0487
46.3583
339.966
403.849
47.451
47.0116
178.489
843.529
52.8227
45.7683
78.854
157.629
912.596
94.5769
367.983
320.707
346.002
367.609
72.3135
50.6918
46.2186
58.5684
943.277
54.9218
85.7229
82.3051
46.126
666.562
1124.54
1097.61
206.442
313.744
50.1837
47.2562
55.0857
82.9831
701.804
619.716
362.968
556.116
376.483
60.4687
50.4051
831.854
48.0992
914.065
95.5545
909.315
81.192
137.621
52.4515
161.665
169.24
170.104
60.5277
63.5674
90.1234
78.3469
66.6615
72.1394
68.3097
1164.13
746.035
89.5671
331.412
651.309
309.706
70.1274
48.0948
574.45
524.863
473.267
47.9586
852.83
51.3185
979.478
787.084
584.29
269.974
52.4994
60.4885
48.1779
74.2865
86.995
156.234
65.7006
84.1356
59.6968
96.4594
79.3948
46.7154
49.4298
112.245
48.7946
51.3638
80.3867
64.4732
89.0334
91.0932
158.47
92.6351
51.5322
88.3443
107.871
88.157
96.5465
132.191
1199.84
58.6604
315.991
67.0714
95.4177
349.287
74.1833
55.2471
47.5116
92.3555
97.5272
54.9223
102.262
104.107
85.0809
49.1396
67.336
54.107
71.692
111.007
73.2003
101.646
297.279
91.7472
83.542
77.554
115.477
86.3894
320.096
48.3189
68.9898
110.5
292.882
304.641
82.3655
107.664
935.709
242.423
189.442
92.1325
73.8674
114.284
89.5196
53.5736
137.4
79.8017
89.1975
357.463
52.4396
166.534
126.01
116.529
107.419
203.086
80.2079
59.2768
46.854
56.1023
99.7288
82.4573
575.245
64.2625
91.576
128.661
104.857
892.023
59.321
52.0898
105.471
281.007
378.115
154.663
47.9034
136.184
68.4567
50.9395
46.499
531.425
103.121
61.8243
383.523
62.7741
70.9714
160.416
748.711
965.238
103.582
68.4439
921.174
48.5763
165.433
124.246
539.289
324.714
56.7626
97.4944
544.463
93.8841
63.3336
70.1434
102.305
55.5569
67.5722
365.13
49.235
102.798
516.096
148.562
560.556
82.975
417.637
54.1708
1099.54
106.225
106.173
565.918
223.621
272.142
442.286
417.967
288.72
47.0937
49.615
393.359
58.1467
86.9932
359.695
63.583
62.2064
73.4178
146.441
72.078
52.2448
727.205
388.856
150.779
379.758
168.522
91.0661
83.8172
79.2196
116.773
63.7293
56.2951
84.5611
62.988
305.082
326.556
86.3064
57.2229
62.4907
76.5862
113.273
108.02
99.7075
77.8517
343.743
62.1668
65.8572
381.15
132.967
552.339
184.617
97.4735
694.327
139.714
114.837
341.848
135.423
129.168
51.6739
718.219
46.9006
56.3766
55.431
87.9514
70.93
104.162
202.24
106.976
138.849
83.5768
112.977
101.94
46.1828
314.043
118.649
562.877
1245.86
103.781
373.989
110.447
70.9399
632.991
69.3498
60.8318
83.2621
104.321
652.525
327.228
55.9685
311.893
356.907
69.884
1869.23
388.656
90.7682
353.968
64.8577
90.1418
238.656
355.146
148.165
737.505
58.4122
53.4828
154.422
56.2124
49.9981
106.981
310.39
541.859
47.3644
145.852
47.2537
146.288
62.2178
146.305
300.991
90.6358
265.159
60.4162
63.5597
772.928
47.1649
54.5078
119.167
54.6584
129.427
311.865
50.3584
945.421
522.088
870.354
491.155
119.424
70.2141
52.1991
59.9707
85.2787
48.629
89.4796
151.221
64.2749
76.1123
637.929
47.6715
151.46
48.5779
131.929
67.4072
715.843
129.081
92.9341
47.7289
136.602
152.874
50.4071
60.1436
102.4
45.7763
208.067
96.2556
107.383
56.8951
48.8318
104.533
51.3378
130.324
296.311
49.2675
72.524
50.4877
66.7448
436.665
228.23
134.008
416.979
801.617
384.792
77.8604
544.973
464.768
699.711
70.2287
189.128
383.725
306.156
279.134
952.132
58.4807
49.7201
188.081
768.636
54.7439
365.804
106.551
378.196
76.9213
73.7247
567.65
512.465
382.416
60.7908
305.319
131.915
500.522
48.1276
212.247
65.225
54.3671
98.5203
98.7093
304.889
116.007
65.5852
164.033
77.2739
244.967
348.678
49.1122
69.2243
58.6795
937.201
83.2008
132.811
165.755
140.716
67.888
47.9507
93.7766
76.4639
403.059
46.687
107.304
329.449
66.4142
53.07
76.152
73.0874
618.304
139.825
200.675
94.245
68.4231
1062.27
1081.9
59.9605
148.946
59.9557
49.5692
399.703
78.3417
506.421
56.6472
51.1905
99.5543
59.0352
51.7269
61.4302
67.3544
139.038
212.474
311.896
258.536
71.2217
79.3714
48.4646
173.208
557.71
890.699
74.5828
570.552
187.436
628.798
83.8417
382.153
111.79
154.851
130.825
86.4692
272.195
72.7744
179.683
111.933
61.6253
1019.69
107.668
630.292
107.693
67.8998
110.96
102.281
64.5955
68.2089
273.895
109.312
124.472
56.185
123.665
583.737
131.499
80.4403
164.086
48.6402
61.1902
48.2965
78.3274
80.4065
150.913
73.8007
98.8244
87.8257
72.2531
80.5911
64.1961
76.1739
60.5081
241.952
54.3058
106.997
52.5169
70.343
129.387
81.5557
52.3591
81.8755
100.966
92.246
130.966
333.447
49.0235
131.901
338.006
158.904
156.265
53.4811
156.92
87.07
283.24
64.4118
50.7763
53.9583
153.211
60.2734
66.5433
832.777
138.788
344.659
49.4935
51.1494
176.61
81.853
56.1596
126.078
49.1537
83.9161
58.0184
373.004
47.3664
154.503
50.1415
50.5734
77.6579
66.2553
133.828
105.831
46.5486
269.769
67.968
72.7156
91.1745
772.981
64.9371
62.0815
131.138
61.2156
56.7244
127.883
56.434
51.2436
107.631
193.461
127.201
87.0028
404.907
110.598
284.246
48.6757
182.441
67.1069
96.1079
150.822
52.2207
85.9735
63.6426
82.1716
162.744
67.4661
577.107
104.042
49.4838
489.731
131.506
1349.56
304.668
116.181
88.1621
98.6541
122.242
385.855
65.032
456.902
91.3846
360.249
68.2005
362.599
68.4578
238.608
216.853
129.187
383.128
448.383
534.66
1235.52
547.181
719.307
319.483
401.179
348.41
47.5109
98.3975
310.547
70.7472
602.671
59.8184
451.123
603.805
125.342
103.072
78.4356
46.9033
115.726
49.5447
253.882
134.52
85.9396
180.496
88.0906
157.473
69.9928
54.6138
114.39
52.4959
223.04
48.1586
70.0214
693.252
64.9487
47.2641
99.2194
62.7496
581.541
243.188
71.0697
61.2041
173.023
49.6897
80.4267
52.1007
54.8551
106.595
79.5838
57.0817
63.1105
307.885
90.1872
60.2646
49.4903
47.1742
48.5007
133.346
74.6086
100.024
54.49
75.7643
98.7077
54.6006
251.775
75.7488
51.1033
61.7086
85.4826
143.605
112.711
100.352
52.0154
120.94
86.0864
55.0583
56.2338
79.6156
79.0915
98.8911
72.4744
129.75
67.3327
86.2123
117.268
274.214
703.065
1110.66
127.97
60.9544
402.974
172.759
129.158
49.4692
51.3444
47.6821
90.6674
76.2472
47.4428
48.3829
51.3115
116.47
47.1813
49.6631
48.1072
59.7323
169.098
57.9953
118.854
54.0442
93.6268
259.759
59.2427
54.8915
62.7715
1025.26
975.698
99.9369
67.4931
67.5019
60.3643
81.7106
519.588
67.2431
68.8035
92.3357
48.333
95.467
55.283
80.0394
115
90.399
65.1782
207.29
248.084
67.3332
2030.33
203.784
203.869
61.9791
86.7132
103.098
117.53
51.8334
76.9827
315.871
48.1006
199.965
562.736
108.985
127.225
571.227
69.7907
80.9179
94.5183
46.8976
123.906
381.48
94.7402
88.5179
388.418
198.591
1150.32
596.098
98.069
50.5357
141.529
68.5268
181.668
145.586
536.736
49.8511
47.8594
608.413
52.5398
200.969
74.7085
106.619
628.454
836.812
50.378
47.242
887.002
49.9752
53.6636
64.9062
48.1897
84.3785
121.414
247.662
58.7731
552.332
108.676
51.4472
86.8089
689.848
83.4253
611.967
66.1342
59.3982
88.6237
87.8686
61.7552
99.0918
64.2345
561.73
108.975
111.967
471.339
125.724
54.3148
573.742
105.815
110.689
80.7264
118.634
111.664
76.5397
49.8652
257.934
72.6329
74.2056
64.7312
115.62
75.467
60.1519
49.7269
63.8452
154.665
69.2838
64.0867
84.1032
417.161
74.2822
69.0652
66.0725
97.1289
50.123
65.2781
60.4885
134.714
95.4532
143.552
151.409
90.305
384.608
61.4184
57.9783
417.824
334.371
536.087
91.1801
384.634
57.1077
429.772
96.2322
352.931
97.0886
47.6141
117.735
208.033
95.6568
66.6084
48.8777
60.6837
443.307
61.254
51.3988
56.2735
1853.65
373.603
48.8128
1520.68
482.556
329.101
185.939
1430.64
318.85
70.9424
359.726
92.5199
55.665
413.522
964.772
66.5668
49.6786
54.7231
523.293
49.396
959.686
64.6525
131.297
101.501
129.108
335.565
47.8261
117.523
124.116
55.8015
106.938
52.1009
126.005
1934.7
1981.38
787.797
95.5985
494.029
48.1562
49.5777
60.5464
101.96
47.3812
56.7678
47.3978
73.5146
91.2771
48.2564
53.6914
77.7154
48.6764
98.4011
123.489
49.0979
118.005
132.999
47.9262
57.7504
879.354
56.4944
829.222
608.949
131.493
136.118
83.7072
125.23
66.2059
56.2403
397.724
57.7521
61.8526
52.4316
55.2146
78.6823
142.455
109.48
182.85
112.866
50.8254
527.591
64.314
292.025
278.836
63.8254
827.615
75.3407
59.3212
60.9086
58.0357
69.874
51.7173
127.961
53.9627
393.521
207.347
371.261
56.1517
57.8043
82.6387
352.183
355.063
84.6957
148.377
64.9478
380.294
64.4175
105.007
489.128
87.5606
55.5135
92.6986
1105.23
60.177
59.3012
122.172
50.6629
138.951
133.546
71.0807
85.4114
269.15
172.922
738.973
73.2485
356.702
335.423
336.145
55.0925
180.492
105.157
105.083
53.6566
58.0587
60.9511
471.585
85.102
98.8848
170.607
81.6839
61.6946
98.374
50.4913
147.065
48.3501
63.4983
169.65
104.494
79.5974
171.088
101.401
86.7224
81.2757
129.318
47.6457
274.24
313.288
110.978
89.0204
47.8801
252.775
59.69
48.6431
87.2253
49.8088
109.923
91.213
49.2531
52.3155
102.219
245.536
220.327
49.6438
777.444
46.922
97.9191
95.1542
48.2422
760.241
151.069
663.229
50.3715
69.5754
523.105
665.56
92.0356
103.138
197.166
128.094
54.9869
85.9272
62.6001
148.938
83.0999
136.323
49.7542
137.063
102.947
111.94
59.6632
90.349
46.9565
62.46
567.12
254.647
103.936
61.2738
106.855
88.2972
88.9298
149.126
48.0247
52.0497
61.9191
89.3092
85.6066
65.9514
115.519
57.6473
56.5925
54.4423
72.2859
58.8715
65.1282
177.665
78.542
69.5762
1276.44
80.4833
65.2564
81.1971
46.927
85.5025
210.689
50.11
80.4224
81.5722
957.432
64.3763
62.067
95.4926
1504.1
96.1207
155.487
125.595
68.591
48.1368
74.8161
66.2988
824.02
97.3453
68.5077
66.3254
49.7294
264.521
50.2051
592.391
272.05
112.173
76.4183
59.5658
111.354
90.1028
60.0142
428.105
120.856
316
47.525
140.265
671.335
119.282
51.6811
103.469
53.6816
729.112
60.9779
57.0939
91.4074
46.482
59.8952
87.3435
51.7357
250.857
49.3864
362.911
47.4151
78.4819
66.5835
150.574
90.0316
130.796
110.577
563.876
103.993
124.171
76.108
48.2973
102.839
58.784
54.3095
81.5078
77.2112
63.6387
127.786
47.5209
63.6124
49.047
280.732
86.8519
554.388
527.926
317.134
162.674
65.6398
69.7531
60.8986
195.886
93.0138
48.5502
48.7836
113.429
133.106
49.603
74.9521
1071.42
108.03
67.8167
73.86
765.835
849.441
60.1941
534.603
553.47
207.862
303.02
170.663
489.424
72.5701
229.96
740.618
74.6379
46.3664
59.6024
99.5789
318.548
48.1601
47.9394
68.8811
150.479
156.424
1120.51
111.744
964.87
120.077
70.0477
87.6413
78.5269
68.7806
583.225
121.056
306.817
470.923
67.2646
600.12
1977.02
65.24
134.816
106.858
425.392
154.072
122.594
711.595
1037.11
98.803
585.808
128.158
387.987
82.655
48.5722
154.453
723.037
647.702
61.8412
108.613
152.761
96.799
240.491
53.2039
68.1914
910.916
358.507
409.797
47.4159
411.648
66.7462
383.354
61.1866
107.854
197.686
330.587
87.4652
109.242
320.563
100.567
759.088
75.7766
62.9316
360.321
49.8283
151.468
47.8115
54.4396
47.7135
83.5839
417.906
458.763
340.807
61.3882
65.7623
272.637
60.2187
439.075
68.4518
54.6682
83.3479
197.497
153.865
590.107
51.3843
75.5932
67.1628
300.508
105.305
565.35
878.792
435.16
104.745
64.4064
384.95
385.731
157.987
51.5991
64.3334
46.6067
730.647
244.79
382.373
1944.09
237.319
97.7416
82.8726
758.355
398.572
66.2675
89.8524
102.888
359.62
58.3185
49.7123
90.1254
77.2016
668.257
332.514
231.858
199.986
280.952
356.921
165.693
96.1038
825.961
500.487
694.727
207.066
339.31
606.256
155.621
60.76
104.815
58.3576
56.0069
73.6294
73.9181
145.22
281.813
86.5425
179.302
182.387
147.261
86.2342
185.179
105.001
85.8347
129.654
700.593
1095.24
492.119
67.9072
121.155
80.6479
263.919
550.557
156.031
480.437
78.0417
421.871
325.024
183.635
49.0969
48.5721
71.5241
63.5256
624.676
89.7365
58.1492
501.255
73.221
779.392
419.256
99.2053
431.336
60.9141
46.9394
49.8087
46.8876
100.487
68.4192
94.1038
134.752
75.1642
48.4885
158.888
619.874
514.668
47.3697
106.527
53.1715
65.5981
54.5488
608.855
52.9526
53.7245
54.691
102.27
48.8203
54.3367
94.1641
54.989
58.1352
56.3623
231.642
47.5584
62.275
122.125
413.008
386.342
64.8262
647.732
646.918
56.9749
55.9468
162.984
75.4911
294.362
83.7727
93.8049
81.7839
273.621
71.0956
93.3807
1016.65
423.866
99.9545
610.694
50.166
48.2011
64.8129
47.869
47.6071
72.5452
56.4151
78.1943
193.486
82.8418
405.303
176.558
261.409
82.1066
46.218
632.759
132.549
86.1817
564.776
104.557
653.535
70.6684
444.205
47.6495
175.775
87.2962
245.117
49.1148
87.8871
79.8655
722.551
49.0888
46.2691
106.215
80.619
125.874
58.8536
66.4663
91.615
50.7641
131.103
51.6878
64.5351
148.171
89.4319
204.155
68.1394
48.3868
61.3584
47.1025
54.5567
213.424
46.1455
89.3405
46.4945
231.495
120.056
54.1902
116.117
112.307
59.6736
81.7297
71.2726
131.513
158.477
53.7533
48.9437
89.6619
73.3044
386.313
560.957
488.024
62.9925
49.4727
57.7496
63.3754
90.6149
845.31
235.998
64.4084
54.5026
74.2843
49.2049
49.9949
76.1897
144.047
182.979
467.978
273.739
57.2023
77.2584
81.5855
46.1721
250.903
73.7368
104.01
115.045
53.9022
967.224
77.1235
57.4099
69.5582
68.8605
162.157
457.407
47.2956
416.542
57.5046
745.964
114.084
500.546
72.3114
49.2874
59.125
104.861
53.2896
48.6525
126.788
46.935
48.0718
53.2224
61.2155
215.187
60.2187
747.386
75.4611
61.0969
143.068
171.506
48.487
471.178
936.095
736.314
552.698
445.561
53.8307
404.331
342.724
80.3379
58.2799
54.7042
684.795
92.282
98.2864
49.3564
74.0937
287.044
724.209
155.507
83.5813
46.3256
66.2507
247.422
50.1157
56.9207
558.249
482.938
276.641
735.15
77.0096
47.8945
71.1408
82.5587
1122.72
50.8924
47.9715
46.9282
299.377
47.8432
54.26
96.0437
101.012
47.1129
112.244
49.0171
149.011
82.0489
140.684
56.205
215.309
91.885
114.25
181.082
112.867
232.559
53.6246
617.165
93.2255
343.548
331.459
409.763
84.1778
110.13
193.841
71.7627
46.9829
51.5042
53.1396
88.5227
564.422
119.027
48.0483
84.5669
62.6195
49.5882
120.114
60.5305
136.393
99.3356
49.7583
101.995
53.1834
76.8006
288.064
535.909
69.3136
101.124
80.7623
105.497
534.081
276.878
555.998
854.383
143.546
49.6458
51.1465
47.3925
106.873
836.919
81.2364
796.138
134.602
48.5808
119.465
377.519
49.1055
48.9817
56.5733
77.0587
58.0442
266.456
74.3029
92.4023
269.791
49.2558
99.3601
61.9046
130.46
89.4875
55.2549
642.812
81.6464
116.373
58.2812
102.811
48.1145
115.449
123.249
93.9889
94.7613
77.0833
65.2963
68.3277
54.3183
231.67
58.5882
54.2539
118.023
223.132
235.667
81.2275
95.8878
115.559
173.327
71.1886
337.127
82.5243
141.028
104.7
71.7997
163.676
84.5163
85.7887
344.226
102.536
53.1696
49.4718
333.591
91.4596
105.068
53.6916
114.899
87.8558
48.8896
96.2291
390.752
90.6477
72.8972
89.2817
646.708
73.8719
92.6628
147.555
60.9919
159.431
52.0744
725.685
83.5064
80.772
86.3449
56.9526
118.354
56.7934
483.28
46.2048
78.2343
627.241
58.2424
114.786
206.795
103.457
50.9654
540.981
57.5682
47.5092
95.0984
135.718
56.6012
302.104
47.0068
371.943
99.7749
47.3742
76.547
119.43
715.163
184.169
71.4517
49.2768
131.476
384.686
385.294
118.684
125.606
997.367
209.696
323.532
130.99
85.7732
104.907
59.8779
526.309
1008.26
153.129
175.712
100.322
934.48
486.305
446.023
417.497
171.678
65.0064
54.5519
152.82
73.7545
547.9
327.805
82.0783
772.238
109.721
65.5844
68.8787
51.4592
108.478
89.1254
92.3375
78.997
142.745
184.428
868.65
57.4155
119.185
638.955
603.074
182.281
181.718
66.3236
674.535
47.5755
65.7931
363.591
148.453
47.7301
322.448
422.066
69.6716
125.966
50.5898
98.8998
57.1592
80.9456
176.39
86.3186
596.46
46.7924
54.8401
90.6532
475.023
168.832
124.323
169.489
243.491
123.034
78.6249
395.891
109.96
72.7736
243.449
775.462
279.494
59.0445
378.998
160.428
89.6999
66.4224
128.042
49.1291
106.03
81.7945
77.5284
70.63
60.3995
88.7086
48.0829
46.4506
49.4756
100.495
51.2441
160.717
413.927
716.381
98.2358
81.0141
59.6685
53.4416
105.513
652.992
53.8585
146.639
74.1708
209.9
62.1972
108.848
138.405
391.389
49.182
56.5105
250.949
53.1747
73.0224
108.906
70.4567
363.565
82.426
321.482
402.513
242.02
627.524
186.32
385.459
86.7147
130.315
145.831
55.8533
414.595
117.38
88.2702
157.843
90.0603
83.3144
47.003
57.2426
52.0447
46.6568
86.9651
311.929
46.8677
889.022
114.284
323.006
117.256
342.619
1782.99
56.5719
262.536
1084.64
119.003
338.517
79.1413
70.6763
768.446
989.229
267.807
163.308
57.0313
346.851
103.685
563.241
54.0702
57.6262
225.651
1001.72
62.5488
80.0536
54.8398
219.45
455.542
51.3756
483.766
239.151
534.64
694.659
53.4472
333.638
69.6949
645.781
385.814
218.715
368.294
229.209
443.458
309.746
237.739
78.7255
73.8348
73.46
53.1457
55.7818
1235.43
70.4119
103.386
71.235
78.9276
115.729
970.197
128.606
258.81
307.689
134.219
337.648
130.572
46.229
73.353
919.82
552.561
239.129
191.239
231.975
83.6108
450.57
58.2225
245.84
258.819
58.6222
491.575
110.476
282.837
348.391
131.876
174.321
180.693
125.495
52.7549
144.133
65.5544
509.75
71.1225
188.197
79.9834
246.073
61.2633
69.2495
357.7
126.308
298.601
48.4914
1003.04
47.5311
61.1885
54.4076
58.4251
87.5143
488.055
143.401
67.3093
629.021
77.5552
50.4744
61.957
841.173
50.2799
91.8125
840.588
219.049
870.093
416.925
138.59
169.14
173.997
194.555
723.989
68.9585
381.796
119.381
65.7553
182.304
67.0917
128.813
69.7382
645.688
419.007
518.538
335.548
223.288