/*--------------------------------*- C++ -*----------------------------------*\
| =========                 |                                                 |
| \\      /  F ield         | OpenFOAM: The Open Source CFD Toolbox           |
|  \\    /   O peration     | Version:  2506                                  |
|   \\  /    A nd           | Website:  www.openfoam.com                      |
|    \\/     M anipulation  |                                                 |
\*---------------------------------------------------------------------------*/
FoamFile
{
    version     2.0;
    format      ascii;
    arch        "LSB;label=32;scalar=64";
    class       surfaceScalarField;
    location    "0.0321508";
    object      phi;
}
// * * * * * * * * * * * * * * * * * * * * * * * * * * * * * * * * * * * * * //

dimensions      [0 3 -1 0 0 0 0];

oriented        oriented;

internalField   nonuniform List<scalar> 
92401
(
0.147356
-0.095502
-0.00690543
-0.0449486
-0.0622714
0.0600378
0.037156
-0.0349224
0.0225417
-0.0397972
0.0429737
-0.0257182
0.00639295
-0.0125352
0.0124059
-0.00626366
0.00141536
-0.000451753
-0.00576687
0.00480327
0.0195769
0.00969198
-0.0255707
-0.00369818
0.00547335
-0.00450022
0.000442227
0.0324472
-0.0257904
0.01292
0.0482279
-0.0386838
0.0323345
-0.0418786
0.00053604
-0.00112601
-0.000191548
0.000781515
0.0046903
-0.0418763
0.037392
0.0248361
0.023995
-0.0862231
-0.0167578
0.0107616
-6.88833e-05
0.00606516
-0.0343094
-0.0403008
-0.0170774
-0.0163566
0.0568673
-0.0234332
0.00168998
-0.0650814
0.0633914
-0.00207568
-0.00765693
0.00193341
0.00339035
0.00233316
-0.000929051
0.00144297
0.000295467
-0.000809381
-0.00471895
0.0102979
3.84524e-05
-0.00561736
0.016024
-0.00568467
-0.00461702
-0.00572228
-0.0403228
0.0080616
0.0368297
-0.0045685
-0.0391465
0.0107251
-0.055119
-0.0542619
-0.00318969
0.0555967
0.00185498
0.0905382
-0.0893425
0.0230554
-0.0242511
0.0499392
0.0600741
-0.0713226
-0.0386907
-0.0324293
0.0513033
-0.0580205
-0.00256129
-0.00105095
0.00387019
-0.000257949
0.0317522
-0.0637505
-0.000431038
0.0612071
-0.0611577
-0.0321245
0.0320751
0.0126287
-0.0172787
0.00121464
0.00343539
-0.0363339
0.106572
0.06075
-0.130988
-0.0846487
0.107878
0.00860538
-0.0318343
-0.130931
0.0317466
0.029833
0.0693514
0.0152942
-0.0617127
0.0367701
0.00964838
0.0605432
0.00953509
-0.0547841
-0.0440008
0.010432
0.00198967
0.0315791
-0.0503982
-0.0411831
0.06543
0.0261514
-0.033446
0.040311
-0.013942
0.00707695
-0.0196549
-0.101889
0.0646994
0.056845
-0.0865649
0.0864355
0.000129429
0.031813
-0.00170758
-0.0747521
0.0446467
0.000392716
0.0260033
-0.0272361
0.000840151
0.0269433
-0.0504088
0.0234655
0.000116723
-8.57688e-05
-1.91645e-05
-1.17897e-05
7.25122e-05
-0.0589643
0.0588918
-0.068652
0.0426521
0.0627758
-0.0367759
0.0900077
-0.0255413
-0.0125264
-0.05194
-0.000159934
0.0700137
0.000244149
-0.070098
-0.0474618
0.0729876
0.0393137
-0.0648394
0.000520179
0.0010194
-0.00036264
-0.00117694
-0.00224476
-0.00360663
0.000412184
0.0054392
-0.0383109
0.083978
-0.0461058
0.000438639
0.000325005
-0.000778601
-0.000684631
0.00113823
-0.0548365
0.0543673
0.000469129
0.0748023
-0.00764463
-0.0188502
-0.0483075
-0.0974671
0.0898516
0.00559281
0.00202267
-0.0554727
0.0274339
0.011417
0.0166219
-0.00216731
-0.0158521
0.00690181
0.0111176
-0.0124278
0.0258841
0.0375383
-0.0509946
0.000904686
-0.000261154
-0.000318527
9.6384e-05
1.42952e-05
0.000709881
-0.00082056
0.00117776
0.000214736
-0.000816685
-0.000575815
0.0040825
-0.00913718
0.00519521
-0.000140535
0.0679233
0.00505886
-0.0172182
-0.055764
-0.0149917
-0.00453397
0.0101514
0.00937432
-0.0408661
-0.0531585
-0.0550343
0.149059
0.00358163
-0.0336772
-0.00386342
0.0339589
-0.000433199
0.000542164
0.000707708
-0.000816673
0.00477693
0.00420659
-0.028356
0.0193725
0.0186627
-0.00688217
-0.00950226
-0.00227831
0.0417938
-0.0762282
-0.0275273
0.0619617
-0.0282415
-0.00338622
0.0102484
0.0213793
0.0119361
0.00804852
0.012918
-0.0329026
-0.000894751
-0.000408469
-5.27464e-05
0.00135597
0.025146
-0.00968629
0.0366029
-0.00123733
0.000852419
-0.00148369
0.0018686
0.0444006
-0.0330368
-0.068384
0.0570202
0.000628767
-0.000287617
-0.00034115
-0.00107153
-6.12447e-05
0.000562707
0.000570071
0.000936969
-0.000419045
0.000956115
-0.00147404
0.0222871
-0.021871
-0.0627419
0.0623258
0.00118942
-0.0127533
0.0026476
0.00891629
0.0432682
0.0577876
0.0188641
-0.11992
-0.116403
0.0258207
0.129219
-0.0386369
-0.00516155
-0.0438975
0.00393999
0.0451191
0.0529436
-0.0285406
0.0252759
-0.049679
0.0249184
-0.00415628
-0.150778
0.130016
0.00631019
0.0172485
-0.0264514
0.00289276
0.00069621
-0.000245946
-0.000688652
0.000238388
0.0379092
0.0127603
-0.00191929
-0.0487501
-0.00187216
0.0834322
-0.0852246
0.0036646
-0.0181574
0.0499818
-0.116332
0.0845076
0.0418675
0.00534629
-0.0523753
0.0420401
-0.000172608
-0.00237694
-0.0289938
0.0413309
-0.00996017
0.0710309
0.0166923
-0.0313399
-0.0563832
0.128193
-0.141714
-0.028204
0.0417249
-0.0147209
-0.0453977
0.0577418
-0.081166
-0.000709005
0.081875
0.00135155
-0.0982942
0.164519
-0.0675762
-0.00238958
0.0033071
-0.000551594
-0.000365928
0.0885149
-0.147619
0.0308854
0.0282185
0.00155442
-0.000304067
0.00081891
-0.00206926
-0.0856644
0.143101
-0.104083
0.0466462
0.0292095
0.00326293
-0.0397678
0.00729543
0.0871453
-0.0163747
-0.0797701
0.00899945
0.00592684
0.0311332
-0.051781
0.031131
0.0283167
-0.133324
0.073876
0.0853205
0.113018
-0.0788886
-0.11945
0.000224435
0.000818842
-0.00283546
0.00179219
-0.0947657
-0.0292588
0.111882
0.0121429
0.00147942
-0.00585856
0.015159
-0.0107798
-0.0139351
-0.0334572
0.0575039
-0.0101117
-0.00535738
0.0166214
-0.0140978
0.0028338
0.000318478
-0.000658862
-0.000513925
0.000854309
0.0211867
-0.0254282
-0.00111592
-0.00176157
-0.000730835
0.00145043
0.00104198
-0.0571206
0.0597352
-0.00261465
-0.00241955
-0.00614963
-0.00200849
0.0105777
-0.036046
0.0278186
-0.00570765
0.0184469
-0.0473167
-0.0557789
-0.0510447
0.04141
0.0982062
-0.0885716
-0.0074501
-0.00168407
0.00497102
0.00416315
0.0469293
0.0116009
0.00190046
-0.0604307
0.000341554
-0.00906466
0.00666568
0.00205742
-0.0390572
-0.0533059
0.0116542
0.080709
0.0646872
-0.0388639
0.0266013
-0.0524246
-0.00930887
0.059565
-0.0589007
0.00864453
-0.0592279
-0.0340438
0.00821463
0.0850571
0.0166805
0.00512357
-0.0334256
0.0116215
0.0595771
-0.0590991
-0.000477932
0.00187716
0.00184258
-0.00122631
-0.00249343
0.0412564
-0.0436911
0.00243472
-0.051956
-0.0387705
0.106112
-0.0153851
0.000853146
-0.00968554
0.009455
-0.000622605
0.00302916
0.00595167
0.00253087
-0.0115117
0.00178861
0.00613955
-0.00758661
-0.0250056
-0.0573837
-0.00927795
0.0916673
0.0255634
-0.00730161
0.0170282
-0.03529
-0.0842793
0.092361
-0.101527
0.0934448
0.0774317
-0.0515042
-0.0259275
0.00137049
-0.0343874
-0.0100457
0.0430626
0.00806449
-0.00550907
-0.00901823
0.0064628
0.0460952
-0.0697016
-0.061439
0.0850454
0.0741598
-0.0647226
0.029241
-0.0386783
-0.0132417
-0.00840472
0.0315995
-0.00995304
-0.0584441
-0.0872358
0.0565865
0.0890934
-0.0414848
0.0538432
-0.0109879
0.0978306
-0.0485141
-0.0493166
-0.00415739
0.0146856
-0.00246375
0.000946179
0.000647696
-0.000698568
-0.000895308
0.0475393
-0.0160091
-0.00526976
-0.0262605
0.00353343
-0.00178527
-0.000503447
-0.00124472
0.00552737
-0.00997147
0.00856288
-0.00411877
0.0728029
-0.0421887
0.025604
-0.0562182
0.00851808
-0.000313598
-0.00681185
-0.00139264
0.00161878
-0.000570103
-0.00104867
-0.0639251
0.0643516
-0.000426541
0.0121345
0.00571843
-0.0963072
0.0784543
-0.0111193
0.014035
-0.0101716
0.00725592
-0.072455
0.0166869
0.0827853
-0.0270171
0.0184093
-0.097514
0.0755946
0.00351007
-0.0524973
0.042533
-0.00808912
0.0180534
0.00855757
-0.00177125
-0.00286696
-0.00391936
8.43289e-05
-0.000951815
0.000867487
0.0273625
0.170485
-0.243388
0.0455404
0.000294919
-0.000252701
-0.025018
0.060491
-0.0526934
0.0172205
-8.1058e-05
0.0051302
-0.00423792
-0.000811218
0.000676487
0.00181162
-0.00290715
-0.071717
0.000321008
0.071396
-0.0325779
0.114181
-0.0478967
-0.0337067
0.000309143
0.00077024
0.00940688
-0.0104863
-3.24921e-05
0.0899637
-0.0899312
0.00233699
-0.00163334
-0.00113897
0.000435319
0.00128402
0.000616772
-0.000622023
-0.00127877
-0.036571
-0.0014505
0.0323401
0.0192681
-0.064036
-0.0719704
-0.0164981
0.00601891
0.0824496
-0.00058998
0.001874
-0.0992611
-0.0418709
0.112509
0.0286232
0.0275213
0.168878
-0.0845028
-0.0574102
-0.0269646
-0.0176293
0.118579
-0.043582
-0.0573676
0.040429
0.0302163
0.0377365
-0.108382
0.105049
-0.247827
0.108576
0.0342019
0.00154394
-0.00134536
-0.00142618
0.0012276
-0.0120406
-0.0358002
0.0559533
-0.00811251
0.0252841
0.0404908
-0.0257255
-0.0400494
-0.0353175
-0.0259922
-0.0197059
0.0810156
-0.0540449
-0.0133372
0.0553415
0.000719144
-0.0119805
0.00826791
0.00299343
0.0554247
-0.0284947
-0.0508696
0.0239396
-0.0885931
0.104454
-0.0500432
0.0341825
0.015932
-0.0229023
0.00712495
-0.000154562
0.0518255
-0.0601389
0.0637382
-0.0566491
-0.00371134
-0.0143019
0.0746623
-0.00536103
-0.0125367
0.00212564
0.0157721
-0.000194893
0.0576329
-0.0572144
-0.000223678
0.136435
-0.0536746
-0.00332685
-0.0794339
0.059432
-0.00780204
-0.0484655
-0.00316449
0.0526565
-0.02082
-0.0750454
0.0432089
-0.00958938
-0.00201307
0.0147245
-0.00312205
0.00526092
-0.00163693
-0.00478113
0.00115714
0.00216073
-0.0431182
0.0396957
0.00126182
-0.000936767
-0.0863978
0.00359444
0.0193063
-0.0129637
-0.0632601
0.0473779
0.0158822
-0.0596338
-0.0169395
0.0107818
0.0657915
-0.0983227
-0.00201405
0.103069
-0.00273268
0.00379942
0.02322
-0.0125992
-0.0144203
-0.070587
0.150002
-0.0662442
-0.0131706
-0.00507705
0.0140796
0.0224433
-0.0314458
-0.050859
0.0972788
0.0381369
-0.0845567
0.0278462
0.00223646
-0.0147578
-0.0153249
-0.0359589
0.0370078
0.00111182
-0.0037591
0.00677848
-0.0092504
0.00623103
-0.000408046
-0.00422512
0.0101605
0.0362351
0.0383458
-0.0745808
0.00111125
-0.00184896
5.82955e-05
0.000679415
0.0190447
0.00834633
-0.018437
-0.00895404
0.0218856
0.00989776
-0.00249419
-0.0292892
-0.051012
-0.000802675
0.00615035
0.0456643
0.000282501
-0.0434007
-0.000916979
0.000583031
0.0014452
-0.0522321
0.0374835
0.051831
-0.0370824
-0.0441573
0.0296727
0.0185768
-0.00409222
0.00131996
-0.00317178
-0.00968431
0.0115361
-0.00867212
-0.00496764
-0.00356881
0.0172086
-0.0429665
-0.0046455
0.0116531
0.0717961
0.0394552
-0.0717569
-0.0394944
-0.0440318
-0.000364288
0.0443961
0.0863849
-0.0486158
0.0593312
0.00360653
-0.00778437
-0.0380286
0.0422065
0.03577
0.0112047
-0.00576991
-0.0412048
-0.000481163
0.000286381
0.000991054
-0.000796272
-0.0168777
-0.044625
0.0615027
-0.000291564
-0.00126113
-0.00454622
0.031627
-0.0234743
0.00607532
0.0281005
-0.0419602
0.097815
-0.0909129
-0.0020042
-0.00489792
-0.0211015
0.100704
-0.0187698
-0.0608331
-0.0318875
0.00684845
0.0152517
0.00978734
-0.0392223
0.0356962
0.0143739
-0.0108479
0.0324039
-0.0251255
0.0013908
-0.00866928
0.0183307
0.0720529
-0.120614
0.03023
0.0759148
-0.0747193
-0.0241786
0.0229831
-0.142796
0.00264791
0.00291513
0.137233
0.0301358
0.0126172
-0.0410777
-0.0016753
0.0401345
-0.0578743
0.0201216
-0.00238177
0.00207613
-0.00123829
0.000233187
-0.00107103
-0.0148769
-0.00146596
0.0733976
-0.0416304
0.0188456
-0.0506129
-0.0114833
0.0474641
0.000681612
-0.0366624
0.00578064
0.0955814
-0.0931519
-0.00821012
0.0499943
-0.0988907
0.0582115
-0.00931505
-0.0488797
-0.000389744
0.0377862
0.0153925
-0.00405544
0.00874422
-0.0200813
-0.0234427
0.0478553
-0.0133496
-0.011063
-0.048816
-6.3786e-05
-0.00524563
-0.122687
0.175895
-0.047963
0.0100583
0.00926789
-0.0627625
0.0434363
0.050178
0.00531352
-0.0454333
-0.0124775
0.00667667
-0.00356338
0.00936425
-0.0556968
0.000180599
0.0555162
0.109824
0.043823
-0.135516
-0.0181308
-0.00900415
0.00042195
-0.00389535
0.0187203
-0.11518
-0.0226276
0.119087
0.0126184
0.0658548
-0.0692052
0.0029868
-0.0551357
-0.0106136
0.000451231
0.00183827
-0.00258106
0.00194569
-0.00183177
0.000337309
-0.0509007
0.0254069
0.0744424
-0.0489487
-0.00193318
0.000969775
0.000902164
-0.0345818
-0.00772418
0.0452928
0.000211984
-0.0003069
0.00033105
-0.000898995
9.37735e-05
0.000474171
5.06474e-05
0.00210703
-0.00170382
0.0013507
8.17621e-05
0.000271363
0.00048774
-0.000307304
0.00072425
0.105316
0.120615
-0.0785753
0.000119118
-0.000839821
0.00120844
-0.0528787
0.0530794
-0.000200724
-0.0110874
0.0757286
-0.0708279
0.00618671
0.00181711
-0.0191803
0.00502847
0.0123347
-0.0604169
-0.00354924
-0.0170587
0.00404775
0.0475846
-0.0345736
-0.0646134
-0.00121854
0.065832
-0.00621405
-0.0163715
-0.0125341
0.0351196
0.000264737
-0.00034531
-0.000466958
0.000547531
-0.00406418
-0.00735355
0.00890526
0.00251246
0.05498
0.0439143
-0.0175112
0.047517
0.0888025
-0.0379681
-0.0983514
-0.0123993
-0.0444566
-0.0208795
0.0203505
-0.0561594
0.0566885
-0.0103595
0.0290666
-0.00716761
-0.0115395
-0.015229
-0.0133916
0.0138825
0.0147382
0.097082
-0.0959107
0.0184197
-0.019591
0.00104713
-0.00430267
-0.000278141
0.00353367
0.000710667
-0.0653161
0.0646054
-0.0731406
0.00372479
0.0669348
0.00248104
0.0394869
0.0379945
-0.0774814
0.0189765
-0.0603383
0.0289624
0.0022322
-0.00132968
0.00075173
-0.00165425
0.000102036
-0.000464575
0.00163221
-0.00126967
-6.24791e-05
0.000398193
-0.000939549
0.000603835
0.0632862
0.055842
-0.0389404
-0.0801878
0.00544605
-0.0863533
0.0822959
-0.00138864
-0.0135162
0.000211715
0.0265206
-0.0132161
0.052613
-0.0521855
0.0193555
-0.019783
-0.00048044
0.00128191
-0.0006385
-0.00016297
0.0203515
0.0479515
-0.0493264
-0.0472775
-0.00175136
0.000868319
0.00156065
-0.000677609
0.00052196
0.0795412
-0.0800632
-0.0499696
-0.0153757
-0.0224867
0.087832
-0.0502554
0.000285746
0.0116855
0.0169966
0.0165679
-0.04525
0.000480871
-0.00279839
0.000223271
0.00209425
-0.00166513
-0.00070054
0.00061432
-0.107164
-0.0085687
-0.0438412
0.159574
-0.0106437
0.00725565
0.137975
-0.134587
-0.0381619
0.0424312
-0.0647564
0.0604871
-0.0786139
0.0779409
0.000672987
0.00159589
-0.0505347
-0.0302952
0.0654518
0.0190708
-0.0053201
-0.0792024
0.0502693
0.0935502
-0.155598
0.0117787
0.0420688
0.0156802
0.032888
-0.0906371
0.104358
-0.107949
0.0430783
-0.00338676
0.0128591
-0.0116282
0.0021558
-0.00213156
0.000193628
-0.000771673
0.0027096
-0.00274288
-0.00550189
0.00153485
0.00670992
0.0606415
-0.0059394
-0.0183517
-0.0363504
-0.0567112
0.0282788
0.0284324
-0.0924657
-0.00783084
0.0123496
0.000342868
-0.000414321
-0.0020601
-0.117143
0.0251331
0.00529447
0.0867159
0.000899606
-0.0536781
-0.0098087
0.0625872
0.0454111
0.0286328
-0.101313
0.0272692
0.0380361
-0.0440961
-0.0187981
0.024858
0.0477885
-0.0601491
0.0503966
0.0305713
-0.0560086
0.0498205
-0.0243832
0.0342969
-0.035801
0.00060731
0.000896746
0.0164656
-0.142288
0.0909897
0.0348331
0.00115793
-0.0610994
-0.00340588
0.052535
0.000463859
-0.108472
-0.0337312
-0.00920465
0.0067378
0.036198
-0.0485432
0.0445283
0.0503375
-0.0463225
-0.0423949
0.0822084
-0.0398136
0.0108541
-0.102762
0.0478115
-0.0167868
0.00762941
0.0243361
-0.0151788
-0.0884647
0.0932114
0.0369053
-0.041652
0.0582932
0.0332124
-0.0824268
-0.00907876
-0.0477928
0.142258
0.00463976
-0.0991048
-0.000462695
0.00308987
0.00347213
-0.0060993
0.0543123
-0.072785
0.0831632
-0.0646905
0.00878817
-0.0401359
-0.00854792
0.0398956
-0.0435969
0.0316947
0.102804
-0.0909015
-0.0500867
-0.0266105
0.0534992
0.023198
-0.01018
-0.000495566
0.0064695
0.00420608
-0.00970571
0.0211237
-0.0178278
0.0064098
5.84955e-05
0.0737254
-0.0737839
0.0149294
-0.0442435
-0.0192291
0.0485361
-0.033969
-0.00134972
-0.0132174
0.00156574
-0.0250811
-0.0203475
0.0438628
0.034877
-0.034834
-4.29308e-05
0.0617103
-0.0416227
0.0636847
-0.0837722
-0.0996155
0.0972619
0.0994356
0.000123539
-0.0107436
-0.00181071
0.0124307
0.0498064
-8.17385e-05
-8.75979e-05
7.7075e-05
9.22614e-05
-0.000183291
0.0469285
-0.108824
0.0620785
-0.00860411
-0.000472868
0.00494622
0.00413076
0.0268535
0.00999596
-0.0368495
0.00118586
-0.00104632
-0.00874365
-0.0319256
-0.0332157
0.0131853
0.0571846
0.000711328
-0.0578959
0.0728577
-0.0440981
-0.0512
0.0224404
0.00182421
-0.0247007
-0.0211242
0.0694837
0.0429672
-0.0395932
-0.00796942
0.00927882
0.134619
-0.119677
0.0357082
-0.0506501
-0.0450712
0.036779
0.0218877
-0.0135954
-0.0528552
0.0522055
0.00064966
-0.0478641
0.0297362
0.0104752
-0.0466924
-0.0105395
0.0467566
-0.00257417
0.159562
-0.158776
0.0017881
0.107799
0.0159665
-0.0158882
0.0508664
0.00858333
-0.0513516
-0.00809816
-0.0143823
0.0045394
0.0105789
-0.000735998
-0.009546
-0.00527644
0.00477107
0.0100514
0.0664705
-0.0379326
-0.053066
0.0245282
0.0297987
-0.0157963
0.0237101
-0.0377125
0.0268626
-0.0938756
0.0897544
-0.0227415
-0.00570978
0.000404779
-0.00907726
-0.0939987
0.107552
-0.0235715
0.0100187
-0.0113384
0.0478158
0.0138533
-0.0503308
-0.00438233
-7.93468e-05
0.00318788
0.0012738
0.0828512
-0.00504376
0.0516061
-0.129413
5.05605e-05
-0.000726166
1.92755e-05
0.00065633
-0.066403
0.0580174
0.0742009
-0.0658153
0.00359003
0.00127154
-0.00224668
-0.00261489
-0.0779396
0.0756514
0.0022882
0.0622394
-0.0588298
-0.00340966
0.0602747
-0.000570644
-0.0597041
-0.0116938
0.123467
-0.000718534
-0.111055
0.00987664
-0.0311041
0.0329129
-0.0237842
-0.000191705
-0.0564641
-0.0675408
0.0123146
0.0666164
-0.0113901
-0.0131496
-0.00210621
0.000446912
-0.000673079
-0.000177539
0.000403706
0.00112582
-0.000198727
-0.000236713
-0.000690385
-0.0635933
0.00735904
-0.00119679
0.0574311
0.000484453
-0.0054009
0.00182267
0.00309378
0.012011
-0.0145224
1.84589e-05
0.00249293
0.00809238
-0.00670839
0.010627
0.0558086
-0.00956958
-0.0224083
-0.0238308
0.0362806
-0.00554378
-0.0365123
0.00577549
0.000397687
0.0667515
-0.000350835
-0.0667984
0.00753058
-0.0716716
0.019393
0.044748
-0.0427799
-0.0323476
0.0421358
0.0329917
-0.0345646
0.020442
-0.0909047
0.105027
-0.000869034
0.0150258
-0.00777237
-0.00638436
0.0491251
-0.059049
0.0474009
-0.037477
-0.0628769
-0.00670822
-0.00783035
0.000702047
-0.000140365
0.00421591
-0.00477759
-0.0118409
-0.00273747
0.00176701
0.0128113
-0.00792963
-0.00915471
0.0107003
0.006384
-0.00013043
-0.00214692
0.00131671
0.000960641
-0.000471196
0.00056645
-9.52534e-05
0.00126852
-0.0715342
-0.026133
0.0963986
-0.000161183
-0.000158469
-0.00129969
0.00161934
0.000137827
-0.000500757
-0.000108266
0.00184372
-0.0664571
-0.00013214
-8.32025e-05
0.000781792
0.000654779
9.21238e-05
-0.000420078
-0.000326825
-0.0281408
0.0644404
0.0768441
-0.113144
-0.00901651
-0.00221267
0.00716302
0.00406616
-0.0144103
-0.000260063
0.00565388
-0.00521199
0.00541027
0.0129592
-0.0131575
-0.000707349
0.000845537
-0.000270329
-0.0658503
0.0663989
-0.000548665
0.0303572
0.0468109
-0.05983
-0.0173381
0.0125092
-0.0755187
-0.0218776
0.0848871
-0.0133103
0.0026869
0.00541143
-0.00450679
-0.00627138
-0.00253214
-0.0165166
0.0581679
0.0128581
-0.0545094
0.0691901
0.00461145
-0.053479
-0.0203225
0.000153699
0.000430507
-0.000794895
0.000210689
-0.000337026
-0.000232495
-0.00260147
-0.00114408
-0.00123402
0.00497957
0.0653197
-0.0460095
0.0119081
-0.0312183
-0.000796749
-0.00264134
0.00144324
0.00199485
-0.0161428
0.0106325
-0.00402885
0.00953913
0.00174097
-0.101488
0.101571
-0.00182365
0.00299412
0.000692339
-0.0103499
0.00666343
0.00980336
-0.0104587
0.00165861
-0.00100323
0.00988405
0.00371184
-0.0106018
0.0372365
0.0559571
-0.0278739
-0.0273047
0.0548288
0.0282147
-0.0557389
0.0277289
-0.0550336
-0.000270759
5.52724e-05
-0.0332305
0.0124643
-0.0100374
0.079216
0.0234968
0.00729381
0.0687462
-0.0540725
0.0976406
-0.112314
0.00474027
0.0924331
-0.0971733
-0.00679884
-0.00681909
0.0131851
0.000432813
-0.0338705
-0.0875103
0.0277954
0.0935855
0.0226011
0.0616494
-0.0252196
-0.0590309
-0.023425
0.11379
-0.0531286
-0.0419028
0.0449204
0.0518113
-0.0560337
0.0555207
0.000513015
-0.0386362
0.0367518
0.00188437
0.0404477
-0.0794157
0.07298
-0.0340119
0.066647
-0.0831636
-0.0093981
-0.00814249
0.0107417
0.000904516
0.000646504
-0.000608799
-0.00094222
-0.00613726
-0.0426397
-0.00725678
0.00127091
0.00139786
-0.00251052
-0.000158256
-0.057309
0.0516256
0.085849
-0.0801657
0.0344408
-0.0327705
-0.00167033
0.00855677
0.0218694
-0.0117737
-0.0186525
0.00422735
-0.000529326
0.0022086
-0.00590662
-0.0644786
-0.000588085
0.0204249
0.0446418
-0.00282703
0.00673098
0.000323394
0.040123
-0.109986
0.103922
-0.0340587
0.0456282
0.0141218
-0.0593676
-0.000382432
-0.00358355
0.00694096
0.00155976
-0.00491716
-0.000316005
0.0608191
-0.0605031
0.0370326
0.00627464
0.0146612
-0.0579684
0.00420598
-0.00731376
0.00257845
-0.182008
0.0282295
0.161289
-0.00751108
0.0389403
-0.0109652
-0.0279751
-0.00109826
-0.00155453
-0.00120263
0.00385542
-0.041241
0.0447141
0.124171
-0.127644
-0.00178787
0.000654437
-0.00207208
0.00320551
0.090801
-0.00236773
-0.0428051
0.000467062
-0.00117344
0.00204847
-0.00134209
-0.018686
-0.116085
0.0159871
0.118784
0.00395507
0.0518968
-0.00387975
-0.0519721
0.0489447
-0.0703869
0.0601282
-0.038686
0.031794
-0.0365014
0.0487228
-0.0440153
0.0086092
-0.00216752
0.00609555
-0.0125372
0.00110711
-0.0445247
0.0532963
-0.053606
-0.0361917
0.0969283
0.0180892
-0.0250251
-0.0899924
0.0476452
0.0179013
-0.135053
0.069507
-0.00161263
-0.00861418
0.00630309
0.00392372
0.028066
-0.0502808
-0.00335589
0.0290284
-0.0267527
0.00745935
-0.00577882
0.000106657
-0.00178719
-0.0867674
0.0029222
-0.00118759
0.0725197
-0.149851
0.0785184
-0.0270382
-0.0870626
0.0414271
0.0726736
-0.0720793
0.0211102
0.00228814
0.048681
-0.0433808
0.0293574
0.0103252
-0.0830565
0.0963277
-0.0132712
-0.0207606
-0.00949645
0.117989
-0.0877321
-0.00348862
-0.00393339
0.00607322
0.00134879
-0.0258257
0.0592187
0.0407668
-0.0721791
0.0280811
-0.00070943
-0.000408466
-0.000977956
0.00209585
0.0466019
-0.048733
0.054666
-0.0377224
-0.00690093
-0.0452495
-0.124318
0.0479985
0.0763194
-0.0429522
-0.0325214
0.0276096
0.00307176
-0.00212232
0.000679998
-0.00162944
0.00262926
-0.000285518
0.000728023
-0.0859999
0.00319576
0.0828041
0.0606556
0.0140127
-0.122737
0.0480684
-0.0713108
0.000412978
0.0708978
0.00134739
-0.0018755
0.00836335
-0.00783524
0.0487592
0.154721
-0.224606
0.0211252
0.00176537
-0.00227199
0.0014838
-0.000977179
-0.0916552
0.0650973
0.0263234
0.000234545
-0.00292935
-0.000897243
0.00305326
0.000773341
-0.000761183
0.00837751
-0.00814439
0.000528064
0.00811848
0.00792511
-0.0154058
-0.000637786
0.0411229
0.012195
0.00299231
-0.00268525
0.0014583
-0.0982218
0.105348
0.00708118
-0.0142077
0.0117664
-0.0667747
-0.0227924
0.0778008
0.00182525
-0.00402106
0.0880067
-0.0858109
-0.0423647
-0.0364759
0.0878375
-0.00899692
-0.0408062
0.024685
0.0404656
-0.0243444
0.0536892
0.0212255
-0.0728535
-0.00206122
-0.00184835
0.000220878
0.00189679
-0.000269314
-0.123796
-0.0429145
0.0399442
0.126766
0.0482466
-0.0377714
-0.0314947
-0.0377599
-0.0311158
0.10037
-0.00192972
0.00427479
0.000324634
-0.00266971
-0.0307886
-0.0800865
0.0281171
0.0827579
-0.0296022
-0.0289573
0.0208371
-0.00085224
-0.0031998
-0.00167939
0.00336149
-0.00368574
0.00200364
-0.00554767
0.00545726
0.0253492
-0.0772509
-0.0853621
0.137264
-0.000312251
-0.000426947
0.000424515
0.000314683
0.0571809
-0.060534
0.0474712
-0.0441181
-0.0145572
0.0430594
-0.00732816
-0.021174
0.0862552
-0.0858544
-0.0186834
0.0182826
0.0262268
0.0225674
-0.0635596
0.0147654
-0.12758
0.0742572
0.018414
0.0349089
-0.00522373
0.00289732
0.00013514
0.00219127
-0.00786302
0.00959074
-0.00038033
-0.0134697
-0.00371158
0.0183337
-0.00115243
-0.0628024
-0.00464308
0.0146997
0.0527458
-0.00947541
0.103788
-0.00548155
-0.088831
0.00908602
-0.0471541
0.080127
-0.0420589
-0.00165455
0.00416695
-0.00169505
-0.000817353
-0.0149029
0.000350866
-0.00232197
0.016874
-0.107743
0.00494267
0.0124338
0.0903663
8.07443e-05
-0.000323172
0.000681846
-0.000439419
0.0366456
0.00807002
0.0270805
-0.00478887
0.0455627
0.0532276
-0.0940014
-2.79671e-05
0.000751763
-0.000643052
-0.000590379
0.00212069
-0.00142874
-0.00010157
0.0173287
0.110335
-0.0471691
-0.0804951
-0.000214419
-0.000108753
0.000232659
-0.000447078
0.0619374
0.0170871
-0.0922821
0.0132575
-0.15681
0.0864472
0.0763495
-0.00598632
-0.0182878
0.000593157
-0.0518396
0.0695342
0.0251684
-0.0149394
0.0171577
-0.0273867
-0.0661333
-0.0235996
0.0897329
-0.0775792
0.0381393
0.03944
-0.00219651
-0.000243873
0.000248139
0.00219224
-0.0389931
0.041867
0.00758352
-0.0104574
0.0471242
-0.0548678
0.00774364
-0.0606656
0.03384
0.0452636
-0.0184381
0.00445984
-0.00241527
-0.00184526
-0.000199309
-0.00317378
-0.00259807
0.000548123
-0.0420363
-0.042243
0.0461376
0.0143726
0.00209058
-0.0626008
0.00227926
-0.000366144
-0.00195134
3.82297e-05
0.0021268
0.00470194
-0.00962887
0.00280014
0.00710303
0.0218066
-0.0398966
0.010987
-0.0190613
-0.0156169
-0.00904592
0.0437241
-0.0750637
-0.0104687
0.0302128
0.0553196
-0.00170533
0.0148546
-0.0082773
-0.00487194
-0.0528444
0.000433784
0.0333494
0.000235014
0.0251558
-0.13487
0.126182
-0.0164677
0.0286308
-0.0342381
-0.0515133
-0.0271637
0.0548926
2.69906e-05
0.0396734
0.00322814
-0.0429286
-0.0560956
-0.0598364
0.115932
-0.00306188
-0.00107501
-0.00171807
0.00585496
0.00319367
-0.00469986
0.00170661
-0.00020042
0.036128
-0.00542554
-0.0283507
-0.00235178
-0.00315902
-0.00227833
0.00237547
0.00397651
-0.0119946
0.0668903
-0.0588723
0.0758696
9.39249e-05
0.027914
0.00919973
-0.00618747
-0.0309263
0.0587817
-0.000395403
-0.0583863
-0.0529773
0.11323
-0.0284875
0.0598297
0.0201433
-0.0514855
-0.0152606
-0.0249525
0.0164215
0.0237916
0.00325354
0.00366145
0.000752989
-0.00766798
-0.0336449
-0.0384173
0.0992631
-0.0272008
0.0436224
-0.0354546
-7.16684e-05
-0.00809615
-0.051548
0.114958
-0.049514
-0.0138963
-0.00151402
0.00180429
-0.000196216
-9.40595e-05
-0.00102722
0.0217047
-0.00418354
-0.016494
0.00281745
0.00394312
1.32053e-05
-0.00677378
-0.000247549
-3.74805e-05
-4.01113e-05
0.00032514
3.37799e-05
6.90003e-05
-0.000350329
-0.0088239
0.0221467
0.0704734
-0.0837962
0.0806586
-0.0798669
-0.000791636
0.000310837
-0.000369718
5.88817e-05
-0.0128479
0.000951251
0.0022309
-0.00139871
-0.00178344
-0.00777531
-0.00564121
0.00440237
0.00901415
-0.0557732
0.0272856
0.000217825
0.000303112
-0.000806051
0.000285114
0.0342696
0.0542109
-0.0342947
-0.0541858
0.0130978
0.157485
-0.179576
0.00899255
0.058365
0.0636469
-0.0621823
0.00196438
-0.0130415
-0.00176484
0.012842
-0.0333223
-0.0300723
0.0633946
0.0311905
-0.0645128
-0.0545268
-0.0446598
-0.0651511
0.164338
0.0503316
-0.0563609
0.00602932
-0.0731159
0.134711
-0.0711648
0.0328922
-0.0302193
0.0852755
-0.00401647
-0.0684769
-0.0127821
0.0701277
-0.0711327
0.0109387
-0.00993367
-0.000177558
-0.00602847
0.00743551
-0.00122948
0.00233465
-0.00572828
0.00636879
-0.00297515
-0.000199795
0.00012026
0.000763106
-0.00068357
0.0221874
0.022682
-0.0337566
-0.0111128
-0.00513241
-0.00531033
0.00613206
0.00431068
-0.011217
0.0321592
-0.0425746
0.0216324
0.000942063
-0.00848234
0.0109909
-0.00345064
0.0496975
-0.00434417
-0.0453533
0.0381693
0.0353826
-0.126567
0.0530147
-0.0979764
0.0599702
0.0761755
0.0330043
-0.0997902
-0.046724
0.108216
-0.0375595
-0.0239323
0.00179527
0.00884913
-0.0122996
0.00165522
0.0281541
-0.00321955
-0.0249345
-0.0304928
0.0437389
-0.00355591
0.019852
-0.0315251
0.00116628
-6.37434e-05
0.000945029
-0.00204756
0.0118621
-0.0386148
-0.00110789
0.000177894
0.000265757
0.000664242
0.0026623
-0.000277603
0.000971497
-0.00335619
-0.000949163
-0.00227898
-0.0777594
-0.0135857
0.00155949
-0.0116219
0.0236481
0.0203527
-0.0908604
0.0208408
0.0496669
-0.0032407
0.0580688
-0.0821619
0.0273338
0.00108083
-0.000755841
0.00103143
-0.00135642
0.0788035
0.0125202
0.0021232
-0.0934468
-0.000910428
-0.000758757
0.00197649
-0.000307309
0.00461092
8.06876e-05
-0.0699674
0.0652758
0.00643098
-0.000900197
-0.00474589
-0.000784894
0.0063194
0.00441004
-0.00349686
-0.00723258
-0.111198
0.0970865
-0.087867
0.101979
-0.0552288
0.109816
-0.0545874
0.00254592
-0.0444996
0.00928176
0.0326719
0.00353015
-0.00361669
0.000825059
-0.000738524
0.0490945
-0.0031703
0.0015399
-0.129285
0.0027905
0.0735173
-0.0333673
-8.99394e-05
0.00157504
0.0306246
-0.0251344
-0.00706523
0.0781356
-0.0306943
0.0341757
0.00397112
-0.0049292
0.00020619
0.000751893
0.0335215
0.0231336
-0.0739044
0.0172493
-0.000240814
-8.29687e-05
0.00039226
-6.84773e-05
-0.000394844
0.00148387
0.00523037
0.000154219
-0.00779869
0.00618779
0.00558203
0.074664
0.0408026
-0.0370892
-0.0783774
-0.131737
0.140924
-0.0083164
-0.00087068
0.031431
-0.0321131
0.000682071
-0.0360033
-0.000132652
0.000309827
-0.00302722
-0.00221181
0.0148701
0.206613
-0.158749
-0.0627341
0.0288108
-0.0604977
-0.0174503
0.0491372
-0.00307882
0.0391753
-0.000783813
-0.0857753
0.0473838
-0.0227259
0.00985613
-0.0380198
0.0476383
0.0462948
-0.0559134
-0.0667614
0.0891836
-0.152007
0.129585
-0.000150118
0.000131179
-0.00145671
0.00147565
0.000238828
0.00219031
-0.000680675
-0.00174847
0.0445781
-0.015669
0.0397547
-0.0686639
-0.00349191
0.000388358
0.00323678
-0.000133233
-0.0118239
0.0108385
-0.0370344
0.0121692
-0.0463031
0.00580007
-0.00305639
0.0180934
-0.0208371
-0.133734
0.0170451
0.126971
-0.0102821
0.0388536
-0.025799
-0.0179661
0.00491153
0.0344602
-0.0532331
0.00694895
0.00471434
0.00769421
0.0515448
-0.0639533
0.0249289
-0.00708643
-0.0248905
0.00704802
-0.0791586
-0.00802761
0.0147312
0.00121041
-0.000994938
2.33529e-05
-0.00193271
0.00298691
0.00149936
-0.00255355
0.0185268
-0.0320967
0.0384988
0.0177
-0.143657
-0.0222795
0.148236
-0.111973
-0.0153202
0.0259345
0.101359
0.0572414
-0.0354876
0.0291015
-0.0508554
0.110175
-0.00636058
0.0044256
-0.10824
-0.0172191
-0.0372348
-0.00413502
-0.0157923
0.00771317
0.0122141
-0.0013525
0.000509491
0.000115529
0.000727485
0.0151608
-0.0771216
0.0619607
0.108216
-0.0074517
-0.112458
-0.0265768
0.0554099
-0.0460522
0.0399045
-0.122202
0.014361
0.0679366
-0.0042729
-0.0121878
-0.027347
0.0438077
0.00298236
0.0492136
0.0828619
-0.130515
-0.00156049
0.0493837
-0.0830774
0.0893336
-0.0556399
-0.0966545
0.095404
-0.00644807
0.0076986
0.00162642
0.00399053
-0.0942014
0.0885845
-0.0015303
0.00357088
0.00590386
-0.00794443
0.000164133
-0.000880721
-0.000251796
0.000968384
0.08806
0.000763771
-0.0176318
-0.071192
-0.000697851
0.000835269
-0.000423487
0.000286068
0.000912953
0.00327375
-0.00231067
-0.00187604
-0.00183213