/*--------------------------------*- C++ -*----------------------------------*\
| =========                 |                                                 |
| \\      /  F ield         | OpenFOAM: The Open Source CFD Toolbox           |
|  \\    /   O peration     | Version:  2506                                  |
|   \\  /    A nd           | Website:  www.openfoam.com                      |
|    \\/     M anipulation  |                                                 |
\*---------------------------------------------------------------------------*/
FoamFile
{
    version     2.0;
    format      ascii;
    arch        "LSB;label=32;scalar=64";
    class       volScalarField;
    location    "0.0263738";
    object      nut;
}
// * * * * * * * * * * * * * * * * * * * * * * * * * * * * * * * * * * * * * //

dimensions      [0 2 -1 0 0 0 0];

internalField   nonuniform List<scalar> 
3919
(
0.00510845
0.00495749
0.00344182
0.00255612
0.00457102
0.00533182
0.00340302
0.00553679
0.00746812
0.00464368
0.00509118
0.00641016
0.0056352
0.00673114
0.00531126
0.00372125
0.00716293
0.00703134
0.00637038
0.00572232
0.00705892
0.00440687
0.00746186
0.00695364
0.00747077
0.00487148
0.00748889
0.00703463
0.0033824
0.00425958
0.00524016
0.00667535
0.00743847
0.00600212
0.00737703
0.00723943
0.0024978
0.00527559
0.00724166
0.00488169
0.0054466
0.00678226
0.00720931
0.00489337
0.00227476
0.00314842
0.00205405
0.00425072
0.00655485
0.0074888
0.00745028
0.00481109
0.00752636
0.00547384
0.00391355
0.00747865
0.00313769
0.00316034
0.00741574
0.00585772
0.00306244
0.00450674
0.00353175
0.00392855
0.00628667
0.00544422
0.0073634
0.00405244
0.00610994
0.00747273
0.00717473
0.00412173
0.00301921
0.00347709
0.00313161
0.00395299
0.00728229
0.00746027
0.00674641
0.00497369
0.00465811
0.00754208
0.00726274
0.00682303
0.00709706
0.00679846
0.0062317
0.00445068
0.00428779
0.00467077
0.00392201
0.00288368
0.00288133
0.00744738
0.00427508
0.0042603
0.00444925
0.00556346
0.00390744
0.00718238
0.0073238
0.00501368
0.00358571
0.00713941
0.00252826
0.00725267
0.00380442
0.00445241
0.00464131
0.00461501
0.00410394
0.00523946
0.00509352
0.00701571
0.00696005
0.00696736
0.00681193
0.00652529
0.00454799
0.00455553
0.00562339
0.00532763
0.00747933
0.0034815
0.00733039
0.00679609
0.00742191
0.00519065
0.0032019
0.00590771
0.00719622
0.00478135
0.00280757
0.00748462
0.00652091
0.00611009
0.00510509
0.00586353
0.00515872
0.00468043
0.0061458
0.0075342
0.00507765
0.00746841
0.00695857
0.0057991
0.00257295
0.00736043
0.00725426
0.00616156
0.00510689
0.00739013
0.00660415
0.00670434
0.00691601
0.00739345
0.00743465
0.00492052
0.0074476
0.0049109
0.00677596
0.0040576
0.00286827
0.00678207
0.00386675
0.00306654
0.00308983
0.0046317
0.00547265
0.00748877
0.00214969
0.0061542
0.00711908
0.00734982
0.00321965
0.00551751
0.00435583
0.00691519
0.00443281
0.00423721
0.00201727
0.00412679
0.00742641
0.005025
0.00437073
0.0050505
0.00404124
0.0066237
0.00476683
0.00447895
0.00550041
0.00537927
0.00314653
0.00609327
0.00442792
0.00743013
0.00362676
0.00725406
0.00394505
0.00256562
0.00735189
0.00455764
0.00710894
0.00504098
0.00388831
0.00743106
0.00753109
0.00309536
0.00512078
0.00444146
0.00309605
0.00718528
0.0074709
0.00749934
0.00388943
0.00746486
0.00747189
0.00488254
0.00501472
0.00699589
0.00751007
0.0059769
0.00536673
0.0053427
0.00743674
0.00713928
0.00465991
0.00484509
0.00417956
0.00560835
0.00292384
0.00662127
0.00286481
0.00499156
0.00499099
0.00522934
0.00656679
0.00670265
0.00493028
0.00521807
0.00210241
0.00403399
0.00407479
0.00203373
0.00207035
0.004987
0.00364989
0.00298339
0.00235569
0.00361988
0.00333783
0.00208729
0.00298061
0.00327045
0.00343574
0.00327361
0.0038299
0.00481444
0.00441337
0.00337069
0.00548226
0.00443689
0.00311855
0.00307536
0.004126
0.00241817
0.00414327
0.00213948
0.00460159
0.00440939
0.00635325
0.00351315
0.00346652
0.00270191
0.00477344
0.00470635
0.00744989
0.00250056
0.0046032
0.0040991
0.00406122
0.00586771
0.00309324
0.0063811
0.00352574
0.0063256
0.00748525
0.00354867
0.00447456
0.0020511
0.00747941
0.00497006
0.00487425
0.00739471
0.00443633
0.00246157
0.00668743
0.0053959
0.00702537
0.00218315
0.00509755
0.00493661
0.00533284
0.00487302
0.00723875
0.0044279
0.00239949
0.00358387
0.00664939
0.00497821
0.00400223
0.00401234
0.00522235
0.00315033
0.00413082
0.00550065
0.00439511
0.00231654
0.00668469
0.00522183
0.00482807
0.00728385
0.00467236
0.00498855
0.00508287
0.00442913
0.00605273
0.00571815
0.00413805
0.00695989
0.00601844
0.00747026
0.00710053
0.00429331
0.00704264
0.00737336
0.00204737
0.00393416
0.00440734
0.00541149
0.00410883
0.00419707
0.00520653
0.0028477
0.00518373
0.00742507
0.00414128
0.00386209
0.0061695
0.00545135
0.00261584
0.00555225
0.00744636
0.00576298
0.00480913
0.00417102
0.00473523
0.00357535
0.00404499
0.0074822
0.00724534
0.00590408
0.00530498
0.00644168
0.00751357
0.00739282
0.00747225
0.00373567
0.00690264
0.0075177
0.00649504
0.0044971
0.00748075
0.0051966
0.00390774
0.00456328
0.00718325
0.00710034
0.00678281
0.00461052
0.00401362
0.00248775
0.00413439
0.00404125
0.003743
0.00644782
0.00345935
0.00417156
0.00529558
0.00389031
0.0046407
0.0031573
0.00520481
0.00208392
0.00413067
0.00409911
0.0023848
0.00293429
0.00241422
0.00746516
0.00626038
0.00438686
0.00353597
0.00742914
0.00506733
0.00512729
0.00580409
0.00358654
0.00357627
0.00294422
0.00419042
0.00528282
0.00463456
0.00549606
0.0029631
0.00468709
0.00356252
0.00406794
0.00298848
0.00712905
0.00531988
0.00300776
0.00702415
0.00303568
0.00295524
0.00467127
0.007309
0.00708663
0.00443843
0.00460559
0.00653811
0.00496275
0.00593997
0.00478324
0.00606885
0.00315353
0.00381563
0.00330412
0.00395559
0.00197953
0.00194691
0.003604
0.00331735
0.00341424
0.00303425
0.0039322
0.00393447
0.00374839
0.00517146
0.00438165
0.0053999
0.00331043
0.00483166
0.00546045
0.00238414
0.00296567
0.00700126
0.00443659
0.00422266
0.00445884
0.00362732
0.00241894
0.00243929
0.0035921
0.00295933
0.00357421
0.00728359
0.00593517
0.00729742
0.00710066
0.00713725
0.00686178
0.00377993
0.00262794
0.00516222
0.0039647
0.00351866
0.00259085
0.00281918
0.00709412
0.0036042
0.0061437
0.00417739
0.00739831
0.00420818
0.00416622
0.0049628
0.00478172
0.00395664
0.00390502
0.00744895
0.0059864
0.00406597
0.0028297
0.00435407
0.00457062
0.00555938
0.00287042
0.00587444
0.0038932
0.00525368
0.00477926
0.00599887
0.00256345
0.00533819
0.00507108
0.00484466
0.00380549
0.00275677
0.00483317
0.00431166
0.00419624
0.0044973
0.00525355
0.00583139
0.00664261
0.0031206
0.00608167
0.00525327
0.00282285
0.00555696
0.00394912
0.0050324
0.00703626
0.00466136
0.00618625
0.00494426
0.00410271
0.0038561
0.00436408
0.00262848
0.00336675
0.0033219
0.00717999
0.00736168
0.00618963
0.00396611
0.00475376
0.00172128
0.00320696
0.00174988
0.00381574
0.00317297
0.00497686
0.00663333
0.00397639
0.0048461
0.00438738
0.00420498
0.00623779
0.00311919
0.00626575
0.00463558
0.00317721
0.00318153
0.00223893
0.00284244
0.00311034
0.00307695
0.00353143
0.00349081
0.00488932
0.00718932
0.00714175
0.00405284
0.00591294
0.00743684
0.00404879
0.00253731
0.00393342
0.00739314
0.00659638
0.00465725
0.0050667
0.00217316
0.00440074
0.00425378
0.00457916
0.00609223
0.00532127
0.00753873
0.00744972
0.00372933
0.00520257
0.00394678
0.0062888
0.00469748
0.00602504
0.00411205
0.00498069
0.00415532
0.00477864
0.0037324
0.00339944
0.00359439
0.00376056
0.00380926
0.00370693
0.00372124
0.00687393
0.00576638
0.00458656
0.00722054
0.00692784
0.00747383
0.00616111
0.00697284
0.00365014
0.00479927
0.00479882
0.00699436
0.00408142
0.00720714
0.00515315
0.00714907
0.00443573
0.0048301
0.00632162
0.00745969
0.00734368
0.00378496
0.00486606
0.00412653
0.00565038
0.00507375
0.00618702
0.006956
0.00751019
0.00453564
0.00262374
0.00738878
0.00594499
0.00420863
0.00546239
0.00614938
0.00424572
0.00297791
0.00317435
0.0040223
0.00228219
0.0074777
0.00519046
0.0050548
0.00713041
0.00746342
0.00202172
0.00607586
0.00447584
0.00536048
0.00747713
0.00745965
0.00635546
0.00343059
0.0073505
0.00668478
0.00726004
0.00740359
0.00716552
0.00753574
0.0039421
0.00495716
0.00347691
0.00721153
0.00633145
0.00373209
0.00693289
0.00495032
0.00405828
0.00543552
0.00421352
0.00744221
0.00563847
0.00715177
0.00751691
0.00693686
0.00745477
0.00579687
0.00701259
0.00731891
0.00556969
0.00340412
0.00659894
0.00351567
0.00615167
0.00740471
0.00444943
0.00396615
0.00484641
0.0068559
0.0073415
0.00384827
0.00693749
0.00735676
0.00444111
0.00268271
0.00544123
0.00750785
0.00744681
0.00501077
0.00379022
0.00390614
0.0075175
0.00683958
0.00740769
0.00364931
0.00287654
0.00362009
0.00374928
0.0042323
0.00397697
0.00338236
0.00529044
0.00683044
0.00507631
0.00589658
0.00737358
0.00340999
0.00719633
0.00741931
0.00699599
0.00716875
0.00725207
0.00472928
0.00724146
0.00750054
0.00464971
0.00505908
0.00418158
0.00429229
0.00286032
0.0041475
0.00452682
0.00252532
0.00486324
0.00751135
0.00724291
0.00743775
0.00425442
0.00637247
0.00376595
0.00496134
0.00422318
0.00436652
0.00535264
0.00639988
0.00596926
0.00668815
0.00351111
0.00622697
0.00631766
0.00715816
0.00377892
0.00674471
0.00751151
0.00616172
0.00595704
0.00344278
0.00748134
0.00550356
0.00644903
0.00304647
0.00745693
0.00432331
0.0030811
0.00512302
0.0026132
0.00728561
0.00576938
0.00474613
0.0034938
0.00567087
0.00703177
0.00682536
0.00694562
0.00361323
0.00752256
0.00439082
0.00677308
0.0050027
0.00553224
0.00666601
0.00510568
0.00602577
0.00398612
0.00589032
0.00454879
0.00410578
0.00736983
0.00447912
0.00221727
0.00409211
0.00463738
0.00711491
0.00570415
0.00702386
0.00707146
0.00745469
0.00588879
0.00478115
0.0059144
0.00394049
0.00705205
0.00757324
0.00620619
0.00735704
0.00417164
0.00660159
0.00424588
0.00432707
0.00682431
0.00566408
0.0069864
0.00406594
0.00441173
0.00607297
0.0074666
0.00335566
0.00744116
0.00351909
0.00631227
0.00592319
0.00672107
0.0052562
0.00405969
0.00728316
0.00728225
0.00400277
0.00639668
0.00717578
0.00716777
0.00658433
0.00735899
0.00358725
0.0074206
0.00520942
0.00688605
0.00357612
0.00748917
0.00572374
0.00461137
0.00728135
0.00693954
0.00683025
0.00422796
0.00290464
0.0068121
0.00542401
0.00756387
0.0074501
0.00254174
0.00540347
0.00746107
0.00553135
0.00708617
0.00731568
0.00444702
0.00441717
0.00307504
0.00500098
0.00598397
0.00603437
0.00303454
0.00657983
0.00373977
0.00513164
0.0059289
0.00542326
0.00461777
0.0039677
0.0043627
0.00710568
0.00745392
0.00741316
0.00748536
0.00705778
0.00733844
0.00747156
0.00596838
0.00730778
0.00456128
0.00423775
0.00277683
0.00489933
0.00735513
0.00347614
0.00694179
0.00747647
0.00673899
0.00488621
0.00441375
0.00489916
0.00706378
0.00789145
0.00739306
0.00394341
0.00631731
0.00432056
0.00344871
0.00586492
0.00699204
0.00444945
0.00278156
0.00391965
0.00492319
0.00411722
0.00743019
0.0067095
0.00415593
0.00533845
0.00747783
0.00440126
0.00692949
0.00719275
0.00471597
0.00437922
0.00368522
0.00704468
0.00566629
0.00708795
0.00710428
0.00291987
0.00507728
0.00412978
0.00297617
0.00678535
0.00422941
0.00755464
0.00447793
0.00728359
0.00384153
0.00745682
0.00464442
0.00459132
0.00499948
0.00750447
0.00748676
0.00748706
0.00751189
0.00747096
0.00745452
0.00514922
0.00417287
0.00713629
0.00727166
0.00486291
0.00246795
0.00434544
0.00225326
0.00743681
0.00678809
0.00396181
0.00637443
0.0072032
0.00220469
0.00729054
0.00677518
0.00705887
0.00750499
0.004478
0.00521224
0.00454317
0.0047865
0.0037153
0.00439967
0.00720562
0.00738454
0.00745088
0.00559621
0.0064882
0.0067702
0.0068119
0.0032517
0.0041953
0.00581266
0.00744758
0.00748082
0.00582112
0.00746816
0.00745886
0.00604474
0.00425678
0.00564871
0.00562901
0.00742234
0.00715663
0.00416064
0.00405351
0.00342603
0.00287327
0.00693785
0.00372078
0.00490883
0.00374546
0.00655649
0.00731695
0.00607813
0.00702762
0.0053531
0.00664188
0.00693563
0.00602533
0.00728137
0.00616906
0.00538586
0.00449844
0.0063147
0.00749925
0.00739072
0.00708185
0.00553056
0.00741425
0.00526343
0.00543529
0.00456285
0.00599581
0.00420172
0.00735057
0.00717817
0.00725937
0.00709342
0.00719324
0.00732645
0.0070501
0.0070895
0.00740997
0.00727882
0.00716642
0.00742984
0.00386759
0.00446218
0.00565217
0.00493607
0.00399439
0.00746864
0.00709884
0.00376828
0.00703038
0.00552924
0.0037994
0.00487667
0.0054707
0.00524872
0.00738814
0.00554311
0.00724149
0.00742777
0.00366957
0.00635997
0.00389772
0.00495463
0.00590628
0.00746535
0.00529447
0.00718299
0.0043524
0.00514811
0.00670086
0.00746614
0.00439074
0.00755013
0.00752081
0.00433368
0.00727414
0.00707839
0.00641308
0.00484989
0.00736487
0.00542661
0.00403845
0.0070892
0.0043186
0.00367265
0.00364037
0.0052834
0.00717375
0.00683039
0.00633365
0.0073676
0.00715461
0.00407101
0.00412653
0.00542088
0.00534521
0.00527822
0.00448432
0.00356638
0.00541419
0.00750188
0.00638909
0.00629093
0.00527967
0.00733818
0.00541922
0.00398741
0.00681129
0.0039546
0.00591577
0.00442334
0.00529802
0.00501071
0.00356718
0.00555114
0.00500016
0.00518645
0.00615294
0.00584396
0.00620895
0.00722132
0.00670952
0.00304512
0.00552082
0.00725964
0.00737565
0.00710498
0.00746245
0.00657581
0.00654188
0.00470384
0.00499192
0.00745235
0.00734144
0.00271949
0.00558514
0.00725944
0.00542529
0.00603133
0.00631058
0.00748937
0.0067661
0.00282226
0.00379515
0.00428225
0.00716966
0.00725023
0.00534765
0.00704507
0.0075264
0.00482273
0.00644878
0.00557146
0.00708356
0.00402566
0.00740057
0.00743954
0.0042926
0.00449928
0.00750398
0.0053373
0.00685379
0.00471397
0.00733727
0.00235403
0.00707743
0.00651596
0.00718556
0.00713792
0.00404973
0.00600166
0.00729815
0.00753318
0.00735365
0.00747341
0.0071205
0.00488579
0.00421289
0.00582513
0.00379443
0.00736541
0.00729523
0.00301369
0.0050351
0.00712246
0.007487
0.0070694
0.00676262
0.00682158
0.00703433
0.00500027
0.00752891
0.00608148
0.00749921
0.00719709
0.00600134
0.00415823
0.00522716
0.00731742
0.00525399
0.00747393
0.00571785
0.00527171
0.00750933
0.00731144
0.00497647
0.00412734
0.00598634
0.00735641
0.0072826
0.00233517
0.00742848
0.00744135
0.00543045
0.0022564
0.00594205
0.00500993
0.00678037
0.00752942
0.0073719
0.00498542
0.00746468
0.00735596
0.00737924
0.00674024
0.00468352
0.00743184
0.00505199
0.00444957
0.00540221
0.00749595
0.00742912
0.00751308
0.00609361
0.00567778
0.00719759
0.00618937
0.0035529
0.00304322
0.00675979
0.00756529
0.00564584
0.00404937
0.00738978
0.0074676
0.00718811
0.00718725
0.007514
0.00700128
0.00755513
0.00637716
0.00474916
0.00506037
0.00708698
0.00730509
0.00741954
0.00741478
0.0072478
0.00743431
0.00717388
0.00751617
0.00418176
0.00748285
0.00752336
0.00358951
0.00478939
0.00408591
0.00689083
0.00337659
0.00685696
0.0046318
0.0058008
0.00408792
0.00400766
0.00698866
0.00572633
0.00604025
0.00217297
0.00747965
0.00738685
0.00736664
0.00741455
0.00738216
0.00690506
0.00739252
0.00736769
0.00741294
0.00395708
0.00360861
0.00336555
0.00752128
0.00577561
0.00392658
0.00736612
0.00531348
0.00717655
0.00754591
0.00743367
0.00755482
0.00753909
0.00211821
0.0059014
0.00658196
0.00746567
0.00741195
0.00485223
0.0072184
0.00441221
0.00403215
0.00747945
0.00684261
0.00376738
0.00498414
0.00730186
0.00738283
0.00747154
0.00684147
0.00727037
0.00752076
0.00380183
0.00351686
0.00749462
0.00732607
0.00456769
0.00431685
0.0047069
0.00714073
0.00724777
0.00498728
0.00663078
0.00629774
0.00724205
0.00722064
0.00495725
0.00541469
0.00746779
0.00732392
0.00623366
0.00490672
0.00358034
0.00714969
0.00424265
0.00581383
0.0042613
0.00616883
0.00727896
0.00660255
0.00601079
0.00349199
0.00742385
0.00369238
0.00741129
0.00726926
0.00728153
0.00359241
0.00535907
0.00439898
0.00725493
0.00725219
0.0072005
0.00738436
0.00728141
0.00722008
0.00512098
0.00737282
0.00710448
0.00738374
0.00740663
0.00705635
0.00747429
0.00469656
0.00468502
0.00248161
0.00715248
0.00702133
0.0041242
0.00702453
0.00462667
0.00468968
0.00349828
0.00510906
0.00614249
0.0072497
0.00676375
0.00584019
0.00749433
0.00693047
0.00703544
0.00739413
0.0038211
0.00513875
0.00473057
0.00544134
0.00705982
0.00688961
0.00696395
0.00720401
0.00689123
0.00730114
0.00744143
0.00702608
0.00539404
0.00710655
0.00691493
0.00731849
0.00503148
0.00660209
0.00653278
0.00745751
0.00441883
0.00710759
0.00718212
0.00692767
0.00747359
0.00422849
0.00740477
0.00703909
0.00661985
0.00745156
0.00743995
0.00701474
0.00745925
0.00452122
0.00356752
0.00652814
0.0074834
0.00685912
0.00742338
0.00709188
0.00734802
0.00751665
0.00747533
0.00740845
0.00715565
0.0074491
0.00364362
0.00478197
0.00668123
0.00747796
0.00726817
0.00744387
0.00440617
0.00712545
0.00416471
0.00341453
0.00754456
0.00751466
0.00751171
0.00751259
0.00749599
0.00462104
0.0073155
0.00632856
0.00476815
0.00486408
0.00657314
0.00700896
0.00749037
0.00555744
0.00729805
0.00405322
0.00349214
0.00323224
0.0074737
0.00715821
0.0057431
0.0052041
0.00531489
0.00665967
0.00527243
0.00558396
0.00753021
0.00376125
0.00481413
0.00324663
0.00348657
0.0042426
0.0074628
0.00444706
0.00200453
0.00508967
0.00712566
0.00530931
0.0035597
0.00404991
0.00578778
0.00707642
0.00750281
0.00745149
0.00334414
0.00546694
0.00658141
0.0073374
0.00752297
0.00389186
0.00721458
0.00455622
0.00429489
0.00499984
0.00336072
0.00696916
0.00560642
0.00728694
0.00372023
0.00409342
0.00550215
0.00736459
0.00455676
0.00748018
0.00522915
0.00554812
0.00482743
0.00668499
0.00708446
0.00453238
0.00402996
0.00352927
0.0036832
0.00739555
0.00505131
0.00375606
0.0037008
0.00506628
0.00504066
0.00690475
0.00476521
0.00746545
0.00732364
0.00578386
0.00748525
0.00749429
0.00744382
0.0048199
0.00745372
0.00675977
0.00475029
0.00557505
0.00684259
0.00585876
0.00410639
0.00491015
0.00335239
0.00746087
0.00741671
0.00748323
0.00748353
0.00737443
0.0075114
0.00410536
0.00203446
0.00748332
0.00716918
0.0069802
0.00386498
0.00748052
0.00738472
0.00455645
0.00727505
0.00565034
0.00628079
0.00719306
0.00702357
0.00499009
0.00750881
0.0069668
0.00737574
0.00602801
0.00679738
0.00735056
0.00738105
0.00600666
0.00421532
0.00743878
0.00696411
0.00241553
0.0057591
0.00744646
0.00266773
0.00402639
0.00707773
0.00497439
0.00638924
0.00284536
0.00507622
0.00727517
0.00736454
0.00715406
0.00726904
0.00352519
0.00664633
0.00740024
0.00508738
0.00711095
0.00504594
0.00561451
0.00683985
0.00745524
0.0044629
0.00336333
0.0043114
0.00737894
0.00619503
0.00473186
0.00504905
0.00747383
0.00750793
0.00709959
0.00749873
0.00407362
0.00577121
0.00356671
0.00337324
0.00738422
0.00747121
0.0074825
0.00753101
0.00711118
0.00500845
0.00697249
0.00291698
0.00650728
0.00303198
0.00746032
0.00748297
0.00727141
0.00744843
0.00400556
0.00530913
0.00741664
0.00701203
0.00739177
0.00733364
0.00334246
0.00362622
0.0043432
0.00710141
0.00736467
0.00674837
0.00414944
0.00738099
0.00734513
0.00739407
0.0039984
0.00554616
0.00698802
0.00700276
0.00707186
0.00714829
0.00745911
0.00711537
0.00333973
0.00349915
0.00564233
0.00362869
0.00522442
0.00508256
0.00402921
0.00506178
0.00520348
0.00747408
0.00391553
0.00709229
0.00751031
0.00387227
0.00379513
0.00361006
0.0067235
0.00677723
0.0032772
0.0037255
0.00330727
0.00365635
0.00410025
0.00733722
0.00384236
0.00374316
0.00526256
0.00717712
0.00359569
0.00373027
0.00337238
0.0071325
0.00733793
0.00451062
0.00466529
0.00741441
0.00745367
0.00754034
0.00745973
0.00608035
0.00733344
0.00748385
0.00452631
0.00424334
0.00539351
0.00537925
0.00610898
0.00451033
0.00404969
0.00572674
0.00524772
0.00287335
0.00452318
0.00453046
0.0064535
0.00479286
0.00506301
0.00511153
0.00269084
0.00580179
0.00268242
0.0035166
0.00419343
0.00328996
0.00395977
0.00450604
0.00450133
0.0045392
0.00429922
0.00462177
0.00605227
0.00388084
0.00394199
0.00539388
0.00470893
0.00448734
0.00494031
0.00318363
0.00544471
0.00302031
0.00375172
0.00581989
0.00342406
0.00662236
0.00386079
0.00462364
0.00577414
0.00599361
0.00386045
0.00391559
0.00539607
0.00680636
0.0039019
0.00484146
0.00509914
0.00355956
0.00372631
0.00346003
0.0030201
0.00316787
0.00639223
0.00371743
0.00665129
0.00300557
0.00541199
0.00368063
0.00411481
0.00411863
0.00296122
0.00424535
0.00473769
0.0036738
0.00299093
0.00606896
0.00644208
0.00650164
0.00563316
0.00374306
0.00388407
0.00528613
0.0040172
0.0073933
0.00750047
0.00675111
0.00378027
0.00698258
0.00506479
0.00600245
0.00512497
0.00700162
0.00188097
0.0039694
0.00413101
0.0059075
0.00385205
0.00517359
0.00376628
0.00720802
0.00610298
0.00308664
0.00754825
0.00747394
0.00749792
0.00753986
0.00749053
0.00718567
0.00750172
0.00708861
0.0072378
0.00719717
0.00746503
0.00572985
0.00533045
0.00401807
0.00748585
0.00737462
0.00682262
0.00696236
0.00411278
0.00388188
0.00392457
0.00562045
0.00664412
0.00522357
0.00508754
0.00752559
0.00733758
0.00723992
0.00409246
0.00722883
0.00448374
0.00494137
0.00425495
0.00320998
0.00744387
0.00599678
0.00612461
0.00732652
0.0055929
0.00739686
0.00715066
0.00737656
0.00732112
0.00727066
0.00553913
0.00506116
0.00740066
0.00749948
0.00559828
0.00564549
0.00608571
0.00749477
0.0072993
0.00742303
0.00738113
0.00730866
0.00745436
0.0075097
0.00750233
0.00721979
0.00545662
0.00752188
0.0055202
0.00727532
0.00639343
0.00746306
0.006788
0.00532337
0.00745753
0.00745076
0.00747516
0.00754058
0.00700052
0.00483444
0.00748882
0.00745755
0.00719542
0.00721683
0.00661708
0.00434222
0.00700596
0.00686332
0.00662842
0.00616037
0.00442055
0.00436262
0.0052898
0.00403225
0.00402819
0.00371727
0.00744524
0.00376766
0.00444264
0.00449278
0.00335039
0.00712297
0.00731937
0.00348619
0.00709256
0.00327202
0.00535015
0.00374922
0.00684702
0.00454863
0.00411625
0.00714761
0.00438575
0.00361355
0.00474325
0.00381389
0.00618253
0.00720267
0.00689903
0.00494322
0.00743903
0.00482197
0.00734212
0.00452519
0.0074371
0.00367148
0.00523915
0.00487205
0.00487401
0.00746701
0.00412558
0.00423407
0.00358571
0.00406384
0.00742887
0.00696782
0.00748757
0.00410157
0.00515819
0.00482915
0.0075464
0.00366686
0.00718396
0.00747383
0.00587361
0.00368963
0.00740563
0.00587122
0.00754312
0.00340136
0.0072059
0.00706585
0.00742959
0.00555928
0.00741249
0.00382832
0.00349506
0.00408941
0.0054666
0.00352798
0.00264547
0.00745353
0.00749561
0.00582701
0.00593304
0.00704397
0.00574201
0.0045299
0.00369404
0.00318837
0.00607718
0.00751923
0.00386399
0.0040394
0.0075023
0.00752192
0.00394502
0.00437009
0.00742152
0.00745503
0.00736897
0.00722851
0.0046949
0.00714071
0.00745895
0.00745211
0.00728383
0.0075088
0.00607243
0.00558014
0.00750637
0.00733472
0.00742133
0.00749165
0.00557904
0.00567542
0.0037914
0.00382866
0.0062884
0.0036704
0.00639053
0.00495806
0.00364842
0.00742319
0.00345852
0.00707315
0.00406906
0.00678962
0.00607124
0.00742716
0.00370544
0.00400254
0.00719718
0.00417801
0.00265865
0.00358777
0.00703743
0.00337345
0.00462902
0.00560702
0.00298495
0.00319716
0.00218405
0.00301143
0.00460714
0.00749183
0.00553617
0.00243093
0.00225327
0.00239266
0.00230064
0.00422395
0.00743905
0.00380485
0.00474234
0.00376547
0.00427236
0.0050388
0.00716584
0.00652063
0.00404972
0.00443866
0.00220153
0.00729582
0.00738651
0.0042149
0.00443115
0.00424621
0.00600256
0.00506866
0.00533827
0.00428824
0.00508678
0.00738005
0.00738753
0.00698497
0.00431029
0.00619755
0.00662229
0.00376489
0.00746856
0.00527503
0.00362797
0.00429218
0.00743223
0.00401098
0.00461593
0.00465209
0.00741561
0.00697371
0.00495869
0.00421035
0.00425416
0.00745781
0.00543571
0.00689159
0.00732612
0.00470976
0.00725527
0.00258299
0.00364084
0.00699554
0.00373337
0.00549312
0.00374954
0.00526053
0.0051911
0.00743352
0.00746678
0.00513642
0.00520375
0.00519138
0.00727852
0.00302402
0.00395097
0.00452026
0.00494247
0.00710581
0.00395287
0.00677139
0.00746834
0.00548115
0.0054531
0.00567986
0.00742471
0.00514663
0.0063811
0.00493368
0.00752668
0.00675556
0.00680084
0.00462879
0.00284905
0.00413639
0.00483647
0.0033268
0.00480813
0.00403474
0.0038737
0.00523631
0.00596457
0.00375225
0.00732661
0.00745564
0.00256212
0.00402028
0.00226339
0.00720159
0.00739883
0.00704648
0.00694115
0.00703517
0.00731792
0.00461739
0.00669925
0.00640185
0.00454451
0.00385738
0.00382686
0.00454992
0.00617753
0.00716926
0.00560718
0.00563364
0.00742894
0.00421173
0.00730677
0.00689458
0.00682762
0.00748179
0.00747568
0.00238885
0.00395983
0.00337813
0.00266066
0.00214547
0.00660425
0.00474009
0.002422
0.00716593
0.00734016
0.00684562
0.0063234
0.00735241
0.00734067
0.00691179
0.00397181
0.00552021
0.00299715
0.00741221
0.00742894
0.00711208
0.00706841
0.00750526
0.00750134
0.0074138
0.00198663
0.00483004
0.00300982
0.00718527
0.00427466
0.00207937
0.00374128
0.00320316
0.00318223
0.00561125
0.00332865
0.00318552
0.00708865
0.00704314
0.0065812
0.00332708
0.00696575
0.00747288
0.00741825
0.00747293
0.00754956
0.0073331
0.00751659
0.00364741
0.00432612
0.00498083
0.00363178
0.0068575
0.00451472
0.00520363
0.00250429
0.00509031
0.00744195
0.00742706
0.00419832
0.00499896
0.00502647
0.00751213
0.00360013
0.00728604
0.00496313
0.00537489
0.00695638
0.00244607
0.00444075
0.00752016
0.00545636
0.00720395
0.00445908
0.00430394
0.0043524
0.00538476
0.00665665
0.0074824
0.00423182
0.00449154
0.00434774
0.00748654
0.00377795
0.00652946
0.00746117
0.00571317
0.00579738
0.0046823
0.0064912
0.0072565
0.00370964
0.00530137
0.00704576
0.00671895
0.00696974
0.00332086
0.00446946
0.0073886
0.00739521
0.00675124
0.00572536
0.0056784
0.0074866
0.00728826
0.00318253
0.00502503
0.00381382
0.00729854
0.00532454
0.00486033
0.00744195
0.00291894
0.00727214
0.00733147
0.00739608
0.00682845
0.00710762
0.00744727
0.00556258
0.00316508
0.00362238
0.0044468
0.00735276
0.00751882
0.00737007
0.00687996
0.00618943
0.00744301
0.00256043
0.00741175
0.00333814
0.00537909
0.00444358
0.00648239
0.00611877
0.00701657
0.0060701
0.00626173
0.00488695
0.00568799
0.00754343
0.00314305
0.00245571
0.00390839
0.00745835
0.00732962
0.00670977
0.00746986
0.00690882
0.0074094
0.00720137
0.00377512
0.00626258
0.00748024
0.00603872
0.00720808
0.00667908
0.00491486
0.00406698
0.0071393
0.00745749
0.00478106
0.00715743
0.00724664
0.00739392
0.00725638
0.00743236
0.00622606
0.00709345
0.00350505
0.00464405
0.00472075
0.00529481
0.00745167
0.00745062
0.00743424
0.00747752
0.00479915
0.00270269
0.00740161
0.00308066
0.00658359
0.00660657
0.00420853
0.00282049
0.00425646
0.00536174
0.00724316
0.0074622
0.00438376
0.00690766
0.00652593
0.00705495
0.00395476
0.00484979
0.00339681
0.00703417
0.00748285
0.00295193
0.00587376
0.0074452
0.00659148
0.0046999
0.00738725
0.00751774
0.0074859
0.00624052
0.00701784
0.00744642
0.00703754
0.00569871
0.00701649
0.00489533
0.00259886
0.00264257
0.00732509
0.00350407
0.00659874
0.00415208
0.00717849
0.00745913
0.00679369
0.00688476
0.0074544
0.00743817
0.00682546
0.00571585
0.00711432
0.00404157
0.0051272
0.00732042
0.00595948
0.00743107
0.00744219
0.00432168
0.0074156
0.0033006
0.00735492
0.00735876
0.00607897
0.00445142
0.00747102
0.00750058
0.00693474
0.00697962
0.00708152
0.00430705
0.00328869
0.00739914
0.00377981
0.00738485
0.00425526
0.00654168
0.0069285
0.00573371
0.00738332
0.00733559
0.00736512
0.00680178
0.0074427
0.00393857
0.00434074
0.00650453
0.0047002
0.00743645
0.00444434
0.00729307
0.00750828
0.00711455
0.00744954
0.00557539
0.00712518
0.00722229
0.00744407
0.00739856
0.00661682
0.00408473
0.00362366
0.00744201
0.0070351
0.00724161
0.00634928
0.00382208
0.00721695
0.00748951
0.00657343
0.00703785
0.00736873
0.00748489
0.00420392
0.00736577
0.00672631
0.00663707
0.00359355
0.00435318
0.00370394
0.00737932
0.00430124
0.00700798
0.0042975
0.00420432
0.00326964
0.00407101
0.00388347
0.00527415
0.00473327
0.00693398
0.00746692
0.00652032
0.00425941
0.00522107
0.00535151
0.00445128
0.00744125
0.00415731
0.00418836
0.00479074
0.00457229
0.00303768
0.00415377
0.00746821
0.00736207
0.00748933
0.00742122
0.0067727
0.00743029
0.00725282
0.00373173
0.00367374
0.00335202
0.00725449
0.00425147
0.00314704
0.00398842
0.00347632
0.00480925
0.00411396
0.00745059
0.00733825
0.00740713
0.00741474
0.00715815
0.00733381
0.00600213
0.00752276
0.00469153
0.00733898
0.00233776
0.00237679
0.00555685
0.00291965
0.00396325
0.00466795
0.00680906
0.00735792
0.00603134
0.0026587
0.0041983
0.00672484
0.00397928
0.00525807
0.00536706
0.0040758
0.00412508
0.00405231
0.00400951
0.00544129
0.0070539
0.00485284
0.00428589
0.00422082
0.00398655
0.00492654
0.00585358
0.00708608
0.00708035
0.00716599
0.00741043
0.00653191
0.00408839
0.0071551
0.00536042
0.00661753
0.0053284
0.00697287
0.00619123
0.00611733
0.00574634
0.00453489
0.00443094
0.00656234
0.00468433
0.00550978
0.00489631
0.00492065
0.00689824
0.00689111
0.00438155
0.00737207
0.00717253
0.00625932
0.00319265
0.00651196
0.00399651
0.00515564
0.00645247
0.0053983
0.00567696
0.00381938
0.00723912
0.00498663
0.00555459
0.00355314
0.00368899
0.00470346
0.00750961
0.00379433
0.00412974
0.00752749
0.00436443
0.00443472
0.00561472
0.00488253
0.00515695
0.0052872
0.00472258
0.00490716
0.00403764
0.00354282
0.00508468
0.00749489
0.00428543
0.00268146
0.00744014
0.00405493
0.00488935
0.00750289
0.00539927
0.00501686
0.00711459
0.0051359
0.00586062
0.00527667
0.00706972
0.00736028
0.00421302
0.00733575
0.00329619
0.00572139
0.00475994
0.00752887
0.00461399
0.0070018
0.00691506
0.00429585
0.00553504
0.00558833
0.0072452
0.00743523
0.00385496
0.00569973
0.00373083
0.00712807
0.00641875
0.00722448
0.00638513
0.00369746
0.00701217
0.00741389
0.00683859
0.00579224
0.00556365
0.0027859
0.00728593
0.00587228
0.00700744
0.00736184
0.00430293
0.00270991
0.00258392
0.00476215
0.00471161
0.00750937
0.00333217
0.00537236
0.00244659
0.00756253
0.00753554
0.00751215
0.00685213
0.00757918
0.00745524
0.00386722
0.00718827
0.00588944
0.00733084
0.00488824
0.00713757
0.0046161
0.00349006
0.0051543
0.00728313
0.00451016
0.00512031
0.00475474
0.00437143
0.00721656
0.00496163
0.00736506
0.00487085
0.00727535
0.00332489
0.00459893
0.00740646
0.00709294
0.00697807
0.00742417
0.00479028
0.00739445
0.00571916
0.00739297
0.00537745
0.00524228
0.00370595
0.00512257
0.00604662
0.00747076
0.00468244
0.00726118
0.00531669
0.00579677
0.00433594
0.00404652
0.00687647
0.0072927
0.00748939
0.00356068
0.00455569
0.00430768
0.00753484
0.00743412
0.00689606
0.00721248
0.00434714
0.00674954